1000 SPC/Fw water molecules t= 311.00000 step= 311000
 3000
    1SOL     OW    1   2.839   0.023   0.829 -0.6662 -0.1134 -0.1844
    1SOL    HW1    2   2.780   3.038   0.861 -1.4869  0.4979 -0.6553
    1SOL    HW2    3   2.898   0.053   0.907 -0.5070 -0.0085  1.0625
    2SOL     OW    4   0.020   2.395   0.741  0.0160 -0.0904 -0.5139
    2SOL    HW1    5   0.028   2.368   0.839  3.6624  0.9150 -3.0815
    2SOL    HW2    6   0.020   2.310   0.686 -0.5088  0.1335 -0.5607
    3SOL     OW    7   0.677   2.858   2.981  0.0737 -0.2535 -0.0434
    3SOL    HW1    8   0.727   2.769   2.979  0.7217 -0.3649  0.7422
    3SOL    HW2    9   0.660   2.877   2.884 -0.8377  1.3544 -0.1268
    4SOL     OW   10   2.103   2.385   1.993 -0.2852  0.1104 -0.2491
    4SOL    HW1   11   2.023   2.368   2.053 -0.6769  0.2965  2.6016
    4SOL    HW2   12   2.178   2.320   2.017  0.5599  1.7844 -0.7785
    5SOL     OW   13   1.522   0.957   1.319 -0.2197 -0.4788 -0.4365
    5SOL    HW1   14   1.516   0.887   1.242  0.1898 -1.7535 -0.3311
    5SOL    HW2   15   1.442   0.957   1.379  0.4269  2.1320 -1.1969
    6SOL     OW   16   1.910   2.725   0.137  0.1953  0.4150 -0.1176
    6SOL    HW1   17   1.846   2.802   0.137  2.1197 -0.3450 -1.7584
    6SOL    HW2   18   1.882   2.650   0.200  2.6083 -0.9586 -0.5648
    7SOL     OW   19   2.682   1.318   1.162 -0.8557  0.5341 -0.3411
    7SOL    HW1   20   2.707   1.410   1.129 -1.1699 -0.2679 -3.3419
    7SOL    HW2   21   2.645   1.321   1.259  2.3083  0.4616  1.5375
    8SOL     OW   22   1.398   2.313   1.373 -0.3163 -0.0234 -0.9772
    8SOL    HW1   23   1.316   2.252   1.371  0.0292  2.7642  0.4731
    8SOL    HW2   24   1.374   2.407   1.355  2.0765 -1.8938  0.3594
    9SOL     OW   25   1.428   2.818   2.285 -0.1629 -0.2302 -0.0170
    9SOL    HW1   26   1.351   2.780   2.338 -2.3426  3.9505 -1.1602
    9SOL    HW2   27   1.401   2.834   2.187  0.1149  0.4802 -0.0301
   10SOL     OW   28   0.671   1.949   1.333  0.3074  0.0088  0.2151
   10SOL    HW1   29   0.753   1.950   1.273 -0.8902 -0.6262 -0.8250
   10SOL    HW2   30   0.610   2.027   1.304 -1.1711  1.2923  4.2619
   11SOL     OW   31   1.890   1.868   1.262 -0.2913  0.0481  0.3173
   11SOL    HW1   32   1.975   1.845   1.316  1.8962 -0.4734  1.5245
   11SOL    HW2   33   1.908   1.935   1.187  0.4889 -1.1157  0.0154
   12SOL     OW   34   2.413   2.566   1.757  0.3678  0.6881  0.7522
   12SOL    HW1   35   2.457   2.487   1.708 -1.6651 -2.9791 -0.0854
   12SOL    HW2   36   2.453   2.581   1.847  0.5759 -3.2052 -0.2323
   13SOL     OW   37   2.313   3.063   0.420 -0.1376 -1.0932 -0.4188
   13SOL    HW1   38   2.289   2.967   0.437  0.9624  3.3701  2.8718
   13SOL    HW2   39   2.406   3.069   0.382  0.4753  0.8278  1.6324
   14SOL     OW   40   1.695   2.288   0.371  0.5150 -0.0486 -0.3368
   14SOL    HW1   41   1.632   2.226   0.319  1.8148 -0.2494  0.9179
   14SOL    HW2   42   1.787   2.243   0.369 -1.7429 -1.4422  1.8698
   15SOL     OW   43   2.915   2.080   1.915 -0.3207  0.5600 -0.2361
   15SOL    HW1   44   2.924   1.995   1.973 -1.4106 -0.1201 -1.2534
   15SOL    HW2   45   2.986   2.143   1.947 -1.1834  1.0993  0.3861
   16SOL     OW   46   2.084   2.710   0.587 -0.2445  0.3829  0.3620
   16SOL    HW1   47   1.983   2.710   0.546 -2.2433  0.3277  0.0715
   16SOL    HW2   48   2.083   2.753   0.676  1.6645 -0.1583 -0.6377
   17SOL     OW   49   0.580   0.216   1.219  0.1997  0.0614  0.0706
   17SOL    HW1   50   0.633   0.256   1.295 -0.2114 -0.4977 -2.1843
   17SOL    HW2   51   0.597   0.268   1.127  0.8631  0.6574 -1.7202
   18SOL     OW   52   1.960   0.998   0.121 -0.7214 -0.0277 -0.1539
   18SOL    HW1   53   1.956   0.928   0.049  1.6517  3.3109 -0.6988
   18SOL    HW2   54   2.049   0.984   0.169 -3.0986  1.7451  0.2617
   19SOL     OW   55   1.780   1.864   0.491 -0.0842 -0.2320  0.0708
   19SOL    HW1   56   1.840   1.840   0.568 -2.6866 -2.0248  0.2706
   19SOL    HW2   57   1.826   1.932   0.436 -0.2240 -1.6604  0.2156
   20SOL     OW   58   2.312   1.958   2.143 -0.3399  0.2014 -0.0056
   20SOL    HW1   59   2.226   1.958   2.197 -2.8259  1.5304 -0.1304
   20SOL    HW2   60   2.334   2.050   2.111 -2.0115  1.1093 -2.5588
   21SOL     OW   61   1.779   0.547   0.857 -0.0125  0.4187 -0.3692
   21SOL    HW1   62   1.764   0.568   0.757  1.9646 -1.2082  4.3157
   21SOL    HW2   63   1.860   0.485   0.874  1.1303 -0.7073 -0.8551
   22SOL     OW   64   2.405   0.169   1.441  0.1014 -0.5458  0.4477
   22SOL    HW1   65   2.360   0.223   1.367  2.2842 -0.9453  0.4349
   22SOL    HW2   66   2.378   0.195   1.534  2.6347 -1.5906  0.9920
   23SOL     OW   67   0.019   0.525   1.933  0.1387 -0.1366  0.6166
   23SOL    HW1   68   3.090   0.426   1.937 -1.2271  1.9614  1.4807
   23SOL    HW2   69   0.027   0.568   1.835 -0.5037  1.5621  0.7925
   24SOL     OW   70   2.533   2.721   0.385 -0.7525 -0.1586 -0.6925
   24SOL    HW1   71   2.449   2.765   0.423  1.4402  0.6972  0.0684
   24SOL    HW2   72   2.620   2.765   0.411 -0.5699  0.4759 -3.6791
   25SOL     OW   73   1.620   0.087   2.277 -0.2594  0.0260  0.3862
   25SOL    HW1   74   1.636   3.090   2.325 -1.4604 -0.6451  3.0244
   25SOL    HW2   75   1.526   0.122   2.301 -0.6279 -2.5725 -0.5474
   26SOL     OW   76   1.178   2.299   0.368  0.2755  0.0920 -0.1280
   26SOL    HW1   77   1.235   2.265   0.449 -2.2643 -0.9355  0.5983
   26SOL    HW2   78   1.190   2.403   0.356 -0.8356  1.1237 -0.0715
   27SOL     OW   79   2.360   1.661   2.763  0.3864  0.1641 -0.3352
   27SOL    HW1   80   2.285   1.611   2.713  2.1523  0.1694  0.1368
   27SOL    HW2   81   2.442   1.601   2.784  3.7206  0.1140  0.5700
   28SOL     OW   82   0.904   1.500   1.567 -0.2056  0.4224  0.2006
   28SOL    HW1   83   0.959   1.417   1.545  1.5159 -1.6647  0.2331
   28SOL    HW2   84   0.827   1.508   1.507 -0.4051 -0.7372  1.0478
   29SOL     OW   85   2.763   2.453   1.598  0.3144 -0.8565 -0.4378
   29SOL    HW1   86   2.785   2.536   1.544 -1.6188 -0.2443 -0.9125
   29SOL    HW2   87   2.683   2.406   1.556 -1.1888 -2.9433  0.6311
   30SOL     OW   88   1.282   0.639   1.157  0.0073 -0.3385 -0.3986
   30SOL    HW1   89   1.184   0.646   1.128 -0.3514  1.0633 -0.7358
   30SOL    HW2   90   1.321   0.544   1.142 -1.8645 -1.5844  1.4680
   31SOL     OW   91   2.236   2.840   1.923 -0.0374  0.1583  0.0739
   31SOL    HW1   92   2.219   2.768   1.992 -1.3593  1.2840 -1.3526
   31SOL    HW2   93   2.183   2.819   1.841  0.1046  2.9873  1.4347
   32SOL     OW   94   1.134   1.607   0.591 -0.6958 -0.2689 -0.2247
   32SOL    HW1   95   1.045   1.572   0.631  0.1128  1.5882  1.8844
   32SOL    HW2   96   1.166   1.543   0.522 -2.9064 -0.0676  0.1670
   33SOL     OW   97   0.324   0.383   2.495  0.0146  0.5259  0.3899
   33SOL    HW1   98   0.379   0.468   2.517  2.4992  1.0894  0.2660
   33SOL    HW2   99   0.312   0.373   2.394  1.4698 -0.1848  0.1604
   34SOL     OW  100   1.818   2.757   0.499  0.1804  0.4401  0.0460
   34SOL    HW1  101   1.800   2.754   0.600  0.1133  0.6125 -2.1292
   34SOL    HW2  102   1.815   2.853   0.471  0.1473 -0.3555  0.2308
   35SOL     OW  103   2.083   2.637   1.201 -0.2628 -1.1468 -0.2035
   35SOL    HW1  104   2.049   2.725   1.235  1.6366  2.2579 -0.0983
   35SOL    HW2  105   2.006   2.575   1.191 -0.6000  0.6927 -0.7570
   36SOL     OW  106   1.844   2.323   2.816 -0.0610  0.0098 -0.4621
   36SOL    HW1  107   1.794   2.258   2.873  1.2763  1.1359 -2.4887
   36SOL    HW2  108   1.801   2.337   2.726  0.8291  1.6079  1.0447
   37SOL     OW  109   1.334   0.147   2.335 -0.8740 -0.6577  0.3447
   37SOL    HW1  110   1.314   0.245   2.352 -0.0160 -3.0684  0.0300
   37SOL    HW2  111   1.333   0.088   2.416  1.1872 -1.2895  2.0574
   38SOL     OW  112   0.255   0.226   2.740 -0.2013  0.4104  0.0575
   38SOL    HW1  113   0.292   0.276   2.657  2.4313 -1.3696 -0.0995
   38SOL    HW2  114   0.330   0.168   2.779 -3.7635  1.2830  1.5534
   39SOL     OW  115   2.499   1.172   1.612 -0.2758  0.1769 -0.5503
   39SOL    HW1  116   2.500   1.128   1.706 -0.4460 -1.8171 -1.0279
   39SOL    HW2  117   2.417   1.225   1.602  0.6652 -0.5805  1.5251
   40SOL     OW  118   1.189   2.990   0.299 -0.1873  0.1416 -0.1005
   40SOL    HW1  119   1.121   3.061   0.312  0.6690 -1.7913  1.0675
   40SOL    HW2  120   1.189   2.968   0.200 -1.8022  0.5567  0.6400
   41SOL     OW  121   2.409   1.466   1.006 -1.0266  0.0587  0.1328
   41SOL    HW1  122   2.432   1.429   1.097  0.8210 -1.0754 -3.6079
   41SOL    HW2  123   2.494   1.478   0.946  1.3695 -1.9737 -0.3475
   42SOL     OW  124   0.914   0.454   1.321 -0.2329  0.1452 -0.2281
   42SOL    HW1  125   0.821   0.426   1.350  2.0652  1.6662 -1.6810
   42SOL    HW2  126   0.980   0.436   1.394  1.0197  0.5015 -0.5145
   43SOL     OW  127   3.007   1.636   2.417 -0.8671  0.1319 -0.1442
   43SOL    HW1  128   3.007   1.635   2.520  2.2301 -2.9830 -0.0611
   43SOL    HW2  129   2.961   1.725   2.385 -0.3530  3.1147  0.4639
   44SOL     OW  130   2.423   0.155   1.781  0.0873 -0.2698  0.5276
   44SOL    HW1  131   2.346   0.105   1.828 -1.9814  1.0745 -0.4900
   44SOL    HW2  132   2.473   0.221   1.840 -0.5438  0.9927 -0.1588
   45SOL     OW  133   0.966   3.033   1.992  0.0585  0.5279 -0.6352
   45SOL    HW1  134   1.000   3.052   1.901  0.2873 -2.0440  0.9894
   45SOL    HW2  135   1.025   3.070   2.063 -0.5367 -0.5205 -1.2653
   46SOL     OW  136   1.138   2.843   2.610 -0.3883  0.1185  0.2924
   46SOL    HW1  137   1.058   2.855   2.667 -1.8564 -1.5662  0.5430
   46SOL    HW2  138   1.222   2.861   2.666  1.0973 -1.5155 -0.5932
   47SOL     OW  139   1.979   1.854   0.660 -0.4869  0.4714  0.3848
   47SOL    HW1  140   1.993   1.914   0.740  1.1610  0.0128  1.1143
   47SOL    HW2  141   2.000   1.758   0.684  1.6102  1.1071 -2.4437
   48SOL     OW  142   1.033   2.087   0.732  0.0797  0.3189  0.1360
   48SOL    HW1  143   0.983   2.037   0.661 -1.6089  1.1151 -0.2381
   48SOL    HW2  144   1.066   2.019   0.800 -0.2006 -3.7762  0.2292
   49SOL     OW  145   2.256   2.774   2.383  0.0327 -0.0246 -0.6633
   49SOL    HW1  146   2.193   2.832   2.324 -3.4705  0.6848 -0.3884
   49SOL    HW2  147   2.287   2.825   2.461  0.9573 -2.1389 -2.3103
   50SOL     OW  148   1.497   2.887   0.135  0.1586 -0.1555  0.5341
   50SOL    HW1  149   1.597   2.885   0.149  2.4089 -2.6532  0.8937
   50SOL    HW2  150   1.463   2.983   0.108 -0.8649  2.7958 -2.9518
   51SOL     OW  151   2.038   0.691   0.867  0.1971 -0.2464 -0.1611
   51SOL    HW1  152   1.974   0.627   0.821 -0.5568 -2.6020  1.7782
   51SOL    HW2  153   2.040   0.668   0.964  1.5783 -0.8282 -2.5588
   52SOL     OW  154   1.172   1.580   1.096  0.0124  0.2259  0.6598
   52SOL    HW1  155   1.259   1.624   1.118 -2.7819 -0.7828  1.1763
   52SOL    HW2  156   1.102   1.609   1.158 -1.1302  1.0833  0.9854
   53SOL     OW  157   0.629   1.802   2.577  0.1801 -0.2726  0.1630
   53SOL    HW1  158   0.536   1.761   2.597 -2.8744 -0.7336  0.4649
   53SOL    HW2  159   0.706   1.746   2.614  0.2443 -0.0350 -1.1352
   54SOL     OW  160   2.666   0.774   1.608 -0.1412  0.0743  0.0134
   54SOL    HW1  161   2.719   0.858   1.632 -1.1488 -0.1748 -0.1544
   54SOL    HW2  162   2.685   0.693   1.669 -1.7169 -4.9414  2.3761
   55SOL     OW  163   2.579   1.997   0.436 -0.9042  0.3602 -0.1268
   55SOL    HW1  164   2.525   1.952   0.509  1.2386 -0.5419 -0.1867
   55SOL    HW2  165   2.664   2.039   0.476 -0.4921  1.4756  1.5099
   56SOL     OW  166   1.559   0.213   1.874  0.0273  0.3042 -0.1138
   56SOL    HW1  167   1.563   0.204   1.768 -0.3423 -0.9233 -1.5187
   56SOL    HW2  168   1.581   0.306   1.904 -2.2719 -3.5194  0.2116
   57SOL     OW  169   1.243   1.460   2.771 -0.3412  0.4752  0.3501
   57SOL    HW1  170   1.328   1.512   2.747  3.0290  0.0634  0.3900
   57SOL    HW2  171   1.212   1.400   2.697 -0.2776 -1.7561 -1.1490
   58SOL     OW  172   2.996   0.771   1.820  0.1325  0.8578 -0.2640
   58SOL    HW1  173   3.089   0.749   1.795 -2.4230 -1.6006 -1.4048
   58SOL    HW2  174   2.967   0.853   1.766  2.0736  2.3034  2.5659
   59SOL     OW  175   1.456   2.641   0.241  0.1776  0.0029 -0.2499
   59SOL    HW1  176   1.497   2.559   0.196  0.2027  1.1893  0.4849
   59SOL    HW2  177   1.470   2.731   0.188 -0.0271  2.9864 -0.9784
   60SOL     OW  178   2.987   1.877   0.079 -0.4684  0.1753  0.1492
   60SOL    HW1  179   2.955   1.911   0.173  0.7877  1.0640  1.2616
   60SOL    HW2  180   2.982   1.950   0.008 -2.0404 -0.5094  3.1587
   61SOL     OW  181   0.844   2.839   0.963  0.1266 -0.3751  0.5216
   61SOL    HW1  182   0.916   2.906   0.939 -1.4421 -2.0565 -0.3957
   61SOL    HW2  183   0.798   2.796   0.884 -3.6680 -0.3540  0.2298
   62SOL     OW  184   1.777   1.947   2.549 -0.6640  0.1922  0.5290
   62SOL    HW1  185   1.819   1.864   2.501  1.4827  0.4731  0.7408
   62SOL    HW2  186   1.694   1.983   2.503 -2.6936 -0.7353  0.7229
   63SOL     OW  187   2.200   2.427   0.459  0.0211 -0.0802 -0.5245
   63SOL    HW1  188   2.174   2.522   0.491  0.3395  1.8376 -1.5224
   63SOL    HW2  189   2.292   2.424   0.414  0.6322 -1.3657 -2.4814
   64SOL     OW  190   1.458   0.783   2.545  0.2947 -0.1767  0.3339
   64SOL    HW1  191   1.360   0.767   2.569  1.1997  3.4288  2.8309
   64SOL    HW2  192   1.520   0.706   2.570  0.9416  4.2670  1.1973
   65SOL     OW  193   1.866   1.688   2.465 -0.1582 -0.3178 -0.3817
   65SOL    HW1  194   1.869   1.590   2.488 -0.8709  1.2274  1.1111
   65SOL    HW2  195   1.870   1.709   2.363 -1.6768  1.9785 -0.8364
   66SOL     OW  196   0.197   0.933   1.730  0.1496  0.2375 -0.1444
   66SOL    HW1  197   0.125   1.001   1.706 -2.0132  0.6687  0.5174
   66SOL    HW2  198   0.285   0.948   1.682  4.1537 -1.8537 -0.0200
   67SOL     OW  199   2.282   2.881   2.688 -0.5106 -0.1562  0.1119
   67SOL    HW1  200   2.304   2.804   2.751 -0.4417 -2.1846  1.0225
   67SOL    HW2  201   2.321   2.970   2.724  0.4605 -0.8359  0.9404
   68SOL     OW  202   1.069   2.652   1.319  0.1414 -0.1819 -0.0180
   68SOL    HW1  203   1.056   2.745   1.352  1.0512 -2.1648 -1.8471
   68SOL    HW2  204   1.019   2.637   1.233 -2.1524  1.6334 -0.7084
   69SOL     OW  205   0.556   2.328   3.046  0.7566 -0.2287  0.2603
   69SOL    HW1  206   0.649   2.369   3.033 -1.5437 -1.7405  0.2935
   69SOL    HW2  207   0.554   2.233   3.011  2.4001  2.2502 -0.9135
   70SOL     OW  208   2.961   0.303   2.394 -0.9066 -0.0958 -0.0840
   70SOL    HW1  209   2.953   0.349   2.481 -0.8814 -2.7895  0.1851
   70SOL    HW2  210   3.027   0.349   2.332 -1.4695 -1.6978 -1.5062
   71SOL     OW  211   0.382   1.308   2.534 -0.0453  0.1440 -0.0756
   71SOL    HW1  212   0.306   1.307   2.464 -0.3035  0.7582 -0.8442
   71SOL    HW2  213   0.352   1.271   2.623  1.3485 -0.1824 -2.5391
   72SOL     OW  214   2.963   2.082   2.969  0.0184  0.6519 -0.1534
   72SOL    HW1  215   2.896   2.157   2.959  0.4443  2.0306  0.9791
   72SOL    HW2  216   2.947   2.018   2.893 -0.9615  2.6031 -1.6411
   73SOL     OW  217   1.320   1.070   0.513 -0.5497 -0.3028  0.4054
   73SOL    HW1  218   1.396   1.047   0.446 -0.6161  0.2051 -0.0952
   73SOL    HW2  219   1.235   1.019   0.487 -0.7536 -3.1084  1.6760
   74SOL     OW  220   2.354   2.748   2.911  0.6571  0.0212  0.1159
   74SOL    HW1  221   2.366   2.649   2.894  0.4854 -1.8381 -1.8285
   74SOL    HW2  222   2.309   2.774   3.002 -1.3016 -1.0406  1.8074
   75SOL     OW  223   2.295   1.996   0.893 -0.1087 -0.2000 -0.0642
   75SOL    HW1  224   2.212   2.045   0.865 -0.4638  0.2920 -1.2566
   75SOL    HW2  225   2.288   1.895   0.893  1.0383  2.3699  2.6274
   76SOL     OW  226   2.145   2.471   1.730 -0.0058  0.2013 -0.0927
   76SOL    HW1  227   2.234   2.515   1.745  0.9085 -0.5517  0.1719
   76SOL    HW2  228   2.108   2.423   1.813  1.4946  1.8124  1.0558
   77SOL     OW  229   2.664   3.089   2.094 -0.3774  0.2481  0.3711
   77SOL    HW1  230   2.622   0.085   2.103  0.5715 -1.7995  1.2561
   77SOL    HW2  231   2.598   3.017   2.055  1.1360 -0.6037  0.5643
   78SOL     OW  232   1.729   0.922   2.851  0.8519  0.2684 -0.6323
   78SOL    HW1  233   1.645   0.863   2.847 -0.4459 -2.2533 -1.7500
   78SOL    HW2  234   1.789   0.890   2.926 -1.9186 -1.7836  0.1372
   79SOL     OW  235   2.490   1.408   2.455  0.1534  0.2110  0.4693
   79SOL    HW1  236   2.568   1.464   2.495 -1.6991  0.3998  0.5174
   79SOL    HW2  237   2.424   1.484   2.429 -3.0276  1.0173  1.8670
   80SOL     OW  238   2.061   1.668   1.702 -0.0415 -0.0048 -0.1721
   80SOL    HW1  239   1.987   1.669   1.776 -1.9823 -0.3168  1.8377
   80SOL    HW2  240   2.155   1.674   1.750  1.8221 -0.3912  2.6701
   81SOL     OW  241   1.664   0.585   1.392 -0.2654  0.0414  0.1266
   81SOL    HW1  242   1.668   0.618   1.294 -1.8752  0.3604 -2.6865
   81SOL    HW2  243   1.588   0.623   1.444 -1.0770 -2.6742  3.4502
   82SOL     OW  244   1.762   2.462   1.440  0.8529  0.2500 -0.3808
   82SOL    HW1  245   1.864   2.451   1.455 -1.6995 -0.4166 -1.3975
   82SOL    HW2  246   1.708   2.408   1.509  1.5746 -1.1768 -1.7398
   83SOL     OW  247   2.891   3.093   0.416 -0.0608  0.2415  0.4354
   83SOL    HW1  248   2.933   0.063   0.482 -1.6590  1.0207  2.0231
   83SOL    HW2  249   2.888   0.035   0.320 -0.0795 -0.8987  1.4378
   84SOL     OW  250   0.352   1.013   0.095  0.4297  0.0765  0.1815
   84SOL    HW1  251   0.400   1.018   0.183 -0.1971 -0.2915 -2.7943
   84SOL    HW2  252   0.376   1.095   0.035  1.3565  2.8783 -1.1072
   85SOL     OW  253   2.674   1.963   1.534 -0.4410  0.9140  0.1697
   85SOL    HW1  254   2.764   2.001   1.573  3.3988  0.0099 -3.7557
   85SOL    HW2  255   2.599   2.006   1.585 -1.4222  2.2751 -1.1481
   86SOL     OW  256   0.155   2.693   1.292 -0.2078 -0.0611 -0.4191
   86SOL    HW1  257   0.161   2.594   1.268  0.8232 -1.2722 -2.2600
   86SOL    HW2  258   0.244   2.738   1.299  1.1037 -2.2880  2.1413
   87SOL     OW  259   0.500   2.834   2.303  0.4431 -0.4664  0.0229
   87SOL    HW1  260   0.598   2.832   2.307 -1.1444 -1.9096  2.7574
   87SOL    HW2  261   0.474   2.932   2.320  0.7030 -0.4140  0.1598
   88SOL     OW  262   0.421   2.057   0.929  0.1160  0.2682 -0.0603
   88SOL    HW1  263   0.489   2.131   0.919  2.4445 -0.7186 -0.7043
   88SOL    HW2  264   0.428   1.994   0.849 -0.5825  0.3289 -0.7105
   89SOL     OW  265   0.983   0.682   1.728 -0.0082 -0.4875 -0.4770
   89SOL    HW1  266   1.074   0.723   1.723 -3.3150  1.7802  0.1639
   89SOL    HW2  267   0.980   0.612   1.800  0.2630  1.3310  1.4251
   90SOL     OW  268   2.890   0.972   1.667 -0.7950 -0.7453 -0.5481
   90SOL    HW1  269   2.977   1.029   1.648 -1.7498 -0.6024  0.7674
   90SOL    HW2  270   2.816   1.030   1.697  0.0843 -1.8951 -0.3906
   91SOL     OW  271   1.339   1.143   1.049  0.0745 -0.4271  0.3461
   91SOL    HW1  272   1.325   1.132   0.949 -2.2832  0.6296 -1.3269
   91SOL    HW2  273   1.431   1.111   1.071 -0.3414  1.5788  0.4059
   92SOL     OW  274   2.215   1.242   0.682 -0.0631 -0.1395  0.4540
   92SOL    HW1  275   2.258   1.157   0.711 -0.4365  3.0702  0.0130
   92SOL    HW2  276   2.166   1.286   0.765 -1.4765 -0.4162  2.6271
   93SOL     OW  277   2.420   0.744   2.633  0.0549 -0.1211  0.1806
   93SOL    HW1  278   2.498   0.698   2.589 -2.6724  0.9853  2.1707
   93SOL    HW2  279   2.333   0.696   2.607  2.2064  1.6120 -0.0210
   94SOL     OW  280   2.340   1.884   2.435 -0.3633  0.5290  0.0171
   94SOL    HW1  281   2.258   1.902   2.378  2.3779  0.0096  2.0260
   94SOL    HW2  282   2.307   1.919   2.522 -0.7276  0.0606 -0.2465
   95SOL     OW  283   2.179   0.854   1.225 -0.1154 -0.0049  0.2840
   95SOL    HW1  284   2.149   0.788   1.153 -0.0468 -0.9202  1.0937
   95SOL    HW2  285   2.280   0.874   1.229  0.2908  1.2260 -0.4572
   96SOL     OW  286   2.567   2.967   1.732  0.6387 -0.7324  0.3193
   96SOL    HW1  287   2.540   2.926   1.824 -1.4948  1.5485 -0.0079
   96SOL    HW2  288   2.523   3.062   1.718 -1.0547  0.9516 -1.6415
   97SOL     OW  289   2.428   0.901   1.194  0.5411  0.6861 -0.1899
   97SOL    HW1  290   2.404   0.996   1.163 -1.9791 -1.5928  0.1729
   97SOL    HW2  291   2.457   0.894   1.292 -1.3043 -1.9775 -0.5571
   98SOL     OW  292   1.528   2.017   1.607 -0.4241  0.3954  0.3596
   98SOL    HW1  293   1.465   2.007   1.683  1.0566  0.0169 -2.6904
   98SOL    HW2  294   1.497   2.097   1.553  1.6176 -0.9978 -0.3556
   99SOL     OW  295   3.001   2.344   1.653  0.1698  0.1858  0.4675
   99SOL    HW1  296   2.917   2.394   1.625  2.1822  1.1847  1.4637
   99SOL    HW2  297   3.067   2.402   1.705  0.1966  1.3999  0.7539
  100SOL     OW  298   1.148   0.856   2.986  0.2349  0.5868 -0.2006
  100SOL    HW1  299   1.049   0.864   3.000  1.7400  0.3071 -2.5368
  100SOL    HW2  300   1.205   0.937   3.010  0.3865  0.4609 -1.7094
  101SOL     OW  301   2.113   0.211   2.722 -0.3751 -0.5394  0.2913
  101SOL    HW1  302   2.057   0.130   2.716  1.9477  2.4596 -1.2544
  101SOL    HW2  303   2.121   0.239   2.817 -0.2537  1.7025 -3.5621
  102SOL     OW  304   0.598   0.611   1.882 -0.1015 -0.5506 -0.1595
  102SOL    HW1  305   0.685   0.666   1.882 -1.9892 -2.6666 -1.4748
  102SOL    HW2  306   0.531   0.644   1.953 -0.3506  4.1376  1.0387
  103SOL     OW  307   0.337   0.622   2.813 -0.6181 -0.5606 -0.0567
  103SOL    HW1  308   0.368   0.703   2.859 -0.1029 -0.3123  0.1465
  103SOL    HW2  309   0.376   0.544   2.864 -0.0690  4.4296 -1.5340
  104SOL     OW  310   1.068   0.466   2.476  0.3964  0.3629  0.6533
  104SOL    HW1  311   1.054   0.448   2.375  0.2540 -2.0656 -1.7226
  104SOL    HW2  312   0.974   0.457   2.521 -1.9122  0.0083  1.9981
  105SOL     OW  313   2.266   1.975   1.772 -0.6148  0.8665 -0.3591
  105SOL    HW1  314   2.307   1.880   1.789  2.7186 -1.8459  1.9674
  105SOL    HW2  315   2.323   2.041   1.820  0.1738 -1.2052 -2.0805
  106SOL     OW  316   1.608   0.464   0.456  0.6014 -0.5534 -0.2055
  106SOL    HW1  317   1.523   0.455   0.518 -3.1311  0.3036 -0.5362
  106SOL    HW2  318   1.677   0.399   0.490 -2.6970 -0.8243 -0.5514
  107SOL     OW  319   2.745   2.076   0.863 -0.1514  0.8458  0.3121
  107SOL    HW1  320   2.753   2.100   0.963  2.6409  2.0248  3.4494
  107SOL    HW2  321   2.829   2.029   0.825  0.9428 -2.1489 -1.5739
  108SOL     OW  322   2.807   2.656   1.434 -0.3051 -0.0561 -0.5575
  108SOL    HW1  323   2.748   2.737   1.451  0.0381  2.5571  0.0941
  108SOL    HW2  324   2.869   2.686   1.356  4.8144 -1.0915 -1.5494
  109SOL     OW  325   2.073   2.820   0.825  0.3893 -0.3618 -0.0330
  109SOL    HW1  326   1.989   2.815   0.887  0.3046 -1.1033  2.2307
  109SOL    HW2  327   2.157   2.851   0.872 -0.1395 -0.8046  0.7212
  110SOL     OW  328   0.594   1.966   2.366  0.0492 -0.1817 -0.8643
  110SOL    HW1  329   0.523   2.031   2.397  0.1051 -0.7028  0.5197
  110SOL    HW2  330   0.630   1.912   2.446  0.1805  1.6696 -0.9706
  111SOL     OW  331   1.779   2.415   2.006 -0.8432  0.2226  0.3953
  111SOL    HW1  332   1.676   2.405   2.016  0.7526 -2.1900  4.1505
  111SOL    HW2  333   1.809   2.371   1.917  0.2701  1.2280  0.8284
  112SOL     OW  334   1.975   1.885   3.073 -0.5556  0.2688 -0.4876
  112SOL    HW1  335   2.035   1.838   0.049  1.4520 -0.3244 -0.0302
  112SOL    HW2  336   2.033   1.936   3.009  0.9233  1.4814 -3.1300
  113SOL     OW  337   1.806   2.090   1.461 -0.0277 -0.4222  0.3510
  113SOL    HW1  338   1.905   2.115   1.473 -0.2650  1.6142  1.8960
  113SOL    HW2  339   1.774   2.028   1.532  0.8477  0.3966 -1.8042
  114SOL     OW  340   2.826   1.014   0.733 -0.1885  0.0314  0.0849
  114SOL    HW1  341   2.795   1.097   0.780  1.1313 -0.7046  2.1717
  114SOL    HW2  342   2.775   0.937   0.760  5.3096  1.7696  0.2706
  115SOL     OW  343   0.686   0.729   0.006 -0.4583  0.1962 -0.2099
  115SOL    HW1  344   0.617   0.725   3.030  2.6622  0.4234  0.8516
  115SOL    HW2  345   0.656   0.680   0.089 -0.1028  1.1089 -1.2527
  116SOL     OW  346   2.681   1.598   2.532  0.2277 -0.0946  0.2872
  116SOL    HW1  347   2.739   1.618   2.610  0.9024  0.2977 -4.3229
  116SOL    HW2  348   2.623   1.679   2.508 -1.8579 -1.2610 -1.4818
  117SOL     OW  349   0.067   2.945   0.723 -0.3347 -0.3254  0.4142
  117SOL    HW1  350   0.062   2.895   0.632 -1.4382 -1.9058 -2.3532
  117SOL    HW2  351   0.002   2.894   0.782 -1.0845  0.3397 -0.0135
  118SOL     OW  352   0.841   1.688   2.689  0.4596  0.2847  0.1001
  118SOL    HW1  353   0.893   1.770   2.727  3.8292  1.2141 -0.4585
  118SOL    HW2  354   0.773   1.647   2.752 -3.2863 -1.2200  3.1143
  119SOL     OW  355   0.501   2.219   0.520  0.5219  0.0181  0.5208
  119SOL    HW1  356   0.585   2.275   0.529  1.1510 -2.2800 -1.6051
  119SOL    HW2  357   0.421   2.282   0.495 -0.6356  0.1312  0.9503
  120SOL     OW  358   1.268   0.588   0.008  0.1468 -0.4143  0.0096
  120SOL    HW1  359   1.278   0.630   0.099 -0.8610 -2.0699  1.8741
  120SOL    HW2  360   1.304   0.645   3.027 -0.6605 -1.9962 -1.3518
  121SOL     OW  361   1.170   2.615   0.577  0.0307  0.1044 -0.2660
  121SOL    HW1  362   1.204   2.524   0.611 -0.6544 -1.1558 -1.2632
  121SOL    HW2  363   1.171   2.615   0.474 -1.2047 -0.3607  1.7156
  122SOL     OW  364   2.322   2.530   1.309 -0.9069  0.2394  0.2976
  122SOL    HW1  365   2.359   2.588   1.380 -0.4021  0.2792 -0.3216
  122SOL    HW2  366   2.233   2.574   1.272  0.9013  0.9438 -0.2425
  123SOL     OW  367   0.717   2.032   0.680  0.6888  0.2129 -0.4202
  123SOL    HW1  368   0.753   2.115   0.636 -0.2732 -0.6321 -1.8159
  123SOL    HW2  369   0.618   2.038   0.707  0.7373  2.7845  1.2458
  124SOL     OW  370   2.634   0.622   0.155 -0.6552 -0.6420  0.3149
  124SOL    HW1  371   2.675   0.530   0.170 -2.1506 -1.1802  2.2700
  124SOL    HW2  372   2.587   0.655   0.238 -0.9043 -0.8681  0.0697
  125SOL     OW  373   0.438   1.041   0.357  0.1426 -0.4730  0.2191
  125SOL    HW1  374   0.385   0.963   0.400 -0.1519 -0.6098 -1.7407
  125SOL    HW2  375   0.391   1.133   0.379 -4.5729  2.3721 -1.0237
  126SOL     OW  376   0.046   1.917   1.110 -0.4143 -0.1409 -0.0337
  126SOL    HW1  377   0.071   1.820   1.128  0.7351  0.1429 -1.5116
  126SOL    HW2  378   3.055   1.947   1.162 -1.6378  1.3966  2.1120
  127SOL     OW  379   1.363   2.042   1.811  0.1165  0.0751 -0.0422
  127SOL    HW1  380   1.398   2.073   1.904  0.3672 -1.5920 -0.4875
  127SOL    HW2  381   1.269   2.066   1.808  4.4464 -1.7108  1.6920
  128SOL     OW  382   1.052   0.971   0.414 -0.0666 -0.0681  0.3641
  128SOL    HW1  383   1.049   0.929   0.320 -0.9189 -0.3516 -0.2572
  128SOL    HW2  384   1.047   1.074   0.402  0.6314  0.2171  1.7373
  129SOL     OW  385   1.957   1.160   0.856  0.3374 -0.0634 -0.4309
  129SOL    HW1  386   1.994   1.146   0.767 -2.0978 -0.2710  0.6853
  129SOL    HW2  387   1.872   1.221   0.857 -5.9733 -0.4483  0.3588
  130SOL     OW  388   2.530   1.602   1.411  0.2691  0.1452  0.0084
  130SOL    HW1  389   2.575   1.668   1.343 -2.0057 -1.1738 -2.2257
  130SOL    HW2  390   2.504   1.511   1.376  0.6871  0.4123 -1.0417
  131SOL     OW  391   2.986   2.686   2.952 -0.2919 -0.8105  0.2591
  131SOL    HW1  392   2.926   2.685   3.038 -0.6634 -1.3821  0.6845
  131SOL    HW2  393   3.027   2.776   2.939  0.4944 -0.9903  2.5107
  132SOL     OW  394   0.116   1.362   0.779  0.5459  0.2208  0.0514
  132SOL    HW1  395   0.086   1.386   0.686  1.8855 -1.6113  1.5753
  132SOL    HW2  396   0.144   1.259   0.781 -0.4217 -3.1591  1.1893
  133SOL     OW  397   0.684   0.366   1.710  0.2943 -0.9743 -0.0684
  133SOL    HW1  398   0.686   0.436   1.784 -1.8322 -1.1750 -1.0524
  133SOL    HW2  399   0.716   0.276   1.740 -0.5022  1.3786 -0.9678
  134SOL     OW  400   0.310   1.749   2.889 -0.4146 -0.5319  0.7317
  134SOL    HW1  401   0.306   1.795   2.983 -2.2031  1.3743 -0.6319
  134SOL    HW2  402   0.317   1.821   2.818  0.2644  0.5352  0.6882
  135SOL     OW  403   1.736   0.665   1.847 -0.5530 -0.2308  0.5595
  135SOL    HW1  404   1.752   0.722   1.767  3.6212 -0.1702 -0.0241
  135SOL    HW2  405   1.665   0.711   1.901  3.3162 -0.0727 -2.6242
  136SOL     OW  406   3.084   1.206   0.353  0.0480  0.2595 -0.0772
  136SOL    HW1  407   0.043   1.126   0.322  1.9155  3.0523 -0.6982
  136SOL    HW2  408   2.998   1.180   0.403  0.0957 -0.0566  1.5316
  137SOL     OW  409   0.037   1.185   1.052 -0.3464  0.0558  0.3188
  137SOL    HW1  410   0.062   1.091   1.078 -0.9591 -1.3324  0.8208
  137SOL    HW2  411   0.098   1.217   0.974 -3.3275 -0.7609 -2.1138
  138SOL     OW  412   1.959   0.675   1.170  0.8229 -0.4796  0.1622
  138SOL    HW1  413   1.970   0.690   1.269 -2.2238 -0.3874  0.3700
  138SOL    HW2  414   1.862   0.662   1.149  4.7169  0.5921 -0.8872
  139SOL     OW  415   1.202   2.598   0.319  0.2310  0.1856 -0.6597
  139SOL    HW1  416   1.293   2.642   0.298  0.4371  1.9622  1.4778
  139SOL    HW2  417   1.146   2.579   0.233 -1.7699 -0.1860 -2.2181
  140SOL     OW  418   1.484   1.448   1.825  0.1856  0.4944  0.0071
  140SOL    HW1  419   1.416   1.502   1.771 -0.0046 -1.8709 -1.7425
  140SOL    HW2  420   1.463   1.346   1.835 -1.8839 -4.2320 -1.5117
  141SOL     OW  421   1.527   1.968   0.541 -0.2917  1.0104  0.0037
  141SOL    HW1  422   1.535   2.005   0.638  1.4092  1.3318  0.7414
  141SOL    HW2  423   1.621   1.940   0.507  3.2152 -2.1286 -1.8729
  142SOL     OW  424   0.868   0.563   0.240  0.6158 -0.2893  0.0683
  142SOL    HW1  425   0.853   0.537   0.144  0.2238  2.4812  2.6236
  142SOL    HW2  426   0.844   0.663   0.254  1.4522 -0.9269 -0.5442
  143SOL     OW  427   0.331   1.910   2.656 -0.1496 -0.1692 -0.7319
  143SOL    HW1  428   0.325   1.987   2.723 -1.9297  1.0447 -0.5677
  143SOL    HW2  429   0.293   1.932   2.563 -0.8994  1.9363  0.4192
  144SOL     OW  430   1.444   2.626   1.036  0.4505 -0.3480  0.3435
  144SOL    HW1  431   1.523   2.564   1.057  0.1954 -1.2306  0.2562
  144SOL    HW2  432   1.472   2.718   0.996  2.8514  0.9672 -0.8198
  145SOL     OW  433   1.988   1.075   2.765  0.3917  0.5732  0.5387
  145SOL    HW1  434   2.058   1.064   2.837  0.2047  0.4877 -0.6259
  145SOL    HW2  435   1.906   1.021   2.792  1.2584  1.0234 -0.9621
  146SOL     OW  436   0.273   2.560   0.811  0.6710  0.2240  0.0325
  146SOL    HW1  437   0.257   2.661   0.801 -0.6983 -1.7372  0.3016
  146SOL    HW2  438   0.197   2.520   0.759  1.6916  0.5144 -0.7745
  147SOL     OW  439   2.207   0.019   1.913  0.2044  0.5067  0.2116
  147SOL    HW1  440   2.216   3.016   1.909  0.7524  0.2689  1.9315
  147SOL    HW2  441   2.111   0.049   1.937 -1.3216  1.4289  0.0599
  148SOL     OW  442   0.712   2.946   2.039  0.3757 -0.1329  0.0118
  148SOL    HW1  443   0.804   2.976   2.009 -1.3951  0.2470 -0.6334
  148SOL    HW2  444   0.671   2.892   1.962 -0.8632  0.5470  1.3457
  149SOL     OW  445   1.739   0.356   2.448 -0.4482  0.2059 -0.4468
  149SOL    HW1  446   1.649   0.375   2.501 -2.2175  0.9870  2.0582
  149SOL    HW2  447   1.756   0.258   2.441  1.0705  0.4828  1.1505
  150SOL     OW  448   2.870   0.115   0.151 -0.0918  0.3208 -0.1535
  150SOL    HW1  449   2.856   0.076   0.059  0.2847 -1.4283  0.0735
  150SOL    HW2  450   2.875   0.222   0.151  0.3133  3.0610  0.5285
  151SOL     OW  451   0.773   1.685   0.602 -0.0672  0.0590 -0.5144
  151SOL    HW1  452   0.828   1.774   0.608  0.5366  0.5843  2.4638
  151SOL    HW2  453   0.758   1.659   0.506 -0.3325  4.2361 -0.5318
  152SOL     OW  454   2.717   0.450   0.353 -0.0998 -0.2648 -0.5261
  152SOL    HW1  455   2.657   0.369   0.371 -1.2685 -1.0900 -1.0862
  152SOL    HW2  456   2.716   0.523   0.422 -1.8272 -0.2086  1.1726
  153SOL     OW  457   2.791   0.307   1.221 -0.2253 -0.5682 -0.7396
  153SOL    HW1  458   2.873   0.351   1.178 -2.1599 -0.1583  2.5953
  153SOL    HW2  459   2.715   0.375   1.220  1.8553 -1.0371 -0.6587
  154SOL     OW  460   1.200   3.090   2.161 -0.4816  0.1188  0.2349
  154SOL    HW1  461   1.248   0.072   2.214 -1.2662  3.4586 -0.7270
  154SOL    HW2  462   1.271   3.029   2.116 -1.7195  0.7450  0.3038
  155SOL     OW  463   0.483   1.847   1.141 -0.6209  0.4103 -0.3592
  155SOL    HW1  464   0.498   1.887   1.049 -0.4312 -0.8426 -1.4486
  155SOL    HW2  465   0.519   1.902   1.215 -1.8061 -0.3327  1.8967
  156SOL     OW  466   2.095   2.148   3.065 -0.2019 -0.6335  0.2530
  156SOL    HW1  467   2.130   2.241   3.045 -1.5637  4.3429 -0.0942
  156SOL    HW2  468   2.112   2.125   0.069  1.0410 -0.7707 -0.6411
  157SOL     OW  469   0.745   0.794   0.308  0.4592  0.3424 -0.3061
  157SOL    HW1  470   0.663   0.733   0.307 -1.1348  2.4850 -1.3235
  157SOL    HW2  471   0.716   0.891   0.290  0.1012  2.6399  1.4722
  158SOL     OW  472   2.374   0.035   2.746 -0.1642 -0.2264 -0.2627
  158SOL    HW1  473   2.391   0.041   2.845 -1.8586  0.4787 -0.2949
  158SOL    HW2  474   2.303   0.101   2.719 -0.7548  1.0958  1.2970
  159SOL     OW  475   0.020   0.242   0.521  0.4794  0.8125  0.0804
  159SOL    HW1  476   0.066   0.318   0.474  0.0798 -1.8513 -1.7952
  159SOL    HW2  477   0.084   0.199   0.587  0.7168  0.8571 -1.9035
  160SOL     OW  478   1.435   1.777   2.267  0.6406  0.1583 -0.4816
  160SOL    HW1  479   1.390   1.737   2.350  2.1259  2.4459  0.8870
  160SOL    HW2  480   1.370   1.765   2.189  0.1059 -0.6177 -0.3289
  161SOL     OW  481   2.949   0.934   2.589 -0.3951  0.3465 -0.5051
  161SOL    HW1  482   2.893   0.855   2.560  1.1001 -0.1827 -3.0539
  161SOL    HW2  483   2.946   0.940   2.692 -1.0641  2.2959  2.6336
  162SOL     OW  484   0.384   2.291   1.419  0.1453  0.4724  0.6330
  162SOL    HW1  485   0.338   2.252   1.501  1.6793 -1.2170 -1.3942
  162SOL    HW2  486   0.424   2.215   1.363 -0.8831 -1.7423 -0.4861
  163SOL     OW  487   2.005   0.219   2.288 -0.5647 -0.0646 -0.2326
  163SOL    HW1  488   2.085   0.158   2.264  3.5072  0.9437 -2.6733
  163SOL    HW2  489   2.033   0.292   2.354 -1.3215  0.9483 -0.3321
  164SOL     OW  490   2.124   1.772   0.184 -1.4317  0.2934 -0.4170
  164SOL    HW1  491   2.222   1.769   0.146 -0.7762 -1.1552 -0.1417
  164SOL    HW2  492   2.126   1.702   0.256 -0.9221  1.3319 -1.0662
  165SOL     OW  493   3.077   0.415   1.501  0.5001  0.0229 -0.0623
  165SOL    HW1  494   3.084   0.506   1.457 -2.9393  3.6301 -1.2572
  165SOL    HW2  495   0.061   0.360   1.472 -0.2170  0.1585 -1.2259
  166SOL     OW  496   2.173   1.099   2.964  0.2883  0.0262 -0.2082
  166SOL    HW1  497   2.260   1.063   3.006  3.1191 -1.6787  2.0849
  166SOL    HW2  498   2.142   1.181   3.015 -0.3942  2.2599  1.8881
  167SOL     OW  499   2.870   0.795   0.130  0.2680  0.0841  0.6632
  167SOL    HW1  500   2.780   0.742   0.116  1.1080  0.7720 -0.6394
  167SOL    HW2  501   2.929   0.781   0.048 -1.4394 -2.9794  1.0109
  168SOL     OW  502   1.582   2.572   2.539 -0.4588 -0.6461 -0.3693
  168SOL    HW1  503   1.590   2.594   2.641 -0.3070  0.1489  0.8467
  168SOL    HW2  504   1.648   2.623   2.484 -0.4666 -1.0406 -2.2022
  169SOL     OW  505   0.447   1.529   0.546 -0.2556 -0.4727 -0.2717
  169SOL    HW1  506   0.480   1.523   0.641 -0.5152 -0.2013 -1.3995
  169SOL    HW2  507   0.412   1.438   0.519  1.8919  1.0881  0.4675
  170SOL     OW  508   0.342   0.323   1.390  0.0428  0.3182  0.1394
  170SOL    HW1  509   0.376   0.397   1.445 -2.1802 -0.6276 -2.5426
  170SOL    HW2  510   0.424   0.276   1.353 -2.1316 -1.9007 -0.5065
  171SOL     OW  511   1.281   2.112   2.692 -0.4757 -0.2806 -0.1573
  171SOL    HW1  512   1.226   2.146   2.611 -0.1941 -0.3818 -1.9128
  171SOL    HW2  513   1.372   2.159   2.691 -1.0406  1.8376 -0.4531
  172SOL     OW  514   2.995   2.727   1.238  0.9332 -0.0116 -0.0861
  172SOL    HW1  515   2.975   2.663   1.157  2.2203  1.0552 -1.6137
  172SOL    HW2  516   0.002   2.718   1.258  0.3006 -0.1196  0.1342
  173SOL     OW  517   1.549   0.367   3.085 -0.0325  0.7159 -0.4619
  173SOL    HW1  518   1.504   0.441   0.043 -1.9288 -0.2539  0.1368
  173SOL    HW2  519   1.556   0.293   0.061 -0.7178 -3.5832  2.5542
  174SOL     OW  520   1.070   0.134   2.766  0.2975  0.1698  0.2749
  174SOL    HW1  521   1.046   0.036   2.768  0.2576  0.3849 -0.5739
  174SOL    HW2  522   1.073   0.185   2.854  2.4939  3.8839  0.2272
  175SOL     OW  523   2.167   2.028   0.542  0.3613  0.1489 -0.0879
  175SOL    HW1  524   2.127   2.114   0.578  2.4063  0.4274  0.1235
  175SOL    HW2  525   2.104   1.946   0.559 -1.3147  0.1126  0.7352
  176SOL     OW  526   1.369   0.046   0.054  0.4955 -0.3079 -0.1130
  176SOL    HW1  527   1.335   0.139   0.071 -0.6222 -2.7017  2.9180
  176SOL    HW2  528   1.302   3.088   0.001 -1.5496  0.2011  1.5119
  177SOL     OW  529   1.154   1.521   0.326 -0.2567  0.0996  0.4272
  177SOL    HW1  530   1.127   1.615   0.303 -1.6343 -1.8451 -1.7954
  177SOL    HW2  531   1.254   1.510   0.304 -1.3244  0.2498  0.6461
  178SOL     OW  532   2.478   2.313   2.914  0.0811 -0.5779 -0.3532
  178SOL    HW1  533   2.458   2.392   2.975  1.3972 -0.1528  1.2305
  178SOL    HW2  534   2.406   2.246   2.934 -1.8018  0.6170 -1.1551
  179SOL     OW  535   2.615   2.832   2.983  0.1888  0.0396  0.0954
  179SOL    HW1  536   2.526   2.796   2.954 -0.1174 -2.3479 -1.9697
  179SOL    HW2  537   2.673   2.869   2.903  0.4154  0.0708 -1.5158
  180SOL     OW  538   1.745   1.535   0.955  0.5966  0.4963  0.2262
  180SOL    HW1  539   1.660   1.593   0.947  0.5234  1.2487  0.0722
  180SOL    HW2  540   1.741   1.447   0.910  0.1281  0.7494 -2.0061
  181SOL     OW  541   1.768   0.778   2.462  0.3461  0.3352  0.4399
  181SOL    HW1  542   1.730   0.868   2.431 -0.2312 -0.2226  1.1486
  181SOL    HW2  543   1.738   0.702   2.400  0.0178  2.4901 -0.6475
  182SOL     OW  544   2.552   0.034   2.521 -0.3583 -0.2276  0.1291
  182SOL    HW1  545   2.494   0.036   2.607 -0.2000 -1.7309 -1.2152
  182SOL    HW2  546   2.498   0.063   2.445 -0.1306  0.4900  2.7868
  183SOL     OW  547   1.744   0.562   2.255  0.4255  0.2820  0.4635
  183SOL    HW1  548   1.822   0.561   2.191  0.5046 -4.1005 -0.9549
  183SOL    HW2  549   1.756   0.511   2.341  0.7074  2.1852  0.9382
  184SOL     OW  550   2.959   1.284   1.262 -0.4088  0.2864  0.6846
  184SOL    HW1  551   3.004   1.240   1.180 -0.8994 -1.7970  1.2735
  184SOL    HW2  552   2.860   1.265   1.256 -1.9291 -1.3818 -0.1201
  185SOL     OW  553   1.973   0.702   0.462  0.2413  0.8152 -0.7260
  185SOL    HW1  554   2.014   0.785   0.507 -0.3768 -1.4493 -0.3174
  185SOL    HW2  555   2.031   0.621   0.482  1.0158 -0.3103  0.8302
  186SOL     OW  556   0.365   2.697   2.956  0.0965  0.3400 -0.0232
  186SOL    HW1  557   0.370   2.705   3.054  0.3721 -2.3220  1.6258
  186SOL    HW2  558   0.366   2.788   2.906 -0.6749  0.8533 -2.3033
  187SOL     OW  559   2.386   0.911   0.024 -0.2668  0.2745  0.1863
  187SOL    HW1  560   2.373   0.815   3.075 -1.0707 -2.8310 -0.7035
  187SOL    HW2  561   2.484   0.939   0.034 -0.3445  0.6802 -1.5100
  188SOL     OW  562   3.043   1.665   1.396  0.6460 -0.4531  0.1267
  188SOL    HW1  563   2.981   1.585   1.418  0.1809  1.2528 -1.0995
  188SOL    HW2  564   3.020   1.738   1.466 -0.7315 -0.2714 -2.3453
  189SOL     OW  565   2.531   0.381   2.967  0.3200  0.1552 -0.4013
  189SOL    HW1  566   2.544   0.413   2.871  1.9039  1.2119  0.2805
  189SOL    HW2  567   2.475   0.448   3.017  0.0115 -1.4879  0.8705
  190SOL     OW  568   1.453   1.167   1.893  0.0758  0.2151  0.0379
  190SOL    HW1  569   1.515   1.116   1.826  0.4165  1.3053 -2.5172
  190SOL    HW2  570   1.477   1.134   1.986 -0.8085  0.8263 -0.6586
  191SOL     OW  571   0.490   0.324   2.062 -0.1816  0.2029 -0.8751
  191SOL    HW1  572   0.496   0.234   2.016 -1.5830  2.2865  1.8674
  191SOL    HW2  573   0.417   0.375   2.011 -1.0957  0.3010  0.6216
  192SOL     OW  574   2.139   1.444   1.232  0.2748 -0.1090 -0.0748
  192SOL    HW1  575   2.080   1.489   1.164 -0.7717  1.7997  0.3010
  192SOL    HW2  576   2.105   1.464   1.325 -2.3522 -0.1448 -1.0600
  193SOL     OW  577   1.471   0.805   1.089 -0.1202  0.1225  0.3110
  193SOL    HW1  578   1.473   0.848   0.996 -1.1289 -0.9396 -0.3985
  193SOL    HW2  579   1.396   0.738   1.105  1.7168  2.4207 -0.5463
  194SOL     OW  580   0.845   2.433   1.753  0.7275 -0.0955 -0.0365
  194SOL    HW1  581   0.914   2.467   1.686  2.8774 -4.3247 -1.9950
  194SOL    HW2  582   0.774   2.366   1.717 -1.1519  0.9695  0.2625
  195SOL     OW  583   1.905   3.080   2.983 -0.1832 -0.3110 -0.1108
  195SOL    HW1  584   1.913   0.014   2.887 -1.7570 -0.2440  1.1972
  195SOL    HW2  585   1.999   3.070   3.021  1.7617  1.0455  1.9380
  196SOL     OW  586   0.780   1.935   1.850 -0.2298 -0.2364 -0.0303
  196SOL    HW1  587   0.782   1.965   1.752  2.7207 -2.7969  0.8107
  196SOL    HW2  588   0.869   1.900   1.883  0.6760  0.7771  1.8711
  197SOL     OW  589   1.199   0.201   1.287  0.0358  0.3338  0.6910
  197SOL    HW1  590   1.182   0.238   1.192  1.3315  1.7780  0.8426
  197SOL    HW2  591   1.184   0.278   1.352  1.9671 -0.5600 -1.4870
  198SOL     OW  592   0.792   1.086   1.161  0.7791  0.5450  0.2396
  198SOL    HW1  593   0.837   1.018   1.219 -1.6730 -1.1792 -1.7002
  198SOL    HW2  594   0.743   1.038   1.085 -1.1001  0.1759  0.4962
  199SOL     OW  595   3.078   2.731   1.609 -0.0571 -0.2822 -0.6864
  199SOL    HW1  596   0.085   2.736   1.616  1.3493  2.8840 -1.4116
  199SOL    HW2  597   3.045   2.751   1.517  3.1268  0.1778  3.0855
  200SOL     OW  598   2.040   1.906   1.980  0.0425 -0.8158 -0.1161
  200SOL    HW1  599   1.987   1.937   1.900  0.6508  0.5731  2.4559
  200SOL    HW2  600   2.138   1.916   1.955  1.6218 -0.9956 -1.8297
  201SOL     OW  601   0.431   1.524   2.011 -0.3835 -0.4739  0.0664
  201SOL    HW1  602   0.487   1.438   2.005 -0.5983 -0.3867 -0.3596
  201SOL    HW2  603   0.486   1.600   2.054  1.2656  2.8037  2.9648
  202SOL     OW  604   2.006   0.539   0.228  0.3990 -0.0865  0.5989
  202SOL    HW1  605   1.962   0.572   0.141  1.1567 -0.8635 -0.1592
  202SOL    HW2  606   1.967   0.595   0.296 -0.0956  0.3123 -3.6706
  203SOL     OW  607   1.041   2.348   2.160 -0.0641 -0.1778 -0.0810
  203SOL    HW1  608   1.034   2.332   2.260 -1.1555  1.2292 -0.8453
  203SOL    HW2  609   0.947   2.352   2.112 -0.2519  0.3373 -1.2296
  204SOL     OW  610   1.053   2.120   1.636  0.7774  0.3285  0.4446
  204SOL    HW1  611   0.963   2.066   1.631 -2.5757 -2.7434  0.0693
  204SOL    HW2  612   1.061   2.166   1.727 -1.3545 -0.2430  0.3861
  205SOL     OW  613   1.767   1.852   1.919 -0.0457 -0.3270  0.3961
  205SOL    HW1  614   1.704   1.826   1.994 -0.3748  0.6239  1.6576
  205SOL    HW2  615   1.820   1.776   1.879 -0.4868  0.0253 -0.4795
  206SOL     OW  616   0.480   0.791   2.316 -0.3496  0.3477  0.4309
  206SOL    HW1  617   0.494   0.716   2.386  1.9773  1.5826  0.7248
  206SOL    HW2  618   0.518   0.879   2.355  1.3373  1.0252  1.2261
  207SOL     OW  619   1.119   2.730   1.961  0.3947 -0.3174 -0.0579
  207SOL    HW1  620   1.070   2.709   2.048 -1.5172 -0.7895  0.6903
  207SOL    HW2  621   1.061   2.718   1.877 -1.5404 -0.1210 -3.6259
  208SOL     OW  622   0.563   2.844   1.831 -0.2370  0.0237 -0.4037
  208SOL    HW1  623   0.585   2.748   1.801  0.5218 -2.4006  0.1083
  208SOL    HW2  624   0.495   2.844   1.905  0.2261  0.3023 -1.0229
  209SOL     OW  625   1.604   0.165   0.172  0.2636 -0.1152 -0.3049
  209SOL    HW1  626   1.612   0.157   0.274  0.7038  2.5983  1.4163
  209SOL    HW2  627   1.519   0.114   0.145 -0.6605 -0.8608  0.3349
  210SOL     OW  628   2.811   0.698   0.616 -0.1298  0.3575  0.0410
  210SOL    HW1  629   2.875   0.698   0.699 -2.2767 -0.5648  3.3937
  210SOL    HW2  630   2.838   0.771   0.552 -1.2143  0.1248 -0.3853
  211SOL     OW  631   0.651   0.376   1.422  0.8257 -0.4790 -0.8194
  211SOL    HW1  632   0.636   0.472   1.397 -0.5778  0.5614  1.2621
  211SOL    HW2  633   0.656   0.374   1.524 -1.0363 -1.9419  4.2732
  212SOL     OW  634   1.475   1.948   1.109 -0.2602  0.2256 -0.1485
  212SOL    HW1  635   1.570   1.927   1.076 -0.0545  0.6704  4.6330
  212SOL    HW2  636   1.411   1.995   1.043 -1.7064  0.4165  2.2004
  213SOL     OW  637   2.213   0.300   1.740  0.3919  0.1514  0.0603
  213SOL    HW1  638   2.300   0.250   1.758  0.8158 -1.8521 -0.3395
  213SOL    HW2  639   2.224   0.402   1.735  0.1552 -0.2745 -0.1869
  214SOL     OW  640   0.835   2.491   2.681 -0.0551  0.0382  0.4131
  214SOL    HW1  641   0.749   2.546   2.688  0.4038  0.0959 -1.7653
  214SOL    HW2  642   0.811   2.404   2.638 -0.4930  1.0953  1.0042
  215SOL     OW  643   2.784   1.695   1.620  0.0913 -0.2412  0.4000
  215SOL    HW1  644   2.718   1.703   1.543 -1.0160 -0.3754 -0.0026
  215SOL    HW2  645   2.858   1.768   1.617  4.1688  1.4792 -0.3907
  216SOL     OW  646   0.668   0.965   1.653 -0.0914  0.6267  0.1276
  216SOL    HW1  647   0.590   0.988   1.593  1.4734 -2.1756  0.4693
  216SOL    HW2  648   0.737   1.042   1.657 -1.9775 -0.4084 -4.7591
  217SOL     OW  649   2.629   0.298   0.648  0.0774  0.0515  0.2389
  217SOL    HW1  650   2.582   0.389   0.655 -1.4025 -1.7102 -2.3603
  217SOL    HW2  651   2.728   0.297   0.675 -3.1480  0.0648  0.2487
  218SOL     OW  652   1.886   2.093   1.093 -0.3147  0.1122  0.3009
  218SOL    HW1  653   1.965   2.158   1.085 -0.1896  0.9100  1.0162
  218SOL    HW2  654   1.802   2.127   1.143  0.3844  2.3313  0.8090
  219SOL     OW  655   1.562   2.925   0.513 -0.1007  0.1004 -0.3282
  219SOL    HW1  656   1.464   2.900   0.536 -2.5365 -2.3117  0.9286
  219SOL    HW2  657   1.623   2.845   0.492 -1.3119  1.7890 -0.1013
  220SOL     OW  658   1.654   2.036   0.767  0.1530  0.2680 -0.1270
  220SOL    HW1  659   1.735   2.092   0.751 -0.5981  2.9681 -1.6820
  220SOL    HW2  660   1.683   1.943   0.792 -3.2823 -2.0918  1.0677
  221SOL     OW  661   2.635   1.087   0.309 -0.7481 -0.7379  0.6400
  221SOL    HW1  662   2.630   1.190   0.306  2.4221  1.4315 -1.7454
  221SOL    HW2  663   2.626   1.054   0.214 -1.8481  2.5140  2.4878
  222SOL     OW  664   0.778   2.324   1.378  0.7695  0.0350 -0.2915
  222SOL    HW1  665   0.775   2.410   1.324  0.3893 -0.6077  0.8615
  222SOL    HW2  666   0.824   2.247   1.326  1.2468 -0.5928 -3.2959
  223SOL     OW  667   1.367   0.283   0.352  0.3071  0.1661  0.2184
  223SOL    HW1  668   1.338   0.357   0.413  0.5234  0.6506  1.4062
  223SOL    HW2  669   1.325   0.306   0.260 -1.3312  1.4651 -0.6321
  224SOL     OW  670   2.805   0.984   1.076 -0.5571 -0.2331  0.0368
  224SOL    HW1  671   2.789   1.009   1.177  1.7536  0.2411  0.8271
  224SOL    HW2  672   2.791   1.060   1.006 -0.7903 -0.2029  1.7353
  225SOL     OW  673   0.611   1.519   1.375 -0.6359 -0.4719 -0.4003
  225SOL    HW1  674   0.651   1.518   1.282  0.0178  2.9763  1.9958
  225SOL    HW2  675   0.548   1.443   1.389 -2.6267 -0.4889  1.4826
  226SOL     OW  676   0.705   2.686   0.784  0.4793 -0.4345  0.6789
  226SOL    HW1  677   0.783   2.700   0.722 -3.4011 -0.3734 -0.7812
  226SOL    HW2  678   0.650   2.604   0.763 -0.8509  0.7872 -0.3092
  227SOL     OW  679   1.326   1.686   1.770 -0.1797 -0.2087  0.1548
  227SOL    HW1  680   1.233   1.691   1.729  0.7502  0.4548  1.7945
  227SOL    HW2  681   1.371   1.777   1.771 -1.4222  0.6871 -1.1304
  228SOL     OW  682   0.752   0.122   1.783 -0.0259 -0.3347  0.4279
  228SOL    HW1  683   0.798   0.157   1.865  0.4040 -1.2552 -1.4528
  228SOL    HW2  684   0.808   0.040   1.758  0.3435 -0.3612  0.6065
  229SOL     OW  685   2.748   0.697   2.805  0.8470 -0.4582  0.2978
  229SOL    HW1  686   2.762   0.681   2.705  3.4188 -0.9495 -5.0192
  229SOL    HW2  687   2.834   0.710   2.851 -1.7963  0.9514 -0.8480
  230SOL     OW  688   0.354   0.771   1.461  1.0228  0.7122  0.0944
  230SOL    HW1  689   0.280   0.753   1.395 -0.4420  2.4795  1.1893
  230SOL    HW2  690   0.365   0.680   1.507 -0.5936 -1.7043 -1.0929
  231SOL     OW  691   1.066   2.918   1.399  0.1708 -0.4001  0.2067
  231SOL    HW1  692   0.995   2.993   1.390  0.6283 -2.7239  2.3390
  231SOL    HW2  693   1.151   2.956   1.354 -4.0328 -0.3354 -0.2550
  232SOL     OW  694   0.091   2.061   0.373 -0.2851 -0.2948 -0.4398
  232SOL    HW1  695   0.177   2.058   0.432 -3.3186 -1.0653 -0.9698
  232SOL    HW2  696   0.096   2.130   0.299  3.6932  1.2727 -0.2161
  233SOL     OW  697   1.133   2.627   2.921 -0.2958  0.2981  0.6610
  233SOL    HW1  698   1.148   2.575   2.830 -1.5356 -2.0893 -2.3374
  233SOL    HW2  699   1.223   2.656   2.953 -0.2841  0.9028  0.8291
  234SOL     OW  700   0.501   1.217   1.852 -0.2103 -0.0870  0.4520
  234SOL    HW1  701   0.433   1.142   1.862  1.3865 -0.4996 -0.6420
  234SOL    HW2  702   0.548   1.245   1.944  2.0766  2.6935  2.1113
  235SOL     OW  703   0.098   2.232   2.654  0.6024 -0.0384 -0.2358
  235SOL    HW1  704   0.129   2.294   2.579 -0.9568 -2.9067 -0.7511
  235SOL    HW2  705   0.024   2.273   2.709  0.7811  0.6027  1.1087
  236SOL     OW  706   1.653   2.127   2.895 -0.6532 -0.1364 -0.1435
  236SOL    HW1  707   1.606   2.121   2.804 -1.3233 -3.0000 -3.0688
  236SOL    HW2  708   1.589   2.121   2.972 -1.0350  0.1963 -0.5893
  237SOL     OW  709   1.858   0.907   0.943 -0.0945  0.0674 -0.2603
  237SOL    HW1  710   1.918   0.826   0.928  2.0837 -0.4777 -2.4663
  237SOL    HW2  711   1.895   0.990   0.894 -0.2690 -0.5724  0.4717
  238SOL     OW  712   1.237   2.490   1.994 -0.4936  0.1041  0.4690
  238SOL    HW1  713   1.182   2.440   2.068 -3.7621 -1.3766  0.9716
  238SOL    HW2  714   1.178   2.570   1.968 -0.1983  1.4417 -1.9934
  239SOL     OW  715   0.817   2.375   2.028  0.3020 -0.2997 -0.2823
  239SOL    HW1  716   0.751   2.300   2.013 -3.3333  1.0413  0.3039
  239SOL    HW2  717   0.840   2.414   1.938  0.7321 -3.0480  0.5409
  240SOL     OW  718   2.473   0.041   0.680 -0.4535  0.4877  0.1371
  240SOL    HW1  719   2.571   0.047   0.686 -0.1381  2.3983  0.5061
  240SOL    HW2  720   2.441   0.115   0.739  0.0306 -1.7245  0.7567
  241SOL     OW  721   1.234   1.481   3.038 -0.3972 -0.9282  0.4253
  241SOL    HW1  722   1.148   1.439   3.068 -1.0936 -2.1152  0.3441
  241SOL    HW2  723   1.230   1.499   2.942 -0.0079  0.3470  1.1299
  242SOL     OW  724   2.657   1.010   0.053  0.5208 -0.2142  0.0187
  242SOL    HW1  725   2.728   0.944   0.079 -0.6546  3.2315  0.6590
  242SOL    HW2  726   2.683   1.049   3.057  0.3868  0.9938 -0.7953
  243SOL     OW  727   0.928   0.556   1.952 -0.0537 -0.0669 -0.2704
  243SOL    HW1  728   1.013   0.585   1.997  0.0883  0.0445 -2.2599
  243SOL    HW2  729   0.844   0.582   1.997  1.7119 -1.6735  0.0451
  244SOL     OW  730   1.394   2.744   3.021 -0.4099  0.1363  0.0049
  244SOL    HW1  731   1.442   2.658   2.999  0.1290  0.2673 -0.6528
  244SOL    HW2  732   1.422   2.787   0.017 -2.1446  0.9489  3.0387
  245SOL     OW  733   1.579   2.429   0.070 -0.2726  0.2140 -0.1950
  245SOL    HW1  734   1.530   2.339   0.071 -0.1363 -1.6622 -0.7999
  245SOL    HW2  735   1.684   2.415   0.086  0.2993  1.4681  1.4229
  246SOL     OW  736   0.941   1.024   2.108 -0.1549 -0.0849 -0.0575
  246SOL    HW1  737   0.919   1.004   2.011 -0.4960 -4.7328 -1.8245
  246SOL    HW2  738   0.862   1.007   2.165 -0.1665  1.7233  1.0844
  247SOL     OW  739   0.082   0.675   2.421 -0.7587  0.4339 -0.4099
  247SOL    HW1  740   0.072   0.597   2.356  0.7227 -0.2644 -0.7041
  247SOL    HW2  741   0.114   0.651   2.513  3.2363 -0.4058 -1.9129
  248SOL     OW  742   0.188   1.234   1.998  0.1698  0.1093  0.4434
  248SOL    HW1  743   0.106   1.173   1.992 -0.6035 -1.2559  0.7553
  248SOL    HW2  744   0.256   1.205   2.069 -1.5391 -0.8126 -2.9294
  249SOL     OW  745   2.906   0.390   0.172  0.1855  0.7889 -0.1135
  249SOL    HW1  746   2.999   0.424   0.193 -0.0023 -0.2500 -0.5137
  249SOL    HW2  747   2.838   0.421   0.243 -1.1546  1.4200 -3.4784
  250SOL     OW  748   2.880   3.055   3.015  0.0494  0.3039  0.1060
  250SOL    HW1  749   2.843   3.030   2.927 -0.5351  1.4620 -0.2346
  250SOL    HW2  750   2.966   2.996   3.035  0.1071 -0.0376 -0.7496
  251SOL     OW  751   1.003   1.775   1.977 -0.0438  0.4054  0.1972
  251SOL    HW1  752   1.008   1.862   2.027  1.3878  0.1440 -1.1497
  251SOL    HW2  753   1.009   1.693   2.032  2.7692  0.3922 -1.3541
  252SOL     OW  754   2.090   1.832   1.438 -0.3255 -0.0007  0.4519
  252SOL    HW1  755   2.188   1.822   1.438 -4.1153  2.5225  0.0447
  252SOL    HW2  756   2.045   1.790   1.522 -0.3567  1.3325 -1.2671
  253SOL     OW  757   1.934   2.445   2.246 -0.0405 -0.3547  0.3786
  253SOL    HW1  758   1.867   2.458   2.175  2.9611  0.6761 -1.1720
  253SOL    HW2  759   1.907   2.491   2.335 -1.1917  0.1414  0.8948
  254SOL     OW  760   0.436   2.443   2.167 -0.1743 -0.0738  0.7201
  254SOL    HW1  761   0.436   2.463   2.067 -1.5861  0.0597 -1.1726
  254SOL    HW2  762   0.526   2.434   2.209 -1.1392 -0.7754 -2.0865
  255SOL     OW  763   1.584   0.378   0.888  0.4107  0.5455 -0.2378
  255SOL    HW1  764   1.537   0.360   0.795 -2.5088  3.1672 -1.9159
  255SOL    HW2  765   1.660   0.450   0.881  0.3701  0.2047 -1.2651
  256SOL     OW  766   2.296   2.260   1.338 -0.1290 -0.3294  0.2434
  256SOL    HW1  767   2.282   2.353   1.300 -1.1165  0.4161 -0.0916
  256SOL    HW2  768   2.336   2.202   1.265 -0.0928 -1.2191 -1.0367
  257SOL     OW  769   0.537   2.506   2.831  0.0723  0.4488 -0.2847
  257SOL    HW1  770   0.524   2.452   2.915  0.3377 -0.3267  0.5532
  257SOL    HW2  771   0.486   2.592   2.858 -1.3831  2.3747  2.0608
  258SOL     OW  772   0.723   0.752   2.118 -0.1085 -0.4239 -0.2086
  258SOL    HW1  773   0.671   0.783   2.194  1.6725 -1.0624  0.9145
  258SOL    HW2  774   0.710   0.802   2.029  0.0618 -3.2637 -2.8619
  259SOL     OW  775   1.068   1.090   2.360 -0.0501 -0.2735  0.4325
  259SOL    HW1  776   1.116   1.175   2.386 -0.7351  1.5127 -1.5699
  259SOL    HW2  777   1.018   1.109   2.273  0.7307  0.5903  1.0791
  260SOL     OW  778   2.073   0.895   0.696  0.3562  0.7233 -0.0379
  260SOL    HW1  779   2.077   0.826   0.773  1.7960 -0.4040 -1.8917
  260SOL    HW2  780   2.156   0.948   0.705 -2.5184  0.7707 -1.3909
  261SOL     OW  781   0.943   0.239   0.666 -0.1049  0.2199  0.0352
  261SOL    HW1  782   0.928   0.281   0.572 -1.6439 -1.2925  1.3143
  261SOL    HW2  783   1.044   0.212   0.687  1.8558 -0.8162  3.6054
  262SOL     OW  784   2.171   2.515   2.525 -0.0708  0.2784 -0.1756
  262SOL    HW1  785   2.204   2.591   2.464  2.6087 -0.2878 -0.4946
  262SOL    HW2  786   2.201   2.427   2.490 -0.2845  3.0200 -1.8211
  263SOL     OW  787   0.592   1.674   2.969  0.1877 -0.0281  0.0174
  263SOL    HW1  788   0.618   1.595   2.906  0.9881  1.2082  1.1667
  263SOL    HW2  789   0.496   1.702   2.961  0.4512 -1.2992  1.6108
  264SOL     OW  790   0.214   1.672   1.416 -0.4397 -0.1349  0.1061
  264SOL    HW1  791   0.114   1.683   1.431 -2.8541  1.1603  0.8411
  264SOL    HW2  792   0.270   1.759   1.432 -0.6281  2.4964  1.5642
  265SOL     OW  793   1.062   0.562   0.582  0.0865 -0.2451 -0.0224
  265SOL    HW1  794   1.005   0.640   0.548  0.5838 -0.2869 -0.3421
  265SOL    HW2  795   1.054   0.541   0.681  1.6454 -0.9665 -0.7206
  266SOL     OW  796   1.271   1.750   0.054  0.3472  0.2697  0.7638
  266SOL    HW1  797   1.372   1.765   0.072 -0.6439  1.7405 -3.0508
  266SOL    HW2  798   1.265   1.657   0.010 -0.4800 -1.3062  2.5273
  267SOL     OW  799   0.401   0.389   2.937  0.4427 -0.0124 -0.3423
  267SOL    HW1  800   0.345   0.328   2.874  1.9682  0.0125 -0.7812
  267SOL    HW2  801   0.486   0.346   2.969 -1.9098 -0.7552  0.4440
  268SOL     OW  802   0.898   0.522   2.768 -0.0092  0.1194  0.1120
  268SOL    HW1  803   0.874   0.430   2.729 -2.2024  0.6381  1.1361
  268SOL    HW2  804   0.868   0.601   2.704 -0.6227  1.3180 -1.6844
  269SOL     OW  805   1.676   0.059   2.591 -0.1789 -0.4239 -0.3634
  269SOL    HW1  806   1.642   3.081   2.525 -0.6771  0.2221 -2.5553
  269SOL    HW2  807   1.604   0.131   2.606 -0.9906 -0.7729 -0.3815
  270SOL     OW  808   0.790   0.713   2.580 -0.0196 -0.0146 -0.1986
  270SOL    HW1  809   0.787   0.639   2.515 -0.2770  0.7120  1.7442
  270SOL    HW2  810   0.865   0.781   2.552 -0.1985  2.1906  0.3169
  271SOL     OW  811   0.144   1.003   0.281 -0.1510  0.4856 -0.1248
  271SOL    HW1  812   0.181   1.040   0.192  1.1253  0.8044  1.1475
  271SOL    HW2  813   0.204   0.936   0.328  2.9259  0.5475  3.7119
  272SOL     OW  814   2.409   1.159   2.530 -0.4168 -0.2164 -0.0382
  272SOL    HW1  815   2.451   1.248   2.516  0.7688 -0.2602  0.3590
  272SOL    HW2  816   2.418   1.115   2.623  1.2282  0.5616  0.3398
  273SOL     OW  817   0.028   0.481   2.233  0.2977  0.2239 -0.1856
  273SOL    HW1  818   0.120   0.446   2.200  2.5768  1.0786  0.2780
  273SOL    HW2  819   3.069   0.545   2.173 -1.6987  0.2925  0.3228
  274SOL     OW  820   2.789   0.051   1.710  0.3922 -0.5878 -0.1814
  274SOL    HW1  821   2.716   3.079   1.719  1.8279 -1.2268  0.9262
  274SOL    HW2  822   2.770   0.117   1.637  2.2249  1.1344  0.4405
  275SOL     OW  823   1.889   1.468   0.309 -0.0962  0.1491 -0.0415
  275SOL    HW1  824   1.878   1.495   0.211  1.5288  0.3874  2.2617
  275SOL    HW2  825   1.805   1.491   0.370 -0.9336 -0.9076 -0.1167
  276SOL     OW  826   0.198   1.253   2.771 -0.4583  0.2777 -0.1260
  276SOL    HW1  827   0.162   1.348   2.782 -2.4225  0.7388  0.4236
  276SOL    HW2  828   0.129   1.197   2.725  1.7648 -0.4232  0.0459
  277SOL     OW  829   1.920   2.809   2.036 -0.4123  0.4013  0.2613
  277SOL    HW1  830   1.996   2.740   2.037  0.6047  1.6343  1.4202
  277SOL    HW2  831   1.834   2.767   2.077  1.2027 -1.5235 -0.0190
  278SOL     OW  832   2.031   3.014   1.208  0.1364  0.2859 -0.5181
  278SOL    HW1  833   1.947   2.967   1.236  0.4677  0.8494  0.7283
  278SOL    HW2  834   2.027   0.021   1.205  0.2792 -0.7754 -0.2760
  279SOL     OW  835   0.977   1.312   2.828  0.2045 -0.5099 -0.1529
  279SOL    HW1  836   1.060   1.357   2.792  1.8282 -1.1360 -1.6724
  279SOL    HW2  837   0.950   1.350   2.924 -1.7682  1.4383  5.1403
  280SOL     OW  838   0.821   1.284   0.407  0.6726  0.2732  0.1583
  280SOL    HW1  839   0.791   1.382   0.397 -1.4542  1.8198  0.5622
  280SOL    HW2  840   0.921   1.269   0.390 -0.6541 -0.2084 -0.2832
  281SOL     OW  841   0.063   2.842   1.983 -0.8639 -0.0061 -0.2810
  281SOL    HW1  842   3.081   2.859   1.917  2.3068 -2.1342  0.8531
  281SOL    HW2  843   0.054   2.754   2.037 -1.0439 -1.9064  1.8505
  282SOL     OW  844   0.197   2.124   1.069  0.8321 -0.7746 -0.0831
  282SOL    HW1  845   0.280   2.107   1.010  0.7468  0.8465 -0.2641
  282SOL    HW2  846   0.150   2.031   1.076 -1.2714 -2.5832  0.1953
  283SOL     OW  847   1.279   2.241   2.224 -0.0701 -0.2646 -0.6047
  283SOL    HW1  848   1.191   2.275   2.179 -6.9922 -0.2893 -2.8197
  283SOL    HW2  849   1.353   2.245   2.159 -0.2839 -0.9619  2.6314
  284SOL     OW  850   2.207   0.950   0.233 -0.0440  0.5377 -0.3317
  284SOL    HW1  851   2.210   1.021   0.306 -0.5876  1.0672 -0.4578
  284SOL    HW2  852   2.280   0.954   0.161  0.0032 -0.2746 -0.0955
  285SOL     OW  853   2.812   2.848   2.761  0.7418  0.3833  0.5743
  285SOL    HW1  854   2.912   2.829   2.781  0.8690  0.3452  1.1513
  285SOL    HW2  855   2.770   2.757   2.728 -0.3945 -0.3398 -0.9010
  286SOL     OW  856   1.869   2.791   1.008  0.0677 -0.5418 -0.2453
  286SOL    HW1  857   1.810   2.872   1.043 -0.7622  2.8546  2.2557
  286SOL    HW2  858   1.917   2.748   1.087  0.6558  0.7201 -1.8624
  287SOL     OW  859   0.546   1.181   1.238 -0.9915 -0.1820 -0.0966
  287SOL    HW1  860   0.642   1.143   1.242 -2.1066 -0.3939 -2.3117
  287SOL    HW2  861   0.532   1.239   1.320  1.0048 -2.0226  0.8905
  288SOL     OW  862   1.335   2.240   0.108  0.3683 -0.0934 -0.4806
  288SOL    HW1  863   1.253   2.243   0.171 -3.4949  0.2769 -0.1462
  288SOL    HW2  864   1.415   2.188   0.146 -0.9569  0.1124  0.2521
  289SOL     OW  865   0.215   1.934   2.420  0.6490  0.9743 -0.0171
  289SOL    HW1  866   0.272   2.015   2.410 -1.0259 -1.1276  3.5959
  289SOL    HW2  867   0.239   1.861   2.352  0.0592 -0.8729 -0.9912
  290SOL     OW  868   1.270   2.082   0.984  0.3197 -0.1370  0.3885
  290SOL    HW1  869   1.227   2.170   1.009  1.0976 -2.7413  1.5365
  290SOL    HW2  870   1.200   2.010   0.982  1.3096  2.5314 -0.7023
  291SOL     OW  871   1.737   1.494   2.907  0.5618 -0.0224 -0.7742
  291SOL    HW1  872   1.814   1.447   2.855 -0.2454 -0.5904  0.7984
  291SOL    HW2  873   1.739   1.597   2.886  0.0059  1.9872 -2.2945
  292SOL     OW  874   1.358   1.461   1.523  0.3304  0.2107  0.0180
  292SOL    HW1  875   1.340   1.444   1.424  0.4959  2.5347 -1.0326
  292SOL    HW2  876   1.300   1.535   1.559  2.8379  1.1085  2.1049
  293SOL     OW  877   1.727   2.748   0.763 -0.4965  0.3513  0.8595
  293SOL    HW1  878   1.774   2.762   0.851 -0.1380  0.5094 -1.7836
  293SOL    HW2  879   1.691   2.652   0.752  1.0996 -2.7317  1.8600
  294SOL     OW  880   0.146   1.248   2.402 -0.1866  0.0704 -0.8796
  294SOL    HW1  881   0.128   1.346   2.390 -1.6644 -2.1481 -0.2187
  294SOL    HW2  882   0.063   1.190   2.393  2.2564 -2.5019  0.7474
  295SOL     OW  883   0.937   1.950   2.833  0.2154  0.2511 -0.5860
  295SOL    HW1  884   1.016   2.011   2.855  5.4662 -3.1012  1.6194
  295SOL    HW2  885   0.904   1.910   2.920  0.0727 -0.5940  0.7661
  296SOL     OW  886   1.688   1.714   2.136 -0.2397  0.2763 -0.4510
  296SOL    HW1  887   1.671   1.618   2.101  1.8043 -3.0302  1.3088
  296SOL    HW2  888   1.615   1.746   2.196  1.9506  0.6734  0.8706
  297SOL     OW  889   2.849   0.695   2.517  0.0930 -0.1827 -0.9187
  297SOL    HW1  890   2.900   0.614   2.540 -1.3090  3.3324  0.6079
  297SOL    HW2  891   2.816   0.693   2.420 -0.1983 -1.0002 -0.2904
  298SOL     OW  892   0.913   2.225   2.379  0.3723 -0.0808 -0.1246
  298SOL    HW1  893   0.869   2.270   2.457  0.1400  1.7692 -0.0124
  298SOL    HW2  894   0.849   2.173   2.323 -0.4456 -1.5511  1.9406
  299SOL     OW  895   0.924   2.958   2.748 -1.0367 -0.4334  0.1223
  299SOL    HW1  896   0.857   2.960   2.671 -0.2598  0.3411  1.4403
  299SOL    HW2  897   0.886   2.903   2.829 -2.5415 -1.3949  3.0263
  300SOL     OW  898   2.978   0.695   2.964 -0.3638  0.1989 -0.1589
  300SOL    HW1  899   2.961   0.597   2.977 -0.8793  3.0411 -1.6527
  300SOL    HW2  900   3.079   0.717   2.957  2.3960  1.7255 -1.5759
  301SOL     OW  901   1.239   0.723   1.391 -0.4305  0.3634  0.0957
  301SOL    HW1  902   1.261   0.682   1.293 -2.5321 -0.2669 -0.2690
  301SOL    HW2  903   1.227   0.820   1.367 -1.1178  0.9493 -1.6909
  302SOL     OW  904   2.936   1.883   2.781  0.2471  0.1523 -0.6117
  302SOL    HW1  905   2.963   1.929   2.695 -1.3570 -1.1387 -0.7850
  302SOL    HW2  906   2.988   1.795   2.783 -0.6819 -0.7614 -0.5613
  303SOL     OW  907   0.037   0.078   2.449  0.7787  0.3261  0.1016
  303SOL    HW1  908   0.001   0.017   2.376 -1.1602  1.2225  1.9159
  303SOL    HW2  909   3.062   0.143   2.473 -1.4929 -3.8256  1.8639
  304SOL     OW  910   2.887   0.553   1.665 -0.7470  0.6255 -0.3260
  304SOL    HW1  911   2.955   0.511   1.604  0.7437  2.1125 -0.0414
  304SOL    HW2  912   2.926   0.638   1.692 -0.8490 -1.9924 -0.9815
  305SOL     OW  913   3.094   3.019   2.188  0.1629  0.0817 -0.0326
  305SOL    HW1  914   0.024   2.953   2.109  0.4970 -0.6454 -0.2115
  305SOL    HW2  915   3.010   3.076   2.163 -1.3677 -1.6408 -1.9542
  306SOL     OW  916   2.668   1.289   1.446  0.3723  0.1132  0.4382
  306SOL    HW1  917   2.725   1.367   1.467 -2.2640 -0.3377 -1.7207
  306SOL    HW2  918   2.610   1.248   1.519 -1.8545  1.5286  0.5615
  307SOL     OW  919   2.052   0.375   1.173 -0.0568 -0.3873 -0.1326
  307SOL    HW1  920   2.033   0.467   1.217 -0.4058  0.7822  2.8515
  307SOL    HW2  921   1.993   0.308   1.220  3.5869  1.8311  1.8254
  308SOL     OW  922   0.152   2.092   1.363 -0.1038 -0.2181  0.4687
  308SOL    HW1  923   0.189   2.109   1.270  2.4785 -1.7004  0.6650
  308SOL    HW2  924   0.072   2.151   1.381  1.9098 -1.7222 -0.5667
  309SOL     OW  925   2.347   1.808   1.398  0.1203 -0.4252  0.0124
  309SOL    HW1  926   2.406   1.727   1.410 -1.9275  0.9147  0.6647
  309SOL    HW2  927   2.407   1.891   1.416 -0.7942  1.9968  0.0490
  310SOL     OW  928   2.824   1.656   0.166 -0.1673 -0.1759  0.0666
  310SOL    HW1  929   2.852   1.745   0.125  0.4542 -2.1052 -0.0008
  310SOL    HW2  930   2.769   1.673   0.253 -0.9767 -0.6972  2.0181
  311SOL     OW  931   2.333   1.615   2.418  1.0052  0.8188  0.5164
  311SOL    HW1  932   2.263   1.571   2.482  2.2121  1.2088 -0.8550
  311SOL    HW2  933   2.330   1.719   2.436  0.5400 -0.2027  0.3479
  312SOL     OW  934   2.357   2.387   0.708  0.4234  0.1852 -0.0014
  312SOL    HW1  935   2.393   2.290   0.688 -0.4371  0.2917 -0.7735
  312SOL    HW2  936   2.285   2.414   0.638 -1.3787  0.6517 -1.2605
  313SOL     OW  937   2.958   2.562   1.035  0.6235  0.3045 -0.0648
  313SOL    HW1  938   3.008   2.472   1.025  3.4799 -4.1562 -0.2007
  313SOL    HW2  939   2.858   2.545   1.046 -1.9930 -0.5863  0.0799
  314SOL     OW  940   1.180   2.124   1.400  0.4163 -0.5007  0.5579
  314SOL    HW1  941   1.234   2.037   1.394 -0.1724 -2.8391 -1.9384
  314SOL    HW2  942   1.143   2.139   1.493  0.3619  0.8032 -1.7528
  315SOL     OW  943   0.197   2.897   2.341  0.1479  0.6775  0.5077
  315SOL    HW1  944   0.137   2.958   2.288 -0.8634  0.3459  0.8105
  315SOL    HW2  945   0.267   2.945   2.398  2.2456  0.5947 -2.0379
  316SOL     OW  946   2.987   1.998   0.729 -0.2919 -0.3850 -0.8253
  316SOL    HW1  947   3.067   1.949   0.775 -1.4466  0.5083  1.1054
  316SOL    HW2  948   2.915   1.939   0.690 -3.3409  2.0875 -1.4426
  317SOL     OW  949   1.832   3.089   0.426  0.1932  0.2739 -0.1999
  317SOL    HW1  950   1.734   0.024   0.434 -2.0579 -0.2567  0.3761
  317SOL    HW2  951   1.873   3.068   0.521  1.7026 -2.3857  1.9577
  318SOL     OW  952   2.901   2.810   0.289 -0.4328  0.0043 -0.3161
  318SOL    HW1  953   2.874   2.766   0.201 -1.3573 -0.2044 -0.6379
  318SOL    HW2  954   2.836   2.866   0.337 -1.5632 -0.0522  0.1357
  319SOL     OW  955   1.394   1.486   0.169 -0.8845 -0.2702  0.2141
  319SOL    HW1  956   1.452   1.575   0.167  0.3830  0.4796 -1.1359
  319SOL    HW2  957   1.343   1.479   0.082  0.2057 -0.4677  1.2093
  320SOL     OW  958   0.588   2.909   2.748  0.1926  0.2775 -0.0183
  320SOL    HW1  959   0.632   2.916   2.654  1.2010  0.8414 -2.5294
  320SOL    HW2  960   0.493   2.867   2.746 -2.4282 -1.1349 -0.8608
  321SOL     OW  961   1.021   0.173   0.063 -0.5815  0.2091  0.2733
  321SOL    HW1  962   1.038   0.175   0.162 -2.0827 -0.5803 -0.1460
  321SOL    HW2  963   0.975   0.079   0.043 -0.2184 -3.4792 -2.3454
  322SOL     OW  964   2.496   1.084   1.874  0.4743 -0.0425  0.4190
  322SOL    HW1  965   2.410   1.098   1.924  1.9583 -0.1510  0.5113
  322SOL    HW2  966   2.563   1.155   1.905 -1.2935 -1.9777 -0.8154
  323SOL     OW  967   2.534   0.923   0.502 -0.2383 -0.8629  0.2514
  323SOL    HW1  968   2.494   0.844   0.444  0.7843 -2.5030 -1.0045
  323SOL    HW2  969   2.594   0.980   0.443  1.8456  0.7343  1.6658
  324SOL     OW  970   0.122   0.516   2.670 -0.1935  0.3410 -0.1656
  324SOL    HW1  971   0.186   0.564   2.736  2.8669 -2.3181 -0.0143
  324SOL    HW2  972   0.170   0.438   2.619  0.7942 -1.6231 -1.7621
  325SOL     OW  973   1.356   2.877   2.052 -1.0067 -0.0480  0.1096
  325SOL    HW1  974   1.421   2.878   1.972  1.1972 -1.2930 -0.8317
  325SOL    HW2  975   1.280   2.824   2.016  0.4803 -1.2402 -1.6004
  326SOL     OW  976   2.459   3.003   1.402 -0.2076  0.2282  0.1668
  326SOL    HW1  977   2.428   0.008   1.402  1.0222  0.3463 -0.2703
  326SOL    HW2  978   2.562   3.001   1.402  2.2137  0.8859 -0.4891
  327SOL     OW  979   1.896   0.813   3.030  0.2930 -0.0863  0.4955
  327SOL    HW1  980   1.843   0.744   3.088 -2.3879 -1.4006  1.8964
  327SOL    HW2  981   1.947   0.771   2.952  2.1816 -1.5170 -3.3564
  328SOL     OW  982   2.842   1.467   2.223 -0.3771 -0.3979 -0.3436
  328SOL    HW1  983   2.897   1.383   2.207 -2.5592  0.4359 -1.2341
  328SOL    HW2  984   2.861   1.501   2.319 -0.0722  1.3032  1.0303
  329SOL     OW  985   1.349   2.549   1.612  0.1114  0.5315 -0.4435
  329SOL    HW1  986   1.408   2.616   1.658  0.0543  1.1882  0.4375
  329SOL    HW2  987   1.365   2.556   1.511  1.7115  0.4842 -1.8775
  330SOL     OW  988   2.678   1.550   1.804 -0.0075 -0.7685 -0.2455
  330SOL    HW1  989   2.736   1.604   1.737 -1.0713  0.5748 -3.0350
  330SOL    HW2  990   2.703   1.586   1.897 -1.0947  0.3124  0.9254
  331SOL     OW  991   3.044   2.179   0.560 -0.1224  0.3497  0.0362
  331SOL    HW1  992   3.007   2.108   0.625  0.2702 -1.4854 -1.8187
  331SOL    HW2  993   0.016   2.130   0.499  2.5532 -1.9129 -1.0508
  332SOL     OW  994   0.482   0.210   0.651  0.5824  0.1469  0.0123
  332SOL    HW1  995   0.411   0.277   0.675 -1.8045 -1.2232  0.8298
  332SOL    HW2  996   0.519   0.168   0.738 -1.7208  1.0527 -2.0861
  333SOL     OW  997   2.054   2.919   2.271 -0.2013 -0.2637  0.2116
  333SOL    HW1  998   2.007   2.885   2.189  1.5605 -0.1251  3.9175
  333SOL    HW2  999   2.102   3.009   2.245 -0.4725  3.1232 -2.6836
  334SOL     OW 1000   1.154   1.303   1.135 -0.8163 -0.3708  0.3171
  334SOL    HW1 1001   1.207   1.233   1.082 -1.7051 -1.9434 -0.2223
  334SOL    HW2 1002   1.144   1.394   1.085 -0.3668 -0.8285  0.6769
  335SOL     OW 1003   2.990   2.680   2.483 -0.1543  0.2577  0.2145
  335SOL    HW1 1004   3.021   2.620   2.562 -0.5854  1.0913 -1.5148
  335SOL    HW2 1005   2.984   2.775   2.514 -2.0638  1.6113  0.3128
  336SOL     OW 1006   2.821   2.579   2.011  0.0291 -0.3671  0.0092
  336SOL    HW1 1007   2.854   2.646   2.080  0.1597  3.4515  1.2651
  336SOL    HW2 1008   2.839   2.620   1.918 -2.3588  5.1620 -0.7335
  337SOL     OW 1009   2.047   1.588   0.682 -0.3658 -0.6983  0.7129
  337SOL    HW1 1010   2.110   1.541   0.753  1.5012 -2.8309  1.1969
  337SOL    HW2 1011   1.981   1.521   0.646 -1.6421 -1.5556  1.3876
  338SOL     OW 1012   1.177   1.720   1.435 -0.3336  0.2340 -0.0820
  338SOL    HW1 1013   1.134   1.732   1.528  0.6256  2.4596 -1.4599
  338SOL    HW2 1014   1.239   1.800   1.416 -0.4414  2.3324  0.0101
  339SOL     OW 1015   2.929   0.571   1.253 -0.2544 -0.2147  0.5213
  339SOL    HW1 1016   2.960   0.654   1.202  1.9385  1.7308  1.8299
  339SOL    HW2 1017   2.829   0.577   1.275  0.2158 -0.1675 -1.9781
  340SOL     OW 1018   1.546   2.727   1.792 -0.2622 -0.3250 -0.0433
  340SOL    HW1 1019   1.554   2.644   1.847 -2.1221 -0.6048 -0.3446
  340SOL    HW2 1020   1.622   2.796   1.805  1.5929 -0.2583  2.2594
  341SOL     OW 1021   2.155   1.437   0.880 -0.3987  0.7665 -0.5762
  341SOL    HW1 1022   2.238   1.430   0.937  0.5799  1.2806 -0.5580
  341SOL    HW2 1023   2.086   1.490   0.936  0.6175 -0.7448  1.6277
  342SOL     OW 1024   0.104   1.874   0.824 -0.6163 -0.3060  0.5309
  342SOL    HW1 1025   0.132   1.872   0.921 -0.0006  3.7876  1.4402
  342SOL    HW2 1026   0.122   1.788   0.772 -2.2242 -0.6100 -0.1000
  343SOL     OW 1027   2.498   0.940   1.445  0.3731  0.3592 -0.2552
  343SOL    HW1 1028   2.487   1.027   1.491 -1.8678  0.2842 -1.6119
  343SOL    HW2 1029   2.529   0.872   1.515 -2.6133  0.0587  4.9239
  344SOL     OW 1030   2.250   0.335   0.817  0.2228 -0.0625 -0.1371
  344SOL    HW1 1031   2.276   0.433   0.820  0.7591  2.0482  0.2133
  344SOL    HW2 1032   2.260   0.292   0.722  0.4502  0.6246  0.6307
  345SOL     OW 1033   2.901   2.805   2.139 -0.4568  0.2058 -0.2579
  345SOL    HW1 1034   2.932   2.853   2.222 -2.2361 -0.0712 -1.6949
  345SOL    HW2 1035   2.852   2.866   2.077 -0.4396 -0.6574 -0.3459
  346SOL     OW 1036   3.092   1.397   0.537 -0.2423 -0.6894 -0.1291
  346SOL    HW1 1037   0.002   1.310   0.485 -1.0114 -1.0021 -1.5905
  346SOL    HW2 1038   0.009   1.480   0.476  3.3320  0.7574 -0.7271
  347SOL     OW 1039   1.848   2.833   1.326 -0.0597  0.3212 -0.0468
  347SOL    HW1 1040   1.871   2.832   1.428  0.2812 -1.7606 -0.0098
  347SOL    HW2 1041   1.754   2.797   1.309 -1.9099  2.4904  1.8618
  348SOL     OW 1042   1.190   1.150   1.858 -0.2941 -0.5553  0.2359
  348SOL    HW1 1043   1.286   1.160   1.841  0.7014  2.2944 -0.3437
  348SOL    HW2 1044   1.153   1.220   1.920 -3.0347 -0.0899  0.6142
  349SOL     OW 1045   2.290   1.694   2.129  0.0384 -0.1828  0.0292
  349SOL    HW1 1046   2.314   1.667   2.224  0.0590 -1.4510  0.4573
  349SOL    HW2 1047   2.298   1.794   2.113 -2.0465 -0.0364  0.8179
  350SOL     OW 1048   2.796   2.134   0.477 -0.3377 -0.0976 -0.0705
  350SOL    HW1 1049   2.734   2.208   0.512  0.8249 -0.8218  3.2982
  350SOL    HW2 1050   2.894   2.145   0.510  2.5659 -1.0204 -2.1094
  351SOL     OW 1051   0.314   0.309   1.762  0.1265 -0.0430  0.3890
  351SOL    HW1 1052   0.247   0.233   1.751  0.7680 -0.0944 -2.4190
  351SOL    HW2 1053   0.292   0.372   1.842  2.3490 -0.2611  1.2996
  352SOL     OW 1054   1.065   2.824   1.681 -0.0474  0.3099 -0.2596
  352SOL    HW1 1055   1.072   2.860   1.585  1.8520  0.1045 -1.3290
  352SOL    HW2 1056   1.151   2.853   1.727 -1.8120 -0.3870 -1.0102
  353SOL     OW 1057   0.661   1.228   2.690  0.4821 -0.3551 -0.6132
  353SOL    HW1 1058   0.750   1.226   2.644 -2.9503  1.9008  2.6738
  353SOL    HW2 1059   0.581   1.202   2.629 -0.3535  1.5187 -0.4027
  354SOL     OW 1060   1.529   1.748   0.190  0.1302 -0.0475  0.4009
  354SOL    HW1 1061   1.569   1.701   0.273 -0.1500 -0.0005  0.8938
  354SOL    HW2 1062   1.602   1.774   0.125 -1.0985 -1.4989  0.5342
  355SOL     OW 1063   1.882   0.146   0.802 -0.0550  0.2391 -0.1374
  355SOL    HW1 1064   1.805   0.140   0.868  0.2108 -1.1398  1.3937
  355SOL    HW2 1065   1.936   0.230   0.830  1.5280  1.2174  2.8304
  356SOL     OW 1066   0.134   1.419   3.085  0.0032  0.0186 -0.3569
  356SOL    HW1 1067   0.223   1.401   0.037 -0.6082 -0.5624  1.2606
  356SOL    HW2 1068   0.064   1.367   0.045 -0.8857  1.8200 -1.6579
  357SOL     OW 1069   0.128   0.089   1.723 -0.2190  0.4835 -0.2344
  357SOL    HW1 1070   0.147   0.043   1.811 -0.1064  0.8190  0.7648
  357SOL    HW2 1071   0.046   0.153   1.724  1.4813 -1.4875 -1.4356
  358SOL     OW 1072   0.373   1.205   2.972 -0.3004  0.2826  0.3821
  358SOL    HW1 1073   0.311   1.228   2.900  2.5502  1.1888  1.7962
  358SOL    HW2 1074   0.348   1.264   3.052 -0.6099 -1.7434 -0.1443
  359SOL     OW 1075   2.680   2.617   2.631 -0.3901  0.3609  0.2105
  359SOL    HW1 1076   2.583   2.612   2.656  1.1998 -2.1130 -0.2128
  359SOL    HW2 1077   2.700   2.635   2.531  0.4558  0.7928 -1.2158
  360SOL     OW 1078   1.710   1.278   0.861  0.3991 -0.5407 -0.2584
  360SOL    HW1 1079   1.672   1.252   0.769  0.0699 -0.3080 -3.6668
  360SOL    HW2 1080   1.657   1.237   0.937  1.1586  0.3025 -0.2036
  361SOL     OW 1081   2.321   2.355   0.989 -0.4464  0.0582 -0.6608
  361SOL    HW1 1082   2.314   2.368   0.886 -1.8999  1.1752 -0.2033
  361SOL    HW2 1083   2.398   2.417   1.018 -0.2949 -0.7631  3.0968
  362SOL     OW 1084   1.998   1.580   1.038 -0.1870  0.2422  0.0441
  362SOL    HW1 1085   2.034   1.674   1.010  0.8585  0.1063 -2.3611
  362SOL    HW2 1086   1.896   1.573   1.012 -2.5369 -1.7080  1.2127
  363SOL     OW 1087   2.448   2.279   0.172  0.7141 -0.2418 -0.1407
  363SOL    HW1 1088   2.386   2.228   0.243 -0.3797  1.0883 -1.1438
  363SOL    HW2 1089   2.521   2.222   0.133 -0.8264 -0.2934 -1.3426
  364SOL     OW 1090   2.668   0.067   1.224  0.4948  0.2704  0.4829
  364SOL    HW1 1091   2.716   0.155   1.225 -2.2652  2.8550 -0.1468
  364SOL    HW2 1092   2.734   3.083   1.218 -1.3337  1.6482  0.7466
  365SOL     OW 1093   0.653   2.834   1.175 -0.7454  0.0807 -0.2756
  365SOL    HW1 1094   0.732   2.842   1.115  0.2076 -1.8423  2.6972
  365SOL    HW2 1095   0.692   2.807   1.270 -0.2873  1.5334  1.7144
  366SOL     OW 1096   3.082   1.641   0.374  0.3135 -0.4202  0.4198
  366SOL    HW1 1097   3.049   1.721   0.427  1.7035  1.9005 -1.4205
  366SOL    HW2 1098   0.034   1.662   0.292  0.7213  0.6726  0.7333
  367SOL     OW 1099   2.411   2.558   2.698  0.3968  0.2999 -0.0578
  367SOL    HW1 1100   2.320   2.558   2.642 -3.6918  2.1951  0.5601
  367SOL    HW2 1101   2.434   2.462   2.731  0.5379  0.8070 -3.5389
  368SOL     OW 1102   2.475   2.136   0.722  0.3355  0.0322  0.3842
  368SOL    HW1 1103   2.402   2.102   0.784 -0.5332  0.3039 -2.7389
  368SOL    HW2 1104   2.570   2.107   0.746  0.1662 -0.1478 -3.9901
  369SOL     OW 1105   0.794   1.016   0.692  0.3133  0.2074 -0.0670
  369SOL    HW1 1106   0.756   1.107   0.661 -0.6660  2.5875 -1.7184
  369SOL    HW2 1107   0.814   0.960   0.611  1.6676  0.2751 -1.0129
  370SOL     OW 1108   0.529   0.048   0.883 -0.0637 -0.2442 -0.3371
  370SOL    HW1 1109   0.627   0.072   0.902  3.0690  2.3154  2.5779
  370SOL    HW2 1110   0.513   3.060   0.823  0.7295 -2.4906  0.0678
  371SOL     OW 1111   2.593   1.197   2.796  0.4896  0.5844  0.5456
  371SOL    HW1 1112   2.670   1.184   2.730  0.6613 -0.3809 -0.2686
  371SOL    HW2 1113   2.537   1.112   2.804 -1.7591  0.3194  2.2266
  372SOL     OW 1114   0.719   0.481   2.449 -0.1036 -0.0032 -0.6757
  372SOL    HW1 1115   0.720   0.465   2.346  0.6791 -0.2145  0.9376
  372SOL    HW2 1116   0.736   0.390   2.491  0.1840 -1.7890 -0.7569
  373SOL     OW 1117   0.638   0.642   2.811  0.6526  0.2800 -0.6864
  373SOL    HW1 1118   0.660   0.691   2.722 -2.6811 -0.3150 -3.3060
  373SOL    HW2 1119   0.727   0.624   2.864  2.0926 -1.9033  2.2428
  374SOL     OW 1120   0.925   2.083   0.144  0.2422  0.5769 -0.4762
  374SOL    HW1 1121   0.987   2.033   0.080  2.4755  0.9320  0.4422
  374SOL    HW2 1122   0.828   2.052   0.140  1.2923 -1.5260  0.4334
  375SOL     OW 1123   0.795   0.138   0.898  0.2184  0.3110 -0.0114
  375SOL    HW1 1124   0.855   0.133   0.978 -4.0719  2.1738 -2.1287
  375SOL    HW2 1125   0.849   0.154   0.817  0.0775 -0.1705  1.1757
  376SOL     OW 1126   0.075   2.457   1.843  0.3760 -0.5557 -0.3243
  376SOL    HW1 1127   0.038   2.501   1.931 -0.8622 -0.7429  4.5648
  376SOL    HW2 1128   0.155   2.502   1.800 -2.0605  1.2729 -0.1420
  377SOL     OW 1129   2.327   2.100   2.955  0.0465 -0.2172  0.4326
  377SOL    HW1 1130   2.231   2.108   2.985  0.1762  2.9246  1.1968
  377SOL    HW2 1131   2.367   2.006   2.964 -0.1152  0.7486  0.4452
  378SOL     OW 1132   1.840   0.347   0.596  0.5063  0.0025 -0.1343
  378SOL    HW1 1133   1.910   0.319   0.531  2.9660  0.3878  1.8874
  378SOL    HW2 1134   1.842   0.296   0.679  1.9777  1.1661 -1.4740
  379SOL     OW 1135   1.270   1.095   0.803  0.0977  0.0514 -0.0283
  379SOL    HW1 1136   1.171   1.111   0.815  1.2129  1.7068 -2.5698
  379SOL    HW2 1137   1.284   1.076   0.704 -0.7878 -0.3684  0.6531
  380SOL     OW 1138   2.503   2.125   1.830 -0.6970 -0.2130  0.2084
  380SOL    HW1 1139   2.521   2.024   1.831 -0.2951 -0.7511 -0.0203
  380SOL    HW2 1140   2.588   2.180   1.831 -0.8774  2.2878 -3.2194
  381SOL     OW 1141   2.997   1.247   2.188  0.4934  0.3209 -0.1621
  381SOL    HW1 1142   2.994   1.173   2.262  2.6440 -0.1674 -1.2626
  381SOL    HW2 1143   3.040   1.203   2.106  0.3963 -0.2936 -1.1645
  382SOL     OW 1144   2.957   2.332   0.257 -0.7155 -0.2661  0.4881
  382SOL    HW1 1145   2.918   2.257   0.318  1.4413 -2.1984  2.0613
  382SOL    HW2 1146   2.978   2.416   0.311  0.9005  1.0294 -0.8599
  383SOL     OW 1147   1.417   0.827   2.267  0.6942 -0.4759  0.2884
  383SOL    HW1 1148   1.325   0.824   2.225  1.2635 -0.6308 -2.7697
  383SOL    HW2 1149   1.421   0.781   2.358  1.2858 -1.5944 -2.3000
  384SOL     OW 1150   1.169   2.137   2.450  0.3975 -0.0253  0.0054
  384SOL    HW1 1151   1.229   2.167   2.371  0.3692 -1.9888 -1.6959
  384SOL    HW2 1152   1.066   2.153   2.436  0.3726 -3.7038  0.5935
  385SOL     OW 1153   2.137   2.443   3.045  0.0167  0.1532  0.0323
  385SOL    HW1 1154   2.130   2.460   2.943  0.4021  0.4242 -1.8289
  385SOL    HW2 1155   2.230   2.467   3.080 -2.9856 -0.1940 -2.0157
  386SOL     OW 1156   1.671   1.370   0.515 -0.1664  0.4131  0.3105
  386SOL    HW1 1157   1.608   1.449   0.530  0.2040 -3.9360 -1.3433
  386SOL    HW2 1158   1.640   1.295   0.577 -1.7417 -2.3939 -1.8311
  387SOL     OW 1159   2.875   1.453   1.469 -0.1078 -0.3577  0.5284
  387SOL    HW1 1160   2.932   1.444   1.553 -1.2624  0.2036  0.9459
  387SOL    HW2 1161   2.908   1.387   1.391  1.9860 -3.0118  1.4889
  388SOL     OW 1162   0.413   1.044   1.561 -0.0451  0.1718  0.0169
  388SOL    HW1 1163   0.431   1.136   1.521  1.8265  1.5950  2.3443
  388SOL    HW2 1164   0.396   0.974   1.488 -0.3406 -0.7608 -0.8158
  389SOL     OW 1165   2.300   1.105   2.079  0.3621  0.2290 -0.6317
  389SOL    HW1 1166   2.367   1.113   2.161  2.3380  0.0997  1.0558
  389SOL    HW2 1167   2.209   1.076   2.118 -1.0656 -0.4526 -0.4327
  390SOL     OW 1168   1.254   1.838   0.529  0.3523  0.0804 -0.0935
  390SOL    HW1 1169   1.358   1.845   0.533  1.0817  0.0431 -2.7971
  390SOL    HW2 1170   1.225   1.745   0.563 -0.0283 -0.3929 -3.0615
  391SOL     OW 1171   1.103   1.890   0.914  0.4320 -0.1295  0.2951
  391SOL    HW1 1172   1.172   1.817   0.897  0.0941  0.7018 -1.2680
  391SOL    HW2 1173   1.007   1.856   0.922 -1.1585  1.3363 -0.1284
  392SOL     OW 1174   2.539   2.610   1.999  0.1344  0.3938  0.3799
  392SOL    HW1 1175   2.498   2.608   2.098  2.0554 -0.7015  1.1293
  392SOL    HW2 1176   2.637   2.591   2.007 -2.3319  1.6355 -2.3102
  393SOL     OW 1177   1.368   2.060   2.978 -0.5583 -0.4603 -0.5493
  393SOL    HW1 1178   1.318   2.079   2.893  0.1664 -0.1247  2.3256
  393SOL    HW2 1179   1.343   2.121   3.054  1.1229  0.9744 -0.5463
  394SOL     OW 1180   0.275   0.346   2.238  0.3148 -0.2523  0.2072
  394SOL    HW1 1181   0.361   0.341   2.182  2.2985  0.2649 -0.9259
  394SOL    HW2 1182   0.230   0.253   2.241 -1.1073 -0.2570  0.4902
  395SOL     OW 1183   0.138   0.923   1.055 -0.0862 -0.2089  0.2215
  395SOL    HW1 1184   0.200   0.944   1.130 -1.8766  1.1857  1.8480
  395SOL    HW2 1185   0.187   0.871   0.981  1.2945 -1.2333  0.5034
  396SOL     OW 1186   2.165   1.542   2.604  0.1895 -0.1822 -0.4006
  396SOL    HW1 1187   2.121   1.457   2.576  0.2858  0.0023  1.0565
  396SOL    HW2 1188   2.090   1.600   2.637  0.7003 -0.9004  2.1953
  397SOL     OW 1189   0.423   0.822   3.007 -0.5362 -0.5429  0.0693
  397SOL    HW1 1190   0.399   0.890   3.080  1.1794  2.6709 -0.1357
  397SOL    HW2 1191   0.443   0.874   2.919  0.7971  2.1436 -1.9425
  398SOL     OW 1192   0.942   2.740   0.649 -0.3071 -0.6121  0.6832
  398SOL    HW1 1193   1.034   2.700   0.636 -1.6327 -0.5999  2.0281
  398SOL    HW2 1194   0.965   2.838   0.660 -0.6379  1.7284 -0.1354
  399SOL     OW 1195   2.141   2.641   2.073  0.5198 -0.8142 -0.1500
  399SOL    HW1 1196   2.146   2.619   2.171 -1.5701 -0.7614 -0.8430
  399SOL    HW2 1197   2.133   2.560   2.016 -0.0304  0.8822  0.1457
  400SOL     OW 1198   0.164   1.357   1.753  0.0308  0.2307 -0.3240
  400SOL    HW1 1199   0.186   1.322   1.848 -2.5641 -0.1876  0.9637
  400SOL    HW2 1200   0.208   1.446   1.732 -1.3860 -0.3709  0.2711
  401SOL     OW 1201   0.674   0.966   0.960 -0.4891 -0.0456  0.1818
  401SOL    HW1 1202   0.598   0.905   0.962  0.9490 -0.5755 -0.0163
  401SOL    HW2 1203   0.702   0.986   0.867 -1.1640 -2.4902 -2.8850
  402SOL     OW 1204   0.802   2.858   2.279 -0.3026 -0.0761  0.1001
  402SOL    HW1 1205   0.893   2.901   2.286 -2.8502 -0.8345  0.5008
  402SOL    HW2 1206   0.754   2.893   2.194 -1.6984  1.5667 -2.8925
  403SOL     OW 1207   2.574   1.871   1.785 -0.4021  0.2444 -0.0229
  403SOL    HW1 1208   2.568   1.819   1.876  1.2444 -0.3618  3.5495
  403SOL    HW2 1209   2.600   1.818   1.702 -0.8351  0.3129 -2.9747
  404SOL     OW 1210   2.735   2.276   1.873  0.6028  0.6412  0.2536
  404SOL    HW1 1211   2.778   2.307   1.789  1.1173 -1.8550  2.4983
  404SOL    HW2 1212   2.786   2.198   1.915 -1.2030  0.9538 -0.3066
  405SOL     OW 1213   1.919   0.027   2.702 -0.5002 -0.0576  0.0411
  405SOL    HW1 1214   1.946   3.022   2.715  2.2371 -2.9776 -2.2229
  405SOL    HW2 1215   1.827   0.043   2.659  1.3134 -1.7458 -1.8369
  406SOL     OW 1216   1.089   1.769   0.242 -0.6015  0.3324  0.9617
  406SOL    HW1 1217   1.169   1.784   0.174 -3.4002 -1.2478 -1.0193
  406SOL    HW2 1218   1.072   1.852   0.298  1.5477 -0.4769  2.4101
  407SOL     OW 1219   1.569   1.287   0.270 -0.1009  0.0514 -0.1485
  407SOL    HW1 1220   1.487   1.345   0.252 -1.1013 -2.2495  0.1937
  407SOL    HW2 1221   1.622   1.324   0.351 -0.5399 -2.3045 -0.4991
  408SOL     OW 1222   0.412   0.517   1.590  0.5681  0.1396  0.0440
  408SOL    HW1 1223   0.368   0.451   1.653 -0.6046  1.9152  1.6016
  408SOL    HW2 1224   0.507   0.525   1.623  0.1084  1.6728 -1.4667
  409SOL     OW 1225   2.743   1.439   0.031  0.2950 -0.0435  0.0358
  409SOL    HW1 1226   2.673   1.447   3.052  0.8463  1.1546  1.4681
  409SOL    HW2 1227   2.784   1.525   0.057  1.0819 -1.8481  0.5799
  410SOL     OW 1228   2.795   2.774   0.764  0.1791  0.0750  0.1289
  410SOL    HW1 1229   2.888   2.784   0.805 -0.4004 -0.6852 -2.8634
  410SOL    HW2 1230   2.789   2.676   0.730 -1.1158 -3.3607  0.4050
  411SOL     OW 1231   0.473   0.654   0.536  0.6536  0.7172  0.1182
  411SOL    HW1 1232   0.568   0.656   0.571 -0.5454  0.9781 -2.4375
  411SOL    HW2 1233   0.427   0.564   0.549  0.4078  2.3054  3.2934
  412SOL     OW 1234   1.296   2.858   0.509 -0.2319 -0.1478  0.0020
  412SOL    HW1 1235   1.260   2.898   0.425  1.0371 -0.1325  1.1865
  412SOL    HW2 1236   1.269   2.759   0.524  1.0657 -1.3240 -0.5650
  413SOL     OW 1237   1.959   0.585   2.056 -0.4639  0.2660  0.4181
  413SOL    HW1 1238   2.019   0.501   2.049  3.4406 -1.3795  0.7042
  413SOL    HW2 1239   1.889   0.577   1.981 -2.5638 -1.6647 -1.1698
  414SOL     OW 1240   0.046   0.740   0.555 -0.2730  0.0106 -0.2730
  414SOL    HW1 1241   3.079   0.777   0.484  1.6169 -1.4467 -0.3102
  414SOL    HW2 1242   0.034   0.808   0.633 -0.1420  2.0693  0.9714
  415SOL     OW 1243   2.847   1.148   0.479  0.4049  1.0008 -0.5777
  415SOL    HW1 1244   2.770   1.118   0.416 -1.2589  0.1890  2.2880
  415SOL    HW2 1245   2.834   1.117   0.577 -2.3483  0.4772 -1.5531
  416SOL     OW 1246   2.585   0.498   2.732  0.1902 -0.4779 -0.0586
  416SOL    HW1 1247   2.601   0.481   2.629 -0.3935 -2.4312 -1.5110
  416SOL    HW2 1248   2.630   0.586   2.762 -0.9367  0.4291  0.0008
  417SOL     OW 1249   2.262   0.219   0.575  0.6679  0.4910 -0.3584
  417SOL    HW1 1250   2.288   0.128   0.539 -2.5754 -1.1941  1.3938
  417SOL    HW2 1251   2.265   0.291   0.499  0.8466 -1.1922 -1.4031
  418SOL     OW 1252   0.425   0.136   0.073  0.3699 -0.3663  0.1409
  418SOL    HW1 1253   0.480   0.193   0.138  1.4550  2.7540  0.3274
  418SOL    HW2 1254   0.322   0.139   0.100 -2.8228  0.5633  0.7411
  419SOL     OW 1255   0.698   0.638   1.109  0.3266  0.5510 -0.7376
  419SOL    HW1 1256   0.672   0.651   1.209  1.3025 -1.4909 -1.3041
  419SOL    HW2 1257   0.697   0.539   1.091  1.4860  2.7439 -0.7032
  420SOL     OW 1258   3.000   0.791   1.114  0.2251  0.2180 -0.2568
  420SOL    HW1 1259   0.002   0.825   1.118  5.1078 -0.3976  1.2522
  420SOL    HW2 1260   2.931   0.866   1.106  0.8332  0.7663 -0.2583
  421SOL     OW 1261   0.786   1.844   3.059 -0.3444 -0.4734 -0.0093
  421SOL    HW1 1262   0.719   1.784   3.013  1.6141  2.2091  2.6192
  421SOL    HW2 1263   0.745   1.923   0.010  0.7560 -0.6787 -2.5420
  422SOL     OW 1264   2.527   0.242   2.118 -0.1442 -0.4728  0.0692
  422SOL    HW1 1265   2.588   0.314   2.079 -0.1335  0.1282  0.9080
  422SOL    HW2 1266   2.434   0.289   2.127 -0.7077  0.5257  0.0008
  423SOL     OW 1267   1.900   1.537   0.054  0.1694  0.2132 -0.1386
  423SOL    HW1 1268   1.975   1.557   3.082  1.0385 -0.8095  1.1330
  423SOL    HW2 1269   1.816   1.578   0.022  2.2167 -0.0558  1.1384
  424SOL     OW 1270   1.364   1.401   2.223  0.1599 -0.8671  0.3726
  424SOL    HW1 1271   1.270   1.435   2.245 -1.6042  2.0578 -0.9926
  424SOL    HW2 1272   1.405   1.352   2.297 -0.2207  0.4630  0.0289
  425SOL     OW 1273   0.041   2.572   2.086 -0.1962 -0.3140  0.0536
  425SOL    HW1 1274   0.123   2.560   2.143  2.2890  3.3829  1.6377
  425SOL    HW2 1275   3.069   2.622   2.140 -0.0315 -1.4134  0.3735
  426SOL     OW 1276   2.300   2.814   0.486 -0.0641 -0.2321  0.5597
  426SOL    HW1 1277   2.224   2.744   0.495 -0.8907  1.3792 -1.5614
  426SOL    HW2 1278   2.341   2.823   0.581 -0.9066 -2.3479  0.0981
  427SOL     OW 1279   0.603   0.954   2.563  0.1415  0.8134 -0.1588
  427SOL    HW1 1280   0.536   0.971   2.636  1.9191 -1.0726  0.3519
  427SOL    HW2 1281   0.663   0.876   2.595  2.0561 -0.7523 -0.4059
  428SOL     OW 1282   2.828   1.400   2.785  0.1713 -0.2066 -0.5843
  428SOL    HW1 1283   2.818   1.321   2.724  0.6916  1.9802 -1.9390
  428SOL    HW2 1284   2.731   1.438   2.806 -2.6291  1.3971  0.4552
  429SOL     OW 1285   2.329   0.394   0.372 -0.5243 -0.1336  0.2239
  429SOL    HW1 1286   2.275   0.386   0.287  2.0334  2.5460  0.5530
  429SOL    HW2 1287   2.416   0.342   0.366 -1.6757  0.7536  0.7043
  430SOL     OW 1288   1.545   1.990   2.403 -0.1388 -0.0859  0.0895
  430SOL    HW1 1289   1.594   2.043   2.334 -0.7424 -0.4256  0.3352
  430SOL    HW2 1290   1.476   1.934   2.353 -1.3345 -2.0444  2.7176
  431SOL     OW 1291   0.097   1.753   1.762  0.2736 -0.3867  0.4317
  431SOL    HW1 1292   0.026   1.714   1.818  0.8473  0.1313 -0.4590
  431SOL    HW2 1293   0.168   1.683   1.741 -0.1329 -0.1710 -1.2186
  432SOL     OW 1294   1.455   2.217   2.006 -0.0592  0.1855 -0.2092
  432SOL    HW1 1295   1.553   2.193   2.015 -1.5769  1.5085  0.0301
  432SOL    HW2 1296   1.439   2.286   1.929  1.2087  2.0873  2.2191
  433SOL     OW 1297   0.924   2.171   0.378  0.0265  0.4629 -0.2308
  433SOL    HW1 1298   1.011   2.216   0.385  0.9946  1.0072  1.5681
  433SOL    HW2 1299   0.915   2.111   0.294 -0.7357 -1.1094 -1.5428
  434SOL     OW 1300   0.410   2.150   2.463  0.6096 -0.2704 -0.1912
  434SOL    HW1 1301   0.379   2.169   2.368  1.0360  1.0593  2.4667
  434SOL    HW2 1302   0.423   2.241   2.509  2.4784 -1.6680 -0.1557
  435SOL     OW 1303   0.296   1.278   0.378  0.0571 -0.0639 -0.0442
  435SOL    HW1 1304   0.209   1.235   0.349  1.6387 -2.6061  0.8009
  435SOL    HW2 1305   0.319   1.256   0.475 -0.8682  0.1996 -2.5563
  436SOL     OW 1306   0.278   2.557   1.727  0.0443  0.1579  0.0090
  436SOL    HW1 1307   0.257   2.657   1.742 -2.5128 -0.3718  3.1011
  436SOL    HW2 1308   0.344   2.552   1.650  1.4240  0.0331  0.8646
  437SOL     OW 1309   0.863   0.346   0.426 -0.6171 -0.2620 -0.3918
  437SOL    HW1 1310   0.848   0.435   0.378 -0.0866 -4.0038 -0.6740
  437SOL    HW2 1311   0.772   0.303   0.429  0.5772  2.0160  0.0460
  438SOL     OW 1312   0.775   2.296   0.571  0.0948  0.1633 -0.3557
  438SOL    HW1 1313   0.825   2.241   0.501  0.4751  0.5509 -0.9100
  438SOL    HW2 1314   0.844   2.339   0.632 -0.3851  1.8386  0.3350
  439SOL     OW 1315   0.438   2.542   1.504 -0.4781  0.2184  0.3040
  439SOL    HW1 1316   0.417   2.454   1.462  0.1192  1.6698 -1.0156
  439SOL    HW2 1317   0.440   2.607   1.425 -0.4277 -0.1153 -2.0108
  440SOL     OW 1318   1.918   2.913   1.619  0.1951 -0.1593  0.2238
  440SOL    HW1 1319   1.876   2.925   1.710  1.1821 -2.2311 -0.4943
  440SOL    HW2 1320   2.011   2.868   1.627  1.9149  1.8550 -0.3606
  441SOL     OW 1321   2.703   0.377   1.756  0.2697 -0.1195  0.4607
  441SOL    HW1 1322   2.684   0.320   1.668 -0.7729 -1.6622  1.6329
  441SOL    HW2 1323   2.792   0.427   1.739  1.7992 -0.7087 -0.6346
  442SOL     OW 1324   2.071   2.154   0.853 -0.0263  0.3592  0.0039
  442SOL    HW1 1325   2.074   2.209   0.938 -0.7886 -1.0002 -0.0937
  442SOL    HW2 1326   2.050   2.208   0.769  0.3232  0.5337 -0.7945
  443SOL     OW 1327   2.738   0.683   2.252 -0.3861  0.2847 -0.7699
  443SOL    HW1 1328   2.697   0.609   2.191 -1.1899  0.1939  0.0661
  443SOL    HW2 1329   2.735   0.766   2.199 -1.3761  0.4992  1.8222
  444SOL     OW 1330   2.012   0.890   1.879  0.7280  0.0789  0.4912
  444SOL    HW1 1331   1.941   0.894   1.955 -0.3909  0.4576 -0.7220
  444SOL    HW2 1332   2.096   0.848   1.919  0.4500 -1.0127  0.2389
  445SOL     OW 1333   2.759   2.320   1.282  0.0712 -0.1559 -0.1629
  445SOL    HW1 1334   2.685   2.315   1.353  1.7827  0.9255 -1.8240
  445SOL    HW2 1335   2.750   2.405   1.224 -0.3321 -2.0597 -3.3298
  446SOL     OW 1336   2.887   1.611   0.727  0.0803 -0.0339  0.3081
  446SOL    HW1 1337   2.864   1.549   0.650  0.8080 -1.3064 -1.2524
  446SOL    HW2 1338   2.913   1.556   0.811  1.3960  0.6042 -0.5514
  447SOL     OW 1339   0.474   1.346   1.044  0.3647 -0.4022  0.1977
  447SOL    HW1 1340   0.497   1.282   1.120  1.5236 -0.0054  0.8825
  447SOL    HW2 1341   0.534   1.327   0.965 -0.5940 -0.8312 -1.3557
  448SOL     OW 1342   1.485   1.215   1.525  0.2016  0.0548  0.1580
  448SOL    HW1 1343   1.575   1.218   1.576  0.4611 -1.3949 -0.5098
  448SOL    HW2 1344   1.438   1.309   1.515  0.6982  1.9531  0.2365
  449SOL     OW 1345   1.098   1.143   0.087 -0.1470  0.4867  0.2191
  449SOL    HW1 1346   1.172   1.122   0.020 -1.1673  0.7064  2.2856
  449SOL    HW2 1347   1.005   1.145   0.052  3.7823  2.4095 -0.6586
  450SOL     OW 1348   2.506   2.291   2.263  0.1696 -0.3062 -0.0596
  450SOL    HW1 1349   2.524   2.397   2.260  1.6400 -0.2363  0.1028
  450SOL    HW2 1350   2.591   2.236   2.261  0.2640  0.7091  2.5781
  451SOL     OW 1351   1.867   2.840   2.488  0.3362  0.0073 -0.1004
  451SOL    HW1 1352   1.905   2.874   2.577  0.2860  0.8831 -0.0096
  451SOL    HW2 1353   1.915   2.867   2.407  0.7539  1.5493 -0.8089
  452SOL     OW 1354   1.524   2.932   1.296 -0.0130 -0.3227 -0.1021
  452SOL    HW1 1355   1.423   2.960   1.289  0.1247  3.0458 -3.4124
  452SOL    HW2 1356   1.536   2.832   1.299 -1.0138 -1.1024  1.2715
  453SOL     OW 1357   1.630   1.082   1.044  0.1396  0.1874 -0.5971
  453SOL    HW1 1358   1.706   1.016   1.018 -0.1528 -1.0281 -1.4324
  453SOL    HW2 1359   1.650   1.126   1.134  1.5580  0.2056  2.0908
  454SOL     OW 1360   0.253   1.464   0.969  0.1574 -0.3920  0.0075
  454SOL    HW1 1361   0.191   1.438   0.892  0.2485  3.4693 -1.1385
  454SOL    HW2 1362   0.333   1.402   0.970  0.7418  0.0554  0.0142
  455SOL     OW 1363   2.596   3.070   0.320  0.0311 -0.0758 -0.2347
  455SOL    HW1 1364   2.589   3.055   0.219  0.9513 -0.5990 -3.4484
  455SOL    HW2 1365   2.678   3.035   0.370 -2.4013 -0.7501 -1.2335
  456SOL     OW 1366   2.695   2.533   1.059 -0.1399  0.0917 -0.1178
  456SOL    HW1 1367   2.668   2.616   1.114  0.0434  2.9073 -1.6528
  456SOL    HW2 1368   2.651   2.543   0.967 -0.3706  2.1831 -0.0579
  457SOL     OW 1369   1.068   0.174   0.343  0.0899 -0.3201  0.0132
  457SOL    HW1 1370   1.143   0.194   0.407 -0.0062 -0.5950 -0.8076
  457SOL    HW2 1371   1.007   0.255   0.353 -2.8870  1.2355  2.3156
  458SOL     OW 1372   2.483   0.694   0.364  0.2216 -0.5122 -0.8264
  458SOL    HW1 1373   2.463   0.656   0.457 -2.6801  2.1017 -1.9077
  458SOL    HW2 1374   2.405   0.678   0.295 -0.4289 -1.9673  0.4371
  459SOL     OW 1375   2.018   0.393   2.530  0.3416 -0.2470  0.4229
  459SOL    HW1 1376   1.919   0.375   2.520  0.0548  4.2498  0.9663
  459SOL    HW2 1377   2.063   0.324   2.588 -0.8453  1.5044  2.1147
  460SOL     OW 1378   2.765   0.031   2.710  0.4910 -0.1098  0.2348
  460SOL    HW1 1379   2.798   3.028   2.717  0.5034 -0.2020 -2.9711
  460SOL    HW2 1380   2.707   0.038   2.628  0.9355  1.3869  2.5687
  461SOL     OW 1381   1.244   1.671   0.836  0.0863  0.5379 -0.0803
  461SOL    HW1 1382   1.217   1.615   0.918 -0.0947 -0.2632  2.3931
  461SOL    HW2 1383   1.194   1.643   0.749  0.3438  1.1885 -1.7013
  462SOL     OW 1384   2.461   2.708   1.498  0.2239  0.2424  0.5103
  462SOL    HW1 1385   2.465   2.807   1.470  2.5921  0.6524 -0.1181
  462SOL    HW2 1386   2.427   2.703   1.588  0.0943 -2.9495 -1.6152
  463SOL     OW 1387   2.357   0.998   0.725 -0.6057 -0.0062 -0.8404
  463SOL    HW1 1388   2.404   0.992   0.635 -0.8698 -2.2536 -0.0103
  463SOL    HW2 1389   2.431   0.981   0.795 -1.5545 -0.1810 -0.8054
  464SOL     OW 1390   0.328   2.493   1.061  0.8252  0.1707 -0.3247
  464SOL    HW1 1391   0.305   2.516   0.966 -1.7978  1.3279  1.2982
  464SOL    HW2 1392   0.248   2.457   1.112  1.6897 -0.8016 -1.4185
  465SOL     OW 1393   0.110   1.714   0.139 -0.0080  0.5829  0.0180
  465SOL    HW1 1394   0.086   1.621   0.101  1.9977  1.1602 -1.1361
  465SOL    HW2 1395   0.037   1.778   0.114  1.4170  0.8295  1.0308
  466SOL     OW 1396   1.400   0.416   2.855 -0.2663  0.4934  0.5832
  466SOL    HW1 1397   1.349   0.502   2.860 -0.2972  0.5654  0.5439
  466SOL    HW2 1398   1.447   0.386   2.939  1.3348  1.6136  0.7942
  467SOL     OW 1399   1.154   0.611   2.113 -0.9394 -0.1804 -0.1610
  467SOL    HW1 1400   1.249   0.572   2.112  2.7671  1.3643 -0.5223
  467SOL    HW2 1401   1.159   0.713   2.116  3.2987 -0.4244  1.0645
  468SOL     OW 1402   0.716   1.042   2.323  0.3934 -0.0553 -0.1662
  468SOL    HW1 1403   0.699   0.998   2.412 -1.0728 -0.4236 -1.6854
  468SOL    HW2 1404   0.658   1.128   2.310 -3.0751  1.2258  0.2675
  469SOL     OW 1405   0.117   2.097   3.073  0.1696  0.2035  0.2248
  469SOL    HW1 1406   0.019   2.096   3.036 -1.7801  0.9402 -0.4933
  469SOL    HW2 1407   0.131   2.173   0.043  1.7002 -0.6219 -1.2505
  470SOL     OW 1408   2.437   1.855   2.949 -0.1764 -0.0095  0.2391
  470SOL    HW1 1409   2.378   1.788   2.901  1.7947 -2.2777 -1.8762
  470SOL    HW2 1410   2.487   1.813   3.026 -2.4407 -0.8160  1.0327
  471SOL     OW 1411   2.319   0.575   2.306  0.1640 -0.4633 -0.1334
  471SOL    HW1 1412   2.349   0.656   2.253  0.0950  1.5432 -3.1201
  471SOL    HW2 1413   2.248   0.601   2.373  0.4294 -0.1162 -0.1770
  472SOL     OW 1414   0.576   2.374   1.113 -0.0310 -0.1758 -0.3015
  472SOL    HW1 1415   0.643   2.422   1.172 -1.6818 -0.6196 -0.1084
  472SOL    HW2 1416   0.493   2.433   1.108 -0.6131 -1.3703 -0.8349
  473SOL     OW 1417   0.453   0.020   2.321  0.4285 -0.2793  0.0627
  473SOL    HW1 1418   0.530   0.076   2.288  0.6795  1.5911 -0.1471
  473SOL    HW2 1419   0.377   0.043   2.263 -0.3672  0.3242  1.6763
  474SOL     OW 1420   1.646   3.093   2.000  0.1761  0.2621 -0.3076
  474SOL    HW1 1421   1.619   0.088   1.953  0.7762  0.0423 -0.7965
  474SOL    HW2 1422   1.643   0.012   2.104  0.0144 -1.8049  4.1999
  475SOL     OW 1423   1.577   2.520   0.720 -0.3534  0.0664  0.7028
  475SOL    HW1 1424   1.564   2.423   0.745  2.0309 -0.7628 -0.6705
  475SOL    HW2 1425   1.545   2.534   0.622  0.0094  1.7533  2.9442
  476SOL     OW 1426   0.265   0.752   0.897  0.0119  0.4299  0.2560
  476SOL    HW1 1427   0.246   0.665   0.846 -0.6326  0.3314  0.2622
  476SOL    HW2 1428   0.366   0.754   0.911  0.0372  1.0421  1.5032
  477SOL     OW 1429   1.278   2.161   0.598  0.3534 -0.6934  0.1412
  477SOL    HW1 1430   1.335   2.078   0.601 -0.7051  1.0424 -0.9700
  477SOL    HW2 1431   1.201   2.146   0.664 -1.7969 -2.6435  3.4767
  478SOL     OW 1432   0.205   2.413   2.474  0.5228  0.0283 -0.5012
  478SOL    HW1 1433   0.290   2.413   2.528 -1.2993 -1.4279 -1.1859
  478SOL    HW2 1434   0.210   2.497   2.422  1.3327 -2.6718  2.5361
  479SOL     OW 1435   2.625   0.431   1.005 -0.1345 -0.1170  0.3209
  479SOL    HW1 1436   2.707   0.438   0.946 -1.9618 -0.9335 -2.0079
  479SOL    HW2 1437   2.579   0.340   0.994 -3.5023 -1.5455  0.2264
  480SOL     OW 1438   0.023   3.050   0.148  0.2306 -0.0016  0.2172
  480SOL    HW1 1439   0.054   2.998   0.234  2.7868 -1.3280  1.4289
  480SOL    HW2 1440   3.031   0.005   0.167  0.5560 -0.1791 -1.1854
  481SOL     OW 1441   2.563   2.329   1.477 -0.3634  0.5751  0.9232
  481SOL    HW1 1442   2.478   2.370   1.443 -2.0716  2.6183 -0.7116
  481SOL    HW2 1443   2.547   2.249   1.539  0.5545  2.4787 -0.3321
  482SOL     OW 1444   1.136   2.479   2.674  0.0129  0.3814  0.0750
  482SOL    HW1 1445   1.209   2.486   2.607  0.0821 -0.8594  2.0753
  482SOL    HW2 1446   1.041   2.496   2.635  0.8601 -1.6222 -1.1457
  483SOL     OW 1447   0.570   2.619   2.450 -0.6884  0.5029  0.3988
  483SOL    HW1 1448   0.522   2.695   2.398  1.0269 -0.3834 -1.7935
  483SOL    HW2 1449   0.628   2.564   2.384 -0.3220  0.0667 -0.1300
  484SOL     OW 1450   1.205   0.898   1.709 -0.3316  0.0122  0.1567
  484SOL    HW1 1451   1.171   0.963   1.784 -0.2083  0.2994  1.7751
  484SOL    HW2 1452   1.299   0.872   1.727 -1.3348  1.8274 -0.5190
  485SOL     OW 1453   2.398   1.001   2.765  0.1682 -0.0415  0.2371
  485SOL    HW1 1454   2.426   0.916   2.718 -0.9881 -2.2635 -0.9994
  485SOL    HW2 1455   2.323   0.991   2.829  2.3879  3.7934 -1.1072
  486SOL     OW 1456   2.492   3.082   1.044 -0.3972  0.3633  0.1784
  486SOL    HW1 1457   2.565   0.008   1.114 -0.1164 -1.2049 -2.2521
  486SOL    HW2 1458   2.530   3.015   0.978 -0.3591 -2.7651 -0.1511
  487SOL     OW 1459   0.441   1.828   1.687  0.1911  0.3296  0.2862
  487SOL    HW1 1460   0.495   1.806   1.599  3.8646 -0.2243 -2.6944
  487SOL    HW2 1461   0.346   1.855   1.654  3.0985 -2.2861  0.6552
  488SOL     OW 1462   2.577   1.462   2.888 -0.0312 -0.1049 -0.6968
  488SOL    HW1 1463   2.495   1.484   2.950 -0.3047 -2.4544  0.0922
  488SOL    HW2 1464   2.575   1.362   2.861  0.5731  1.1250 -0.0425
  489SOL     OW 1465   1.666   3.000   1.071 -0.2433  0.3928 -0.0288
  489SOL    HW1 1466   1.624   2.987   1.162  2.1087 -1.6968 -1.2187
  489SOL    HW2 1467   1.682   0.011   1.051 -1.0872  1.5589 -0.6241
  490SOL     OW 1468   0.900   0.791   0.516 -0.4376 -0.2141  0.0285
  490SOL    HW1 1469   0.976   0.855   0.488  1.2754  2.3319  0.3007
  490SOL    HW2 1470   0.837   0.774   0.435  0.4261 -2.1171 -2.1571
  491SOL     OW 1471   0.616   2.254   0.864  0.6322  0.4856 -0.0851
  491SOL    HW1 1472   0.710   2.242   0.848 -4.3057 -0.3397  3.5604
  491SOL    HW2 1473   0.599   2.306   0.951 -2.5219  0.3979  1.7644
  492SOL     OW 1474   1.265   1.611   2.066 -0.1381  0.1515 -0.0484
  492SOL    HW1 1475   1.281   1.622   1.966 -0.0970 -0.0554  1.2983
  492SOL    HW2 1476   1.303   1.521   2.094  3.0706 -1.3929  0.6319
  493SOL     OW 1477   2.865   2.508   0.691 -0.7404 -0.1521  0.3337
  493SOL    HW1 1478   2.941   2.461   0.741 -1.4514 -0.0148 -0.0541
  493SOL    HW2 1479   2.788   2.441   0.669 -0.8030 -2.0445  1.0909
  494SOL     OW 1480   2.614   2.110   0.009  0.8791  0.2879 -0.7772
  494SOL    HW1 1481   2.530   2.093   3.053  2.0585  1.3058 -0.2110
  494SOL    HW2 1482   2.684   2.167   3.052  1.1053  0.7103 -2.8657
  495SOL     OW 1483   2.784   2.411   0.046 -0.3747  0.0223 -0.3618
  495SOL    HW1 1484   2.782   2.351   3.059 -2.3991 -0.1391  2.7192
  495SOL    HW2 1485   2.846   2.377   0.119  0.0504  0.5383  0.3990
  496SOL     OW 1486   2.708   0.239   1.504  0.2689 -0.1227  0.4201
  496SOL    HW1 1487   2.613   0.202   1.492 -1.0557 -0.4934 -1.4517
  496SOL    HW2 1488   2.733   0.293   1.421 -0.3530 -0.1079 -1.1171
  497SOL     OW 1489   2.956   1.277   0.102  0.3991  0.0661 -0.1949
  497SOL    HW1 1490   2.976   1.272   0.203  1.0460 -1.4760  0.9038
  497SOL    HW2 1491   2.875   1.334   0.078  0.2433 -1.2814 -2.4939
  498SOL     OW 1492   3.013   1.608   1.922 -0.2091  0.2597  0.2956
  498SOL    HW1 1493   2.950   1.670   1.977  0.0847  0.8672 -0.8571
  498SOL    HW2 1494   3.085   1.562   1.979 -1.2754  0.4294  1.0893
  499SOL     OW 1495   0.725   2.276   2.568  0.2156 -0.3246  0.5755
  499SOL    HW1 1496   0.625   2.295   2.572  1.4337  2.8937  0.8212
  499SOL    HW2 1497   0.745   2.186   2.608 -0.0961  1.6572 -2.9324
  500SOL     OW 1498   1.824   0.283   0.045 -0.1299 -0.2371 -0.2551
  500SOL    HW1 1499   1.876   0.206   0.008 -2.5647  3.4966  0.7140
  500SOL    HW2 1500   1.726   0.258   0.067 -2.3879 -0.9154  1.6799
  501SOL     OW 1501   1.231   0.092   1.797 -0.0767  0.1182 -0.1440
  501SOL    HW1 1502   1.284   0.172   1.827 -1.0415 -0.8515 -1.6396
  501SOL    HW2 1503   1.292   0.012   1.785  1.2349  0.9074 -1.0439
  502SOL     OW 1504   2.617   0.846   1.925  0.5199 -0.1525  0.2073
  502SOL    HW1 1505   2.555   0.928   1.899 -3.3081  3.3797  0.8843
  502SOL    HW2 1506   2.574   0.759   1.901  3.1823 -2.8917 -0.7961
  503SOL     OW 1507   2.108   1.947   2.302 -0.3841 -0.0852  0.4786
  503SOL    HW1 1508   2.056   2.027   2.335  0.0498 -0.8502 -0.0179
  503SOL    HW2 1509   2.051   1.867   2.266 -0.3504 -2.1439 -0.9954
  504SOL     OW 1510   1.453   0.654   1.554 -0.4024 -0.5955 -0.0764
  504SOL    HW1 1511   1.371   0.684   1.506  3.1322 -0.7341 -0.2590
  504SOL    HW2 1512   1.441   0.561   1.598  2.4074 -0.6389  1.8782
  505SOL     OW 1513   0.955   0.949   1.845  0.6838 -0.0167  0.7547
  505SOL    HW1 1514   0.929   1.028   1.786  0.1794 -2.1227 -1.1882
  505SOL    HW2 1515   0.929   0.860   1.798 -0.9014  2.2792  0.5890
  506SOL     OW 1516   0.485   0.616   2.530  0.2385  0.3413  0.6115
  506SOL    HW1 1517   0.437   0.662   2.607 -0.0990  1.4282 -1.7964
  506SOL    HW2 1518   0.563   0.558   2.562 -3.0061  3.1812  3.5526
  507SOL     OW 1519   0.148   0.204   0.120  0.3125  0.1033  0.7064
  507SOL    HW1 1520   0.099   0.115   0.139 -1.6607 -0.2183 -1.7512
  507SOL    HW2 1521   0.101   0.253   0.040 -0.3677 -0.2258 -0.5484
  508SOL     OW 1522   1.222   1.093   1.528  0.3399  0.4302 -0.4816
  508SOL    HW1 1523   1.213   1.016   1.598  0.8340 -2.1267  0.3512
  508SOL    HW2 1524   1.307   1.146   1.546 -1.3080 -1.6463  1.8089
  509SOL     OW 1525   1.671   2.171   1.232 -0.1915 -1.0239 -0.4592
  509SOL    HW1 1526   1.593   2.109   1.241  0.0308 -0.1341  0.0699
  509SOL    HW2 1527   1.720   2.169   1.317  1.7355  1.4227 -1.7535
  510SOL     OW 1528   2.633   1.314   1.927 -0.2012  0.6508  0.1467
  510SOL    HW1 1529   2.647   1.395   1.860 -1.0509  1.4929 -2.4677
  510SOL    HW2 1530   2.608   1.344   2.022 -1.2858  1.6237  0.8049
  511SOL     OW 1531   0.665   2.288   1.612  0.7069  0.3454 -0.4343
  511SOL    HW1 1532   0.707   2.293   1.521 -2.1700 -1.2941  2.7113
  511SOL    HW2 1533   0.576   2.235   1.598  0.4085 -0.1958  0.1669
  512SOL     OW 1534   2.569   1.822   0.809  0.5610 -0.3065  0.0503
  512SOL    HW1 1535   2.494   1.863   0.759  0.2439 -0.7990 -0.4920
  512SOL    HW2 1536   2.655   1.845   0.766  0.9869  0.7434 -1.2347
  513SOL     OW 1537   0.158   1.519   2.840 -0.4428  0.0390  0.2981
  513SOL    HW1 1538   0.207   1.605   2.863 -0.2738  0.3107 -0.3906
  513SOL    HW2 1539   0.143   1.463   2.925 -2.6636 -1.8095  1.5336
  514SOL     OW 1540   2.865   2.342   2.147 -0.1252 -0.2605 -0.0585
  514SOL    HW1 1541   2.958   2.345   2.197  2.9370 -0.9570  3.2241
  514SOL    HW2 1542   2.840   2.429   2.099 -0.8542  0.3720  2.0963
  515SOL     OW 1543   2.086   1.172   1.094  0.1417 -0.6762  0.0758
  515SOL    HW1 1544   2.027   1.158   1.010 -1.8449 -2.6741 -1.4594
  515SOL    HW2 1545   2.092   1.272   1.114  0.1059  2.7252 -0.9588
  516SOL     OW 1546   2.132   2.051   0.214 -1.1929 -0.6283  0.2053
  516SOL    HW1 1547   2.225   2.062   0.257  1.0045 -1.1435 -1.7465
  516SOL    HW2 1548   2.101   1.955   0.220 -1.1499 -0.0823  0.4940
  517SOL     OW 1549   0.816   1.125   0.048 -0.2266 -0.7017 -0.6589
  517SOL    HW1 1550   0.739   1.146   3.078  0.1594 -0.1156  2.1786
  517SOL    HW2 1551   0.774   1.109   0.141 -2.7216  0.7519  0.3632
  518SOL     OW 1552   2.935   2.920   1.852  0.9918 -0.2164  0.1383
  518SOL    HW1 1553   2.876   2.991   1.811 -0.6589 -0.4042  0.8045
  518SOL    HW2 1554   2.892   2.833   1.819  0.1930 -2.1462  0.7813
  519SOL     OW 1555   1.340   1.722   2.515 -0.6334 -0.0350  0.5503
  519SOL    HW1 1556   1.246   1.748   2.538  1.4655 -1.5990 -0.4309
  519SOL    HW2 1557   1.394   1.674   2.587 -0.5092 -0.1246 -0.9914
  520SOL     OW 1558   2.630   2.897   2.337 -0.0145  0.1401 -0.2299
  520SOL    HW1 1559   2.651   2.940   2.247  1.0779 -0.3414  0.9919
  520SOL    HW2 1560   2.575   2.952   2.404  1.6209  0.3157  3.1517
  521SOL     OW 1561   0.163   1.918   2.116 -0.0862  0.0725 -0.4329
  521SOL    HW1 1562   0.235   1.983   2.084 -1.3899  0.8477 -1.1351
  521SOL    HW2 1563   0.201   1.843   2.181  1.6390  0.7981 -0.7976
  522SOL     OW 1564   0.633   2.603   1.730 -0.0738 -0.7291  0.4581
  522SOL    HW1 1565   0.609   2.570   1.640  0.6438 -0.6162  0.2382
  522SOL    HW2 1566   0.732   2.581   1.750  2.0758 -0.3435  2.8864
  523SOL     OW 1567   3.044   2.254   1.406 -0.4327 -0.4224 -0.4497
  523SOL    HW1 1568   3.031   2.295   1.499 -0.7274 -0.3702  0.9562
  523SOL    HW2 1569   2.963   2.261   1.348  3.1196 -1.2937 -0.1369
  524SOL     OW 1570   1.275   2.404   0.705  0.2149 -0.2390  0.3660
  524SOL    HW1 1571   1.306   2.330   0.644 -0.3838  2.7010  0.2616
  524SOL    HW2 1572   1.333   2.406   0.787  1.1024 -0.0513  1.5264
  525SOL     OW 1573   2.370   1.143   1.057  0.1679  0.1080 -0.2340
  525SOL    HW1 1574   2.418   1.218   1.002  1.5782  0.0319  1.1535
  525SOL    HW2 1575   2.267   1.154   1.055  1.5764  3.3651  0.5093
  526SOL     OW 1576   0.961   2.345   0.784  0.2736  0.1702 -0.5890
  526SOL    HW1 1577   1.046   2.400   0.763  0.5480  0.7927 -0.1454
  526SOL    HW2 1578   0.966   2.249   0.754  0.2497  1.2693 -3.5585
  527SOL     OW 1579   2.026   2.260   0.593 -0.7440 -0.0353 -0.4796
  527SOL    HW1 1580   1.937   2.304   0.611  0.3511  1.8729  3.5302
  527SOL    HW2 1581   2.086   2.315   0.536 -0.4064 -1.4876  0.2044
  528SOL     OW 1582   2.171   0.307   0.166 -0.0466  0.5702  0.3109
  528SOL    HW1 1583   2.097   0.370   0.190  2.3756  0.3186 -1.1224
  528SOL    HW2 1584   2.153   0.210   0.194  0.0115 -3.1497  1.0050
  529SOL     OW 1585   0.942   1.501   2.087  0.0660 -0.2396 -0.1282
  529SOL    HW1 1586   0.951   1.445   2.005  1.5016  0.6319  2.6316
  529SOL    HW2 1587   1.027   1.485   2.140  0.0732  1.2443 -1.9291
  530SOL     OW 1588   2.458   1.037   2.292  0.1807 -0.1955  0.0114
  530SOL    HW1 1589   2.559   1.051   2.294  3.6028 -4.2216  0.9587
  530SOL    HW2 1590   2.424   1.072   2.382 -1.1143  1.4744 -0.7418
  531SOL     OW 1591   0.884   0.885   3.040  0.2352 -0.1932 -0.4083
  531SOL    HW1 1592   0.847   0.973   3.081 -0.0657  0.7687 -0.8720
  531SOL    HW2 1593   0.820   0.807   3.058 -1.5841  2.2551  0.7965
  532SOL     OW 1594   1.594   1.150   0.633 -0.0183  0.3711 -0.0710
  532SOL    HW1 1595   1.635   1.060   0.655  1.1714 -0.7040 -0.5226
  532SOL    HW2 1596   1.499   1.138   0.607 -1.1953 -0.5525  1.6070
  533SOL     OW 1597   0.427   0.719   2.058 -0.1519  0.3387 -0.1888
  533SOL    HW1 1598   0.405   0.805   2.017  1.9159 -2.0338 -0.3841
  533SOL    HW2 1599   0.449   0.735   2.156 -1.5114 -1.8446  1.4412
  534SOL     OW 1600   1.476   0.233   2.647  0.3461  0.1869 -0.3158
  534SOL    HW1 1601   1.452   0.300   2.722  0.2425 -0.2875  4.0809
  534SOL    HW2 1602   1.404   0.160   2.643 -0.1747 -1.0861  0.4714
  535SOL     OW 1603   0.620   0.208   0.415  0.0377 -0.0044  0.3625
  535SOL    HW1 1604   0.627   0.113   0.378 -2.8475  2.8292 -2.2978
  535SOL    HW2 1605   0.571   0.210   0.504  3.8515 -0.5884 -0.9701
  536SOL     OW 1606   1.223   0.344   0.112  0.1404 -0.5058 -0.1997
  536SOL    HW1 1607   1.208   0.437   0.072 -0.8973  1.7706  0.3396
  536SOL    HW2 1608   1.153   0.278   0.084  0.7359  1.6966 -0.2683
  537SOL     OW 1609   1.366   2.924   1.754  0.2339 -0.5143 -0.3894
  537SOL    HW1 1610   1.414   2.836   1.769  0.2997  0.6712  0.9306
  537SOL    HW2 1611   1.423   2.976   1.685  0.9097  1.9501 -1.1697
  538SOL     OW 1612   0.363   2.761   0.170  0.1623  0.2312 -0.7046
  538SOL    HW1 1613   0.282   2.791   0.226  0.4570  0.9960  0.9503
  538SOL    HW2 1614   0.422   2.839   0.151  0.8007 -1.4839  0.1046
  539SOL     OW 1615   2.860   1.215   1.844  0.1428  0.3884 -1.1415
  539SOL    HW1 1616   2.911   1.285   1.794 -1.2189 -1.2412  0.7657
  539SOL    HW2 1617   2.765   1.245   1.871 -5.2392  0.3981  1.9984
  540SOL     OW 1618   2.359   2.218   2.045  0.2524  0.0893 -0.1808
  540SOL    HW1 1619   2.411   2.252   2.127 -1.4986  1.3816 -0.4567
  540SOL    HW2 1620   2.416   2.198   1.966  0.4643  0.4001  5.0141
  541SOL     OW 1621   0.440   2.674   1.262  0.1366  0.5395  0.1247
  541SOL    HW1 1622   0.408   2.617   1.183  0.4464 -2.2835 -0.1632
  541SOL    HW2 1623   0.502   2.741   1.216 -1.9075 -1.8792 -0.3461
  542SOL     OW 1624   2.651   0.493   2.045  0.4637  0.3926 -0.1400
  542SOL    HW1 1625   2.728   0.462   1.985  1.9224 -0.6712  1.2953
  542SOL    HW2 1626   2.581   0.529   1.983  2.1026  0.8555  0.6328
  543SOL     OW 1627   0.977   0.616   1.108  0.4809  0.3554  0.1336
  543SOL    HW1 1628   0.885   0.662   1.097 -2.7822 -0.5020 -1.1370
  543SOL    HW2 1629   0.978   0.554   1.190  0.5186  2.7795 -1.1765
  544SOL     OW 1630   2.445   2.040   1.121  0.1490 -0.2027  0.0282
  544SOL    HW1 1631   2.408   1.947   1.139  1.7711 -0.5391 -1.0101
  544SOL    HW2 1632   2.399   2.078   1.038  0.9570  0.2550  1.0805
  545SOL     OW 1633   1.493   1.572   1.182 -0.1398  0.3530  0.0394
  545SOL    HW1 1634   1.565   1.609   1.245 -1.3413 -0.1434 -2.7002
  545SOL    HW2 1635   1.461   1.483   1.210  1.9608  0.8247 -1.9471
  546SOL     OW 1636   2.898   0.238   2.817 -0.0241  0.0294  0.0888
  546SOL    HW1 1637   2.837   0.166   2.779  1.9563 -0.5422  1.2740
  546SOL    HW2 1638   2.840   0.309   2.860 -1.3635  0.6211  1.3683
  547SOL     OW 1639   2.348   0.320   2.606  0.5129  0.2298 -0.3204
  547SOL    HW1 1640   2.263   0.293   2.660 -0.9840 -0.8446  1.0521
  547SOL    HW2 1641   2.426   0.344   2.667 -1.3083 -2.1014  2.2687
  548SOL     OW 1642   2.642   1.963   2.724  0.5161  0.7060 -0.2045
  548SOL    HW1 1643   2.561   1.925   2.768 -0.0851 -0.8309 -0.1852
  548SOL    HW2 1644   2.720   1.964   2.789 -1.0095 -0.7907 -1.5639
  549SOL     OW 1645   2.197   0.552   0.556  0.0012  0.1151 -0.1434
  549SOL    HW1 1646   2.265   0.567   0.632 -0.1181 -2.5227  1.2535
  549SOL    HW2 1647   2.245   0.502   0.480 -0.9212 -1.2413 -1.0020
  550SOL     OW 1648   2.579   1.351   0.241  0.4341 -0.0363  0.6674
  550SOL    HW1 1649   2.489   1.327   0.198 -0.1138  0.4921  1.8068
  550SOL    HW2 1650   2.646   1.399   0.182 -0.2259  0.7212  0.3728
  551SOL     OW 1651   1.347   2.580   1.308  0.3534 -0.6008  0.3755
  551SOL    HW1 1652   1.259   2.637   1.320  1.0120  3.4254  0.1907
  551SOL    HW2 1653   1.374   2.566   1.210 -2.8447 -0.1008 -1.8608
  552SOL     OW 1654   2.750   2.271   2.916 -0.5316  0.0398  0.5763
  552SOL    HW1 1655   2.799   2.324   2.841 -0.8014  0.7211 -0.5597
  552SOL    HW2 1656   2.650   2.280   2.897  3.3963  1.8464  1.5449
  553SOL     OW 1657   0.373   2.997   0.521 -0.4140  0.5403  0.5982
  553SOL    HW1 1658   0.378   3.094   0.556 -2.9423 -1.9420 -2.1981
  553SOL    HW2 1659   0.433   2.939   0.580 -0.2945  2.2432  0.8779
  554SOL     OW 1660   1.786   1.874   1.646 -0.0325  0.4676  0.2826
  554SOL    HW1 1661   1.730   1.911   1.719  2.3909 -3.6927 -0.8566
  554SOL    HW2 1662   1.742   1.794   1.610 -1.2105  0.9287 -1.3746
  555SOL     OW 1663   1.518   2.529   2.073 -0.1655 -0.3640 -0.0271
  555SOL    HW1 1664   1.543   2.482   2.157 -1.2448  1.4676 -1.5042
  555SOL    HW2 1665   1.414   2.515   2.059 -2.8573  1.7867  0.6560
  556SOL     OW 1666   1.675   0.898   0.724  0.2013 -0.2493 -0.7055
  556SOL    HW1 1667   1.741   0.900   0.802 -1.9840 -2.0658  0.9886
  556SOL    HW2 1668   1.683   0.810   0.674 -1.5357 -0.7559 -0.2546
  557SOL     OW 1669   1.577   2.326   1.581 -0.0945  0.2760  0.2561
  557SOL    HW1 1670   1.523   2.320   1.495 -1.0324 -0.8165  3.2155
  557SOL    HW2 1671   1.520   2.337   1.660  0.2574  0.7532 -1.4716
  558SOL     OW 1672   3.061   1.041   2.375 -0.0426  0.1105  0.5883
  558SOL    HW1 1673   3.019   0.990   2.454 -0.2808 -0.4599  1.0618
  558SOL    HW2 1674   0.014   0.991   2.305 -1.4850  1.4559  0.8927
  559SOL     OW 1675   2.493   2.566   2.280  0.4658 -0.3737 -0.3342
  559SOL    HW1 1676   2.419   2.621   2.322  1.8807 -2.6906 -1.2365
  559SOL    HW2 1677   2.585   2.600   2.321  1.2215  3.2837 -0.4316
  560SOL     OW 1678   0.265   3.062   2.557 -0.1452  0.4113  0.0542
  560SOL    HW1 1679   0.181   0.016   2.518 -1.0516  2.7901 -0.9138
  560SOL    HW2 1680   0.337   0.030   2.576 -0.1228 -1.7988 -4.4526
  561SOL     OW 1681   1.764   0.650   0.612 -0.8931  0.1382 -0.3936
  561SOL    HW1 1682   1.733   0.571   0.561 -0.5209  3.0491  0.5953
  561SOL    HW2 1683   1.843   0.692   0.557  3.0440  1.3243  0.1971
  562SOL     OW 1684   0.688   1.291   2.008 -0.2716  0.4172 -0.6468
  562SOL    HW1 1685   0.748   1.342   1.942  0.1923  0.3257  1.0813
  562SOL    HW2 1686   0.705   1.319   2.105 -1.4647 -1.5259  1.8758
  563SOL     OW 1687   1.533   2.085   0.215  0.7702 -0.1638  0.0511
  563SOL    HW1 1688   1.529   2.006   0.282  3.1967  3.2636  0.8975
  563SOL    HW2 1689   1.602   2.064   0.143  0.1043 -2.6905  1.7733
  564SOL     OW 1690   0.446   1.863   0.732  0.2308  0.2004 -0.1860
  564SOL    HW1 1691   0.481   1.838   0.635 -1.0181 -1.4351  0.2515
  564SOL    HW2 1692   0.356   1.810   0.743  0.9243 -0.6890 -1.5355
  565SOL     OW 1693   0.520   2.956   0.083 -0.2252 -0.4350  0.0990
  565SOL    HW1 1694   0.586   2.906   0.021  0.3960 -1.1087 -1.0421
  565SOL    HW2 1695   0.484   3.043   0.046 -0.9212 -2.2526 -0.6370
  566SOL     OW 1696   1.493   2.480   2.909 -0.1746 -0.3055 -0.3233
  566SOL    HW1 1697   1.529   2.453   3.001 -2.7249  2.0067  0.4263
  566SOL    HW2 1698   1.567   2.536   2.862 -2.1388 -0.9085  2.4406
  567SOL     OW 1699   2.352   1.741   0.968  0.2302 -0.0590  0.4661
  567SOL    HW1 1700   2.443   1.768   0.930  0.3709 -0.0500  0.2027
  567SOL    HW2 1701   2.341   1.639   0.983  0.1615 -0.4831  1.3058
  568SOL     OW 1702   1.591   1.029   2.516 -0.6447 -0.6554  0.1790
  568SOL    HW1 1703   1.551   0.939   2.530  2.2444  1.4293 -0.2667
  568SOL    HW2 1704   1.619   1.069   2.609  2.7417 -0.8281  0.9027
  569SOL     OW 1705   2.326   1.714   1.817  0.7549  0.0829  0.0185
  569SOL    HW1 1706   2.377   1.657   1.751 -1.1749  0.7053  1.2242
  569SOL    HW2 1707   2.323   1.671   1.909  1.5358  2.3168 -0.5201
  570SOL     OW 1708   2.866   2.669   1.756 -0.4514 -0.3956  0.7842
  570SOL    HW1 1709   2.948   2.682   1.690  2.2471  1.4285  0.4837
  570SOL    HW2 1710   2.801   2.596   1.718 -0.8552  0.7340  2.4785
  571SOL     OW 1711   0.094   0.665   1.404 -0.8824  0.2283  0.1979
  571SOL    HW1 1712   0.136   0.668   1.311  0.6691 -1.5588 -0.9302
  571SOL    HW2 1713   0.016   0.729   1.413  0.4934 -1.1872 -1.6907
  572SOL     OW 1714   0.615   1.529   0.765 -0.1952  0.0767  0.3178
  572SOL    HW1 1715   0.617   1.580   0.856 -0.5072  0.6140  1.7302
  572SOL    HW2 1716   0.681   1.574   0.704  2.2494 -0.1993 -2.1825
  573SOL     OW 1717   1.090   0.782   0.219  0.5037  0.3593  0.2046
  573SOL    HW1 1718   1.071   0.685   0.244 -2.0687 -3.4314  2.0042
  573SOL    HW2 1719   1.074   0.810   0.121  2.0828 -0.8371 -1.4037
  574SOL     OW 1720   0.165   0.443   0.242 -0.2131  0.4276  0.6027
  574SOL    HW1 1721   0.136   0.352   0.207  0.5163  0.2904  0.2405
  574SOL    HW2 1722   0.210   0.486   0.165 -1.7297  2.4719  2.5080
  575SOL     OW 1723   0.866   1.970   1.162 -0.1453  0.2096 -0.2152
  575SOL    HW1 1724   0.842   1.955   1.064  0.1368  2.4707 -1.2600
  575SOL    HW2 1725   0.923   2.054   1.181  1.4371  0.8034  2.1063
  576SOL     OW 1726   2.997   0.235   1.706  0.1171 -0.0651  0.5417
  576SOL    HW1 1727   3.003   0.294   1.621 -0.4985  0.0777  0.0607
  576SOL    HW2 1728   2.909   0.185   1.709  3.5128 -0.0826 -0.8673
  577SOL     OW 1729   2.718   1.655   2.037  0.4345  0.0137 -0.0033
  577SOL    HW1 1730   2.676   1.728   2.091  2.1870 -2.5168 -0.2752
  577SOL    HW2 1731   2.783   1.602   2.101  1.3084 -2.5528  1.1179
  578SOL     OW 1732   1.039   2.970   2.344  0.1046 -0.2697  0.6665
  578SOL    HW1 1733   1.109   3.010   2.280  1.1628  0.6733 -0.7396
  578SOL    HW2 1734   1.074   2.923   2.427  1.4014  1.7965 -1.0417
  579SOL     OW 1735   1.936   1.764   2.197 -0.8489  0.2710  0.3851
  579SOL    HW1 1736   1.977   1.824   2.127 -0.1185  0.3004  0.5321
  579SOL    HW2 1737   1.842   1.734   2.169  0.3319 -1.3167  0.0231
  580SOL     OW 1738   1.826   0.936   2.064  0.0165  0.1488 -0.2029
  580SOL    HW1 1739   1.757   0.864   2.079  2.8463  0.4362  0.3984
  580SOL    HW2 1740   1.805   1.008   2.132  0.8499 -0.3216 -0.6751
  581SOL     OW 1741   1.178   1.348   2.516  0.3482 -0.0245 -0.1682
  581SOL    HW1 1742   1.273   1.312   2.504 -1.5775  3.7153  3.5035
  581SOL    HW2 1743   1.167   1.423   2.453 -2.3841 -2.4244  1.5893
  582SOL     OW 1744   0.039   2.230   1.983 -0.3501 -0.4322 -0.4408
  582SOL    HW1 1745   0.055   2.270   2.075 -0.7649 -0.9330 -0.4422
  582SOL    HW2 1746   0.047   2.299   1.910 -0.6949  1.9141 -0.5282
  583SOL     OW 1747   1.791   1.450   1.249 -0.4176 -0.7629  0.0166
  583SOL    HW1 1748   1.829   1.460   1.154  0.4884  0.4688 -0.1724
  583SOL    HW2 1749   1.793   1.542   1.296  0.7007  2.6752 -0.6182
  584SOL     OW 1750   0.832   2.330   2.996 -0.3501  0.2082 -0.5283
  584SOL    HW1 1751   0.849   2.320   0.002 -1.1741  0.1975 -2.1350
  584SOL    HW2 1752   0.909   2.292   2.935  0.6252 -1.9049  0.6898
  585SOL     OW 1753   0.320   2.387   0.404  0.3997  0.4094 -0.0978
  585SOL    HW1 1754   0.238   2.346   0.356 -0.1466  0.7249 -0.9762
  585SOL    HW2 1755   0.382   2.426   0.330  1.2986  0.9268 -0.5325
  586SOL     OW 1756   2.068   1.632   0.431  0.0369  0.1976  0.6006
  586SOL    HW1 1757   2.002   1.566   0.395  1.2472 -0.5769  1.5569
  586SOL    HW2 1758   2.070   1.622   0.529  1.9089  0.9528 -2.2067
  587SOL     OW 1759   2.944   1.939   0.345 -0.2652 -0.7656  0.5059
  587SOL    HW1 1760   3.032   1.977   0.382  1.2450 -0.3119 -0.7423
  587SOL    HW2 1761   2.863   1.997   0.374  0.4824 -0.3657  0.9786
  588SOL     OW 1762   3.021   0.671   0.883 -0.3887 -0.6888  0.3475
  588SOL    HW1 1763   3.015   0.719   0.972  0.4326 -0.2386  0.2266
  588SOL    HW2 1764   2.947   0.596   0.892 -0.5589 -3.8480 -1.2687
  589SOL     OW 1765   1.097   0.539   0.891 -0.2322 -0.0624 -0.3180
  589SOL    HW1 1766   1.169   0.605   0.856  0.3977 -0.9105 -0.6097
  589SOL    HW2 1767   1.052   0.571   0.976  0.9116 -0.5547 -1.2936
  590SOL     OW 1768   2.391   2.489   0.011 -0.1488  0.1493 -0.3152
  590SOL    HW1 1769   2.401   2.408   0.075 -1.1923  2.2115  0.2353
  590SOL    HW2 1770   2.436   2.574   0.051 -1.2981  2.5047 -0.0348
  591SOL     OW 1771   0.468   2.468   1.891  0.6431  0.3681  0.4206
  591SOL    HW1 1772   0.546   2.516   1.855  0.0532 -2.1514  0.5059
  591SOL    HW2 1773   0.392   2.479   1.825 -0.6311  0.0596  0.1111
  592SOL     OW 1774   0.500   1.434   1.705  0.1418 -0.1927 -0.3159
  592SOL    HW1 1775   0.591   1.472   1.729  0.3683  1.3292  1.0409
  592SOL    HW2 1776   0.488   1.350   1.767  0.2650 -1.0192 -0.8435
  593SOL     OW 1777   1.391   1.910   1.377  0.0098  0.4604 -0.0099
  593SOL    HW1 1778   1.429   1.897   1.283  0.7085  0.1884 -2.5065
  593SOL    HW2 1779   1.462   1.941   1.444 -0.9101  0.0289 -1.6300
  594SOL     OW 1780   0.401   0.977   2.784  0.4694 -0.1851 -0.1169
  594SOL    HW1 1781   0.387   1.068   2.835  0.4545  1.1336  0.9958
  594SOL    HW2 1782   0.327   0.944   2.720  1.1180 -1.6863  1.1531
  595SOL     OW 1783   1.715   0.166   1.032  0.1824 -0.1341 -0.6050
  595SOL    HW1 1784   1.673   0.246   0.987 -0.6036 -0.8425 -1.7176
  595SOL    HW2 1785   1.776   0.195   1.113 -1.9959  0.4272  0.7162
  596SOL     OW 1786   0.302   1.050   1.222  0.1595  0.3959 -0.1306
  596SOL    HW1 1787   0.397   1.081   1.238 -1.5625 -0.9403  0.3461
  596SOL    HW2 1788   0.244   1.080   1.297  1.3734  0.9996 -1.8305
  597SOL     OW 1789   3.049   2.562   2.722  1.0295  0.3477  0.0267
  597SOL    HW1 1790   3.044   2.615   2.808 -1.5212 -0.7727 -1.4358
  597SOL    HW2 1791   2.974   2.494   2.724  0.5382 -1.6083  2.3738
  598SOL     OW 1792   2.235   1.960   2.682  0.2956 -0.0933 -0.4312
  598SOL    HW1 1793   2.139   1.996   2.695  0.9024 -1.2408  1.0922
  598SOL    HW2 1794   2.308   1.996   2.742 -1.3286 -0.5426 -3.6186
  599SOL     OW 1795   1.527   0.552   0.192 -0.4073  0.1235  0.1288
  599SOL    HW1 1796   1.484   0.627   0.243 -1.7659 -1.7085 -0.9557
  599SOL    HW2 1797   1.558   0.482   0.261 -0.5446  0.1728  0.0119
  600SOL     OW 1798   0.817   0.322   0.008 -0.1413 -0.1572  0.0701
  600SOL    HW1 1799   0.882   0.250   0.036 -0.0276  0.5890  0.6242
  600SOL    HW2 1800   0.874   0.406   3.071  1.6418  1.5621 -2.4744
  601SOL     OW 1801   0.647   0.023   1.471  0.4784 -0.0395  0.4153
  601SOL    HW1 1802   0.619   0.101   1.530  3.5386  0.6931 -0.3044
  601SOL    HW2 1803   0.568   0.002   1.410 -1.1531  1.8224 -1.0123
  602SOL     OW 1804   0.275   2.833   0.845 -0.0186 -0.3035  0.1318
  602SOL    HW1 1805   0.232   2.906   0.790  1.9415  1.5015 -1.5761
  602SOL    HW2 1806   0.223   2.818   0.930 -1.1023 -1.1151  1.7079
  603SOL     OW 1807   0.756   2.959   2.546  0.1889 -0.2254 -0.3087
  603SOL    HW1 1808   0.733   3.060   2.548 -0.4242  0.9222  1.1622
  603SOL    HW2 1809   0.761   2.921   2.452  0.4010  0.5045  0.3774
  604SOL     OW 1810   1.063   2.548   0.088  0.2403 -0.5629  0.1899
  604SOL    HW1 1811   0.999   2.472   0.110 -1.1135 -3.0842 -0.8084
  604SOL    HW2 1812   1.082   2.548   3.083  0.3557 -1.3102  2.9529
  605SOL     OW 1813   1.499   0.861   1.742 -0.8413  0.3857 -0.1494
  605SOL    HW1 1814   1.496   0.784   1.676  0.5787  0.0521 -1.4304
  605SOL    HW2 1815   1.595   0.890   1.748 -2.7383 -0.4013  3.9010
  606SOL     OW 1816   1.283   0.680   2.817 -0.3371  0.5121 -0.3621
  606SOL    HW1 1817   1.232   0.677   2.728  2.2537  1.7660 -0.8579
  606SOL    HW2 1818   1.251   0.755   2.879  1.5356  3.9995  0.9488
  607SOL     OW 1819   0.097   1.203   1.376  0.3503 -0.4325 -0.3469
  607SOL    HW1 1820   0.008   1.229   1.332  2.4542 -0.3482  0.1996
  607SOL    HW2 1821   0.166   1.275   1.347  0.9963  2.3944 -0.8541
  608SOL     OW 1822   2.899   2.264   2.475  0.6745 -0.2260 -0.1091
  608SOL    HW1 1823   2.816   2.246   2.420  0.2203  0.5408  1.5031
  608SOL    HW2 1824   2.976   2.252   2.409 -1.1181  0.7522  1.2708
  609SOL     OW 1825   2.084   0.066   0.273 -0.4652 -0.4012  0.1859
  609SOL    HW1 1826   1.996   0.043   0.317  0.5352  0.2690  2.2876
  609SOL    HW2 1827   2.163   0.038   0.330 -0.4855  0.5787 -0.1921
  610SOL     OW 1828   0.754   2.542   1.232  0.3469  0.9470 -0.4027
  610SOL    HW1 1829   0.801   2.574   1.149 -1.2132 -1.0157  3.2595
  610SOL    HW2 1830   0.708   2.615   1.279 -0.4515 -0.0352 -2.2357
  611SOL     OW 1831   0.945   1.572   0.800  0.1058 -0.1984  0.1542
  611SOL    HW1 1832   0.872   1.618   0.749  0.2137 -0.3696 -0.5148
  611SOL    HW2 1833   0.934   1.591   0.902 -0.7690  0.4243  1.4190
  612SOL     OW 1834   0.660   0.196   2.251  0.3124  0.2151  0.1072
  612SOL    HW1 1835   0.622   0.245   2.165 -0.3459  0.4372 -1.2153
  612SOL    HW2 1836   0.759   0.179   2.249  0.8726 -1.0518  1.0914
  613SOL     OW 1837   2.676   1.650   0.427  0.2140 -0.3960  0.1180
  613SOL    HW1 1838   2.581   1.625   0.396 -1.2271  0.3730 -0.5346
  613SOL    HW2 1839   2.726   1.573   0.471 -2.2032 -0.8960  0.2487
  614SOL     OW 1840   1.818   0.478   1.643 -0.1461 -0.0605 -0.4874
  614SOL    HW1 1841   1.783   0.512   1.732 -2.7707  0.2585 -0.8835
  614SOL    HW2 1842   1.764   0.506   1.565 -1.5221  1.0893  0.6627
  615SOL     OW 1843   0.967   1.728   1.233 -0.0739 -0.1818  0.3846
  615SOL    HW1 1844   1.041   1.733   1.306  1.8982 -1.3544  0.0170
  615SOL    HW2 1845   0.926   1.820   1.204 -2.7387 -0.0187 -1.5875
  616SOL     OW 1846   1.487   1.592   2.724 -0.0379  0.0833 -0.4675
  616SOL    HW1 1847   1.556   1.516   2.702 -0.4997  0.4444  0.1213
  616SOL    HW2 1848   1.545   1.666   2.763 -1.4821 -1.9624  0.5018
  617SOL     OW 1849   1.533   2.492   0.466  0.1983  0.2298  0.7430
  617SOL    HW1 1850   1.489   2.553   0.396 -1.1830  0.3046 -1.9027
  617SOL    HW2 1851   1.562   2.404   0.423 -0.5174 -1.4419  0.7108
  618SOL     OW 1852   0.982   0.902   2.546  0.2832  0.4249 -0.1050
  618SOL    HW1 1853   1.028   0.953   2.620  0.6378  0.4707 -1.7433
  618SOL    HW2 1854   0.967   0.963   2.466 -1.1587 -0.4277  0.7520
  619SOL     OW 1855   2.787   1.436   0.546  0.3538 -0.1498  0.1402
  619SOL    HW1 1856   2.862   1.371   0.516  0.0336 -1.6428 -1.4763
  619SOL    HW2 1857   2.712   1.380   0.583 -1.2751 -1.3428  1.3425
  620SOL     OW 1858   2.213   2.820   0.038  0.3863  0.0359  0.0409
  620SOL    HW1 1859   2.298   2.801   0.087 -0.0039 -0.6272 -3.0139
  620SOL    HW2 1860   2.134   2.766   0.072  3.0817  1.0455 -1.1896
  621SOL     OW 1861   2.271   1.310   0.146  0.1286 -0.9989 -0.4351
  621SOL    HW1 1862   2.276   1.260   0.232  4.2483 -0.0538 -2.0101
  621SOL    HW2 1863   2.179   1.317   0.101 -1.0479  1.4704  0.4630
  622SOL     OW 1864   1.330   2.468   2.473 -0.4552  0.3247 -0.2403
  622SOL    HW1 1865   1.330   2.394   2.409  0.7300  0.6200 -3.6256
  622SOL    HW2 1866   1.421   2.494   2.505 -1.9977 -0.1939 -3.3664
  623SOL     OW 1867   0.752   1.546   0.326 -0.3329 -0.3924 -0.2688
  623SOL    HW1 1868   0.814   1.574   0.252 -0.7540 -2.6884 -0.9256
  623SOL    HW2 1869   0.659   1.571   0.303 -0.7996 -0.6208  0.7834
  624SOL     OW 1870   0.502   0.072   2.761 -0.0996 -0.1875 -0.1181
  624SOL    HW1 1871   0.528   0.113   2.850  1.8124 -0.5288  0.0693
  624SOL    HW2 1872   0.527   3.065   2.759 -1.2104 -1.8508  2.4279
  625SOL     OW 1873   0.964   1.889   0.516  0.4833 -0.3549  0.1011
  625SOL    HW1 1874   0.905   1.957   0.471 -0.1319 -2.3032  1.1028
  625SOL    HW2 1875   1.059   1.883   0.481 -2.2548 -0.8625 -1.4244
  626SOL     OW 1876   2.420   0.093   2.994 -0.4508  0.2105  0.2082
  626SOL    HW1 1877   2.320   0.099   3.022 -3.4028 -0.7085 -1.5793
  626SOL    HW2 1878   2.460   0.182   2.963  0.5534  2.6387  0.8235
  627SOL     OW 1879   1.445   1.278   2.480 -0.2097  0.0958  0.3028
  627SOL    HW1 1880   1.486   1.186   2.459 -2.0782 -1.2554  0.5374
  627SOL    HW2 1881   1.512   1.338   2.533  1.8113 -1.1143 -0.0367
  628SOL     OW 1882   0.974   0.437   2.220 -0.0313 -0.4751  0.0131
  628SOL    HW1 1883   1.040   0.499   2.176 -0.5643 -1.4658 -0.9440
  628SOL    HW2 1884   0.879   0.463   2.202 -1.2006  0.2282  0.8906
  629SOL     OW 1885   0.268   3.085   1.934  0.3088 -0.3122  0.3213
  629SOL    HW1 1886   0.308   2.992   1.964  2.2474 -2.3367  0.3530
  629SOL    HW2 1887   0.348   0.053   1.916 -1.0821 -0.1143 -0.4015
  630SOL     OW 1888   2.261   0.579   1.784 -0.2440 -0.1585 -0.3662
  630SOL    HW1 1889   2.247   0.624   1.692  0.3006 -2.1938  1.5121
  630SOL    HW2 1890   2.223   0.641   1.856 -1.9802  0.3709  2.9969
  631SOL     OW 1891   2.200   1.179   0.373 -0.4357  0.5278  0.5130
  631SOL    HW1 1892   2.235   1.210   0.464 -0.7853 -2.4002  0.7052
  631SOL    HW2 1893   2.096   1.166   0.370 -0.3321 -1.0398  0.5163
  632SOL     OW 1894   2.093   0.355   1.978 -0.3603  0.0093 -0.5363
  632SOL    HW1 1895   2.153   0.307   1.909 -1.1787 -1.1799 -3.8001
  632SOL    HW2 1896   2.026   0.286   2.012  0.8219 -1.3122 -0.2194
  633SOL     OW 1897   0.697   2.836   0.454  0.0220  0.1889 -0.2735
  633SOL    HW1 1898   0.658   2.746   0.476 -1.3634 -1.3844 -2.3313
  633SOL    HW2 1899   0.645   2.889   0.384 -3.3224 -0.4468 -1.8537
  634SOL     OW 1900   1.354   2.907   2.795 -0.1134 -0.0709  0.1669
  634SOL    HW1 1901   1.445   2.946   2.797 -2.4178  0.8932  0.3166
  634SOL    HW2 1902   1.339   2.837   2.864 -2.1161 -0.1923 -1.9962
  635SOL     OW 1903   2.397   0.593   3.085 -0.0696 -0.1576  0.4686
  635SOL    HW1 1904   2.466   0.565   0.058  1.5457 -0.6621 -0.0846
  635SOL    HW2 1905   2.311   0.617   0.036  1.0877  0.8359  1.2417
  636SOL     OW 1906   0.866   1.527   1.091  0.0502 -0.5534 -0.4318
  636SOL    HW1 1907   0.885   1.590   1.168  2.0560  1.1653 -0.8573
  636SOL    HW2 1908   0.896   1.430   1.098 -0.1189 -1.4258 -1.9124
  637SOL     OW 1909   3.092   2.811   0.494  0.2220 -0.1938  0.1800
  637SOL    HW1 1910   0.041   2.716   0.491 -0.9129 -0.4276  1.1568
  637SOL    HW2 1911   2.999   2.811   0.452  1.6214  2.6360  1.4182
  638SOL     OW 1912   0.196   2.892   0.331  0.2896  0.2041 -0.0999
  638SOL    HW1 1913   0.115   2.850   0.380 -2.4383 -1.4455  2.4725
  638SOL    HW2 1914   0.261   2.924   0.403 -1.4096 -0.6608  2.1677
  639SOL     OW 1915   1.078   1.254   0.332  0.8569  0.1829 -0.1730
  639SOL    HW1 1916   1.100   1.211   0.240  1.9218  1.5406 -0.3619
  639SOL    HW2 1917   1.097   1.353   0.328 -2.2730 -1.3849 -0.3240
  640SOL     OW 1918   1.205   2.577   0.918 -0.7688 -0.6902 -0.0857
  640SOL    HW1 1919   1.285   2.609   0.967 -1.8132  3.8062  2.2820
  640SOL    HW2 1920   1.221   2.549   0.821 -0.5992 -1.1940  1.4875
  641SOL     OW 1921   0.136   2.578   0.535  0.8517  0.1478 -0.1818
  641SOL    HW1 1922   0.070   2.518   0.582 -1.5206 -1.5957 -0.8262
  641SOL    HW2 1923   0.201   2.522   0.481  0.6141 -0.1639  0.8006
  642SOL     OW 1924   0.992   3.078   1.727 -0.1299  0.2071  0.5881
  642SOL    HW1 1925   1.090   0.004   1.723 -2.0028 -0.2486 -1.6047
  642SOL    HW2 1926   0.966   2.983   1.715 -0.1684  2.2353  2.2099
  643SOL     OW 1927   0.765   2.063   2.202 -0.3407  0.5352  0.4838
  643SOL    HW1 1928   0.722   2.106   2.121 -0.3512 -1.4796 -0.4540
  643SOL    HW2 1929   0.689   2.030   2.270 -1.4184  3.2395  0.7064
  644SOL     OW 1930   0.850   3.029   0.621  0.3365  0.3748  0.1888
  644SOL    HW1 1931   0.824   2.955   0.553  3.1558  1.9267 -2.0833
  644SOL    HW2 1932   0.787   0.011   0.604 -3.1237  0.2926  1.2276
  645SOL     OW 1933   1.133   1.512   2.302 -0.7213 -0.3082  0.5942
  645SOL    HW1 1934   1.040   1.507   2.349  1.7207 -0.2362 -1.1837
  645SOL    HW2 1935   1.167   1.607   2.306 -0.3060  0.1014 -1.2394
  646SOL     OW 1936   0.696   1.066   0.314 -0.3790  0.0518 -0.2493
  646SOL    HW1 1937   0.595   1.067   0.337  1.3557 -0.4680  1.6755
  646SOL    HW2 1938   0.742   1.145   0.356  1.2546  2.1099  0.4604
  647SOL     OW 1939   1.152   0.268   1.019 -0.5268 -0.3083  0.0771
  647SOL    HW1 1940   1.123   0.352   0.969 -0.6033 -1.2461  2.9888
  647SOL    HW2 1941   1.072   0.223   1.060 -2.1683 -0.5639  0.1897
  648SOL     OW 1942   2.702   2.899   1.484  0.3954 -0.2514  0.0198
  648SOL    HW1 1943   2.641   2.906   1.561  0.8487  0.0049 -0.6177
  648SOL    HW2 1944   2.778   2.966   1.495  1.6693  1.6297  0.4049
  649SOL     OW 1945   0.655   2.046   0.125 -0.1722 -0.0747  0.0513
  649SOL    HW1 1946   0.592   2.123   0.131  1.8507  0.9812  2.5723
  649SOL    HW2 1947   0.652   1.992   0.213  1.6599  0.9591 -1.1649
  650SOL     OW 1948   0.226   1.947   1.579  0.0202  0.2041  0.2563
  650SOL    HW1 1949   0.181   1.960   1.669 -1.2859 -3.3001 -0.7724
  650SOL    HW2 1950   0.183   2.006   1.507  2.1943  0.3604  0.4874
  651SOL     OW 1951   0.027   2.929   2.989 -0.0938  0.2285 -0.2621
  651SOL    HW1 1952   0.052   2.951   3.087 -1.7456 -1.2659  0.6588
  651SOL    HW2 1953   0.044   2.998   2.919 -1.9953 -0.1666  0.8986
  652SOL     OW 1954   2.605   1.882   0.165  0.2486 -0.3578  0.0025
  652SOL    HW1 1955   2.624   1.962   0.105 -1.0145 -0.5826 -1.2246
  652SOL    HW2 1956   2.622   1.902   0.262 -0.4910  2.2421 -3.9740
  653SOL     OW 1957   0.219   0.372   1.166 -0.6302 -0.7079 -0.1683
  653SOL    HW1 1958   0.286   0.376   1.088 -0.1038  1.1704  0.1418
  653SOL    HW2 1959   0.271   0.353   1.252 -2.3380 -2.7317  0.5407
  654SOL     OW 1960   1.657   2.958   2.814  0.3078  0.3611 -0.3524
  654SOL    HW1 1961   1.670   3.015   2.731 -0.6194 -0.7304  1.9334
  654SOL    HW2 1962   1.726   2.983   2.887  0.2453 -0.8093 -1.6793
  655SOL     OW 1963   0.976   2.626   1.049 -0.1035  0.4221  0.0250
  655SOL    HW1 1964   0.934   2.711   1.005 -2.0172  1.5786 -3.1042
  655SOL    HW2 1965   1.054   2.598   0.994 -3.0721  4.2841  0.6770
  656SOL     OW 1966   0.357   2.855   2.053 -0.1448 -0.3375 -0.4031
  656SOL    HW1 1967   0.380   2.832   2.155  0.2196 -0.8122  1.4623
  656SOL    HW2 1968   0.259   2.835   2.041  0.9054  0.6456 -0.0524
  657SOL     OW 1969   2.198   0.737   2.008  0.4197 -0.1402 -0.3197
  657SOL    HW1 1970   2.285   0.760   2.061  1.0135  1.8889  0.4967
  657SOL    HW2 1971   2.133   0.688   2.065  2.8369 -0.2044  1.6710
  658SOL     OW 1972   2.211   1.878   1.155 -0.0639  0.0260 -0.4323
  658SOL    HW1 1973   2.239   1.831   1.242  1.2262 -1.4534  0.3919
  658SOL    HW2 1974   2.271   1.848   1.080  0.4409  0.7895  0.5179
  659SOL     OW 1975   2.455   2.752   0.136  0.5264 -0.0091 -0.5026
  659SOL    HW1 1976   2.499   2.836   0.101 -2.3676  0.4594  0.8594
  659SOL    HW2 1977   2.484   2.734   0.231 -0.2783  0.7579  1.2181
  660SOL     OW 1978   1.025   1.032   2.784  0.0994  0.1253  0.1957
  660SOL    HW1 1979   1.011   1.124   2.822  0.3193 -0.6646 -2.5285
  660SOL    HW2 1980   1.026   0.962   2.861 -1.2397 -0.9683  0.7366
  661SOL     OW 1981   2.514   2.546   0.852 -0.1476  0.2570 -0.1276
  661SOL    HW1 1982   2.454   2.597   0.911  2.9975 -2.0420 -2.0543
  661SOL    HW2 1983   2.462   2.473   0.798 -2.7555 -1.2250 -1.4788
  662SOL     OW 1984   0.509   0.602   0.225 -1.0262 -0.3382  0.0226
  662SOL    HW1 1985   0.540   0.504   0.202 -0.2008 -2.8418 -0.7603
  662SOL    HW2 1986   0.411   0.625   0.214  0.0220 -2.0100 -1.6273
  663SOL     OW 1987   1.024   2.234   2.810  0.1145 -1.1080 -0.0523
  663SOL    HW1 1988   1.110   2.199   2.775  0.9101  0.0551  0.0207
  663SOL    HW2 1989   1.012   2.337   2.805 -0.7868  0.2042  2.1846
  664SOL     OW 1990   0.725   2.750   1.436  0.7056  0.0055  0.2221
  664SOL    HW1 1991   0.736   2.823   1.505  1.2723  1.2518 -3.8964
  664SOL    HW2 1992   0.778   2.670   1.471  0.7845  1.1972  0.2110
  665SOL     OW 1993   1.894   1.614   1.884  0.2764  0.7309 -0.1276
  665SOL    HW1 1994   1.874   1.512   1.875  0.9790  0.6842 -1.5986
  665SOL    HW2 1995   1.936   1.628   1.976  2.3152 -0.9337  0.0575
  666SOL     OW 1996   0.451   2.497   0.199 -0.0589 -0.3212  0.2669
  666SOL    HW1 1997   0.505   2.468   0.114 -2.2736  0.3907  0.2527
  666SOL    HW2 1998   0.437   2.596   0.189  1.5471  0.8030 -0.7547
  667SOL     OW 1999   2.100   1.441   1.524 -0.2509 -0.2511  0.7401
  667SOL    HW1 2000   2.012   1.395   1.500  0.4724  1.9887 -1.2507
  667SOL    HW2 2001   2.074   1.521   1.577  1.1742 -2.4297  0.2775
  668SOL     OW 2002   0.223   0.090   2.180  0.0547 -0.0120 -0.2937
  668SOL    HW1 2003   0.230   0.062   2.087  0.2655  0.2406  2.4460
  668SOL    HW2 2004   0.130   0.079   2.215  1.4372  0.2308 -2.7776
  669SOL     OW 2005   1.722   2.154   2.232  0.1851 -0.6560  0.2992
  669SOL    HW1 2006   1.800   2.132   2.292 -1.6937  0.0781 -2.2146
  669SOL    HW2 2007   1.759   2.160   2.132  2.5936  0.2452 -3.6155
  670SOL     OW 2008   2.343   2.112   0.362  0.7414  0.0698  0.2626
  670SOL    HW1 2009   2.435   2.084   0.395 -3.6294  0.1891 -0.3233
  670SOL    HW2 2010   2.266   2.075   0.424  0.8760  1.0624 -0.8718
  671SOL     OW 2011   0.461   1.321   1.449 -0.3853 -0.2962 -0.4155
  671SOL    HW1 2012   0.438   1.344   1.547  1.5523 -0.1006  2.9554
  671SOL    HW2 2013   0.385   1.353   1.392  0.1352 -0.0762  3.4751
  672SOL     OW 2014   2.584   1.362   2.211 -0.2532 -0.2335 -0.3761
  672SOL    HW1 2015   2.535   1.356   2.299 -0.1296  0.2212  0.9334
  672SOL    HW2 2016   2.652   1.439   2.217  0.0665  2.1458  1.1900
  673SOL     OW 2017   2.915   1.877   2.342  0.2388  0.4859 -0.0885
  673SOL    HW1 2018   2.816   1.904   2.333 -2.4804  0.3779  0.4869
  673SOL    HW2 2019   2.961   1.927   2.416 -1.6433 -1.2183 -0.8769
  674SOL     OW 2020   1.004   2.648   2.198 -0.2041 -0.1607 -0.0221
  674SOL    HW1 2021   1.074   2.670   2.268  0.0220  2.4032  0.8464
  674SOL    HW2 2022   0.911   2.674   2.221  3.1113  2.1994 -2.7918
  675SOL     OW 2023   0.801   0.761   1.540  0.0387  0.4666  0.4253
  675SOL    HW1 2024   0.869   0.713   1.598 -3.4011  1.8901  1.5950
  675SOL    HW2 2025   0.743   0.825   1.589  2.8202 -0.1821  0.6075
  676SOL     OW 2026   1.783   0.920   0.326  0.8358 -0.2066 -0.0548
  676SOL    HW1 2027   1.795   0.821   0.312 -0.1878 -1.1836 -1.6824
  676SOL    HW2 2028   1.841   0.972   0.258 -1.2475  1.1485  0.2717
  677SOL     OW 2029   3.029   1.591   2.689 -0.0039 -0.2123  0.4367
  677SOL    HW1 2030   2.960   1.533   2.735  0.0130 -2.0783 -0.8332
  677SOL    HW2 2031   0.025   1.575   2.741  0.5096 -0.9278 -1.8628
  678SOL     OW 2032   2.920   3.004   1.230  0.6208 -0.0948 -0.3097
  678SOL    HW1 2033   2.964   3.031   1.319 -1.3099  0.0192  2.0756
  678SOL    HW2 2034   2.947   2.906   1.212 -0.0238  0.7833 -1.9523
  679SOL     OW 2035   1.924   2.995   0.671 -0.2150  0.2646 -0.4066
  679SOL    HW1 2036   1.908   3.082   0.718  1.8515 -1.9961  0.0252
  679SOL    HW2 2037   1.983   2.929   0.723 -0.1793  2.2138 -0.8835
  680SOL     OW 2038   0.316   2.192   2.229  0.4736  0.3165 -0.0691
  680SOL    HW1 2039   0.346   2.134   2.152  4.5181  0.7000 -2.8178
  680SOL    HW2 2040   0.341   2.289   2.208  1.5129  0.9037  0.3666
  681SOL     OW 2041   0.269   1.407   1.304  0.0631  0.2712 -0.2489
  681SOL    HW1 2042   0.243   1.419   1.209  1.2941  0.9380  0.8450
  681SOL    HW2 2043   0.255   1.496   1.346  1.2566 -0.8778 -0.1489
  682SOL     OW 2044   0.249   2.231   1.675 -0.0317 -0.2093  0.4164
  682SOL    HW1 2045   0.217   2.155   1.738  3.5341 -0.4031  2.6350
  682SOL    HW2 2046   0.222   2.324   1.701 -1.4946 -0.3678 -1.4351
  683SOL     OW 2047   3.004   1.858   1.591 -0.2719  0.5527 -0.2931
  683SOL    HW1 2048   2.981   1.954   1.615 -0.9466  2.2084 -2.1997
  683SOL    HW2 2049   3.086   1.826   1.648  1.1929 -0.5413  2.0530
  684SOL     OW 2050   2.398   1.731   0.148 -0.3218  0.2086  0.2589
  684SOL    HW1 2051   2.474   1.796   0.163  1.0911 -1.9196 -0.9574
  684SOL    HW2 2052   2.400   1.671   0.229  0.3908  1.3575 -1.9642
  685SOL     OW 2053   1.343   0.756   0.316 -0.4351  0.2197  0.4757
  685SOL    HW1 2054   1.402   0.842   0.318  0.0769 -0.0750  0.1157
  685SOL    HW2 2055   1.247   0.775   0.302 -0.2689 -0.6698 -0.8892
  686SOL     OW 2056   0.285   0.105   0.936  0.0784 -0.7959 -0.5381
  686SOL    HW1 2057   0.383   0.075   0.934 -1.8765  1.8666  0.1836
  686SOL    HW2 2058   0.230   0.081   1.016 -2.9120 -1.0260 -3.8380
  687SOL     OW 2059   0.902   1.249   2.580  0.8946  0.2934 -0.1149
  687SOL    HW1 2060   0.954   1.171   2.549 -1.4935  3.8212 -0.1346
  687SOL    HW2 2061   0.931   1.287   2.675 -2.4576  0.9456  1.7710
  688SOL     OW 2062   1.064   1.714   1.694 -0.2179  0.2588 -0.3535
  688SOL    HW1 2063   1.015   1.623   1.673  3.3437 -0.7994 -1.9644
  688SOL    HW2 2064   1.036   1.743   1.790 -1.4900  1.4090  0.2677
  689SOL     OW 2065   2.320   0.335   1.235 -0.0754  0.2911  0.2420
  689SOL    HW1 2066   2.374   0.283   1.163  1.0827 -1.6072 -0.3214
  689SOL    HW2 2067   2.234   0.364   1.193 -1.8417  0.7529  2.0534
  690SOL     OW 2068   2.971   1.402   0.897 -0.2765 -0.5371 -0.4647
  690SOL    HW1 2069   2.979   1.452   0.988  0.6739 -1.1503 -1.3457
  690SOL    HW2 2070   3.064   1.397   0.859 -1.3985  0.4116 -1.0792
  691SOL     OW 2071   0.165   2.413   1.287  0.3190 -0.0509 -0.3626
  691SOL    HW1 2072   0.245   2.373   1.335  4.1651  1.5458  1.9263
  691SOL    HW2 2073   0.077   2.366   1.307  0.9762 -0.1974 -0.6173
  692SOL     OW 2074   2.274   2.922   1.099 -0.2401 -0.4164  0.2038
  692SOL    HW1 2075   2.347   2.994   1.082  0.5168 -0.4259 -1.3718
  692SOL    HW2 2076   2.192   2.958   1.140  3.8918 -3.2385  1.2072
  693SOL     OW 2077   0.300   1.742   2.259 -0.1645  0.1979  0.3919
  693SOL    HW1 2078   0.399   1.749   2.237  1.6474  1.2762 -0.4174
  693SOL    HW2 2079   0.274   1.643   2.267  2.6596  0.8709 -1.1491
  694SOL     OW 2080   1.778   0.920   1.431 -0.8510 -0.1102 -0.0305
  694SOL    HW1 2081   1.851   0.970   1.386 -2.0279  0.6915  1.1107
  694SOL    HW2 2082   1.686   0.942   1.396  1.1925  0.4317  0.1691
  695SOL     OW 2083   0.967   0.947   1.332  0.2467 -0.4160 -0.2312
  695SOL    HW1 2084   0.962   0.879   1.406  0.9755 -0.4925  0.3048
  695SOL    HW2 2085   1.061   0.970   1.301  0.4820 -0.4318 -1.6401
  696SOL     OW 2086   1.301   3.034   0.701  0.1726 -0.1277 -0.2219
  696SOL    HW1 2087   1.371   3.004   0.768 -0.3236  1.4219 -2.8335
  696SOL    HW2 2088   1.304   2.981   0.614 -1.3358  1.1449  0.7660
  697SOL     OW 2089   1.182   0.434   1.442 -0.0765  0.1322  0.5466
  697SOL    HW1 2090   1.257   0.426   1.509 -0.0700  0.9333 -0.2124
  697SOL    HW2 2091   1.182   0.528   1.403  0.9745  1.3002  0.5637
  698SOL     OW 2092   1.505   1.069   2.151  0.3970  0.4093  0.2345
  698SOL    HW1 2093   1.454   1.010   2.216  0.2792 -0.1345 -0.6443
  698SOL    HW2 2094   1.605   1.064   2.172 -0.0361  1.3705  0.6948
  699SOL     OW 2095   1.698   0.642   1.123  0.5953  0.0246  0.2388
  699SOL    HW1 2096   1.725   0.600   1.037  3.0096  2.5104  2.7829
  699SOL    HW2 2097   1.618   0.703   1.109  1.8190  0.1222  0.3683
  700SOL     OW 2098   0.884   2.373   0.194 -0.0184 -0.4222  0.1297
  700SOL    HW1 2099   0.894   2.449   0.261  1.3515  0.9659 -0.6685
  700SOL    HW2 2100   0.895   2.282   0.243  0.5671 -2.8067  0.3564
  701SOL     OW 2101   2.033   2.538   2.798  0.5012  0.2254 -0.3845
  701SOL    HW1 2102   1.973   2.456   2.808  1.4966  0.2396 -0.0732
  701SOL    HW2 2103   2.086   2.534   2.714  0.5729  1.1707  1.6522
  702SOL     OW 2104   0.846   0.449   0.788 -0.5227  0.1595 -0.1736
  702SOL    HW1 2105   0.946   0.472   0.815  2.3449  0.4037 -1.1658
  702SOL    HW2 2106   0.849   0.363   0.729 -1.6269 -1.3460 -0.8683
  703SOL     OW 2107   2.389   0.187   2.349  0.0487  0.4095 -0.3865
  703SOL    HW1 2108   2.359   0.245   2.425  0.7421 -3.7088 -1.9141
  703SOL    HW2 2109   2.435   0.248   2.277  2.0332 -0.7393 -1.0571
  704SOL     OW 2110   0.304   2.023   0.519  0.0494 -0.1073  0.2369
  704SOL    HW1 2111   0.320   1.925   0.504 -1.0050  0.9653 -2.8233
  704SOL    HW2 2112   0.356   2.067   0.595 -0.7650  0.8770  1.8678
  705SOL     OW 2113   2.722   2.658   2.389  0.1110 -0.0284  0.3424
  705SOL    HW1 2114   2.823   2.645   2.379  0.5512  2.8659  0.4078
  705SOL    HW2 2115   2.698   2.761   2.384  0.8302  1.5736 -0.5767
  706SOL     OW 2116   2.346   2.673   1.018  0.2049  0.5194  0.3568
  706SOL    HW1 2117   2.299   2.622   1.092  1.0524 -1.9892  2.7067
  706SOL    HW2 2118   2.319   2.770   1.015  0.7247 -1.6578 -0.0006
  707SOL     OW 2119   0.686   2.415   2.257 -0.0843 -0.2423  0.0972
  707SOL    HW1 2120   0.737   2.393   2.175  0.6598 -1.5525 -1.0747
  707SOL    HW2 2121   0.719   2.363   2.335 -0.2721  0.4246 -0.3106
  708SOL     OW 2122   0.054   2.294   2.248  0.4952  0.1538 -0.1237
  708SOL    HW1 2123   0.116   2.216   2.242 -2.1238  0.7215 -1.6702
  708SOL    HW2 2124   0.093   2.367   2.301  0.4069 -0.6098  0.2527
  709SOL     OW 2125   1.939   0.114   1.957  0.8741 -0.1057  0.3248
  709SOL    HW1 2126   1.909   0.141   1.865  0.9788  1.2051  1.0773
  709SOL    HW2 2127   1.862   0.131   2.023  1.6099  2.0818 -1.2211
  710SOL     OW 2128   1.569   0.553   2.611 -0.0978 -0.8260 -0.0008
  710SOL    HW1 2129   1.569   0.482   2.684  0.3598  0.2522 -3.2973
  710SOL    HW2 2130   1.670   0.577   2.581  0.9035 -1.7892 -0.3746
  711SOL     OW 2131   0.696   2.034   2.704 -0.1293 -0.1238  0.4876
  711SOL    HW1 2132   0.760   2.011   2.776 -2.2159 -0.9371 -0.5894
  711SOL    HW2 2133   0.677   1.942   2.655  1.4249 -1.3493 -1.5460
  712SOL     OW 2134   0.470   2.400   2.567  0.2638 -0.8456  0.0946
  712SOL    HW1 2135   0.475   2.409   2.670 -0.7771  1.3781  2.9875
  712SOL    HW2 2136   0.500   2.487   2.524 -2.4982  1.1822  3.0921
  713SOL     OW 2137   1.646   1.380   2.626 -0.6078  0.1892  0.3619
  713SOL    HW1 2138   1.680   1.306   2.686 -0.8647 -1.5916  0.2732
  713SOL    HW2 2139   1.728   1.418   2.581 -0.8999 -0.0276  0.8078
  714SOL     OW 2140   1.596   1.461   2.090 -0.2876 -0.2272 -0.3375
  714SOL    HW1 2141   1.583   1.448   1.991 -0.4630  1.0303 -0.1114
  714SOL    HW2 2142   1.510   1.440   2.138 -1.2169 -0.6245 -1.2986
  715SOL     OW 2143   2.146   0.637   2.521  0.1548 -0.1244  0.4269
  715SOL    HW1 2144   2.104   0.549   2.542  0.1779 -3.0033  1.6373
  715SOL    HW2 2145   2.097   0.709   2.576  0.0399  1.8159  1.3224
  716SOL     OW 2146   2.880   2.106   1.637  0.6566 -0.4004 -0.1458
  716SOL    HW1 2147   2.870   2.087   1.737  1.7640  0.3025 -1.3665
  716SOL    HW2 2148   2.934   2.196   1.635  3.0303  1.5305 -0.1928
  717SOL     OW 2149   2.406   1.456   0.606  0.3989  0.4176 -0.2561
  717SOL    HW1 2150   2.475   1.495   0.670 -0.7457 -0.7872 -1.8038
  717SOL    HW2 2151   2.338   1.389   0.648 -0.0677 -0.0742  0.6200
  718SOL     OW 2152   1.017   2.008   2.128 -0.1364  0.5546  0.3047
  718SOL    HW1 2153   0.931   2.055   2.144  1.8245 -0.9762  0.1745
  718SOL    HW2 2154   1.062   1.955   2.206 -0.3290  0.6603 -1.6528
  719SOL     OW 2155   1.983   0.831   2.631 -0.5784  0.3552  0.8942
  719SOL    HW1 2156   1.901   0.822   2.569  1.8913  0.5094 -0.9679
  719SOL    HW2 2157   2.013   0.926   2.648  1.9775  0.2734  0.3460
  720SOL     OW 2158   0.636   0.379   0.983 -0.0542 -0.1019 -0.1621
  720SOL    HW1 2159   0.710   0.383   0.915  2.4638 -1.1065 -1.0283
  720SOL    HW2 2160   0.548   0.379   0.931  0.5508 -0.2031 -0.5482
  721SOL     OW 2161   2.934   0.883   0.417 -0.5190 -0.4954 -0.4310
  721SOL    HW1 2162   2.906   0.854   0.326  0.6137 -0.1477 -0.4138
  721SOL    HW2 2163   2.889   0.971   0.437  1.2569  0.8489  0.2817
  722SOL     OW 2164   2.964   0.427   2.631  0.6433 -0.5007 -0.5161
  722SOL    HW1 2165   2.946   0.360   2.709  1.9288 -2.5718 -2.2098
  722SOL    HW2 2166   3.048   0.475   2.652 -1.2720 -1.8984 -2.5130
  723SOL     OW 2167   1.551   0.100   0.431 -0.1685 -0.9405 -0.2530
  723SOL    HW1 2168   1.468   0.155   0.414 -0.3070  0.7151  1.7650
  723SOL    HW2 2169   1.524   0.005   0.449  2.7800  1.2705 -1.7681
  724SOL     OW 2170   0.570   1.724   2.185 -0.0655  0.3183 -0.4002
  724SOL    HW1 2171   0.579   1.761   2.091 -0.2085 -0.3788  0.8605
  724SOL    HW2 2172   0.588   1.799   2.252 -1.5134  2.0450  0.8159
  725SOL     OW 2173   1.499   2.892   0.860 -0.2100  0.0266  0.1951
  725SOL    HW1 2174   1.572   2.855   0.800 -0.9441  0.4513 -2.3958
  725SOL    HW2 2175   1.551   2.934   0.940  0.6375  0.8416 -0.6058
  726SOL     OW 2176   1.860   2.382   0.099  0.1169 -0.4183  0.0591
  726SOL    HW1 2177   1.948   2.403   0.048  1.4847 -0.5952 -2.5000
  726SOL    HW2 2178   1.866   2.429   0.190  0.5544  0.7264  1.1973
  727SOL     OW 2179   1.676   1.686   1.341 -0.4974 -0.5957 -0.1604
  727SOL    HW1 2180   1.678   1.659   1.441 -2.1012  0.5686 -0.5724
  727SOL    HW2 2181   1.746   1.765   1.317 -0.0576  1.0768  1.1259
  728SOL     OW 2182   2.148   2.763   1.631 -0.3466  0.5371  0.3082
  728SOL    HW1 2183   2.184   2.805   1.541  2.2406  0.1421 -0.7279
  728SOL    HW2 2184   2.148   2.663   1.625 -1.0000  1.2809 -1.7905
  729SOL     OW 2185   2.084   2.107   1.438 -0.0277  0.0995 -0.6894
  729SOL    HW1 2186   2.141   2.138   1.358  3.3153 -0.4621 -0.3194
  729SOL    HW2 2187   2.074   2.006   1.440  0.2464 -1.9044  3.3958
  730SOL     OW 2188   1.541   0.708   2.905 -0.8312  0.0339 -0.4211
  730SOL    HW1 2189   1.449   0.706   2.865 -0.6993 -1.2288  0.3835
  730SOL    HW2 2190   1.594   0.628   2.875 -0.8360 -1.5409  0.1240
  731SOL     OW 2191   0.359   0.356   0.925  0.3103  0.4737  0.2846
  731SOL    HW1 2192   0.289   0.399   0.861  0.7651  2.4911  0.4657
  731SOL    HW2 2193   0.329   0.264   0.952  0.7483  2.5562  2.2864
  732SOL     OW 2194   1.447   0.314   0.652  1.1035 -0.5892  0.0759
  732SOL    HW1 2195   1.349   0.304   0.683 -2.7664 -0.6147 -0.0594
  732SOL    HW2 2196   1.467   0.255   0.578  0.0298  1.8464  0.5428
  733SOL     OW 2197   0.522   1.751   1.444  0.1298  0.1055 -0.3922
  733SOL    HW1 2198   0.538   1.654   1.412 -0.8668 -0.8373  2.8722
  733SOL    HW2 2199   0.579   1.822   1.399 -1.2053 -1.0649 -0.6362
  734SOL     OW 2200   2.786   2.684   0.066  0.0300 -0.0951 -0.1457
  734SOL    HW1 2201   2.702   2.723   0.024  2.8543 -1.7184 -0.3529
  734SOL    HW2 2202   2.781   2.586   0.059 -0.7567  1.3766 -1.2162
  735SOL     OW 2203   1.278   3.041   1.267 -0.2264 -0.1390  0.2704
  735SOL    HW1 2204   1.244   0.039   1.296  1.2025 -1.1146  0.5489
  735SOL    HW2 2205   1.248   3.013   1.173 -1.1305 -0.7423  1.8885
  736SOL     OW 2206   1.920   2.139   0.369 -0.1657  0.0428 -0.4252
  736SOL    HW1 2207   2.005   2.117   0.321 -0.1331 -0.3038 -0.4094
  736SOL    HW2 2208   1.952   2.187   0.454 -0.6603  0.2612  0.0203
  737SOL     OW 2209   3.046   1.596   1.093  0.2331  0.1032  0.2702
  737SOL    HW1 2210   0.045   1.630   1.069  1.0102  0.8868 -1.1229
  737SOL    HW2 2211   3.040   1.600   1.196 -1.5442  0.0633  0.9136
  738SOL     OW 2212   1.989   2.211   2.368 -0.0124  0.0719  0.0382
  738SOL    HW1 2213   2.082   2.207   2.415  0.0433 -1.9997  0.7943
  738SOL    HW2 2214   1.977   2.293   2.304  1.5172  2.1671 -2.1047
  739SOL     OW 2215   1.111   1.875   2.571  0.5118  0.0950 -0.3605
  739SOL    HW1 2216   1.151   1.967   2.542  1.9507  0.8147 -2.0146
  739SOL    HW2 2217   1.077   1.876   2.666  0.4790 -1.6324  0.6624
  740SOL     OW 2218   1.250   2.922   1.017 -0.2738 -0.0781 -0.0825
  740SOL    HW1 2219   1.333   2.893   0.963  2.4669  1.7486 -0.0036
  740SOL    HW2 2220   1.168   2.920   0.958  1.6248 -2.1352 -0.3016
  741SOL     OW 2221   0.212   1.110   0.812  0.3105 -0.1052 -0.1832
  741SOL    HW1 2222   0.238   1.093   0.911  0.3101 -2.5647  0.8539
  741SOL    HW2 2223   0.148   1.038   0.787  2.6783  1.3959 -0.1171
  742SOL     OW 2224   0.725   1.479   2.242 -0.0725  0.0811  0.0711
  742SOL    HW1 2225   0.805   1.504   2.182 -1.3513  0.2775  1.3580
  742SOL    HW2 2226   0.664   1.561   2.264 -1.3893  1.4965  0.8982
  743SOL     OW 2227   1.184   0.882   2.124  0.3291  0.0650  0.3099
  743SOL    HW1 2228   1.150   0.943   2.195  1.4926 -0.1375  2.5867
  743SOL    HW2 2229   1.134   0.905   2.039  0.2427 -0.1488 -2.7289
  744SOL     OW 2230   1.954   0.233   1.669 -0.1931  0.2591  0.3496
  744SOL    HW1 2231   1.900   0.317   1.673 -1.1598  0.6508 -1.8888
  744SOL    HW2 2232   2.051   0.253   1.686  0.9536 -3.2737  0.9906
  745SOL     OW 2233   2.289   1.336   1.697  0.1448  0.6516  0.0066
  745SOL    HW1 2234   2.377   1.391   1.691  2.9740 -2.5736  1.3104
  745SOL    HW2 2235   2.217   1.374   1.635  0.6752  1.9507 -1.9795
  746SOL     OW 2236   1.927   1.167   0.421 -0.2123  0.5857  0.6622
  746SOL    HW1 2237   1.877   1.247   0.380 -0.2030  1.2053 -2.1587
  746SOL    HW2 2238   1.860   1.093   0.440  0.6293  0.3437  0.8930
  747SOL     OW 2239   2.599   1.530   0.782  0.5308 -0.0625  0.1810
  747SOL    HW1 2240   2.686   1.492   0.807  1.2266 -0.4816  1.0014
  747SOL    HW2 2241   2.609   1.634   0.775  0.7471  0.2221  0.3124
  748SOL     OW 2242   0.445   1.787   0.460  0.6269  0.0795 -0.2535
  748SOL    HW1 2243   0.410   1.782   0.363 -1.7768  1.4877  0.3438
  748SOL    HW2 2244   0.458   1.692   0.497  0.3512  2.5005 -0.9111
  749SOL     OW 2245   2.838   2.403   2.702 -0.6437  0.0344 -0.5150
  749SOL    HW1 2246   2.849   2.360   2.609 -0.5987  1.5130 -3.4173
  749SOL    HW2 2247   2.779   2.483   2.692  0.0204 -0.8702  1.5689
  750SOL     OW 2248   2.299   0.624   0.816  0.2257 -0.2397  0.2811
  750SOL    HW1 2249   2.206   0.654   0.837  1.4163  1.4521  1.2519
  750SOL    HW2 2250   2.364   0.640   0.891 -0.5997 -0.1597 -1.7247
  751SOL     OW 2251   2.528   3.005   0.055  0.0267  0.0856 -0.0732
  751SOL    HW1 2252   2.490   3.085   0.002 -2.0940 -2.7911  0.6468
  751SOL    HW2 2253   2.582   2.947   3.081  0.5376  0.8911 -2.4054
  752SOL     OW 2254   3.031   2.792   0.897  0.1386 -0.1019 -0.2555
  752SOL    HW1 2255   3.081   2.839   0.975 -1.0916 -0.4268 -0.3361
  752SOL    HW2 2256   3.002   2.702   0.931 -1.3855  1.0116  2.9031
  753SOL     OW 2257   1.735   1.111   2.282 -0.6309 -0.1795  0.1373
  753SOL    HW1 2258   1.768   1.209   2.281 -0.4037 -1.3118  0.6559
  753SOL    HW2 2259   1.697   1.086   2.376  0.6478  0.5354 -0.6709
  754SOL     OW 2260   1.985   2.033   1.742  0.4189 -0.0833 -0.6331
  754SOL    HW1 2261   1.921   1.972   1.692  0.3193  0.7270 -0.6229
  754SOL    HW2 2262   2.081   2.028   1.701  1.9653 -1.0632 -1.2922
  755SOL     OW 2263   2.672   0.830   0.876  0.8547 -0.1465  0.0501
  755SOL    HW1 2264   2.604   0.762   0.910 -0.3454  0.6406  1.5032
  755SOL    HW2 2265   2.721   0.869   0.956 -3.0989 -0.5016 -2.8121
  756SOL     OW 2266   0.635   1.210   2.971  0.4575  0.6532 -0.4135
  756SOL    HW1 2267   0.537   1.216   2.971  1.5271  0.2842  1.2283
  756SOL    HW2 2268   0.677   1.203   2.881  0.7777 -1.0210 -2.7155
  757SOL     OW 2269   1.598   2.391   1.074  0.3741  0.5770 -0.0681
  757SOL    HW1 2270   1.535   2.358   1.000 -1.8279  2.1515 -1.2240
  757SOL    HW2 2271   1.629   2.316   1.136  0.8714  0.2887  0.1537
  758SOL     OW 2272   0.944   2.610   1.554  0.4399 -0.0689  0.8429
  758SOL    HW1 2273   0.983   2.605   1.461 -1.1301  2.9413  1.0113
  758SOL    HW2 2274   0.997   2.674   1.611  0.6568  0.7619  0.7818
  759SOL     OW 2275   2.769   1.228   0.902 -0.8333  0.1774  0.9502
  759SOL    HW1 2276   2.705   1.248   0.976  0.4710 -2.3932  0.3010
  759SOL    HW2 2277   2.848   1.292   0.906  1.3703  1.4731 -0.0968
  760SOL     OW 2278   2.248   1.200   1.427  0.1443 -0.4652 -0.1458
  760SOL    HW1 2279   2.197   1.148   1.361  1.8052 -0.7083  4.4586
  760SOL    HW2 2280   2.213   1.291   1.430  2.7650 -1.9759 -0.4802
  761SOL     OW 2281   1.744   2.959   0.084 -0.4132 -0.4824 -0.3716
  761SOL    HW1 2282   1.741   3.004   0.174 -0.6495 -1.5067  1.7414
  761SOL    HW2 2283   1.811   2.994   0.016  0.1414 -0.2019  0.0382
  762SOL     OW 2284   1.932   1.350   2.807 -0.5293  0.0728  0.8466
  762SOL    HW1 2285   1.914   1.250   2.809  0.6681  0.2729  0.6005
  762SOL    HW2 2286   1.994   1.381   2.880 -0.7193 -0.2343  0.5100
  763SOL     OW 2287   0.475   2.089   1.724 -0.4826  0.5827 -0.3596
  763SOL    HW1 2288   0.466   1.992   1.706 -2.6530  1.2071  0.3903
  763SOL    HW2 2289   0.390   2.137   1.687 -0.8959  2.0324  0.3682
  764SOL     OW 2290   0.113   2.316   0.151  0.0698  0.1075 -0.4121
  764SOL    HW1 2291   0.018   2.333   0.176  2.8719 -0.4089 -0.1556
  764SOL    HW2 2292   0.135   2.376   0.069 -1.2205  1.7021 -3.1623
  765SOL     OW 2293   0.497   3.042   1.240  0.6312 -0.1224 -0.4560
  765SOL    HW1 2294   0.506   0.033   1.183 -2.2535  4.6661  0.8773
  765SOL    HW2 2295   0.571   2.974   1.216  0.6996  0.1274 -0.0891
  766SOL     OW 2296   2.729   2.130   2.235 -0.1876  0.2907  0.1753
  766SOL    HW1 2297   2.787   2.191   2.181  1.7413  0.7512 -2.9504
  766SOL    HW2 2298   2.697   2.052   2.177 -2.4492 -0.1511 -1.9107
  767SOL     OW 2299   2.781   0.913   2.116 -0.0854  0.6344  0.2294
  767SOL    HW1 2300   2.711   0.894   2.042 -2.1017 -1.9162 -0.8253
  767SOL    HW2 2301   2.873   0.903   2.076 -2.9877  1.1443 -0.6693
  768SOL     OW 2302   0.874   0.273   2.612 -0.2167  0.2883  0.0741
  768SOL    HW1 2303   0.796   0.213   2.586  0.1009  0.4672  0.9524
  768SOL    HW2 2304   0.942   0.224   2.672 -1.3205 -1.4104  2.1515
  769SOL     OW 2305   2.606   2.880   0.905 -0.2082  0.6632  0.0620
  769SOL    HW1 2306   2.675   2.846   0.841 -0.7982 -0.1318  1.9535
  769SOL    HW2 2307   2.635   2.843   0.990  0.5369  0.2434 -4.2537
  770SOL     OW 2308   0.308   2.891   2.745 -0.4335  0.1002  0.4956
  770SOL    HW1 2309   0.284   2.942   2.658  1.6490  0.8219 -1.5388
  770SOL    HW2 2310   0.233   2.831   2.774  0.4886 -1.1520  1.8828
  771SOL     OW 2311   1.732   2.121   1.952  0.5355 -0.0675 -0.3515
  771SOL    HW1 2312   1.766   2.188   1.888 -2.6156 -0.0208  4.1146
  771SOL    HW2 2313   1.761   2.025   1.926  0.8215 -0.0179 -0.8603
  772SOL     OW 2314   1.166   2.949   0.006  0.1104 -0.3438  0.0233
  772SOL    HW1 2315   1.076   2.932   3.060  2.5350  1.8361  2.8427
  772SOL    HW2 2316   1.226   2.870   3.083  2.8050 -0.9367 -1.0613
  773SOL     OW 2317   2.247   0.658   1.514 -0.2727  0.3517 -0.5824
  773SOL    HW1 2318   2.202   0.746   1.538 -1.0887  0.0105  1.5079
  773SOL    HW2 2319   2.180   0.593   1.472 -2.0640 -2.5434  0.8195
  774SOL     OW 2320   0.912   1.292   1.270  0.2614 -0.0367 -0.1771
  774SOL    HW1 2321   1.004   1.307   1.239 -1.0394  0.1516  2.8348
  774SOL    HW2 2322   0.884   1.205   1.220 -1.0122 -0.6077 -1.9297
  775SOL     OW 2323   1.888   2.708   2.963  0.1959 -0.7207 -0.7010
  775SOL    HW1 2324   1.895   2.716   3.066  3.5722  1.4695 -1.9727
  775SOL    HW2 2325   1.956   2.642   2.930 -0.8580  0.1429  1.6235
  776SOL     OW 2326   2.116   0.866   1.613  0.2942  0.1343  0.2614
  776SOL    HW1 2327   2.067   0.901   1.696  0.1946  0.4363 -1.7024
  776SOL    HW2 2328   2.173   0.936   1.567  0.4645  1.7427 -0.1472
  777SOL     OW 2329   0.341   1.135   2.185 -0.3889 -0.1186  0.3579
  777SOL    HW1 2330   0.293   1.133   2.274 -1.3937  2.8164  0.3158
  777SOL    HW2 2331   0.439   1.146   2.200 -0.4187 -0.0060  0.1226
  778SOL     OW 2332   0.260   0.578   0.018  0.3024  0.1373 -0.0149
  778SOL    HW1 2333   0.331   0.638   3.079 -1.1012 -0.0744  2.7922
  778SOL    HW2 2334   0.235   0.504   3.048  0.4216 -0.4886 -1.8207
  779SOL     OW 2335   0.642   0.123   2.546  0.6627 -0.9041 -0.3266
  779SOL    HW1 2336   0.587   0.130   2.459  0.2180 -0.1689 -1.5092
  779SOL    HW2 2337   0.581   0.095   2.627 -2.1175 -1.7754  0.7119
  780SOL     OW 2338   2.116   1.265   2.587 -0.8675  0.2852  0.4637
  780SOL    HW1 2339   2.055   1.208   2.645  0.4002 -1.1784  1.2455
  780SOL    HW2 2340   2.201   1.209   2.560 -1.1333  0.1213  2.1937
  781SOL     OW 2341   3.061   1.092   1.970  0.6148 -0.0691  0.2788
  781SOL    HW1 2342   2.986   1.134   1.913  1.3472  0.2400 -2.9759
  781SOL    HW2 2343   3.029   1.013   2.022  2.4322 -2.2389  0.7429
  782SOL     OW 2344   0.638   1.488   2.760  0.5831 -0.5801 -0.2827
  782SOL    HW1 2345   0.642   1.389   2.760 -1.4127  4.3034  0.3675
  782SOL    HW2 2346   0.596   1.523   2.673 -0.1967  0.7580  0.9218
  783SOL     OW 2347   0.986   2.198   1.213 -0.6710 -0.4990 -0.2489
  783SOL    HW1 2348   1.045   2.171   1.292 -1.1470 -1.1368  0.5672
  783SOL    HW2 2349   1.042   2.256   1.147  0.9255 -0.2925 -0.4822
  784SOL     OW 2350   1.716   0.500   2.852 -0.8674  0.3676 -0.3466
  784SOL    HW1 2351   1.806   0.542   2.833  2.6411  2.1419 -2.9353
  784SOL    HW2 2352   1.711   0.432   2.930 -0.1796 -1.8847 -0.0221
  785SOL     OW 2353   0.535   0.063   1.928 -0.0415  0.3030  0.0886
  785SOL    HW1 2354   0.580   3.083   1.985  0.2581 -1.9197 -1.1134
  785SOL    HW2 2355   0.601   0.103   1.866 -4.2143  1.8107  2.3668
  786SOL     OW 2356   0.610   1.987   0.377  0.6726  0.6093  0.0539
  786SOL    HW1 2357   0.576   1.898   0.415 -1.6571  0.1103 -1.1310
  786SOL    HW2 2358   0.569   2.072   0.411  0.7656 -0.7855 -1.2778
  787SOL     OW 2359   1.299   0.545   0.491 -0.1494  0.3039  0.3717
  787SOL    HW1 2360   1.311   0.614   0.417 -1.5403  0.0367  0.4157
  787SOL    HW2 2361   1.204   0.560   0.524  1.6692 -0.6003 -0.3573
  788SOL     OW 2362   2.765   1.622   1.101  0.1817  0.6427 -0.1069
  788SOL    HW1 2363   2.734   1.703   1.155 -1.8649  1.1934  2.0145
  788SOL    HW2 2364   2.867   1.626   1.093 -1.1990  1.6100  0.5900
  789SOL     OW 2365   2.731   1.113   2.293 -0.3896  0.2055 -0.7726
  789SOL    HW1 2366   2.748   1.043   2.221  0.6056 -1.5840  0.0250
  789SOL    HW2 2367   2.758   1.208   2.263  0.5154  0.4164  0.7266
  790SOL     OW 2368   0.600   0.341   0.183  0.1185  0.2469  0.0943
  790SOL    HW1 2369   0.609   0.309   0.281 -1.7236 -1.2634  0.2207
  790SOL    HW2 2370   0.688   0.345   0.134 -1.6451 -0.4458 -0.3902
  791SOL     OW 2371   2.821   0.452   2.979  0.1074 -0.1301  0.3945
  791SOL    HW1 2372   2.726   0.478   2.989  1.5755 -2.9542  1.2889
  791SOL    HW2 2373   2.862   0.415   3.065 -0.3756 -0.0056 -0.0779
  792SOL     OW 2374   1.319   0.399   2.408 -0.3116 -0.0229 -0.4888
  792SOL    HW1 2375   1.227   0.434   2.424  1.2436  0.0159  0.9449
  792SOL    HW2 2376   1.374   0.424   2.489  1.4080  1.4356  2.3825
  793SOL     OW 2377   2.883   0.439   0.898 -0.0684 -0.0456  0.0324
  793SOL    HW1 2378   2.896   0.379   0.817 -0.2983  0.0988 -0.9193
  793SOL    HW2 2379   2.943   0.407   0.974 -0.2717  1.0587 -0.4380
  794SOL     OW 2380   0.292   0.488   1.960  0.6439 -0.0150 -0.1108
  794SOL    HW1 2381   0.328   0.563   2.014  1.4587 -0.8899 -1.0510
  794SOL    HW2 2382   0.185   0.503   1.950 -4.7349  0.1964  1.3887
  795SOL     OW 2383   0.388   1.227   0.627 -0.3189 -0.3168  0.3645
  795SOL    HW1 2384   0.486   1.222   0.656 -1.0345  0.2435 -0.4102
  795SOL    HW2 2385   0.332   1.185   0.698 -2.2837 -1.1333 -1.2537
  796SOL     OW 2386   0.124   0.885   3.062 -0.3812  0.2790 -0.2195
  796SOL    HW1 2387   0.100   0.877   0.065 -0.2777 -1.4683 -4.5924
  796SOL    HW2 2388   0.193   0.813   3.048 -1.4432  2.3983  0.3249
  797SOL     OW 2389   1.875   2.562   2.488  0.2729  0.3187 -0.1584
  797SOL    HW1 2390   1.965   2.531   2.519  1.0543 -0.1620  0.7174
  797SOL    HW2 2391   1.879   2.661   2.499  2.3555 -4.3224 -0.9607
  798SOL     OW 2392   0.144   0.150   1.458 -0.4912 -0.3489 -0.2072
  798SOL    HW1 2393   0.223   0.210   1.445  3.5003 -1.0426 -0.4231
  798SOL    HW2 2394   0.134   0.132   1.558 -0.7001  1.6674  0.3012
  799SOL     OW 2395   2.522   0.581   1.816  0.0627 -0.4191  0.5600
  799SOL    HW1 2396   2.422   0.570   1.795 -0.2148 -0.1140  1.5925
  799SOL    HW2 2397   2.573   0.512   1.763  1.8382  1.5402  1.4232
  800SOL     OW 2398   0.127   1.650   0.686 -0.2193  0.1719  0.3189
  800SOL    HW1 2399   0.037   1.605   0.681  2.2141  1.3654  2.7063
  800SOL    HW2 2400   0.189   1.634   0.608  3.8870  2.2637 -1.0343
  801SOL     OW 2401   1.637   1.648   0.425  0.2221 -0.5465  0.3423
  801SOL    HW1 2402   1.579   1.625   0.505 -0.7331  3.6730 -0.6245
  801SOL    HW2 2403   1.696   1.732   0.443  2.5879 -1.7571  1.9141
  802SOL     OW 2404   1.350   1.085   2.815 -0.1421  0.2999  0.2810
  802SOL    HW1 2405   1.261   1.089   2.773  2.8475 -2.4924 -2.5060
  802SOL    HW2 2406   1.416   1.144   2.769 -0.8409  0.4831  0.9460
  803SOL     OW 2407   0.132   2.041   1.818 -0.3458 -0.0916  0.3990
  803SOL    HW1 2408   0.110   2.104   1.894  0.8008 -3.1147  0.9478
  803SOL    HW2 2409   0.115   1.944   1.839 -3.5275 -0.0803 -0.4132
  804SOL     OW 2410   1.451   2.231   0.857 -0.0876 -0.6355  0.2709
  804SOL    HW1 2411   1.531   2.177   0.818  0.8826  1.0658  0.7598
  804SOL    HW2 2412   1.374   2.181   0.900 -0.9400  0.6517  2.5657
  805SOL     OW 2413   2.460   2.180   2.650  0.0007  0.3380  0.0319
  805SOL    HW1 2414   2.500   2.219   2.735 -1.7656  0.6106 -0.9391
  805SOL    HW2 2415   2.510   2.098   2.618 -1.7823  0.5040  1.9788
  806SOL     OW 2416   2.890   0.257   0.694 -0.5022  0.0279  0.1572
  806SOL    HW1 2417   2.885   0.164   0.737 -0.2196 -1.0592 -0.4582
  806SOL    HW2 2418   2.958   0.259   0.623 -0.3175 -0.8633  3.0832
  807SOL     OW 2419   2.881   1.179   2.949  0.1550 -0.8662  0.0275
  807SOL    HW1 2420   2.923   1.216   3.038 -0.8267  2.5648  5.3500
  807SOL    HW2 2421   2.832   1.256   2.905 -0.6707  0.8975 -1.6695
  808SOL     OW 2422   0.796   1.912   0.914 -0.1813 -0.2588  0.2739
  808SOL    HW1 2423   0.762   1.942   0.821 -0.7778  0.0565  1.0550
  808SOL    HW2 2424   0.735   1.839   0.948  2.1277  0.0174 -0.2594
  809SOL     OW 2425   2.890   0.115   2.166 -0.8140  0.5761  0.4036
  809SOL    HW1 2426   2.794   0.077   2.150 -0.9348  1.2951  0.3624
  809SOL    HW2 2427   2.878   0.202   2.224 -0.9613  1.6635  0.7105
  810SOL     OW 2428   1.438   0.894   0.839 -0.2061 -0.0048 -0.0303
  810SOL    HW1 2429   1.539   0.920   0.818  1.9118  1.2279 -0.9908
  810SOL    HW2 2430   1.376   0.972   0.827 -1.5352 -0.2688  0.8817
  811SOL     OW 2431   1.750   2.906   1.847  0.3143 -0.4519  0.3531
  811SOL    HW1 2432   1.828   2.857   1.893  3.4558 -2.5234  0.4904
  811SOL    HW2 2433   1.704   2.972   1.907 -0.4294  1.5642 -1.2459
  812SOL     OW 2434   1.770   2.336   0.631 -0.2205 -0.0369  0.4701
  812SOL    HW1 2435   1.728   2.309   0.542  2.7296  0.4967 -0.4110
  812SOL    HW2 2436   1.710   2.403   0.683  0.4256 -2.2591 -2.0903
  813SOL     OW 2437   1.279   0.411   1.895  0.0714 -0.5510  0.0453
  813SOL    HW1 2438   1.177   0.403   1.902 -3.0000 -1.4777 -1.3687
  813SOL    HW2 2439   1.323   0.423   1.983  2.5560  0.2781 -0.0686
  814SOL     OW 2440   0.236   0.031   1.206 -0.7852 -0.0056 -0.0357
  814SOL    HW1 2441   0.324   3.076   1.233  0.0032 -2.3817  0.7869
  814SOL    HW2 2442   0.196   0.057   1.296 -0.3034  0.9925 -0.2836
  815SOL     OW 2443   0.196   0.083   0.668  0.5290  0.1045 -0.3193
  815SOL    HW1 2444   0.142   3.094   0.695  0.1793  1.2046 -0.1974
  815SOL    HW2 2445   0.245   0.121   0.751 -0.1849  0.1992  0.7168
  816SOL     OW 2446   2.606   1.875   2.180 -0.5452  0.0068 -0.3633
  816SOL    HW1 2447   2.636   1.867   2.280  0.0150 -0.8115  0.0638
  816SOL    HW2 2448   2.520   1.932   2.184  0.7838 -1.8278 -2.5271
  817SOL     OW 2449   1.204   0.192   0.737 -0.6751 -0.3273  0.6120
  817SOL    HW1 2450   1.178   0.212   0.833  2.0558 -1.7403  0.4671
  817SOL    HW2 2451   1.248   0.102   0.730 -0.2510 -0.4896 -0.1010
  818SOL     OW 2452   1.815   0.566   0.054 -0.0093 -0.1213 -0.8424
  818SOL    HW1 2453   1.824   0.465   0.035 -0.3056  3.9146  1.6560
  818SOL    HW2 2454   1.722   0.585   0.087 -2.2212 -1.4809 -3.6187
  819SOL     OW 2455   2.149   3.082   3.067  0.1634 -1.0015 -0.3503
  819SOL    HW1 2456   2.147   0.028   0.067  0.5676 -2.1117 -0.6049
  819SOL    HW2 2457   2.177   2.984   3.063  1.3834 -0.3543 -4.6298
  820SOL     OW 2458   1.686   1.167   2.757 -0.0562  0.2026 -0.0885
  820SOL    HW1 2459   1.641   1.217   2.834 -0.0834 -3.1254  0.3232
  820SOL    HW2 2460   1.713   1.074   2.793 -0.6620 -1.4009  0.1768
  821SOL     OW 2461   0.214   0.652   1.156 -0.3629 -0.3488 -0.1913
  821SOL    HW1 2462   0.215   0.552   1.165  3.5860 -0.3836 -1.1576
  821SOL    HW2 2463   0.236   0.694   1.067 -0.3523  1.1100  1.2293
  822SOL     OW 2464   1.217   2.698   2.394  0.0467 -0.2788  0.1127
  822SOL    HW1 2465   1.269   2.613   2.422  0.2489  0.6412 -2.2399
  822SOL    HW2 2466   1.178   2.744   2.472 -0.2564  3.1885 -1.8283
  823SOL     OW 2467   0.277   1.583   1.661  0.4708  0.1296 -0.2106
  823SOL    HW1 2468   0.276   1.598   1.561 -0.0355 -1.0953 -1.0706
  823SOL    HW2 2469   0.365   1.537   1.684  0.7628 -2.3362 -0.9794
  824SOL     OW 2470   1.687   2.725   2.160  0.1294  0.0300 -0.0200
  824SOL    HW1 2471   1.639   2.646   2.117 -0.7076  1.5746  0.7905
  824SOL    HW2 2472   1.621   2.774   2.220  1.2876 -0.5175  2.0447
  825SOL     OW 2473   1.507   1.013   0.329  0.1532  0.0770 -0.0532
  825SOL    HW1 2474   1.596   0.967   0.326 -5.0356  0.1004  0.9744
  825SOL    HW2 2475   1.514   1.112   0.306 -2.3500  0.0245 -0.7185
  826SOL     OW 2476   2.009   0.651   2.835  0.2883 -0.5254  0.0892
  826SOL    HW1 2477   2.003   0.723   2.761 -0.8159 -0.3552 -2.2274
  826SOL    HW2 2478   2.088   0.590   2.827 -5.8791 -1.0804 -2.9152
  827SOL     OW 2479   0.521   2.059   2.914  0.0027 -0.4852 -0.2303
  827SOL    HW1 2480   0.440   2.102   2.871  0.8272  0.6875  1.3049
  827SOL    HW2 2481   0.599   2.065   2.846  0.8776  0.3362 -0.8491
  828SOL     OW 2482   2.734   1.061   1.334 -0.5262 -0.7545  0.1306
  828SOL    HW1 2483   2.643   1.013   1.355 -1.0630  1.2645 -4.4483
  828SOL    HW2 2484   2.725   1.157   1.372 -2.7914  0.4032 -0.3348
  829SOL     OW 2485   0.657   1.683   0.985  0.6198 -0.4600  0.6975
  829SOL    HW1 2486   0.580   1.703   1.049  0.1740  1.5491 -0.5294
  829SOL    HW2 2487   0.732   1.624   1.019 -2.6620  1.2669  2.0349
  830SOL     OW 2488   0.993   1.257   1.539 -0.0114 -0.2397  0.2287
  830SOL    HW1 2489   1.074   1.199   1.558 -4.5553  1.7179 -0.0252
  830SOL    HW2 2490   0.963   1.246   1.443 -1.5824  2.0666 -0.1648
  831SOL     OW 2491   0.353   1.999   0.053 -0.0015 -0.4971  0.2302
  831SOL    HW1 2492   0.256   2.017   0.026 -1.3630  0.0132  0.9742
  831SOL    HW2 2493   0.422   2.029   3.079 -1.3709  1.7372  1.0249
  832SOL     OW 2494   0.597   0.203   2.987 -0.1567  0.3923 -0.5628
  832SOL    HW1 2495   0.542   0.184   3.075 -4.2626 -1.0013 -1.1044
  832SOL    HW2 2496   0.675   0.264   3.016  0.3616  0.7475 -0.7318
  833SOL     OW 2497   0.698   0.492   2.192 -0.6253  0.2592  0.2933
  833SOL    HW1 2498   0.688   0.594   2.171  0.4748  3.9164  0.7366
  833SOL    HW2 2499   0.631   0.438   2.142 -1.8762  0.7616  0.3676
  834SOL     OW 2500   0.146   0.483   0.782  0.2386 -0.3408  0.2986
  834SOL    HW1 2501   0.053   0.503   0.818  3.7452 -2.6102 -1.3693
  834SOL    HW2 2502   0.133   0.492   0.680 -1.3589 -2.4155  0.3921
  835SOL     OW 2503   2.979   0.094   1.055  0.0834  0.2621  0.3248
  835SOL    HW1 2504   2.971   0.192   1.085 -2.3272 -0.0795 -2.5373
  835SOL    HW2 2505   2.968   0.034   1.135 -1.3463 -0.0196 -2.8464
  836SOL     OW 2506   0.256   2.130   2.832  0.1438  0.4700 -0.2547
  836SOL    HW1 2507   0.201   2.179   2.761 -0.4091  0.6385 -1.4167
  836SOL    HW2 2508   0.200   2.125   2.918  2.6761  3.5481 -2.0865
  837SOL     OW 2509   1.684   1.781   2.785  0.2310  0.7672  0.2714
  837SOL    HW1 2510   1.763   1.788   2.720  0.7093  0.0441 -0.0366
  837SOL    HW2 2511   1.616   1.852   2.755  0.8607  0.5321 -0.2688
  838SOL     OW 2512   2.977   0.813   1.454 -0.3949 -0.0186  0.2581
  838SOL    HW1 2513   2.893   0.804   1.401 -1.9610 -0.6001  2.1908
  838SOL    HW2 2514   2.947   0.848   1.546  1.7035 -2.6538  1.3952
  839SOL     OW 2515   0.963   1.077   0.875 -0.8099  0.8296  0.3019
  839SOL    HW1 2516   0.945   1.033   0.963  1.2360  1.0429  0.8127
  839SOL    HW2 2517   0.901   1.048   0.804  1.5325  1.2510  1.0204
  840SOL     OW 2518   1.583   3.028   1.561  0.2829 -0.0930 -0.2304
  840SOL    HW1 2519   1.675   3.020   1.602 -0.7646 -0.1771 -0.4958
  840SOL    HW2 2520   1.581   2.992   1.466 -0.8396  2.4820 -0.7818
  841SOL     OW 2521   0.635   2.562   0.439  0.4805 -0.3922 -0.0063
  841SOL    HW1 2522   0.580   2.537   0.357 -0.6747 -1.2213 -2.7556
  841SOL    HW2 2523   0.586   2.538   0.522  0.9707  0.2090 -0.1370
  842SOL     OW 2524   0.525   0.707   0.910 -0.1966 -0.1739  0.4303
  842SOL    HW1 2525   0.589   0.689   0.982 -2.1001  0.2438 -2.2991
  842SOL    HW2 2526   0.574   0.713   0.819  1.2174  2.0557 -2.9109
  843SOL     OW 2527   0.959   1.271   1.945  0.2889  0.1114 -0.3451
  843SOL    HW1 2528   0.952   1.201   2.022  0.1234 -1.9906 -1.3887
  843SOL    HW2 2529   0.960   1.225   1.853 -1.2065 -2.5604  0.8480
  844SOL     OW 2530   1.109   1.965   3.079  0.2566 -0.7384 -0.1602
  844SOL    HW1 2531   1.137   1.869   3.065 -0.5705  0.2254  0.5308
  844SOL    HW2 2532   1.191   2.021   3.077  0.3266  0.6245  2.0723
  845SOL     OW 2533   2.278   2.268   2.436  0.5998 -0.9440 -1.2452
  845SOL    HW1 2534   2.353   2.263   2.367  1.0302 -1.0061 -2.7151
  845SOL    HW2 2535   2.303   2.222   2.522  0.2133  0.4352 -2.1035
  846SOL     OW 2536   1.968   2.071   2.695  0.5071  0.0872  0.4150
  846SOL    HW1 2537   1.928   2.144   2.759 -2.3695  3.7234  3.2488
  846SOL    HW2 2538   1.893   2.025   2.638 -4.0341 -0.1451 -1.6477
  847SOL     OW 2539   1.993   2.868   2.744 -0.4800 -0.1810 -0.1423
  847SOL    HW1 2540   2.088   2.837   2.735 -2.7255 -0.7418  1.6669
  847SOL    HW2 2541   1.948   2.831   2.828  1.9886 -1.1520 -1.6482
  848SOL     OW 2542   0.711   0.694   0.676 -0.2918  0.3237  0.2295
  848SOL    HW1 2543   0.757   0.615   0.721 -1.9203  0.3226 -0.0393
  848SOL    HW2 2544   0.778   0.758   0.631  2.0092 -2.3111  0.6860
  849SOL     OW 2545   0.915   0.042   1.393 -0.0008  0.8984  0.2253
  849SOL    HW1 2546   0.944   0.093   1.479  0.6632  1.5631 -0.6316
  849SOL    HW2 2547   0.811   0.036   1.390 -2.3868 -2.8335 -0.2515
  850SOL     OW 2548   0.534   1.564   0.140  0.0224 -0.0762 -0.4072
  850SOL    HW1 2549   0.452   1.619   0.166 -1.4650  2.6348 -1.8622
  850SOL    HW2 2550   0.574   1.621   0.060 -1.1774  0.6356 -3.9778
  851SOL     OW 2551   0.009   0.922   0.766  0.2213 -0.5679  0.1217
  851SOL    HW1 2552   3.005   0.954   0.752  0.7696  1.4724  0.5559
  851SOL    HW2 2553   0.020   0.846   0.830 -0.2160  3.9814  0.9472
  852SOL     OW 2554   1.847   2.268   1.752 -0.4887 -0.5179  0.3089
  852SOL    HW1 2555   1.907   2.189   1.754 -0.8428 -0.2588 -0.5499
  852SOL    HW2 2556   1.835   2.305   1.659  3.5236  3.1369  3.3280
  853SOL     OW 2557   0.360   1.772   0.175  0.2299  0.1393  0.4025
  853SOL    HW1 2558   0.261   1.753   0.172  2.8149 -0.9977 -1.1540
  853SOL    HW2 2559   0.378   1.865   0.136 -0.1238  0.3453  1.5701
  854SOL     OW 2560   1.719   1.189   1.656  0.2365 -0.4459 -0.3232
  854SOL    HW1 2561   1.796   1.216   1.596  0.4891 -0.5681 -0.8798
  854SOL    HW2 2562   1.721   1.090   1.681  0.8990  2.6261 -0.7715
  855SOL     OW 2563   0.822   2.630   2.939  0.5118 -0.3908  0.0607
  855SOL    HW1 2564   0.920   2.639   2.913 -0.6694  3.4987 -1.2190
  855SOL    HW2 2565   0.793   2.532   2.923 -1.4870  0.6300  1.4524
  856SOL     OW 2566   3.048   0.264   1.969 -0.0339 -0.1485 -0.0543
  856SOL    HW1 2567   3.021   0.256   1.873  0.2113 -0.7467  1.2009
  856SOL    HW2 2568   2.996   0.205   2.033 -1.0061  0.6817 -1.6379
  857SOL     OW 2569   0.660   0.904   1.908 -0.2113 -0.4668  1.1418
  857SOL    HW1 2570   0.564   0.933   1.934 -1.8208  0.7477  0.7332
  857SOL    HW2 2571   0.675   0.933   1.814 -1.0778 -1.1193  3.5653
  858SOL     OW 2572   0.565   1.279   2.330 -0.2498  0.5033  0.4222
  858SOL    HW1 2573   0.503   1.287   2.413  0.7026  1.1926  1.4961
  858SOL    HW2 2574   0.607   1.369   2.304 -2.5016 -1.8940  0.1253
  859SOL     OW 2575   2.538   0.237   0.393 -0.1062 -0.2295 -0.0020
  859SOL    HW1 2576   2.555   0.245   0.494 -1.9820  0.3827  3.6145
  859SOL    HW2 2577   2.553   0.141   0.355 -0.0191 -0.5188 -0.3864
  860SOL     OW 2578   1.651   2.668   2.792  0.6501  0.3981  0.0371
  860SOL    HW1 2579   1.623   2.764   2.795 -0.6570 -1.9909 -0.4503
  860SOL    HW2 2580   1.730   2.670   2.856 -2.8881 -0.9200 -0.4875
  861SOL     OW 2581   0.273   0.836   0.451  0.7533  0.5971  0.6048
  861SOL    HW1 2582   0.189   0.802   0.499 -0.4571 -0.3712  2.2746
  861SOL    HW2 2583   0.350   0.783   0.483 -0.5863  3.9929 -1.2468
  862SOL     OW 2584   1.787   0.255   2.148 -0.0813 -0.2773  0.1016
  862SOL    HW1 2585   1.880   0.227   2.189 -0.7698 -1.7730  3.0492
  862SOL    HW2 2586   1.713   0.196   2.184 -0.2536 -1.3469 -0.8069
  863SOL     OW 2587   2.697   2.086   1.152 -0.0756 -0.0610  0.0014
  863SOL    HW1 2588   2.595   2.067   1.143 -0.1109 -0.9924  0.2690
  863SOL    HW2 2589   2.706   2.181   1.190 -0.4129 -0.7230  3.0521
  864SOL     OW 2590   2.494   2.899   1.987  0.0013  1.1743 -0.1852
  864SOL    HW1 2591   2.394   2.887   1.975  1.2402  0.0453 -1.6987
  864SOL    HW2 2592   2.535   2.809   1.987 -0.1943 -0.3405 -0.1995
  865SOL     OW 2593   1.379   0.421   1.661 -0.5553 -0.5651 -0.0233
  865SOL    HW1 2594   1.400   0.326   1.634  0.3429  1.6847  2.4937
  865SOL    HW2 2595   1.336   0.429   1.754  2.0310 -1.4299 -2.4101
  866SOL     OW 2596   2.397   2.859   0.751  0.2643  0.0443  0.1536
  866SOL    HW1 2597   2.390   2.953   0.709  2.8724 -0.3302  0.9388
  866SOL    HW2 2598   2.481   2.856   0.812  0.4049  0.2041  1.1525
  867SOL     OW 2599   2.753   2.887   0.514  0.0420  0.5051  0.0645
  867SOL    HW1 2600   2.807   2.974   0.505 -0.6271  0.5249 -0.9155
  867SOL    HW2 2601   2.766   2.851   0.607 -0.4389  2.1825  1.0038
  868SOL     OW 2602   1.080   2.173   1.902  0.4024  0.0174 -0.0624
  868SOL    HW1 2603   1.061   2.106   1.981  1.5069  0.0569  1.7690
  868SOL    HW2 2604   1.079   2.269   1.931  2.2206 -1.7669 -2.3994
  869SOL     OW 2605   1.775   2.066   0.104  0.5448  0.3506  0.2631
  869SOL    HW1 2606   1.836   2.003   0.057  0.1363  0.7222  1.8138
  869SOL    HW2 2607   1.825   2.142   0.144  0.4627 -4.5274 -0.0831
  870SOL     OW 2608   2.482   2.451   0.391 -0.3973 -0.5584 -0.0134
  870SOL    HW1 2609   2.502   2.550   0.381  1.0693  2.2175 -0.4208
  870SOL    HW2 2610   2.492   2.405   0.302  0.0960  0.8480 -1.6833
  871SOL     OW 2611   0.021   1.113   1.623 -0.1457  0.2315 -1.3122
  871SOL    HW1 2612   0.049   1.114   1.524  2.4008  1.2686  1.5942
  871SOL    HW2 2613   0.045   1.209   1.664 -0.2842  0.8847  2.6639
  872SOL     OW 2614   0.936   1.513   2.499 -0.1775 -0.6596  0.3316
  872SOL    HW1 2615   0.901   1.574   2.575 -0.5742 -1.8718  1.0179
  872SOL    HW2 2616   0.905   1.415   2.507 -1.5681 -0.1686 -0.4967
  873SOL     OW 2617   0.733   2.931   1.636 -0.0965  0.1218  0.5955
  873SOL    HW1 2618   0.660   2.924   1.711 -1.2245 -0.5027  0.5423
  873SOL    HW2 2619   0.711   3.010   1.576 -0.3117 -2.4399 -0.3521
  874SOL     OW 2620   1.387   0.470   2.142 -0.7271  0.1963  0.0178
  874SOL    HW1 2621   1.368   0.441   2.240 -0.1559 -1.8463 -2.4631
  874SOL    HW2 2622   1.478   0.441   2.108  1.1371 -1.6829 -2.7713
  875SOL     OW 2623   2.571   2.756   1.186  0.1750 -0.0283 -0.7737
  875SOL    HW1 2624   2.593   2.730   1.280  0.0592  2.1844  0.3507
  875SOL    HW2 2625   2.471   2.774   1.161 -0.9424  0.3400 -0.4592
  876SOL     OW 2626   1.050   1.321   0.773  0.1548 -0.1483 -0.1740
  876SOL    HW1 2627   1.002   1.237   0.815  0.7672 -1.4796  1.1971
  876SOL    HW2 2628   1.007   1.410   0.795 -1.3112  1.8368  0.4685
  877SOL     OW 2629   3.031   0.380   1.104  0.3817 -0.1931 -0.2271
  877SOL    HW1 2630   2.998   0.451   1.169 -0.4552 -0.1144  0.4786
  877SOL    HW2 2631   0.042   0.365   1.114 -0.2323 -0.1193  2.2800
  878SOL     OW 2632   2.381   1.525   3.070 -0.2412  0.7132  1.0802
  878SOL    HW1 2633   2.384   1.614   0.020 -2.4652 -3.4409 -0.5030
  878SOL    HW2 2634   2.332   1.454   0.035 -1.7045 -0.4985  1.4745
  879SOL     OW 2635   2.646   1.818   1.309  0.3887  0.2407  0.7684
  879SOL    HW1 2636   2.669   1.871   1.395 -0.1134  0.5983  0.3871
  879SOL    HW2 2637   2.643   1.881   1.231  0.2939  0.5728 -2.0421
  880SOL     OW 2638   0.495   2.134   1.231 -0.0288  0.2860 -0.0434
  880SOL    HW1 2639   0.443   2.088   1.156  1.1165 -2.7792 -0.3101
  880SOL    HW2 2640   0.537   2.224   1.205 -1.6065 -2.8145  2.2695
  881SOL     OW 2641   1.328   1.341   0.633  0.2941  0.7466 -0.7568
  881SOL    HW1 2642   1.289   1.323   0.728 -0.0366  1.6195 -2.3297
  881SOL    HW2 2643   1.298   1.274   0.562 -0.1851 -0.9338  1.9324
  882SOL     OW 2644   2.776   1.163   2.577 -0.3732  0.1898  0.0978
  882SOL    HW1 2645   2.734   1.194   2.489  0.7276  0.3606 -0.7232
  882SOL    HW2 2646   2.826   1.076   2.565  2.1460  0.0971 -0.2844
  883SOL     OW 2647   1.390   0.387   1.108 -0.5014  0.1231  0.5120
  883SOL    HW1 2648   1.326   0.315   1.081 -0.6813  0.6218  0.4430
  883SOL    HW2 2649   1.466   0.398   1.041  1.0467 -1.6112 -3.0393
  884SOL     OW 2650   0.102   2.945   1.051 -0.1886 -0.0058  0.3148
  884SOL    HW1 2651   0.083   3.033   1.007  0.3997 -2.9277  1.0417
  884SOL    HW2 2652   0.148   2.975   1.135  2.0755 -0.9385 -1.9594
  885SOL     OW 2653   1.372   1.361   1.275  0.5030  0.0472 -0.6777
  885SOL    HW1 2654   1.421   1.274   1.256 -1.1962  0.5130  0.1087
  885SOL    HW2 2655   1.276   1.352   1.248  2.3316  0.4614 -0.1475
  886SOL     OW 2656   1.339   1.066   3.079  0.2730 -0.5256 -0.6096
  886SOL    HW1 2657   1.423   1.021   0.032  1.1454  1.9414  0.5205
  886SOL    HW2 2658   1.363   1.097   2.988 -1.6052  1.4395 -0.0655
  887SOL     OW 2659   1.305   0.652   0.761 -0.1957 -0.4032  0.3253
  887SOL    HW1 2660   1.336   0.613   0.671  0.4033  2.2835  1.6357
  887SOL    HW2 2661   1.362   0.727   0.795 -0.9315  0.5359 -3.0264
  888SOL     OW 2662   2.135   1.283   1.906  0.0936  0.3340  0.3016
  888SOL    HW1 2663   2.185   1.301   1.816  0.4755  1.0998  0.4584
  888SOL    HW2 2664   2.197   1.243   1.977  0.6672  0.3903  0.0462
  889SOL     OW 2665   2.640   2.325   0.584  0.2922 -0.7148 -0.2489
  889SOL    HW1 2666   2.603   2.279   0.665  1.5107  0.0997 -2.7134
  889SOL    HW2 2667   2.573   2.372   0.522  0.4536  0.7397  0.6500
  890SOL     OW 2668   1.517   1.654   0.921 -0.2123 -0.0737 -0.4399
  890SOL    HW1 2669   1.420   1.670   0.890 -0.2174  0.5898 -0.0311
  890SOL    HW2 2670   1.514   1.648   1.022 -2.2011  1.4876  0.1574
  891SOL     OW 2671   2.568   0.573   2.448  0.3556  0.5860  0.2489
  891SOL    HW1 2672   2.622   0.623   2.373 -1.2040  0.7294 -1.3155
  891SOL    HW2 2673   2.482   0.540   2.410  0.4797  0.8023 -0.4222
  892SOL     OW 2674   0.928   0.165   2.230 -0.5248  0.4115  0.2253
  892SOL    HW1 2675   0.985   0.095   2.280  1.2333  1.8501  1.3828
  892SOL    HW2 2676   0.959   0.260   2.242 -1.6183 -0.0284 -0.9629
  893SOL     OW 2677   1.499   0.203   1.556 -0.2376 -0.0976 -0.1546
  893SOL    HW1 2678   1.550   0.115   1.571 -0.0238  0.8699  0.1733
  893SOL    HW2 2679   1.523   0.238   1.459  1.5818 -1.1334 -2.1501
  894SOL     OW 2680   2.574   0.587   0.640 -0.2128  0.1294  0.8973
  894SOL    HW1 2681   2.532   0.618   0.723 -0.6464 -1.1282 -1.6706
  894SOL    HW2 2682   2.665   0.641   0.616  5.5109 -0.2402 -2.2883
  895SOL     OW 2683   1.761   2.309   2.543  0.0905 -0.1579 -0.2393
  895SOL    HW1 2684   1.766   2.410   2.517 -2.2676  2.8936 -0.2236
  895SOL    HW2 2685   1.832   2.254   2.500  0.5062 -2.9018  0.0680
  896SOL     OW 2686   1.904   0.057   1.474 -0.6755 -0.1155  0.3722
  896SOL    HW1 2687   1.923   0.114   1.551 -2.3852  0.1405 -3.4272
  896SOL    HW2 2688   1.936   3.054   1.491 -0.0813  0.6872  0.1484
  897SOL     OW 2689   0.541   1.811   1.927  0.0309 -0.8719 -0.2362
  897SOL    HW1 2690   0.489   1.816   1.840 -0.2438  0.7706 -1.1568
  897SOL    HW2 2691   0.638   1.839   1.912 -0.5385  0.8316  1.3419
  898SOL     OW 2692   2.049   1.493   2.100 -0.1907 -0.4115  0.5541
  898SOL    HW1 2693   2.075   1.439   2.020 -0.2834 -0.8417  3.1319
  898SOL    HW2 2694   2.114   1.572   2.112 -1.4412  1.4371  0.1170
  899SOL     OW 2695   2.077   2.285   1.092  0.4014 -0.1645 -0.3832
  899SOL    HW1 2696   2.169   2.323   1.078 -0.0825  0.8779 -2.0319
  899SOL    HW2 2697   2.013   2.355   1.131 -0.0739  3.4783  0.1790
  900SOL     OW 2698   0.861   3.023   0.050 -0.4050  0.4868  0.9073
  900SOL    HW1 2699   0.892   2.948   0.113  0.5460 -0.9406 -0.2215
  900SOL    HW2 2700   0.792   2.985   3.086  2.2233 -0.7567 -0.8952
  901SOL     OW 2701   1.029   1.822   2.332 -0.1286  0.1162  0.2315
  901SOL    HW1 2702   1.084   1.835   2.418 -0.8284  0.3162  0.4617
  901SOL    HW2 2703   0.936   1.793   2.357  1.6833  2.8494 -3.0251
  902SOL     OW 2704   2.164   0.319   2.987  0.4796  0.3873  0.8199
  902SOL    HW1 2705   2.179   0.415   2.948  0.1146  0.8679 -3.2651
  902SOL    HW2 2706   2.146   0.321   3.086 -2.2399  0.4126 -0.3226
  903SOL     OW 2707   2.419   0.793   2.161 -0.0720  0.0868 -0.0456
  903SOL    HW1 2708   2.492   0.820   2.098  1.4229 -0.1170 -1.5240
  903SOL    HW2 2709   2.394   0.873   2.222 -0.5272 -1.3840 -0.6833
  904SOL     OW 2710   1.777   0.892   1.708 -0.0036 -0.0687 -0.0763
  904SOL    HW1 2711   1.803   0.889   1.609  1.8678 -0.9729  2.1932
  904SOL    HW2 2712   1.863   0.893   1.768  0.5659 -3.5178  1.4003
  905SOL     OW 2713   1.981   0.373   0.917 -0.8486  0.5853 -0.1080
  905SOL    HW1 2714   2.075   0.368   0.876  2.8248  1.4610  0.9039
  905SOL    HW2 2715   1.993   0.387   1.016  1.7265 -1.2029 -2.1181
  906SOL     OW 2716   2.399   1.876   0.610 -0.7949  0.1918 -0.2300
  906SOL    HW1 2717   2.317   1.934   0.608  2.7871  1.4370  0.8973
  906SOL    HW2 2718   2.401   1.803   0.543 -0.8845  1.8361  3.0985
  907SOL     OW 2719   1.048   3.003   0.823  0.5060 -0.1207 -0.0404
  907SOL    HW1 2720   1.120   3.021   0.753  1.1182  4.0331 -0.6493
  907SOL    HW2 2721   0.962   3.032   0.778 -0.2673  0.5232 -0.2375
  908SOL     OW 2722   1.572   2.370   2.296  0.0521 -0.6443 -0.4412
  908SOL    HW1 2723   1.568   2.376   2.396 -2.8478  3.8452 -3.7239
  908SOL    HW2 2724   1.625   2.282   2.269  1.2865 -0.3382  1.7835
  909SOL     OW 2725   2.316   0.382   2.133 -0.4402 -0.3529 -0.8315
  909SOL    HW1 2726   2.307   0.465   2.198 -1.1564  2.1566  3.8501
  909SOL    HW2 2727   2.229   0.359   2.083 -3.0300 -0.8609 -1.6288
  910SOL     OW 2728   1.171   0.704   2.555  0.0511 -0.2816  0.5311
  910SOL    HW1 2729   1.126   0.616   2.542  1.7998  0.5291  0.6861
  910SOL    HW2 2730   1.099   0.778   2.553  0.6304  0.9914  0.6673
  911SOL     OW 2731   3.068   0.999   2.851  0.4664  0.0236 -0.5454
  911SOL    HW1 2732   0.013   0.962   2.937  1.1518  0.8141  2.2818
  911SOL    HW2 2733   3.001   1.072   2.871  4.0011 -1.2420  0.6196
  912SOL     OW 2734   3.065   2.285   1.017  0.0612 -0.1506 -0.0097
  912SOL    HW1 2735   2.976   2.262   1.055  1.1962  3.3230  2.3915
  912SOL    HW2 2736   0.042   2.216   1.044 -4.7306 -2.3588  2.7931
  913SOL     OW 2737   2.619   1.859   2.459 -0.2933 -0.0400 -0.1819
  913SOL    HW1 2738   2.519   1.858   2.452  2.5071  0.5904 -0.8130
  913SOL    HW2 2739   2.644   1.906   2.544  0.0565  0.7770  0.3307
  914SOL     OW 2740   1.929   1.371   0.601 -0.5026 -0.2433 -0.0251
  914SOL    HW1 2741   1.997   1.311   0.553  0.6577 -0.4162  1.1993
  914SOL    HW2 2742   1.836   1.367   0.557 -1.8493  2.5576  1.5225
  915SOL     OW 2743   0.229   2.616   2.293  0.5555  0.3060  0.3164
  915SOL    HW1 2744   0.215   2.712   2.331 -1.1274 -0.3335  1.8630
  915SOL    HW2 2745   0.305   2.610   2.227 -1.5876  2.9914 -0.2078
  916SOL     OW 2746   0.955   0.085   1.138 -0.7652  0.0186  0.8311
  916SOL    HW1 2747   0.927   3.084   1.114 -0.8556  0.4757 -3.4522
  916SOL    HW2 2748   0.946   0.096   1.236  1.2325 -1.8964 -0.5456
  917SOL     OW 2749   2.264   0.548   2.846 -0.3995 -0.2575 -1.0395
  917SOL    HW1 2750   2.330   0.571   2.921  1.8643  1.2595  0.6055
  917SOL    HW2 2751   2.304   0.567   2.758  1.1209 -0.8164  0.6397
  918SOL     OW 2752   1.522   2.252   2.669  0.2499 -0.5483 -0.1421
  918SOL    HW1 2753   1.520   2.317   2.745  1.9217 -2.3050 -1.6802
  918SOL    HW2 2754   1.606   2.272   2.614  0.0974 -1.4652  0.9054
  919SOL     OW 2755   1.849   2.468   1.188 -0.3625  0.1998 -0.7399
  919SOL    HW1 2756   1.822   2.475   1.289 -1.8350  0.2800 -0.2420
  919SOL    HW2 2757   1.766   2.475   1.131 -0.0601  2.2497 -1.0192
  920SOL     OW 2758   1.295   0.044   2.615 -0.0546  0.0758  0.0906
  920SOL    HW1 2759   1.209   0.066   2.660  1.1363  0.9483  2.7649
  920SOL    HW2 2760   1.320   3.043   2.619 -0.1627 -1.0308 -2.6811
  921SOL     OW 2761   0.179   0.887   2.667 -0.0956 -0.3618 -0.5230
  921SOL    HW1 2762   0.118   0.850   2.596 -0.1343 -2.8392  1.6857
  921SOL    HW2 2763   0.118   0.922   2.743 -0.2089  0.9066 -3.8907
  922SOL     OW 2764   2.928   2.023   1.259 -0.3826 -0.0883  0.0903
  922SOL    HW1 2765   2.840   2.026   1.213  2.6925  0.9061  1.4062
  922SOL    HW2 2766   2.925   2.058   1.358  2.5417  1.5081 -0.0321
  923SOL     OW 2767   0.135   1.493   2.033 -0.5348  0.0603  0.1023
  923SOL    HW1 2768   0.233   1.525   2.014 -0.7457  0.5125 -0.2357
  923SOL    HW2 2769   0.122   1.396   2.006  0.0310 -0.8421 -0.0264
  924SOL     OW 2770   1.605   2.944   2.428  0.2581  0.1335 -0.2083
  924SOL    HW1 2771   1.533   2.892   2.379 -0.9373 -1.2218 -1.5312
  924SOL    HW2 2772   1.691   2.889   2.455  2.8658 -1.9288  1.0389
  925SOL     OW 2773   2.784   1.841   0.622  0.1563  0.4983 -0.2867
  925SOL    HW1 2774   2.740   1.801   0.537 -0.3376 -1.4640 -0.8888
  925SOL    HW2 2775   2.814   1.764   0.684  0.3851  0.3367  1.3383
  926SOL     OW 2776   2.483   0.651   1.019  0.4579  0.8036 -0.2879
  926SOL    HW1 2777   2.532   0.564   1.040  1.2992 -0.6818 -1.0703
  926SOL    HW2 2778   2.491   0.717   1.094  0.0852  0.4311 -0.4006
  927SOL     OW 2779   1.846   0.230   1.274  0.3168 -0.2258 -0.5932
  927SOL    HW1 2780   1.761   0.286   1.297  0.8705  0.3471 -0.5633
  927SOL    HW2 2781   1.855   0.158   1.349  0.6236 -1.5217  1.3568
  928SOL     OW 2782   0.184   0.823   2.217 -0.1398 -0.0356 -0.1222
  928SOL    HW1 2783   0.285   0.801   2.206  0.6857  2.3333 -0.1045
  928SOL    HW2 2784   0.157   0.782   2.306  3.2643 -2.4652 -2.1410
  929SOL     OW 2785   1.998   1.052   1.317  0.3952  0.6276  0.0203
  929SOL    HW1 2786   2.056   0.970   1.329 -0.7481  1.0882  1.0374
  929SOL    HW2 2787   2.016   1.087   1.223 -0.1537 -0.6203 -0.5984
  930SOL     OW 2788   2.020   2.370   1.518  0.3786  0.2930  0.5681
  930SOL    HW1 2789   2.068   2.283   1.489 -1.6084 -1.6430 -0.6011
  930SOL    HW2 2790   2.070   2.421   1.591 -0.4879 -0.5711 -0.5549
  931SOL     OW 2791   1.893   1.278   1.441  0.1586  0.4702  0.0768
  931SOL    HW1 2792   1.834   1.331   1.382 -1.6540  2.4173  4.2730
  931SOL    HW2 2793   1.914   1.183   1.403  1.4930 -3.3606 -1.7657
  932SOL     OW 2794   0.100   0.655   1.687  0.0732 -0.3023  0.0548
  932SOL    HW1 2795   0.103   0.642   1.589  0.6179 -0.6616  0.5150
  932SOL    HW2 2796   0.168   0.729   1.711 -0.9168 -2.0593 -2.7454
  933SOL     OW 2797   2.394   2.087   1.539 -0.1322 -0.1748  0.0392
  933SOL    HW1 2798   2.329   2.153   1.500 -0.4355 -3.2640 -2.1100
  933SOL    HW2 2799   2.359   2.026   1.609 -0.4823 -1.2061 -0.3443
  934SOL     OW 2800   1.386   2.367   1.791 -0.5626 -0.6210  0.2211
  934SOL    HW1 2801   1.364   2.402   1.701  0.7626 -0.2379  1.4679
  934SOL    HW2 2802   1.326   2.406   1.861  3.3940 -0.4494  1.8697
  935SOL     OW 2803   3.003   1.420   1.722  0.8329 -0.6763 -0.3101
  935SOL    HW1 2804   3.094   1.375   1.724 -0.0140  0.4839  1.6734
  935SOL    HW2 2805   2.995   1.501   1.782 -0.1832 -1.8517  1.9120
  936SOL     OW 2806   2.685   0.600   1.358 -0.1626 -0.0575  0.7278
  936SOL    HW1 2807   2.679   0.650   1.442  0.1486  0.2836 -2.5295
  936SOL    HW2 2808   2.589   0.572   1.325  0.8115 -0.4926  0.3403
  937SOL     OW 2809   1.590   0.331   1.318 -0.4271 -0.3537 -0.2812
  937SOL    HW1 2810   1.570   0.315   1.220  0.5252  2.7532 -1.6995
  937SOL    HW2 2811   1.584   0.428   1.350 -0.1773 -1.7577  1.7949
  938SOL     OW 2812   0.510   2.896   0.738  0.3385 -0.0372 -0.6479
  938SOL    HW1 2813   0.424   2.859   0.787 -1.0419 -0.4302  0.5492
  938SOL    HW2 2814   0.585   2.828   0.737  0.5611 -1.0266 -1.7197
  939SOL     OW 2815   3.072   2.004   2.545 -0.1176 -0.6835  0.3221
  939SOL    HW1 2816   0.058   1.955   2.503 -0.5849 -3.9506  0.9311
  939SOL    HW2 2817   0.004   2.081   2.601 -0.2229 -1.9128 -3.0242
  940SOL     OW 2818   1.726   1.793   3.082  0.0477 -0.4176  0.6527
  940SOL    HW1 2819   1.820   1.831   3.094  1.8512 -1.1158  0.6770
  940SOL    HW2 2820   1.691   1.808   2.987  0.0567 -1.3368  1.0313
  941SOL     OW 2821   1.837   2.534   0.336 -0.0628  0.1139 -0.4001
  941SOL    HW1 2822   1.838   2.618   0.394 -2.7911 -1.0445  0.0869
  941SOL    HW2 2823   1.759   2.473   0.371 -3.2794 -3.1708 -0.6565
  942SOL     OW 2824   1.992   1.874   0.964 -0.3236 -0.2835 -0.1928
  942SOL    HW1 2825   1.949   1.963   0.987 -3.4549 -1.7093 -0.2473
  942SOL    HW2 2826   2.074   1.856   1.025 -0.2698  0.6108  0.9952
  943SOL     OW 2827   1.941   0.721   1.431 -0.0732  1.1404 -0.0943
  943SOL    HW1 2828   1.859   0.778   1.410 -1.3095 -2.1176  1.2532
  943SOL    HW2 2829   1.986   0.754   1.517 -0.8233 -2.5800 -2.6881
  944SOL     OW 2830   1.604   0.738   2.093  0.0369  0.2323 -0.3160
  944SOL    HW1 2831   1.626   0.652   2.151  0.6134 -0.2281  1.1556
  944SOL    HW2 2832   1.521   0.782   2.126  1.3519 -0.8394 -2.5089
  945SOL     OW 2833   2.215   2.918   1.416  0.0241  0.1270  0.7650
  945SOL    HW1 2834   2.312   2.951   1.398  0.3306  0.0223  0.5182
  945SOL    HW2 2835   2.144   2.953   1.345 -1.3479 -2.8592  1.0764
  946SOL     OW 2836   0.673   1.248   0.646 -0.1784 -0.4099  0.3039
  946SOL    HW1 2837   0.670   1.328   0.706  2.8631 -0.8384 -0.1901
  946SOL    HW2 2838   0.719   1.268   0.552  2.8635  2.7847 -4.2258
  947SOL     OW 2839   1.119   2.325   1.012  0.0778 -0.0492 -0.4693
  947SOL    HW1 2840   1.179   2.403   0.990  1.1773  0.1411  1.0129
  947SOL    HW2 2841   1.036   2.330   0.946 -0.3207  0.9036 -1.1559
  948SOL     OW 2842   0.227   1.736   1.032 -0.4952  0.3346 -0.0757
  948SOL    HW1 2843   0.241   1.640   1.004 -2.5369 -0.6542 -1.0066
  948SOL    HW2 2844   0.308   1.767   1.090  1.5735 -0.2190  1.4452
  949SOL     OW 2845   0.834   1.156   1.724  0.0954  0.6083  0.7774
  949SOL    HW1 2846   0.765   1.231   1.725  3.4125 -2.0105 -0.5128
  949SOL    HW2 2847   0.898   1.178   1.649 -0.2925 -2.4614  0.0146
  950SOL     OW 2848   0.615   0.665   1.368 -0.2839 -0.5731 -0.9700
  950SOL    HW1 2849   0.699   0.707   1.416 -2.1387  1.7897  0.3145
  950SOL    HW2 2850   0.537   0.718   1.394 -0.4927  0.5603  0.2814
  951SOL     OW 2851   0.669   2.158   1.974  0.5332  0.5198 -0.0701
  951SOL    HW1 2852   0.584   2.200   1.937 -0.6843 -1.2532  0.3357
  951SOL    HW2 2853   0.703   2.086   1.914 -2.4048 -1.1618  3.2209
  952SOL     OW 2854   0.882   1.647   0.115  0.1457  0.1892  0.1419
  952SOL    HW1 2855   0.847   1.726   0.060  1.6236  2.6582 -0.1260
  952SOL    HW2 2856   0.966   1.680   0.163  0.0918 -2.3760 -1.3347
  953SOL     OW 2857   0.923   2.808   0.189 -0.0601 -0.4590 -0.0900
  953SOL    HW1 2858   0.853   2.800   0.261 -2.7377  1.4188  0.9319
  953SOL    HW2 2859   0.969   2.716   0.167  0.2067 -2.1179  0.0712
  954SOL     OW 2860   1.586   1.287   3.020 -0.1088  0.3335  0.5635
  954SOL    HW1 2861   1.534   1.282   0.012 -2.0866  1.9547  0.3214
  954SOL    HW2 2862   1.617   1.380   2.988  1.4250 -0.4841 -1.3907
  955SOL     OW 2863   0.148   2.493   3.019  0.4349  0.2204 -0.2552
  955SOL    HW1 2864   0.224   2.542   2.984 -0.6605 -1.3986  1.2443
  955SOL    HW2 2865   0.065   2.517   2.968  4.3045  1.8081  0.8313
  956SOL     OW 2866   1.225   0.995   1.266 -0.0780 -0.4669  0.0493
  956SOL    HW1 2867   1.267   1.049   1.184 -0.5264  1.0018 -0.3055
  956SOL    HW2 2868   1.226   1.049   1.352  2.7605 -0.8764 -0.7763
  957SOL     OW 2869   1.755   1.583   1.619  0.2258 -0.7493 -0.2099
  957SOL    HW1 2870   1.822   1.586   1.697 -0.5812  2.9935 -0.5032
  957SOL    HW2 2871   1.690   1.510   1.628  0.0074  0.7603 -1.5038
  958SOL     OW 2872   0.777   2.019   1.600 -0.3410  0.5697  0.7829
  958SOL    HW1 2873   0.743   1.969   1.517 -1.4837 -0.3319 -2.8780
  958SOL    HW2 2874   0.728   2.106   1.603  0.0083 -2.6659 -0.1767
  959SOL     OW 2875   1.656   1.227   1.274 -0.0320  0.4762  0.5383
  959SOL    HW1 2876   1.699   1.318   1.275  0.3066 -0.3042  0.6802
  959SOL    HW2 2877   1.619   1.188   1.359  0.8917 -1.8185  0.0814
  960SOL     OW 2878   0.367   1.331   0.136 -0.0663 -0.1947 -0.3567
  960SOL    HW1 2879   0.431   1.409   0.137 -0.0167 -0.4530  0.1512
  960SOL    HW2 2880   0.354   1.303   0.236 -0.0554 -1.3722  1.8944
  961SOL     OW 2881   0.763   1.512   1.799 -0.3730 -0.0559  0.2732
  961SOL    HW1 2882   0.811   1.542   1.719 -2.2173 -1.4378  4.8460
  961SOL    HW2 2883   0.749   1.586   1.866 -0.0081 -1.5525  0.9649
  962SOL     OW 2884   1.508   1.567   0.649  0.4983  0.1265 -0.0193
  962SOL    HW1 2885   1.540   1.594   0.743  0.1746 -0.0560  1.0899
  962SOL    HW2 2886   1.446   1.486   0.658  0.1667 -1.1277 -2.3257
  963SOL     OW 2887   1.497   1.943   2.674 -0.6037  0.1527 -0.1112
  963SOL    HW1 2888   1.495   1.940   2.572 -1.3191 -0.6320 -1.3076
  963SOL    HW2 2889   1.403   1.952   2.707  0.4316  1.6862  0.4670
  964SOL     OW 2890   0.555   3.061   0.328 -0.6576  0.6946  0.7192
  964SOL    HW1 2891   0.478   3.025   0.388 -0.7559 -1.0477 -0.2883
  964SOL    HW2 2892   0.550   3.013   0.236 -3.5104 -1.8142  1.2382
  965SOL     OW 2893   0.531   2.478   0.731  0.2712 -0.2308 -0.4242
  965SOL    HW1 2894   0.571   2.386   0.762 -0.8712  0.6736 -2.1859
  965SOL    HW2 2895   0.439   2.488   0.780 -1.7987 -0.0275  0.5601
  966SOL     OW 2896   0.437   1.598   2.602  0.5864  0.4527 -0.4559
  966SOL    HW1 2897   0.363   1.669   2.621 -2.3416  2.9882  1.3385
  966SOL    HW2 2898   0.395   1.508   2.579  1.1242  1.0799 -0.7305
  967SOL     OW 2899   3.078   2.893   2.659 -0.1095  0.3651  0.2849
  967SOL    HW1 2900   0.040   2.890   2.572  3.8061 -3.8010 -1.4281
  967SOL    HW2 2901   3.093   2.977   2.715  0.3753  2.9177 -0.8370
  968SOL     OW 2902   2.265   0.674   0.198 -0.0767  0.0503 -0.4305
  968SOL    HW1 2903   2.182   0.616   0.213 -1.8704  1.2905 -1.7783
  968SOL    HW2 2904   2.252   0.773   0.220  0.6034  0.3882  0.0046
  969SOL     OW 2905   0.356   0.973   1.970 -0.2754 -0.5580 -0.1038
  969SOL    HW1 2906   0.282   0.960   1.901  1.0560 -1.1629  0.0370
  969SOL    HW2 2907   0.325   1.022   2.050  1.5454 -0.7726  0.1756
  970SOL     OW 2908   2.411   1.394   1.280 -0.1645  0.2937  0.8655
  970SOL    HW1 2909   2.316   1.424   1.266  0.3499  0.7300 -1.6978
  970SOL    HW2 2910   2.417   1.305   1.332  1.9962 -1.7537 -2.0128
  971SOL     OW 2911   2.421   0.249   0.990  0.0833 -0.1207 -0.0384
  971SOL    HW1 2912   2.344   0.280   0.929  0.7042 -0.6582  1.2305
  971SOL    HW2 2913   2.408   0.149   1.014  0.7584 -0.9346  4.1024
  972SOL     OW 2914   0.222   2.828   1.699  0.0639  0.0081  0.7694
  972SOL    HW1 2915   0.165   2.896   1.749  1.6713  1.1539  2.0792
  972SOL    HW2 2916   0.317   2.860   1.679  0.6059  0.3889  0.1944
  973SOL     OW 2917   0.026   0.328   2.974  0.2946  0.4097 -0.5826
  973SOL    HW1 2918   0.093   0.380   2.923 -2.5237  0.5347 -1.5714
  973SOL    HW2 2919   3.047   0.281   2.922  1.6733 -0.5907  1.3018
  974SOL     OW 2920   1.842   1.351   2.205  0.1134  0.5173 -0.6376
  974SOL    HW1 2921   1.768   1.370   2.138  1.3733  1.2054 -3.2788
  974SOL    HW2 2922   1.931   1.394   2.177  0.3354 -0.9101  0.7779
  975SOL     OW 2923   2.982   3.065   1.491 -0.0683 -0.1980  0.2873
  975SOL    HW1 2924   3.049   0.045   1.476  3.2018 -1.2200  1.4390
  975SOL    HW2 2925   2.985   3.031   1.587  3.3682  0.1036  0.4953
  976SOL     OW 2926   0.379   2.038   2.015  0.1267 -0.3394  0.1103
  976SOL    HW1 2927   0.424   1.949   2.027  0.9191  0.0223  0.8051
  976SOL    HW2 2928   0.390   2.078   1.921  0.4020 -1.2706 -1.0303
  977SOL     OW 2929   0.907   2.547   0.417 -1.2447  0.3570 -0.3467
  977SOL    HW1 2930   0.806   2.538   0.431  0.1333  0.5768 -0.1346
  977SOL    HW2 2931   0.948   2.610   0.484 -1.6311 -0.7994  0.6422
  978SOL     OW 2932   0.134   1.509   2.307 -0.2903 -0.2906 -0.3738
  978SOL    HW1 2933   0.129   1.490   2.209  0.1807  1.0668 -2.1072
  978SOL    HW2 2934   0.051   1.560   2.337 -0.8980 -1.6125  0.5302
  979SOL     OW 2935   1.599   2.663   1.348 -0.3741 -0.1768  0.0323
  979SOL    HW1 2936   1.657   2.604   1.406 -2.3295  0.2983  0.2986
  979SOL    HW2 2937   1.507   2.618   1.344 -0.4183  0.2628  0.4169
  980SOL     OW 2938   0.938   1.414   3.090  0.2700 -0.3882 -0.2534
  980SOL    HW1 2939   0.917   1.511   0.028  1.8391  1.1014  1.0708
  980SOL    HW2 2940   0.870   1.351   0.032  0.3435  1.6077  0.9914
  981SOL     OW 2941   2.213   0.050   2.213  0.2440 -0.6357 -0.5962
  981SOL    HW1 2942   2.279   0.085   2.276  0.4019 -4.1543 -1.7482
  981SOL    HW2 2943   2.248   0.048   2.116 -2.3705  0.1742 -0.0690
  982SOL     OW 2944   0.012   0.044   2.772 -1.0009  0.0506 -0.1223
  982SOL    HW1 2945   3.019   0.088   2.789  2.0326  2.3322 -3.0283
  982SOL    HW2 2946   0.081   0.115   2.746 -2.0024  0.1298 -0.3152
  983SOL     OW 2947   2.043   1.103   2.156 -0.1892 -0.6410  0.1407
  983SOL    HW1 2948   1.975   1.178   2.171  2.1014  0.7646  1.0831
  983SOL    HW2 2949   2.002   1.025   2.110  1.9489 -0.2555  2.1317
  984SOL     OW 2950   1.635   0.444   1.997 -0.0570  0.0896  0.0917
  984SOL    HW1 2951   1.715   0.406   2.046 -0.3535  0.4602 -0.0723
  984SOL    HW2 2952   1.654   0.542   1.972 -1.3518 -1.1023  0.5135
  985SOL     OW 2953   1.871   1.355   1.873  0.0584 -0.3491  0.3652
  985SOL    HW1 2954   1.797   1.303   1.829  2.1028  2.4440  2.5524
  985SOL    HW2 2955   1.954   1.299   1.890  2.1359 -2.0786 -1.2421
  986SOL     OW 2956   2.039   0.473   1.449  0.4232  0.3351 -0.2172
  986SOL    HW1 2957   1.996   0.389   1.485  1.4033  1.5222  1.3686
  986SOL    HW2 2958   1.979   0.557   1.439  0.8908  0.4520 -2.3868
  987SOL     OW 2959   2.424   0.569   1.330  0.6100 -0.1124  0.1756
  987SOL    HW1 2960   2.355   0.607   1.393 -0.5035  0.4432 -1.5402
  987SOL    HW2 2961   2.394   0.475   1.293  1.8878 -1.3871 -0.1917
  988SOL     OW 2962   3.037   0.842   2.090  0.0130  0.7003  0.0355
  988SOL    HW1 2963   3.030   0.794   1.999  1.1359 -3.8218  1.2414
  988SOL    HW2 2964   0.030   0.819   2.139  0.6443 -2.0123  2.2488
  989SOL     OW 2965   2.105   1.554   2.953  0.6182 -0.3532 -0.2458
  989SOL    HW1 2966   2.061   1.618   2.885 -0.1676 -0.6924  0.6901
  989SOL    HW2 2967   2.202   1.548   2.933  1.1174 -0.0742 -0.6227
  990SOL     OW 2968   0.961   0.558   3.046  0.0204  0.2681  0.0498
  990SOL    HW1 2969   0.932   0.576   2.950  0.3985 -1.2577  0.8601
  990SOL    HW2 2970   1.059   0.594   3.057  0.8828 -1.8023  0.4340
  991SOL     OW 2971   1.535   0.854   0.033 -0.1638 -0.4989  0.3982
  991SOL    HW1 2972   1.617   0.903   0.057  0.8754  0.3498 -0.8347
  991SOL    HW2 2973   1.537   0.809   3.042 -3.2514 -0.6251  2.2886
  992SOL     OW 2974   2.016   1.290   0.014  0.0665  0.2399  0.1486
  992SOL    HW1 2975   1.958   1.375   0.037  0.8516  1.0176 -0.5142
  992SOL    HW2 2976   1.976   1.197   0.031  0.8185 -0.6437  0.2475
  993SOL     OW 2977   0.193   0.510   0.502 -0.2412 -0.5137 -0.4128
  993SOL    HW1 2978   0.196   0.481   0.404  1.0162 -0.2882 -4.7383
  993SOL    HW2 2979   0.138   0.596   0.513 -0.9879 -0.3568  1.2749
  994SOL     OW 2980   2.986   1.838   2.082  0.7268  0.5463  0.0248
  994SOL    HW1 2981   2.966   1.857   2.182  1.8384  0.9034  4.5943
  994SOL    HW2 2982   3.085   1.833   2.083 -1.6439  0.1619  5.3376
  995SOL     OW 2983   1.871   1.417   2.506  0.7146  0.2277 -0.0125
  995SOL    HW1 2984   1.849   1.398   2.409 -3.6449  0.0277 -1.0206
  995SOL    HW2 2985   1.934   1.348   2.544  1.2582  2.1402  3.1955
  996SOL     OW 2986   1.988   1.717   2.735 -0.4795 -0.0399  0.0280
  996SOL    HW1 2987   2.000   1.815   2.766  1.7500  1.0067 -3.3424
  996SOL    HW2 2988   1.942   1.707   2.645 -1.6580 -0.7870 -0.5942
  997SOL     OW 2989   2.457   1.552   1.658 -0.2821 -0.2291 -0.4877
  997SOL    HW1 2990   2.485   1.590   1.569  0.5676 -0.4025 -1.2701
  997SOL    HW2 2991   2.541   1.534   1.719  1.3316 -2.0770 -0.6146
  998SOL     OW 2992   2.334   1.670   0.468  0.1732  0.4243 -0.1249
  998SOL    HW1 2993   2.239   1.664   0.434 -0.5552  1.8894  1.5241
  998SOL    HW2 2994   2.360   1.583   0.518  1.6452  0.7408 -0.0554
  999SOL     OW 2995   2.927   2.566   0.431 -0.7924 -0.2779 -0.2017
  999SOL    HW1 2996   2.909   2.543   0.528  1.7798 -1.0520  0.0376
  999SOL    HW2 2997   2.886   2.655   0.403  1.2942  2.3842  0.3505
 1000SOL     OW 2998   0.820   0.283   1.994  0.2619 -0.7908  0.4970
 1000SOL    HW1 2999   0.877   0.244   2.070 -3.4983  1.1438  0.2403
 1000SOL    HW2 3000   0.861   0.372   1.958  0.1739  2.0018 -1.7552
   3.09452   3.09452   3.09452
