1000 SPC/Fw water molecules t=  48.00000 step= 48000
 3000
    1SOL     OW    1   2.201   2.758   0.746 -0.2959 -0.0333  0.0191
    1SOL    HW1    2   2.141   2.814   0.692  4.0064  1.4031  0.9218
    1SOL    HW2    3   2.257   2.826   0.803  1.5057  1.8861  0.0343
    2SOL     OW    4   1.386   0.817   2.389 -0.4859  0.3790  0.2248
    2SOL    HW1    5   1.447   0.741   2.417 -0.5274  0.8205  2.1835
    2SOL    HW2    6   1.359   0.876   2.469  0.0741 -1.5929 -2.6321
    3SOL     OW    7   1.050   2.714   2.655 -0.3334 -0.3713  0.1805
    3SOL    HW1    8   1.126   2.758   2.711  0.2772  0.5749  0.5523
    3SOL    HW2    9   1.034   2.630   2.703  1.7438  1.5210  0.4978
    4SOL     OW   10   1.222   1.471   2.807 -0.3250  0.2727 -0.0198
    4SOL    HW1   11   1.295   1.401   2.807 -0.6696  1.4837 -1.2195
    4SOL    HW2   12   1.256   1.556   2.853  0.1674  2.2820  0.9227
    5SOL     OW   13   0.850   0.842   2.108 -0.1875 -0.8797  0.4696
    5SOL    HW1   14   0.881   0.748   2.145  1.6066 -2.4401  1.9593
    5SOL    HW2   15   0.876   0.920   2.168  0.7725  2.7631  0.2219
    6SOL     OW   16   2.096   0.630   2.452 -0.1211  0.1557 -0.4355
    6SOL    HW1   17   2.165   0.633   2.377 -1.0028 -1.6794  0.8141
    6SOL    HW2   18   2.132   0.617   2.545 -2.8229 -0.5370  2.1858
    7SOL     OW   19   0.351   0.763   1.642  0.3690  0.1348  0.0795
    7SOL    HW1   20   0.434   0.782   1.581  1.1239  3.3068  0.7952
    7SOL    HW2   21   0.345   0.670   1.689 -2.5824 -1.8917  4.4298
    8SOL     OW   22   1.910   2.967   1.815  0.3393  0.6161 -0.0075
    8SOL    HW1   23   1.811   2.967   1.836  0.5797 -0.8437  1.2247
    8SOL    HW2   24   1.927   3.044   1.751 -4.1672 -2.2475  1.9617
    9SOL     OW   25   0.290   3.011   0.588  0.3323 -0.3559 -0.2648
    9SOL    HW1   26   0.372   3.057   0.627  0.4759 -1.1389 -1.1243
    9SOL    HW2   27   0.209   3.058   0.617  2.0544 -2.2101  0.1358
   10SOL     OW   28   0.127   2.317   2.575  0.0482 -0.5658 -0.3097
   10SOL    HW1   29   0.066   2.246   2.534  0.9882  1.3504 -2.2640
   10SOL    HW2   30   0.157   2.296   2.672 -0.2180  1.8763  1.8161
   11SOL     OW   31   0.703   1.495   2.815 -0.4326 -0.1310  0.4403
   11SOL    HW1   32   0.629   1.433   2.783 -1.5127  1.1664  0.4049
   11SOL    HW2   33   0.783   1.435   2.843 -0.0001  0.8804 -0.6323
   12SOL     OW   34   2.380   2.470   1.314 -0.0637  0.2148  0.8532
   12SOL    HW1   35   2.331   2.425   1.238 -0.7964  0.5342 -1.0993
   12SOL    HW2   36   2.319   2.493   1.391 -0.3296  0.4950 -0.3611
   13SOL     OW   37   0.580   2.702   2.928 -0.1792  0.1180 -0.6421
   13SOL    HW1   38   0.619   2.798   2.958  2.6673  4.3150  2.3556
   13SOL    HW2   39   0.640   2.621   2.947 -2.6848 -2.2616  0.7678
   14SOL     OW   40   1.258   1.710   1.446  0.0584  0.3130 -0.0589
   14SOL    HW1   41   1.181   1.739   1.508  1.6805 -0.4412  1.8419
   14SOL    HW2   42   1.336   1.680   1.508 -0.8084 -1.5895  1.9176
   15SOL     OW   43   0.295   1.548   2.331  0.3494  0.2841 -0.4518
   15SOL    HW1   44   0.352   1.583   2.253 -0.5234  2.2490  1.7636
   15SOL    HW2   45   0.242   1.473   2.297  1.2410  1.7071  1.0074
   16SOL     OW   46   1.657   0.674   2.693 -0.4475 -0.0838 -0.2427
   16SOL    HW1   47   1.611   0.628   2.773 -0.4927 -0.5214 -0.7714
   16SOL    HW2   48   1.654   0.777   2.696  1.3725  1.5819 -0.8757
   17SOL     OW   49   0.020   2.854   2.415 -0.1204 -0.1275  0.4008
   17SOL    HW1   50   3.047   2.827   2.503 -0.4143 -1.0470  1.0037
   17SOL    HW2   51   0.105   2.800   2.402 -4.9381 -2.5078 -0.1666
   18SOL     OW   52   1.149   1.094   0.691  0.1359 -0.2693 -0.0456
   18SOL    HW1   53   1.170   1.178   0.635  0.9599  3.2693 -2.3206
   18SOL    HW2   54   1.140   1.111   0.793  1.2108 -0.0107  0.4744
   19SOL     OW   55   3.012   1.711   2.315 -0.6290 -0.1320 -0.2313
   19SOL    HW1   56   3.065   1.783   2.262  0.3259  3.6355  0.3291
   19SOL    HW2   57   3.021   1.731   2.412 -0.8357  0.1063 -3.7182
   20SOL     OW   58   2.283   2.361   2.541 -0.8436 -0.3702 -0.6235
   20SOL    HW1   59   2.282   2.462   2.541 -0.1550  0.5997  0.7328
   20SOL    HW2   60   2.249   2.335   2.449  1.6234 -0.4215 -2.0846
   21SOL     OW   61   1.832   1.933   0.436  0.0568  0.2220 -0.0374
   21SOL    HW1   62   1.778   2.012   0.409 -0.9010 -1.0852 -0.6674
   21SOL    HW2   63   1.850   1.928   0.534 -1.6428  0.3564 -0.3034
   22SOL     OW   64   2.265   2.017   1.164 -0.2869  0.2980  0.4686
   22SOL    HW1   65   2.350   1.964   1.134  3.0078 -1.4429 -0.8975
   22SOL    HW2   66   2.186   1.983   1.110  0.0152  0.6713  1.1729
   23SOL     OW   67   3.008   1.150   1.366 -0.7234 -0.0392 -0.2532
   23SOL    HW1   68   0.032   1.137   1.377  2.0019 -0.4005  0.5928
   23SOL    HW2   69   3.001   1.191   1.270  2.7298  1.0159 -0.3950
   24SOL     OW   70   2.070   1.247   2.011 -0.9175 -1.2843 -0.3729
   24SOL    HW1   71   2.128   1.323   1.973  0.9364  1.8137 -0.3741
   24SOL    HW2   72   2.101   1.236   2.109  2.1421  1.3301  1.1039
   25SOL     OW   73   1.917   3.060   2.302  0.2410  0.5994  0.4292
   25SOL    HW1   74   1.977   3.043   2.383 -0.5550  0.2259 -2.4522
   25SOL    HW2   75   1.961   3.021   2.217  1.9798 -0.7316 -1.1383
   26SOL     OW   76   0.765   0.307   0.391 -0.2742  0.6739  0.2513
   26SOL    HW1   77   0.702   0.227   0.410  1.4177 -0.3731 -1.5194
   26SOL    HW2   78   0.732   0.365   0.312  0.5344  0.3946  0.8800
   27SOL     OW   79   0.737   1.515   0.780 -0.4685 -0.5175  0.0127
   27SOL    HW1   80   0.702   1.493   0.685  1.5476  0.0554 -1.5636
   27SOL    HW2   81   0.665   1.577   0.825 -3.2646 -0.0243  1.3123
   28SOL     OW   82   2.215   2.278   0.884  0.1996 -0.6373 -0.0218
   28SOL    HW1   83   2.234   2.291   0.980 -0.6608  0.0307 -2.3813
   28SOL    HW2   84   2.298   2.295   0.825  4.6583  1.5879 -1.8073
   29SOL     OW   85   2.247   0.044   2.083  0.3812 -0.0626  0.2664
   29SOL    HW1   86   2.218   0.115   2.015  2.4359  0.9470  1.1853
   29SOL    HW2   87   2.343   0.024   2.088 -3.3582  1.5226  0.7576
   30SOL     OW   88   0.367   2.853   1.450 -0.6408  0.0403 -0.1309
   30SOL    HW1   89   0.351   2.762   1.487  0.9180  3.0885  0.8500
   30SOL    HW2   90   0.304   2.884   1.381  1.9561  1.6285  2.7558
   31SOL     OW   91   0.033   1.902   2.137  0.1500 -0.5108  0.2638
   31SOL    HW1   92   0.007   2.001   2.156  0.0193  1.6223  1.0976
   31SOL    HW2   93   3.075   1.869   2.048  0.2939  1.4543  0.1658
   32SOL     OW   94   1.541   2.390   2.176 -0.0407 -0.0970  0.5837
   32SOL    HW1   95   1.542   2.490   2.193  0.8540 -1.6055  0.4342
   32SOL    HW2   96   1.584   2.343   2.258  1.7629 -0.8554  2.9153
   33SOL     OW   97   0.324   0.171   2.807  0.1511 -0.1894 -0.1268
   33SOL    HW1   98   0.405   0.166   2.747  0.6317 -0.3415  1.2443
   33SOL    HW2   99   0.267   0.095   2.781  1.9421  1.4625 -1.0296
   34SOL     OW  100   2.558   0.039   0.194 -0.2232  0.5828  0.1464
   34SOL    HW1  101   2.640   0.079   0.244  2.4636  0.4673  1.4985
   34SOL    HW2  102   2.490   0.113   0.180  1.2646  0.2868 -1.3540
   35SOL     OW  103   2.850   0.079   1.658 -0.3730 -0.3667  0.0392
   35SOL    HW1  104   2.914   0.148   1.614 -0.5422  0.0878  1.1212
   35SOL    HW2  105   2.891   3.064   1.657 -0.8512  1.9967 -1.2288
   36SOL     OW  106   2.527   0.004   2.395 -0.1657 -0.1338  0.0170
   36SOL    HW1  107   2.571   0.022   2.486 -1.8375  1.3773 -0.5469
   36SOL    HW2  108   2.546   0.079   2.328  0.6193 -0.9732  1.7353
   37SOL     OW  109   1.334   2.989   0.034 -0.3547  0.3291 -0.6995
   37SOL    HW1  110   1.398   3.039   0.099 -0.3787 -2.7515  1.4761
   37SOL    HW2  111   1.240   2.988   0.070  1.2921  2.8480 -0.0446
   38SOL     OW  112   3.066   0.773   3.043 -0.0406  0.0979  0.1772
   38SOL    HW1  113   0.022   0.681   3.026  0.1204 -0.8234  0.8042
   38SOL    HW2  114   0.050   0.844   3.003  1.9818  0.6491 -1.2623
   39SOL     OW  115   1.164   1.784   2.055  0.1311 -0.5895 -0.1296
   39SOL    HW1  116   1.249   1.831   2.032 -2.5288  1.1632 -1.3080
   39SOL    HW2  117   1.157   1.781   2.155 -0.4875  0.3885 -2.2833
   40SOL     OW  118   0.330   0.524   2.582 -0.2961  0.0818 -0.0846
   40SOL    HW1  119   0.393   0.585   2.532 -2.0918  1.4458 -3.4993
   40SOL    HW2  120   0.319   0.429   2.541 -1.4281 -3.9206 -0.3016
   41SOL     OW  121   1.626   1.113   2.008 -0.2581  0.0388  0.4829
   41SOL    HW1  122   1.703   1.057   1.964  1.7621 -0.6863 -0.4801
   41SOL    HW2  123   1.632   1.114   2.109 -0.8516  1.0211  2.4134
   42SOL     OW  124   0.008   0.186   1.528 -0.2856 -0.1126 -0.2113
   42SOL    HW1  125   3.069   0.277   1.485  0.1140 -2.3534  2.0877
   42SOL    HW2  126   0.110   0.166   1.541  0.8527 -2.6095  1.1328
   43SOL     OW  127   1.315   1.292   1.763 -0.5085  0.6145  0.8729
   43SOL    HW1  128   1.415   1.266   1.765 -2.0037 -1.0448 -2.1827
   43SOL    HW2  129   1.270   1.221   1.818  0.8706 -0.6410 -3.6734
   44SOL     OW  130   3.006   0.176   3.049  0.0858  0.8228 -0.1678
   44SOL    HW1  131   0.026   0.193   3.070 -0.0862 -0.0882 -1.4475
   44SOL    HW2  132   2.982   0.078   3.037  0.0748 -0.5689 -1.3465
   45SOL     OW  133   0.263   2.013   1.567  0.2488  0.0724  0.0251
   45SOL    HW1  134   0.227   1.996   1.473 -0.8573  2.2937  1.3934
   45SOL    HW2  135   0.344   1.950   1.587 -1.4171  0.0125 -0.2021
   46SOL     OW  136   2.415   2.994   1.807 -0.2280 -0.2370 -0.1079
   46SOL    HW1  137   2.471   3.027   1.889 -1.3140 -0.3681  1.2205
   46SOL    HW2  138   2.471   2.976   1.720 -0.2313  0.5422 -2.4805
   47SOL     OW  139   0.548   2.026   1.151  0.3862 -0.3421 -0.3254
   47SOL    HW1  140   0.581   2.002   1.242 -1.0240 -0.3223  1.5735
   47SOL    HW2  141   0.457   1.976   1.139 -0.8211  1.5571 -0.5284
   48SOL     OW  142   0.742   2.487   2.979  0.3170 -0.4349  0.2634
   48SOL    HW1  143   0.734   2.402   2.921  1.1888 -0.4481 -1.9460
   48SOL    HW2  144   0.758   2.458   3.074 -0.0257 -1.1759 -0.7115
   49SOL     OW  145   2.803   1.647   1.691  0.0036  0.1553  0.8512
   49SOL    HW1  146   2.905   1.625   1.706  4.6643  0.9395 -0.7413
   49SOL    HW2  147   2.740   1.580   1.736  1.4618  1.6730 -0.4364
   50SOL     OW  148   1.531   2.907   0.633  0.4431 -0.1860  0.1632
   50SOL    HW1  149   1.590   2.986   0.650 -0.6692  0.7772 -3.8067
   50SOL    HW2  150   1.536   2.850   0.721  1.0271 -2.2073  0.3724
   51SOL     OW  151   0.987   2.961   1.246  0.3394 -0.3455  0.2633
   51SOL    HW1  152   1.031   3.045   1.288  0.9537 -2.2171 -0.4067
   51SOL    HW2  153   0.927   2.990   1.172  1.3653  2.3312 -2.6690
   52SOL     OW  154   0.609   1.189   0.503 -0.0675 -0.3799 -0.1404
   52SOL    HW1  155   0.604   1.190   0.406  1.9015  0.6377  3.6362
   52SOL    HW2  156   0.600   1.093   0.545  0.2018 -1.3834 -0.1560
   53SOL     OW  157   1.474   3.065   2.456  0.1077  0.6512 -0.2815
   53SOL    HW1  158   1.535   0.017   2.377 -0.6790  0.8510 -0.5805
   53SOL    HW2  159   1.527   3.009   2.525 -0.7628 -0.8430 -0.0144
   54SOL     OW  160   1.917   0.506   1.859 -0.1113 -0.1202 -0.0665
   54SOL    HW1  161   1.854   0.528   1.783  0.6506 -0.5567  2.6119
   54SOL    HW2  162   1.893   0.411   1.892  0.5816  1.2757  2.0811
   55SOL     OW  163   3.036   2.516   0.694 -0.0585 -0.3612 -0.4468
   55SOL    HW1  164   2.992   2.610   0.703 -0.6170  2.6631  0.6037
   55SOL    HW2  165   0.030   2.521   0.620 -0.5812  1.3468 -0.3993
   56SOL     OW  166   0.955   2.822   1.779 -0.1133  0.9405 -0.4396
   56SOL    HW1  167   0.957   2.922   1.799 -2.6766  0.7236 -3.0480
   56SOL    HW2  168   0.854   2.797   1.778 -0.4246 -0.4326  1.6923
   57SOL     OW  169   1.928   0.855   2.404 -0.3313 -0.1661  0.8996
   57SOL    HW1  170   1.955   0.755   2.418 -0.5848 -1.5649 -2.4081
   57SOL    HW2  171   1.927   0.869   2.305  4.9179  1.7806  1.1026
   58SOL     OW  172   0.239   0.894   2.174  0.3657 -0.3998  0.2215
   58SOL    HW1  173   0.185   0.812   2.206 -2.9253 -3.8349  0.6097
   58SOL    HW2  174   0.233   0.903   2.076 -0.7993 -0.3290 -2.2288
   59SOL     OW  175   0.941   2.462   1.913  0.6249  0.1518 -0.0160
   59SOL    HW1  176   0.913   2.509   1.829  2.8498 -1.5312  1.0741
   59SOL    HW2  177   1.031   2.426   1.892 -3.7476  2.2403  0.6196
   60SOL     OW  178   2.382   2.637   0.309 -0.3727  0.1103 -0.3565
   60SOL    HW1  179   2.423   2.727   0.287 -2.4358  0.5218 -3.0061
   60SOL    HW2  180   2.380   2.582   0.228 -0.7919  1.6026  2.0109
   61SOL     OW  181   1.266   2.566   0.582 -0.7669  0.3155  0.3342
   61SOL    HW1  182   1.264   2.575   0.681  0.3347 -0.1276  0.2718
   61SOL    HW2  183   1.296   2.651   0.537 -0.6978 -1.1040 -0.1330
   62SOL     OW  184   1.487   2.904   2.898 -0.0147 -0.2399  0.1269
   62SOL    HW1  185   1.568   2.853   2.929 -0.8427  0.2279  1.7217
   62SOL    HW2  186   1.418   2.926   2.971 -2.1346  1.1630  0.9598
   63SOL     OW  187   2.276   0.645   3.023 -0.0250 -0.0588 -0.6887
   63SOL    HW1  188   2.286   0.689   0.037  0.5078 -0.4944  2.1008
   63SOL    HW2  189   2.369   0.629   2.985 -0.9058 -0.5339 -0.8843
   64SOL     OW  190   1.340   0.908   3.070  0.2051 -0.2566  0.3677
   64SOL    HW1  191   1.248   0.879   3.033  2.4492 -1.4713 -1.6533
   64SOL    HW2  192   1.332   0.973   0.071 -0.3532  1.6691 -1.2308
   65SOL     OW  193   0.637   2.912   1.496 -0.0446  0.2663  0.0793
   65SOL    HW1  194   0.694   2.834   1.469 -1.5146 -0.7976 -0.2291
   65SOL    HW2  195   0.540   2.895   1.463  0.6639  0.0379 -2.3274
   66SOL     OW  196   0.968   1.118   1.426 -0.3051  0.2021  0.0035
   66SOL    HW1  197   1.019   1.156   1.347  2.1034  1.4919  1.2037
   66SOL    HW2  198   0.971   1.016   1.421 -0.3463 -0.9167 -1.4319
   67SOL     OW  199   2.168   2.127   1.833 -0.3778  0.1577 -0.2801
   67SOL    HW1  200   2.204   2.196   1.899 -0.2516  1.3128 -2.8793
   67SOL    HW2  201   2.198   2.157   1.737  1.0555 -0.0482 -1.7592
   68SOL     OW  202   0.917   1.293   2.088 -0.1926  0.5459  0.2493
   68SOL    HW1  203   0.832   1.323   2.129  2.4434 -0.8881  0.7437
   68SOL    HW2  204   0.940   1.353   2.010  0.3891 -2.6917 -0.5602
   69SOL     OW  205   2.803   2.604   0.301 -0.0450  0.0248  0.0972
   69SOL    HW1  206   2.899   2.602   0.327 -1.6407  2.8700 -1.3162
   69SOL    HW2  207   2.747   2.679   0.348  0.3028  0.7604  2.9212
   70SOL     OW  208   2.316   0.696   2.292  0.0604 -0.7709  0.0284
   70SOL    HW1  209   2.329   0.781   2.347 -1.2723 -1.9095 -4.1612
   70SOL    HW2  210   2.374   0.618   2.329 -0.1158  1.5526  1.4045
   71SOL     OW  211   0.469   1.936   0.843 -0.0211  0.3304 -0.1530
   71SOL    HW1  212   0.400   1.969   0.916 -2.7529  2.2568 -0.6195
   71SOL    HW2  213   0.552   1.994   0.848 -1.1035  1.0681 -2.0825
   72SOL     OW  214   2.465   1.989   0.687  0.3936  0.1108  0.1869
   72SOL    HW1  215   2.393   1.976   0.619  0.6121  4.0559  0.3570
   72SOL    HW2  216   2.531   2.066   0.658  0.4344 -0.5858  1.0964
   73SOL     OW  217   1.151   0.508   0.536  0.1335 -0.1421 -0.0300
   73SOL    HW1  218   1.061   0.561   0.526 -0.8834 -0.2101 -0.0910
   73SOL    HW2  219   1.187   0.515   0.633  0.1675  0.9129  2.2213
   74SOL     OW  220   2.557   2.211   1.852 -0.6031  0.3458 -0.0095
   74SOL    HW1  221   2.514   2.176   1.937 -0.4638  0.6370 -0.0734
   74SOL    HW2  222   2.560   2.315   1.856  1.2147 -1.1956  0.6449
   75SOL     OW  223   1.447   1.675   1.874  0.1262 -0.1283  0.5091
   75SOL    HW1  224   1.423   1.766   1.918  0.0054  2.6239 -0.5792
   75SOL    HW2  225   1.500   1.616   1.934 -1.5760 -0.2183  0.9589
   76SOL     OW  226   1.121   1.775   1.058  0.1476  0.9307 -0.1399
   76SOL    HW1  227   1.197   1.743   1.119  2.5651  0.9438 -0.2351
   76SOL    HW2  228   1.030   1.719   1.068  0.7850  0.2369 -3.6195
   77SOL     OW  229   2.700   1.407   1.797  0.3230  0.0216 -0.1459
   77SOL    HW1  230   2.706   1.373   1.894  0.5235 -1.2862  2.3244
   77SOL    HW2  231   2.758   1.355   1.730  1.2861  2.2918  1.3900
   78SOL     OW  232   1.567   0.660   0.390 -0.1211  1.0560 -0.3615
   78SOL    HW1  233   1.574   0.561   0.368  1.1250  2.0327 -0.4457
   78SOL    HW2  234   1.546   0.671   0.485  1.7354  2.1384 -0.6865
   79SOL     OW  235   1.596   1.525   2.083  0.9874  0.2962 -0.0815
   79SOL    HW1  236   1.676   1.463   2.088 -1.3279  1.9941  1.1889
   79SOL    HW2  237   1.512   1.478   2.122 -1.3677 -2.3431  0.0206
   80SOL     OW  238   1.070   0.423   1.636 -0.0890 -0.4878  0.0662
   80SOL    HW1  239   1.076   0.378   1.546  1.5923 -0.6451 -2.5445
   80SOL    HW2  240   1.140   0.387   1.698 -1.6753  2.7404 -0.0275
   81SOL     OW  241   0.885   2.287   0.573 -0.1699  0.0983  0.1663
   81SOL    HW1  242   0.858   2.379   0.604  0.4359  1.0637 -1.5303
   81SOL    HW2  243   0.983   2.288   0.538  0.7574  0.2908 -1.1575
   82SOL     OW  244   1.262   0.355   1.815  0.1268  1.0610 -0.1005
   82SOL    HW1  245   1.343   0.368   1.750  2.2034  0.9913  1.4277
   82SOL    HW2  246   1.283   0.375   1.912  3.1948 -2.2728  1.0508
   83SOL     OW  247   0.388   2.273   0.595 -0.3057 -0.2115 -0.2239
   83SOL    HW1  248   0.426   2.366   0.589  0.0930  1.4523 -2.3259
   83SOL    HW2  249   0.298   2.269   0.643 -0.5236 -1.0749  0.4247
   84SOL     OW  250   2.705   1.474   0.299 -0.5782  0.2330  0.1841
   84SOL    HW1  251   2.730   1.405   0.370 -1.1272 -0.4974 -0.2691
   84SOL    HW2  252   2.608   1.495   0.313 -1.1638 -1.1956  2.7671
   85SOL     OW  253   2.320   1.972   1.421  0.0324  1.1926  0.0176
   85SOL    HW1  254   2.316   2.007   1.328 -1.1012 -0.0491  0.8325
   85SOL    HW2  255   2.409   1.991   1.468  3.2276  1.9936  0.5068
   86SOL     OW  256   1.366   2.292   1.225  0.9084 -0.2822 -0.0007
   86SOL    HW1  257   1.446   2.300   1.170 -2.3237  1.3565  1.8213
   86SOL    HW2  258   1.338   2.378   1.272  0.5176  3.2951  0.7820
   87SOL     OW  259   2.401   1.479   0.575 -0.4212  0.0276  0.0814
   87SOL    HW1  260   2.317   1.541   0.590 -1.9269 -0.9084  1.5643
   87SOL    HW2  261   2.427   1.485   0.482  0.3496 -0.8548 -0.6399
   88SOL     OW  262   0.839   0.005   0.985  0.3542  0.8720  0.2706
   88SOL    HW1  263   0.906   3.023   0.936  0.6685 -1.1775  1.5384
   88SOL    HW2  264   0.811   0.078   0.918  0.2232 -1.1563 -1.1043
   89SOL     OW  265   0.634   0.116   1.851 -0.1750  0.3882 -0.2080
   89SOL    HW1  266   0.657   0.204   1.801 -0.3587 -0.5400 -1.2890
   89SOL    HW2  267   0.550   0.129   1.901  0.6330  0.5115  0.6563
   90SOL     OW  268   0.153   1.944   0.794 -0.1397  0.0773  0.0414
   90SOL    HW1  269   0.069   1.938   0.738  1.0916  0.3200  1.4879
   90SOL    HW2  270   0.184   1.848   0.813 -2.8863 -0.6509 -0.2473
   91SOL     OW  271   0.859   1.674   1.101 -0.4579  0.0489 -0.0856
   91SOL    HW1  272   0.758   1.690   1.098  1.7343  1.2296 -2.6612
   91SOL    HW2  273   0.875   1.577   1.105 -2.7756  1.8856  0.4688
   92SOL     OW  274   2.582   2.941   1.597  0.2700 -0.2875  0.0461
   92SOL    HW1  275   2.602   3.036   1.566  1.3389  1.8830  1.0369
   92SOL    HW2  276   2.631   2.874   1.540  0.4635  1.3233 -0.2664
   93SOL     OW  277   0.261   1.040   2.743 -0.4876 -0.3335  0.2199
   93SOL    HW1  278   0.356   1.071   2.771  1.1117  0.8697  0.8087
   93SOL    HW2  279   0.217   1.102   2.675 -3.0969  0.0516 -0.9490
   94SOL     OW  280   2.555   3.056   2.031 -0.8409 -0.0136  0.2016
   94SOL    HW1  281   2.547   0.029   2.121 -0.6194  0.9835 -0.6120
   94SOL    HW2  282   2.631   0.024   1.972  0.9526  1.8305 -1.9277
   95SOL     OW  283   1.853   0.843   2.105 -0.2528  0.7043 -0.7405
   95SOL    HW1  284   1.779   0.768   2.108 -1.1479 -4.5411 -0.4263
   95SOL    HW2  285   1.845   0.908   2.029 -0.7378  2.0992  1.8888
   96SOL     OW  286   2.917   0.465   1.983 -0.4944  0.2655 -0.1441
   96SOL    HW1  287   2.851   0.429   1.916  0.3892  2.1696  0.4227
   96SOL    HW2  288   2.923   0.566   1.981 -2.0267  2.3122 -0.7122
   97SOL     OW  289   2.205   2.844   1.483 -0.1245 -0.4479  0.4196
   97SOL    HW1  290   2.216   2.745   1.500 -3.8168 -0.0768  0.6166
   97SOL    HW2  291   2.151   2.852   1.396  1.2978  0.9963 -0.4121
   98SOL     OW  292   2.013   2.580   1.573 -0.4295  0.1359 -0.2111
   98SOL    HW1  293   1.976   2.487   1.599 -2.7088 -1.4332  1.5767
   98SOL    HW2  294   2.028   2.633   1.664 -2.3626  0.5367  0.0303
   99SOL     OW  295   2.819   0.724   1.157  0.2553 -0.0683  0.7745
   99SOL    HW1  296   2.853   0.630   1.168  0.0662 -2.6670  0.2715
   99SOL    HW2  297   2.891   0.782   1.195 -1.0302 -1.5284 -2.8330
  100SOL     OW  298   2.488   1.815   1.738 -0.6528 -0.0413  0.2892
  100SOL    HW1  299   2.404   1.808   1.794 -0.7644 -1.3836  0.5765
  100SOL    HW2  300   2.565   1.825   1.802  0.5461  0.2750 -1.1277
  101SOL     OW  301   2.104   0.230   0.097  0.3633  0.1418 -0.0676
  101SOL    HW1  302   2.195   0.236   0.138 -0.9522 -1.3973 -0.4855
  101SOL    HW2  303   2.106   0.174   0.010 -0.8121  1.1659 -2.3035
  102SOL     OW  304   0.737   0.293   1.297 -0.2183  0.1328  0.2178
  102SOL    HW1  305   0.756   0.225   1.371  2.7439 -0.6166 -1.1602
  102SOL    HW2  306   0.640   0.318   1.291  1.3922  2.0949 -0.3592
  103SOL     OW  307   2.956   0.110   2.605  0.0381 -0.5157  0.3536
  103SOL    HW1  308   2.988   0.037   2.672 -3.0262  0.0753 -0.6016
  103SOL    HW2  309   2.982   0.089   2.509  0.3313  1.4214  0.7769
  104SOL     OW  310   0.415   2.200   1.387 -0.2072  0.0618  0.0958
  104SOL    HW1  311   0.475   2.125   1.366 -1.6501 -0.1973  0.5911
  104SOL    HW2  312   0.458   2.287   1.350  0.6213 -0.4011 -0.8149
  105SOL     OW  313   0.640   1.545   1.971 -0.1696 -0.0938 -0.3898
  105SOL    HW1  314   0.736   1.577   1.952  1.7470 -3.2269 -0.8195
  105SOL    HW2  315   0.569   1.576   1.901 -2.6077  2.2301 -0.5132
  106SOL     OW  316   1.791   0.562   0.745  0.3962 -0.2295 -0.2706
  106SOL    HW1  317   1.809   0.663   0.757 -0.7961  0.8699  1.4475
  106SOL    HW2  318   1.693   0.542   0.773 -0.6828  1.7231 -2.9744
  107SOL     OW  319   0.710   1.192   1.410  0.6028 -0.2443  0.3102
  107SOL    HW1  320   0.809   1.163   1.411  1.8752  0.8379  2.0913
  107SOL    HW2  321   0.684   1.225   1.315 -0.7243 -1.0522 -1.0323
  108SOL     OW  322   2.856   0.799   2.272 -0.0437 -0.3958  0.0602
  108SOL    HW1  323   2.916   0.782   2.190  0.1115 -1.5917  0.1604
  108SOL    HW2  324   2.786   0.725   2.278  1.3878 -0.1100 -1.8524
  109SOL     OW  325   1.878   3.005   2.701  0.9921  0.4552  1.2407
  109SOL    HW1  326   1.933   2.979   2.778 -1.7435  0.5663 -0.9793
  109SOL    HW2  327   1.798   2.940   2.689  0.3922 -0.1485  2.2889
  110SOL     OW  328   0.229   1.845   2.915 -0.6735 -0.0091  0.0060
  110SOL    HW1  329   0.153   1.892   2.967 -0.7878 -0.0300  1.5814
  110SOL    HW2  330   0.319   1.848   2.967  1.6398 -0.4032  1.3228
  111SOL     OW  331   2.681   0.592   2.229  0.4013  0.1324  0.1857
  111SOL    HW1  332   2.586   0.595   2.267  0.1061  1.9710 -1.1670
  111SOL    HW2  333   2.714   0.495   2.205 -1.9137  0.7990 -1.3342
  112SOL     OW  334   2.643   2.514   1.328  0.0207 -0.2397 -0.1961
  112SOL    HW1  335   2.544   2.496   1.310  1.7936  1.8415  0.4957
  112SOL    HW2  336   2.697   2.493   1.246  1.8118 -0.3688 -0.3712
  113SOL     OW  337   1.901   2.131   1.795  0.1559 -0.3827  0.0444
  113SOL    HW1  338   1.871   2.177   1.878  5.0022 -1.4188 -1.0804
  113SOL    HW2  339   1.991   2.089   1.812 -2.8820  0.4641 -1.6734
  114SOL     OW  340   0.201   0.201   0.354  0.2231  0.7142  0.2282
  114SOL    HW1  341   0.134   0.276   0.370 -2.1785  1.3332 -0.1657
  114SOL    HW2  342   0.296   0.239   0.361 -1.7723  1.8296  2.4205
  115SOL     OW  343   2.727   1.692   0.067  0.4942 -0.0279  0.5620
  115SOL    HW1  344   2.814   1.699   0.011 -0.7511  0.9391 -2.5361
  115SOL    HW2  345   2.707   1.593   0.065  1.2390  0.4712  2.4008
  116SOL     OW  346   0.010   1.178   1.666 -0.0866 -0.0242  0.0695
  116SOL    HW1  347   0.020   1.270   1.711  0.0854 -0.8875  1.0109
  116SOL    HW2  348   3.004   1.129   1.707 -0.0359 -0.6211 -1.2207
  117SOL     OW  349   2.395   0.155   1.382 -0.0628  0.2297  0.0330
  117SOL    HW1  350   2.317   0.095   1.414 -0.1013  0.7408  0.6774
  117SOL    HW2  351   2.470   0.148   1.451  0.2048 -2.3093  3.1172
  118SOL     OW  352   2.875   2.252   2.074  0.5607 -0.4622  0.0979
  118SOL    HW1  353   2.884   2.353   2.060 -3.0462 -0.0931  1.9911
  118SOL    HW2  354   2.844   2.204   1.988 -2.9336  0.3432 -1.8060
  119SOL     OW  355   0.598   1.709   1.118 -0.1303  0.3581 -0.6278
  119SOL    HW1  356   0.535   1.679   1.044  1.5793 -0.9283  0.1678
  119SOL    HW2  357   0.561   1.761   1.196  2.5915 -0.5508  0.6712
  120SOL     OW  358   0.170   1.693   1.503 -0.4242 -0.3921 -0.0957
  120SOL    HW1  359   0.160   1.718   1.600 -0.3084  0.5611  0.6229
  120SOL    HW2  360   0.091   1.712   1.444  2.2588  0.7865 -0.4989
  121SOL     OW  361   1.694   1.290   1.070 -0.3286  0.3864 -0.2825
  121SOL    HW1  362   1.744   1.257   1.152  1.1722  0.2227  0.5947
  121SOL    HW2  363   1.606   1.326   1.096  1.1014 -2.4204 -0.1003
  122SOL     OW  364   1.839   2.407   2.477  0.4965  0.1720 -0.6304
  122SOL    HW1  365   1.881   2.339   2.545  1.7226 -3.6025  2.6394
  122SOL    HW2  366   1.854   2.497   2.519 -0.9225  0.8467  1.3482
  123SOL     OW  367   2.949   2.900   0.289  0.3548 -0.0456 -0.1285
  123SOL    HW1  368   3.044   2.938   0.285  1.8111  1.0523  0.1078
  123SOL    HW2  369   2.900   2.937   0.374 -2.9177  0.7901  0.3906
  124SOL     OW  370   1.011   1.270   0.387  0.2090 -0.2328  0.2518
  124SOL    HW1  371   0.928   1.264   0.448 -1.0713 -3.0396 -1.7741
  124SOL    HW2  372   1.009   1.196   0.324 -0.0044  1.3778  2.1751
  125SOL     OW  373   0.251   1.123   2.342  0.1852 -0.1627  0.1703
  125SOL    HW1  374   0.257   1.215   2.310  2.4601 -0.9431  0.8880
  125SOL    HW2  375   0.234   1.052   2.271 -1.7294  0.7037  1.4066
  126SOL     OW  376   0.010   2.367   0.276 -0.1679 -0.7670  0.1370
  126SOL    HW1  377   0.002   2.315   0.361 -1.4661  1.5239  0.7361
  126SOL    HW2  378   0.022   2.468   0.297 -1.5535  1.4619  1.4318
  127SOL     OW  379   2.814   1.817   0.308  0.2803 -0.2313 -0.1579
  127SOL    HW1  380   2.780   1.767   0.389  0.9068 -0.1722 -0.3567
  127SOL    HW2  381   2.769   1.769   0.230  0.7748  1.3486 -0.0820
  128SOL     OW  382   1.310   0.833   0.785  0.4357 -0.0915 -0.4307
  128SOL    HW1  383   1.257   0.863   0.702  0.4120 -0.1995  0.0449
  128SOL    HW2  384   1.337   0.912   0.843  1.7298 -2.8347 -0.3854
  129SOL     OW  385   2.528   1.949   1.124 -0.3137  0.7304 -0.2828
  129SOL    HW1  386   2.558   2.030   1.176  1.8065  0.4819  0.9982
  129SOL    HW2  387   2.509   1.869   1.187 -1.5596 -3.8017  2.6426
  130SOL     OW  388   2.108   0.972   0.560 -0.1672 -0.6633 -0.5036
  130SOL    HW1  389   2.044   0.890   0.563 -0.4141  1.6563 -2.1849
  130SOL    HW2  390   2.147   1.001   0.651 -0.2923 -2.4705  0.9414
  131SOL     OW  391   2.995   1.289   2.376 -0.4153  0.5470  0.2981
  131SOL    HW1  392   2.944   1.204   2.348 -0.6434 -0.6613  0.4110
  131SOL    HW2  393   2.935   1.364   2.407 -3.4488  0.0824  1.7083
  132SOL     OW  394   1.383   1.423   2.241  0.3457  0.6029 -0.1691
  132SOL    HW1  395   1.315   1.354   2.206  0.3233 -0.0553  1.0872
  132SOL    HW2  396   1.429   1.380   2.325  2.1928 -1.9557 -2.0402
  133SOL     OW  397   0.220   1.284   0.308  0.6556 -0.2448 -0.0378
  133SOL    HW1  398   0.215   1.377   0.268  1.8423 -1.3901  1.6570
  133SOL    HW2  399   0.234   1.216   0.230  0.2089 -0.0663 -1.3665
  134SOL     OW  400   2.589   0.834   0.204 -0.6047  0.2549 -0.1542
  134SOL    HW1  401   2.653   0.790   0.140 -1.0310  0.9317 -2.1720
  134SOL    HW2  402   2.599   0.933   0.191  0.5288  0.1755  0.6952
  135SOL     OW  403   1.560   0.714   3.046  0.3245  0.5018 -0.1678
  135SOL    HW1  404   1.546   0.632   2.984 -0.8232 -1.2094 -1.3274
  135SOL    HW2  405   1.492   0.790   3.038 -0.3935  1.2361  1.2469
  136SOL     OW  406   1.755   1.577   1.782  0.1211  0.0018 -0.0249
  136SOL    HW1  407   1.686   1.562   1.853  0.7246  0.2795 -3.6851
  136SOL    HW2  408   1.769   1.681   1.772 -1.6249  0.3461 -0.2261
  137SOL     OW  409   2.464   2.293   0.759  0.2657 -0.0229 -0.0042
  137SOL    HW1  410   2.546   2.275   0.705 -2.2253 -4.6683 -0.1220
  137SOL    HW2  411   2.452   2.393   0.771  0.5466 -2.6391  0.8032
  138SOL     OW  412   2.380   0.482   1.458  0.0082  0.2748  0.2751
  138SOL    HW1  413   2.295   0.499   1.508 -0.7971  0.4479  1.1026
  138SOL    HW2  414   2.356   0.472   1.361  0.2999  0.7035  0.6805
  139SOL     OW  415   2.702   0.078   2.891  0.4175 -0.5530  0.0463
  139SOL    HW1  416   2.700   0.160   2.953 -1.8206  0.4579  0.6209
  139SOL    HW2  417   2.671   3.073   2.944 -1.2253  2.0426 -0.7856
  140SOL     OW  418   1.465   1.882   2.372  0.2247 -0.5898 -0.0315
  140SOL    HW1  419   1.522   1.822   2.315 -0.1236  0.1649  1.4072
  140SOL    HW2  420   1.434   1.830   2.457 -0.2084  0.0253  0.0981
  141SOL     OW  421   0.922   1.071   2.265  0.1608 -0.3570  0.0600
  141SOL    HW1  422   0.984   1.089   2.347 -2.1898 -0.7414  4.8118
  141SOL    HW2  423   0.916   1.147   2.197 -1.3974  0.5877  0.3023
  142SOL     OW  424   2.682   2.681   2.379 -0.2186  0.5818  0.0098
  142SOL    HW1  425   2.636   2.620   2.309  0.0308  0.5094  0.7819
  142SOL    HW2  426   2.778   2.648   2.395 -0.2134  2.1224  0.5590
  143SOL     OW  427   1.132   1.972   0.306  0.0360  0.4614  0.1400
  143SOL    HW1  428   1.211   1.993   0.368  0.4125 -1.6152 -0.3401
  143SOL    HW2  429   1.052   2.032   0.331 -1.4145 -1.8484  1.5803
  144SOL     OW  430   1.236   2.591   0.093  0.2251 -1.0660  0.1747
  144SOL    HW1  431   1.216   2.496   0.087 -1.9387  0.0607 -0.9482
  144SOL    HW2  432   1.183   2.646   0.026  0.2415  0.9155  0.0470
  145SOL     OW  433   1.415   2.425   2.543 -0.0179  0.4695  0.0155
  145SOL    HW1  434   1.342   2.434   2.470 -0.4314 -3.1230 -2.0297
  145SOL    HW2  435   1.494   2.376   2.500  0.3514 -0.3109  0.0926
  146SOL     OW  436   2.075   2.958   2.880  0.6270  0.2938 -0.2972
  146SOL    HW1  437   2.131   3.041   2.897 -1.5221 -3.6637 -0.2270
  146SOL    HW2  438   2.014   2.941   2.965  0.0505 -1.6096 -0.1522
  147SOL     OW  439   3.006   1.285   1.138 -0.5003  0.1930 -0.2141
  147SOL    HW1  440   2.917   1.314   1.098 -0.0246  0.2322  0.1610
  147SOL    HW2  441   3.054   1.372   1.164 -2.2037  0.8666 -1.3019
  148SOL     OW  442   2.101   2.780   0.115 -0.2455  0.2950 -0.1235
  148SOL    HW1  443   2.120   2.797   0.214 -2.1172  0.3787 -1.3796
  148SOL    HW2  444   2.187   2.776   0.058 -0.3316 -2.0929 -0.1785
  149SOL     OW  445   0.688   1.763   2.880  0.2764 -0.7414  0.0416
  149SOL    HW1  446   0.694   1.661   2.869 -0.0356  0.0801  0.4367
  149SOL    HW2  447   0.664   1.816   2.799  1.5920  0.0049 -4.2585
  150SOL     OW  448   0.751   2.405   0.849  0.3843  0.0331  0.3276
  150SOL    HW1  449   0.807   2.355   0.917  0.3623  0.3035 -3.7439
  150SOL    HW2  450   0.720   2.493   0.884 -0.0547 -1.5982  1.1338
  151SOL     OW  451   0.242   1.108   0.110  0.4092  0.1660 -0.0930
  151SOL    HW1  452   0.314   1.045   0.145 -1.3897  1.8008  1.4511
  151SOL    HW2  453   0.186   1.057   0.045  0.9197 -0.9699  2.0855
  152SOL     OW  454   2.875   2.097   0.877 -0.4577 -0.6900 -0.4694
  152SOL    HW1  455   2.942   2.177   0.863  1.8530  0.9647  0.4108
  152SOL    HW2  456   2.885   2.041   0.792 -0.4286  2.5250 -2.0369
  153SOL     OW  457   1.567   2.425   1.055 -0.1418  0.5362 -0.1282
  153SOL    HW1  458   1.545   2.476   1.141  1.2486  0.2471  2.0823
  153SOL    HW2  459   1.668   2.393   1.059 -1.8774  0.0013 -0.1453
  154SOL     OW  460   0.675   2.774   1.184  0.3661  0.1752 -0.5472
  154SOL    HW1  461   0.691   2.873   1.207 -0.5522  0.2382  2.7018
  154SOL    HW2  462   0.739   2.712   1.233 -0.2405 -2.2592 -2.1735
  155SOL     OW  463   2.969   1.936   0.667  0.1661 -0.5539 -0.1869
  155SOL    HW1  464   2.955   1.838   0.701 -0.2713 -0.3409  0.1010
  155SOL    HW2  465   2.945   1.957   0.572 -0.4914 -1.1360 -0.3337
  156SOL     OW  466   2.633   2.108   0.281 -0.5255  0.3538 -0.2323
  156SOL    HW1  467   2.701   2.172   0.244 -0.2089 -1.0606  0.5901
  156SOL    HW2  468   2.669   2.022   0.316 -2.5254  1.7168  0.2471
  157SOL     OW  469   0.422   2.211   1.677  0.2937 -0.5266  0.4099
  157SOL    HW1  470   0.380   2.297   1.700  0.8660  0.0263  2.3221
  157SOL    HW2  471   0.378   2.156   1.600  2.7283 -1.5607  2.3363
  158SOL     OW  472   1.372   0.373   0.929  0.3737 -0.6448  0.5321
  158SOL    HW1  473   1.318   0.293   0.892 -0.2584 -1.4781  0.9784
  158SOL    HW2  474   1.400   0.355   1.027 -1.1028 -2.7637  1.7641
  159SOL     OW  475   1.678   0.811   0.184  0.3285  0.7492 -0.6839
  159SOL    HW1  476   1.625   0.764   0.258 -1.3051 -1.7314 -0.9672
  159SOL    HW2  477   1.651   0.772   0.096  1.5788  4.0615  0.8426
  160SOL     OW  478   0.907   1.525   0.380  0.6716  0.4572 -0.1999
  160SOL    HW1  479   0.957   1.440   0.381 -1.4905 -0.7860 -1.1503
  160SOL    HW2  480   0.891   1.554   0.284  2.2636 -0.4357 -0.5886
  161SOL     OW  481   2.741   2.331   2.617  0.0705  0.0067 -0.4794
  161SOL    HW1  482   2.651   2.335   2.662  1.5557 -0.2361  0.6127
  161SOL    HW2  483   2.805   2.367   2.684  0.0240  1.0269  2.4897
  162SOL     OW  484   0.147   2.186   1.320 -0.0734 -0.2225 -0.2104
  162SOL    HW1  485   0.085   2.201   1.399  0.8517 -1.1841 -0.4357
  162SOL    HW2  486   0.249   2.196   1.345 -1.0485  0.2831  1.0758
  163SOL     OW  487   0.207   0.412   2.811  0.8220 -0.5076 -0.0556
  163SOL    HW1  488   0.243   0.318   2.819  0.1041 -0.4020 -0.6953
  163SOL    HW2  489   0.259   0.473   2.742  0.1019  2.2759 -0.2659
  164SOL     OW  490   0.311   2.674   2.405 -0.2810 -0.1364 -0.2645
  164SOL    HW1  491   0.381   2.748   2.421  2.5657  1.3753 -0.5775
  164SOL    HW2  492   0.290   2.631   2.496 -1.2212  0.9725  1.4042
  165SOL     OW  493   2.470   0.923   1.587 -0.1934 -0.3582  0.1718
  165SOL    HW1  494   2.420   0.953   1.503 -2.0394  3.4753 -2.0783
  165SOL    HW2  495   2.399   0.912   1.663 -4.3443 -1.5182 -0.1965
  166SOL     OW  496   1.853   1.838   1.445  0.1415  0.5421 -0.7507
  166SOL    HW1  497   1.952   1.813   1.423  3.4521 -0.6449  0.2650
  166SOL    HW2  498   1.795   1.827   1.359 -0.4250 -1.7155 -2.5129
  167SOL     OW  499   0.460   0.668   2.409  0.1781 -0.4516  0.0357
  167SOL    HW1  500   0.430   0.637   2.319 -0.0364  0.7873  3.9347
  167SOL    HW2  501   0.403   0.749   2.440  0.9839 -1.1877 -0.1635
  168SOL     OW  502   2.209   0.119   2.361  0.2207  0.5759 -0.2871
  168SOL    HW1  503   2.227   0.079   2.455  0.2067  0.6806 -0.8749
  168SOL    HW2  504   2.216   0.059   2.284 -0.7396  0.4749  1.8180
  169SOL     OW  505   0.418   0.940   0.186 -0.3463  0.1651 -0.0663
  169SOL    HW1  506   0.396   0.879   0.265  0.2083  2.4157 -0.0432
  169SOL    HW2  507   0.453   0.883   0.105 -0.4207 -0.0700 -2.9545
  170SOL     OW  508   0.790   1.515   1.554 -0.4145  0.2847  0.1847
  170SOL    HW1  509   0.811   1.455   1.628 -1.8329 -1.3719 -1.4898
  170SOL    HW2  510   0.865   1.529   1.488 -1.3278  1.6667 -0.5008
  171SOL     OW  511   1.188   2.408   1.819 -0.5744  0.5017 -0.7574
  171SOL    HW1  512   1.199   2.403   1.715 -0.1682 -0.1034 -1.6057
  171SOL    HW2  513   1.262   2.356   1.864  0.3833  0.6943 -0.7159
  172SOL     OW  514   1.303   0.072   1.882  0.5125  0.1059 -0.0462
  172SOL    HW1  515   1.326   0.169   1.867 -0.5655 -3.6242  0.0959
  172SOL    HW2  516   1.254   0.063   1.971 -1.6878  2.6356 -3.2485
  173SOL     OW  517   1.390   2.132   0.841  0.2193  0.1241 -0.1074
  173SOL    HW1  518   1.434   2.224   0.860  0.2656 -0.5247 -0.7445
  173SOL    HW2  519   1.289   2.133   0.858 -2.3811  0.1391  1.7400
  174SOL     OW  520   2.113   3.056   0.333 -0.2544  0.2953 -0.2226
  174SOL    HW1  521   2.099   2.968   0.387 -1.4447 -0.9391 -0.6860
  174SOL    HW2  522   2.030   0.037   0.333 -1.0504 -1.8028 -1.0155
  175SOL     OW  523   1.209   1.366   0.564  0.6332 -0.5277  0.7647
  175SOL    HW1  524   1.205   1.467   0.590 -0.0063  0.9790  0.4977
  175SOL    HW2  525   1.140   1.349   0.490  0.9553  0.3245 -0.0901
  176SOL     OW  526   0.649   1.467   0.475  0.3853 -0.2102  0.0921
  176SOL    HW1  527   0.723   1.525   0.443 -0.4923 -0.6180 -0.2230
  176SOL    HW2  528   0.670   1.369   0.481 -3.2987 -1.9202  0.2230
  177SOL     OW  529   1.125   1.161   1.016 -0.1084  0.6241  0.1114
  177SOL    HW1  530   1.183   1.245   1.017  1.2971  0.2131  2.1942
  177SOL    HW2  531   1.181   1.078   1.052  1.4335 -2.3092  0.4932
  178SOL     OW  532   2.448   1.773   0.361  1.1689  0.0567  0.7083
  178SOL    HW1  533   2.401   1.833   0.425  3.3195 -3.1620  0.6352
  178SOL    HW2  534   2.453   1.674   0.384 -1.1145  0.1738 -0.1189
  179SOL     OW  535   1.066   2.713   2.991 -0.0903 -1.0421 -0.1752
  179SOL    HW1  536   1.029   2.638   2.933  0.7504  0.4432 -2.2935
  179SOL    HW2  537   0.988   2.745   3.041 -2.0618 -2.3616 -0.5266
  180SOL     OW  538   1.902   1.377   1.699  0.1083 -0.2861  0.5104
  180SOL    HW1  539   1.988   1.397   1.753 -0.1599 -0.1743  1.5579
  180SOL    HW2  540   1.832   1.449   1.718 -1.0780 -1.8427  0.6270
  181SOL     OW  541   1.241   0.644   2.261 -0.0281 -0.0829  0.1262
  181SOL    HW1  542   1.287   0.711   2.322  2.1565 -0.9851 -1.3346
  181SOL    HW2  543   1.316   0.613   2.197 -2.1973 -1.4909  1.4135
  182SOL     OW  544   0.160   1.341   2.236 -0.1066  0.1952  0.2983
  182SOL    HW1  545   0.078   1.317   2.298 -1.1350 -0.2689  0.9052
  182SOL    HW2  546   0.147   1.306   2.141 -2.8585 -0.4362  0.8757
  183SOL     OW  547   1.558   0.625   2.462 -0.0367 -0.3961  0.5901
  183SOL    HW1  548   1.504   0.540   2.465  0.0982  0.1378 -0.9310
  183SOL    HW2  549   1.598   0.647   2.549 -1.9982 -1.3812  0.6640
  184SOL     OW  550   0.693   0.588   1.403 -0.0411  0.3530 -1.0362
  184SOL    HW1  551   0.765   0.600   1.477  0.7706 -0.5211  2.8116
  184SOL    HW2  552   0.681   0.493   1.376  3.4268  0.2464  1.4937
  185SOL     OW  553   2.192   1.648   0.600 -0.2495  0.3222  0.3128
  185SOL    HW1  554   2.173   1.748   0.596 -0.5605  1.1297  3.3152
  185SOL    HW2  555   2.105   1.593   0.599  0.5984  0.4187  1.5829
  186SOL     OW  556   0.178   2.125   0.188 -0.9820  0.0427 -0.0883
  186SOL    HW1  557   0.278   2.105   0.217  3.4794 -1.3561  2.5218
  186SOL    HW2  558   0.157   2.226   0.209 -1.5197 -0.3639  0.9711
  187SOL     OW  559   2.043   2.348   0.027 -0.0051 -0.0594 -0.1521
  187SOL    HW1  560   2.012   2.399   0.111 -1.7130  1.0100 -2.4541
  187SOL    HW2  561   2.122   2.283   0.052  1.5197 -4.7218 -0.5146
  188SOL     OW  562   1.044   2.025   1.081 -0.1295 -0.1805  0.0287
  188SOL    HW1  563   0.965   2.057   1.027 -0.7663 -0.7188  0.1588
  188SOL    HW2  564   1.055   1.922   1.076  1.2725 -4.6310  2.2960
  189SOL     OW  565   2.209   1.547   2.370 -0.6688  0.0977  0.1289
  189SOL    HW1  566   2.112   1.564   2.335 -1.0390  2.1102  2.6787
  189SOL    HW2  567   2.264   1.635   2.368  0.0396 -0.4423 -0.4327
  190SOL     OW  568   0.928   2.471   2.198  0.1905  0.3997  0.0568
  190SOL    HW1  569   0.951   2.502   2.107 -0.8803  0.8687  1.4242
  190SOL    HW2  570   0.837   2.510   2.230 -1.0121 -0.5269  2.7485
  191SOL     OW  571   2.575   0.906   1.284  0.1464 -0.4015  0.0275
  191SOL    HW1  572   2.673   0.906   1.313 -1.6791  1.1821  0.1289
  191SOL    HW2  573   2.565   0.871   1.192  3.0711  0.0471  1.5689
  192SOL     OW  574   2.537   0.649   1.597  0.0982  0.0648 -0.3147
  192SOL    HW1  575   2.474   0.599   1.533 -0.3644 -1.9134 -1.1965
  192SOL    HW2  576   2.560   0.746   1.564 -1.3331 -0.8553 -0.2397
  193SOL     OW  577   0.459   0.319   0.338 -0.0760  0.8357  0.2137
  193SOL    HW1  578   0.418   0.366   0.419  0.5510  0.8356 -2.7405
  193SOL    HW2  579   0.483   0.390   0.267 -0.5115  2.3773  0.8882
  194SOL     OW  580   1.088   2.261   1.468 -0.3709 -0.3608 -0.2322
  194SOL    HW1  581   1.105   2.170   1.421  1.5023 -4.5101  0.8633
  194SOL    HW2  582   1.174   2.305   1.499 -1.4718  1.3043  0.0751
  195SOL     OW  583   2.412   1.208   0.256  0.2190 -0.1856  0.3289
  195SOL    HW1  584   2.374   1.155   0.336  0.0432 -1.0391 -0.1800
  195SOL    HW2  585   2.384   1.176   0.162 -2.0066 -1.2161 -1.8219
  196SOL     OW  586   0.618   2.378   1.574 -0.0706 -0.0340 -0.1131
  196SOL    HW1  587   0.583   2.398   1.480 -0.1536  2.1337 -0.0680
  196SOL    HW2  588   0.554   2.314   1.631 -1.7234 -3.2369  3.8311
  197SOL     OW  589   0.099   0.672   2.257 -0.7694  0.0427 -0.1522
  197SOL    HW1  590   0.142   0.593   2.207 -0.9687 -1.1618 -1.4830
  197SOL    HW2  591   0.079   0.651   2.352 -1.0359  1.6029  0.3772
  198SOL     OW  592   1.609   1.019   0.551  0.0757  0.2694  0.6688
  198SOL    HW1  593   1.521   1.019   0.493 -1.0013  0.3025  0.7254
  198SOL    HW2  594   1.682   1.070   0.502 -0.2172  0.9703 -0.3003
  199SOL     OW  595   2.783   0.511   1.593  0.1193 -0.0955 -0.1007
  199SOL    HW1  596   2.770   0.447   1.674  0.9985  0.9305  0.0727
  199SOL    HW2  597   2.687   0.535   1.562 -2.9809  0.2504 -0.1639
  200SOL     OW  598   2.175   0.131   2.938 -0.2347 -0.2582  0.1293
  200SOL    HW1  599   2.271   0.162   2.948 -0.1657 -1.6932 -0.6666
  200SOL    HW2  600   2.118   0.185   2.879 -1.2950  0.3098 -0.2925
  201SOL     OW  601   2.477   0.121   1.130 -0.3559  0.0705  0.4888
  201SOL    HW1  602   2.446   0.132   1.232 -0.9294  3.7282  2.0014
  201SOL    HW2  603   2.421   0.180   1.065  2.8014  2.7212  0.9622
  202SOL     OW  604   0.000   2.662   0.338 -0.2911 -0.3618  0.0547
  202SOL    HW1  605   0.054   2.706   0.416  2.5612  2.8024  3.2472
  202SOL    HW2  606   3.029   2.737   0.293 -0.8989 -2.7315  1.4374
  203SOL     OW  607   1.337   1.680   2.974  0.3209  0.1239  0.6292
  203SOL    HW1  608   1.335   1.622   3.058  1.3636  0.9858  0.4929
  203SOL    HW2  609   1.433   1.686   2.939  0.1129  1.2794  1.7357
  204SOL     OW  610   0.500   2.055   2.298  0.6173 -0.0115  0.1773
  204SOL    HW1  611   0.520   2.018   2.205  1.6146 -0.5609 -0.4080
  204SOL    HW2  612   0.420   1.997   2.327  0.0041 -0.3703  1.5801
  205SOL     OW  613   1.016   0.619   1.082  0.4973  0.0527  0.1800
  205SOL    HW1  614   0.983   0.544   1.147  0.6178 -0.6831  0.9288
  205SOL    HW2  615   1.116   0.634   1.080 -1.1219 -0.5308  0.2650
  206SOL     OW  616   0.334   0.776   2.786  0.5800 -0.0566  0.4856
  206SOL    HW1  617   0.295   0.870   2.775 -1.2546  0.7380  2.2116
  206SOL    HW2  618   0.288   0.708   2.723 -0.0184  1.5791 -0.8100
  207SOL     OW  619   1.513   2.357   1.732 -0.0281  0.5199 -0.6181
  207SOL    HW1  620   1.576   2.433   1.758 -0.5445  1.2399 -2.2589
  207SOL    HW2  621   1.471   2.315   1.815  0.4227  0.2359  0.1587
  208SOL     OW  622   0.245   2.943   1.030 -0.0721 -0.0582 -0.8508
  208SOL    HW1  623   0.333   2.938   0.968 -1.7276  2.2615  0.3093
  208SOL    HW2  624   0.185   3.019   0.998 -0.5041 -0.2259  1.4399
  209SOL     OW  625   1.483   1.058   0.790 -1.0068 -0.1743  0.1027
  209SOL    HW1  626   1.527   1.025   0.877  1.5515  2.2490  1.2213
  209SOL    HW2  627   1.535   1.032   0.704 -1.1415  1.2422 -1.6465
  210SOL     OW  628   2.385   0.693   0.521 -0.1976  0.1442 -0.1698
  210SOL    HW1  629   2.400   0.738   0.614  0.9085  1.5395  2.1544
  210SOL    HW2  630   2.457   0.627   0.498  1.9518  1.6178 -0.3085
  211SOL     OW  631   1.215   0.148   0.246 -0.2433 -0.4183  0.7957
  211SOL    HW1  632   1.172   0.077   0.189  0.0270  2.0576  1.0870
  211SOL    HW2  633   1.317   0.140   0.243 -1.1828 -1.1999 -1.8675
  212SOL     OW  634   1.680   2.197   0.582  0.0896 -0.4815  0.4831
  212SOL    HW1  635   1.736   2.280   0.586 -0.7036 -1.2257  1.5870
  212SOL    HW2  636   1.641   2.199   0.490  0.3379  1.3365  1.6114
  213SOL     OW  637   2.264   0.345   2.652  0.0344  0.2805  0.4884
  213SOL    HW1  638   2.279   0.445   2.648  1.4558 -0.4606  1.7570
  213SOL    HW2  639   2.199   0.318   2.581 -2.3083  0.4889  1.6886
  214SOL     OW  640   0.962   1.991   2.121  0.0635 -0.3193 -0.4385
  214SOL    HW1  641   1.043   1.942   2.154 -4.1153  0.9569  0.9203
  214SOL    HW2  642   0.946   2.076   2.179 -1.2982  1.6867  2.5218
  215SOL     OW  643   0.275   1.312   1.174 -0.5921 -0.3511 -0.2852
  215SOL    HW1  644   0.202   1.359   1.231 -3.2277  1.2332 -0.2110
  215SOL    HW2  645   0.295   1.222   1.207 -0.8259  0.4916 -0.1988
  216SOL     OW  646   0.186   2.237   2.827 -0.0367 -0.3278  0.2694
  216SOL    HW1  647   0.106   2.263   2.879 -0.9834 -0.8905  0.0145
  216SOL    HW2  648   0.270   2.280   2.862  1.1912 -0.8100  1.2821
  217SOL     OW  649   2.600   1.174   1.506  0.2529 -0.1214  0.1187
  217SOL    HW1  650   2.620   1.089   1.459  0.9456  2.3548  0.4951
  217SOL    HW2  651   2.529   1.147   1.579  0.6981 -0.5698  3.6878
  218SOL     OW  652   0.730   2.284   2.006  0.5102  0.2130 -0.1662
  218SOL    HW1  653   0.799   2.347   1.969 -1.0234  2.8803  0.1610
  218SOL    HW2  654   0.763   2.240   2.093 -1.5979 -2.4300  0.3758
  219SOL     OW  655   2.102   1.527   0.300  0.1913  0.1014  0.2093
  219SOL    HW1  656   2.158   1.550   0.219 -1.3471  1.9238 -0.3485
  219SOL    HW2  657   2.132   1.576   0.386 -1.2468  1.1026  1.3189
  220SOL     OW  658   1.922   0.767   0.506 -0.7884 -0.0305 -0.1883
  220SOL    HW1  659   1.892   0.781   0.409 -0.6008  0.8868  0.3194
  220SOL    HW2  660   1.842   0.782   0.566 -0.2178  1.0604 -0.6928
  221SOL     OW  661   2.739   0.505   0.132 -0.2369 -0.3491  0.1010
  221SOL    HW1  662   2.802   0.583   0.138  1.3951  0.3821  2.8773
  221SOL    HW2  663   2.792   0.423   0.162 -0.8164 -2.0440 -0.2555
  222SOL     OW  664   1.445   1.296   0.682 -0.0207  0.5899 -1.1379
  222SOL    HW1  665   1.472   1.203   0.719 -0.9406 -1.7283 -3.6586
  222SOL    HW2  666   1.348   1.298   0.644 -2.4930  0.3870 -1.2396
  223SOL     OW  667   0.949   3.045   2.986  0.1265 -0.3564  1.1373
  223SOL    HW1  668   1.012   0.034   2.936  0.3192  1.0311 -1.5669
  223SOL    HW2  669   0.909   2.974   2.921 -3.0855 -2.0961  0.7695
  224SOL     OW  670   1.185   2.774   1.306  0.0052  0.2216  0.1776
  224SOL    HW1  671   1.114   2.827   1.255 -0.0872 -0.4564 -0.9029
  224SOL    HW2  672   1.174   2.786   1.408 -1.4899 -1.0141  2.6095
  225SOL     OW  673   0.342   2.457   1.786  0.3636 -0.6413 -0.0958
  225SOL    HW1  674   0.255   2.483   1.829  1.7484 -0.8892 -1.2448
  225SOL    HW2  675   0.410   2.444   1.858 -0.2592 -0.6857 -1.1669
  226SOL     OW  676   1.423   1.322   0.224  0.5582 -0.4159 -0.5534
  226SOL    HW1  677   1.453   1.338   0.323  0.4746 -0.8734  0.6816
  226SOL    HW2  678   1.370   1.400   0.189  2.0051 -0.9096 -0.0343
  227SOL     OW  679   0.472   1.295   0.736  0.0711  0.7444 -0.0105
  227SOL    HW1  680   0.504   1.240   0.655  0.4063 -0.1729 -2.9363
  227SOL    HW2  681   0.382   1.330   0.709  1.3570  1.7030 -1.7692
  228SOL     OW  682   0.056   1.637   0.845  0.0734  0.0246  0.7966
  228SOL    HW1  683   3.034   1.666   0.827 -1.5072  1.9347 -0.9425
  228SOL    HW2  684   0.102   1.621   0.757  2.2299  1.1400 -1.0122
  229SOL     OW  685   2.684   0.324   2.982 -0.4401 -0.0611  0.3107
  229SOL    HW1  686   2.710   0.397   3.051  0.0046  1.3271 -1.0191
  229SOL    HW2  687   2.740   0.334   2.897  2.0727  0.4935  0.1128
  230SOL     OW  688   2.251   1.034   0.783  0.4561  0.4643 -0.2495
  230SOL    HW1  689   2.310   1.115   0.762  1.1094  0.1260 -2.2613
  230SOL    HW2  690   2.215   1.036   0.877 -2.0278 -2.0078 -3.0795
  231SOL     OW  691   1.641   1.419   2.887 -0.4681 -0.2919 -0.3693
  231SOL    HW1  692   1.629   1.517   2.855 -0.6043  2.8744 -0.8974
  231SOL    HW2  693   1.683   1.413   2.977 -1.9516  0.9857 -1.7564
  232SOL     OW  694   2.238   2.007   0.844  0.2231  0.0349 -0.2764
  232SOL    HW1  695   2.330   2.013   0.801 -0.7437  1.1804 -0.6148
  232SOL    HW2  696   2.198   2.098   0.855  1.2038 -2.9585 -1.0871
  233SOL     OW  697   0.684   2.651   0.950 -0.1963 -0.5882  0.1136
  233SOL    HW1  698   0.674   2.682   1.047 -0.1429  0.2326 -0.7852
  233SOL    HW2  699   0.605   2.684   0.891 -1.2042  0.6882  1.6010
  234SOL     OW  700   0.673   0.358   2.733 -0.7329 -0.1463 -0.5537
  234SOL    HW1  701   0.771   0.357   2.765  2.5215 -1.2450  0.8382
  234SOL    HW2  702   0.613   0.410   2.794 -1.1438  0.1742 -0.2027
  235SOL     OW  703   2.887   1.067   2.243  0.1314 -0.2240 -0.7244
  235SOL    HW1  704   2.882   0.970   2.264  0.0073  3.5418  1.8878
  235SOL    HW2  705   2.897   1.084   2.142  0.2709  2.2652  1.8976
  236SOL     OW  706   1.547   2.868   1.640  0.1372  0.0600  0.4081
  236SOL    HW1  707   1.445   2.868   1.656  0.7487  0.3271 -0.7049
  236SOL    HW2  708   1.588   2.785   1.589  0.7285  0.2553 -1.7611
  237SOL     OW  709   0.641   1.208   2.591  0.2322 -0.1721  0.7039
  237SOL    HW1  710   0.675   1.286   2.536 -0.8401  2.3409 -0.2893
  237SOL    HW2  711   0.594   1.147   2.527  0.6440  0.1146 -1.7240
  238SOL     OW  712   1.001   0.394   2.386  0.3468 -0.1726 -0.3481
  238SOL    HW1  713   1.060   0.477   2.392  1.3972  0.6909 -1.2459
  238SOL    HW2  714   0.909   0.429   2.425 -0.5078  2.1203 -0.2930
  239SOL     OW  715   0.224   2.321   2.106  0.4229 -0.6655 -0.3121
  239SOL    HW1  716   0.262   2.237   2.060  2.5667 -0.1904  0.2167
  239SOL    HW2  717   0.283   2.333   2.194  0.3332 -2.1662  0.3267
  240SOL     OW  718   2.360   2.968   0.576 -0.5422  0.2846  0.2933
  240SOL    HW1  719   2.278   2.944   0.634  1.2335 -3.2732 -3.1511
  240SOL    HW2  720   2.339   3.056   0.527 -1.3578 -1.9082 -2.6022
  241SOL     OW  721   2.868   0.993   0.361  0.2746  0.3897 -0.6386
  241SOL    HW1  722   2.942   0.968   0.294  0.8030 -3.3378 -3.1355
  241SOL    HW2  723   2.784   1.032   0.317  2.0214  0.7280  0.4147
  242SOL     OW  724   1.697   2.542   1.777 -0.1211 -0.1195 -0.2190
  242SOL    HW1  725   1.756   2.468   1.739 -0.0953 -0.5548  1.1977
  242SOL    HW2  726   1.740   2.588   1.853  1.6807  0.1281  0.9089
  243SOL     OW  727   0.500   2.419   2.004 -0.3703  0.0103  0.6406
  243SOL    HW1  728   0.595   2.387   1.982  1.1161  0.2315  0.1900
  243SOL    HW2  729   0.458   2.363   2.076  0.5887  3.1821 -1.8269
  244SOL     OW  730   2.464   0.480   2.366 -0.3797  0.3098  0.0197
  244SOL    HW1  731   2.505   0.419   2.440  1.6688  0.6522  3.0756
  244SOL    HW2  732   2.398   0.422   2.312 -1.2498  1.0000 -1.2383
  245SOL     OW  733   1.453   3.014   1.044  0.0890  0.1085 -0.6193
  245SOL    HW1  734   1.401   3.047   1.130  0.4301  0.4808  0.8928
  245SOL    HW2  735   1.431   3.070   0.962 -1.1644 -0.8250 -0.5685
  246SOL     OW  736   1.733   2.832   0.443 -0.1960 -0.1853  0.0504
  246SOL    HW1  737   1.739   2.759   0.375  0.5255  2.3343  2.4481
  246SOL    HW2  738   1.681   2.802   0.524  0.1941  0.0389 -0.7402
  247SOL     OW  739   1.434   0.555   2.086 -0.2436 -0.2905 -0.2778
  247SOL    HW1  740   1.424   0.450   2.096 -3.5080 -2.0414 -1.5722
  247SOL    HW2  741   1.529   0.581   2.114 -1.2259 -2.2048 -0.2562
  248SOL     OW  742   3.052   2.217   1.785 -0.4088  1.0346  0.1752
  248SOL    HW1  743   0.029   2.127   1.798  1.8093  0.4761 -0.5689
  248SOL    HW2  744   2.952   2.204   1.807 -0.6543  1.4356  0.6710
  249SOL     OW  745   2.914   0.320   0.193 -0.2055  0.3016 -0.9565
  249SOL    HW1  746   2.991   0.353   0.254 -0.0714  0.6632  0.7571
  249SOL    HW2  747   2.949   0.269   0.113  3.0997  0.4741  0.3178
  250SOL     OW  748   2.654   0.075   2.622 -0.2994 -0.5841 -0.4154
  250SOL    HW1  749   2.745   0.094   2.587 -1.9014  0.4792  0.0771
  250SOL    HW2  750   2.647   0.055   2.723 -0.0558 -1.7597  1.5872
  251SOL     OW  751   1.344   0.651   0.198 -0.1818 -0.2263  0.5745
  251SOL    HW1  752   1.428   0.644   0.255  1.9438  1.8057  1.9555
  251SOL    HW2  753   1.369   0.678   0.105  0.7835 -4.0387  1.0993
  252SOL     OW  754   1.408   2.276   1.960  0.3369 -0.4970 -0.4730
  252SOL    HW1  755   1.375   2.183   1.987  0.3581  2.8005 -2.3008
  252SOL    HW2  756   1.456   2.327   2.035 -1.4684 -1.8385  0.0706
  253SOL     OW  757   2.311   2.719   1.077 -0.0917  0.0859  0.2847
  253SOL    HW1  758   2.355   2.734   1.171  1.9305  2.1253  0.6521
  253SOL    HW2  759   2.375   2.746   1.001 -4.1735  2.4583  3.6503
  254SOL     OW  760   2.418   1.260   0.744  0.1732 -0.1530  0.4677
  254SOL    HW1  761   2.405   1.335   0.675 -0.0099  0.9556 -2.6629
  254SOL    HW2  762   2.373   1.286   0.834 -3.4045  1.0641  3.3966
  255SOL     OW  763   0.861   2.770   1.399  0.2211  0.0691 -0.4277
  255SOL    HW1  764   0.928   2.825   1.356 -3.2027 -2.4536 -1.7954
  255SOL    HW2  765   0.908   2.691   1.449  0.9016 -0.9641 -0.1462
  256SOL     OW  766   1.825   2.228   1.373 -0.1454 -0.3104 -0.3606
  256SOL    HW1  767   1.852   2.190   1.282  0.0193 -2.0619 -0.7961
  256SOL    HW2  768   1.741   2.187   1.405 -0.0318  0.5292  1.1746
  257SOL     OW  769   0.682   2.428   2.494 -0.4461 -0.6574  0.2257
  257SOL    HW1  770   0.639   2.460   2.579  1.4656 -0.5606  2.0780
  257SOL    HW2  771   0.679   2.491   2.413  0.8615 -1.1851 -1.4448
  258SOL     OW  772   0.818   2.560   0.638  0.1758  0.2634  0.0161
  258SOL    HW1  773   0.903   2.602   0.672  0.1916  0.3482 -2.9689
  258SOL    HW2  774   0.770   2.520   0.717 -0.2722  0.4906  0.7640
  259SOL     OW  775   1.520   0.508   2.865 -0.2876 -0.0465 -0.0954
  259SOL    HW1  776   1.522   0.412   2.897 -1.2148 -4.0829  1.0118
  259SOL    HW2  777   1.461   0.518   2.784  4.6817 -1.4659  1.3731
  260SOL     OW  778   2.968   1.036   1.000 -0.0923 -0.4777  0.0055
  260SOL    HW1  779   2.980   1.134   1.033 -1.1865  0.4711  1.5031
  260SOL    HW2  780   3.008   0.974   1.068  2.3709  0.1460 -0.3656
  261SOL     OW  781   0.741   0.388   2.473 -0.0299 -0.0748  0.8738
  261SOL    HW1  782   0.711   0.390   2.567  0.5551  2.6747 -0.0587
  261SOL    HW2  783   0.737   0.293   2.436  0.0249  0.6479 -0.4977
  262SOL     OW  784   1.128   2.287   2.170  0.4445 -0.4314  0.6637
  262SOL    HW1  785   1.042   2.336   2.167  0.3976  0.6791 -1.2656
  262SOL    HW2  786   1.146   2.231   2.090 -0.6835 -0.4701  1.3076
  263SOL     OW  787   0.574   2.109   3.002  0.3679  0.3099  0.1498
  263SOL    HW1  788   0.641   2.126   3.076 -1.3514  1.7905  2.5800
  263SOL    HW2  789   0.527   2.018   3.013 -0.7903  0.7270 -1.3199
  264SOL     OW  790   0.911   1.390   1.101 -0.8354 -0.5484 -0.3432
  264SOL    HW1  791   0.926   1.395   1.002  0.4011  1.6482  1.1898
  264SOL    HW2  792   0.990   1.343   1.141  0.0958  0.2259 -0.2106
  265SOL     OW  793   1.167   2.298   0.531  0.2293 -0.0995  0.1055
  265SOL    HW1  794   1.237   2.228   0.511 -0.9982 -1.7936 -0.2801
  265SOL    HW2  795   1.196   2.386   0.559 -1.4912 -2.6476 -0.3127
  266SOL     OW  796   2.410   0.594   0.973  0.0139  0.0732 -0.3074
  266SOL    HW1  797   2.508   0.612   0.969  0.5400 -0.0409  1.1327
  266SOL    HW2  798   2.361   0.665   0.921  0.2729  0.0528  2.0920
  267SOL     OW  799   2.913   1.345   2.716 -0.5274 -0.0794  0.2550
  267SOL    HW1  800   3.004   1.384   2.750  1.7084  2.0451  0.2218
  267SOL    HW2  801   2.924   1.259   2.669  0.5314  1.3826 -0.2730
  268SOL     OW  802   1.520   0.045   0.184 -0.0313 -0.7591 -0.3196
  268SOL    HW1  803   1.582   0.021   0.265 -1.7850  0.8203  1.6024
  268SOL    HW2  804   1.553   0.128   0.136 -1.3002  1.2069  1.6884
  269SOL     OW  805   2.984   0.818   2.514 -0.1240  0.5656 -0.2137
  269SOL    HW1  806   2.954   0.797   2.421  1.4542  1.7842  1.9756
  269SOL    HW2  807   3.031   0.736   2.545 -0.5963  1.2275  0.9723
  270SOL     OW  808   3.004   1.283   0.010 -0.3613 -0.2228 -0.2569
  270SOL    HW1  809   3.005   1.257   0.113 -2.4388  1.8395  1.4397
  270SOL    HW2  810   3.009   1.200   3.027 -2.0413  2.7835  0.2104
  271SOL     OW  811   2.577   1.580   2.423  0.3398  0.7433 -0.5036
  271SOL    HW1  812   2.539   1.616   2.510  0.7893  1.9896 -0.1192
  271SOL    HW2  813   2.548   1.481   2.408 -3.4645 -3.0160 -0.5078
  272SOL     OW  814   2.593   2.498   1.895  0.2811 -0.1951 -0.4600
  272SOL    HW1  815   2.543   2.551   1.820 -1.2552 -2.6138  0.3623
  272SOL    HW2  816   2.650   2.556   1.953  1.5455 -1.3021 -1.0729
  273SOL     OW  817   0.364   2.492   0.097  0.4780  0.0500 -0.5079
  273SOL    HW1  818   0.387   2.592   0.115  1.3713 -0.3591 -1.1574
  273SOL    HW2  819   0.274   2.486   0.049 -1.0713  2.1392 -1.6874
  274SOL     OW  820   0.877   2.298   1.065 -0.0094 -0.1289 -0.0092
  274SOL    HW1  821   0.977   2.310   1.069  0.6946 -0.1485 -2.3463
  274SOL    HW2  822   0.849   2.202   1.072 -2.4839  2.1468 -0.4364
  275SOL     OW  823   2.301   1.591   0.084 -0.3553 -0.2231  0.2861
  275SOL    HW1  824   2.299   1.684   0.042 -0.4567  3.1249 -1.1908
  275SOL    HW2  825   2.308   1.527   0.009  0.8266 -0.4637 -0.4603
  276SOL     OW  826   2.480   1.693   1.254  0.2176  0.0613 -0.6714
  276SOL    HW1  827   2.451   1.712   1.352 -0.8891  0.9412  2.1948
  276SOL    HW2  828   2.573   1.654   1.257  2.8405 -1.0081  0.4207
  277SOL     OW  829   2.249   0.228   0.729 -1.0250  0.3755 -0.3658
  277SOL    HW1  830   2.182   0.299   0.755  1.1549 -1.2690  1.9448
  277SOL    HW2  831   2.222   0.185   0.640  2.5857  0.4933 -1.1270
  278SOL     OW  832   1.772   0.431   2.585  0.2905  0.0259 -0.2060
  278SOL    HW1  833   1.736   0.518   2.625 -2.6736 -0.6843 -0.1194
  278SOL    HW2  834   1.699   0.360   2.599 -1.8972 -2.9552 -0.6720
  279SOL     OW  835   1.339   2.540   1.349 -0.4762  0.0125  0.0865
  279SOL    HW1  836   1.436   2.567   1.364  0.9529  0.3626 -1.9907
  279SOL    HW2  837   1.284   2.616   1.318  0.5701 -4.4276  4.6061
  280SOL     OW  838   1.146   0.865   0.577  0.3528  0.5425  0.2865
  280SOL    HW1  839   1.053   0.825   0.557 -3.4927  1.7638  3.5059
  280SOL    HW2  840   1.143   0.958   0.621 -1.9386 -2.5200  0.6093
  281SOL     OW  841   2.503   1.685   2.661  0.1920  0.5463  0.6566
  281SOL    HW1  842   2.563   1.740   2.718 -0.4759 -0.5583 -1.2886
  281SOL    HW2  843   2.406   1.708   2.683  0.7747  2.3221 -1.4541
  282SOL     OW  844   2.760   1.404   0.046  0.4175  0.0705 -0.5493
  282SOL    HW1  845   2.725   1.414   0.142 -2.5181  1.2027  0.3200
  282SOL    HW2  846   2.854   1.367   0.044  0.8206 -0.5538 -1.0450
  283SOL     OW  847   1.616   2.894   2.646 -0.2422  0.0189 -0.1688
  283SOL    HW1  848   1.584   2.810   2.598  0.1947  2.6411  0.5479
  283SOL    HW2  849   1.570   2.898   2.738  0.4951  2.2276 -1.3282
  284SOL     OW  850   0.725   0.073   0.005  0.1430  0.6199  0.2940
  284SOL    HW1  851   0.733   0.172   3.074 -0.6085 -1.4890  2.0012
  284SOL    HW2  852   0.813   0.025   3.059  0.7778  1.6503 -0.7276
  285SOL     OW  853   1.903   2.020   2.488  0.0941  0.3430  0.2209
  285SOL    HW1  854   1.953   2.028   2.401 -1.2354  3.0829  1.0566
  285SOL    HW2  855   1.922   2.106   2.539  2.3045 -2.2343 -1.9056
  286SOL     OW  856   1.187   1.888   0.802  0.1077 -0.0183  0.0520
  286SOL    HW1  857   1.108   1.949   0.802 -0.6007 -0.7324  1.7688
  286SOL    HW2  858   1.187   1.833   0.888  2.9856 -0.1240  1.1929
  287SOL     OW  859   1.737   0.422   1.479 -0.3862 -0.2141 -0.3885
  287SOL    HW1  860   1.747   0.350   1.548  0.1380  1.9172 -2.4643
  287SOL    HW2  861   1.766   0.509   1.512 -0.7183 -0.1347  1.2519
  288SOL     OW  862   0.708   2.611   2.266 -0.0447  0.5462  0.7814
  288SOL    HW1  863   0.734   2.685   2.333 -0.4292  0.7933 -0.1122
  288SOL    HW2  864   0.657   2.646   2.185 -0.5285 -0.3772 -2.4095
  289SOL     OW  865   0.210   1.051   0.975  0.5579  0.5495 -0.1008
  289SOL    HW1  866   0.225   1.147   0.996 -0.7119 -2.4356  1.3887
  289SOL    HW2  867   0.153   1.014   1.049 -2.1390  2.3418 -0.1306
  290SOL     OW  868   1.138   1.995   1.380 -0.2306  0.5183 -1.0040
  290SOL    HW1  869   1.079   2.007   1.303 -0.2934 -0.4480 -0.3229
  290SOL    HW2  870   1.137   1.895   1.407  0.5280 -2.8651 -0.7326
  291SOL     OW  871   1.994   2.880   0.600 -0.3128  0.2898  0.5942
  291SOL    HW1  872   1.962   2.955   0.650  0.8591 -1.5987  0.8679
  291SOL    HW2  873   1.913   2.840   0.547  0.3611 -1.2893  2.1652
  292SOL     OW  874   0.491   0.469   1.575 -0.0933 -0.0670  0.7591
  292SOL    HW1  875   0.464   0.487   1.478 -0.6532  0.3366 -1.0704
  292SOL    HW2  876   0.423   0.511   1.643 -0.4517  1.6375  2.4884
  293SOL     OW  877   2.293   1.635   0.889 -0.8891  0.3810  0.1778
  293SOL    HW1  878   2.384   1.679   0.881  4.0440 -1.4180 -2.2042
  293SOL    HW2  879   2.251   1.630   0.794 -3.0570 -2.2194  2.7123
  294SOL     OW  880   0.853   0.239   2.220 -0.2405 -0.6248  0.3255
  294SOL    HW1  881   0.925   0.274   2.285 -1.4934 -2.3425 -2.7201
  294SOL    HW2  882   0.795   0.171   2.258  2.2857  0.3578 -3.4643
  295SOL     OW  883   0.847   1.286   0.587  0.7487 -0.1014 -0.1703
  295SOL    HW1  884   0.903   1.361   0.632  1.9061  2.3356  0.0525
  295SOL    HW2  885   0.795   1.228   0.654  0.7247  1.7801  1.5454
  296SOL     OW  886   2.031   1.893   1.004  0.0981 -0.0250 -0.0604
  296SOL    HW1  887   1.981   1.809   0.975  0.4271  0.2458  0.5309
  296SOL    HW2  888   2.101   1.927   0.941  2.5623 -3.6952  1.9299
  297SOL     OW  889   2.006   0.278   2.792  0.3396 -0.3901  0.2276
  297SOL    HW1  890   2.023   0.276   2.692  3.1590  0.8981  1.2089
  297SOL    HW2  891   2.015   0.370   2.826 -2.4591 -3.2935 -2.0499
  298SOL     OW  892   1.267   0.091   2.614  0.2743  0.1325  0.6079
  298SOL    HW1  893   1.330   0.041   2.551 -0.9169  0.9129  0.3085
  298SOL    HW2  894   1.304   0.109   2.706 -0.2529 -2.2926 -2.3544
  299SOL     OW  895   1.217   0.046   2.132  0.0166 -0.2064 -0.4009
  299SOL    HW1  896   1.178   0.110   2.204 -0.4550  1.7567 -1.5165
  299SOL    HW2  897   1.256   3.045   2.181 -0.6744  4.5926 -1.9082
  300SOL     OW  898   2.600   0.150   1.565 -0.0085 -0.1751 -0.4020
  300SOL    HW1  899   2.691   0.136   1.609 -1.3002  3.5357 -1.8637
  300SOL    HW2  900   2.554   0.223   1.621 -1.6555 -1.4393  0.5654
  301SOL     OW  901   2.447   0.328   1.670  0.6569  0.5398 -0.3001
  301SOL    HW1  902   2.452   0.401   1.743  0.8987 -0.7724 -1.0424
  301SOL    HW2  903   2.435   0.376   1.579  0.3488  2.4464 -0.6769
  302SOL     OW  904   0.884   2.665   0.162 -0.0231  0.0291 -0.1231
  302SOL    HW1  905   0.955   2.653   0.232  0.8031  1.0016 -0.1906
  302SOL    HW2  906   0.813   2.728   0.190  1.8136  0.8070 -3.2405
  303SOL     OW  907   1.595   1.906   1.592  0.8348  0.6656 -0.4100
  303SOL    HW1  908   1.515   1.959   1.559 -0.4457  3.7277  1.0178
  303SOL    HW2  909   1.677   1.929   1.537 -2.3781  0.0898  0.8710
  304SOL     OW  910   0.557   0.389   0.895  0.2239  0.1364  0.5304
  304SOL    HW1  911   0.527   0.353   0.987  0.2117  0.8834 -2.3669
  304SOL    HW2  912   0.540   0.491   0.894  2.1626  1.5371  1.5686
  305SOL     OW  913   0.889   0.614   0.830 -0.0183 -0.4360 -0.0965
  305SOL    HW1  914   0.897   0.592   0.930  1.7731 -2.9273  2.0800
  305SOL    HW2  915   0.981   0.617   0.796 -4.4535  0.6352  0.9725
  306SOL     OW  916   0.493   1.132   2.816 -0.0803  0.3140  0.3963
  306SOL    HW1  917   0.545   1.160   2.732 -3.6819  3.1740  0.4927
  306SOL    HW2  918   0.548   1.162   2.899 -1.7768 -0.1317  2.0053
  307SOL     OW  919   1.046   0.248   1.934 -0.0740 -0.5369 -0.5283
  307SOL    HW1  920   1.117   0.265   1.867 -0.3470  1.6626  0.8216
  307SOL    HW2  921   1.092   0.220   2.020 -0.1888 -1.8150  1.1381
  308SOL     OW  922   0.811   0.273   0.852 -0.1706  0.5564 -0.5602
  308SOL    HW1  923   0.728   0.323   0.875  3.8823 -2.4847  1.0327
  308SOL    HW2  924   0.857   0.304   0.767 -3.3703 -1.7328  1.4404
  309SOL     OW  925   2.330   0.972   0.404  0.2651  0.3678 -0.2458
  309SOL    HW1  926   2.247   0.973   0.465 -1.4731 -0.3859  2.4391
  309SOL    HW2  927   2.380   0.881   0.419  0.8196 -0.3041  1.7018
  310SOL     OW  928   0.954   1.389   2.888 -0.1241 -0.0486 -0.7748
  310SOL    HW1  929   1.040   1.427   2.848 -3.9242 -3.4390 -1.8739
  310SOL    HW2  930   0.970   1.368   2.985  3.0906 -0.4529 -0.5042
  311SOL     OW  931   2.045   2.533   2.022 -0.2749 -0.8528 -0.2148
  311SOL    HW1  932   2.029   2.566   1.930  0.4353 -0.7398  0.1921
  311SOL    HW2  933   2.062   2.613   2.083 -1.5401 -1.2660  1.7718
  312SOL     OW  934   2.193   2.530   2.965  0.1835 -0.8653 -0.3721
  312SOL    HW1  935   2.133   2.450   3.004 -3.6243 -1.6495 -0.3967
  312SOL    HW2  936   2.134   2.596   2.912 -0.5114  1.1836 -0.6813
  313SOL     OW  937   0.445   0.316   3.061 -0.0133 -0.3511  0.2213
  313SOL    HW1  938   0.462   0.409   3.024  0.1818 -0.6756  0.3080
  313SOL    HW2  939   0.439   0.254   2.980 -2.5609 -0.6196  1.5754
  314SOL     OW  940   2.476   1.413   2.732 -0.2876  0.3899  0.3050
  314SOL    HW1  941   2.565   1.365   2.762  1.7614 -2.5207  0.5894
  314SOL    HW2  942   2.490   1.509   2.697  0.8109  0.3045  1.1574
  315SOL     OW  943   1.873   0.462   2.339  0.5236 -0.4944 -0.2495
  315SOL    HW1  944   1.819   0.448   2.424  0.2980 -1.8399  1.2676
  315SOL    HW2  945   1.944   0.528   2.356 -0.6100  0.0319  2.8614
  316SOL     OW  946   3.030   1.049   0.585  0.3284  0.3115  0.4945
  316SOL    HW1  947   2.997   0.987   0.665  2.1706 -0.5303  1.5895
  316SOL    HW2  948   2.994   1.013   0.496 -1.0963  0.3133  1.5812
  317SOL     OW  949   0.687   2.849   0.254 -0.1734 -0.3626 -0.0376
  317SOL    HW1  950   0.679   2.819   0.350  0.7672 -0.3444 -0.4823
  317SOL    HW2  951   0.598   2.872   0.212 -0.1533  0.7923  0.3247
  318SOL     OW  952   1.891   2.529   1.294 -0.0446 -0.0080  0.0208
  318SOL    HW1  953   1.945   2.544   1.381  1.0796  1.1250  0.3914
  318SOL    HW2  954   1.942   2.577   1.218 -0.5914 -0.4176 -0.1971
  319SOL     OW  955   1.332   1.593   0.192  0.9295  0.3934  0.4483
  319SOL    HW1  956   1.388   1.630   0.271  0.8539  1.0799  1.5271
  319SOL    HW2  957   1.235   1.637   0.188 -4.4674 -1.2209  2.5193
  320SOL     OW  958   0.504   1.672   0.850  0.1980  0.1523 -0.0191
  320SOL    HW1  959   0.495   1.774   0.837 -0.2977  1.5192 -0.7671
  320SOL    HW2  960   0.475   1.627   0.764  0.7031 -0.0513 -1.4976
  321SOL     OW  961   2.038   2.728   1.807  0.4740 -0.3434  0.2001
  321SOL    HW1  962   2.137   2.739   1.830  1.3072 -1.1969 -1.7087
  321SOL    HW2  963   1.992   2.823   1.815 -3.2196  2.2633  2.5510
  322SOL     OW  964   2.002   2.077   2.241 -0.3711 -0.4576 -0.5364
  322SOL    HW1  965   1.933   2.151   2.230  0.5536  0.2150  1.3752
  322SOL    HW2  966   1.982   1.994   2.188 -0.4065  2.6551  0.3886
  323SOL     OW  967   2.512   0.280   0.655 -0.2025 -0.2137 -0.0497
  323SOL    HW1  968   2.410   0.257   0.662 -0.9301  0.9208  0.9784
  323SOL    HW2  969   2.540   0.319   0.566 -1.0637  1.9716  1.0625
  324SOL     OW  970   2.684   2.342   2.358  0.3094 -0.4318 -0.1175
  324SOL    HW1  971   2.700   2.248   2.329 -0.3675  1.3004 -1.3046
  324SOL    HW2  972   2.709   2.353   2.457  0.2008  2.9057 -0.0387
  325SOL     OW  973   1.289   0.591   2.700  0.3065  0.3272  0.4876
  325SOL    HW1  974   1.242   0.679   2.678  0.0653 -0.6768 -1.1163
  325SOL    HW2  975   1.250   0.548   2.783  2.0111  0.0747 -0.7559
  326SOL     OW  976   2.631   2.233   0.972  0.7575 -0.3861  0.3829
  326SOL    HW1  977   2.700   2.164   0.944 -0.7977 -0.1046  0.1674
  326SOL    HW2  978   2.554   2.237   0.905  3.9190  0.9613  1.0472
  327SOL     OW  979   2.527   2.847   0.228  0.1797  0.2294  0.0832
  327SOL    HW1  980   2.526   2.826   0.128  0.6480  1.3301  0.0240
  327SOL    HW2  981   2.532   2.948   0.240 -2.2356 -1.2228  1.7638
  328SOL     OW  982   0.656   0.662   1.149  0.4780  0.8838 -0.0704
  328SOL    HW1  983   0.669   0.633   1.248 -0.8627 -0.6909 -0.9383
  328SOL    HW2  984   0.742   0.706   1.122 -1.6681 -2.4977 -0.6400
  329SOL     OW  985   2.050   0.456   1.338  0.4850 -0.2112 -0.6568
  329SOL    HW1  986   2.089   0.492   1.427  1.0136 -0.7802  0.5090
  329SOL    HW2  987   2.131   0.420   1.286  1.1030  1.9259  1.2721
  330SOL     OW  988   0.630   0.532   0.524  0.7479  0.1646  0.3121
  330SOL    HW1  989   0.688   0.610   0.490  0.2816  0.5037  2.6953
  330SOL    HW2  990   0.656   0.442   0.486 -1.0469  1.1652 -1.4630
  331SOL     OW  991   0.774   2.002   1.694 -0.1997  0.3761 -0.3893
  331SOL    HW1  992   0.701   2.037   1.758 -1.1281  0.5313 -0.9355
  331SOL    HW2  993   0.795   2.073   1.623  1.3063  0.7837 -0.2718
  332SOL     OW  994   2.279   2.504   1.833  0.3193  0.5058 -0.6778
  332SOL    HW1  995   2.274   2.442   1.917  0.8598 -1.1078  0.9944
  332SOL    HW2  996   2.282   2.600   1.865  2.0824 -0.6999  1.7076
  333SOL     OW  997   0.049   0.068   0.920  0.1868  0.3699  0.5797
  333SOL    HW1  998   0.107   0.136   0.978  1.8006  3.9226  2.5871
  333SOL    HW2  999   3.033   0.055   0.965  1.2214 -0.2570 -0.3514
  334SOL     OW 1000   2.978   1.463   0.502 -0.6336 -0.9725 -0.5165
  334SOL    HW1 1001   2.883   1.427   0.492  1.5698  1.1651 -1.6498
  334SOL    HW2 1002   3.017   1.419   0.584 -2.4651 -1.2112 -3.1873
  335SOL     OW 1003   0.537   2.540   2.703  0.1558  0.1758 -0.6246
  335SOL    HW1 1004   0.554   2.594   2.784 -2.8487 -0.1034 -2.0044
  335SOL    HW2 1005   0.438   2.548   2.665 -1.1437 -0.8631 -0.2018
  336SOL     OW 1006   3.044   2.873   2.106 -0.4590  0.1890 -0.1923
  336SOL    HW1 1007   3.008   2.829   2.194  0.0339  1.9048  0.1595
  336SOL    HW2 1008   3.042   2.974   2.127 -0.4786 -0.0337  0.2623
  337SOL     OW 1009   1.238   1.970   1.756  0.9245 -0.2330  0.1561
  337SOL    HW1 1010   1.146   1.935   1.784 -0.2612  0.4296 -0.9757
  337SOL    HW2 1011   1.292   1.987   1.840  0.5640 -0.5896 -1.7638
  338SOL     OW 1012   0.994   0.055   2.607  0.1024  0.2291  0.8492
  338SOL    HW1 1013   0.967   0.039   2.505 -0.7818  0.1991  0.1655
  338SOL    HW2 1014   1.098   0.053   2.607  0.8050 -2.2483 -1.8393
  339SOL     OW 1015   0.322   0.871   2.487 -0.0679  0.3299 -0.3194
  339SOL    HW1 1016   0.331   0.929   2.407  0.4851 -1.6610  0.7233
  339SOL    HW2 1017   0.239   0.895   2.539  1.3074 -2.0661 -3.0572
  340SOL     OW 1018   2.273   0.371   1.248 -0.4875 -0.9040  0.0255
  340SOL    HW1 1019   2.290   0.361   1.147  3.5584  0.7809 -2.1932
  340SOL    HW2 1020   2.316   0.301   1.312 -0.2125  0.2414  1.4421
  341SOL     OW 1021   2.301   1.366   0.981  0.3158 -0.4312  0.7327
  341SOL    HW1 1022   2.320   1.462   0.952  2.3086 -0.9743  0.3734
  341SOL    HW2 1023   2.314   1.362   1.083  1.6654  1.3852  1.0767
  342SOL     OW 1024   2.063   2.691   2.799 -0.3443 -0.2046  0.5999
  342SOL    HW1 1025   2.058   2.788   2.810  1.6627 -0.4894  0.8051
  342SOL    HW2 1026   1.973   2.662   2.758 -1.2490  2.2942 -0.6002
  343SOL     OW 1027   0.103   2.437   1.103 -0.0374 -0.0872 -0.1706
  343SOL    HW1 1028   0.126   2.364   1.172 -1.4409 -0.2652 -0.4443
  343SOL    HW2 1029   0.183   2.440   1.041 -1.0700 -0.7086  1.5217
  344SOL     OW 1030   2.430   2.805   1.327  0.0159 -0.0842  0.0541
  344SOL    HW1 1031   2.475   2.718   1.359  0.1434  2.5727 -1.6051
  344SOL    HW2 1032   2.364   2.846   1.394 -0.5281  1.4642 -0.7906
  345SOL     OW 1033   2.377   2.183   0.354 -0.1594  0.4647  0.0800
  345SOL    HW1 1034   2.469   2.149   0.320  1.8821 -1.8014  0.4945
  345SOL    HW2 1035   2.385   2.273   0.406 -0.6160  1.1198  2.6206
  346SOL     OW 1036   1.587   2.218   1.478  0.0193  0.0190 -0.5181
  346SOL    HW1 1037   1.493   2.174   1.479 -0.6930 -0.9970 -0.5096
  346SOL    HW2 1038   1.592   2.260   1.565 -0.9198 -1.0539 -1.6089
  347SOL     OW 1039   0.889   1.834   1.348  0.4959  0.8091  0.1744
  347SOL    HW1 1040   0.941   1.797   1.429 -0.7772 -2.2702 -0.6279
  347SOL    HW2 1041   0.881   1.762   1.274 -2.8404 -1.4545  0.7407
  348SOL     OW 1042   0.294   2.091   1.987 -0.3442 -0.4791 -0.5210
  348SOL    HW1 1043   0.381   2.040   1.978 -3.0919 -1.6176  0.7542
  348SOL    HW2 1044   0.219   2.057   1.929 -1.0183  1.0594  1.9056
  349SOL     OW 1045   1.482   1.654   1.593  0.2031  0.0052 -0.2886
  349SOL    HW1 1046   1.467   1.641   1.695 -0.5367  0.2481  0.1671
  349SOL    HW2 1047   1.551   1.733   1.583  0.0950  2.3820 -1.5285
  350SOL     OW 1048   2.097   2.348   0.453  0.0098  0.0485 -0.2285
  350SOL    HW1 1049   2.089   2.334   0.350  0.5962  1.2078 -3.5891
  350SOL    HW2 1050   2.196   2.379   0.469 -0.5853  1.4717  2.7138
  351SOL     OW 1051   0.541   2.965   1.743  0.2285 -0.1829 -0.6609
  351SOL    HW1 1052   0.570   3.038   1.816 -0.8524  0.7921  2.9450
  351SOL    HW2 1053   0.594   2.963   1.658 -2.1890  1.3681  1.0448
  352SOL     OW 1054   0.718   0.832   0.829  0.2394 -1.1397 -0.0400
  352SOL    HW1 1055   0.795   0.900   0.861  1.6424  1.8351 -1.6678
  352SOL    HW2 1056   0.772   0.745   0.809 -0.1351 -0.3457 -0.3662
  353SOL     OW 1057   1.192   1.892   2.672  0.5611  0.2898 -0.2162
  353SOL    HW1 1058   1.159   1.939   2.590 -1.1906  1.2674  0.9128
  353SOL    HW2 1059   1.131   1.814   2.680  1.1737  0.8681  1.1628
  354SOL     OW 1060   1.764   2.694   2.018  0.0360  0.1041  0.2319
  354SOL    HW1 1061   1.832   2.733   2.084 -0.2526 -1.1845 -1.5738
  354SOL    HW2 1062   1.729   2.766   1.958 -0.3705 -0.1374  0.9994
  355SOL     OW 1063   2.019   1.240   0.269  0.3069  0.1101 -0.1717
  355SOL    HW1 1064   2.049   1.333   0.302 -0.8170  2.4086  0.2624
  355SOL    HW2 1065   1.998   1.247   0.170 -0.5568  0.4789  0.5216
  356SOL     OW 1066   0.312   1.884   1.109 -0.3491  0.5180  0.4415
  356SOL    HW1 1067   0.320   1.780   1.099  1.6125 -3.8889 -0.4413
  356SOL    HW2 1068   0.217   1.915   1.139 -1.4552 -2.8313  0.7309
  357SOL     OW 1069   0.135   2.892   1.275 -0.2650  0.3320 -0.0678
  357SOL    HW1 1070   0.074   2.969   1.286 -1.2898 -0.8690  1.3882
  357SOL    HW2 1071   0.197   2.912   1.198  4.1181  2.4416 -0.0848
  358SOL     OW 1072   2.096   1.796   1.358  0.0092  0.1029  0.0846
  358SOL    HW1 1073   2.143   1.883   1.394  0.6925  1.3741  3.3855
  358SOL    HW2 1074   2.133   1.766   1.266  1.8710  0.2008 -0.8013
  359SOL     OW 1075   2.367   2.883   2.811 -0.0393  0.2420 -0.2507
  359SOL    HW1 1076   2.310   2.905   2.886  2.2134 -0.3922 -0.9913
  359SOL    HW2 1077   2.364   2.780   2.800 -0.5507 -1.3890  1.0772
  360SOL     OW 1078   0.919   2.757   0.852 -0.4302  0.2869  0.7366
  360SOL    HW1 1079   0.834   2.716   0.892  3.0703 -0.7607  0.5108
  360SOL    HW2 1080   1.008   2.700   0.861  3.8413 -1.5891  2.0472
  361SOL     OW 1081   1.781   0.418   0.503  0.0882  0.1411  0.3161
  361SOL    HW1 1082   1.819   0.475   0.426  0.3790  1.3315 -0.4601
  361SOL    HW2 1083   1.793   0.472   0.589 -1.8521  1.3852  1.3019
  362SOL     OW 1084   1.269   0.931   1.079  0.2755 -0.0925  0.0459
  362SOL    HW1 1085   1.258   0.835   1.110  1.3558  2.7503 -0.7426
  362SOL    HW2 1086   1.352   0.973   1.124  2.3592 -1.4530 -2.0747
  363SOL     OW 1087   2.359   1.483   2.141 -0.6876 -0.4933  0.0218
  363SOL    HW1 1088   2.289   1.507   2.212 -0.4739 -0.0106 -0.8713
  363SOL    HW2 1089   2.313   1.489   2.053  2.1865 -0.3641  1.6275
  364SOL     OW 1090   0.547   0.816   1.462 -0.4863  0.3870  0.3128
  364SOL    HW1 1091   0.558   0.859   1.368  1.4938  0.4635 -0.3098
  364SOL    HW2 1092   0.583   0.719   1.462 -0.4138  0.6066  2.6376
  365SOL     OW 1093   0.621   0.137   2.354  0.3530  0.2556 -0.4346
  365SOL    HW1 1094   0.571   0.136   2.444  0.2752 -1.4641 -0.7864
  365SOL    HW2 1095   0.604   0.053   2.302  1.5988  2.1211  0.2638
  366SOL     OW 1096   2.279   2.172   2.291 -0.1082  0.4841  0.0407
  366SOL    HW1 1097   2.187   2.137   2.263  0.1608 -0.1360 -0.4524
  366SOL    HW2 1098   2.313   2.124   2.372 -2.4772 -2.7234 -2.4634
  367SOL     OW 1099   2.726   2.518   0.043  0.3606 -0.4731  0.3013
  367SOL    HW1 1100   2.742   2.557   0.139  1.3660  1.2095  1.8146
  367SOL    HW2 1101   2.778   2.563   3.045  0.0655 -1.8500  0.9709
  368SOL     OW 1102   2.755   1.361   1.064 -0.5683 -0.5983 -0.2483
  368SOL    HW1 1103   2.718   1.375   1.160 -1.7245 -1.3268  2.5316
  368SOL    HW2 1104   2.711   1.422   0.994 -0.2023 -1.3221 -0.2622
  369SOL     OW 1105   0.842   2.751   2.455 -0.4129 -0.1102 -0.6208
  369SOL    HW1 1106   0.828   2.848   2.472 -1.5012 -2.6837 -2.1843
  369SOL    HW2 1107   0.937   2.728   2.488 -0.5114 -1.5933 -2.5036
  370SOL     OW 1108   2.754   0.145   0.335  0.2610 -0.1922  0.4780
  370SOL    HW1 1109   2.823   0.207   0.290  2.9075  0.2627  0.1605
  370SOL    HW2 1110   2.688   0.210   0.378  0.7141  1.0008  1.8723
  371SOL     OW 1111   1.374   2.016   1.128 -0.0139 -0.7410  0.2249
  371SOL    HW1 1112   1.373   2.112   1.164 -1.7730 -0.5018 -0.0863
  371SOL    HW2 1113   1.295   2.004   1.070  2.8578 -0.2889 -1.4200
  372SOL     OW 1114   0.068   0.584   2.550 -0.0696  0.2728 -0.3323
  372SOL    HW1 1115   3.062   0.529   2.569 -2.2792 -0.3989 -0.7045
  372SOL    HW2 1116   0.157   0.537   2.578  1.5081 -3.4556  0.1551
  373SOL     OW 1117   2.875   2.028   1.133 -0.2538 -0.0932 -1.2090
  373SOL    HW1 1118   2.874   2.059   1.036  0.5411  0.0005 -1.5266
  373SOL    HW2 1119   2.807   2.078   1.192 -0.5161 -2.9429 -0.0977
  374SOL     OW 1120   0.460   2.908   2.453 -0.3749 -0.1189 -0.4248
  374SOL    HW1 1121   0.505   2.933   2.544  1.4629 -0.9088  3.2216
  374SOL    HW2 1122   0.526   2.918   2.377 -2.3702 -1.3071 -1.1673
  375SOL     OW 1123   0.588   0.122   2.624 -0.1849  0.8015 -0.5650
  375SOL    HW1 1124   0.602   0.030   2.662 -0.7509  2.4144 -1.6863
  375SOL    HW2 1125   0.631   0.194   2.683  1.7322  1.5123  0.8789
  376SOL     OW 1126   2.813   2.126   1.846 -0.2420  0.0771 -0.1944
  376SOL    HW1 1127   2.803   2.022   1.863  0.4849 -4.1526 -0.2376
  376SOL    HW2 1128   2.725   2.168   1.818 -1.4568 -1.2343  0.4524
  377SOL     OW 1129   1.680   2.504   2.913 -0.6718 -0.0403 -0.2643
  377SOL    HW1 1130   1.706   2.592   2.941 -0.5239 -3.6609 -1.7517
  377SOL    HW2 1131   1.599   2.502   2.854  1.3342 -0.3531  1.1958
  378SOL     OW 1132   0.038   0.360   2.298 -0.1356 -0.0233 -0.0240
  378SOL    HW1 1133   0.119   0.372   2.354 -1.9706 -1.5835  1.0351
  378SOL    HW2 1134   3.034   0.368   2.358 -0.4919 -1.1450 -0.2791
  379SOL     OW 1135   0.368   0.841   0.457 -0.5673  0.0324  0.1614
  379SOL    HW1 1136   0.348   0.943   0.477 -1.9718  0.9516  0.3954
  379SOL    HW2 1137   0.407   0.795   0.539  0.0417  4.1203 -2.3394
  380SOL     OW 1138   0.275   1.557   1.937 -0.0798 -0.0588 -0.7671
  380SOL    HW1 1139   0.341   1.500   1.891 -0.8706  0.7891 -0.0604
  380SOL    HW2 1140   0.313   1.605   2.022  1.2519  2.0496  1.0409
  381SOL     OW 1141   0.565   1.107   1.987  0.0664  0.2219 -0.3819
  381SOL    HW1 1142   0.547   1.022   2.045 -0.2455 -1.3232  3.0308
  381SOL    HW2 1143   0.606   1.077   1.899 -0.4349  0.4079  3.6362
  382SOL     OW 1144   2.277   1.965   0.481  0.0700  0.2877 -0.3061
  382SOL    HW1 1145   2.303   2.051   0.432 -1.7423 -0.7896 -0.0894
  382SOL    HW2 1146   2.211   1.909   0.433  2.9382  3.3412  1.3592
  383SOL     OW 1147   0.468   1.865   3.028  0.2944  0.5552 -0.3279
  383SOL    HW1 1148   0.465   1.820   0.044 -1.7112 -0.5727 -1.6215
  383SOL    HW2 1149   0.534   1.821   2.962  0.7269 -0.8645  0.4469
  384SOL     OW 1150   0.869   2.175   2.711 -0.1873  0.5220 -0.3910
  384SOL    HW1 1151   0.849   2.079   2.664 -2.2217 -5.2296 -2.1751
  384SOL    HW2 1152   0.784   2.230   2.724  2.0354  1.6904  1.0720
  385SOL     OW 1153   2.060   2.076   0.602 -0.9021  0.1516 -0.4285
  385SOL    HW1 1154   2.151   2.050   0.576  0.0926 -0.9468 -0.6246
  385SOL    HW2 1155   2.045   2.177   0.587  2.0548 -2.9783  0.0013
  386SOL     OW 1156   2.132   0.896   1.458 -0.4976 -0.3565  0.3239
  386SOL    HW1 1157   2.219   0.934   1.422 -1.0148 -2.7465  0.5969
  386SOL    HW2 1158   2.137   0.901   1.558  2.3491  0.2625  1.3829
  387SOL     OW 1159   2.734   1.320   2.047 -0.0247  0.1078  0.6643
  387SOL    HW1 1160   2.780   1.390   2.097 -1.2592 -0.5038  0.9016
  387SOL    HW2 1161   2.799   1.244   2.024 -1.6945  2.8428  0.0001
  388SOL     OW 1162   0.402   1.677   2.132  0.5164  0.3776 -0.4137
  388SOL    HW1 1163   0.497   1.704   2.113 -1.3611  0.1467 -0.1269
  388SOL    HW2 1164   0.345   1.753   2.169 -0.5102  0.9251  0.4615
  389SOL     OW 1165   1.244   1.078   1.954  0.0415  0.0552  0.0681
  389SOL    HW1 1166   1.176   1.028   1.896 -1.9064  1.7731 -2.9700
  389SOL    HW2 1167   1.314   1.014   1.993 -1.3671  0.1406  2.3578
  390SOL     OW 1168   2.143   0.122   1.020  0.2259  0.2736 -0.6233
  390SOL    HW1 1169   2.174   0.103   1.116  3.9894  1.2399  1.2659
  390SOL    HW2 1170   2.159   0.221   1.006  1.5168 -0.5230  0.4223
  391SOL     OW 1171   1.802   1.557   1.090  0.3739 -0.0705 -0.0053
  391SOL    HW1 1172   1.875   1.526   1.160  2.0378 -2.5444  0.8990
  391SOL    HW2 1173   1.762   1.471   1.046 -1.6236 -0.0900  0.3620
  392SOL     OW 1174   2.683   2.788   0.480  0.1029 -0.0695  0.3935
  392SOL    HW1 1175   2.585   2.788   0.467 -1.3465 -1.0880  1.9943
  392SOL    HW2 1176   2.720   2.882   0.495  1.3277 -1.0187 -3.4878
  393SOL     OW 1177   1.977   2.234   2.672  0.4777 -0.8568 -0.1814
  393SOL    HW1 1178   1.931   2.262   2.757  1.1647 -1.1056 -0.5706
  393SOL    HW2 1179   2.076   2.213   2.695  0.6402 -0.1795  1.7651
  394SOL     OW 1180   0.264   2.529   2.658  0.1128 -0.6875  0.2383
  394SOL    HW1 1181   0.219   2.569   2.748  0.0345  2.0953  2.4316
  394SOL    HW2 1182   0.211   2.448   2.636  2.0722  3.4818  1.0601
  395SOL     OW 1183   0.478   0.202   0.663  0.0102  0.0437  0.6049
  395SOL    HW1 1184   0.392   0.246   0.645  6.2157 -1.7566 -0.4572
  395SOL    HW2 1185   0.530   0.249   0.738  2.1248  0.7834  1.3745
  396SOL     OW 1186   1.798   0.850   0.734 -0.5496  0.3579  0.2113
  396SOL    HW1 1187   1.810   0.941   0.776 -1.2766  0.2091  0.1314
  396SOL    HW2 1188   1.711   0.850   0.688  1.3615  0.8010  1.8740
  397SOL     OW 1189   0.450   0.598   2.132  0.7227 -0.2319  0.0958
  397SOL    HW1 1190   0.507   0.578   2.051 -0.5489  0.3603  0.8667
  397SOL    HW2 1191   0.363   0.547   2.122  2.7223  1.9026  2.1807
  398SOL     OW 1192   0.886   0.054   0.602  0.1201 -0.0400  0.0507
  398SOL    HW1 1193   0.900   0.155   0.601 -0.1266 -3.3688 -1.5080
  398SOL    HW2 1194   0.943   0.004   0.677 -1.6739  0.5254  0.0304
  399SOL     OW 1195   2.227   0.002   1.641 -0.1574  0.0798  0.2193
  399SOL    HW1 1196   2.206   2.991   1.592 -0.0656  0.9675  0.1209
  399SOL    HW2 1197   2.292   3.055   1.715 -0.0852  0.2032  0.6852
  400SOL     OW 1198   0.881   1.756   2.393  0.1857  0.2978  0.4338
  400SOL    HW1 1199   0.838   1.807   2.471 -2.4361 -1.0443 -1.4332
  400SOL    HW2 1200   0.830   1.774   2.306  1.1316  1.2246 -1.5760
  401SOL     OW 1201   0.595   0.841   2.622 -0.7701  0.7991 -0.3680
  401SOL    HW1 1202   0.617   0.908   2.551 -0.8132 -1.0178  0.0023
  401SOL    HW2 1203   0.500   0.847   2.658  0.1488 -2.9577  2.1444
  402SOL     OW 1204   0.149   2.194   0.725 -0.6360 -0.2035 -0.4598
  402SOL    HW1 1205   0.099   2.243   0.802  2.8812 -1.4163  0.4417
  402SOL    HW2 1206   0.166   2.100   0.759 -1.3660  0.9222 -3.2788
  403SOL     OW 1207   2.923   1.166   1.994 -0.3228 -0.1931  0.0872
  403SOL    HW1 1208   3.003   1.224   1.973 -0.7361 -2.4023 -0.6702
  403SOL    HW2 1209   2.900   1.107   1.915 -1.3961 -1.5640 -0.6931
  404SOL     OW 1210   2.915   2.565   2.444  0.5009 -0.2321 -0.1085
  404SOL    HW1 1211   2.857   2.480   2.432  0.8832 -0.1007  1.9327
  404SOL    HW2 1212   3.007   2.550   2.415 -1.2700  1.1677 -0.3011
  405SOL     OW 1213   0.263   0.320   1.891  0.0238 -0.1322 -0.2009
  405SOL    HW1 1214   0.316   0.234   1.917  1.8349  0.5385 -0.9148
  405SOL    HW2 1215   0.174   0.288   1.853  2.7395 -2.1037 -1.6137
  406SOL     OW 1216   1.618   1.602   2.481 -0.0889 -0.3516 -0.1225
  406SOL    HW1 1217   1.562   1.652   2.548  3.6292  0.9587 -1.7740
  406SOL    HW2 1218   1.644   1.658   2.397  0.0532  0.5585  0.3838
  407SOL     OW 1219   1.614   0.966   2.699  0.0882  0.1197 -0.6074
  407SOL    HW1 1220   1.676   1.037   2.740  0.4967 -1.1915 -0.5064
  407SOL    HW2 1221   1.616   0.958   2.597 -2.2823 -2.4433  0.4784
  408SOL     OW 1222   0.576   2.974   2.216 -0.5453  0.8320  0.0730
  408SOL    HW1 1223   0.663   2.948   2.162  3.2240 -0.2839 -1.1214
  408SOL    HW2 1224   0.498   2.936   2.162 -1.9162  0.0967  2.4468
  409SOL     OW 1225   0.061   1.949   1.215 -0.1740 -0.1334  0.1058
  409SOL    HW1 1226   3.044   1.974   1.189  0.6506  1.7640 -0.8560
  409SOL    HW2 1227   0.112   2.033   1.246 -0.3508 -1.7676 -1.1464
  410SOL     OW 1228   2.435   1.498   0.305  0.1369  0.2292 -0.4350
  410SOL    HW1 1229   2.393   1.546   0.228 -0.2166  1.0187  2.2545
  410SOL    HW2 1230   2.420   1.400   0.289  0.4466 -2.0869 -0.6088
  411SOL     OW 1231   0.190   0.226   1.084  0.2555 -0.0644 -0.2620
  411SOL    HW1 1232   0.257   0.194   1.154 -0.7600  0.2745 -2.5410
  411SOL    HW2 1233   0.161   0.322   1.106 -2.2177 -1.3877 -1.4437
  412SOL     OW 1234   1.799   0.655   1.666  0.0844  0.2524  0.8454
  412SOL    HW1 1235   1.818   0.691   1.574 -1.0847  1.7136 -0.9383
  412SOL    HW2 1236   1.757   0.731   1.718  2.6184  0.4997  0.1288
  413SOL     OW 1237   0.806   0.382   1.982  0.0495 -0.0687  0.4779
  413SOL    HW1 1238   0.811   0.351   2.079  0.9138 -0.8161  0.5829
  413SOL    HW2 1239   0.888   0.357   1.930  1.4847  1.7817 -0.6084
  414SOL     OW 1240   2.836   1.492   2.486 -0.6534 -0.4496  0.6539
  414SOL    HW1 1241   2.828   1.466   2.583  2.1629  1.5127 -0.1663
  414SOL    HW2 1242   2.754   1.536   2.452 -1.0263 -0.5300 -0.0972
  415SOL     OW 1243   0.925   2.406   0.139 -0.3254 -0.1349  0.3454
  415SOL    HW1 1244   1.025   2.386   0.123  1.5117  0.1028 -0.9172
  415SOL    HW2 1245   0.899   2.506   0.143  0.1147 -2.7166  0.6730
  416SOL     OW 1246   1.753   0.164   2.770  0.2580 -0.4598 -0.0554
  416SOL    HW1 1247   1.775   0.079   2.726 -1.2085  1.0220 -0.7726
  416SOL    HW2 1248   1.840   0.217   2.802  1.9074 -0.8580  0.6133
  417SOL     OW 1249   0.291   0.390   0.590  0.1689  0.4743 -0.0908
  417SOL    HW1 1250   0.329   0.476   0.632 -0.3137  1.7285 -0.3891
  417SOL    HW2 1251   0.202   0.368   0.629  0.7557  0.3258 -2.2178
  418SOL     OW 1252   2.520   3.070   0.758  1.1403  0.4326  0.1025
  418SOL    HW1 1253   2.455   3.024   0.689 -1.4408 -0.5551  0.2628
  418SOL    HW2 1254   2.533   0.087   0.733 -2.1076 -4.9240 -0.0845
  419SOL     OW 1255   0.078   2.794   0.537 -0.2655 -0.4246  0.2454
  419SOL    HW1 1256   0.152   2.863   0.546  0.8625  1.7690 -0.1395
  419SOL    HW2 1257   0.017   2.800   0.612  0.2415 -0.5639 -1.0602
  420SOL     OW 1258   0.105   1.301   1.952 -0.0628  0.3605  0.0335
  420SOL    HW1 1259   0.123   1.401   1.954 -1.1710  2.1117 -1.5895
  420SOL    HW2 1260   0.186   1.244   1.923 -1.2280 -1.5525 -0.9372
  421SOL     OW 1261   1.493   2.529   0.782 -0.3160 -0.8946  0.5185
  421SOL    HW1 1262   1.494   2.626   0.817  0.6018  0.0433  4.5212
  421SOL    HW2 1263   1.515   2.466   0.856  0.9252  0.7042  0.4354
  422SOL     OW 1264   0.717   0.341   1.667  0.2168  0.3315 -0.2613
  422SOL    HW1 1265   0.787   0.410   1.686  3.3428 -2.3204 -3.8902
  422SOL    HW2 1266   0.630   0.387   1.644 -0.0515 -1.1219  0.9058
  423SOL     OW 1267   0.927   1.408   1.828 -0.6702  0.6227  0.4662
  423SOL    HW1 1268   1.018   1.453   1.811  0.2040  0.0756 -1.5182
  423SOL    HW2 1269   0.914   1.314   1.789 -1.9557 -3.8846  1.0696
  424SOL     OW 1270   1.902   2.142   0.231 -0.7741 -0.3060 -0.0561
  424SOL    HW1 1271   1.906   2.214   0.306 -0.3614 -0.7136  3.2649
  424SOL    HW2 1272   1.810   2.145   0.187 -0.5673 -0.3018  3.2907
  425SOL     OW 1273   2.775   0.093   1.931  0.5261  0.1743  0.5148
  425SOL    HW1 1274   2.846   0.074   2.001 -0.1785  2.0635  2.2120
  425SOL    HW2 1275   2.814   0.071   1.837  1.0850  0.5803 -2.1879
  426SOL     OW 1276   0.123   2.616   2.867  0.2735 -0.4642 -0.2220
  426SOL    HW1 1277   0.181   2.681   2.914 -0.6713  0.3563 -0.1245
  426SOL    HW2 1278   0.092   2.549   2.934  2.3799  0.3757 -0.3491
  427SOL     OW 1279   1.202   0.416   0.128 -0.4860 -0.3563 -0.0892
  427SOL    HW1 1280   1.254   0.493   0.168 -1.6478 -1.1490 -1.2292
  427SOL    HW2 1281   1.193   0.332   0.181 -1.8135  1.0131  1.0257
  428SOL     OW 1282   2.846   0.791   1.620 -0.2860 -0.1619  0.1078
  428SOL    HW1 1283   2.802   0.821   1.706  1.8232  0.4109 -1.9873
  428SOL    HW2 1284   2.813   0.703   1.588  2.4670  0.3011 -0.4663
  429SOL     OW 1285   2.073   2.854   1.256  0.3739  0.8880 -0.2841
  429SOL    HW1 1286   1.979   2.896   1.237 -2.0923  2.7547 -1.2815
  429SOL    HW2 1287   2.084   2.763   1.209  1.2447 -1.9126  0.7341
  430SOL     OW 1288   1.253   1.584   2.432 -0.3545 -0.3413 -0.4813
  430SOL    HW1 1289   1.182   1.519   2.461 -0.1562 -0.3038  0.3200
  430SOL    HW2 1290   1.306   1.561   2.345 -1.4759  0.3470 -1.6595
  431SOL     OW 1291   2.729   1.617   1.247 -0.2098  0.1661  0.6756
  431SOL    HW1 1292   2.772   1.661   1.167 -0.8963  1.0218  0.1109
  431SOL    HW2 1293   2.769   1.654   1.332  0.6242  0.3651 -2.5980
  432SOL     OW 1294   1.181   2.708   2.413 -0.1956  0.5781  0.2721
  432SOL    HW1 1295   1.188   2.606   2.400 -0.4614 -0.0446  1.1770
  432SOL    HW2 1296   1.130   2.713   2.507 -0.9086  1.6749  1.0983
  433SOL     OW 1297   1.894   0.230   2.158 -0.1422  0.0934  0.4525
  433SOL    HW1 1298   1.913   0.132   2.194  0.0916 -1.1212 -2.6444
  433SOL    HW2 1299   1.910   0.306   2.225  1.0885  2.4833 -1.1486
  434SOL     OW 1300   0.422   2.346   2.293 -1.1337 -0.2078  0.0424
  434SOL    HW1 1301   0.460   2.430   2.340 -0.4190  1.8617  1.0860
  434SOL    HW2 1302   0.441   2.261   2.340  2.8706 -1.0630 -0.2668
  435SOL     OW 1303   0.088   3.046   0.246  0.3338 -0.4036  0.4034
  435SOL    HW1 1304   0.070   0.059   0.295 -0.8696  3.0345  0.2449
  435SOL    HW2 1305   0.173   3.002   0.285 -1.4116 -0.7746 -0.1846
  436SOL     OW 1306   0.581   0.858   2.147  0.2769  0.2054  0.0856
  436SOL    HW1 1307   0.541   0.760   2.162 -1.3154 -1.9369  2.1627
  436SOL    HW2 1308   0.682   0.853   2.124  1.4602 -0.3368  1.7085
  437SOL     OW 1309   0.644   2.289   2.783  0.2780  0.0492 -0.2094
  437SOL    HW1 1310   0.585   2.372   2.775  2.1788 -1.0854  1.4617
  437SOL    HW2 1311   0.605   2.215   2.841  0.8787 -2.5752  0.7170
  438SOL     OW 1312   0.870   1.045   0.978 -0.5967  0.6898  0.5236
  438SOL    HW1 1313   0.816   1.129   0.954 -0.4562  3.7368 -0.0927
  438SOL    HW2 1314   0.964   1.080   0.993 -0.8732  0.7564  0.4247
  439SOL     OW 1315   2.510   1.326   2.336 -0.0644 -0.4646  0.3457
  439SOL    HW1 1316   2.512   1.231   2.339 -0.0407  2.9923 -0.0755
  439SOL    HW2 1317   2.462   1.354   2.254  0.1865 -0.6087 -2.2164
  440SOL     OW 1318   0.117   0.526   3.039 -0.9631  0.1196 -0.4640
  440SOL    HW1 1319   0.119   0.438   0.013  0.4509 -0.9212  0.2822
  440SOL    HW2 1320   0.140   0.508   2.944 -1.8468  0.2909  0.5716
  441SOL     OW 1321   0.681   1.996   1.403  0.0524  0.5363 -0.5807
  441SOL    HW1 1322   0.718   2.087   1.413 -0.6019 -2.8796 -3.7154
  441SOL    HW2 1323   0.758   1.931   1.399 -2.6067 -1.3346 -0.6680
  442SOL     OW 1324   1.650   1.418   0.826 -0.0183 -0.1249  0.0823
  442SOL    HW1 1325   1.679   1.361   0.908  0.6181 -2.7260  1.1403
  442SOL    HW2 1326   1.564   1.390   0.788  0.6481 -1.1559 -0.1540
  443SOL     OW 1327   2.379   2.034   2.491  0.4355 -0.3524  0.1901
  443SOL    HW1 1328   2.474   2.057   2.523 -2.0405  0.8255  1.2245
  443SOL    HW2 1329   2.313   2.046   2.573 -1.9590  0.3842 -1.0814
  444SOL     OW 1330   2.021   1.644   2.691  0.1142 -0.0556  0.3093
  444SOL    HW1 1331   1.994   1.731   2.736  1.1626  1.3453 -0.5791
  444SOL    HW2 1332   2.117   1.663   2.661 -1.2319 -0.9031  0.8302
  445SOL     OW 1333   2.821   2.643   2.006  0.0755  0.0606  0.2830
  445SOL    HW1 1334   2.887   2.620   2.084  1.0081 -1.1116  0.2331
  445SOL    HW2 1335   2.770   2.728   2.035 -0.6670  0.5105  2.0314
  446SOL     OW 1336   1.111   0.939   1.781  0.6889 -0.4232 -0.2207
  446SOL    HW1 1337   1.159   0.929   1.693 -0.9289 -2.9471  2.4513
  446SOL    HW2 1338   1.100   0.845   1.826  1.1134  2.6267  0.5850
  447SOL     OW 1339   0.881   0.835   1.164 -0.1842  0.2868  0.6893
  447SOL    HW1 1340   0.949   0.768   1.133  0.7890 -0.8058 -0.3915
  447SOL    HW2 1341   0.863   0.906   1.094  1.1105  0.9192  3.0853
  448SOL     OW 1342   1.156   1.147   2.435  0.4487 -0.4811  0.3274
  448SOL    HW1 1343   1.191   1.179   2.345  0.2731 -0.5302  2.3549
  448SOL    HW2 1344   1.128   1.230   2.488 -0.8731  0.8176  0.9844
  449SOL     OW 1345   0.026   2.088   2.480  0.0855 -0.2317  0.2736
  449SOL    HW1 1346   0.081   2.003   2.488 -2.0848  0.9932 -0.0094
  449SOL    HW2 1347   0.011   2.109   2.381 -1.2952  0.5063 -0.9439
  450SOL     OW 1348   2.095   1.698   1.780 -0.0785 -0.1776  0.2137
  450SOL    HW1 1349   2.173   1.755   1.812 -2.0608  1.2685 -2.8650
  450SOL    HW2 1350   2.020   1.761   1.750 -1.9803 -1.3989  1.5688
  451SOL     OW 1351   2.634   1.366   1.298  0.5799 -0.5002  0.2945
  451SOL    HW1 1352   2.654   1.464   1.314 -0.1404  1.6999  0.4856
  451SOL    HW2 1353   2.601   1.319   1.385 -0.1037 -0.2283  3.2829
  452SOL     OW 1354   0.515   1.088   1.546  0.5846  0.3076  0.1029
  452SOL    HW1 1355   0.515   0.986   1.534  0.0799  0.1972  1.4927
  452SOL    HW2 1356   0.590   1.136   1.490 -2.7708  1.5788  1.5066
  453SOL     OW 1357   0.336   0.997   0.739 -0.5226 -0.2173  0.0194
  453SOL    HW1 1358   0.276   1.020   0.662  0.2017 -0.5500  2.5293
  453SOL    HW2 1359   0.291   1.003   0.830  1.6154 -1.8088  1.2619
  454SOL     OW 1360   0.792   1.582   0.127  0.6239  0.1037  0.1363
  454SOL    HW1 1361   0.806   1.680   0.119 -0.9982 -0.4894 -0.1246
  454SOL    HW2 1362   0.692   1.559   0.114 -2.0517  1.3972  0.6450
  455SOL     OW 1363   1.606   0.724   1.155 -0.0358 -0.3825 -0.1892
  455SOL    HW1 1364   1.604   0.764   1.248 -0.6598 -1.9128 -1.1788
  455SOL    HW2 1365   1.704   0.695   1.132  0.7710 -2.4360  0.3215
  456SOL     OW 1366   1.757   2.803   0.974 -0.1141 -0.0927  0.5476
  456SOL    HW1 1367   1.837   2.756   0.933 -0.8192  0.0038  2.5742
  456SOL    HW2 1368   1.781   2.843   1.065  0.1117  1.6761 -2.5709
  457SOL     OW 1369   2.053   0.287   2.514 -0.2650  0.1852 -0.1143
  457SOL    HW1 1370   1.977   0.340   2.474 -0.4127  2.8119  1.3128
  457SOL    HW2 1371   2.089   0.214   2.449  3.0436  0.2442 -0.1173
  458SOL     OW 1372   2.515   0.780   2.611  0.5463 -0.4916 -0.3612
  458SOL    HW1 1373   2.476   0.818   2.529  0.0570  0.3735  1.1875
  458SOL    HW2 1374   2.611   0.807   2.618 -1.2367  1.2741  1.9521
  459SOL     OW 1375   3.005   1.688   1.977  0.4500  0.3663 -0.5679
  459SOL    HW1 1376   3.057   1.681   1.896 -2.3992  4.1668  1.6179
  459SOL    HW2 1377   2.974   1.597   2.015  0.2068 -1.9530  2.2376
  460SOL     OW 1378   0.507   0.812   2.997  0.0432  0.1530  0.0259
  460SOL    HW1 1379   0.589   0.859   2.966 -0.1696 -1.8632  0.2352
  460SOL    HW2 1380   0.444   0.797   2.916 -1.8988  0.6215 -1.2405
  461SOL     OW 1381   0.017   2.213   0.494  0.3675  0.2727  0.0210
  461SOL    HW1 1382   0.022   2.117   0.449 -0.5427  1.1469 -1.2434
  461SOL    HW2 1383   0.062   2.205   0.585 -0.9895 -1.0700  0.1550
  462SOL     OW 1384   0.216   2.644   1.280  0.0119  0.3288  0.3230
  462SOL    HW1 1385   0.152   2.723   1.272  2.0742  0.4354 -1.6721
  462SOL    HW2 1386   0.187   2.566   1.221 -0.9163  0.8678  0.9837
  463SOL     OW 1387   1.649   1.958   1.856 -0.5127 -0.3732 -0.4467
  463SOL    HW1 1388   1.629   1.944   1.757 -3.4338 -0.4881 -0.4211
  463SOL    HW2 1389   1.700   2.045   1.869  0.3346 -0.8089 -1.5009
  464SOL     OW 1390   2.949   2.804   0.721 -0.0528  0.6306  0.2406
  464SOL    HW1 1391   2.881   2.880   0.744  0.3464 -1.5388 -1.9926
  464SOL    HW2 1392   3.005   2.790   0.804 -0.0340  0.6167  0.7877
  465SOL     OW 1393   0.282   0.170   1.543  0.2927 -0.1962  0.1921
  465SOL    HW1 1394   0.288   0.100   1.619 -1.8796 -1.3288 -1.7882
  465SOL    HW2 1395   0.360   0.235   1.546 -2.5300 -1.8741  2.8678
  466SOL     OW 1396   1.195   2.426   2.396  1.0215 -0.7271 -0.2035
  466SOL    HW1 1397   1.185   2.375   2.307 -1.0918  1.4685  1.5612
  466SOL    HW2 1398   1.112   2.409   2.450 -0.1808  0.3400  0.6771
  467SOL     OW 1399   2.870   1.696   0.811  0.1474  0.0887 -0.3596
  467SOL    HW1 1400   2.871   1.731   0.909 -0.5615 -1.1906 -1.4180
  467SOL    HW2 1401   2.829   1.608   0.804 -0.0430  1.9656 -0.9327
  468SOL     OW 1402   2.083   1.924   2.665 -0.1237  0.3126 -0.5530
  468SOL    HW1 1403   2.011   1.932   2.595 -1.1298 -0.3135  0.9005
  468SOL    HW2 1404   2.072   2.005   2.720  1.6621 -0.4597  1.4686
  469SOL     OW 1405   1.346   2.089   0.471 -0.0120 -0.1828 -0.0751
  469SOL    HW1 1406   1.429   2.132   0.423  0.4550  0.4152 -0.8393
  469SOL    HW2 1407   1.383   2.006   0.526  2.6559 -2.5445  2.0993
  470SOL     OW 1408   1.749   1.300   1.464 -0.1939 -0.1665  0.1904
  470SOL    HW1 1409   1.784   1.244   1.391 -1.6549  1.7385  0.6347
  470SOL    HW2 1410   1.813   1.320   1.539  1.9730 -1.2778 -1.3528
  471SOL     OW 1411   0.488   2.283   0.201 -0.0453 -0.1717  0.2530
  471SOL    HW1 1412   0.447   2.378   0.182 -2.1616 -0.1138 -2.1120
  471SOL    HW2 1413   0.576   2.254   0.152 -2.0416 -0.4385 -0.5299
  472SOL     OW 1414   2.335   1.903   2.143 -0.1873 -0.0025 -0.5478
  472SOL    HW1 1415   2.386   1.995   2.138  0.5808  3.4484  2.7313
  472SOL    HW2 1416   2.349   1.860   2.238 -2.8936 -0.9247  3.0392
  473SOL     OW 1417   1.047   2.171   0.804  0.4243  0.6468 -0.4406
  473SOL    HW1 1418   1.101   2.203   0.724  0.6014 -1.5789 -1.0877
  473SOL    HW2 1419   0.953   2.176   0.774  2.1349  0.4165 -0.2064
  474SOL     OW 1420   2.896   0.456   1.164 -0.1456  0.1616 -0.1387
  474SOL    HW1 1421   2.933   0.461   1.264 -0.5387  3.9940  0.6875
  474SOL    HW2 1422   2.815   0.401   1.150  0.2482  0.5841  0.1243
  475SOL     OW 1423   2.268   2.793   1.930  0.2330  0.6730  1.0009
  475SOL    HW1 1424   2.301   2.786   2.023 -0.9911 -0.8311 -1.2065
  475SOL    HW2 1425   2.326   2.854   1.877 -0.8149  1.1547  0.5623
  476SOL     OW 1426   0.415   0.601   0.694  0.2491  0.0065  0.4831
  476SOL    HW1 1427   0.496   0.575   0.633  0.7839  0.5082 -0.7059
  476SOL    HW2 1428   0.449   0.631   0.782 -3.3506 -0.3775  0.4682
  477SOL     OW 1429   0.836   1.827   0.851 -0.0024  0.0738 -0.2039
  477SOL    HW1 1430   0.876   1.789   0.764 -0.2817  1.7475 -0.2243
  477SOL    HW2 1431   0.865   1.773   0.931  1.7657  1.3930 -1.8989
  478SOL     OW 1432   1.076   2.268   2.879  0.3493 -0.4169 -0.1201
  478SOL    HW1 1433   1.007   2.195   2.888  2.7184  0.8561 -2.0279
  478SOL    HW2 1434   1.142   2.245   2.800 -0.2083 -1.1686 -0.5056
  479SOL     OW 1435   2.835   1.085   1.738  0.0895 -0.6046 -0.0336
  479SOL    HW1 1436   2.767   1.013   1.764  1.1286 -0.3685  0.4497
  479SOL    HW2 1437   2.811   1.142   1.654 -1.7158  0.2823 -0.6336
  480SOL     OW 1438   0.064   2.432   0.026  0.6206 -0.0972  0.7296
  480SOL    HW1 1439   0.059   2.408   0.123 -2.8161 -2.5458  0.0507
  480SOL    HW2 1440   3.072   2.370   3.056 -4.8710  0.0790 -2.1469
  481SOL     OW 1441   1.659   0.014   2.263 -0.9393  0.5071 -0.2424
  481SOL    HW1 1442   1.761   0.006   2.283  0.8214  1.4250 -0.2297
  481SOL    HW2 1443   1.650   0.050   2.168  2.6466 -2.4612  1.1827
  482SOL     OW 1444   1.718   2.078   2.824  0.0209  0.1344  0.2064
  482SOL    HW1 1445   1.748   2.168   2.859 -1.5760 -3.5526 -0.1502
  482SOL    HW2 1446   1.687   2.085   2.725  0.6346  0.5564 -1.3788
  483SOL     OW 1447   0.965   2.516   2.822  0.0329 -0.0083  0.0788
  483SOL    HW1 1448   0.873   2.510   2.873  0.4454 -0.4009  0.0470
  483SOL    HW2 1449   1.016   2.431   2.834  1.4731 -1.2838 -0.5565
  484SOL     OW 1450   0.450   2.619   1.157  0.4850 -0.2887  0.1353
  484SOL    HW1 1451   0.371   2.639   1.219 -0.3554  1.1497 -1.4263
  484SOL    HW2 1452   0.513   2.702   1.145  2.1880  3.5094  1.1981
  485SOL     OW 1453   2.133   0.597   0.570 -0.1949  0.1481 -0.0584
  485SOL    HW1 1454   2.051   0.658   0.569 -1.2185 -1.4072  2.2544
  485SOL    HW2 1455   2.213   0.656   0.540  1.2500 -2.4878 -0.6065
  486SOL     OW 1456   2.026   2.751   2.432 -0.0356  0.4671 -0.1418
  486SOL    HW1 1457   2.029   2.851   2.453  1.2439  0.9656  0.7638
  486SOL    HW2 1458   2.106   2.700   2.463 -2.0525  0.3948 -0.4478
  487SOL     OW 1459   1.011   1.541   0.814 -0.1140 -0.1974 -0.3253
  487SOL    HW1 1460   0.917   1.568   0.791  0.1957 -1.2930 -0.7689
  487SOL    HW2 1461   1.077   1.570   0.740  1.0917  0.2771 -0.9673
  488SOL     OW 1462   2.391   0.318   2.916 -0.6325 -0.2473  0.6304
  488SOL    HW1 1463   2.359   0.330   2.819  2.0607  2.0499  1.3157
  488SOL    HW2 1464   2.486   0.355   2.925 -0.8859 -0.3264 -0.8810
  489SOL     OW 1465   1.917   0.196   0.527 -0.4209  0.5698 -0.0895
  489SOL    HW1 1466   2.009   0.225   0.557 -1.1363 -1.4541  0.0762
  489SOL    HW2 1467   1.854   0.271   0.522  1.9742 -4.7697  0.2919
  490SOL     OW 1468   1.564   0.250   2.942 -0.1832  0.3079  0.3031
  490SOL    HW1 1469   1.580   0.256   3.040 -2.8357 -0.6060 -0.2406
  490SOL    HW2 1470   1.631   0.194   2.895  1.2475  0.7046  0.1048
  491SOL     OW 1471   0.642   0.017   1.188 -0.0364 -0.9115 -0.2535
  491SOL    HW1 1472   0.678   0.062   1.272 -0.9160  0.4030 -1.8206
  491SOL    HW2 1473   0.706   0.028   1.109 -1.8676 -0.7753 -2.1281
  492SOL     OW 1474   1.734   0.029   0.372  0.3274 -0.3579 -0.2751
  492SOL    HW1 1475   1.778   0.066   0.453  1.9644 -1.1738 -1.9905
  492SOL    HW2 1476   1.717   3.008   0.394  1.5504  1.0986  1.6060
  493SOL     OW 1477   1.326   2.051   2.864  0.0173 -0.0864 -1.0676
  493SOL    HW1 1478   1.297   1.977   2.801 -0.0024  0.8337 -1.3198
  493SOL    HW2 1479   1.303   2.140   2.817  0.3329 -0.0635  0.8298
  494SOL     OW 1480   0.578   0.941   1.219  0.0333  0.4908  0.3989
  494SOL    HW1 1481   0.582   1.011   1.144 -1.8072  3.2489 -0.5861
  494SOL    HW2 1482   0.607   0.847   1.185  1.6152 -0.0479 -1.7051
  495SOL     OW 1483   2.993   0.460   1.432  0.2550 -0.5845 -0.0275
  495SOL    HW1 1484   3.066   0.513   1.486  1.1645  1.2569  0.3649
  495SOL    HW2 1485   2.906   0.467   1.480  1.2884  2.3752  2.2767
  496SOL     OW 1486   2.224   2.328   2.025 -0.2817  0.1675  0.2726
  496SOL    HW1 1487   2.256   2.279   2.109  1.8585 -0.0502  1.4357
  496SOL    HW2 1488   2.150   2.395   2.042  0.7613 -0.8851 -1.3362
  497SOL     OW 1489   1.754   1.183   2.790 -0.7256 -0.2750  0.3373
  497SOL    HW1 1490   1.852   1.209   2.755  3.3195  1.2765  0.8200
  497SOL    HW2 1491   1.700   1.265   2.824 -2.1744 -0.4297 -2.2582
  498SOL     OW 1492   0.891   2.098   0.384 -0.1225 -0.6213  0.4409
  498SOL    HW1 1493   0.894   2.185   0.430 -1.5171 -1.0426  0.0950
  498SOL    HW2 1494   0.839   2.029   0.434 -0.9234 -1.1852 -2.2106
  499SOL     OW 1495   0.249   1.615   1.032  0.4011  0.3997  0.4871
  499SOL    HW1 1496   0.184   1.647   0.957 -0.6585 -1.8234 -1.6260
  499SOL    HW2 1497   0.335   1.573   1.000 -0.2050 -2.5640  0.5110
  500SOL     OW 1498   1.398   2.759   0.398  0.3075 -0.0011  0.5124
  500SOL    HW1 1499   1.345   2.834   0.356 -0.2720  1.0032  0.2911
  500SOL    HW2 1500   1.477   2.795   0.449 -2.2149 -1.8280 -0.8992
  501SOL     OW 1501   1.976   2.656   0.863  0.0617 -0.2297  0.4210
  501SOL    HW1 1502   2.057   2.685   0.813 -0.2163  0.3270  0.0402
  501SOL    HW2 1503   1.957   2.557   0.848 -1.3982 -0.6128  0.0200
  502SOL     OW 1504   0.282   0.534   1.359 -0.1929  0.2330  0.6045
  502SOL    HW1 1505   0.231   0.511   1.275 -0.2942 -0.5623  2.4801
  502SOL    HW2 1506   0.255   0.627   1.388 -0.0712 -0.0998 -0.0624
  503SOL     OW 1507   1.963   0.060   1.607 -0.8830 -0.1604  0.3316
  503SOL    HW1 1508   1.964   0.119   1.524 -2.2490  1.7689  2.1694
  503SOL    HW2 1509   2.060   0.036   1.643 -1.0689  0.4243  3.9607
  504SOL     OW 1510   2.116   0.677   1.817  0.0569 -0.2800 -0.1654
  504SOL    HW1 1511   2.025   0.628   1.815  1.3547 -0.4287  2.6825
  504SOL    HW2 1512   2.112   0.776   1.798  0.3282  0.6404  1.1708
  505SOL     OW 1513   1.254   2.948   2.340  0.2469 -0.1212  0.6182
  505SOL    HW1 1514   1.330   2.995   2.394  0.9730  1.7240 -0.1498
  505SOL    HW2 1515   1.242   2.850   2.369 -0.7513 -2.0703  0.4965
  506SOL     OW 1516   0.615   0.570   1.900 -0.1303  0.0630  0.2063
  506SOL    HW1 1517   0.678   0.504   1.945 -0.7747  1.1344 -4.1133
  506SOL    HW2 1518   0.666   0.650   1.866 -0.8570  0.0085 -0.3981
  507SOL     OW 1519   1.633   0.275   0.122  0.1059  0.3255  0.1718
  507SOL    HW1 1520   1.596   0.324   0.206  1.9690 -0.2547  1.8315
  507SOL    HW2 1521   1.716   0.325   0.081  0.0821  0.5718 -3.1125
  508SOL     OW 1522   2.177   0.454   2.003  0.4110  0.5212 -0.0638
  508SOL    HW1 1523   2.239   0.534   2.004 -2.6988 -2.2653  0.9384
  508SOL    HW2 1524   2.089   0.479   1.948 -2.3529 -0.7287 -2.0087
  509SOL     OW 1525   0.694   1.412   2.416 -0.0267 -0.2342  0.2124
  509SOL    HW1 1526   0.634   1.490   2.447  2.5523 -1.5677  1.4617
  509SOL    HW2 1527   0.689   1.400   2.314 -1.6402  1.0480 -2.5883
  510SOL     OW 1528   2.793   0.556   0.511  0.1351  0.4121 -0.0286
  510SOL    HW1 1529   2.755   0.645   0.484 -0.5757 -1.4565 -1.8819
  510SOL    HW2 1530   2.881   0.567   0.562  0.8745  2.8423  1.6330
  511SOL     OW 1531   1.524   1.452   1.413  0.0519 -0.3600 -0.3727
  511SOL    HW1 1532   1.521   1.545   1.457 -4.0300  3.2101 -1.6437
  511SOL    HW2 1533   1.615   1.411   1.438  3.3228  0.7541  1.4057
  512SOL     OW 1534   0.454   1.604   0.595 -0.2238 -0.0313 -0.1451
  512SOL    HW1 1535   0.526   1.542   0.560 -2.4629 -3.4522  0.1808
  512SOL    HW2 1536   0.465   1.698   0.556  0.0914 -0.0586 -0.8653
  513SOL     OW 1537   0.473   2.260   0.997 -0.1292  0.6094  0.1756
  513SOL    HW1 1538   0.474   2.199   1.075 -0.7177  1.7412 -2.4716
  513SOL    HW2 1539   0.540   2.244   0.924 -3.2945 -0.9511  1.1173
  514SOL     OW 1540   0.417   2.083   0.378 -0.0598 -0.1353 -0.2851
  514SOL    HW1 1541   0.393   2.127   0.467 -0.8628  0.0607 -0.3322
  514SOL    HW2 1542   0.453   2.152   0.312  0.7394 -0.9793 -2.0388
  515SOL     OW 1543   0.315   3.018   0.034 -0.2929 -0.3248  0.6655
  515SOL    HW1 1544   0.234   3.071   3.077 -0.6544  1.1192 -1.2133
  515SOL    HW2 1545   0.316   3.021   0.136 -1.7727 -0.3223  0.9789
  516SOL     OW 1546   2.169   0.034   1.311 -0.5305 -0.1000  0.0941
  516SOL    HW1 1547   2.099   0.093   1.356  1.5066  0.9567 -1.3657
  516SOL    HW2 1548   2.134   3.020   1.284 -1.0329  1.3942  0.3256
  517SOL     OW 1549   1.577   1.383   0.471  0.1295 -0.2686 -0.4229
  517SOL    HW1 1550   1.618   1.473   0.494  1.7894 -1.9190 -1.4546
  517SOL    HW2 1551   1.515   1.345   0.547 -1.1401  0.5267  2.8736
  518SOL     OW 1552   1.248   0.161   0.826  0.1599  0.4832 -0.5093
  518SOL    HW1 1553   1.168   0.184   0.883  2.2673 -0.6497 -0.0810
  518SOL    HW2 1554   1.224   0.075   0.770 -2.2406 -3.4405 -1.8725
  519SOL     OW 1555   2.809   2.449   0.582  0.0993 -1.1973 -0.6468
  519SOL    HW1 1556   2.902   2.472   0.618 -1.5436  0.4369 -0.9858
  519SOL    HW2 1557   2.794   2.486   0.493 -0.2450 -2.5468 -0.4941
  520SOL     OW 1558   1.743   2.277   1.986 -0.5022 -0.3971  0.6388
  520SOL    HW1 1559   1.807   2.279   2.069  0.5932  0.7547 -0.6720
  520SOL    HW2 1560   1.654   2.327   2.013 -0.3990 -1.7863  2.8253
  521SOL     OW 1561   1.503   2.927   2.099 -0.8127  0.2967 -0.3381
  521SOL    HW1 1562   1.423   2.870   2.126  1.8604  1.5887  1.3015
  521SOL    HW2 1563   1.551   2.966   2.180 -1.2530 -1.4052 -0.8612
  522SOL     OW 1564   2.941   2.892   1.649  0.3369  1.0645  0.0594
  522SOL    HW1 1565   3.004   2.831   1.600  3.0538 -2.4600 -0.0451
  522SOL    HW2 1566   2.853   2.843   1.663  2.3484 -1.4399  2.0138
  523SOL     OW 1567   0.818   2.202   1.527  0.0914  0.2361 -0.2336
  523SOL    HW1 1568   0.766   2.289   1.540 -0.4154 -1.8448  0.8973
  523SOL    HW2 1569   0.912   2.226   1.506 -2.3501  0.0778 -0.4721
  524SOL     OW 1570   2.257   2.151   0.104  0.0230  0.0058  0.0818
  524SOL    HW1 1571   2.207   2.066   0.108  0.7353  1.3325  2.6177
  524SOL    HW2 1572   2.311   2.168   0.185 -1.2597  1.7288 -1.8463
  525SOL     OW 1573   2.816   0.780   0.063 -0.0051 -0.3011 -0.4068
  525SOL    HW1 1574   2.907   0.755   0.035 -4.1384 -1.6476  0.5574
  525SOL    HW2 1575   2.766   0.835   3.071 -0.6192 -1.2997 -0.8143
  526SOL     OW 1576   0.647   2.812   0.522  0.6068 -0.4146 -0.5334
  526SOL    HW1 1577   0.734   2.784   0.564 -1.6765  0.0390  0.1451
  526SOL    HW2 1578   0.624   2.909   0.551 -0.4827  0.3487  0.9801
  527SOL     OW 1579   2.775   1.287   0.488  0.6052 -0.4830 -0.0616
  527SOL    HW1 1580   2.778   1.195   0.441  0.8231  0.5358 -0.7596
  527SOL    HW2 1581   2.742   1.276   0.588  0.4789  0.1342 -0.8535
  528SOL     OW 1582   0.981   0.790   2.446 -0.0188  0.2466 -0.0520
  528SOL    HW1 1583   0.890   0.743   2.429 -0.4015 -0.8259 -0.7436
  528SOL    HW2 1584   1.009   0.865   2.390 -0.7323 -2.3068  0.6840
  529SOL     OW 1585   0.485   1.456   0.049  0.1924 -0.4010  0.3057
  529SOL    HW1 1586   0.458   1.502   0.136  1.2596  2.4405  0.4937
  529SOL    HW2 1587   0.438   1.501   3.048  3.9178  0.3050  0.7467
  530SOL     OW 1588   1.423   0.946   2.155 -0.2720 -0.4221  0.5773
  530SOL    HW1 1589   1.481   1.021   2.194 -0.0359  2.0754  1.0136
  530SOL    HW2 1590   1.379   0.889   2.225 -1.2281 -1.6774 -1.8539
  531SOL     OW 1591   1.284   2.077   0.085  0.1060 -0.2009  0.5203
  531SOL    HW1 1592   1.313   2.031   0.002 -0.8362  2.3375  1.5634
  531SOL    HW2 1593   1.258   2.018   0.158  1.9198  2.5708 -3.8320
  532SOL     OW 1594   2.258   1.127   2.498  0.4021 -0.2672  0.0874
  532SOL    HW1 1595   2.198   1.067   2.554 -1.4101  0.2331 -0.9117
  532SOL    HW2 1596   2.251   1.222   2.528 -1.0012  3.3335 -1.4496
  533SOL     OW 1597   0.037   0.211   1.819 -0.0375  0.0828  0.3225
  533SOL    HW1 1598   3.074   0.119   1.846 -0.0441 -2.2426 -0.3998
  533SOL    HW2 1599   0.058   0.216   1.721  0.5080  2.0843 -0.2390
  534SOL     OW 1600   1.860   0.063   0.129 -0.4361  0.2849  0.4563
  534SOL    HW1 1601   1.929   0.137   0.106  0.0793  0.4807  1.9066
  534SOL    HW2 1602   1.818   0.077   0.222  0.3392 -0.6868  0.0040
  535SOL     OW 1603   0.553   2.981   2.989 -0.2655 -0.4300  0.4485
  535SOL    HW1 1604   0.616   3.059   3.017  2.0874  0.7673  1.3843
  535SOL    HW2 1605   0.464   3.005   3.020  4.0723  1.0351 -2.8564
  536SOL     OW 1606   0.490   1.856   1.582 -0.0122  0.3732 -0.1472
  536SOL    HW1 1607   0.461   1.817   1.492  1.5345 -1.7620  0.7936
  536SOL    HW2 1608   0.586   1.897   1.576  1.4312  0.6204 -1.0002
  537SOL     OW 1609   2.962   2.530   1.537  0.3750  0.1000  0.1858
  537SOL    HW1 1610   2.970   2.597   1.462 -0.7389 -2.6690 -1.9975
  537SOL    HW2 1611   2.974   2.562   1.635 -2.6051 -1.2581 -0.4191
  538SOL     OW 1612   3.051   1.985   0.337  0.4558 -0.5412  0.3736
  538SOL    HW1 1613   0.049   2.020   0.274  0.1220 -0.1657 -1.4554
  538SOL    HW2 1614   2.965   1.954   0.287  0.1410 -0.5799  1.3522
  539SOL     OW 1615   2.413   0.922   2.415  0.4528 -0.6133  0.0735
  539SOL    HW1 1616   2.362   1.012   2.423 -2.1826 -0.5564 -1.0677
  539SOL    HW2 1617   2.499   0.942   2.356  1.2209  2.0791  0.3184
  540SOL     OW 1618   1.802   1.006   2.983 -0.2861  0.0828 -0.1435
  540SOL    HW1 1619   1.768   1.071   2.912 -0.2200 -0.4648 -1.1629
  540SOL    HW2 1620   1.761   1.014   3.075 -2.6067 -0.2622  1.4514
  541SOL     OW 1621   0.732   0.659   2.408  0.1669 -0.4615 -0.0490
  541SOL    HW1 1622   0.733   0.556   2.404  1.4584  0.4799 -1.5846
  541SOL    HW2 1623   0.642   0.699   2.429  1.3329 -1.0016 -0.0682
  542SOL     OW 1624   1.576   2.668   2.243  0.6481 -0.0801 -0.2069
  542SOL    HW1 1625   1.488   2.691   2.202  0.6936 -0.5859 -0.0340
  542SOL    HW2 1626   1.653   2.692   2.180 -0.6805  0.2512 -2.2677
  543SOL     OW 1627   1.094   2.652   0.343  0.1274  0.5843  0.2578
  543SOL    HW1 1628   1.172   2.636   0.277 -0.7363 -0.8266 -0.6205
  543SOL    HW2 1629   1.085   2.578   0.411 -0.6344 -0.8965  3.2122
  544SOL     OW 1630   2.736   1.784   2.237 -0.8919  0.0624  0.0989
  544SOL    HW1 1631   2.807   1.719   2.261 -2.0641  1.8442  0.1657
  544SOL    HW2 1632   2.661   1.748   2.172 -1.1629  0.8953 -0.8344
  545SOL     OW 1633   1.373   2.064   1.521  0.1664 -0.5870  0.0674
  545SOL    HW1 1634   1.320   2.055   1.606 -0.0754 -0.3496 -0.8959
  545SOL    HW2 1635   1.309   2.042   1.443 -1.2028  2.0231 -1.1341
  546SOL     OW 1636   0.307   0.286   2.456  0.0041  0.7744 -0.2966
  546SOL    HW1 1637   0.359   0.291   2.369 -0.8423  2.3240  0.2332
  546SOL    HW2 1638   0.301   0.188   2.488 -1.0579  1.4044  2.4619
  547SOL     OW 1639   0.936   0.333   0.623  0.2061  0.6447 -0.2065
  547SOL    HW1 1640   0.879   0.364   0.541  0.0272  3.5150 -0.3935
  547SOL    HW2 1641   1.030   0.368   0.626  0.1703 -2.0893 -1.0830
  548SOL     OW 1642   1.544   2.050   3.014  0.4489  0.0525  0.4098
  548SOL    HW1 1643   1.459   2.076   2.965 -0.1041  1.8558  0.7815
  548SOL    HW2 1644   1.616   2.026   2.946  0.0721 -0.7712  0.3002
  549SOL     OW 1645   2.142   1.008   0.185  0.0525 -0.3132 -0.3460
  549SOL    HW1 1646   2.085   1.090   0.212  1.8101  1.6240 -1.0609
  549SOL    HW2 1647   2.210   0.995   0.260  0.2237 -2.2495  2.2183
  550SOL     OW 1648   2.640   2.198   0.568  0.1486 -0.1409  0.5134
  550SOL    HW1 1649   2.642   2.158   0.474  0.6194 -1.4432  0.1408
  550SOL    HW2 1650   2.696   2.283   0.578 -1.7349 -0.4706  1.5361
  551SOL     OW 1651   1.196   0.252   1.375 -0.3312 -0.1200 -0.1693
  551SOL    HW1 1652   1.233   0.218   1.286 -1.0292 -3.3817 -1.5785
  551SOL    HW2 1653   1.179   0.175   1.438  1.4675 -0.0488 -2.2149
  552SOL     OW 1654   2.924   1.797   2.786  0.6924  0.1697 -0.3403
  552SOL    HW1 1655   2.975   1.727   2.728 -0.1075 -0.1988  0.5264
  552SOL    HW2 1656   2.935   1.771   2.883  0.4869 -0.3335  0.1263
  553SOL     OW 1657   2.669   2.633   0.716 -0.0834 -0.1499 -0.1451
  553SOL    HW1 1658   2.698   2.731   0.693  0.9772 -0.2381 -0.6510
  553SOL    HW2 1659   2.724   2.565   0.669  1.2063 -0.9796  0.8938
  554SOL     OW 1660   1.979   1.128   1.638  0.4845 -0.7981 -0.1376
  554SOL    HW1 1661   1.991   1.121   1.538 -1.5462  0.4142  1.5430
  554SOL    HW2 1662   1.937   1.220   1.658  1.8995  0.8602  1.5254
  555SOL     OW 1663   1.124   2.140   1.941 -0.3570  0.6156 -0.0113
  555SOL    HW1 1664   1.148   2.144   1.841  1.3323 -1.5353 -2.7942
  555SOL    HW2 1665   1.045   2.074   1.961 -2.0187 -0.4992  1.3878
  556SOL     OW 1666   1.160   1.523   1.788 -0.0077 -0.1313 -0.0386
  556SOL    HW1 1667   1.201   1.611   1.822  0.0962  0.7792 -1.7276
  556SOL    HW2 1668   1.233   1.458   1.750 -0.5013  0.9724 -2.9727
  557SOL     OW 1669   1.674   0.025   1.552  0.3468 -0.2664 -0.5370
  557SOL    HW1 1670   1.642   3.008   1.573 -0.4989  0.4181 -2.1335
  557SOL    HW2 1671   1.779   0.026   1.547  0.4382 -1.1921 -0.4476
  558SOL     OW 1672   0.825   2.936   2.096 -0.5891  0.0707 -0.1819
  558SOL    HW1 1673   0.876   2.848   2.075  1.6973 -1.0470 -2.7896
  558SOL    HW2 1674   0.842   3.001   2.019 -0.4906  0.5083  2.5225
  559SOL     OW 1675   1.701   2.609   0.295 -0.1505  0.1343  0.4004
  559SOL    HW1 1676   1.628   2.615   0.222  0.2978 -1.9109  1.7076
  559SOL    HW2 1677   1.657   2.577   0.381 -1.1544  0.0348 -1.6904
  560SOL     OW 1678   1.548   2.246   0.338 -0.2660  0.7466 -0.3186
  560SOL    HW1 1679   1.605   2.245   0.251 -0.5362  2.2421 -0.5328
  560SOL    HW2 1680   1.480   2.325   0.345 -2.6636  2.6452 -1.5719
  561SOL     OW 1681   1.517   0.202   0.618 -0.2201 -0.2832  0.0150
  561SOL    HW1 1682   1.524   0.108   0.655  0.5164  1.7520 -0.0484
  561SOL    HW2 1683   1.415   0.223   0.602  0.5884 -1.7041 -0.5545
  562SOL     OW 1684   0.339   1.183   1.847  0.6573  0.0942 -0.0436
  562SOL    HW1 1685   0.351   1.277   1.814  0.4488 -1.3308 -1.5194
  562SOL    HW2 1686   0.424   1.142   1.878 -1.5661 -1.0887  1.0767
  563SOL     OW 1687   1.242   2.224   2.646 -0.5220  0.1203 -0.6632
  563SOL    HW1 1688   1.177   2.185   2.584 -0.1406  1.2968  0.8343
  563SOL    HW2 1689   1.298   2.294   2.597  0.1639  0.1861 -1.0737
  564SOL     OW 1690   2.921   0.891   0.773  0.3371  0.2747  0.0661
  564SOL    HW1 1691   2.952   0.924   0.868  2.1980 -0.1292 -1.7778
  564SOL    HW2 1692   2.928   0.785   0.758 -1.4893 -2.6630  2.1791
  565SOL     OW 1693   0.638   1.246   3.021  0.0277  0.0709 -0.2401
  565SOL    HW1 1694   0.590   1.325   3.066 -0.8029  0.7445 -0.0560
  565SOL    HW2 1695   0.737   1.265   3.033 -4.2753  0.4615  1.3002
  566SOL     OW 1696   2.383   2.615   2.785  0.1293 -0.0577 -0.2681
  566SOL    HW1 1697   2.440   2.549   2.731 -0.9244 -1.7699 -1.2735
  566SOL    HW2 1698   2.338   2.568   2.865  0.3335 -1.2245 -0.0722
  567SOL     OW 1699   1.311   1.323   1.500  0.7197 -0.2111 -0.2687
  567SOL    HW1 1700   1.402   1.359   1.468  0.5506 -1.8322 -0.0244
  567SOL    HW2 1701   1.304   1.330   1.601  1.5029  1.1581 -1.0147
  568SOL     OW 1702   1.429   1.285   2.754 -0.0782  0.0165 -0.1333
  568SOL    HW1 1703   1.438   1.190   2.794  0.5263 -2.3090 -0.9642
  568SOL    HW2 1704   1.515   1.334   2.782  2.6261 -0.0176 -0.4340
  569SOL     OW 1705   2.090   1.842   0.343  0.5756  0.2513  0.2711
  569SOL    HW1 1706   2.072   1.862   0.243  1.9442 -2.7838  3.3099
  569SOL    HW2 1707   2.016   1.890   0.393  2.8485 -0.1621  0.9026
  570SOL     OW 1708   2.742   2.073   2.252  0.2394  0.5212 -0.1754
  570SOL    HW1 1709   2.789   2.133   2.187  0.1543  1.8748 -0.9229
  570SOL    HW2 1710   2.759   1.973   2.238 -0.1079 -1.2754  1.6338
  571SOL     OW 1711   2.760   1.846   1.873  0.1256  0.0340 -0.0270
  571SOL    HW1 1712   2.779   1.783   1.798  1.0066 -1.9181  0.3856
  571SOL    HW2 1713   2.763   1.800   1.961 -0.9408  0.9986 -0.1818
  572SOL     OW 1714   1.487   2.608   0.091  0.0830 -0.6051  0.1962
  572SOL    HW1 1715   1.387   2.637   0.084  1.4672  2.1689 -0.0756
  572SOL    HW2 1716   1.492   2.516   0.047 -3.4237 -1.3890 -1.1691
  573SOL     OW 1717   1.416   1.874   0.630 -0.4481  0.3690 -0.1847
  573SOL    HW1 1718   1.498   1.914   0.668 -0.8699  1.7787 -1.1685
  573SOL    HW2 1719   1.343   1.873   0.699  0.5069  1.4428  0.7489
  574SOL     OW 1720   1.130   2.778   1.582 -0.4632  0.1572  0.2508
  574SOL    HW1 1721   1.187   2.859   1.607  0.0983  0.7461 -1.1996
  574SOL    HW2 1722   1.059   2.760   1.657  1.6191 -2.5498 -1.2137
  575SOL     OW 1723   0.965   0.848   1.432 -0.1568 -0.1159  0.1483
  575SOL    HW1 1724   0.922   0.818   1.344 -1.1983 -1.3754  1.3694
  575SOL    HW2 1725   0.913   0.814   1.517  1.3269 -1.6530  3.5881
  576SOL     OW 1726   2.712   0.257   1.076 -0.0221 -0.4723 -0.1204
  576SOL    HW1 1727   2.716   0.304   0.984 -1.2000  2.0848  0.2613
  576SOL    HW2 1728   2.626   0.206   1.094  1.3068  0.3269 -0.6083
  577SOL     OW 1729   2.257   0.617   2.668  0.1619 -0.4116  0.2349
  577SOL    HW1 1730   2.201   0.652   2.743 -0.8986  0.7948  1.3062
  577SOL    HW2 1731   2.322   0.694   2.642  0.0024  0.2117  0.9824
  578SOL     OW 1732   1.960   1.570   2.282  0.5392 -0.3176 -0.2665
  578SOL    HW1 1733   1.938   1.493   2.213  0.2043  0.8144 -1.0944
  578SOL    HW2 1734   1.911   1.552   2.371 -2.3277  0.1910  0.0298
  579SOL     OW 1735   0.471   1.394   0.996  0.1987 -0.2955  0.0743
  579SOL    HW1 1736   0.395   1.368   1.064 -2.0484 -1.3547  2.1880
  579SOL    HW2 1737   0.453   1.361   0.898  0.3506 -2.0990 -4.4784
  580SOL     OW 1738   1.458   2.360   3.044 -0.2917 -0.5242  0.3717
  580SOL    HW1 1739   1.373   2.350   0.016  2.5640  0.0638 -0.7871
  580SOL    HW2 1740   1.441   2.404   2.953 -1.3728  1.1752  2.2144
  581SOL     OW 1741   1.011   0.606   2.141 -0.2323  0.5801 -0.2247
  581SOL    HW1 1742   0.979   0.507   2.152 -0.1913 -4.8330 -0.3753
  581SOL    HW2 1743   1.094   0.626   2.201  2.7746 -0.1965  1.3574
  582SOL     OW 1744   0.526   1.107   0.964 -0.1107 -0.4093 -0.0273
  582SOL    HW1 1745   0.454   1.066   0.905  1.1186 -2.2864  0.6288
  582SOL    HW2 1746   0.488   1.189   1.010 -0.7295 -2.0891  1.1818
  583SOL     OW 1747   0.931   1.620   2.015 -0.0125 -0.3573 -0.3630
  583SOL    HW1 1748   0.958   1.552   1.941  1.0109  1.1776  1.7266
  583SOL    HW2 1749   1.009   1.655   2.068 -1.0854 -0.1939  0.2323
  584SOL     OW 1750   2.139   2.769   0.384  0.5001 -0.5356 -0.6347
  584SOL    HW1 1751   2.238   2.770   0.382 -4.9311  0.0178  1.7846
  584SOL    HW2 1752   2.104   2.764   0.478 -0.4549  2.4318 -1.5062
  585SOL     OW 1753   1.868   0.737   2.959 -0.2520 -0.5335 -0.3580
  585SOL    HW1 1754   1.856   0.841   2.961 -0.1158  0.7422 -0.2525
  585SOL    HW2 1755   1.780   0.693   2.988 -1.0604 -1.3048 -0.3342
  586SOL     OW 1756   0.197   1.693   0.612 -0.2668  0.6712 -0.3360
  586SOL    HW1 1757   0.153   1.712   0.521  0.1974  1.2499  0.6189
  586SOL    HW2 1758   0.287   1.647   0.602 -0.1661  1.3754  1.3311
  587SOL     OW 1759   1.675   1.974   0.750  0.2890 -0.3686  0.1452
  587SOL    HW1 1760   1.660   2.069   0.713  1.5644  0.9210  1.4651
  587SOL    HW2 1761   1.777   1.959   0.734  0.9049 -1.0373  0.8541
  588SOL     OW 1762   0.493   0.688   0.937  0.4100  0.3876  0.6636
  588SOL    HW1 1763   0.529   0.665   1.031  2.2914 -1.2507  1.6268
  588SOL    HW2 1764   0.554   0.747   0.885 -0.1927  1.2343  1.4683
  589SOL     OW 1765   1.055   0.249   0.982 -0.2452  0.1310 -0.2594
  589SOL    HW1 1766   0.959   0.246   0.941 -1.4143 -1.0901 -1.9369
  589SOL    HW2 1767   1.053   0.315   1.057 -0.9847  1.0471  0.2312
  590SOL     OW 1768   1.372   0.912   0.393  0.4644  0.5477 -0.5665
  590SOL    HW1 1769   1.282   0.885   0.431 -2.3746  0.4798 -1.1562
  590SOL    HW2 1770   1.442   0.843   0.417 -1.9517 -3.6873  0.8702
  591SOL     OW 1771   2.553   2.505   2.210 -0.3389 -0.2976  0.2688
  591SOL    HW1 1772   2.531   2.456   2.120  1.3849 -0.9778 -0.8814
  591SOL    HW2 1773   2.597   2.436   2.270  1.3804 -2.0043  0.3302
  592SOL     OW 1774   1.627   1.982   1.023 -0.3538  0.4006 -0.7671
  592SOL    HW1 1775   1.643   1.979   0.922  2.4716  1.3945  0.1703
  592SOL    HW2 1776   1.530   2.005   1.046  1.7545  0.8565 -0.4117
  593SOL     OW 1777   1.023   2.999   0.800 -0.0807 -0.7036  0.0724
  593SOL    HW1 1778   0.982   2.910   0.814 -1.7930  2.8025  1.2037
  593SOL    HW2 1779   1.129   2.990   0.780  2.2117  0.9698 -0.3155
  594SOL     OW 1780   0.230   0.926   1.831 -0.5633  0.2706  0.5408
  594SOL    HW1 1781   0.297   0.876   1.770  0.4835 -0.4280 -1.5039
  594SOL    HW2 1782   0.258   1.016   1.852 -0.6125 -2.5678 -3.6539
  595SOL     OW 1783   0.066   2.778   0.893  0.2202  0.1797 -0.6267
  595SOL    HW1 1784   0.130   2.709   0.853 -0.7847  0.7065 -1.8343
  595SOL    HW2 1785   0.131   2.841   0.939 -3.5087 -0.1014 -0.0663
  596SOL     OW 1786   0.102   0.570   1.592 -0.2997  0.9595  0.1246
  596SOL    HW1 1787   0.190   0.524   1.623  0.8667 -0.9966  0.3918
  596SOL    HW2 1788   0.056   0.624   1.667  0.5160  3.6502  1.9698
  597SOL     OW 1789   1.853   1.494   0.643  0.2346 -0.6646 -0.1953
  597SOL    HW1 1790   1.905   1.410   0.630 -2.4886  2.4976  0.6330
  597SOL    HW2 1791   1.777   1.479   0.714  2.3871  1.0186 -1.5893
  598SOL     OW 1792   0.573   2.687   2.046 -0.4946  1.1008  0.4245
  598SOL    HW1 1793   0.631   2.709   1.962  1.6040 -0.8138 -0.3050
  598SOL    HW2 1794   0.534   2.593   2.044  0.5892 -0.8561  3.0301
  599SOL     OW 1795   2.611   2.040   2.977 -0.0434  0.6120 -0.3885
  599SOL    HW1 1796   2.639   1.966   2.914 -0.3879  2.3124  3.9921
  599SOL    HW2 1797   2.580   2.002   3.064 -0.0518 -1.4174 -1.4347
  600SOL     OW 1798   0.722   0.999   0.119  0.0073 -0.4360 -0.3558
  600SOL    HW1 1799   0.732   0.985   0.018  0.1531 -1.9516  1.6835
  600SOL    HW2 1800   0.685   1.089   0.148 -0.6164 -1.1219 -1.3454
  601SOL     OW 1801   1.017   1.095   0.197 -0.0511 -0.2350 -0.4683
  601SOL    HW1 1802   0.961   1.013   0.172 -1.3822  0.1036 -0.6412
  601SOL    HW2 1803   1.117   1.087   0.170  0.0587 -0.3448 -0.8914
  602SOL     OW 1804   1.292   2.669   1.062  0.2822 -0.1608  0.1506
  602SOL    HW1 1805   1.373   2.718   1.035 -2.8423  0.7744  1.7074
  602SOL    HW2 1806   1.248   2.721   1.135 -3.3503 -1.1964 -1.3626
  603SOL     OW 1807   0.955   3.018   2.345  0.4366 -0.2579  0.4700
  603SOL    HW1 1808   0.896   3.009   2.260 -1.0946 -1.2182 -2.1663
  603SOL    HW2 1809   1.045   2.970   2.337 -0.8751  0.5093 -0.2073
  604SOL     OW 1810   3.003   0.086   2.099 -0.5462 -0.1279  0.2734
  604SOL    HW1 1811   3.049   0.102   2.187  0.9664  0.6759 -0.1896
  604SOL    HW2 1812   3.025   0.159   2.036  1.0602 -2.2745 -0.2971
  605SOL     OW 1813   2.488   2.325   1.559  0.2097 -0.1018  0.2561
  605SOL    HW1 1814   2.469   2.401   1.493  1.0743 -2.4916  4.4753
  605SOL    HW2 1815   2.582   2.332   1.596  2.7633 -0.7724  1.5724
  606SOL     OW 1816   0.310   1.577   2.925 -0.1351 -0.0299  0.5238
  606SOL    HW1 1817   0.232   1.537   2.976 -0.3254 -0.4428 -2.3866
  606SOL    HW2 1818   0.287   1.669   2.894  1.8967 -3.3753  0.3676
  607SOL     OW 1819   0.695   0.461   0.146  0.0044  0.2287 -0.0761
  607SOL    HW1 1820   0.762   0.534   0.164 -1.9679  0.8957 -1.1295
  607SOL    HW2 1821   0.728   0.404   0.064 -2.1158 -2.5131  0.1206
  608SOL     OW 1822   1.889   1.257   2.355  0.3637 -0.4663 -0.2027
  608SOL    HW1 1823   1.805   1.203   2.334  0.9242 -0.4475 -1.1598
  608SOL    HW2 1824   1.869   1.319   2.435 -0.5624 -0.6389 -0.2777
  609SOL     OW 1825   2.949   0.398   0.871  0.0274  0.0513  0.1943
  609SOL    HW1 1826   2.951   0.426   0.971  2.4564  1.8098  2.0682
  609SOL    HW2 1827   2.852   0.381   0.849 -0.2271  0.7519 -1.0667
  610SOL     OW 1828   0.418   2.325   2.963  0.0950 -0.7918  0.2300
  610SOL    HW1 1829   0.458   2.236   2.990 -1.5212  0.8709 -0.1840
  610SOL    HW2 1830   0.421   2.387   3.046  0.6409  2.5766  2.4626
  611SOL     OW 1831   1.782   1.184   0.423 -0.3285  0.3714  0.1577
  611SOL    HW1 1832   1.859   1.206   0.361 -1.9660  0.0413  0.3925
  611SOL    HW2 1833   1.702   1.236   0.398  1.2411 -0.3295  2.4779
  612SOL     OW 1834   0.951   2.348   2.507 -0.5998 -0.1106 -0.0220
  612SOL    HW1 1835   0.954   2.306   2.602 -2.1085 -1.7470 -0.2598
  612SOL    HW2 1836   0.865   2.398   2.481 -2.8452  1.2386 -0.2691
  613SOL     OW 1837   1.063   1.729   2.950  0.3801  0.4195  0.2196
  613SOL    HW1 1838   1.162   1.732   2.945  0.1547 -1.2004  1.0538
  613SOL    HW2 1839   1.009   1.725   2.862 -0.9932 -0.0261  0.4712
  614SOL     OW 1840   2.719   2.750   1.454 -0.1600 -0.3900 -0.1278
  614SOL    HW1 1841   2.812   2.782   1.431  0.5115  0.9194 -0.9633
  614SOL    HW2 1842   2.701   2.661   1.411 -1.0120  3.6241  0.5755
  615SOL     OW 1843   2.323   1.421   2.964 -0.2356 -0.1826  0.2676
  615SOL    HW1 1844   2.231   1.416   2.929 -1.7110 -1.5961 -1.1394
  615SOL    HW2 1845   2.390   1.422   2.886  2.7291 -0.2896  2.0020
  616SOL     OW 1846   1.718   0.008   0.686  0.2294 -0.3565  0.1759
  616SOL    HW1 1847   1.713   0.107   0.657 -1.6473 -1.1194  0.0051
  616SOL    HW2 1848   1.793   0.002   0.756 -1.9110 -0.9461  0.2576
  617SOL     OW 1849   0.777   0.927   2.934 -0.3795 -0.2661  0.6358
  617SOL    HW1 1850   0.782   0.843   2.873  1.0173 -0.7444 -0.1650
  617SOL    HW2 1851   0.803   1.013   2.881 -0.9052 -0.4982 -1.2111
  618SOL     OW 1852   0.766   0.794   1.829  0.3385 -0.1526  0.2284
  618SOL    HW1 1853   0.739   0.885   1.783 -0.9170  3.6056 -3.1004
  618SOL    HW2 1854   0.813   0.806   1.918  0.1268  1.4860  0.5357
  619SOL     OW 1855   0.192   0.996   1.521 -0.0039 -0.4744  1.0465
  619SOL    HW1 1856   0.136   1.070   1.571 -1.5575 -0.8692  0.6088
  619SOL    HW2 1857   0.256   0.945   1.582  2.0165 -0.8122  0.7542
  620SOL     OW 1858   1.966   1.313   0.008 -0.3704  0.2980  0.1997
  620SOL    HW1 1859   1.866   1.333   0.014 -3.9915 -1.1288 -0.4005
  620SOL    HW2 1860   2.005   1.342   2.997  2.4448 -0.2043 -1.8068
  621SOL     OW 1861   2.587   2.932   1.127 -0.4250  0.0096 -0.0191
  621SOL    HW1 1862   2.559   3.029   1.114  0.9287 -0.3924  0.0953
  621SOL    HW2 1863   2.535   2.891   1.202  2.8429 -0.4194 -0.3612
  622SOL     OW 1864   1.664   0.923   2.441 -0.4383 -0.3037  0.3414
  622SOL    HW1 1865   1.762   0.924   2.427 -0.8133  1.6516 -0.3510
  622SOL    HW2 1866   1.618   0.838   2.402 -2.6085  1.1493  2.0961
  623SOL     OW 1867   0.847   0.322   3.013  0.1038 -0.4392  0.2387
  623SOL    HW1 1868   0.940   0.283   3.005 -1.9095 -1.5216  1.7512
  623SOL    HW2 1869   0.837   0.413   2.981 -1.0937 -3.3766  4.1320
  624SOL     OW 1870   1.542   0.387   0.339  0.0724  0.5182 -0.1012
  624SOL    HW1 1871   1.450   0.360   0.367  0.6050  0.8887 -1.3101
  624SOL    HW2 1872   1.615   0.360   0.405 -0.9627  0.8916  1.3431
  625SOL     OW 1873   0.740   1.249   0.864 -0.1028  0.4616  0.8145
  625SOL    HW1 1874   0.737   1.342   0.827 -0.7278 -3.5799 -1.4424
  625SOL    HW2 1875   0.642   1.213   0.879  0.4281 -0.9636  0.4094
  626SOL     OW 1876   1.290   1.071   0.191  0.7116 -0.8086 -0.0959
  626SOL    HW1 1877   1.344   1.158   0.185  0.5646  0.0362  0.6986
  626SOL    HW2 1878   1.319   1.011   0.267  0.9773 -1.5452 -0.4974
  627SOL     OW 1879   0.883   0.040   1.866 -0.4615 -0.6501 -0.0439
  627SOL    HW1 1880   0.946   0.111   1.900  0.5062 -2.2622  1.5320
  627SOL    HW2 1881   0.789   0.073   1.869 -0.1695 -1.7198 -0.2841
  628SOL     OW 1882   2.546   0.195   2.219  0.2852 -0.0518 -0.5198
  628SOL    HW1 1883   2.630   0.246   2.204 -0.0985  0.3083 -1.3079
  628SOL    HW2 1884   2.459   0.250   2.213 -2.4016  0.8583  3.0923
  629SOL     OW 1885   0.865   1.153   2.792  0.5663 -0.4897  0.2679
  629SOL    HW1 1886   0.902   1.243   2.819  1.6206  0.1585  0.6977
  629SOL    HW2 1887   0.808   1.158   2.706  0.9999  0.8402 -0.9723
  630SOL     OW 1888   1.213   0.241   2.304 -0.2196 -0.3608  0.2642
  630SOL    HW1 1889   1.126   0.290   2.332 -2.7585  1.3735  2.2086
  630SOL    HW2 1890   1.286   0.277   2.367  0.7032 -0.8328  3.0827
  631SOL     OW 1891   2.647   0.908   0.798  0.0371  0.5178  0.4998
  631SOL    HW1 1892   2.621   0.980   0.866 -0.1399  0.1812  1.4268
  631SOL    HW2 1893   2.748   0.907   0.781 -2.6972  1.1744 -1.6114
  632SOL     OW 1894   2.345   1.002   1.335  0.4160  0.1941  0.7079
  632SOL    HW1 1895   2.434   0.969   1.308 -1.5329  1.0269  0.8007
  632SOL    HW2 1896   2.326   1.098   1.309 -3.1857  1.4063 -0.2720
  633SOL     OW 1897   1.616   0.967   1.014 -0.1589  0.1745 -0.1184
  633SOL    HW1 1898   1.706   0.995   0.975  1.1583  0.1037  2.1011
  633SOL    HW2 1899   1.617   0.872   1.055 -2.6486 -1.6294 -0.4146
  634SOL     OW 1900   1.926   3.051   0.868 -0.3039  0.4908  0.0989
  634SOL    HW1 1901   1.922   2.962   0.919 -1.2587  0.9227  0.6353
  634SOL    HW2 1902   1.989   0.034   0.918  0.0120 -0.0909 -0.8079
  635SOL     OW 1903   1.659   0.789   1.423  0.2818 -0.0534 -0.6384
  635SOL    HW1 1904   1.675   0.892   1.450 -2.1720  1.3247  0.2667
  635SOL    HW2 1905   1.593   0.747   1.482  1.7409  2.1278  0.3917
  636SOL     OW 1906   0.908   0.671   0.551 -0.5444 -0.1974 -0.4583
  636SOL    HW1 1907   0.855   0.738   0.499 -1.7598 -0.0416  2.9149
  636SOL    HW2 1908   0.858   0.620   0.626  2.1433 -4.5755 -1.1808
  637SOL     OW 1909   1.665   2.224   0.111 -0.4988  0.0584  0.5617
  637SOL    HW1 1910   1.622   2.313   0.088  0.4409  2.1845  0.7093
  637SOL    HW2 1911   1.636   2.158   0.035 -1.1287 -1.9644 -3.5454
  638SOL     OW 1912   1.261   2.765   2.819 -0.5083 -0.1927  0.1299
  638SOL    HW1 1913   1.211   2.777   2.904  1.4732 -2.9915 -0.5072
  638SOL    HW2 1914   1.359   2.803   2.822  3.5564  2.8365 -0.8375
  639SOL     OW 1915   0.786   2.043   0.999 -0.0673  0.0961 -0.1018
  639SOL    HW1 1916   0.805   1.961   0.937 -1.4534  1.4137  0.1426
  639SOL    HW2 1917   0.703   2.036   1.056 -0.5546  1.8267  2.8803
  640SOL     OW 1918   0.363   2.753   0.207  0.1350  0.3234  0.0263
  640SOL    HW1 1919   0.380   2.700   0.295  0.1590  2.6333 -2.6475
  640SOL    HW2 1920   0.347   2.846   0.234  0.5650  0.0997 -1.3967
  641SOL     OW 1921   0.184   0.229   0.060  0.1042  0.2153  0.2651
  641SOL    HW1 1922   0.184   0.196   0.156 -1.4933  1.7818 -2.7377
  641SOL    HW2 1923   0.273   0.264   0.037 -1.3897  0.5320 -2.4347
  642SOL     OW 1924   0.073   1.501   1.239 -0.4621  0.4000  0.3381
  642SOL    HW1 1925   0.145   1.543   1.176 -2.5392  1.4386 -0.9728
  642SOL    HW2 1926   0.005   1.572   1.273 -1.3335  0.3122  0.9429
  643SOL     OW 1927   0.773   1.802   2.139 -0.4822  0.4105  0.0975
  643SOL    HW1 1928   0.800   1.721   2.084 -1.2962 -3.1804  0.3238
  643SOL    HW2 1929   0.830   1.883   2.129 -0.9007  1.5457  1.9480
  644SOL     OW 1930   1.640   2.554   0.551  0.0507  0.5687 -0.8120
  644SOL    HW1 1931   1.728   2.507   0.587  2.9720  0.4174  0.9123
  644SOL    HW2 1932   1.565   2.542   0.622 -0.7088  0.2042  0.1800
  645SOL     OW 1933   1.623   2.464   1.332 -0.3778  0.3316  0.1235
  645SOL    HW1 1934   1.719   2.492   1.318  0.7938 -0.6408  0.2279
  645SOL    HW2 1935   1.611   2.370   1.358  1.8633  3.0823 -1.8093
  646SOL     OW 1936   1.156   2.899   0.441  0.2002 -0.6061  0.5320
  646SOL    HW1 1937   1.087   2.969   0.416 -2.9805  0.2546  0.3234
  646SOL    HW2 1938   1.139   2.809   0.398  0.2953  2.0930 -1.2317
  647SOL     OW 1939   0.393   2.890   2.020 -0.2374 -0.2265  0.3847
  647SOL    HW1 1940   0.306   2.835   2.009  0.3152  2.6322 -0.1020
  647SOL    HW2 1941   0.479   2.831   2.030  1.9272 -0.5360 -0.4487
  648SOL     OW 1942   2.396   0.788   0.773 -0.0372 -0.2269  0.0305
  648SOL    HW1 1943   2.322   0.854   0.764  3.0916 -3.5147  0.0160
  648SOL    HW2 1944   2.487   0.829   0.782 -1.2180 -0.0647 -0.9537
  649SOL     OW 1945   1.856   2.293   2.897 -0.1100 -0.1841  0.4839
  649SOL    HW1 1946   1.916   2.289   2.981  0.3566 -0.8051  1.6877
  649SOL    HW2 1947   1.804   2.382   2.891 -0.6932 -1.2387 -1.2794
  650SOL     OW 1948   2.444   1.653   1.528 -0.2336  0.7677  0.2533
  650SOL    HW1 1949   2.475   1.720   1.596  2.0881 -1.1750 -2.1770
  650SOL    HW2 1950   2.342   1.643   1.531 -2.4013  2.4215 -1.6916
  651SOL     OW 1951   1.577   1.719   2.822  0.1361  0.0217  0.4450
  651SOL    HW1 1952   1.661   1.775   2.832  1.7245  1.9548 -1.4372
  651SOL    HW2 1953   1.529   1.731   2.732  1.7846 -0.5149  0.3179
  652SOL     OW 1954   0.893   2.905   2.738  0.0252  0.7626 -0.8954
  652SOL    HW1 1955   0.939   2.819   2.710 -0.0323  0.2627  2.1454
  652SOL    HW2 1956   0.943   2.981   2.697 -1.1902 -1.4354  1.4944
  653SOL     OW 1957   1.967   2.399   0.870 -0.0940 -0.2531 -0.2744
  653SOL    HW1 1958   1.922   2.391   0.962 -2.5051  0.0562 -0.6250
  653SOL    HW2 1959   2.055   2.347   0.868  2.3514 -0.6622  0.0435
  654SOL     OW 1960   2.705   2.853   2.133 -0.9793  0.3871  0.2488
  654SOL    HW1 1961   2.662   2.822   2.219  0.3406 -0.7396  1.3824
  654SOL    HW2 1962   2.636   2.916   2.083 -0.5354  1.7566  0.0898
  655SOL     OW 1963   2.606   2.196   1.271  0.0228  0.5846  0.0609
  655SOL    HW1 1964   2.587   2.241   1.187  1.2863  0.9291 -0.0164
  655SOL    HW2 1965   2.563   2.253   1.350 -1.6705  1.1767  2.5666
  656SOL     OW 1966   2.960   2.050   2.744 -0.1421  0.2538 -0.4605
  656SOL    HW1 1967   2.971   2.058   2.643 -0.5615 -0.5847 -1.1558
  656SOL    HW2 1968   2.940   1.955   2.767  2.1132  0.6359 -0.1719
  657SOL     OW 1969   2.681   0.808   0.467  0.6571 -0.1570  0.2150
  657SOL    HW1 1970   2.627   0.817   0.383  0.5095 -0.9227  0.8328
  657SOL    HW2 1971   2.773   0.847   0.460  0.0328  1.7117 -2.1918
  658SOL     OW 1972   1.371   1.734   1.201 -0.1692  0.4632  0.0978
  658SOL    HW1 1973   1.338   1.732   1.303 -1.7826 -0.0585  4.6135
  658SOL    HW2 1974   1.432   1.813   1.179 -1.2138 -1.1367  0.1985
  659SOL     OW 1975   1.387   0.117   1.224  0.1566  0.0412 -0.1791
  659SOL    HW1 1976   1.410   0.210   1.184 -1.6909 -0.2647 -1.6864
  659SOL    HW2 1977   1.412   0.119   1.324 -1.1944  0.1510 -0.8220
  660SOL     OW 1978   2.034   1.381   0.977 -0.2605  0.0145 -0.2424
  660SOL    HW1 1979   2.138   1.390   0.960  0.9511 -3.4365 -2.1498
  660SOL    HW2 1980   2.006   1.395   1.070  2.5677  2.0249 -1.1363
  661SOL     OW 1981   0.184   1.542   0.241 -0.0413 -0.1145 -0.3100
  661SOL    HW1 1982   0.132   1.613   0.294  0.7520 -2.5680  0.8800
  661SOL    HW2 1983   0.281   1.560   0.268 -1.1455 -1.7363  2.3745
  662SOL     OW 1984   2.652   0.916   1.817  0.4993 -0.0328 -0.4292
  662SOL    HW1 1985   2.624   0.866   1.900  1.9945  0.7465 -2.3861
  662SOL    HW2 1986   2.574   0.923   1.756  1.4121  1.2411 -0.0200
  663SOL     OW 1987   1.989   1.412   1.250 -0.1988 -0.7847 -0.1122
  663SOL    HW1 1988   2.008   1.466   1.338  1.4577  3.5581 -0.4606
  663SOL    HW2 1989   2.017   1.314   1.268 -0.2793 -0.3332  1.3990
  664SOL     OW 1990   0.369   0.133   1.251 -0.0815  0.0258 -0.5761
  664SOL    HW1 1991   0.325   0.118   1.340 -0.9856 -2.4666 -0.5603
  664SOL    HW2 1992   0.434   0.057   1.231 -1.1927  1.3433  1.1956
  665SOL     OW 1993   1.312   0.126   2.880 -0.1435  0.1465 -0.8455
  665SOL    HW1 1994   1.384   0.190   2.900 -1.8104  1.5259 -0.7138
  665SOL    HW2 1995   1.315   0.040   2.929  0.8833  1.8877  0.7468
  666SOL     OW 1996   0.469   0.321   2.232  0.1691 -0.4377 -0.2712
  666SOL    HW1 1997   0.498   0.415   2.229  0.1587 -1.7496  0.6254
  666SOL    HW2 1998   0.547   0.265   2.262  0.7491  0.0191  0.0185
  667SOL     OW 1999   1.840   1.384   2.117  0.0790 -0.2553  0.1028
  667SOL    HW1 2000   1.913   1.350   2.059 -2.4919 -0.9824 -0.2528
  667SOL    HW2 2001   1.828   1.324   2.197  1.2340  0.4549 -1.4743
  668SOL     OW 2002   3.051   1.637   2.587  0.1415  0.4569  0.0423
  668SOL    HW1 2003   2.982   1.577   2.548 -0.2803  0.1096 -0.6803
  668SOL    HW2 2004   0.055   1.578   2.609 -0.0030  1.7019  1.3630
  669SOL     OW 2005   2.268   0.050   2.610 -0.7727 -0.2371 -0.0317
  669SOL    HW1 2006   2.325   3.059   2.660  1.5347 -0.7637 -0.7841
  669SOL    HW2 2007   2.288   0.140   2.657  1.3880  2.1875  1.1665
  670SOL     OW 2008   2.603   0.995   2.260  0.1478  0.1759  0.2806
  670SOL    HW1 2009   2.700   1.026   2.260  0.2381 -1.0236 -0.6352
  670SOL    HW2 2010   2.576   0.926   2.189  1.0287  2.7617  3.8706
  671SOL     OW 2011   2.533   1.883   0.109  0.4578 -0.1375  0.4668
  671SOL    HW1 2012   2.616   1.829   0.083  0.2386 -0.2370  1.9139
  671SOL    HW2 2013   2.503   1.845   0.200  1.8934  1.4614  0.5759
  672SOL     OW 2014   2.060   1.760   2.095  0.2265  0.7078  0.7849
  672SOL    HW1 2015   2.158   1.737   2.075  1.5797  2.7207 -0.7832
  672SOL    HW2 2016   2.009   1.691   2.157 -0.8017 -1.9150 -1.3602
  673SOL     OW 2017   2.886   1.769   1.065  0.3029  0.6499  0.1001
  673SOL    HW1 2018   2.857   1.867   1.094 -0.3117  1.5899  0.5058
  673SOL    HW2 2019   2.975   1.739   1.107  2.9935  0.0487  0.9078
  674SOL     OW 2020   0.999   1.900   1.823 -0.5163 -0.1398 -0.5578
  674SOL    HW1 2021   0.985   1.816   1.883 -0.8632 -0.1110  0.9940
  674SOL    HW2 2022   0.911   1.934   1.783 -1.0988  1.4589  0.7018
  675SOL     OW 2023   2.972   0.641   0.710  0.0249  0.1433  0.5524
  675SOL    HW1 2024   3.072   0.649   0.693 -0.6976 -0.8557  1.2286
  675SOL    HW2 2025   2.949   0.568   0.777 -0.5225  1.1035 -0.2153
  676SOL     OW 2026   0.006   1.281   0.715 -0.0663  0.2512 -0.2061
  676SOL    HW1 2027   3.062   1.211   0.647  1.0580 -0.1241  2.1408
  676SOL    HW2 2028   3.077   1.249   0.808  0.2844 -1.4649  1.4780
  677SOL     OW 2029   1.671   1.731   2.237  0.1312 -0.4616 -0.0870
  677SOL    HW1 2030   1.652   1.653   2.174  1.5049 -2.6305  0.4266
  677SOL    HW2 2031   1.714   1.805   2.187  1.5881 -1.3141  2.3533
  678SOL     OW 2032   2.609   1.517   0.906 -0.1255 -0.2373 -0.0172
  678SOL    HW1 2033   2.580   1.612   0.905 -0.4161 -0.0833 -0.8665
  678SOL    HW2 2034   2.562   1.456   0.838  0.5539 -3.3930 -0.7206
  679SOL     OW 2035   0.599   2.166   0.741 -1.1941 -0.2721 -0.5887
  679SOL    HW1 2036   0.518   2.176   0.684  0.0735  0.5167  1.6712
  679SOL    HW2 2037   0.666   2.244   0.731  3.1207 -2.8835 -0.8821
  680SOL     OW 2038   3.042   1.742   1.330 -0.6564 -1.1601 -0.0870
  680SOL    HW1 2039   0.003   1.834   1.297  0.2813  0.1201  1.7430
  680SOL    HW2 2040   2.960   1.764   1.389 -1.5525  0.7918  1.2800
  681SOL     OW 2041   0.985   0.383   1.229  0.0189  0.4277 -0.1872
  681SOL    HW1 2042   0.900   0.330   1.254 -0.9645 -0.7166 -0.6317
  681SOL    HW2 2043   1.064   0.357   1.289  1.5741  0.9343 -1.8277
  682SOL     OW 2044   1.831   2.927   1.209 -0.2616  0.2618  0.0763
  682SOL    HW1 2045   1.797   2.882   1.292 -0.7045  0.4565 -0.0353
  682SOL    HW2 2046   1.792   3.023   1.203  1.5134 -0.7437 -1.1342
  683SOL     OW 2047   2.250   1.346   1.463 -0.1625 -0.4492 -0.3322
  683SOL    HW1 2048   2.209   1.437   1.499 -1.0826  3.0354  0.3081
  683SOL    HW2 2049   2.289   1.289   1.543  1.6527  0.1089  0.9226
  684SOL     OW 2050   0.089   1.694   1.770  0.2198 -0.1756 -0.0977
  684SOL    HW1 2051   0.050   1.620   1.712 -0.3909 -2.3643 -2.9374
  684SOL    HW2 2052   0.166   1.660   1.830  2.8101 -1.0223  0.8654
  685SOL     OW 2053   2.046   1.953   0.099  0.7729 -0.0383 -0.1176
  685SOL    HW1 2054   1.987   2.027   0.142  2.6538 -2.0043  3.5040
  685SOL    HW2 2055   1.983   1.894   0.046  1.2568 -0.9520 -1.7514
  686SOL     OW 2056   2.689   0.371   0.833  0.1766 -0.0445  0.3234
  686SOL    HW1 2057   2.668   0.469   0.856 -0.1349  1.1616 -0.8189
  686SOL    HW2 2058   2.636   0.348   0.746 -3.6242  2.1643  0.6414
  687SOL     OW 2059   1.567   0.243   2.601 -1.1138  0.0790  0.3256
  687SOL    HW1 2060   1.527   0.160   2.553 -0.5136 -0.6625 -0.5769
  687SOL    HW2 2061   1.640   0.214   2.661 -1.5169 -0.1004 -0.3965
  688SOL     OW 2062   1.067   2.076   2.466  0.8010 -0.2001  0.2473
  688SOL    HW1 2063   1.077   2.038   2.370  2.4953  0.5992 -1.4681
  688SOL    HW2 2064   0.995   2.143   2.484 -1.1808  1.2199  0.7238
  689SOL     OW 2065   2.440   1.444   1.728 -0.4960 -0.0300 -0.2630
  689SOL    HW1 2066   2.439   1.505   1.648  1.4893  0.8481  0.9270
  689SOL    HW2 2067   2.539   1.432   1.753  0.3773  0.4053  1.5937
  690SOL     OW 2068   1.710   1.787   1.216  0.1397  0.1098  0.1955
  690SOL    HW1 2069   1.717   1.857   1.140  0.2901 -1.8006 -1.1088
  690SOL    HW2 2070   1.746   1.696   1.180  3.8411  0.0749 -1.5282
  691SOL     OW 2071   0.226   1.409   0.666  0.0176 -0.0227 -0.1515
  691SOL    HW1 2072   0.213   1.447   0.573 -1.8447  0.4525  0.8115
  691SOL    HW2 2073   0.138   1.365   0.693  0.1870  1.6144  1.0542
  692SOL     OW 2074   2.410   2.746   2.166  0.1511 -0.6796 -0.2586
  692SOL    HW1 2075   2.413   2.783   2.261 -1.9330 -0.3359 -0.5761
  692SOL    HW2 2076   2.455   2.657   2.166  0.9528  0.6953  2.1890
  693SOL     OW 2077   2.946   1.484   2.176  1.0724 -0.3256  0.0865
  693SOL    HW1 2078   2.963   1.397   2.225 -1.3656  1.4660 -0.6465
  693SOL    HW2 2079   2.975   1.564   2.232 -0.7138  0.2064  2.6882
  694SOL     OW 2080   2.195   0.202   1.843  0.6206 -0.4810  0.2731
  694SOL    HW1 2081   2.218   0.143   1.764  0.1698  1.9540 -0.6692
  694SOL    HW2 2082   2.257   0.285   1.846 -0.5290  1.7792 -1.6231
  695SOL     OW 2083   1.128   0.815   2.692  0.1728  0.2450  0.4978
  695SOL    HW1 2084   1.045   0.798   2.635  0.6708 -0.9637  0.1852
  695SOL    HW2 2085   1.184   0.893   2.655  1.0390 -1.2280  0.0129
  696SOL     OW 2086   1.731   0.244   1.685  0.3110 -0.3650 -0.0224
  696SOL    HW1 2087   1.805   0.224   1.752  0.6008 -1.7272  2.0342
  696SOL    HW2 2088   1.711   0.159   1.635  0.6196  1.9064  0.1887
  697SOL     OW 2089   1.633   0.144   2.015  0.1842  0.5567 -0.2807
  697SOL    HW1 2090   1.730   0.158   1.986  2.9559  0.7553 -3.1138
  697SOL    HW2 2091   1.586   0.081   1.948  1.3805 -0.6224  2.8004
  698SOL     OW 2092   1.814   1.902   2.066  0.3060  0.3230  0.2040
  698SOL    HW1 2093   1.907   1.862   2.060  1.8577 -1.9347  1.4875
  698SOL    HW2 2094   1.767   1.899   1.979 -2.1846  0.8201  1.8677
  699SOL     OW 2095   1.964   0.766   0.231  0.9007 -0.1780  0.2734
  699SOL    HW1 2096   1.869   0.804   0.216 -3.6992  0.3127  0.4952
  699SOL    HW2 2097   2.035   0.832   0.193  2.0757  0.0153 -0.3075
  700SOL     OW 2098   1.297   0.330   0.444 -0.4194  0.0356 -0.1412
  700SOL    HW1 2099   1.245   0.410   0.477  2.3382  0.7843  0.4209
  700SOL    HW2 2100   1.243   0.266   0.384 -1.1491 -0.7561 -1.0830
  701SOL     OW 2101   0.208   0.689   0.973  0.2099  0.1088 -0.7236
  701SOL    HW1 2102   0.313   0.677   0.968  1.0522  0.0565 -1.4697
  701SOL    HW2 2103   0.171   0.717   0.884  3.5335 -2.2079 -0.3178
  702SOL     OW 2104   1.942   0.201   1.366  0.0411  0.2377 -0.4939
  702SOL    HW1 2105   1.873   0.188   1.290  3.0537 -1.1310 -0.8630
  702SOL    HW2 2106   1.994   0.290   1.346  1.1954  1.2184  0.4360
  703SOL     OW 2107   2.818   0.971   1.411 -0.0630 -0.1228  0.5297
  703SOL    HW1 2108   2.890   1.038   1.395 -3.9815 -0.3649  3.5132
  703SOL    HW2 2109   2.830   0.924   1.497 -0.0396  1.7664 -1.1352
  704SOL     OW 2110   1.009   2.546   1.495 -0.4074  0.0330  0.1403
  704SOL    HW1 2111   1.075   2.611   1.532  0.8008  0.9071 -1.0116
  704SOL    HW2 2112   1.042   2.452   1.506 -3.5449 -0.8955  1.3181
  705SOL     OW 2113   0.205   1.498   2.577  0.1531 -0.1909  0.0833
  705SOL    HW1 2114   0.233   1.533   2.484 -1.1287  0.3133  0.3713
  705SOL    HW2 2115   0.286   1.465   2.625 -0.9492 -0.6490 -0.4090
  706SOL     OW 2116   2.964   2.970   3.072 -0.1999  0.3845  0.3385
  706SOL    HW1 2117   2.859   2.961   3.074 -1.6331  0.4289  0.6451
  706SOL    HW2 2118   3.006   2.938   0.086  0.3566 -2.6309 -1.2978
  707SOL     OW 2119   1.588   2.654   2.531  0.3710 -0.5676  0.0785
  707SOL    HW1 2120   1.591   2.666   2.427  2.5862 -0.0230 -1.8492
  707SOL    HW2 2121   1.523   2.577   2.557 -0.2497  0.9134 -0.8181
  708SOL     OW 2122   0.321   2.610   1.552 -0.3481 -0.4037 -0.4009
  708SOL    HW1 2123   0.339   2.559   1.644  1.3269 -2.0830  5.0007
  708SOL    HW2 2124   0.248   2.566   1.498 -0.3566 -0.5266  0.9996
  709SOL     OW 2125   3.011   0.731   2.063  0.4924 -0.1592  0.3019
  709SOL    HW1 2126   3.057   0.751   1.975 -1.4191 -0.4908  0.0537
  709SOL    HW2 2127   0.005   0.705   2.134  1.6694 -1.1828 -2.8954
  710SOL     OW 2128   0.054   0.847   1.148  0.5157 -1.0878  0.3225
  710SOL    HW1 2129   0.098   0.790   1.074  0.9675  0.4549 -2.3830
  710SOL    HW2 2130   0.091   0.834   1.237  0.2090  0.4318 -2.3177
  711SOL     OW 2131   2.830   2.824   1.142  0.1341 -0.2757 -0.7386
  711SOL    HW1 2132   2.853   2.749   1.083 -1.7300  3.2599 -0.1398
  711SOL    HW2 2133   2.730   2.833   1.160  1.0724 -2.2946  2.6255
  712SOL     OW 2134   0.280   0.017   2.529  0.2477 -0.0799 -0.0780
  712SOL    HW1 2135   0.242   3.050   2.609  2.8892 -0.0641  0.4430
  712SOL    HW2 2136   0.346   3.035   2.484 -0.7066  3.9048  2.4756
  713SOL     OW 2137   2.287   0.126   0.482 -0.3409 -0.7054  0.1126
  713SOL    HW1 2138   2.322   0.216   0.447  2.2382 -0.6885 -1.7982
  713SOL    HW2 2139   2.244   0.081   0.403 -2.4732 -3.4914  0.8238
  714SOL     OW 2140   1.848   1.750   0.030  0.4506  0.1225 -0.2393
  714SOL    HW1 2141   1.764   1.787   0.071  2.4938 -0.1338  1.0109
  714SOL    HW2 2142   1.864   1.662   0.083 -1.0313 -1.2028  0.5200
  715SOL     OW 2143   0.044   0.306   0.658 -0.2894 -0.0986  0.0727
  715SOL    HW1 2144   0.050   0.206   0.648 -1.1399  0.6705  0.8775
  715SOL    HW2 2145   3.057   0.323   0.736 -0.5827 -0.1326 -2.5951
  716SOL     OW 2146   1.118   0.700   1.905  0.3853  0.1556 -0.5073
  716SOL    HW1 2147   1.128   0.612   1.856  1.3784 -0.8738  1.9991
  716SOL    HW2 2148   1.090   0.681   2.001  0.0922 -0.4501  1.2319
  717SOL     OW 2149   0.539   0.526   2.887 -0.4303  0.5532  0.4262
  717SOL    HW1 2150   0.480   0.601   2.857 -1.7646 -0.4610  2.3039
  717SOL    HW2 2151   0.633   0.558   2.910 -1.2971 -0.2950 -1.1449
  718SOL     OW 2152   1.055   0.690   0.198  0.3221  0.1690 -0.5453
  718SOL    HW1 2153   1.149   0.727   0.208  0.6821  0.5977 -1.0891
  718SOL    HW2 2154   1.056   0.587   0.184  1.7929 -1.0868  2.2985
  719SOL     OW 2155   2.498   2.351   2.718  0.8913  0.3519 -0.1628
  719SOL    HW1 2156   2.466   2.304   2.810  0.8048 -0.8792  1.0265
  719SOL    HW2 2157   2.423   2.352   2.649 -0.7111  1.5326 -3.6753
  720SOL     OW 2158   1.309   0.523   1.349 -0.4077  0.4034 -0.0775
  720SOL    HW1 2159   1.302   0.603   1.410  0.7751  1.7989  1.4311
  720SOL    HW2 2160   1.254   0.442   1.369 -1.5385 -1.0512 -0.7728
  721SOL     OW 2161   2.883   0.025   1.036  0.2164  0.0373  0.2902
  721SOL    HW1 2162   2.843   0.106   1.084  0.0707  0.1097 -1.6627
  721SOL    HW2 2163   2.841   3.014   1.071 -1.4815 -0.7442 -0.4235
  722SOL     OW 2164   1.135   1.393   2.572  0.3031  0.1316 -0.0637
  722SOL    HW1 2165   1.051   1.448   2.599 -0.2282  0.1630  0.5244
  722SOL    HW2 2166   1.204   1.409   2.642 -1.4469 -0.3501 -0.6606
  723SOL     OW 2167   2.355   0.305   0.961 -0.0673  0.3106  0.1252
  723SOL    HW1 2168   2.337   0.258   0.870  1.0258 -0.2685 -2.5349
  723SOL    HW2 2169   2.398   0.395   0.940  1.6101  2.1221 -1.5549
  724SOL     OW 2170   0.730   2.214   0.131  0.3462  0.0309  0.8456
  724SOL    HW1 2171   0.753   2.126   0.168 -1.1456  1.6791  0.8611
  724SOL    HW2 2172   0.800   2.281   0.154 -2.3147  0.8773 -0.0454
  725SOL     OW 2173   0.327   1.056   1.280  0.2761  0.6635 -0.1805
  725SOL    HW1 2174   0.271   1.029   1.364 -0.5868 -0.3248  0.4583
  725SOL    HW2 2175   0.411   1.003   1.269 -3.2864 -0.5171 -0.1826
  726SOL     OW 2176   2.344   0.741   0.208  0.4825 -0.5376 -0.2482
  726SOL    HW1 2177   2.274   0.807   0.233 -1.8915  1.6132 -0.8419
  726SOL    HW2 2178   2.439   0.781   0.205 -0.4540  0.1819 -1.4499
  727SOL     OW 2179   2.011   1.224   2.660 -0.4048  0.3409  0.0785
  727SOL    HW1 2180   2.057   1.292   2.603 -4.1218  1.6111  1.2060
  727SOL    HW2 2181   2.020   1.131   2.617  1.0775  1.3204  1.1140
  728SOL     OW 2182   1.825   2.827   1.469  0.5792  0.3526 -0.0364
  728SOL    HW1 2183   1.913   2.802   1.514  2.6511 -0.7619 -0.4958
  728SOL    HW2 2184   1.758   2.747   1.471 -1.0229  0.7306 -1.7634
  729SOL     OW 2185   2.335   0.702   2.024  0.1022 -0.3198  0.3933
  729SOL    HW1 2186   2.320   0.721   2.123 -0.2302 -0.6249  0.2986
  729SOL    HW2 2187   2.253   0.721   1.968 -1.2809 -2.2997 -4.4100
  730SOL     OW 2188   1.227   0.801   1.509  0.5092  0.0634  0.2529
  730SOL    HW1 2189   1.134   0.820   1.477  3.2982 -0.6891 -0.3771
  730SOL    HW2 2190   1.289   0.872   1.471  0.6884 -1.3735 -1.2023
  731SOL     OW 2191   0.505   0.639   0.137  0.0043  0.2990 -0.7573
  731SOL    HW1 2192   0.580   0.571   0.141 -1.6030 -1.0037 -1.6373
  731SOL    HW2 2193   0.513   0.693   0.050  0.1948 -0.0998 -0.1923
  732SOL     OW 2194   0.253   0.630   0.189  0.3297  0.0044 -0.0868
  732SOL    HW1 2195   0.206   0.614   0.101 -1.2224 -1.5530 -0.4039
  732SOL    HW2 2196   0.351   0.606   0.183 -2.5715  0.2132  2.4318
  733SOL     OW 2197   1.857   1.480   2.535  0.0484  0.0628 -0.1559
  733SOL    HW1 2198   1.768   1.530   2.547  0.8584  0.4434 -1.5840
  733SOL    HW2 2199   1.925   1.525   2.595  0.0049 -0.2347  0.8754
  734SOL     OW 2200   0.281   1.988   2.696  0.2763 -0.2288 -0.0249
  734SOL    HW1 2201   0.275   1.936   2.783  0.5134 -2.1321  0.4678
  734SOL    HW2 2202   0.244   2.081   2.714 -0.3980 -1.6898  0.3387
  735SOL     OW 2203   2.127   0.525   1.054  0.0974 -0.1210  0.0382
  735SOL    HW1 2204   2.105   0.489   0.961  0.7461 -2.6673 -0.3177
  735SOL    HW2 2205   2.228   0.539   1.058 -1.3397 -2.1261  0.6936
  736SOL     OW 2206   1.836   1.832   2.858  0.5961 -0.1075 -0.3396
  736SOL    HW1 2207   1.837   1.794   2.954  1.6993  1.0393  2.1368
  736SOL    HW2 2208   1.800   1.928   2.851  0.8740 -2.5015 -2.3005
  737SOL     OW 2209   0.007   0.407   0.378 -0.2673  0.6124 -0.4507
  737SOL    HW1 2210   0.035   0.503   0.371 -1.3057  1.5974 -0.4715
  737SOL    HW2 2211   0.009   0.379   0.479 -0.0050 -1.4898  1.5409
  738SOL     OW 2212   0.576   2.091   1.852 -0.1770  0.4154  0.0488
  738SOL    HW1 2213   0.623   2.167   1.909  0.6245  0.9185 -1.1705
  738SOL    HW2 2214   0.507   2.135   1.794 -1.9442 -0.4055 -0.4558
  739SOL     OW 2215   1.319   2.723   2.146 -0.4820  0.1301  0.1578
  739SOL    HW1 2216   1.272   2.711   2.057 -0.9401 -0.2282 -3.9397
  739SOL    HW2 2217   1.262   2.682   2.218 -0.2906  1.0572 -1.0065
  740SOL     OW 2218   2.100   2.298   1.368 -0.3587  0.3693 -0.5043
  740SOL    HW1 2219   1.995   2.293   1.373 -0.8970  0.1414  2.2915
  740SOL    HW2 2220   2.140   2.261   1.453 -0.0570  2.0119 -0.2609
  741SOL     OW 2221   1.883   0.510   0.260 -0.0815  0.2562  0.3660
  741SOL    HW1 2222   1.876   0.474   0.163  2.8994 -1.9160  1.3809
  741SOL    HW2 2223   1.920   0.606   0.252  0.6225 -2.5547 -0.1573
  742SOL     OW 2224   1.203   2.317   0.045  0.1287  0.0517  0.2134
  742SOL    HW1 2225   1.222   2.224   0.073 -1.1394  2.4327  1.3536
  742SOL    HW2 2226   1.152   2.312   3.030 -0.4421  0.4112 -2.8487
  743SOL     OW 2227   2.307   1.042   1.897 -0.4895 -0.2733  0.2857
  743SOL    HW1 2228   2.372   1.112   1.928 -1.3822  1.8648 -1.6139
  743SOL    HW2 2229   2.258   1.007   1.980 -1.8073  2.5395  1.0385
  744SOL     OW 2230   2.605   0.386   0.420 -0.8139  0.5484  0.1390
  744SOL    HW1 2231   2.549   0.419   0.345  0.2461 -1.7578  1.6121
  744SOL    HW2 2232   2.682   0.451   0.435  0.0656  1.7664  2.1366
  745SOL     OW 2233   2.351   1.197   1.656  0.0575 -0.1075 -0.3013
  745SOL    HW1 2234   2.323   1.140   1.737  0.9055  1.3619 -0.1280
  745SOL    HW2 2235   2.407   1.280   1.685  1.0807  0.3843 -0.3674
  746SOL     OW 2236   1.230   1.423   0.953 -0.1029 -0.2812  0.0361
  746SOL    HW1 2237   1.304   1.498   0.957  0.3027  1.5820 -0.8086
  746SOL    HW2 2238   1.151   1.450   0.893 -0.5300  1.4301 -0.5596
  747SOL     OW 2239   1.031   1.747   1.582 -0.4411  0.5634 -0.5145
  747SOL    HW1 2240   1.033   1.813   1.660  2.5623  0.0326 -1.3642
  747SOL    HW2 2241   1.015   1.653   1.611  1.6049  0.0532  0.4099
  748SOL     OW 2242   0.314   2.775   2.986 -0.2875 -0.4045  0.0854
  748SOL    HW1 2243   0.408   2.749   2.968 -2.5326 -2.0527 -2.2053
  748SOL    HW2 2244   0.315   2.857   3.050  1.2447 -0.6115  0.4380
  749SOL     OW 2245   0.136   1.211   2.572 -0.3590 -0.1921 -0.0766
  749SOL    HW1 2246   0.148   1.175   2.480 -0.2539 -1.0188 -0.6313
  749SOL    HW2 2247   0.147   1.310   2.571 -0.8774  0.7958  0.4314
  750SOL     OW 2248   1.905   1.067   1.887  0.1071 -0.0791  0.1251
  750SOL    HW1 2249   1.912   1.068   1.785 -1.4686 -0.7232  0.0750
  750SOL    HW2 2250   1.974   1.128   1.932 -1.9604  1.6048  1.2625
  751SOL     OW 2251   2.408   0.492   0.284  0.0192 -0.4750 -0.5161
  751SOL    HW1 2252   2.319   0.461   0.326 -1.5555 -2.9650 -1.0502
  751SOL    HW2 2253   2.407   0.589   0.256 -0.8413 -1.2975 -1.3129
  752SOL     OW 2254   0.341   2.476   0.964  0.4402 -0.1952  0.0270
  752SOL    HW1 2255   0.389   2.540   1.029  0.3676  1.2902  0.5160
  752SOL    HW2 2256   0.390   2.387   0.962  2.3323  0.0749  1.4752
  753SOL     OW 2257   0.826   2.531   1.234  0.1609  0.1687 -0.2081
  753SOL    HW1 2258   0.904   2.555   1.291  2.3139 -1.3307 -0.4477
  753SOL    HW2 2259   0.859   2.487   1.151  1.2337  2.6971 -2.0821
  754SOL     OW 2260   0.151   2.747   1.972  0.0318  0.3415 -0.3004
  754SOL    HW1 2261   0.082   2.795   2.032  1.3464  0.3951  2.0863
  754SOL    HW2 2262   0.150   2.646   1.986 -1.9822  0.9491 -1.6053
  755SOL     OW 2263   2.143   0.418   0.375  0.2268 -0.2777 -0.1587
  755SOL    HW1 2264   2.063   0.396   0.312  0.7076 -0.8747  0.5009
  755SOL    HW2 2265   2.112   0.469   0.461 -2.4393  0.7633  2.9940
  756SOL     OW 2266   2.234   2.160   2.710 -0.2948  0.2499  0.4825
  756SOL    HW1 2267   2.290   2.176   2.800  2.8814  0.5046  1.1825
  756SOL    HW2 2268   2.265   2.238   2.650 -2.2029  0.9922  2.0893
  757SOL     OW 2269   2.072   0.430   0.777 -0.0345 -0.0461  0.1355
  757SOL    HW1 2270   2.120   0.496   0.715  0.8834  0.9113 -0.7874
  757SOL    HW2 2271   1.970   0.445   0.774 -0.1507  1.0362  1.4340
  758SOL     OW 2272   2.159   0.617   1.536  0.0827 -0.0173  0.0296
  758SOL    HW1 2273   2.158   0.698   1.476 -0.2299 -0.9571 -1.6317
  758SOL    HW2 2274   2.155   0.643   1.635 -0.0905 -1.9755 -0.5673
  759SOL     OW 2275   2.672   0.638   0.928  0.4824 -0.0571 -0.7126
  759SOL    HW1 2276   2.727   0.658   1.014  1.7326 -0.6393  1.8454
  759SOL    HW2 2277   2.653   0.725   0.878  1.3317  1.8981  0.1679
  760SOL     OW 2278   2.344   1.258   1.235 -0.0032  0.2283  0.0037
  760SOL    HW1 2279   2.327   1.305   1.325  0.3020  0.1756 -0.1819
  760SOL    HW2 2280   2.439   1.281   1.207 -0.3026 -0.7105 -1.4198
  761SOL     OW 2281   0.700   0.814   0.410  0.2895  0.0819 -0.4506
  761SOL    HW1 2282   0.677   0.863   0.325 -1.1093  1.2134  0.5555
  761SOL    HW2 2283   0.660   0.867   0.489  1.3140 -0.4349  2.1198
  762SOL     OW 2284   0.891   1.713   0.578 -0.1604  0.3739  0.3550
  762SOL    HW1 2285   0.889   1.652   0.495  0.3478  0.9816 -1.0343
  762SOL    HW2 2286   0.841   1.801   0.555 -0.1092 -0.5379  2.0269
  763SOL     OW 2287   1.376   1.055   1.436 -0.1425  0.4275 -0.2663
  763SOL    HW1 2288   1.407   1.055   1.339 -1.1801  0.8317  0.4376
  763SOL    HW2 2289   1.346   1.147   1.460  0.1923  1.2811 -0.2846
  764SOL     OW 2290   0.511   1.846   2.639 -0.1950  0.3067  0.1770
  764SOL    HW1 2291   0.496   1.746   2.621 -1.1449 -3.9969  1.7417
  764SOL    HW2 2292   0.422   1.896   2.646  0.5582 -1.1053 -2.0185
  765SOL     OW 2293   0.696   2.738   1.796  0.3747  0.2177 -0.0874
  765SOL    HW1 2294   0.730   2.671   1.726 -1.7064 -3.9061  0.3624
  765SOL    HW2 2295   0.609   2.786   1.763 -0.8775  0.7200 -1.1347
  766SOL     OW 2296   2.506   2.137   2.132  0.1433 -0.5930  0.2696
  766SOL    HW1 2297   2.597   2.121   2.176  1.9818  0.3397 -1.0628
  766SOL    HW2 2298   2.437   2.183   2.191  1.2146 -1.6424 -2.2981
  767SOL     OW 2299   1.636   1.150   2.300  0.5991  0.1502 -0.0122
  767SOL    HW1 2300   1.637   1.072   2.366  2.3506  0.3270 -0.6606
  767SOL    HW2 2301   1.605   1.228   2.351 -0.2512 -2.7563 -2.4775
  768SOL     OW 2302   1.625   1.844   0.125 -0.4466 -0.0091 -0.0504
  768SOL    HW1 2303   1.563   1.806   0.191 -0.1318  1.2829  0.4750
  768SOL    HW2 2304   1.578   1.909   0.066  2.2359 -4.3987  1.5324
  769SOL     OW 2305   0.375   1.319   1.515  0.8258 -0.0690 -0.4400
  769SOL    HW1 2306   0.425   1.391   1.466  0.0541 -2.7404  0.4970
  769SOL    HW2 2307   0.425   1.230   1.508 -2.4302 -1.0660 -0.3474
  770SOL     OW 2308   1.413   1.037   2.852 -0.3100 -0.2076 -0.3105
  770SOL    HW1 2309   1.388   0.983   2.936  0.8717  0.5789  1.7621
  770SOL    HW2 2310   1.508   1.009   2.817  1.2203 -1.8109  0.6639
  771SOL     OW 2311   0.024   0.037   2.391  0.0729  0.2579  0.0678
  771SOL    HW1 2312   0.019   3.013   2.388 -1.0270 -1.2514 -0.0179
  771SOL    HW2 2313   0.115   0.074   2.406  0.8143  2.7880 -0.8235
  772SOL     OW 2314   1.886   1.858   1.712  0.0110 -0.0427  0.2199
  772SOL    HW1 2315   1.892   1.954   1.739 -0.8462 -1.0899  1.8473
  772SOL    HW2 2316   1.854   1.850   1.605 -2.2366  0.8477 -5.8155
  773SOL     OW 2317   0.419   1.425   1.755  0.7122  0.0004  0.1934
  773SOL    HW1 2318   0.489   1.494   1.731 -1.0377 -0.0592  1.2220
  773SOL    HW2 2319   0.387   1.377   1.674  1.4534 -2.1988  0.7998
  774SOL     OW 2320   1.145   0.518   2.914  0.2654  0.3735 -0.5995
  774SOL    HW1 2321   1.118   0.614   2.933 -1.2394  0.3095 -0.2504
  774SOL    HW2 2322   1.167   0.477   3.006 -1.4926 -0.5998  2.8301
  775SOL     OW 2323   1.904   2.919   3.060 -0.1489 -0.5763  0.2768
  775SOL    HW1 2324   1.877   3.001   0.036 -2.3144 -3.2994 -1.4604
  775SOL    HW2 2325   1.965   2.864   0.044  2.1249 -0.8953  1.1004
  776SOL     OW 2326   0.368   0.544   1.803  0.6038  0.2618 -0.1944
  776SOL    HW1 2327   0.317   0.462   1.845 -2.6794 -0.8261  2.4250
  776SOL    HW2 2328   0.467   0.544   1.824  0.4318 -1.6186  1.2885
  777SOL     OW 2329   2.264   1.875   1.895  0.2339 -0.3274  0.2596
  777SOL    HW1 2330   2.293   1.883   1.989 -0.7857  0.2950 -3.1038
  777SOL    HW2 2331   2.224   1.960   1.859  2.3519 -0.7365 -1.9542
  778SOL     OW 2332   2.133   0.921   2.096 -0.2602 -0.1292  0.8234
  778SOL    HW1 2333   2.042   0.877   2.106  0.1896 -1.2921 -2.1495
  778SOL    HW2 2334   2.121   0.994   2.164 -0.4015  1.4532 -2.0635
  779SOL     OW 2335   2.651   1.096   0.228 -0.7641  0.3696 -0.4790
  779SOL    HW1 2336   2.567   1.142   0.259  0.7470 -0.3897  0.3148
  779SOL    HW2 2337   2.656   1.106   0.127 -0.7389 -0.5883  0.3584
  780SOL     OW 2338   2.615   0.353   2.544 -0.4032 -0.2880  0.2184
  780SOL    HW1 2339   2.605   0.407   2.631  1.2903 -0.9897 -0.3802
  780SOL    HW2 2340   2.610   0.257   2.569  0.6442 -1.9289  0.8418
  781SOL     OW 2341   0.127   1.990   1.793  0.0378  0.2205 -0.0205
  781SOL    HW1 2342   0.183   2.001   1.703 -0.3607  0.1910 -3.1626
  781SOL    HW2 2343   0.110   1.889   1.804  1.7178  2.2222  0.7258
  782SOL     OW 2344   2.404   2.232   2.930 -0.4043 -0.1998 -0.0520
  782SOL    HW1 2345   2.337   2.233   3.008 -1.1920 -1.2388  3.0865
  782SOL    HW2 2346   2.483   2.180   2.963 -2.7084  0.1416  0.7985
  783SOL     OW 2347   0.549   1.466   1.376  0.0033 -0.2221  0.0934
  783SOL    HW1 2348   0.629   1.474   1.440  0.8092  0.2060 -0.2317
  783SOL    HW2 2349   0.579   1.408   1.296 -0.1613 -0.8767 -2.6250
  784SOL     OW 2350   2.086   0.841   2.822  0.1579 -0.2000 -0.0037
  784SOL    HW1 2351   2.093   0.913   2.895  0.5088  1.1103 -1.0528
  784SOL    HW2 2352   2.018   0.776   2.851  0.8905  1.0201  0.8777
  785SOL     OW 2353   2.388   2.575   0.685 -0.2288  0.3454  0.2551
  785SOL    HW1 2354   2.481   2.620   0.679 -1.8172 -0.1371 -2.0670
  785SOL    HW2 2355   2.312   2.638   0.700  2.2466 -3.2468 -3.0379
  786SOL     OW 2356   0.695   2.140   2.460  0.3573 -0.2007  0.0077
  786SOL    HW1 2357   0.610   2.099   2.417 -0.7272  0.2594 -0.7013
  786SOL    HW2 2358   0.675   2.238   2.485  1.1832 -1.2754  0.1563
  787SOL     OW 2359   1.309   0.671   1.116 -0.9755  0.0939 -0.3020
  787SOL    HW1 2360   1.310   0.620   1.203  2.0299 -0.3788  1.2358
  787SOL    HW2 2361   1.403   0.681   1.076 -0.4984  1.6767 -1.6832
  788SOL     OW 2362   0.084   0.684   0.411  0.3915 -0.4520 -0.1975
  788SOL    HW1 2363   0.141   0.653   0.332  0.4160 -0.9960 -0.5588
  788SOL    HW2 2364   0.058   0.779   0.393 -2.1262  0.3614  0.7340
  789SOL     OW 2365   2.796   2.073   1.449  0.0437 -0.5554 -0.4180
  789SOL    HW1 2366   2.864   2.151   1.445  3.2875  3.3448 -0.9150
  789SOL    HW2 2367   2.706   2.103   1.415  1.8590 -2.6096  0.7281
  790SOL     OW 2368   1.446   0.758   1.899  0.0753  0.0251 -0.5733
  790SOL    HW1 2369   1.421   0.671   1.952 -2.7138 -1.7048  0.8254
  790SOL    HW2 2370   1.421   0.832   1.959 -0.4480  1.8091 -1.7738
  791SOL     OW 2371   1.551   0.472   0.763  0.4062  0.1132 -0.1032
  791SOL    HW1 2372   1.579   0.383   0.712  0.8162 -2.5476 -0.2488
  791SOL    HW2 2373   1.470   0.452   0.828 -1.2388  0.9897 -0.6244
  792SOL     OW 2374   1.648   2.940   1.878 -0.0696 -0.3656 -0.0608
  792SOL    HW1 2375   1.579   2.942   1.952 -1.9984 -0.0741  0.1485
  792SOL    HW2 2376   1.610   2.906   1.789 -0.0824 -1.0808 -1.8798
  793SOL     OW 2377   0.631   3.069   0.582 -0.4397  0.2276 -0.5829
  793SOL    HW1 2378   0.722   0.030   0.596 -3.8970 -1.8901  0.3935
  793SOL    HW2 2379   0.562   0.070   0.591  1.6631  0.3013 -0.3594
  794SOL     OW 2380   0.656   0.996   2.391  0.4310  0.3740  0.3139
  794SOL    HW1 2381   0.750   1.011   2.362 -0.2470 -0.2543 -2.2296
  794SOL    HW2 2382   0.595   0.967   2.312 -0.7062 -1.1401  0.1907
  795SOL     OW 2383   0.278   1.887   2.251  0.6797 -0.1746  0.0612
  795SOL    HW1 2384   0.197   1.921   2.199  0.2874  1.3011  1.1707
  795SOL    HW2 2385   0.240   1.859   2.342  1.0212 -0.5058  1.2316
  796SOL     OW 2386   2.449   1.257   2.016 -0.3047  0.9899 -0.0405
  796SOL    HW1 2387   2.550   1.255   2.015 -0.4706 -0.0976 -1.1992
  796SOL    HW2 2388   2.412   1.336   2.068 -0.0179 -0.5437  0.9164
  797SOL     OW 2389   3.033   2.736   2.657 -0.1574  0.2319  0.4015
  797SOL    HW1 2390   0.010   2.679   2.726  2.2425 -2.8073  2.5368
  797SOL    HW2 2391   3.009   2.690   2.570 -1.0222  1.8519  1.3609
  798SOL     OW 2392   0.007   2.162   2.213 -0.2949 -0.8104 -0.0829
  798SOL    HW1 2393   2.998   2.196   2.178  3.1879  0.8034  3.5670
  798SOL    HW2 2394   0.093   2.217   2.194  2.7916  0.9252  2.5333
  799SOL     OW 2395   3.008   2.235   2.944 -0.1235  0.0303 -0.3828
  799SOL    HW1 2396   2.964   2.185   3.019  0.2327  1.1314  0.8896
  799SOL    HW2 2397   3.003   2.177   2.862 -2.1614  2.0935 -0.2299
  800SOL     OW 2398   1.485   1.734   0.382  0.3860 -0.6764  0.1841
  800SOL    HW1 2399   1.464   1.781   0.472  0.5753 -4.1544  1.1651
  800SOL    HW2 2400   1.580   1.701   0.397 -2.3381  0.0484 -0.4288
  801SOL     OW 2401   2.092   1.115   1.002  0.1020  0.2681 -0.0494
  801SOL    HW1 2402   2.065   1.213   0.986 -2.3147 -0.7342 -1.6926
  801SOL    HW2 2403   2.075   1.083   1.094 -0.3784  0.6636 -0.1311
  802SOL     OW 2404   3.020   1.231   0.281  0.3989  0.1431 -0.4129
  802SOL    HW1 2405   2.978   1.162   0.343  1.3010  1.3464  1.0898
  802SOL    HW2 2406   0.043   1.237   0.300  0.2304 -1.3238  0.2098
  803SOL     OW 2407   1.403   1.724   2.597  0.3095 -0.6073 -0.4093
  803SOL    HW1 2408   1.349   1.774   2.664  2.7687  0.4541  0.6404
  803SOL    HW2 2409   1.339   1.664   2.538  1.3830 -1.0797 -0.4554
  804SOL     OW 2410   1.832   1.539   0.225 -0.9213 -0.0714  0.0087
  804SOL    HW1 2411   1.794   1.566   0.315  3.0449  2.7269 -2.3505
  804SOL    HW2 2412   1.933   1.527   0.230  2.2457 -2.0579  0.8974
  805SOL     OW 2413   2.391   1.786   2.368 -0.5334  0.1162  0.2846
  805SOL    HW1 2414   2.465   1.718   2.379  1.9269 -0.0896  0.2976
  805SOL    HW2 2415   2.403   1.870   2.426  0.0134 -2.6219 -1.7599
  806SOL     OW 2416   0.373   2.991   0.323 -0.1148  0.4969  0.0414
  806SOL    HW1 2417   0.457   3.048   0.305 -1.4272 -0.6882 -1.8066
  806SOL    HW2 2418   0.365   2.974   0.421 -1.9447 -1.8120 -0.3938
  807SOL     OW 2419   2.068   1.418   2.854  0.0613  0.0014 -0.0623
  807SOL    HW1 2420   2.046   1.505   2.796 -0.6433  4.6737 -0.3599
  807SOL    HW2 2421   2.067   1.335   2.792  2.1301 -0.1633 -2.8895
  808SOL     OW 2422   0.009   1.692   0.379  0.1579  0.3162  0.2675
  808SOL    HW1 2423   3.039   1.618   0.433 -2.8693  1.3326  1.5847
  808SOL    HW2 2424   3.024   1.768   0.372  1.3465  1.6657 -2.4493
  809SOL     OW 2425   2.344   1.173   3.069  0.2945  0.1929  0.4056
  809SOL    HW1 2426   2.270   1.113   3.024 -0.5445 -1.8689 -2.2209
  809SOL    HW2 2427   2.347   1.269   3.036  0.8908 -2.7788  0.8256
  810SOL     OW 2428   0.566   1.194   0.231  0.1048 -0.2610  0.0389
  810SOL    HW1 2429   0.512   1.277   0.210  0.0045  0.5200 -0.2918
  810SOL    HW2 2430   0.521   1.106   0.209  0.9009  3.1790 -0.1022
  811SOL     OW 2431   1.303   2.383   1.570  0.4993  0.3961 -0.2283
  811SOL    HW1 2432   1.320   2.425   1.482 -0.1103 -0.2129  1.6593
  811SOL    HW2 2433   1.390   2.371   1.626 -2.3086 -0.5927 -2.0790
  812SOL     OW 2434   0.823   2.510   1.686 -0.5634 -0.0249  0.6887
  812SOL    HW1 2435   0.890   2.528   1.611  2.4944 -1.3985  0.3644
  812SOL    HW2 2436   0.741   2.455   1.659 -1.9773  1.0736  1.1016
  813SOL     OW 2437   1.392   0.291   2.088  0.2670 -0.0699  0.4119
  813SOL    HW1 2438   1.484   0.246   2.092  3.5669 -1.7202 -1.8195
  813SOL    HW2 2439   1.317   0.238   2.140 -0.2351  0.1250  0.5109
  814SOL     OW 2440   1.410   2.518   2.806  0.3139 -0.3563  0.0251
  814SOL    HW1 2441   1.351   2.602   2.817 -0.2276 -0.2773 -0.7136
  814SOL    HW2 2442   1.418   2.476   2.714 -0.6261  1.0979  0.1036
  815SOL     OW 2443   0.398   0.105   2.044  0.3000 -0.1136 -0.4740
  815SOL    HW1 2444   0.387   0.151   2.136  0.0035 -0.6245 -0.9669
  815SOL    HW2 2445   0.340   0.019   2.035 -1.4894  0.2562  0.9304
  816SOL     OW 2446   2.035   0.529   2.930 -0.1039 -0.2548  0.2780
  816SOL    HW1 2447   2.131   0.538   2.964  0.3223 -1.6843  2.3042
  816SOL    HW2 2448   1.987   0.616   2.944 -0.0213 -0.4435  3.0010
  817SOL     OW 2449   2.298   0.332   2.209 -0.3384 -0.3567 -0.1215
  817SOL    HW1 2450   2.229   0.374   2.144 -1.3853 -0.5522  0.5773
  817SOL    HW2 2451   2.253   0.254   2.255 -0.0782 -1.5311  1.1684
  818SOL     OW 2452   1.883   0.356   0.014 -0.6550 -0.5180 -0.2568
  818SOL    HW1 2453   1.958   0.327   0.073  2.5810  1.5649 -0.7779
  818SOL    HW2 2454   1.921   0.401   3.004  0.3957  2.1114  1.9050
  819SOL     OW 2455   2.275   1.784   2.777  0.4121 -0.2906 -0.2698
  819SOL    HW1 2456   2.206   1.852   2.753 -0.0192 -0.7858 -0.2148
  819SOL    HW2 2457   2.291   1.789   2.874  0.4076  0.8823 -1.8990
  820SOL     OW 2458   0.046   1.944   0.000  0.1751 -0.4076  0.3152
  820SOL    HW1 2459   3.027   1.981   3.068  0.8851 -1.9174 -0.8613
  820SOL    HW2 2460   0.094   1.991   0.078 -0.2364 -1.6628 -0.4261
  821SOL     OW 2461   0.258   2.630   0.769 -0.0754  0.1151  0.0464
  821SOL    HW1 2462   0.275   2.559   0.846  1.4541 -1.3781  3.1089
  821SOL    HW2 2463   0.234   2.576   0.684  1.0791 -0.0194  1.1300
  822SOL     OW 2464   2.823   2.668   2.906 -0.4211 -0.0407  0.1429
  822SOL    HW1 2465   2.765   2.709   2.833 -1.6638 -0.6159 -1.5159
  822SOL    HW2 2466   2.875   2.733   2.962  0.9184 -2.3113 -0.5327
  823SOL     OW 2467   1.375   0.410   2.486 -0.4139 -0.1912 -0.4701
  823SOL    HW1 2468   1.442   0.345   2.517  0.1657  1.2538 -1.8358
  823SOL    HW2 2469   1.333   0.460   2.568  3.2943 -0.4973 -1.6309
  824SOL     OW 2470   2.553   2.030   1.576 -0.2795 -0.2551  0.0856
  824SOL    HW1 2471   2.549   1.958   1.645  3.3757 -0.9119 -0.8704
  824SOL    HW2 2472   2.524   2.115   1.622 -0.6235 -2.7768  2.3249
  825SOL     OW 2473   2.657   2.081   2.518 -0.0910  0.0629  0.4100
  825SOL    HW1 2474   2.701   2.171   2.544 -2.3223  0.5034  0.0542
  825SOL    HW2 2475   2.706   2.042   2.437 -1.8192 -1.8131 -1.2226
  826SOL     OW 2476   2.530   1.706   2.079 -0.1549 -0.0630 -0.2518
  826SOL    HW1 2477   2.492   1.617   2.100  1.9750  0.5622 -0.0262
  826SOL    HW2 2478   2.463   1.775   2.113 -1.5950  0.1427  0.5489
  827SOL     OW 2479   2.251   2.273   1.152 -0.3247 -0.3889 -0.6178
  827SOL    HW1 2480   2.168   2.296   1.204  1.1614 -1.7164  1.2777
  827SOL    HW2 2481   2.261   2.173   1.162 -1.6793 -0.5130  2.1366
  828SOL     OW 2482   3.054   0.029   1.301 -0.2149  0.2110  0.0202
  828SOL    HW1 2483   2.962   0.025   1.255 -0.0520  0.1486 -1.0911
  828SOL    HW2 2484   3.051   0.079   1.390 -0.5692 -0.3175  2.1197
  829SOL     OW 2485   1.610   2.287   2.414 -0.1285  0.0889 -0.3572
  829SOL    HW1 2486   1.611   2.187   2.434 -1.1727  0.9417 -1.5503
  829SOL    HW2 2487   1.700   2.332   2.430 -0.8989 -2.7331  0.9393
  830SOL     OW 2488   1.187   0.596   0.814 -0.2164 -0.0944 -0.1043
  830SOL    HW1 2489   1.236   0.686   0.812  1.6431 -1.5458 -2.4078
  830SOL    HW2 2490   1.229   0.526   0.875 -2.7450 -3.9199  1.4335
  831SOL     OW 2491   2.700   1.310   2.868 -0.0156  0.0343  0.2035
  831SOL    HW1 2492   2.742   1.344   2.953 -1.4294 -3.2009 -0.7282
  831SOL    HW2 2493   2.775   1.311   2.800 -0.2479  0.5331 -1.8956
  832SOL     OW 2494   1.409   1.933   1.989  0.1094 -0.1978 -0.0826
  832SOL    HW1 2495   1.408   1.984   2.076  0.5954  1.0264  2.4710
  832SOL    HW2 2496   1.499   1.940   1.940  0.8426 -1.4531 -1.4934
  833SOL     OW 2497   3.038   3.028   1.853 -0.1214 -0.2611 -0.4091
  833SOL    HW1 2498   3.009   2.965   1.773 -0.5324 -2.7350  0.0044
  833SOL    HW2 2499   3.022   2.989   1.948 -0.5866 -1.6784 -0.7520
  834SOL     OW 2500   0.941   1.155   1.697 -0.4952  0.3958 -0.0558
  834SOL    HW1 2501   0.935   1.146   1.594 -2.0596 -1.5539 -1.4655
  834SOL    HW2 2502   1.006   1.085   1.734  2.7730  0.6727  2.5004
  835SOL     OW 2503   2.679   0.885   2.922 -1.2613 -0.2461  0.2055
  835SOL    HW1 2504   2.622   0.967   2.918  0.0220 -3.6264 -2.3075
  835SOL    HW2 2505   2.714   0.857   2.831 -1.4210  1.4087 -0.5112
  836SOL     OW 2506   1.185   1.639   0.612  0.1321 -0.1888 -0.2387
  836SOL    HW1 2507   1.175   1.696   0.694 -1.7175 -0.5957  1.3492
  836SOL    HW2 2508   1.218   1.697   0.538  1.3928 -1.9082  2.8994
  837SOL     OW 2509   1.442   1.371   1.164 -0.1934  0.8818  0.0512
  837SOL    HW1 2510   1.480   1.410   1.252  1.3023 -0.6129  0.5206
  837SOL    HW2 2511   1.421   1.449   1.105  2.5378 -0.0627 -0.2113
  838SOL     OW 2512   1.125   1.814   2.313  0.5437  0.2427  0.0001
  838SOL    HW1 2513   1.182   1.737   2.355 -1.1634 -1.1797 -0.3957
  838SOL    HW2 2514   1.031   1.788   2.339  2.4603 -1.7019  0.0889
  839SOL     OW 2515   0.762   1.904   2.587  0.3687 -0.2379 -0.7796
  839SOL    HW1 2516   0.682   1.873   2.638 -0.5158 -0.2324  1.1847
  839SOL    HW2 2517   0.728   1.986   2.537 -1.7603 -1.1376  0.5160
  840SOL     OW 2518   0.632   2.436   0.440 -0.0700  0.2533 -0.3245
  840SOL    HW1 2519   0.704   2.483   0.494  2.3247  1.5232  1.1867
  840SOL    HW2 2520   0.669   2.349   0.394  0.3000 -1.1032 -0.9794
  841SOL     OW 2521   1.990   2.560   0.234  0.4984  0.1905 -0.4575
  841SOL    HW1 2522   1.892   2.566   0.248  2.2717 -2.3167 -2.0082
  841SOL    HW2 2523   2.028   2.653   0.207 -1.4816  1.5529 -1.4947
  842SOL     OW 2524   0.797   0.591   2.950 -0.5906 -0.6230 -0.5887
  842SOL    HW1 2525   0.824   0.653   2.874 -2.1926 -2.6900  0.3125
  842SOL    HW2 2526   0.798   0.646   3.036 -1.7478 -0.7988  0.3858
  843SOL     OW 2527   1.266   2.956   0.684  0.1505  0.2580 -0.6503
  843SOL    HW1 2528   1.365   2.937   0.680 -0.5577 -1.3590  0.3058
  843SOL    HW2 2529   1.233   2.953   0.589 -2.8016 -0.9861 -0.1545
  844SOL     OW 2530   2.446   2.819   2.442  0.1497  0.1370  0.3381
  844SOL    HW1 2531   2.468   2.917   2.430 -2.6889  0.7413  0.5928
  844SOL    HW2 2532   2.533   2.767   2.434  0.0837 -1.4645 -0.5139
  845SOL     OW 2533   2.746   2.470   1.076  0.4255 -0.4483  0.1244
  845SOL    HW1 2534   2.834   2.515   1.054 -0.9207  2.6742 -0.3636
  845SOL    HW2 2535   2.720   2.398   1.008  1.1842 -0.1294 -0.4819
  846SOL     OW 2536   0.161   1.846   2.491  0.6110 -0.0959 -0.2186
  846SOL    HW1 2537   0.116   1.758   2.518 -1.6445 -1.4673  1.1558
  846SOL    HW2 2538   0.235   1.868   2.564  1.6420  0.2605  0.4306
  847SOL     OW 2539   1.447   0.676   1.613 -0.4270 -0.2575 -0.1470
  847SOL    HW1 2540   1.362   0.722   1.581  3.0562 -0.2734 -0.4167
  847SOL    HW2 2541   1.446   0.693   1.712 -0.0029  0.2705  1.4403
  848SOL     OW 2542   2.692   2.958   3.072  0.1564 -0.0476 -0.0724
  848SOL    HW1 2543   2.650   3.024   0.064  1.1659  0.6398 -1.3565
  848SOL    HW2 2544   2.645   2.869   0.002  1.3455  2.8980 -0.2996
  849SOL     OW 2545   0.614   2.941   2.687 -0.3317  0.0716  0.2135
  849SOL    HW1 2546   0.586   2.933   2.784 -1.1965  1.9078 -0.8549
  849SOL    HW2 2547   0.704   2.900   2.672 -2.7903 -1.6774 -3.0039
  850SOL     OW 2548   1.116   2.577   0.872 -0.0827  0.4464  0.4119
  850SOL    HW1 2549   1.089   2.485   0.901 -0.2880  1.0467  0.6701
  850SOL    HW2 2550   1.192   2.608   0.935  2.9579  1.9035  1.7227
  851SOL     OW 2551   2.815   0.347   2.182  0.8001 -0.3353  0.2229
  851SOL    HW1 2552   2.887   0.289   2.217 -1.1932  1.7252 -2.1367
  851SOL    HW2 2553   2.855   0.394   2.100  1.2875  0.0508 -0.1222
  852SOL     OW 2554   2.119   1.145   2.263 -0.3741  0.2844  0.4442
  852SOL    HW1 2555   2.042   1.200   2.308 -2.2959  0.1058 -0.8040
  852SOL    HW2 2556   2.190   1.120   2.334  0.3687 -0.6246  1.1546
  853SOL     OW 2557   2.847   3.030   0.520 -0.5728 -0.0152  0.5063
  853SOL    HW1 2558   2.817   0.033   0.468  2.2986  1.3035 -2.2144
  853SOL    HW2 2559   2.815   3.028   0.614 -1.5884 -0.7338 -4.5020
  854SOL     OW 2560   2.153   0.924   1.722 -0.3213 -0.3282 -0.0536
  854SOL    HW1 2561   2.201   0.953   1.811 -0.2625  1.7108 -0.5402
  854SOL    HW2 2562   2.089   0.996   1.690  0.5521 -1.3960  2.4451
  855SOL     OW 2563   1.381   2.437   0.317  0.6046  0.7632 -0.7441
  855SOL    HW1 2564   1.400   2.529   0.273  1.6634 -1.4571  0.9142
  855SOL    HW2 2565   1.352   2.452   0.413  1.3425 -1.1908 -1.6010
  856SOL     OW 2566   2.923   0.302   2.811 -0.0219 -0.3077  0.0146
  856SOL    HW1 2567   2.941   0.240   2.731  4.6523  0.1959  0.9411
  856SOL    HW2 2568   2.970   0.260   2.889 -1.4156 -0.4081 -2.2886
  857SOL     OW 2569   1.279   3.004   1.650  0.1817 -0.4825 -0.4251
  857SOL    HW1 2570   1.341   3.073   1.602 -0.6900 -2.0027 -1.7907
  857SOL    HW2 2571   1.260   3.049   1.741 -1.0577  0.8802 -1.3347
  858SOL     OW 2572   2.252   2.190   1.585  0.0265  0.2753 -0.1575
  858SOL    HW1 2573   2.264   2.115   1.520 -1.8619 -1.1215 -0.8245
  858SOL    HW2 2574   2.336   2.244   1.571 -1.5280  0.1226  1.9035
  859SOL     OW 2575   1.135   2.329   1.006 -0.4155 -0.0183 -0.3298
  859SOL    HW1 2576   1.112   2.251   0.945  2.3807  0.2825  2.2324
  859SOL    HW2 2577   1.211   2.312   1.073 -0.1335  1.2302 -2.8214
  860SOL     OW 2578   2.403   2.515   0.065  0.0293 -0.2113 -0.1609
  860SOL    HW1 2579   2.479   2.462   0.022  0.6834 -1.4672  0.5686
  860SOL    HW2 2580   2.312   2.508   0.014  1.0509 -0.8902  1.4729
  861SOL     OW 2581   2.285   2.966   0.894 -0.2996  0.6738  0.6517
  861SOL    HW1 2582   2.255   3.034   0.963 -0.9380 -0.4076  1.9539
  861SOL    HW2 2583   2.389   2.954   0.898  1.7580  1.5727  2.4809
  862SOL     OW 2584   1.953   2.773   2.177  0.4384  0.2912  0.7899
  862SOL    HW1 2585   1.985   2.764   2.275  0.5225 -0.2485  2.7067
  862SOL    HW2 2586   1.997   2.853   2.130  2.6913  2.6558 -2.7014
  863SOL     OW 2587   0.163   0.702   0.664  0.1583 -0.0417 -0.1260
  863SOL    HW1 2588   0.253   0.662   0.675  0.2885  0.1994 -0.4060
  863SOL    HW2 2589   0.140   0.724   0.567 -0.0553 -0.3677  1.3093
  864SOL     OW 2590   2.997   2.528   2.150  0.4773 -0.0486  0.1994
  864SOL    HW1 2591   3.075   2.510   2.214  0.0315  1.2759  1.9873
  864SOL    HW2 2592   3.015   2.498   2.050  2.7422 -1.5275  2.4908
  865SOL     OW 2593   0.425   1.407   2.747 -0.1395 -0.3265 -0.2523
  865SOL    HW1 2594   0.370   1.462   2.813  1.6341 -0.7229  1.9283
  865SOL    HW2 2595   0.447   1.318   2.792  1.8747 -1.1963 -0.0260
  866SOL     OW 2596   2.780   0.815   2.685  0.3884 -0.1041  0.0256
  866SOL    HW1 2597   2.846   0.855   2.618  1.5603  2.5162  1.6358
  866SOL    HW2 2598   2.824   0.728   2.710  2.9928  2.2035 -2.4821
  867SOL     OW 2599   0.221   2.998   2.779  0.1019  0.1386 -0.1546
  867SOL    HW1 2600   0.269   2.944   2.848  1.4760  2.3756 -0.2015
  867SOL    HW2 2601   0.119   2.988   2.780 -0.6049 -0.8968  2.5396
  868SOL     OW 2602   1.510   2.802   0.864  0.1042  0.1980  0.2128
  868SOL    HW1 2603   1.450   2.858   0.915  2.2049  0.8901 -1.0690
  868SOL    HW2 2604   1.607   2.800   0.905  1.3810 -0.4604  0.8336
  869SOL     OW 2605   1.447   1.596   0.996 -0.7862 -0.0089  0.1305
  869SOL    HW1 2606   1.533   1.607   0.937  2.3526  0.4963 -1.5867
  869SOL    HW2 2607   1.451   1.653   1.084  1.1843  1.3427 -1.0120
  870SOL     OW 2608   1.860   2.087   1.136  0.0808 -0.2919  0.1113
  870SOL    HW1 2609   1.934   2.025   1.100  1.2661 -1.2368  4.1187
  870SOL    HW2 2610   1.770   2.053   1.102  1.1068 -1.7456  1.2999
  871SOL     OW 2611   0.580   1.646   1.698 -0.5680  0.5260  0.0347
  871SOL    HW1 2612   0.545   1.739   1.675 -1.7816 -1.9166 -1.1946
  871SOL    HW2 2613   0.648   1.618   1.625  3.5454  1.0549 -3.9744
  872SOL     OW 2614   1.020   1.525   1.413  0.3338 -0.5957  0.3941
  872SOL    HW1 2615   1.097   1.592   1.418  1.4308 -2.3966 -1.4116
  872SOL    HW2 2616   1.024   1.458   1.339  1.3417 -0.7785  1.5402
  873SOL     OW 2617   1.320   0.979   2.586  0.3108 -0.3717 -0.3932
  873SOL    HW1 2618   1.259   1.047   2.543  1.9008  1.0055 -0.8907
  873SOL    HW2 2619   1.335   1.009   2.684  4.3356  0.5814  2.5428
  874SOL     OW 2620   0.109   1.379   1.474  0.0856 -0.2398  0.6979
  874SOL    HW1 2621   0.087   1.437   1.390 -1.5075  4.0238  0.4418
  874SOL    HW2 2622   0.203   1.347   1.480 -1.9961 -1.2810  1.6397
  875SOL     OW 2623   2.778   3.024   0.787 -0.4404 -0.2020 -0.2442
  875SOL    HW1 2624   2.807   0.004   0.869  0.8532  2.0764  1.4924
  875SOL    HW2 2625   2.676   3.010   0.790 -1.3507  0.9186  1.5551
  876SOL     OW 2626   0.951   0.468   2.684  0.4281 -0.2897  0.5006
  876SOL    HW1 2627   1.025   0.501   2.747 -0.6135  0.1148 -2.1574
  876SOL    HW2 2628   0.986   0.396   2.624 -1.8123 -0.7642 -1.2916
  877SOL     OW 2629   0.102   0.487   1.112  0.2534 -0.2265  0.6176
  877SOL    HW1 2630   0.000   0.498   1.110  0.3776  1.8314 -0.2715
  877SOL    HW2 2631   0.146   0.564   1.059 -0.3501 -0.7201 -1.3239
  878SOL     OW 2632   1.699   2.749   2.999 -0.2807  0.4416 -0.4283
  878SOL    HW1 2633   1.774   2.820   3.013  1.2738  2.2993  0.7797
  878SOL    HW2 2634   1.661   2.713   0.011 -2.1565 -0.5413  1.5301
  879SOL     OW 2635   2.147   1.587   1.522 -0.4152  0.1729 -0.8774
  879SOL    HW1 2636   2.129   1.656   1.446 -0.4458  1.6163 -1.3991
  879SOL    HW2 2637   2.112   1.622   1.615  2.7088 -0.7704  1.6854
  880SOL     OW 2638   0.846   0.637   1.634 -0.3928  0.2189 -0.7087
  880SOL    HW1 2639   0.941   0.610   1.646 -2.0671  1.4370 -1.1011
  880SOL    HW2 2640   0.813   0.701   1.713 -0.8189  1.5291  3.1502
  881SOL     OW 2641   0.853   1.820   0.007  0.4401  0.0508  0.2958
  881SOL    HW1 2642   0.791   1.816   3.001  0.8255  1.7269 -0.7140
  881SOL    HW2 2643   0.946   1.796   3.054 -0.4372  0.1628  1.3629
  882SOL     OW 2644   1.942   0.885   1.266  0.1700 -0.2197  0.4489
  882SOL    HW1 2645   2.014   0.874   1.341  1.0569 -1.4373  2.0293
  882SOL    HW2 2646   1.916   0.795   1.221  1.2704 -3.7838 -2.7409
  883SOL     OW 2647   1.699   0.600   2.113  0.0129  0.7649 -0.7675
  883SOL    HW1 2648   1.747   0.532   2.171  0.0285  3.7921 -0.9558
  883SOL    HW2 2649   1.756   0.631   2.035 -1.6339 -1.0853  0.8078
  884SOL     OW 2650   2.404   0.238   0.158  0.0509 -0.9526 -0.3387
  884SOL    HW1 2651   2.399   0.328   0.206  2.5171  1.3042  3.1907
  884SOL    HW2 2652   2.435   0.261   0.060  0.3355  0.3445  2.3130
  885SOL     OW 2653   0.480   1.868   0.540 -0.0517 -0.2308  0.5095
  885SOL    HW1 2654   0.452   1.948   0.475  0.0862  0.1629 -0.4383
  885SOL    HW2 2655   0.442   1.893   0.631 -0.3989  0.6041 -0.8051
  886SOL     OW 2656   1.691   1.373   0.094 -0.5561 -0.8891 -0.0917
  886SOL    HW1 2657   1.605   1.339   0.136  0.9080 -1.0419 -2.3454
  886SOL    HW2 2658   1.732   1.444   0.153  2.4977 -0.7081 -3.0179
  887SOL     OW 2659   1.465   0.396   1.629 -0.1911  0.1179  0.2686
  887SOL    HW1 2660   1.561   0.362   1.643 -1.1321 -2.1123  0.3877
  887SOL    HW2 2661   1.464   0.501   1.622 -0.6448  1.9810  1.3747
  888SOL     OW 2662   2.839   1.302   1.548 -0.1566  0.0097 -0.0181
  888SOL    HW1 2663   2.925   1.278   1.497  0.1885  0.9233 -0.4528
  888SOL    HW2 2664   2.761   1.262   1.502  0.9314 -0.6997  1.2188
  889SOL     OW 2665   2.975   2.606   1.036 -0.0737  0.2648  0.6313
  889SOL    HW1 2666   3.034   2.674   0.987 -0.5933 -0.6342 -0.9114
  889SOL    HW2 2667   3.036   2.536   1.070  1.9579  4.3918 -1.0739
  890SOL     OW 2668   0.101   2.505   2.377  0.3880  0.5437  0.0999
  890SOL    HW1 2669   0.118   2.418   2.427  1.1919  1.1466 -0.4641
  890SOL    HW2 2670   0.188   2.563   2.360 -1.0848 -1.1667 -3.1491
  891SOL     OW 2671   0.456   1.597   0.258  0.1105 -0.1127 -0.2685
  891SOL    HW1 2672   0.474   1.699   0.268  2.1169  0.6171 -0.4782
  891SOL    HW2 2673   0.510   1.552   0.332  3.3613 -0.8591  2.3497
  892SOL     OW 2674   3.044   2.251   1.522 -0.4064 -0.1406  0.3458
  892SOL    HW1 2675   3.045   2.236   1.619  0.7191 -1.1906 -3.3678
  892SOL    HW2 2676   2.998   2.341   1.501 -0.7345 -1.2089 -0.9149
  893SOL     OW 2677   0.309   0.016   1.765  0.0179 -0.3288 -0.0375
  893SOL    HW1 2678   0.224   3.042   1.785 -0.0139 -0.0934  1.7633
  893SOL    HW2 2679   0.378   3.019   1.756  1.2372 -1.4939  1.2651
  894SOL     OW 2680   2.533   1.797   0.894  0.1857 -0.3163  0.6484
  894SOL    HW1 2681   2.515   1.860   0.971  2.5001 -3.0586 -0.2704
  894SOL    HW2 2682   2.552   1.863   0.816  1.2891  0.3422  1.2796
  895SOL     OW 2683   2.284   2.561   1.560  0.2884  0.5521 -0.3070
  895SOL    HW1 2684   2.184   2.552   1.546 -1.3051 -1.7933  1.1974
  895SOL    HW2 2685   2.299   2.532   1.653  2.0463  0.7314  0.8579
  896SOL     OW 2686   0.744   0.125   1.485  0.0364 -0.1622 -0.0339
  896SOL    HW1 2687   0.721   0.189   1.564  0.0085 -1.0176 -0.3135
  896SOL    HW2 2688   0.699   0.035   1.497  1.9339  1.4146  0.7371
  897SOL     OW 2689   0.664   1.327   1.164 -0.0842 -0.6638 -0.8111
  897SOL    HW1 2690   0.758   1.349   1.135  0.4354 -0.0816 -0.5425
  897SOL    HW2 2691   0.599   1.369   1.095 -1.5932 -1.2064  1.2196
  898SOL     OW 2692   1.623   2.644   1.538  0.1169 -0.7749 -0.0695
  898SOL    HW1 2693   1.653   2.606   1.628 -2.5938  0.4084 -0.0380
  898SOL    HW2 2694   1.628   2.584   1.458 -2.0275 -2.1755 -2.2602
  899SOL     OW 2695   1.061   0.181   2.862  0.1071 -0.8881 -0.3525
  899SOL    HW1 2696   1.161   0.168   2.875  1.4237 -1.4125  0.4069
  899SOL    HW2 2697   1.024   0.152   2.771 -0.9241 -0.5342 -0.3460
  900SOL     OW 2698   1.166   2.656   1.928  0.0708  0.3060  0.4902
  900SOL    HW1 2699   1.162   2.569   1.877  1.0876 -0.6616 -0.3465
  900SOL    HW2 2700   1.106   2.728   1.883  0.4143  0.0528 -1.5515
  901SOL     OW 2701   0.750   1.961   0.203  0.5965  0.5038  0.0554
  901SOL    HW1 2702   0.820   1.987   0.271  0.7440 -0.7048 -1.3714
  901SOL    HW2 2703   0.789   1.899   0.130  1.9946 -0.1480  0.0824
  902SOL     OW 2704   1.459   1.093   1.191 -0.0490  0.1012 -0.2523
  902SOL    HW1 2705   1.508   1.051   1.116 -2.1158  0.0738  0.6206
  902SOL    HW2 2706   1.448   1.186   1.168 -0.2038 -3.1844  0.6945
  903SOL     OW 2707   2.593   1.110   3.045 -0.3163 -0.1176  0.4542
  903SOL    HW1 2708   2.628   1.189   2.992 -1.3156  0.7142  1.1333
  903SOL    HW2 2709   2.489   1.098   3.044  0.0281 -1.6879  1.2493
  904SOL     OW 2710   0.914   1.312   0.055 -0.2352  0.0745  0.4300
  904SOL    HW1 2711   0.893   1.404   0.090 -0.8683 -1.3719 -0.8164
  904SOL    HW2 2712   0.955   1.250   0.126  0.5703 -3.3821 -1.0748
  905SOL     OW 2713   1.686   0.077   1.146  0.0472 -0.2775  0.9498
  905SOL    HW1 2714   1.715   0.173   1.124 -0.4036  3.3157  0.6365
  905SOL    HW2 2715   1.591   0.055   1.127  0.7249  1.1457 -0.0047
  906SOL     OW 2716   2.497   2.770   0.896 -0.1498  0.3416  0.0204
  906SOL    HW1 2717   2.536   2.689   0.847  1.9829 -2.0688 -0.7948
  906SOL    HW2 2718   2.566   2.819   0.952  0.6965 -0.2816 -0.2408
  907SOL     OW 2719   1.552   0.730   0.658  0.1826  0.7164 -0.1726
  907SOL    HW1 2720   1.541   0.632   0.687  1.1892  0.1120  2.9045
  907SOL    HW2 2721   1.488   0.793   0.709  0.6840  1.3835  0.9385
  908SOL     OW 2722   1.764   0.349   1.195  0.4093 -0.6278  0.6566
  908SOL    HW1 2723   1.816   0.434   1.160 -0.1397  2.4861 -2.0898
  908SOL    HW2 2724   1.750   0.352   1.294 -0.2940 -0.8585 -2.9585
  909SOL     OW 2725   1.900   0.613   1.167  0.0544  0.6502  0.1051
  909SOL    HW1 2726   1.963   0.599   1.087  2.2949  0.8945 -0.2252
  909SOL    HW2 2727   1.930   0.559   1.243 -2.6071  3.3126 -2.1891
  910SOL     OW 2728   2.477   0.534   1.848 -0.0263  0.7440 -0.6188
  910SOL    HW1 2729   2.510   0.588   1.766  0.2696  1.9384 -2.0680
  910SOL    HW2 2730   2.423   0.594   1.912 -1.7538  2.6655  1.2470
  911SOL     OW 2731   2.569   0.548   2.751  0.6846 -0.1049 -0.0058
  911SOL    HW1 2732   2.546   0.619   2.688  2.8184 -0.2003  1.2407
  911SOL    HW2 2733   2.556   0.580   2.851 -0.3278  0.6069  2.6495
  912SOL     OW 2734   0.692   1.039   1.755 -0.0342 -0.1420 -0.3537
  912SOL    HW1 2735   0.781   1.088   1.743  1.2827 -0.8604  4.8802
  912SOL    HW2 2736   0.633   1.064   1.677  0.2303  1.0318 -1.1905
  913SOL     OW 2737   2.739   2.413   1.648 -0.3516  0.6594  0.2238
  913SOL    HW1 2738   2.731   2.439   1.745 -0.0377 -3.1174  1.4043
  913SOL    HW2 2739   2.821   2.451   1.606 -2.0461 -0.9071  0.1598
  914SOL     OW 2740   1.707   0.858   1.797 -0.2159  0.4880 -0.5276
  914SOL    HW1 2741   1.615   0.833   1.833  0.5371  1.2290 -0.3593
  914SOL    HW2 2742   1.704   0.927   1.725  0.3421  2.4934 -0.7282
  915SOL     OW 2743   2.686   1.085   1.016 -0.3194  0.4927 -1.0696
  915SOL    HW1 2744   2.780   1.046   0.991  3.3208  0.4218 -0.9777
  915SOL    HW2 2745   2.704   1.182   1.049  1.7591  2.1070 -2.2167
  916SOL     OW 2746   1.839   2.358   1.094 -0.2503 -0.1639 -0.2325
  916SOL    HW1 2747   1.852   2.416   1.177 -0.2798 -1.6823 -0.5244
  916SOL    HW2 2748   1.837   2.259   1.112 -1.0370 -0.0010  0.0174
  917SOL     OW 2749   1.913   2.348   2.201  0.0426 -0.5410 -0.0275
  917SOL    HW1 2750   1.911   2.394   2.295 -0.8365 -0.9755 -1.6377
  917SOL    HW2 2751   1.924   2.427   2.133  2.4163  1.3984 -0.4119
  918SOL     OW 2752   1.852   2.659   2.624  0.3473  0.1199 -0.1271
  918SOL    HW1 2753   1.749   2.672   2.598 -1.3199 -1.1149 -0.3279
  918SOL    HW2 2754   1.914   2.674   2.545 -0.0493 -1.9512 -0.1527
  919SOL     OW 2755   1.056   0.040   1.500 -0.0824  0.4790 -0.3629
  919SOL    HW1 2756   0.960   0.044   1.528  1.6344 -1.3192 -0.6168
  919SOL    HW2 2757   1.113   3.063   1.566  0.1535 -1.0905 -1.0639
  920SOL     OW 2758   2.901   0.363   2.487  0.2761 -0.9385 -0.2682
  920SOL    HW1 2759   2.914   0.277   2.537  0.8830 -1.9410 -1.2490
  920SOL    HW2 2760   2.805   0.385   2.487 -1.0924  0.5985  1.8009
  921SOL     OW 2761   0.017   0.739   1.773  0.0630 -0.0610  0.0639
  921SOL    HW1 2762   0.092   0.809   1.787 -0.6671  0.5803 -0.8743
  921SOL    HW2 2763   3.020   0.775   1.712 -1.9193  1.7679 -0.8737
  922SOL     OW 2764   2.360   2.418   0.476 -0.0210  0.0972  0.4066
  922SOL    HW1 2765   2.358   2.465   0.569 -0.5173 -2.0513  0.4181
  922SOL    HW2 2766   2.381   2.484   0.404 -0.5553 -2.3444 -0.5420
  923SOL     OW 2767   0.739   1.966   0.555 -0.4020 -0.1987 -0.3904
  923SOL    HW1 2768   0.749   2.021   0.637  1.9936 -0.5791  0.0737
  923SOL    HW2 2769   0.649   1.916   0.550 -0.3769 -2.7171  0.4190
  924SOL     OW 2770   1.067   0.798   2.963  0.7543  0.3341  0.7361
  924SOL    HW1 2771   1.074   0.825   2.865  2.6728  1.8141 -1.3370
  924SOL    HW2 2772   0.977   0.827   3.009  0.0804 -2.6291  1.0359
  925SOL     OW 2773   2.701   1.216   0.743  0.4084  0.3462  0.2193
  925SOL    HW1 2774   2.742   1.231   0.832 -1.0564 -2.6199 -2.3822
  925SOL    HW2 2775   2.602   1.197   0.755  2.1612 -0.4991 -2.4158
  926SOL     OW 2776   0.485   0.373   1.226  0.4648 -0.4275 -0.0208
  926SOL    HW1 2777   0.454   0.274   1.232  0.3917 -1.1149 -0.0176
  926SOL    HW2 2778   0.414   0.427   1.272  1.7654  2.5708  0.6942
  927SOL     OW 2779   0.503   1.568   2.526  0.1721 -0.1562 -0.9173
  927SOL    HW1 2780   0.501   1.486   2.586 -0.5042  1.6792 -1.1157
  927SOL    HW2 2781   0.432   1.572   2.450 -2.3929  1.8210 -2.8800
  928SOL     OW 2782   0.198   0.460   2.102 -0.0083 -0.1781  0.1788
  928SOL    HW1 2783   0.123   0.413   2.154  0.6693 -0.7530  1.1600
  928SOL    HW2 2784   0.214   0.419   2.011  0.6741  0.3917  0.5631
  929SOL     OW 2785   2.984   2.750   1.358  0.0788 -0.0242  0.6210
  929SOL    HW1 2786   2.924   2.735   1.273 -2.2880  0.0740  0.2678
  929SOL    HW2 2787   3.058   2.815   1.330 -0.2963 -0.4048 -1.5798
  930SOL     OW 2788   1.908   0.193   1.892  0.7516  0.2694 -0.1987
  930SOL    HW1 2789   2.004   0.214   1.861  5.0136  1.2243  0.7977
  930SOL    HW2 2790   1.906   0.192   1.997 -1.2062  1.8442  2.4418
  931SOL     OW 2791   2.128   1.047   3.000 -0.1073  0.5594 -0.1675
  931SOL    HW1 2792   2.038   1.089   2.973 -1.8040 -2.0323 -0.6790
  931SOL    HW2 2793   2.125   1.032   0.024 -1.8234  0.3564 -0.5482
  932SOL     OW 2794   1.952   1.243   0.615  0.4437  0.5254 -0.1153
  932SOL    HW1 2795   2.025   1.181   0.584  1.6792  0.1634 -2.0586
  932SOL    HW2 2796   1.861   1.223   0.565 -3.3722 -1.8967 -1.0879
  933SOL     OW 2797   1.911   1.684   0.887 -0.5456 -0.0203 -0.3433
  933SOL    HW1 2798   1.937   1.610   0.822  0.3079 -0.0933 -1.7334
  933SOL    HW2 2799   1.857   1.640   0.963  0.7938  1.1179  1.0010
  934SOL     OW 2800   2.040   0.979   2.593 -0.2260  0.4349  0.4878
  934SOL    HW1 2801   2.057   0.925   2.679  2.3327  1.2320 -1.8493
  934SOL    HW2 2802   1.989   0.924   2.518 -1.1633 -1.8248 -2.0700
  935SOL     OW 2803   0.240   1.106   0.513 -0.6702 -0.6477 -0.2318
  935SOL    HW1 2804   0.234   1.176   0.443  0.8663 -0.2627 -0.2174
  935SOL    HW2 2805   0.149   1.062   0.523  0.7512  1.7109  1.5794
  936SOL     OW 2806   0.438   2.823   0.847  0.0078  0.0090 -0.1764
  936SOL    HW1 2807   0.496   2.890   0.786 -1.3849 -0.3513 -1.5976
  936SOL    HW2 2808   0.376   2.768   0.785 -0.6853  0.1672 -0.3955
  937SOL     OW 2809   2.967   2.594   1.785 -0.2199  0.5433 -0.1251
  937SOL    HW1 2810   2.902   2.616   1.859 -3.2102  0.5063  1.5501
  937SOL    HW2 2811   3.053   2.557   1.828  1.8029 -0.0823  0.0157
  938SOL     OW 2812   2.807   2.297   0.188 -0.8432  0.2591 -0.2639
  938SOL    HW1 2813   2.752   2.355   0.121  0.0691 -0.9351  2.7333
  938SOL    HW2 2814   2.885   2.352   0.234  2.1418  2.0809  3.6630
  939SOL     OW 2815   1.148   1.331   1.272  0.0128  0.4166 -0.4052
  939SOL    HW1 2816   1.212   1.340   1.194  1.4791 -0.6283  1.4284
  939SOL    HW2 2817   1.200   1.325   1.358 -1.0392  0.9425 -1.4644
  940SOL     OW 2818   2.841   0.569   2.765  0.2856  0.3173  0.5125
  940SOL    HW1 2819   2.744   0.545   2.761  2.8805  0.4466 -0.6146
  940SOL    HW2 2820   2.900   0.487   2.788  3.9315 -1.9147  1.6532
  941SOL     OW 2821   2.693   2.766   2.671 -0.1066 -0.4586  0.4323
  941SOL    HW1 2822   2.603   2.811   2.656  1.1813 -4.6573  0.4311
  941SOL    HW2 2823   2.734   2.749   2.582 -2.8987  0.7761  1.9205
  942SOL     OW 2824   1.475   0.383   1.178  0.7871  0.3410 -0.4852
  942SOL    HW1 2825   1.572   0.400   1.191 -1.1482  0.8736 -0.8021
  942SOL    HW2 2826   1.421   0.448   1.236  1.7181  0.3027  1.7798
  943SOL     OW 2827   1.187   1.268   2.154  0.0706  0.1176  0.2349
  943SOL    HW1 2828   1.208   1.194   2.094  0.7861  2.6559  1.8811
  943SOL    HW2 2829   1.091   1.305   2.138 -2.6672 -0.1057 -1.5352
  944SOL     OW 2830   2.064   1.182   1.352  0.4557  0.7559 -0.3159
  944SOL    HW1 2831   2.112   1.094   1.349 -3.1328  3.4968 -0.7236
  944SOL    HW2 2832   2.122   1.253   1.393 -3.0390 -2.5110 -0.1908
  945SOL     OW 2833   3.023   2.983   2.781  0.1698  0.4018  0.2497
  945SOL    HW1 2834   2.983   2.894   2.750 -0.2471 -0.2215  1.2346
  945SOL    HW2 2835   3.014   2.992   2.880 -0.3222  0.1586 -0.8318
  946SOL     OW 2836   3.026   1.489   1.641  0.2496 -0.0090 -0.6674
  946SOL    HW1 2837   0.021   1.453   1.578  1.3669 -0.0768 -1.5088
  946SOL    HW2 2838   2.936   1.445   1.626  2.8312 -1.9386  1.4788
  947SOL     OW 2839   0.896   3.040   0.342 -0.2743  0.0079 -0.2172
  947SOL    HW1 2840   0.884   0.001   0.441 -0.5260 -1.7050  5.6370
  947SOL    HW2 2841   0.813   2.991   0.306  1.5152 -2.8888 -2.2559
  948SOL     OW 2842   2.225   1.687   1.151 -0.1745 -0.4189  0.0378
  948SOL    HW1 2843   2.325   1.687   1.182  3.6532 -0.1950  1.8146
  948SOL    HW2 2844   2.215   1.665   1.052 -1.7787  1.2359  0.7969
  949SOL     OW 2845   0.103   1.007   2.984 -0.5066  0.5562  0.4609
  949SOL    HW1 2846   0.008   1.024   2.952  2.4093  2.3104  0.0468
  949SOL    HW2 2847   0.161   1.013   2.904  0.1945  0.5767  1.5437
  950SOL     OW 2848   0.566   2.424   1.319 -0.2242  0.1529  0.1499
  950SOL    HW1 2849   0.501   2.498   1.297  2.1115  1.2119  1.2216
  950SOL    HW2 2850   0.643   2.447   1.258  2.7537  0.3041 -0.2252
  951SOL     OW 2851   0.892   1.492   2.608  0.3799  0.0018 -0.7183
  951SOL    HW1 2852   0.831   1.506   2.688 -0.7444  0.6315 -0.9627
  951SOL    HW2 2853   0.844   1.446   2.529 -4.1973 -0.3069 -1.6681
  952SOL     OW 2854   0.581   0.969   0.633 -0.2041 -0.0933 -0.4725
  952SOL    HW1 2855   0.632   0.929   0.708  0.9075  0.1317 -1.6104
  952SOL    HW2 2856   0.481   0.987   0.659 -2.0700  2.2972 -0.9663
  953SOL     OW 2857   2.254   2.629   2.542 -0.0476  0.1154 -0.1448
  953SOL    HW1 2858   2.333   2.677   2.502 -2.5439 -3.5958  1.5522
  953SOL    HW2 2859   2.247   2.645   2.642  0.1551 -2.1003 -2.4810
  954SOL     OW 2860   1.838   1.070   0.874  0.6288  0.2925  0.1224
  954SOL    HW1 2861   1.921   1.077   0.928 -1.4263  0.8703  0.6828
  954SOL    HW2 2862   1.837   1.145   0.807 -0.4870 -0.4570 -0.6102
  955SOL     OW 2863   0.505   1.871   0.240 -0.1534 -0.4385 -0.1338
  955SOL    HW1 2864   0.604   1.902   0.234  1.9189 -0.9855 -0.5047
  955SOL    HW2 2865   0.440   1.940   0.279 -1.5280  0.2141 -1.7540
  956SOL     OW 2866   2.705   0.362   1.862 -0.5626  0.4652  0.0270
  956SOL    HW1 2867   2.612   0.400   1.873  1.8775 -0.0204 -0.3914
  956SOL    HW2 2868   2.707   0.266   1.890 -0.8540  1.3371 -0.3593
  957SOL     OW 2869   1.887   2.353   1.615  0.1748 -0.0462  0.2219
  957SOL    HW1 2870   1.881   2.309   1.523 -0.2280 -2.3305 -1.2172
  957SOL    HW2 2871   1.894   2.281   1.690 -0.5254 -1.3316  3.0151
  958SOL     OW 2872   1.648   1.037   1.530 -0.1439  0.7575  0.2426
  958SOL    HW1 2873   1.545   1.032   1.511 -1.8409  2.0701  0.9462
  958SOL    HW2 2874   1.677   1.134   1.524 -2.2051 -0.2455  1.2974
  959SOL     OW 2875   1.374   2.069   2.207 -0.1665  0.3970  0.0861
  959SOL    HW1 2876   1.324   2.160   2.225  0.5276  1.8027  0.6920
  959SOL    HW2 2877   1.388   2.006   2.284  1.6021  0.4740 -0.7379
  960SOL     OW 2878   0.804   0.727   2.736  0.0625  0.2565  0.3745
  960SOL    HW1 2879   0.735   0.786   2.687  1.1638  2.6831 -0.9373
  960SOL    HW2 2880   0.833   0.641   2.687  1.1730 -2.9302  2.6445
  961SOL     OW 2881   2.926   1.049   2.903  0.4744  0.2489  0.1642
  961SOL    HW1 2882   2.836   1.004   2.923 -2.7657 -0.8201  1.9686
  961SOL    HW2 2883   2.951   1.050   2.804  3.2202  0.2414  0.6963
  962SOL     OW 2884   0.967   1.735   2.681 -0.5759  0.0044 -0.3305
  962SOL    HW1 2885   0.922   1.649   2.652 -2.9502 -1.6051  0.5207
  962SOL    HW2 2886   0.907   1.813   2.652 -2.1458 -0.7506 -0.8534
  963SOL     OW 2887   2.881   2.076   0.043  0.2860  0.2315  0.0405
  963SOL    HW1 2888   2.803   2.063   3.055  3.0656  1.5525  1.5556
  963SOL    HW2 2889   2.855   2.147   0.110 -0.8280  0.1971 -0.1414
  964SOL     OW 2890   0.849   2.203   2.260  0.9443  0.2623 -0.3982
  964SOL    HW1 2891   0.796   2.171   2.337  0.8367  1.4039 -2.9892
  964SOL    HW2 2892   0.847   2.305   2.252  1.2732  1.6324  0.0692
  965SOL     OW 2893   1.923   1.870   0.672 -0.3293 -0.1492  0.1004
  965SOL    HW1 2894   1.991   1.948   0.653  0.9270  1.0073  1.5362
  965SOL    HW2 2895   1.943   1.819   0.756 -0.9356  0.2969 -1.6647
  966SOL     OW 2896   2.998   1.718   3.038  0.1748 -0.7957 -1.1059
  966SOL    HW1 2897   3.055   1.798   3.072  0.1934  1.0594  1.2787
  966SOL    HW2 2898   3.048   1.634   3.062  0.3774 -0.4476  2.4457
  967SOL     OW 2899   2.016   3.010   2.066 -0.4088 -0.0058 -0.5675
  967SOL    HW1 2900   2.113   3.051   2.052  2.7464 -0.6093 -0.3449
  967SOL    HW2 2901   1.969   2.991   1.982  5.1028  2.3176  2.0236
  968SOL     OW 2902   0.815   0.727   0.100 -0.0756 -0.0974  0.3096
  968SOL    HW1 2903   0.784   0.822   0.120  0.3157  0.8125 -2.8238
  968SOL    HW2 2904   0.897   0.704   0.159  4.0029 -2.5127 -0.9095
  969SOL     OW 2905   0.638   1.344   2.136  0.7235  0.0050 -0.2391
  969SOL    HW1 2906   0.619   1.417   2.069  2.9272 -1.3611  0.7251
  969SOL    HW2 2907   0.621   1.253   2.090  2.4076  0.3591  0.6096
  970SOL     OW 2908   2.071   2.614   1.116 -0.1802  0.1261  0.8801
  970SOL    HW1 2909   2.034   2.620   1.018 -0.0440 -0.7999 -1.4690
  970SOL    HW2 2910   2.174   2.628   1.112 -2.2961  0.0420 -1.2354
  971SOL     OW 2911   1.875   2.394   0.608  0.3792 -0.3349  0.1537
  971SOL    HW1 2912   1.898   2.381   0.706  1.1702  0.7150 -1.1201
  971SOL    HW2 2913   1.960   2.405   0.555  1.1642 -1.8941 -2.1209
  972SOL     OW 2914   2.978   1.068   2.634 -0.0987 -0.2174 -0.4851
  972SOL    HW1 2915   2.974   0.984   2.572 -0.9882 -0.3061 -2.3088
  972SOL    HW2 2916   3.054   1.132   2.600  1.6358 -0.8112  0.8543
  973SOL     OW 2917   0.553   0.084   0.239  0.2190 -0.0792 -0.3834
  973SOL    HW1 2918   0.507   0.176   0.251 -1.2593 -0.1904 -0.2260
  973SOL    HW2 2919   0.620   0.095   0.163  1.5686  1.6010  0.5264
  974SOL     OW 2920   2.580   0.807   2.058  0.0004  0.3584  0.1590
  974SOL    HW1 2921   2.640   0.741   2.102  0.0561  1.2479 -3.3496
  974SOL    HW2 2922   2.487   0.774   2.028 -0.4868 -0.0016 -0.3707
  975SOL     OW 2923   0.028   0.029   0.642 -0.4035 -0.4027  0.1201
  975SOL    HW1 2924   3.076   0.030   0.741 -3.8228 -0.5493  0.0768
  975SOL    HW2 2925   3.042   3.045   0.584 -2.3763  1.2057  0.1393
  976SOL     OW 2926   0.422   1.712   1.371  0.4123  0.1223 -0.3728
  976SOL    HW1 2927   0.326   1.688   1.403  0.6168 -0.3555  1.0800
  976SOL    HW2 2928   0.483   1.631   1.368 -2.1696 -1.4155 -0.2909
  977SOL     OW 2929   1.107   1.740   0.166 -0.5786  0.1239 -0.3513
  977SOL    HW1 2930   1.047   1.736   0.087  2.1450  0.9064 -0.7956
  977SOL    HW2 2931   1.104   1.826   0.217 -2.4272  2.3175 -0.4995
  978SOL     OW 2932   0.057   0.913   0.261 -0.5105  0.8865  0.2710
  978SOL    HW1 2933   0.028   0.845   0.194  1.5249 -0.4967  1.0262
  978SOL    HW2 2934   0.144   0.960   0.233 -1.3127 -1.8055  1.5014
  979SOL     OW 2935   1.744   1.667   0.455  0.3670  0.2632 -0.0706
  979SOL    HW1 2936   1.793   1.616   0.529 -2.4973 -0.2963  0.3794
  979SOL    HW2 2937   1.798   1.750   0.424  2.9218 -1.3836  2.1531
  980SOL     OW 2938   0.553   1.937   2.065  0.1765 -0.0485 -0.0807
  980SOL    HW1 2939   0.630   1.891   2.113  1.0247  0.0622  0.9576
  980SOL    HW2 2940   0.576   1.967   1.972 -0.6715  0.0499  2.2751
  981SOL     OW 2941   2.244   1.375   2.598 -0.1655 -0.1690 -0.2567
  981SOL    HW1 2942   2.334   1.387   2.643  0.5646 -0.6553 -0.6145
  981SOL    HW2 2943   2.225   1.448   2.531 -0.0496  0.4402  3.2434
  982SOL     OW 2944   0.064   2.430   1.911 -0.2042 -0.0178 -0.2679
  982SOL    HW1 2945   0.025   2.359   1.851  1.0091  0.1535 -2.9560
  982SOL    HW2 2946   0.122   2.382   1.980 -1.9217 -1.6679 -0.3481
  983SOL     OW 2947   1.433   0.116   1.502 -0.2591  0.1443  0.1316
  983SOL    HW1 2948   1.422   0.216   1.520 -1.5407 -0.5911 -2.1575
  983SOL    HW2 2949   1.528   0.087   1.508 -3.3530  0.5944 -1.0345
  984SOL     OW 2950   2.500   2.778   3.065  0.7317 -0.4649  0.0614
  984SOL    HW1 2951   2.499   2.681   3.074  3.0617  3.5960  0.0731
  984SOL    HW2 2952   2.482   2.806   2.967  0.2769  0.2354 -0.1305
  985SOL     OW 2953   1.572   1.242   1.768 -0.4944  0.3270 -0.5095
  985SOL    HW1 2954   1.630   1.323   1.740 -1.6567  1.2260  0.3327
  985SOL    HW2 2955   1.598   1.209   1.861  0.1355 -0.1464  2.0507
  986SOL     OW 2956   2.058   2.999   2.506  0.4093  0.1602  0.2894
  986SOL    HW1 2957   2.140   3.043   2.547  0.7332 -0.8425  0.2712
  986SOL    HW2 2958   1.975   3.002   2.565 -1.4774  1.6418  2.1246
  987SOL     OW 2959   2.672   1.884   2.769  0.1137  0.2444 -0.1062
  987SOL    HW1 2960   2.770   1.855   2.767  1.4784 -0.6275  1.3941
  987SOL    HW2 2961   2.653   1.956   2.699  0.6594 -0.7831 -0.5802
  988SOL     OW 2962   0.155   0.763   1.402 -0.3703  0.1588 -0.2468
  988SOL    HW1 2963   0.133   0.688   1.468 -2.2179 -1.3524 -1.6348
  988SOL    HW2 2964   0.170   0.852   1.450 -0.6071 -0.3836  0.1980
  989SOL     OW 2965   1.772   1.117   1.245 -0.2337 -0.6196  0.1199
  989SOL    HW1 2966   1.848   1.047   1.258 -0.9859  1.6095 -2.9483
  989SOL    HW2 2967   1.693   1.070   1.201 -0.3491 -0.6949 -0.7872
  990SOL     OW 2968   2.559   0.648   2.994  0.6871 -0.0484 -0.2104
  990SOL    HW1 2969   2.592   0.744   2.973  3.3259 -0.6365  0.4625
  990SOL    HW2 2970   2.601   0.609   0.004  0.1722 -1.6527  2.2211
  991SOL     OW 2971   0.093   1.490   3.074  0.1947  0.4031  0.0023
  991SOL    HW1 2972   0.015   1.420   3.076 -2.1640 -3.1764  1.6102
  991SOL    HW2 2973   0.118   1.505   0.095 -1.9939  2.9601  1.2505
  992SOL     OW 2974   2.227   1.464   1.907  0.3380  0.2883  0.3757
  992SOL    HW1 2975   2.174   1.550   1.887 -0.1488  1.1140  0.4532
  992SOL    HW2 2976   2.312   1.447   1.852  1.1704 -1.0852 -1.7210
  993SOL     OW 2977   0.429   2.627   0.436 -0.3912 -0.0563 -0.1504
  993SOL    HW1 2978   0.481   2.545   0.405 -0.2449 -0.7512 -0.2325
  993SOL    HW2 2979   0.496   2.699   0.462 -0.4660  3.2477  4.0478
  994SOL     OW 2980   2.797   1.789   1.460  0.0420  0.1837 -0.4912
  994SOL    HW1 2981   2.795   1.724   1.544 -1.3538  0.4734  2.2214
  994SOL    HW2 2982   2.801   1.886   1.487  0.3379  0.0269  1.4076
  995SOL     OW 2983   1.637   2.023   2.544 -0.4252  0.7074 -0.4985
  995SOL    HW1 2984   1.734   2.010   2.518 -1.5558 -0.1542 -1.8962
  995SOL    HW2 2985   1.568   1.969   2.488 -1.5495  0.8825 -1.4620
  996SOL     OW 2986   2.288   1.832   3.071 -0.0019 -0.2060  0.3220
  996SOL    HW1 2987   2.207   1.876   0.041 -0.8002 -1.3006 -1.5182
  996SOL    HW2 2988   2.377   1.869   0.033  1.1831  2.9413 -1.2963
  997SOL     OW 2989   1.512   1.340   2.453  0.0160  0.3641  0.4464
  997SOL    HW1 2990   1.479   1.303   2.542 -0.4978 -0.8534  0.8716
  997SOL    HW2 2991   1.566   1.426   2.453  1.2976  0.0887  0.7634
  998SOL     OW 2992   3.038   2.306   0.866  0.4804  0.5547  0.0345
  998SOL    HW1 2993   3.033   2.388   0.808  1.1073 -1.9535  0.7214
  998SOL    HW2 2994   3.053   2.338   0.960 -1.9018 -0.7330 -0.5588
  999SOL     OW 2995   0.189   2.506   0.529 -0.9185 -0.2617  0.9335
  999SOL    HW1 2996   0.167   2.433   0.464 -1.4283  0.6918  0.2847
  999SOL    HW2 2997   0.238   2.581   0.486  0.4141 -1.7962  2.0307
 1000SOL     OW 2998   1.081   3.005   0.144  0.4553  0.6916  0.2281
 1000SOL    HW1 2999   1.017   3.005   0.222  3.5101 -2.0095 -0.4778
 1000SOL    HW2 3000   1.031   3.008   0.055  0.6215 -0.4406 -2.0574
   3.07686   3.07686   3.07686
