1000 SPC/Fw water molecules t=  34.00000 step= 34000
 3000
    1SOL     OW    1   1.966   2.635   0.526 -0.0385 -0.2296  0.0821
    1SOL    HW1    2   2.023   2.612   0.441  1.2793 -1.1111 -0.0541
    1SOL    HW2    3   1.865   2.618   0.506  0.8267  1.1318  1.1259
    2SOL     OW    4   1.166   0.532   2.014 -0.0438 -0.4972  0.4682
    2SOL    HW1    5   1.168   0.433   2.030 -2.7949  1.0355  0.4211
    2SOL    HW2    6   1.155   0.581   2.103 -2.5142  0.2898 -0.1895
    3SOL     OW    7   0.922   3.072   2.705 -0.3943  0.3840 -0.1424
    3SOL    HW1    8   0.872   2.980   2.717 -0.6665 -4.0560 -2.9152
    3SOL    HW2    9   0.932   0.025   2.798  0.9246 -0.7421  1.8157
    4SOL     OW   10   1.199   1.410   3.024  0.1025  0.6316 -0.1382
    4SOL    HW1   11   1.168   1.422   2.930  1.6573 -1.1800  2.2085
    4SOL    HW2   12   1.216   1.497   3.072  1.4524  0.2865 -1.4657
    5SOL     OW   13   0.790   1.077   2.197  0.1035 -0.3346  0.0835
    5SOL    HW1   14   0.846   1.005   2.154 -2.2678  1.4377 -2.4547
    5SOL    HW2   15   0.847   1.133   2.262 -0.0902  2.9174 -0.8829
    6SOL     OW   16   2.086   0.886   2.535  0.4238  0.2993  0.0205
    6SOL    HW1   17   2.079   0.813   2.605  2.5254 -0.0230  1.0370
    6SOL    HW2   18   2.175   0.935   2.542  0.0401 -1.5202 -1.0031
    7SOL     OW   19   0.430   0.946   1.507 -0.0238 -0.2785  0.4720
    7SOL    HW1   20   0.475   0.871   1.453 -2.0600  0.0103  1.4552
    7SOL    HW2   21   0.333   0.921   1.518  0.0703 -1.4650 -1.9771
    8SOL     OW   22   2.189   2.924   1.940  0.0942 -0.3285  0.6167
    8SOL    HW1   23   2.140   2.971   1.865 -0.3266 -0.7043 -0.0894
    8SOL    HW2   24   2.290   2.953   1.938 -2.2933 -0.2447 -2.1747
    9SOL     OW   25   0.087   0.002   0.711 -0.1484 -0.0466 -0.1862
    9SOL    HW1   26   0.016   0.072   0.691 -0.4395 -2.2267 -3.1204
    9SOL    HW2   27   0.151   3.074   0.634 -0.5638  0.0817  0.0867
   10SOL     OW   28   0.092   2.364   2.416  0.5942 -0.5711 -0.1742
   10SOL    HW1   29   0.165   2.431   2.439 -2.1418  0.2275 -2.9722
   10SOL    HW2   30   0.125   2.266   2.435 -0.0315 -1.8412 -0.0846
   11SOL     OW   31   0.798   1.628   3.052 -0.1231 -0.4800  0.4515
   11SOL    HW1   32   0.786   1.534   0.005 -2.0133 -0.3150 -0.0049
   11SOL    HW2   33   0.887   1.662   3.081 -2.6419 -2.2965 -1.1187
   12SOL     OW   34   2.130   2.623   1.219  0.1259  0.1491  0.1102
   12SOL    HW1   35   2.209   2.686   1.232  0.9564 -2.3090  0.3994
   12SOL    HW2   36   2.094   2.618   1.123 -3.0991  3.3349 -1.5495
   13SOL     OW   37   0.366   2.998   2.983 -0.4528 -0.0590 -0.1066
   13SOL    HW1   38   0.319   3.085   2.976 -0.4296  2.0307  1.4611
   13SOL    HW2   39   0.467   3.010   2.962  4.0639  1.3974  2.0085
   14SOL     OW   40   1.362   1.233   1.522  0.3911  0.8734 -0.5628
   14SOL    HW1   41   1.399   1.279   1.608  0.5594  0.6882  1.5427
   14SOL    HW2   42   1.374   1.298   1.444  1.0576 -2.5144  3.0690
   15SOL     OW   43   0.326   1.461   2.254 -0.2454 -0.4855  0.9293
   15SOL    HW1   44   0.240   1.477   2.204 -1.4736 -0.5800  1.8219
   15SOL    HW2   45   0.335   1.367   2.292  0.5471 -0.4426  1.3959
   16SOL     OW   46   1.667   0.649   2.677  0.0993  0.4921 -0.0042
   16SOL    HW1   47   1.584   0.596   2.700  0.6647 -1.4550 -0.4290
   16SOL    HW2   48   1.633   0.744   2.670 -0.7144  1.2185  2.7472
   17SOL     OW   49   2.927   2.520   2.166  0.0239 -0.1615  0.0652
   17SOL    HW1   50   2.948   2.499   2.265  0.1250  1.4416  2.9111
   17SOL    HW2   51   3.017   2.510   2.114 -0.3199 -1.3385 -0.2450
   18SOL     OW   52   1.371   1.087   0.416 -0.7629  0.5417 -0.4114
   18SOL    HW1   53   1.446   1.022   0.407  2.8479  2.6557 -2.0467
   18SOL    HW2   54   1.323   1.070   0.504  0.4261  0.8622  0.6570
   19SOL     OW   55   0.116   1.468   2.093  0.2777 -0.0480  0.7638
   19SOL    HW1   56   0.152   1.402   2.028  0.7461 -1.3530 -1.3773
   19SOL    HW2   57   0.080   1.547   2.041 -1.9510  0.2009  0.8157
   20SOL     OW   58   2.188   2.272   2.766  0.2466  0.3913  0.4001
   20SOL    HW1   59   2.274   2.325   2.790  1.2896 -2.2657 -1.5509
   20SOL    HW2   60   2.209   2.178   2.736 -1.3456 -0.6120  2.3300
   21SOL     OW   61   1.907   1.904   0.815  0.2311 -0.3172  0.2567
   21SOL    HW1   62   1.895   1.991   0.767 -1.1962 -1.5070  0.5931
   21SOL    HW2   63   1.833   1.880   0.883 -3.7049 -0.2663 -0.0668
   22SOL     OW   64   2.340   1.908   1.296 -0.0672 -0.2171 -0.6721
   22SOL    HW1   65   2.348   2.010   1.289  0.4186 -1.5989 -0.4267
   22SOL    HW2   66   2.277   1.878   1.225  1.5855  0.3080  0.8663
   23SOL     OW   67   0.032   1.380   1.347 -0.6713  0.4656  0.4409
   23SOL    HW1   68   0.025   1.466   1.293  0.9382 -3.1158 -0.5815
   23SOL    HW2   69   3.029   1.326   1.332 -0.2941 -1.8540  2.2982
   24SOL     OW   70   1.583   1.281   1.928 -0.1170  0.0865 -0.2061
   24SOL    HW1   71   1.631   1.194   1.908  0.2448  3.4830 -2.3903
   24SOL    HW2   72   1.649   1.356   1.939 -1.7494 -1.4127  2.4278
   25SOL     OW   73   1.842   0.102   2.194 -0.6313  0.1082  0.6294
   25SOL    HW1   74   1.805   0.152   2.275 -0.3138 -0.5870  2.4465
   25SOL    HW2   75   1.907   0.029   2.223 -1.4580  0.4855 -0.4578
   26SOL     OW   76   0.814   0.220   0.749  0.5228  0.4242 -0.3161
   26SOL    HW1   77   0.805   0.323   0.749  1.1533 -1.1593  0.2172
   26SOL    HW2   78   0.743   0.173   0.691  1.7709  2.0746  0.0262
   27SOL     OW   79   1.252   1.330   0.821  0.1647 -0.1069 -0.5077
   27SOL    HW1   80   1.338   1.374   0.786  0.5558  1.1547 -0.1386
   27SOL    HW2   81   1.261   1.334   0.919  4.8731  1.1963  0.6863
   28SOL     OW   82   2.294   2.182   1.231  0.1572  0.2556 -0.3919
   28SOL    HW1   83   2.291   2.270   1.279 -0.6886 -2.4438 -0.1859
   28SOL    HW2   84   2.227   2.184   1.154 -0.8229 -2.3076 -1.2649
   29SOL     OW   85   2.015   3.000   2.314 -0.0433  0.3342 -0.1858
   29SOL    HW1   86   1.988   2.902   2.326  0.0436  1.4013  0.1078
   29SOL    HW2   87   2.108   3.024   2.353  2.3014  1.1277 -1.0367
   30SOL     OW   88   0.077   3.036   2.016 -0.6375 -0.1565 -0.5309
   30SOL    HW1   89   0.050   0.048   2.004 -0.9102  0.3786 -0.9575
   30SOL    HW2   90   0.081   2.993   1.924  0.1975  0.2051  1.8066
   31SOL     OW   91   2.972   1.771   2.166 -0.3152  0.2325 -0.4705
   31SOL    HW1   92   2.950   1.863   2.132  1.2207 -0.9055  3.1296
   31SOL    HW2   93   3.010   1.724   2.080  1.0991  2.3451 -4.0351
   32SOL     OW   94   1.549   2.279   2.184  0.5909  0.4622  0.1936
   32SOL    HW1   95   1.517   2.279   2.088  0.1594 -0.2272 -0.4856
   32SOL    HW2   96   1.568   2.371   2.212 -0.7962  0.7059 -1.6283
   33SOL     OW   97   0.230   0.153   2.941 -0.4056  0.1631  0.2587
   33SOL    HW1   98   0.146   0.176   2.993  0.0795 -0.4822  1.4008
   33SOL    HW2   99   0.242   0.194   2.848  0.3634  1.0960 -1.2986
   34SOL     OW  100   2.590   0.127   0.377 -0.2440 -0.7268  0.1458
   34SOL    HW1  101   2.592   0.125   0.476  1.0927  1.4283 -1.1411
   34SOL    HW2  102   2.676   0.167   0.338 -1.8338 -0.5401  0.7360
   35SOL     OW  103   2.737   2.699   1.650 -0.0987 -0.1379  0.4305
   35SOL    HW1  104   2.739   2.602   1.684  0.1620 -2.4055 -0.8374
   35SOL    HW2  105   2.650   2.720   1.602 -4.1820 -1.7555 -2.7075
   36SOL     OW  106   2.391   3.046   2.243  0.1202 -0.3041  0.5247
   36SOL    HW1  107   2.350   3.061   2.335  0.3235  3.4407 -0.6558
   36SOL    HW2  108   2.424   0.051   2.206  1.6659 -1.9602  1.6928
   37SOL     OW  109   1.630   3.023   0.012  0.0575 -0.3945  0.7413
   37SOL    HW1  110   1.624   3.052   0.112 -0.1107  0.0380  1.4587
   37SOL    HW2  111   1.578   2.936   0.000 -1.3172 -2.3685  0.9393
   38SOL     OW  112   0.391   0.502   0.060 -0.3673  0.5491  0.0936
   38SOL    HW1  113   0.433   0.563   0.129 -2.5484  0.0778 -0.7081
   38SOL    HW2  114   0.393   0.547   3.053 -0.3751 -1.0342  1.1524
   39SOL     OW  115   0.910   1.781   2.112 -0.2429  0.0530 -0.0445
   39SOL    HW1  116   0.830   1.820   2.158  2.0919 -0.3018 -0.0449
   39SOL    HW2  117   0.997   1.792   2.159  1.2291  1.4583 -0.6512
   40SOL     OW  118   2.998   0.402   2.501  0.3423  0.1431  0.0482
   40SOL    HW1  119   2.971   0.489   2.457  0.3262  0.8972  0.0702
   40SOL    HW2  120   0.012   0.385   2.486  0.4330  0.0201 -0.4679
   41SOL     OW  121   1.311   0.893   1.846 -0.2223  0.1149 -0.0193
   41SOL    HW1  122   1.397   0.897   1.793 -1.8283 -0.9527  1.2626
   41SOL    HW2  123   1.321   0.826   1.920  1.4651  2.4487  1.4814
   42SOL     OW  124   2.684   0.048   1.444  0.3906 -0.1321 -0.0873
   42SOL    HW1  125   2.604   0.072   1.502 -1.6388  1.5042  0.9159
   42SOL    HW2  126   2.667   3.081   1.357  0.8256 -4.8450  0.4689
   43SOL     OW  127   1.538   0.933   1.698 -0.5569 -0.4956 -0.1501
   43SOL    HW1  128   1.588   0.982   1.627 -1.2535 -1.6711  1.2787
   43SOL    HW2  129   1.512   0.842   1.670 -0.8667  2.7939  3.1963
   44SOL     OW  130   0.016   0.209   0.049 -0.2630 -0.3337 -0.1536
   44SOL    HW1  131   0.083   0.275   0.099  3.4086  0.9144  1.0947
   44SOL    HW2  132   0.022   0.113   0.079  0.7340 -0.0994 -1.5721
   45SOL     OW  133   0.334   1.998   1.661  0.0858  0.0990 -0.3490
   45SOL    HW1  134   0.407   1.946   1.709 -0.4487 -0.5671 -3.3977
   45SOL    HW2  135   0.356   2.039   1.572 -2.1331  0.5725  0.5467
   46SOL     OW  136   2.269   2.724   1.756  0.1532  0.3547  0.5520
   46SOL    HW1  137   2.192   2.765   1.803 -2.3992  0.1043  0.7200
   46SOL    HW2  138   2.357   2.726   1.811  3.5129  3.5527  3.3035
   47SOL     OW  139   0.345   1.927   1.235 -0.3816 -0.0189 -0.3507
   47SOL    HW1  140   0.386   1.858   1.299 -1.3211 -1.1986  0.4530
   47SOL    HW2  141   0.261   1.876   1.197  1.4230 -0.4078 -1.5775
   48SOL     OW  142   0.783   2.838   2.712 -0.4285  0.0314 -0.2043
   48SOL    HW1  143   0.774   2.753   2.654  0.1744  0.7507  0.4179
   48SOL    HW2  144   0.777   2.814   2.811  0.0864 -0.3953  2.0074
   49SOL     OW  145   2.928   1.477   1.733 -0.0544  0.0555 -0.1360
   49SOL    HW1  146   3.020   1.453   1.694 -0.0368 -0.8906  1.7830
   49SOL    HW2  147   2.863   1.519   1.662 -0.0885  0.5747  0.0913
   50SOL     OW  148   1.259   2.716   0.607  0.2456 -0.1128 -0.3340
   50SOL    HW1  149   1.262   2.668   0.694 -2.1221  1.4643  0.2418
   50SOL    HW2  150   1.188   2.788   0.615 -2.8468 -0.4406 -1.0444
   51SOL     OW  151   1.012   0.199   0.927  0.1025  0.3337  0.3045
   51SOL    HW1  152   0.947   0.208   0.848  0.5735 -0.6379  1.4319
   51SOL    HW2  153   1.092   0.260   0.919  0.1216 -2.1451 -1.2361
   52SOL     OW  154   0.621   1.245   0.262 -0.5254  0.1456  0.2063
   52SOL    HW1  155   0.681   1.165   0.288  3.0109  1.3537  1.8180
   52SOL    HW2  156   0.552   1.259   0.331  1.6210 -0.4621 -0.8288
   53SOL     OW  157   1.186   2.704   2.634  0.3852 -0.1445 -0.0034
   53SOL    HW1  158   1.265   2.751   2.672 -2.1419 -1.0547 -1.1241
   53SOL    HW2  159   1.209   2.679   2.540  2.1485  2.5397  1.5546
   54SOL     OW  160   2.053   0.292   1.813  0.1738  0.1441  0.3735
   54SOL    HW1  161   2.001   0.340   1.740  1.4458  0.8005 -0.2323
   54SOL    HW2  162   2.119   0.356   1.852 -0.2798  0.2771  0.1156
   55SOL     OW  163   2.827   2.400   0.280  0.1447  0.0769  0.6312
   55SOL    HW1  164   2.828   2.375   0.184 -3.1145  2.1592  1.6167
   55SOL    HW2  165   2.873   2.491   0.291  0.3032 -0.4836 -0.1014
   56SOL     OW  166   0.945   2.986   1.660 -0.1822 -0.9321 -0.2408
   56SOL    HW1  167   0.879   3.042   1.608 -1.4559  0.8125 -2.4257
   56SOL    HW2  168   0.900   2.914   1.711  1.6912  4.8452  0.2933
   57SOL     OW  169   1.850   1.001   2.517  0.5483  0.3840 -0.5346
   57SOL    HW1  170   1.938   0.952   2.514 -2.5588  0.6789  1.3248
   57SOL    HW2  171   1.804   1.001   2.424  1.4381  1.4405 -0.5737
   58SOL     OW  172   3.051   0.928   1.978 -0.2479  0.6111  0.1931
   58SOL    HW1  173   3.016   0.837   1.996  1.9063  2.9077  0.0778
   58SOL    HW2  174   0.060   0.925   1.941  0.3050  0.7767 -2.0019
   59SOL     OW  175   0.821   2.616   1.577  0.4740 -0.4029 -0.4786
   59SOL    HW1  176   0.725   2.571   1.573 -3.9676  1.4070  0.0921
   59SOL    HW2  177   0.854   2.658   1.490 -1.6776  0.4008  0.1229
   60SOL     OW  178   2.150   2.635   0.301  0.1222 -0.3305  0.3210
   60SOL    HW1  179   2.200   2.553   0.273 -0.2685  0.9206  1.0707
   60SOL    HW2  180   2.060   2.649   0.251  0.9527 -1.8949  1.1830
   61SOL     OW  181   1.539   2.492   0.685  0.0174 -0.0681 -0.4128
   61SOL    HW1  182   1.591   2.424   0.735 -0.6365  0.9934 -0.5936
   61SOL    HW2  183   1.462   2.530   0.738  0.2942 -1.7192 -0.9386
   62SOL     OW  184   1.877   3.079   2.996 -0.4080 -0.7525  0.1308
   62SOL    HW1  185   1.786   3.064   3.039  0.0419 -0.0453 -1.5941
   62SOL    HW2  186   1.893   0.086   2.953 -2.5227  1.5581 -1.2677
   63SOL     OW  187   2.379   0.469   0.251  0.3275 -0.8954  0.2706
   63SOL    HW1  188   2.331   0.559   0.234 -2.3194  2.7400  0.6965
   63SOL    HW2  189   2.422   0.428   0.164  0.4415  0.5163  2.0343
   64SOL     OW  190   1.306   0.977   2.962 -0.3729 -0.0842  0.1441
   64SOL    HW1  191   1.279   0.876   2.948 -1.6026 -2.0822  0.5783
   64SOL    HW2  192   1.281   1.034   2.882  1.5232 -0.8906  0.8050
   65SOL     OW  193   0.549   2.449   1.284  0.2568 -0.6033  0.0794
   65SOL    HW1  194   0.538   2.386   1.209  1.3655 -1.9712  2.0486
   65SOL    HW2  195   0.627   2.513   1.266  2.5435 -1.2077 -0.6263
   66SOL     OW  196   0.973   1.401   1.389  0.3334 -0.7736 -0.4679
   66SOL    HW1  197   0.984   1.304   1.417  0.9763  0.8793 -1.4707
   66SOL    HW2  198   1.036   1.458   1.444 -0.8518 -1.4723 -1.9414
   67SOL     OW  199   2.339   2.045   1.930 -0.4235 -0.4519  0.0125
   67SOL    HW1  200   2.433   2.060   1.901 -1.6266  0.4653 -0.0133
   67SOL    HW2  201   2.297   1.969   1.874  0.4370  1.8720  1.0567
   68SOL     OW  202   0.780   1.344   2.090  0.3486 -0.2541  0.6364
   68SOL    HW1  203   0.706   1.386   2.146 -0.7212 -4.6513 -1.6206
   68SOL    HW2  204   0.742   1.273   2.025 -1.4802  0.1750 -0.8007
   69SOL     OW  205   0.021   2.716   0.021  0.3663 -0.0315 -0.3019
   69SOL    HW1  206   0.112   2.763   0.037 -2.2448 -0.8771 -0.3820
   69SOL    HW2  207   3.032   2.773   0.059  0.8902  0.2968  1.6140
   70SOL     OW  208   2.402   0.775   2.363  0.4888  0.7409 -0.1802
   70SOL    HW1  209   2.368   0.870   2.339 -0.4574  0.9486 -1.0129
   70SOL    HW2  210   2.474   0.767   2.436 -2.0861 -2.0712  0.6299
   71SOL     OW  211   0.491   2.084   0.806  0.0102  0.3054 -0.0720
   71SOL    HW1  212   0.563   2.014   0.826 -0.8454  0.3263 -2.0720
   71SOL    HW2  213   0.447   2.118   0.893  1.1664 -0.3457  0.5418
   72SOL     OW  214   2.582   2.063   0.461 -0.0942  0.5863  0.5428
   72SOL    HW1  215   2.567   2.162   0.465 -0.4417 -0.6762 -0.3776
   72SOL    HW2  216   2.574   2.014   0.554  1.7464 -5.4122  0.5912
   73SOL     OW  217   1.056   0.547   0.700 -0.3293 -0.1721  0.1129
   73SOL    HW1  218   1.066   0.492   0.617 -1.2010  2.3135  2.1840
   73SOL    HW2  219   1.117   0.629   0.694  0.6657  0.3594 -1.1189
   74SOL     OW  220   2.574   2.029   1.815  0.0840 -0.2680 -0.2603
   74SOL    HW1  221   2.580   1.928   1.814  1.1857  0.6455 -1.4956
   74SOL    HW2  222   2.565   2.064   1.717 -0.2887 -0.6790 -2.6976
   75SOL     OW  223   1.548   1.700   1.908 -0.4382  0.5387 -0.0041
   75SOL    HW1  224   1.455   1.661   1.921 -0.8627  0.1139 -0.0518
   75SOL    HW2  225   1.622   1.629   1.917  1.9183 -1.0925  0.6457
   76SOL     OW  226   1.242   1.815   1.145  0.0958  0.0313  0.0586
   76SOL    HW1  227   1.339   1.800   1.120 -0.0414 -1.4127 -0.9688
   76SOL    HW2  228   1.192   1.731   1.112  0.6663 -0.6128 -0.5426
   77SOL     OW  229   2.784   1.289   1.836 -0.0026 -0.4292  0.3009
   77SOL    HW1  230   2.791   1.307   1.937  1.7602  2.2639 -0.6195
   77SOL    HW2  231   2.838   1.365   1.791 -0.8044 -1.5655  1.4478
   78SOL     OW  232   1.711   0.709   0.328 -0.0272 -0.6419  0.2421
   78SOL    HW1  233   1.685   0.643   0.255 -1.3043  0.2510  0.0420
   78SOL    HW2  234   1.798   0.681   0.368  0.4066  0.9278 -1.6264
   79SOL     OW  235   1.238   1.461   2.191  0.4449 -0.0041  0.3295
   79SOL    HW1  236   1.302   1.387   2.160 -0.6741 -1.0001 -0.0933
   79SOL    HW2  237   1.144   1.420   2.192  0.5770 -0.2531 -2.6941
   80SOL     OW  238   1.094   0.356   1.603  0.0954 -0.0231  0.7119
   80SOL    HW1  239   1.110   0.409   1.519 -0.1021  2.1461 -0.1018
   80SOL    HW2  240   1.190   0.328   1.637  0.3873 -0.2795  0.4993
   81SOL     OW  241   0.529   2.536   0.312  0.4066 -0.2401  0.0596
   81SOL    HW1  242   0.519   2.488   0.224 -0.5679 -0.5772  0.6123
   81SOL    HW2  243   0.493   2.472   0.384  1.6209 -0.4269  1.4599
   82SOL     OW  244   1.312   0.281   1.770  0.2316 -0.1044 -0.2174
   82SOL    HW1  245   1.366   0.201   1.729 -0.6897  0.9676 -0.6498
   82SOL    HW2  246   1.287   0.258   1.871 -1.7625 -1.9687  3.3391
   83SOL     OW  247   0.536   2.344   1.044  0.0130 -0.3641 -0.1162
   83SOL    HW1  248   0.522   2.440   1.011  0.4841  2.4532 -1.2143
   83SOL    HW2  249   0.458   2.287   1.017  1.0055 -2.2898 -0.4727
   84SOL     OW  250   2.938   1.648   0.541  0.2673  0.1250  0.0658
   84SOL    HW1  251   2.905   1.558   0.517  0.2470  2.0242 -1.7232
   84SOL    HW2  252   3.012   1.669   0.476 -0.6422  1.0285  0.8782
   85SOL     OW  253   2.525   1.845   1.470  0.0645 -0.7165 -0.2920
   85SOL    HW1  254   2.451   1.873   1.403 -0.5360 -2.6156  0.7443
   85SOL    HW2  255   2.619   1.865   1.435 -0.9864  1.1775 -3.0762
   86SOL     OW  256   1.493   2.330   1.522  0.2015 -0.6690 -0.2952
   86SOL    HW1  257   1.426   2.367   1.585  2.9002  0.4270 -1.6288
   86SOL    HW2  258   1.483   2.230   1.508 -0.0992 -1.6783  1.1544
   87SOL     OW  259   2.164   1.458   0.401 -0.2402  0.1226  0.4989
   87SOL    HW1  260   2.075   1.511   0.394  1.4063 -2.8706  1.3208
   87SOL    HW2  261   2.247   1.505   0.354  1.1051 -0.5126 -0.9311
   88SOL     OW  262   0.501   0.193   0.830 -0.1935  0.5601  0.1522
   88SOL    HW1  263   0.550   0.166   0.745 -1.2644  0.6584 -1.2734
   88SOL    HW2  264   0.568   0.214   0.905 -1.4078 -2.4435 -0.8979
   89SOL     OW  265   0.818   0.401   1.648 -0.1990 -0.0371  0.2601
   89SOL    HW1  266   0.802   0.499   1.612  0.7930  2.1350  1.3221
   89SOL    HW2  267   0.914   0.368   1.640  1.3475 -1.1439  0.7352
   90SOL     OW  268   0.069   2.015   0.471 -0.1829  0.0185  0.1361
   90SOL    HW1  269   0.147   2.028   0.533 -0.9227  1.6056  1.6463
   90SOL    HW2  270   0.026   2.104   0.457  2.5662 -2.0713  0.3729
   91SOL     OW  271   1.250   1.674   0.809 -0.8088  0.3267  0.2440
   91SOL    HW1  272   1.183   1.636   0.878  0.5310 -2.8379 -0.8252
   91SOL    HW2  273   1.249   1.775   0.801  0.6441 -1.8363  0.3160
   92SOL     OW  274   2.260   0.041   1.491  0.6448  0.7769 -0.0247
   92SOL    HW1  275   2.348   0.050   1.541  1.1884  1.5140  1.8540
   92SOL    HW2  276   2.228   3.026   1.483 -1.2310 -2.4534 -2.0546
   93SOL     OW  277   0.443   1.204   2.890 -0.4552  0.1961 -0.4565
   93SOL    HW1  278   0.477   1.269   2.960  0.3049 -2.9169 -0.4296
   93SOL    HW2  279   0.491   1.235   2.806 -0.7237 -0.4849  1.4334
   94SOL     OW  280   2.427   3.032   1.900 -0.1474  0.1472 -0.1311
   94SOL    HW1  281   2.407   0.039   1.938 -1.4241  0.8132  0.2470
   94SOL    HW2  282   2.530   3.021   1.908 -0.0270  3.6874 -1.3853
   95SOL     OW  283   1.943   0.672   1.721 -0.0723 -0.0746 -0.1000
   95SOL    HW1  284   1.904   0.733   1.648  0.1656  1.4402 -0.5448
   95SOL    HW2  285   1.943   0.575   1.688 -0.0065 -0.4334  4.7913
   96SOL     OW  286   2.785   0.269   1.838 -0.1351 -0.3293 -0.7981
   96SOL    HW1  287   2.707   0.319   1.864  3.1174  0.1809 -0.0468
   96SOL    HW2  288   2.764   0.172   1.816 -0.4294  1.1268  3.0763
   97SOL     OW  289   2.157   0.273   1.411 -0.0061 -0.2014  0.1092
   97SOL    HW1  290   2.077   0.254   1.345 -0.4106  0.5723 -0.9683
   97SOL    HW2  291   2.196   0.188   1.449 -1.3019  1.7111  0.5959
   98SOL     OW  292   2.153   2.483   1.651 -0.0030  0.0387 -0.9695
   98SOL    HW1  293   2.186   2.397   1.695 -2.2361  1.6403 -1.4351
   98SOL    HW2  294   2.214   2.565   1.672 -0.3560 -1.6198  2.1862
   99SOL     OW  295   0.475   0.815   1.057  0.6076  0.1303 -0.1433
   99SOL    HW1  296   0.549   0.883   1.020  1.9895  0.7553 -2.8015
   99SOL    HW2  297   0.394   0.873   1.090  2.1384  0.0975  1.1572
  100SOL     OW  298   2.600   1.701   1.837  0.1167  1.0562  0.1505
  100SOL    HW1  299   2.507   1.688   1.793 -0.4001 -0.9129  0.8442
  100SOL    HW2  300   2.661   1.712   1.757 -1.2739  0.3465  1.3353
  101SOL     OW  301   2.118   2.958   0.299  0.4709  0.1515 -0.4093
  101SOL    HW1  302   2.206   3.009   0.317  3.3887  0.0904 -2.5207
  101SOL    HW2  303   2.104   2.958   0.196  0.4328 -0.1678 -5.5336
  102SOL     OW  304   0.287   0.047   1.212  0.9282 -0.0534  0.5747
  102SOL    HW1  305   0.222   0.126   1.198 -2.9523  2.2468 -0.3244
  102SOL    HW2  306   0.292   0.012   1.118 -1.2018 -1.7861 -1.2125
  103SOL     OW  307   0.065   0.086   2.341  0.4160  0.2337  0.1264
  103SOL    HW1  308   3.064   0.035   2.338 -1.1807  0.0615  1.1016
  103SOL    HW2  309   0.138   0.014   2.334 -0.4963 -0.8436 -0.9868
  104SOL     OW  310   0.396   2.123   1.424 -0.5998  0.5727 -0.0854
  104SOL    HW1  311   0.397   2.053   1.352  1.7936  1.5396  0.7407
  104SOL    HW2  312   0.325   2.192   1.408  0.2203 -0.3138  1.8370
  105SOL     OW  313   0.624   1.896   2.197  0.2076  0.3700  0.4231
  105SOL    HW1  314   0.676   1.961   2.253 -1.6251 -0.3246 -0.2008
  105SOL    HW2  315   0.621   1.929   2.096 -0.8111 -0.3061  0.2501
  106SOL     OW  316   2.307   0.276   0.631  0.0356  0.5006  0.5040
  106SOL    HW1  317   2.255   0.205   0.687 -2.2782 -0.0252  1.0859
  106SOL    HW2  318   2.277   0.265   0.535  1.3123 -1.2391  0.4583
  107SOL     OW  319   0.438   1.336   1.240 -0.8220  0.8357 -0.3203
  107SOL    HW1  320   0.405   1.401   1.169  1.1000  0.6817 -0.9905
  107SOL    HW2  321   0.521   1.284   1.225 -1.7194 -0.6034  1.3330
  108SOL     OW  322   2.771   0.961   2.358  0.1371 -0.5946 -0.0673
  108SOL    HW1  323   2.847   1.000   2.298  0.7519 -4.0713  0.2935
  108SOL    HW2  324   2.760   0.863   2.338  0.3820  3.0860 -0.3391
  109SOL     OW  325   1.891   2.919   2.788  0.1905 -0.1745  0.0550
  109SOL    HW1  326   1.894   2.979   2.705  0.3836 -1.4864 -0.1371
  109SOL    HW2  327   1.867   2.970   2.871 -1.8982 -0.8307 -1.1879
  110SOL     OW  328   0.317   2.104   0.004 -0.0714 -0.6501 -0.4477
  110SOL    HW1  329   0.215   2.109   3.077 -1.3835  1.5322  0.6092
  110SOL    HW2  330   0.338   2.013   0.042 -2.7585  1.2020  2.1941
  111SOL     OW  331   2.748   0.702   2.314 -0.1522  0.2163  0.0580
  111SOL    HW1  332   2.731   0.629   2.244 -1.8295 -0.0356  1.8032
  111SOL    HW2  333   2.693   0.676   2.394  1.4136  0.0208 -1.2685
  112SOL     OW  334   1.956   2.749   1.434 -0.2303  0.0414 -0.5507
  112SOL    HW1  335   1.872   2.795   1.458  0.5183 -1.0556 -0.2143
  112SOL    HW2  336   1.962   2.729   1.336  0.4699  0.6449  1.6247
  113SOL     OW  337   2.025   2.085   2.332  0.4988  0.0139  0.5416
  113SOL    HW1  338   2.044   1.984   2.345  0.9485  0.3458 -1.3954
  113SOL    HW2  339   2.114   2.139   2.338 -0.7885 -1.5975 -1.6870
  114SOL     OW  340   0.535   0.355   0.386 -0.1725 -0.2826  0.2400
  114SOL    HW1  341   0.462   0.286   0.384  0.3455  1.0966 -0.7410
  114SOL    HW2  342   0.632   0.320   0.385  0.5492  0.2851 -0.5410
  115SOL     OW  343   2.875   1.444   3.041  0.7506  0.1025 -0.5279
  115SOL    HW1  344   2.915   1.353   3.073 -1.9029 -3.0271  3.1354
  115SOL    HW2  345   2.946   1.508   3.009 -0.3695 -1.9459  0.7432
  116SOL     OW  346   3.057   0.788   1.636  0.1833  0.0326  0.3235
  116SOL    HW1  347   0.046   0.836   1.582  2.6971 -0.0617  0.7643
  116SOL    HW2  348   2.962   0.801   1.599 -1.2298 -0.2351 -0.8395
  117SOL     OW  349   2.400   0.166   1.282 -0.1982 -0.1972  0.2509
  117SOL    HW1  350   2.431   0.249   1.328 -0.3739 -1.2543 -0.2947
  117SOL    HW2  351   2.316   0.126   1.321  1.5191 -0.5650  0.7110
  118SOL     OW  352   2.718   2.142   2.016  0.6571 -0.3381 -0.2928
  118SOL    HW1  353   2.730   2.245   2.007 -1.1072 -2.2464 -1.8037
  118SOL    HW2  354   2.663   2.108   1.939  0.5005 -1.9745  2.8593
  119SOL     OW  355   0.589   1.889   0.994 -0.2120 -0.2382 -0.1699
  119SOL    HW1  356   0.644   1.966   1.036  0.5001  1.2812  1.8896
  119SOL    HW2  357   0.561   1.824   1.066 -0.0479  0.6573  0.1214
  120SOL     OW  358   0.410   1.455   1.475  1.4605  0.3480 -0.3389
  120SOL    HW1  359   0.412   1.428   1.376 -1.8795  0.6488 -2.3011
  120SOL    HW2  360   0.401   1.368   1.530 -1.0675 -2.4705  1.0026
  121SOL     OW  361   1.458   1.034   0.878 -0.3779 -0.1273 -0.2556
  121SOL    HW1  362   1.413   1.014   0.967  0.5786  0.0205 -0.6135
  121SOL    HW2  363   1.397   1.058   0.800 -1.8582 -1.0776  1.9246
  122SOL     OW  364   2.090   2.527   2.723  0.2716  0.1758  0.1413
  122SOL    HW1  365   1.988   2.528   2.729 -3.0427  2.8984  0.4946
  122SOL    HW2  366   2.131   2.437   2.728 -0.9023  5.3905 -1.5389
  123SOL     OW  367   2.984   3.044   0.439 -0.6086 -0.2021 -0.0780
  123SOL    HW1  368   2.915   2.991   0.493 -2.0765  1.6920 -1.9548
  123SOL    HW2  369   2.981   0.053   0.473  0.9577 -0.5115 -4.0905
  124SOL     OW  370   1.496   1.258   0.259 -0.0476 -0.1164  0.1095
  124SOL    HW1  371   1.460   1.244   0.164  2.3336 -1.3975  1.0373
  124SOL    HW2  372   1.452   1.202   0.327  1.0902 -2.7477 -0.5744
  125SOL     OW  373   0.062   0.863   2.259 -0.3770  0.2091  0.1005
  125SOL    HW1  374   0.088   0.930   2.332  0.9576 -3.3910 -2.5420
  125SOL    HW2  375   0.011   0.909   2.182 -2.3161 -0.1200 -0.4961
  126SOL     OW  376   0.016   2.441   0.116  1.3645 -0.5426 -0.6325
  126SOL    HW1  377   0.067   2.444   0.207  1.0043 -2.2810 -0.6680
  126SOL    HW2  378   0.014   2.536   0.072 -0.9497 -0.3447  0.0871
  127SOL     OW  379   2.854   2.007   0.334 -0.1160 -0.1087 -0.2755
  127SOL    HW1  380   2.766   2.021   0.379  3.9791 -2.1036  0.8576
  127SOL    HW2  381   2.837   1.957   0.250  1.6477 -0.7548 -0.1716
  128SOL     OW  382   1.167   0.832   0.959 -0.6273 -0.0429  0.2307
  128SOL    HW1  383   1.225   0.892   1.021 -0.5760  2.0384  0.4387
  128SOL    HW2  384   1.215   0.793   0.876 -0.5669  0.0944 -2.7231
  129SOL     OW  385   2.582   1.909   1.126  0.3554 -0.0428 -0.9166
  129SOL    HW1  386   2.639   1.964   1.062 -0.1617 -0.4041 -0.3330
  129SOL    HW2  387   2.568   1.963   1.213  1.0353  0.5677 -1.0335
  130SOL     OW  388   1.953   1.041   0.395 -0.7500 -0.5175 -0.4226
  130SOL    HW1  389   2.038   1.095   0.386  1.1735  0.5816  1.0116
  130SOL    HW2  390   1.868   1.095   0.375  2.0918  0.8561  1.3175
  131SOL     OW  391   3.059   1.271   2.495  0.6612 -0.4428  0.6009
  131SOL    HW1  392   2.978   1.263   2.556 -1.1786  0.5028 -1.4558
  131SOL    HW2  393   3.030   1.327   2.412  2.9054 -0.8645  0.5356
  132SOL     OW  394   1.013   1.325   2.240 -0.6863 -0.2650 -0.1653
  132SOL    HW1  395   1.037   1.234   2.276  1.5415  0.6799  2.2053
  132SOL    HW2  396   0.926   1.316   2.189 -0.9953  1.0799  2.5393
  133SOL     OW  397   0.282   1.321   0.235  0.1739  0.4243  0.1320
  133SOL    HW1  398   0.290   1.407   0.185 -2.0905 -1.4259  1.5001
  133SOL    HW2  399   0.332   1.334   0.324 -0.6203  0.7180  0.4711
  134SOL     OW  400   2.641   1.066   0.149  0.0339  0.1574 -0.2311
  134SOL    HW1  401   2.705   1.026   0.074  2.0469  0.1982  2.5922
  134SOL    HW2  402   2.647   1.165   0.154 -1.7355 -0.7790  1.6362
  135SOL     OW  403   1.622   0.551   0.125  0.2078 -0.6147  0.2403
  135SOL    HW1  404   1.655   0.570   0.027  1.3181  0.0717 -1.5039
  135SOL    HW2  405   1.626   0.455   0.142 -3.2415  2.0793 -3.0995
  136SOL     OW  406   1.987   1.742   1.661  0.4784  0.3019  0.2108
  136SOL    HW1  407   2.031   1.742   1.569 -0.8254 -0.2984 -1.8909
  136SOL    HW2  408   2.010   1.661   1.721 -2.3681 -0.7184 -1.3414
  137SOL     OW  409   2.369   2.328   0.901  0.1557  0.1190  0.5274
  137SOL    HW1  410   2.332   2.408   0.942 -1.9259 -3.0654  0.3166
  137SOL    HW2  411   2.298   2.254   0.904 -0.2804 -1.3337  1.1131
  138SOL     OW  412   2.269   0.571   1.670 -0.4338 -0.7907 -0.2698
  138SOL    HW1  413   2.290   0.667   1.694  0.3720  2.0418  0.8474
  138SOL    HW2  414   2.213   0.568   1.586  0.2367 -0.8719 -0.1067
  139SOL     OW  415   2.412   2.854   2.700  0.0036 -0.3924  0.3132
  139SOL    HW1  416   2.310   2.855   2.724 -1.6310  1.4310  1.5840
  139SOL    HW2  417   2.464   2.925   2.749 -1.8803 -2.1455  0.3612
  140SOL     OW  418   1.371   1.947   2.466 -0.1903  0.2366 -0.2758
  140SOL    HW1  419   1.407   1.942   2.375 -3.1971 -0.8767  1.5081
  140SOL    HW2  420   1.286   1.890   2.475 -0.1688  0.2681 -1.6580
  141SOL     OW  421   0.915   0.842   2.471  0.1003  0.4798 -0.4327
  141SOL    HW1  422   0.827   0.853   2.532 -1.5262  1.8067  3.5034
  141SOL    HW2  423   1.000   0.821   2.522 -0.5507 -1.9351 -3.2793
  142SOL     OW  424   2.521   2.552   2.245  0.0556  0.2055 -0.2715
  142SOL    HW1  425   2.519   2.652   2.236 -0.4927 -1.2972  0.7976
  142SOL    HW2  426   2.449   2.517   2.186  0.2255  3.5323  1.2521
  143SOL     OW  427   1.126   2.355   0.304 -0.2998  0.5796 -0.2317
  143SOL    HW1  428   1.171   2.444   0.318 -0.4322  2.9674  0.4257
  143SOL    HW2  429   1.055   2.343   0.373  1.5956 -0.4425 -1.4789
  144SOL     OW  430   0.970   2.585   0.632  0.6628 -0.0195 -0.5511
  144SOL    HW1  431   1.015   2.674   0.610  2.5167 -1.9168 -1.0725
  144SOL    HW2  432   0.867   2.586   0.621 -1.4637 -0.9099  1.6255
  145SOL     OW  433   1.599   2.549   2.306  0.0585 -0.1323  0.6828
  145SOL    HW1  434   1.638   2.485   2.377 -2.1607  2.0340 -2.5417
  145SOL    HW2  435   1.554   2.631   2.341 -0.2991 -3.0463 -0.2287
  146SOL     OW  436   2.129   2.997   0.024 -0.4377  0.4416  0.5928
  146SOL    HW1  437   2.177   0.006   0.023 -0.6530  1.1427  0.2295
  146SOL    HW2  438   2.042   2.996   3.054  1.8512 -1.4169  1.7683
  147SOL     OW  439   0.007   1.599   1.187 -0.0972 -0.3188 -1.0546
  147SOL    HW1  440   0.016   1.577   1.083 -1.4946 -0.9832 -1.4794
  147SOL    HW2  441   2.999   1.585   1.222  0.7060  0.6871 -0.5065
  148SOL     OW  442   1.915   2.895   0.474 -0.1183  0.0295 -0.0834
  148SOL    HW1  443   1.923   2.797   0.496 -0.1334 -3.4817 -1.0038
  148SOL    HW2  444   1.974   2.914   0.394 -3.5095 -0.3533  3.8397
  149SOL     OW  445   0.609   1.818   3.040  0.4237  0.7285  0.1445
  149SOL    HW1  446   0.691   1.762   3.068 -2.8779  0.4435  2.3661
  149SOL    HW2  447   0.606   1.848   2.944 -0.5601 -2.3083 -0.2069
  150SOL     OW  448   0.344   2.860   0.923 -0.3844 -0.1655 -0.0674
  150SOL    HW1  449   0.339   2.825   1.020  0.1008 -1.4507 -0.4411
  150SOL    HW2  450   0.317   2.960   0.918  1.4976  0.8586 -0.7851
  151SOL     OW  451   0.217   1.058   2.958  0.9789  0.1201  0.1949
  151SOL    HW1  452   0.289   1.130   2.936 -0.7091  1.4359 -0.3383
  151SOL    HW2  453   0.173   1.026   2.872  0.0909  0.5672  0.0089
  152SOL     OW  454   3.035   1.956   0.910 -0.1229 -0.2069 -0.3612
  152SOL    HW1  455   2.965   2.020   0.874  0.5564  1.4595  0.9297
  152SOL    HW2  456   3.043   1.873   0.847  2.5843  0.8480  0.2210
  153SOL     OW  457   1.720   2.303   0.799  0.1863 -0.9617 -0.2250
  153SOL    HW1  458   1.790   2.246   0.753 -0.9792  0.1302  1.6723
  153SOL    HW2  459   1.678   2.249   0.875 -1.5054 -0.5443 -2.2254
  154SOL     OW  460   0.552   2.892   1.400 -0.6625 -0.2020 -0.0698
  154SOL    HW1  461   0.532   2.986   1.432  2.2974  2.1357 -2.5243
  154SOL    HW2  462   0.639   2.888   1.346 -2.2158  2.0221  0.1350
  155SOL     OW  463   2.865   2.182   0.838 -0.4732 -0.4940  0.1551
  155SOL    HW1  464   2.958   2.221   0.822  0.4240  2.2477  0.2555
  155SOL    HW2  465   2.791   2.238   0.791 -0.7350  1.7688  0.0328
  156SOL     OW  466   2.538   2.001   3.068  0.0109  0.3581 -0.4463
  156SOL    HW1  467   2.633   2.037   3.043  0.2009 -0.4972 -2.0362
  156SOL    HW2  468   2.532   1.965   0.076  0.0155  0.7108  0.8540
  157SOL     OW  469   0.401   2.442   1.768 -0.1685 -0.6852  0.6169
  157SOL    HW1  470   0.340   2.362   1.769  0.0683 -0.2607 -0.2026
  157SOL    HW2  471   0.454   2.455   1.854  0.2373  0.9141  0.1611
  158SOL     OW  472   1.480   0.441   0.953 -0.9389 -0.1022 -0.3738
  158SOL    HW1  473   1.447   0.346   0.953  1.2885  1.3507 -1.2545
  158SOL    HW2  474   1.467   0.481   1.045  0.3715  0.6337 -1.8911
  159SOL     OW  475   1.753   0.966   0.120  0.2686 -0.2719 -0.7354
  159SOL    HW1  476   1.719   0.899   0.196 -1.0414 -0.9658  2.0638
  159SOL    HW2  477   1.688   0.962   0.042 -0.6872  0.2915 -0.9923
  160SOL     OW  478   1.236   1.909   0.440 -0.0890  0.1501  0.2954
  160SOL    HW1  479   1.256   2.003   0.407  2.2761  1.6177  1.0179
  160SOL    HW2  480   1.159   1.862   0.393  2.7755 -0.9018  1.2378
  161SOL     OW  481   2.506   2.109   2.416  0.4288 -0.7270 -0.0741
  161SOL    HW1  482   2.559   2.115   2.503  0.0001 -0.5274 -0.5612
  161SOL    HW2  483   2.573   2.109   2.336 -1.3543 -2.7855  1.0583
  162SOL     OW  484   0.174   2.281   1.349 -0.0713  0.5462 -0.4101
  162SOL    HW1  485   0.090   2.258   1.298 -0.2361 -1.0172 -3.1084
  162SOL    HW2  486   0.210   2.368   1.317  1.8679 -0.4548 -1.4215
  163SOL     OW  487   0.164   0.384   2.756 -0.0841  0.4132  0.3350
  163SOL    HW1  488   0.157   0.360   2.656  0.5313  3.7480  1.4115
  163SOL    HW2  489   0.075   0.419   2.792 -1.1848  0.3362  0.3321
  164SOL     OW  490   0.093   2.634   2.861 -0.0803  0.2202 -0.5877
  164SOL    HW1  491   0.166   2.690   2.814  2.1370  2.4739  0.7828
  164SOL    HW2  492   0.070   2.671   2.956 -0.2771  0.2328  0.4513
  165SOL     OW  493   2.846   0.855   1.481  0.0055  0.0980  0.2535
  165SOL    HW1  494   2.755   0.824   1.520  0.4860 -0.1956 -0.0105
  165SOL    HW2  495   2.877   0.800   1.401  0.7731 -1.4100  1.8828
  166SOL     OW  496   2.148   1.700   1.447  0.2688 -0.2517  0.5941
  166SOL    HW1  497   2.211   1.616   1.447  1.4753  0.8435  0.2243
  166SOL    HW2  498   2.128   1.722   1.353 -0.1441 -0.4441  4.8330
  167SOL     OW  499   0.355   0.547   2.384 -0.0032  0.0669 -0.4486
  167SOL    HW1  500   0.358   0.548   2.284 -1.2245 -1.0400  0.7371
  167SOL    HW2  501   0.292   0.615   2.424  2.8876 -2.1622 -1.9562
  168SOL     OW  502   2.178   0.172   2.085 -0.0754  0.1420 -0.0836
  168SOL    HW1  503   2.100   0.182   2.019  1.1360  0.6577 -1.1148
  168SOL    HW2  504   2.181   0.078   2.122 -0.1153  1.6140  1.9018
  169SOL     OW  505   0.539   0.969   2.983 -0.4083 -0.0670  0.3652
  169SOL    HW1  506   0.507   1.054   2.938  0.1847 -0.0025  2.8124
  169SOL    HW2  507   0.636   0.955   2.957  1.2012  1.6378  1.1022
  170SOL     OW  508   0.739   1.570   1.395 -0.1511 -0.5776  0.0976
  170SOL    HW1  509   0.794   1.485   1.397 -0.4344 -1.9414  1.6093
  170SOL    HW2  510   0.680   1.573   1.473  1.1942  0.0735 -3.0962
  171SOL     OW  511   0.973   2.664   1.350 -0.2255  0.0580 -0.3444
  171SOL    HW1  512   1.007   2.681   1.260  0.6690  0.8461  1.3773
  171SOL    HW2  513   0.990   2.568   1.371  0.4285 -0.4515  1.3350
  172SOL     OW  514   1.097   3.057   2.012  0.0928 -0.1948 -0.7694
  172SOL    HW1  515   1.051   3.033   2.099  1.5713  0.2095 -3.5178
  172SOL    HW2  516   1.147   0.059   2.019  1.3932 -3.0187 -2.5770
  173SOL     OW  517   1.111   2.377   0.930  0.2083  0.0476  0.1969
  173SOL    HW1  518   1.014   2.400   0.937  0.7090  0.5150 -0.6376
  173SOL    HW2  519   1.130   2.321   0.846  3.5936 -0.1444  0.1085
  174SOL     OW  520   2.231   3.034   0.617  0.7271 -0.1974 -0.2574
  174SOL    HW1  521   2.145   0.001   0.617 -1.3733  0.0826  0.4703
  174SOL    HW2  522   2.272   3.032   0.526 -0.5527 -0.1385  0.5043
  175SOL     OW  523   1.270   1.085   0.682  0.4821 -0.1772  0.3331
  175SOL    HW1  524   1.257   1.173   0.733 -1.1735  0.6351  1.2348
  175SOL    HW2  525   1.178   1.033   0.684 -1.3513 -3.1242  0.8859
  176SOL     OW  526   0.828   1.482   0.501 -0.3548  0.2659 -0.1254
  176SOL    HW1  527   0.884   1.535   0.572  2.0430  0.0940 -0.8756
  176SOL    HW2  528   0.879   1.398   0.469 -0.4213 -0.5100 -0.4836
  177SOL     OW  529   1.639   1.506   0.958 -0.4853  0.1733 -0.4739
  177SOL    HW1  530   1.641   1.555   0.871 -0.0731  0.0538 -0.7499
  177SOL    HW2  531   1.711   1.435   0.955  1.3416 -1.4777 -1.8055
  178SOL     OW  532   2.149   1.674   0.044 -0.2427  0.1385 -0.2490
  178SOL    HW1  533   2.209   1.755   0.002  1.1769  2.3835 -2.1245
  178SOL    HW2  534   2.210   1.618   0.105 -2.9559 -2.6810 -0.1821
  179SOL     OW  535   1.445   2.834   3.047 -0.0042 -0.2327  0.3521
  179SOL    HW1  536   1.427   2.745   0.009 -1.6861  0.3767  0.0586
  179SOL    HW2  537   1.360   2.886   3.033  1.4767 -1.3266  0.1436
  180SOL     OW  538   2.073   1.289   1.587 -0.3669  0.1785  0.5937
  180SOL    HW1  539   2.096   1.302   1.685 -0.6485  0.4400 -1.3675
  180SOL    HW2  540   2.125   1.350   1.527  0.2142  0.5914  2.7252
  181SOL     OW  541   0.999   0.688   1.764  0.1417 -0.6110  0.3944
  181SOL    HW1  542   1.043   0.615   1.815  0.5580 -0.2619 -0.8885
  181SOL    HW2  543   0.914   0.704   1.816  2.2986  1.1240  0.4791
  182SOL     OW  544   0.133   1.078   2.415 -0.0721 -0.1914  0.2457
  182SOL    HW1  545   0.067   1.151   2.446  0.8354  1.9923 -2.4335
  182SOL    HW2  546   0.172   1.100   2.325  3.2899  1.7197  0.4784
  183SOL     OW  547   1.476   0.584   2.275 -0.3121  0.3229 -0.3924
  183SOL    HW1  548   1.577   0.573   2.278 -1.6279  1.1931  1.4059
  183SOL    HW2  549   1.434   0.525   2.347  2.2589  1.0156  1.1014
  184SOL     OW  550   0.492   0.388   1.198 -0.5183  0.2579  0.7376
  184SOL    HW1  551   0.546   0.450   1.252 -2.5635 -3.1661 -1.9115
  184SOL    HW2  552   0.456   0.326   1.269  0.4503 -0.6139 -2.1540
  185SOL     OW  553   2.271   1.346   0.678  0.1869 -0.1665 -0.3602
  185SOL    HW1  554   2.362   1.377   0.714 -0.3407 -1.1411  1.6611
  185SOL    HW2  555   2.253   1.396   0.592 -0.5642 -0.7732  1.6472
  186SOL     OW  556   0.335   1.992   0.332 -0.3031  0.2203  0.6392
  186SOL    HW1  557   0.348   1.929   0.256  2.5969 -1.8346 -3.0978
  186SOL    HW2  558   0.233   1.985   0.356 -1.1818  0.1762 -1.3585
  187SOL     OW  559   2.039   2.213   2.995 -0.0387  0.1676 -0.2064
  187SOL    HW1  560   2.056   2.115   3.020  0.7999  1.4252  4.5463
  187SOL    HW2  561   2.080   2.238   2.907 -0.4855 -0.4868  3.5896
  188SOL     OW  562   1.428   2.063   1.545  0.1316  0.1665 -0.6903
  188SOL    HW1  563   1.453   1.996   1.471  1.5627 -0.1152 -2.6016
  188SOL    HW2  564   1.337   2.096   1.527  1.5479  0.6438  3.7514
  189SOL     OW  565   2.268   1.381   2.404 -0.3362 -0.0334  0.1494
  189SOL    HW1  566   2.207   1.304   2.381 -0.8294 -0.0632  2.7818
  189SOL    HW2  567   2.216   1.461   2.444  1.4025  0.0976  0.9937
  190SOL     OW  568   0.811   2.527   2.163  0.0859 -0.1769  0.1183
  190SOL    HW1  569   0.908   2.528   2.200 -3.4970 -1.1032  0.0102
  190SOL    HW2  570   0.750   2.599   2.202  1.3557 -0.6030 -1.3026
  191SOL     OW  571   2.660   1.105   1.270 -0.0402 -0.5699  0.3862
  191SOL    HW1  572   2.634   1.085   1.368  2.8568 -1.3027  1.9634
  191SOL    HW2  573   2.650   1.025   1.211 -0.3821 -4.4776 -1.2119
  192SOL     OW  574   2.677   0.546   1.684 -0.0338 -0.1392 -0.7616
  192SOL    HW1  575   2.608   0.482   1.729 -1.0595 -1.6230  1.0279
  192SOL    HW2  576   2.769   0.534   1.730  1.5285 -1.4391 -0.6428
  193SOL     OW  577   1.044   0.356   0.076 -0.4131 -0.1481 -0.1875
  193SOL    HW1  578   1.070   0.259   0.096 -0.4864 -0.8928  0.7576
  193SOL    HW2  579   0.968   0.354   0.013  4.2404  0.7944  1.1837
  194SOL     OW  580   1.113   2.405   1.387 -0.1821  0.1751  0.2039
  194SOL    HW1  581   1.146   2.317   1.430 -0.3744 -0.1217  1.7816
  194SOL    HW2  582   1.165   2.425   1.303  0.8384 -1.3000  2.6879
  195SOL     OW  583   2.472   1.248   0.368  0.4673  0.0525 -0.1578
  195SOL    HW1  584   2.529   1.210   0.446  2.0347 -0.6350 -1.4754
  195SOL    HW2  585   2.376   1.212   0.377  0.3076 -1.8146  1.9606
  196SOL     OW  586   0.587   2.207   1.598 -0.1967 -0.0237 -0.1959
  196SOL    HW1  587   0.514   2.173   1.539  1.5843 -1.6959  2.9384
  196SOL    HW2  588   0.561   2.302   1.618 -1.0918 -0.2026  3.4983
  197SOL     OW  589   2.980   0.645   2.023  0.1374 -0.1686  0.3044
  197SOL    HW1  590   3.069   0.598   2.050 -0.0014 -2.0866  0.8422
  197SOL    HW2  591   2.902   0.603   2.073  1.8082  0.2462  1.0369
  198SOL     OW  592   1.735   1.181   0.367 -0.1810 -0.0251  0.2359
  198SOL    HW1  593   1.663   1.212   0.306  3.1330  1.6667 -2.4891
  198SOL    HW2  594   1.746   1.250   0.441  0.3417  2.9355 -0.0439
  199SOL     OW  595   2.455   0.360   1.644  0.2904 -0.3815 -0.2775
  199SOL    HW1  596   2.392   0.432   1.669  2.0407  1.5132 -3.4091
  199SOL    HW2  597   2.480   0.369   1.548  0.3847 -1.6884  1.3553
  200SOL     OW  598   2.267   0.153   0.011 -0.1318  0.2175  0.1004
  200SOL    HW1  599   2.363   0.160   0.042 -1.6037 -1.4200  1.6625
  200SOL    HW2  600   2.241   0.227   3.032 -0.3455  1.2143  0.5393
  201SOL     OW  601   2.741   0.165   0.950  0.3141  0.4436 -0.3289
  201SOL    HW1  602   2.774   0.167   1.049  0.2095 -0.0617  1.8027
  201SOL    HW2  603   2.642   0.192   0.947  0.0773 -1.0070  1.8949
  202SOL     OW  604   2.967   2.622   0.319 -0.1146 -0.6014 -0.0973
  202SOL    HW1  605   3.061   2.586   0.346 -2.1343  0.1922  1.0148
  202SOL    HW2  606   2.954   2.714   0.359  1.4201  1.3878  1.5108
  203SOL     OW  607   1.472   1.760   0.400  0.0473 -0.4407  0.3556
  203SOL    HW1  608   1.392   1.812   0.426  1.0034 -0.0341  0.2900
  203SOL    HW2  609   1.551   1.788   0.463 -0.0612  1.9709  1.0540
  204SOL     OW  610   0.356   1.924   2.348 -0.1313  0.2443 -1.0382
  204SOL    HW1  611   0.426   1.913   2.276 -1.8678 -1.6763  0.6180
  204SOL    HW2  612   0.274   1.869   2.329  1.6699  0.9007 -0.5753
  205SOL     OW  613   0.811   0.489   0.770  0.3223 -0.4863 -0.4915
  205SOL    HW1  614   0.770   0.561   0.832  2.9332 -1.4846  1.7777
  205SOL    HW2  615   0.908   0.512   0.747  0.8664  0.8647  0.5569
  206SOL     OW  616   0.365   0.550   2.876 -0.0286  0.1810 -0.0143
  206SOL    HW1  617   0.351   0.645   2.839 -2.1537  1.1405  5.7673
  206SOL    HW2  618   0.292   0.482   2.841 -2.5325 -1.5931  0.8173
  207SOL     OW  619   1.249   2.469   1.945  0.0406 -0.0749  0.5069
  207SOL    HW1  620   1.151   2.443   1.929 -0.9784  1.1594  0.3237
  207SOL    HW2  621   1.266   2.522   2.024 -1.5630 -0.6643 -2.1517
  208SOL     OW  622   2.889   0.074   1.609  0.2185 -0.3238 -1.0308
  208SOL    HW1  623   2.915   3.066   1.655 -1.5470 -3.5206  2.4535
  208SOL    HW2  624   2.802   0.066   1.552  0.5556  1.3030 -0.5938
  209SOL     OW  625   1.666   0.985   0.703 -0.0735 -0.1337  0.2360
  209SOL    HW1  626   1.576   0.971   0.752  1.8274  0.0598  2.4320
  209SOL    HW2  627   1.652   0.972   0.602  1.4725 -0.8359  1.1963
  210SOL     OW  628   2.694   0.888   0.332 -0.3462  0.2362  0.4742
  210SOL    HW1  629   2.630   0.909   0.406  0.9634  0.3779 -0.9182
  210SOL    HW2  630   2.687   0.971   0.265 -0.0698  0.8327 -0.1459
  211SOL     OW  631   1.324   2.993   0.286 -0.1925 -0.2504 -0.0469
  211SOL    HW1  632   1.403   3.055   0.286  0.2527  0.3274 -2.0168
  211SOL    HW2  633   1.346   2.901   0.250 -1.5497 -1.2282  2.6515
  212SOL     OW  634   1.870   2.123   0.633 -0.3710  0.5029 -0.1070
  212SOL    HW1  635   1.969   2.125   0.640 -1.8836  2.3284  0.2251
  212SOL    HW2  636   1.843   2.161   0.545  2.2106  0.1517  1.3988
  213SOL     OW  637   2.515   0.115   0.107 -0.0695 -0.2810  0.3669
  213SOL    HW1  638   2.526   0.114   0.208 -1.9408 -1.7560 -0.4737
  213SOL    HW2  639   2.603   0.118   0.064 -1.8289  2.5295  2.9143
  214SOL     OW  640   0.914   2.114   2.301  0.7000  0.5282  0.3344
  214SOL    HW1  641   0.985   2.113   2.226  0.8848  2.1725 -3.4340
  214SOL    HW2  642   0.833   2.174   2.283 -0.9900 -0.7979 -1.1339
  215SOL     OW  643   0.350   1.355   0.839 -0.7708  0.4244 -0.1298
  215SOL    HW1  644   0.291   1.379   0.916  2.2139 -1.2659 -2.2837
  215SOL    HW2  645   0.449   1.367   0.868 -0.5451  0.5061 -2.2224
  216SOL     OW  646   0.135   2.360   2.807  0.2064  0.1934  0.6390
  216SOL    HW1  647   0.225   2.354   2.760  1.2136  0.1504 -1.2879
  216SOL    HW2  648   0.129   2.447   2.855  1.1577 -0.3084 -1.4254
  217SOL     OW  649   2.903   1.244   1.261  0.0079  0.6075 -0.1143
  217SOL    HW1  650   2.961   1.180   1.212 -0.9954  2.8750  2.0882
  217SOL    HW2  651   2.805   1.223   1.255 -0.3118  1.2749  2.6150
  218SOL     OW  652   0.977   2.437   1.903 -0.7169 -0.3277  0.6401
  218SOL    HW1  653   0.969   2.530   1.870 -0.1517 -0.3901  2.4560
  218SOL    HW2  654   0.928   2.429   1.990  0.9907  0.3431 -0.2764
  219SOL     OW  655   1.905   1.588   0.392  0.0426  0.2814  0.6113
  219SOL    HW1  656   1.894   1.650   0.312 -0.2098  0.8957 -0.5639
  219SOL    HW2  657   1.932   1.641   0.476 -0.4956 -3.2447 -2.4124
  220SOL     OW  658   2.070   0.790   0.342  0.3725 -0.0710  0.1957
  220SOL    HW1  659   2.012   0.874   0.348 -1.2710 -1.2128 -0.0885
  220SOL    HW2  660   2.029   0.715   0.391  0.4299  1.2094 -2.7586
  221SOL     OW  661   2.982   0.805   0.046 -0.2135 -0.1759  0.4932
  221SOL    HW1  662   2.915   0.744   0.096 -2.7484  0.2006  0.8388
  221SOL    HW2  663   3.080   0.782   0.057 -0.5771 -0.1031  0.6275
  222SOL     OW  664   1.657   1.601   0.690 -0.1147 -0.1542 -0.1215
  222SOL    HW1  665   1.568   1.554   0.697 -2.1989 -0.9089 -0.5621
  222SOL    HW2  666   1.653   1.693   0.648 -1.1808  0.2011  1.6662
  223SOL     OW  667   1.237   3.058   2.946 -0.3623 -0.2940 -0.1798
  223SOL    HW1  668   1.283   0.013   2.864  2.5146  0.8716 -2.2364
  223SOL    HW2  669   1.199   2.962   2.924 -0.4302 -3.7525 -1.2851
  224SOL     OW  670   0.794   2.887   1.251 -0.1790  0.4370  0.3086
  224SOL    HW1  671   0.775   2.954   1.179  0.2250  0.7258  0.5637
  224SOL    HW2  672   0.891   2.900   1.278  1.8280 -0.4063 -2.6491
  225SOL     OW  673   0.687   2.727   1.984 -0.5610 -0.5088  0.1162
  225SOL    HW1  674   0.715   2.636   2.023  0.1162  0.0856 -0.2290
  225SOL    HW2  675   0.589   2.722   1.971  4.0667  2.5536  3.2243
  226SOL     OW  676   1.468   1.526   0.257  0.0402 -0.3146 -0.2550
  226SOL    HW1  677   1.495   1.598   0.326 -0.6562 -0.9830  0.3452
  226SOL    HW2  678   1.497   1.434   0.285 -0.2750  3.4087  2.5027
  227SOL     OW  679   0.440   1.727   0.826 -0.2987  0.1611  0.0383
  227SOL    HW1  680   0.495   1.788   0.884 -3.3003 -0.0790 -2.7899
  227SOL    HW2  681   0.495   1.674   0.759  1.4233  1.5874 -1.0918
  228SOL     OW  682   0.281   2.082   0.638  0.1306  0.0900  0.2597
  228SOL    HW1  683   0.367   2.085   0.686 -1.4616  1.9297 -0.5414
  228SOL    HW2  684   0.252   2.178   0.616  0.9909  2.8862  0.8822
  229SOL     OW  685   2.763   0.043   0.006 -0.0916  0.3261 -0.0142
  229SOL    HW1  686   2.696   3.062   3.049  0.3769 -5.8158 -0.0909
  229SOL    HW2  687   2.847   0.039   3.038  2.8721  1.1635 -1.4342
  230SOL     OW  688   2.333   1.000   0.484 -0.1180  0.2122  0.3828
  230SOL    HW1  689   2.271   1.066   0.433 -0.2446  0.1844 -1.7350
  230SOL    HW2  690   2.269   0.943   0.543  0.1315 -1.7484 -0.5990
  231SOL     OW  691   1.818   1.328   2.988  0.3143 -0.0799  0.3557
  231SOL    HW1  692   1.748   1.354   3.059 -3.0230 -1.8350  0.7774
  231SOL    HW2  693   1.873   1.409   2.961  0.3099  0.9664  1.8014
  232SOL     OW  694   2.406   1.888   0.943  0.1530  0.1690  0.3087
  232SOL    HW1  695   2.341   1.811   0.942 -0.9189  1.0891  1.8327
  232SOL    HW2  696   2.469   1.880   1.023  0.7928  1.1286 -0.8027
  233SOL     OW  697   0.339   2.821   1.189  0.1045 -0.3595  0.4163
  233SOL    HW1  698   0.428   2.826   1.241  0.2071 -1.2331  2.0527
  233SOL    HW2  699   0.259   2.829   1.254 -2.1029 -0.4297  4.2244
  234SOL     OW  700   0.812   0.112   2.490  0.4197  0.6131 -0.4876
  234SOL    HW1  701   0.879   0.077   2.559 -1.1884  0.4395 -0.3232
  234SOL    HW2  702   0.732   0.051   2.491 -0.3439  0.2931  1.5892
  235SOL     OW  703   2.878   1.063   2.129 -0.4146  0.0187  0.1259
  235SOL    HW1  704   2.844   1.159   2.105  0.5566  0.2824  1.8043
  235SOL    HW2  705   2.926   1.023   2.045 -0.3000  0.9942 -1.6394
  236SOL     OW  706   1.165   2.832   1.881  0.4329 -0.0887  0.5870
  236SOL    HW1  707   1.148   2.927   1.916 -2.2001 -1.3642 -4.5701
  236SOL    HW2  708   1.075   2.787   1.851 -2.0698 -1.2005 -2.7479
  237SOL     OW  709   0.571   1.314   2.674 -0.4521 -0.2358  0.1431
  237SOL    HW1  710   0.537   1.245   2.607 -0.3950  2.9946 -0.5765
  237SOL    HW2  711   0.654   1.361   2.630 -0.2847  1.8392  0.8157
  238SOL     OW  712   1.052   0.406   2.388  0.0850  0.1589  0.2094
  238SOL    HW1  713   1.065   0.495   2.339  0.5623  1.7772 -1.0944
  238SOL    HW2  714   0.964   0.403   2.442  3.4444 -0.5008 -1.6762
  239SOL     OW  715   0.332   2.108   2.081  0.1267 -0.4456  0.0156
  239SOL    HW1  716   0.410   2.057   2.045 -1.2803  1.9017 -1.0022
  239SOL    HW2  717   0.366   2.166   2.158  1.6891 -1.3471  0.9422
  240SOL     OW  718   2.544   2.915   0.513 -0.5179 -0.1359 -0.3492
  240SOL    HW1  719   2.518   2.945   0.610  0.8195  2.5364  1.8659
  240SOL    HW2  720   2.487   2.835   0.483 -1.0067 -1.6447 -2.8714
  241SOL     OW  721   0.206   0.888   0.083 -0.0568 -0.2086  0.1732
  241SOL    HW1  722   0.214   0.804   0.032 -2.8343 -0.5945  1.1575
  241SOL    HW2  723   0.210   0.960   0.012  0.8669 -0.6840  1.5581
  242SOL     OW  724   1.700   2.614   1.712 -0.3005 -0.5443  0.4978
  242SOL    HW1  725   1.745   2.535   1.663 -2.4923 -2.7800 -0.2514
  242SOL    HW2  726   1.610   2.589   1.744  3.3764  0.9772  0.9595
  243SOL     OW  727   0.500   2.481   2.042  0.5279 -0.5010 -0.4159
  243SOL    HW1  728   0.542   2.405   2.094  2.0783 -0.1329 -0.6198
  243SOL    HW2  729   0.401   2.493   2.058 -1.1790 -0.2267  2.2778
  244SOL     OW  730   2.311   0.539   2.450  0.0530  0.1270 -0.0574
  244SOL    HW1  731   2.255   0.473   2.394  3.5953  1.7663 -1.6023
  244SOL    HW2  732   2.338   0.623   2.395  3.0468 -1.9236 -1.4133
  245SOL     OW  733   1.444   2.970   1.161  0.2918  0.3427  0.0720
  245SOL    HW1  734   1.409   3.049   1.216  0.1700 -0.7489  0.4512
  245SOL    HW2  735   1.413   2.984   1.065 -0.3421  0.6959 -0.0690
  246SOL     OW  736   1.481   2.878   0.557 -0.1319 -0.0675  0.2075
  246SOL    HW1  737   1.559   2.873   0.498  0.3125  0.3684  0.3114
  246SOL    HW2  738   1.423   2.796   0.550  0.8708 -1.9367  0.8289
  247SOL     OW  739   1.873   0.608   1.983  0.2962 -0.2330 -0.2587
  247SOL    HW1  740   1.784   0.555   1.991 -0.1743  0.1740 -1.5388
  247SOL    HW2  741   1.898   0.620   1.885  0.1643 -1.9957 -1.0437
  248SOL     OW  742   2.985   1.962   1.754  0.0324 -0.4599  0.0408
  248SOL    HW1  743   2.967   1.991   1.849  1.8277  0.3358  0.6705
  248SOL    HW2  744   3.066   1.906   1.752 -3.8845  1.1230  2.8027
  249SOL     OW  745   3.058   0.288   0.362 -0.0362 -0.2284 -0.3752
  249SOL    HW1  746   3.055   0.338   0.453  2.5907 -1.2978 -0.1640
  249SOL    HW2  747   0.042   0.340   0.311  0.8572 -0.8695 -1.5005
  250SOL     OW  748   2.659   0.124   2.465 -0.2589 -0.1856 -0.0644
  250SOL    HW1  749   2.655   0.023   2.481  1.7828 -1.1422 -1.0555
  250SOL    HW2  750   2.590   0.151   2.394  1.8714 -0.0035  0.1967
  251SOL     OW  751   1.376   0.630   0.211 -0.0311 -0.2371  0.4119
  251SOL    HW1  752   1.305   0.568   0.164 -0.5646 -2.2153  1.3737
  251SOL    HW2  753   1.466   0.606   0.183 -2.1573  1.3517 -2.2830
  252SOL     OW  754   1.042   2.476   2.296 -0.2300  0.6562  0.0433
  252SOL    HW1  755   1.106   2.417   2.241  1.5904 -2.5755 -0.6370
  252SOL    HW2  756   1.103   2.547   2.338  0.5504  0.2331 -0.1996
  253SOL     OW  757   2.209   2.612   0.922  0.1228 -0.1694  0.5180
  253SOL    HW1  758   2.163   2.543   0.866 -1.6740 -1.4430 -0.7797
  253SOL    HW2  759   2.182   2.707   0.894 -0.5803  0.9337  0.0901
  254SOL     OW  760   2.430   1.258   1.108 -0.6225  0.3223 -0.3149
  254SOL    HW1  761   2.343   1.204   1.092 -1.1776 -2.8767 -0.7097
  254SOL    HW2  762   2.465   1.230   1.199 -0.2833 -1.6640 -0.7285
  255SOL     OW  763   0.739   2.632   1.191  0.3094  0.0779 -0.1334
  255SOL    HW1  764   0.768   2.726   1.224  0.5159 -0.3686  1.8304
  255SOL    HW2  765   0.770   2.615   1.095  1.7881  0.4721  0.0515
  256SOL     OW  766   2.225   1.959   1.545 -0.8393  0.3532 -0.4154
  256SOL    HW1  767   2.253   1.889   1.476  0.1146 -2.2455 -0.3551
  256SOL    HW2  768   2.230   1.914   1.641  0.7776 -3.1481  2.8245
  257SOL     OW  769   0.370   2.347   2.683 -0.6951  0.2573  0.4079
  257SOL    HW1  770   0.399   2.279   2.608 -1.1963  1.1186  0.9212
  257SOL    HW2  771   0.426   2.430   2.687  3.3270 -0.7184 -0.9698
  258SOL     OW  772   0.614   2.915   0.874  0.5839  0.4712  0.1655
  258SOL    HW1  773   0.513   2.895   0.868 -1.7507 -2.4870 -2.0377
  258SOL    HW2  774   0.634   2.995   0.936 -1.9799 -1.8460 -0.7420
  259SOL     OW  775   1.406   0.549   2.724 -0.5090 -0.1448  0.2259
  259SOL    HW1  776   1.403   0.460   2.770 -0.4722 -0.9919 -0.4806
  259SOL    HW2  777   1.341   0.613   2.767  0.3876 -3.3905  0.4018
  260SOL     OW  778   0.241   0.958   1.099 -0.1925 -0.3363  0.4499
  260SOL    HW1  779   0.257   1.013   1.188  0.7408  2.0303  2.0007
  260SOL    HW2  780   0.250   1.017   1.018 -0.7698 -0.3914 -0.1093
  261SOL     OW  781   0.487   0.231   2.099 -0.0171 -0.1895  0.4103
  261SOL    HW1  782   0.490   0.313   2.033 -1.3551  0.3412 -1.5963
  261SOL    HW2  783   0.566   0.232   2.163 -0.7200  0.1205  1.1906
  262SOL     OW  784   0.913   2.725   1.824  0.1305 -0.1516 -0.1212
  262SOL    HW1  785   0.895   2.699   1.725  0.1688  0.6157 -3.1913
  262SOL    HW2  786   0.826   2.741   1.880 -4.4075  1.9163  2.8244
  263SOL     OW  787   0.716   2.292   3.040 -0.6146 -0.2991 -0.3385
  263SOL    HW1  788   0.815   2.291   3.067  0.9559  3.2067  0.6808
  263SOL    HW2  789   0.659   2.277   0.034 -0.2265 -1.9657 -0.3534
  264SOL     OW  790   1.080   1.640   1.011 -0.3185  0.0601  0.3559
  264SOL    HW1  791   1.097   1.569   1.085 -1.8655 -0.6154  3.4903
  264SOL    HW2  792   0.978   1.640   0.989 -1.3145  0.9707 -0.7620
  265SOL     OW  793   1.017   2.326   0.549  0.5854 -0.0297  0.0468
  265SOL    HW1  794   1.095   2.287   0.602  0.1585  0.5730  0.3927
  265SOL    HW2  795   1.009   2.424   0.571  0.4409  0.3894 -0.7832
  266SOL     OW  796   2.602   0.945   1.016  0.1690  0.3435  0.0381
  266SOL    HW1  797   2.513   0.960   0.962  1.5812  1.0175  0.8590
  266SOL    HW2  798   2.681   0.975   0.961 -1.7646 -0.3145 -0.3280
  267SOL     OW  799   3.037   1.168   2.933 -0.9086  0.2451  0.1558
  267SOL    HW1  800   3.072   1.170   3.032  1.1475 -0.4090  0.3130
  267SOL    HW2  801   0.005   1.232   2.871  1.1140 -0.0738  0.2552
  268SOL     OW  802   1.586   0.033   0.268  0.3479 -0.3320 -0.0890
  268SOL    HW1  803   1.613   3.024   0.297 -1.7641 -0.6691 -0.4482
  268SOL    HW2  804   1.640   0.106   0.321  1.4900  0.9953  1.1235
  269SOL     OW  805   2.994   0.636   2.367 -0.3322 -0.2999  0.4455
  269SOL    HW1  806   3.053   0.682   2.294  2.3963 -0.3014 -1.1150
  269SOL    HW2  807   2.893   0.657   2.356 -0.2818  2.1373  3.7311
  270SOL     OW  808   0.060   1.177   0.097  0.2565  0.1258  0.0254
  270SOL    HW1  809   0.069   1.148   0.194 -0.5485  1.0767  0.9549
  270SOL    HW2  810   0.138   1.146   0.038  2.6458  0.7890 -1.7435
  271SOL     OW  811   2.915   1.626   2.474  0.0150  0.1237 -0.5126
  271SOL    HW1  812   2.877   1.616   2.569 -1.1851 -1.2962  0.3398
  271SOL    HW2  813   2.933   1.726   2.462 -0.8539  3.1902 -2.5187
  272SOL     OW  814   2.502   2.652   1.942 -0.6101  0.1730  0.1628
  272SOL    HW1  815   2.585   2.606   1.899  3.0944 -0.7658  1.6649
  272SOL    HW2  816   2.439   2.588   1.992  0.6861  2.0209  1.6468
  273SOL     OW  817   0.122   2.481   0.363  0.4372 -0.3597 -0.1562
  273SOL    HW1  818   0.176   2.554   0.416  1.6728  0.5342 -3.5170
  273SOL    HW2  819   0.125   2.389   0.404  0.7831 -0.3015 -1.8828
  274SOL     OW  820   0.842   2.315   0.802  0.2771 -0.1137 -0.8368
  274SOL    HW1  821   0.877   2.281   0.713  0.4084 -0.8765  1.3666
  274SOL    HW2  822   0.806   2.241   0.856  0.0203  0.7923  0.1012
  275SOL     OW  823   1.735   1.773   2.873 -0.1614 -0.4738  0.0843
  275SOL    HW1  824   1.775   1.712   2.803 -1.0808 -0.8247  0.6006
  275SOL    HW2  825   1.698   1.862   2.843  1.5309  3.1161 -0.2571
  276SOL     OW  826   2.550   1.225   1.739  0.3172  0.2052 -0.6535
  276SOL    HW1  827   2.495   1.220   1.823 -1.9205 -0.1211  1.3373
  276SOL    HW2  828   2.647   1.239   1.764 -1.8510 -4.2726 -1.6490
  277SOL     OW  829   2.501   0.251   1.047  0.1625 -0.0404  0.0839
  277SOL    HW1  830   2.483   0.344   1.013  0.7017 -1.3050 -1.7942
  277SOL    HW2  831   2.449   0.224   1.132  0.2658 -0.3894  3.1538
  278SOL     OW  832   1.760   0.450   2.522  0.2404 -0.3656 -0.4592
  278SOL    HW1  833   1.719   0.525   2.580  0.6187  0.1967  0.6445
  278SOL    HW2  834   1.859   0.443   2.536 -2.0782  0.3236  0.6828
  279SOL     OW  835   1.003   3.017   1.008 -0.0612 -0.0083 -0.1548
  279SOL    HW1  836   1.054   3.026   1.099  0.7712 -0.8920  0.1739
  279SOL    HW2  837   0.997   0.026   0.967  0.0001  0.4582 -2.4223
  280SOL     OW  838   1.206   1.245   0.285  0.8202 -0.4287 -0.1990
  280SOL    HW1  839   1.247   1.167   0.337 -1.7830  2.1386 -0.8833
  280SOL    HW2  840   1.244   1.249   0.193 -0.9988  1.0606  2.5197
  281SOL     OW  841   2.344   1.572   0.210 -0.2824  0.0368 -0.3635
  281SOL    HW1  842   2.420   1.627   0.249 -0.9331 -1.9013  0.4680
  281SOL    HW2  843   2.383   1.479   0.183  0.9096 -2.9417  1.0805
  282SOL     OW  844   2.585   1.361   0.140 -0.6076 -0.3991 -0.0965
  282SOL    HW1  845   2.533   1.315   0.212  1.2333 -1.7752 -0.5545
  282SOL    HW2  846   2.657   1.416   0.188  2.7449 -2.3791 -0.8445
  283SOL     OW  847   1.704   2.744   2.695  0.0500  0.5861  0.4696
  283SOL    HW1  848   1.708   2.776   2.598 -1.6993  3.0405 -0.5011
  283SOL    HW2  849   1.743   2.811   2.757 -1.0658 -0.3058  0.7074
  284SOL     OW  850   0.919   0.096   2.946 -0.0758 -0.4247 -0.2995
  284SOL    HW1  851   0.893   0.195   2.953 -2.4407  2.9942 -1.0083
  284SOL    HW2  852   0.990   0.072   3.011  1.8424 -0.3152  1.9768
  285SOL     OW  853   1.994   1.866   2.737 -0.6853  0.0424 -0.2254
  285SOL    HW1  854   2.078   1.806   2.711  1.7642  1.2605  0.4227
  285SOL    HW2  855   1.948   1.897   2.651 -0.3562  0.3280 -2.4872
  286SOL     OW  856   1.449   1.695   1.029  0.0616  0.1880 -0.1004
  286SOL    HW1  857   1.397   1.662   0.949  0.2417  0.0636 -0.5174
  286SOL    HW2  858   1.539   1.649   1.036  1.2915 -1.4417  2.5611
  287SOL     OW  859   1.642   0.151   1.572  0.4328 -0.0580  0.2659
  287SOL    HW1  860   1.732   0.108   1.592 -0.9274  1.9349 -0.5018
  287SOL    HW2  861   1.567   0.102   1.618 -1.3013 -0.0368  0.6100
  288SOL     OW  862   0.618   2.676   2.278 -0.9650 -0.3581 -0.2000
  288SOL    HW1  863   0.583   2.772   2.290 -1.6314 -0.8600  1.3423
  288SOL    HW2  864   0.541   2.612   2.287 -0.8479 -1.8164  0.4399
  289SOL     OW  865   0.228   1.395   0.592  0.3705  0.0519  0.1610
  289SOL    HW1  866   0.136   1.352   0.587  1.5207  0.9817 -1.1239
  289SOL    HW2  867   0.263   1.394   0.687 -1.7110 -1.5665  1.8937
  290SOL     OW  868   1.132   1.904   1.643 -0.5944  0.3276 -0.1869
  290SOL    HW1  869   1.175   1.893   1.555  2.3762 -0.4385  2.8395
  290SOL    HW2  870   1.190   1.958   1.705  1.3065 -2.2491 -0.5054
  291SOL     OW  871   1.972   0.036   0.636 -0.1870  0.0121  0.5094
  291SOL    HW1  872   1.921   0.003   0.718  0.1967 -0.1456 -3.2104
  291SOL    HW2  873   1.949   3.057   0.558 -2.0807  1.8302  1.2499
  292SOL     OW  874   0.335   0.286   1.414  0.3911 -0.3390 -0.2678
  292SOL    HW1  875   0.253   0.236   1.379  1.3225  1.6300 -1.3233
  292SOL    HW2  876   0.312   0.385   1.433  1.1731  0.6704 -0.5419
  293SOL     OW  877   2.423   1.683   0.649 -0.0223  0.0834  0.0745
  293SOL    HW1  878   2.512   1.730   0.658 -2.7369 -0.8536 -0.4845
  293SOL    HW2  879   2.431   1.601   0.592 -0.2257  0.1974 -1.6696
  294SOL     OW  880   0.188   0.247   2.158  0.1051  0.4743  0.2935
  294SOL    HW1  881   0.167   0.192   2.240 -0.2072 -2.4944 -0.7752
  294SOL    HW2  882   0.277   0.223   2.118  1.5135  0.4046  1.0492
  295SOL     OW  883   0.974   1.242   0.408  0.4187 -0.2868 -0.2607
  295SOL    HW1  884   1.047   1.249   0.334 -1.8451 -0.6613  0.5470
  295SOL    HW2  885   0.913   1.164   0.383  0.7009  1.4604  0.9642
  296SOL     OW  886   2.128   1.737   1.169 -0.3324 -0.2725 -0.3374
  296SOL    HW1  887   2.112   1.746   1.067 -4.2043 -2.9142 -4.5957
  296SOL    HW2  888   2.050   1.672   1.207 -2.7682 -4.0130  1.1290
  297SOL     OW  889   1.745   0.576   2.955  0.2427  0.0601  0.1834
  297SOL    HW1  890   1.816   0.639   2.992  1.8809 -1.0489  1.4659
  297SOL    HW2  891   1.719   0.601   2.856 -1.2894  0.3768 -0.5023
  298SOL     OW  892   1.393   0.015   2.694  0.0621  0.4960 -0.1963
  298SOL    HW1  893   1.426   3.003   2.695  1.2025  1.4410 -1.0841
  298SOL    HW2  894   1.471   0.071   2.733  0.9436 -0.1653  3.5002
  299SOL     OW  895   0.882   0.237   2.062  0.3152  0.0330  0.5050
  299SOL    HW1  896   0.948   0.197   2.129  1.5414 -0.2117  1.4774
  299SOL    HW2  897   0.864   0.173   1.984  0.9258  0.1940  0.8294
  300SOL     OW  898   2.481   0.084   1.652 -0.1146  0.4043  0.2256
  300SOL    HW1  899   2.458   0.035   1.738 -1.2566 -4.3573  0.8705
  300SOL    HW2  900   2.478   0.186   1.651  1.3371 -0.5783  0.2373
  301SOL     OW  901   2.125   0.845   1.804  0.1467 -0.5197 -0.5374
  301SOL    HW1  902   2.200   0.843   1.737 -2.9290 -3.0800  1.7100
  301SOL    HW2  903   2.059   0.773   1.782  2.0075  1.1715 -2.1320
  302SOL     OW  904   0.669   2.879   0.098  0.2263 -0.4929  0.0500
  302SOL    HW1  905   0.639   2.973   0.103 -0.3738 -4.3612  2.1100
  302SOL    HW2  906   0.677   2.844   0.195  0.1093 -0.7349  2.2247
  303SOL     OW  907   1.857   1.905   1.829  0.3454 -0.1873  0.1123
  303SOL    HW1  908   1.888   1.827   1.770  1.4741  1.2015 -0.5981
  303SOL    HW2  909   1.765   1.944   1.821 -1.8386 -0.4437  0.2213
  304SOL     OW  910   0.276   0.349   0.847  0.1835  0.2375  0.4647
  304SOL    HW1  911   0.352   0.293   0.884 -2.8634  1.6018  0.9935
  304SOL    HW2  912   0.294   0.445   0.871 -0.6889 -2.3754  0.2222
  305SOL     OW  913   0.777   0.955   0.585 -0.3982 -0.0488  0.0862
  305SOL    HW1  914   0.768   0.984   0.487 -1.0356 -3.3478 -1.0924
  305SOL    HW2  915   0.766   0.852   0.596 -0.1635  0.5518 -1.1706
  306SOL     OW  916   0.547   1.361   3.072 -0.1047  0.0400  0.0337
  306SOL    HW1  917   0.560   1.336   0.085  3.2922  1.4322  1.5332
  306SOL    HW2  918   0.478   1.437   3.066  2.5642 -0.8241 -0.2145
  307SOL     OW  919   0.796   0.457   1.905  0.4321  0.3494 -0.5441
  307SOL    HW1  920   0.806   0.430   1.807  0.7429  0.1889  1.1904
  307SOL    HW2  921   0.825   0.386   1.972 -2.5021  0.0058  1.5143
  308SOL     OW  922   0.673   0.252   1.041 -0.3318  0.0823 -0.1678
  308SOL    HW1  923   0.602   0.307   1.087 -0.4416 -0.4308 -0.2874
  308SOL    HW2  924   0.751   0.313   1.013  1.1007  0.3959 -0.5492
  309SOL     OW  925   2.187   1.184   0.356 -0.2346 -0.2200  0.0317
  309SOL    HW1  926   2.155   1.280   0.380  2.3918  0.7415 -0.0324
  309SOL    HW2  927   2.179   1.153   0.258 -1.8057 -0.3799  1.7187
  310SOL     OW  928   1.008   1.253   0.036 -0.6154 -0.1031  0.0327
  310SOL    HW1  929   1.083   1.316   0.002 -0.6129 -1.9525  0.5659
  310SOL    HW2  930   0.954   1.309   0.102  0.8457 -0.2033 -1.9176
  311SOL     OW  931   1.949   2.564   1.982 -0.0114  0.6464  0.2874
  311SOL    HW1  932   1.963   2.483   1.922 -0.4538  0.1597 -2.1413
  311SOL    HW2  933   1.848   2.579   1.994 -1.6858 -0.8261  0.7775
  312SOL     OW  934   2.396   2.901   0.069 -0.2667  0.1453  0.0064
  312SOL    HW1  935   2.301   2.922   0.039 -0.8257  0.3309 -3.1264
  312SOL    HW2  936   2.430   2.977   0.131 -1.4332  1.9475 -0.1537
  313SOL     OW  937   0.616   0.474   2.935  0.2506 -0.4058  0.0249
  313SOL    HW1  938   0.653   0.546   2.997 -0.7299  1.9396 -0.6587
  313SOL    HW2  939   0.512   0.478   2.929  0.3624 -0.0337  1.3857
  314SOL     OW  940   2.668   1.391   2.726 -0.4284 -0.3153 -0.0739
  314SOL    HW1  941   2.612   1.389   2.814 -1.9443 -0.3128  1.1590
  314SOL    HW2  942   2.731   1.470   2.715  0.6868 -2.4563  0.5767
  315SOL     OW  943   1.701   0.797   2.048 -0.5177  0.2553 -0.0440
  315SOL    HW1  944   1.760   0.718   2.017 -0.1595  0.2432 -0.5562
  315SOL    HW2  945   1.701   0.812   2.147 -0.1980  0.4507 -2.9848
  316SOL     OW  946   2.842   1.109   0.478 -0.3829  0.0532 -0.3534
  316SOL    HW1  947   2.858   1.020   0.439 -1.7886  1.2192  1.5651
  316SOL    HW2  948   2.768   1.106   0.551 -1.5398  1.6178 -0.0840
  317SOL     OW  949   0.567   0.047   0.173  0.0382 -0.0221  0.1085
  317SOL    HW1  950   0.505   0.108   0.117 -1.5688  0.0221  0.1768
  317SOL    HW2  951   0.628   0.099   0.235  0.9503  1.1910  1.2032
  318SOL     OW  952   1.738   2.640   1.034  0.3374 -0.0654 -0.0493
  318SOL    HW1  953   1.775   2.599   1.120 -2.0296 -0.2289 -1.5873
  318SOL    HW2  954   1.792   2.607   0.956 -0.8090 -3.6322 -0.3405
  319SOL     OW  955   1.220   1.512   0.371  0.4249  0.3360  0.1055
  319SOL    HW1  956   1.203   1.417   0.336 -0.9303  1.1613 -0.8334
  319SOL    HW2  957   1.317   1.537   0.348  1.2402  1.2026  1.2916
  320SOL     OW  958   0.695   2.125   1.120 -0.3030 -0.4395  0.1720
  320SOL    HW1  959   0.652   2.212   1.087 -0.2186  1.1559  1.6853
  320SOL    HW2  960   0.689   2.124   1.224  0.7396 -1.0368  0.5413
  321SOL     OW  961   2.335   2.462   2.051 -0.4815 -0.1509 -0.5538
  321SOL    HW1  962   2.290   2.377   2.014  1.5203  0.1885  0.3887
  321SOL    HW2  963   2.265   2.530   2.050 -2.2427  0.2115  1.7571
  322SOL     OW  964   2.256   2.215   2.321  0.6807 -0.1063  0.1233
  322SOL    HW1  965   2.345   2.188   2.356 -2.5979 -0.0502 -2.1146
  322SOL    HW2  966   2.238   2.313   2.347 -0.1161  1.8258  2.7002
  323SOL     OW  967   2.399   0.906   0.848  0.0677  0.2445  0.1359
  323SOL    HW1  968   2.306   0.915   0.811  0.6753 -0.5000  1.4964
  323SOL    HW2  969   2.459   0.836   0.795  3.5787 -0.4355 -0.9607
  324SOL     OW  970   2.161   2.234   2.034  0.3034  0.0646  0.5262
  324SOL    HW1  971   2.151   2.246   2.134 -0.1996 -0.1998 -1.3442
  324SOL    HW2  972   2.230   2.158   2.015  0.8634 -0.8983  2.7642
  325SOL     OW  973   1.356   0.464   2.480  0.0482 -0.3126  0.6307
  325SOL    HW1  974   1.267   0.429   2.445  2.7084 -2.7625  0.2901
  325SOL    HW2  975   1.359   0.482   2.576  1.0958 -0.0851 -0.7619
  326SOL     OW  976   2.566   2.363   1.149 -0.0959 -0.3775 -0.4517
  326SOL    HW1  977   2.580   2.463   1.132 -1.1775 -0.0529 -0.2082
  326SOL    HW2  978   2.526   2.320   1.066 -0.9395  0.9280  3.1669
  327SOL     OW  979   2.626   2.878   0.247  0.1633 -0.1279  0.3961
  327SOL    HW1  980   2.541   2.858   0.196 -1.6282  0.0354 -2.1218
  327SOL    HW2  981   2.607   2.916   0.341 -0.8765  1.1908 -1.9733
  328SOL     OW  982   0.683   0.681   0.604 -0.6386  0.2179  0.3269
  328SOL    HW1  983   0.733   0.617   0.666  2.4814 -1.1210 -3.0892
  328SOL    HW2  984   0.586   0.695   0.630  1.0687 -0.1100  1.5457
  329SOL     OW  985   1.945   0.691   1.279  0.2085  0.1257  0.0118
  329SOL    HW1  986   1.960   0.769   1.211  0.0923  2.5509 -3.4946
  329SOL    HW2  987   2.030   0.637   1.292  1.1644  1.0504  1.8888
  330SOL     OW  988   0.790   0.689   0.342 -0.2598 -0.5855 -0.1856
  330SOL    HW1  989   0.885   0.722   0.362  0.2308 -3.6112  1.2889
  330SOL    HW2  990   0.737   0.682   0.428  0.9155  2.7931 -2.0430
  331SOL     OW  991   0.632   1.711   1.829  0.1961 -0.2473  0.2505
  331SOL    HW1  992   0.711   1.663   1.869 -0.8808  1.8942  0.2935
  331SOL    HW2  993   0.664   1.751   1.743 -0.0754 -0.8024  1.3191
  332SOL     OW  994   1.970   2.330   1.857  0.1966  0.4037  0.4424
  332SOL    HW1  995   2.036   2.282   1.917 -2.7741 -0.6821 -0.8948
  332SOL    HW2  996   2.009   2.323   1.763  3.4654  1.4877  0.7344
  333SOL     OW  997   3.000   0.094   1.091 -0.1036  0.4036 -0.1953
  333SOL    HW1  998   2.939   0.122   1.168  2.3994 -0.0231 -1.3494
  333SOL    HW2  999   2.974   0.003   1.054 -2.0457  2.2300 -0.9820
  334SOL     OW 1000   3.061   1.734   0.759  0.0892  0.0368  0.4965
  334SOL    HW1 1001   2.997   1.707   0.679 -0.8901 -0.6892 -1.9899
  334SOL    HW2 1002   0.067   1.768   0.724  2.0374 -0.7387 -0.1926
  335SOL     OW 1003   0.498   2.573   2.694  0.3093 -0.5915 -1.0051
  335SOL    HW1 1004   0.554   2.555   2.779 -0.5419 -0.4210 -0.8490
  335SOL    HW2 1005   0.427   2.643   2.721 -4.2001 -0.5511 -2.1870
  336SOL     OW 1006   0.221   2.622   2.145  0.1395 -0.3817  0.5942
  336SOL    HW1 1007   0.156   2.553   2.115 -1.5109  3.3096 -0.0004
  336SOL    HW2 1008   0.170   2.709   2.171  1.6749  1.4552  0.0054
  337SOL     OW 1009   1.262   2.075   1.868 -0.3604  0.2415  0.1037
  337SOL    HW1 1010   1.305   2.155   1.827  2.3745  0.6462 -0.6654
  337SOL    HW2 1011   1.334   2.016   1.906  0.0050 -0.2799  0.1896
  338SOL     OW 1012   1.227   0.028   2.440 -0.1556 -0.3369 -0.3924
  338SOL    HW1 1013   1.171   3.032   2.454  0.9686 -0.0387 -1.1405
  338SOL    HW2 1014   1.274   0.048   2.529  1.9304  2.3496 -1.2767
  339SOL     OW 1015   0.175   0.750   2.499  0.4199  0.4339 -0.1419
  339SOL    HW1 1016   0.140   0.764   2.400 -2.5524  1.3740  0.5367
  339SOL    HW2 1017   0.147   0.816   2.569  0.9129 -1.4292 -0.4624
  340SOL     OW 1018   2.152   0.527   1.362  0.7226 -0.2880 -0.1579
  340SOL    HW1 1019   2.231   0.565   1.314 -1.4874 -2.7821  0.1729
  340SOL    HW2 1020   2.164   0.427   1.384  0.7382  1.6413  1.9769
  341SOL     OW 1021   2.102   1.321   1.277 -0.2256  0.3320  0.1358
  341SOL    HW1 1022   2.162   1.375   1.339 -0.3851 -0.4722 -0.5796
  341SOL    HW2 1023   2.150   1.239   1.245 -2.1160  2.8286  3.8455
  342SOL     OW 1024   2.153   2.837   2.718 -0.0277 -0.0316 -0.2497
  342SOL    HW1 1025   2.060   2.865   2.755 -3.2820 -0.0004  0.1862
  342SOL    HW2 1026   2.164   2.736   2.723 -0.8791  2.0152  1.5034
  343SOL     OW 1027   2.985   2.513   1.032 -0.2029  0.8783  0.6173
  343SOL    HW1 1028   0.002   2.490   1.021  0.4239  0.1991  1.2408
  343SOL    HW2 1029   2.979   2.578   1.110  0.3918 -3.5200 -1.4961
  344SOL     OW 1030   2.245   3.070   1.075 -0.3205 -0.1245  0.2777
  344SOL    HW1 1031   2.260   0.070   1.023  0.5232 -1.7850  2.4478
  344SOL    HW2 1032   2.150   3.046   1.070  3.2560  0.7450 -1.4023
  345SOL     OW 1033   2.601   2.336   0.497 -0.1805 -0.1565 -0.1046
  345SOL    HW1 1034   2.656   2.341   0.412 -0.0602  1.4764 -2.1488
  345SOL    HW2 1035   2.577   2.428   0.536  0.1919 -1.2659 -2.1237
  346SOL     OW 1036   1.628   2.050   1.716  0.0005  0.0148 -0.4375
  346SOL    HW1 1037   1.619   2.113   1.796 -1.2403 -1.5327  1.5135
  346SOL    HW2 1038   1.552   2.062   1.649 -2.1862  2.5779  1.0941
  347SOL     OW 1039   1.275   1.813   1.402 -0.3057 -0.3846  0.2073
  347SOL    HW1 1040   1.246   1.818   1.305 -0.3263 -2.1114  0.1034
  347SOL    HW2 1041   1.374   1.825   1.409  2.3256  2.5915 -1.9480
  348SOL     OW 1042   0.594   1.862   1.558 -0.2132  0.4691  0.0010
  348SOL    HW1 1043   0.558   1.958   1.571  0.5090  1.6525  0.7542
  348SOL    HW2 1044   0.695   1.856   1.576  2.4915 -0.1041  3.5182
  349SOL     OW 1045   1.599   1.513   1.583 -0.4607  0.4062  0.4969
  349SOL    HW1 1046   1.516   1.477   1.617  1.6114 -0.7163 -0.0891
  349SOL    HW2 1047   1.618   1.604   1.628 -1.5805 -0.3493 -0.0256
  350SOL     OW 1048   2.267   2.359   0.524  0.0434  0.4946 -0.7211
  350SOL    HW1 1049   2.357   2.371   0.567 -1.3921  2.5306 -0.5986
  350SOL    HW2 1050   2.268   2.334   0.424 -0.5377  1.2447 -1.0972
  351SOL     OW 1051   0.084   2.932   1.767  0.4538  0.6567  0.0970
  351SOL    HW1 1052   0.168   2.874   1.775  0.4408  1.9601 -0.4533
  351SOL    HW2 1053   0.097   3.004   1.694 -0.4814  1.4906  0.9140
  352SOL     OW 1054   0.508   1.074   0.615 -0.4033  0.1071 -0.0809
  352SOL    HW1 1055   0.605   1.070   0.583 -1.2442  1.2922 -0.9190
  352SOL    HW2 1056   0.488   0.983   0.651  2.4134 -2.8084  1.2990
  353SOL     OW 1057   1.066   1.842   2.731 -0.3709 -0.6340 -0.8790
  353SOL    HW1 1058   1.039   1.927   2.779 -0.0097 -0.0110 -0.3965
  353SOL    HW2 1059   1.019   1.760   2.771 -3.0515  1.8992  0.5194
  354SOL     OW 1060   1.771   2.846   1.827 -0.0184  0.8241  0.3490
  354SOL    HW1 1061   1.861   2.810   1.852 -1.0464  0.8268 -0.1949
  354SOL    HW2 1062   1.725   2.771   1.780  2.3788  3.4970  0.3889
  355SOL     OW 1063   2.192   1.136   0.102 -0.0837 -0.2287 -0.1220
  355SOL    HW1 1064   2.213   1.232   0.075 -1.5449 -2.4211  1.5162
  355SOL    HW2 1065   2.100   1.116   0.061 -0.9494 -0.9810  2.6315
  356SOL     OW 1066   0.357   2.152   1.030  0.0068  0.2022 -0.0726
  356SOL    HW1 1067   0.255   2.168   1.020 -2.3828  1.4882  0.0815
  356SOL    HW2 1068   0.370   2.071   1.091 -1.8201 -4.2934  0.3070
  357SOL     OW 1069   2.906   2.925   1.725  0.4993  0.0132  0.3286
  357SOL    HW1 1070   2.869   2.838   1.688 -0.8904  0.0925 -1.0115
  357SOL    HW2 1071   3.009   2.922   1.751  1.9524  0.0510 -1.7039
  358SOL     OW 1072   2.402   1.697   1.661 -0.2291 -0.0095 -0.2567
  358SOL    HW1 1073   2.441   1.755   1.582  1.2216 -0.5125  0.4472
  358SOL    HW2 1074   2.430   1.600   1.643 -1.7922 -2.3032  4.3288
  359SOL     OW 1075   1.965   2.743   2.385  0.6976  0.0754  0.2261
  359SOL    HW1 1076   2.064   2.734   2.401 -0.0709  1.2945  0.7035
  359SOL    HW2 1077   1.928   2.654   2.344 -1.5562 -2.4974 -1.2597
  360SOL     OW 1078   0.868   2.808   0.892 -0.6785  0.0317 -0.1325
  360SOL    HW1 1079   0.769   2.830   0.893  1.0727 -2.2825 -0.2046
  360SOL    HW2 1080   0.927   2.873   0.944 -0.1114  0.5145  1.3718
  361SOL     OW 1081   1.888   0.303   0.590 -0.5785 -0.2254  0.3601
  361SOL    HW1 1082   1.927   0.217   0.620  2.0902 -0.3968  1.6069
  361SOL    HW2 1083   1.837   0.348   0.673 -3.8529  0.7360  2.3336
  362SOL     OW 1084   1.337   0.753   1.376  0.2438 -0.2285  0.2726
  362SOL    HW1 1085   1.387   0.844   1.384  0.0894 -0.1737 -2.7826
  362SOL    HW2 1086   1.238   0.766   1.384 -0.7781 -1.4541  0.8091
  363SOL     OW 1087   1.935   1.557   2.153  0.2270  0.0367  0.2650
  363SOL    HW1 1088   1.898   1.484   2.211 -0.4478  1.1216  0.1970
  363SOL    HW2 1089   2.037   1.552   2.136  3.7899 -0.8257 -1.0955
  364SOL     OW 1090   0.514   0.760   1.329 -0.0943  0.0240  0.0913
  364SOL    HW1 1091   0.496   0.774   1.229 -1.1495 -0.0337 -0.7626
  364SOL    HW2 1092   0.564   0.672   1.346 -0.6112  0.1740 -0.4514
  365SOL     OW 1093   0.477   0.267   2.452  1.2809 -0.1024  0.1796
  365SOL    HW1 1094   0.468   0.369   2.433 -0.1200  0.2255 -0.4920
  365SOL    HW2 1095   0.542   0.228   2.385  3.4671  0.4340  2.0300
  366SOL     OW 1096   2.240   1.747   2.655 -0.7172  0.3403  0.1674
  366SOL    HW1 1097   2.333   1.701   2.669 -0.0515  2.0070  2.2920
  366SOL    HW2 1098   2.257   1.843   2.627 -0.2682 -0.7599 -1.2109
  367SOL     OW 1099   2.784   2.584   2.909  0.5865  0.2537  0.2703
  367SOL    HW1 1100   2.804   2.642   2.988 -2.1085 -3.2454 -1.2278
  367SOL    HW2 1101   2.691   2.601   2.868  0.0179 -0.8822  0.3124
  368SOL     OW 1102   0.047   1.553   0.938  0.3254 -0.1930  0.1846
  368SOL    HW1 1103   0.055   1.459   0.900 -2.8873 -1.1041  0.3053
  368SOL    HW2 1104   0.027   1.624   0.870 -0.7258 -1.2140  0.3334
  369SOL     OW 1105   0.532   2.931   2.319 -0.2670  0.1772 -0.0683
  369SOL    HW1 1106   0.574   2.974   2.399 -1.9146 -1.7843 -1.2894
  369SOL    HW2 1107   0.585   2.956   2.238  2.3124 -1.7813  1.3419
  370SOL     OW 1108   3.032   0.421   0.606  0.0412 -0.3298 -0.6039
  370SOL    HW1 1109   2.983   0.496   0.556 -1.5108  1.0789 -1.2971
  370SOL    HW2 1110   2.973   0.354   0.651  0.2881  1.0452 -1.2157
  371SOL     OW 1111   1.288   2.438   1.660  0.1713  0.0601  0.2750
  371SOL    HW1 1112   1.214   2.469   1.598 -1.6405  0.4230  1.3870
  371SOL    HW2 1113   1.270   2.466   1.754  1.1619 -1.6943 -0.1462
  372SOL     OW 1114   2.778   0.344   2.351 -0.1546 -0.0242 -0.0940
  372SOL    HW1 1115   2.729   0.266   2.389  5.8106  0.7215 -0.1881
  372SOL    HW2 1116   2.861   0.357   2.406 -2.9477 -0.6787 -2.1363
  373SOL     OW 1117   0.216   2.345   0.600  0.2255  0.0827  0.1462
  373SOL    HW1 1118   0.273   2.420   0.636 -0.8803 -3.5273  2.0746
  373SOL    HW2 1119   0.129   2.338   0.652  2.1000 -0.2177 -1.2950
  374SOL     OW 1120   0.289   3.001   2.633 -0.7455 -0.0985 -0.0859
  374SOL    HW1 1121   0.351   3.071   2.675 -2.4396  0.2145  0.5047
  374SOL    HW2 1122   0.308   2.999   2.533 -0.0812 -1.0107  1.2370
  375SOL     OW 1123   0.497   0.096   2.667  0.3084  0.1015 -0.1998
  375SOL    HW1 1124   0.530   0.120   2.761 -0.7093 -2.9950 -0.5428
  375SOL    HW2 1125   0.473   0.173   2.604 -0.4448  1.5472 -1.8029
  376SOL     OW 1126   2.907   2.212   1.687  0.0097  0.0740 -0.3289
  376SOL    HW1 1127   2.936   2.116   1.698 -1.8394  0.5298  1.0515
  376SOL    HW2 1128   2.842   2.230   1.605 -4.1478 -0.3207 -1.0100
  377SOL     OW 1129   1.426   2.807   2.752  0.2989 -0.4620 -0.1991
  377SOL    HW1 1130   1.443   2.819   2.855  0.2534  0.6886  0.7371
  377SOL    HW2 1131   1.512   2.767   2.712 -1.0804  0.6443  0.5121
  378SOL     OW 1132   2.962   0.253   2.724 -0.5659 -0.4252  0.2089
  378SOL    HW1 1133   2.976   0.325   2.645  0.0149  3.4156 -0.1833
  378SOL    HW2 1134   3.019   0.170   2.711  0.6682 -0.5131 -0.2141
  379SOL     OW 1135   0.575   0.918   0.168 -0.1386 -0.3758 -0.1177
  379SOL    HW1 1136   0.546   0.949   0.075 -1.3675 -0.1872  0.3005
  379SOL    HW2 1137   0.496   0.914   0.233  1.9923  0.7622  1.5294
  380SOL     OW 1138   0.424   1.558   1.846  0.1196  0.2178 -0.2339
  380SOL    HW1 1139   0.502   1.627   1.837  3.5139  0.9668 -3.7030
  380SOL    HW2 1140   0.461   1.463   1.854  2.2554 -0.7514  1.5915
  381SOL     OW 1141   0.220   1.159   2.156 -0.4105  0.1084  0.0349
  381SOL    HW1 1142   0.297   1.093   2.129  2.4945 -1.3584 -0.2615
  381SOL    HW2 1143   0.204   1.221   2.079 -0.2721 -0.0453  2.5064
  382SOL     OW 1144   2.243   1.998   0.306  0.3410  0.1655  0.4141
  382SOL    HW1 1145   2.328   1.959   0.274  1.6297 -0.8911 -1.4893
  382SOL    HW2 1146   2.217   1.960   0.396 -2.2201  0.1878  0.6580
  383SOL     OW 1147   0.354   1.862   0.101  0.4916 -0.2738  0.4905
  383SOL    HW1 1148   0.259   1.828   0.070  1.3200 -0.5124 -1.0407
  383SOL    HW2 1149   0.427   1.823   0.046 -1.4211 -0.3067  0.3871
  384SOL     OW 1150   0.713   2.054   2.512  0.2492  0.3451  0.0824
  384SOL    HW1 1151   0.773   1.974   2.496  2.0930 -0.9125 -0.3098
  384SOL    HW2 1152   0.772   2.140   2.506  0.9256  2.6837 -3.7072
  385SOL     OW 1153   2.220   1.890   0.554 -0.1501 -0.2107  0.4427
  385SOL    HW1 1154   2.295   1.830   0.587 -0.1706 -1.2313 -1.3468
  385SOL    HW2 1155   2.208   1.970   0.611  0.5165 -0.9308 -0.2713
  386SOL     OW 1156   2.306   0.960   1.374  0.0840 -0.0593 -0.2347
  386SOL    HW1 1157   2.299   0.913   1.289 -0.3621  2.9540  1.7387
  386SOL    HW2 1158   2.399   0.989   1.394 -2.0482 -1.9819  1.2983
  387SOL     OW 1159   2.790   1.326   2.122 -0.2180 -0.0035  0.1654
  387SOL    HW1 1160   2.742   1.413   2.105 -1.2208  3.1182 -0.5222
  387SOL    HW2 1161   2.875   1.341   2.183 -2.7872 -0.7497 -0.4390
  388SOL     OW 1162   0.597   1.496   2.229  0.0178 -0.4091 -0.4615
  388SOL    HW1 1163   0.622   1.588   2.191  1.3855 -0.3811 -1.6693
  388SOL    HW2 1164   0.495   1.484   2.237  1.1495 -1.4252  1.6960
  389SOL     OW 1165   0.922   0.903   2.058 -0.4738  0.1836  0.1534
  389SOL    HW1 1166   0.866   0.822   2.029  0.0042  0.1290  2.2723
  389SOL    HW2 1167   0.973   0.935   1.978 -1.1725  1.1351  2.6396
  390SOL     OW 1168   2.467   2.991   0.763  0.8834  0.7271  0.2969
  390SOL    HW1 1169   2.378   3.023   0.718 -3.3653  0.6378 -0.3474
  390SOL    HW2 1170   2.435   2.938   0.845  0.4312  0.1194 -0.3609
  391SOL     OW 1171   1.910   1.555   1.259  0.2938 -0.0931 -0.1531
  391SOL    HW1 1172   1.930   1.473   1.314 -1.0747  1.4439  0.6652
  391SOL    HW2 1173   1.868   1.525   1.173  0.2030  2.7542 -0.4429
  392SOL     OW 1174   2.778   2.667   0.106  0.6054 -0.0874  0.2400
  392SOL    HW1 1175   2.721   2.750   0.133  0.7077  1.4986  1.5427
  392SOL    HW2 1176   2.858   2.653   0.165  2.0005  1.8495  2.6536
  393SOL     OW 1177   1.788   2.300   2.925  0.0236  0.1443 -0.2153
  393SOL    HW1 1178   1.815   2.385   2.875  0.5780  2.0911 -1.3794
  393SOL    HW2 1179   1.868   2.239   2.942 -1.4307 -0.3569 -1.0422
  394SOL     OW 1180   2.949   2.504   2.455 -0.3550 -0.1540  0.3208
  394SOL    HW1 1181   2.945   2.560   2.538 -0.9461  1.5289  2.0597
  394SOL    HW2 1182   3.039   2.453   2.444  0.2136 -1.4387 -0.7853
  395SOL     OW 1183   0.203   0.301   0.586 -0.3356  0.4554 -0.3034
  395SOL    HW1 1184   0.112   0.344   0.582  1.4506 -3.1352 -0.7576
  395SOL    HW2 1185   0.249   0.309   0.680  0.7686  0.4127  2.0258
  396SOL     OW 1186   1.914   0.584   0.485 -0.2762  0.4203 -0.1639
  396SOL    HW1 1187   1.859   0.626   0.560 -0.2209 -2.2650  0.4084
  396SOL    HW2 1188   1.923   0.486   0.496 -1.0408 -0.4227  0.5468
  397SOL     OW 1189   0.363   0.554   2.126 -0.5601 -0.0129 -0.2203
  397SOL    HW1 1190   0.431   0.521   2.053  2.0012 -0.1314 -4.7759
  397SOL    HW2 1191   0.268   0.543   2.086 -1.0992 -0.5762  1.7569
  398SOL     OW 1192   1.059   3.033   0.346 -0.6002  0.4710  0.0737
  398SOL    HW1 1193   1.156   3.045   0.312  3.3090  0.8864 -1.4604
  398SOL    HW2 1194   1.055   3.057   0.446 -0.0564  0.6193  0.0385
  399SOL     OW 1195   2.225   0.468   1.942  0.1552 -0.0208  0.3074
  399SOL    HW1 1196   2.259   0.547   1.889  1.4578  0.7763 -1.3171
  399SOL    HW2 1197   2.199   0.504   2.034  0.9574 -1.2354 -2.7950
  400SOL     OW 1198   0.988   2.160   2.701  0.0986  0.4026 -0.9953
  400SOL    HW1 1199   0.906   2.109   2.744  0.4895 -1.9926  0.1689
  400SOL    HW2 1200   0.955   2.221   2.623 -1.4305  1.4963  0.4438
  401SOL     OW 1201   0.666   0.884   2.576 -0.3682  0.4396 -0.5482
  401SOL    HW1 1202   0.633   0.795   2.615  3.3001 -1.4590  2.3123
  401SOL    HW2 1203   0.620   0.905   2.490  0.0246 -1.5588  0.6776
  402SOL     OW 1204   0.249   2.652   0.559  0.0836  0.3468 -0.1904
  402SOL    HW1 1205   0.345   2.635   0.529 -3.2944  1.7183 -1.2044
  402SOL    HW2 1206   0.233   2.639   0.659  1.0434  0.6073  0.3391
  403SOL     OW 1207   0.210   1.273   1.917 -0.0065  0.2193  0.1881
  403SOL    HW1 1208   0.312   1.264   1.899 -0.2546 -0.4651  0.5037
  403SOL    HW2 1209   0.158   1.217   1.850  1.1725  4.1718  0.8933
  404SOL     OW 1210   2.682   2.367   2.373  0.2010 -0.7454  0.1619
  404SOL    HW1 1211   2.613   2.430   2.334 -1.8375  0.0549 -0.2114
  404SOL    HW2 1212   2.764   2.416   2.418  1.3832  0.2613  0.8947
  405SOL     OW 1213   0.128   0.338   1.799 -0.4734 -0.0798  0.2956
  405SOL    HW1 1214   0.200   0.266   1.784  2.4575 -0.7517 -0.3396
  405SOL    HW2 1215   0.047   0.310   1.751 -0.4344 -2.7159  0.1328
  406SOL     OW 1216   1.381   1.400   2.627 -0.0818  0.2187 -0.1079
  406SOL    HW1 1217   1.412   1.468   2.694 -0.3667  0.2742 -0.7213
  406SOL    HW2 1218   1.303   1.444   2.576  1.0232  0.6192  0.9281
  407SOL     OW 1219   1.563   0.897   2.591  0.5326 -0.2783 -0.2056
  407SOL    HW1 1220   1.530   0.973   2.654  1.1132 -0.1479  1.5462
  407SOL    HW2 1221   1.658   0.912   2.561  2.9544  0.5062 -0.8054
  408SOL     OW 1222   0.268   2.958   2.352  0.3097 -0.7699  0.0958
  408SOL    HW1 1223   0.367   2.947   2.336 -1.9599  1.1282  1.1564
  408SOL    HW2 1224   0.204   2.903   2.294 -2.6176  2.8422  0.8959
  409SOL     OW 1225   0.093   2.183   1.019  0.2012  0.3878  0.4583
  409SOL    HW1 1226   0.070   2.104   0.960 -0.6210  2.2310 -1.4823
  409SOL    HW2 1227   0.048   2.174   1.109  0.7469 -0.3286 -1.2173
  410SOL     OW 1228   2.585   1.660   0.298  0.1156  0.3453 -0.4759
  410SOL    HW1 1229   2.601   1.620   0.389  0.3357  1.9520  1.8887
  410SOL    HW2 1230   2.646   1.615   0.228  1.4050 -0.1305  3.0864
  411SOL     OW 1231   2.813   0.182   1.234 -0.1174  0.3340  0.5848
  411SOL    HW1 1232   2.789   0.141   1.321  0.8427  1.7236  1.4971
  411SOL    HW2 1233   2.758   0.264   1.221  1.0088  1.2858 -1.5079
  412SOL     OW 1234   1.954   0.405   1.598 -0.0048 -0.0366  0.3918
  412SOL    HW1 1235   1.871   0.417   1.540 -0.3408 -1.6999 -0.4390
  412SOL    HW2 1236   2.035   0.376   1.551 -1.2963 -0.5379  3.5572
  413SOL     OW 1237   0.507   0.459   1.931  0.1070 -0.2432 -0.0022
  413SOL    HW1 1238   0.488   0.444   1.830 -1.6444 -0.5575 -0.1397
  413SOL    HW2 1239   0.608   0.456   1.950 -3.5869  2.2862  0.7152
  414SOL     OW 1240   2.886   1.224   2.709 -0.1713  0.1200 -0.2563
  414SOL    HW1 1241   2.920   1.221   2.800  1.4194  0.4152 -1.2012
  414SOL    HW2 1242   2.805   1.285   2.708 -0.8826 -1.3487  2.3583
  415SOL     OW 1243   0.818   2.761   2.989 -0.1154 -0.3073  0.1740
  415SOL    HW1 1244   0.908   2.726   3.022  1.1238  1.3266  1.5510
  415SOL    HW2 1245   0.765   2.804   3.064  2.1349  0.1842 -3.7079
  416SOL     OW 1246   1.431   0.232   2.378 -0.3567 -0.0069 -0.3511
  416SOL    HW1 1247   1.364   0.159   2.348 -1.2558 -2.6365 -2.4234
  416SOL    HW2 1248   1.404   0.316   2.428  1.6431 -0.5988 -1.3656
  417SOL     OW 1249   0.235   0.649   0.606 -0.1702 -0.0065  0.1958
  417SOL    HW1 1250   0.313   0.576   0.599  1.2892 -1.6159  3.0963
  417SOL    HW2 1251   0.183   0.621   0.686  1.9246 -0.1894  0.0185
  418SOL     OW 1252   2.644   0.105   0.642 -0.4901 -0.7309  0.2639
  418SOL    HW1 1253   2.590   0.039   0.696  0.0965  0.5544 -2.7819
  418SOL    HW2 1254   2.616   0.201   0.655 -0.4692  0.7728  0.3262
  419SOL     OW 1255   0.181   3.064   0.444  0.0087  0.2475  0.0865
  419SOL    HW1 1256   0.226   3.019   0.364 -0.0885 -0.0890  1.0040
  419SOL    HW2 1257   0.082   3.058   0.436  0.6808 -0.8747 -0.2552
  420SOL     OW 1258   0.476   1.297   1.853 -0.6332 -0.6065 -0.1739
  420SOL    HW1 1259   0.437   1.247   1.774  1.0906 -2.0099  4.7937
  420SOL    HW2 1260   0.557   1.241   1.883  0.1953 -0.4932  0.3608
  421SOL     OW 1261   1.862   2.535   0.820  0.6889  0.4517  0.7017
  421SOL    HW1 1262   1.958   2.505   0.808  2.2000 -0.2527  0.5389
  421SOL    HW2 1263   1.804   2.453   0.790 -2.9468 -2.7980 -1.8429
  422SOL     OW 1264   0.260   0.549   1.430 -0.0712  0.1117 -0.4292
  422SOL    HW1 1265   0.225   0.622   1.367 -4.3037  0.8462 -0.4799
  422SOL    HW2 1266   0.320   0.592   1.502  2.1383  1.6134 -0.3632
  423SOL     OW 1267   0.665   1.478   1.656  0.0419 -0.0919  0.2326
  423SOL    HW1 1268   0.571   1.513   1.644  2.3761 -0.8908 -1.0637
  423SOL    HW2 1269   0.671   1.422   1.744 -1.0330 -0.9003  1.4565
  424SOL     OW 1270   1.812   2.265   0.377 -0.1305 -0.0810 -0.5466
  424SOL    HW1 1271   1.881   2.315   0.322  0.8017  0.5807 -0.2469
  424SOL    HW2 1272   1.740   2.211   0.323  0.3721 -0.9344 -0.1876
  425SOL     OW 1273   2.707   3.065   1.873  0.1567 -0.1873 -0.4665
  425SOL    HW1 1274   2.761   0.016   1.954  2.1090  1.9899 -0.8621
  425SOL    HW2 1275   2.770   3.006   1.817 -1.2378  1.4001  0.0694
  426SOL     OW 1276   2.975   2.668   2.686 -0.6078  0.1981  0.3244
  426SOL    HW1 1277   3.064   2.661   2.742  2.2145 -0.0230  1.4482
  426SOL    HW2 1278   2.901   2.633   2.738  2.8969  3.3983 -2.5426
  427SOL     OW 1279   1.248   0.503   0.012  0.0890  0.2986 -0.3734
  427SOL    HW1 1280   1.158   0.454   0.039  1.7106 -1.9377  2.0068
  427SOL    HW2 1281   1.307   0.450   3.032 -1.9674 -1.5517 -1.6680
  428SOL     OW 1282   2.887   0.684   1.239  0.3666 -0.1299 -0.0543
  428SOL    HW1 1283   2.949   0.607   1.222 -0.2752  3.1960  2.5897
  428SOL    HW2 1284   2.796   0.675   1.187 -1.0420 -0.7607  0.8919
  429SOL     OW 1285   1.971   3.006   1.124  0.3705 -0.4351  0.0239
  429SOL    HW1 1286   1.890   2.958   1.081  1.0690 -2.0142 -1.5081
  429SOL    HW2 1287   2.008   2.954   1.200 -1.7911  1.7883 -3.5155
  430SOL     OW 1288   0.968   1.258   2.603  0.0160  0.1729 -0.2244
  430SOL    HW1 1289   0.997   1.320   2.679 -1.6781 -0.2848 -1.0697
  430SOL    HW2 1290   0.900   1.313   2.546 -1.7581  0.6608 -0.7621
  431SOL     OW 1291   2.645   1.652   1.088  0.1256 -0.3783 -0.4397
  431SOL    HW1 1292   2.558   1.599   1.104 -0.4441  0.7109  0.9306
  431SOL    HW2 1293   2.631   1.748   1.121 -0.0119 -0.2773  0.3588
  432SOL     OW 1294   1.256   2.659   2.372  0.0817  0.2490 -0.2451
  432SOL    HW1 1295   1.207   2.692   2.288  1.7591  1.1092 -0.9436
  432SOL    HW2 1296   1.350   2.702   2.368 -1.3288 -1.6053  1.2292
  433SOL     OW 1297   1.748   0.545   2.276 -0.0306  0.2512 -0.2730
  433SOL    HW1 1298   1.744   0.508   2.374  0.1424 -2.4627  4.5862
  433SOL    HW2 1299   1.841   0.530   2.240 -1.6722 -0.2066 -1.2438
  434SOL     OW 1300   0.443   2.297   2.291  0.2492  0.3189  0.1710
  434SOL    HW1 1301   0.414   2.393   2.314  4.2262 -2.4630 -0.4985
  434SOL    HW2 1302   0.455   2.244   2.377  0.1540  0.2643 -0.2749
  435SOL     OW 1303   0.302   0.211   0.364 -0.1194 -0.2793  0.0038
  435SOL    HW1 1304   0.276   0.116   0.387 -0.1403  1.8492 -3.2528
  435SOL    HW2 1305   0.270   0.271   0.442 -0.3426 -0.0947 -0.4055
  436SOL     OW 1306   0.548   0.766   2.124 -0.2096  0.4762  0.3203
  436SOL    HW1 1307   0.636   0.730   2.160  0.2567 -1.1096 -2.9278
  436SOL    HW2 1308   0.472   0.694   2.133 -1.0053  0.0789  1.5193
  437SOL     OW 1309   0.721   2.634   2.536 -0.6442  0.3212 -0.4806
  437SOL    HW1 1310   0.701   2.630   2.438  0.0610 -0.9555 -1.1788
  437SOL    HW2 1311   0.637   2.610   2.589  1.7430  1.9920  0.1873
  438SOL     OW 1312   0.957   1.176   1.077 -0.4186 -0.0501  0.0433
  438SOL    HW1 1313   1.006   1.267   1.074 -1.5262  0.4848  3.0872
  438SOL    HW2 1314   0.932   1.145   0.984 -1.0841 -0.4552  3.2936
  439SOL     OW 1315   2.677   1.580   2.342 -0.4634  0.3913  0.6417
  439SOL    HW1 1316   2.770   1.592   2.387  2.3315 -2.2289  0.3760
  439SOL    HW2 1317   2.631   1.495   2.378 -1.2808 -0.8246 -0.6150
  440SOL     OW 1318   3.051   0.553   2.843 -0.3753  0.2861  0.1677
  440SOL    HW1 1319   2.990   0.607   2.782 -2.2414 -1.0304  1.0881
  440SOL    HW2 1320   3.004   0.503   2.918  0.1442 -0.0566  0.2756
  441SOL     OW 1321   1.187   2.164   1.507 -0.0785 -0.1524 -0.0815
  441SOL    HW1 1322   1.118   2.101   1.472  1.4416  1.2955  0.7834
  441SOL    HW2 1323   1.163   2.201   1.600  1.1026 -0.6415  1.7034
  442SOL     OW 1324   1.857   1.341   0.952 -0.0662 -0.4752  0.2433
  442SOL    HW1 1325   1.836   1.287   1.033  1.9364  2.5947  1.2304
  442SOL    HW2 1326   1.876   1.280   0.877 -2.4747  0.1027  1.1816
  443SOL     OW 1327   2.458   2.164   2.848  0.4432 -0.2235 -0.5445
  443SOL    HW1 1328   2.474   2.111   2.933  0.6152  0.3042 -0.2102
  443SOL    HW2 1329   2.445   2.266   2.864  2.8637 -1.4607 -0.4811
  444SOL     OW 1330   1.994   1.530   2.945 -0.8256  0.2557 -0.1006
  444SOL    HW1 1331   2.012   1.577   2.854  2.2142 -1.9332 -2.8495
  444SOL    HW2 1332   2.011   1.595   3.023  0.2628  3.4362 -0.8771
  445SOL     OW 1333   0.067   2.428   2.052  0.3397 -0.0142  0.7171
  445SOL    HW1 1334   0.046   2.339   2.090  1.3872  0.3531 -0.5471
  445SOL    HW2 1335   0.073   2.427   1.951 -2.5618  0.0133 -1.3049
  446SOL     OW 1336   1.105   0.882   1.633 -0.3893 -0.3720 -0.2425
  446SOL    HW1 1337   1.180   0.920   1.690 -0.3771  2.7382  2.1084
  446SOL    HW2 1338   1.052   0.816   1.690  0.3161 -1.4996  0.1782
  447SOL     OW 1339   0.790   1.138   0.793 -0.3827  0.3952  0.1251
  447SOL    HW1 1340   0.790   1.080   0.714 -2.9445  0.7817  0.6843
  447SOL    HW2 1341   0.836   1.223   0.772 -0.9760 -0.7565 -1.5811
  448SOL     OW 1342   1.017   1.099   2.392 -0.2256 -0.0897 -0.4616
  448SOL    HW1 1343   0.995   1.002   2.397 -0.0067  0.9349  2.4702
  448SOL    HW2 1344   0.977   1.142   2.474 -0.0832 -0.7640 -3.2089
  449SOL     OW 1345   0.086   2.076   2.407 -0.5198 -0.3383 -0.5125
  449SOL    HW1 1346   0.094   1.973   2.413 -0.1637 -0.8827 -0.6271
  449SOL    HW2 1347   0.033   2.105   2.487 -0.1489 -0.3272  3.8591
  450SOL     OW 1348   2.193   1.583   2.058 -0.4974  0.6310 -0.2682
  450SOL    HW1 1349   2.253   1.512   2.098 -1.7462 -0.4667 -1.7794
  450SOL    HW2 1350   2.235   1.672   2.088  1.1147  2.0109 -0.0947
  451SOL     OW 1351   2.770   1.568   1.519 -0.1063 -0.9613 -0.5651
  451SOL    HW1 1352   2.758   1.666   1.550 -0.0683 -0.2631  2.6730
  451SOL    HW2 1353   2.792   1.559   1.422 -1.0851 -0.1686  2.3771
  452SOL     OW 1354   0.671   1.208   1.481 -0.1798 -0.1488  0.3755
  452SOL    HW1 1355   0.729   1.129   1.499  0.8532 -1.8661 -1.6989
  452SOL    HW2 1356   0.679   1.290   1.542 -1.1097  1.5686  0.2304
  453SOL     OW 1357   0.559   1.531   0.672  0.2544  1.0023 -0.2912
  453SOL    HW1 1358   0.590   1.473   0.594 -1.9045 -0.9437 -1.4420
  453SOL    HW2 1359   0.562   1.478   0.759 -1.3445  0.5572  0.4471
  454SOL     OW 1360   1.025   1.732   0.319  0.0446 -0.0812  0.2215
  454SOL    HW1 1361   1.022   1.739   0.222  0.5622 -1.5582  1.9343
  454SOL    HW2 1362   1.060   1.639   0.336  0.3437  1.1628  0.1318
  455SOL     OW 1363   1.473   0.557   1.212 -0.1295 -0.2727 -0.4442
  455SOL    HW1 1364   1.567   0.569   1.257 -0.1955 -0.7551 -1.4125
  455SOL    HW2 1365   1.406   0.616   1.255  0.1156 -3.9160  2.6682
  456SOL     OW 1366   1.723   2.873   1.173  0.4090  0.0423 -0.3136
  456SOL    HW1 1367   1.623   2.898   1.178 -2.4224 -1.5349 -2.3672
  456SOL    HW2 1368   1.722   2.788   1.115  0.5024 -1.2685  2.5610
  457SOL     OW 1369   1.990   0.659   2.669 -0.2753 -0.4416  0.0549
  457SOL    HW1 1370   1.892   0.637   2.682  1.1124 -0.9960 -1.2713
  457SOL    HW2 1371   2.035   0.575   2.628  2.4949 -2.5826  1.7027
  458SOL     OW 1372   2.603   0.682   2.550  1.0800  0.0251 -0.6469
  458SOL    HW1 1373   2.638   0.773   2.581 -1.1259  1.2841  2.0395
  458SOL    HW2 1374   2.557   0.634   2.630  0.1646 -2.4990  0.2829
  459SOL     OW 1375   2.643   1.556   2.069  0.2773 -0.3310 -0.3000
  459SOL    HW1 1376   2.637   1.621   1.990  0.5640  2.4855 -0.5972
  459SOL    HW2 1377   2.663   1.600   2.160 -2.4799 -1.6547  1.4635
  460SOL     OW 1378   0.706   0.683   0.009 -0.3642  0.5765  0.0012
  460SOL    HW1 1379   0.703   0.750   3.020  0.6803 -1.1491 -0.3959
  460SOL    HW2 1380   0.704   0.732   0.095 -0.2648 -0.0735 -2.3205
  461SOL     OW 1381   0.276   2.382   0.016  0.2949 -0.1543 -0.5943
  461SOL    HW1 1382   0.174   2.400   0.025 -0.5161  0.0127 -1.1034
  461SOL    HW2 1383   0.296   2.285   3.078  3.5415 -0.4301  2.2416
  462SOL     OW 1384   0.390   2.781   1.974 -0.1934  0.0006  0.0943
  462SOL    HW1 1385   0.348   2.741   2.057  0.1957  0.9776 -0.3196
  462SOL    HW2 1386   0.334   2.767   1.888  1.0275 -1.5959  0.0317
  463SOL     OW 1387   1.556   2.275   1.896 -0.0390  0.4932  0.2409
  463SOL    HW1 1388   1.652   2.244   1.928  1.1536  0.2264  0.1178
  463SOL    HW2 1389   1.547   2.376   1.888 -2.1489  0.9355 -1.3659
  464SOL     OW 1390   2.569   2.637   1.081 -0.6146  0.1380 -0.3731
  464SOL    HW1 1391   2.620   2.692   1.148  0.5162 -1.0400 -0.1233
  464SOL    HW2 1392   2.587   2.656   0.981 -2.7214  2.2338 -2.2357
  465SOL     OW 1393   0.115   0.033   1.587  1.0590 -0.1429 -0.1590
  465SOL    HW1 1394   0.026   0.077   1.569 -1.1993 -0.0771 -3.3345
  465SOL    HW2 1395   0.191   0.094   1.612  0.8857 -0.3453 -0.4179
  466SOL     OW 1396   1.252   2.287   2.267 -0.1621  0.1421 -0.2656
  466SOL    HW1 1397   1.351   2.281   2.245  0.2436 -0.4874 -1.4399
  466SOL    HW2 1398   1.235   2.291   2.370  0.2943  1.0363  0.1414
  467SOL     OW 1399   2.995   2.227   0.441 -0.2133 -0.0361  0.2606
  467SOL    HW1 1400   2.950   2.304   0.385 -4.6015  0.6474 -0.6909
  467SOL    HW2 1401   2.943   2.141   0.425  0.4859  0.7003 -1.1646
  468SOL     OW 1402   2.085   1.950   2.971  0.8938 -0.0240  0.1704
  468SOL    HW1 1403   2.038   1.923   2.884  0.6606  0.5914 -1.9183
  468SOL    HW2 1404   2.174   1.911   2.971 -4.9866  0.9225 -0.3728
  469SOL     OW 1405   1.204   2.220   0.704 -0.2871  0.8509 -0.1418
  469SOL    HW1 1406   1.212   2.123   0.677 -1.1594 -0.5582 -0.3397
  469SOL    HW2 1407   1.292   2.268   0.693 -1.6280  1.8380 -2.4913
  470SOL     OW 1408   1.903   0.963   1.119  0.3415  0.5002 -0.0050
  470SOL    HW1 1409   1.888   1.054   1.163 -0.1194 -2.6808  0.4406
  470SOL    HW2 1410   1.857   0.956   1.026 -3.3423 -0.0417 -1.8393
  471SOL     OW 1411   0.539   2.257   0.158  0.1106 -0.3075 -0.6847
  471SOL    HW1 1412   0.493   2.256   0.250 -1.1692  0.7294 -0.4686
  471SOL    HW2 1413   0.469   2.234   0.092  3.2345 -0.6227  1.9314
  472SOL     OW 1414   2.494   1.663   2.633  0.2042  0.5243  0.8025
  472SOL    HW1 1415   2.539   1.754   2.627 -0.0409 -0.5657 -1.3027
  472SOL    HW2 1416   2.544   1.598   2.572 -0.8786 -0.7476  0.2590
  473SOL     OW 1417   1.521   2.057   0.754 -0.0464 -0.1764  0.2435
  473SOL    HW1 1418   1.499   2.136   0.699  0.3259 -0.8832  0.7844
  473SOL    HW2 1419   1.543   2.098   0.847  1.4122  0.5467 -1.1837
  474SOL     OW 1420   2.852   0.429   1.043 -0.2076  0.8547 -0.5972
  474SOL    HW1 1421   2.875   0.334   1.019  0.2702 -1.0550 -0.2629
  474SOL    HW2 1422   2.777   0.466   0.983 -1.6232 -0.6084 -1.5440
  475SOL     OW 1423   2.198   2.859   1.524 -0.2663  0.0864  0.3649
  475SOL    HW1 1424   2.258   2.826   1.597 -4.4270  0.2485 -1.9997
  475SOL    HW2 1425   2.121   2.799   1.508  3.9476 -0.8162 -2.5439
  476SOL     OW 1426   0.435   0.467   0.605  0.0552  0.2102  0.2227
  476SOL    HW1 1427   0.488   0.423   0.526 -0.1544  1.5827 -1.8910
  476SOL    HW2 1428   0.430   0.400   0.679  2.7004 -0.2217 -1.0205
  477SOL     OW 1429   1.178   2.142   1.185 -0.5659  0.3466  0.6158
  477SOL    HW1 1430   1.159   2.129   1.083  0.7778 -0.2569 -1.4950
  477SOL    HW2 1431   1.122   2.078   1.243  1.7794 -0.3761 -0.9807
  478SOL     OW 1432   1.218   2.332   2.828 -0.2309 -0.2240 -0.3831
  478SOL    HW1 1433   1.138   2.396   2.815 -3.2204  1.9034 -1.4545
  478SOL    HW2 1434   1.225   2.269   2.749  1.8162 -0.3995 -0.9369
  479SOL     OW 1435   2.806   0.984   1.794  1.1782  0.3336  0.4417
  479SOL    HW1 1436   2.797   1.085   1.802  0.7216  0.5204 -2.2096
  479SOL    HW2 1437   2.896   0.940   1.824  0.4046 -1.7057  0.5647
  480SOL     OW 1438   2.827   2.367   2.749 -0.6740  0.0560  0.1543
  480SOL    HW1 1439   2.897   2.327   2.814 -1.4772  1.4544  2.6283
  480SOL    HW2 1440   2.801   2.462   2.784  2.0481  1.9186 -2.1066
  481SOL     OW 1441   1.586   0.065   2.128 -0.1973 -0.3908 -0.0155
  481SOL    HW1 1442   1.688   0.067   2.152 -1.1331 -0.4956 -0.0741
  481SOL    HW2 1443   1.538   0.151   2.147 -0.4545 -3.3160  1.7693
  482SOL     OW 1444   1.544   2.199   2.811  0.2765  0.1207  0.3358
  482SOL    HW1 1445   1.632   2.235   2.851 -0.0173 -1.3519  1.2281
  482SOL    HW2 1446   1.568   2.108   2.761  0.3617 -0.3330  2.6170
  483SOL     OW 1447   1.031   2.505   2.732  0.2719  0.5307  0.2872
  483SOL    HW1 1448   0.959   2.498   2.662 -1.3069  1.3197 -2.5064
  483SOL    HW2 1449   1.085   2.587   2.705 -0.0993 -0.9414  1.4479
  484SOL     OW 1450   0.110   2.692   1.408 -0.4222 -0.3147  0.2977
  484SOL    HW1 1451   0.081   2.691   1.510 -0.5044  1.8494  0.6662
  484SOL    HW2 1452   0.117   2.791   1.376  0.2150  0.6804  0.0668
  485SOL     OW 1453   2.320   0.715   0.444 -0.0818  0.2673 -0.1902
  485SOL    HW1 1454   2.220   0.718   0.422 -0.0371 -1.8906  0.8765
  485SOL    HW2 1455   2.359   0.806   0.455 -0.9821 -1.5877 -0.2064
  486SOL     OW 1456   2.268   2.732   2.322 -0.5121 -0.1157 -0.1630
  486SOL    HW1 1457   2.334   2.804   2.352  0.2944  1.8233  0.2725
  486SOL    HW2 1458   2.258   2.713   2.221  2.0183  2.5744  2.6192
  487SOL     OW 1459   1.240   0.748   0.698 -0.0491  0.3559 -0.2853
  487SOL    HW1 1460   1.311   0.732   0.627  1.8091  1.2935 -1.7321
  487SOL    HW2 1461   1.204   0.839   0.683 -1.2534  0.8373  0.4300
  488SOL     OW 1462   2.560   2.964   2.492  0.1422  0.3255 -0.1063
  488SOL    HW1 1463   2.510   2.969   2.405 -1.9553 -2.6941 -0.5239
  488SOL    HW2 1464   2.501   2.933   2.571 -1.6297  1.3317  2.3815
  489SOL     OW 1465   1.676   2.899   0.369  0.4851 -0.0151 -0.0128
  489SOL    HW1 1466   1.666   2.812   0.322  1.3472  0.4198 -1.4184
  489SOL    HW2 1467   1.767   2.893   0.416  1.8158  2.4037  1.3480
  490SOL     OW 1468   1.780   0.323   3.002 -0.2745  0.6063  0.2768
  490SOL    HW1 1469   1.792   0.331   0.016  0.5277  0.6482  0.1347
  490SOL    HW2 1470   1.748   0.413   2.967  0.8752 -3.9229 -1.8668
  491SOL     OW 1471   0.635   3.070   1.080 -0.5050 -0.3029  0.1854
  491SOL    HW1 1472   0.580   3.050   1.160 -0.0543  0.4050  1.2480
  491SOL    HW2 1473   0.662   0.086   1.078 -0.3789 -0.4224 -0.6544
  492SOL     OW 1474   1.562   3.058   0.764  0.4444 -0.1879 -0.0091
  492SOL    HW1 1475   1.660   3.059   0.799  1.9815  1.3190 -0.2388
  492SOL    HW2 1476   1.529   2.963   0.737  1.9179  0.2630  0.1423
  493SOL     OW 1477   1.204   2.134   3.010 -0.5898  0.6145 -0.3325
  493SOL    HW1 1478   1.301   2.110   3.011  0.1477  0.4003 -1.1631
  493SOL    HW2 1479   1.196   2.215   2.947  1.1758 -0.2677  1.0882
  494SOL     OW 1480   0.644   1.016   0.993 -0.2537  0.1081 -0.3537
  494SOL    HW1 1481   0.644   1.083   1.070 -0.6493 -0.1236 -0.1976
  494SOL    HW2 1482   0.688   1.062   0.912 -0.9459  3.2000 -1.2022
  495SOL     OW 1483   2.768   0.449   1.420 -0.6562 -0.2619 -0.7272
  495SOL    HW1 1484   2.867   0.468   1.417  1.9061  0.5849  3.4185
  495SOL    HW2 1485   2.744   0.486   1.515 -1.4043  2.7566  4.0183
  496SOL     OW 1486   2.208   2.470   2.361  0.0785  0.0797  0.1745
  496SOL    HW1 1487   2.236   2.567   2.374 -1.4197 -1.2970 -2.6929
  496SOL    HW2 1488   2.109   2.466   2.350  0.7204 -0.1137  0.2124
  497SOL     OW 1489   1.753   1.119   2.795 -0.3685 -0.0807  0.6322
  497SOL    HW1 1490   1.840   1.104   2.748 -0.2432  0.0485  2.8543
  497SOL    HW2 1491   1.772   1.189   2.868  0.3216  0.5418 -2.6972
  498SOL     OW 1492   0.853   2.052   0.893 -0.0387  0.3041 -0.3283
  498SOL    HW1 1493   0.947   2.026   0.920  2.2641 -3.8096  0.7752
  498SOL    HW2 1494   0.801   2.090   0.970  0.6357  0.7698 -3.0237
  499SOL     OW 1495   0.225   1.817   0.685 -0.2815 -0.2270  0.0625
  499SOL    HW1 1496   0.267   1.910   0.672  0.4085 -0.3220 -2.0213
  499SOL    HW2 1497   0.296   1.753   0.723  0.0920 -0.5735 -1.3552
  500SOL     OW 1498   1.201   2.619   0.351 -0.3044 -0.2125 -0.2588
  500SOL    HW1 1499   1.109   2.665   0.333 -0.3550 -0.7584 -2.0759
  500SOL    HW2 1500   1.228   2.643   0.447  1.0575 -2.2438  1.6318
  501SOL     OW 1501   1.846   2.809   0.815  0.2743  0.2699  0.4801
  501SOL    HW1 1502   1.843   2.710   0.799 -0.1572  0.9086  2.4178
  501SOL    HW2 1503   1.761   2.843   0.772 -0.2692 -2.0871 -3.3457
  502SOL     OW 1504   0.037   0.507   1.096 -0.3429 -0.1325 -0.5376
  502SOL    HW1 1505   3.027   0.484   1.065  1.0312  0.0562  1.4340
  502SOL    HW2 1506   0.094   0.424   1.115 -0.3733 -0.1166  1.1751
  503SOL     OW 1507   2.111   0.005   1.731  0.5974 -0.0337 -0.0040
  503SOL    HW1 1508   2.098   0.104   1.758 -0.2156 -0.2442  1.3824
  503SOL    HW2 1509   2.190   3.079   1.667  0.2049  2.0881  0.8039
  504SOL     OW 1510   1.982   1.074   1.917  0.2781  0.6941  0.1127
  504SOL    HW1 1511   2.047   1.002   1.889 -0.9898  2.2632 -0.2267
  504SOL    HW2 1512   1.887   1.042   1.893 -2.2142 -0.3010  0.5041
  505SOL     OW 1513   1.497   2.794   2.366  0.4471  0.1144 -0.6108
  505SOL    HW1 1514   1.586   2.831   2.413  2.8091 -0.7153  0.7242
  505SOL    HW2 1515   1.484   2.843   2.279 -1.0478 -0.7980  0.3877
  506SOL     OW 1516   0.403   0.621   1.648 -0.4255 -0.2911 -0.1242
  506SOL    HW1 1517   0.318   0.641   1.708 -3.6247  1.2435  1.5984
  506SOL    HW2 1518   0.476   0.690   1.670  1.3346  1.6856  0.5980
  507SOL     OW 1519   1.742   0.303   0.188  0.0601  0.1554 -0.0628
  507SOL    HW1 1520   1.717   0.286   0.283 -0.4438  0.1744  0.6204
  507SOL    HW2 1521   1.848   0.304   0.178  3.1024  2.2695 -0.1584
  508SOL     OW 1522   2.173   0.731   2.046  0.6327 -0.1207  0.0194
  508SOL    HW1 1523   2.142   0.771   2.132  2.5629 -0.1813 -0.2158
  508SOL    HW2 1524   2.133   0.772   1.961 -1.4270 -1.1711 -1.1961
  509SOL     OW 1525   0.771   1.671   2.543  0.0029 -0.4061  0.0106
  509SOL    HW1 1526   0.670   1.696   2.547 -3.0945 -2.2945 -0.1590
  509SOL    HW2 1527   0.829   1.740   2.498 -0.1579 -0.8446 -1.9278
  510SOL     OW 1528   2.840   0.825   0.660 -0.3144 -0.2976 -0.1429
  510SOL    HW1 1529   2.870   0.766   0.587  0.4330 -0.7987  1.1395
  510SOL    HW2 1530   2.916   0.858   0.716  2.6243  1.0231  1.5520
  511SOL     OW 1531   1.776   1.303   1.523 -0.0709  0.1873  0.0650
  511SOL    HW1 1532   1.716   1.389   1.540 -0.9718  0.7985 -1.1447
  511SOL    HW2 1533   1.870   1.312   1.558 -2.8634 -2.0633 -0.2502
  512SOL     OW 1534   0.561   1.824   0.482  0.3181  0.1316 -0.0445
  512SOL    HW1 1535   0.487   1.871   0.423  1.3528 -0.3257 -0.5361
  512SOL    HW2 1536   0.589   1.890   0.559  1.3878  3.4056  1.7893
  513SOL     OW 1537   0.534   2.582   0.935  0.1046 -0.3050 -0.1993
  513SOL    HW1 1538   0.523   2.671   0.992  0.1511  0.9908  0.8004
  513SOL    HW2 1539   0.632   2.556   0.940 -2.4849  2.1988 -0.8750
  514SOL     OW 1540   0.574   2.279   0.628  0.1454 -0.3666 -0.0639
  514SOL    HW1 1541   0.538   2.215   0.697  1.1468  2.0034 -1.4847
  514SOL    HW2 1542   0.657   2.245   0.589 -2.5377  2.2713  0.0929
  515SOL     OW 1543   0.091   3.036   0.091 -0.0478  0.4118 -0.2238
  515SOL    HW1 1544   0.189   3.013   0.107  0.0186  0.4610  1.6019
  515SOL    HW2 1545   0.035   2.970   0.146 -0.4845 -3.6012 -0.8469
  516SOL     OW 1546   1.968   0.208   1.217  0.2864  0.5745  0.3572
  516SOL    HW1 1547   1.872   0.220   1.251 -1.1006 -1.1198 -2.7623
  516SOL    HW2 1548   1.983   0.110   1.192 -0.9224 -2.3722 -0.2705
  517SOL     OW 1549   1.637   1.860   0.592  0.2558  0.6441  0.4356
  517SOL    HW1 1550   1.587   1.917   0.654 -0.2025  1.2431  1.5012
  517SOL    HW2 1551   1.723   1.901   0.567  0.5927 -0.5682 -0.6023
  518SOL     OW 1552   1.273   3.030   0.918  0.2093 -0.1612 -0.0621
  518SOL    HW1 1553   1.182   3.023   0.950  1.5515  1.2051 -0.9777
  518SOL    HW2 1554   1.276   3.035   0.817 -0.1495  1.8900  0.6730
  519SOL     OW 1555   2.901   2.315   3.062 -0.1059  0.2152 -0.1689
  519SOL    HW1 1556   2.986   2.352   0.020  1.9251 -0.9577  1.2428
  519SOL    HW2 1557   2.849   2.386   3.023  2.0541 -1.2788 -0.9998
  520SOL     OW 1558   1.844   2.259   2.246  0.2351 -0.1335 -0.6615
  520SOL    HW1 1559   1.900   2.184   2.282 -0.3822 -2.1349  2.1665
  520SOL    HW2 1560   1.786   2.225   2.169  2.0920  0.2753  0.6237
  521SOL     OW 1561   0.930   2.936   2.246 -0.1314 -0.1149  0.5066
  521SOL    HW1 1562   0.833   2.935   2.239  0.5781  4.2747 -2.2751
  521SOL    HW2 1563   0.962   2.952   2.345 -0.6495 -0.1713  0.2308
  522SOL     OW 1564   0.363   2.545   2.350  0.2226 -0.5085  0.2123
  522SOL    HW1 1565   0.319   2.579   2.264 -0.4294 -0.7112 -2.2157
  522SOL    HW2 1566   0.318   2.587   2.434  2.0718 -1.6829  1.1060
  523SOL     OW 1567   1.035   2.209   1.764  0.0048 -1.1786  0.6008
  523SOL    HW1 1568   1.028   2.297   1.822 -1.1330 -1.2882  2.3277
  523SOL    HW2 1569   1.097   2.143   1.814  0.8550 -2.9172  0.1294
  524SOL     OW 1570   2.466   2.278   0.190 -0.5525  0.4144 -0.3439
  524SOL    HW1 1571   2.486   2.195   0.138  0.1672 -0.3538  0.8259
  524SOL    HW2 1572   2.370   2.280   0.219  2.6326  1.7203 -1.3697
  525SOL     OW 1573   2.707   0.514   3.007  0.1637  0.3291  0.3096
  525SOL    HW1 1574   2.715   0.571   0.006  0.6518 -1.0874 -2.2883
  525SOL    HW2 1575   2.769   0.431   3.018  1.5418  0.1377 -0.3771
  526SOL     OW 1576   0.255   0.055   0.940  0.3663  0.8127 -0.4798
  526SOL    HW1 1577   0.176   0.039   0.882  0.2108  1.2460  1.8130
  526SOL    HW2 1578   0.336   0.095   0.892 -0.6082 -0.6948 -1.3072
  527SOL     OW 1579   2.837   1.396   0.534  0.0223 -0.2199 -0.4487
  527SOL    HW1 1580   2.864   1.301   0.515  0.7282  0.4529 -0.4956
  527SOL    HW2 1581   2.738   1.400   0.552  0.4979  1.3388 -3.1077
  528SOL     OW 1582   0.776   0.671   2.280  0.1126  0.1921 -0.0908
  528SOL    HW1 1583   0.722   0.612   2.344  0.3345 -1.3818 -1.7914
  528SOL    HW2 1584   0.834   0.740   2.329 -0.5536  0.9913 -1.3573
  529SOL     OW 1585   0.806   1.428   0.170 -0.1536 -0.1430  0.4155
  529SOL    HW1 1586   0.786   1.519   0.216  0.7843  4.9335 -1.2433
  529SOL    HW2 1587   0.731   1.360   0.192 -4.5441 -0.4702 -0.0460
  530SOL     OW 1588   1.164   1.052   1.989 -0.2584 -0.5151 -0.1294
  530SOL    HW1 1589   1.222   0.997   1.925 -0.2812 -3.5510 -3.6015
  530SOL    HW2 1590   1.189   1.032   2.090  1.7136 -1.0819  2.2930
  531SOL     OW 1591   0.986   2.303   0.010  0.4675 -0.1455  0.1809
  531SOL    HW1 1592   1.059   2.239   3.063  0.8756  1.0661  0.6817
  531SOL    HW2 1593   1.001   2.321   0.112  0.7086  0.8586  0.4453
  532SOL     OW 1594   2.311   1.041   2.505  0.3212 -0.2535  0.0363
  532SOL    HW1 1595   2.401   1.083   2.471  0.2585 -2.0586  3.0482
  532SOL    HW2 1596   2.295   1.059   2.604  0.2065  0.1315  1.6873
  533SOL     OW 1597   3.007   0.182   1.993  0.6386  0.3729 -0.1774
  533SOL    HW1 1598   3.058   0.255   2.041 -1.0171 -0.9250  0.2912
  533SOL    HW2 1599   2.931   0.222   1.936  0.4181  1.1703  3.4876
  534SOL     OW 1600   2.328   0.031   0.346 -0.1393 -0.3173  0.1837
  534SOL    HW1 1601   2.428   0.049   0.362  0.6725  1.5141  2.9745
  534SOL    HW2 1602   2.271   0.122   0.345  0.5705  1.4461 -0.2385
  535SOL     OW 1603   0.455   0.233   0.011  0.6012 -0.8794 -0.0556
  535SOL    HW1 1604   0.460   0.335   0.031  0.7385  2.4060 -0.9691
  535SOL    HW2 1605   0.360   0.198   3.077 -1.3156 -0.3610  0.4577
  536SOL     OW 1606   0.851   1.872   1.655  0.1125 -0.1197  0.7164
  536SOL    HW1 1607   0.948   1.886   1.620  2.0266 -0.8397  1.1986
  536SOL    HW2 1608   0.828   1.940   1.727  0.9882 -1.2026 -1.0711
  537SOL     OW 1609   3.022   2.581   1.623 -0.2910  0.2015 -0.0035
  537SOL    HW1 1610   2.930   2.574   1.677  1.2481  0.2272  2.4108
  537SOL    HW2 1611   0.012   2.519   1.659  1.3846 -0.2802  0.6048
  538SOL     OW 1612   0.423   2.270   0.384 -0.3547 -0.2630  0.4774
  538SOL    HW1 1613   0.479   2.273   0.470 -0.8143 -0.8902 -0.7459
  538SOL    HW2 1614   0.366   2.183   0.371  1.6554 -0.2167 -1.8840
  539SOL     OW 1615   2.192   1.117   2.257  0.1836 -0.3979 -0.3131
  539SOL    HW1 1616   2.237   1.088   2.343 -0.1135 -3.2858 -2.7909
  539SOL    HW2 1617   2.262   1.135   2.184 -0.3753  0.4229 -0.5413
  540SOL     OW 1618   1.959   0.775   3.053  0.0638  0.2168 -0.2817
  540SOL    HW1 1619   2.019   0.807   2.978  0.5661  0.5540 -1.5726
  540SOL    HW2 1620   1.907   0.851   0.002 -1.6557 -1.2703 -0.5350
  541SOL     OW 1621   0.603   0.569   2.480 -0.5086 -0.0488  0.2532
  541SOL    HW1 1622   0.505   0.564   2.452 -0.8777 -2.6119 -2.2277
  541SOL    HW2 1623   0.607   0.605   2.574 -1.1230 -2.0159 -0.2298
  542SOL     OW 1624   1.497   2.536   1.876 -0.3077 -0.0169  0.2721
  542SOL    HW1 1625   1.412   2.491   1.918 -0.9895  1.0616  0.6511
  542SOL    HW2 1626   1.474   2.610   1.811 -0.2396 -0.2062 -2.9476
  543SOL     OW 1627   0.667   2.767   0.349  0.1003  0.0721 -0.1786
  543SOL    HW1 1628   0.612   2.679   0.320 -0.0036 -2.1966 -0.8600
  543SOL    HW2 1629   0.635   2.794   0.443 -0.4377  0.0556  1.1016
  544SOL     OW 1630   2.808   1.868   2.379 -0.0840 -0.1106  0.2148
  544SOL    HW1 1631   2.801   1.966   2.370  1.0650  0.6329  1.1043
  544SOL    HW2 1632   2.865   1.825   2.306  0.6074  1.9172 -0.1387
  545SOL     OW 1633   1.296   1.560   1.922  0.8434  0.2759  0.5994
  545SOL    HW1 1634   1.269   1.521   2.011  0.5768 -2.2054 -0.8822
  545SOL    HW2 1635   1.216   1.587   1.869  1.0681 -2.1874  1.4347
  546SOL     OW 1636   0.173   0.306   2.500  0.4051 -0.0620  0.4796
  546SOL    HW1 1637   0.249   0.354   2.450 -2.7692 -0.5830 -0.0188
  546SOL    HW2 1638   0.144   0.216   2.458  0.3481 -1.2652 -0.0868
  547SOL     OW 1639   1.219   0.337   0.846  0.0037  0.1132 -0.5278
  547SOL    HW1 1640   1.170   0.410   0.795  2.6083 -1.0978 -0.9166
  547SOL    HW2 1641   1.301   0.301   0.793  2.1324  0.3452 -0.9218
  548SOL     OW 1642   1.457   1.991   2.998  0.2849  0.2114 -0.4914
  548SOL    HW1 1643   1.509   1.948   3.081 -0.5852 -0.7636  2.2937
  548SOL    HW2 1644   1.495   2.081   2.966 -0.3405  3.8377  2.9399
  549SOL     OW 1645   2.384   0.916   0.081  0.0203 -0.2142  0.0056
  549SOL    HW1 1646   2.313   0.989   0.103 -4.5160  1.1901 -1.0952
  549SOL    HW2 1647   2.473   0.941   0.112 -4.2820 -0.4365 -1.5033
  550SOL     OW 1648   2.567   2.001   0.750 -0.1859 -0.4304 -0.1156
  550SOL    HW1 1649   2.599   2.100   0.758 -0.5417  3.6071  0.1970
  550SOL    HW2 1650   2.511   1.972   0.829  2.8882  1.3674 -0.1674
  551SOL     OW 1651   0.683   0.531   1.341 -0.1725 -0.2866  0.1825
  551SOL    HW1 1652   0.758   0.474   1.304 -1.6608  2.3558  0.4787
  551SOL    HW2 1653   0.710   0.591   1.419 -2.5889 -1.4410  2.0090
  552SOL     OW 1654   3.064   1.575   2.896  0.1770  0.1626 -0.3954
  552SOL    HW1 1655   0.019   1.486   2.859  2.0970 -1.5155 -1.5684
  552SOL    HW2 1656   0.004   1.586   2.995  1.5904 -0.0978  2.4521
  553SOL     OW 1657   2.532   2.572   0.611  0.5166 -0.3652  0.0810
  553SOL    HW1 1658   2.562   2.615   0.700  1.4492 -3.0509  1.3485
  553SOL    HW2 1659   2.463   2.631   0.558 -2.3762  1.3734  0.4630
  554SOL     OW 1660   2.084   1.026   1.490  0.1181 -0.3895  0.3836
  554SOL    HW1 1661   2.169   1.016   1.438 -1.9842 -0.0797 -2.2433
  554SOL    HW2 1662   2.071   1.125   1.525  2.0091  1.4790 -1.1258
  555SOL     OW 1663   1.109   2.123   2.105 -0.0708  0.1895  0.6072
  555SOL    HW1 1664   1.166   2.099   2.024 -3.1358  2.1404 -1.5329
  555SOL    HW2 1665   1.157   2.193   2.157 -1.5828 -2.0289 -1.3728
  556SOL     OW 1666   0.925   1.311   1.797  0.0416 -0.0528 -0.0434
  556SOL    HW1 1667   0.961   1.291   1.703  0.8999  0.9864 -1.6527
  556SOL    HW2 1668   0.944   1.406   1.827  0.3972  1.7206 -2.1817
  557SOL     OW 1669   1.413   0.053   1.686  0.2274 -0.3190  0.3215
  557SOL    HW1 1670   1.345   0.005   1.625 -0.7886  0.8929  0.1931
  557SOL    HW2 1671   1.464   3.076   1.747  1.3982  0.6993 -1.2864
  558SOL     OW 1672   0.696   0.204   2.264  0.0490 -0.3263  0.1848
  558SOL    HW1 1673   0.764   0.176   2.336  0.1487  2.0019  0.4469
  558SOL    HW2 1674   0.748   0.230   2.176  2.8660 -0.8188 -2.9039
  559SOL     OW 1675   1.639   2.667   0.241 -0.1219 -0.3337  0.0075
  559SOL    HW1 1676   1.556   2.678   0.179 -0.7013  1.6010 -3.6782
  559SOL    HW2 1677   1.650   2.583   0.291  0.6796 -0.0169 -0.6682
  560SOL     OW 1678   1.623   2.151   0.234  0.1426 -0.0397  0.0610
  560SOL    HW1 1679   1.584   2.066   0.198  1.9270  3.0527  2.9369
  560SOL    HW2 1680   1.640   2.218   0.156  3.0726  0.6676  0.5977
  561SOL     OW 1681   1.445   0.212   0.748  0.2887  0.4294  0.0289
  561SOL    HW1 1682   1.489   0.127   0.782 -1.5308  0.8559  2.0818
  561SOL    HW2 1683   1.486   0.251   0.661 -2.3785  1.0002  0.7774
  562SOL     OW 1684   0.437   0.944   1.972  0.2944 -0.4171 -0.2388
  562SOL    HW1 1685   0.507   1.007   1.936 -0.9338 -1.0974 -0.3720
  562SOL    HW2 1686   0.471   0.877   2.043 -0.6713  1.4118  1.7396
  563SOL     OW 1687   1.457   2.353   2.609  0.0940  0.5719 -0.3010
  563SOL    HW1 1688   1.371   2.309   2.574 -0.0465 -1.4262 -0.9827
  563SOL    HW2 1689   1.490   2.303   2.693 -0.8285 -1.5136  3.5898
  564SOL     OW 1690   2.891   0.876   1.023 -0.3811  0.6621 -0.5640
  564SOL    HW1 1691   2.907   0.791   1.075  2.1009 -1.6507 -1.0393
  564SOL    HW2 1692   2.951   0.879   0.942 -1.0370 -0.2848 -0.4837
  565SOL     OW 1693   0.947   1.012   0.103 -0.1472  0.1245  0.0684
  565SOL    HW1 1694   0.969   1.111   0.083  1.8883 -1.8007 -0.4258
  565SOL    HW2 1695   1.039   0.962   0.101  3.3586 -0.2925 -0.7988
  566SOL     OW 1696   2.343   2.610   3.085  0.2024  0.0985  0.1849
  566SOL    HW1 1697   2.408   2.572   0.066  1.3268 -0.3738 -4.1314
  566SOL    HW2 1698   2.338   2.708   3.078  0.4252 -0.8911  0.8077
  567SOL     OW 1699   1.441   1.009   1.371 -0.5376 -0.2953  0.0230
  567SOL    HW1 1700   1.393   1.083   1.416  1.0272 -2.8686  0.6307
  567SOL    HW2 1701   1.536   1.012   1.411  0.1413  0.7021 -0.8930
  568SOL     OW 1702   1.472   1.149   2.714 -0.4955 -0.2429  0.1799
  568SOL    HW1 1703   1.430   1.236   2.681  0.7469  1.0691  0.0614
  568SOL    HW2 1704   1.567   1.168   2.736 -2.0867  1.7718  0.5054
  569SOL     OW 1705   1.989   1.712   0.622  0.3618  0.6647 -0.4787
  569SOL    HW1 1706   2.066   1.771   0.590 -0.3892  1.3772  0.7687
  569SOL    HW2 1707   1.929   1.757   0.690  0.0221  2.4726 -1.3284
  570SOL     OW 1708   2.767   2.126   2.293 -0.6692 -0.0779 -0.3636
  570SOL    HW1 1709   2.755   2.124   2.192 -1.0363 -1.4397 -2.7130
  570SOL    HW2 1710   2.751   2.224   2.327 -2.9055  2.0561 -1.4745
  571SOL     OW 1711   2.776   1.814   1.635  0.3200  0.0900 -0.5350
  571SOL    HW1 1712   2.754   1.888   1.569 -2.8949 -0.6768  1.0855
  571SOL    HW2 1713   2.860   1.843   1.692  1.6475 -0.0152  1.6596
  572SOL     OW 1714   1.393   2.635   0.139 -0.0989  0.0740  0.0785
  572SOL    HW1 1715   1.309   2.649   0.197 -0.8572 -0.6920 -0.3952
  572SOL    HW2 1716   1.394   2.553   0.075 -0.0261  1.4341 -0.6082
  573SOL     OW 1717   1.799   1.811   1.331  0.0060 -0.2502  0.0784
  573SOL    HW1 1718   1.878   1.865   1.359 -1.2098 -1.3411 -0.9259
  573SOL    HW2 1719   1.821   1.710   1.323 -1.7932  1.6722 -0.7200
  574SOL     OW 1720   1.038   2.994   1.283  0.7795  0.7834  0.1661
  574SOL    HW1 1721   1.054   3.067   1.355  1.5843  0.0509  2.1639
  574SOL    HW2 1722   1.085   2.905   1.302 -0.4454  0.2198  2.6370
  575SOL     OW 1723   0.687   0.673   0.912 -0.7127 -0.1783 -0.0454
  575SOL    HW1 1724   0.760   0.701   0.975  2.3067  0.5770 -0.3905
  575SOL    HW2 1725   0.599   0.703   0.951  1.4104 -2.3012  0.1685
  576SOL     OW 1726   2.503   0.415   1.378  0.1144 -0.0066 -0.1134
  576SOL    HW1 1727   2.461   0.482   1.318  1.3344 -0.7163  4.2464
  576SOL    HW2 1728   2.603   0.410   1.362 -2.4151  0.5365  0.7138
  577SOL     OW 1729   2.334   0.435   2.715  0.6202  0.3068 -0.3994
  577SOL    HW1 1730   2.423   0.481   2.744  0.2539  0.1840  0.8445
  577SOL    HW2 1731   2.301   0.479   2.630 -0.5919 -3.0643  1.2207
  578SOL     OW 1732   1.859   1.820   2.096 -0.3259  0.2477  0.4847
  578SOL    HW1 1733   1.886   1.722   2.096 -0.2271  1.2150  1.3683
  578SOL    HW2 1734   1.866   1.856   2.001  2.3404 -2.9685 -0.8940
  579SOL     OW 1735   0.795   1.585   0.970 -0.7355  0.0643 -0.9108
  579SOL    HW1 1736   0.797   1.623   0.877  1.4466 -0.1611  2.1944
  579SOL    HW2 1737   0.729   1.635   1.028  0.9980 -1.6756 -1.4137
  580SOL     OW 1738   1.379   2.457   3.026 -0.0462 -0.4496  0.4373
  580SOL    HW1 1739   1.318   2.408   2.962 -0.3445  0.1620 -0.8618
  580SOL    HW2 1740   1.452   2.491   2.958  0.3647  0.5664 -0.1872
  581SOL     OW 1741   0.773   0.707   1.943 -1.0396  0.0145 -0.2998
  581SOL    HW1 1742   0.681   0.726   1.979 -0.1817  1.9723  0.3770
  581SOL    HW2 1743   0.794   0.607   1.947  0.2126  2.1305 -0.9872
  582SOL     OW 1744   0.427   0.824   0.679 -0.0415  0.0936  0.4682
  582SOL    HW1 1745   0.335   0.790   0.663  1.2013 -1.1681 -1.7348
  582SOL    HW2 1746   0.444   0.832   0.780 -0.3947  0.6375  0.7848
  583SOL     OW 1747   0.870   1.591   1.938 -0.1500  0.2695  0.2832
  583SOL    HW1 1748   0.898   1.663   2.011 -4.3983 -1.2800 -1.1176
  583SOL    HW2 1749   0.857   1.501   1.980  1.3470  0.9833 -4.2446
  584SOL     OW 1750   2.396   2.719   0.398 -0.2154 -0.4231  0.9591
  584SOL    HW1 1751   2.296   2.720   0.371 -0.0392 -1.6398 -0.8972
  584SOL    HW2 1752   2.451   2.669   0.323 -0.5326 -2.5080 -1.0081
  585SOL     OW 1753   2.113   0.542   3.063 -0.3977  0.6318  0.1002
  585SOL    HW1 1754   2.037   0.616   3.071 -0.0871  1.8161 -1.2802
  585SOL    HW2 1755   2.190   0.568   0.033 -0.0626  0.0701 -1.3836
  586SOL     OW 1756   0.451   1.580   0.216  0.0025 -0.3516  0.1052
  586SOL    HW1 1757   0.391   1.596   0.297  0.9735 -1.6210 -2.4560
  586SOL    HW2 1758   0.537   1.633   0.228  0.4437  1.2053 -2.0401
  587SOL     OW 1759   1.607   2.129   0.992  0.1558 -0.4433 -0.1211
  587SOL    HW1 1760   1.648   2.049   1.039  0.8903  1.4257 -2.4593
  587SOL    HW2 1761   1.551   2.185   1.056 -0.0332  0.8050 -3.0022
  588SOL     OW 1762   0.389   0.563   0.968  0.0560 -0.5175 -0.3211
  588SOL    HW1 1763   0.412   0.514   1.057  1.0119  0.8143  2.5988
  588SOL    HW2 1764   0.392   0.665   0.980  1.8552 -0.1366  1.1660
  589SOL     OW 1765   1.390   0.155   1.037 -0.1027 -0.1604  0.6308
  589SOL    HW1 1766   1.352   0.087   0.973 -0.9553 -1.4411 -0.0217
  589SOL    HW2 1767   1.351   0.135   1.131 -0.2728  0.9118  1.8014
  590SOL     OW 1768   1.406   0.736   0.457 -0.1663  0.3664 -0.2357
  590SOL    HW1 1769   1.466   0.817   0.461 -1.0998  1.1665  1.2411
  590SOL    HW2 1770   1.395   0.699   0.363 -0.5283  2.9418 -1.1068
  591SOL     OW 1771   2.252   2.239   1.752  0.4695  0.3342  0.5095
  591SOL    HW1 1772   2.282   2.185   1.832  2.9461 -1.0162  0.3023
  591SOL    HW2 1773   2.308   2.208   1.673  1.9235 -3.0896 -0.0352
  592SOL     OW 1774   1.536   1.840   1.409 -0.2004 -0.4358 -0.1056
  592SOL    HW1 1775   1.545   1.801   1.500  1.3856  0.7802 -2.9352
  592SOL    HW2 1776   1.626   1.852   1.361 -1.5264 -2.5049 -2.9333
  593SOL     OW 1777   0.993   0.059   0.621  0.7560 -0.0249  0.3452
  593SOL    HW1 1778   0.914   0.121   0.654 -1.4709  0.8235  1.1657
  593SOL    HW2 1779   1.076   0.112   0.598  1.3173 -0.1108 -0.0744
  594SOL     OW 1780   0.196   0.877   1.854 -0.3609 -0.0965 -0.1979
  594SOL    HW1 1781   0.198   0.774   1.839 -0.5025  0.5293 -0.8454
  594SOL    HW2 1782   0.269   0.911   1.919 -1.3038  2.9420  0.4790
  595SOL     OW 1783   2.751   2.988   0.867 -0.6949  0.8073  0.2518
  595SOL    HW1 1784   2.729   0.002   0.877  0.6477 -0.3383 -0.6411
  595SOL    HW2 1785   2.843   2.963   0.911  2.8948 -3.8469  0.9786
  596SOL     OW 1786   0.027   0.412   1.401 -0.1714 -0.4335  0.4620
  596SOL    HW1 1787   0.095   0.484   1.417 -0.2132  2.5960  0.0405
  596SOL    HW2 1788   3.061   0.384   1.487  0.0798 -1.5957  1.4659
  597SOL     OW 1789   2.144   1.148   0.794 -0.0208 -0.2507  0.5759
  597SOL    HW1 1790   2.205   1.214   0.738  2.7511 -1.0880 -1.4284
  597SOL    HW2 1791   2.046   1.160   0.776 -0.1507 -1.0781 -0.9986
  598SOL     OW 1792   0.546   3.044   1.780 -0.4989 -0.2396  0.0847
  598SOL    HW1 1793   0.525   2.950   1.742 -1.9618 -1.7324 -0.4457
  598SOL    HW2 1794   0.498   3.060   1.867 -0.4374  1.3287  0.0302
  599SOL     OW 1795   2.702   1.659   3.070  1.2649  0.3914  0.2047
  599SOL    HW1 1796   2.755   1.573   3.072  1.2228  1.7906  1.9318
  599SOL    HW2 1797   2.629   1.650   3.001 -0.4719  1.7025 -0.5184
  600SOL     OW 1798   0.829   0.899   2.947  0.0688  0.1247 -0.1329
  600SOL    HW1 1799   0.843   0.957   2.862 -0.3877  2.6362 -0.7816
  600SOL    HW2 1800   0.879   0.928   3.032  0.2690 -3.0449 -0.4045
  601SOL     OW 1801   1.202   1.054   2.695  0.0893 -0.0215  0.2807
  601SOL    HW1 1802   1.302   1.083   2.693  0.4776 -0.0215 -1.1795
  601SOL    HW2 1803   1.138   1.135   2.672 -0.8720 -1.0145 -2.2784
  602SOL     OW 1804   1.236   2.809   1.317 -0.6698  0.3686  0.0200
  602SOL    HW1 1805   1.230   2.718   1.276  0.6584  0.6250 -0.4337
  602SOL    HW2 1806   1.316   2.861   1.275  1.6218  0.7727 -3.6836
  603SOL     OW 1807   1.043   2.924   2.502  0.0942 -0.4805 -0.1819
  603SOL    HW1 1808   1.005   2.976   2.582  1.0416 -1.0678  0.8578
  603SOL    HW2 1809   1.090   2.847   2.541 -0.9777  2.4488 -0.7794
  604SOL     OW 1810   2.820   0.044   2.123 -0.3607 -0.0983 -0.1256
  604SOL    HW1 1811   2.890   0.103   2.075 -0.1706  1.0335  2.2442
  604SOL    HW2 1812   2.861   0.005   2.211  0.6158 -0.7456 -1.8866
  605SOL     OW 1813   2.225   2.416   1.366  0.1253  0.4226  0.3747
  605SOL    HW1 1814   2.197   2.437   1.461  0.3689  1.2322 -0.4239
  605SOL    HW2 1815   2.199   2.489   1.301  0.5691 -1.2799 -1.9304
  606SOL     OW 1816   0.119   1.810   3.050 -0.5382 -0.2541 -0.3853
  606SOL    HW1 1817   0.149   1.841   2.957  1.0101 -2.3079 -0.2772
  606SOL    HW2 1818   0.073   1.894   0.014  0.6258  2.0714  0.8116
  607SOL     OW 1819   1.094   0.411   0.457 -0.1283  0.1405 -1.0516
  607SOL    HW1 1820   1.187   0.383   0.423 -0.8093  0.2583  0.6403
  607SOL    HW2 1821   1.021   0.395   0.388  0.3119  0.6064 -0.6724
  608SOL     OW 1822   1.574   1.285   2.427 -0.1394  0.0427  0.4457
  608SOL    HW1 1823   1.565   1.197   2.378 -0.5462 -1.2608 -2.7473
  608SOL    HW2 1824   1.499   1.302   2.493  0.3195  1.8856 -1.7108
  609SOL     OW 1825   2.674   0.515   0.876  0.0202 -0.2446 -0.7158
  609SOL    HW1 1826   2.643   0.596   0.820  0.7840 -1.1134 -0.3400
  609SOL    HW2 1827   2.651   0.426   0.832  1.8918 -0.4007  2.4269
  610SOL     OW 1828   0.666   2.537   2.912  0.0281 -0.3000 -0.1867
  610SOL    HW1 1829   0.730   2.607   2.947  0.7783 -1.5186  1.9021
  610SOL    HW2 1830   0.692   2.448   2.948 -2.8843  1.1611  0.7695
  611SOL     OW 1831   1.774   1.391   0.549 -0.1867 -0.5496 -0.5837
  611SOL    HW1 1832   1.836   1.440   0.485 -1.2995  0.1045  0.9036
  611SOL    HW2 1833   1.711   1.457   0.602  0.4558  0.7824 -2.2034
  612SOL     OW 1834   0.871   2.371   2.539  0.7132 -0.8516  0.3458
  612SOL    HW1 1835   0.929   2.369   2.459 -0.6732  1.2070  0.5437
  612SOL    HW2 1836   0.792   2.436   2.535 -1.0001 -1.0100  1.1035
  613SOL     OW 1837   1.302   1.651   0.057 -0.0389  0.0719 -0.6819
  613SOL    HW1 1838   1.381   1.640   0.121  2.9564  2.5556  2.7736
  613SOL    HW2 1839   1.333   1.710   3.067 -0.7033 -2.4200  0.7033
  614SOL     OW 1840   2.799   2.437   1.766 -0.4973 -0.2164  0.4619
  614SOL    HW1 1841   2.764   2.436   1.863 -0.2099  0.9131  0.3840
  614SOL    HW2 1842   2.821   2.342   1.732  0.3248 -2.9671 -0.2811
  615SOL     OW 1843   2.222   1.379   0.014  0.4534 -0.0310 -0.8627
  615SOL    HW1 1844   2.170   1.466   0.014 -1.2020  1.4676 -1.3791
  615SOL    HW2 1845   2.284   1.374   3.021  0.5168 -0.3573 -0.3987
  616SOL     OW 1846   1.667   0.150   1.064 -0.1882 -0.0102  0.7061
  616SOL    HW1 1847   1.686   0.149   1.163 -1.7748  1.5426 -1.7650
  616SOL    HW2 1848   1.573   0.177   1.050  0.2842 -2.0646 -1.5069
  617SOL     OW 1849   0.866   1.017   2.702  0.0845  0.1478 -0.2026
  617SOL    HW1 1850   0.776   0.999   2.658 -0.0010 -1.5539  2.2271
  617SOL    HW2 1851   0.909   1.110   2.679  2.0925  3.7527 -1.4619
  618SOL     OW 1852   0.578   0.821   1.687 -0.0915  0.2437 -0.1924
  618SOL    HW1 1853   0.518   0.885   1.632 -0.6089 -2.2674 -1.3247
  618SOL    HW2 1854   0.648   0.862   1.750  1.7517  0.6187  1.9537
  619SOL     OW 1855   0.153   0.880   1.424  0.6699  0.4704  0.1110
  619SOL    HW1 1856   0.077   0.945   1.410  3.5188  0.7077  2.2479
  619SOL    HW2 1857   0.172   0.823   1.339  1.1093  1.7937 -1.3604
  620SOL     OW 1858   1.939   1.113   0.025 -0.2141 -0.1410  0.1411
  620SOL    HW1 1859   1.862   1.077   0.081 -0.4894  0.4797  0.3455
  620SOL    HW2 1860   1.905   1.196   3.062 -0.1512 -0.8707  2.3382
  621SOL     OW 1861   2.575   3.042   1.162  0.2205  0.0876  0.6365
  621SOL    HW1 1862   2.587   3.050   1.061 -0.4735 -1.6437 -0.1276
  621SOL    HW2 1863   2.508   0.026   1.197 -0.3536  2.1032 -0.1228
  622SOL     OW 1864   1.440   0.725   2.026 -0.0795  0.1135  0.6746
  622SOL    HW1 1865   1.539   0.752   2.024 -3.0155  2.4215  2.9100
  622SOL    HW2 1866   1.422   0.656   2.099  0.0188  2.1028  0.5013
  623SOL     OW 1867   0.984   0.456   2.737 -0.0542  0.1387 -0.5050
  623SOL    HW1 1868   0.927   0.443   2.654  1.2239 -0.2777  1.2549
  623SOL    HW2 1869   0.983   0.557   2.753 -0.1715  0.8333 -0.2128
  624SOL     OW 1870   1.651   0.271   0.439 -0.4284 -0.3618 -0.4294
  624SOL    HW1 1871   1.588   0.349   0.452  0.1983 -0.7853  3.0847
  624SOL    HW2 1872   1.731   0.280   0.500  1.9816  2.1646 -0.7283
  625SOL     OW 1873   0.933   1.359   0.818  0.1964 -0.8798  0.1032
  625SOL    HW1 1874   1.023   1.399   0.793  1.3354 -0.4275 -1.1737
  625SOL    HW2 1875   0.870   1.433   0.855 -1.0891  1.3237 -2.4512
  626SOL     OW 1876   1.591   0.915   2.979  0.2968 -0.0530 -0.9315
  626SOL    HW1 1877   1.489   0.906   2.979 -2.5702  1.0223 -1.4472
  626SOL    HW2 1878   1.615   0.970   2.905 -3.0085 -2.7280 -1.9593
  627SOL     OW 1879   0.798   0.032   1.904  0.1003 -1.0420  0.5650
  627SOL    HW1 1880   0.873   0.029   1.830  2.7677  2.0819  0.7440
  627SOL    HW2 1881   0.708   0.004   1.865  0.2999 -1.3169  1.0247
  628SOL     OW 1882   2.473   0.432   2.230 -0.1972 -0.2189 -0.2605
  628SOL    HW1 1883   2.488   0.521   2.182  1.4329  0.0638 -2.5192
  628SOL    HW2 1884   2.453   0.459   2.328 -0.5621  0.6121  2.5217
  629SOL     OW 1885   0.792   1.295   2.955  0.1081 -0.3898 -0.0300
  629SOL    HW1 1886   0.862   1.294   3.030 -0.4617 -1.4770 -0.5594
  629SOL    HW2 1887   0.697   1.313   2.990 -0.5488  2.3097  0.8361
  630SOL     OW 1888   1.066   0.175   2.258 -0.0094  0.1284  0.4769
  630SOL    HW1 1889   1.059   0.259   2.317 -0.6786  1.3229 -0.5086
  630SOL    HW2 1890   1.102   0.097   2.313  1.8966  2.8661 -3.8541
  631SOL     OW 1891   2.623   1.169   0.845 -0.0121 -0.0785  0.2549
  631SOL    HW1 1892   2.711   1.221   0.864 -1.9571 -0.9558  0.5803
  631SOL    HW2 1893   2.559   1.174   0.923 -0.7318  1.5367  1.9548
  632SOL     OW 1894   2.537   1.401   0.757 -0.6086  0.1657 -0.1894
  632SOL    HW1 1895   2.552   1.303   0.786  0.4770 -1.5749 -0.8962
  632SOL    HW2 1896   2.591   1.475   0.806  0.8564 -0.8306 -0.1655
  633SOL     OW 1897   1.362   1.018   1.122  0.3269  0.4550 -1.0009
  633SOL    HW1 1898   1.339   1.118   1.131 -1.7881  2.4041  0.1997
  633SOL    HW2 1899   1.407   0.980   1.201  0.9738 -2.8393 -2.7419
  634SOL     OW 1900   1.825   0.009   0.867  0.1390  0.1058  0.1035
  634SOL    HW1 1901   1.757   0.054   0.927  1.3946 -0.0118  0.3785
  634SOL    HW2 1902   1.920   0.027   0.913  1.4361  1.7451  2.4823
  635SOL     OW 1903   1.695   0.537   1.327 -0.0854 -0.8627 -0.4444
  635SOL    HW1 1904   1.764   0.609   1.298  2.2723  0.4100 -2.2517
  635SOL    HW2 1905   1.704   0.514   1.426  0.4216 -1.0763 -2.2572
  636SOL     OW 1906   1.060   0.929   0.597 -0.5621 -0.4621  0.3189
  636SOL    HW1 1907   1.058   0.883   0.507  2.2920 -1.8295 -0.1574
  636SOL    HW2 1908   0.973   0.984   0.609 -4.6041  2.7069 -3.2187
  637SOL     OW 1909   1.597   2.292   0.026 -0.4163  0.3730 -0.1355
  637SOL    HW1 1910   1.512   2.339   0.003  3.1777 -0.5328  0.0386
  637SOL    HW2 1911   1.672   2.311   3.043 -1.4671 -0.9520  0.9697
  638SOL     OW 1912   1.176   2.795   2.937  0.3583 -0.1488 -0.1753
  638SOL    HW1 1913   1.129   2.714   2.978 -0.9854  0.4871 -1.1694
  638SOL    HW2 1914   1.211   2.768   2.845 -0.1929 -1.3670  1.9801
  639SOL     OW 1915   1.006   1.996   1.377  0.1603  0.5291 -0.1243
  639SOL    HW1 1916   0.987   1.900   1.348  0.7849  2.3065 -0.8795
  639SOL    HW2 1917   0.921   2.048   1.397 -0.7105  0.4738 -0.5014
  640SOL     OW 1918   0.332   2.987   0.248 -0.5448  0.0897  0.1637
  640SOL    HW1 1919   0.342   2.895   0.207  0.2890 -3.8460  1.3671
  640SOL    HW2 1920   0.417   3.039   0.231 -0.7276  0.6766  0.8442
  641SOL     OW 1921   0.182   0.371   0.167  0.2201  0.2535 -0.9306
  641SOL    HW1 1922   0.228   0.303   0.224 -0.9202 -2.0833 -0.7445
  641SOL    HW2 1923   0.252   0.430   0.123  0.8135 -0.9235 -1.8997
  642SOL     OW 1924   0.310   1.525   1.056 -0.1721  0.2720  0.3570
  642SOL    HW1 1925   0.359   1.602   1.012 -1.6961 -0.8056 -2.2500
  642SOL    HW2 1926   0.213   1.542   1.081 -0.2983 -1.5400 -3.6577
  643SOL     OW 1927   0.916   1.873   2.430  0.2956 -0.5332 -0.3869
  643SOL    HW1 1928   1.007   1.834   2.453  1.5043  0.8345 -0.6620
  643SOL    HW2 1929   0.929   1.965   2.388 -0.3338 -0.8012  1.6261
  644SOL     OW 1930   1.716   2.509   0.471 -0.3232 -0.3203 -0.8567
  644SOL    HW1 1931   1.753   2.413   0.457 -0.8410 -0.2035 -0.4546
  644SOL    HW2 1932   1.635   2.510   0.534 -0.3967 -1.8797  1.7869
  645SOL     OW 1933   1.813   2.145   1.530 -0.5829 -0.1491 -0.1288
  645SOL    HW1 1934   1.744   2.118   1.602 -1.4226  0.1482 -2.0257
  645SOL    HW2 1935   1.855   2.238   1.547 -1.9368 -1.5304 -1.2930
  646SOL     OW 1936   0.965   2.750   0.317  0.1153 -0.1567  0.3124
  646SOL    HW1 1937   0.983   2.848   0.329  1.7137 -1.8199 -0.8660
  646SOL    HW2 1938   0.865   2.732   0.330 -0.2985 -2.7309  2.7831
  647SOL     OW 1939   0.378   0.005   1.977  0.2316 -0.2557  0.1879
  647SOL    HW1 1940   0.342   3.018   2.038  0.0103  2.2568  1.4217
  647SOL    HW2 1941   0.416   0.082   2.029  0.4026 -1.9521 -0.6063
  648SOL     OW 1942   2.584   1.113   0.573 -0.8422  0.4258  0.1706
  648SOL    HW1 1943   2.493   1.063   0.563  1.5971  3.0264 -1.8609
  648SOL    HW2 1944   2.608   1.120   0.673 -2.1765 -2.9772  1.5295
  649SOL     OW 1945   1.789   2.497   2.703 -0.5201  0.2171  0.6104
  649SOL    HW1 1946   1.766   2.453   2.611 -2.5993 -0.0815  0.1654
  649SOL    HW2 1947   1.754   2.593   2.700  1.9592 -0.7461 -0.9098
  650SOL     OW 1948   2.384   1.221   1.953 -0.2503  0.0600 -0.1146
  650SOL    HW1 1949   2.390   1.303   2.013  1.2222  1.0783 -0.5660
  650SOL    HW2 1950   2.414   1.134   2.001  1.8931 -0.6002 -1.6150
  651SOL     OW 1951   1.476   1.669   2.748  0.1918  0.2109 -0.0646
  651SOL    HW1 1952   1.565   1.679   2.798 -1.4756 -0.5344  1.6827
  651SOL    HW2 1953   1.402   1.728   2.788 -3.9602  2.7079  1.3129
  652SOL     OW 1954   0.635   3.016   2.541  0.1766 -0.3894  0.4929
  652SOL    HW1 1955   0.670   2.945   2.600 -3.4704 -0.8044 -2.0854
  652SOL    HW2 1956   0.582   3.085   2.599  1.2265  1.2585 -2.0368
  653SOL     OW 1957   2.216   2.082   0.906  0.2707  0.2582  1.1504
  653SOL    HW1 1958   2.280   2.007   0.885  0.2602  0.2296 -0.7216
  653SOL    HW2 1959   2.148   2.057   0.971  3.0719 -0.3911 -1.8670
  654SOL     OW 1960   2.537   2.829   2.168 -0.5326  0.4292 -0.1515
  654SOL    HW1 1961   2.510   2.931   2.187  0.7316  1.7662  0.0599
  654SOL    HW2 1962   2.542   2.803   2.067  1.3651 -2.8578 -4.0088
  655SOL     OW 1963   2.575   2.134   1.308  0.5414  0.0557  0.0137
  655SOL    HW1 1964   2.542   2.211   1.245  1.3205  1.0313 -1.6106
  655SOL    HW2 1965   2.631   2.180   1.383  0.0535 -3.5379  1.2425
  656SOL     OW 1966   2.958   2.047   2.780 -0.2417  0.6713  0.8857
  656SOL    HW1 1967   2.987   1.959   2.736 -0.0913 -2.3554 -0.8645
  656SOL    HW2 1968   2.901   2.094   2.711 -0.3806 -4.0739  2.0468
  657SOL     OW 1969   0.196   1.081   0.337 -0.6599 -0.7492 -0.3518
  657SOL    HW1 1970   0.239   1.170   0.305  0.6273  2.4492  1.1682
  657SOL    HW2 1971   0.263   1.006   0.352 -3.1820 -1.0881 -0.1630
  658SOL     OW 1972   1.408   1.434   1.340 -0.3491 -0.0889  0.1811
  658SOL    HW1 1973   1.501   1.477   1.362 -0.4668 -0.2231 -0.6109
  658SOL    HW2 1974   1.327   1.494   1.365 -3.8424  1.8839  3.1364
  659SOL     OW 1975   0.934   0.235   1.198  0.7262  0.2726 -0.1564
  659SOL    HW1 1976   0.944   0.179   1.114 -3.8771  0.4414  0.4043
  659SOL    HW2 1977   0.959   0.183   1.288 -0.1527 -0.4497  3.4769
  660SOL     OW 1978   2.195   1.128   1.089 -1.0994  0.1355  0.4909
  660SOL    HW1 1979   2.179   1.146   0.989  0.4530  1.4811 -2.1172
  660SOL    HW2 1980   2.178   1.031   1.111  0.7941  3.4810  0.8656
  661SOL     OW 1981   0.353   1.551   3.024 -0.0278  0.5017  0.3912
  661SOL    HW1 1982   0.376   1.634   3.076 -2.4632 -0.5680  0.6877
  661SOL    HW2 1983   0.253   1.529   3.050  1.6537 -0.3153  0.3739
  662SOL     OW 1984   2.665   0.860   2.024  0.0080 -0.1252 -0.4996
  662SOL    HW1 1985   2.730   0.844   2.098 -1.7958  0.1472 -1.3767
  662SOL    HW2 1986   2.708   0.908   1.938  0.2107  1.7169 -0.3440
  663SOL     OW 1987   2.304   1.480   1.381 -0.1294 -0.1522 -0.1176
  663SOL    HW1 1988   2.320   1.526   1.292 -0.8388 -0.3574 -3.4948
  663SOL    HW2 1989   2.383   1.494   1.448 -2.2057 -0.7965  0.8916
  664SOL     OW 1990   0.485   0.053   1.418  0.4236 -0.0094  0.5251
  664SOL    HW1 1991   0.415   0.010   1.354 -0.1370  0.3431 -4.3561
  664SOL    HW2 1992   0.457   0.148   1.442  2.5387 -2.4167  0.2972
  665SOL     OW 1993   1.568   0.131   2.898 -0.0941  0.1415  0.4541
  665SOL    HW1 1994   1.647   0.197   2.915 -0.8793  1.1629  1.4244
  665SOL    HW2 1995   1.560   0.061   2.970  1.3943 -0.8818 -1.4342
  666SOL     OW 1996   0.326   0.145   1.748  0.1711 -0.1161 -0.0233
  666SOL    HW1 1997   0.397   0.196   1.701 -0.7234  1.0370  3.3898
  666SOL    HW2 1998   0.356   0.070   1.805  1.5490  1.5871 -1.0444
  667SOL     OW 1999   1.764   1.511   1.931 -0.0833  0.2534  0.2959
  667SOL    HW1 2000   1.819   1.525   1.843  2.3484 -1.9801 -2.8512
  667SOL    HW2 2001   1.826   1.488   2.006 -2.2064  0.9984 -2.7614
  668SOL     OW 2002   0.152   1.586   2.552 -0.1520  0.1116 -0.6003
  668SOL    HW1 2003   0.229   1.590   2.623 -0.4117  1.5834  0.2659
  668SOL    HW2 2004   0.132   1.489   2.522 -0.4088  0.1508  1.1404
  669SOL     OW 2005   2.526   2.995   2.941  0.0347 -0.2905 -0.0262
  669SOL    HW1 2006   2.510   0.003   2.911 -0.2603 -1.9087  1.1272
  669SOL    HW2 2007   2.473   2.970   3.027 -0.1417  0.1748  2.5446
  670SOL     OW 2008   2.529   1.123   2.353  0.2918 -0.4200 -0.0355
  670SOL    HW1 2009   2.611   1.060   2.354  3.9973 -0.3752  2.1352
  670SOL    HW2 2010   2.552   1.217   2.385  0.2371  0.3282 -0.9917
  671SOL     OW 2011   2.510   1.920   0.237 -0.1387  0.1359  0.1699
  671SOL    HW1 2012   2.551   1.828   0.249  0.0050 -0.3398  0.3477
  671SOL    HW2 2013   2.537   1.974   0.320  1.1332  1.1985  0.3007
  672SOL     OW 2014   1.353   1.234   2.093 -0.4110 -0.5869 -0.2516
  672SOL    HW1 2015   1.438   1.234   2.036  0.6902 -0.7918 -0.5280
  672SOL    HW2 2016   1.283   1.184   2.039  2.0738 -1.1142 -1.8870
  673SOL     OW 2017   3.031   1.925   1.379  0.2057  0.2186 -0.0119
  673SOL    HW1 2018   3.081   1.899   1.292  1.4874 -1.6032 -0.7164
  673SOL    HW2 2019   3.069   1.877   1.460 -0.2432 -1.3766  1.6340
  674SOL     OW 2020   1.097   1.633   1.738  0.5043 -0.1843 -0.3673
  674SOL    HW1 2021   1.014   1.645   1.793 -0.9802  0.6928 -0.8477
  674SOL    HW2 2022   1.107   1.721   1.687 -2.1806  1.7451  2.6250
  675SOL     OW 2023   3.066   0.849   0.811  0.7396 -0.6571 -0.9036
  675SOL    HW1 2024   0.051   0.908   0.779 -2.1515 -0.1849  0.0004
  675SOL    HW2 2025   0.013   0.758   0.814 -1.5038  2.2656 -2.0423
  676SOL     OW 2026   0.044   1.274   0.897  0.1904 -0.0454 -0.0081
  676SOL    HW1 2027   0.116   1.210   0.860 -0.6057  1.3086 -0.2252
  676SOL    HW2 2028   3.084   1.234   0.975  0.4283  1.4959 -2.2499
  677SOL     OW 2029   1.700   1.824   2.324  0.3694 -0.2873 -0.0607
  677SOL    HW1 2030   1.748   1.815   2.235  0.0054  1.6976 -2.6288
  677SOL    HW2 2031   1.655   1.739   2.357  1.4531  1.8528 -1.4356
  678SOL     OW 2032   2.704   1.580   0.844  0.3178  0.3742 -0.5588
  678SOL    HW1 2033   2.709   1.658   0.785 -1.8075 -0.7330 -1.4884
  678SOL    HW2 2034   2.687   1.608   0.940  0.6374  1.5585 -1.2669
  679SOL     OW 2035   0.592   2.810   0.609  0.3222  0.2162 -0.1445
  679SOL    HW1 2036   0.593   2.712   0.621  0.7747  3.1325  2.1527
  679SOL    HW2 2037   0.621   2.866   0.691 -0.8553  0.7927  2.6800
  680SOL     OW 2038   0.053   1.851   1.137 -0.6141  0.3348  0.1057
  680SOL    HW1 2039   0.003   1.886   1.057 -0.6233  0.8807  0.9357
  680SOL    HW2 2040   0.043   1.750   1.149  2.8349 -0.9005  0.2114
  681SOL     OW 2041   0.970   0.493   1.095  0.3252  0.6439  0.0183
  681SOL    HW1 2042   0.952   0.393   1.114 -0.0811 -1.0418  1.5127
  681SOL    HW2 2043   1.066   0.501   1.060  1.8113  0.9781  2.1915
  682SOL     OW 2044   1.519   2.754   1.524 -0.0199 -0.0828  0.9060
  682SOL    HW1 2045   1.478   2.753   1.615  1.5382 -0.8508  1.1502
  682SOL    HW2 2046   1.607   2.803   1.539  1.7318 -3.3091  1.0749
  683SOL     OW 2047   2.489   1.463   1.578 -0.5943 -0.1567  0.4183
  683SOL    HW1 2048   2.492   1.378   1.640 -0.3370 -0.7085  1.9539
  683SOL    HW2 2049   2.585   1.482   1.542  0.9664 -0.9794 -1.6424
  684SOL     OW 2050   0.168   1.602   1.740 -0.5309 -0.4544  0.0786
  684SOL    HW1 2051   0.144   1.517   1.687 -1.1756  0.4406 -0.7999
  684SOL    HW2 2052   0.252   1.579   1.788  1.9649 -2.7274  2.6903
  685SOL     OW 2053   1.981   1.806   0.231 -0.1340 -0.2933  0.3104
  685SOL    HW1 2054   2.006   1.903   0.228  0.1737 -2.9524 -1.2782
  685SOL    HW2 2055   2.045   1.753   0.174 -1.1132  0.1132  1.1523
  686SOL     OW 2056   0.155   0.717   1.201  0.4459  0.2375  0.6426
  686SOL    HW1 2057   0.176   0.792   1.135 -3.9129 -0.6302  1.4570
  686SOL    HW2 2058   0.104   0.639   1.160  0.6923 -0.1530  0.3716
  687SOL     OW 2059   1.832   0.036   2.598 -0.1355 -0.6078 -0.5817
  687SOL    HW1 2060   1.882   0.102   2.659 -0.8321 -1.5912 -0.3075
  687SOL    HW2 2061   1.791   0.084   2.519  1.5039 -2.8439 -0.4354
  688SOL     OW 2062   1.229   2.164   2.572  0.0342 -0.4274  0.3132
  688SOL    HW1 2063   1.260   2.086   2.520 -1.4737  0.4376  0.5299
  688SOL    HW2 2064   1.152   2.131   2.630  0.1128  0.3034 -1.9606
  689SOL     OW 2065   2.156   1.288   1.845  0.7097  0.2339  0.6318
  689SOL    HW1 2066   2.256   1.265   1.870  1.0378  0.2035  0.1219
  689SOL    HW2 2067   2.087   1.228   1.885  1.6947 -1.3443 -1.5626
  690SOL     OW 2068   2.004   2.017   1.381  0.4390  0.4792 -0.4364
  690SOL    HW1 2069   1.924   2.055   1.430 -1.0162 -0.4865 -0.3043
  690SOL    HW2 2070   2.081   2.006   1.440  0.0521 -1.1590 -0.0160
  691SOL     OW 2071   0.344   1.634   0.453  0.1038  0.2610  0.2773
  691SOL    HW1 2072   0.427   1.677   0.491  0.4728 -0.3630 -0.2335
  691SOL    HW2 2073   0.319   1.553   0.509  0.2830  1.4399  0.9773
  692SOL     OW 2074   2.929   2.923   2.601  0.3109  0.2464  0.1740
  692SOL    HW1 2075   2.843   2.938   2.651  2.7796  0.1602  2.3892
  692SOL    HW2 2076   2.963   2.832   2.625 -2.3472  2.2342 -0.0308
  693SOL     OW 2077   3.005   1.427   2.287 -0.2661 -0.2082 -0.5006
  693SOL    HW1 2078   2.972   1.505   2.339 -1.0343 -2.9721 -0.0801
  693SOL    HW2 2079   0.001   1.446   2.229 -0.2695  0.1606 -0.8969
  694SOL     OW 2080   2.422   0.215   1.952 -0.2795  0.4404  0.4697
  694SOL    HW1 2081   2.410   0.240   1.857  1.4579 -0.7023  1.7836
  694SOL    HW2 2082   2.340   0.233   2.006 -0.4596 -0.1084 -2.5681
  695SOL     OW 2083   1.078   0.639   2.237 -0.5281  0.3600 -0.0969
  695SOL    HW1 2084   0.978   0.641   2.230  2.2180  1.4263  0.7821
  695SOL    HW2 2085   1.107   0.730   2.282  0.3473  0.8167 -1.3197
  696SOL     OW 2086   1.856   3.053   1.659  0.5464 -0.0431 -0.0042
  696SOL    HW1 2087   1.952   3.073   1.681 -2.6878  0.5321  0.5662
  696SOL    HW2 2088   1.811   2.992   1.728  0.3059 -0.2959  1.0452
  697SOL     OW 2089   1.468   0.362   2.086 -0.0210  0.1823 -0.2239
  697SOL    HW1 2090   1.483   0.400   2.177  0.5526  2.6129  1.6782
  697SOL    HW2 2091   1.547   0.397   2.028  3.4976  0.8203 -2.0516
  698SOL     OW 2092   2.107   1.629   2.462  0.2169  0.3139 -0.0866
  698SOL    HW1 2093   2.161   1.680   2.533  0.6412  1.1144  2.1142
  698SOL    HW2 2094   2.076   1.694   2.389 -0.1827  2.8096 -1.4451
  699SOL     OW 2095   2.257   0.700   0.158 -0.3543  0.2944 -0.1010
  699SOL    HW1 2096   2.181   0.752   0.198  0.9107  0.6154  0.0826
  699SOL    HW2 2097   2.332   0.764   0.141  0.0341 -0.2544 -0.3841
  700SOL     OW 2098   1.280   0.023   0.582 -0.2067  0.3277 -0.1896
  700SOL    HW1 2099   1.342   0.065   0.653  1.4477  2.9700  1.8856
  700SOL    HW2 2100   1.339   3.047   0.524  1.7955 -0.5521  1.6481
  701SOL     OW 2101   0.148   1.002   0.670 -0.1087 -0.2284 -0.2124
  701SOL    HW1 2102   0.152   0.939   0.589  1.7892 -0.8394 -0.1548
  701SOL    HW2 2103   0.100   1.088   0.643  3.2250  0.0015 -1.6095
  702SOL     OW 2104   1.816   0.264   1.948 -0.0207 -0.1650  0.1125
  702SOL    HW1 2105   1.824   0.223   2.042 -1.0539 -1.7996 -3.0135
  702SOL    HW2 2106   1.909   0.275   1.907 -0.4574 -0.7253  1.5988
  703SOL     OW 2107   3.077   1.050   1.106 -0.0179 -0.0055  0.2936
  703SOL    HW1 2108   2.988   0.999   1.086  3.3379  2.0003 -0.7687
  703SOL    HW2 2109   0.075   0.987   1.110 -0.4570  0.6125  0.9989
  704SOL     OW 2110   0.857   2.399   1.298 -0.0805 -0.2974  0.1046
  704SOL    HW1 2111   0.946   2.364   1.270  0.9946  0.1172 -3.0160
  704SOL    HW2 2112   0.840   2.492   1.261  0.3469 -0.4800 -2.5403
  705SOL     OW 2113   0.358   1.498   2.735  0.2104 -0.1370 -0.2850
  705SOL    HW1 2114   0.424   1.424   2.716  1.0439  0.9884  0.4799
  705SOL    HW2 2115   0.358   1.521   2.831 -1.5540 -0.6824 -2.6541
  706SOL     OW 2116   2.955   2.903   0.210  0.5343 -0.4429  0.1975
  706SOL    HW1 2117   2.854   2.910   0.186 -0.1245  1.0444  1.3619
  706SOL    HW2 2118   2.968   2.945   0.303 -0.2926  0.7732 -0.5732
  707SOL     OW 2119   1.465   2.907   2.136  0.2183 -0.3569 -0.0635
  707SOL    HW1 2120   1.507   2.995   2.160 -1.3479  0.3695  2.0137
  707SOL    HW2 2121   1.463   2.887   2.039  1.1994 -1.1992 -0.7062
  708SOL     OW 2122   0.269   2.727   1.748 -0.4886 -0.4099  0.1238
  708SOL    HW1 2123   0.342   2.774   1.693  0.6897 -0.0528 -1.3405
  708SOL    HW2 2124   0.296   2.629   1.758  3.0973  0.8394  2.4674
  709SOL     OW 2125   2.937   0.576   1.763  0.8706  0.4883  0.8036
  709SOL    HW1 2126   2.983   0.655   1.716 -1.2325 -0.7239 -0.1508
  709SOL    HW2 2127   2.942   0.585   1.861  0.2461 -0.2825  1.5041
  710SOL     OW 2128   0.326   1.073   0.874 -0.2804  0.0559  0.6398
  710SOL    HW1 2129   0.382   1.152   0.845  0.7309  1.2042 -0.5806
  710SOL    HW2 2130   0.271   1.040   0.798 -0.2758 -1.2576 -2.3435
  711SOL     OW 2131   2.682   2.811   1.265 -0.6540  0.2842 -0.4572
  711SOL    HW1 2132   2.625   2.793   1.346  0.2156 -0.9556  0.6937
  711SOL    HW2 2133   2.642   2.890   1.212 -1.0839 -2.8898  0.4523
  712SOL     OW 2134   0.195   2.639   2.556  0.0434 -0.1771 -0.3708
  712SOL    HW1 2135   0.234   2.669   2.645  0.5271 -0.4969  1.5908
  712SOL    HW2 2136   0.097   2.656   2.553 -1.0032  0.7857 -2.6298
  713SOL     OW 2137   2.567   0.358   0.684 -0.1224  0.3523 -0.3188
  713SOL    HW1 2138   2.474   0.326   0.665  1.0483 -1.0512 -0.6963
  713SOL    HW2 2139   2.585   0.429   0.613  0.2527 -1.6874  1.5549
  714SOL     OW 2140   1.582   1.972   2.665  0.1505 -0.0241  0.1769
  714SOL    HW1 2141   1.503   1.939   2.607 -0.3992  0.0104  1.6974
  714SOL    HW2 2142   1.669   1.939   2.620 -1.6820  0.4713  1.4576
  715SOL     OW 2143   0.056   0.582   0.835 -0.3067  0.4863 -0.3673
  715SOL    HW1 2144   0.063   0.551   0.930  2.1909  1.3179  0.9380
  715SOL    HW2 2145   0.014   0.510   0.773 -0.3449 -0.2346  2.5491
  716SOL     OW 2146   0.775   0.658   1.543  0.1021  0.2957 -0.1591
  716SOL    HW1 2147   0.867   0.687   1.566  0.7907 -1.1799 -1.1225
  716SOL    HW2 2148   0.713   0.717   1.602  0.8581  2.4473  2.5302
  717SOL     OW 2149   0.824   0.396   2.538  0.2922 -0.0066 -0.3536
  717SOL    HW1 2150   0.802   0.299   2.552  2.4717  3.2279  0.3965
  717SOL    HW2 2151   0.741   0.449   2.520 -1.4469  2.2857  1.4355
  718SOL     OW 2152   1.341   0.295   0.355  0.6082 -0.9967 -0.2002
  718SOL    HW1 2153   1.376   0.301   0.258  0.7264  1.9702 -1.0063
  718SOL    HW2 2154   1.323   0.198   0.380 -0.7584  2.9477  0.1543
  719SOL     OW 2155   2.919   2.198   2.514 -0.4509 -0.1882  0.1824
  719SOL    HW1 2156   2.859   2.171   2.441  1.2409 -1.1942  1.4270
  719SOL    HW2 2157   2.902   2.293   2.548 -4.7066  1.2467  0.3703
  720SOL     OW 2158   1.145   0.501   1.346 -0.1813 -0.0996  0.3762
  720SOL    HW1 2159   1.127   0.591   1.388 -2.3127  0.9800 -1.2653
  720SOL    HW2 2160   1.086   0.486   1.265  2.8000  0.2128 -0.8091
  721SOL     OW 2161   2.975   2.916   1.019 -0.2043 -0.4709 -0.1874
  721SOL    HW1 2162   3.035   2.887   0.939 -0.7510 -0.2499 -2.9268
  721SOL    HW2 2163   2.988   2.849   1.096  2.0763  0.3308  0.7654
  722SOL     OW 2164   1.004   1.425   2.800  0.4859  0.3575  0.7845
  722SOL    HW1 2165   0.924   1.369   2.832 -1.1980 -1.2707 -0.2945
  722SOL    HW2 2166   0.990   1.527   2.812  0.4488  4.1902  1.0984
  723SOL     OW 2167   2.411   0.590   1.189 -0.1056 -0.3699 -0.5135
  723SOL    HW1 2168   2.511   0.607   1.158 -0.9414 -0.1549  1.3343
  723SOL    HW2 2169   2.363   0.678   1.186  0.5181 -5.3587 -0.4429
  724SOL     OW 2170   0.857   1.948   0.363  0.0098 -0.2868 -0.0902
  724SOL    HW1 2171   0.784   1.956   0.292  3.1878  0.7159 -2.2397
  724SOL    HW2 2172   0.915   1.865   0.349 -0.8874 -1.6487  0.5112
  725SOL     OW 2173   0.366   1.176   1.654  0.1325 -0.4767 -0.9667
  725SOL    HW1 2174   0.269   1.150   1.672  0.6407 -1.0409  1.8011
  725SOL    HW2 2175   0.409   1.118   1.582 -1.6909  1.5544  0.6644
  726SOL     OW 2176   2.519   1.130   2.841  0.0138  0.1609  0.0093
  726SOL    HW1 2177   2.561   1.039   2.859  1.4530  0.0719 -1.0332
  726SOL    HW2 2178   2.422   1.119   2.805  2.5022  1.4143 -4.1005
  727SOL     OW 2179   1.909   1.264   2.570 -0.0142  0.0432  0.0097
  727SOL    HW1 2180   1.885   1.322   2.487 -1.1646 -0.6013  0.1332
  727SOL    HW2 2181   1.881   1.166   2.564 -0.8043  1.7676  0.7584
  728SOL     OW 2182   1.477   2.541   1.351  0.3160  0.5793 -0.3933
  728SOL    HW1 2183   1.486   2.631   1.405  0.3203  2.3346 -0.7971
  728SOL    HW2 2184   1.471   2.468   1.426 -2.4766 -0.6921  0.9444
  729SOL     OW 2185   1.986   0.817   2.269 -0.1466  0.0800 -0.4282
  729SOL    HW1 2186   2.021   0.872   2.351  1.6847 -0.6850  1.4782
  729SOL    HW2 2187   1.905   0.866   2.232 -2.4846  1.7783 -0.3737
  730SOL     OW 2188   0.922   0.740   1.058 -0.3295  0.1503  0.3529
  730SOL    HW1 2189   0.998   0.773   1.002  1.7331  0.8347 -1.4970
  730SOL    HW2 2190   0.927   0.639   1.078  2.0340  2.5046  0.7830
  731SOL     OW 2191   0.844   0.352   2.935 -0.0612 -0.3212  0.3002
  731SOL    HW1 2192   0.903   0.398   2.863 -0.2619  1.8742  0.1297
  731SOL    HW2 2193   0.754   0.398   2.939  1.8504 -1.1913  1.0379
  732SOL     OW 2194   0.523   0.615   0.273 -0.2636 -0.4906 -0.0351
  732SOL    HW1 2195   0.515   0.547   0.342  1.7112 -0.4555  0.0376
  732SOL    HW2 2196   0.618   0.649   0.273 -0.4416  1.1510  0.2479
  733SOL     OW 2197   1.610   1.608   2.480  0.3626  0.6413 -0.2354
  733SOL    HW1 2198   1.557   1.631   2.560 -0.6405 -1.5471  2.4697
  733SOL    HW2 2199   1.576   1.519   2.441  1.7942 -0.8814 -2.4372
  734SOL     OW 2200   0.386   2.108   2.821 -0.6310  0.0003 -0.1698
  734SOL    HW1 2201   0.361   2.116   2.922  2.2300 -0.2254  2.5460
  734SOL    HW2 2202   0.390   2.199   2.777  0.3036  2.9124  0.4744
  735SOL     OW 2203   2.361   0.470   0.942 -0.4317 -0.8810  0.3989
  735SOL    HW1 2204   2.304   0.503   0.863 -2.1569 -1.0063  0.0263
  735SOL    HW2 2205   2.347   0.520   1.030 -1.2077 -0.4123  2.2036
  736SOL     OW 2206   1.874   1.628   2.595 -0.0615 -0.1895  0.5580
  736SOL    HW1 2207   1.803   1.585   2.529 -0.8754 -0.5196 -2.2797
  736SOL    HW2 2208   1.961   1.630   2.543 -0.8290 -0.1097 -0.1136
  737SOL     OW 2209   2.940   0.666   0.462  0.3716  0.0623 -0.1921
  737SOL    HW1 2210   2.887   0.670   0.371 -0.2019  2.8536 -0.9471
  737SOL    HW2 2211   3.035   0.704   0.446 -0.0735  0.3074 -2.2026
  738SOL     OW 2212   0.749   2.146   1.816 -1.0173 -0.1039 -0.0223
  738SOL    HW1 2213   0.837   2.201   1.808 -1.3303  0.8650  0.0935
  738SOL    HW2 2214   0.694   2.161   1.732  1.4565 -1.0564 -0.7884
  739SOL     OW 2215   1.095   2.752   2.148 -0.3294 -0.0452 -0.1418
  739SOL    HW1 2216   1.147   2.781   2.063  3.7764  3.0995 -0.4895
  739SOL    HW2 2217   1.024   2.822   2.170  0.6073 -0.2129  0.3508
  740SOL     OW 2218   1.740   2.495   1.295  0.0395  0.1761  0.0055
  740SOL    HW1 2219   1.645   2.535   1.296  2.6160 -1.9847 -1.3331
  740SOL    HW2 2220   1.770   2.474   1.394  0.0098 -2.0626  4.1432
  741SOL     OW 2221   2.229   0.284   0.375  0.1649  0.3783  0.2397
  741SOL    HW1 2222   2.134   0.307   0.343 -1.0593  1.6310  0.8951
  741SOL    HW2 2223   2.293   0.357   0.334  1.4486  4.2799 -0.3575
  742SOL     OW 2224   1.036   2.584   3.016  0.0149 -0.0399 -0.4756
  742SOL    HW1 2225   1.010   2.541   2.927 -1.5269  1.8486 -0.8314
  742SOL    HW2 2226   1.057   2.517   0.003 -1.4451  0.6613  0.7032
  743SOL     OW 2227   2.448   1.015   2.100 -0.1473 -0.3796  0.3047
  743SOL    HW1 2228   2.491   1.028   2.190  1.6484  0.6644  0.5587
  743SOL    HW2 2229   2.513   0.957   2.047 -1.0807 -1.2486  0.6918
  744SOL     OW 2230   2.572   0.723   0.733 -0.3468 -0.1800 -0.6561
  744SOL    HW1 2231   2.544   0.660   0.660  1.6326  1.9523  2.9282
  744SOL    HW2 2232   2.663   0.765   0.705  1.7785 -2.1209  1.2961
  745SOL     OW 2233   2.551   1.043   1.523 -0.3410  0.4462 -0.2478
  745SOL    HW1 2234   2.569   0.963   1.585 -0.1157  3.3149  2.9510
  745SOL    HW2 2235   2.524   1.128   1.583 -0.5959  1.7515  3.2095
  746SOL     OW 2236   1.387   1.494   0.661 -0.4863 -0.3717 -0.0571
  746SOL    HW1 2237   1.333   1.565   0.708  0.4363  3.5901 -1.4160
  746SOL    HW2 2238   1.371   1.510   0.566 -0.9797 -0.9795  4.3154
  747SOL     OW 2239   1.201   1.551   1.500  0.5910  0.2232  0.2388
  747SOL    HW1 2240   1.188   1.563   1.603  0.2057  0.1849 -1.1480
  747SOL    HW2 2241   1.206   1.645   1.450 -0.1205 -1.0799 -0.0875
  748SOL     OW 2242   0.276   2.795   0.054  0.1917  0.6227  0.2930
  748SOL    HW1 2243   0.304   2.875   0.000 -0.0157 -1.3935 -0.1075
  748SOL    HW2 2244   0.325   2.707   0.031  1.1569  2.7759  0.1015
  749SOL     OW 2245   0.172   0.986   2.662 -0.0179  0.1856  0.2794
  749SOL    HW1 2246   0.152   1.008   2.561 -0.1179  1.7727 -1.1489
  749SOL    HW2 2247   0.087   0.952   2.710  0.5301  0.0551  0.5947
  750SOL     OW 2248   1.728   1.030   1.876  0.0009 -0.2364 -0.3977
  750SOL    HW1 2249   1.661   1.021   1.798 -1.4881 -3.0232  0.5561
  750SOL    HW2 2250   1.719   0.945   1.933  0.9878  1.0213 -0.8454
  751SOL     OW 2251   2.769   0.668   0.159  0.1411 -0.1033 -0.2932
  751SOL    HW1 2252   2.738   0.582   0.203  1.0856 -0.1762 -2.5795
  751SOL    HW2 2253   2.747   0.749   0.218 -1.9589 -0.1978 -0.1852
  752SOL     OW 2254   2.974   2.723   1.205  0.0674 -0.0813 -0.7659
  752SOL    HW1 2255   3.021   2.714   1.295  2.6234  0.1050  0.3150
  752SOL    HW2 2256   2.877   2.747   1.226 -1.9525  1.0281 -0.5025
  753SOL     OW 2257   0.764   2.159   1.398  0.6594 -0.3217  0.1439
  753SOL    HW1 2258   0.810   2.240   1.352  1.2305  0.6034 -1.4598
  753SOL    HW2 2259   0.743   2.179   1.498 -2.1885  0.1533  1.6050
  754SOL     OW 2260   0.044   2.829   2.243 -0.2132  0.3076  0.1154
  754SOL    HW1 2261   3.033   2.805   2.269 -1.6784 -2.0280 -4.0340
  754SOL    HW2 2262   0.053   2.912   2.184  0.1823  1.0410  1.7926
  755SOL     OW 2263   2.554   0.572   0.518 -0.3744 -0.2026 -0.2824
  755SOL    HW1 2264   2.627   0.559   0.446  0.2340  0.9048 -0.4383
  755SOL    HW2 2265   2.467   0.614   0.479 -0.6368  0.7928 -0.7550
  756SOL     OW 2266   2.372   2.429   2.880 -0.1018  0.2419  0.0959
  756SOL    HW1 2267   2.401   2.510   2.825 -1.3620 -0.8772  2.3615
  756SOL    HW2 2268   2.329   2.467   2.964  1.5318  2.8025  2.0217
  757SOL     OW 2269   2.267   0.545   0.674  0.2644 -0.5173 -1.1392
  757SOL    HW1 2270   2.297   0.605   0.602 -1.2296  0.2612  0.7752
  757SOL    HW2 2271   2.273   0.451   0.648 -1.5706  0.1107  1.0624
  758SOL     OW 2272   2.371   0.849   1.665  0.2008  0.3749  0.0360
  758SOL    HW1 2273   2.343   0.908   1.589 -1.1635 -0.5436 -0.8236
  758SOL    HW2 2274   2.471   0.823   1.667  0.6864  1.0527  0.0468
  759SOL     OW 2275   2.648   0.681   1.096 -0.0557 -0.0391  0.1145
  759SOL    HW1 2276   2.649   0.782   1.075  0.9477 -0.0711 -0.8854
  759SOL    HW2 2277   2.629   0.636   1.007 -0.1497  2.2868  2.4147
  760SOL     OW 2278   2.842   1.521   1.238  0.2226  0.2227  0.4364
  760SOL    HW1 2279   2.841   1.421   1.214  1.1302 -0.1947  0.8380
  760SOL    HW2 2280   2.777   1.576   1.180  2.3068  0.6708 -0.8187
  761SOL     OW 2281   1.067   0.794   0.376 -0.4532 -0.0802  0.0692
  761SOL    HW1 2282   1.098   0.850   0.299 -0.5254 -1.1258  1.2700
  761SOL    HW2 2283   1.132   0.716   0.404  3.2808 -5.2496  0.9243
  762SOL     OW 2284   0.782   1.688   0.728 -0.3859  0.3053  0.8031
  762SOL    HW1 2285   0.767   1.785   0.690 -1.3405  0.9882  0.8508
  762SOL    HW2 2286   0.709   1.627   0.687 -0.0480  0.5541  0.0108
  763SOL     OW 2287   1.076   0.792   1.391  0.1927  0.1687 -0.6480
  763SOL    HW1 2288   1.085   0.849   1.478  3.1287  2.0318  0.5791
  763SOL    HW2 2289   1.035   0.851   1.313 -2.3752  3.0879  0.1493
  764SOL     OW 2290   0.577   1.912   2.794 -0.3451 -0.5240  0.0293
  764SOL    HW1 2291   0.596   1.884   2.699  0.4720 -1.0181  0.7508
  764SOL    HW2 2292   0.500   1.979   2.801 -0.0984 -0.1627  0.3029
  765SOL     OW 2293   0.521   2.774   1.633 -0.3795  0.5639 -0.5211
  765SOL    HW1 2294   0.521   2.670   1.619  0.7770 -1.2006 -0.2483
  765SOL    HW2 2295   0.543   2.809   1.541 -1.3257 -2.0760 -1.1593
  766SOL     OW 2296   2.499   1.793   2.301 -0.1521  0.1980 -0.0761
  766SOL    HW1 2297   2.515   1.845   2.386 -1.9393  1.7152 -0.8331
  766SOL    HW2 2298   2.556   1.706   2.290  1.9784 -3.8259  2.8506
  767SOL     OW 2299   1.504   1.066   2.271 -0.0660 -0.5498  0.4349
  767SOL    HW1 2300   1.438   0.988   2.278 -2.2193 -0.4962 -1.3979
  767SOL    HW2 2301   1.467   1.138   2.208  0.4771 -1.3353  0.2973
  768SOL     OW 2302   1.545   1.876   0.161  0.5140  0.2401 -0.3158
  768SOL    HW1 2303   1.478   1.833   0.225 -2.3942 -1.0313 -0.5672
  768SOL    HW2 2304   1.629   1.819   0.135  2.6113  1.2386  0.2899
  769SOL     OW 2305   0.625   1.401   0.899 -0.2779 -0.2750 -0.2115
  769SOL    HW1 2306   0.669   1.468   0.958 -0.9113 -1.3983 -1.8714
  769SOL    HW2 2307   0.683   1.326   0.865 -2.3385 -0.4598  0.2736
  770SOL     OW 2308   1.381   0.807   2.407  0.9373 -0.1616 -0.7203
  770SOL    HW1 2309   1.447   0.845   2.477 -1.1273  1.3847  1.3041
  770SOL    HW2 2310   1.413   0.735   2.347 -1.9083  1.4054  2.8524
  771SOL     OW 2311   2.927   3.009   2.354  0.7606 -0.2714  0.0783
  771SOL    HW1 2312   2.932   2.999   2.457  0.1590 -1.4727  1.0392
  771SOL    HW2 2313   2.876   2.924   2.317 -2.7346 -1.8727 -2.0214
  772SOL     OW 2314   2.078   1.833   2.275  0.2091  0.1415 -0.5889
  772SOL    HW1 2315   2.009   1.857   2.204  1.1555 -0.3069 -1.0803
  772SOL    HW2 2316   2.174   1.832   2.238 -0.3700 -0.3577  2.9923
  773SOL     OW 2317   0.411   1.720   1.409  0.5380  0.5046 -0.0446
  773SOL    HW1 2318   0.473   1.770   1.468 -1.9698 -0.7629 -2.9845
  773SOL    HW2 2319   0.397   1.626   1.447 -1.1206  0.8768 -0.9264
  774SOL     OW 2320   1.235   0.694   2.898  0.0421 -0.7553  0.0988
  774SOL    HW1 2321   1.144   0.693   2.854 -0.4157 -1.2565  0.2195
  774SOL    HW2 2322   1.234   0.627   2.976  0.4779 -0.2950  0.5705
  775SOL     OW 2323   1.903   2.644   0.139 -0.2561 -0.3299  0.4351
  775SOL    HW1 2324   1.804   2.663   0.153 -1.9938  0.6888  0.0361
  775SOL    HW2 2325   1.944   2.672   0.047 -0.0641  0.0814 -1.8274
  776SOL     OW 2326   0.170   0.631   1.780  0.4122  0.1223  0.2594
  776SOL    HW1 2327   0.156   0.531   1.785 -0.3581  2.4881 -1.3183
  776SOL    HW2 2328   0.099   0.670   1.715  0.1695  1.5898 -2.0709
  777SOL     OW 2329   2.308   1.836   2.128 -0.1053  0.3914  0.7088
  777SOL    HW1 2330   2.374   1.824   2.204 -2.4595 -2.2612  0.4618
  777SOL    HW2 2331   2.313   1.923   2.082 -0.5306  0.6635  1.7232
  778SOL     OW 2332   1.747   0.963   2.265 -0.3221  0.9255  0.3510
  778SOL    HW1 2333   1.657   1.006   2.260  3.4030 -0.0965 -1.0040
  778SOL    HW2 2334   1.813   1.020   2.214  0.4208 -0.0694  0.0056
  779SOL     OW 2335   2.838   1.002   3.042 -0.4760 -0.3026 -0.0301
  779SOL    HW1 2336   2.897   0.924   3.072  1.1884  0.1888 -1.8258
  779SOL    HW2 2337   2.898   1.068   2.991  1.4138  1.4840 -1.5511
  780SOL     OW 2338   2.328   0.151   2.674 -0.0861 -0.0118  0.3030
  780SOL    HW1 2339   2.386   0.132   2.755 -1.4217  0.6245 -3.4610
  780SOL    HW2 2340   2.319   0.253   2.676  2.1307 -0.3663  0.2902
  781SOL     OW 2341   0.109   1.839   1.654 -0.4696  0.0229  0.0991
  781SOL    HW1 2342   0.191   1.897   1.631  1.8769  1.9255 -0.0388
  781SOL    HW2 2343   0.128   1.743   1.682 -1.1595 -0.3751  1.6111
  782SOL     OW 2344   2.665   2.147   2.662  0.6614  0.5923 -0.3655
  782SOL    HW1 2345   2.732   2.224   2.664  1.9080 -0.4576  0.0037
  782SOL    HW2 2346   2.605   2.152   2.743  1.5047  2.2972 -0.3392
  783SOL     OW 2347   0.670   1.215   1.200  0.1462  0.4121 -0.2157
  783SOL    HW1 2348   0.680   1.229   1.300  1.2504 -0.3994  1.7166
  783SOL    HW2 2349   0.763   1.235   1.166 -1.7623  0.9263 -0.5563
  784SOL     OW 2350   2.420   0.728   2.962 -0.2531 -0.3451 -0.0415
  784SOL    HW1 2351   2.507   0.753   2.916 -2.2162  0.4687 -3.0137
  784SOL    HW2 2352   2.402   0.793   3.038 -0.1716  1.2699  2.0708
  785SOL     OW 2353   2.102   2.488   0.703  0.2680 -0.5866 -0.2676
  785SOL    HW1 2354   2.060   2.555   0.642  0.9799 -0.8341  2.3191
  785SOL    HW2 2355   2.163   2.426   0.654 -3.0538  2.7083  2.3651
  786SOL     OW 2356   0.476   2.149   2.500  0.1863 -0.8118  0.4291
  786SOL    HW1 2357   0.559   2.102   2.530 -1.7214 -0.6773  0.5842
  786SOL    HW2 2358   0.414   2.079   2.459 -2.6017  0.4407 -0.2333
  787SOL     OW 2359   1.361   0.343   1.329 -0.0031 -0.6061 -0.3310
  787SOL    HW1 2360   1.275   0.399   1.329  1.3738  0.6668 -0.5311
  787SOL    HW2 2361   1.440   0.403   1.297  3.1259  2.4900 -1.1044
  788SOL     OW 2362   0.344   0.850   0.307 -0.4717  0.0986 -0.6079
  788SOL    HW1 2363   0.408   0.767   0.313  1.2938 -2.7881 -0.6852
  788SOL    HW2 2364   0.291   0.851   0.218 -1.5845 -1.1333  4.0216
  789SOL     OW 2365   3.042   2.163   1.263  0.3324  0.4671 -0.0605
  789SOL    HW1 2366   3.046   2.071   1.309 -0.1420 -1.4639 -0.4350
  789SOL    HW2 2367   2.957   2.169   1.206  1.5839  0.4269 -0.9756
  790SOL     OW 2368   1.413   0.522   1.801  0.7588  0.6694  0.5198
  790SOL    HW1 2369   1.398   0.564   1.889  2.7877 -4.6938 -0.8719
  790SOL    HW2 2370   1.361   0.430   1.798 -1.3019 -1.3348 -1.4066
  791SOL     OW 2371   1.463   0.456   0.548 -0.0090  0.3777  0.2164
  791SOL    HW1 2372   1.446   0.546   0.519  0.9680 -3.6568  1.4092
  791SOL    HW2 2373   1.407   0.390   0.496  2.7332  2.0026 -1.3375
  792SOL     OW 2374   1.414   2.768   1.762  0.4432 -0.1484  0.1708
  792SOL    HW1 2375   1.314   2.784   1.769  0.5237  3.7152 -1.2667
  792SOL    HW2 2376   1.463   2.852   1.801 -2.4841 -0.3770 -1.0607
  793SOL     OW 2377   0.654   0.126   0.579 -0.2155 -0.6369 -0.6206
  793SOL    HW1 2378   0.696   0.137   0.488 -1.1531 -1.1995 -0.2801
  793SOL    HW2 2379   0.569   0.066   0.573 -1.6243  2.6194 -0.4596
  794SOL     OW 2380   0.583   0.965   2.331  0.3094 -0.4210  0.0122
  794SOL    HW1 2381   0.651   1.022   2.276 -0.2817 -0.9787  0.3563
  794SOL    HW2 2382   0.554   0.881   2.277  2.7944  0.5617 -0.0450
  795SOL     OW 2383   0.082   1.801   2.378  0.8431  0.2642 -0.2026
  795SOL    HW1 2384   0.025   1.774   2.299 -1.0493 -2.2179 -1.6128
  795SOL    HW2 2385   0.125   1.721   2.429  0.8562 -2.4548  2.7515
  796SOL     OW 2386   1.932   1.154   2.167  0.0632 -0.3721 -0.4736
  796SOL    HW1 2387   1.931   1.140   2.068 -0.5843 -1.7277  0.8817
  796SOL    HW2 2388   2.024   1.157   2.210  0.8393 -0.9074  1.0357
  797SOL     OW 2389   0.035   0.013   2.687  0.3142 -0.1151 -0.6037
  797SOL    HW1 2390   0.126   3.068   2.659 -1.9601  0.5145 -1.2716
  797SOL    HW2 2391   3.052   3.034   2.650 -0.4039  0.6748 -0.0599
  798SOL     OW 2392   2.950   2.007   2.018 -0.0080  0.0668  0.4367
  798SOL    HW1 2393   2.862   2.060   2.020  1.3408  1.1209  1.7208
  798SOL    HW2 2394   3.023   2.048   2.074 -1.3877  1.8401 -0.0775
  799SOL     OW 2395   0.101   2.142   2.932  0.0632  0.8014  0.0766
  799SOL    HW1 2396   0.109   2.233   2.896 -4.7012 -0.7191  0.9803
  799SOL    HW2 2397   0.022   2.100   2.889 -1.2865  0.2738  0.7736
  800SOL     OW 2398   1.251   1.948   0.728 -0.0173  0.2424 -0.1988
  800SOL    HW1 2399   1.245   1.914   0.629  2.7320 -0.1513 -1.2235
  800SOL    HW2 2400   1.348   1.973   0.755  2.0755 -0.2795  1.0275
  801SOL     OW 2401   2.034   0.675   0.784 -0.8054  0.3452  0.2237
  801SOL    HW1 2402   1.938   0.690   0.751  1.0368  0.7519 -0.8748
  801SOL    HW2 2403   2.069   0.583   0.764 -0.1352 -0.0839  0.9329
  802SOL     OW 2404   2.809   1.462   0.250 -0.0282  0.0982 -0.0642
  802SOL    HW1 2405   2.828   1.434   0.349  0.0028  0.5612 -0.3693
  802SOL    HW2 2406   2.891   1.492   0.199 -1.9787 -0.3609 -0.2208
  803SOL     OW 2407   1.286   1.796   2.901 -0.1095 -0.0339 -0.2528
  803SOL    HW1 2408   1.338   1.884   2.918  0.1976  0.7770 -0.3094
  803SOL    HW2 2409   1.197   1.811   2.850 -0.9015 -0.0251  1.4820
  804SOL     OW 2410   1.782   1.720   0.054  0.1922 -0.1584  0.1822
  804SOL    HW1 2411   1.850   1.772   0.107 -2.0007  0.0293 -1.9960
  804SOL    HW2 2412   1.779   1.754   3.044  0.9339 -0.6208  1.0518
  805SOL     OW 2413   2.487   1.627   2.907 -0.0695  0.2671  0.1392
  805SOL    HW1 2414   2.472   1.615   2.808 -0.3444  1.2735  3.1986
  805SOL    HW2 2415   2.479   1.534   2.946 -0.8547 -0.3822  0.0022
  806SOL     OW 2416   0.788   0.167   0.338 -0.2918  0.3551  0.3076
  806SOL    HW1 2417   0.823   0.249   0.286  2.4600  0.9944 -0.9330
  806SOL    HW2 2418   0.862   0.093   0.326  2.6106  0.9294  0.6048
  807SOL     OW 2419   2.095   1.303   2.776  0.8062 -0.1662 -0.1222
  807SOL    HW1 2420   2.035   1.368   2.825 -0.2939 -0.8722  1.2044
  807SOL    HW2 2421   2.048   1.285   2.684  0.4872 -0.3036 -1.7912
  808SOL     OW 2422   0.082   1.748   0.374 -0.8214  0.2667  0.0918
  808SOL    HW1 2423   0.173   1.706   0.410 -0.3853 -3.6944 -0.5161
  808SOL    HW2 2424   0.069   1.846   0.399 -1.4875 -2.1565  0.8617
  809SOL     OW 2425   2.668   0.845   2.823  0.2191 -0.1267 -0.0362
  809SOL    HW1 2426   2.724   0.819   2.737 -3.7385 -1.0646  1.4649
  809SOL    HW2 2427   2.726   0.860   2.904  0.4927 -0.5556 -0.7586
  810SOL     OW 2428   0.777   1.044   0.308  0.4966  0.3130 -0.1264
  810SOL    HW1 2429   0.858   1.033   0.248  0.2095  1.2611  2.5406
  810SOL    HW2 2430   0.697   1.006   0.257  1.6147  1.5110 -0.4112
  811SOL     OW 2431   1.186   2.528   1.144 -0.2815 -0.1338 -0.1118
  811SOL    HW1 2432   1.175   2.447   1.076  0.0982 -3.0091  1.0924
  811SOL    HW2 2433   1.272   2.577   1.127  0.1007 -2.4223  1.0115
  812SOL     OW 2434   0.554   2.514   1.561  0.2749  0.0146  0.1354
  812SOL    HW1 2435   0.526   2.487   1.469  0.5062  0.6685  0.4973
  812SOL    HW2 2436   0.502   2.474   1.637 -1.6576  0.7206  1.3083
  813SOL     OW 2437   1.233   0.246   2.038 -0.2320  0.1895  0.4476
  813SOL    HW1 2438   1.319   0.292   2.067  0.8808  2.2554 -0.5651
  813SOL    HW2 2439   1.171   0.226   2.116  0.6689  0.1651 -3.0551
  814SOL     OW 2440   1.533   2.509   2.820 -0.3385 -0.5200  0.0817
  814SOL    HW1 2441   1.632   2.520   2.814 -1.0535 -0.6741  0.5511
  814SOL    HW2 2442   1.501   2.467   2.732 -0.8548  0.2010 -2.4259
  815SOL     OW 2443   0.502   0.361   1.674  0.9320  0.0667  0.0583
  815SOL    HW1 2444   0.444   0.429   1.622 -0.6260  1.5783 -0.7873
  815SOL    HW2 2445   0.591   0.354   1.637 -0.5511  1.8610  0.6118
  816SOL     OW 2446   2.172   0.328   2.901  0.4942  0.3303 -0.0662
  816SOL    HW1 2447   2.243   0.355   2.832 -0.4567 -3.4329  0.5294
  816SOL    HW2 2448   2.142   0.404   2.959 -0.7674  1.0785  2.6149
  817SOL     OW 2449   2.044   0.373   2.547 -0.6286 -0.4880 -0.0537
  817SOL    HW1 2450   2.118   0.360   2.478 -1.0767 -1.3546 -1.1684
  817SOL    HW2 2451   2.038   0.287   2.601 -1.3129 -3.4322  1.8967
  818SOL     OW 2452   2.028   0.332   0.145 -0.1774  0.5950 -0.8771
  818SOL    HW1 2453   2.095   0.256   0.116  0.3923 -0.9735  0.7004
  818SOL    HW2 2454   2.035   0.421   0.095 -0.5051  0.6667 -0.1715
  819SOL     OW 2455   2.317   1.824   3.001  0.2794 -0.1569 -0.0388
  819SOL    HW1 2456   2.389   1.874   3.056  0.8728  0.8401  3.8315
  819SOL    HW2 2457   2.364   1.755   2.942 -2.3403  1.1521 -0.4433
  820SOL     OW 2458   0.037   2.005   0.128 -0.0207  0.2016  0.1214
  820SOL    HW1 2459   0.083   2.087   0.165  1.5277  2.4086 -0.3351
  820SOL    HW2 2460   3.048   1.973   0.187  0.4360  0.7450  0.7219
  821SOL     OW 2461   0.166   2.458   1.007  0.2044  0.5829 -0.0517
  821SOL    HW1 2462   0.154   2.358   1.004  1.2355 -0.6647 -0.9875
  821SOL    HW2 2463   0.199   2.491   1.094  2.1780  3.1533  0.7160
  822SOL     OW 2464   2.543   2.635   2.767  0.3342  0.7081 -0.1790
  822SOL    HW1 2465   2.508   2.726   2.750 -0.1489 -3.1881 -0.3787
  822SOL    HW2 2466   2.528   2.587   2.677  0.8723 -0.6423  1.6295
  823SOL     OW 2467   1.709   0.206   2.412  0.0236 -0.3434 -0.4513
  823SOL    HW1 2468   1.607   0.189   2.394 -0.4155  1.3880  1.3960
  823SOL    HW2 2469   1.730   0.303   2.446  2.7173  2.9372  1.1151
  824SOL     OW 2470   2.760   1.929   1.391 -0.0941  0.4675 -0.2994
  824SOL    HW1 2471   2.696   1.998   1.350 -0.9961  0.9043  2.2389
  824SOL    HW2 2472   2.860   1.942   1.361 -0.9514  1.0229 -0.2159
  825SOL     OW 2473   2.632   1.871   2.578  0.6592 -0.1404  0.8713
  825SOL    HW1 2474   2.648   1.969   2.606  0.0983 -0.3920 -0.6051
  825SOL    HW2 2475   2.698   1.857   2.503 -0.3971 -0.9861  1.1124
  826SOL     OW 2476   2.398   1.416   2.152  0.6771  0.3106 -0.2430
  826SOL    HW1 2477   2.376   1.402   2.251 -2.3662 -4.1806  2.7234
  826SOL    HW2 2478   2.492   1.454   2.137  2.3921  0.3214  0.4595
  827SOL     OW 2479   2.029   2.079   1.107  0.2676  0.0947  0.3242
  827SOL    HW1 2480   1.980   2.168   1.101 -2.3664 -2.1501 -2.4509
  827SOL    HW2 2481   2.028   2.035   1.199 -0.7128  0.5689 -2.2289
  828SOL     OW 2482   2.511   2.734   1.462  0.2970  0.0823 -0.4593
  828SOL    HW1 2483   2.490   2.633   1.441  0.9142 -0.5764 -0.0822
  828SOL    HW2 2484   2.448   2.805   1.425 -1.4385  0.8104  1.5523
  829SOL     OW 2485   1.698   2.358   2.484 -0.0866  0.5462 -0.5469
  829SOL    HW1 2486   1.615   2.315   2.518  0.2480  0.0538 -2.9005
  829SOL    HW2 2487   1.743   2.298   2.416  0.7609  0.6202  1.1588
  830SOL     OW 2488   1.581   0.573   0.753  0.0791 -0.5732  0.2754
  830SOL    HW1 2489   1.539   0.513   0.685 -0.5385  0.8661  2.7994
  830SOL    HW2 2490   1.540   0.544   0.843  1.1440  1.4170  0.1739
  831SOL     OW 2491   2.506   1.360   2.965 -0.5210  0.0905  0.1482
  831SOL    HW1 2492   2.531   1.350   3.065 -1.8881  1.2830 -0.2348
  831SOL    HW2 2493   2.522   1.270   2.923 -2.7296  0.5541  2.5760
  832SOL     OW 2494   1.466   1.940   1.975 -0.1113 -0.3064  0.2588
  832SOL    HW1 2495   1.533   1.865   1.946  0.1645 -1.4782 -1.1139
  832SOL    HW2 2496   1.477   1.945   2.077 -0.0249 -0.9399  0.5132
  833SOL     OW 2497   2.837   2.773   2.224  0.0749  0.3884  0.0874
  833SOL    HW1 2498   2.847   2.672   2.211 -0.3058 -3.1083 -0.3791
  833SOL    HW2 2499   2.756   2.808   2.178 -1.2508  0.9034 -1.6987
  834SOL     OW 2500   0.838   1.002   1.742 -0.0565  0.3023 -0.0039
  834SOL    HW1 2501   0.940   0.996   1.750  2.7659 -3.8590  1.1171
  834SOL    HW2 2502   0.813   1.006   1.644  0.4852  0.3830  0.7612
  835SOL     OW 2503   2.889   0.649   2.650  0.2265  0.5529  0.0415
  835SOL    HW1 2504   2.945   0.686   2.572  1.3270  1.1080 -0.8157
  835SOL    HW2 2505   2.858   0.556   2.635  1.7254  0.1846  2.0672
  836SOL     OW 2506   1.127   1.998   0.944  0.8677  0.1839  0.1576
  836SOL    HW1 2507   1.168   1.931   1.008 -0.2247  0.8097 -1.6868
  836SOL    HW2 2508   1.156   1.985   0.845 -0.2874  0.2099 -0.0609
  837SOL     OW 2509   1.865   1.247   1.224  0.1317  0.2064  0.0070
  837SOL    HW1 2510   1.839   1.225   1.321  1.2680  0.5694 -0.1942
  837SOL    HW2 2511   1.958   1.283   1.234 -4.2595 -1.4658 -0.6844
  838SOL     OW 2512   1.142   1.793   2.490 -0.5861 -0.5584 -0.3340
  838SOL    HW1 2513   1.180   1.702   2.478  0.0619 -1.3154  0.1781
  838SOL    HW2 2514   1.121   1.819   2.584  1.0588  0.3945 -0.3014
  839SOL     OW 2515   0.775   2.062   2.874  0.6654  0.0306 -0.0381
  839SOL    HW1 2516   0.693   2.003   2.866  0.2351  2.0320  0.2609
  839SOL    HW2 2517   0.745   2.137   2.940 -0.5045  0.4411  0.9984
  840SOL     OW 2518   0.441   2.597   3.050 -0.0770  0.4877  0.0040
  840SOL    HW1 2519   0.391   2.507   3.046  2.5361  1.1584 -0.9803
  840SOL    HW2 2520   0.533   2.590   3.014  0.4234  1.2231 -3.3416
  841SOL     OW 2521   1.994   2.356   0.147 -0.1253  0.0458 -0.4107
  841SOL    HW1 2522   2.006   2.299   0.064  0.3837 -1.0632  1.6159
  841SOL    HW2 2523   1.976   2.454   0.125  0.2607  2.2491  0.0147
  842SOL     OW 2524   0.977   0.728   2.804 -0.0036 -0.1148 -0.4433
  842SOL    HW1 2525   0.926   0.786   2.872 -0.2246  0.5007 -0.2733
  842SOL    HW2 2526   1.027   0.795   2.742  3.5776  3.2975 -2.2422
  843SOL     OW 2527   1.037   2.882   0.684 -0.3920 -0.2513  0.4445
  843SOL    HW1 2528   1.002   2.975   0.677  0.4687 -2.9641  0.7943
  843SOL    HW2 2529   0.993   2.842   0.768 -1.7629  2.4566  1.1514
  844SOL     OW 2530   2.234   3.006   2.486 -0.1827  0.4919  0.5654
  844SOL    HW1 2531   2.266   3.084   2.538  3.3797  0.5878 -0.4597
  844SOL    HW2 2532   2.213   2.929   2.547 -2.3844 -0.2179  0.7584
  845SOL     OW 2533   2.501   2.466   1.406  0.2612  0.4501 -0.9557
  845SOL    HW1 2534   2.401   2.448   1.404  2.0533 -1.5762 -0.1812
  845SOL    HW2 2535   2.529   2.447   1.313  0.5900  2.0352 -0.0601
  846SOL     OW 2536   3.079   1.785   2.682  0.4250 -0.4785 -0.2457
  846SOL    HW1 2537   0.011   1.734   2.594 -1.4413  0.3738 -0.2685
  846SOL    HW2 2538   0.008   1.722   2.761 -4.2468  1.3481 -2.2206
  847SOL     OW 2539   1.497   0.676   1.572 -0.2654  0.2009 -0.1513
  847SOL    HW1 2540   1.438   0.693   1.491 -0.5380 -0.1142  1.9367
  847SOL    HW2 2541   1.457   0.614   1.643 -2.2196 -0.8231  0.7682
  848SOL     OW 2542   2.828   0.233   0.241 -0.4179 -0.1050  0.3160
  848SOL    HW1 2543   2.825   0.157   0.169  1.3810 -0.1246  0.6380
  848SOL    HW2 2544   2.921   0.236   0.286 -2.6434 -1.2787  2.3730
  849SOL     OW 2545   0.601   0.135   2.913  0.1244 -0.4577  0.2833
  849SOL    HW1 2546   0.692   0.109   2.950  1.4576  0.0674 -2.3344
  849SOL    HW2 2547   0.540   0.165   2.988  1.0357  0.3092 -2.8756
  850SOL     OW 2548   0.804   2.551   0.946 -0.2129 -0.1526  0.4647
  850SOL    HW1 2549   0.808   2.481   0.871  2.1579  1.1106  0.7718
  850SOL    HW2 2550   0.851   2.638   0.920  0.1095  0.3356 -0.4614
  851SOL     OW 2551   2.557   0.185   2.218 -0.3281  0.0695 -0.2080
  851SOL    HW1 2552   2.537   0.284   2.216 -1.6108 -0.6049  1.7531
  851SOL    HW2 2553   2.649   0.166   2.174  0.5984 -1.2777  1.1545
  852SOL     OW 2554   1.814   1.355   2.306 -0.5133 -0.0637 -0.3237
  852SOL    HW1 2555   1.728   1.340   2.354  2.8581  1.2658 -1.2664
  852SOL    HW2 2556   1.847   1.274   2.251 -0.1391 -0.9269 -0.9302
  853SOL     OW 2557   2.660   2.719   0.836 -0.1739 -0.1388  0.5595
  853SOL    HW1 2558   2.740   2.658   0.818 -2.2007  2.0803  1.9810
  853SOL    HW2 2559   2.692   2.818   0.838 -0.6983  2.4175 -0.0032
  854SOL     OW 2560   2.294   0.811   1.133  0.2897 -0.3695  0.1529
  854SOL    HW1 2561   2.359   0.839   1.063 -1.1777 -0.1289 -0.2670
  854SOL    HW2 2562   2.225   0.747   1.094  1.4467  1.9412 -0.5123
  855SOL     OW 2563   1.432   2.250   0.564  0.4959  0.2479 -0.1441
  855SOL    HW1 2564   1.403   2.212   0.472  1.0127 -2.9726 -0.0179
  855SOL    HW2 2565   1.455   2.347   0.557 -0.7308  1.8120 -0.5847
  856SOL     OW 2566   2.921   0.338   2.979 -0.1256  0.0406 -0.3064
  856SOL    HW1 2567   2.941   0.315   2.880  2.5787  1.2330 -1.0406
  856SOL    HW2 2568   2.973   0.279   3.045 -3.2485  1.4612 -1.5272
  857SOL     OW 2569   1.546   2.988   1.872 -0.0659 -0.4434  0.4040
  857SOL    HW1 2570   1.638   2.946   1.859  2.7326 -0.3237  1.1622
  857SOL    HW2 2571   1.552   3.046   1.955 -0.8091 -2.4437 -0.2450
  858SOL     OW 2572   2.427   2.134   1.556  0.1181 -0.1222 -0.1720
  858SOL    HW1 2573   2.474   2.153   1.467  1.5805  1.7206  1.0259
  858SOL    HW2 2574   2.350   2.065   1.543  0.6845  1.3803  2.4737
  859SOL     OW 2575   1.466   2.244   1.184 -0.1421 -0.5348 -0.3894
  859SOL    HW1 2576   1.381   2.190   1.177  1.3749 -0.4487 -1.6189
  859SOL    HW2 2577   1.484   2.300   1.267 -0.0754  2.1123  4.0974
  860SOL     OW 2578   2.523   2.530   0.192  0.0918 -0.2499  0.0972
  860SOL    HW1 2579   2.623   2.545   0.165  0.9461 -2.0122  2.5468
  860SOL    HW2 2580   2.502   2.431   0.204  2.4231 -0.1852 -0.9755
  861SOL     OW 2581   1.447   2.581   1.085  0.0041  0.2283  0.5756
  861SOL    HW1 2582   1.446   2.563   1.186  0.1377  1.0386 -2.5257
  861SOL    HW2 2583   1.542   2.597   1.051  1.8363 -0.6717 -1.4370
  862SOL     OW 2584   1.734   2.898   2.454  0.2024 -0.5210  0.2878
  862SOL    HW1 2585   1.817   2.845   2.428  1.1147  1.8896  0.7879
  862SOL    HW2 2586   1.764   2.985   2.496 -0.8487 -0.6792 -1.4460
  863SOL     OW 2587   0.077   0.821   0.436  0.3355  0.3329 -0.2957
  863SOL    HW1 2588   0.159   0.769   0.460  0.5349 -0.1815  1.4302
  863SOL    HW2 2589   0.103   0.897   0.373  2.6138  0.8398  3.2551
  864SOL     OW 2590   2.709   2.418   2.039 -0.2638 -0.6530  0.2703
  864SOL    HW1 2591   2.793   2.462   2.080  1.3401 -1.8704  3.2509
  864SOL    HW2 2592   2.632   2.423   2.112 -2.7784  1.4320  2.1054
  865SOL     OW 2593   0.224   1.873   2.798 -0.6313 -0.8990 -0.4401
  865SOL    HW1 2594   0.136   1.867   2.750 -0.7363  0.8547  3.3813
  865SOL    HW2 2595   0.259   1.971   2.804  0.6376 -0.5334 -2.6251
  866SOL     OW 2596   2.573   0.486   2.772 -0.1206 -0.4354  0.1593
  866SOL    HW1 2597   2.613   0.399   2.734 -0.7331  1.8043 -1.8399
  866SOL    HW2 2598   2.621   0.518   2.857  0.4178  0.9027 -1.2963
  867SOL     OW 2599   0.316   2.767   2.778  0.7545 -0.0840 -0.2685
  867SOL    HW1 2600   0.381   2.779   2.855 -0.9252  3.0027 -0.9993
  867SOL    HW2 2601   0.316   2.858   2.724  0.8675  2.6959 -2.2474
  868SOL     OW 2602   1.305   2.556   0.832  0.0100  0.4750  0.0132
  868SOL    HW1 2603   1.382   2.577   0.895  0.4756 -1.8405 -0.4370
  868SOL    HW2 2604   1.234   2.496   0.874 -0.9773 -2.9088  2.1378
  869SOL     OW 2605   1.381   1.295   1.128 -0.1787 -0.1446 -0.5256
  869SOL    HW1 2606   1.454   1.302   1.056 -2.1865 -1.1285  2.0765
  869SOL    HW2 2607   1.407   1.350   1.213  2.7458 -0.5564  0.5789
  870SOL     OW 2608   1.787   1.940   1.069  0.5647 -0.4801 -0.1798
  870SOL    HW1 2609   1.872   1.996   1.068  0.5962  0.4281  0.0270
  870SOL    HW2 2610   1.762   1.905   1.162  0.6976 -0.4257  2.5242
  871SOL     OW 2611   0.921   1.756   1.306  0.4356  0.2158 -0.1860
  871SOL    HW1 2612   0.976   1.699   1.241 -0.1253 -1.5430  0.6442
  871SOL    HW2 2613   0.846   1.699   1.349  0.5648 -0.4401  0.7835
  872SOL     OW 2614   1.112   1.403   1.165  0.2183 -0.4592  0.3274
  872SOL    HW1 2615   1.053   1.418   1.247  0.1055  1.1896 -1.1970
  872SOL    HW2 2616   1.192   1.345   1.187 -3.3181 -0.6864  1.6229
  873SOL     OW 2617   1.204   0.943   2.254  0.6213  0.0585 -0.2520
  873SOL    HW1 2618   1.137   1.017   2.283  1.7093  0.5185 -0.5765
  873SOL    HW2 2619   1.238   0.890   2.331  1.5997 -0.7390 -0.2073
  874SOL     OW 2620   0.220   1.170   1.300 -0.3091  0.1608 -0.2132
  874SOL    HW1 2621   0.161   1.244   1.332  0.6007 -2.9559 -0.1621
  874SOL    HW2 2622   0.315   1.201   1.277  2.6470 -0.4096 -0.6685
  875SOL     OW 2623   2.811   2.904   0.560 -0.3065  1.0039 -0.1053
  875SOL    HW1 2624   2.826   2.895   0.661 -0.5625  0.6853  0.9936
  875SOL    HW2 2625   2.712   2.923   0.540 -0.9971 -0.6260  0.6569
  876SOL     OW 2626   1.143   0.242   2.799 -0.0726  0.2389 -0.5374
  876SOL    HW1 2627   1.094   0.154   2.802 -0.5059  2.1258  0.3763
  876SOL    HW2 2628   1.076   0.323   2.787  0.5328  1.1379 -1.4455
  877SOL     OW 2629   0.141   2.959   1.363  0.1111  0.0283 -0.3158
  877SOL    HW1 2630   0.114   2.992   1.459  0.2891  1.4469  1.4465
  877SOL    HW2 2631   0.189   3.033   1.311 -1.4668 -2.1031  0.2530
  878SOL     OW 2632   2.067   2.601   3.010 -0.3976 -0.1408 -0.2022
  878SOL    HW1 2633   2.071   2.572   2.912 -1.8708 -1.5719 -3.8106
  878SOL    HW2 2634   2.159   2.594   3.054  0.5351 -0.9156 -0.0055
  879SOL     OW 2635   2.211   1.846   1.804 -0.2697 -0.4134 -0.0131
  879SOL    HW1 2636   2.261   1.762   1.777  0.2040 -1.2140  2.2239
  879SOL    HW2 2637   2.111   1.843   1.780  1.6898 -0.8615  0.7540
  880SOL     OW 2638   0.794   0.957   1.464 -0.1503  0.0885 -0.0202
  880SOL    HW1 2639   0.832   0.932   1.372  0.7655 -2.7852 -0.0997
  880SOL    HW2 2640   0.722   0.889   1.481 -0.2438  0.1911 -0.8084
  881SOL     OW 2641   1.053   1.721   0.027  0.2044  0.2950 -0.3384
  881SOL    HW1 2642   1.047   1.810   3.062  1.4727 -1.0730  1.0313
  881SOL    HW2 2643   1.145   1.683   0.050 -0.5131 -2.0846 -2.2363
  882SOL     OW 2644   1.766   0.360   0.850 -0.3837 -0.4108  0.0806
  882SOL    HW1 2645   1.687   0.418   0.869  0.2279 -0.8464 -0.7383
  882SOL    HW2 2646   1.743   0.269   0.893 -0.9556  0.8175  3.9163
  883SOL     OW 2647   1.999   0.557   2.202  0.3895  0.1071 -0.1505
  883SOL    HW1 2648   2.006   0.661   2.221 -4.3721  2.0544  0.5484
  883SOL    HW2 2649   1.966   0.547   2.108  1.5982  0.5695 -0.1615
  884SOL     OW 2650   2.689   0.448   0.300 -0.6250  1.0040 -0.1945
  884SOL    HW1 2651   2.757   0.373   0.285  2.8769  0.7656  1.4525
  884SOL    HW2 2652   2.595   0.414   0.311  2.1255  0.8134  0.7551
  885SOL     OW 2653   0.742   1.943   0.673  0.1403 -0.2999 -0.1869
  885SOL    HW1 2654   0.764   2.015   0.610 -1.0809 -2.4867  2.6385
  885SOL    HW2 2655   0.788   1.975   0.755 -0.6354 -0.4799 -0.6526
  886SOL     OW 2656   1.622   1.461   0.034 -0.2794  0.7775 -0.4833
  886SOL    HW1 2657   1.543   1.466   0.101 -2.0945  0.7687  1.9461
  886SOL    HW2 2658   1.675   1.547   0.035 -1.2622 -1.1298  1.0063
  887SOL     OW 2659   1.694   0.466   1.576 -0.1025 -0.4381  0.6461
  887SOL    HW1 2660   1.658   0.373   1.606  2.1017 -2.5346 -2.1504
  887SOL    HW2 2661   1.630   0.549   1.595  1.9873  0.6511  0.9382
  888SOL     OW 2662   3.026   1.082   1.517 -0.2499  0.2622  0.0563
  888SOL    HW1 2663   3.022   1.154   1.448 -0.3184 -1.7706 -0.7831
  888SOL    HW2 2664   2.939   1.029   1.528 -2.2871  1.1401 -0.9977
  889SOL     OW 2665   2.890   2.610   0.782 -0.3479 -0.3591  0.0323
  889SOL    HW1 2666   2.962   2.683   0.769 -3.2589  2.9234 -1.4194
  889SOL    HW2 2667   2.904   2.566   0.873  0.8556  2.4529 -1.0412
  890SOL     OW 2668   0.068   2.148   2.137 -0.4719 -0.2692  0.1687
  890SOL    HW1 2669   0.072   2.129   2.238  0.7482 -1.0924  0.8003
  890SOL    HW2 2670   0.163   2.140   2.098  1.5211  2.2870  1.3207
  891SOL     OW 2671   0.684   1.661   0.321 -0.0142  0.0327  0.2197
  891SOL    HW1 2672   0.640   1.743   0.372  2.0953  1.0276  1.0138
  891SOL    HW2 2673   0.744   1.602   0.381 -1.9336 -3.8365  1.4122
  892SOL     OW 2674   2.911   2.400   1.433 -0.0925  0.2135  0.1674
  892SOL    HW1 2675   2.952   2.480   1.477 -3.1706 -1.4333 -1.0135
  892SOL    HW2 2676   2.989   2.350   1.391  0.7396  0.3961  1.9797
  893SOL     OW 2677   2.977   0.343   1.611 -0.4386  0.1191  0.1889
  893SOL    HW1 2678   2.950   0.401   1.693 -1.5654  1.8568  2.7499
  893SOL    HW2 2679   2.927   0.249   1.623  1.5244 -0.5597 -0.6314
  894SOL     OW 2680   2.700   1.782   0.654 -0.2738 -0.0805  0.1665
  894SOL    HW1 2681   2.775   1.763   0.581  0.9665  0.8044 -3.4471
  894SOL    HW2 2682   2.705   1.879   0.693  1.0666  3.4556  1.9008
  895SOL     OW 2683   1.900   2.498   1.556  0.3626  0.7158 -0.1512
  895SOL    HW1 2684   1.988   2.486   1.604 -2.0956  1.2131 -0.0547
  895SOL    HW2 2685   1.902   2.586   1.510 -0.0141 -0.9182  1.5085
  896SOL     OW 2686   0.722   0.055   1.579 -0.4913  0.4109 -0.2588
  896SOL    HW1 2687   0.663   0.044   1.499 -0.0239 -1.2761  0.2389
  896SOL    HW2 2688   0.674   0.051   1.667  0.5487 -0.5233  1.4420
  897SOL     OW 2689   1.072   1.180   1.499  0.1798  0.3401 -0.4655
  897SOL    HW1 2690   1.044   1.084   1.500 -4.9045 -0.2780  0.4535
  897SOL    HW2 2691   1.169   1.185   1.495 -1.5130 -1.0527  2.6708
  898SOL     OW 2692   1.198   2.994   1.540  0.4377 -0.3425 -0.5681
  898SOL    HW1 2693   1.109   2.983   1.581 -0.3692 -0.2763 -3.5566
  898SOL    HW2 2694   1.209   2.920   1.475 -4.3588 -0.9372  4.2123
  899SOL     OW 2695   1.372   0.320   2.904 -0.6324  0.3787 -1.0918
  899SOL    HW1 2696   1.447   0.246   2.899 -2.7835 -0.7523 -0.4154
  899SOL    HW2 2697   1.281   0.296   2.872  2.4143  1.7157  0.5292
  900SOL     OW 2698   0.690   2.964   2.114  0.1856  0.3327  0.4956
  900SOL    HW1 2699   0.677   2.871   2.073 -1.2030 -0.5876  1.0775
  900SOL    HW2 2700   0.751   3.025   2.060  0.0590 -0.2742 -1.6391
  901SOL     OW 2701   0.803   2.164   0.526  0.0058 -0.9707  0.0883
  901SOL    HW1 2702   0.887   2.226   0.523  1.6655  0.5845  0.8023
  901SOL    HW2 2703   0.821   2.091   0.464 -4.8057 -0.0452 -0.3232
  902SOL     OW 2704   2.112   0.601   1.061 -0.1477  0.5931 -0.0918
  902SOL    HW1 2705   2.061   0.630   0.977  0.8322  1.1940  1.5317
  902SOL    HW2 2706   2.077   0.509   1.086  1.1268  0.9388  0.4890
  903SOL     OW 2707   2.850   0.950   2.629 -0.0728  0.2152 -0.9382
  903SOL    HW1 2708   2.844   1.038   2.680 -0.1212 -0.4062  0.0012
  903SOL    HW2 2709   2.849   0.977   2.534  1.2609  1.8483  1.7756
  904SOL     OW 2710   1.364   1.198   0.033 -0.1494  0.2848 -0.3874
  904SOL    HW1 2711   1.352   1.110   3.065 -1.1924 -2.3988 -1.6341
  904SOL    HW2 2712   1.322   1.280   3.070 -0.7610  1.7328  0.6402
  905SOL     OW 2713   1.736   2.906   1.466 -0.6472  0.0017 -0.5507
  905SOL    HW1 2714   1.806   2.960   1.517 -1.1141  1.2838  0.6133
  905SOL    HW2 2715   1.688   2.960   1.401  1.3480  1.6417  1.3948
  906SOL     OW 2716   2.334   2.788   1.188 -0.0621 -0.5619 -0.3398
  906SOL    HW1 2717   2.396   2.731   1.130  0.9133  0.6573  0.5722
  906SOL    HW2 2718   2.329   2.883   1.146 -1.0253  1.3979 -0.8804
  907SOL     OW 2719   1.618   0.932   0.444  0.0624  0.2684  0.2021
  907SOL    HW1 2720   1.660   0.853   0.397  1.9796 -0.0734  1.8034
  907SOL    HW2 2721   1.652   1.025   0.419  0.6028  0.9428 -0.7468
  908SOL     OW 2722   1.705   0.230   1.309 -0.3203  0.0298 -0.2147
  908SOL    HW1 2723   1.680   0.187   1.399 -0.2058  1.5970  2.2396
  908SOL    HW2 2724   1.662   0.318   1.292  2.1979 -3.7606  0.3165
  909SOL     OW 2725   2.234   0.209   0.926  0.3405 -0.3005 -0.3353
  909SOL    HW1 2726   2.153   0.260   0.962 -2.5191 -0.0196  1.6073
  909SOL    HW2 2727   2.323   0.235   0.965  1.3791  1.4757 -0.9620
  910SOL     OW 2728   2.478   0.648   2.066  0.0668  0.2922  0.7723
  910SOL    HW1 2729   2.541   0.725   2.040 -0.9124 -1.9412 -1.9598
  910SOL    HW2 2730   2.384   0.681   2.066  0.6471 -1.8656 -1.2190
  911SOL     OW 2731   2.517   0.177   2.883 -0.0770  0.3867 -0.2941
  911SOL    HW1 2732   2.488   0.237   2.956 -0.0006  1.0164 -1.5898
  911SOL    HW2 2733   2.577   0.219   2.817 -1.2805 -0.7081 -1.2777
  912SOL     OW 2734   0.670   1.119   1.942  0.7593  0.0286  0.4113
  912SOL    HW1 2735   0.730   1.095   1.862  2.1329 -0.6889  0.6668
  912SOL    HW2 2736   0.704   1.080   2.032  1.1606 -0.3591  1.0788
  913SOL     OW 2737   2.693   2.263   1.512 -0.1281 -0.5338 -0.1756
  913SOL    HW1 2738   2.769   2.313   1.465 -0.8108  1.7129  2.3945
  913SOL    HW2 2739   2.628   2.330   1.554  0.8473  0.1799  1.3339
  914SOL     OW 2740   1.888   0.846   1.495 -0.3792  1.0203 -0.2866
  914SOL    HW1 2741   1.961   0.915   1.508 -0.0473 -1.6538 -0.1417
  914SOL    HW2 2742   1.910   0.793   1.407  0.0631  2.3377 -1.2868
  915SOL     OW 2743   2.843   1.332   0.886  0.0889  0.0450  0.0755
  915SOL    HW1 2744   2.807   1.426   0.860  0.6795 -0.5443 -1.3768
  915SOL    HW2 2745   2.943   1.328   0.885 -2.4407 -0.5449 -0.0618
  916SOL     OW 2746   1.978   2.351   1.164  0.0095  0.1880 -0.2831
  916SOL    HW1 2747   1.874   2.374   1.179 -3.2354 -1.1532 -1.6839
  916SOL    HW2 2748   2.036   2.358   1.245  0.6764  3.8120  0.9519
  917SOL     OW 2749   1.695   2.603   2.060  0.2120 -0.0801 -0.5402
  917SOL    HW1 2750   1.654   2.586   2.151  1.4748 -0.0630  0.0946
  917SOL    HW2 2751   1.620   2.609   1.992 -0.7666  2.4000 -0.3442
  918SOL     OW 2752   1.940   2.502   2.267  0.4692  0.0201  0.3992
  918SOL    HW1 2753   1.943   2.525   2.171  2.2390 -1.4278  1.3365
  918SOL    HW2 2754   1.896   2.408   2.281 -0.9424 -0.7543 -1.2327
  919SOL     OW 2755   0.974   0.145   1.445  0.3779 -0.3371  0.1412
  919SOL    HW1 2756   0.886   0.115   1.482  0.2323  3.5505 -0.8665
  919SOL    HW2 2757   1.011   0.222   1.495 -0.1949 -1.7612 -0.2507
  920SOL     OW 2758   2.768   0.491   2.148  0.5080 -0.0753 -0.0365
  920SOL    HW1 2759   2.703   0.460   2.074  2.6691 -0.1614 -1.7882
  920SOL    HW2 2760   2.780   0.415   2.216  0.9514  2.4600 -2.3862
  921SOL     OW 2761   0.116   1.114   1.718  0.2454 -0.8628  0.1167
  921SOL    HW1 2762   0.136   1.024   1.751  3.3527  3.2908  1.0775
  921SOL    HW2 2763   0.041   1.112   1.644  0.4574  1.7011  0.4220
  922SOL     OW 2764   2.634   2.279   0.759 -0.2664  0.2690  0.3595
  922SOL    HW1 2765   2.626   2.307   0.665  0.2249 -2.3501  1.4933
  922SOL    HW2 2766   2.563   2.327   0.816 -0.8231 -1.8696  0.7622
  923SOL     OW 2767   0.514   2.545   0.657  0.0732  0.2077 -0.2323
  923SOL    HW1 2768   0.524   2.444   0.642  0.2812 -1.5993 -0.0316
  923SOL    HW2 2769   0.507   2.560   0.759  1.8929  0.8478 -0.2519
  924SOL     OW 2770   1.144   0.810   2.590  0.2617 -0.1348  0.4619
  924SOL    HW1 2771   1.165   0.903   2.625  0.5565 -3.0251  1.8032
  924SOL    HW2 2772   1.231   0.771   2.551  1.6124 -1.6212  0.0294
  925SOL     OW 2773   2.536   1.476   0.500 -0.2428 -0.1488  0.2232
  925SOL    HW1 2774   2.549   1.447   0.598  0.2847  1.3313 -0.4140
  925SOL    HW2 2775   2.505   1.393   0.452  1.2035  0.8131  4.2530
  926SOL     OW 2776   3.052   0.280   0.866  0.5366  0.3178 -0.0085
  926SOL    HW1 2777   0.063   0.299   0.844 -1.6036  0.8228  1.0096
  926SOL    HW2 2778   3.045   0.201   0.930 -0.8693  1.4962  0.9628
  927SOL     OW 2779   0.522   1.784   2.553 -0.2420 -0.0334 -0.6469
  927SOL    HW1 2780   0.439   1.750   2.602  2.1025  0.0013  1.7187
  927SOL    HW2 2781   0.491   1.831   2.464  0.5125 -0.6846 -0.2107
  928SOL     OW 2782   0.108   0.484   2.054 -0.1372 -0.3772 -0.1507
  928SOL    HW1 2783   0.143   0.405   2.107 -1.6880  1.3211  0.3190
  928SOL    HW2 2784   0.109   0.447   1.958  2.2827 -0.0078  1.0341
  929SOL     OW 2785   2.817   2.186   1.127  0.4792 -0.2049  0.2113
  929SOL    HW1 2786   2.835   2.168   1.028 -0.2998  1.2342 -0.7322
  929SOL    HW2 2787   2.743   2.251   1.158 -0.5628  2.1870  1.8152
  930SOL     OW 2788   2.154   0.370   2.293 -0.0754  0.1832  0.4011
  930SOL    HW1 2789   2.089   0.443   2.264 -0.4187 -0.0893 -0.2226
  930SOL    HW2 2790   2.165   0.301   2.223  1.1971  2.9254 -0.8009
  931SOL     OW 2791   2.245   1.063   2.771 -0.1133 -0.4816  0.2481
  931SOL    HW1 2792   2.204   1.149   2.805  0.9917 -0.2406 -0.9217
  931SOL    HW2 2793   2.191   0.978   2.798  0.4163 -2.4178 -0.4402
  932SOL     OW 2794   1.876   1.189   0.719  0.4985 -0.1344 -0.4760
  932SOL    HW1 2795   1.815   1.111   0.700  0.7862  1.3305 -1.3691
  932SOL    HW2 2796   1.845   1.261   0.656 -1.4545  0.0004  0.3855
  933SOL     OW 2797   2.266   1.651   0.908 -0.2780  0.0379 -0.5906
  933SOL    HW1 2798   2.186   1.589   0.890 -3.0062  1.6240  0.1396
  933SOL    HW2 2799   2.321   1.672   0.825 -0.2502 -0.4004  1.0168
  934SOL     OW 2800   2.177   0.797   2.857  0.2131  0.0078  0.2153
  934SOL    HW1 2801   2.119   0.715   2.831  0.8336 -2.6091 -0.7307
  934SOL    HW2 2802   2.270   0.771   2.888 -0.6808 -0.6107 -0.2378
  935SOL     OW 2803   0.022   1.202   0.539 -0.1051  0.1468 -0.3718
  935SOL    HW1 2804   0.060   1.169   0.452 -1.9592 -0.2178  1.7237
  935SOL    HW2 2805   3.005   1.191   0.549  1.7616  1.0411 -0.6040
  936SOL     OW 2806   0.024   2.813   0.797 -0.1699  0.0680 -0.3553
  936SOL    HW1 2807   0.047   2.908   0.763 -0.1804  0.6026  2.2823
  936SOL    HW2 2808   0.104   2.756   0.813 -1.9859  1.7436 -0.8492
  937SOL     OW 2809   0.061   2.378   1.764 -0.1374  0.1775  0.4299
  937SOL    HW1 2810   3.067   2.327   1.731 -2.1885 -1.6844  1.1122
  937SOL    HW2 2811   0.138   2.320   1.788 -0.7821 -0.7697  1.6005
  938SOL     OW 2812   2.785   2.062   3.022  0.4515  0.2934 -0.2664
  938SOL    HW1 2813   2.822   2.154   3.028 -0.5086 -2.4664 -1.0598
  938SOL    HW2 2814   2.846   2.006   2.960  1.1092  0.3112  0.3951
  939SOL     OW 2815   0.920   0.945   1.222 -0.3162  0.3692  0.3059
  939SOL    HW1 2816   0.952   1.033   1.183  1.0962 -0.3903  0.9188
  939SOL    HW2 2817   0.907   0.873   1.150 -1.1299  0.9562  1.5463
  940SOL     OW 2818   2.690   0.277   2.677 -0.2967  0.1374  0.7941
  940SOL    HW1 2819   2.681   0.234   2.586  1.7533  3.6897 -0.6685
  940SOL    HW2 2820   2.785   0.258   2.714  1.7707  1.6158  1.6520
  941SOL     OW 2821   2.440   2.516   2.549 -0.2546 -0.0899  0.2688
  941SOL    HW1 2822   2.466   2.524   2.451  0.0643  0.3898  1.9397
  941SOL    HW2 2823   2.364   2.451   2.564 -1.6281 -3.9034  0.2262
  942SOL     OW 2824   1.329   0.090   1.295 -0.4669 -0.3336 -0.5233
  942SOL    HW1 2825   1.272   0.034   1.357 -2.4106 -2.1977  1.0810
  942SOL    HW2 2826   1.351   0.184   1.332  1.1382  1.3136  0.7321
  943SOL     OW 2827   0.778   1.411   2.469  0.2795  0.3527  0.5933
  943SOL    HW1 2828   0.717   1.425   2.389  0.4564 -1.3368 -0.8208
  943SOL    HW2 2829   0.800   1.505   2.504 -0.1634  1.3051 -0.2668
  944SOL     OW 2830   2.156   0.918   0.654  0.0973  0.0868  0.4144
  944SOL    HW1 2831   2.102   0.839   0.697  0.0692 -0.9972  0.3768
  944SOL    HW2 2832   2.151   1.007   0.715 -0.4071  5.6656  1.3585
  945SOL     OW 2833   3.017   3.029   2.924 -0.0724  0.7727 -0.2322
  945SOL    HW1 2834   3.056   3.060   2.835  0.5055 -0.2287  1.4037
  945SOL    HW2 2835   3.084   3.045   2.997 -1.2148 -1.7159  1.0608
  946SOL     OW 2836   0.089   1.384   1.620  1.2271  0.2010  0.6841
  946SOL    HW1 2837   0.087   1.360   1.517  1.5423 -1.6142 -3.8320
  946SOL    HW2 2838   0.108   1.299   1.674 -1.4800  0.7902 -3.2751
  947SOL     OW 2839   1.106   0.088   0.081 -0.2450 -0.0658 -0.0636
  947SOL    HW1 2840   1.181   0.038   0.028  0.1284 -0.5257 -0.4099
  947SOL    HW2 2841   1.071   0.024   0.149 -0.1157 -1.4105  0.4169
  948SOL     OW 2842   2.401   1.527   1.114 -0.4969 -0.4587 -0.4913
  948SOL    HW1 2843   2.400   1.427   1.092 -0.0894  0.1143 -1.4977
  948SOL    HW2 2844   2.343   1.582   1.044 -2.0544 -0.9239  1.2656
  949SOL     OW 2845   0.384   0.811   2.802  0.1580  0.2636 -0.0203
  949SOL    HW1 2846   0.426   0.862   2.882  1.9569  1.7569 -1.1707
  949SOL    HW2 2847   0.323   0.871   2.747 -3.1287 -1.6313 -2.7251
  950SOL     OW 2848   0.275   2.522   1.255  0.5635  0.0435  0.4989
  950SOL    HW1 2849   0.248   2.597   1.319  1.0081 -0.3152  1.2630
  950SOL    HW2 2850   0.375   2.505   1.259  0.9778  2.3415 -0.6138
  951SOL     OW 2851   0.889   1.661   2.794  0.5233  0.4979 -0.1431
  951SOL    HW1 2852   0.843   1.653   2.884  1.7723  0.8406 -1.2451
  951SOL    HW2 2853   0.820   1.650   2.719  1.4557  2.5202  1.3072
  952SOL     OW 2854   0.414   1.273   0.465  0.2116  0.0752  0.0119
  952SOL    HW1 2855   0.449   1.210   0.533  2.4952  1.6070 -1.9785
  952SOL    HW2 2856   0.342   1.328   0.513 -1.2138 -1.3057  1.9326
  953SOL     OW 2857   2.328   2.014   2.620 -0.4113 -0.3320  0.0529
  953SOL    HW1 2858   2.369   2.050   2.535 -0.7312  0.3069  0.1968
  953SOL    HW2 2859   2.379   2.044   2.700 -0.9414 -1.3952 -1.0281
  954SOL     OW 2860   1.787   0.736   0.685 -0.1552 -0.0308 -0.3943
  954SOL    HW1 2861   1.715   0.667   0.706 -0.3521  1.2812  2.5748
  954SOL    HW2 2862   1.752   0.826   0.708  0.7315  0.6374 -2.1639
  955SOL     OW 2863   0.660   1.981   0.179 -0.6390  0.0083 -0.0508
  955SOL    HW1 2864   0.602   2.063   0.170 -1.8726  1.6008  1.3898
  955SOL    HW2 2865   0.644   1.916   0.100  1.0406  0.2894  0.6133
  956SOL     OW 2866   2.573   0.420   1.933 -0.0398 -0.5571  0.2585
  956SOL    HW1 2867   2.514   0.336   1.953 -0.5066 -2.2323 -0.3020
  956SOL    HW2 2868   2.534   0.501   1.977 -2.9475  0.9845  2.6492
  957SOL     OW 2869   1.799   2.153   1.956  0.7068  0.5064  0.0780
  957SOL    HW1 2870   1.837   2.241   1.920  0.6183 -0.4495  0.1336
  957SOL    HW2 2871   1.847   2.069   1.917  0.2318 -1.8117  1.7264
  958SOL     OW 2872   1.681   1.043   1.498  0.2411  0.3896  0.7248
  958SOL    HW1 2873   1.713   1.139   1.513 -1.7486  2.5277  1.6218
  958SOL    HW2 2874   1.764   0.988   1.513 -0.7620 -1.2001 -1.1637
  959SOL     OW 2875   1.505   1.993   2.233  0.3528 -0.0359  0.3658
  959SOL    HW1 2876   1.580   1.930   2.257 -2.1310  1.2146 -1.5885
  959SOL    HW2 2877   1.532   2.095   2.237  0.7005  1.2122  1.4847
  960SOL     OW 2878   0.592   0.672   2.727  0.0323  0.4992 -0.1545
  960SOL    HW1 2879   0.521   0.733   2.770 -2.0313 -0.9699 -0.0841
  960SOL    HW2 2880   0.609   0.584   2.775 -0.1303  1.2165 -1.9118
  961SOL     OW 2881   3.049   0.877   2.789  0.2521  0.3916 -0.1979
  961SOL    HW1 2882   3.041   0.808   2.866  0.4181 -1.6083 -0.2112
  961SOL    HW2 2883   2.959   0.880   2.740  0.8539  1.4148  0.0412
  962SOL     OW 2884   1.003   1.944   2.967  0.1981 -0.0058 -0.1116
  962SOL    HW1 2885   0.913   1.983   2.942  1.3503  1.7569 -0.0788
  962SOL    HW2 2886   1.057   2.024   3.005  6.2968  1.6427 -1.9476
  963SOL     OW 2887   2.813   1.865   0.103 -0.4120 -0.4258  0.1250
  963SOL    HW1 2888   2.759   1.791   0.066  2.0464  0.5850  0.4230
  963SOL    HW2 2889   2.819   1.942   0.032  1.5300  2.0559 -2.2620
  964SOL     OW 2890   0.706   2.273   2.224  0.2776 -0.0417  0.3193
  964SOL    HW1 2891   0.625   2.289   2.283  2.4194 -2.3986  2.6150
  964SOL    HW2 2892   0.739   2.358   2.177  0.5378  1.9275 -2.5345
  965SOL     OW 2893   1.571   1.790   1.665 -0.4500  0.0617  0.2960
  965SOL    HW1 2894   1.616   1.884   1.663  0.2491  0.2215  0.9027
  965SOL    HW2 2895   1.541   1.761   1.760 -3.7386 -2.3610  0.8231
  966SOL     OW 2896   3.010   1.657   0.178 -0.1307 -0.4538  0.0642
  966SOL    HW1 2897   3.074   1.687   0.256 -0.0447 -1.4221  0.8449
  966SOL    HW2 2898   2.949   1.739   0.152  1.9046 -1.1934 -0.4613
  967SOL     OW 2899   2.190   2.686   2.062  0.5220  0.7183  0.1320
  967SOL    HW1 2900   2.096   2.645   2.036 -0.3351 -0.8552 -1.3695
  967SOL    HW2 2901   2.186   2.785   2.031 -0.5703  2.0416  0.2355
  968SOL     OW 2902   1.201   0.844   0.128 -0.2806  0.6313 -0.6216
  968SOL    HW1 2903   1.250   0.922   0.080 -0.3965  1.3593  1.0023
  968SOL    HW2 2904   1.245   0.750   0.128 -1.3630  1.9861 -0.3820
  969SOL     OW 2905   0.477   1.142   2.514  0.0466 -0.2839  0.0811
  969SOL    HW1 2906   0.528   1.070   2.457  1.9656 -2.5513  0.5626
  969SOL    HW2 2907   0.375   1.140   2.504  1.7414 -1.0271 -0.1227
  970SOL     OW 2908   2.129   2.840   0.821 -0.3100 -0.2611 -0.2936
  970SOL    HW1 2909   2.150   2.889   0.733 -1.0832 -0.7348 -3.7434
  970SOL    HW2 2910   2.026   2.845   0.829 -4.2813 -2.9961  1.1894
  971SOL     OW 2911   2.160   2.135   0.642 -0.2186  0.0485  0.1089
  971SOL    HW1 2912   2.191   2.123   0.744  2.7008 -0.9076  4.3000
  971SOL    HW2 2913   2.171   2.229   0.600 -1.3294 -0.0850 -0.0036
  972SOL     OW 2914   0.102   1.348   2.790  0.5066 -0.0743 -0.2914
  972SOL    HW1 2915   0.072   1.320   2.697  1.3200 -4.4984 -1.2772
  972SOL    HW2 2916   0.182   1.407   2.792 -1.2064 -0.0739  0.4017
  973SOL     OW 2917   0.875   0.443   0.265  0.3068  0.2004  0.0615
  973SOL    HW1 2918   0.943   0.440   0.187 -1.0690  1.2358 -1.4386
  973SOL    HW2 2919   0.839   0.534   0.265  1.5826 -4.4936 -0.4215
  974SOL     OW 2920   2.633   0.811   1.661  0.0356  0.1036 -0.4794
  974SOL    HW1 2921   2.646   0.706   1.677 -0.6803 -0.6772  0.3810
  974SOL    HW2 2922   2.701   0.874   1.708  1.0590 -1.3112  0.6705
  975SOL     OW 2923   2.921   0.159   0.645  0.7773  0.3759  0.8752
  975SOL    HW1 2924   2.920   0.195   0.746 -0.3033 -0.8172  1.9677
  975SOL    HW2 2925   2.828   0.126   0.617 -1.0643 -1.3038 -1.0328
  976SOL     OW 2926   0.593   1.665   1.203 -0.0583  0.1211 -0.0030
  976SOL    HW1 2927   0.513   1.690   1.257 -1.8160  1.1569  2.6769
  976SOL    HW2 2928   0.666   1.636   1.265  0.5441 -1.0243 -0.3008
  977SOL     OW 2929   1.317   2.160   0.328 -0.1231 -0.1333  0.4366
  977SOL    HW1 2930   1.378   2.147   0.248 -1.3149 -0.6732  1.9810
  977SOL    HW2 2931   1.238   2.217   0.308 -2.7476 -1.4331 -0.1948
  978SOL     OW 2932   0.132   0.642   3.030  0.5194  0.1053 -0.1582
  978SOL    HW1 2933   0.062   0.631   2.955 -1.1839 -0.6721 -1.2034
  978SOL    HW2 2934   0.196   0.564   3.025  0.3947 -0.1591  0.4906
  979SOL     OW 2935   2.060   1.511   0.840  0.0154 -0.1521  0.1974
  979SOL    HW1 2936   1.982   1.475   0.899 -0.5733  0.5066  1.3867
  979SOL    HW2 2937   2.039   1.551   0.750 -0.4210 -1.7356 -1.3926
  980SOL     OW 2938   0.595   1.960   1.938  0.3220  0.4731  0.0749
  980SOL    HW1 2939   0.606   1.870   1.898  0.0341 -4.3580 -0.6390
  980SOL    HW2 2940   0.657   2.028   1.890 -0.0218 -0.1702  1.4381
  981SOL     OW 2941   2.536   1.394   2.492 -0.0618 -0.1690  0.2185
  981SOL    HW1 2942   2.576   1.369   2.586  1.3707 -0.0395  2.1787
  981SOL    HW2 2943   2.434   1.387   2.482  0.6282 -1.6446  0.3421
  982SOL     OW 2944   0.251   2.196   1.833  0.2390  0.6659  0.6535
  982SOL    HW1 2945   0.269   2.120   1.765  0.0810 -0.7752 -2.6113
  982SOL    HW2 2946   0.278   2.162   1.926  0.1762  2.4973  3.7538
  983SOL     OW 2947   1.651   0.455   1.940  0.1029 -0.4230 -0.2299
  983SOL    HW1 2948   1.587   0.464   1.858 -0.4121  2.5120 -2.3195
  983SOL    HW2 2949   1.715   0.373   1.937  1.6239 -1.6326 -0.6109
  984SOL     OW 2950   2.769   2.916   2.823  0.8633  0.0555 -0.0599
  984SOL    HW1 2951   2.837   2.939   2.897  1.2703 -1.5177 -1.4436
  984SOL    HW2 2952   2.673   2.915   2.857 -2.2937 -2.5026 -0.1956
  985SOL     OW 2953   1.419   1.395   1.741  0.6126 -0.1394 -0.0934
  985SOL    HW1 2954   1.375   1.468   1.796  2.0580  1.2488 -0.0458
  985SOL    HW2 2955   1.480   1.343   1.804  0.6520 -0.3859 -2.0332
  986SOL     OW 2956   1.955   0.224   2.785  0.0727 -0.1275 -0.2151
  986SOL    HW1 2957   2.037   0.257   2.842  2.6791  0.6700 -2.1709
  986SOL    HW2 2958   1.873   0.264   2.825  2.1818  0.1390  0.1996
  987SOL     OW 2959   2.805   1.611   2.747 -0.3774  0.0877  0.1682
  987SOL    HW1 2960   2.884   1.629   2.809  2.1573  0.7657 -0.2666
  987SOL    HW2 2961   2.730   1.683   2.756  0.3938 -0.1213  0.5384
  988SOL     OW 2962   0.106   0.246   1.203 -0.1747 -0.1463 -0.0105
  988SOL    HW1 2963   0.030   0.184   1.177 -0.9524 -0.0376  0.9679
  988SOL    HW2 2964   0.076   0.317   1.277  1.0436  2.7499  1.3298
  989SOL     OW 2965   2.007   0.347   0.992 -0.4421 -0.1270  0.1414
  989SOL    HW1 2966   1.926   0.372   0.934 -0.6665 -1.2544  2.5395
  989SOL    HW2 2967   1.986   0.297   1.080  1.7740 -2.9484  0.4522
  990SOL     OW 2968   2.454   0.430   3.066 -0.4331 -0.0272 -0.1998
  990SOL    HW1 2969   2.551   0.463   3.049  0.2690  0.3981  1.9008
  990SOL    HW2 2970   2.392   0.463   2.997  2.4326 -1.7638  2.9199
  991SOL     OW 2971   0.103   1.477   0.032 -0.7401  0.1135  0.4153
  991SOL    HW1 2972   0.103   1.397   0.094  4.2647  0.8616 -1.0079
  991SOL    HW2 2973   0.081   1.560   0.086  0.4395  0.9329 -2.0894
  992SOL     OW 2974   2.062   1.541   1.837  0.4260  0.4223  0.1918
  992SOL    HW1 2975   2.109   1.572   1.926  0.8113 -0.8454 -0.9014
  992SOL    HW2 2976   2.080   1.442   1.825  1.5082  1.6123  0.5544
  993SOL     OW 2977   0.239   2.641   0.819 -0.2140  0.2772 -0.3158
  993SOL    HW1 2978   0.204   2.571   0.886 -1.7126 -2.1644  0.1917
  993SOL    HW2 2979   0.296   2.712   0.863  1.0675  1.3174 -0.8271
  994SOL     OW 2980   3.082   1.635   1.943  0.2514 -0.3775 -0.1852
  994SOL    HW1 2981   2.998   1.587   1.915 -0.0970  5.0401  0.7284
  994SOL    HW2 2982   0.065   1.636   1.865  1.5756 -0.7100 -1.2019
  995SOL     OW 2983   1.833   1.969   2.525  0.2063 -0.7139 -0.0005
  995SOL    HW1 2984   1.902   2.021   2.475  0.0903  0.4241  0.5411
  995SOL    HW2 2985   1.784   1.907   2.463  1.2166 -1.1032 -1.2381
  996SOL     OW 2986   2.222   2.268   0.268  0.4589 -0.0164  0.3464
  996SOL    HW1 2987   2.139   2.297   0.221 -1.3048 -0.8135  1.5600
  996SOL    HW2 2988   2.218   2.167   0.285  0.6860  0.4070 -2.4091
  997SOL     OW 2989   1.186   1.510   2.461 -0.1387  0.0680  0.4019
  997SOL    HW1 2990   1.112   1.441   2.462  0.7757 -1.3951  1.8416
  997SOL    HW2 2991   1.228   1.519   2.371  1.8988  4.2696 -1.0669
  998SOL     OW 2992   3.054   2.332   0.698 -0.4568  0.0674 -0.4260
  998SOL    HW1 2993   3.001   2.419   0.696  1.8233  0.4694 -1.9083
  998SOL    HW2 2994   3.054   2.297   0.602 -0.6116  1.2959 -1.2664
  999SOL     OW 2995   0.426   3.037   0.591  0.4539  0.2750 -0.0681
  999SOL    HW1 2996   0.335   3.047   0.549 -1.2526  1.5272 -2.4130
  999SOL    HW2 2997   0.463   2.943   0.589 -1.1176 -1.0268 -2.9431
 1000SOL     OW 2998   1.429   0.254   0.100  0.5241 -0.0933 -0.0300
 1000SOL    HW1 2999   1.509   0.193   0.120  0.4135 -0.1043  0.0236
 1000SOL    HW2 3000   1.406   0.274   0.000  0.5671  0.4232  0.1654
   3.08539   3.08539   3.08539
