1000 SPC/Fw water molecules t= 454.00000 step= 454000
 3000
    1SOL     OW    1   2.987   3.073   1.460 -0.1952 -0.0763  0.0490
    1SOL    HW1    2   2.983   3.043   1.364  0.1562  0.4159  0.6675
    1SOL    HW2    3   2.894   3.076   1.508 -1.3197  0.9100  2.3115
    2SOL     OW    4   2.773   0.131   0.047 -0.0522 -0.1979  0.2493
    2SOL    HW1    5   2.825   0.042   0.037  1.6074 -1.5794  0.4485
    2SOL    HW2    6   2.736   0.143   0.139  0.0294 -0.1087 -0.2105
    3SOL     OW    7   1.211   2.728   0.149 -0.3454 -0.3148  0.9227
    3SOL    HW1    8   1.153   2.674   0.083  2.6593  1.1901  2.7699
    3SOL    HW2    9   1.298   2.673   0.152 -0.2838  0.5459 -1.6802
    4SOL     OW   10   1.447   2.697   2.557  0.5038 -0.5468 -0.0263
    4SOL    HW1   11   1.513   2.647   2.618 -0.1143 -0.7325 -0.1056
    4SOL    HW2   12   1.358   2.649   2.546 -2.3754  1.1784  0.3091
    5SOL     OW   13   2.212   0.391   2.179 -0.5772 -0.0257  0.4586
    5SOL    HW1   14   2.273   0.339   2.115  0.9167  0.4020  0.4241
    5SOL    HW2   15   2.239   0.488   2.193 -4.1366  1.8709  1.2432
    6SOL     OW   16   2.665   1.873   1.152  0.4305 -0.3487  0.1062
    6SOL    HW1   17   2.612   1.796   1.113  0.9518 -0.1986 -1.1921
    6SOL    HW2   18   2.607   1.958   1.157 -1.4206  1.5534 -0.1370
    7SOL     OW   19   1.080   2.046   0.583 -0.5490  0.1685  0.4690
    7SOL    HW1   20   1.051   1.953   0.614  0.8435  3.3247 -0.3774
    7SOL    HW2   21   1.019   2.068   0.504  0.7583 -1.0516 -0.5073
    8SOL     OW   22   0.297   0.802   0.624 -0.4590  0.1305  0.2950
    8SOL    HW1   23   0.398   0.828   0.632  2.3403  0.3580  2.0576
    8SOL    HW2   24   0.287   0.723   0.563 -0.1868  2.8287  3.2810
    9SOL     OW   25   0.322   3.036   1.461 -0.1428  0.0710 -0.1353
    9SOL    HW1   26   0.263   2.993   1.388  1.7221 -0.6894 -1.1846
    9SOL    HW2   27   0.272   3.044   1.549  1.7700 -0.1568 -0.0711
   10SOL     OW   28   1.140   2.499   0.768  0.0404 -0.2548 -0.1531
   10SOL    HW1   29   1.122   2.461   0.858 -1.4625  1.1363 -4.6568
   10SOL    HW2   30   1.057   2.558   0.743  0.3194  1.1866  1.4792
   11SOL     OW   31   2.322   1.159   1.243  0.3276  0.0458  0.2990
   11SOL    HW1   32   2.374   1.091   1.189  1.5172  0.3597  2.4095
   11SOL    HW2   33   2.233   1.122   1.284  0.5278 -2.1021  0.1670
   12SOL     OW   34   0.145   0.871   2.062  0.0700  0.1951  0.0503
   12SOL    HW1   35   0.167   0.907   1.970 -0.0988  0.7166 -0.4096
   12SOL    HW2   36   0.231   0.861   2.116  1.9094 -1.0205 -1.5134
   13SOL     OW   37   2.282   0.104   0.230  0.0331 -0.0522  0.5995
   13SOL    HW1   38   2.341   0.027   0.261 -3.9169 -0.7987 -1.0166
   13SOL    HW2   39   2.199   0.065   0.181  0.6573 -2.2204  0.6084
   14SOL     OW   40   1.636   2.020   0.142 -0.0370 -0.0140 -0.2071
   14SOL    HW1   41   1.604   1.937   0.194  2.4959 -0.3095 -2.7590
   14SOL    HW2   42   1.568   2.059   0.078  3.4023  0.2483 -2.6453
   15SOL     OW   43   0.009   2.736   2.335  0.0287  0.0080 -0.5700
   15SOL    HW1   44   0.088   2.797   2.322  1.2034  2.2511 -0.6053
   15SOL    HW2   45   3.051   2.778   2.299 -1.1529 -2.6347  0.5395
   16SOL     OW   46   2.953   0.646   1.120 -0.9181 -0.0140  0.2307
   16SOL    HW1   47   2.998   0.594   1.044 -2.1366 -0.3381  0.3951
   16SOL    HW2   48   2.920   0.583   1.193 -1.6416  0.8271  0.3033
   17SOL     OW   49   0.803   0.380   0.869  0.2735  0.2485 -0.1181
   17SOL    HW1   50   0.823   0.415   0.959 -1.9189  1.3601 -3.7990
   17SOL    HW2   51   0.867   0.305   0.847  0.2684  0.5368  1.1128
   18SOL     OW   52   0.262   0.221   0.388  0.3033 -0.0972  0.0071
   18SOL    HW1   53   0.194   0.277   0.444 -0.1498  2.1415  1.4271
   18SOL    HW2   54   0.343   0.197   0.443  0.5051  1.0395 -1.3613
   19SOL     OW   55   1.600   0.945   0.822 -0.0005 -0.5675  0.3811
   19SOL    HW1   56   1.547   1.019   0.776  0.6103 -1.6739  0.6265
   19SOL    HW2   57   1.565   0.938   0.919 -1.0125  1.6711  0.4058
   20SOL     OW   58   2.276   1.826   2.748  0.1117 -0.0420 -0.4637
   20SOL    HW1   59   2.312   1.904   2.691  1.1091 -2.2025 -1.4212
   20SOL    HW2   60   2.350   1.796   2.814  2.5582  0.8341  0.3459
   21SOL     OW   61   1.230   2.801   0.562 -0.0993  0.4210  0.0805
   21SOL    HW1   62   1.252   2.703   0.540  2.2949  0.7914  0.1889
   21SOL    HW2   63   1.311   2.862   0.547 -0.1408  1.1994 -2.6028
   22SOL     OW   64   2.325   0.994   0.387  0.1811  0.0248 -0.0733
   22SOL    HW1   65   2.310   0.992   0.486  1.1845  1.8864 -1.1642
   22SOL    HW2   66   2.384   1.077   0.366  1.1442  0.8676  1.4893
   23SOL     OW   67   0.984   0.541   1.877  0.1683 -0.1918  0.3550
   23SOL    HW1   68   0.915   0.522   1.799  2.1031  0.5501 -3.5447
   23SOL    HW2   69   1.058   0.473   1.868 -0.4239 -2.0248 -0.6883
   24SOL     OW   70   1.936   2.393   0.652 -0.2043  0.1119  0.1090
   24SOL    HW1   71   2.007   2.434   0.590 -1.4154  2.1034 -1.4775
   24SOL    HW2   72   1.890   2.473   0.692  4.2768 -0.9726 -0.5851
   25SOL     OW   73   1.761   0.206   2.585  0.0084  0.8187  0.8206
   25SOL    HW1   74   1.719   0.230   2.675 -1.4261  0.7697  1.6606
   25SOL    HW2   75   1.697   0.239   2.514  2.3615  0.3098  0.5417
   26SOL     OW   76   1.287   2.856   2.831  0.2030  0.3205  0.3241
   26SOL    HW1   77   1.315   2.756   2.829  0.0869  0.8409 -0.8476
   26SOL    HW2   78   1.200   2.879   2.779 -1.0351  2.4994 -2.1880
   27SOL     OW   79   1.216   0.254   1.130 -0.2502 -0.5880  0.8683
   27SOL    HW1   80   1.120   0.250   1.155  3.4412 -1.5029 -1.1336
   27SOL    HW2   81   1.270   0.230   1.213 -1.1472  2.2376 -1.0712
   28SOL     OW   82   0.286   1.714   1.003  0.0034  0.0938  0.3638
   28SOL    HW1   83   0.343   1.797   0.983 -1.1759  2.8417  0.1034
   28SOL    HW2   84   0.248   1.724   1.095 -0.8921 -0.1957 -2.3160
   29SOL     OW   85   2.711   1.038   1.197  0.0689  0.7824 -0.0389
   29SOL    HW1   86   2.693   1.130   1.164  2.3221 -2.0697  1.0785
   29SOL    HW2   87   2.674   1.016   1.290  0.4614 -0.2800 -0.8759
   30SOL     OW   88   1.748   2.575   1.590  0.0712  0.5394 -0.0390
   30SOL    HW1   89   1.775   2.526   1.505  0.1989 -1.9986  0.1494
   30SOL    HW2   90   1.709   2.665   1.559  1.2671 -2.0578 -0.2059
   31SOL     OW   91   1.711   2.825   1.211 -0.1399 -0.1930 -0.0854
   31SOL    HW1   92   1.645   2.786   1.147  2.9296 -0.0487  0.1957
   31SOL    HW2   93   1.803   2.817   1.173 -1.2583 -0.8767 -0.8779
   32SOL     OW   94   2.173   1.435   1.979 -0.0975  0.0051 -0.2235
   32SOL    HW1   95   2.246   1.377   2.014  1.4315 -0.9541  2.1357
   32SOL    HW2   96   2.184   1.446   1.877  1.6051  0.4554  0.1281
   33SOL     OW   97   2.332   2.980   2.451 -0.4537 -0.1458 -0.0048
   33SOL    HW1   98   2.327   3.052   2.522  0.8418  1.5173 -0.4715
   33SOL    HW2   99   2.254   2.992   2.387  1.0854  1.0860  0.5589
   34SOL     OW  100   2.115   0.758   0.764  0.1753  0.3195 -0.9159
   34SOL    HW1  101   2.134   0.720   0.673 -3.0358 -0.6338  3.8642
   34SOL    HW2  102   2.015   0.779   0.773 -2.6691  0.3560 -0.1596
   35SOL     OW  103   0.169   1.552   1.935  0.1372  0.1276 -0.0412
   35SOL    HW1  104   0.234   1.558   2.015  2.6985 -0.0818  2.8417
   35SOL    HW2  105   0.071   1.556   1.964 -0.4395  0.3418  1.7368
   36SOL     OW  106   2.502   2.256   2.744  0.0066 -0.6983 -0.2829
   36SOL    HW1  107   2.514   2.172   2.803 -0.5095 -2.4492  1.5290
   36SOL    HW2  108   2.433   2.314   2.790  0.2177 -2.0366  2.2300
   37SOL     OW  109   1.401   2.793   1.753 -0.5402 -0.1444 -0.0445
   37SOL    HW1  110   1.385   2.852   1.836 -1.6813  3.6306 -0.0999
   37SOL    HW2  111   1.458   2.851   1.693  1.1567 -1.4864  0.9502
   38SOL     OW  112   0.885   1.020   2.288 -0.1304  0.2050 -0.3743
   38SOL    HW1  113   0.950   0.945   2.265  1.2902 -1.9145  2.0132
   38SOL    HW2  114   0.825   1.038   2.205  0.6530 -1.3193 -1.3251
   39SOL     OW  115   1.992   0.708   1.723 -0.0489 -0.3094  0.0586
   39SOL    HW1  116   1.901   0.670   1.743 -2.4455  0.2026 -1.5540
   39SOL    HW2  117   2.055   0.629   1.721  0.5277 -1.2360 -1.4829
   40SOL     OW  118   0.797   2.319   0.550 -0.0473 -0.1380  0.2430
   40SOL    HW1  119   0.866   2.295   0.623  2.3726 -0.0097  1.5722
   40SOL    HW2  120   0.746   2.242   0.501 -1.1177 -2.4464  0.1907
   41SOL     OW  121   2.427   2.026   1.203  0.1293  0.4842  0.0292
   41SOL    HW1  122   2.410   1.981   1.295  0.5947 -0.6154  1.0613
   41SOL    HW2  123   2.414   2.129   1.207  2.4634  2.6297  1.4065
   42SOL     OW  124   2.485   0.779   0.581  0.3432  0.1265 -0.1553
   42SOL    HW1  125   2.497   0.828   0.674 -1.7909  4.0753  2.7264
   42SOL    HW2  126   2.513   0.682   0.587  0.4085  0.7767  1.4697
   43SOL     OW  127   0.709   1.075   2.488  0.3304  0.6683 -0.1550
   43SOL    HW1  128   0.644   1.153   2.475 -0.7443 -2.2176 -0.7116
   43SOL    HW2  129   0.770   1.054   2.409  0.1305  0.8156 -0.7716
   44SOL     OW  130   1.781   2.445   1.354 -0.2080  0.1586  0.2641
   44SOL    HW1  131   1.735   2.386   1.282  1.5690 -0.4439  1.3451
   44SOL    HW2  132   1.876   2.456   1.335 -1.2840  0.9222 -1.0621
   45SOL     OW  133   0.490   2.519   2.857  0.3969  0.6332 -0.2979
   45SOL    HW1  134   0.443   2.540   2.943  2.0711  0.2831 -0.0677
   45SOL    HW2  135   0.566   2.583   2.843 -1.5498 -1.6888  0.0053
   46SOL     OW  136   0.484   2.875   2.098 -0.7553  0.1067 -0.3673
   46SOL    HW1  137   0.538   2.896   2.017  2.1553 -1.6071  2.0519
   46SOL    HW2  138   0.536   2.809   2.154 -0.9289  0.6020  1.3261
   47SOL     OW  139   0.375   1.778   0.707 -0.3111 -0.0323 -0.6276
   47SOL    HW1  140   0.438   1.719   0.651  1.4316 -3.2312 -1.2795
   47SOL    HW2  141   0.423   1.822   0.785  0.3227  0.6768 -0.4369
   48SOL     OW  142   0.774   3.073   1.429  0.0086  0.0117 -0.5599
   48SOL    HW1  143   0.821   3.008   1.489 -2.6504 -1.6728  0.8876
   48SOL    HW2  144   0.712   0.014   1.482 -4.1056  2.1732  1.3560
   49SOL     OW  145   3.048   2.743   2.815 -0.2909  0.7450  0.0759
   49SOL    HW1  146   2.952   2.742   2.849 -0.6257 -0.7647 -4.0000
   49SOL    HW2  147   3.112   2.677   2.854  3.0130  0.5052 -1.5135
   50SOL     OW  148   1.284   1.015   0.263  0.0854 -0.1097 -0.6119
   50SOL    HW1  149   1.226   1.007   0.180  1.1032  0.8915  1.2360
   50SOL    HW2  150   1.333   1.106   0.262  0.4630  2.4103  1.3794
   51SOL     OW  151   1.961   0.118   0.576  0.1025 -0.6213 -0.5076
   51SOL    HW1  152   1.908   0.157   0.500  0.8705  1.8335 -1.1870
   51SOL    HW2  153   1.920   0.150   0.664 -0.9596  0.2771  2.6367
   52SOL     OW  154   0.370   1.501   0.819 -0.3228  0.3779 -0.1611
   52SOL    HW1  155   0.335   1.576   0.877 -0.3919  0.7618  1.7028
   52SOL    HW2  156   0.472   1.500   0.828  4.2711 -1.4112  1.7857
   53SOL     OW  157   0.170   1.007   3.008 -0.1930  0.4370  0.0994
   53SOL    HW1  158   0.089   1.008   3.068  1.4909 -1.1975  0.1472
   53SOL    HW2  159   0.252   0.976   3.064  1.1124  1.8779 -1.4009
   54SOL     OW  160   2.684   2.228   0.006 -0.3040  0.6915 -0.1573
   54SOL    HW1  161   2.774   2.236   0.055  1.1433 -2.3164  2.0273
   54SOL    HW2  162   2.633   2.314   3.121 -0.2590  1.3755  1.6654
   55SOL     OW  163   2.663   2.288   1.215  0.1093  0.6231 -0.3250
   55SOL    HW1  164   2.728   2.272   1.292  2.0101 -1.3856 -2.3610
   55SOL    HW2  165   2.566   2.307   1.247 -3.7345 -0.4314  1.0269
   56SOL     OW  166   1.864   0.248   1.226 -0.3106 -0.6300 -0.3240
   56SOL    HW1  167   1.765   0.222   1.224 -2.9327 -1.7678 -1.7402
   56SOL    HW2  168   1.888   0.311   1.302  3.0313 -1.6083  0.0989
   57SOL     OW  169   2.124   1.938   1.270 -1.0224  0.0866  0.0386
   57SOL    HW1  170   2.216   1.927   1.221 -0.0165  2.5806 -1.6219
   57SOL    HW2  171   2.042   1.921   1.213 -1.1908 -1.9552 -2.3537
   58SOL     OW  172   2.580   0.460   2.125 -0.0626  0.3253  0.2695
   58SOL    HW1  173   2.648   0.463   2.206  0.9600 -1.2161  2.8355
   58SOL    HW2  174   2.494   0.514   2.146 -1.8853 -1.1315  1.8573
   59SOL     OW  175   1.385   2.480   2.145  0.6689 -0.3367  0.6809
   59SOL    HW1  176   1.315   2.532   2.192  0.0108 -1.5786 -1.2453
   59SOL    HW2  177   1.382   2.499   2.044  0.2295  1.9713 -3.5706
   60SOL     OW  178   0.851   2.450   2.809  0.3555 -0.3088 -0.4196
   60SOL    HW1  179   0.836   2.468   2.910 -2.1337  0.4324  0.6603
   60SOL    HW2  180   0.816   2.536   2.763 -2.5453  3.2292  0.6599
   61SOL     OW  181   0.479   2.059   0.250 -0.8613  0.9338  0.3133
   61SOL    HW1  182   0.509   2.128   0.181  0.0238 -0.8177 -2.9090
   61SOL    HW2  183   0.462   1.971   0.196  2.7555 -2.6125 -0.7808
   62SOL     OW  184   1.399   1.580   1.837  0.3622 -0.1805 -0.6761
   62SOL    HW1  185   1.329   1.660   1.841 -2.3741  2.1230  2.0369
   62SOL    HW2  186   1.494   1.624   1.832 -0.8726 -0.4451  2.4082
   63SOL     OW  187   0.969   1.815   0.699 -0.0109  0.1042 -0.3756
   63SOL    HW1  188   0.868   1.814   0.699 -0.3843 -0.4265  1.0738
   63SOL    HW2  189   1.013   1.757   0.768 -0.8986  2.2696 -1.1554
   64SOL     OW  190   1.159   1.618   2.748 -0.6059  0.6284 -0.4180
   64SOL    HW1  191   1.224   1.656   2.817  1.2000 -0.5689  1.5194
   64SOL    HW2  192   1.066   1.618   2.788 -0.1314  2.4149  2.5424
   65SOL     OW  193   1.845   2.038   2.151 -0.3415 -0.4726 -0.7272
   65SOL    HW1  194   1.900   2.016   2.068  0.0622 -1.3598  0.0096
   65SOL    HW2  195   1.850   1.965   2.222  0.3583 -0.4006  3.7154
   66SOL     OW  196   3.111   0.924   1.015  0.1091 -0.3815  0.4021
   66SOL    HW1  197   3.012   0.908   1.034 -0.1610  1.6657  0.8808
   66SOL    HW2  198   0.025   0.937   0.922  0.9573  0.8050  0.1583
   67SOL     OW  199   2.105   2.500   0.904  0.1896  0.8926  0.4007
   67SOL    HW1  200   2.160   2.435   0.846  0.0908  3.1939  0.3213
   67SOL    HW2  201   2.098   2.595   0.870  1.3394 -1.8064  3.0534
   68SOL     OW  202   2.539   2.597   1.568 -0.6572  0.1742  0.4733
   68SOL    HW1  203   2.585   2.644   1.491 -1.6369 -2.1443  2.3667
   68SOL    HW2  204   2.541   2.671   1.640 -0.0346 -0.7745  0.1252
   69SOL     OW  205   2.431   2.777   0.006  0.4362 -0.3299 -0.1517
   69SOL    HW1  206   2.383   2.749   3.046  1.9176  0.0477  1.1180
   69SOL    HW2  207   2.360   2.802   0.074  2.3468  1.6546 -1.5881
   70SOL     OW  208   0.519   1.375   2.752  0.1580  0.2343  0.0603
   70SOL    HW1  209   0.622   1.373   2.745  1.5345  2.9695 -0.7424
   70SOL    HW2  210   0.481   1.287   2.721  0.6644 -0.6815  0.1093
   71SOL     OW  211   0.738   1.367   2.082 -0.2794  0.5880  0.0987
   71SOL    HW1  212   0.648   1.409   2.050 -3.6170 -0.1937  0.0025
   71SOL    HW2  213   0.821   1.409   2.035  1.9490  0.1242 -1.2927
   72SOL     OW  214   2.858   1.337   1.658 -0.2401  0.2448  0.3451
   72SOL    HW1  215   2.881   1.429   1.617 -2.2202 -0.6175  0.1710
   72SOL    HW2  216   2.891   1.331   1.754 -0.8479 -1.0900 -2.2939
   73SOL     OW  217   0.870   2.009   2.383  1.1139 -0.0320  0.1191
   73SOL    HW1  218   0.769   2.001   2.403  0.7278 -0.4222  1.1250
   73SOL    HW2  219   0.877   2.006   2.280 -0.0387  0.9596 -2.3117
   74SOL     OW  220   1.575   3.094   1.982 -0.1813  0.5073  0.1494
   74SOL    HW1  221   1.656   3.040   1.959  1.9600 -0.9742 -1.6062
   74SOL    HW2  222   1.596   0.037   2.051 -1.6294 -1.2059  0.3734
   75SOL     OW  223   1.041   2.861   0.749 -0.2171 -0.6082 -0.6869
   75SOL    HW1  224   0.968   2.792   0.737  1.0930  1.2754  1.8500
   75SOL    HW2  225   1.113   2.846   0.676  0.5435 -1.7895  1.5687
   76SOL     OW  226   0.494   1.876   2.644 -0.0415 -0.6873  0.0727
   76SOL    HW1  227   0.568   1.862   2.709 -2.8559  1.0725 -2.3683
   76SOL    HW2  228   0.467   1.789   2.605  0.3722  1.3455 -2.3142
   77SOL     OW  229   0.584   2.653   1.139 -0.1284 -0.4889  0.3284
   77SOL    HW1  230   0.539   2.736   1.178  1.4221 -0.6174 -0.3040
   77SOL    HW2  231   0.644   2.690   1.065 -0.0058  0.9704 -1.9734
   78SOL     OW  232   2.400   1.281   0.328 -0.4267  0.2122 -1.0690
   78SOL    HW1  233   2.406   1.372   0.293 -0.3622 -0.1602  1.4148
   78SOL    HW2  234   2.484   1.259   0.382  2.2215 -2.1256 -0.2953
   79SOL     OW  235   0.467   1.586   2.926  0.0665  0.3446 -0.4405
   79SOL    HW1  236   0.481   1.531   3.012 -0.8380  0.5722  1.5380
   79SOL    HW2  237   0.470   1.522   2.848  0.1491 -0.1531  1.3624
   80SOL     OW  238   1.830   1.742   1.693  0.0936 -0.2824 -0.0970
   80SOL    HW1  239   1.812   1.815   1.625 -2.9410 -1.6208  1.7022
   80SOL    HW2  240   1.750   1.742   1.761 -1.0757  1.5531  1.5434
   81SOL     OW  241   2.209   0.825   2.432 -0.0080  0.2010  0.0952
   81SOL    HW1  242   2.141   0.754   2.405  1.2160 -0.6899 -0.0231
   81SOL    HW2  243   2.224   0.891   2.353 -1.7343  0.6232 -3.2524
   82SOL     OW  244   1.730   1.940   1.493 -0.2630  0.3778 -0.4569
   82SOL    HW1  245   1.634   1.931   1.527 -0.8169  0.3218  0.2357
   82SOL    HW2  246   1.754   2.041   1.484  0.2557  1.1458 -0.7386
   83SOL     OW  247   2.899   0.024   2.720 -0.4071 -0.3010 -0.2235
   83SOL    HW1  248   2.875   3.114   2.628  1.1155  0.2170  1.2919
   83SOL    HW2  249   2.816   0.054   2.774  1.1677  2.0738  5.2742
   84SOL     OW  250   0.907   0.988   0.346  0.0245 -0.1452  0.2218
   84SOL    HW1  251   0.806   1.000   0.340  0.2141  1.1099  2.9604
   84SOL    HW2  252   0.932   0.910   0.411  0.8393  0.2394 -0.5397
   85SOL     OW  253   2.168   1.708   1.414 -0.0198 -0.1283  0.3019
   85SOL    HW1  254   2.135   1.799   1.399  0.3206 -2.5080  0.5929
   85SOL    HW2  255   2.171   1.660   1.324  0.2817 -0.9871 -1.6708
   86SOL     OW  256   0.694   0.887   1.279  0.3200 -0.4124 -0.1377
   86SOL    HW1  257   0.669   0.984   1.279  0.4636 -3.7274  1.8913
   86SOL    HW2  258   0.620   0.831   1.308  1.8858  1.7329 -1.9608
   87SOL     OW  259   2.770   2.082   2.615 -1.0325 -0.0393 -0.3157
   87SOL    HW1  260   2.859   2.110   2.568 -1.6104 -0.9400 -2.1077
   87SOL    HW2  261   2.774   2.089   2.716  2.9574 -1.9687  0.2088
   88SOL     OW  262   0.095   2.837   0.136  0.5641  0.2299 -0.2851
   88SOL    HW1  263   0.158   2.903   0.094 -0.5914  1.3668 -2.6942
   88SOL    HW2  264   0.046   2.892   0.208  0.8172  0.1134  1.0943
   89SOL     OW  265   1.357   0.016   0.668  0.3349  0.0688 -0.8408
   89SOL    HW1  266   1.418   3.076   0.621 -0.0673  1.5333  5.4707
   89SOL    HW2  267   1.314   0.086   0.608 -1.9100  0.5898 -1.1821
   90SOL     OW  268   2.691   1.055   2.252  0.0142  0.0939  0.4886
   90SOL    HW1  269   2.640   1.111   2.321  0.4233  1.4279  2.4430
   90SOL    HW2  270   2.790   1.058   2.268 -2.3460 -1.0176 -1.9270
   91SOL     OW  271   2.062   3.054   0.992 -0.2016  0.0373  0.0517
   91SOL    HW1  272   2.054   3.047   1.093 -0.0298  2.7033  0.2312
   91SOL    HW2  273   2.058   2.965   0.939 -2.3717  2.1648 -1.1859
   92SOL     OW  274   1.518   1.795   0.773 -0.3468  0.2745 -0.3910
   92SOL    HW1  275   1.503   1.696   0.749 -0.6890  3.2259 -1.1068
   92SOL    HW2  276   1.568   1.843   0.697 -1.0028 -3.6602 -0.5921
   93SOL     OW  277   0.225   1.601   0.383 -0.7745 -0.3105 -0.6980
   93SOL    HW1  278   0.193   1.694   0.416 -0.1707  3.7069  0.8058
   93SOL    HW2  279   0.289   1.613   0.308 -0.0189 -0.4041  1.0643
   94SOL     OW  280   1.097   2.760   1.404  0.1780 -0.3921 -0.1330
   94SOL    HW1  281   1.183   2.753   1.458  1.5719 -0.1942  2.4293
   94SOL    HW2  282   1.104   2.704   1.322  1.8949  1.7546  1.5637
   95SOL     OW  283   0.085   0.927   0.714  0.0283 -0.2109 -0.0613
   95SOL    HW1  284   0.175   0.889   0.685 -0.6245 -0.7933 -2.9021
   95SOL    HW2  285   0.014   0.850   0.719 -0.5671 -0.5080 -0.4581
   96SOL     OW  286   0.650   2.940   1.870 -0.6709  0.3598  0.0041
   96SOL    HW1  287   0.596   2.946   1.785 -1.1214  0.4039  0.9527
   96SOL    HW2  288   0.749   2.905   1.854  2.9599  0.4870  1.6433
   97SOL     OW  289   2.419   1.000   0.994  0.0663 -0.1930 -0.2915
   97SOL    HW1  290   2.420   0.923   1.062 -2.5302 -0.2014 -3.0375
   97SOL    HW2  291   2.342   1.000   0.928 -1.2468 -1.6206  3.5027
   98SOL     OW  292   0.164   2.443   1.875 -0.3822  0.0205 -0.0658
   98SOL    HW1  293   0.214   2.505   1.938  1.4535 -0.5894  1.6239
   98SOL    HW2  294   0.062   2.441   1.873  1.4143  0.4941  0.6881
   99SOL     OW  295   3.060   0.411   1.551 -0.1514  0.0239  0.5478
   99SOL    HW1  296   3.075   0.313   1.571 -0.0323 -0.1011 -2.1875
   99SOL    HW2  297   3.028   0.464   1.632  0.5782  0.3284 -0.5937
  100SOL     OW  298   1.981   0.400   2.743  0.1585  0.4857  0.0797
  100SOL    HW1  299   2.071   0.445   2.723 -0.6920 -2.4407  1.4552
  100SOL    HW2  300   1.949   0.349   2.658 -3.4208  1.6738  2.6962
  101SOL     OW  301   1.159   3.072   2.029  0.3841  0.2810 -0.1180
  101SOL    HW1  302   1.065   3.041   2.054  0.9215 -0.9279 -0.7638
  101SOL    HW2  303   1.199   3.103   2.119 -1.2594 -0.2294 -1.0390
  102SOL     OW  304   0.863   0.763   1.545 -0.0244 -0.6092 -0.0082
  102SOL    HW1  305   0.824   0.667   1.552 -1.1625 -1.8626  2.3076
  102SOL    HW2  306   0.786   0.831   1.561 -0.3701 -2.2792 -1.4321
  103SOL     OW  307   0.869   0.650   2.985  0.5396  0.2372 -0.4235
  103SOL    HW1  308   0.868   0.698   2.896  2.8456  0.7705  0.2576
  103SOL    HW2  309   0.771   0.638   3.010  1.4021  0.3930  2.4736
  104SOL     OW  310   0.368   0.412   2.077  0.4008 -0.0423 -0.0659
  104SOL    HW1  311   0.440   0.405   2.003  2.3232  2.0635  0.1666
  104SOL    HW2  312   0.377   0.344   2.154  0.5875 -0.5161 -0.2253
  105SOL     OW  313   2.649   2.150   1.618 -0.5674  0.1960  0.1250
  105SOL    HW1  314   2.638   2.062   1.561  2.2501 -0.8407  0.8940
  105SOL    HW2  315   2.642   2.130   1.717  0.9611 -0.3975 -1.0156
  106SOL     OW  316   0.885   3.100   0.668 -0.1959  0.3305  0.4496
  106SOL    HW1  317   0.893   0.012   0.574  0.0038 -1.2514 -0.7533
  106SOL    HW2  318   0.964   3.038   0.689 -1.0842  1.7967 -0.2201
  107SOL     OW  319   3.025   2.149   1.214  0.5327 -0.3096 -0.0069
  107SOL    HW1  320   3.062   2.065   1.178  1.8481  0.0674  0.1304
  107SOL    HW2  321   2.953   2.140   1.286  1.3462  0.2808 -0.5176
  108SOL     OW  322   0.024   2.210   0.490 -0.3530 -0.2159  0.1295
  108SOL    HW1  323   0.118   2.176   0.484  2.0154 -0.2426  0.1917
  108SOL    HW2  324   3.114   2.195   0.583 -0.1881  3.8917 -2.1243
  109SOL     OW  325   1.740   2.926   0.665  0.2073 -0.6062 -0.0939
  109SOL    HW1  326   1.811   2.857   0.631  0.1387  0.5789 -4.2381
  109SOL    HW2  327   1.771   2.995   0.734 -0.0725 -0.2046 -2.0478
  110SOL     OW  328   1.761   1.877   0.563 -0.6058  0.2007  0.3071
  110SOL    HW1  329   1.761   1.954   0.495  1.6583  0.9683 -1.1062
  110SOL    HW2  330   1.852   1.847   0.589  1.5284 -0.2183  2.5393
  111SOL     OW  331   1.908   2.721   2.039  0.2611 -0.1304  0.1909
  111SOL    HW1  332   2.007   2.725   2.026 -0.2805 -0.2166 -0.3669
  111SOL    HW2  333   1.876   2.723   2.135  0.1526 -0.9898 -2.0912
  112SOL     OW  334   1.690   2.191   2.597 -0.0633  0.0364 -0.2131
  112SOL    HW1  335   1.624   2.250   2.555  0.4120  1.2248 -0.2363
  112SOL    HW2  336   1.780   2.237   2.602  2.2638 -0.6128  0.9052
  113SOL     OW  337   2.218   2.080   2.094  0.1148  0.7067 -0.2874
  113SOL    HW1  338   2.249   2.021   2.172  0.7153 -0.4557  2.2703
  113SOL    HW2  339   2.146   2.037   2.038  1.1069  1.8725  2.2771
  114SOL     OW  340   0.151   1.104   1.125  0.2257 -0.0614  0.2296
  114SOL    HW1  341   0.091   1.025   1.101 -3.6375  0.7347  0.4044
  114SOL    HW2  342   0.098   1.187   1.109  0.6622  1.2229 -1.5364
  115SOL     OW  343   2.553   0.825   2.769 -0.2671  0.7486 -0.6626
  115SOL    HW1  344   2.644   0.832   2.817 -0.6193  1.3548  1.0516
  115SOL    HW2  345   2.574   0.786   2.676 -2.3732 -0.2581  0.3195
  116SOL     OW  346   2.763   0.525   2.954 -0.1822  0.1648 -0.1143
  116SOL    HW1  347   2.691   0.586   2.984  0.7226  0.6086  1.6428
  116SOL    HW2  348   2.733   0.472   2.874  2.3493  1.6138 -1.8179
  117SOL     OW  349   2.519   2.624   0.661  0.3558 -0.0457 -0.0740
  117SOL    HW1  350   2.535   2.550   0.733  1.5449  0.8873  0.2034
  117SOL    HW2  351   2.594   2.687   0.642 -1.5049 -2.2531 -1.6738
  118SOL     OW  352   0.898   1.962   2.108  0.4173  0.1321  0.3277
  118SOL    HW1  353   0.908   2.021   2.027  0.2354  0.7301  1.3915
  118SOL    HW2  354   0.978   1.906   2.122 -1.8063 -1.0215  0.1476
  119SOL     OW  355   0.696   2.775   0.368 -0.2323  0.6000 -0.2649
  119SOL    HW1  356   0.761   2.833   0.312 -0.7171  3.0171  2.0505
  119SOL    HW2  357   0.753   2.702   0.411  0.2067  1.3359  0.3669
  120SOL     OW  358   1.349   0.506   0.621 -0.6724  0.0736 -0.0289
  120SOL    HW1  359   1.406   0.446   0.681 -1.2481 -1.7440  0.3833
  120SOL    HW2  360   1.382   0.602   0.610 -3.0395 -0.4872  1.4380
  121SOL     OW  361   1.669   0.505   0.919 -0.8437  0.2402 -0.1960
  121SOL    HW1  362   1.633   0.593   0.962 -3.1849  0.7349  0.8412
  121SOL    HW2  363   1.751   0.532   0.863 -0.5854  0.4623 -0.1611
  122SOL     OW  364   1.956   1.389   2.469  0.5507  0.1643 -0.0751
  122SOL    HW1  365   1.905   1.308   2.438  1.3937 -2.2431 -0.4583
  122SOL    HW2  366   1.988   1.439   2.388 -0.0376  1.2193  1.0770
  123SOL     OW  367   0.895   1.245   1.026  0.0812 -0.2069 -0.3019
  123SOL    HW1  368   0.915   1.170   0.961 -1.9015 -1.6208  0.8596
  123SOL    HW2  369   0.818   1.303   0.997 -0.1068  1.5556  1.5740
  124SOL     OW  370   0.570   0.291   2.696  0.2654  0.1727 -0.6406
  124SOL    HW1  371   0.542   0.307   2.792 -0.5832  1.1002  2.8436
  124SOL    HW2  372   0.653   0.342   2.673 -0.8752 -0.2503  0.0132
  125SOL     OW  373   1.010   3.027   3.121  0.0069  1.0408 -0.3803
  125SOL    HW1  374   1.085   3.054   3.059 -0.7655 -0.3321  1.3192
  125SOL    HW2  375   0.994   3.096   0.066  0.0434 -0.9643 -0.0238
  126SOL     OW  376   0.737   1.307   0.104 -0.6273 -0.5577  0.3925
  126SOL    HW1  377   0.730   1.205   0.096 -1.5589  1.3467  0.0303
  126SOL    HW2  378   0.761   1.329   0.199 -1.2413 -0.4928 -0.4869
  127SOL     OW  379   1.250   2.214   1.258  0.0077  0.4732  0.3689
  127SOL    HW1  380   1.228   2.281   1.332 -0.6260 -1.0281  0.8179
  127SOL    HW2  381   1.318   2.255   1.195  1.0738  1.7661  0.8142
  128SOL     OW  382   0.914   1.733   0.112 -0.0417 -0.0055 -0.5136
  128SOL    HW1  383   0.935   1.637   0.085 -0.4399  1.4795 -1.1657
  128SOL    HW2  384   1.001   1.780   0.137 -1.2201 -0.7779  1.0095
  129SOL     OW  385   2.011   1.442   2.207  0.7736 -0.0738  0.0214
  129SOL    HW1  386   1.930   1.385   2.189 -1.0510 -0.8225 -1.6617
  129SOL    HW2  387   2.078   1.435   2.131  0.6243  1.5343  0.9882
  130SOL     OW  388   2.036   1.715   1.871  0.2546 -0.0179 -0.0664
  130SOL    HW1  389   2.035   1.614   1.901  2.6169 -2.2839 -0.5378
  130SOL    HW2  390   1.956   1.728   1.805 -2.6402 -0.9415 -0.5724
  131SOL     OW  391   0.827   2.535   2.071  0.3751 -0.1781  0.0585
  131SOL    HW1  392   0.886   2.461   2.109  1.7509 -1.1181 -0.9522
  131SOL    HW2  393   0.756   2.503   2.002 -0.2531  0.0021 -1.7147
  132SOL     OW  394   2.485   1.654   0.656  0.0792 -0.7254 -0.3264
  132SOL    HW1  395   2.548   1.573   0.658 -1.6129  0.6583  0.3169
  132SOL    HW2  396   2.526   1.740   0.624 -0.6684 -0.1408  1.5058
  133SOL     OW  397   0.518   1.484   1.977  0.0632  0.0413 -0.2352
  133SOL    HW1  398   0.537   1.579   1.932  0.0884 -1.6710 -0.2709
  133SOL    HW2  399   0.457   1.497   2.060  0.9382  1.1754 -0.3992
  134SOL     OW  400   2.992   1.456   0.832 -0.5638  0.4106  0.0377
  134SOL    HW1  401   3.059   1.378   0.835  1.6458 -0.2623 -1.0694
  134SOL    HW2  402   2.981   1.476   0.732  2.8639  2.6834 -1.5546
  135SOL     OW  403   1.792   1.029   3.118 -0.2560 -0.3626  0.0838
  135SOL    HW1  404   1.752   1.015   0.086 -1.0703  0.4409 -4.1901
  135SOL    HW2  405   1.728   0.992   3.050  0.2744  1.4550 -1.4219
  136SOL     OW  406   0.020   1.372   1.087  0.1477 -0.2595 -0.0158
  136SOL    HW1  407   3.051   1.362   1.130 -0.3593  0.7946 -1.2264
  136SOL    HW2  408   0.035   1.466   1.063  1.4149 -0.7810 -1.3986
  137SOL     OW  409   2.217   1.616   0.566 -0.4486  0.0292  0.0760
  137SOL    HW1  410   2.175   1.524   0.550 -0.4769  2.4282  1.9553
  137SOL    HW2  411   2.306   1.610   0.611 -2.2269 -1.7689 -1.9808
  138SOL     OW  412   2.613   0.583   0.734  0.4421  0.2486 -0.4571
  138SOL    HW1  413   2.614   0.568   0.831 -1.4239 -0.9699 -0.0830
  138SOL    HW2  414   2.599   0.496   0.681 -1.3658 -1.0238 -0.2027
  139SOL     OW  415   2.680   0.139   2.912  0.8567 -0.3550  0.2920
  139SOL    HW1  416   2.709   0.147   3.007  2.1905 -2.4603 -0.5762
  139SOL    HW2  417   2.639   0.048   2.892 -0.7862  0.2843 -0.6552
  140SOL     OW  418   0.737   1.470   1.371 -0.5733  0.4374 -0.0338
  140SOL    HW1  419   0.786   1.379   1.368 -0.1167  0.1174 -0.5456
  140SOL    HW2  420   0.725   1.501   1.469 -1.1102 -1.6805  0.7365
  141SOL     OW  421   1.137   1.366   0.800 -0.3603  0.4246 -0.0622
  141SOL    HW1  422   1.228   1.332   0.840  4.5063  0.7596  0.0718
  141SOL    HW2  423   1.080   1.294   0.753 -1.3203 -0.4981 -2.4227
  142SOL     OW  424   1.496   0.661   1.091  0.0000  0.2377 -0.1400
  142SOL    HW1  425   1.410   0.622   1.129 -1.9171 -1.7900 -2.8721
  142SOL    HW2  426   1.507   0.757   1.126 -1.0571  0.2031  4.0850
  143SOL     OW  427   0.582   0.611   2.948 -0.3301  0.0973  0.3056
  143SOL    HW1  428   0.509   0.685   2.938 -1.5921  0.8258 -0.1465
  143SOL    HW2  429   0.535   0.519   2.940  1.0058 -0.5943 -1.7584
  144SOL     OW  430   2.641   0.176   0.292  0.1107  0.3635  0.1107
  144SOL    HW1  431   2.565   0.236   0.255  1.5279 -1.3441  0.0202
  144SOL    HW2  432   2.653   0.182   0.394 -1.6835  0.1994  0.1580
  145SOL     OW  433   2.216   0.112   2.586 -0.1520  0.1597  0.2229
  145SOL    HW1  434   2.212   0.137   2.687 -1.9622  1.2370 -0.5763
  145SOL    HW2  435   2.230   0.199   2.530 -1.5416  0.7546 -0.5830
  146SOL     OW  436   2.835   2.934   0.370  0.4397 -0.4435 -0.3124
  146SOL    HW1  437   2.795   2.937   0.274  0.3187  1.5649  0.0878
  146SOL    HW2  438   2.936   2.946   0.368  1.7300 -3.2291  1.1964
  147SOL     OW  439   1.395   0.878   2.712 -0.8827  0.7568 -0.4773
  147SOL    HW1  440   1.413   0.792   2.768 -0.1512  0.0088 -1.0528
  147SOL    HW2  441   1.322   0.927   2.761 -1.1804 -0.3656  0.0869
  148SOL     OW  442   1.008   0.048   0.442  0.4100  0.2204 -0.0645
  148SOL    HW1  443   1.079   0.124   0.458  0.4174  2.7026  1.1871
  148SOL    HW2  444   1.051   3.093   0.393  0.2155  1.0889 -2.4789
  149SOL     OW  445   1.334   0.785   2.272  0.3767  0.4447  0.2746
  149SOL    HW1  446   1.392   0.789   2.357 -0.1377 -1.9746 -0.7302
  149SOL    HW2  447   1.304   0.881   2.246 -0.2752  0.4990 -0.8869
  150SOL     OW  448   1.670   0.007   2.980 -0.2323  0.1167  0.3282
  150SOL    HW1  449   1.692   3.110   3.080  0.2741 -0.4714  2.8446
  150SOL    HW2  450   1.681   3.047   2.926 -0.4907 -0.0340  2.3274
  151SOL     OW  451   0.509   1.410   3.115  0.0210  0.3075  0.1637
  151SOL    HW1  452   0.438   1.349   0.037 -0.8108 -0.0798  0.1370
  151SOL    HW2  453   0.600   1.369   0.011 -1.3389 -0.8789 -0.0707
  152SOL     OW  454   0.824   0.483   1.155  0.1676 -0.5816 -0.3293
  152SOL    HW1  455   0.759   0.513   1.228 -1.8347 -0.1162  1.4442
  152SOL    HW2  456   0.878   0.394   1.175 -0.5793 -1.1797  0.5676
  153SOL     OW  457   2.589   3.076   2.018  0.0656 -0.0968 -0.4047
  153SOL    HW1  458   2.618   0.047   2.031  1.2465  0.8539 -1.7959
  153SOL    HW2  459   2.489   3.065   2.024  1.9766  1.2743 -1.6561
  154SOL     OW  460   2.328   3.003   2.051  0.8065 -0.4381 -0.0919
  154SOL    HW1  461   2.261   3.013   2.130  0.4732 -2.5841  2.0703
  154SOL    HW2  462   2.300   2.926   1.999 -3.8627 -0.2942  0.2424
  155SOL     OW  463   3.098   1.232   0.405 -0.0614  0.0841 -0.2972
  155SOL    HW1  464   3.097   1.138   0.357 -0.3488 -1.7676 -1.2113
  155SOL    HW2  465   3.111   1.216   0.504 -0.5241 -0.4691  1.7559
  156SOL     OW  466   2.150   1.337   0.516  0.0083 -0.0359 -0.2176
  156SOL    HW1  467   2.076   1.336   0.585 -0.6768 -0.8795 -2.9352
  156SOL    HW2  468   2.108   1.313   0.425  3.3584 -1.1491 -0.3135
  157SOL     OW  469   0.721   2.967   2.838 -0.5056 -0.4542  0.8727
  157SOL    HW1  470   0.669   2.940   2.925 -0.7296 -1.9792  0.0876
  157SOL    HW2  471   0.658   3.031   2.784  0.1202  0.2262 -0.4359
  158SOL     OW  472   2.078   1.067   1.340  0.0292  0.9220  0.1623
  158SOL    HW1  473   2.105   0.998   1.415  3.8060 -0.5923  0.1221
  158SOL    HW2  474   2.028   1.145   1.380 -1.3427  0.0161 -2.6586
  159SOL     OW  475   0.092   0.097   0.170 -0.4931  0.3087 -0.7199
  159SOL    HW1  476   0.141   0.045   0.098 -0.4492 -3.4512  0.8814
  159SOL    HW2  477   0.161   0.114   0.242 -1.2850  0.6621  0.5248
  160SOL     OW  478   2.569   2.123   1.875 -0.2259 -0.0577  0.4917
  160SOL    HW1  479   2.609   2.096   1.967 -1.7966 -1.9516  2.6177
  160SOL    HW2  480   2.524   2.211   1.876  2.8599 -2.1383 -2.3373
  161SOL     OW  481   0.237   0.648   0.002 -0.4247 -0.0116 -0.0382
  161SOL    HW1  482   0.326   0.692   3.100  0.1311  0.0019  1.4302
  161SOL    HW2  483   0.174   0.660   3.044 -1.6237  0.2625  0.5635
  162SOL     OW  484   0.760   0.538   1.723  0.2073 -0.4947 -0.2107
  162SOL    HW1  485   0.682   0.586   1.764 -1.0012  0.1150 -3.5692
  162SOL    HW2  486   0.739   0.444   1.690  0.1572  1.7605 -0.2239
  163SOL     OW  487   2.586   2.926   2.439 -0.0747  0.1592  0.4561
  163SOL    HW1  488   2.592   2.866   2.524 -0.8659  0.7988 -1.2466
  163SOL    HW2  489   2.488   2.947   2.425  1.5684  0.7847 -0.7294
  164SOL     OW  490   2.220   1.693   0.298 -0.0083  0.3011  0.3493
  164SOL    HW1  491   2.155   1.632   0.253 -0.0442  1.7945  1.4076
  164SOL    HW2  492   2.214   1.673   0.396  1.0775 -0.0551  3.0270
  165SOL     OW  493   0.352   2.976   0.488  0.2944 -0.5228 -0.1174
  165SOL    HW1  494   0.391   3.062   0.448 -0.6791  0.9937  1.4130
  165SOL    HW2  495   0.429   2.934   0.538  3.6324  1.0429 -2.2666
  166SOL     OW  496   2.898   0.376   0.034  0.0305 -0.0035 -0.1108
  166SOL    HW1  497   2.850   0.440   3.099  1.9580 -1.5528  0.5014
  166SOL    HW2  498   2.885   0.279   3.124 -0.9969 -0.1625  0.2725
  167SOL     OW  499   2.232   0.698   0.514 -0.6436 -0.0234  0.2733
  167SOL    HW1  500   2.328   0.731   0.536  0.6831  0.2670 -0.1410
  167SOL    HW2  501   2.240   0.650   0.422  2.6603  0.9429 -0.9413
  168SOL     OW  502   1.607   0.323   2.375  0.2854 -0.0531  0.2750
  168SOL    HW1  503   1.534   0.355   2.439  1.5179  0.0323 -0.3979
  168SOL    HW2  504   1.605   0.389   2.296  0.5658 -1.4171  3.8041
  169SOL     OW  505   0.481   1.890   0.939 -0.0504 -0.6970 -0.0598
  169SOL    HW1  506   0.543   1.891   1.020  0.2116 -0.4409  1.8773
  169SOL    HW2  507   0.462   1.985   0.906 -1.8188  0.0140  1.9835
  170SOL     OW  508   0.400   0.122   1.304  0.3823  0.3364  0.9276
  170SOL    HW1  509   0.445   0.190   1.371  4.3999 -1.2041  1.8706
  170SOL    HW2  510   0.391   0.029   1.346 -1.0133 -1.2849 -1.1645
  171SOL     OW  511   2.405   1.380   2.272 -0.4594 -0.8641 -0.4432
  171SOL    HW1  512   2.385   1.340   2.179  2.2857 -0.0275 -1.0533
  171SOL    HW2  513   2.465   1.463   2.276 -0.2094 -1.0670  0.1285
  172SOL     OW  514   0.904   1.684   1.052  0.1152 -0.6300 -0.7196
  172SOL    HW1  515   0.829   1.616   1.050  0.5827  0.6369 -1.2794
  172SOL    HW2  516   0.907   1.729   1.146  0.0108 -0.0059  0.0884
  173SOL     OW  517   1.838   2.167   3.111  0.0031 -0.1589  0.0763
  173SOL    HW1  518   1.883   2.221   0.060  2.0264 -1.4520  2.5111
  173SOL    HW2  519   1.768   2.106   0.027  0.7603  1.4203 -1.2818
  174SOL     OW  520   1.721   0.621   0.113 -0.2921 -0.0575  0.2730
  174SOL    HW1  521   1.808   0.660   0.079 -1.7460 -0.4790 -0.4865
  174SOL    HW2  522   1.660   0.701   0.112  2.5424 -1.4739 -0.2623
  175SOL     OW  523   0.615   1.695   1.842 -0.1008  0.1248 -0.3934
  175SOL    HW1  524   0.569   1.763   1.785 -0.6145  1.9049  1.1845
  175SOL    HW2  525   0.650   1.740   1.929  0.3637 -0.9553 -0.5610
  176SOL     OW  526   0.797   0.283   0.365  0.8318 -0.5771  0.2917
  176SOL    HW1  527   0.871   0.357   0.368 -0.6123  0.8055  0.6842
  176SOL    HW2  528   0.780   0.257   0.461 -1.1926  0.6720  0.8027
  177SOL     OW  529   0.013   1.621   0.037  0.1079  0.4479  0.2877
  177SOL    HW1  530   3.085   1.597   3.077 -0.2965 -0.6028 -0.7167
  177SOL    HW2  531   0.049   1.534   0.080  0.1294 -3.4401  2.6090
  178SOL     OW  532   2.998   2.346   2.274 -0.0586  0.0445 -0.8531
  178SOL    HW1  533   2.979   2.283   2.195 -0.2900 -2.9940 -0.1464
  178SOL    HW2  534   3.076   2.409   2.246  0.7414 -1.1688  0.2030
  179SOL     OW  535   2.292   0.154   2.839 -0.0093 -0.2853  0.0410
  179SOL    HW1  536   2.344   0.239   2.860  0.5166 -0.9475 -2.4129
  179SOL    HW2  537   2.222   0.133   2.905  1.2402 -0.7209 -2.8934
  180SOL     OW  538   2.474   0.402   0.986  0.8979  0.4416 -0.0425
  180SOL    HW1  539   2.386   0.403   0.936  0.6082 -0.9174  1.4236
  180SOL    HW2  540   2.503   0.499   1.018 -0.9948  3.0188  0.0811
  181SOL     OW  541   2.805   3.083   2.482 -0.3805  0.0722 -0.3774
  181SOL    HW1  542   2.846   3.103   2.391  1.9341 -1.4954 -1.5792
  181SOL    HW2  543   2.715   3.038   2.467 -3.3593 -0.6670 -1.8570
  182SOL     OW  544   2.350   2.427   2.373  0.4527 -0.3010 -0.2513
  182SOL    HW1  545   2.437   2.435   2.429  0.0822 -0.1388  2.7722
  182SOL    HW2  546   2.363   2.365   2.291 -1.3160 -0.0922  1.9908
  183SOL     OW  547   2.658   1.148   1.528 -0.8143  0.0178 -0.0513
  183SOL    HW1  548   2.709   1.220   1.578 -2.1757 -0.1766  2.2341
  183SOL    HW2  549   2.589   1.186   1.466 -1.7027  0.2237  1.1186
  184SOL     OW  550   2.822   1.626   0.952  0.0354  0.5114  0.3166
  184SOL    HW1  551   2.825   1.627   1.054 -2.2525  0.8614 -0.4145
  184SOL    HW2  552   2.866   1.545   0.911 -2.4203 -2.8489  1.2321
  185SOL     OW  553   0.188   3.054   1.006  0.3786  0.0665 -0.2540
  185SOL    HW1  554   0.163   2.989   0.932  1.6288 -1.4422 -1.9318
  185SOL    HW2  555   0.289   3.074   1.003 -0.3338 -1.1088 -2.0198
  186SOL     OW  556   2.348   2.668   2.221 -0.4656 -0.1600  0.2575
  186SOL    HW1  557   2.284   2.722   2.275  0.0938  0.8717 -1.8494
  186SOL    HW2  558   2.349   2.570   2.248 -0.3746  0.6327 -2.7553
  187SOL     OW  559   0.315   1.430   0.571  0.0763 -0.0432  0.2432
  187SOL    HW1  560   0.251   1.488   0.518  2.6586 -0.5630  0.0694
  187SOL    HW2  561   0.334   1.459   0.668 -1.7117  1.7905 -0.6646
  188SOL     OW  562   1.604   1.818   0.323  0.0666 -0.3768  0.2342
  188SOL    HW1  563   1.681   1.823   0.390  1.0932 -1.6461 -0.8088
  188SOL    HW2  564   1.513   1.792   0.365 -0.3337 -3.2407  1.3492
  189SOL     OW  565   3.020   1.503   2.922 -0.2632 -0.6799  0.0852
  189SOL    HW1  566   3.007   1.409   2.966 -0.3264 -1.1806 -0.7884
  189SOL    HW2  567   2.946   1.522   2.856  1.1766 -0.2181  0.6726
  190SOL     OW  568   2.254   0.732   2.678 -0.1846 -0.0800 -0.1359
  190SOL    HW1  569   2.251   0.747   2.580 -1.2543 -1.5600 -2.4138
  190SOL    HW2  570   2.324   0.791   2.720  0.3899 -0.3271 -1.5400
  191SOL     OW  571   0.797   1.085   2.047 -0.0515  0.0275 -0.2158
  191SOL    HW1  572   0.814   1.063   1.952  0.3638 -1.0298  2.9024
  191SOL    HW2  573   0.763   1.180   2.055  0.0783  1.0360  1.2509
  192SOL     OW  574   1.814   1.325   2.061 -0.2321  0.4208  0.0218
  192SOL    HW1  575   1.732   1.261   2.064 -2.6863  0.2919  1.7059
  192SOL    HW2  576   1.893   1.273   2.019  3.7336 -0.6754 -0.7144
  193SOL     OW  577   1.157   2.588   1.188  0.0441 -0.0312 -0.0187
  193SOL    HW1  578   1.218   2.614   1.106  0.6571 -0.0828 -1.8925
  193SOL    HW2  579   1.065   2.556   1.161  2.4188 -1.1914  0.4111
  194SOL     OW  580   1.441   1.295   1.838 -0.3658  0.1701  0.1063
  194SOL    HW1  581   1.497   1.263   1.758 -1.5854  0.9195 -3.1913
  194SOL    HW2  582   1.417   1.390   1.830  0.9992 -2.1793 -0.4859
  195SOL     OW  583   1.842   0.243   0.801 -0.1889 -0.2012 -0.1151
  195SOL    HW1  584   1.808   0.331   0.767  1.0733 -0.7222 -3.5850
  195SOL    HW2  585   1.919   0.266   0.861  1.8268  0.9483 -1.8899
  196SOL     OW  586   0.847   1.295   2.310 -0.0735 -0.4154 -0.3248
  196SOL    HW1  587   0.811   1.313   2.218  3.0575 -1.8690 -0.1821
  196SOL    HW2  588   0.910   1.220   2.305 -2.7358 -0.3973  2.2633
  197SOL     OW  589   0.433   0.236   2.270 -0.5040  0.7774 -0.0250
  197SOL    HW1  590   0.392   0.264   2.356 -1.1687  0.7713  0.2884
  197SOL    HW2  591   0.446   0.135   2.268 -0.9159 -0.9057 -2.2155
  198SOL     OW  592   2.907   1.374   1.199  0.3754  0.1311  0.2792
  198SOL    HW1  593   2.898   1.476   1.194 -0.8864  1.3008  1.1767
  198SOL    HW2  594   2.825   1.331   1.154 -0.1905 -0.8697 -0.6755
  199SOL     OW  595   0.466   2.159   1.289  0.7645 -0.5945 -0.0293
  199SOL    HW1  596   0.386   2.146   1.350 -1.5108 -3.6502 -0.3617
  199SOL    HW2  597   0.454   2.235   1.222 -4.1589  1.1249  0.2916
  200SOL     OW  598   2.530   2.004   2.829  0.4118  0.2965  0.4416
  200SOL    HW1  599   2.618   2.040   2.855 -0.7818 -0.2344  2.2590
  200SOL    HW2  600   2.514   1.913   2.877  0.6940 -0.5061 -3.6542
  201SOL     OW  601   0.865   2.326   1.370 -0.9574 -0.3192  0.4897
  201SOL    HW1  602   0.931   2.317   1.447  0.7373  0.7426  1.3636
  201SOL    HW2  603   0.899   2.271   1.290  0.3472 -1.0156  0.4049
  202SOL     OW  604   0.825   2.282   0.132 -0.0438  0.0669 -0.2418
  202SOL    HW1  605   0.896   2.323   0.193  0.9195 -0.3626  3.1145
  202SOL    HW2  606   0.861   2.199   0.074  2.2393 -3.5333 -0.0051
  203SOL     OW  607   1.966   0.322   2.454 -0.2153  0.3158 -0.3371
  203SOL    HW1  608   1.992   0.279   2.364 -1.6519  2.2437  2.5439
  203SOL    HW2  609   1.886   0.275   2.500 -1.1540  0.0925 -0.4628
  204SOL     OW  610   0.161   1.303   1.816  0.2216  0.5109  0.0033
  204SOL    HW1  611   0.178   1.402   1.836 -0.9044 -0.7000  0.8268
  204SOL    HW2  612   0.250   1.253   1.831 -2.1542 -1.7597 -0.6974
  205SOL     OW  613   2.350   1.478   2.544 -0.4168  0.1856 -0.0517
  205SOL    HW1  614   2.369   1.469   2.446 -1.8446 -0.4819  0.5674
  205SOL    HW2  615   2.276   1.548   2.557  1.0760 -2.5475 -1.3885
  206SOL     OW  616   0.135   1.989   2.646  0.0433  0.6982  0.3266
  206SOL    HW1  617   0.118   1.888   2.652 -2.0775 -0.3887  0.8657
  206SOL    HW2  618   0.075   2.041   2.577 -2.4656  1.2447 -0.4803
  207SOL     OW  619   0.548   2.955   1.609  0.1265  0.5853 -0.3241
  207SOL    HW1  620   0.452   2.982   1.579 -0.3664  1.5785  1.1050
  207SOL    HW2  621   0.589   2.880   1.551  0.8463  1.0674  0.3416
  208SOL     OW  622   0.466   2.545   1.390  0.5518 -0.2445  0.0482
  208SOL    HW1  623   0.503   2.529   1.295 -1.7367  0.6064 -0.8904
  208SOL    HW2  624   0.392   2.479   1.420 -0.8948  0.3005  3.9216
  209SOL     OW  625   1.165   2.623   2.565 -0.2374  0.8011 -0.2778
  209SOL    HW1  626   1.155   2.527   2.603  2.1800  0.5526  0.5751
  209SOL    HW2  627   1.113   2.685   2.624 -1.6908  1.2679 -0.3668
  210SOL     OW  628   2.779   1.342   2.187 -0.6301 -0.7108 -0.3079
  210SOL    HW1  629   2.805   1.415   2.249  0.7667 -2.6852 -3.2141
  210SOL    HW2  630   2.737   1.263   2.240 -0.6690 -1.7006 -2.0774
  211SOL     OW  631   1.367   2.891   2.004 -0.6514  0.2191  0.3786
  211SOL    HW1  632   1.436   2.905   2.075 -0.0347 -0.4837 -1.0196
  211SOL    HW2  633   1.293   2.967   2.006 -5.9173  1.9613 -1.0113
  212SOL     OW  634   1.411   2.561   1.877  0.6183 -0.4334  0.0868
  212SOL    HW1  635   1.397   2.661   1.849 -3.0814  1.5035  0.9363
  212SOL    HW2  636   1.513   2.541   1.872  1.3809  0.8218 -1.0956
  213SOL     OW  637   2.506   0.682   1.695 -0.1138 -0.2258 -0.0095
  213SOL    HW1  638   2.516   0.602   1.638 -1.4267  1.1163 -0.1715
  213SOL    HW2  639   2.582   0.742   1.662  1.3366  0.4826 -0.8718
  214SOL     OW  640   0.844   2.531   1.170  0.3456 -0.4415  0.1053
  214SOL    HW1  641   0.829   2.447   1.224  2.3745  2.6843  1.6374
  214SOL    HW2  642   0.758   2.574   1.138  1.2620 -1.3754 -0.3610
  215SOL     OW  643   2.525   2.099   0.799  0.5071  0.3780 -0.0083
  215SOL    HW1  644   2.603   2.142   0.838  1.2207  0.9250 -0.5661
  215SOL    HW2  645   2.527   2.102   0.698 -1.6539 -0.8040  0.9022
  216SOL     OW  646   0.183   0.821   1.574  0.2292 -0.2718  0.5181
  216SOL    HW1  647   0.165   0.728   1.538 -0.5750  4.2300 -0.6810
  216SOL    HW2  648   0.105   0.888   1.562  1.3118  4.3719 -1.1826
  217SOL     OW  649   2.266   0.304   1.336  0.2297 -0.1972 -0.3700
  217SOL    HW1  650   2.349   0.264   1.287 -0.7122  0.6752  0.1277
  217SOL    HW2  651   2.199   0.356   1.277 -0.9110 -0.3569  0.5446
  218SOL     OW  652   1.793   2.151   1.012  0.1101  0.3879  0.5783
  218SOL    HW1  653   1.757   2.187   0.926  1.1439 -0.3349  3.8378
  218SOL    HW2  654   1.763   2.212   1.093  1.1111  0.0355  1.6151
  219SOL     OW  655   1.466   2.360   2.982 -0.2000 -0.3986 -0.1166
  219SOL    HW1  656   1.556   2.400   3.006  1.8486  0.3972  1.7702
  219SOL    HW2  657   1.400   2.389   3.057 -1.3990 -2.2380 -0.1545
  220SOL     OW  658   1.297   2.580   2.841 -0.7569  0.0326 -0.4574
  220SOL    HW1  659   1.206   2.548   2.844  0.4399  2.1843  3.6684
  220SOL    HW2  660   1.362   2.505   2.813  1.8344 -0.6460 -2.1414
  221SOL     OW  661   0.258   2.502   1.638  0.1617 -0.3451 -0.1786
  221SOL    HW1  662   0.343   2.553   1.673 -0.5236  0.6022  1.3198
  221SOL    HW2  663   0.217   2.459   1.723  0.1895  1.6486 -0.3800
  222SOL     OW  664   1.873   2.506   1.041 -0.3868 -0.1048  0.3736
  222SOL    HW1  665   1.894   2.595   1.087 -1.5571  2.3338  0.6026
  222SOL    HW2  666   1.955   2.475   0.987  0.6831  3.1528  1.8435
  223SOL     OW  667   1.055   2.484   1.813  0.3099  0.5834  0.2001
  223SOL    HW1  668   1.000   2.498   1.730  3.4893  0.5951  1.8236
  223SOL    HW2  669   0.993   2.447   1.887 -2.2065  2.1192 -0.4344
  224SOL     OW  670   2.819   2.290   1.445 -0.6071 -0.0357  0.7721
  224SOL    HW1  671   2.911   2.328   1.483  4.7966  0.7393  1.9499
  224SOL    HW2  672   2.755   2.266   1.520  0.8744 -2.2972  1.5757
  225SOL     OW  673   2.277   2.353   0.741  0.0919 -0.5581  0.1565
  225SOL    HW1  674   2.258   2.257   0.714 -0.9322 -2.5497  2.7412
  225SOL    HW2  675   2.300   2.411   0.659 -0.2690  3.3639 -3.6860
  226SOL     OW  676   1.324   2.543   0.569 -1.1918 -0.4018 -0.4920
  226SOL    HW1  677   1.248   2.515   0.634  0.9951  0.1231 -3.3586
  226SOL    HW2  678   1.415   2.521   0.609 -1.2005  0.8477  1.0147
  227SOL     OW  679   2.010   1.152   0.934 -0.0097  0.2702 -0.4304
  227SOL    HW1  680   1.966   1.095   1.004  0.6796 -0.0503 -1.0560
  227SOL    HW2  681   2.084   1.204   0.977 -0.8314 -3.5397 -0.9927
  228SOL     OW  682   1.394   0.437   2.497  0.2539 -0.3522 -0.1309
  228SOL    HW1  683   1.424   0.494   2.580  1.0919  4.7455  1.7209
  228SOL    HW2  684   1.330   0.497   2.441  1.0500  0.3802 -1.1871
  229SOL     OW  685   2.944   1.253   3.016  0.0770  0.3739  0.3938
  229SOL    HW1  686   2.975   1.179   3.082 -0.7816 -1.5255 -0.1492
  229SOL    HW2  687   2.915   1.212   2.927 -0.9874  0.9390  2.1650
  230SOL     OW  688   0.518   1.298   1.018 -0.0424  0.2556 -0.3285
  230SOL    HW1  689   0.450   1.349   1.076  1.0713 -0.6555  1.2720
  230SOL    HW2  690   0.478   1.273   0.928 -0.0337 -3.8347 -0.5485
  231SOL     OW  691   2.484   0.053   2.661  0.5129 -0.7398  0.3924
  231SOL    HW1  692   2.396   0.090   2.704  1.0232  0.3987  1.8614
  231SOL    HW2  693   2.480   0.085   2.563  2.2552  0.6692 -0.1879
  232SOL     OW  694   0.237   2.261   0.007  0.3270  0.4300  0.2871
  232SOL    HW1  695   0.322   2.267   3.088  0.1391  1.7167 -0.1227
  232SOL    HW2  696   0.158   2.247   3.063  0.3541  2.7528  0.8204
  233SOL     OW  697   1.458   2.278   2.300  0.2295  0.5648 -0.1093
  233SOL    HW1  698   1.432   2.363   2.250 -0.2070  0.2994 -1.1292
  233SOL    HW2  699   1.553   2.261   2.281 -2.4033  0.9533  0.8798
  234SOL     OW  700   1.264   1.598   1.546 -0.2264  0.4345  0.0194
  234SOL    HW1  701   1.287   1.569   1.643 -0.8140  0.2796  0.1464
  234SOL    HW2  702   1.354   1.614   1.496 -0.3349  2.1886 -0.2091
  235SOL     OW  703   1.220   1.781   1.868 -0.1793  0.2767  0.2532
  235SOL    HW1  704   1.275   1.867   1.844  2.2483 -0.1710  2.5380
  235SOL    HW2  705   1.126   1.781   1.831  0.8910  1.5382  2.3510
  236SOL     OW  706   1.389   3.093   2.950 -0.3852 -0.3906 -0.1692
  236SOL    HW1  707   1.488   3.115   2.968 -0.3414  0.3531 -0.8292
  236SOL    HW2  708   1.374   2.999   2.921 -0.0298 -2.1739 -0.9331
  237SOL     OW  709   1.338   0.180   1.360  0.0780  0.4021  0.5013
  237SOL    HW1  710   1.316   0.084   1.383  1.1359  0.0257 -2.0101
  237SOL    HW2  711   1.432   0.207   1.380  0.7014  0.2549 -1.4685
  238SOL     OW  712   1.304   0.590   0.018  0.0081 -0.3594 -0.7897
  238SOL    HW1  713   1.356   0.592   0.108 -0.5520  0.7621  2.0175
  238SOL    HW2  714   1.206   0.554   0.033 -3.6171 -0.8346 -0.6189
  239SOL     OW  715   2.818   0.890   2.896  0.4102 -0.0375  0.0185
  239SOL    HW1  716   2.830   0.982   2.852 -0.7727  1.2501  1.3547
  239SOL    HW2  717   2.848   0.893   2.994 -0.3730  0.9305  2.7306
  240SOL     OW  718   2.497   2.428   0.888  0.1897  0.1308 -0.0132
  240SOL    HW1  719   2.557   2.353   0.923 -0.9498 -0.0418 -0.3035
  240SOL    HW2  720   2.406   2.397   0.858  0.5176  1.6464  2.7553
  241SOL     OW  721   1.150   1.248   1.135 -0.5096  0.1471  0.2392
  241SOL    HW1  722   1.171   1.321   1.207  1.0896 -0.2134  2.1650
  241SOL    HW2  723   1.057   1.261   1.094 -1.1188  0.6671 -0.1835
  242SOL     OW  724   0.626   0.657   0.914 -0.4697 -0.1558 -0.2345
  242SOL    HW1  725   0.699   0.721   0.946  5.0568  1.4933  1.1807
  242SOL    HW2  726   0.660   0.589   0.848  2.2517 -2.1698 -3.1952
  243SOL     OW  727   0.249   0.472   1.210 -0.1853 -0.4204 -0.7244
  243SOL    HW1  728   0.201   0.542   1.153  0.1556  0.3514 -0.9370
  243SOL    HW2  729   0.349   0.474   1.192  1.7035 -1.0191  0.8668
  244SOL     OW  730   1.042   0.125   0.175 -0.1909  0.1813 -0.5021
  244SOL    HW1  731   1.012   0.122   0.269  0.8776 -2.1171 -0.8816
  244SOL    HW2  732   1.140   0.143   0.169  0.2728 -1.0732  0.7038
  245SOL     OW  733   1.986   0.694   0.384 -0.0883  0.0149 -0.3463
  245SOL    HW1  734   1.991   0.721   0.286 -2.5605 -1.1836  0.0954
  245SOL    HW2  735   2.078   0.694   0.423 -2.5594  1.5713 -1.4641
  246SOL     OW  736   0.326   0.673   1.861 -0.4071 -0.5717  0.1547
  246SOL    HW1  737   0.332   0.778   1.869  2.3545  2.0028  0.0448
  246SOL    HW2  738   0.230   0.645   1.838  2.6134 -0.4080  0.1718
  247SOL     OW  739   0.786   0.174   1.811  0.1927 -0.2453 -0.2681
  247SOL    HW1  740   0.806   0.114   1.892 -1.0655 -1.2415  0.6951
  247SOL    HW2  741   0.858   0.152   1.742  0.7636 -3.1654  0.6157
  248SOL     OW  742   0.619   1.501   2.383 -0.4678  0.3411  0.3357
  248SOL    HW1  743   0.667   1.591   2.366 -1.4667  1.0499 -1.0379
  248SOL    HW2  744   0.678   1.422   2.354 -0.1100 -0.5805  1.0034
  249SOL     OW  745   0.569   2.861   3.034 -0.6593  0.0003 -0.6316
  249SOL    HW1  746   0.485   2.873   2.986  3.3885 -0.4944 -0.5244
  249SOL    HW2  747   0.556   2.786   3.100  0.2134  1.6682  0.2639
  250SOL     OW  748   0.726   0.222   2.210 -0.0153 -0.1032 -0.4444
  250SOL    HW1  749   0.628   0.230   2.190  3.2995  2.9880 -1.0162
  250SOL    HW2  750   0.763   0.158   2.142 -0.8685  0.3292  1.8087
  251SOL     OW  751   2.855   1.928   1.343  0.6843  0.0627  0.3176
  251SOL    HW1  752   2.800   1.919   1.256  0.2839  0.0819 -1.3202
  251SOL    HW2  753   2.798   1.940   1.426 -0.3986 -2.0744  1.8897
  252SOL     OW  754   1.947   0.009   1.842  0.7889 -0.1017  0.5745
  252SOL    HW1  755   1.931   0.061   1.931 -0.0792 -0.8531  0.5967
  252SOL    HW2  756   1.891   3.047   1.842 -2.4150  0.8693 -0.8240
  253SOL     OW  757   2.147   1.646   2.579  0.2125 -0.4542  0.0869
  253SOL    HW1  758   2.079   1.584   2.613 -0.0259  2.1623 -1.0894
  253SOL    HW2  759   2.166   1.720   2.646  0.1419 -2.0389  2.3668
  254SOL     OW  760   0.716   1.603   1.606 -0.2933 -0.2338 -0.8026
  254SOL    HW1  761   0.777   1.667   1.558  1.1717  0.2279  1.7638
  254SOL    HW2  762   0.690   1.640   1.697 -0.0438  0.9415 -0.8938
  255SOL     OW  763   0.624   0.095   1.604  0.2128  0.5879  0.5089
  255SOL    HW1  764   0.688   0.113   1.685  1.3167 -0.7122  1.1045
  255SOL    HW2  765   0.587   3.123   1.619 -0.2828 -0.7020 -0.8405
  256SOL     OW  766   0.091   2.433   0.736 -0.5000 -0.7900  0.4593
  256SOL    HW1  767   0.047   2.343   0.753  2.8883 -1.3804  0.7636
  256SOL    HW2  768   0.134   2.465   0.826  0.6406  1.0125  2.7581
  257SOL     OW  769   0.648   2.687   2.211  0.0978 -0.1002  0.1040
  257SOL    HW1  770   0.720   2.626   2.179 -0.1890  1.1456 -0.8954
  257SOL    HW2  771   0.602   2.648   2.299 -2.2144 -1.0136  1.9406
  258SOL     OW  772   1.415   1.550   2.128 -0.3060 -0.1249 -0.0745
  258SOL    HW1  773   1.515   1.546   2.107  1.5291  2.2136 -1.4042
  258SOL    HW2  774   1.355   1.547   2.049 -0.7629 -0.4821  1.4330
  259SOL     OW  775   1.212   1.201   2.024 -0.1314  0.1104  0.3971
  259SOL    HW1  776   1.177   1.282   2.076 -2.2774  3.4960  2.4986
  259SOL    HW2  777   1.304   1.218   1.984 -0.7609  0.2109  1.2129
  260SOL     OW  778   2.044   0.647   2.298 -0.5507  0.6840  0.4714
  260SOL    HW1  779   2.074   0.616   2.208 -2.2902  1.7279  0.2075
  260SOL    HW2  780   1.946   0.628   2.313  0.2182 -0.2025  0.6231
  261SOL     OW  781   0.727   1.231   0.776  0.3081  0.3854  0.2967
  261SOL    HW1  782   0.634   1.200   0.808 -4.2615  0.5144 -1.9326
  261SOL    HW2  783   0.773   1.169   0.710 -0.1102 -0.2720 -1.5952
  262SOL     OW  784   2.091   2.129   2.617 -0.3261  0.3222 -0.1445
  262SOL    HW1  785   2.183   2.083   2.623 -1.9427 -1.1436 -0.5607
  262SOL    HW2  786   2.053   2.156   2.710 -1.3772 -1.8913 -0.1996
  263SOL     OW  787   1.025   2.390   0.988  0.5705 -0.0481 -0.1812
  263SOL    HW1  788   0.951   2.456   1.010 -1.7255 -2.0002 -0.7975
  263SOL    HW2  789   1.050   2.345   1.075 -2.5995  0.7324 -1.4968
  264SOL     OW  790   0.030   2.337   0.256 -0.3819 -0.2534 -0.4963
  264SOL    HW1  791   0.036   2.284   0.346  0.4358 -2.3000 -0.1814
  264SOL    HW2  792   0.120   2.375   0.226  2.8653  0.9507  1.2928
  265SOL     OW  793   1.332   1.370   2.733 -0.0180  0.2438  0.6841
  265SOL    HW1  794   1.254   1.333   2.678 -0.4190  0.0725 -0.2575
  265SOL    HW2  795   1.307   1.447   2.792 -1.2688  2.2899 -2.8809
  266SOL     OW  796   1.148   1.860   2.112 -0.6715  0.1218  0.0418
  266SOL    HW1  797   1.221   1.931   2.115  1.5351  0.7139 -0.5792
  266SOL    HW2  798   1.150   1.810   2.025  0.8229  3.1644  1.4011
  267SOL     OW  799   2.440   1.254   2.706  0.5732 -0.3780 -0.0801
  267SOL    HW1  800   2.486   1.284   2.791 -0.2820  1.5448 -3.0570
  267SOL    HW2  801   2.413   1.330   2.643  3.6393 -0.7054 -1.7413
  268SOL     OW  802   1.095   1.230   3.060 -0.1763 -0.1626  0.4831
  268SOL    HW1  803   1.191   1.266   3.053  2.3992 -2.5999 -2.7208
  268SOL    HW2  804   1.049   1.223   2.969  0.3862  0.5104  0.2986
  269SOL     OW  805   2.898   1.819   2.370 -0.1157 -1.0245  0.2510
  269SOL    HW1  806   2.794   1.820   2.356 -2.7910 -0.0187  0.1791
  269SOL    HW2  807   2.928   1.830   2.471 -1.0076  0.8691  1.0655
  270SOL     OW  808   0.476   2.258   2.950  0.2667  0.2968  0.3540
  270SOL    HW1  809   0.443   2.203   2.872  3.7209  1.1536  0.9571
  270SOL    HW2  810   0.485   2.353   2.913 -1.1948  0.0307  1.7996
  271SOL     OW  811   0.336   0.449   0.201  0.0695 -1.0648  0.0194
  271SOL    HW1  812   0.284   0.370   0.240  0.4858  1.1325  1.2021
  271SOL    HW2  813   0.285   0.483   0.121 -0.0083 -1.3153 -1.4047
  272SOL     OW  814   3.102   3.019   0.321  0.8220  0.4430  0.1331
  272SOL    HW1  815   0.009   3.020   0.415 -3.4995  3.0305 -1.8206
  272SOL    HW2  816   3.118   3.105   0.273 -1.7771 -2.2031  1.4982
  273SOL     OW  817   0.260   3.065   1.721  0.5162 -0.6553  0.5763
  273SOL    HW1  818   0.211   2.998   1.786 -1.1021  0.9684  1.1085
  273SOL    HW2  819   0.269   0.036   1.754  0.1789  0.3787  0.2900
  274SOL     OW  820   0.045   0.763   1.261 -0.2814  0.6126  0.1147
  274SOL    HW1  821   3.085   0.742   1.213  2.5289 -0.4795 -0.3305
  274SOL    HW2  822   0.076   0.693   1.329  0.2304  0.8408  2.4432
  275SOL     OW  823   0.673   1.522   0.985  0.3964 -0.0897 -0.2063
  275SOL    HW1  824   0.744   1.510   0.915  4.0196  0.6814  0.8916
  275SOL    HW2  825   0.625   1.436   1.010  1.6320 -1.2398  1.1711
  276SOL     OW  826   0.400   1.192   1.855  0.2690 -0.3877 -0.3544
  276SOL    HW1  827   0.407   1.193   1.958 -2.2216  0.0276  1.8102
  276SOL    HW2  828   0.461   1.262   1.807  0.1704  0.5959 -0.3198
  277SOL     OW  829   1.349   2.038   1.803  0.0041 -0.0202 -0.0273
  277SOL    HW1  830   1.427   2.048   1.862 -0.9732 -1.2076 -2.1254
  277SOL    HW2  831   1.318   2.134   1.786 -0.4241 -0.6207  0.2675
  278SOL     OW  832   2.542   2.774   2.050  0.5720 -0.7754  0.1611
  278SOL    HW1  833   2.532   2.875   2.064  0.4307  3.7496 -4.7583
  278SOL    HW2  834   2.470   2.732   2.106  0.6288  2.1499 -2.0064
  279SOL     OW  835   1.354   1.679   2.931  0.0183 -0.3290 -0.4552
  279SOL    HW1  836   1.437   1.633   2.953 -0.4493  2.7358 -0.1736
  279SOL    HW2  837   1.323   1.758   2.985  0.4313 -4.6140  1.3491
  280SOL     OW  838   1.436   0.313   0.310  0.3704 -0.5359 -0.0697
  280SOL    HW1  839   1.479   0.268   0.391 -0.3123  0.8504 -0.5724
  280SOL    HW2  840   1.442   0.413   0.323  0.8546  0.2403  0.8823
  281SOL     OW  841   0.629   0.545   1.357  0.5758 -0.4116 -0.2215
  281SOL    HW1  842   0.559   0.619   1.355  2.2551  1.4434  1.2536
  281SOL    HW2  843   0.590   0.463   1.410  1.2239 -0.6056 -1.1048
  282SOL     OW  844   3.114   2.653   0.617 -0.4063  0.3759 -0.0318
  282SOL    HW1  845   0.032   2.573   0.659  0.6255  0.5803 -0.4585
  282SOL    HW2  846   0.044   2.672   0.534  2.3324  0.1516 -0.2156
  283SOL     OW  847   1.455   1.891   1.597  0.1559  0.3770 -0.3262
  283SOL    HW1  848   1.399   1.911   1.510  1.1587  0.3958 -2.4039
  283SOL    HW2  849   1.442   1.965   1.664 -0.3007 -1.5431  0.8193
  284SOL     OW  850   2.871   2.698   1.484  0.3285  0.1687 -0.0191
  284SOL    HW1  851   2.955   2.749   1.501 -2.6943 -1.9798 -0.2149
  284SOL    HW2  852   2.877   2.626   1.410 -0.4524 -2.0769  2.8581
  285SOL     OW  853   0.562   2.468   0.614  0.6273 -0.0281  0.1638
  285SOL    HW1  854   0.636   2.402   0.591  0.0104  2.8477  0.2075
  285SOL    HW2  855   0.471   2.416   0.612  0.1582 -2.8868 -3.1493
  286SOL     OW  856   0.462   2.903   1.201  0.1752  0.1542 -0.3187
  286SOL    HW1  857   0.478   2.974   1.132 -1.6730 -0.6623 -0.5557
  286SOL    HW2  858   0.363   2.920   1.230 -0.4836 -0.0280  0.7532
  287SOL     OW  859   0.458   1.172   0.791 -0.5869 -0.1968 -0.0012
  287SOL    HW1  860   0.447   1.179   0.689  1.6240  2.6064 -0.7892
  287SOL    HW2  861   0.451   1.073   0.821 -0.1884  1.9246 -2.1088
  288SOL     OW  862   1.365   1.933   2.495  0.4531 -0.7888 -0.1333
  288SOL    HW1  863   1.415   1.893   2.575 -0.9974 -1.9016 -0.9262
  288SOL    HW2  864   1.386   1.886   2.408 -0.5527 -1.7072  0.4195
  289SOL     OW  865   2.441   1.528   0.198 -0.2951  0.0840  0.6150
  289SOL    HW1  866   2.382   1.599   0.238  0.5336  0.3684  0.9296
  289SOL    HW2  867   2.535   1.528   0.235 -1.8411  1.1929 -1.4053
  290SOL     OW  868   1.340   1.266   0.941  0.6053  0.1374 -0.4583
  290SOL    HW1  869   1.408   1.341   0.969 -1.5550 -0.5294 -0.2956
  290SOL    HW2  870   1.277   1.240   1.015 -0.6429 -3.1494 -1.4779
  291SOL     OW  871   1.263   1.134   2.840  0.3652 -0.4311  0.0765
  291SOL    HW1  872   1.309   1.112   2.932 -0.9426  0.8493 -1.7757
  291SOL    HW2  873   1.316   1.199   2.785 -1.5322 -0.3690 -0.3544
  292SOL     OW  874   1.306   1.805   0.419  0.2203  0.8562  0.3357
  292SOL    HW1  875   1.306   1.894   0.470 -1.1091  1.5405 -1.4480
  292SOL    HW2  876   1.234   1.742   0.453 -0.0042 -0.4424  1.1392
  293SOL     OW  877   1.523   3.054   1.255 -0.0163  0.0305  0.3093
  293SOL    HW1  878   1.599   2.999   1.288  1.4261  0.6921 -0.9113
  293SOL    HW2  879   1.439   3.049   1.313 -0.0794 -0.5478 -1.8508
  294SOL     OW  880   2.043   0.958   3.089 -0.0179 -0.3385  0.4337
  294SOL    HW1  881   1.945   0.978   3.095  2.2560 -2.2372 -0.5013
  294SOL    HW2  882   2.096   1.048   3.097  0.1030  0.3069  1.0124
  295SOL     OW  883   1.899   1.833   3.031 -0.0265 -1.0669  0.4900
  295SOL    HW1  884   1.844   1.783   3.096  0.8371  4.7825 -2.8343
  295SOL    HW2  885   1.857   1.826   2.937  2.0618 -1.3135 -1.6280
  296SOL     OW  886   1.763   1.333   1.207 -0.0618  0.3320 -0.8135
  296SOL    HW1  887   1.788   1.372   1.117  1.8257 -1.5209 -0.9623
  296SOL    HW2  888   1.717   1.240   1.193 -3.0259 -1.8911 -3.3067
  297SOL     OW  889   0.298   0.917   2.416  0.2037 -0.5622 -0.4698
  297SOL    HW1  890   0.320   0.934   2.319 -0.0331  1.5375 -0.0809
  297SOL    HW2  891   0.216   0.856   2.426  0.7323 -0.4878 -2.8137
  298SOL     OW  892   1.527   2.195   1.413  0.2598 -0.0180  0.7746
  298SOL    HW1  893   1.461   2.119   1.405  1.1168  0.0152  3.4537
  298SOL    HW2  894   1.501   2.249   1.496  0.6742  0.6515  2.0751
  299SOL     OW  895   1.111   0.382   2.326 -0.1420  0.4410 -0.4096
  299SOL    HW1  896   1.164   0.305   2.367 -0.6713  0.0999 -1.4809
  299SOL    HW2  897   1.014   0.353   2.324 -0.5238  1.9154 -0.5058
  300SOL     OW  898   2.519   2.090   0.513 -0.4934  0.0768  0.1604
  300SOL    HW1  899   2.596   2.123   0.455  2.5585 -2.5470  3.2051
  300SOL    HW2  900   2.443   2.059   0.457 -2.7267 -0.2130  3.9128
  301SOL     OW  901   2.241   0.465   2.707  0.2946 -0.1189  0.2112
  301SOL    HW1  902   2.256   0.566   2.701 -2.0632 -0.0380 -0.6467
  301SOL    HW2  903   2.319   0.429   2.766  0.8567 -1.5367  1.3002
  302SOL     OW  904   2.371   2.049   2.595 -0.2166  0.5482  0.5373
  302SOL    HW1  905   2.432   2.066   2.676 -0.9945  0.5227  2.0596
  302SOL    HW2  906   2.369   2.139   2.547 -1.2245 -0.3124  1.9071
  303SOL     OW  907   0.274   2.817   2.245 -0.3242 -0.3154  0.0593
  303SOL    HW1  908   0.348   2.861   2.191  1.3961 -0.7213 -0.6371
  303SOL    HW2  909   0.306   2.788   2.344 -0.1809 -2.5991  2.9213
  304SOL     OW  910   0.006   1.584   1.380  0.3555 -0.4126 -0.1712
  304SOL    HW1  911   0.036   1.494   1.345  1.8571  1.8222 -0.4381
  304SOL    HW2  912   0.042   1.656   1.319 -0.7652  0.4194  0.5271
  305SOL     OW  913   0.106   0.423   2.037 -0.1426 -0.1513 -0.2446
  305SOL    HW1  914   0.208   0.429   2.033 -1.5417 -1.1109  2.4312
  305SOL    HW2  915   0.080   0.326   2.044  0.9965 -1.2967 -1.1489
  306SOL     OW  916   0.942   1.572   0.520 -0.0326  0.3370 -0.4399
  306SOL    HW1  917   1.020   1.640   0.522  2.5284  0.2537 -0.9871
  306SOL    HW2  918   0.918   1.540   0.430  1.9246 -0.7292  1.7104
  307SOL     OW  919   0.111   3.019   0.594 -0.1063  0.2345  0.0396
  307SOL    HW1  920   0.187   3.000   0.531  1.0447  3.2740 -0.7871
  307SOL    HW2  921   0.121   2.963   0.678  1.5680 -0.4806  1.7689
  308SOL     OW  922   2.972   1.162   2.350 -0.3709 -0.3634  0.0930
  308SOL    HW1  923   2.990   1.116   2.440 -1.5196  0.1106  0.7472
  308SOL    HW2  924   3.055   1.169   2.289 -0.9963  0.7747  0.0298
  309SOL     OW  925   2.923   1.810   2.655 -0.2252 -0.2439 -0.4555
  309SOL    HW1  926   2.873   1.730   2.700 -3.8704  1.5952  1.7594
  309SOL    HW2  927   2.873   1.893   2.679  0.8558  0.6649 -0.4015
  310SOL     OW  928   2.271   0.579   0.270 -0.7295 -0.4428  0.3168
  310SOL    HW1  929   2.300   0.663   0.222  0.4836 -0.4133 -1.5635
  310SOL    HW2  930   2.205   0.527   0.216 -0.0162 -0.7006 -1.7966
  311SOL     OW  931   1.977   0.721   0.079 -0.0932 -0.2029  0.1046
  311SOL    HW1  932   2.002   0.810   0.026  1.4751  4.5710 -3.1139
  311SOL    HW2  933   2.040   0.647   0.066 -0.3381  0.7982 -0.8832
  312SOL     OW  934   1.248   1.651   2.493 -0.5795 -0.1760 -0.2395
  312SOL    HW1  935   1.325   1.717   2.505 -1.2976 -0.0548  0.8620
  312SOL    HW2  936   1.202   1.629   2.579 -0.5311 -1.0566 -0.0865
  313SOL     OW  937   0.281   0.571   0.471  0.4798  0.4691  0.4116
  313SOL    HW1  938   0.312   0.541   0.377 -4.3365  0.7237  0.1802
  313SOL    HW2  939   0.189   0.532   0.488  2.0782  0.7910  1.4926
  314SOL     OW  940   0.430   1.713   1.397  0.4217 -0.2920  0.2756
  314SOL    HW1  941   0.404   1.641   1.463 -1.5950  3.4133 -0.6577
  314SOL    HW2  942   0.524   1.718   1.366 -0.2515  1.1337  0.9581
  315SOL     OW  943   0.950   1.713   1.814 -0.0185 -0.4442  0.9638
  315SOL    HW1  944   0.955   1.619   1.840 -2.8477  2.7802  1.0013
  315SOL    HW2  945   0.853   1.756   1.824 -0.7643  2.9105  1.3022
  316SOL     OW  946   0.334   2.308   0.641 -0.2172 -0.2220  0.4868
  316SOL    HW1  947   0.247   2.360   0.651  0.0449 -0.8786 -2.0893
  316SOL    HW2  948   0.328   2.238   0.561 -1.3378 -2.1085  0.9085
  317SOL     OW  949   2.512   0.228   1.211  0.3664 -0.6555  0.3817
  317SOL    HW1  950   2.487   0.291   1.133 -0.1042  1.9717 -0.6387
  317SOL    HW2  951   2.610   0.237   1.238 -0.8277  1.7924 -1.5391
  318SOL     OW  952   1.545   2.925   0.245 -0.7198 -0.7522 -0.4319
  318SOL    HW1  953   1.457   2.968   0.205 -1.6073 -1.2657 -0.3819
  318SOL    HW2  954   1.546   2.831   0.224 -0.2536  2.6440  1.1036
  319SOL     OW  955   1.594   0.514   2.739 -0.1980  0.1592  0.3450
  319SOL    HW1  956   1.623   0.416   2.747  3.0045  0.5328  0.6155
  319SOL    HW2  957   1.676   0.573   2.755 -4.5964 -0.4026  1.6206
  320SOL     OW  958   2.838   1.909   1.920 -0.8121 -0.5343 -0.8576
  320SOL    HW1  959   2.773   1.936   1.993 -0.6921 -2.3088  0.0739
  320SOL    HW2  960   2.800   1.870   1.837 -0.9028  0.8425  0.1049
  321SOL     OW  961   0.132   2.553   2.901 -0.0899 -0.1428  0.0885
  321SOL    HW1  962   0.132   2.585   2.996  0.0694 -0.0695  0.9216
  321SOL    HW2  963   0.064   2.480   2.881  1.0595  0.4211 -0.9238
  322SOL     OW  964   2.658   0.752   2.512  0.2745 -0.3328  0.2885
  322SOL    HW1  965   2.586   0.804   2.454  2.7599  2.5963 -1.3154
  322SOL    HW2  966   2.677   0.661   2.465 -1.0159 -2.5046 -1.9695
  323SOL     OW  967   1.910   1.321   0.719 -0.1758  0.6493  0.3135
  323SOL    HW1  968   1.956   1.274   0.797  0.5759 -0.0223  0.6214
  323SOL    HW2  969   1.882   1.260   0.647  0.4731  2.7962  0.6145
  324SOL     OW  970   0.157   0.228   1.297  0.4105 -0.0691 -0.0809
  324SOL    HW1  971   0.255   0.195   1.302  2.6188  1.2524 -0.3935
  324SOL    HW2  972   0.163   0.323   1.264  0.2887  0.7496 -0.6939
  325SOL     OW  973   2.807   3.123   1.832  0.0695  0.9492  0.1185
  325SOL    HW1  974   2.829   0.096   1.839 -1.2788 -2.9479 -1.4141
  325SOL    HW2  975   2.731   3.090   1.899 -3.4931  0.3827 -1.8828
  326SOL     OW  976   1.486   2.646   0.138  0.2656  0.2800  0.3124
  326SOL    HW1  977   1.541   2.568   0.174  0.1428  1.8556  0.1468
  326SOL    HW2  978   1.520   2.671   0.046  0.8812 -3.2540  2.3416
  327SOL     OW  979   1.736   2.079   0.391  0.3099 -0.2193 -0.1693
  327SOL    HW1  980   1.657   2.119   0.438 -0.3332 -0.5034  0.8600
  327SOL    HW2  981   1.712   2.051   0.297  0.7607 -1.0249  1.7177
  328SOL     OW  982   3.007   2.203   2.034 -0.6235 -0.5881 -0.0534
  328SOL    HW1  983   2.998   2.109   2.005  2.2225  0.2898 -1.0139
  328SOL    HW2  984   3.007   2.274   1.957 -1.2112  0.7636 -1.5900
  329SOL     OW  985   0.012   2.417   1.214  0.5021  0.3641 -0.0745
  329SOL    HW1  986   3.055   2.482   1.218 -0.7593 -2.9415 -0.5069
  329SOL    HW2  987   3.107   2.321   1.231 -0.4926  0.2920 -2.3651
  330SOL     OW  988   2.429   1.041   2.876  0.3674  0.2392  0.3331
  330SOL    HW1  989   2.464   0.960   2.824  0.3319 -0.2978 -0.7014
  330SOL    HW2  990   2.390   1.114   2.817  1.7503  2.0921 -1.0072
  331SOL     OW  991   2.356   1.698   0.901 -0.3458 -0.0015 -0.4090
  331SOL    HW1  992   2.389   1.674   0.810  1.0937 -1.2085  1.4231
  331SOL    HW2  993   2.344   1.801   0.911 -1.2736  0.8983  1.1603
  332SOL     OW  994   0.389   2.563   0.948  0.2612 -1.0347  0.2022
  332SOL    HW1  995   0.385   2.610   0.856  0.8054 -0.4336 -1.7538
  332SOL    HW2  996   0.443   2.623   1.004 -0.8153  0.1533  0.0384
  333SOL     OW  997   0.006   1.869   2.256  0.1620  0.6892  0.4032
  333SOL    HW1  998   0.072   1.817   2.307  1.1774  1.8354  0.2781
  333SOL    HW2  999   3.037   1.840   2.280 -0.5662 -1.6163  1.8362
  334SOL     OW 1000   0.672   0.970   1.008  0.1666  0.1178 -0.4010
  334SOL    HW1 1001   0.570   0.984   1.009  1.5396 -1.6476 -0.2923
  334SOL    HW2 1002   0.719   0.951   1.098 -1.2975  0.3608  0.1908
  335SOL     OW 1003   0.038   1.544   2.316  0.2186  0.4825  0.0173
  335SOL    HW1 1004   0.101   1.598   2.378 -0.7301  1.4274 -1.9004
  335SOL    HW2 1005   0.083   1.455   2.298  0.2421 -0.4934  0.4121
  336SOL     OW 1006   2.138   3.029   2.255  0.0517 -0.3127  0.1017
  336SOL    HW1 1007   2.071   2.963   2.292  0.1843 -0.9807 -1.3989
  336SOL    HW2 1008   2.097   3.121   2.238 -1.5715  2.4301  0.4664
  337SOL     OW 1009   0.917   0.739   1.171  0.2593  0.5008  0.0484
  337SOL    HW1 1010   0.829   0.759   1.224 -0.1016 -0.7622  1.0821
  337SOL    HW2 1011   0.917   0.648   1.122  0.8084 -0.0389  1.1985
  338SOL     OW 1012   1.550   1.876   1.058  0.2820  0.1509  0.0383
  338SOL    HW1 1013   1.582   1.877   0.959  0.4282 -0.3031 -0.8735
  338SOL    HW2 1014   1.634   1.881   1.115  1.4712  0.6144  2.5400
  339SOL     OW 1015   0.191   1.789   1.260 -0.2964  0.2495  0.1689
  339SOL    HW1 1016   0.280   1.794   1.313  0.8829  0.8956  0.4734
  339SOL    HW2 1017   0.125   1.857   1.299 -1.5114  0.8283  1.1794
  340SOL     OW 1018   0.798   0.011   2.030  0.4087 -0.1573  0.3496
  340SOL    HW1 1019   0.865   3.083   2.088  1.5739  1.0000  1.6810
  340SOL    HW2 1020   0.730   3.071   1.995 -0.7838  1.6362 -2.3069
  341SOL     OW 1021   1.807   1.595   0.685  0.3187 -0.1495  0.3647
  341SOL    HW1 1022   1.871   1.676   0.695 -0.0465  1.0905 -0.0229
  341SOL    HW2 1023   1.854   1.507   0.682  1.7356  2.3431 -1.5978
  342SOL     OW 1024   1.876   1.216   0.272 -0.1122 -0.0526  0.2014
  342SOL    HW1 1025   1.973   1.194   0.256 -2.7892  0.7122 -2.7277
  342SOL    HW2 1026   1.846   1.297   0.223  3.1942 -1.2384  1.8066
  343SOL     OW 1027   2.033   0.212   1.017 -0.1852 -0.7930 -0.9243
  343SOL    HW1 1028   1.966   0.201   1.095  0.5784  0.9995  0.6503
  343SOL    HW2 1029   2.059   0.120   0.984 -2.5369 -1.1877  0.7304
  344SOL     OW 1030   2.794   0.516   0.429 -0.3835 -0.1461  0.2819
  344SOL    HW1 1031   2.734   0.447   0.470 -0.9925  1.6680  0.7790
  344SOL    HW2 1032   2.879   0.477   0.392  2.2918 -0.2406  1.1571
  345SOL     OW 1033   1.236   2.621   1.625 -0.0183  0.2358  0.4291
  345SOL    HW1 1034   1.317   2.664   1.663 -0.7143 -0.3671  1.5496
  345SOL    HW2 1035   1.181   2.576   1.701 -1.7640  0.4703  0.4218
  346SOL     OW 1036   2.387   2.296   1.248  0.0381 -0.0948  0.0375
  346SOL    HW1 1037   2.333   2.374   1.202  1.3509 -1.7403 -3.1223
  346SOL    HW2 1038   2.393   2.311   1.348  1.0182  0.3714 -0.2047
  347SOL     OW 1039   2.377   3.102   1.211 -0.5440  0.0423 -0.3758
  347SOL    HW1 1040   2.427   0.066   1.218  0.4791 -0.4039  0.5345
  347SOL    HW2 1041   2.338   3.071   1.299 -0.9092 -0.7831 -0.1307
  348SOL     OW 1042   1.034   1.182   1.506  0.4257  0.3331  0.3376
  348SOL    HW1 1043   1.106   1.115   1.503  0.0953 -0.2332 -1.9924
  348SOL    HW2 1044   0.970   1.173   1.427 -2.9810  1.6326  2.1999
  349SOL     OW 1045   2.411   0.488   0.003  0.4034  0.0952  0.1750
  349SOL    HW1 1046   2.476   0.564   3.118  1.4285 -0.1924 -1.0950
  349SOL    HW2 1047   2.452   0.421   0.067  1.6886 -2.1159  1.9227
  350SOL     OW 1048   1.966   2.105   2.859  0.1982  0.3980  0.0878
  350SOL    HW1 1049   1.913   2.161   2.927  0.9572  0.5150  1.3289
  350SOL    HW2 1050   2.026   2.037   2.903 -1.3178 -0.7766 -0.9314
  351SOL     OW 1051   1.168   0.269   0.535  0.1541 -0.5122  0.0721
  351SOL    HW1 1052   1.110   0.323   0.467  2.0907  0.2523 -1.4489
  351SOL    HW2 1053   1.234   0.341   0.579 -0.2755  0.6468  1.4503
  352SOL     OW 1054   1.641   2.072   2.845  0.6528 -0.2655  0.3341
  352SOL    HW1 1055   1.675   2.122   2.766  0.9003 -0.0071  0.1908
  352SOL    HW2 1056   1.718   2.056   2.909  2.0037  2.6966 -0.9324
  353SOL     OW 1057   0.393   0.805   2.960 -0.0257  0.3385  0.2386
  353SOL    HW1 1058   0.327   0.807   2.882  1.5266  0.4417 -0.9147
  353SOL    HW2 1059   0.462   0.884   2.958 -0.1692 -3.1449 -0.4691
  354SOL     OW 1060   0.900   2.232   2.578 -0.3807  0.2973  0.5590
  354SOL    HW1 1061   0.860   2.154   2.522  3.0757  2.1234  0.3286
  354SOL    HW2 1062   0.902   2.206   2.676  1.0418 -0.9656 -0.3031
  355SOL     OW 1063   2.890   2.638   1.779 -0.1827  0.3592 -0.2258
  355SOL    HW1 1064   2.937   2.726   1.803 -0.9713 -1.9769  1.3868
  355SOL    HW2 1065   2.897   2.629   1.679 -0.5532  1.7234  0.9079
  356SOL     OW 1066   2.641   1.332   1.100  0.3607  0.1742 -0.0304
  356SOL    HW1 1067   2.602   1.414   1.151 -1.6337  3.1142  3.6655
  356SOL    HW2 1068   2.588   1.309   1.014  1.2356 -0.2363  0.2229
  357SOL     OW 1069   2.770   0.221   1.254 -0.3006  0.0998 -0.1286
  357SOL    HW1 1070   2.798   0.140   1.306  0.9270  1.8348  1.8687
  357SOL    HW2 1071   2.801   0.216   1.153  1.1360  0.5862 -1.2623
  358SOL     OW 1072   1.017   2.224   1.568  0.7826  0.1452  0.1626
  358SOL    HW1 1073   1.026   2.136   1.521 -0.7760  0.8915 -3.4113
  358SOL    HW2 1074   1.104   2.265   1.600 -1.3537 -1.3173  0.4767
  359SOL     OW 1075   2.856   2.671   2.560  0.6667  0.0564  0.4980
  359SOL    HW1 1076   2.931   2.735   2.560 -0.2321 -0.7333  1.0614
  359SOL    HW2 1077   2.872   2.590   2.502  1.8114 -0.8839 -0.0257
  360SOL     OW 1078   1.290   1.015   1.520  0.1452 -0.2618 -0.1425
  360SOL    HW1 1079   1.288   1.032   1.621  0.0559  1.0453 -0.0980
  360SOL    HW2 1080   1.345   0.929   1.502 -0.8703  0.5642 -1.6721
  361SOL     OW 1081   2.641   0.352   0.565  0.4028 -0.1400 -0.2767
  361SOL    HW1 1082   2.674   0.297   0.645  1.1158  1.9998 -0.8714
  361SOL    HW2 1083   2.541   0.322   0.551 -1.7958 -0.8927 -0.6520
  362SOL     OW 1084   0.527   0.097   0.488  0.3006 -0.1431 -0.0838
  362SOL    HW1 1085   0.595   0.066   0.423 -2.4649 -0.3050  0.4869
  362SOL    HW2 1086   0.555   0.185   0.532 -0.4676  0.4912 -2.7450
  363SOL     OW 1087   0.739   1.412   0.367 -0.3794 -0.0148  0.1419
  363SOL    HW1 1088   0.636   1.405   0.354  0.4971 -0.0379 -1.1946
  363SOL    HW2 1089   0.776   1.346   0.439  1.3340 -2.3998  0.2515
  364SOL     OW 1090   0.647   0.881   1.654 -0.1739 -0.4770  0.5259
  364SOL    HW1 1091   0.628   0.811   1.723  2.5977  1.1108 -1.0956
  364SOL    HW2 1092   0.566   0.900   1.598 -2.7292 -2.9343 -1.1178
  365SOL     OW 1093   2.837   1.194   0.644  0.5221 -0.0217  0.2297
  365SOL    HW1 1094   2.777   1.162   0.722 -0.8599  1.7150  0.1615
  365SOL    HW2 1095   2.937   1.194   0.671  0.3504 -0.8385  1.1407
  366SOL     OW 1096   2.651   1.446   0.630  0.1183  0.1374 -0.1044
  366SOL    HW1 1097   2.667   1.360   0.579  1.7433  3.2534  0.6976
  366SOL    HW2 1098   2.744   1.486   0.637  0.8046 -1.9091 -1.7544
  367SOL     OW 1099   2.270   1.911   2.302 -0.0853  0.5376  0.0426
  367SOL    HW1 1100   2.298   1.948   2.393 -0.9386  0.6058 -1.8182
  367SOL    HW2 1101   2.185   1.853   2.307  0.9131 -0.0541  1.0217
  368SOL     OW 1102   2.838   1.823   0.760  0.0695 -0.1826 -0.7709
  368SOL    HW1 1103   2.807   1.746   0.822  1.6816  4.0806 -0.1051
  368SOL    HW2 1104   2.775   1.846   0.684 -2.5052  1.0784 -1.7644
  369SOL     OW 1105   2.184   2.413   2.826 -0.2376 -0.4744 -0.1037
  369SOL    HW1 1106   2.256   2.386   2.900  2.1265 -1.9523  0.4091
  369SOL    HW2 1107   2.096   2.440   2.863  0.2062 -1.4580 -2.3369
  370SOL     OW 1108   3.091   0.094   1.086  0.5857 -0.4092  0.0365
  370SOL    HW1 1109   0.012   0.159   1.153  0.8386 -0.8267  0.8658
  370SOL    HW2 1110   0.032   0.049   1.023 -0.0370 -0.5213  0.6036
  371SOL     OW 1111   0.703   1.852   3.101  0.0749  0.6973 -0.3021
  371SOL    HW1 1112   0.762   1.799   0.044 -0.8400 -4.0564 -0.7986
  371SOL    HW2 1113   0.608   1.850   0.004  3.6330 -0.1944  0.4545
  372SOL     OW 1114   1.022   1.175   0.203 -0.4257 -0.0263 -0.5205
  372SOL    HW1 1115   0.979   1.095   0.247  3.1527  0.3353 -1.0686
  372SOL    HW2 1116   1.034   1.158   0.102 -1.2753 -0.8524  4.6329
  373SOL     OW 1117   1.646   2.592   2.701 -0.4068  0.0136  0.4128
  373SOL    HW1 1118   1.718   2.522   2.682  1.5933  0.5313  0.0303
  373SOL    HW2 1119   1.681   2.663   2.763 -2.1016  2.2301  0.6830
  374SOL     OW 1120   0.272   2.439   0.197 -0.0079  0.6219 -0.0071
  374SOL    HW1 1121   0.292   2.364   0.128 -0.8719  0.9802 -0.7011
  374SOL    HW2 1122   0.356   2.473   0.245  2.3183 -2.2567 -2.4864
  375SOL     OW 1123   0.510   1.401   1.733  0.0815  0.3570  0.9709
  375SOL    HW1 1124   0.585   1.455   1.693  0.0107 -0.8157  1.2815
  375SOL    HW2 1125   0.508   1.422   1.828  0.1307 -0.9633 -0.2633
  376SOL     OW 1126   0.635   2.424   1.896  0.1128 -0.0489 -0.3351
  376SOL    HW1 1127   0.648   2.439   1.794 -1.2687 -1.3548 -2.9083
  376SOL    HW2 1128   0.607   2.333   1.931 -2.7966  1.3290  0.2929
  377SOL     OW 1129   2.842   1.544   2.374  0.6609  0.2007  0.0216
  377SOL    HW1 1130   2.900   1.625   2.375 -1.3316 -1.4257 -2.0186
  377SOL    HW2 1131   2.874   1.472   2.438  1.6276  0.5710 -2.9057
  378SOL     OW 1132   1.331   2.983   0.071  0.0086  0.0088  0.5217
  378SOL    HW1 1133   1.324   3.047   3.116  1.9150  1.5886  2.7690
  378SOL    HW2 1134   1.315   2.883   0.057  0.1039 -0.4358 -1.8983
  379SOL     OW 1135   1.876   0.552   0.750 -0.3966 -0.5268  0.0476
  379SOL    HW1 1136   1.876   0.649   0.787 -0.9937 -1.3528  1.0432
  379SOL    HW2 1137   1.961   0.529   0.697 -0.4459 -1.7806 -1.4959
  380SOL     OW 1138   3.117   1.963   1.436  0.0331 -0.5826  0.2443
  380SOL    HW1 1139   3.123   1.895   1.512 -0.2094  0.1819 -0.9071
  380SOL    HW2 1140   3.025   1.960   1.398  1.1994  0.7148  0.5736
  381SOL     OW 1141   2.076   1.694   2.327  0.5510 -0.4283 -0.3314
  381SOL    HW1 1142   2.108   1.675   2.424  1.6539  0.1922 -0.4976
  381SOL    HW2 1143   2.077   1.614   2.271 -0.5977  3.1747  2.6874
  382SOL     OW 1144   0.002   0.301   2.694  0.0184 -0.3806 -0.6348
  382SOL    HW1 1145   3.068   0.220   2.715 -2.1932  1.3284  0.7851
  382SOL    HW2 1146   0.011   0.318   2.593 -1.7940 -0.1932 -2.4086
  383SOL     OW 1147   1.607   1.374   2.814 -0.4609 -0.6589 -0.1182
  383SOL    HW1 1148   1.669   1.297   2.828 -1.8263  0.1054  0.6563
  383SOL    HW2 1149   1.514   1.345   2.787 -0.8701 -1.6749 -0.3982
  384SOL     OW 1150   1.363   1.995   1.363 -0.3099 -0.1385 -0.6656
  384SOL    HW1 1151   1.342   1.906   1.319 -0.7465  2.4634  0.7715
  384SOL    HW2 1152   1.304   2.075   1.328 -1.0034 -0.2708  2.4215
  385SOL     OW 1153   1.767   2.556   0.802 -0.1951 -0.0857 -0.1754
  385SOL    HW1 1154   1.813   2.539   0.892  0.8866  1.9466 -1.6913
  385SOL    HW2 1155   1.695   2.628   0.806 -1.1593  0.0199  2.3632
  386SOL     OW 1156   1.938   1.960   1.100 -0.1804 -0.0898 -0.7624
  386SOL    HW1 1157   1.871   1.889   1.128  0.2852 -1.4795 -0.7366
  386SOL    HW2 1158   1.885   2.042   1.065  0.1284  1.3797  1.9781
  387SOL     OW 1159   0.225   2.085   1.446  0.0413 -0.2272 -0.1447
  387SOL    HW1 1160   0.132   2.043   1.439  0.0388  0.0628 -0.1538
  387SOL    HW2 1161   0.269   2.050   1.534  2.8081 -2.0043  3.8033
  388SOL     OW 1162   2.938   0.570   1.733  0.0392  0.2053 -0.1296
  388SOL    HW1 1163   2.932   0.665   1.693 -1.3742  0.4739 -2.4032
  388SOL    HW2 1164   2.871   0.550   1.803  1.4427 -0.7241  1.2291
  389SOL     OW 1165   1.789   0.879   0.490 -0.6209 -0.2642 -0.1152
  389SOL    HW1 1166   1.866   0.820   0.481 -2.1360 -0.2065 -0.3936
  389SOL    HW2 1167   1.709   0.823   0.518 -0.9322  0.8492  1.0493
  390SOL     OW 1168   1.063   1.910   2.560  0.1049  0.0369  0.5723
  390SOL    HW1 1169   1.007   1.976   2.507  1.2680 -0.9145  3.6392
  390SOL    HW2 1170   1.163   1.905   2.536  3.4977  1.1389 -0.5431
  391SOL     OW 1171   0.837   2.119   2.846 -0.0029  0.2632 -0.1733
  391SOL    HW1 1172   0.784   2.202   2.844 -1.5965 -2.9339  3.4721
  391SOL    HW2 1173   0.872   2.101   2.940  0.2627  0.6289 -1.4552
  392SOL     OW 1174   3.068   2.882   1.645  0.0399  0.1207  0.7582
  392SOL    HW1 1175   3.045   2.959   1.583 -0.2493  0.1335  0.1641
  392SOL    HW2 1176   3.069   2.919   1.741  2.2344 -0.8507  0.2464
  393SOL     OW 1177   1.656   2.376   0.231 -0.6344  0.0793 -0.4675
  393SOL    HW1 1178   1.746   2.417   0.255 -0.2750 -0.4855 -1.1154
  393SOL    HW2 1179   1.620   2.317   0.307  3.0229 -0.3703  2.8381
  394SOL     OW 1180   0.798   0.502   2.072 -0.2105  0.1727  0.5937
  394SOL    HW1 1181   0.869   0.506   1.999 -0.0779  2.0900  0.3145
  394SOL    HW2 1182   0.788   0.411   2.107 -2.5766  2.1904 -0.4376
  395SOL     OW 1183   0.336   1.197   1.385  0.4915 -0.4282  0.1174
  395SOL    HW1 1184   0.270   1.185   1.306 -1.7479  1.1380 -2.2309
  395SOL    HW2 1185   0.296   1.264   1.450  0.3225 -3.2955 -0.7050
  396SOL     OW 1186   1.895   1.123   2.422  0.3586  0.1561  0.5637
  396SOL    HW1 1187   1.798   1.149   2.454  0.2581 -0.1279  1.9610
  396SOL    HW2 1188   1.961   1.104   2.498  0.1102 -0.9513 -2.1308
  397SOL     OW 1189   0.899   0.247   3.109  0.0762  0.6070 -0.2575
  397SOL    HW1 1190   0.928   0.196   0.067  0.5399 -0.6687  0.4553
  397SOL    HW2 1191   0.793   0.258   3.095 -0.1048  1.0503  0.3898
  398SOL     OW 1192   0.712   1.857   2.820 -0.6444 -0.4046  0.5801
  398SOL    HW1 1193   0.685   1.827   2.914  2.7254 -3.1096 -0.0700
  398SOL    HW2 1194   0.760   1.950   2.828  1.3505  5.9876  0.1205
  399SOL     OW 1195   2.567   1.647   2.642  0.9680  0.2639 -0.0482
  399SOL    HW1 1196   2.501   1.579   2.605  3.5489  0.1110 -0.6095
  399SOL    HW2 1197   2.579   1.728   2.583  0.7912 -0.3450  2.4482
  400SOL     OW 1198   2.463   1.300   1.416 -0.0017 -0.0110  0.0194
  400SOL    HW1 1199   2.484   1.386   1.368 -0.1784  0.0487 -0.4785
  400SOL    HW2 1200   2.403   1.245   1.354 -0.2711 -2.3837  0.4118
  401SOL     OW 1201   1.087   1.615   0.881 -0.4170  0.1147  0.7173
  401SOL    HW1 1202   1.016   1.627   0.952 -0.3145  1.2752  0.7001
  401SOL    HW2 1203   1.093   1.519   0.845  0.9406 -1.9338 -1.0618
  402SOL     OW 1204   0.255   2.647   2.020 -0.4402  0.6428  0.7639
  402SOL    HW1 1205   0.267   2.699   2.104  0.1155  1.3785 -4.1426
  402SOL    HW2 1206   0.323   2.671   1.948 -0.5923 -0.1618  0.2027
  403SOL     OW 1207   0.294   1.183   2.529  0.2328  0.3175  0.0737
  403SOL    HW1 1208   0.237   1.225   2.596  2.5881 -0.1995  0.7635
  403SOL    HW2 1209   0.258   1.088   2.514 -0.0428 -1.2697  2.3741
  404SOL     OW 1210   2.091   2.177   1.464  0.1387  0.9430 -0.2269
  404SOL    HW1 1211   2.158   2.166   1.541 -1.3746  0.8945 -1.7182
  404SOL    HW2 1212   2.108   2.106   1.391 -0.2444  0.2788 -1.3412
  405SOL     OW 1213   2.705   0.382   2.738  0.2819 -0.2287 -0.4637
  405SOL    HW1 1214   2.725   0.415   2.643  0.3233  1.1022 -0.6782
  405SOL    HW2 1215   2.705   0.279   2.744  0.4643 -1.2928 -0.8256
  406SOL     OW 1216   0.747   1.048   0.051 -0.3794  0.2509 -0.0674
  406SOL    HW1 1217   0.806   0.969   0.077  0.4347 -2.7654  2.1113
  406SOL    HW2 1218   0.686   1.023   3.098  0.4236 -1.0356 -0.8527
  407SOL     OW 1219   1.953   2.515   2.902 -0.0053 -0.0001  0.7269
  407SOL    HW1 1220   1.907   2.479   2.986 -2.9735 -2.0054 -0.4579
  407SOL    HW2 1221   1.994   2.608   2.906 -3.1335  2.4863  1.4726
  408SOL     OW 1222   2.938   3.038   3.105 -0.1803 -0.7959 -0.4220
  408SOL    HW1 1223   2.893   2.966   3.050  1.7255  1.2366  1.9849
  408SOL    HW2 1224   3.036   3.048   3.072 -0.3723 -2.6109 -0.1136
  409SOL     OW 1225   2.200   1.607   1.137 -0.1060  0.5319  0.0425
  409SOL    HW1 1226   2.101   1.605   1.112  0.3474 -1.3358  4.6407
  409SOL    HW2 1227   2.257   1.640   1.058 -2.0796 -2.5441 -1.4562
  410SOL     OW 1228   2.545   1.997   0.141  0.1277 -0.1927 -0.5751
  410SOL    HW1 1229   2.625   1.932   0.150 -0.7222 -0.1955  1.7050
  410SOL    HW2 1230   2.568   2.066   0.070 -0.1372 -0.3929 -0.4913
  411SOL     OW 1231   3.108   1.188   0.684 -0.3599  0.2647  0.1679
  411SOL    HW1 1232   0.056   1.255   0.719  2.0005  1.4070 -1.2319
  411SOL    HW2 1233   0.020   1.091   0.699  0.1508 -2.5583 -3.4090
  412SOL     OW 1234   2.084   2.563   0.471  0.2984  0.0023  0.4010
  412SOL    HW1 1235   2.031   2.541   0.385  0.3182 -1.3254 -0.3704
  412SOL    HW2 1236   2.182   2.529   0.469  0.4635 -2.1563 -1.2412
  413SOL     OW 1237   1.792   0.751   2.038  0.2434  0.6780 -0.0263
  413SOL    HW1 1238   1.739   0.752   2.124  0.8965 -0.5181 -1.5011
  413SOL    HW2 1239   1.878   0.699   2.050 -1.7732  0.7618 -1.2997
  414SOL     OW 1240   2.976   0.312   0.319  0.5256 -0.4727  0.0941
  414SOL    HW1 1241   2.929   0.253   0.389  1.1492  2.1023 -0.3940
  414SOL    HW2 1242   2.951   0.287   0.224  0.7070 -1.3934  0.4962
  415SOL     OW 1243   1.040   1.766   1.542 -1.1866  0.0421  0.5377
  415SOL    HW1 1244   1.138   1.734   1.524  0.1040 -0.6197 -0.5059
  415SOL    HW2 1245   1.025   1.780   1.642  1.1482  0.1121 -2.1833
  416SOL     OW 1246   0.227   0.002   2.877 -0.6311  0.0408 -0.6362
  416SOL    HW1 1247   0.227   0.102   2.872 -0.0667 -2.6019 -1.1663
  416SOL    HW2 1248   0.135   3.098   2.844  0.3279  0.8941 -1.7780
  417SOL     OW 1249   2.624   0.263   0.840 -0.5893 -0.5584  0.6146
  417SOL    HW1 1250   2.569   0.326   0.899  1.9775 -0.3045 -0.0203
  417SOL    HW2 1251   2.713   0.255   0.888 -0.9592 -2.5990 -3.4805
  418SOL     OW 1252   0.179   0.674   2.444 -0.0380 -0.6646 -0.1160
  418SOL    HW1 1253   0.099   0.612   2.454 -0.1343  1.8988  0.9882
  418SOL    HW2 1254   0.244   0.635   2.374 -2.1210 -0.1221 -3.7071
  419SOL     OW 1255   0.128   1.315   1.546 -0.6620 -0.1016  0.5936
  419SOL    HW1 1256   0.110   1.285   1.641 -2.0156  3.7932 -2.6885
  419SOL    HW2 1257   0.051   1.298   1.484  0.7478 -0.9895 -1.9793
  420SOL     OW 1258   0.563   1.652   0.562  0.4488  0.2219  0.0409
  420SOL    HW1 1259   0.512   1.613   0.479 -0.4047 -2.4722 -0.8441
  420SOL    HW2 1260   0.624   1.584   0.602  0.6771  1.9723 -2.2490
  421SOL     OW 1261   2.075   2.362   2.484 -0.3330 -0.7416  0.3499
  421SOL    HW1 1262   2.169   2.390   2.453 -1.4309 -0.0088 -0.6174
  421SOL    HW2 1263   2.086   2.276   2.537  0.3768  0.8370 -0.4231
  422SOL     OW 1264   2.968   0.567   2.753  0.3674 -0.4128  0.8778
  422SOL    HW1 1265   2.889   0.539   2.812  0.6357  1.1060 -0.4621
  422SOL    HW2 1266   3.009   0.492   2.700 -0.4433  0.0706 -4.6823
  423SOL     OW 1267   1.396   2.063   0.971  0.2894  0.1232 -0.2329
  423SOL    HW1 1268   1.445   2.018   1.054 -0.4873 -4.0087  0.2745
  423SOL    HW2 1269   1.324   2.001   0.930  0.5247 -0.1121  2.0371
  424SOL     OW 1270   0.689   2.044   1.723 -0.1846 -0.4242  0.3539
  424SOL    HW1 1271   0.675   2.091   1.636 -1.8921 -0.4572 -1.4548
  424SOL    HW2 1272   0.619   2.073   1.788  0.3400  1.1731 -0.2989
  425SOL     OW 1273   0.167   2.892   1.940  0.4141 -0.5314  0.4271
  425SOL    HW1 1274   0.172   2.791   1.929  0.1985 -0.1632 -1.0377
  425SOL    HW2 1275   0.071   2.928   1.942  1.4849  2.0748 -0.9913
  426SOL     OW 1276   1.594   0.695   0.507  0.0432 -0.2875  0.3444
  426SOL    HW1 1277   1.631   0.603   0.491 -0.2299  2.4021 -0.2542
  426SOL    HW2 1278   1.523   0.700   0.581  1.6402  1.3810  0.8815
  427SOL     OW 1279   0.893   0.817   0.087 -0.0704 -0.5035 -0.6064
  427SOL    HW1 1280   0.809   0.772   0.130 -2.6676 -1.3513 -0.9500
  427SOL    HW2 1281   0.922   0.782   3.119  2.5087  0.2667  0.9639
  428SOL     OW 1282   1.450   1.319   0.170  0.0733  0.3056 -0.2789
  428SOL    HW1 1283   1.419   1.351   0.261  1.9509  2.1512 -1.6694
  428SOL    HW2 1284   1.376   1.316   0.097  2.5243 -0.5368 -4.5068
  429SOL     OW 1285   2.860   2.766   0.587 -0.1408 -0.5500 -0.2515
  429SOL    HW1 1286   2.951   2.718   0.594  2.0191 -1.8430  0.6313
  429SOL    HW2 1287   2.850   2.799   0.490 -0.8020 -1.1396  1.4693
  430SOL     OW 1288   0.635   3.009   2.454  0.2431  0.0157 -0.4333
  430SOL    HW1 1289   0.626   3.053   2.543  0.0332  1.8890 -1.2866
  430SOL    HW2 1290   0.693   2.927   2.464  2.1134 -0.6709  1.5230
  431SOL     OW 1291   2.640   1.068   0.801  0.3473  0.0743 -0.3401
  431SOL    HW1 1292   2.582   1.068   0.884  0.8640 -1.2079 -0.0582
  431SOL    HW2 1293   2.671   0.975   0.786  2.0566  2.3580  0.6040
  432SOL     OW 1294   2.233   2.740   1.991  0.3817  0.0643  0.3509
  432SOL    HW1 1295   2.286   2.708   2.072 -1.2684 -2.2974  0.3700
  432SOL    HW2 1296   2.230   2.671   1.915  0.3337  0.6556 -3.1865
  433SOL     OW 1297   1.557   2.415   0.660  0.0476 -0.0356 -0.3904
  433SOL    HW1 1298   1.528   2.320   0.687 -0.0425 -1.3641 -0.7934
  433SOL    HW2 1299   1.630   2.445   0.724 -0.9768  1.0457  1.2087
  434SOL     OW 1300   0.541   2.166   1.913  0.3352  0.6064  0.1490
  434SOL    HW1 1301   0.557   2.160   2.015  3.3835  1.6236  0.1496
  434SOL    HW2 1302   0.441   2.181   1.894 -1.7360  0.6700 -1.5166
  435SOL     OW 1303   3.062   1.065   0.049 -0.1852  0.2599  0.1229
  435SOL    HW1 1304   3.060   1.075   0.149  1.8421  0.3763 -1.0993
  435SOL    HW2 1305   3.035   0.967   0.026  2.0598  1.5895 -0.2822
  436SOL     OW 1306   0.455   2.633   1.837 -0.0481 -0.2529  0.6483
  436SOL    HW1 1307   0.512   2.704   1.881  0.6590 -1.0724  0.1638
  436SOL    HW2 1308   0.498   2.544   1.847 -2.8352 -1.8060  0.4068
  437SOL     OW 1309   1.674   2.567   1.851 -0.2128 -0.0067  0.6114
  437SOL    HW1 1310   1.704   2.576   1.750 -2.3403  0.1440 -2.1142
  437SOL    HW2 1311   1.742   2.612   1.916 -0.2717  0.8844 -1.3521
  438SOL     OW 1312   0.193   1.855   0.516  0.3148 -0.9406 -0.1540
  438SOL    HW1 1313   0.255   1.815   0.588 -0.0194 -0.1417 -1.7035
  438SOL    HW2 1314   0.103   1.878   0.552  2.5555 -2.3290 -0.7941
  439SOL     OW 1315   0.181   0.448   0.829 -0.2944  0.4404 -0.3069
  439SOL    HW1 1316   0.248   0.530   0.834  0.7244 -1.9093 -2.1191
  439SOL    HW2 1317   0.232   0.364   0.799  1.5806  0.9699 -0.1510
  440SOL     OW 1318   0.290   3.022   2.500  0.6951 -0.3528  0.0922
  440SOL    HW1 1319   0.294   2.924   2.490 -2.0643  2.3779  0.9370
  440SOL    HW2 1320   0.298   3.070   2.413  2.0078 -2.5771  1.7354
  441SOL     OW 1321   3.038   0.711   0.670  0.0780 -0.4696  0.4769
  441SOL    HW1 1322   3.096   0.632   0.651 -1.5619  0.0341  0.6488
  441SOL    HW2 1323   2.944   0.686   0.705 -1.1421  1.4113  1.2775
  442SOL     OW 1324   1.356   2.207   2.530 -0.2703  0.4447  0.0607
  442SOL    HW1 1325   1.365   2.103   2.527 -0.7481  0.9281 -0.2198
  442SOL    HW2 1326   1.383   2.253   2.437 -0.7755 -1.5647 -1.7654
  443SOL     OW 1327   0.725   0.690   0.427 -0.1614  0.1029 -0.7316
  443SOL    HW1 1328   0.744   0.678   0.328 -1.7069 -0.2279  0.4595
  443SOL    HW2 1329   0.804   0.721   0.481 -2.5260  0.9292 -1.4776
  444SOL     OW 1330   1.505   1.424   2.519 -0.1411  0.3236  0.1879
  444SOL    HW1 1331   1.456   1.421   2.430 -1.8169 -0.6353 -0.2223
  444SOL    HW2 1332   1.440   1.420   2.596 -0.6029 -0.1317 -1.8005
  445SOL     OW 1333   0.055   0.392   0.493  0.3013  0.0007 -0.4300
  445SOL    HW1 1334   3.094   0.377   0.446 -2.8942  0.0408 -1.1165
  445SOL    HW2 1335   0.069   0.320   0.562 -0.2932 -1.6511 -0.1724
  446SOL     OW 1336   2.091   0.730   1.041  0.6369 -0.3276 -0.4703
  446SOL    HW1 1337   2.031   0.807   1.062  2.0034 -0.3298  0.1326
  446SOL    HW2 1338   2.106   0.711   0.942 -0.9002 -1.0417  2.8042
  447SOL     OW 1339   0.100   0.818   0.185  0.2092  0.2905  0.1130
  447SOL    HW1 1340   0.162   0.754   0.127  0.3970 -2.2490 -2.5740
  447SOL    HW2 1341   0.040   0.761   0.250 -0.2777  1.3555 -1.4477
  448SOL     OW 1342   1.852   2.136   1.774 -0.1606  0.3289  0.0679
  448SOL    HW1 1343   1.811   2.199   1.842  2.1094 -1.0414 -0.5152
  448SOL    HW2 1344   1.835   2.160   1.678  1.6407 -0.2450  0.0202
  449SOL     OW 1345   0.743   1.508   0.699 -0.0553  0.7172 -0.0863
  449SOL    HW1 1346   0.810   1.518   0.621 -1.3227  0.4705 -1.8393
  449SOL    HW2 1347   0.732   1.410   0.714 -0.9813  1.6016 -1.4908
  450SOL     OW 1348   2.786   2.475   2.348  0.8379 -0.6758 -0.3121
  450SOL    HW1 1349   2.756   2.542   2.271 -1.3113  3.1837 -1.6944
  450SOL    HW2 1350   2.860   2.419   2.320 -3.3093  1.7982 -1.2666
  451SOL     OW 1351   2.584   1.335   2.903 -0.2598  0.4789 -0.1168
  451SOL    HW1 1352   2.606   1.273   2.981 -0.5825  0.9370  0.4522
  451SOL    HW2 1353   2.521   1.411   2.930 -0.4869 -0.0244  0.3725
  452SOL     OW 1354   1.938   0.953   1.097 -0.1266 -0.6846  0.4570
  452SOL    HW1 1355   1.999   0.995   1.167  0.0329  1.0919  1.2319
  452SOL    HW2 1356   1.868   0.901   1.149  3.6144  1.8719  3.1398
  453SOL     OW 1357   2.339   0.799   1.434  0.8047 -0.3550  0.2042
  453SOL    HW1 1358   2.258   0.842   1.489 -2.1821 -1.6731  1.7715
  453SOL    HW2 1359   2.422   0.791   1.488 -1.6445  0.0901  1.7794
  454SOL     OW 1360   2.803   1.409   0.053  0.1083 -0.4528 -0.3074
  454SOL    HW1 1361   2.866   1.364   3.118 -0.7692  3.4078 -0.8218
  454SOL    HW2 1362   2.705   1.376   0.037  0.3995  0.0603 -2.4600
  455SOL     OW 1363   2.667   1.654   1.410  0.4819 -0.5222  0.0113
  455SOL    HW1 1364   2.583   1.605   1.376  1.7094  1.2482  2.6096
  455SOL    HW2 1365   2.634   1.744   1.453  0.2125 -0.3548  0.8576
  456SOL     OW 1366   1.094   0.270   1.473  0.0152 -0.2795 -0.1876
  456SOL    HW1 1367   1.071   0.353   1.535 -2.2063  1.5107  0.4406
  456SOL    HW2 1368   1.194   0.276   1.457 -2.1263 -1.1296  1.1807
  457SOL     OW 1369   1.955   2.780   1.094 -0.0308 -0.0993 -0.3740
  457SOL    HW1 1370   2.003   2.777   1.004  0.1263 -1.0894  0.8514
  457SOL    HW2 1371   1.983   2.852   1.165  0.4268  1.7900  1.5400
  458SOL     OW 1372   2.957   0.194   0.621  0.6078  0.2589  0.0986
  458SOL    HW1 1373   2.892   0.120   0.598  1.8886 -0.0072  2.0482
  458SOL    HW2 1374   3.041   0.145   0.653 -2.9863 -2.6755 -1.0291
  459SOL     OW 1375   1.559   0.833   0.129 -0.1455  0.0700  0.3073
  459SOL    HW1 1376   1.574   0.897   0.204 -1.2764 -4.5090 -1.8391
  459SOL    HW2 1377   1.496   0.872   0.063  2.8002  0.3836 -2.2010
  460SOL     OW 1378   0.362   2.750   2.486 -0.4247 -0.4712  0.1100
  460SOL    HW1 1379   0.317   2.708   2.567 -1.0654 -0.7196 -0.1437
  460SOL    HW2 1380   0.458   2.717   2.481 -0.3747  2.5204 -1.8434
  461SOL     OW 1381   0.427   1.612   0.158  0.0075 -0.4876  0.2773
  461SOL    HW1 1382   0.516   1.643   0.198  1.2412 -0.7626  0.5688
  461SOL    HW2 1383   0.449   1.554   0.077 -1.3982  0.0616  0.9269
  462SOL     OW 1384   2.076   1.946   0.860  0.2169  0.3106  0.0182
  462SOL    HW1 1385   2.175   1.957   0.886  1.5023 -1.0224 -0.3243
  462SOL    HW2 1386   2.028   1.930   0.946 -1.7604 -2.6817 -1.0670
  463SOL     OW 1387   3.058   0.708   0.366 -0.7325  0.3522 -0.1560
  463SOL    HW1 1388   3.027   0.709   0.463 -0.0776 -0.1736 -0.1885
  463SOL    HW2 1389   3.002   0.643   0.308 -2.2818  0.1605 -0.6969
  464SOL     OW 1390   0.871   2.561   0.436 -0.4499 -0.2722 -0.6538
  464SOL    HW1 1391   0.942   2.525   0.368  0.2601 -1.2509  0.7703
  464SOL    HW2 1392   0.824   2.488   0.489  2.1301  2.1184  0.3384
  465SOL     OW 1393   2.221   0.385   0.896 -0.6423  0.4195  0.2041
  465SOL    HW1 1394   2.170   0.334   0.968  0.1197  0.3904  0.2183
  465SOL    HW2 1395   2.176   0.384   0.808  0.8161 -1.2461 -0.1712
  466SOL     OW 1396   2.156   0.230   0.443  0.0086 -0.3663  0.1534
  466SOL    HW1 1397   2.076   0.173   0.479 -0.2615  0.6771  1.9501
  466SOL    HW2 1398   2.185   0.216   0.343  0.7467 -0.0113  1.2299
  467SOL     OW 1399   1.240   0.419   1.824 -0.6075  0.5668  0.2239
  467SOL    HW1 1400   1.302   0.464   1.893  1.1151 -0.5088  4.9106
  467SOL    HW2 1401   1.217   0.324   1.854 -1.4338  0.4147 -0.0507
  468SOL     OW 1402   2.730   0.522   1.903  0.1708 -0.5516  0.1805
  468SOL    HW1 1403   2.681   0.457   1.843 -1.0375 -3.3015  2.3787
  468SOL    HW2 1404   2.675   0.522   1.987 -0.7402  0.5309 -0.9785
  469SOL     OW 1405   1.009   2.364   2.260  0.0125  0.2834 -0.6625
  469SOL    HW1 1406   1.025   2.319   2.349 -0.3466  0.1379  1.8572
  469SOL    HW2 1407   1.050   2.307   2.188  1.6840  0.1406  0.2752
  470SOL     OW 1408   1.981   1.167   1.927  0.4570 -0.5857 -0.1001
  470SOL    HW1 1409   2.067   1.163   1.872  2.8495 -0.5631 -0.2788
  470SOL    HW2 1410   1.985   1.113   2.012  0.5784  1.9809 -0.4025
  471SOL     OW 1411   2.736   1.648   3.043 -0.0342 -0.7802 -0.1113
  471SOL    HW1 1412   2.749   1.624   2.944  2.1443  0.6959 -4.1084
  471SOL    HW2 1413   2.769   1.575   3.106  1.2739 -0.4008 -0.1881
  472SOL     OW 1414   0.489   2.567   0.338  0.2638  0.0490  0.0413
  472SOL    HW1 1415   0.545   2.526   0.413 -1.1051  1.8404  1.0304
  472SOL    HW2 1416   0.526   2.664   0.320 -1.4592 -2.6201 -0.9497
  473SOL     OW 1417   1.183   2.603   2.293 -0.2592  0.7561  1.2995
  473SOL    HW1 1418   1.129   2.521   2.275 -0.0555  0.5066 -0.8056
  473SOL    HW2 1419   1.180   2.641   2.386 -0.9640  0.1038 -1.0766
  474SOL     OW 1420   1.365   0.017   2.644  0.0378  0.1604 -0.1139
  474SOL    HW1 1421   1.392   3.113   2.742 -0.4453  0.4666  2.9107
  474SOL    HW2 1422   1.400   3.075   2.580 -0.2710  1.4150 -1.7507
  475SOL     OW 1423   1.034   2.414   0.238  0.2265 -0.3031  0.1106
  475SOL    HW1 1424   1.077   2.442   0.150 -0.9190 -0.8982 -0.3530
  475SOL    HW2 1425   1.106   2.386   0.309  3.3262 -0.1861 -2.1596
  476SOL     OW 1426   0.537   0.489   1.104 -0.0867 -0.1011 -0.1917
  476SOL    HW1 1427   0.592   0.498   1.189  0.0374 -1.2458  1.1264
  476SOL    HW2 1428   0.556   0.567   1.039 -2.7756 -0.4648  1.2981
  477SOL     OW 1429   1.827   2.210   1.513 -0.3185  0.3597  0.3129
  477SOL    HW1 1430   1.799   2.290   1.451 -1.7106  1.4393 -2.2313
  477SOL    HW2 1431   1.925   2.192   1.510 -0.4776  0.5133  0.0165
  478SOL     OW 1432   2.995   0.802   3.121 -0.5622  0.3304 -0.2712
  478SOL    HW1 1433   2.959   0.725   0.051  3.1775  1.7900 -0.6558
  478SOL    HW2 1434   3.055   0.766   3.050  0.7087  1.5032 -0.3445
  479SOL     OW 1435   0.708   2.994   0.839  0.0106  0.0416  0.1400
  479SOL    HW1 1436   0.733   2.915   0.892 -0.8481  2.2586 -0.7337
  479SOL    HW2 1437   0.790   3.041   0.804 -2.3769  1.8360  1.4554
  480SOL     OW 1438   2.587   2.709   0.263 -0.4012 -0.2365  0.0198
  480SOL    HW1 1439   2.643   2.776   0.208  0.8674  1.1710 -2.6738
  480SOL    HW2 1440   2.635   2.625   0.290 -3.0283  1.7300  1.1471
  481SOL     OW 1441   2.876   0.491   1.320  0.0700 -0.0671  0.5785
  481SOL    HW1 1442   2.813   0.417   1.284 -2.7631 -0.3214 -2.0458
  481SOL    HW2 1443   2.924   0.465   1.404 -0.1599  0.0731 -2.7265
  482SOL     OW 1444   1.011   2.844   1.030 -0.1955 -0.6099  0.1143
  482SOL    HW1 1445   1.033   2.863   0.931  1.9134  0.9139 -0.4276
  482SOL    HW2 1446   1.067   2.894   1.097  0.6609  0.1387 -1.2240
  483SOL     OW 1447   0.366   1.190   2.899  0.0977  0.2745  0.5441
  483SOL    HW1 1448   0.274   1.172   2.939 -1.5838 -4.7300 -1.4428
  483SOL    HW2 1449   0.394   1.281   2.914 -1.3795 -2.4965  0.5644
  484SOL     OW 1450   1.678   1.547   2.099 -0.7179  0.3177 -0.3142
  484SOL    HW1 1451   1.727   1.464   2.064 -1.9908  2.6310  0.7931
  484SOL    HW2 1452   1.713   1.575   2.191  2.0687 -1.1282  0.6471
  485SOL     OW 1453   0.055   0.012   2.539 -0.3223 -0.3094 -0.2769
  485SOL    HW1 1454   3.118   0.001   2.619 -1.4206 -1.4977  1.2097
  485SOL    HW2 1455   0.141   3.084   2.544 -2.1212 -1.0207  1.1193
  486SOL     OW 1456   1.473   2.941   0.538  0.4600  0.3530  0.1372
  486SOL    HW1 1457   1.547   2.916   0.602  0.9361  0.3546  0.4349
  486SOL    HW2 1458   1.514   2.944   0.447  0.6020  0.2561  2.2067
  487SOL     OW 1459   1.545   3.025   0.986 -0.1322 -0.7640 -0.2103
  487SOL    HW1 1460   1.531   3.030   1.089 -0.8418 -0.5773 -0.8118
  487SOL    HW2 1461   1.638   3.063   0.955  1.6776  0.9562 -1.7728
  488SOL     OW 1462   2.229   1.006   0.804  0.4057  0.2258  0.7902
  488SOL    HW1 1463   2.167   1.059   0.862  0.8036 -0.7371  0.9652
  488SOL    HW2 1464   2.191   0.917   0.776 -2.4228 -2.0413 -0.4229
  489SOL     OW 1465   1.293   3.028   1.403  0.0595 -0.2606  0.0773
  489SOL    HW1 1466   1.234   3.028   1.486 -0.0057  2.9060 -0.1969
  489SOL    HW2 1467   1.228   3.006   1.323 -1.6500  1.7547 -1.0024
  490SOL     OW 1468   0.917   0.805   0.565  0.1622 -0.0131  0.3160
  490SOL    HW1 1469   0.874   0.865   0.638 -2.1993  0.5140  1.6210
  490SOL    HW2 1470   1.001   0.752   0.590 -0.5001  0.3710  0.0667
  491SOL     OW 1471   1.135   2.927   0.337  0.0459 -0.6907 -0.3240
  491SOL    HW1 1472   1.147   2.885   0.430 -0.9320 -1.9205  0.0821
  491SOL    HW2 1473   1.182   2.873   0.264 -1.2210 -2.4882  0.7311
  492SOL     OW 1474   0.964   1.449   1.929  0.1523 -0.2671  0.1816
  492SOL    HW1 1475   1.013   1.442   2.020 -0.9902  1.5362  5.2981
  492SOL    HW2 1476   0.981   1.373   1.863 -0.3935 -1.2942  1.1272
  493SOL     OW 1477   0.181   1.983   0.160  0.1947  0.0378 -0.1003
  493SOL    HW1 1478   0.184   2.068   0.111 -0.9042 -4.4903  2.4579
  493SOL    HW2 1479   0.272   1.943   0.148 -1.8382 -0.1857  0.0508
  494SOL     OW 1480   1.888   1.523   0.407  0.0483 -0.3497 -0.0113
  494SOL    HW1 1481   1.861   1.562   0.497 -0.5986 -1.5470  0.2694
  494SOL    HW2 1482   1.811   1.499   0.341 -1.0050 -1.4285 -1.0854
  495SOL     OW 1483   0.522   0.862   2.554 -0.2882  0.2311  0.1635
  495SOL    HW1 1484   0.434   0.878   2.504  2.1440  0.0970  0.6705
  495SOL    HW2 1485   0.601   0.920   2.520  2.4440  1.0290  0.7960
  496SOL     OW 1486   0.017   0.200   2.342  0.3364 -0.4396  0.2776
  496SOL    HW1 1487   0.032   0.137   2.421  0.6829  1.4789  1.7043
  496SOL    HW2 1488   0.076   0.171   2.263 -1.4094 -2.2180 -1.2407
  497SOL     OW 1489   1.830   1.163   0.536  0.5123  0.1057 -0.0873
  497SOL    HW1 1490   1.855   1.176   0.436  3.0525 -0.6583 -0.8127
  497SOL    HW2 1491   1.806   1.064   0.544  0.2544 -2.0315 -2.3293
  498SOL     OW 1492   2.793   2.870   2.956 -0.3003  0.7922 -0.3720
  498SOL    HW1 1493   2.780   2.767   2.956 -1.1614 -0.8496 -0.6174
  498SOL    HW2 1494   2.717   2.913   2.908  1.6720  3.4601 -0.5424
  499SOL     OW 1495   1.950   2.764   0.589  0.3786 -0.2616 -0.5109
  499SOL    HW1 1496   1.986   2.841   0.534  1.9749  0.9176 -0.9015
  499SOL    HW2 1497   1.999   2.677   0.561  1.1152 -1.9238  2.5608
  500SOL     OW 1498   0.928   0.717   2.720  0.2214 -0.0246 -0.3330
  500SOL    HW1 1499   1.008   0.783   2.725 -2.1629 -1.9657  0.6848
  500SOL    HW2 1500   0.876   0.730   2.633 -2.7239 -1.9375  2.6484
  501SOL     OW 1501   1.495   2.978   1.591 -0.1083  0.5376 -0.2751
  501SOL    HW1 1502   1.503   3.069   1.641  1.4604 -0.2351  0.1382
  501SOL    HW2 1503   1.418   2.988   1.522 -0.5572 -0.3312 -2.1524
  502SOL     OW 1504   0.015   0.159   1.985  0.2634  0.2321 -0.2823
  502SOL    HW1 1505   0.075   0.117   2.054  2.0632  2.7700 -1.3356
  502SOL    HW2 1506   0.076   0.174   1.904 -1.4479 -1.3593 -0.4806
  503SOL     OW 1507   1.722   2.272   2.200 -0.1591  0.4735 -0.1601
  503SOL    HW1 1508   1.802   2.339   2.218  2.4756  0.3985  2.1811
  503SOL    HW2 1509   1.753   2.174   2.188 -0.0176 -0.4025  0.6579
  504SOL     OW 1510   2.199   0.102   1.759  0.0004 -0.1252 -0.4564
  504SOL    HW1 1511   2.146   0.159   1.693  1.1120  1.0365 -0.3731
  504SOL    HW2 1512   2.143   0.044   1.824  1.0172 -1.0029  0.2342
  505SOL     OW 1513   2.775   1.767   1.703  0.0513 -0.7228 -0.3950
  505SOL    HW1 1514   2.847   1.713   1.653 -0.5197  0.0453  1.4537
  505SOL    HW2 1515   2.698   1.710   1.727 -1.0767  0.7367 -1.1782
  506SOL     OW 1516   0.191   1.317   2.315 -0.4635 -0.3266  0.0417
  506SOL    HW1 1517   0.236   1.274   2.392 -0.5617  1.7569 -2.4024
  506SOL    HW2 1518   0.179   1.258   2.231 -3.2193 -1.6850 -2.1990
  507SOL     OW 1519   0.197   2.930   1.240 -0.1140  0.6046  0.3238
  507SOL    HW1 1520   0.180   2.990   1.159  1.9245 -0.8274 -0.5883
  507SOL    HW2 1521   0.141   2.841   1.241 -0.5754 -1.2000  0.3961
  508SOL     OW 1522   1.323   0.729   1.506  0.0469  0.0813 -0.4714
  508SOL    HW1 1523   1.245   0.698   1.444 -1.4372 -2.4119 -1.8087
  508SOL    HW2 1524   1.316   0.694   1.603 -0.9972  2.7732  1.3862
  509SOL     OW 1525   1.668   2.281   1.935 -0.3465 -0.9475 -0.2470
  509SOL    HW1 1526   1.683   2.379   1.903  2.0196  0.7531  1.1789
  509SOL    HW2 1527   1.664   2.277   2.036 -0.6945 -0.2272  0.2432
  510SOL     OW 1528   2.438   1.510   3.041  0.2467 -0.2355  0.4041
  510SOL    HW1 1529   2.447   1.526   0.017 -0.8175  0.4073  1.8279
  510SOL    HW2 1530   2.346   1.473   3.012 -0.7441  2.2735  0.0753
  511SOL     OW 1531   0.343   1.490   1.555  0.0438  0.0804 -0.4316
  511SOL    HW1 1532   0.259   1.436   1.546  0.8012  1.4299  2.2254
  511SOL    HW2 1533   0.408   1.439   1.619  0.0951  0.0428 -1.1041
  512SOL     OW 1534   2.532   2.360   0.282  0.1599  0.1935  0.0100
  512SOL    HW1 1535   2.616   2.403   0.316 -1.8896 -1.0492 -3.2997
  512SOL    HW2 1536   2.547   2.258   0.269 -2.3984 -1.3787 -0.1795
  513SOL     OW 1537   0.808   1.680   2.331  0.2950  0.3557 -0.5427
  513SOL    HW1 1538   0.894   1.657   2.288 -4.5312 -0.9616  2.5760
  513SOL    HW2 1539   0.823   1.740   2.407 -2.2854 -0.3454 -2.6038
  514SOL     OW 1540   0.287   2.264   2.276 -0.1921 -0.2168  0.0859
  514SOL    HW1 1541   0.234   2.185   2.238  0.5518  1.1307  1.1468
  514SOL    HW2 1542   0.218   2.343   2.286 -3.0580  2.5233  1.9292
  515SOL     OW 1543   1.875   1.151   1.694 -0.8116 -0.9594  0.6654
  515SOL    HW1 1544   1.902   1.158   1.797 -0.6187 -0.3850  0.5722
  515SOL    HW2 1545   1.932   1.205   1.633  0.0860  0.9698 -0.1795
  516SOL     OW 1546   1.893   2.515   0.210  0.0836 -0.4105 -0.7007
  516SOL    HW1 1547   1.906   2.586   0.136 -3.8730 -0.2200 -1.7967
  516SOL    HW2 1548   1.948   2.427   0.195 -1.6376 -3.2498 -1.8434
  517SOL     OW 1549   0.682   1.664   0.229  0.7717 -0.3399 -0.6562
  517SOL    HW1 1550   0.779   1.699   0.198  0.2007  2.6106 -1.5657
  517SOL    HW2 1551   0.683   1.588   0.297 -0.9814 -0.2044  1.0847
  518SOL     OW 1552   2.040   2.591   1.613 -0.6829  0.6124 -0.1899
  518SOL    HW1 1553   1.970   2.665   1.611 -1.1585  0.4510  0.4387
  518SOL    HW2 1554   2.040   2.538   1.527 -0.8190 -0.0753 -1.0885
  519SOL     OW 1555   2.238   2.499   1.169 -0.0494 -0.0212  0.0383
  519SOL    HW1 1556   2.284   2.593   1.177  0.7692  2.3133  1.7346
  519SOL    HW2 1557   2.204   2.476   1.077 -2.3457  0.9479  2.2763
  520SOL     OW 1558   3.043   2.122   2.441  0.6389  0.1542  0.0511
  520SOL    HW1 1559   3.063   2.047   2.377 -0.0651  1.9079  1.2310
  520SOL    HW2 1560   3.050   2.209   2.383 -0.8159  1.6754 -2.3312
  521SOL     OW 1561   2.543   1.198   2.434  0.4828  0.2889  0.3245
  521SOL    HW1 1562   2.507   1.195   2.530  0.9747  1.4796 -0.2239
  521SOL    HW2 1563   2.477   1.255   2.381 -2.8043 -1.1242  0.6252
  522SOL     OW 1564   0.846   0.709   2.249  0.6177  0.3911  0.2577
  522SOL    HW1 1565   0.939   0.700   2.285  0.6499  0.3754  0.2448
  522SOL    HW2 1566   0.825   0.629   2.187  0.5574 -2.5097  0.3782
  523SOL     OW 1567   0.163   2.109   0.961 -0.5448 -0.0160  0.5769
  523SOL    HW1 1568   0.258   2.075   0.933  0.2579 -2.0056  1.1071
  523SOL    HW2 1569   0.171   2.207   0.993  1.3220  1.3296  2.2228
  524SOL     OW 1570   1.964   2.734   0.070 -0.0955 -0.1917  0.1593
  524SOL    HW1 1571   2.022   2.789   0.135 -1.8156 -1.3334 -2.3795
  524SOL    HW2 1572   1.995   2.745   3.098 -1.3663  0.1755 -2.1412
  525SOL     OW 1573   2.498   0.482   1.490  0.1095  0.3766 -0.1241
  525SOL    HW1 1574   2.566   0.533   1.427  1.1032  0.5229  0.6270
  525SOL    HW2 1575   2.406   0.477   1.451 -2.1111  0.0493  2.6500
  526SOL     OW 1576   0.910   2.624   0.701 -0.1440  0.3139 -0.1955
  526SOL    HW1 1577   0.882   2.621   0.606 -1.3571 -0.9844  1.6049
  526SOL    HW2 1578   0.846   2.568   0.755 -0.9683 -0.4517  0.7968
  527SOL     OW 1579   2.343   3.038   0.552  0.1978 -0.5942 -0.2137
  527SOL    HW1 1580   2.384   3.083   0.635  0.0597 -0.3835  0.1496
  527SOL    HW2 1581   2.416   3.030   0.476  0.1447 -1.1282 -1.1836
  528SOL     OW 1582   1.402   0.587   0.328  0.4596 -0.4422 -0.7204
  528SOL    HW1 1583   1.307   0.627   0.339  0.6935  1.8785  0.7566
  528SOL    HW2 1584   1.472   0.644   0.376  1.7084  0.7142  0.1596
  529SOL     OW 1585   1.319   1.443   2.336  0.0678 -0.4633  0.1527
  529SOL    HW1 1586   1.287   1.521   2.396 -0.3236  0.9509  3.5068
  529SOL    HW2 1587   1.352   1.477   2.247 -1.0537  0.1230  0.6260
  530SOL     OW 1588   2.434   0.346   0.242 -0.1415 -0.2357 -0.8544
  530SOL    HW1 1589   2.388   0.432   0.266  1.7475 -1.4225 -1.4209
  530SOL    HW2 1590   2.379   0.260   0.250  0.7431 -3.4917 -0.9649
  531SOL     OW 1591   1.593   0.940   2.965 -0.6496 -0.6697  0.2872
  531SOL    HW1 1592   1.591   0.976   2.869  1.5462 -0.0095  0.9853
  531SOL    HW2 1593   1.543   0.850   2.969 -1.5882  0.8636  0.9216
  532SOL     OW 1594   1.507   0.353   0.786  0.5736 -0.0619  0.1926
  532SOL    HW1 1595   1.457   0.287   0.847  0.4760  0.6280  0.1279
  532SOL    HW2 1596   1.576   0.405   0.838 -1.2020 -1.6027 -1.9000
  533SOL     OW 1597   0.301   0.737   2.701  0.0677 -0.1435 -0.4438
  533SOL    HW1 1598   0.392   0.747   2.662  0.2007 -0.5663 -0.3382
  533SOL    HW2 1599   0.246   0.673   2.647  1.1903  2.7460  2.0868
  534SOL     OW 1600   1.623   0.238   2.810 -0.0860  0.1762  0.7830
  534SOL    HW1 1601   1.658   0.158   2.864  0.5537  0.6944  2.7267
  534SOL    HW2 1602   1.524   0.267   2.828  1.1539 -0.0128  2.3871
  535SOL     OW 1603   0.354   2.880   2.870 -0.5500 -0.5146 -0.1273
  535SOL    HW1 1604   0.320   2.817   2.797 -1.6359  0.8264  1.0375
  535SOL    HW2 1605   0.305   2.968   2.856 -1.9392 -1.6951 -1.7615
  536SOL     OW 1606   0.713   0.042   0.257  1.0501 -0.4746 -0.4780
  536SOL    HW1 1607   0.756   0.126   0.287 -2.9396 -0.8410 -0.4762
  536SOL    HW2 1608   0.772   3.086   0.251 -0.0119 -0.4119  1.0348
  537SOL     OW 1609   1.667   0.219   0.180  0.7946  0.7223  0.0189
  537SOL    HW1 1610   1.703   0.274   0.102 -0.1448 -1.8175  2.5128
  537SOL    HW2 1611   1.579   0.265   0.211  0.3857  0.5460  2.8317
  538SOL     OW 1612   2.789   2.071   2.900 -0.7531  0.1124 -0.7306
  538SOL    HW1 1613   2.869   2.010   2.931  2.9742 -0.4239  0.6943
  538SOL    HW2 1614   2.786   2.145   2.971  1.8277 -0.0380  3.6702
  539SOL     OW 1615   2.299   2.106   0.034  0.3341 -0.0038  0.8306
  539SOL    HW1 1616   2.252   2.041   3.101  0.9479  1.1061  2.2515
  539SOL    HW2 1617   2.351   2.055   0.105 -4.1578  0.3453 -0.0306
  540SOL     OW 1618   0.897   2.806   1.838  0.4751 -0.6436  0.3145
  540SOL    HW1 1619   0.945   2.790   1.919  0.2695  1.7994 -3.3357
  540SOL    HW2 1620   0.915   2.728   1.773  0.0018 -0.2892  1.1866
  541SOL     OW 1621   2.456   0.129   2.401 -0.4811 -0.2619 -0.1313
  541SOL    HW1 1622   2.422   0.057   2.339  0.2378 -1.7226  0.6142
  541SOL    HW2 1623   2.380   0.199   2.423 -1.0851  1.4511 -0.9648
  542SOL     OW 1624   0.027   0.697   2.933  0.3308  0.1893 -0.3575
  542SOL    HW1 1625   0.106   0.729   2.880 -1.0641  1.8312 -3.0139
  542SOL    HW2 1626   3.091   0.637   2.874 -4.0707  1.4571  2.6767
  543SOL     OW 1627   0.290   0.768   1.092  0.0971 -0.0580  0.5086
  543SOL    HW1 1628   0.279   0.716   1.006 -0.4784  2.2720 -0.6498
  543SOL    HW2 1629   0.198   0.801   1.130 -2.2171  1.5743  1.1931
  544SOL     OW 1630   2.663   0.667   1.396  0.0832 -0.0612  0.0202
  544SOL    HW1 1631   2.741   0.607   1.395 -0.9328 -2.2823 -2.3120
  544SOL    HW2 1632   2.672   0.755   1.448  0.8673  0.1380 -0.4103
  545SOL     OW 1633   1.352   2.075   0.535  0.1735  0.2161  0.2129
  545SOL    HW1 1634   1.251   2.072   0.544  1.9397  2.9777  0.4819
  545SOL    HW2 1635   1.402   2.093   0.625  3.4864 -3.5041  3.9810
  546SOL     OW 1636   2.279   2.761   1.459  0.3013  0.1438  0.4654
  546SOL    HW1 1637   2.246   2.683   1.513 -1.5945 -0.1113 -1.7877
  546SOL    HW2 1638   2.284   2.742   1.356 -1.3186 -0.6362 -1.2181
  547SOL     OW 1639   0.598   2.550   2.445  0.1116  0.6226 -0.7742
  547SOL    HW1 1640   0.546   2.465   2.463  3.7061  0.1130 -2.4989
  547SOL    HW2 1641   0.694   2.534   2.472  0.0634 -0.9064  3.0341
  548SOL     OW 1642   1.445   0.699   2.927 -0.1598 -0.8440 -0.6378
  548SOL    HW1 1643   1.382   0.658   2.995 -2.5786 -0.1401  0.0726
  548SOL    HW2 1644   1.488   0.630   2.869 -3.9172  1.3778  1.6542
  549SOL     OW 1645   2.768   1.121   0.224  0.2806 -0.8614 -0.4740
  549SOL    HW1 1646   2.694   1.134   0.295  2.0374  2.1016 -1.5055
  549SOL    HW2 1647   2.844   1.056   0.252 -1.4974 -0.1630  0.9660
  550SOL     OW 1648   2.014   1.778   0.651  0.2854  0.5553  0.2753
  550SOL    HW1 1649   2.042   1.845   0.721 -1.3074  0.4325  1.0505
  550SOL    HW2 1650   2.087   1.739   0.593 -0.1238  1.2727 -1.9440
  551SOL     OW 1651   1.278   3.026   0.918  0.3742  0.4378  0.4200
  551SOL    HW1 1652   1.376   3.015   0.939  1.5496  2.2891  1.9537
  551SOL    HW2 1653   1.265   3.043   0.815  0.9891 -0.5478 -2.0947
  552SOL     OW 1654   2.734   2.752   2.248 -0.5003  0.5434  0.5536
  552SOL    HW1 1655   2.659   2.721   2.185  0.0467 -0.6740 -1.6267
  552SOL    HW2 1656   2.693   2.808   2.325 -0.4224 -1.1015 -0.4262
  553SOL     OW 1657   0.422   3.081   2.266  0.0997 -0.1870 -0.0438
  553SOL    HW1 1658   0.419   3.025   2.180  0.7536 -0.2084 -0.4202
  553SOL    HW2 1659   0.500   3.040   2.321  0.5336 -0.4651  0.3941
  554SOL     OW 1660   0.500   3.085   0.986  0.1411  0.4277  0.0421
  554SOL    HW1 1661   0.485   0.061   1.004 -0.2770 -0.6680  0.1792
  554SOL    HW2 1662   0.580   3.056   0.924  1.1737  0.5118 -2.5384
  555SOL     OW 1663   2.610   2.183   2.293 -0.3984 -0.1954 -0.0001
  555SOL    HW1 1664   2.527   2.214   2.246  0.6314  0.1653  3.4053
  555SOL    HW2 1665   2.644   2.252   2.361  0.0961  0.7444  0.0387
  556SOL     OW 1666   1.091   0.227   2.712 -0.4084  0.0155 -0.4453
  556SOL    HW1 1667   1.034   0.309   2.743 -0.1313  1.0016  1.4685
  556SOL    HW2 1668   1.064   0.194   2.619  1.5075 -1.0650  0.2475
  557SOL     OW 1669   0.383   1.911   2.239  0.0246 -0.3634 -0.3603
  557SOL    HW1 1670   0.305   1.966   2.199 -0.5622  2.7627  0.4209
  557SOL    HW2 1671   0.470   1.951   2.209 -2.3080 -1.1587  1.2500
  558SOL     OW 1672   2.395   1.057   0.017 -0.2744 -0.0969  0.0952
  558SOL    HW1 1673   2.406   1.059   3.041 -2.4461 -0.5641 -0.2299
  558SOL    HW2 1674   2.419   0.965   0.051 -0.0974  2.2867 -0.8430
  559SOL     OW 1675   2.301   1.760   1.897  0.0497  0.3517 -0.0364
  559SOL    HW1 1676   2.307   1.841   1.836 -2.0005  1.9318  1.0041
  559SOL    HW2 1677   2.201   1.731   1.908  0.5501 -0.4664 -1.2216
  560SOL     OW 1678   2.362   1.001   1.946  0.0376 -0.4893 -0.2332
  560SOL    HW1 1679   2.333   0.906   1.922 -3.0218 -0.6423 -1.3043
  560SOL    HW2 1680   2.461   1.008   1.954 -2.3302 -0.6360 -2.0153
  561SOL     OW 1681   3.115   3.006   2.804  0.6238 -0.4535 -0.5780
  561SOL    HW1 1682   3.025   3.060   2.803 -1.1008  1.1431  1.1114
  561SOL    HW2 1683   3.104   2.904   2.816  0.7952 -1.7674 -1.5414
  562SOL     OW 1684   1.201   1.380   1.385 -0.1055 -0.3089  0.3297
  562SOL    HW1 1685   1.219   1.462   1.444  3.7576  0.0168  0.8211
  562SOL    HW2 1686   1.141   1.314   1.431  1.2367  1.0204 -2.6556
  563SOL     OW 1687   1.147   0.045   2.907  0.0497 -0.1712  0.2779
  563SOL    HW1 1688   1.249   0.040   2.931 -0.9877  0.6826 -0.6638
  563SOL    HW2 1689   1.132   0.125   2.844 -0.8909 -0.2822 -0.7210
  564SOL     OW 1690   3.115   2.161   0.763 -0.0972  0.3490  0.0832
  564SOL    HW1 1691   0.061   2.145   0.837  1.2510 -0.6975 -2.6041
  564SOL    HW2 1692   3.025   2.153   0.813  1.5029 -1.8439  3.2279
  565SOL     OW 1693   0.649   2.052   1.133 -0.1520 -0.1149 -0.1212
  565SOL    HW1 1694   0.569   2.084   1.184 -0.2317 -2.4912  1.4279
  565SOL    HW2 1695   0.718   2.014   1.200  2.5019 -2.2164 -0.4627
  566SOL     OW 1696   1.496   2.725   2.279  0.0873  0.0111  0.1634
  566SOL    HW1 1697   1.485   2.625   2.247 -1.2509 -2.7913 -3.0656
  566SOL    HW2 1698   1.463   2.726   2.374 -0.0189 -3.4173 -1.3062
  567SOL     OW 1699   2.319   2.770   0.865  0.4736 -0.2435  0.1200
  567SOL    HW1 1700   2.379   2.835   0.915 -1.2473 -1.0024 -1.0407
  567SOL    HW2 1701   2.374   2.699   0.823 -2.2683 -0.9402  1.4619
  568SOL     OW 1702   1.574   1.281   0.572 -0.4466 -0.0153 -0.1693
  568SOL    HW1 1703   1.530   1.206   0.632 -0.1791 -1.4797  0.7550
  568SOL    HW2 1704   1.677   1.278   0.587  1.5659 -0.1486  2.1480
  569SOL     OW 1705   0.081   1.733   2.675  0.2921 -0.6026  0.1641
  569SOL    HW1 1706   0.077   1.741   2.778  0.6641 -0.7624  1.7685
  569SOL    HW2 1707   3.111   1.747   2.637  1.8349  1.4115 -2.6904
  570SOL     OW 1708   0.026   0.160   1.550  0.0424 -0.6099 -0.2526
  570SOL    HW1 1709   0.068   0.175   1.459  1.4118 -0.0381  0.0166
  570SOL    HW2 1710   3.085   0.081   1.542  0.2656  0.9245  1.0100
  571SOL     OW 1711   0.334   0.454   1.679 -0.3818  0.2519 -0.0200
  571SOL    HW1 1712   0.397   0.514   1.733 -0.7730 -0.1688 -0.1299
  571SOL    HW2 1713   0.255   0.512   1.652  1.4243 -0.5225  1.9752
  572SOL     OW 1714   0.125   2.661   1.260  0.3142  0.5579 -0.6115
  572SOL    HW1 1715   0.076   2.574   1.236 -4.0689 -1.1639 -2.0121
  572SOL    HW2 1716   0.119   2.671   1.362 -0.7253 -0.5658 -0.5368
  573SOL     OW 1717   1.007   0.501   0.043 -0.2421 -0.4180  0.0388
  573SOL    HW1 1718   0.980   0.567   3.093  0.0384  1.8060 -2.7830
  573SOL    HW2 1719   0.958   0.411   0.035 -0.3984 -1.1894  0.9187
  574SOL     OW 1720   2.524   3.051   0.329 -0.3707  0.3066 -0.5068
  574SOL    HW1 1721   2.550   2.998   0.244  0.5131 -0.8720 -3.6587
  574SOL    HW2 1722   2.590   0.004   0.335  1.1554 -0.2145  0.6679
  575SOL     OW 1723   1.661   2.273   1.202  0.1238 -0.2610 -0.0384
  575SOL    HW1 1724   1.621   2.229   1.285 -1.4996  1.5987 -0.4586
  575SOL    HW2 1725   1.593   2.326   1.149 -2.3799 -0.4189  1.1585
  576SOL     OW 1726   1.157   3.040   1.169  0.4331  0.0160 -0.2734
  576SOL    HW1 1727   1.205   3.057   1.081 -0.4076 -1.6670 -1.8465
  576SOL    HW2 1728   1.064   3.082   1.168  0.5330  0.5225  0.6311
  577SOL     OW 1729   2.483   1.312   0.853  0.0303  0.2764 -0.0041
  577SOL    HW1 1730   2.565   1.348   0.803 -0.3559  0.4375  0.5675
  577SOL    HW2 1731   2.444   1.232   0.798 -3.3275 -2.8811 -3.0479
  578SOL     OW 1732   1.576   0.239   0.531 -0.0121 -0.2241  0.0429
  578SOL    HW1 1733   1.564   0.286   0.619  3.7268 -0.2473 -1.5148
  578SOL    HW2 1734   1.676   0.247   0.500 -0.2667 -0.3929  1.7730
  579SOL     OW 1735   2.134   0.518   0.027 -0.4559 -0.0652  0.4340
  579SOL    HW1 1736   2.231   0.512   3.123 -0.7628 -0.0234  2.7247
  579SOL    HW2 1737   2.077   0.446   3.109  1.5740 -0.6872  0.1928
  580SOL     OW 1738   1.703   0.729   2.295 -0.0193 -0.3930 -0.7513
  580SOL    HW1 1739   1.758   0.687   2.370 -0.8951 -0.9650  1.5272
  580SOL    HW2 1740   1.642   0.793   2.344  0.5532 -1.4902  0.9760
  581SOL     OW 1741   0.349   0.652   0.850 -0.2316  0.0418 -0.1905
  581SOL    HW1 1742   0.448   0.657   0.877 -0.7859 -0.1815 -0.2599
  581SOL    HW2 1743   0.326   0.726   0.784 -0.8720  2.2209  3.0712
  582SOL     OW 1744   2.906   0.262   1.905  0.6351 -0.0301 -0.5519
  582SOL    HW1 1745   2.922   0.351   1.859  3.6599 -3.4467  1.9646
  582SOL    HW2 1746   2.992   0.218   1.940 -1.8558 -0.0252 -1.4941
  583SOL     OW 1747   0.392   0.614   2.262 -0.3960  0.1070  0.3444
  583SOL    HW1 1748   0.451   0.598   2.346  0.5491  0.6112  4.6758
  583SOL    HW2 1749   0.419   0.551   2.182  1.2527 -0.9073 -2.4859
  584SOL     OW 1750   1.456   2.079   3.053 -0.2930 -0.4826  0.3002
  584SOL    HW1 1751   1.508   2.062   2.965 -0.4620 -1.1586 -1.5323
  584SOL    HW2 1752   1.447   2.181   3.055 -0.1762  0.6493 -1.5909
  585SOL     OW 1753   0.278   2.664   2.715  0.5110 -0.2275 -0.3696
  585SOL    HW1 1754   0.200   2.635   2.777  1.0840 -1.0752  2.0549
  585SOL    HW2 1755   0.363   2.611   2.738 -0.5465 -1.1196 -1.5787
  586SOL     OW 1756   1.758   1.786   2.743 -0.0238  0.4563  0.4024
  586SOL    HW1 1757   1.794   1.852   2.677  0.8316  0.7454 -2.0865
  586SOL    HW2 1758   1.748   1.693   2.698  1.4085 -2.0629 -0.3298
  587SOL     OW 1759   2.359   2.326   3.019 -0.1193 -0.1024 -0.4084
  587SOL    HW1 1760   2.416   2.392   3.078  2.2236  0.1745  1.0543
  587SOL    HW2 1761   2.341   2.242   3.075  2.1185  1.2293  0.9668
  588SOL     OW 1762   3.057   0.484   0.932 -0.4308 -0.3666 -0.0972
  588SOL    HW1 1763   2.999   0.474   0.849 -0.0527 -1.6577 -0.4965
  588SOL    HW2 1764   0.032   0.476   0.908 -1.5299 -0.6360 -0.8152
  589SOL     OW 1765   1.027   0.445   0.379  0.0720 -0.1691 -0.2513
  589SOL    HW1 1766   1.032   0.548   0.394 -0.1985  3.5730 -1.8576
  589SOL    HW2 1767   1.039   0.439   0.279 -0.0583 -1.4927 -0.8708
  590SOL     OW 1768   1.990   2.202   0.420 -0.5020 -0.1745  0.0132
  590SOL    HW1 1769   2.002   2.228   0.517 -0.2045 -0.9767 -1.5988
  590SOL    HW2 1770   1.896   2.165   0.420  0.0471 -1.2758  0.9264
  591SOL     OW 1771   0.510   2.330   1.068  0.3909 -0.2465  0.3836
  591SOL    HW1 1772   0.479   2.424   1.060 -0.5771 -1.9935 -1.1208
  591SOL    HW2 1773   0.601   2.314   1.017 -3.3762 -2.6064 -2.3985
  592SOL     OW 1774   1.262   0.556   1.160  0.5850  0.1869  0.1414
  592SOL    HW1 1775   1.233   0.458   1.165  0.0321  1.2208 -1.2646
  592SOL    HW2 1776   1.201   0.620   1.213 -1.1375  3.1257  0.7806
  593SOL     OW 1777   0.867   1.733   1.332  0.1740  0.4343 -0.4400
  593SOL    HW1 1778   0.816   1.644   1.339 -3.1953  1.6574 -0.3107
  593SOL    HW2 1779   0.944   1.746   1.399  2.4691  0.8977  3.1342
  594SOL     OW 1780   0.958   2.055   0.353  0.2663 -0.0542 -0.0866
  594SOL    HW1 1781   1.010   1.983   0.303 -0.2532  2.1959 -0.6180
  594SOL    HW2 1782   0.870   2.084   0.308 -4.0115 -0.9153  0.8474
  595SOL     OW 1783   1.592   0.877   1.430 -0.2223 -0.0158 -0.4365
  595SOL    HW1 1784   1.661   0.901   1.504 -0.0757  1.0603  1.4193
  595SOL    HW2 1785   1.522   0.822   1.478 -0.2746  0.6474 -0.4081
  596SOL     OW 1786   2.922   0.810   1.630  0.1252  0.1729  0.0413
  596SOL    HW1 1787   2.947   0.853   1.719  1.4727 -0.4294  0.3134
  596SOL    HW2 1788   2.970   0.867   1.560  2.8070 -0.5867 -0.2637
  597SOL     OW 1789   0.859   2.509   2.480 -0.6672 -0.2719 -0.2878
  597SOL    HW1 1790   0.881   2.431   2.542  1.1651  0.6692  0.2158
  597SOL    HW2 1791   0.865   2.477   2.383 -0.2484 -0.5694 -0.0420
  598SOL     OW 1792   2.543   1.680   1.778 -0.0132 -0.5370  0.6793
  598SOL    HW1 1793   2.460   1.715   1.823  0.5587 -2.7989  0.1264
  598SOL    HW2 1794   2.516   1.590   1.745  1.8900  1.8518 -0.0759
  599SOL     OW 1795   0.840   2.801   3.084  0.1079  0.6680  0.3783
  599SOL    HW1 1796   0.746   2.834   3.071  1.5435  1.1709 -1.4054
  599SOL    HW2 1797   0.904   2.877   3.067 -1.9747 -0.1627  0.3985
  600SOL     OW 1798   0.053   2.222   2.950 -0.0938  0.1611 -0.2307
  600SOL    HW1 1799   3.119   2.135   2.949 -1.8408 -2.3299  1.2841
  600SOL    HW2 1800   0.042   2.282   2.866 -2.1501 -1.5239 -2.6608
  601SOL     OW 1801   0.462   0.752   1.290  0.2608  0.0345  0.3803
  601SOL    HW1 1802   0.400   0.755   1.209  4.5331 -2.0278  1.3522
  601SOL    HW2 1803   0.434   0.826   1.354 -0.0549 -0.4180  2.4151
  602SOL     OW 1804   0.698   0.282   0.624 -0.2336  0.2889  0.1984
  602SOL    HW1 1805   0.761   0.320   0.696 -1.0028 -1.2184  3.7340
  602SOL    HW2 1806   0.625   0.347   0.603 -2.8702 -4.8110  2.7295
  603SOL     OW 1807   0.347   0.273   2.542 -0.3037 -0.1467 -0.2376
  603SOL    HW1 1808   0.256   0.267   2.596 -0.7654  0.6893  2.0280
  603SOL    HW2 1809   0.430   0.257   2.601 -1.3206  0.8859  2.8805
  604SOL     OW 1810   0.924   2.899   1.545 -0.3720  0.1497 -0.2765
  604SOL    HW1 1811   0.843   2.852   1.582 -0.7561 -0.3709  2.7950
  604SOL    HW2 1812   0.983   2.841   1.485  1.3748  0.5088  0.6037
  605SOL     OW 1813   1.498   1.085   2.286 -0.0237  0.3474 -0.3144
  605SOL    HW1 1814   1.404   1.059   2.278  2.1948 -0.5175  2.1826
  605SOL    HW2 1815   1.540   1.100   2.196 -3.0989  2.7994 -0.0792
  606SOL     OW 1816   2.054   2.779   2.936 -0.2543  0.1683  0.0578
  606SOL    HW1 1817   2.007   2.854   2.882 -2.1892  0.8860 -1.1358
  606SOL    HW2 1818   2.156   2.780   2.923  1.5750 -1.0957  1.4159
  607SOL     OW 1819   0.949   0.262   1.252 -0.3153 -0.4509 -0.0313
  607SOL    HW1 1820   0.990   0.271   1.347 -0.1349  2.2232 -0.9234
  607SOL    HW2 1821   0.934   0.169   1.221  0.6224  1.1129 -0.8077
  608SOL     OW 1822   0.201   1.740   2.419 -0.0507  0.2724 -0.3886
  608SOL    HW1 1823   0.283   1.787   2.390 -1.0087 -1.7773 -0.5005
  608SOL    HW2 1824   0.187   1.737   2.519  0.9518 -0.1061  1.4346
  609SOL     OW 1825   1.115   1.267   0.429  0.4746 -0.1252  0.0356
  609SOL    HW1 1826   1.203   1.321   0.428 -1.9304  0.0373  2.3107
  609SOL    HW2 1827   1.069   1.258   0.339 -2.0363  3.3853 -0.0393
  610SOL     OW 1828   0.342   0.203   0.791 -0.0505  0.2741 -0.0153
  610SOL    HW1 1829   0.415   0.135   0.758 -1.4336  0.9981  2.5451
  610SOL    HW2 1830   0.362   0.239   0.880 -1.2938 -1.6228 -5.4874
  611SOL     OW 1831   1.172   1.043   0.601  0.3466 -0.0163 -0.5640
  611SOL    HW1 1832   1.143   1.109   0.530  0.5683  0.5717  0.3658
  611SOL    HW2 1833   1.204   0.957   0.561  1.4223  0.3118  1.2652
  612SOL     OW 1834   2.069   1.505   0.170 -0.4907  0.7749  0.3618
  612SOL    HW1 1835   2.007   1.536   0.238  0.6814 -0.1340 -0.2054
  612SOL    HW2 1836   2.103   1.409   0.192 -1.0307 -0.7325 -0.6452
  613SOL     OW 1837   1.695   1.015   0.283  0.0470  0.0178  0.1459
  613SOL    HW1 1838   1.726   0.961   0.362  0.2110  0.1708  2.6588
  613SOL    HW2 1839   1.746   1.104   0.285 -1.9667  1.7467 -1.3020
  614SOL     OW 1840   2.700   0.252   2.437 -0.1517 -0.2255  0.1172
  614SOL    HW1 1841   2.758   0.172   2.436 -2.1881  1.4577  1.3163
  614SOL    HW2 1842   2.605   0.232   2.413  2.8067  0.9949 -0.0413
  615SOL     OW 1843   0.690   1.896   0.619  0.0421  0.1188  0.4606
  615SOL    HW1 1844   0.652   1.808   0.582 -0.5075 -1.1958  4.1445
  615SOL    HW2 1845   0.637   1.926   0.702  0.9011  0.2485  1.6354
  616SOL     OW 1846   1.685   1.064   2.735 -0.2713  0.3239  0.5889
  616SOL    HW1 1847   1.662   1.087   2.637  0.5550  0.0232  2.0830
  616SOL    HW2 1848   1.785   1.065   2.755  0.7726  3.5436 -0.2974
  617SOL     OW 1849   1.330   0.136   0.132 -0.3397  0.0481 -0.1284
  617SOL    HW1 1850   1.340   0.213   0.194 -1.4177 -0.6323 -3.5584
  617SOL    HW2 1851   1.360   0.047   0.169 -2.7992  1.2020  1.6925
  618SOL     OW 1852   2.602   1.898   2.513  0.4223 -0.1349 -0.5949
  618SOL    HW1 1853   2.570   1.968   2.449  1.9743 -1.6997 -0.1179
  618SOL    HW2 1854   2.671   1.940   2.572 -1.6388  0.1131  0.7503
  619SOL     OW 1855   2.335   1.965   0.927  0.0285  0.7109  0.2760
  619SOL    HW1 1856   2.335   1.996   1.024  0.0450 -1.4117  0.1764
  619SOL    HW2 1857   2.414   2.009   0.887  0.4218  1.0784  2.2923
  620SOL     OW 1858   2.470   2.914   1.630 -0.1413 -0.3978 -0.5416
  620SOL    HW1 1859   2.410   2.848   1.581  0.9677 -0.5389 -0.7888
  620SOL    HW2 1860   2.517   2.861   1.705 -1.0938 -2.9841 -1.8698
  621SOL     OW 1861   3.118   1.909   1.062 -0.3633  0.8443  0.1089
  621SOL    HW1 1862   3.111   1.815   1.029 -2.7386  0.6670  1.3602
  621SOL    HW2 1863   0.071   1.960   1.023 -1.5707  0.4288 -0.6353
  622SOL     OW 1864   0.838   1.775   2.592 -0.2244 -0.4008 -0.7231
  622SOL    HW1 1865   0.778   1.784   2.677 -0.7768  1.0581  0.9507
  622SOL    HW2 1866   0.925   1.827   2.604 -0.9512  0.5870  1.4496
  623SOL     OW 1867   2.615   2.758   2.651 -0.0048  0.3202 -0.4116
  623SOL    HW1 1868   2.700   2.721   2.617 -1.9196  3.9670  0.7685
  623SOL    HW2 1869   2.538   2.695   2.645 -0.4512  2.6809  4.3856
  624SOL     OW 1870   0.663   2.126   0.431  0.1986  0.2796  0.0354
  624SOL    HW1 1871   0.682   2.053   0.501  0.3882 -0.2142  0.3061
  624SOL    HW2 1872   0.587   2.100   0.369 -0.7886 -1.7138  0.6317
  625SOL     OW 1873   0.647   1.789   2.105  0.1369 -0.2866  0.3227
  625SOL    HW1 1874   0.664   1.731   2.186 -1.2987 -3.5817 -1.5599
  625SOL    HW2 1875   0.732   1.845   2.088 -0.5530 -0.3488  1.8345
  626SOL     OW 1876   0.537   2.590   0.027  0.5304 -0.0531  0.6590
  626SOL    HW1 1877   0.632   2.562   0.010 -3.6249  3.6615  1.1381
  626SOL    HW2 1878   0.512   2.550   0.116  1.9037 -1.8487 -3.0898
  627SOL     OW 1879   1.327   1.403   3.036 -0.5413 -0.1522  0.1006
  627SOL    HW1 1880   1.318   1.492   2.989 -1.0066 -1.3933  1.8289
  627SOL    HW2 1881   1.424   1.392   3.055 -2.0785 -0.8049  1.2491
  628SOL     OW 1882   1.506   2.164   0.736 -0.3042  0.1794 -0.4080
  628SOL    HW1 1883   1.480   2.137   0.833  3.2358 -0.8693 -0.2241
  628SOL    HW2 1884   1.609   2.159   0.735  4.1100 -1.1324  0.1382
  629SOL     OW 1885   0.487   0.328   1.494  0.3152  0.0966  0.0310
  629SOL    HW1 1886   0.407   0.358   1.547 -0.2732  0.4384  0.0943
  629SOL    HW2 1887   0.532   0.244   1.526  0.1586  3.1964  1.0744
  630SOL     OW 1888   2.578   0.354   1.708  0.4394  0.7003 -0.3705
  630SOL    HW1 1889   2.581   0.259   1.671 -0.2141 -0.0729 -0.0632
  630SOL    HW2 1890   2.522   0.402   1.638  1.8379 -1.8144 -0.8266
  631SOL     OW 1891   1.396   0.187   0.954  0.4465 -0.4707  0.3330
  631SOL    HW1 1892   1.358   0.115   0.896  0.3352  0.6320  1.8391
  631SOL    HW2 1893   1.323   0.222   1.016  1.0258 -1.2161 -1.5901
  632SOL     OW 1894   2.711   0.803   1.873 -0.2053 -0.0963 -0.3503
  632SOL    HW1 1895   2.809   0.822   1.866 -1.7399  2.1306 -3.4922
  632SOL    HW2 1896   2.698   0.701   1.869  0.3437  1.2363  1.2625
  633SOL     OW 1897   1.416   1.100   3.056  0.6493  0.6407  0.9030
  633SOL    HW1 1898   1.435   1.139   0.020  0.8374 -1.7712 -1.4015
  633SOL    HW2 1899   1.497   1.045   3.025 -2.2729 -0.7624  1.5839
  634SOL     OW 1900   0.568   2.260   0.092 -0.0051 -0.1659  0.1757
  634SOL    HW1 1901   0.666   2.279   0.111 -1.8026 -0.2726 -3.6706
  634SOL    HW2 1902   0.551   2.255   3.115 -1.0141  2.2688 -2.7305
  635SOL     OW 1903   3.064   1.532   2.063  0.0152 -0.1413 -0.4410
  635SOL    HW1 1904   2.980   1.591   2.041 -0.6951  1.5791 -0.2304
  635SOL    HW2 1905   3.103   1.558   2.156  0.1422 -1.4038  0.3794
  636SOL     OW 1906   3.099   1.796   0.244  0.0664 -0.1442 -0.7793
  636SOL    HW1 1907   3.116   1.729   0.171  0.1479  2.3948  1.3112
  636SOL    HW2 1908   0.052   1.861   0.249 -0.3323  0.7191  0.9287
  637SOL     OW 1909   2.897   2.351   0.490  0.0961 -0.1038 -0.3008
  637SOL    HW1 1910   2.975   2.288   0.486  0.2450 -0.0820 -1.7789
  637SOL    HW2 1911   2.878   2.385   0.586 -0.8068 -0.5628 -1.1430
  638SOL     OW 1912   2.690   2.924   0.112  0.3651 -0.0163  0.1092
  638SOL    HW1 1913   2.765   2.902   0.051 -0.0334  1.3341 -1.0785
  638SOL    HW2 1914   2.597   2.916   0.067 -0.2825 -1.0586 -1.3397
  639SOL     OW 1915   1.441   0.346   0.010  0.1365 -0.1287  0.0403
  639SOL    HW1 1916   1.414   0.435   0.052  0.0205  0.7059 -0.4717
  639SOL    HW2 1917   1.388   0.270   0.049  1.6756  0.9598 -0.0662
  640SOL     OW 1918   2.351   2.016   1.743 -0.3024  0.0196 -0.1299
  640SOL    HW1 1919   2.438   2.047   1.789 -0.1185 -0.5645  2.4126
  640SOL    HW2 1920   2.287   2.093   1.735  0.0393 -1.0922 -0.2101
  641SOL     OW 1921   2.963   2.984   1.202  0.2234  0.3762  0.0820
  641SOL    HW1 1922   2.866   2.961   1.177  1.5961 -1.2020  1.1946
  641SOL    HW2 1923   3.007   3.063   1.159 -1.0857 -3.0212  0.7999
  642SOL     OW 1924   1.644   1.102   1.271  0.0927  0.1493  0.5355
  642SOL    HW1 1925   1.626   1.028   1.341 -1.9058  1.6368  2.0996
  642SOL    HW2 1926   1.579   1.177   1.298 -3.1493 -1.2607  1.1906
  643SOL     OW 1927   1.069   1.648   2.268  0.1927 -0.6396 -0.1948
  643SOL    HW1 1928   1.109   1.645   2.360 -0.0065  0.3919 -0.4048
  643SOL    HW2 1929   1.100   1.731   2.213 -0.3824 -0.1846 -2.5339
  644SOL     OW 1930   1.861   0.169   2.056 -0.0275  0.2158  0.2241
  644SOL    HW1 1931   1.796   0.117   2.115 -1.5082 -0.6818  1.4725
  644SOL    HW2 1932   1.833   0.264   2.049  1.0849  1.3245 -0.8396
  645SOL     OW 1933   1.617   1.211   1.637  0.3607 -0.2614 -0.3712
  645SOL    HW1 1934   1.564   1.244   1.559  2.5790 -1.1997 -1.9776
  645SOL    HW2 1935   1.719   1.221   1.629 -0.1446 -0.0342  2.5306
  646SOL     OW 1936   1.158   2.481   0.006  0.1577 -0.1140  0.0814
  646SOL    HW1 1937   1.119   2.439   3.045 -0.0208 -3.8307 -1.7892
  646SOL    HW2 1938   1.232   2.418   0.037 -0.3615 -0.7983 -2.7654
  647SOL     OW 1939   1.434   2.334   1.074  0.0935 -0.3168  0.1993
  647SOL    HW1 1940   1.407   2.419   1.023 -1.1800  1.8300 -3.5971
  647SOL    HW2 1941   1.425   2.250   1.019  0.2547 -0.3069  0.1127
  648SOL     OW 1942   3.077   2.330   1.567  0.0817  0.0003  0.5553
  648SOL    HW1 1943   3.079   2.230   1.536  1.8390 -0.8032  3.2605
  648SOL    HW2 1944   0.032   2.387   1.537  2.1856 -0.1655  2.6938
  649SOL     OW 1945   1.143   2.368   2.620 -1.1157 -0.0683 -0.3487
  649SOL    HW1 1946   1.215   2.295   2.621  0.9915  1.1434  0.2196
  649SOL    HW2 1947   1.052   2.325   2.598 -1.9959 -0.1977 -0.7598
  650SOL     OW 1948   3.005   1.932   2.997  0.4201 -0.6297  0.3205
  650SOL    HW1 1949   2.986   1.920   3.095  0.7267 -1.7882  0.9924
  650SOL    HW2 1950   3.065   1.859   2.962 -0.5528  1.5457 -1.6506
  651SOL     OW 1951   2.387   2.274   2.163 -0.3694  0.5139 -0.3035
  651SOL    HW1 1952   2.322   2.201   2.132  1.6700  0.2881  0.7323
  651SOL    HW2 1953   2.430   2.315   2.084  0.1188  0.6218 -1.6061
  652SOL     OW 1954   2.064   2.809   0.855  0.1540 -0.3913  0.9439
  652SOL    HW1 1955   2.165   2.783   0.861 -1.1106 -1.1161 -0.7247
  652SOL    HW2 1956   2.022   2.800   0.764 -1.3070 -1.0157  0.1842
  653SOL     OW 1957   3.010   1.248   1.425  0.2954  0.2830  0.1550
  653SOL    HW1 1958   2.952   1.273   1.504  1.6220 -0.1021 -2.0289
  653SOL    HW2 1959   2.969   1.296   1.341 -0.4171 -1.5890  0.7036
  654SOL     OW 1960   0.924   0.411   2.850  0.7610  0.0404 -0.8731
  654SOL    HW1 1961   0.926   0.510   2.874  1.7715  0.4635 -1.5672
  654SOL    HW2 1962   0.906   0.352   2.937  1.1727 -2.1293  1.1420
  655SOL     OW 1963   1.071   0.916   1.034  0.2477  0.2860 -0.7676
  655SOL    HW1 1964   0.982   0.880   1.065  0.4122  0.3984 -1.1315
  655SOL    HW2 1965   1.121   0.939   1.115 -1.5799 -1.6711  0.2409
  656SOL     OW 1966   0.993   2.739   2.078 -0.4033 -0.1235  0.2179
  656SOL    HW1 1967   0.907   2.681   2.071  1.9566 -1.3216 -0.6732
  656SOL    HW2 1968   1.068   2.688   2.126  2.8176  0.1195 -0.8771
  657SOL     OW 1969   2.143   1.259   0.251  0.7700  0.3179  0.0269
  657SOL    HW1 1970   2.162   1.245   0.150  0.2696  2.7924  1.6615
  657SOL    HW2 1971   2.233   1.262   0.298 -1.6661  0.7496 -0.0120
  658SOL     OW 1972   1.525   2.345   1.655  0.1363 -0.4565 -0.9632
  658SOL    HW1 1973   1.562   2.426   1.604 -1.0457  0.1373 -0.9298
  658SOL    HW2 1974   1.589   2.305   1.724 -1.3583 -2.2320  0.7388
  659SOL     OW 1975   2.908   1.961   0.149  0.4505 -0.2228  0.1115
  659SOL    HW1 1976   2.835   1.894   0.158 -0.7426  2.0706  2.1452
  659SOL    HW2 1977   2.994   1.913   0.183  0.4660  1.0721 -0.3356
  660SOL     OW 1978   1.006   0.220   0.756  0.4900 -0.0624 -0.1653
  660SOL    HW1 1979   0.959   0.134   0.729  0.1391  2.2805  0.0977
  660SOL    HW2 1980   1.051   0.252   0.671  1.1728  2.7750 -2.9512
  661SOL     OW 1981   1.811   0.260   0.410  0.1437  0.1453 -0.0828
  661SOL    HW1 1982   1.773   0.234   0.318  0.5026 -0.4639  0.4105
  661SOL    HW2 1983   1.818   0.364   0.408  1.2249  1.9409 -1.2440
  662SOL     OW 1984   0.562   0.485   0.523  0.1237 -0.1266  0.0337
  662SOL    HW1 1985   0.472   0.534   0.504  0.1042 -1.6854 -1.6607
  662SOL    HW2 1986   0.640   0.535   0.480  0.6267 -0.1900  1.7298
  663SOL     OW 1987   1.557   2.988   2.324 -0.0503  0.2261 -0.1453
  663SOL    HW1 1988   1.472   3.042   2.296  1.4639  0.4057  0.1964
  663SOL    HW2 1989   1.534   2.887   2.316  2.0644 -1.4359 -1.0059
  664SOL     OW 1990   0.889   2.598   1.647 -0.6073  0.2937  0.9150
  664SOL    HW1 1991   0.790   2.565   1.641 -0.4192  1.5591  0.7316
  664SOL    HW2 1992   0.922   2.628   1.552  0.2572  0.8857 -2.7990
  665SOL     OW 1993   1.250   2.286   1.731  0.6551 -0.0274  0.3712
  665SOL    HW1 1994   1.206   2.355   1.789  0.8623 -0.0177  0.3443
  665SOL    HW2 1995   1.351   2.301   1.732 -1.1282 -0.7368 -1.0670
  666SOL     OW 1996   0.980   3.026   2.436  0.2075 -0.1423 -0.2293
  666SOL    HW1 1997   0.941   3.054   2.525  1.6972 -2.9431 -1.7745
  666SOL    HW2 1998   1.023   3.105   2.390 -1.6409 -0.8620 -1.6226
  667SOL     OW 1999   2.678   0.872   1.560 -0.2901 -0.0319  0.1153
  667SOL    HW1 2000   2.681   0.974   1.546  1.3961  2.4808  1.9144
  667SOL    HW2 2001   2.765   0.840   1.598  2.4769  0.5865  0.0708
  668SOL     OW 2002   1.930   2.940   1.495  0.1208 -0.2352  0.2214
  668SOL    HW1 2003   1.859   2.879   1.531  0.8678 -1.2667  1.4191
  668SOL    HW2 2004   1.918   3.037   1.531  2.7164  1.3767  1.3931
  669SOL     OW 2005   2.876   2.533   1.264 -0.3100  0.3751 -0.1039
  669SOL    HW1 2006   2.830   2.458   1.311  2.2038  0.4971 -0.5145
  669SOL    HW2 2007   2.827   2.556   1.184  2.0953  1.0885  2.3040
  670SOL     OW 2008   1.322   2.190   2.798  0.3550 -0.4609 -0.2844
  670SOL    HW1 2009   1.382   2.246   2.858 -0.4862 -0.2869  0.1616
  670SOL    HW2 2010   1.353   2.200   2.701  1.4259 -0.2501 -1.3295
  671SOL     OW 2011   0.474   1.381   0.343 -0.1528  0.0568 -0.0335
  671SOL    HW1 2012   0.441   1.332   0.263 -1.5576 -1.9177 -0.5341
  671SOL    HW2 2013   0.397   1.397   0.409 -2.6875 -2.4828  0.8941
  672SOL     OW 2014   2.617   1.214   0.017  0.0702 -0.2131  0.2073
  672SOL    HW1 2015   2.684   1.174   0.080 -1.7529  2.1368 -2.6196
  672SOL    HW2 2016   2.529   1.170   0.029  1.7472  1.7934 -2.8223
  673SOL     OW 2017   0.198   1.950   1.687  0.3156 -0.1684 -0.6131
  673SOL    HW1 2018   0.129   1.937   1.758  0.0821 -1.3454  0.5354
  673SOL    HW2 2019   0.256   1.868   1.676 -0.3286  3.8067 -0.5046
  674SOL     OW 2020   1.113   2.201   2.093  0.1470  0.0061  0.1499
  674SOL    HW1 2021   1.057   2.180   2.012  2.5777  1.9215  0.4362
  674SOL    HW2 2022   1.202   2.152   2.092  0.8662  1.1567  2.5156
  675SOL     OW 2023   1.237   1.014   1.236 -0.4213 -0.0627 -0.6387
  675SOL    HW1 2024   1.230   1.006   1.339 -1.7803 -0.7678 -1.1332
  675SOL    HW2 2025   1.215   1.109   1.208  0.0048 -0.9537  2.0699
  676SOL     OW 2026   2.060   0.497   1.169  0.2052  0.4483 -0.1995
  676SOL    HW1 2027   2.070   0.587   1.116  1.4446 -0.2146 -1.5302
  676SOL    HW2 2028   2.013   0.425   1.113  0.2844 -0.4941  0.4319
  677SOL     OW 2029   2.643   0.743   0.372  0.2870  0.1524  0.2417
  677SOL    HW1 2030   2.596   0.782   0.453 -4.6925  0.1570  0.3493
  677SOL    HW2 2031   2.702   0.663   0.397 -0.4856 -1.6894  1.0493
  678SOL     OW 2032   2.445   1.547   1.302  0.3723 -0.3343  0.4049
  678SOL    HW1 2033   2.487   1.573   1.215  0.7122  0.4848 -0.3047
  678SOL    HW2 2034   2.339   1.536   1.295 -1.9996 -0.9257  0.1167
  679SOL     OW 2035   2.579   0.704   3.035 -0.2051 -0.0661 -0.2795
  679SOL    HW1 2036   2.534   0.749   2.957 -0.1660  0.6737  0.3057
  679SOL    HW2 2037   2.589   0.774   3.113 -2.4510  2.4197 -0.2780
  680SOL     OW 2038   0.444   1.152   2.126  0.3001  0.4874  0.1191
  680SOL    HW1 2039   0.398   1.060   2.135  1.4098 -1.7416 -2.5238
  680SOL    HW2 2040   0.501   1.176   2.203 -0.0840 -1.3355  0.9295
  681SOL     OW 2041   2.635   1.900   1.509 -0.2935  0.3009  0.1808
  681SOL    HW1 2042   2.689   1.866   1.589  2.8093  1.3748  0.9867
  681SOL    HW2 2043   2.536   1.916   1.532 -0.7188  0.6403  2.6261
  682SOL     OW 2044   0.399   1.828   2.904 -0.0085  0.1345 -0.0801
  682SOL    HW1 2045   0.428   1.847   2.806  0.7133 -2.4937 -0.2403
  682SOL    HW2 2046   0.414   1.730   2.919  0.5573 -2.5835 -0.7282
  683SOL     OW 2047   2.718   2.280   0.957  0.4497  0.4645 -0.2972
  683SOL    HW1 2048   2.785   2.206   0.947  2.4799 -1.0645  0.8870
  683SOL    HW2 2049   2.692   2.284   1.056  0.0962  1.7885  2.3780
  684SOL     OW 2050   2.626   1.014   1.982 -0.1613 -0.3175  0.6765
  684SOL    HW1 2051   2.658   0.931   1.932  1.7020  0.6362 -1.0267
  684SOL    HW2 2052   2.656   1.010   2.078 -2.3545 -2.0905  1.5501
  685SOL     OW 2053   1.214   0.742   0.896 -0.0860  0.3214  0.4443
  685SOL    HW1 2054   1.220   0.658   0.953  1.2720 -1.5832  0.5553
  685SOL    HW2 2055   1.170   0.823   0.940 -0.7643 -1.2803  0.9745
  686SOL     OW 2056   0.637   0.245   3.078 -0.1554  0.2511 -0.3982
  686SOL    HW1 2057   0.621   0.148   3.106 -0.4172 -0.2864 -0.6561
  686SOL    HW2 2058   0.635   0.300   0.039 -1.7981 -4.7671 -0.9289
  687SOL     OW 2059   0.458   2.303   2.518  0.0942  0.4309 -0.0453
  687SOL    HW1 2060   0.395   2.308   2.438 -1.4930 -0.0665  0.0362
  687SOL    HW2 2061   0.416   2.291   2.612  1.1431 -1.1993  1.2374
  688SOL     OW 2062   2.088   0.311   1.587  0.2801  0.0101  0.4768
  688SOL    HW1 2063   2.024   0.359   1.523  0.2154  0.9193  0.1368
  688SOL    HW2 2064   2.158   0.264   1.533  2.8482  3.3551  0.3942
  689SOL     OW 2065   1.854   0.792   0.831  0.4969  0.0442 -0.4329
  689SOL    HW1 2066   1.881   0.840   0.915  0.9433  2.5035  2.9632
  689SOL    HW2 2067   1.759   0.830   0.809 -0.0033 -0.7279  4.2636
  690SOL     OW 2068   3.095   0.967   1.453  0.0859  0.2771 -0.0591
  690SOL    HW1 2069   3.071   1.058   1.421  1.5079 -0.5810 -0.7165
  690SOL    HW2 2070   0.012   0.915   1.371  1.6329  1.5902 -1.7787
  691SOL     OW 2071   3.061   1.179   1.886 -0.7676 -0.1194  0.3370
  691SOL    HW1 2072   0.033   1.223   1.865  0.5995 -1.2413 -1.3974
  691SOL    HW2 2073   2.993   1.256   1.891  0.2016 -0.2524  1.6142
  692SOL     OW 2074   0.992   0.783   1.779 -0.0300 -0.0137  0.3995
  692SOL    HW1 2075   0.973   0.696   1.830 -3.9379  1.2618  3.2913
  692SOL    HW2 2076   0.938   0.785   1.696  2.2172  0.9113 -2.0402
  693SOL     OW 2077   0.510   1.243   2.384  0.3579 -0.0164  0.0749
  693SOL    HW1 2078   0.498   1.344   2.369 -2.8503  1.2299 -1.2651
  693SOL    HW2 2079   0.431   1.209   2.437  1.0827 -0.4842 -0.4079
  694SOL     OW 2080   1.243   1.562   0.610 -0.3059 -0.1039  0.3776
  694SOL    HW1 2081   1.323   1.600   0.660  1.6563 -0.3386  0.9507
  694SOL    HW2 2082   1.193   1.497   0.667  4.5391 -0.3178  0.6708
  695SOL     OW 2083   0.588   1.143   1.264 -0.8069 -0.1551 -0.4351
  695SOL    HW1 2084   0.575   1.204   1.185 -0.7939 -1.7121 -0.6922
  695SOL    HW2 2085   0.516   1.155   1.331  2.4448  0.9094 -0.9167
  696SOL     OW 2086   0.252   2.709   0.472 -0.2978 -0.1354  0.3065
  696SOL    HW1 2087   0.272   2.803   0.452 -0.5084 -1.9220  1.5930
  696SOL    HW2 2088   0.312   2.644   0.417  2.2906  0.6797 -0.4198
  697SOL     OW 2089   1.609   0.422   1.232  0.3840 -0.1657 -0.3208
  697SOL    HW1 2090   1.563   0.474   1.157 -1.1466 -0.6153 -0.9880
  697SOL    HW2 2091   1.608   0.323   1.204  0.3870 -2.7477  1.4552
  698SOL     OW 2092   1.573   1.650   1.535  0.2227 -0.2459  0.7468
  698SOL    HW1 2093   1.541   1.749   1.558 -2.3646  1.2843 -0.8271
  698SOL    HW2 2094   1.645   1.627   1.604 -3.6907  0.8827 -0.3763
  699SOL     OW 2095   0.001   0.443   2.423  0.0913  0.0725  0.0420
  699SOL    HW1 2096   3.059   0.516   2.387 -3.2647 -0.3918 -1.0710
  699SOL    HW2 2097   3.122   0.351   2.374  0.5115  1.4140  0.5099
  700SOL     OW 2098   1.613   2.780   0.863  0.8066 -0.2621  0.6565
  700SOL    HW1 2099   1.568   2.851   0.923  0.1657 -0.1151  2.2577
  700SOL    HW2 2100   1.630   2.823   0.771 -2.9052 -0.2911 -2.4525
  701SOL     OW 2101   0.043   1.469   2.698 -0.1103 -0.3356  0.3339
  701SOL    HW1 2102   0.083   1.564   2.675  1.4088  2.3170 -0.7793
  701SOL    HW2 2103   3.124   1.470   2.790 -0.5539 -0.5229  0.0330
  702SOL     OW 2104   0.435   0.405   2.943 -0.2045 -0.6670  0.2413
  702SOL    HW1 2105   0.339   0.373   2.922 -2.8432  0.4715 -1.5390
  702SOL    HW2 2106   0.488   0.342   3.000 -1.2461  0.7335 -0.2551
  703SOL     OW 2107   1.965   0.010   2.570  0.0581 -0.3711 -0.0979
  703SOL    HW1 2108   2.056   0.045   2.592 -0.6563 -0.2053 -1.4822
  703SOL    HW2 2109   1.899   0.088   2.557 -0.6618 -0.4673  0.8446
  704SOL     OW 2110   2.643   1.836   0.538 -0.1958 -0.1375  0.5036
  704SOL    HW1 2111   2.589   1.915   0.498 -0.9079  0.4256  0.1246
  704SOL    HW2 2112   2.728   1.820   0.486  3.5727 -0.3741  0.3126
  705SOL     OW 2113   2.673   1.991   2.096  0.2434  0.6951 -0.1658
  705SOL    HW1 2114   2.595   1.930   2.104  2.8068 -0.2222 -0.8565
  705SOL    HW2 2115   2.695   2.042   2.183 -1.0409 -0.1046  1.1210
  706SOL     OW 2116   2.778   2.762   0.867 -0.0412  0.1548 -0.1962
  706SOL    HW1 2117   2.866   2.793   0.907 -3.9840  0.1660  0.3061
  706SOL    HW2 2118   2.783   2.781   0.768  2.2536 -2.1528  0.5753
  707SOL     OW 2119   0.878   2.933   0.244 -0.2498  0.4882  0.6917
  707SOL    HW1 2120   0.976   2.921   0.271 -0.5905  1.4802  1.1711
  707SOL    HW2 2121   0.882   2.914   0.143  0.8824 -1.9834  0.5723
  708SOL     OW 2122   0.665   2.204   1.470 -0.1572  0.0561 -0.1543
  708SOL    HW1 2123   0.602   2.167   1.401 -0.9031  2.7547  2.0167
  708SOL    HW2 2124   0.736   2.258   1.417 -1.0681  0.2836  0.1755
  709SOL     OW 2125   1.640   0.094   2.205 -0.1572  0.2245 -0.3907
  709SOL    HW1 2126   1.610   0.165   2.273  0.4353  1.4474 -1.5746
  709SOL    HW2 2127   1.625   3.123   2.242 -0.2176  0.3596 -2.8251
  710SOL     OW 2128   1.597   2.921   2.605  0.0597  0.0811 -0.8179
  710SOL    HW1 2129   1.549   2.833   2.584  1.3191 -0.9975 -0.9403
  710SOL    HW2 2130   1.634   2.965   2.520 -2.6876 -0.0534 -2.9923
  711SOL     OW 2131   1.098   2.324   2.921  1.1304  0.1084  0.3700
  711SOL    HW1 2132   1.018   2.342   2.860 -0.3723 -3.3903 -2.0267
  711SOL    HW2 2133   1.155   2.251   2.882 -0.2565  0.9214 -0.8904
  712SOL     OW 2134   1.153   1.985   2.851 -0.6732  0.6374 -0.0160
  712SOL    HW1 2135   1.218   2.050   2.812  0.2636  0.1030 -1.0584
  712SOL    HW2 2136   1.097   1.936   2.780 -1.2283 -2.1154  0.3945
  713SOL     OW 2137   1.432   1.243   1.434 -0.2575  0.2003  0.0889
  713SOL    HW1 2138   1.358   1.308   1.402  0.5676  0.5119  0.5635
  713SOL    HW2 2139   1.385   1.158   1.467 -1.4876  0.4285 -3.0663
  714SOL     OW 2140   1.468   1.506   1.034  0.5765  0.1698  0.2775
  714SOL    HW1 2141   1.508   1.525   1.127  1.5404 -1.6006 -2.6330
  714SOL    HW2 2142   1.368   1.508   1.038  0.9357 -0.0154 -0.9029
  715SOL     OW 2143   2.505   0.020   0.757 -0.4445 -0.2289  0.4647
  715SOL    HW1 2144   2.485   3.088   0.843 -0.9837 -0.9257  1.3844
  715SOL    HW2 2145   2.559   0.107   0.777  0.9373  1.1935  0.2667
  716SOL     OW 2146   0.586   2.853   0.614 -0.6516  0.1613 -0.1401
  716SOL    HW1 2147   0.641   2.836   0.530 -0.5961  1.1115  0.2804
  716SOL    HW2 2148   0.633   2.921   0.671  0.0092 -0.7245 -0.1439
  717SOL     OW 2149   0.081   0.335   0.025  0.3390  0.6487 -0.0645
  717SOL    HW1 2150   0.010   0.403   0.049 -0.8907 -0.3310  1.0204
  717SOL    HW2 2151   0.074   0.246   0.079 -0.8506 -1.6873 -0.4844
  718SOL     OW 2152   1.753   1.786   1.256 -0.5350  0.3082  0.2730
  718SOL    HW1 2153   1.743   1.851   1.330  1.1810 -1.2137  0.1517
  718SOL    HW2 2154   1.668   1.734   1.241 -0.4086  0.0451 -1.7866
  719SOL     OW 2155   2.764   2.506   0.294  0.1984 -1.2219 -0.2028
  719SOL    HW1 2156   2.814   2.522   0.207  0.4348 -1.7060 -1.0146
  719SOL    HW2 2157   2.826   2.473   0.367  1.7784 -0.4672 -1.2586
  720SOL     OW 2158   1.004   1.075   0.820 -0.0386  0.1285 -0.1200
  720SOL    HW1 2159   1.053   1.008   0.886  1.3087 -0.6031  2.9737
  720SOL    HW2 2160   1.057   1.073   0.732  1.4539  2.6875 -1.0730
  721SOL     OW 2161   1.600   0.168   1.163 -0.1636  0.0458 -0.6416
  721SOL    HW1 2162   1.534   0.184   1.085 -0.4245 -0.7084  0.2639
  721SOL    HW2 2163   1.589   0.073   1.195  0.5461  0.9997 -0.2090
  722SOL     OW 2164   1.083   1.392   2.184  0.1101  0.1165  0.4132
  722SOL    HW1 2165   1.154   1.361   2.251  1.3688 -0.1722  1.2598
  722SOL    HW2 2166   1.038   1.474   2.223  0.5683 -0.1954  1.9483
  723SOL     OW 2167   0.992   0.098   1.650 -0.0991 -0.2030 -0.2177
  723SOL    HW1 2168   1.018   0.159   1.574  0.3981  2.9659 -1.2784
  723SOL    HW2 2169   1.010   0.000   1.624 -0.9715 -0.6934 -0.2901
  724SOL     OW 2170   2.022   1.983   1.959 -0.2012 -0.5588 -0.1531
  724SOL    HW1 2171   1.986   2.030   1.876  0.4608 -0.6625 -0.9342
  724SOL    HW2 2172   2.020   1.884   1.946  1.5970  1.7636  0.3613
  725SOL     OW 2173   1.188   2.433   1.405  0.2049  0.0460 -0.2283
  725SOL    HW1 2174   1.181   2.490   1.319 -1.0392 -0.2323  4.5440
  725SOL    HW2 2175   1.226   2.488   1.479  2.1767  0.4143  0.0950
  726SOL     OW 2176   1.707   2.722   3.104 -0.5885  0.3132  0.3620
  726SOL    HW1 2177   1.689   2.785   3.026  1.2213 -1.4707 -1.1926
  726SOL    HW2 2178   1.801   2.735   0.016  0.0766  1.9822 -2.3697
  727SOL     OW 2179   1.262   1.809   0.914  0.5735  0.5050  0.1935
  727SOL    HW1 2180   1.210   1.725   0.887  1.9457  1.7038  1.0831
  727SOL    HW2 2181   1.355   1.812   0.868 -1.7859  1.1519  1.9327
  728SOL     OW 2182   1.982   2.881   2.454 -0.4358  0.0692  0.4287
  728SOL    HW1 2183   1.993   2.968   2.509 -0.8928  1.6938  0.3933
  728SOL    HW2 2184   2.024   2.799   2.499  1.4930  4.1329 -0.3103
  729SOL     OW 2185   2.368   1.905   1.495 -1.1206 -0.0536  0.1486
  729SOL    HW1 2186   2.360   1.936   1.595  0.5009 -0.7527  1.1267
  729SOL    HW2 2187   2.313   1.818   1.480  0.5051  0.9491 -1.5240
  730SOL     OW 2188   1.844   0.582   2.480  0.3630 -0.1489  0.0578
  730SOL    HW1 2189   1.905   0.497   2.477  3.0815 -4.3105  0.9060
  730SOL    HW2 2190   1.827   0.607   2.579  1.5964 -1.2220 -1.1404
  731SOL     OW 2191   0.459   0.221   1.037  0.1863  0.0879  0.1772
  731SOL    HW1 2192   0.477   0.206   1.138  2.8182 -0.4776 -0.1476
  731SOL    HW2 2193   0.495   0.315   1.016  0.5711 -1.5292 -0.2887
  732SOL     OW 2194   1.818   3.107   0.875  0.6021  0.0001 -0.1940
  732SOL    HW1 2195   1.815   0.075   0.829 -0.9550  2.2934  0.1777
  732SOL    HW2 2196   1.901   3.090   0.930 -0.0823  0.1000 -1.7087
  733SOL     OW 2197   0.873   1.196   1.291  0.0762  1.1755  0.4711
  733SOL    HW1 2198   0.790   1.142   1.288 -3.2998  0.7310 -1.7724
  733SOL    HW2 2199   0.899   1.236   1.199  0.2975 -0.8146 -1.6155
  734SOL     OW 2200   2.377   1.924   0.349 -0.0217 -0.1276 -0.2818
  734SOL    HW1 2201   2.314   1.843   0.358  0.9582 -0.8587 -0.5276
  734SOL    HW2 2202   2.420   1.927   0.259  0.2196  2.1513  0.6485
  735SOL     OW 2203   0.476   0.841   0.298 -0.2722  0.2754  0.0174
  735SOL    HW1 2204   0.519   0.771   0.231  1.2936  0.1693 -0.5738
  735SOL    HW2 2205   0.432   0.796   0.378 -0.5469  2.0117  0.4928
  736SOL     OW 2206   1.874   2.425   2.661  0.0821  0.2224  0.2033
  736SOL    HW1 2207   1.949   2.424   2.594 -3.3365 -1.0144  2.1527
  736SOL    HW2 2208   1.904   2.465   2.749 -0.1735  2.5290  1.6276
  737SOL     OW 2209   0.991   2.136   1.190  0.0556  0.2053 -0.1273
  737SOL    HW1 2210   0.994   2.074   1.108  0.1514  2.3435 -1.4076
  737SOL    HW2 2211   1.074   2.147   1.245 -1.4559 -1.0931 -0.5990
  738SOL     OW 2212   1.804   2.748   2.309 -0.3916  0.1852 -0.1329
  738SOL    HW1 2213   1.710   2.778   2.307  0.9758  0.0119 -0.8999
  738SOL    HW2 2214   1.870   2.809   2.360  0.7837 -1.1940 -1.2161
  739SOL     OW 2215   1.381   2.037   2.162  0.4039  0.7468 -0.0192
  739SOL    HW1 2216   1.397   2.113   2.226  0.5525  0.4628  1.3084
  739SOL    HW2 2217   1.417   1.950   2.201  1.8404  0.3138 -1.8601
  740SOL     OW 2218   2.186   2.484   1.814  0.3083 -0.3116  0.0882
  740SOL    HW1 2219   2.132   2.438   1.891 -1.8713 -1.8954 -0.1537
  740SOL    HW2 2220   2.119   2.525   1.742 -3.0034 -0.3651 -2.5973
  741SOL     OW 2221   2.160   1.935   2.986  0.3232 -0.2383 -0.2615
  741SOL    HW1 2222   2.069   1.928   3.031 -2.4887 -0.5334  3.2753
  741SOL    HW2 2223   2.165   1.882   2.902  0.9264  1.6809  1.7902
  742SOL     OW 2224   0.584   1.026   2.944  0.3659  0.2026  0.5176
  742SOL    HW1 2225   0.511   1.101   2.942 -0.6410  1.3501  0.2023
  742SOL    HW2 2226   0.660   1.043   2.877  3.1753  0.2010 -0.8167
  743SOL     OW 2227   2.023   0.837   2.848 -0.4321  0.7184  0.5441
  743SOL    HW1 2228   2.109   0.781   2.837  0.5186 -0.5925 -1.8275
  743SOL    HW2 2229   2.013   0.896   2.931 -1.2688  2.4008 -0.0120
  744SOL     OW 2230   2.262   3.030   1.437 -0.7311 -0.6366 -0.0827
  744SOL    HW1 2231   2.282   2.933   1.456  0.1923 -0.2164  1.5525
  744SOL    HW2 2232   2.276   3.082   1.521 -0.2038  0.5461  1.2416
  745SOL     OW 2233   2.563   1.618   1.064 -0.3952 -0.6021 -0.7004
  745SOL    HW1 2234   2.647   1.622   1.013 -2.1885 -2.3928 -2.8474
  745SOL    HW2 2235   2.483   1.632   1.008  2.1261  0.0343  1.5734
  746SOL     OW 2236   2.916   2.049   0.921  0.0077 -0.3869 -0.0432
  746SOL    HW1 2237   2.867   1.987   0.859 -0.7913 -0.8375  1.6721
  746SOL    HW2 2238   2.974   1.997   0.986 -4.0984 -2.7522 -0.0640
  747SOL     OW 2239   2.142   2.880   0.240  0.3083  0.3414  0.4683
  747SOL    HW1 2240   2.212   2.806   0.260  0.5378 -3.6050  1.8406
  747SOL    HW2 2241   2.122   2.935   0.327  0.9232 -0.5495  0.4681
  748SOL     OW 2242   0.906   2.043   3.114  0.1830  0.1221 -0.2949
  748SOL    HW1 2243   0.983   1.981   0.025  2.3054  0.2961 -1.4130
  748SOL    HW2 2244   0.815   1.996   3.109  2.0994 -2.1199 -1.0197
  749SOL     OW 2245   2.729   0.539   2.358  0.0286 -0.0386 -0.3762
  749SOL    HW1 2246   2.720   0.438   2.373 -1.1921 -0.3190 -0.3709
  749SOL    HW2 2247   2.824   0.575   2.345  2.1053 -2.2054  2.3859
  750SOL     OW 2248   1.071   0.473   1.618 -0.0049 -0.3078 -0.1863
  750SOL    HW1 2249   1.157   0.471   1.676  1.6443  2.0977 -1.2908
  750SOL    HW2 2250   1.040   0.569   1.621 -1.7011 -0.4510 -0.0835
  751SOL     OW 2251   2.455   2.399   1.899  0.5156 -0.5445 -0.6219
  751SOL    HW1 2252   2.354   2.411   1.890  2.6965 -0.2993 -3.3123
  751SOL    HW2 2253   2.499   2.489   1.892 -0.2323 -2.0497 -0.9031
  752SOL     OW 2254   1.938   1.627   1.100  0.6090 -0.4768 -0.1390
  752SOL    HW1 2255   1.868   1.678   1.153  0.3616 -0.8317  1.3602
  752SOL    HW2 2256   1.903   1.541   1.052 -1.0808 -1.6190 -1.6334
  753SOL     OW 2257   1.528   0.875   2.471  0.5635  0.1092  0.1154
  753SOL    HW1 2258   1.569   0.958   2.431  1.5463 -1.0708  1.5427
  753SOL    HW2 2259   1.470   0.895   2.557 -2.6971  1.3439 -1.2467
  754SOL     OW 2260   0.186   2.388   1.015  0.0501 -0.0113  0.2533
  754SOL    HW1 2261   0.261   2.453   1.005 -2.3055 -1.8276 -4.1830
  754SOL    HW2 2262   0.133   2.407   1.103 -2.7171  1.3304 -2.8962
  755SOL     OW 2263   2.648   2.815   1.394  0.4408 -0.5322  0.0125
  755SOL    HW1 2264   2.614   2.899   1.442 -1.3742 -0.7214  1.3305
  755SOL    HW2 2265   2.739   2.790   1.436  2.1392  0.6477  0.8190
  756SOL     OW 2266   1.638   1.189   2.486  0.3597  0.1662 -0.1852
  756SOL    HW1 2267   1.608   1.282   2.520  1.1476 -0.2854 -0.0798
  756SOL    HW2 2268   1.585   1.153   2.403 -1.0717  0.9886 -0.5701
  757SOL     OW 2269   2.968   2.881   1.911 -0.1580 -0.4174 -0.1678
  757SOL    HW1 2270   2.970   2.874   2.012 -0.9042 -0.2016 -0.7980
  757SOL    HW2 2271   2.912   2.964   1.881 -1.3268  0.1699  1.5740
  758SOL     OW 2272   0.647   2.767   1.454  0.0689  0.6811  0.5203
  758SOL    HW1 2273   0.653   2.827   1.372  0.7076 -0.4951  1.2761
  758SOL    HW2 2274   0.581   2.693   1.441  1.9296 -0.4025  2.7455
  759SOL     OW 2275   2.245   1.292   1.020  0.5253  0.7029 -0.0624
  759SOL    HW1 2276   2.305   1.254   1.095  0.9433 -0.2473  3.8470
  759SOL    HW2 2277   2.306   1.339   0.958  1.4867 -2.8787  1.9901
  760SOL     OW 2278   1.880   0.093   1.575 -0.0197  0.4637 -0.3801
  760SOL    HW1 2279   1.893   0.087   1.676 -1.2672  2.1288  0.1246
  760SOL    HW2 2280   1.942   0.157   1.528  0.9053 -2.6637 -1.1574
  761SOL     OW 2281   2.097   0.446   0.605  0.3000  0.0882  0.1674
  761SOL    HW1 2282   2.106   0.360   0.550  0.5413 -1.1373  0.8375
  761SOL    HW2 2283   2.172   0.506   0.581  0.2273  1.8528  0.5039
  762SOL     OW 2284   2.334   2.700   0.278 -0.1501 -0.0008 -0.2288
  762SOL    HW1 2285   2.433   2.732   0.278 -1.0115 -1.2710  0.5737
  762SOL    HW2 2286   2.325   2.618   0.336 -1.9762 -0.0847  2.4231
  763SOL     OW 2287   1.081   0.753   1.376  0.1841 -0.5492 -0.0742
  763SOL    HW1 2288   1.025   0.788   1.457 -2.2371  1.1203  2.0377
  763SOL    HW2 2289   1.025   0.752   1.289 -0.8316  2.2421 -1.8105
  764SOL     OW 2290   2.375   2.575   2.680 -0.1113  0.5469 -0.3898
  764SOL    HW1 2291   2.412   2.521   2.603  3.6438  2.3374  0.1377
  764SOL    HW2 2292   2.331   2.513   2.751 -2.0181  0.2846  2.1032
  765SOL     OW 2293   3.036   1.055   2.586  0.2704 -0.3320  0.1764
  765SOL    HW1 2294   2.967   0.980   2.601 -2.9039  0.7828 -2.7781
  765SOL    HW2 2295   0.005   1.030   2.620 -3.2859 -0.2380  0.7380
  766SOL     OW 2296   2.811   1.553   2.751  0.5789  0.1997 -0.0172
  766SOL    HW1 2297   2.720   1.589   2.717 -1.8931 -0.5291 -3.0393
  766SOL    HW2 2298   2.835   1.468   2.698 -1.4103 -0.6170  2.0645
  767SOL     OW 2299   0.284   2.178   1.862  0.1445 -0.0387  0.0218
  767SOL    HW1 2300   0.243   2.121   1.791 -1.8803  2.9543  2.1463
  767SOL    HW2 2301   0.240   2.273   1.865 -1.1941  2.0300 -0.5785
  768SOL     OW 2302   1.064   0.973   2.746 -0.6837 -0.2657 -0.0593
  768SOL    HW1 2303   0.983   1.007   2.792 -0.2650 -1.3196 -0.1119
  768SOL    HW2 2304   1.144   1.005   2.803  1.1342  2.8054 -1.8396
  769SOL     OW 2305   1.731   2.900   2.842  0.0555  0.7298  0.7383
  769SOL    HW1 2306   1.826   2.937   2.830 -0.7762 -0.3944 -0.1806
  769SOL    HW2 2307   1.678   2.906   2.756  2.2547 -2.8114  0.0799
  770SOL     OW 2308   0.902   0.216   2.413 -0.1431  0.3134  0.0206
  770SOL    HW1 2309   0.841   0.231   2.333 -0.2609  3.6281  2.2772
  770SOL    HW2 2310   0.881   0.276   2.491  1.2298 -1.8556  0.0114
  771SOL     OW 2311   0.708   2.514   0.858 -0.4325 -0.5244  0.2214
  771SOL    HW1 2312   0.629   2.522   0.794  0.5972  2.8238  0.8355
  771SOL    HW2 2313   0.733   2.415   0.868 -0.4465  1.2326 -1.8017
  772SOL     OW 2314   3.019   0.974   0.308 -0.1765  0.0249  0.6478
  772SOL    HW1 2315   3.082   0.905   0.268 -0.7094 -1.5454 -2.8134
  772SOL    HW2 2316   2.966   0.936   0.390  0.2860  0.5206  1.0234
  773SOL     OW 2317   1.653   0.927   1.898  0.7499  0.1117 -0.1932
  773SOL    HW1 2318   1.725   0.895   1.964  0.3449  1.2514 -1.6314
  773SOL    HW2 2319   1.696   0.957   1.813  2.3047  0.4725  2.1493
  774SOL     OW 2320   0.566   0.811   0.605 -0.5844 -0.3352  0.2905
  774SOL    HW1 2321   0.629   0.848   0.674  1.0280  1.0311 -0.3784
  774SOL    HW2 2322   0.622   0.742   0.555 -0.1950  1.4473  0.2008
  775SOL     OW 2323   1.747   3.097   0.134 -0.2325 -0.0086  0.2163
  775SOL    HW1 2324   1.689   3.029   0.177  3.0411 -0.3152 -0.2968
  775SOL    HW2 2325   1.712   0.061   0.159 -0.2206 -0.7941  0.2670
  776SOL     OW 2326   2.291   0.333   2.474  0.4009  0.2239  0.0802
  776SOL    HW1 2327   2.268   0.382   2.561  0.9071 -2.6747  1.3741
  776SOL    HW2 2328   2.286   0.391   2.390  1.0530 -1.0954  4.0986
  777SOL     OW 2329   0.932   1.462   3.097  0.9262  0.3315  0.2913
  777SOL    HW1 2330   0.999   1.395   3.053  2.7995 -1.8833 -3.2570
  777SOL    HW2 2331   0.864   1.410   0.029  0.1661 -1.1821  0.2826
  778SOL     OW 2332   0.074   2.598   0.049 -0.5354 -0.0238  0.5318
  778SOL    HW1 2333   0.137   2.540   0.109  2.6833  0.3115  0.7438
  778SOL    HW2 2334   0.080   2.694   0.084  0.5970 -1.1512  1.3791
  779SOL     OW 2335   0.327   1.270   0.123  1.0968  0.2824  0.4907
  779SOL    HW1 2336   0.242   1.308   0.161 -0.9221 -0.4646  1.7196
  779SOL    HW2 2337   0.307   1.169   0.102  1.4139 -1.3962  1.1131
  780SOL     OW 2338   2.061   0.170   2.232 -0.0035  0.2367 -0.1224
  780SOL    HW1 2339   2.121   0.251   2.216 -1.9471  0.7274  1.2122
  780SOL    HW2 2340   1.987   0.166   2.162 -0.9526 -0.5821 -0.4776
  781SOL     OW 2341   1.787   0.910   1.622 -0.2128 -0.0808 -0.2957
  781SOL    HW1 2342   1.825   1.003   1.643  0.5548 -0.4492  0.6194
  781SOL    HW2 2343   1.851   0.840   1.656 -0.6808 -0.2185 -0.9377
  782SOL     OW 2344   1.856   1.843   2.338 -1.0059 -0.3961  0.0512
  782SOL    HW1 2345   1.862   1.903   2.419 -0.9586 -2.8920 -2.2635
  782SOL    HW2 2346   1.948   1.799   2.320 -0.8177  0.8210  1.1663
  783SOL     OW 2347   1.446   0.063   1.745 -0.0360 -0.0663 -0.0350
  783SOL    HW1 2348   1.359   0.115   1.732  1.0659 -0.7347 -0.3433
  783SOL    HW2 2349   1.455   0.021   1.839 -3.6647 -0.8459  3.9434
  784SOL     OW 2350   2.063   1.033   2.627 -0.2340 -0.1277  0.2047
  784SOL    HW1 2351   2.053   0.973   2.709  1.2272 -0.3750  1.6665
  784SOL    HW2 2352   2.129   1.005   2.563 -2.8564  1.3335  0.0060
  785SOL     OW 2353   1.773   0.515   0.350 -0.7931 -0.2548  0.2189
  785SOL    HW1 2354   1.756   0.534   0.250  2.0957 -1.8976  0.3273
  785SOL    HW2 2355   1.840   0.582   0.396 -0.3524 -0.2565 -0.2901
  786SOL     OW 2356   3.076   1.920   0.629  0.1255 -0.0252  0.1980
  786SOL    HW1 2357   3.110   2.011   0.669 -0.2619  3.6676 -1.6691
  786SOL    HW2 2358   3.006   1.877   0.692 -1.6881 -0.0265  1.2881
  787SOL     OW 2359   1.535   2.251   0.434  0.1994  0.0540 -0.1342
  787SOL    HW1 2360   1.448   2.193   0.440 -0.9665 -0.9643 -1.4305
  787SOL    HW2 2361   1.538   2.305   0.518 -0.2998  1.2572  1.0785
  788SOL     OW 2362   1.999   1.544   1.523 -0.0674 -0.4288 -0.3184
  788SOL    HW1 2363   2.068   1.610   1.482 -0.0803  1.2871 -0.8549
  788SOL    HW2 2364   1.929   1.599   1.578 -1.2000  2.0019 -1.1254
  789SOL     OW 2365   2.933   1.374   2.578 -0.5981 -0.6107  0.0741
  789SOL    HW1 2366   3.029   1.394   2.614  1.7481  0.5468  2.2802
  789SOL    HW2 2367   2.933   1.303   2.504 -3.1121  0.8299  3.4947
  790SOL     OW 2368   0.548   0.003   2.679  0.5023  0.5453  0.4322
  790SOL    HW1 2369   0.564   0.105   2.688  1.8797 -1.4645 -0.0566
  790SOL    HW2 2370   0.466   3.097   2.625  0.8069 -1.5286  2.2762
  791SOL     OW 2371   0.954   3.069   2.729  0.2784  0.2320 -0.1416
  791SOL    HW1 2372   0.866   3.074   2.777  0.7108 -0.9259 -0.9769
  791SOL    HW2 2373   1.031   3.089   2.789 -1.4103 -3.1962 -3.8273
  792SOL     OW 2374   1.807   0.438   2.010 -0.5762  0.9770  0.3417
  792SOL    HW1 2375   1.726   0.465   2.065  2.1770  2.5344 -1.6330
  792SOL    HW2 2376   1.805   0.465   1.914  1.9099 -2.2984 -0.6614
  793SOL     OW 2377   2.679   0.200   2.080  0.0620 -0.2856  0.8164
  793SOL    HW1 2378   2.748   0.221   2.006  2.6477 -0.3533 -0.0951
  793SOL    HW2 2379   2.634   0.285   2.116 -1.9093  0.7305  0.1342
  794SOL     OW 2380   0.592   0.699   1.862  0.1288  0.6218  0.5369
  794SOL    HW1 2381   0.622   0.749   1.944 -2.4670 -1.9247 -4.5284
  794SOL    HW2 2382   0.490   0.684   1.860 -2.1785  0.8531 -0.7556
  795SOL     OW 2383   2.917   1.557   0.582 -0.2449  0.0097  0.0917
  795SOL    HW1 2384   2.922   1.499   0.498 -0.2895 -0.6410 -0.1032
  795SOL    HW2 2385   2.893   1.653   0.571 -1.5827 -1.4142 -0.7977
  796SOL     OW 2386   2.762   2.594   2.997 -0.6869 -0.0923  0.1540
  796SOL    HW1 2387   2.842   2.563   3.060  0.1355 -1.5212  0.5787
  796SOL    HW2 2388   2.676   2.557   3.031 -0.8097 -2.6073 -4.0410
  797SOL     OW 2389   2.364   2.494   0.465  0.1981  0.3077 -0.1461
  797SOL    HW1 2390   2.420   2.429   0.411  4.3383  0.0466  1.0532
  797SOL    HW2 2391   2.422   2.543   0.535  0.3463  0.8560 -1.2667
  798SOL     OW 2392   0.421   0.933   1.502  0.0747 -0.0627  0.1294
  798SOL    HW1 2393   0.339   0.883   1.540  0.2649 -0.7909 -0.5039
  798SOL    HW2 2394   0.399   1.024   1.457  2.4263  0.3575 -1.3754
  799SOL     OW 2395   2.961   0.661   2.347 -0.0692 -0.1962  0.0673
  799SOL    HW1 2396   2.987   0.745   2.398  3.4188 -0.2939  0.3022
  799SOL    HW2 2397   3.003   0.668   2.252 -1.2810 -2.7051  0.4961
  800SOL     OW 2398   2.721   2.164   0.368  0.1625 -0.5057 -0.2109
  800SOL    HW1 2399   2.757   2.105   0.292 -0.3523 -1.6205 -0.6779
  800SOL    HW2 2400   2.783   2.244   0.393  1.2467 -1.5376  3.0807
  801SOL     OW 2401   1.414   1.096   0.716 -0.5677 -0.5512 -0.0276
  801SOL    HW1 2402   1.332   1.081   0.658  3.1879 -0.2455 -1.0870
  801SOL    HW2 2403   1.391   1.142   0.802 -0.1851  0.5869 -3.6229
  802SOL     OW 2404   1.356   1.782   1.197 -0.2747  0.2229 -0.5825
  802SOL    HW1 2405   1.443   1.815   1.149  0.8096  0.4069 -2.1962
  802SOL    HW2 2406   1.312   1.722   1.130 -0.3654  2.7851  3.0451
  803SOL     OW 2407   2.913   1.829   0.452  0.2702 -0.2218  0.5013
  803SOL    HW1 2408   2.952   1.790   0.369 -2.4622 -0.7161 -0.8268
  803SOL    HW2 2409   2.981   1.864   0.519  0.0498 -0.6847  1.7311
  804SOL     OW 2410   1.390   2.559   0.907 -0.5485  0.0477  0.1784
  804SOL    HW1 2411   1.337   2.562   0.818 -1.4769 -0.5011 -2.9718
  804SOL    HW2 2412   1.465   2.624   0.906 -1.8105  0.5315  0.6450
  805SOL     OW 2413   1.594   1.567   3.003 -0.2731 -0.1434 -0.7145
  805SOL    HW1 2414   1.661   1.609   3.060  0.1071  1.4457 -1.7456
  805SOL    HW2 2415   1.623   1.505   2.929 -3.0501 -2.6102  4.2838
  806SOL     OW 2416   1.687   2.821   1.493  0.4398  0.4263  0.2592
  806SOL    HW1 2417   1.617   2.894   1.529 -2.4706  2.9976  1.3608
  806SOL    HW2 2418   1.696   2.820   1.390 -0.2202  0.4873  0.8313
  807SOL     OW 2419   1.970   3.003   2.812 -0.2827 -0.3032  0.0700
  807SOL    HW1 2420   1.949   3.037   2.716  1.8521  1.1355 -0.0806
  807SOL    HW2 2421   1.988   3.087   2.871  1.3289  1.6186 -1.0202
  808SOL     OW 2422   0.096   1.409   0.220  0.1487 -0.2761  0.0198
  808SOL    HW1 2423   0.042   1.350   0.286 -0.4624  0.0190  0.1548
  808SOL    HW2 2424   0.143   1.488   0.267 -0.8162 -2.7511  0.1705
  809SOL     OW 2425   2.503   0.874   2.311 -0.3008 -0.5513  0.1667
  809SOL    HW1 2426   2.411   0.917   2.295  0.2379  1.8628  3.6826
  809SOL    HW2 2427   2.576   0.933   2.273 -1.4806  0.3464  0.8445
  810SOL     OW 2428   2.867   0.039   2.229 -0.1977 -0.0933  0.2838
  810SOL    HW1 2429   2.952   0.091   2.245  1.1901 -0.4124 -2.3652
  810SOL    HW2 2430   2.789   0.092   2.190  2.4086  2.4503 -0.6110
  811SOL     OW 2431   2.252   2.261   1.656  0.3000 -0.1703  0.3413
  811SOL    HW1 2432   2.233   2.343   1.708 -2.4543 -2.5537 -2.2874
  811SOL    HW2 2433   2.335   2.275   1.595  4.0464  0.7556  0.3400
  812SOL     OW 2434   1.714   0.402   3.071 -0.0843 -0.2834  0.3475
  812SOL    HW1 2435   1.624   0.366   3.034  1.8312  0.4236 -1.1905
  812SOL    HW2 2436   1.701   0.487   0.001 -1.6773  0.0873 -2.6917
  813SOL     OW 2437   2.035   0.580   2.028  0.1497  0.5919  0.2009
  813SOL    HW1 2438   1.961   0.506   2.045  0.8530 -1.3213 -2.4681
  813SOL    HW2 2439   2.079   0.574   1.935  0.7960  1.3059 -0.0043
  814SOL     OW 2440   1.929   1.299   1.423  0.5697  0.4569  0.2526
  814SOL    HW1 2441   1.963   1.386   1.458  1.0122 -1.4765 -0.5019
  814SOL    HW2 2442   1.865   1.301   1.338 -1.7110  2.5972 -2.4684
  815SOL     OW 2443   0.639   1.068   0.360  1.0999  0.5711 -0.5291
  815SOL    HW1 2444   0.602   1.162   0.369 -1.1892 -1.6989  0.9872
  815SOL    HW2 2445   0.568   1.004   0.325 -0.3042 -0.2089  0.8599
  816SOL     OW 2446   1.478   1.803   2.699  0.2611  0.4114  0.4271
  816SOL    HW1 2447   1.565   1.830   2.739 -1.7424  0.1568  1.0877
  816SOL    HW2 2448   1.422   1.752   2.766  0.8878 -1.5076 -0.7930
  817SOL     OW 2449   0.123   2.823   0.831 -0.0285  0.0846  0.0733
  817SOL    HW1 2450   0.074   2.780   0.752  0.9899 -0.3736  1.6478
  817SOL    HW2 2451   0.212   2.779   0.850 -0.2785  0.1645 -1.7381
  818SOL     OW 2452   1.365   0.297   2.841  0.3679  0.2266  0.0869
  818SOL    HW1 2453   1.341   0.328   2.935 -1.8421  0.6489  0.1816
  818SOL    HW2 2454   1.283   0.260   2.793 -2.3818 -2.6934  3.3888
  819SOL     OW 2455   0.792   0.926   0.767  0.0617  0.2455  0.0624
  819SOL    HW1 2456   0.874   0.989   0.779  1.6258  0.0054  1.2456
  819SOL    HW2 2457   0.732   0.932   0.853 -0.4389  1.7761  0.8885
  820SOL     OW 2458   2.337   0.764   1.162  0.0915  0.0968 -0.2464
  820SOL    HW1 2459   2.247   0.727   1.133  2.1635 -0.4084 -2.2354
  820SOL    HW2 2460   2.348   0.787   1.260  0.4546  1.0564  0.2400
  821SOL     OW 2461   2.398   0.235   0.562 -0.1723  0.4013  0.8284
  821SOL    HW1 2462   2.392   0.177   0.648 -1.6053 -0.5488 -0.6128
  821SOL    HW2 2463   2.305   0.240   0.526 -1.0263 -1.0707  4.2919
  822SOL     OW 2464   0.830   2.792   2.506 -0.6664  0.4680 -0.6369
  822SOL    HW1 2465   0.895   2.859   2.463  1.5934  0.3982 -0.9295
  822SOL    HW2 2466   0.861   2.696   2.484  1.2827 -3.3114  2.1033
  823SOL     OW 2467   3.124   1.919   1.924  0.0735 -0.4380 -0.8974
  823SOL    HW1 2468   3.118   1.884   2.018 -1.1501  1.9237  3.0057
  823SOL    HW2 2469   3.032   1.924   1.880 -0.4375  1.5629 -1.3866
  824SOL     OW 2470   0.957   2.989   2.172 -0.3589  0.3055 -0.1175
  824SOL    HW1 2471   0.943   3.010   2.268 -1.3687  1.3188  0.5895
  824SOL    HW2 2472   0.972   2.888   2.162  0.2848  0.4958  2.4365
  825SOL     OW 2473   1.121   1.866   0.215 -0.2794  0.1701 -0.2936
  825SOL    HW1 2474   1.171   1.880   0.128 -1.8509 -0.8698  2.5583
  825SOL    HW2 2475   1.185   1.850   0.288  1.8194  1.1891 -1.0794
  826SOL     OW 2476   1.002   2.802   2.760 -0.2158 -0.3929  0.2884
  826SOL    HW1 2477   0.977   2.897   2.728  1.0193  1.8975 -2.2475
  826SOL    HW2 2478   0.925   2.761   2.811 -0.9872 -0.0457 -0.1705
  827SOL     OW 2479   0.300   1.715   1.751 -0.5979 -0.2947  0.2047
  827SOL    HW1 2480   0.262   1.672   1.833  1.6331  0.2658  0.1554
  827SOL    HW2 2481   0.332   1.649   1.687 -1.3231 -0.4983  0.9054
  828SOL     OW 2482   2.852   1.649   1.214  0.6068 -0.7381 -0.2763
  828SOL    HW1 2483   2.911   1.720   1.252  1.6686  1.6643 -0.5643
  828SOL    HW2 2484   2.760   1.667   1.264  0.3255 -0.6029  0.6108
  829SOL     OW 2485   2.933   2.491   0.050  0.4981 -0.3274  0.3248
  829SOL    HW1 2486   3.032   2.525   0.046  2.3226  2.0503 -4.0451
  829SOL    HW2 2487   2.928   2.395   0.091  1.1094 -0.5138  1.1836
  830SOL     OW 2488   1.115   0.635   0.644 -0.1606 -0.1928 -0.2174
  830SOL    HW1 2489   1.125   0.665   0.739 -1.6763 -0.2739  0.5438
  830SOL    HW2 2490   1.183   0.558   0.629  0.5408 -5.4227  1.2896
  831SOL     OW 2491   2.916   2.228   0.158 -0.9134 -0.1609 -0.5778
  831SOL    HW1 2492   2.920   2.127   0.154 -0.0186 -0.6629  0.1700
  831SOL    HW2 2493   3.002   2.271   0.195 -0.5861  2.3773 -0.8540
  832SOL     OW 2494   1.205   2.320   0.418  0.2841 -0.1000 -0.0769
  832SOL    HW1 2495   1.143   2.289   0.489 -1.1177  1.6202  0.9049
  832SOL    HW2 2496   1.258   2.403   0.446 -0.0758 -0.8212 -0.0024
  833SOL     OW 2497   0.728   0.680   2.504  0.1237 -0.3778  0.4417
  833SOL    HW1 2498   0.772   0.692   2.411  3.0712 -1.1118 -0.4988
  833SOL    HW2 2499   0.635   0.721   2.519  0.1874  0.8615  1.0039
  834SOL     OW 2500   2.728   0.809   0.771  0.4100 -0.2340 -0.0249
  834SOL    HW1 2501   2.677   0.721   0.761  1.7953 -2.6121  0.3919
  834SOL    HW2 2502   2.753   0.821   0.871  0.5820  2.8679  1.5139
  835SOL     OW 2503   2.363   0.638   2.168 -0.3250  0.1545 -0.7680
  835SOL    HW1 2504   2.352   0.667   2.069 -2.0207 -0.6232 -1.5036
  835SOL    HW2 2505   2.409   0.701   2.235  2.5877  2.1627  0.0170
  836SOL     OW 2506   0.428   2.160   0.856 -0.3043 -0.0075  0.2824
  836SOL    HW1 2507   0.412   2.220   0.775  0.4081  0.5195 -1.3488
  836SOL    HW2 2508   0.438   2.226   0.936 -0.2952  0.7820 -0.4523
  837SOL     OW 2509   2.469   1.813   2.176 -0.5261 -0.6700 -0.3367
  837SOL    HW1 2510   2.409   1.867   2.235 -0.2832  2.4995  0.9976
  837SOL    HW2 2511   2.419   1.749   2.120  2.3761  2.0204  0.7780
  838SOL     OW 2512   0.058   1.117   2.160 -0.2730 -0.1672  0.1664
  838SOL    HW1 2513   0.077   1.020   2.141 -1.0478  3.2064  0.4984
  838SOL    HW2 2514   0.029   1.163   2.076  1.0889  1.8985 -1.7175
  839SOL     OW 2515   0.261   3.058   0.021 -0.1853 -0.0963  0.3340
  839SOL    HW1 2516   0.254   3.056   3.043 -2.2117  0.9607 -0.5302
  839SOL    HW2 2517   0.354   3.085   0.036  0.1270 -1.4090 -0.3690
  840SOL     OW 2518   2.904   0.814   2.607 -0.4800  0.5104  0.1747
  840SOL    HW1 2519   2.805   0.793   2.589 -2.0897  1.8482 -2.7502
  840SOL    HW2 2520   2.939   0.754   2.683 -2.2216  0.5417  0.3423
  841SOL     OW 2521   0.592   2.051   2.442  0.1180 -0.1622  0.1047
  841SOL    HW1 2522   0.556   1.968   2.488 -1.4082  1.6165  2.2487
  841SOL    HW2 2523   0.570   2.135   2.494 -1.7901 -1.8632  2.0724
  842SOL     OW 2524   0.897   3.113   1.185  0.1862 -0.5242  0.1939
  842SOL    HW1 2525   0.860   3.090   1.278  1.7661 -1.4597  4.1215
  842SOL    HW2 2526   0.834   3.071   1.113  0.4922 -0.0898  1.0986
  843SOL     OW 2527   0.456   1.617   2.598  0.0446  0.3636 -0.1729
  843SOL    HW1 2528   0.497   1.587   2.508  3.0295 -1.5841 -1.9482
  843SOL    HW2 2529   0.455   1.538   2.660 -1.9877  1.9448  0.2224
  844SOL     OW 2530   1.462   1.794   2.262 -0.0299  0.0702 -0.1405
  844SOL    HW1 2531   1.420   1.700   2.247  1.3158  2.7369  1.1901
  844SOL    HW2 2532   1.548   1.775   2.313  2.1715 -0.5044  0.5697
  845SOL     OW 2533   2.350   2.784   2.879 -0.4411  0.4657 -0.4012
  845SOL    HW1 2534   2.417   2.857   2.869 -0.5150  0.3651 -1.4113
  845SOL    HW2 2535   2.372   2.701   2.822 -1.0448 -0.5496  0.0830
  846SOL     OW 2536   2.036   1.589   3.048 -0.2538 -0.1404  0.3285
  846SOL    HW1 2537   2.008   1.685   3.036  3.0376  3.5518  0.9903
  846SOL    HW2 2538   2.029   1.557   0.021  0.4092  0.8438  0.3488
  847SOL     OW 2539   2.432   0.381   2.872  0.6889 -0.3693 -0.1002
  847SOL    HW1 2540   2.534   0.370   2.846  4.4722 -0.0019 -0.8150
  847SOL    HW2 2541   2.424   0.432   2.962 -1.2117 -0.6134  0.2497
  848SOL     OW 2542   2.894   0.593   0.162  0.3186  0.1627 -0.0701
  848SOL    HW1 2543   2.809   0.630   0.189  4.3207 -0.5665  0.0860
  848SOL    HW2 2544   2.885   0.498   0.122 -1.4089 -0.3376  0.4243
  849SOL     OW 2545   1.280   0.192   2.467 -0.2305  0.5429 -0.1248
  849SOL    HW1 2546   1.308   0.133   2.548 -1.7631 -0.1992 -0.9588
  849SOL    HW2 2547   1.324   0.283   2.479  3.2337  1.7982 -0.1438
  850SOL     OW 2548   2.820   0.927   0.548 -0.1462 -0.1022  0.7437
  850SOL    HW1 2549   2.784   0.871   0.625  2.7948  0.8138  0.2008
  850SOL    HW2 2550   2.856   1.015   0.586 -0.3228  0.8732  0.5329
  851SOL     OW 2551   0.395   0.976   0.964  0.4075 -0.0063  0.0945
  851SOL    HW1 2552   0.382   0.888   1.010 -1.6990  0.3784 -1.6703
  851SOL    HW2 2553   0.327   1.048   0.990 -2.1757  1.0363  0.8484
  852SOL     OW 2554   1.208   0.986   1.781  0.3236  0.0923 -0.1307
  852SOL    HW1 2555   1.180   1.074   1.827 -0.2835  1.9997  1.1349
  852SOL    HW2 2556   1.138   0.911   1.798 -0.7406 -0.8946  1.8051
  853SOL     OW 2557   1.828   1.313   3.068 -0.5706  0.2676 -0.1222
  853SOL    HW1 2558   1.908   1.361   3.032  0.9777 -0.5401  0.8990
  853SOL    HW2 2559   1.833   1.212   3.072 -1.1915  0.1232  0.8017
  854SOL     OW 2560   1.583   1.158   2.026 -0.4347  0.1883 -0.1850
  854SOL    HW1 2561   1.568   1.068   1.983  0.1805  3.2975  3.9883
  854SOL    HW2 2562   1.545   1.229   1.964 -1.2845 -0.4888  0.7752
  855SOL     OW 2563   0.556   2.158   2.190 -0.0440 -0.1575 -0.1627
  855SOL    HW1 2564   0.471   2.218   2.191 -1.3465  0.6392 -1.0812
  855SOL    HW2 2565   0.563   2.116   2.283  0.4679 -0.6709  0.0784
  856SOL     OW 2566   1.235   1.032   2.257 -0.4272 -0.4051  0.3458
  856SOL    HW1 2567   1.168   1.053   2.331 -1.9985  0.6893 -1.8371
  856SOL    HW2 2568   1.204   1.067   2.167 -1.2912  0.1862  0.2839
  857SOL     OW 2569   1.081   1.061   2.472  0.6570 -0.3858 -0.5653
  857SOL    HW1 2570   0.994   1.050   2.421 -0.3606  0.5405  1.2038
  857SOL    HW2 2571   1.094   0.995   2.552 -1.8142  0.3750  1.7934
  858SOL     OW 2572   0.078   0.578   1.805  0.2809 -0.0772  0.3803
  858SOL    HW1 2573   3.107   0.596   1.769  2.5728 -0.3704  0.5529
  858SOL    HW2 2574   0.076   0.501   1.870 -0.6601 -0.2838 -1.0612
  859SOL     OW 2575   2.476   2.943   0.979  0.3619  1.0195  0.2945
  859SOL    HW1 2576   2.429   3.002   1.046 -3.5840  1.3269 -0.1519
  859SOL    HW2 2577   2.572   2.929   1.012 -0.8268  0.6468 -0.8472
  860SOL     OW 2578   1.645   0.446   1.531 -0.4777 -0.6927  0.3870
  860SOL    HW1 2579   1.627   0.352   1.566  1.1525  0.7130  0.8186
  860SOL    HW2 2580   1.610   0.461   1.438  3.2798  0.0730  1.0065
  861SOL     OW 2581   1.742   0.810   1.186  0.2713 -0.0500 -0.3347
  861SOL    HW1 2582   1.682   0.830   1.271 -2.8562  1.5684  0.1760
  861SOL    HW2 2583   1.722   0.720   1.149 -2.6713  0.7393 -0.1329
  862SOL     OW 2584   1.270   2.910   2.496  0.4567  0.2876 -0.3020
  862SOL    HW1 2585   1.324   2.859   2.563  0.7329  0.6931 -0.9411
  862SOL    HW2 2586   1.170   2.907   2.522 -2.6159 -2.0607  0.4578
  863SOL     OW 2587   2.735   3.060   1.577 -0.3803  0.4043 -0.4937
  863SOL    HW1 2588   2.662   0.006   1.591 -2.9044 -0.1158 -1.0948
  863SOL    HW2 2589   2.779   3.050   1.672 -0.9071  0.2106  2.6749
  864SOL     OW 2590   2.952   2.897   2.191  0.5884  0.5422 -0.0916
  864SOL    HW1 2591   2.863   2.848   2.207  2.8305  0.3915 -0.3725
  864SOL    HW2 2592   2.929   2.994   2.194 -0.8455 -0.8421 -0.6251
  865SOL     OW 2593   0.972   1.233   2.810 -0.3001  0.0641 -0.1899
  865SOL    HW1 2594   1.041   1.234   2.735 -0.2104 -0.4619 -0.0205
  865SOL    HW2 2595   0.915   1.313   2.798 -0.9183 -0.4787 -1.4230
  866SOL     OW 2596   2.713   2.898   1.149 -0.0725 -0.0979  0.0599
  866SOL    HW1 2597   2.701   2.860   1.241 -2.7255  2.9883 -1.3931
  866SOL    HW2 2598   2.710   2.820   1.081  0.0454 -1.3322  1.5364
  867SOL     OW 2599   3.004   2.831   0.982 -0.3865  0.2907  0.3422
  867SOL    HW1 2600   3.104   2.825   0.964  3.2040 -1.3750 -0.0825
  867SOL    HW2 2601   2.994   2.867   1.078 -1.4472 -0.3048 -0.7024
  868SOL     OW 2602   2.909   1.566   1.509 -0.0781 -0.3532  0.1096
  868SOL    HW1 2603   2.991   1.580   1.454 -1.1826 -0.1871  1.8972
  868SOL    HW2 2604   2.829   1.605   1.461  0.7298  0.7847 -1.2679
  869SOL     OW 2605   1.859   1.996   2.553 -0.3228 -0.1736 -0.5553
  869SOL    HW1 2606   1.781   2.063   2.554 -0.1111 -1.7216  0.5509
  869SOL    HW2 2607   1.949   2.043   2.575  1.8285  0.7103 -1.0295
  870SOL     OW 2608   1.391   0.770   0.689  0.0898 -0.3504  0.3787
  870SOL    HW1 2609   1.459   0.826   0.738 -0.0460  1.7888  2.3897
  870SOL    HW2 2610   1.316   0.761   0.757  0.1476 -0.9317  0.6198
  871SOL     OW 2611   2.830   1.654   2.000 -0.0262 -0.3012  0.0774
  871SOL    HW1 2612   2.746   1.606   2.027 -1.4215 -0.2801 -0.6787
  871SOL    HW2 2613   2.823   1.759   1.999  2.0024  1.0326 -2.2730
  872SOL     OW 2614   0.891   1.645   2.876  0.0509 -0.4194 -0.4106
  872SOL    HW1 2615   0.845   1.730   2.886 -0.5754 -0.5525 -1.4078
  872SOL    HW2 2616   0.892   1.597   2.965 -2.3480 -2.0963  0.9999
  873SOL     OW 2617   0.961   1.241   1.767 -0.5071 -0.0535 -0.2300
  873SOL    HW1 2618   0.912   1.156   1.787  0.7778  0.7713 -1.9584
  873SOL    HW2 2619   0.995   1.228   1.675  2.8195 -0.7425  1.8826
  874SOL     OW 2620   1.504   0.982   1.060  0.0221 -0.0149 -0.1380
  874SOL    HW1 2621   1.572   1.027   1.126 -1.1719 -0.2609  0.6081
  874SOL    HW2 2622   1.413   0.973   1.104 -0.5531  4.1005  0.2627
  875SOL     OW 2623   2.606   2.982   2.810 -0.3633 -0.2259 -0.0080
  875SOL    HW1 2624   2.569   3.060   2.751 -2.2429  0.3598 -1.8261
  875SOL    HW2 2625   2.630   2.907   2.747  0.9604  1.9619 -1.3565
  876SOL     OW 2626   0.871   1.207   0.513 -0.4088 -0.3608  0.2807
  876SOL    HW1 2627   0.849   1.115   0.476  0.0423 -0.3735  0.5519
  876SOL    HW2 2628   0.964   1.240   0.471  3.4342 -1.1371 -2.7225
  877SOL     OW 2629   2.085   3.006   0.476 -0.7470 -0.1236  0.4157
  877SOL    HW1 2630   2.025   3.080   0.507  2.6889 -2.1463  1.0999
  877SOL    HW2 2631   2.178   3.021   0.519 -0.0081  0.9334  0.3194
  878SOL     OW 2632   2.016   2.285   0.155  0.5296 -0.1658 -0.7433
  878SOL    HW1 2633   2.087   2.234   0.104 -0.6923 -0.5118 -0.6952
  878SOL    HW2 2634   2.028   2.276   0.255  2.1429 -0.7356 -0.9418
  879SOL     OW 2635   0.653   2.435   1.621  0.4997 -0.4964 -0.2117
  879SOL    HW1 2636   0.587   2.493   1.569 -1.1540 -0.6343 -1.2117
  879SOL    HW2 2637   0.657   2.339   1.591 -2.3055  1.1325 -1.2268
  880SOL     OW 2638   0.017   1.631   0.997  0.1931 -0.2819  0.3815
  880SOL    HW1 2639   0.119   1.631   0.984 -0.4320  0.1567 -1.4689
  880SOL    HW2 2640   3.089   1.595   0.915  1.0003 -0.8813 -0.5796
  881SOL     OW 2641   1.293   3.101   2.295  0.3345  0.1561 -0.4763
  881SOL    HW1 2642   1.280   3.022   2.356 -0.0233  2.5096 -3.5013
  881SOL    HW2 2643   1.296   0.067   2.340  0.0931 -0.7864 -2.8920
  882SOL     OW 2644   2.592   1.190   0.500 -0.4550 -0.3003  0.2286
  882SOL    HW1 2645   2.510   1.163   0.563 -1.6609 -0.5874  1.4251
  882SOL    HW2 2646   2.683   1.165   0.538 -2.0554  1.0909 -1.9175
  883SOL     OW 2647   1.391   0.586   1.997  0.0192 -0.0729  0.3123
  883SOL    HW1 2648   1.352   0.632   2.079  1.8743 -0.4981 -0.0317
  883SOL    HW2 2649   1.383   0.652   1.919 -1.6502  0.6190  1.1779
  884SOL     OW 2650   0.181   0.215   1.768 -0.0652  0.2487 -0.3270
  884SOL    HW1 2651   0.136   0.196   1.681  0.8640  1.7352  2.7884
  884SOL    HW2 2652   0.254   0.288   1.752 -0.5406 -0.8819 -0.4420
  885SOL     OW 2653   2.110   1.296   2.682 -0.6432 -0.1390  0.1726
  885SOL    HW1 2654   2.071   1.345   2.602  0.0450  1.5848 -0.3314
  885SOL    HW2 2655   2.091   1.194   2.676 -3.2574 -2.1037  3.7710
  886SOL     OW 2656   1.977   0.324   3.014 -0.0982  0.0900 -0.0986
  886SOL    HW1 2657   2.010   0.342   2.920  0.4665  1.7409 -0.5851
  886SOL    HW2 2658   1.877   0.338   3.020  0.3754 -0.0307 -1.6276
  887SOL     OW 2659   1.153   2.983   1.660  0.6488 -0.3492 -0.3178
  887SOL    HW1 2660   1.212   2.924   1.712 -1.9170  4.0724 -0.7976
  887SOL    HW2 2661   1.060   2.940   1.640 -2.1468 -0.5229  2.7273
  888SOL     OW 2662   2.230   1.381   1.715 -0.2519  0.0991  0.0477
  888SOL    HW1 2663   2.188   1.405   1.626  0.8938  0.6410  1.5187
  888SOL    HW2 2664   2.335   1.391   1.716  1.3825 -0.3196  2.2517
  889SOL     OW 2665   2.073   2.456   1.378  0.1453  0.2905  0.2768
  889SOL    HW1 2666   2.139   2.480   1.304 -0.1511  2.9594 -0.4325
  889SOL    HW2 2667   2.089   2.362   1.413  1.5153  4.2605  0.0481
  890SOL     OW 2668   0.968   2.238   0.764 -0.2470 -0.4003  0.1363
  890SOL    HW1 2669   1.037   2.181   0.715  2.0600  0.5646  0.5261
  890SOL    HW2 2670   1.005   2.303   0.835 -0.4344  0.0786  2.5602
  891SOL     OW 2671   2.885   1.417   0.326 -0.2302  0.4139  0.1700
  891SOL    HW1 2672   2.873   1.396   0.226 -1.3957  0.7965  0.1902
  891SOL    HW2 2673   2.933   1.343   0.366 -3.2014  1.8695 -2.5462
  892SOL     OW 2674   2.475   1.746   2.888 -0.0766  0.6072  0.1364
  892SOL    HW1 2675   2.503   1.701   2.800  0.3711 -1.6083 -0.4266
  892SOL    HW2 2676   2.464   1.678   2.958  0.1735  0.2914 -0.9549
  893SOL     OW 2677   2.390   2.727   1.196  0.5156 -0.0597 -0.2598
  893SOL    HW1 2678   2.393   2.794   1.119 -1.5809  0.0497 -1.5675
  893SOL    HW2 2679   2.478   2.715   1.237 -1.3252  1.2103 -0.2938
  894SOL     OW 2680   2.913   0.445   0.696  0.1231 -0.3483 -0.0889
  894SOL    HW1 2681   2.853   0.497   0.631  4.1425  1.1556  0.8190
  894SOL    HW2 2682   2.922   0.346   0.665  0.9168  2.4918  1.6901
  895SOL     OW 2683   2.563   2.412   2.518  0.3988  0.3990  0.0365
  895SOL    HW1 2684   2.653   2.426   2.469  1.7000  1.2298 -0.9573
  895SOL    HW2 2685   2.573   2.371   2.610  0.6279  2.2464 -1.3897
  896SOL     OW 2686   2.190   2.726   2.520 -0.5567 -0.6909 -0.4945
  896SOL    HW1 2687   2.222   2.677   2.599 -2.1648 -1.6669 -0.6989
  896SOL    HW2 2688   2.259   2.801   2.499  2.3644 -1.1867 -0.2764
  897SOL     OW 2689   0.341   1.557   2.155 -0.3052  0.2069  0.6308
  897SOL    HW1 2690   0.287   1.502   2.223 -0.0637  4.5618  1.2066
  897SOL    HW2 2691   0.354   1.650   2.190 -1.4750 -2.3881  1.1546
  898SOL     OW 2692   0.170   2.058   2.144  0.0875 -0.2108  0.1380
  898SOL    HW1 2693   0.098   1.986   2.178 -0.0580 -1.8455  1.3595
  898SOL    HW2 2694   0.145   2.099   2.051 -0.2150  1.2785 -2.8516
  899SOL     OW 2695   2.063   2.987   1.256 -0.4243 -0.4473  0.2193
  899SOL    HW1 2696   2.007   2.960   1.334  1.4408  0.2448 -0.3456
  899SOL    HW2 2697   2.158   2.994   1.292 -0.7531  0.0514  1.3151
  900SOL     OW 2698   1.265   0.812   0.438 -0.1272 -0.2676 -0.3789
  900SOL    HW1 2699   1.346   0.810   0.499  2.9985 -1.2257 -1.4384
  900SOL    HW2 2700   1.287   0.887   0.371  0.2367 -1.8706  1.9151
  901SOL     OW 2701   1.121   1.297   2.599  0.1979  0.0735  0.1362
  901SOL    HW1 2702   1.115   1.217   2.533 -0.1141  0.5576 -1.6057
  901SOL    HW2 2703   1.044   1.364   2.584  3.1663  1.1655 -1.7237
  902SOL     OW 2704   2.844   2.447   0.754  0.8132 -0.4852  0.2139
  902SOL    HW1 2705   2.903   2.514   0.800  0.6935 -3.1652  1.8610
  902SOL    HW2 2706   2.787   2.404   0.825  2.9862 -0.2228 -0.0122
  903SOL     OW 2707   2.864   1.368   1.925  0.6886  0.0870 -0.4990
  903SOL    HW1 2708   2.860   1.473   1.911 -2.3526  2.3772 -1.2466
  903SOL    HW2 2709   2.868   1.350   2.024 -0.5875  0.0782 -1.9529
  904SOL     OW 2710   1.359   1.391   0.430 -0.8926  0.5854 -0.1897
  904SOL    HW1 2711   1.319   1.478   0.469  0.6246  0.0881 -0.4824
  904SOL    HW2 2712   1.437   1.351   0.488  1.5716 -0.0404  2.5564
  905SOL     OW 2713   2.480   2.338   1.501  0.5542  0.4705  0.1861
  905SOL    HW1 2714   2.505   2.430   1.530  3.0738 -0.0318 -1.0492
  905SOL    HW2 2715   2.541   2.268   1.545 -0.8404 -1.5070 -2.7338
  906SOL     OW 2716   1.728   2.457   3.064  0.8890 -0.3425 -0.1920
  906SOL    HW1 2717   1.735   2.396   0.019 -0.6603 -0.3382 -3.6392
  906SOL    HW2 2718   1.728   2.558   3.085  1.0565 -0.2568  1.1288
  907SOL     OW 2719   0.377   2.699   0.724 -0.0977  0.4437 -0.0456
  907SOL    HW1 2720   0.322   2.676   0.638 -0.5932 -0.9097 -1.4055
  907SOL    HW2 2721   0.460   2.751   0.699 -0.4405 -2.7430 -0.6389
  908SOL     OW 2722   0.595   0.346   1.919 -0.2843 -0.3678 -0.4456
  908SOL    HW1 2723   0.658   0.273   1.888  3.0714 -0.6351  1.3205
  908SOL    HW2 2724   0.646   0.424   1.965 -0.2710 -0.6707 -0.1837
  909SOL     OW 2725   1.932   0.438   1.405 -0.3472  0.9466  0.9219
  909SOL    HW1 2726   1.837   0.477   1.399  0.2597 -2.6116  0.3619
  909SOL    HW2 2727   1.994   0.471   1.333  0.1155 -1.4519  1.8678
  910SOL     OW 2728   1.034   0.702   0.307  0.3106 -0.0121  0.1073
  910SOL    HW1 2729   1.010   0.753   0.223 -3.1371  0.7899  1.6468
  910SOL    HW2 2730   1.101   0.745   0.370  0.9484 -0.6235 -0.2769
  911SOL     OW 2731   0.194   0.293   2.885 -0.2124  0.0169  0.2059
  911SOL    HW1 2732   0.168   0.319   2.983  0.1614  2.3959  0.0481
  911SOL    HW2 2733   0.122   0.310   2.817  2.4234 -0.6381  0.8531
  912SOL     OW 2734   2.901   2.444   2.765  0.4979  0.0805 -0.5449
  912SOL    HW1 2735   2.899   2.520   2.697 -0.7486  1.0499 -1.3032
  912SOL    HW2 2736   2.819   2.446   2.825 -1.1210 -1.1071 -0.5039
  913SOL     OW 2737   2.537   2.497   0.033  0.1226 -0.2386  0.8823
  913SOL    HW1 2738   2.536   2.450   0.121  0.1964  0.3217 -1.5410
  913SOL    HW2 2739   2.503   2.593   0.038  1.2313 -2.6933 -0.9500
  914SOL     OW 2740   1.634   1.715   1.889  0.6477 -0.1605  0.2180
  914SOL    HW1 2741   1.663   1.659   1.970  0.7751 -1.7706 -0.4934
  914SOL    HW2 2742   1.629   1.815   1.913 -1.4636  2.6080 -1.2841
  915SOL     OW 2743   0.119   2.492   2.231  0.7242  0.3771 -0.0070
  915SOL    HW1 2744   0.160   2.531   2.146  2.3731  0.3996  1.6753
  915SOL    HW2 2745   0.107   2.566   2.304  0.1147  0.7413 -0.7370
  916SOL     OW 2746   2.983   0.891   1.882 -0.2825  0.0127  0.0371
  916SOL    HW1 2747   3.004   0.988   1.888  1.0524 -0.5333  3.1540
  916SOL    HW2 2748   3.020   0.836   1.958 -0.8852 -0.3421  0.4947
  917SOL     OW 2749   2.059   0.071   2.983 -0.2467 -0.3008 -0.0461
  917SOL    HW1 2750   2.055   0.014   3.063  1.6732  2.4004 -0.6511
  917SOL    HW2 2751   2.011   0.160   2.996 -0.1498 -0.8755 -1.2551
  918SOL     OW 2752   1.931   2.444   2.274  0.0358 -0.0143  0.0061
  918SOL    HW1 2753   1.984   2.407   2.358  3.7316  0.0877  0.0298
  918SOL    HW2 2754   1.915   2.543   2.286 -0.4530  2.5921 -2.4910
  919SOL     OW 2755   2.099   2.371   2.053  0.6375  0.0990  0.2152
  919SOL    HW1 2756   2.039   2.396   2.135  0.0378  2.6220 -0.2176
  919SOL    HW2 2757   2.115   2.272   2.057 -2.1883 -1.8979  2.7541
  920SOL     OW 2758   0.306   1.003   0.122  0.9225 -0.4966  0.4229
  920SOL    HW1 2759   0.374   0.957   0.177 -0.4895 -0.0535 -2.7184
  920SOL    HW2 2760   0.215   0.960   0.138  2.8999 -0.5984  1.6930
  921SOL     OW 2761   2.820   1.198   2.798  0.5552  0.3935  0.5234
  921SOL    HW1 2762   2.745   1.270   2.816 -1.4910  1.4399  0.9986
  921SOL    HW2 2763   2.848   1.204   2.698  0.4450 -0.2077 -3.9881
  922SOL     OW 2764   0.409   1.857   0.051 -0.0035 -0.2676  0.2966
  922SOL    HW1 2765   0.386   1.852   3.077 -2.7112  0.5473  0.9240
  922SOL    HW2 2766   0.404   1.765   0.098  1.7018 -1.6624  1.2935
  923SOL     OW 2767   0.398   0.869   2.138  0.5973  0.1809 -0.5015
  923SOL    HW1 2768   0.393   0.778   2.186  0.5637 -2.3786 -0.2225
  923SOL    HW2 2769   0.488   0.886   2.092  0.5056 -1.3867  3.6841
  924SOL     OW 2770   0.725   2.699   2.740 -0.5238  0.1460 -0.5753
  924SOL    HW1 2771   0.767   2.739   2.654  0.2677  0.7171  0.0960
  924SOL    HW2 2772   0.679   2.770   2.798 -0.2141  0.6803  1.7038
  925SOL     OW 2773   1.534   1.558   0.648 -0.2272  0.4132 -0.2136
  925SOL    HW1 2774   1.536   1.459   0.611 -0.7823 -2.0723 -0.1441
  925SOL    HW2 2775   1.622   1.603   0.625 -1.6564 -0.4066 -0.0123
  926SOL     OW 2776   1.589   0.507   2.158 -0.2951  0.3014  0.0528
  926SOL    HW1 2777   1.513   0.521   2.085 -0.6492  0.1711 -1.2810
  926SOL    HW2 2778   1.636   0.594   2.183 -0.5643  0.9584 -2.2519
  927SOL     OW 2779   3.014   2.397   1.849  0.1905 -0.1616 -0.4591
  927SOL    HW1 2780   3.039   2.357   1.753 -0.0509  1.2319 -1.7458
  927SOL    HW2 2781   2.949   2.477   1.840 -2.0357  1.9286  1.9369
  928SOL     OW 2782   0.161   0.963   2.697 -0.1788  0.2025 -0.6086
  928SOL    HW1 2783   0.177   1.009   2.787  0.8202  0.8914  0.7387
  928SOL    HW2 2784   0.212   0.875   2.695 -1.4437 -1.5359  0.9424
  929SOL     OW 2785   0.108   0.166   0.620  0.0738  0.3903  0.4698
  929SOL    HW1 2786   0.116   0.063   0.607  1.3275 -0.8703 -0.4580
  929SOL    HW2 2787   0.169   0.193   0.695 -2.3043 -0.1218 -2.8474
  930SOL     OW 2788   2.318   0.291   1.946  0.0236  0.2463 -0.2687
  930SOL    HW1 2789   2.280   0.234   1.873  1.9370  0.1711 -0.7311
  930SOL    HW2 2790   2.421   0.292   1.932  2.0328 -0.4995 -0.7414
  931SOL     OW 2791   2.172   1.199   3.123 -0.2456 -0.1139 -0.1115
  931SOL    HW1 2792   2.266   1.156   0.004  0.5778  0.5582  1.2199
  931SOL    HW2 2793   2.174   1.281   3.060 -0.4946 -0.6372 -0.4918
  932SOL     OW 2794   2.492   1.405   1.683  0.1903  0.0574  0.0858
  932SOL    HW1 2795   2.485   1.363   1.593 -0.5320  0.8807  0.1003
  932SOL    HW2 2796   2.541   1.347   1.754  0.8765 -1.0454  1.8107
  933SOL     OW 2797   0.058   2.667   1.514 -0.0918  0.0765 -0.0977
  933SOL    HW1 2798   0.136   2.623   1.561 -0.1435  0.0021 -1.6350
  933SOL    HW2 2799   0.019   2.747   1.566  1.4928 -0.7865 -1.8822
  934SOL     OW 2800   0.764   2.774   0.985  0.3704 -0.3128  0.0228
  934SOL    HW1 2801   0.862   2.796   1.015  3.2578 -0.9406  2.5805
  934SOL    HW2 2802   0.759   2.692   0.929  0.9456  4.1051 -0.3384
  935SOL     OW 2803   2.374   1.268   2.013 -0.2899  0.3755 -0.1861
  935SOL    HW1 2804   2.457   1.308   1.961  2.1688  1.3336 -2.4480
  935SOL    HW2 2805   2.364   1.164   2.001  0.3305  0.7587 -0.7030
  936SOL     OW 2806   2.195   1.107   1.762 -0.5600 -0.5262  0.3088
  936SOL    HW1 2807   2.200   1.204   1.723 -1.0603  0.0994 -1.4644
  936SOL    HW2 2808   2.278   1.073   1.813 -1.3311 -0.5380  0.7582
  937SOL     OW 2809   1.967   1.012   2.167  0.2050 -0.1786  0.0624
  937SOL    HW1 2810   1.935   1.050   2.254  0.0405  0.9362 -1.0832
  937SOL    HW2 2811   1.942   0.919   2.146  1.0694 -0.0073 -2.0487
  938SOL     OW 2812   0.811   2.516   3.084 -0.6764  0.7631  0.6636
  938SOL    HW1 2813   0.814   2.455   0.040 -0.1281 -0.1079 -0.8724
  938SOL    HW2 2814   0.840   2.612   3.105 -1.6273  1.0090  0.0021
  939SOL     OW 2815   2.591   0.874   0.135 -0.2308 -0.1707  0.0869
  939SOL    HW1 2816   2.641   0.956   0.135 -0.2739 -2.7440  0.6602
  939SOL    HW2 2817   2.604   0.822   0.219 -1.5517  2.6326  1.0457
  940SOL     OW 2818   1.021   1.960   0.988 -0.1839  0.0396 -0.7670
  940SOL    HW1 2819   0.956   1.955   0.908  0.1034 -0.7871  1.5888
  940SOL    HW2 2820   1.106   1.897   0.979  3.0382 -0.9754  2.8825
  941SOL     OW 2821   0.942   2.092   1.864  0.2142 -0.0616 -0.0213
  941SOL    HW1 2822   0.976   2.173   1.807  1.1106  0.7492  0.3404
  941SOL    HW2 2823   0.863   2.050   1.820  1.5397  1.3613 -0.1169
  942SOL     OW 2824   0.362   2.136   2.744 -0.4286  0.2087  0.2429
  942SOL    HW1 2825   0.260   2.133   2.736  0.4418  0.1894 -0.9756
  942SOL    HW2 2826   0.393   2.050   2.700  2.4888  0.7539  1.1345
  943SOL     OW 2827   1.769   2.914   1.895 -0.1178 -0.0995 -0.4559
  943SOL    HW1 2828   1.806   2.839   1.952  0.0783 -1.9139  0.2755
  943SOL    HW2 2829   1.703   2.880   1.825 -2.6722  1.8432 -0.7067
  944SOL     OW 2830   1.253   1.906   3.096 -0.3511  0.4736 -0.4684
  944SOL    HW1 2831   1.340   1.966   3.106  0.1837  2.4742  2.2719
  944SOL    HW2 2832   1.208   1.934   3.009  0.1790 -0.3668 -2.9879
  945SOL     OW 2833   2.641   2.619   1.033  0.2177  0.1462 -0.0309
  945SOL    HW1 2834   2.703   2.651   0.956  1.2766 -0.8661  0.1663
  945SOL    HW2 2835   2.564   2.560   0.991 -0.5314 -1.7561  1.0827
  946SOL     OW 2836   0.791   1.430   2.737 -0.8200  0.2680 -0.2775
  946SOL    HW1 2837   0.835   1.418   2.649 -2.1834  1.3900  3.1245
  946SOL    HW2 2838   0.828   1.516   2.779 -2.0587 -1.0362 -1.2069
  947SOL     OW 2839   3.087   0.681   2.128 -0.2076  0.0533 -0.1440
  947SOL    HW1 2840   0.027   0.760   2.124 -0.3304 -2.3476 -1.1742
  947SOL    HW2 2841   0.009   0.603   2.083 -0.9184  1.6663 -1.6338
  948SOL     OW 2842   0.137   1.354   0.843  0.1010 -0.5454  0.2919
  948SOL    HW1 2843   0.220   1.409   0.828  0.8127 -0.7023  0.3172
  948SOL    HW2 2844   0.128   1.333   0.941 -0.1200  1.0854 -0.1269
  949SOL     OW 2845   0.657   0.835   2.073 -0.5575  0.5687 -0.1747
  949SOL    HW1 2846   0.720   0.796   2.141 -1.0795 -1.4931 -0.0167
  949SOL    HW2 2847   0.680   0.936   2.052  1.9152  0.2769 -0.5198
  950SOL     OW 2848   0.141   0.565   1.468  0.3024  0.5544 -0.1310
  950SOL    HW1 2849   0.173   0.524   1.383 -1.8296  0.8446  1.6496
  950SOL    HW2 2850   0.075   0.497   1.512 -2.3687  2.1097 -1.1551
  951SOL     OW 2851   0.780   1.056   2.761  0.0509  0.1609  0.4583
  951SOL    HW1 2852   0.842   1.139   2.773 -0.7968 -0.8631 -0.2580
  951SOL    HW2 2853   0.749   1.055   2.666 -2.6250  0.2928  0.3548
  952SOL     OW 2854   1.774   2.166   0.726 -0.1050  0.3561  0.2001
  952SOL    HW1 2855   1.822   2.255   0.701  0.3523  3.0439 -3.3339
  952SOL    HW2 2856   1.829   2.078   0.717  0.9759 -2.1900 -0.3642
  953SOL     OW 2857   0.614   0.396   0.192  0.2372 -0.0925  0.6221
  953SOL    HW1 2858   0.661   0.327   0.252 -0.4335  2.9891  0.1451
  953SOL    HW2 2859   0.520   0.419   0.222 -2.1333  0.2189  0.3139
  954SOL     OW 2860   2.568   0.644   1.082  0.4000  0.0480 -0.0529
  954SOL    HW1 2861   2.498   0.715   1.104 -1.1848  2.2550 -1.0558
  954SOL    HW2 2862   2.638   0.671   1.151 -1.3850  0.7248 -0.6483
  955SOL     OW 2863   1.718   1.409   0.164  0.3836 -0.1526 -0.1210
  955SOL    HW1 2864   1.750   1.381   0.076 -2.3477  1.2835  1.9498
  955SOL    HW2 2865   1.621   1.382   0.178 -1.0822  0.6022 -1.4890
  956SOL     OW 2866   1.098   0.658   2.321 -0.5770 -0.1019  0.8300
  956SOL    HW1 2867   1.184   0.717   2.322  0.0180  2.2329  1.7036
  956SOL    HW2 2868   1.126   0.558   2.312  0.4855 -0.7528 -2.2301
  957SOL     OW 2869   1.617   0.168   1.544 -0.1720  0.4233 -0.6142
  957SOL    HW1 2870   1.565   0.127   1.619  1.3365  1.8134 -0.9941
  957SOL    HW2 2871   1.713   0.140   1.549  1.7993 -3.5267  0.6791
  958SOL     OW 2872   0.285   2.115   0.467  0.2102 -0.1130 -0.1421
  958SOL    HW1 2873   0.349   2.104   0.387 -0.2231 -0.7620 -2.7201
  958SOL    HW2 2874   0.238   2.026   0.496  1.6273 -3.6660 -1.1572
  959SOL     OW 2875   2.118   0.922   1.561  0.2876 -0.4336 -0.1142
  959SOL    HW1 2876   2.154   0.991   1.632  0.1065  2.0067  1.0567
  959SOL    HW2 2877   2.060   0.861   1.616  1.1991  1.9482 -0.9145
  960SOL     OW 2878   0.095   1.784   2.953  0.0961 -0.1852 -0.4685
  960SOL    HW1 2879   0.185   1.836   2.944  2.2358  1.0207  0.1233
  960SOL    HW2 2880   0.104   1.710   3.022  1.3759 -5.8306  0.0971
  961SOL     OW 2881   0.751   2.258   0.940 -0.5862  0.2802 -0.2589
  961SOL    HW1 2882   0.732   2.175   1.002  3.9732  2.6571  0.6488
  961SOL    HW2 2883   0.816   2.234   0.864  1.7298  1.4442 -1.9520
  962SOL     OW 2884   0.378   1.438   1.195 -0.1119 -0.0432 -0.2168
  962SOL    HW1 2885   0.417   1.412   1.284 -1.0277 -0.8244 -3.5285
  962SOL    HW2 2886   0.359   1.537   1.183  1.0651  0.0219  0.1510
  963SOL     OW 2887   1.678   1.650   2.370 -0.2466  0.1270 -0.2759
  963SOL    HW1 2888   1.670   1.586   2.450  2.9694 -1.8015  2.7948
  963SOL    HW2 2889   1.741   1.731   2.391 -1.2244  2.2275 -3.5326
  964SOL     OW 2890   0.204   0.022   2.145  0.0661  0.2435  0.2949
  964SOL    HW1 2891   0.196   3.057   2.098  0.5718  3.1902  2.2985
  964SOL    HW2 2892   0.272   0.008   2.222  1.4627 -1.3305  2.5661
  965SOL     OW 2893   0.013   2.341   2.720 -0.3170  0.2384  0.4812
  965SOL    HW1 2894   3.048   2.387   2.730  2.0694 -1.4483 -2.2989
  965SOL    HW2 2895   0.054   2.342   2.627  1.4012 -2.9643 -1.4868
  966SOL     OW 2896   2.725   1.758   0.164 -0.0032 -0.0573 -0.5809
  966SOL    HW1 2897   2.717   1.732   0.067  1.5603  3.8905  0.1849
  966SOL    HW2 2898   2.687   1.688   0.229 -2.9063 -0.8765  1.6214
  967SOL     OW 2899   2.018   3.092   0.099  0.0895  0.2813 -0.4268
  967SOL    HW1 2900   2.043   3.000   0.128 -1.3617  2.5781  1.8844
  967SOL    HW2 2901   1.921   3.108   0.115  1.7348  1.8117  1.2236
  968SOL     OW 2902   2.763   0.004   0.602 -0.0763  0.2777 -0.0693
  968SOL    HW1 2903   2.782   3.051   0.538 -0.5841 -0.1084 -1.0979
  968SOL    HW2 2904   2.672   3.114   0.644 -1.3577 -0.0055 -0.8118
  969SOL     OW 2905   0.245   0.932   1.808 -0.3765  0.5513  0.1177
  969SOL    HW1 2906   0.281   1.022   1.795 -1.8279 -1.4441 -0.0399
  969SOL    HW2 2907   0.214   0.893   1.717 -0.3642 -1.5818 -0.1023
  970SOL     OW 2908   1.745   1.664   0.077 -0.1435  0.2076  0.2003
  970SOL    HW1 2909   1.758   1.565   0.110 -0.5789 -3.3547 -0.0854
  970SOL    HW2 2910   1.694   1.722   0.140  0.0883 -2.3886 -2.3140
  971SOL     OW 2911   2.465   0.048   1.660  0.2569  0.3512  0.1430
  971SOL    HW1 2912   2.381   0.059   1.714  0.6671  0.5830 -0.7313
  971SOL    HW2 2913   2.482   3.072   1.658  1.8819  0.3182 -1.3985
  972SOL     OW 2914   2.873   0.262   1.006  0.5051  0.7826 -0.3265
  972SOL    HW1 2915   2.909   0.345   0.969 -0.9964 -3.5475 -1.1674
  972SOL    HW2 2916   2.952   0.193   1.013  0.6285 -0.4323 -1.0534
  973SOL     OW 2917   0.508   0.520   2.476 -0.0336 -0.2244  0.0452
  973SOL    HW1 2918   0.609   0.531   2.485 -0.2529 -2.2031  0.1255
  973SOL    HW2 2919   0.487   0.423   2.497  0.8040  0.7595 -0.1520
  974SOL     OW 2920   2.611   1.276   1.891  0.4183  0.0919 -0.2021
  974SOL    HW1 2921   2.702   1.315   1.909  0.7633 -2.4133 -0.3010
  974SOL    HW2 2922   2.613   1.174   1.908 -0.4318 -3.7283  0.6405
  975SOL     OW 2923   1.185   0.158   1.847 -0.2914  0.2112 -0.2932
  975SOL    HW1 2924   1.140   0.133   1.760 -0.1138  1.0965 -0.0736
  975SOL    HW2 2925   1.156   0.086   1.916 -1.3614  0.2462 -0.7220
  976SOL     OW 2926   1.581   1.535   1.281  0.3111  0.1035 -0.1751
  976SOL    HW1 2927   1.568   1.570   1.381 -0.2511 -1.3588  2.0888
  976SOL    HW2 2928   1.658   1.466   1.271  1.0217 -1.3660 -1.9855
  977SOL     OW 2929   0.547   3.099   0.036 -0.4817 -0.0583 -0.5150
  977SOL    HW1 2930   0.589   3.102   0.131  0.7656  0.5008  1.2746
  977SOL    HW2 2931   0.571   3.007   3.113  0.2434 -1.4344  0.8416
  978SOL     OW 2932   2.244   0.989   2.199  0.4277 -0.4400 -0.1531
  978SOL    HW1 2933   2.291   0.990   2.108  1.1019  1.7559  3.1779
  978SOL    HW2 2934   2.143   1.008   2.190  0.5137 -1.6058 -1.1362
  979SOL     OW 2935   1.452   0.782   1.808  0.1309 -0.6425 -0.0953
  979SOL    HW1 2936   1.374   0.840   1.775 -5.2998  1.4624 -2.3572
  979SOL    HW2 2937   1.531   0.839   1.842 -0.9126 -0.4445  1.2687
  980SOL     OW 2938   1.755   1.531   2.638  0.2444 -0.6077 -0.2654
  980SOL    HW1 2939   1.837   1.476   2.615 -2.6329  1.9630  1.8372
  980SOL    HW2 2940   1.677   1.485   2.682  0.4110  0.3691 -0.2330
  981SOL     OW 2941   1.730   0.567   1.762  0.1045  0.1835  0.4886
  981SOL    HW1 2942   1.710   0.526   1.669 -3.5918 -2.5379  0.9251
  981SOL    HW2 2943   1.668   0.645   1.777  1.3999  1.2676 -1.1599
  982SOL     OW 2944   0.652   0.652   0.134 -0.1996  0.1137  0.3152
  982SOL    HW1 2945   0.645   0.550   0.149 -0.9922  0.1036  0.5780
  982SOL    HW2 2946   0.625   0.669   0.039  2.7151 -1.7155  1.7222
  983SOL     OW 2947   2.228   0.878   0.184  0.1429 -0.1464  0.0569
  983SOL    HW1 2948   2.269   0.933   0.259  2.2128 -0.6316  3.9134
  983SOL    HW2 2949   2.173   0.933   0.119 -0.4782  0.2419  0.5100
  984SOL     OW 2950   0.814   0.430   2.586 -0.0664 -0.5131 -0.1984
  984SOL    HW1 2951   0.871   0.433   2.669 -0.2493  1.0500  1.0548
  984SOL    HW2 2952   0.792   0.524   2.553  0.2651  0.5925 -0.9899
  985SOL     OW 2953   1.579   2.010   1.964  0.5050  0.1158  0.0749
  985SOL    HW1 2954   1.634   2.091   1.949 -0.0398 -0.0784 -1.0809
  985SOL    HW2 2955   1.509   2.019   2.044 -2.2331 -0.1473 -1.5256
  986SOL     OW 2956   2.624   2.721   1.795  0.1031  0.3679 -0.4892
  986SOL    HW1 2957   2.721   2.690   1.782 -0.5948  0.7095  0.4125
  986SOL    HW2 2958   2.602   2.745   1.894  1.8333  1.6136  1.1952
  987SOL     OW 2959   1.731   1.463   0.963  0.3733  0.3370 -0.1852
  987SOL    HW1 2960   1.768   1.497   0.877 -3.1515  1.8513  2.3535
  987SOL    HW2 2961   1.626   1.473   0.972  1.9816  0.1586  2.4469
  988SOL     OW 2962   2.575   1.589   2.310 -0.1338  0.6732 -0.2904
  988SOL    HW1 2963   2.674   1.588   2.335 -1.3722  0.1986  2.5691
  988SOL    HW2 2964   2.550   1.684   2.294  0.3137 -2.6030  1.7398
  989SOL     OW 2965   1.370   2.331   0.141 -0.1678  0.1631 -0.2614
  989SOL    HW1 2966   1.325   2.323   0.232  0.4308 -0.3655 -0.4411
  989SOL    HW2 2967   1.468   2.317   0.155 -4.5670 -2.8072 -0.0674
  990SOL     OW 2968   1.827   0.631   2.757  0.2618 -0.7021 -0.3980
  990SOL    HW1 2969   1.897   0.705   2.774 -0.5569  0.1860  0.1020
  990SOL    HW2 2970   1.864   0.540   2.779  0.6325  2.3658  1.2990
  991SOL     OW 2971   1.089   0.478   0.882 -0.5705  0.2363  0.4874
  991SOL    HW1 2972   1.033   0.513   0.806 -1.6199 -1.1828 -0.9199
  991SOL    HW2 2973   1.090   0.378   0.878  1.7798 -0.3356 -2.7297
  992SOL     OW 2974   2.809   0.842   1.014 -0.0129  0.1609  0.2914
  992SOL    HW1 2975   2.789   0.909   1.085  0.9515  0.2961  0.5158
  992SOL    HW2 2976   2.871   0.765   1.045  0.5983 -2.4173 -3.3438
  993SOL     OW 2977   2.325   0.700   1.901  0.1496  0.0412 -0.2389
  993SOL    HW1 2978   2.252   0.633   1.869  0.3822  1.8393 -0.0144
  993SOL    HW2 2979   2.400   0.692   1.834 -4.1998 -1.3188 -1.8042
  994SOL     OW 2980   0.930   1.471   2.513 -0.1277 -0.2267 -0.3610
  994SOL    HW1 2981   0.901   1.431   2.425  2.1391  0.4270  0.5152
  994SOL    HW2 2982   0.896   1.566   2.514  1.1081 -1.2218 -0.2556
  995SOL     OW 2983   2.225   1.389   2.929 -0.0084 -0.5603 -0.4972
  995SOL    HW1 2984   2.187   1.352   2.842 -0.7222 -1.6017  0.3030
  995SOL    HW2 2985   2.153   1.453   2.962  0.5062 -0.3883  0.4301
  996SOL     OW 2986   2.182   2.120   0.653 -0.1232 -0.4425 -0.0387
  996SOL    HW1 2987   2.140   2.053   0.714 -0.8812 -2.0966  1.3333
  996SOL    HW2 2988   2.205   2.087   0.560 -0.3203  0.9433 -1.4461
  997SOL     OW 2989   2.166   0.496   1.809 -0.5728  0.3183 -0.2294
  997SOL    HW1 2990   2.193   0.429   1.878  3.6698  1.7537  0.6161
  997SOL    HW2 2991   2.156   0.453   1.720  1.5452  0.0248  0.1359
  998SOL     OW 2992   2.353   1.168   0.622 -0.2255  0.7590 -0.6522
  998SOL    HW1 2993   2.272   1.221   0.587  0.0925  0.3619  0.2401
  998SOL    HW2 2994   2.316   1.094   0.690  0.5089 -2.1707  1.9602
  999SOL     OW 2995   2.658   1.553   0.336  0.3196 -0.1532 -0.4178
  999SOL    HW1 2996   2.640   1.536   0.435 -1.0632  0.0626  1.5881
  999SOL    HW2 2997   2.746   1.510   0.318  2.2368  1.6321  0.3953
 1000SOL     OW 2998   0.825   1.005   1.806 -0.1991  0.1476  0.4482
 1000SOL    HW1 2999   0.897   0.934   1.784  3.4698 -0.0257  2.3253
 1000SOL    HW2 3000   0.736   0.977   1.770 -4.1972  1.2199 -0.8795
   3.12424   3.12424   3.12424
