1000 SPC/Fw water molecules t= 400.00000 step= 400000
 3000
    1SOL     OW    1   0.033   2.880   1.806 -0.2184 -0.4080 -0.1776
    1SOL    HW1    2   0.052   2.963   1.864 -1.2691  1.4230  4.5099
    1SOL    HW2    3   0.127   2.843   1.775  0.5724 -2.8875  1.4488
    2SOL     OW    4   2.447   2.551   0.313  0.2834  0.1275  0.1082
    2SOL    HW1    5   2.537   2.520   0.280 -0.5502  0.0196  1.6266
    2SOL    HW2    6   2.433   2.650   0.298 -1.0470 -3.9518  0.7857
    3SOL     OW    7   1.469   2.776   0.161 -0.2325 -0.0532 -0.8130
    3SOL    HW1    8   1.497   2.865   0.211  1.2249  2.9553  2.0367
    3SOL    HW2    9   1.368   2.761   0.166  2.4019  0.4490  0.6636
    4SOL     OW   10   1.143   3.063   2.470  0.3921 -0.1740  0.3980
    4SOL    HW1   11   1.214   2.994   2.459 -2.1711 -0.8856 -2.1649
    4SOL    HW2   12   1.097   3.078   2.379  3.9513 -0.7823 -0.3976
    5SOL     OW   13   2.139   2.987   1.642 -0.1924 -0.0879  0.2565
    5SOL    HW1   14   2.137   2.915   1.712 -2.4620  0.3105 -1.9380
    5SOL    HW2   15   2.215   2.971   1.580 -4.8514  2.5125 -0.1905
    6SOL     OW   16   2.412   1.958   0.528  0.3583 -0.0388  0.4906
    6SOL    HW1   17   2.354   1.976   0.612  2.6407 -1.5443 -1.2413
    6SOL    HW2   18   2.422   1.860   0.501 -2.3470  1.7029 -1.1270
    7SOL     OW   19   2.273   1.269   0.746  0.2036 -0.2030 -0.1794
    7SOL    HW1   20   2.377   1.258   0.760  0.4939  0.1134  0.6573
    7SOL    HW2   21   2.255   1.290   0.648 -0.6654 -2.0213  0.9039
    8SOL     OW   22   0.424   1.386   1.070 -0.1170  0.3053 -0.2368
    8SOL    HW1   23   0.516   1.409   1.106 -0.7806 -0.8971 -0.6348
    8SOL    HW2   24   0.425   1.304   1.011  1.1213 -0.1896 -2.7518
    9SOL     OW   25   0.229   2.689   1.652 -0.2951 -0.1416  0.0002
    9SOL    HW1   26   0.300   2.747   1.608 -3.8171  0.5589  0.1723
    9SOL    HW2   27   0.150   2.679   1.594  0.4289 -0.6077  2.5196
   10SOL     OW   28   1.223   2.488   0.345  0.0058  0.2033 -0.6407
   10SOL    HW1   29   1.307   2.436   0.321 -1.0407  2.4693 -0.6598
   10SOL    HW2   30   1.249   2.578   0.392 -2.5221  0.7268  0.8565
   11SOL     OW   31   1.610   2.140   1.028 -0.3337 -0.2504 -0.2474
   11SOL    HW1   32   1.711   2.133   1.000  0.5493 -0.5072  2.1199
   11SOL    HW2   33   1.604   2.135   1.127 -1.3517 -0.9375 -0.1259
   12SOL     OW   34   2.777   0.463   2.104 -0.4888  0.1265  0.0554
   12SOL    HW1   35   2.841   0.509   2.167 -1.0562  0.1906 -3.0565
   12SOL    HW2   36   2.701   0.409   2.153 -1.5269 -3.0568  1.7903
   13SOL     OW   37   2.664   2.894   0.367 -0.7395  0.3212 -0.0810
   13SOL    HW1   38   2.739   2.826   0.361  0.2790 -1.8451 -2.4568
   13SOL    HW2   39   2.642   2.912   0.268  1.7720  1.0159 -0.6880
   14SOL     OW   40   1.929   1.374   3.106 -0.1110 -0.2161 -0.0282
   14SOL    HW1   41   1.867   1.313   3.052 -1.0302  1.0202 -0.5376
   14SOL    HW2   42   1.908   1.382   0.083  3.0741  0.7342 -0.5587
   15SOL     OW   43   2.676   2.427   1.922 -0.1472  0.4185  0.6003
   15SOL    HW1   44   2.572   2.421   1.909 -0.4280 -1.6082  1.8621
   15SOL    HW2   45   2.695   2.377   2.011 -0.5014  1.1279 -0.5378
   16SOL     OW   46   2.776   2.962   0.796 -0.2438 -0.2164  0.1896
   16SOL    HW1   47   2.753   2.989   0.893  0.3237 -2.1328 -0.8348
   16SOL    HW2   48   2.706   2.900   0.758  0.1104  1.2138  0.0564
   17SOL     OW   49   1.219   0.245   0.942 -0.3758 -0.0390 -0.4504
   17SOL    HW1   50   1.126   0.229   0.976  0.0165 -0.3676 -1.3971
   17SOL    HW2   51   1.278   0.285   1.018  1.8366  2.5644  3.9933
   18SOL     OW   52   1.705   0.036   0.851 -0.0073  0.1493  0.0219
   18SOL    HW1   53   1.799   3.106   0.853  2.7955 -1.7623  0.1156
   18SOL    HW2   54   1.722   0.135   0.875 -1.4143  0.9833  1.0083
   19SOL     OW   55   2.385   1.376   0.216  0.6398  0.0962  0.1672
   19SOL    HW1   56   2.319   1.360   0.140  0.4280  0.4227  2.5434
   19SOL    HW2   57   2.429   1.469   0.210 -1.2255  0.2163  1.9773
   20SOL     OW   58   2.284   1.556   2.338  0.2655  0.2541  0.0330
   20SOL    HW1   59   2.283   1.612   2.421 -2.5894  1.5943  0.0764
   20SOL    HW2   60   2.293   1.618   2.257  0.2586 -0.1836 -4.6430
   21SOL     OW   61   1.470   2.962   0.339 -0.0107 -1.2581 -0.3394
   21SOL    HW1   62   1.539   3.021   0.386 -0.2099  0.4880  0.5319
   21SOL    HW2   63   1.401   2.920   0.403 -0.0683  0.7693 -0.1543
   22SOL     OW   64   2.914   0.680   0.941  0.7457  0.3118  0.7953
   22SOL    HW1   65   2.896   0.634   1.032 -0.1309  0.0479  0.3959
   22SOL    HW2   66   2.840   0.753   0.934  3.2408  0.1353  2.4992
   23SOL     OW   67   0.538   2.926   1.793 -0.0653 -0.0148  0.2096
   23SOL    HW1   68   0.614   2.988   1.759  1.0914  0.8074  1.8897
   23SOL    HW2   69   0.460   2.984   1.821 -1.7168 -4.3494 -0.0077
   24SOL     OW   70   2.333   2.382   0.741  0.1445  0.0680  0.2487
   24SOL    HW1   71   2.420   2.426   0.707 -0.5457  0.5084 -0.0854
   24SOL    HW2   72   2.361   2.310   0.809  1.2031 -0.1842 -4.1396
   25SOL     OW   73   1.999   0.110   2.671  0.1577 -0.1951 -0.6634
   25SOL    HW1   74   2.090   0.115   2.716 -2.4241 -0.3610  1.0371
   25SOL    HW2   75   1.927   0.177   2.705 -0.7939  1.3667  0.6640
   26SOL     OW   76   1.447   2.448   3.031 -0.1325  0.1673  0.0526
   26SOL    HW1   77   1.484   2.540   3.035  2.3164 -0.6788  0.1764
   26SOL    HW2   78   1.344   2.443   3.039  1.6354 -0.8856  1.4467
   27SOL     OW   79   1.403   0.622   1.078  0.4596 -0.0417 -0.4162
   27SOL    HW1   80   1.333   0.694   1.110  1.6360 -0.0380 -0.8991
   27SOL    HW2   81   1.400   0.628   0.974 -0.3051 -1.7393 -0.3310
   28SOL     OW   82   0.775   1.319   0.525 -0.1298  0.5378  0.2919
   28SOL    HW1   83   0.725   1.288   0.440  2.2089 -1.0208 -2.8459
   28SOL    HW2   84   0.859   1.262   0.547  0.5920 -0.4562  0.1787
   29SOL     OW   85   2.627   0.288   1.464 -0.0815  0.0804  0.2013
   29SOL    HW1   86   2.571   0.205   1.480 -0.0216  0.9124  0.8007
   29SOL    HW2   87   2.591   0.369   1.517  1.0871  0.2346 -0.2571
   30SOL     OW   88   1.259   2.804   1.316 -0.7957 -0.4517 -0.7005
   30SOL    HW1   89   1.221   2.786   1.406  0.3971 -1.2117 -0.2902
   30SOL    HW2   90   1.285   2.723   1.261 -1.0630  1.7655 -1.6286
   31SOL     OW   91   1.683   2.922   1.688  0.2759 -0.2394  0.3989
   31SOL    HW1   92   1.697   2.884   1.780 -0.6195  0.5540  0.7422
   31SOL    HW2   93   1.769   2.934   1.639 -1.6752  0.6345 -0.7547
   32SOL     OW   94   1.594   1.867   2.611  0.0940  0.3307 -0.5747
   32SOL    HW1   95   1.547   1.858   2.520 -0.4532  1.2676  2.8738
   32SOL    HW2   96   1.608   1.768   2.640 -2.0979  0.4672  0.3115
   33SOL     OW   97   2.627   0.694   2.574  0.0967 -0.0204  0.4165
   33SOL    HW1   98   2.605   0.696   2.472 -1.8550  0.5646 -1.5225
   33SOL    HW2   99   2.604   0.601   2.613 -1.8600 -0.0086 -2.3602
   34SOL     OW  100   1.821   0.468   0.425 -0.1398 -0.5676  0.4084
   34SOL    HW1  101   1.847   0.531   0.496  1.7513  0.5530 -0.7802
   34SOL    HW2  102   1.719   0.469   0.406  0.5264  0.6110 -1.1850
   35SOL     OW  103   3.083   2.051   2.231  0.0085 -0.0698  0.2634
   35SOL    HW1  104   2.983   2.027   2.229  1.4932 -2.1517  0.5981
   35SOL    HW2  105   0.000   2.085   2.320 -0.5682  2.5054  0.5493
   36SOL     OW  106   2.481   1.803   3.027 -0.0441 -0.1674  0.4656
   36SOL    HW1  107   2.535   1.747   2.958 -0.3643 -0.5104 -1.4611
   36SOL    HW2  108   2.469   1.894   2.983 -0.6430  1.4813 -0.5814
   37SOL     OW  109   1.903   0.318   1.502 -0.7199 -0.9479 -0.0929
   37SOL    HW1  110   1.884   0.371   1.586 -0.2478 -0.8677 -0.7976
   37SOL    HW2  111   1.968   0.246   1.526 -1.6512  5.0621  2.4324
   38SOL     OW  112   0.256   0.523   2.471 -0.2882  0.0776 -0.1829
   38SOL    HW1  113   0.244   0.554   2.378 -1.2129  1.2176 -0.9598
   38SOL    HW2  114   0.247   0.600   2.535  1.2471  2.0717 -1.0876
   39SOL     OW  115   1.933   1.272   1.597 -0.0702  0.4260  0.6946
   39SOL    HW1  116   1.874   1.190   1.569 -2.4242 -0.2668 -0.3725
   39SOL    HW2  117   1.936   1.337   1.517 -0.7487 -0.7250  2.1108
   40SOL     OW  118   0.995   1.994   0.885  0.1012  0.0459 -0.0944
   40SOL    HW1  119   0.952   2.010   0.979 -0.3034 -0.7013  0.5349
   40SOL    HW2  120   1.070   1.930   0.893  2.0164 -0.5024 -1.4036
   41SOL     OW  121   1.912   2.158   1.174 -0.6584 -0.2800  0.2307
   41SOL    HW1  122   1.954   2.065   1.170 -2.8096  1.6821 -2.2269
   41SOL    HW2  123   1.866   2.185   1.258  0.9916  0.9052 -0.5580
   42SOL     OW  124   2.836   0.596   1.179 -0.4990  0.0361  0.0895
   42SOL    HW1  125   2.823   0.506   1.229  0.2729 -0.6672 -4.4199
   42SOL    HW2  126   2.820   0.678   1.237 -0.8816  1.4587 -2.4111
   43SOL     OW  127   0.533   1.822   3.077  0.5658 -0.4029 -0.0730
   43SOL    HW1  128   0.506   1.905   0.017  1.2701  0.5781  0.5749
   43SOL    HW2  129   0.522   1.731   0.005  0.6642  0.6785 -1.7161
   44SOL     OW  130   1.436   2.555   1.445 -0.0682 -0.0365 -0.3083
   44SOL    HW1  131   1.452   2.636   1.511  3.2410  0.4632 -1.0690
   44SOL    HW2  132   1.424   2.580   1.346  0.5034  1.2192 -2.3199
   45SOL     OW  133   0.954   2.890   2.556  0.2459 -0.6187  0.4151
   45SOL    HW1  134   1.024   2.961   2.538 -1.5126 -1.0714  1.3422
   45SOL    HW2  135   0.933   2.830   2.474 -1.8062  1.0444 -1.5498
   46SOL     OW  136   0.897   2.333   2.193  0.4433  0.3829 -0.1399
   46SOL    HW1  137   0.995   2.321   2.197  1.6941 -2.8810 -0.3008
   46SOL    HW2  138   0.871   2.408   2.133 -1.0842 -1.9513  1.8217
   47SOL     OW  139   0.973   2.323   1.073 -0.0432  0.2785 -0.0261
   47SOL    HW1  140   0.902   2.396   1.075  1.5469  2.5576  1.5725
   47SOL    HW2  141   0.932   2.234   1.100 -2.3960  2.1339 -0.0123
   48SOL     OW  142   0.750   2.433   1.368 -0.2499  0.2208 -0.0446
   48SOL    HW1  143   0.761   2.440   1.268 -0.3401 -2.7691 -0.7000
   48SOL    HW2  144   0.682   2.355   1.386 -1.4317  0.5437 -2.9220
   49SOL     OW  145   2.536   0.053   3.107  0.1922  0.6699 -0.2815
   49SOL    HW1  146   2.537   0.140   0.042 -2.6204 -1.0451 -1.2327
   49SOL    HW2  147   2.610   0.054   3.039  0.9476 -1.5149  0.7328
   50SOL     OW  148   1.617   0.790   0.306  0.1204  0.1227  0.3830
   50SOL    HW1  149   1.686   0.805   0.235  0.6452 -0.7489 -0.6288
   50SOL    HW2  150   1.629   0.869   0.372  0.2699 -0.3634  0.6345
   51SOL     OW  151   2.070   0.801   0.817 -0.9567 -0.2883  0.3944
   51SOL    HW1  152   2.096   0.788   0.914 -0.3034 -3.3453  0.2046
   51SOL    HW2  153   2.047   0.899   0.801  3.7865  1.6075  1.4769
   52SOL     OW  154   0.533   1.593   0.302 -0.0585  0.5522 -0.2938
   52SOL    HW1  155   0.530   1.579   0.196  1.4795 -0.2605 -1.2982
   52SOL    HW2  156   0.485   1.517   0.356  0.8163 -1.5366 -1.5686
   53SOL     OW  157   0.286   1.203   2.892 -0.1595  0.3070 -0.1737
   53SOL    HW1  158   0.214   1.134   2.868  0.0857  1.2406  0.0283
   53SOL    HW2  159   0.369   1.197   2.836  0.5854 -0.3161 -0.2634
   54SOL     OW  160   2.136   1.329   2.243 -0.4021  0.0537 -0.5771
   54SOL    HW1  161   2.168   1.412   2.296  0.7993 -1.4827 -0.3780
   54SOL    HW2  162   2.182   1.331   2.150  3.1019 -3.1761  0.5332
   55SOL     OW  163   2.634   2.310   0.817 -0.5868  0.2400 -0.1684
   55SOL    HW1  164   2.641   2.408   0.832 -0.5911 -2.2570 -0.6066
   55SOL    HW2  165   2.543   2.264   0.842 -0.2203 -1.0978 -2.0424
   56SOL     OW  166   1.916   3.001   1.217 -0.1509 -0.4873 -0.2902
   56SOL    HW1  167   1.931   2.968   1.314  0.9380  1.4715  1.7320
   56SOL    HW2  168   1.845   2.944   1.178 -1.4247 -0.0050  2.2623
   57SOL     OW  169   1.534   1.422   0.317  0.0602 -0.0188 -0.3218
   57SOL    HW1  170   1.446   1.373   0.299  1.2014  2.9259  1.1147
   57SOL    HW2  171   1.526   1.522   0.335 -0.3541  0.0185  3.0445
   58SOL     OW  172   2.378   0.160   1.506  0.0504  0.0758  0.9290
   58SOL    HW1  173   2.277   0.167   1.505  0.4453  1.4058 -0.1143
   58SOL    HW2  174   2.408   0.137   1.600 -1.8570  0.0924  0.0758
   59SOL     OW  175   1.261   2.598   2.656  0.3149  0.6502  0.1356
   59SOL    HW1  176   1.328   2.676   2.656  0.1019 -0.7482 -2.2251
   59SOL    HW2  177   1.169   2.632   2.679  1.3766  3.5315  3.5075
   60SOL     OW  178   3.022   2.700   2.753  0.7157 -0.0934  0.1092
   60SOL    HW1  179   2.999   2.723   2.850 -1.6436 -0.3400 -1.0862
   60SOL    HW2  180   2.949   2.739   2.692 -1.3159 -2.4249 -1.9133
   61SOL     OW  181   0.783   2.511   1.077 -0.0201  0.0574 -0.1455
   61SOL    HW1  182   0.827   2.602   1.075 -2.4134  2.0379  2.3837
   61SOL    HW2  183   0.723   2.503   0.993 -0.3038  0.3112  1.5513
   62SOL     OW  184   1.529   1.770   2.074 -0.5047  0.4754  0.2869
   62SOL    HW1  185   1.589   1.790   2.152  0.9672 -1.1055  1.4135
   62SOL    HW2  186   1.566   1.714   1.999 -1.4200  1.8788 -0.3113
   63SOL     OW  187   1.912   1.746   0.205 -0.0211 -0.4471  0.4703
   63SOL    HW1  188   2.013   1.754   0.207  0.5517  1.3147 -3.7354
   63SOL    HW2  189   1.879   1.833   0.161  0.4508 -0.0857  1.0803
   64SOL     OW  190   1.900   1.072   0.275  0.1277 -0.4814  0.3188
   64SOL    HW1  191   1.876   1.091   0.371 -1.5502 -1.8868 -0.7644
   64SOL    HW2  192   1.827   1.103   0.213 -0.7992 -0.2978  0.2263
   65SOL     OW  193   2.031   2.229   1.939  0.2184 -0.1049  0.4785
   65SOL    HW1  194   2.100   2.170   1.990 -0.2031 -2.9119 -1.1123
   65SOL    HW2  195   1.932   2.195   1.935 -2.1384 -0.4180 -3.4452
   66SOL     OW  196   0.325   1.029   1.510 -0.0589  0.2780 -0.4093
   66SOL    HW1  197   0.334   0.953   1.442 -1.8254  0.9586 -1.1410
   66SOL    HW2  198   0.374   1.109   1.481 -0.2315 -2.8679  1.6542
   67SOL     OW  199   2.193   2.935   0.189  0.3836 -0.4958  0.3935
   67SOL    HW1  200   2.271   2.877   0.233  2.1296 -0.4510  1.1605
   67SOL    HW2  201   2.161   2.891   0.099 -1.4636 -0.7549 -0.0482
   68SOL     OW  202   1.818   2.456   1.302 -0.0295 -0.2197 -0.2059
   68SOL    HW1  203   1.913   2.419   1.296 -0.6659 -0.4964 -0.0993
   68SOL    HW2  204   1.782   2.475   1.208 -1.3080  0.4518  2.0439
   69SOL     OW  205   2.868   2.055   2.851  0.0935 -0.0191 -0.0634
   69SOL    HW1  206   2.814   1.971   2.843  1.3668  0.3632 -2.0945
   69SOL    HW2  207   2.887   2.074   2.951 -1.4938 -0.4028 -1.3830
   70SOL     OW  208   3.115   1.005   2.149  0.8230 -0.0629  0.4136
   70SOL    HW1  209   0.005   1.066   2.072 -0.6573 -2.7386  2.3844
   70SOL    HW2  210   3.016   1.008   2.179  0.1652 -1.6622 -0.7878
   71SOL     OW  211   0.911   1.022   2.468  0.1459  0.0564  0.1284
   71SOL    HW1  212   0.829   1.050   2.409 -2.8152  0.3786  0.4761
   71SOL    HW2  213   0.895   0.929   2.506 -1.4536 -0.8151 -0.5451
   72SOL     OW  214   2.550   1.307   2.029 -0.4515 -0.1752 -0.3286
   72SOL    HW1  215   2.453   1.293   2.008  0.0542 -0.8484 -0.0887
   72SOL    HW2  216   2.602   1.230   1.990 -0.8096 -0.1725  0.8425
   73SOL     OW  217   1.183   1.929   2.889 -0.1223  0.0929  0.5928
   73SOL    HW1  218   1.099   1.988   2.899 -1.4867  1.2646  0.7191
   73SOL    HW2  219   1.258   1.961   2.952  1.4283 -0.4178 -1.3725
   74SOL     OW  220   2.125   3.007   2.468 -0.1767  0.0534 -0.1641
   74SOL    HW1  221   2.066   3.017   2.552 -1.7695 -1.8975  0.0610
   74SOL    HW2  222   2.143   3.099   2.428 -0.9131  3.9300  0.4121
   75SOL     OW  223   1.638   2.433   0.733 -0.1639  0.3256  0.1754
   75SOL    HW1  224   1.574   2.457   0.812 -1.1137  1.2029  2.1682
   75SOL    HW2  225   1.737   2.437   0.764  1.1628  1.4504 -1.7826
   76SOL     OW  226   2.770   1.773   2.800  0.0007  0.0113  0.3664
   76SOL    HW1  227   2.702   1.708   2.829  4.8180  0.2748  1.4618
   76SOL    HW2  228   2.859   1.726   2.802 -1.9675  0.0902  2.0609
   77SOL     OW  229   3.080   2.336   1.620  0.2602  0.8080  0.3109
   77SOL    HW1  230   0.033   2.269   1.651  2.9903 -2.8476  1.4037
   77SOL    HW2  231   2.984   2.296   1.626  0.2816 -0.8168  0.7746
   78SOL     OW  232   2.571   0.918   0.077 -0.2348  0.3043 -0.3486
   78SOL    HW1  233   2.535   0.998   0.127  0.5177 -0.5539  1.3272
   78SOL    HW2  234   2.511   0.834   0.083 -2.6299 -3.2325 -1.0990
   79SOL     OW  235   0.226   1.565   2.895  0.1505  0.3661  0.5323
   79SOL    HW1  236   0.328   1.562   2.865  3.0486  1.5832 -0.3466
   79SOL    HW2  237   0.173   1.553   2.811  3.1393  1.7129  0.3228
   80SOL     OW  238   1.817   1.671   2.199  0.0552  0.3337 -0.5255
   80SOL    HW1  239   1.840   1.632   2.110  1.3801  1.9744  3.0981
   80SOL    HW2  240   1.866   1.606   2.263 -1.4234 -1.0555 -0.8636
   81SOL     OW  241   2.267   1.109   2.125 -0.4792 -0.0522  0.6147
   81SOL    HW1  242   2.210   1.127   2.042  0.5258 -2.4005  3.3485
   81SOL    HW2  243   2.270   1.184   2.190 -0.4467 -0.7023 -0.2728
   82SOL     OW  244   1.466   1.417   1.957  0.0483 -0.5916 -0.0235
   82SOL    HW1  245   1.374   1.453   1.934  0.5919  0.5673 -0.2840
   82SOL    HW2  246   1.487   1.340   1.894 -0.0593 -0.3127 -0.3347
   83SOL     OW  247   3.071   0.340   3.076 -0.3939  0.7696  0.0983
   83SOL    HW1  248   3.072   0.334   0.063 -0.0369 -2.6837  0.4395
   83SOL    HW2  249   2.978   0.354   3.037  1.9362 -0.2191  0.3835
   84SOL     OW  250   0.050   0.767   0.137 -0.2047  0.1376  0.1628
   84SOL    HW1  251   3.069   0.780   0.163 -1.2920 -1.0974 -0.5389
   84SOL    HW2  252   0.107   0.839   0.177  0.2873  2.3564 -1.9099
   85SOL     OW  253   2.288   2.038   1.589 -0.3654 -0.0340 -0.2016
   85SOL    HW1  254   2.389   2.026   1.612 -0.7185  2.1538 -1.1458
   85SOL    HW2  255   2.260   2.133   1.612 -2.2790 -0.3765 -0.1791
   86SOL     OW  256   0.398   0.402   1.214 -0.5652 -0.4286  0.6707
   86SOL    HW1  257   0.386   0.502   1.183 -0.1981 -0.2047 -2.2422
   86SOL    HW2  258   0.488   0.384   1.264  0.2622 -0.0959 -1.0823
   87SOL     OW  259   2.863   1.947   1.935 -0.0294 -0.4808 -0.0427
   87SOL    HW1  260   2.920   1.866   1.941 -0.8599  2.9855 -0.4977
   87SOL    HW2  261   2.851   1.987   2.024 -0.5925  0.8223 -0.6414
   88SOL     OW  262   0.251   2.053   0.026  0.6805  0.1080 -0.8305
   88SOL    HW1  263   0.340   2.068   0.068 -0.3355 -3.4295  0.3289
   88SOL    HW2  264   0.260   1.980   3.072 -1.9908 -1.0388  1.2809
   89SOL     OW  265   1.402   0.868   0.150 -0.1272  0.2944 -0.6453
   89SOL    HW1  266   1.401   0.960   0.115 -2.3510 -3.5399 -0.7763
   89SOL    HW2  267   1.470   0.858   0.230 -0.7099  0.7520  3.8721
   90SOL     OW  268   0.083   1.479   2.417  0.4353 -0.0388 -0.0464
   90SOL    HW1  269   0.013   1.553   2.400  2.0012 -0.6839 -1.1430
   90SOL    HW2  270   0.159   1.501   2.352 -1.4609  2.1425 -0.0514
   91SOL     OW  271   2.038   0.103   1.258  0.1015  0.0190  0.4847
   91SOL    HW1  272   1.964   0.032   1.236 -0.6650 -2.0360  0.1409
   91SOL    HW2  273   2.036   0.183   1.187  0.8236  4.4244 -4.2132
   92SOL     OW  274   2.328   1.358   1.363 -0.3273 -0.1132 -0.1962
   92SOL    HW1  275   2.374   1.297   1.299  1.1972  0.2496  1.6629
   92SOL    HW2  276   2.278   1.299   1.430  0.8178 -2.4291  0.0875
   93SOL     OW  277   0.024   1.179   0.260 -0.1293 -0.5905  0.2875
   93SOL    HW1  278   0.020   1.091   0.314 -1.8352  1.3868  4.6200
   93SOL    HW2  279   0.114   1.223   0.259 -4.1628  0.3239  0.0815
   94SOL     OW  280   1.397   2.277   2.123 -0.0290 -0.0245 -0.3647
   94SOL    HW1  281   1.426   2.183   2.151 -0.9771  0.9525  0.8642
   94SOL    HW2  282   1.470   2.351   2.136 -0.4233 -1.1461 -0.3366
   95SOL     OW  283   0.391   0.660   1.133 -0.3539 -0.3340  0.1877
   95SOL    HW1  284   0.487   0.684   1.117 -1.4550 -1.5860 -0.8622
   95SOL    HW2  285   0.336   0.672   1.047 -1.0042 -0.0050  1.3007
   96SOL     OW  286   2.937   2.998   1.682  0.7155  0.2267 -0.5579
   96SOL    HW1  287   3.021   2.952   1.724  1.9275  1.1056  1.3824
   96SOL    HW2  288   2.894   2.940   1.610 -0.3153 -1.2641 -0.5088
   97SOL     OW  289   2.547   0.550   1.596  0.2622  0.1458  1.0245
   97SOL    HW1  290   2.622   0.615   1.575  1.5250 -2.5202  1.2583
   97SOL    HW2  291   2.558   0.521   1.693  0.4966  1.3095 -1.3786
   98SOL     OW  292   2.304   2.603   1.357  0.0765 -0.0790 -0.6406
   98SOL    HW1  293   2.346   2.568   1.274 -2.6538 -5.0087  1.8894
   98SOL    HW2  294   2.245   2.687   1.349  2.1181 -0.8232 -0.0943
   99SOL     OW  295   0.627   0.224   1.792 -0.0188 -0.2700 -0.1139
   99SOL    HW1  296   0.538   0.255   1.758  4.2325 -1.4844  1.7895
   99SOL    HW2  297   0.694   0.300   1.801 -1.7365 -0.3402  1.3468
  100SOL     OW  298   2.085   0.270   2.250 -0.3738 -0.0165 -0.0771
  100SOL    HW1  299   2.086   0.184   2.198 -4.1553  2.2315 -0.9855
  100SOL    HW2  300   1.992   0.289   2.291 -0.8054  0.5219  0.7314
  101SOL     OW  301   0.118   0.002   2.361  0.3542  0.2140 -0.1852
  101SOL    HW1  302   0.159   3.028   2.380  0.3538  1.2830  1.4802
  101SOL    HW2  303   0.188   0.069   2.391  0.8515 -3.5988 -2.0748
  102SOL     OW  304   0.809   0.399   1.817 -0.6356  0.2205  0.0793
  102SOL    HW1  305   0.833   0.400   1.720 -1.3982  1.4069  1.2718
  102SOL    HW2  306   0.888   0.424   1.882  2.2598 -0.8996  0.6181
  103SOL     OW  307   0.762   0.725   2.835 -0.3125  0.3971 -0.3946
  103SOL    HW1  308   0.860   0.713   2.862  0.2960  1.3605  4.3129
  103SOL    HW2  309   0.723   0.816   2.865 -2.9328  2.3042  0.5157
  104SOL     OW  310   0.022   0.539   2.136 -0.0943 -0.1634  0.0101
  104SOL    HW1  311   0.113   0.569   2.176 -1.0994 -2.9313 -0.7668
  104SOL    HW2  312   3.101   0.614   2.079  1.0197  0.0387  2.6009
  105SOL     OW  313   2.474   2.128   1.162  0.5901  0.3231  0.0619
  105SOL    HW1  314   2.455   2.217   1.209 -0.3376 -0.7894  0.7362
  105SOL    HW2  315   2.411   2.059   1.205  2.8077 -0.4805  1.5207
  106SOL     OW  316   1.841   0.197   0.555 -0.4785  0.1329  0.2269
  106SOL    HW1  317   1.939   0.166   0.549  2.9306 -0.9174 -0.3639
  106SOL    HW2  318   1.826   0.294   0.529 -0.0046 -0.3008  0.3464
  107SOL     OW  319   1.879   2.218   0.819  0.7656  0.2733  0.0480
  107SOL    HW1  320   1.873   2.198   0.719 -0.6283 -0.6654  0.8795
  107SOL    HW2  321   1.845   2.135   0.873 -1.0064  0.5377  1.0979
  108SOL     OW  322   0.123   2.411   1.224 -0.0474  0.0089  0.8673
  108SOL    HW1  323   0.029   2.456   1.214 -3.5970 -1.8096 -0.6432
  108SOL    HW2  324   0.164   2.378   1.137  1.7611 -0.0485  0.3631
  109SOL     OW  325   1.914   2.475   0.881  0.2046  0.0241  0.3652
  109SOL    HW1  326   1.894   2.371   0.877 -0.8350 -3.1466 -0.5587
  109SOL    HW2  327   1.871   2.524   0.963  1.6338  1.6063 -0.7866
  110SOL     OW  328   1.579   1.496   1.628 -0.0720  0.4505  0.1456
  110SOL    HW1  329   1.548   1.404   1.647 -1.7923  2.5054  0.8908
  110SOL    HW2  330   1.494   1.557   1.634 -1.3819  1.0894 -1.9308
  111SOL     OW  331   1.760   2.226   1.959  0.1071 -0.5069 -0.3442
  111SOL    HW1  332   1.740   2.225   1.859  1.3595  0.0519  2.2895
  111SOL    HW2  333   1.717   2.305   2.012 -1.1336  0.4808  2.1997
  112SOL     OW  334   1.813   2.144   2.963  0.6047  0.5563 -0.3618
  112SOL    HW1  335   1.738   2.194   3.009  2.0019 -3.0285 -2.7114
  112SOL    HW2  336   1.905   2.155   3.010 -0.6421  0.6124  1.0863
  113SOL     OW  337   2.114   1.813   1.590  0.0729  0.0837  0.1817
  113SOL    HW1  338   2.178   1.889   1.594 -0.7254 -2.0571 -0.8462
  113SOL    HW2  339   2.073   1.791   1.681 -0.3314  0.7709  1.2699
  114SOL     OW  340   3.007   1.498   1.629 -0.1772 -0.2203 -0.1143
  114SOL    HW1  341   3.045   1.586   1.596  0.4519 -0.1728 -0.5238
  114SOL    HW2  342   3.061   1.419   1.598  0.3401  1.2577  1.1790
  115SOL     OW  343   0.066   0.918   0.397  0.0633  0.0684 -0.0088
  115SOL    HW1  344   3.109   0.880   0.456  0.3108 -1.3138 -0.0205
  115SOL    HW2  345   0.137   0.958   0.457 -0.1632 -0.4727 -0.0130
  116SOL     OW  346   2.625   1.203   3.049 -0.2636  0.0959 -0.2474
  116SOL    HW1  347   2.645   1.110   3.013 -1.8241 -0.2372  0.2393
  116SOL    HW2  348   2.546   1.250   3.001  1.7853 -0.1442 -1.9007
  117SOL     OW  349   2.942   2.555   0.142 -0.1380 -0.1973 -0.0424
  117SOL    HW1  350   2.858   2.520   0.192 -0.1235  2.0495 -0.1690
  117SOL    HW2  351   2.908   2.576   0.048  0.4305 -0.7517 -0.8919
  118SOL     OW  352   0.645   1.935   2.842  0.4557 -0.2076 -0.0907
  118SOL    HW1  353   0.583   2.015   2.830  0.9181  0.2426 -2.3704
  118SOL    HW2  354   0.609   1.886   2.923 -1.0385  1.7354 -0.3347
  119SOL     OW  355   0.494   2.384   0.532  0.1823  0.5169 -0.2106
  119SOL    HW1  356   0.575   2.324   0.549 -1.5470  0.3574  0.2670
  119SOL    HW2  357   0.426   2.374   0.607  0.4056  0.0936 -2.0519
  120SOL     OW  358   1.331   0.454   0.334 -0.5546  0.3572  0.3715
  120SOL    HW1  359   1.300   0.413   0.245  2.9984  0.7464 -0.4122
  120SOL    HW2  360   1.264   0.508   0.384  1.2112 -1.1283 -1.7524
  121SOL     OW  361   1.506   2.661   0.918 -0.4940 -0.2763  0.5388
  121SOL    HW1  362   1.523   2.759   0.942 -0.5404  0.1200  1.3549
  121SOL    HW2  363   1.416   2.659   0.870 -0.2933  0.9980  1.0207
  122SOL     OW  364   2.494   1.846   2.260 -0.2137 -0.5428 -0.2497
  122SOL    HW1  365   2.574   1.787   2.275  0.0876  0.3750 -0.9114
  122SOL    HW2  366   2.422   1.807   2.193  0.3444  0.7669 -1.1259
  123SOL     OW  367   0.826   1.664   0.844  0.2802  0.0346  0.4980
  123SOL    HW1  368   0.890   1.711   0.785 -0.5653  1.2700  2.1169
  123SOL    HW2  369   0.745   1.718   0.864  0.4652  0.0318 -1.4908
  124SOL     OW  370   0.074   0.500   2.906 -0.2691  0.0342  0.0183
  124SOL    HW1  371   0.018   0.430   2.957 -3.3326  2.5494 -0.0625
  124SOL    HW2  372   0.079   0.473   2.804  0.2412 -0.7911 -0.0671
  125SOL     OW  373   0.365   0.437   0.093 -0.1739  0.0828  0.2208
  125SOL    HW1  374   0.312   0.508   0.040  2.0161 -1.5652  0.6018
  125SOL    HW2  375   0.349   0.346   0.056  0.8609  3.2208  1.6034
  126SOL     OW  376   0.017   1.762   0.644  0.6923 -0.0526 -0.0032
  126SOL    HW1  377   0.033   1.701   0.564 -1.7019 -0.8769  0.1047
  126SOL    HW2  378   3.047   1.809   0.630  1.2259 -0.1998 -1.4135
  127SOL     OW  379   1.023   2.478   1.781  0.4383  0.3234 -0.1270
  127SOL    HW1  380   0.937   2.530   1.761  0.6325  0.7719  1.0325
  127SOL    HW2  381   1.045   2.419   1.701  2.4215  0.0403 -1.2696
  128SOL     OW  382   1.208   1.623   0.152 -0.0573  0.0290  0.5100
  128SOL    HW1  383   1.122   1.678   0.132  0.4169 -0.5376 -0.1783
  128SOL    HW2  384   1.256   1.596   0.062  1.7767 -1.3851 -0.9581
  129SOL     OW  385   1.930   2.023   1.447  0.4486 -1.1866  0.7981
  129SOL    HW1  386   1.856   1.971   1.494 -1.3967  1.6532  2.4863
  129SOL    HW2  387   2.012   1.968   1.454 -0.4070  0.4228 -2.3072
  130SOL     OW  388   1.731   2.205   1.686  0.0501 -0.8903 -0.3999
  130SOL    HW1  389   1.814   2.161   1.653 -2.8762 -0.3580 -1.4591
  130SOL    HW2  390   1.690   2.241   1.607  2.2404 -3.4546  1.3499
  131SOL     OW  391   2.757   2.264   2.398 -0.4568 -0.3858  0.2179
  131SOL    HW1  392   2.725   2.179   2.445  1.9399  1.9132 -1.1137
  131SOL    HW2  393   2.773   2.341   2.461  3.8607  0.7564 -1.5516
  132SOL     OW  394   2.992   1.961   0.839  0.1836 -0.1484 -0.0125
  132SOL    HW1  395   3.028   1.871   0.861 -0.1216  0.2047  0.2848
  132SOL    HW2  396   2.971   2.018   0.920  1.0069  1.0343  0.8144
  133SOL     OW  397   1.003   0.450   2.013  0.1227 -0.8579  0.0318
  133SOL    HW1  398   1.078   0.406   1.959 -1.2392 -2.2814  2.7788
  133SOL    HW2  399   1.040   0.521   2.075 -0.7158  1.1388 -0.4979
  134SOL     OW  400   2.795   1.782   0.100 -0.4232 -0.1063 -0.3175
  134SOL    HW1  401   2.859   1.819   0.173 -0.4753 -2.6450  0.4612
  134SOL    HW2  402   2.701   1.815   0.128 -1.9354 -0.4320  2.2733
  135SOL     OW  403   1.588   1.000   2.577 -0.4541 -0.3175 -0.0326
  135SOL    HW1  404   1.518   1.079   2.578  1.2027  0.4474  0.7041
  135SOL    HW2  405   1.530   0.918   2.596 -1.3272 -2.0951 -0.0353
  136SOL     OW  406   2.606   1.904   0.944  0.1671 -0.3749  0.0677
  136SOL    HW1  407   2.678   1.829   0.944 -0.8678  1.1979  1.7577
  136SOL    HW2  408   2.631   1.980   1.008  1.9600 -1.0653  1.8781
  137SOL     OW  409   2.813   1.695   0.946  0.2632 -0.3848 -0.5281
  137SOL    HW1  410   2.910   1.709   0.975 -1.9749  0.1772  1.0373
  137SOL    HW2  411   2.798   1.682   0.848  0.2230  0.2667  1.1182
  138SOL     OW  412   2.864   0.487   0.756 -0.3365  0.5078  0.3899
  138SOL    HW1  413   2.900   0.392   0.752  1.2849 -3.1144 -1.2794
  138SOL    HW2  414   2.902   0.541   0.831  1.6623 -3.7703 -0.7279
  139SOL     OW  415   3.088   2.784   3.035  0.0688 -0.0020  0.6859
  139SOL    HW1  416   3.097   2.868   2.974  2.7310  2.4848 -0.5081
  139SOL    HW2  417   0.050   2.774   3.098 -0.5252 -1.0629  2.6909
  140SOL     OW  418   0.681   1.593   1.504  0.4791  0.0475  0.1071
  140SOL    HW1  419   0.695   1.505   1.455 -0.2645 -1.2579 -1.3481
  140SOL    HW2  420   0.753   1.607   1.573 -2.4285  0.0087  0.8062
  141SOL     OW  421   1.236   1.801   0.976  0.2926  0.6989 -0.5164
  141SOL    HW1  422   1.227   1.703   0.949  0.9949  0.0536  0.9821
  141SOL    HW2  423   1.329   1.847   0.967  1.2986 -0.4611 -0.4139
  142SOL     OW  424   0.967   0.760   0.922 -0.3467  0.3754  0.2211
  142SOL    HW1  425   0.983   0.660   0.914 -0.5407  0.0327  0.6866
  142SOL    HW2  426   0.896   0.785   0.855 -0.1880 -1.7684  1.4990
  143SOL     OW  427   0.622   1.273   2.528 -0.0032 -0.6036 -0.4265
  143SOL    HW1  428   0.683   1.350   2.503 -0.1869  0.3308  0.1288
  143SOL    HW2  429   0.535   1.325   2.551  1.3811  2.3861  0.7595
  144SOL     OW  430   2.470   3.046   0.718 -0.0477 -0.0802 -0.3660
  144SOL    HW1  431   2.523   0.015   0.720  0.8230 -1.2398  0.6852
  144SOL    HW2  432   2.414   3.034   0.803  0.6577  1.0398  0.4559
  145SOL     OW  433   2.347   0.346   2.678  0.3110  0.1273 -0.0985
  145SOL    HW1  434   2.297   0.269   2.724 -1.3934 -0.5011  3.2038
  145SOL    HW2  435   2.429   0.362   2.735 -0.6839 -0.0590 -1.9656
  146SOL     OW  436   3.087   2.845   0.555  0.2618 -0.2143  0.4197
  146SOL    HW1  437   3.081   2.816   0.652 -4.2542 -0.4475 -2.0040
  146SOL    HW2  438   3.097   2.943   0.535 -0.4015  2.6110  1.3655
  147SOL     OW  439   0.974   1.207   2.649 -0.3429  0.7830 -0.2753
  147SOL    HW1  440   0.919   1.140   2.597  1.1179 -1.9559 -2.4272
  147SOL    HW2  441   0.984   1.288   2.587  0.9630  1.4853 -1.2101
  148SOL     OW  442   1.537   0.293   2.798  0.1063 -0.6011 -0.9314
  148SOL    HW1  443   1.545   0.222   2.875  2.7480 -1.6896 -1.0724
  148SOL    HW2  444   1.495   0.251   2.716 -2.1409  0.2404 -0.3028
  149SOL     OW  445   1.641   0.230   2.025  0.3052  0.4841  0.1466
  149SOL    HW1  446   1.666   0.177   2.110 -1.8425  1.7193  1.4454
  149SOL    HW2  447   1.639   0.335   2.042  0.7926  1.1655  0.9614
  150SOL     OW  448   2.363   2.710   0.060 -0.0664  0.0378 -0.3046
  150SOL    HW1  449   2.418   2.638   0.013  1.7215  1.3260 -0.0311
  150SOL    HW2  450   2.274   2.674   0.098 -1.0198  0.2180  1.9900
  151SOL     OW  451   0.493   1.546   0.030  0.3191  0.1130 -0.1476
  151SOL    HW1  452   0.410   1.494   0.009 -1.0385  2.0531 -1.0139
  151SOL    HW2  453   0.572   1.528   3.084  1.9911 -0.5097 -2.8997
  152SOL     OW  454   0.301   2.989   1.577 -0.1846 -0.0152  0.4331
  152SOL    HW1  455   0.261   3.077   1.538 -2.1660  2.6713  0.5273
  152SOL    HW2  456   0.301   3.004   1.681 -0.3967  0.2390 -1.2433
  153SOL     OW  457   2.539   2.924   1.750  0.1323 -0.9663  0.2956
  153SOL    HW1  458   2.612   2.873   1.800  1.7632 -2.7221 -0.2685
  153SOL    HW2  459   2.527   3.023   1.774  0.2689 -1.6019 -0.1294
  154SOL     OW  460   2.513   3.105   2.573  0.2520  0.2203  0.1318
  154SOL    HW1  461   2.489   0.062   2.513 -0.0980 -3.0708  1.3976
  154SOL    HW2  462   2.560   3.031   2.522 -0.9951  1.2120 -2.0941
  155SOL     OW  463   2.930   1.201   0.604 -0.1461 -0.4052  0.3591
  155SOL    HW1  464   3.025   1.214   0.567 -0.1189 -0.2285 -2.1158
  155SOL    HW2  465   2.880   1.290   0.631 -3.4011  1.0885  0.0847
  156SOL     OW  466   0.086   1.625   0.402 -0.0672 -0.4316  0.0651
  156SOL    HW1  467   0.157   1.650   0.336  1.4373 -0.4215  0.1284
  156SOL    HW2  468   0.024   1.552   0.364  0.2265 -0.7745  2.7604
  157SOL     OW  469   0.797   0.165   0.582  0.2592 -0.4269  0.4049
  157SOL    HW1  470   0.829   0.114   0.663 -0.6034 -0.4112 -0.7115
  157SOL    HW2  471   0.874   0.192   0.524 -0.4720 -1.1917  0.6304
  158SOL     OW  472   1.808   1.344   1.020 -0.5666 -0.0722  0.2096
  158SOL    HW1  473   1.830   1.246   1.038  0.8757  1.7710 -2.0097
  158SOL    HW2  474   1.860   1.417   1.067 -0.7872 -0.8666  1.0603
  159SOL     OW  475   3.112   0.285   0.271 -0.4763  0.1756 -0.5024
  159SOL    HW1  476   0.048   0.368   0.293  2.4785 -1.1545  2.4331
  159SOL    HW2  477   0.038   0.199   0.306  0.6119  0.2380 -0.6967
  160SOL     OW  478   2.233   2.270   1.729  0.2216 -0.3649 -0.1198
  160SOL    HW1  479   2.163   2.231   1.789 -0.7778 -0.4834  1.4004
  160SOL    HW2  480   2.191   2.341   1.668  2.3737  1.3042 -1.1045
  161SOL     OW  481   0.302   0.821   2.924  0.1467  0.1421  0.2520
  161SOL    HW1  482   0.282   0.738   2.986 -1.5351 -2.0718 -0.2466
  161SOL    HW2  483   0.228   0.893   2.922 -1.8973 -0.5450 -2.4834
  162SOL     OW  484   1.041   3.109   1.817 -0.0322  0.2016 -0.3284
  162SOL    HW1  485   1.133   3.068   1.842  0.0411  0.1907 -0.1662
  162SOL    HW2  486   0.997   0.033   1.899 -0.4398 -1.1257  1.4708
  163SOL     OW  487   2.666   2.919   2.403  1.0414  0.5870  0.4431
  163SOL    HW1  488   2.677   2.975   2.322  0.7518 -4.0120  1.0414
  163SOL    HW2  489   2.590   2.854   2.393  0.2223 -2.0883  0.1769
  164SOL     OW  490   2.024   1.889   0.459  0.5088 -0.7228  0.0863
  164SOL    HW1  491   1.950   1.931   0.399  2.2147 -1.1898  0.7475
  164SOL    HW2  492   2.096   1.849   0.399 -1.4622 -1.9005 -0.4430
  165SOL     OW  493   0.195   0.131   1.523  0.0818  0.5507  0.4943
  165SOL    HW1  494   0.091   0.114   1.510 -2.2621  0.6891  1.0129
  165SOL    HW2  495   0.216   0.228   1.500 -1.0522 -4.0351  0.1626
  166SOL     OW  496   2.224   0.811   0.554  0.3841 -0.1709  0.0704
  166SOL    HW1  497   2.198   0.779   0.648  0.7494  0.2558 -0.8490
  166SOL    HW2  498   2.242   0.732   0.497 -1.5155  0.9200  0.3130
  167SOL     OW  499   2.236   0.761   3.042 -0.0471  0.3517 -0.6065
  167SOL    HW1  500   2.298   0.712   3.114 -0.1300 -1.5735  0.2558
  167SOL    HW2  501   2.138   0.726   3.039 -0.6545 -1.4555 -1.2996
  168SOL     OW  502   1.722   0.058   2.541 -0.4550 -0.4120  0.5041
  168SOL    HW1  503   1.702   3.088   2.587  2.0558 -1.9282 -0.2453
  168SOL    HW2  504   1.794   0.111   2.589 -0.5870 -2.4519 -1.0679
  169SOL     OW  505   0.629   1.831   0.918  0.1382 -0.4324 -0.0299
  169SOL    HW1  506   0.595   1.905   0.858 -0.1680 -2.8676 -0.0245
  169SOL    HW2  507   0.583   1.832   1.010  1.1920  0.3771 -0.6754
  170SOL     OW  508   0.014   0.902   1.271  0.3059 -0.6149 -0.2210
  170SOL    HW1  509   0.056   0.983   1.224  2.0433 -1.1730 -1.4075
  170SOL    HW2  510   0.028   0.900   1.369 -0.7236 -1.0742  0.7154
  171SOL     OW  511   2.661   1.655   2.426  0.2420  0.0534 -0.3882
  171SOL    HW1  512   2.626   1.577   2.367  1.7583 -1.4235 -0.0198
  171SOL    HW2  513   2.600   1.669   2.505 -0.9452 -0.0077 -1.1276
  172SOL     OW  514   0.681   1.829   1.404  0.1305 -0.2771 -0.1146
  172SOL    HW1  515   0.644   1.899   1.471  2.5214  0.9566  0.1409
  172SOL    HW2  516   0.673   1.735   1.436  1.2028 -1.6669 -1.2259
  173SOL     OW  517   1.967   1.640   2.983  0.1836  0.3928  0.2883
  173SOL    HW1  518   1.970   1.558   3.045 -1.6424 -1.3804  1.6491
  173SOL    HW2  519   1.902   1.710   3.017 -0.6295  0.4768 -2.4978
  174SOL     OW  520   1.454   0.934   2.922 -0.6878  0.2301  0.4951
  174SOL    HW1  521   1.548   0.907   2.956  0.0335  1.3479 -4.3052
  174SOL    HW2  522   1.433   0.890   2.829 -1.2974 -3.2836 -1.6835
  175SOL     OW  523   1.104   1.567   1.218  1.2026  0.6923  0.1103
  175SOL    HW1  524   1.100   1.666   1.240 -2.5233 -0.9466 -1.2300
  175SOL    HW2  525   1.089   1.512   1.304  0.7352 -0.0638  0.9674
  176SOL     OW  526   1.422   0.115   0.189  0.1683 -0.0746  0.4705
  176SOL    HW1  527   1.365   0.105   0.272  1.7535  0.0642 -2.2362
  176SOL    HW2  528   1.430   0.030   0.140 -0.2193  1.0385 -2.5532
  177SOL     OW  529   0.269   1.047   0.524  0.1870 -0.1520 -0.2519
  177SOL    HW1  530   0.325   1.001   0.456 -3.2390  1.0955 -0.8544
  177SOL    HW2  531   0.319   1.054   0.612 -0.5965 -1.5185  2.1160
  178SOL     OW  532   2.995   2.444   2.620  0.6851  0.4402 -0.3689
  178SOL    HW1  533   2.981   2.379   2.695 -0.1961 -0.8086  1.2110
  178SOL    HW2  534   3.017   2.537   2.660 -1.2114  1.4081  0.0310
  179SOL     OW  535   2.461   2.736   2.373  0.4225 -0.6049 -0.0345
  179SOL    HW1  536   2.391   2.747   2.445  3.5132 -0.2960  2.4895
  179SOL    HW2  537   2.518   2.650   2.393 -0.8570 -0.6252  0.8138
  180SOL     OW  538   2.181   0.807   1.077  0.4363  0.1213  0.2326
  180SOL    HW1  539   2.200   0.765   1.168 -0.6789 -0.7963  0.0922
  180SOL    HW2  540   2.266   0.817   1.019  1.9234  0.3054 -0.3856
  181SOL     OW  541   2.189   0.542   2.514  0.3562  0.0185  0.0730
  181SOL    HW1  542   2.249   0.492   2.578  2.0395 -4.4564 -2.2752
  181SOL    HW2  543   2.204   0.513   2.417 -1.2218  1.1705  1.5150
  182SOL     OW  544   2.769   2.277   2.135 -0.0519  0.1081 -0.0379
  182SOL    HW1  545   2.851   2.329   2.105  0.4260  0.6311 -0.5870
  182SOL    HW2  546   2.760   2.291   2.240  0.3102  0.0338  0.9937
  183SOL     OW  547   2.129   0.825   1.846 -0.1876 -0.2034 -0.1098
  183SOL    HW1  548   2.230   0.811   1.858  0.4935  1.1627 -2.3571
  183SOL    HW2  549   2.104   0.814   1.752 -1.5685 -0.0951  0.5667
  184SOL     OW  550   0.233   1.865   0.973  0.7989  0.9307 -0.5044
  184SOL    HW1  551   0.210   1.907   0.885  0.9802 -0.7255  2.9174
  184SOL    HW2  552   0.236   1.764   0.964  0.3521  0.8116  0.8368
  185SOL     OW  553   2.956   0.236   0.809  0.4766  0.4151  0.0893
  185SOL    HW1  554   2.855   0.224   0.834  0.8638  0.9146 -0.9029
  185SOL    HW2  555   3.021   0.255   0.891  4.4213 -0.4961  1.9253
  186SOL     OW  556   2.142   2.553   2.406  0.6618 -0.1693 -0.3697
  186SOL    HW1  557   2.044   2.551   2.426 -0.4057  0.5110  0.9188
  186SOL    HW2  558   2.184   2.616   2.470  2.2317 -0.5752 -0.3125
  187SOL     OW  559   0.424   1.364   0.701 -0.1751 -0.0094 -0.0326
  187SOL    HW1  560   0.459   1.293   0.759 -1.6013  2.6954  0.5023
  187SOL    HW2  561   0.491   1.440   0.698  1.4941 -2.7707 -1.8281
  188SOL     OW  562   2.159   1.330   0.996  0.3216  0.4812 -0.0841
  188SOL    HW1  563   2.131   1.238   1.032  0.0739  0.6957  0.9207
  188SOL    HW2  564   2.206   1.309   0.906  3.5425 -0.6713  0.7700
  189SOL     OW  565   3.040   1.263   2.823 -0.0696 -0.4547 -0.3397
  189SOL    HW1  566   3.072   1.177   2.870  1.3578 -1.1275  1.9474
  189SOL    HW2  567   2.944   1.240   2.794  1.1415 -0.9836 -0.3283
  190SOL     OW  568   2.353   0.418   2.298 -0.2978  0.3979  0.2899
  190SOL    HW1  569   2.272   0.382   2.248 -1.4675 -0.8843  0.0652
  190SOL    HW2  570   2.439   0.363   2.280  2.1316 -0.4003  1.7047
  191SOL     OW  571   1.250   0.198   2.152 -0.1139 -0.4841 -0.3920
  191SOL    HW1  572   1.234   0.228   2.057  1.8051 -1.6526  2.2821
  191SOL    HW2  573   1.175   0.133   2.173  3.2429  1.3202 -1.3327
  192SOL     OW  574   0.962   1.651   1.583  0.2870  0.3136  0.0296
  192SOL    HW1  575   1.018   1.720   1.534  0.4201 -0.5477 -1.1347
  192SOL    HW2  576   0.963   1.669   1.683 -1.7129 -0.3270  1.6462
  193SOL     OW  577   1.328   2.997   0.702 -0.4154 -0.4781 -0.1557
  193SOL    HW1  578   1.305   3.016   0.800 -2.3780  1.6288 -0.1890
  193SOL    HW2  579   1.351   2.901   0.677  2.1253  0.0848 -0.7323
  194SOL     OW  580   0.501   1.937   2.098 -0.0457  0.2565  0.0588
  194SOL    HW1  581   0.591   1.961   2.059 -0.3628 -0.4377 -2.1020
  194SOL    HW2  582   0.434   1.931   2.024  0.4155  1.4394  1.9437
  195SOL     OW  583   1.649   0.554   0.732 -0.0468  0.2623 -0.0087
  195SOL    HW1  584   1.617   0.532   0.636 -0.4252  4.2778  1.3977
  195SOL    HW2  585   1.574   0.585   0.793  0.4610  1.1648  0.0227
  196SOL     OW  586   1.194   1.521   1.856 -0.0971 -0.8357 -0.1255
  196SOL    HW1  587   1.156   1.529   1.950 -0.6190 -0.9867  0.9589
  196SOL    HW2  588   1.193   1.613   1.806  2.4826  0.9200 -2.6393
  197SOL     OW  589   0.173   0.406   1.832 -0.1488  0.0080  0.0129
  197SOL    HW1  590   0.141   0.370   1.922 -0.2485  0.9347  1.0183
  197SOL    HW2  591   0.253   0.468   1.839 -1.7454  1.5979  1.2412
  198SOL     OW  592   0.664   0.787   0.828 -0.7017  0.6181 -0.1537
  198SOL    HW1  593   0.598   0.740   0.764  1.1304  1.0110 -1.3231
  198SOL    HW2  594   0.683   0.886   0.806  2.3167  2.1001 -0.1359
  199SOL     OW  595   0.037   2.564   1.439  0.1064 -0.4485 -0.3111
  199SOL    HW1  596   0.089   2.524   1.360  0.6295 -1.0282  0.0826
  199SOL    HW2  597   3.103   2.491   1.490 -2.2549 -0.8798  0.1948
  200SOL     OW  598   1.624   1.391   2.523  0.1769 -0.2641 -0.9926
  200SOL    HW1  599   1.718   1.368   2.557  0.8890 -2.2535 -1.2180
  200SOL    HW2  600   1.564   1.310   2.536 -0.1203  0.3569  0.2212
  201SOL     OW  601   0.513   2.435   1.709 -0.1938 -0.4329  0.1100
  201SOL    HW1  602   0.554   2.498   1.638  0.3069 -1.3082 -0.9283
  201SOL    HW2  603   0.453   2.368   1.656  0.7218  1.9887  0.9747
  202SOL     OW  604   1.278   2.769   2.908  0.0854  0.2953  0.1640
  202SOL    HW1  605   1.211   2.721   2.852  2.9874  0.6111 -0.6551
  202SOL    HW2  606   1.233   2.845   2.956  1.2226 -1.2265 -1.3931
  203SOL     OW  607   1.702   0.618   2.527  0.0571 -0.2187 -0.4800
  203SOL    HW1  608   1.600   0.616   2.534 -4.0429 -3.3945 -1.3300
  203SOL    HW2  609   1.743   0.537   2.486  1.5003 -0.5386  0.3998
  204SOL     OW  610   0.856   1.093   1.642  0.7062 -0.1428  0.4671
  204SOL    HW1  611   0.893   1.143   1.719 -0.5024 -1.5163  0.1118
  204SOL    HW2  612   0.833   0.995   1.669  1.1881 -1.2791 -1.7556
  205SOL     OW  613   2.268   1.007   2.671 -0.2011  0.4828 -0.3648
  205SOL    HW1  614   2.224   0.925   2.626 -0.1891 -0.2264  0.3572
  205SOL    HW2  615   2.336   1.041   2.605 -0.5646 -1.2580  1.4320
  206SOL     OW  616   0.374   1.826   2.787  0.6870  0.5498  0.1138
  206SOL    HW1  617   0.370   1.829   2.887  1.1128 -0.3336 -1.0917
  206SOL    HW2  618   0.455   1.876   2.753  0.7776  0.1205 -1.8922
  207SOL     OW  619   0.856   2.819   1.943 -0.5590 -0.2156  0.4180
  207SOL    HW1  620   0.869   2.718   1.942  0.6111 -0.1557  0.7154
  207SOL    HW2  621   0.786   2.855   1.878  0.1471 -0.9078 -0.0447
  208SOL     OW  622   0.628   2.631   1.527 -0.1517  0.7113 -0.3172
  208SOL    HW1  623   0.557   2.685   1.483  1.6653  1.2607 -0.0615
  208SOL    HW2  624   0.667   2.565   1.461 -0.5503 -1.4006 -0.3886
  209SOL     OW  625   1.194   2.794   0.169 -0.1716 -0.0464  0.3387
  209SOL    HW1  626   1.195   2.845   0.257  0.9383  2.0567 -2.8643
  209SOL    HW2  627   1.190   2.869   0.102 -1.4043  0.5843 -0.2289
  210SOL     OW  628   2.740   1.507   1.788 -0.7308 -0.8850  0.3379
  210SOL    HW1  629   2.685   1.424   1.763 -0.6611  1.7927 -0.2043
  210SOL    HW2  630   2.839   1.498   1.777 -1.7777  3.1223  1.0413
  211SOL     OW  631   1.313   0.321   1.414 -0.3021  0.1182  0.3478
  211SOL    HW1  632   1.230   0.359   1.453  1.3886  0.3826  2.0820
  211SOL    HW2  633   1.397   0.362   1.449 -0.8928 -0.8796  1.3088
  212SOL     OW  634   1.142   2.105   1.676  0.4262  0.4787 -0.0493
  212SOL    HW1  635   1.092   2.106   1.766  0.7261 -3.2137  0.9357
  212SOL    HW2  636   1.238   2.083   1.686  0.5641 -0.6178 -0.4996
  213SOL     OW  637   2.508   0.081   1.764  0.2039 -0.0568 -0.3999
  213SOL    HW1  638   2.447   0.119   1.838  2.2165 -0.1232 -0.7863
  213SOL    HW2  639   2.601   0.125   1.783  2.2289  1.0063  2.3054
  214SOL     OW  640   0.737   1.948   1.687  0.4945 -0.1104  0.0532
  214SOL    HW1  641   0.739   1.997   1.779 -0.4611  2.4518 -1.0024
  214SOL    HW2  642   0.783   2.007   1.618 -2.8388 -0.0729 -1.1104
  215SOL     OW  643   2.734   2.024   1.192 -0.5605 -0.0375 -0.0321
  215SOL    HW1  644   2.656   2.085   1.187 -0.0522  0.2417 -1.0299
  215SOL    HW2  645   2.705   1.939   1.236  1.1872  1.4656 -1.3978
  216SOL     OW  646   0.073   0.982   1.560  0.2339  0.5944  0.1175
  216SOL    HW1  647   0.174   1.010   1.564  1.3271 -1.0194  1.3503
  216SOL    HW2  648   0.059   0.895   1.617  1.4049 -0.5871 -4.8556
  217SOL     OW  649   2.737   0.216   1.222 -0.0530 -0.0709  0.8679
  217SOL    HW1  650   2.836   0.217   1.208  1.6368 -0.1473  0.2910
  217SOL    HW2  651   2.710   0.243   1.315  0.8724 -1.1663 -0.7355
  218SOL     OW  652   1.314   2.170   1.190 -0.1349 -0.2582 -0.2076
  218SOL    HW1  653   1.400   2.145   1.234 -0.4113  0.0818 -0.9219
  218SOL    HW2  654   1.313   2.179   1.090 -1.3128  0.6488  0.8575
  219SOL     OW  655   1.465   2.296   0.288  0.8678 -0.5307  0.2207
  219SOL    HW1  656   1.556   2.321   0.248  3.0684 -0.8494 -0.2441
  219SOL    HW2  657   1.468   2.300   0.390 -0.3293  2.1168  2.3301
  220SOL     OW  658   1.751   2.375   0.192  0.3544 -0.0378  0.0707
  220SOL    HW1  659   1.746   2.476   0.206 -2.0350  0.3354  1.3083
  220SOL    HW2  660   1.821   2.328   0.245 -4.2579 -0.1326 -0.3622
  221SOL     OW  661   2.965   2.085   1.078  0.6285  0.0904  0.4825
  221SOL    HW1  662   3.056   2.064   1.120  0.2924 -0.1043 -1.7330
  221SOL    HW2  663   2.888   2.044   1.123  0.8571  1.0979  0.6337
  222SOL     OW  664   1.202   2.402   0.947 -0.4252  0.0355 -0.1520
  222SOL    HW1  665   1.253   2.330   0.898 -1.7125 -1.4268 -1.0976
  222SOL    HW2  666   1.101   2.383   0.947  0.5294 -1.2358  0.3579
  223SOL     OW  667   0.939   2.710   2.353 -0.1389 -0.1463  0.1147
  223SOL    HW1  668   1.027   2.665   2.364 -0.9960  2.4709  0.7144
  223SOL    HW2  669   0.897   2.696   2.258 -0.9045 -2.9562 -3.0057
  224SOL     OW  670   2.689   1.350   1.092  0.4086 -0.4816  0.3516
  224SOL    HW1  671   2.668   1.452   1.074 -0.9951  1.3433 -1.2257
  224SOL    HW2  672   2.758   1.340   1.168 -0.4425  0.4356  0.2412
  225SOL     OW  673   2.370   1.737   0.909  0.6702  0.1957 -0.2742
  225SOL    HW1  674   2.443   1.811   0.902  1.9184 -1.0058  0.5747
  225SOL    HW2  675   2.394   1.666   0.842  0.9043 -2.4966  0.3294
  226SOL     OW  676   1.327   2.698   0.555 -0.4732  0.2628 -0.3199
  226SOL    HW1  677   1.428   2.682   0.538  1.8154  0.6117  1.6108
  226SOL    HW2  678   1.299   2.673   0.648 -2.3116  1.9481  1.1412
  227SOL     OW  679   1.334   1.060   1.406 -0.2919  0.2119 -0.5257
  227SOL    HW1  680   1.264   1.068   1.337  3.7463 -0.9039 -1.1458
  227SOL    HW2  681   1.395   1.140   1.415 -1.5133  1.4201  1.2787
  228SOL     OW  682   1.393   0.680   2.221 -0.0779 -0.2262  0.0390
  228SOL    HW1  683   1.415   0.712   2.128  0.3047 -2.3648 -2.7166
  228SOL    HW2  684   1.469   0.622   2.258 -2.1674 -2.7469  0.7230
  229SOL     OW  685   2.655   0.960   2.880  0.4089 -0.4479  0.7585
  229SOL    HW1  686   2.713   0.878   2.875  0.3965  1.9287  0.1133
  229SOL    HW2  687   2.556   0.933   2.854 -1.6392 -0.3635  1.5146
  230SOL     OW  688   1.133   1.305   0.791 -0.4862  0.4599 -0.4062
  230SOL    HW1  689   1.180   1.286   0.875 -0.5144 -0.0115 -1.8729
  230SOL    HW2  690   1.129   1.406   0.768 -2.9083  2.3007 -1.1157
  231SOL     OW  691   2.405   3.072   2.279 -0.4291  0.3705 -0.0815
  231SOL    HW1  692   2.376   2.972   2.265 -2.3039 -0.5408 -0.5184
  231SOL    HW2  693   2.358   3.116   2.356  3.0786  0.7804 -0.5153
  232SOL     OW  694   0.499   2.058   0.152  0.2656 -0.3056 -0.3100
  232SOL    HW1  695   0.506   2.089   0.251 -1.4874  1.7080  0.4971
  232SOL    HW2  696   0.574   2.100   0.097  0.3743  2.7414  0.0550
  233SOL     OW  697   1.584   2.447   2.564  0.2223 -0.1778 -0.4920
  233SOL    HW1  698   1.543   2.425   2.651 -0.0505 -2.0958 -1.0393
  233SOL    HW2  699   1.637   2.365   2.530  1.1992  0.7415 -2.3172
  234SOL     OW  700   1.165   1.260   1.797  0.1543 -0.3770  0.7726
  234SOL    HW1  701   1.195   1.355   1.806 -2.8559 -0.4812  0.9182
  234SOL    HW2  702   1.063   1.263   1.821  0.5560 -0.5266 -1.1831
  235SOL     OW  703   0.482   1.916   1.808  0.2153 -0.1349 -0.7788
  235SOL    HW1  704   0.573   1.926   1.768  1.2166  0.4479 -1.4038
  235SOL    HW2  705   0.409   1.985   1.786  0.8136 -0.0337 -0.3203
  236SOL     OW  706   1.922   2.934   2.733 -0.2269 -0.4185  0.1336
  236SOL    HW1  707   1.824   2.951   2.710 -0.9305  1.5882 -1.0763
  236SOL    HW2  708   1.973   3.022   2.746  4.4905 -0.0028 -1.8382
  237SOL     OW  709   1.473   0.100   0.723  0.0265  0.0394 -0.0975
  237SOL    HW1  710   1.431   0.006   0.720 -1.4778 -0.8270 -0.4331
  237SOL    HW2  711   1.544   0.101   0.800 -0.2484 -0.5281  1.6800
  238SOL     OW  712   1.041   0.778   2.898  0.8038 -1.2754  0.0553
  238SOL    HW1  713   1.006   0.870   2.930  4.2579  0.2456  0.0699
  238SOL    HW2  714   1.113   0.744   2.952  0.7289 -0.5551 -1.6111
  239SOL     OW  715   0.902   0.161   2.053  0.0942 -0.1483 -0.4589
  239SOL    HW1  716   0.803   0.140   2.032 -2.6837  1.0230 -0.8815
  239SOL    HW2  717   0.915   0.263   2.044  1.3160  0.5923  0.1300
  240SOL     OW  718   2.149   2.569   0.791 -0.9798  0.3134  0.0553
  240SOL    HW1  719   2.221   2.498   0.777 -0.3204  0.6639 -0.7837
  240SOL    HW2  720   2.060   2.516   0.814  1.1622 -1.3559 -1.7994
  241SOL     OW  721   1.315   1.408   1.389  0.1098 -0.5402 -0.2681
  241SOL    HW1  722   1.218   1.389   1.414 -0.0912 -0.9167 -1.4191
  241SOL    HW2  723   1.335   1.506   1.391 -0.2386  0.1152  0.8665
  242SOL     OW  724   0.259   0.735   0.920 -0.0817 -0.2914  0.1223
  242SOL    HW1  725   0.167   0.738   0.869  2.7664 -3.3923  0.2111
  242SOL    HW2  726   0.330   0.710   0.848 -0.6128 -1.5704  0.1980
  243SOL     OW  727   0.498   0.655   1.549 -0.5395 -0.0898 -0.0667
  243SOL    HW1  728   0.471   0.739   1.496 -1.7914  0.6596 -0.6290
  243SOL    HW2  729   0.568   0.602   1.500 -1.9924 -1.8518  0.6654
  244SOL     OW  730   1.176   0.615   3.053  0.1664 -0.2756  0.1539
  244SOL    HW1  731   1.138   0.536   3.103  0.8930 -0.7854  1.3254
  244SOL    HW2  732   1.248   0.650   3.113 -2.0827  2.1335  0.8492
  245SOL     OW  733   2.186   0.231   3.050 -0.0028 -0.0087 -0.5370
  245SOL    HW1  734   2.177   0.166   0.010 -0.0148  1.0221 -0.8679
  245SOL    HW2  735   2.231   0.320   3.078  0.7990  0.7936 -0.1691
  246SOL     OW  736   0.505   1.025   1.883 -0.1824 -0.7368  0.4475
  246SOL    HW1  737   0.433   0.958   1.861 -1.5786  1.5197 -0.4203
  246SOL    HW2  738   0.584   1.013   1.818  3.9528 -1.5825  1.0881
  247SOL     OW  739   0.613   0.020   2.302  0.5141 -0.6840  0.1718
  247SOL    HW1  740   0.664   0.011   2.215  1.5125  1.8627 -2.3691
  247SOL    HW2  741   0.635   0.111   2.348 -2.6477  0.4435  1.9121
  248SOL     OW  742   0.321   1.530   2.268  0.2849  0.1615 -0.1103
  248SOL    HW1  743   0.302   1.545   2.170  0.3286 -2.6349  3.5540
  248SOL    HW2  744   0.389   1.596   2.300 -2.7453 -2.6265  0.3342
  249SOL     OW  745   0.310   0.096   2.879  0.2520  0.2577  0.6395
  249SOL    HW1  746   0.354   0.180   2.843  0.0453  1.8465 -0.6337
  249SOL    HW2  747   0.288   0.035   2.794 -0.6919 -3.4989 -2.5284
  250SOL     OW  748   0.026   3.008   2.887 -0.1773 -0.2615  0.1445
  250SOL    HW1  749   0.044   3.097   2.939 -0.8525  1.0894  0.5716
  250SOL    HW2  750   3.094   3.023   2.800  0.1145  1.6335  0.8399
  251SOL     OW  751   0.192   1.559   1.014 -0.4640  0.0754 -0.4693
  251SOL    HW1  752   0.139   1.518   0.937 -0.1578  0.8602  2.8787
  251SOL    HW2  753   0.278   1.510   1.037 -1.7754  5.4864  1.0372
  252SOL     OW  754   1.446   2.825   2.120 -0.3366 -0.0927  0.3995
  252SOL    HW1  755   1.453   2.928   2.126 -0.4459 -0.8003  2.4008
  252SOL    HW2  756   1.515   2.785   2.184  1.3385  0.8820  0.2670
  253SOL     OW  757   2.058   1.886   2.678  0.1166  0.0959  0.3523
  253SOL    HW1  758   2.077   1.947   2.595 -0.7676 -1.1456 -2.9246
  253SOL    HW2  759   1.974   1.916   2.727 -2.1055 -1.1799  1.3146
  254SOL     OW  760   0.414   1.500   1.975 -0.1140  0.6329  0.3362
  254SOL    HW1  761   0.406   1.407   1.929 -0.8799 -1.4349 -1.2465
  254SOL    HW2  762   0.509   1.523   1.998 -0.8542 -1.9925 -0.8120
  255SOL     OW  763   1.179   0.086   1.492  0.0793 -0.2945 -0.3204
  255SOL    HW1  764   1.225   0.035   1.562  1.8276 -0.9968 -0.0525
  255SOL    HW2  765   1.237   0.161   1.459 -1.6684  0.1890  1.8939
  256SOL     OW  766   2.858   2.459   1.432  0.4756 -0.2986 -0.7948
  256SOL    HW1  767   2.854   2.509   1.520  1.9726 -1.7878 -0.8979
  256SOL    HW2  768   2.765   2.440   1.396  1.9629  1.1152  0.7578
  257SOL     OW  769   0.477   2.630   0.068  0.2178  0.2877 -0.5390
  257SOL    HW1  770   0.490   2.546   0.126 -1.4201  3.9499  3.1959
  257SOL    HW2  771   0.396   2.618   0.017  1.3835  0.7051  3.2029
  258SOL     OW  772   0.894   1.878   2.221  0.3394  0.2030  0.2296
  258SOL    HW1  773   0.911   1.879   2.120  2.9945  2.0975  0.2382
  258SOL    HW2  774   0.833   1.957   2.249  3.4099  1.2933  0.7725
  259SOL     OW  775   0.966   1.692   2.692  0.2700 -0.3564 -0.3257
  259SOL    HW1  776   0.945   1.793   2.661  1.3316  2.5903 -0.4859
  259SOL    HW2  777   0.983   1.686   2.795 -1.5710  0.5426 -0.3371
  260SOL     OW  778   2.474   0.663   2.319  0.1283 -0.1650  0.1785
  260SOL    HW1  779   2.427   0.751   2.323  2.4238 -1.9235 -1.5011
  260SOL    HW2  780   2.417   0.584   2.287  1.7320  2.5032 -1.3456
  261SOL     OW  781   1.195   0.904   0.857  0.1031  0.1396 -0.4111
  261SOL    HW1  782   1.131   0.833   0.893  2.4434  1.0903  0.2974
  261SOL    HW2  783   1.240   0.958   0.929  0.5416 -3.2504  0.4085
  262SOL     OW  784   1.903   2.453   2.512 -0.3476 -0.9068 -0.3246
  262SOL    HW1  785   1.847   2.382   2.467  0.0595  0.8896 -1.2781
  262SOL    HW2  786   1.874   2.465   2.609  4.6623 -0.8216  1.0010
  263SOL     OW  787   0.261   2.097   0.466  0.2047 -0.1378  0.7620
  263SOL    HW1  788   0.358   2.091   0.482 -1.4101 -2.9524 -3.1464
  263SOL    HW2  789   0.231   2.045   0.383  1.3179  0.1226 -3.2783
  264SOL     OW  790   0.074   2.434   0.829  0.5323  0.3722 -0.3137
  264SOL    HW1  791   0.158   2.391   0.867  0.5869 -1.5164 -2.5779
  264SOL    HW2  792   3.117   2.365   0.832 -1.2025 -0.7782 -0.9686
  265SOL     OW  793   0.428   1.382   0.419 -0.0401  0.3918  0.2327
  265SOL    HW1  794   0.412   1.373   0.519 -0.3809  2.6852 -0.3104
  265SOL    HW2  795   0.506   1.326   0.385  0.6210  0.5462 -0.3705
  266SOL     OW  796   0.746   1.776   2.435  0.1748  0.5536 -0.4341
  266SOL    HW1  797   0.763   1.832   2.516 -3.1490  1.3533  1.1399
  266SOL    HW2  798   0.813   1.798   2.361  3.4654 -0.4006 -0.9542
  267SOL     OW  799   1.471   0.517   2.631 -0.4219  0.4597 -0.4541
  267SOL    HW1  800   1.398   0.480   2.569 -1.3073  0.8601  1.6143
  267SOL    HW2  801   1.511   0.443   2.693 -2.9690 -1.3618 -0.0710
  268SOL     OW  802   0.498   0.906   3.092  0.0152  0.1300  0.4693
  268SOL    HW1  803   0.444   0.873   3.013  1.6709  1.1601 -0.9886
  268SOL    HW2  804   0.432   0.953   0.037 -0.4359  0.9222 -1.1473
  269SOL     OW  805   2.372   2.291   2.395  0.1164 -0.3403 -0.7011
  269SOL    HW1  806   2.410   2.199   2.408 -2.2243  1.6422 -2.8845
  269SOL    HW2  807   2.373   2.310   2.297  1.7653  1.4623 -0.6674
  270SOL     OW  808   1.615   1.577   2.969 -0.3163 -1.3068  0.2686
  270SOL    HW1  809   1.615   1.598   2.863 -3.0689  0.8185 -5.8015
  270SOL    HW2  810   1.687   1.510   2.999 -1.6025  2.4475 -2.3368
  271SOL     OW  811   0.398   0.182   3.114  0.9244 -0.2044  0.2388
  271SOL    HW1  812   0.488   0.166   0.039  0.5847 -2.0819  2.3294
  271SOL    HW2  813   0.395   0.126   3.030  2.0037  1.1968 -0.1960
  272SOL     OW  814   2.792   0.576   0.314 -0.1841 -0.1486  0.4032
  272SOL    HW1  815   2.865   0.539   0.377  1.2072  0.1565 -4.4848
  272SOL    HW2  816   2.717   0.628   0.362  0.3711  1.3952  0.5432
  273SOL     OW  817   0.505   2.703   1.943  0.5818  0.1200 -0.2468
  273SOL    HW1  818   0.516   2.794   1.897  0.1328 -0.4875  0.5163
  273SOL    HW2  819   0.418   2.652   1.918  0.5952 -1.2910  1.5246
  274SOL     OW  820   0.068   0.771   1.715 -0.4666  0.0681  0.6627
  274SOL    HW1  821   0.026   0.738   1.804 -1.1886  0.9808 -1.2927
  274SOL    HW2  822   0.038   0.715   1.635  1.4741  1.1860  2.0425
  275SOL     OW  823   0.649   1.509   0.652  0.4719  0.0426 -0.4360
  275SOL    HW1  824   0.697   1.450   0.582 -0.4215 -3.3865  0.5186
  275SOL    HW2  825   0.717   1.514   0.728  2.7072 -1.8974  0.4178
  276SOL     OW  826   0.601   0.773   2.121 -0.4042 -0.3762  0.6196
  276SOL    HW1  827   0.559   0.858   2.084 -2.8402 -1.5728  1.8603
  276SOL    HW2  828   0.622   0.779   2.222  0.8755  0.5313  0.1206
  277SOL     OW  829   1.281   2.475   1.907 -0.0562  0.8486  0.5745
  277SOL    HW1  830   1.208   2.466   1.836 -2.4699 -0.3895 -0.2154
  277SOL    HW2  831   1.313   2.380   1.926  2.3189 -1.8378  2.3197
  278SOL     OW  832   1.673   2.773   1.929 -0.0171  0.4265 -0.2675
  278SOL    HW1  833   1.581   2.731   1.933  1.4174  0.3725 -2.0753
  278SOL    HW2  834   1.684   2.818   2.022  0.7741  1.9488  2.7970
  279SOL     OW  835   1.228   1.525   0.397 -0.0495  0.5052  0.1244
  279SOL    HW1  836   1.204   1.559   0.308 -1.8326 -1.5962 -0.1587
  279SOL    HW2  837   1.244   1.423   0.406  0.5613 -2.1316 -0.7730
  280SOL     OW  838   0.879   1.346   0.156  0.1696 -0.2065 -0.2753
  280SOL    HW1  839   0.927   1.356   0.071 -1.2848 -2.9841 -0.8971
  280SOL    HW2  840   0.866   1.433   0.202 -0.4893 -2.5095 -1.6526
  281SOL     OW  841   0.221   0.394   1.436 -0.3222 -0.4206 -0.0392
  281SOL    HW1  842   0.153   0.470   1.454 -2.5270  1.4701  0.1525
  281SOL    HW2  843   0.265   0.399   1.343  0.1387  1.1682 -0.1952
  282SOL     OW  844   0.137   2.581   0.597 -0.1921  0.2846 -0.4502
  282SOL    HW1  845   0.082   2.560   0.515 -1.6834 -1.6335  0.0425
  282SOL    HW2  846   0.098   2.537   0.681  0.8638 -1.0450 -0.1556
  283SOL     OW  847   1.449   2.049   2.264  0.1284  0.0636  0.9088
  283SOL    HW1  848   1.546   2.075   2.242 -0.2716  0.0827  0.9606
  283SOL    HW2  849   1.445   1.953   2.311  1.9764 -2.3354  2.7093
  284SOL     OW  850   2.275   2.942   0.891  0.1667 -0.2272  0.1016
  284SOL    HW1  851   2.261   3.012   0.967 -0.3066  1.8494  2.2037
  284SOL    HW2  852   2.299   2.847   0.924 -0.8967 -2.1332 -2.1091
  285SOL     OW  853   0.605   2.297   2.596  0.5879  0.2323  0.0271
  285SOL    HW1  854   0.557   2.368   2.540 -0.4409 -1.0118  0.5809
  285SOL    HW2  855   0.707   2.323   2.591  4.1101  0.5560  1.6135
  286SOL     OW  856   3.022   2.850   0.816  0.1641  0.0948  0.2033
  286SOL    HW1  857   2.928   2.891   0.803  0.5796  2.0683  0.4092
  286SOL    HW2  858   3.042   2.821   0.911  1.0798  0.1073  1.7902
  287SOL     OW  859   0.878   1.229   0.919  0.3960  0.0829  0.2988
  287SOL    HW1  860   0.962   1.239   0.859  3.2068 -0.7016  1.3822
  287SOL    HW2  861   0.863   1.319   0.967  0.7574  1.9705  1.0481
  288SOL     OW  862   2.235   2.105   2.832 -0.0611  0.1113 -0.2002
  288SOL    HW1  863   2.206   2.027   2.778  2.4660  0.4447 -0.0061
  288SOL    HW2  864   2.255   2.177   2.764  0.0472 -0.0417  3.0186
  289SOL     OW  865   3.108   2.168   2.755 -0.0083  0.2872 -0.0452
  289SOL    HW1  866   3.013   2.142   2.782  1.0848 -0.2697  1.1669
  289SOL    HW2  867   0.048   2.090   2.730 -2.4607  1.5990 -0.1979
  290SOL     OW  868   1.370   1.687   1.358  0.2607  0.5601  0.3550
  290SOL    HW1  869   1.454   1.702   1.301 -1.7462 -0.3822  1.5306
  290SOL    HW2  870   1.302   1.760   1.347  1.0042 -1.5009 -0.7693
  291SOL     OW  871   1.538   1.292   3.071 -0.4581 -0.0565  0.0831
  291SOL    HW1  872   1.486   1.377   3.047  0.4984  2.6787  0.1963
  291SOL    HW2  873   1.470   1.219   3.056 -0.5428  1.3089 -0.7125
  292SOL     OW  874   0.833   1.608   0.292  0.2264 -0.2890  0.1475
  292SOL    HW1  875   0.880   1.591   0.382 -1.5408 -1.7644  1.0488
  292SOL    HW2  876   0.732   1.599   0.301 -1.1296  1.0345  0.7953
  293SOL     OW  877   1.586   2.915   0.933  0.1679 -0.2034 -0.7006
  293SOL    HW1  878   1.519   2.948   1.004  0.9259 -1.1314 -2.5013
  293SOL    HW2  879   1.617   2.993   0.880  0.5258 -3.1158  0.6022
  294SOL     OW  880   2.128   1.358   2.830  0.7116 -0.1849  0.1284
  294SOL    HW1  881   2.110   1.266   2.789  2.6839 -1.0847  1.5054
  294SOL    HW2  882   2.049   1.384   2.889  0.3552  0.9727  0.6688
  295SOL     OW  883   1.832   1.881   3.063 -0.2363 -0.6722  0.4426
  295SOL    HW1  884   1.737   1.874   3.095 -1.3496  1.7529 -1.3773
  295SOL    HW2  885   1.836   1.965   3.005  0.2947  3.2251 -1.7110
  296SOL     OW  886   1.688   0.723   1.819 -0.6628 -0.6899 -0.5144
  296SOL    HW1  887   1.707   0.751   1.723 -0.5311 -0.4865  2.2019
  296SOL    HW2  888   1.776   0.736   1.871 -0.3827  0.2028  1.8115
  297SOL     OW  889   3.024   0.755   2.030  0.1107 -0.1604 -0.3431
  297SOL    HW1  890   2.933   0.774   1.979  1.5143  2.1425 -1.4595
  297SOL    HW2  891   3.068   0.832   2.071 -2.3400 -4.4141 -0.6165
  298SOL     OW  892   0.888   1.785   1.852  0.7930  0.0943 -0.4217
  298SOL    HW1  893   0.986   1.804   1.840 -2.1647  1.7185  0.6377
  298SOL    HW2  894   0.827   1.840   1.787 -2.7216  1.9104 -2.3856
  299SOL     OW  895   1.242   0.112   2.671  0.1619 -0.5195  0.3009
  299SOL    HW1  896   1.334   0.148   2.637  0.9659 -0.8334 -1.3608
  299SOL    HW2  897   1.202   0.044   2.600  0.2870 -0.0697 -1.6581
  300SOL     OW  898   3.051   1.085   3.100  0.1016 -0.5000  0.6254
  300SOL    HW1  899   2.966   1.042   0.012 -1.5231  1.3037 -1.8783
  300SOL    HW2  900   3.114   1.107   0.060  1.4905 -0.9512  1.8469
  301SOL     OW  901   1.820   0.838   2.476  0.1499 -0.2025  0.1010
  301SOL    HW1  902   1.787   0.751   2.508 -0.5215 -0.6881  1.2194
  301SOL    HW2  903   1.748   0.906   2.476 -1.5572 -0.6209 -0.9979
  302SOL     OW  904   2.555   1.824   2.625  0.3426 -0.2114 -0.0955
  302SOL    HW1  905   2.521   1.918   2.615 -1.6256 -1.8880  1.5033
  302SOL    HW2  906   2.649   1.814   2.670  3.6079 -0.5347 -0.8783
  303SOL     OW  907   0.486   2.152   2.800 -0.5369  0.5996  0.2680
  303SOL    HW1  908   0.512   2.192   2.708  3.8836  0.1487 -0.8422
  303SOL    HW2  909   0.449   2.216   2.866 -1.6863 -0.3916 -0.5224
  304SOL     OW  910   0.018   1.289   1.500  0.6596 -0.1617  0.3124
  304SOL    HW1  911   0.028   1.312   1.399 -0.8300  2.0914 -0.2639
  304SOL    HW2  912   0.042   1.193   1.529  1.9207 -2.8999 -1.5251
  305SOL     OW  913   2.547   0.571   1.889  0.5144 -0.4500  0.4343
  305SOL    HW1  914   2.468   0.527   1.937  0.2051 -0.1102  3.1459
  305SOL    HW2  915   2.628   0.566   1.955  1.9009 -0.8317  1.9432
  306SOL     OW  916   2.178   1.424   1.725  0.4598  0.1139  0.0813
  306SOL    HW1  917   2.240   1.492   1.677  0.6116  0.4579 -1.7101
  306SOL    HW2  918   2.089   1.411   1.677  1.6714  2.4653 -0.1624
  307SOL     OW  919   2.765   3.053   1.040 -0.4789 -0.1283 -0.0097
  307SOL    HW1  920   2.709   3.010   1.114  1.4018 -0.3867  1.4333
  307SOL    HW2  921   2.845   3.097   1.084 -2.7959 -1.3649 -3.2347
  308SOL     OW  922   0.056   1.747   1.723 -0.7724 -0.1617 -0.1389
  308SOL    HW1  923   3.100   1.722   1.787  1.7436 -0.3899  1.8713
  308SOL    HW2  924   0.149   1.721   1.769  2.1111 -3.3929  1.9763
  309SOL     OW  925   2.377   2.399   1.922 -0.2513 -0.0332 -0.4735
  309SOL    HW1  926   2.302   2.453   1.965  1.9777 -0.4586  2.1065
  309SOL    HW2  927   2.346   2.355   1.835  1.0696  0.6150  3.7765
  310SOL     OW  928   2.351   1.464   2.703 -0.3399 -0.2997  0.3608
  310SOL    HW1  929   2.343   1.556   2.666 -0.1012 -0.1884 -0.8703
  310SOL    HW2  930   2.261   1.433   2.739 -0.7901 -0.5119  3.4009
  311SOL     OW  931   1.762   1.256   2.913 -0.3340  0.8345  0.7034
  311SOL    HW1  932   1.666   1.272   2.941  0.0341  0.2085  2.1362
  311SOL    HW2  933   1.775   1.167   2.861 -3.1349  3.0428 -0.9245
  312SOL     OW  934   1.213   2.076   2.400 -0.1151 -0.0445 -0.4128
  312SOL    HW1  935   1.301   2.071   2.347 -3.1793 -2.4747 -0.9075
  312SOL    HW2  936   1.227   2.061   2.497 -1.6350  0.3099 -0.1147
  313SOL     OW  937   0.232   0.117   0.766 -0.4068 -0.0112 -0.2657
  313SOL    HW1  938   0.178   0.150   0.688 -1.5546  2.1348  2.4626
  313SOL    HW2  939   0.211   0.168   0.856 -0.9099  0.6885 -0.6922
  314SOL     OW  940   0.535   2.091   1.154  0.3778 -0.0762 -0.1498
  314SOL    HW1  941   0.545   2.140   1.244 -1.1285  3.2899 -0.1989
  314SOL    HW2  942   0.505   1.994   1.162 -0.4229  3.2317 -2.8094
  315SOL     OW  943   0.483   2.192   2.191  0.0316 -0.6145 -0.4407
  315SOL    HW1  944   0.468   2.094   2.170 -0.6098 -1.6516  0.9992
  315SOL    HW2  945   0.477   2.253   2.111  2.3480 -0.3153  3.6464
  316SOL     OW  946   0.325   2.616   0.890 -0.2146 -0.7804 -0.2273
  316SOL    HW1  947   0.281   2.649   0.976  0.8034 -0.0036 -0.4579
  316SOL    HW2  948   0.258   2.620   0.812 -1.6232 -1.5805 -2.5349
  317SOL     OW  949   2.584   3.043   1.315  0.7193 -0.4759 -0.1048
  317SOL    HW1  950   2.524   0.001   1.280 -2.9678 -0.3553  0.6039
  317SOL    HW2  951   2.666   3.077   1.361  0.0199  0.6046  0.1119
  318SOL     OW  952   2.214   2.405   0.305  0.0212 -0.1635 -0.4708
  318SOL    HW1  953   2.228   2.303   0.308  0.1729  0.2308  1.4080
  318SOL    HW2  954   2.300   2.454   0.307 -2.2784 -0.0619  2.3278
  319SOL     OW  955   1.251   1.610   2.763  0.0148 -0.3870  0.0829
  319SOL    HW1  956   1.250   1.702   2.726 -0.1393 -2.8569  0.3454
  319SOL    HW2  957   1.271   1.543   2.691  3.1897 -0.2363 -2.5122
  320SOL     OW  958   0.473   2.439   2.378  0.5546  0.6691  0.4313
  320SOL    HW1  959   0.488   2.350   2.331  0.2041 -1.3260  0.2802
  320SOL    HW2  960   0.391   2.485   2.342  1.8834  1.0541 -3.3206
  321SOL     OW  961   0.831   2.462   3.080 -1.2712 -0.1589  0.1304
  321SOL    HW1  962   0.916   2.500   3.118  2.1730 -0.1895 -0.2613
  321SOL    HW2  963   0.843   2.388   3.010  0.5933 -0.0793 -1.0240
  322SOL     OW  964   2.582   0.282   2.241 -0.0372 -0.5732  0.3575
  322SOL    HW1  965   2.564   0.211   2.171  0.1902  1.5193 -1.4412
  322SOL    HW2  966   2.648   0.254   2.314  1.8317 -2.6388  1.3799
  323SOL     OW  967   2.748   1.191   0.903  0.1254 -0.1215  0.1899
  323SOL    HW1  968   2.747   1.233   0.999 -1.3344  0.3198  0.4764
  323SOL    HW2  969   2.766   1.091   0.900  1.1940  1.5181  0.4799
  324SOL     OW  970   0.331   0.831   1.808  0.1707 -0.0008  0.3672
  324SOL    HW1  971   0.366   0.734   1.814 -0.2704 -2.4769 -1.2557
  324SOL    HW2  972   0.236   0.840   1.773 -0.0466  0.6653  0.1115
  325SOL     OW  973   0.622   0.118   2.038  0.4430 -0.2270 -0.6782
  325SOL    HW1  974   0.610   0.158   1.945  1.4099  2.6613 -0.7921
  325SOL    HW2  975   0.537   0.104   2.095  1.3729  1.8181 -0.3419
  326SOL     OW  976   2.101   2.600   0.122  0.2816  0.0019  0.0415
  326SOL    HW1  977   2.026   2.653   0.159  1.7391  1.3232 -1.3372
  326SOL    HW2  978   2.113   2.525   0.192 -0.0072 -2.3390  2.8456
  327SOL     OW  979   2.234   1.406   0.463 -0.0014 -0.1740 -0.5035
  327SOL    HW1  980   2.281   1.493   0.479 -0.1117  2.8844  0.3256
  327SOL    HW2  981   2.271   1.361   0.376  2.3243  0.1986 -0.4380
  328SOL     OW  982   3.037   1.861   2.587 -0.5653 -0.1559  0.1708
  328SOL    HW1  983   3.029   1.792   2.660  1.7697 -0.6110 -0.5059
  328SOL    HW2  984   0.005   1.911   2.606  0.6680  0.2553  0.9935
  329SOL     OW  985   0.382   2.220   1.580  0.0361  0.2665 -0.5062
  329SOL    HW1  986   0.332   2.227   1.492  2.7724  1.8436 -0.9581
  329SOL    HW2  987   0.321   2.186   1.655  2.2385  1.7266  1.3410
  330SOL     OW  988   2.564   1.267   2.653  0.8545  0.0102 -0.5079
  330SOL    HW1  989   2.512   1.349   2.683  1.3541  0.0929  2.1076
  330SOL    HW2  990   2.506   1.197   2.606  0.2082 -0.1088 -1.2052
  331SOL     OW  991   2.268   2.679   0.991 -0.0519 -0.2791 -0.1987
  331SOL    HW1  992   2.197   2.673   1.068  0.6860  0.5838  1.4313
  331SOL    HW2  993   2.222   2.635   0.911 -1.7672 -1.3446  0.1435
  332SOL     OW  994   0.433   2.905   0.768 -0.1672  0.2766  0.4387
  332SOL    HW1  995   0.367   2.881   0.839  3.9472 -0.5108 -0.3804
  332SOL    HW2  996   0.520   2.851   0.775  1.4658  2.9932  2.4515
  333SOL     OW  997   2.269   2.337   2.651 -0.1041 -0.2672 -0.2338
  333SOL    HW1  998   2.176   2.379   2.648  0.2664  1.6668 -0.7492
  333SOL    HW2  999   2.312   2.316   2.556  2.6328 -2.6143 -0.4608
  334SOL     OW 1000   0.497   1.138   0.823 -0.4032 -0.1552  0.2587
  334SOL    HW1 1001   0.419   1.084   0.850  1.0666  2.6529 -0.8648
  334SOL    HW2 1002   0.584   1.086   0.833 -1.5340  1.8783  1.2002
  335SOL     OW 1003   2.813   1.881   2.442  0.0536  0.5766 -0.5012
  335SOL    HW1 1004   2.892   1.891   2.506 -0.1379 -1.2732  3.0528
  335SOL    HW2 1005   2.773   1.788   2.443  0.4293  1.4509  0.7004
  336SOL     OW 1006   2.248   2.930   2.049  0.1105  0.0320  0.5632
  336SOL    HW1 1007   2.313   2.855   2.076 -1.0964 -0.8283  1.1972
  336SOL    HW2 1008   2.209   2.906   1.957 -0.6917  0.4625 -0.7150
  337SOL     OW 1009   0.896   1.004   1.097 -0.1427 -0.3612 -0.0022
  337SOL    HW1 1010   0.940   0.931   1.036 -1.1326 -1.3211  1.2887
  337SOL    HW2 1011   0.894   1.095   1.049  1.1406  3.7524 -0.1418
  338SOL     OW 1012   1.234   1.912   1.228  0.1421  0.1020 -0.0942
  338SOL    HW1 1013   1.215   1.870   1.134 -0.8362 -1.2950 -0.6426
  338SOL    HW2 1014   1.252   2.016   1.222  0.1354  1.4809 -0.1502
  339SOL     OW 1015   0.084   1.801   1.433  0.1732 -0.4938 -0.3418
  339SOL    HW1 1016   0.070   1.835   1.528 -1.1380  1.4534  1.6325
  339SOL    HW2 1017   0.180   1.765   1.423  1.3635  2.7220 -0.6195
  340SOL     OW 1018   1.212   2.823   1.598  0.5562  0.2641 -0.8863
  340SOL    HW1 1019   1.249   2.918   1.623  3.0441  1.6038  0.3151
  340SOL    HW2 1020   1.129   2.791   1.649  0.0639 -1.2409  2.5943
  341SOL     OW 1021   1.553   1.723   1.172 -0.5763 -0.2834 -0.3435
  341SOL    HW1 1022   1.538   1.790   1.093 -0.2648  2.7548  0.6510
  341SOL    HW2 1023   1.648   1.733   1.208  1.3495 -0.1508  2.7134
  342SOL     OW 1024   2.601   1.619   1.084 -0.0689 -0.4881  0.1748
  342SOL    HW1 1025   2.687   1.659   1.044  0.6172 -1.5494  1.8768
  342SOL    HW2 1026   2.518   1.667   1.043 -2.4289  1.0086 -1.4718
  343SOL     OW 1027   2.488   0.553   1.157  0.2065 -0.6665 -0.4775
  343SOL    HW1 1028   2.570   0.565   1.096  0.8081 -0.7081  0.5519
  343SOL    HW2 1029   2.480   0.632   1.220 -1.7322  2.1156 -5.0963
  344SOL     OW 1030   2.297   0.289   0.698  0.0647  0.4297  0.1587
  344SOL    HW1 1031   2.381   0.240   0.726  0.4555 -0.5903 -2.1067
  344SOL    HW2 1032   2.294   0.296   0.601 -0.2483  0.5397  3.0209
  345SOL     OW 1033   0.994   2.552   2.044  0.2401 -0.0398 -0.4805
  345SOL    HW1 1034   1.075   2.585   2.101  2.4503  0.9761  1.5334
  345SOL    HW2 1035   1.023   2.516   1.956 -1.0938 -0.3223 -1.1366
  346SOL     OW 1036   2.882   2.324   0.974 -0.2349  0.1198 -0.0876
  346SOL    HW1 1037   2.918   2.234   1.014 -1.2113 -1.8668  0.0691
  346SOL    HW2 1038   2.806   2.310   0.910  0.3964  1.5994 -0.2886
  347SOL     OW 1039   2.090   0.128   1.517 -0.2355 -0.2460  0.2175
  347SOL    HW1 1040   2.103   0.035   1.555 -1.5039  1.0082  1.8911
  347SOL    HW2 1041   2.056   0.130   1.420  0.2690  2.6048 -1.3897
  348SOL     OW 1042   1.092   1.034   1.294  0.6740 -0.0171  0.6031
  348SOL    HW1 1043   1.026   1.022   1.221  0.0560  1.4749  3.7869
  348SOL    HW2 1044   1.084   0.953   1.358  1.6420 -0.0087  0.0066
  349SOL     OW 1045   2.293   0.399   1.922 -0.0664 -0.0247  0.1788
  349SOL    HW1 1046   2.224   0.444   1.982  1.2217  1.3973  0.5666
  349SOL    HW2 1047   2.301   0.301   1.927  1.0535  2.5585 -2.1833
  350SOL     OW 1048   2.124   2.297   0.579  0.0078 -0.0481 -0.0604
  350SOL    HW1 1049   2.210   2.333   0.628  2.3542  1.0621  3.5968
  350SOL    HW2 1050   2.133   2.327   0.480 -0.7084  1.8810 -0.4558
  351SOL     OW 1051   1.188   0.484   2.775 -0.1525  0.6412  0.0403
  351SOL    HW1 1052   1.137   0.395   2.782  1.2961  1.8008 -0.9522
  351SOL    HW2 1053   1.194   0.533   2.867  1.5252 -1.1708  3.5107
  352SOL     OW 1054   1.985   2.485   2.032  0.7364  0.7177  0.0608
  352SOL    HW1 1055   1.994   2.387   2.008  1.1875 -0.6051 -0.7706
  352SOL    HW2 1056   1.939   2.537   1.954 -2.0806 -0.5547 -1.6392
  353SOL     OW 1057   0.390   0.926   2.416  0.5325 -0.1301  0.0166
  353SOL    HW1 1058   0.340   0.934   2.326 -0.1823  1.7482  1.7779
  353SOL    HW2 1059   0.481   0.887   2.402 -0.0893  3.4160 -2.1225
  354SOL     OW 1060   0.559   2.963   2.619  0.1039  0.3755 -0.5421
  354SOL    HW1 1061   0.550   2.923   2.524 -0.5448  0.7288 -0.9339
  354SOL    HW2 1062   0.528   2.900   2.688 -0.7470  1.8429 -1.5543
  355SOL     OW 1063   2.029   2.685   1.173  0.3692  0.6039 -0.3022
  355SOL    HW1 1064   2.068   2.758   1.237 -0.5203  3.2245  1.3584
  355SOL    HW2 1065   1.959   2.719   1.106  1.1493 -1.0946  1.0883
  356SOL     OW 1066   2.542   0.684   0.404 -0.2734 -0.2233  0.1370
  356SOL    HW1 1067   2.514   0.773   0.443  1.5078 -1.7000 -3.3708
  356SOL    HW2 1068   2.460   0.623   0.411 -0.7826  2.2652  0.6918
  357SOL     OW 1069   0.311   3.072   1.833  0.2651  0.2584 -0.2567
  357SOL    HW1 1070   0.337   0.054   1.823  0.5511 -0.6707  0.2323
  357SOL    HW2 1071   0.230   3.069   1.896 -1.2226  0.2784 -0.0753
  358SOL     OW 1072   2.902   1.409   1.264 -0.1883  0.3042  0.2740
  358SOL    HW1 1073   2.982   1.345   1.259 -0.3004 -0.9062  0.8383
  358SOL    HW2 1074   2.932   1.505   1.268 -1.3407 -0.0356  0.5174
  359SOL     OW 1075   2.646   0.099   2.779  0.1806 -0.4380  0.0110
  359SOL    HW1 1076   2.608   0.046   2.702  2.5104 -1.5871 -0.9898
  359SOL    HW2 1077   2.701   0.045   2.845 -0.7762 -1.1098  1.8816
  360SOL     OW 1078   1.188   0.746   1.184 -0.0146 -0.0324 -0.2763
  360SOL    HW1 1079   1.121   0.672   1.211  1.4636 -0.1807  1.2149
  360SOL    HW2 1080   1.241   0.789   1.265  1.6796  0.4422  2.6727
  361SOL     OW 1081   2.788   2.553   1.671  0.2956  0.3641  0.1725
  361SOL    HW1 1082   2.801   2.549   1.772  0.0983 -2.5911 -0.9702
  361SOL    HW2 1083   2.689   2.545   1.643  2.0162  3.3695 -2.1943
  362SOL     OW 1084   1.306   0.301   0.670 -0.5136  0.0540 -0.1303
  362SOL    HW1 1085   1.378   0.225   0.658 -0.2752 -2.0277  0.2581
  362SOL    HW2 1086   1.273   0.305   0.767  3.1319 -0.2899  1.1909
  363SOL     OW 1087   2.007   1.599   0.803 -0.2474 -0.2928  0.5327
  363SOL    HW1 1088   2.034   1.499   0.790  1.4799 -1.3190 -2.4259
  363SOL    HW2 1089   1.917   1.622   0.768  1.4822 -0.0149  0.6973
  364SOL     OW 1090   0.679   0.822   1.688  0.4808 -0.2293 -0.2442
  364SOL    HW1 1091   0.720   0.789   1.777 -3.2149  0.5891 -0.2941
  364SOL    HW2 1092   0.606   0.760   1.655  3.0251  1.3471 -3.3406
  365SOL     OW 1093   3.115   0.316   1.029 -0.3315  0.0214 -0.4246
  365SOL    HW1 1094   0.099   0.298   1.027  3.4254 -1.7905  0.2877
  365SOL    HW2 1095   3.095   0.344   1.129  0.7418  1.7614  2.9761
  366SOL     OW 1096   2.852   1.027   0.383  0.2384  0.4058 -0.1712
  366SOL    HW1 1097   2.799   1.090   0.325  0.1893 -1.4113 -1.8660
  366SOL    HW2 1098   2.892   1.076   0.460  0.6676 -1.8751 -1.1877
  367SOL     OW 1099   2.111   2.007   2.442  0.5251  0.5019  0.1684
  367SOL    HW1 1100   2.108   2.103   2.405  0.1312  0.5060 -1.5873
  367SOL    HW2 1101   2.200   1.967   2.423 -0.7268  0.3045 -2.6370
  368SOL     OW 1102   2.405   2.181   0.907 -0.0666 -0.2971 -0.1385
  368SOL    HW1 1103   2.408   2.177   1.006  1.2542  2.6429  0.6790
  368SOL    HW2 1104   2.363   2.102   0.868  2.2741  2.9563  1.8378
  369SOL     OW 1105   2.238   0.106   2.801 -0.0916 -0.1610  0.1899
  369SOL    HW1 1106   2.211   0.172   2.872  0.4075  0.3080  0.6953
  369SOL    HW2 1107   2.276   0.014   2.827  1.6654 -1.2848 -0.6461
  370SOL     OW 1108   0.772   0.431   1.087 -0.4349 -0.2420 -0.0501
  370SOL    HW1 1109   0.715   0.360   1.047 -0.4755  2.2888  1.4847
  370SOL    HW2 1110   0.724   0.517   1.078 -0.6067  2.6862 -0.7179
  371SOL     OW 1111   0.250   1.698   0.191  0.2382  0.7172 -0.2949
  371SOL    HW1 1112   0.236   1.696   0.090  0.1021  1.6920 -0.4967
  371SOL    HW2 1113   0.348   1.685   0.217  0.7815  2.0956 -2.1874
  372SOL     OW 1114   0.617   0.794   2.385  0.5728  0.2330  0.5296
  372SOL    HW1 1115   0.571   0.701   2.404 -1.1051 -2.1015  0.4638
  372SOL    HW2 1116   0.710   0.793   2.425 -1.1111  1.1965 -1.4531
  373SOL     OW 1117   1.032   2.706   2.760  0.0810 -0.0381 -0.0864
  373SOL    HW1 1118   0.986   2.746   2.844 -0.3151  0.0277 -0.0184
  373SOL    HW2 1119   0.992   2.767   2.684  1.1651  0.8382 -3.0369
  374SOL     OW 1120   0.874   1.910   0.479 -0.0489 -0.2914 -0.3604
  374SOL    HW1 1121   0.936   1.851   0.534  0.1666  0.6946  2.3388
  374SOL    HW2 1122   0.795   1.852   0.455  0.5362  0.9366 -0.8543
  375SOL     OW 1123   0.764   0.695   1.914 -0.2562 -0.4993 -0.4750
  375SOL    HW1 1124   0.733   0.705   2.012 -0.2225 -2.1964  1.4946
  375SOL    HW2 1125   0.819   0.612   1.892 -1.1134 -0.8797  0.4487
  376SOL     OW 1126   2.980   2.423   2.023  0.1295 -0.3058 -0.3698
  376SOL    HW1 1127   2.985   2.507   1.973 -2.5093 -1.0048 -1.1353
  376SOL    HW2 1128   3.030   2.433   2.113 -1.8008  0.9068  0.7986
  377SOL     OW 1129   2.607   1.550   2.912  0.4710 -0.3566 -0.1189
  377SOL    HW1 1130   2.525   1.487   2.905  0.9618  1.6850  0.8187
  377SOL    HW2 1131   2.682   1.498   2.949 -2.7016 -1.2129  1.1931
  378SOL     OW 1132   2.349   2.988   2.973 -0.2674 -0.0193  0.3451
  378SOL    HW1 1133   2.269   2.955   3.027  2.0744 -0.9211 -0.2077
  378SOL    HW2 1134   2.408   3.047   3.037 -2.2521  0.9813  1.7008
  379SOL     OW 1135   1.908   0.618   0.661 -0.3715  0.7546 -0.0661
  379SOL    HW1 1136   1.959   0.683   0.720  1.4138 -0.8358 -1.8653
  379SOL    HW2 1137   1.820   0.595   0.705 -1.6361  0.1868  1.1024
  380SOL     OW 1138   2.523   1.967   1.678  0.0908  0.1229  0.1655
  380SOL    HW1 1139   2.548   2.007   1.771 -2.2717  1.7920  3.3500
  380SOL    HW2 1140   2.569   1.879   1.661 -3.5176  0.8048  0.9515
  381SOL     OW 1141   2.435   1.318   2.290 -0.9681  0.4969 -0.7852
  381SOL    HW1 1142   2.491   1.337   2.206  0.4815 -0.0073  0.5037
  381SOL    HW2 1143   2.383   1.400   2.319 -1.9062  0.4008 -0.8174
  382SOL     OW 1144   2.806   2.781   2.582  0.2225  0.1549 -0.4089
  382SOL    HW1 1145   2.750   2.725   2.649 -0.0631 -0.1016  1.4243
  382SOL    HW2 1146   2.753   2.828   2.509  0.7055 -0.5519 -1.8141
  383SOL     OW 1147   0.988   1.426   3.017 -0.3136  0.6917 -0.1451
  383SOL    HW1 1148   0.899   1.450   2.979  4.8023  1.1109 -1.2036
  383SOL    HW2 1149   1.046   1.507   3.015 -1.4599  0.1741 -0.1286
  384SOL     OW 1150   1.540   1.905   1.699 -0.2330 -0.1357  0.2469
  384SOL    HW1 1151   1.483   1.984   1.731 -1.3477 -0.5730  0.2739
  384SOL    HW2 1152   1.632   1.909   1.737 -3.8605  1.4310 -2.6273
  385SOL     OW 1153   1.766   2.866   0.544 -0.4106 -0.1552  0.1250
  385SOL    HW1 1154   1.719   2.952   0.519  0.4315 -1.2842  0.3713
  385SOL    HW2 1155   1.860   2.868   0.499  0.3510 -0.7178 -1.0952
  386SOL     OW 1156   1.964   1.351   0.432 -0.1276 -0.1529 -0.0889
  386SOL    HW1 1157   2.056   1.396   0.433  0.6022  1.0791  1.9304
  386SOL    HW2 1158   1.909   1.368   0.349 -1.9638 -1.9977  0.0508
  387SOL     OW 1159   2.862   2.097   1.488 -0.0828 -0.1087  0.3226
  387SOL    HW1 1160   2.849   2.122   1.583  1.8696  0.1981 -3.5791
  387SOL    HW2 1161   2.867   2.183   1.437  1.4966 -0.0457 -2.0357
  388SOL     OW 1162   2.965   1.095   1.678 -0.7533  0.5220 -0.1286
  388SOL    HW1 1163   3.001   1.118   1.770 -2.6579 -0.9934 -0.9238
  388SOL    HW2 1164   3.042   1.061   1.621  1.1190  2.0219  0.6600
  389SOL     OW 1165   1.789   0.427   0.009 -0.0436  0.1304  0.1373
  389SOL    HW1 1166   1.763   0.339   0.051  0.4882  0.9971 -0.7245
  389SOL    HW2 1167   1.832   0.486   0.081  0.0363  1.2415 -0.0443
  390SOL     OW 1168   1.046   1.710   2.964 -0.4867 -0.0821 -0.3218
  390SOL    HW1 1169   0.996   1.737   3.051  0.4740 -2.5349 -2.2965
  390SOL    HW2 1170   1.095   1.792   2.923 -1.0279  2.4637 -0.7273
  391SOL     OW 1171   1.315   2.120   0.153 -0.0934 -0.0743  0.2530
  391SOL    HW1 1172   1.369   2.191   0.207  1.2721 -0.5549  0.3004
  391SOL    HW2 1173   1.363   2.086   0.068 -1.2435  1.6697 -3.3260
  392SOL     OW 1174   3.087   2.421   2.289 -0.4523 -0.6974 -0.0323
  392SOL    HW1 1175   0.051   2.461   2.258 -2.7394 -1.7530 -2.3427
  392SOL    HW2 1176   3.102   2.369   2.372 -0.2513 -1.9387 -0.9462
  393SOL     OW 1177   1.402   1.987   0.420 -0.5959 -0.4647 -0.2314
  393SOL    HW1 1178   1.497   2.018   0.420 -1.3377 -0.5860  0.3904
  393SOL    HW2 1179   1.357   2.014   0.334 -0.0016  0.8857 -1.0388
  394SOL     OW 1180   0.538   0.523   2.157 -0.4167  0.7502  0.0961
  394SOL    HW1 1181   0.552   0.622   2.148 -1.8949  0.2896  0.8756
  394SOL    HW2 1182   0.571   0.492   2.249  2.4394  0.6732 -2.0961
  395SOL     OW 1183   0.665   1.358   1.375 -0.7349  0.2190  0.2594
  395SOL    HW1 1184   0.740   1.293   1.376  0.7368 -1.2276  0.3202
  395SOL    HW2 1185   0.664   1.400   1.281  0.9779 -0.9953  0.2599
  396SOL     OW 1186   1.985   1.092   2.282 -0.2726 -0.2571  0.4939
  396SOL    HW1 1187   1.885   1.114   2.285  1.2591  0.3332  0.8335
  396SOL    HW2 1188   2.041   1.179   2.280  0.2275 -1.2674 -1.4784
  397SOL     OW 1189   0.619   0.480   0.038 -0.1506  0.2731 -0.5516
  397SOL    HW1 1190   0.616   0.493   3.054  1.1522  0.8175 -1.0032
  397SOL    HW2 1191   0.521   0.466   0.069  0.8235 -0.2744 -2.1898
  398SOL     OW 1192   1.174   2.400   3.035 -0.1409  0.2043 -0.1452
  398SOL    HW1 1193   1.146   2.304   3.060 -2.0456 -0.1135  1.7682
  398SOL    HW2 1194   1.117   2.466   3.090 -0.0411  0.2605  1.0684
  399SOL     OW 1195   1.707   2.121   2.199  0.9495  0.0817 -0.3826
  399SOL    HW1 1196   1.780   2.066   2.241  0.3255  1.3939  1.6357
  399SOL    HW2 1197   1.734   2.153   2.107  1.1152 -1.7810 -0.3395
  400SOL     OW 1198   2.301   1.640   1.306  0.3934  0.7126 -0.2305
  400SOL    HW1 1199   2.253   1.621   1.222  1.0854 -3.2687  2.8873
  400SOL    HW2 1200   2.323   1.550   1.351  0.7190  0.9406 -0.4903
  401SOL     OW 1201   1.259   1.402   1.062  0.0564 -0.0320  0.2332
  401SOL    HW1 1202   1.196   1.471   1.108  0.6777  2.5152  0.5568
  401SOL    HW2 1203   1.357   1.418   1.080 -3.4889 -3.7508  1.1236
  402SOL     OW 1204   0.243   2.892   2.424  0.4203  0.2868  0.1524
  402SOL    HW1 1205   0.222   2.814   2.489  0.4977 -1.1978 -1.3836
  402SOL    HW2 1206   0.344   2.886   2.407 -0.9559  1.6330  2.3146
  403SOL     OW 1207   2.624   1.694   1.611  0.0296 -0.1628  0.5605
  403SOL    HW1 1208   2.668   1.636   1.684 -0.6251 -2.2280  1.0647
  403SOL    HW2 1209   2.604   1.637   1.529 -0.2361 -1.4393 -0.0789
  404SOL     OW 1210   2.274   1.973   1.285 -0.0611  0.5335 -0.1139
  404SOL    HW1 1211   2.335   1.897   1.318 -0.8788 -2.2777  1.2994
  404SOL    HW2 1212   2.254   2.038   1.360  0.5396  0.1511 -1.0848
  405SOL     OW 1213   2.576   0.364   2.814 -0.0677  0.3705  0.2123
  405SOL    HW1 1214   2.588   0.265   2.785 -0.1396 -3.4803 -0.2459
  405SOL    HW2 1215   2.672   0.404   2.830  4.0648  1.9186  2.5640
  406SOL     OW 1216   0.743   1.502   2.421 -0.1780  1.1241  0.1777
  406SOL    HW1 1217   0.730   1.601   2.415 -0.0193 -2.7920  0.5209
  406SOL    HW2 1218   0.832   1.483   2.462 -1.0289  0.8951  1.6576
  407SOL     OW 1219   1.894   2.757   0.232 -0.0487  0.2604  0.2790
  407SOL    HW1 1220   1.934   2.787   0.322  3.3714 -1.7355 -0.3029
  407SOL    HW2 1221   1.816   2.695   0.253  0.1329 -1.5689 -0.0277
  408SOL     OW 1222   0.159   2.959   0.816  0.2763  0.1005 -0.2430
  408SOL    HW1 1223   0.192   3.054   0.796 -0.7142 -1.6594  1.0842
  408SOL    HW2 1224   0.059   2.954   0.795 -3.2833 -0.7205  0.5205
  409SOL     OW 1225   2.252   2.022   0.729  0.0976  0.2776  0.6359
  409SOL    HW1 1226   2.181   1.949   0.737  2.1237  1.3479 -1.6013
  409SOL    HW2 1227   2.205   2.113   0.725  0.3706 -1.1794  0.8820
  410SOL     OW 1228   2.466   2.108   3.005 -0.1272  0.5768  0.5803
  410SOL    HW1 1229   2.536   2.153   2.946  4.9436 -1.3004 -0.9119
  410SOL    HW2 1230   2.374   2.109   2.965  1.7239 -0.1910 -1.2627
  411SOL     OW 1231   0.143   0.066   0.379  0.1497 -0.3316 -0.4378
  411SOL    HW1 1232   0.227   0.002   0.368  1.6575  0.2258 -0.1139
  411SOL    HW2 1233   0.122   0.111   0.470 -0.8593 -1.4100 -0.6782
  412SOL     OW 1234   1.676   2.613   0.306 -0.2050  0.3207  0.3083
  412SOL    HW1 1235   1.598   2.650   0.254  1.1769 -0.6613  1.5436
  412SOL    HW2 1236   1.652   2.619   0.403  1.0491 -0.6748 -4.2717
  413SOL     OW 1237   2.060   0.500   2.050  0.3378  0.0435 -0.1415
  413SOL    HW1 1238   2.019   0.596   2.040 -4.0929  1.6571 -2.2162
  413SOL    HW2 1239   2.012   0.450   2.130 -2.9994 -0.4178 -0.6226
  414SOL     OW 1240   0.138   0.439   0.583  0.4038  0.0570 -0.2627
  414SOL    HW1 1241   0.179   0.452   0.675  0.3618  0.4549  1.3819
  414SOL    HW2 1242   0.200   0.456   0.510  1.7080 -0.5318  0.7099
  415SOL     OW 1243   0.325   1.635   1.252  0.5125  0.6824  0.2597
  415SOL    HW1 1244   0.264   1.630   1.166 -0.3226  2.0613 -2.4781
  415SOL    HW2 1245   0.366   1.548   1.277  0.6789  1.7357  1.4302
  416SOL     OW 1246   0.063   3.056   0.145 -0.2144  0.2529 -0.5635
  416SOL    HW1 1247   0.086   0.013   0.082 -2.5809 -1.2375 -0.6176
  416SOL    HW2 1248   0.067   3.094   0.240 -0.1098 -0.4937  1.3449
  417SOL     OW 1249   2.265   3.096   1.124  0.1129 -0.0405  1.1814
  417SOL    HW1 1250   2.180   0.029   1.153 -1.5467 -1.5361  0.5364
  417SOL    HW2 1251   2.350   0.033   1.129 -1.9589  1.4405  0.6373
  418SOL     OW 1252   0.544   0.517   2.439 -0.1629 -0.4260 -0.7976
  418SOL    HW1 1253   0.605   0.514   2.517 -1.6117  3.0641 -2.6999
  418SOL    HW2 1254   0.455   0.481   2.471  1.9000 -2.2815 -0.6132
  419SOL     OW 1255   0.271   0.987   0.815  0.1873  0.4598 -0.0599
  419SOL    HW1 1256   0.262   0.898   0.867 -0.5207 -0.1672  2.7630
  419SOL    HW2 1257   0.174   1.023   0.794 -2.3799 -2.3127 -2.1981
  420SOL     OW 1258   1.779   1.983   0.886 -0.1113  0.0939  0.2291
  420SOL    HW1 1259   1.704   1.954   0.819  0.1919  0.5147  0.3291
  420SOL    HW2 1260   1.864   1.928   0.871  0.9328 -4.2423  2.6995
  421SOL     OW 1261   1.831   2.029   2.736  0.3218  0.5945 -0.7079
  421SOL    HW1 1262   1.812   2.096   2.814  0.3740 -0.2162 -0.0111
  421SOL    HW2 1263   1.741   1.987   2.719  1.0607  2.1771  1.3439
  422SOL     OW 1264   2.825   0.330   2.977  0.2460 -0.3870  0.0022
  422SOL    HW1 1265   2.824   0.385   2.888 -0.8059  0.0403 -1.2254
  422SOL    HW2 1266   2.748   0.354   3.036 -0.0084 -0.0453 -1.3217
  423SOL     OW 1267   1.514   1.880   0.959  0.0162 -0.6783  0.0219
  423SOL    HW1 1268   1.557   1.969   0.976 -0.7785 -3.3665  1.0906
  423SOL    HW2 1269   1.543   1.844   0.869 -0.1730  1.0787 -0.0924
  424SOL     OW 1270   0.268   1.400   1.592 -0.2132 -0.3070 -0.0876
  424SOL    HW1 1271   0.269   1.496   1.605  1.0702 -1.3507 -2.8105
  424SOL    HW2 1272   0.179   1.361   1.562  0.9488 -0.8735  0.4566
  425SOL     OW 1273   2.672   2.713   1.950  0.0090  0.0538 -0.5317
  425SOL    HW1 1274   2.689   2.619   1.925  1.2260  1.4905  1.3798
  425SOL    HW2 1275   2.572   2.720   1.976 -0.6586  0.2885  0.2714
  426SOL     OW 1276   2.021   2.869   0.436  0.1520  0.0697  0.0339
  426SOL    HW1 1277   2.072   2.858   0.526  3.0182 -1.8073 -1.4572
  426SOL    HW2 1278   2.068   2.939   0.376  0.3963  3.2890 -2.4885
  427SOL     OW 1279   0.345   0.765   2.651  0.2530 -0.1361 -0.1330
  427SOL    HW1 1280   0.364   0.826   2.573  0.0564 -0.7218  0.1075
  427SOL    HW2 1281   0.336   0.806   2.742  0.3641  1.8378 -2.3640
  428SOL     OW 1282   2.151   1.034   0.175 -0.5353 -0.1576  0.5385
  428SOL    HW1 1283   2.059   1.060   0.203  1.4287  0.2195 -3.2236
  428SOL    HW2 1284   2.157   1.012   0.074  1.0344 -2.2718 -0.0550
  429SOL     OW 1285   2.851   0.181   0.239  0.4397  0.0042 -0.2454
  429SOL    HW1 1286   2.860   0.075   0.235  0.4038 -2.7373  1.7184
  429SOL    HW2 1287   2.941   0.223   0.260  0.1981  0.2127  3.1560
  430SOL     OW 1288   1.068   2.896   2.055 -0.3658 -0.4009 -0.1459
  430SOL    HW1 1289   0.978   2.878   2.022  2.2364  1.3465 -0.3374
  430SOL    HW2 1290   1.111   2.820   2.109  2.3442  0.6224  2.1204
  431SOL     OW 1291   2.975   1.676   1.288 -0.1005 -0.6049  0.1031
  431SOL    HW1 1292   2.889   1.712   1.324  4.2950  0.4498 -0.8907
  431SOL    HW2 1293   3.055   1.721   1.328 -0.3216 -1.1107 -0.1012
  432SOL     OW 1294   2.132   2.799   1.841  0.2881  0.0547  0.0492
  432SOL    HW1 1295   2.211   2.747   1.805 -0.0112 -0.2353  0.6361
  432SOL    HW2 1296   2.043   2.751   1.841 -1.3395 -1.3391  3.7926
  433SOL     OW 1297   0.980   1.758   0.094 -0.3261 -0.1207 -0.7892
  433SOL    HW1 1298   0.927   1.696   0.156 -0.8557 -1.5049  1.2483
  433SOL    HW2 1299   0.946   1.851   0.103  1.6311  1.1906 -0.9678
  434SOL     OW 1300   0.026   2.162   2.478  0.1896  0.5085  0.6914
  434SOL    HW1 1301   0.127   2.169   2.482 -0.3864 -1.5798 -0.9929
  434SOL    HW2 1302   3.102   2.200   2.565 -1.7212  0.7335  2.3851
  435SOL     OW 1303   0.441   0.640   0.733  0.0990  0.3990 -0.5683
  435SOL    HW1 1304   0.432   0.547   0.772  3.9238  0.6318  0.2806
  435SOL    HW2 1305   0.432   0.634   0.633 -1.1398 -2.5107  4.0595
  436SOL     OW 1306   0.307   2.520   1.854  0.1034  0.9269 -0.0822
  436SOL    HW1 1307   0.371   2.473   1.788 -0.0629  1.2401 -2.9730
  436SOL    HW2 1308   0.265   2.605   1.815  1.0775  1.6247  1.6319
  437SOL     OW 1309   1.086   1.871   1.471 -0.0610  0.2010  0.2292
  437SOL    HW1 1310   1.113   1.928   1.548 -1.6118  1.8869  1.5443
  437SOL    HW2 1311   1.137   1.892   1.382  0.1419  2.0030 -3.3401
  438SOL     OW 1312   3.106   2.260   0.488  0.0616 -0.5332  0.2563
  438SOL    HW1 1313   0.059   2.187   0.495 -1.0516 -1.0618  0.9123
  438SOL    HW2 1314   3.012   2.224   0.497  0.1009 -2.2673  1.4783
  439SOL     OW 1315   0.248   0.237   1.023  0.7853 -0.3400 -0.8583
  439SOL    HW1 1316   0.203   0.157   1.077 -3.5321 -2.5160  1.0149
  439SOL    HW2 1317   0.325   0.279   1.082  1.3901 -1.2967 -0.3696
  440SOL     OW 1318   2.831   2.558   2.269 -0.4826 -0.0541 -0.0107
  440SOL    HW1 1319   2.920   2.527   2.311  2.0514 -1.3977  0.7959
  440SOL    HW2 1320   2.840   2.633   2.200  0.2603  0.0925  0.7521
  441SOL     OW 1321   2.876   0.601   1.745 -0.1999  0.0666  0.5506
  441SOL    HW1 1322   2.892   0.513   1.794 -0.3468 -0.1405 -0.5182
  441SOL    HW2 1323   2.841   0.663   1.813  2.1203 -4.6706 -2.4721
  442SOL     OW 1324   1.639   2.260   3.098  0.1930 -0.1391 -0.1206
  442SOL    HW1 1325   1.691   2.296   0.063  0.9742 -0.9717 -0.4606
  442SOL    HW2 1326   1.570   2.325   3.056  1.3618 -1.4514 -0.9829
  443SOL     OW 1327   0.320   1.017   0.159 -0.2249  0.2360 -0.6723
  443SOL    HW1 1328   0.319   0.965   0.247 -3.5277  0.6018  1.6039
  443SOL    HW2 1329   0.313   1.117   0.180 -0.3453  1.7337 -2.4557
  444SOL     OW 1330   1.592   1.627   2.378  0.8988  0.4920  0.2265
  444SOL    HW1 1331   1.598   1.536   2.425  2.2999 -1.0903  1.4974
  444SOL    HW2 1332   1.686   1.649   2.348 -3.6486 -1.1549  0.2804
  445SOL     OW 1333   0.195   2.819   1.028  0.6152  0.5771 -0.6667
  445SOL    HW1 1334   0.107   2.820   1.073  2.0317  0.5326  0.0020
  445SOL    HW2 1335   0.179   2.874   0.940 -0.2943 -0.7675  0.0725
  446SOL     OW 1336   2.201   1.192   1.531  0.2953  0.0660  0.2352
  446SOL    HW1 1337   2.118   1.234   1.573 -2.6673 -1.5921 -0.0402
  446SOL    HW2 1338   2.265   1.150   1.593 -4.1383  1.5929 -3.4013
  447SOL     OW 1339   0.219   0.626   3.091  0.0391  0.1495 -0.1690
  447SOL    HW1 1340   0.168   0.693   0.031 -1.8953  1.7566  2.6635
  447SOL    HW2 1341   0.155   0.572   3.027 -1.6863  0.0450 -0.9589
  448SOL     OW 1342   1.452   2.164   1.741 -0.1593  0.3296  0.0742
  448SOL    HW1 1343   1.398   2.236   1.686  0.8539 -1.8551 -0.9034
  448SOL    HW2 1344   1.552   2.182   1.737 -2.0585 -2.2623 -1.0294
  449SOL     OW 1345   1.145   1.552   0.663  0.2518  0.1600  0.0807
  449SOL    HW1 1346   1.247   1.556   0.689  1.3074 -0.2005  0.9385
  449SOL    HW2 1347   1.137   1.528   0.566  0.5169 -0.3525  0.6707
  450SOL     OW 1348   2.613   2.088   1.938  0.5324 -0.0201 -0.2704
  450SOL    HW1 1349   2.521   2.078   1.981 -2.6725 -1.5522  1.2996
  450SOL    HW2 1350   2.682   2.121   2.002  0.3381  0.6997 -0.1568
  451SOL     OW 1351   2.854   1.392   3.007  0.6319  0.8313  0.4318
  451SOL    HW1 1352   2.933   1.402   2.946 -1.1953  2.1402  1.0251
  451SOL    HW2 1353   2.811   1.303   2.995 -1.4692  0.5526 -0.4378
  452SOL     OW 1354   1.527   1.179   1.012  0.0392  0.2923  0.2103
  452SOL    HW1 1355   1.454   1.130   1.064 -0.1716  0.9708 -0.1661
  452SOL    HW2 1356   1.531   1.276   1.040  1.9901 -0.1017  1.9169
  453SOL     OW 1357   2.087   1.068   1.065 -0.2699 -0.2418 -0.0607
  453SOL    HW1 1358   2.117   0.974   1.090 -0.0488 -0.0398 -1.2600
  453SOL    HW2 1359   1.994   1.081   1.103 -0.2769  0.9381  0.5855
  454SOL     OW 1360   2.996   0.829   0.579 -0.3657  0.0744  0.2878
  454SOL    HW1 1361   3.003   0.734   0.542  0.5444 -0.7006 -0.8533
  454SOL    HW2 1362   2.913   0.873   0.538 -1.3984 -2.7825  0.1641
  455SOL     OW 1363   2.513   2.624   1.080 -0.5969 -0.1099 -0.2352
  455SOL    HW1 1364   2.568   2.589   0.998 -1.1456  1.2895 -1.3725
  455SOL    HW2 1365   2.418   2.630   1.055 -1.1341  1.9139 -1.2733
  456SOL     OW 1366   0.641   2.919   1.027 -0.4850  0.2493  0.2557
  456SOL    HW1 1367   0.738   2.889   1.033 -0.7079  1.9436 -3.7385
  456SOL    HW2 1368   0.633   3.010   1.075  0.0554 -1.1755  1.5338
  457SOL     OW 1369   1.953   3.030   0.856  0.1456 -0.2346  0.3115
  457SOL    HW1 1370   2.033   3.022   0.916 -0.6245 -0.3846  1.5489
  457SOL    HW2 1371   1.974   2.992   0.762  0.7960 -0.2191 -1.3328
  458SOL     OW 1372   2.714   0.184   0.937 -0.4550 -0.3767  0.3034
  458SOL    HW1 1373   2.741   0.082   0.945 -0.2338 -1.0802 -2.7030
  458SOL    HW2 1374   2.712   0.239   1.021 -0.9475  0.4473  1.1326
  459SOL     OW 1375   1.985   0.677   2.992  0.3122  0.6564 -0.7787
  459SOL    HW1 1376   1.923   0.724   2.929  1.8183  0.4637  1.1859
  459SOL    HW2 1377   1.990   0.581   2.961  0.4564  0.5654 -1.6859
  460SOL     OW 1378   2.892   2.371   2.901  0.0023  0.1479 -0.0269
  460SOL    HW1 1379   2.886   2.471   2.905  0.1873 -1.5125  1.3368
  460SOL    HW2 1380   2.961   2.334   2.966  0.9916  1.2447  1.6091
  461SOL     OW 1381   0.615   1.778   0.461 -0.2836 -0.0717 -0.2255
  461SOL    HW1 1382   0.606   1.738   0.555 -0.7272  0.9932  0.1170
  461SOL    HW2 1383   0.591   1.718   0.381 -0.8137  0.8383  1.5832
  462SOL     OW 1384   2.530   2.559   0.576 -0.2209 -0.0027  0.5148
  462SOL    HW1 1385   2.627   2.534   0.567 -0.1216 -0.1914 -0.3494
  462SOL    HW2 1386   2.479   2.582   0.486 -2.4009  0.8643 -0.6071
  463SOL     OW 1387   3.004   0.553   0.540  0.3958 -0.0974  0.1926
  463SOL    HW1 1388   2.948   0.533   0.626 -1.5496 -1.7568  1.9477
  463SOL    HW2 1389   3.090   0.503   0.545 -0.6826  2.4515  0.3557
  464SOL     OW 1390   1.150   2.879   0.426 -0.8345  0.0162  0.4826
  464SOL    HW1 1391   1.053   2.903   0.436  2.1649 -0.3022 -2.9226
  464SOL    HW2 1392   1.193   2.828   0.502 -0.7519  1.6311  1.1621
  465SOL     OW 1393   2.438   0.953   0.476  0.1824  0.2730 -0.0065
  465SOL    HW1 1394   2.347   0.911   0.505 -0.2757 -1.0626  0.3132
  465SOL    HW2 1395   2.428   1.009   0.387  0.2646 -2.0743  1.6754
  466SOL     OW 1396   2.550   2.911   0.112  0.6273 -0.3087 -0.0473
  466SOL    HW1 1397   2.528   3.009   0.094  0.6277  0.2507 -3.1125
  466SOL    HW2 1398   2.460   2.858   0.113  0.3926  1.0980 -2.8276
  467SOL     OW 1399   1.229   0.688   1.586  0.3298 -0.3063 -0.1575
  467SOL    HW1 1400   1.251   0.733   1.677  1.2992 -0.2444 -0.1713
  467SOL    HW2 1401   1.289   0.733   1.514  0.1477 -0.7834 -0.6204
  468SOL     OW 1402   0.268   0.618   2.213 -0.4485  0.2622 -0.0732
  468SOL    HW1 1403   0.352   0.581   2.177 -4.8533  0.9726 -0.4698
  468SOL    HW2 1404   0.273   0.720   2.200 -0.8464  2.3892  0.6798
  469SOL     OW 1405   0.791   3.007   2.758  0.2043  0.3271 -0.1100
  469SOL    HW1 1406   0.700   3.007   2.714  1.9574  0.0480 -2.9304
  469SOL    HW2 1407   0.849   2.950   2.689 -0.6342 -5.0424 -0.6279
  470SOL     OW 1408   1.909   1.405   2.592 -0.1788  0.4672  0.4134
  470SOL    HW1 1409   1.924   1.485   2.655 -1.6270  1.3229  1.0344
  470SOL    HW2 1410   1.949   1.316   2.615  0.7584 -0.5746 -1.6975
  471SOL     OW 1411   2.791   1.198   2.790  0.0259 -0.1478  0.3003
  471SOL    HW1 1412   2.709   1.251   2.761 -1.5221  2.0158 -3.5403
  471SOL    HW2 1413   2.765   1.113   2.841  1.3456 -0.7006 -0.4715
  472SOL     OW 1414   0.460   2.400   0.265  0.4251 -0.8258  0.1040
  472SOL    HW1 1415   0.461   2.386   0.366 -0.5064  0.5651  0.9500
  472SOL    HW2 1416   0.532   2.349   0.224 -1.9430  2.9036  1.7333
  473SOL     OW 1417   0.692   0.086   2.910  0.7555 -0.1513  0.7382
  473SOL    HW1 1418   0.762   0.019   2.875 -2.6948  2.0652 -3.3900
  473SOL    HW2 1419   0.674   0.074   3.011 -1.4482 -0.8119  1.0279
  474SOL     OW 1420   1.566   0.491   2.250  0.3793  0.0797 -0.1614
  474SOL    HW1 1421   1.496   0.427   2.289  1.8451 -1.4648  0.3203
  474SOL    HW2 1422   1.562   0.498   2.150 -1.7166 -0.1395  0.0376
  475SOL     OW 1423   0.808   2.792   0.147 -0.3048  0.1966 -0.1491
  475SOL    HW1 1424   0.856   2.883   0.164 -1.6640  3.3538  1.6319
  475SOL    HW2 1425   0.835   2.748   0.055  0.0104 -1.2276 -1.6721
  476SOL     OW 1426   0.394   1.091   1.178  0.3614  0.0032 -0.5595
  476SOL    HW1 1427   0.481   1.052   1.211 -3.2023 -0.0688 -2.1647
  476SOL    HW2 1428   0.377   1.180   1.221  0.3828 -1.9931  1.5506
  477SOL     OW 1429   1.558   2.084   1.312 -0.3821  0.6955 -0.1995
  477SOL    HW1 1430   1.581   2.156   1.381 -1.0049  0.0326 -0.1370
  477SOL    HW2 1431   1.585   1.994   1.353  2.1247  1.3955 -0.5613
  478SOL     OW 1432   0.870   1.422   2.203  0.1654 -0.0558 -0.4109
  478SOL    HW1 1433   0.878   1.325   2.176 -0.2448  2.2582  0.4851
  478SOL    HW2 1434   0.807   1.439   2.280  2.4364  1.2885  0.5907
  479SOL     OW 1435   0.551   0.021   1.200 -0.1772  0.4358 -0.1033
  479SOL    HW1 1436   0.490   3.091   1.269  0.5197 -0.8796  2.7215
  479SOL    HW2 1437   0.523   0.117   1.183 -1.6713 -0.5594 -0.8531
  480SOL     OW 1438   2.676   2.467   0.199  0.2864  0.3374 -0.4453
  480SOL    HW1 1439   2.697   2.366   0.210 -2.2202 -0.4511  2.3468
  480SOL    HW2 1440   2.630   2.495   0.112  0.7101 -1.2229 -1.1379
  481SOL     OW 1441   2.976   0.073   1.114 -0.3496 -0.1179  0.0276
  481SOL    HW1 1442   3.018   0.169   1.105  2.1678  0.3449 -1.6223
  481SOL    HW2 1443   3.034   0.016   1.177  1.7905  4.4322 -0.4960
  482SOL     OW 1444   1.603   2.456   2.103  0.1515  0.0771 -0.1593
  482SOL    HW1 1445   1.656   2.506   2.173  1.4292 -0.7368  1.1238
  482SOL    HW2 1446   1.620   2.488   2.010  0.8335  0.8486 -0.2558
  483SOL     OW 1447   0.438   1.526   2.747 -0.2128  0.0371  0.5424
  483SOL    HW1 1448   0.512   1.598   2.737 -3.2480  0.6696 -0.8590
  483SOL    HW2 1449   0.402   1.491   2.660  0.2413  1.2837 -0.7858
  484SOL     OW 1450   1.121   1.519   2.162 -0.2224  0.1558 -0.1542
  484SOL    HW1 1451   1.185   1.442   2.178 -0.2009 -0.3382  0.8581
  484SOL    HW2 1452   1.025   1.487   2.158  0.1304  2.7454  0.5313
  485SOL     OW 1453   2.833   3.106   3.004  0.6952  0.1788 -0.9992
  485SOL    HW1 1454   2.849   0.083   3.016 -0.3089 -2.2410  0.3822
  485SOL    HW2 1455   2.871   3.060   3.086 -0.0786 -0.1939  0.4063
  486SOL     OW 1456   1.611   3.099   0.508 -0.1568 -0.0338 -0.1233
  486SOL    HW1 1457   1.683   0.053   0.509 -0.8193  2.5166 -2.1296
  486SOL    HW2 1458   1.557   3.116   0.593 -1.7232  2.4876  0.6011
  487SOL     OW 1459   1.269   2.636   0.819 -0.2321  0.5190 -0.5468
  487SOL    HW1 1460   1.227   2.557   0.868 -3.2125 -1.9597  2.6873
  487SOL    HW2 1461   1.209   2.719   0.819 -2.6512  1.6712 -0.2231
  488SOL     OW 1462   2.407   1.088   0.238  0.2508 -0.1709 -0.0893
  488SOL    HW1 1463   2.412   1.186   0.232  0.1623 -4.0325  1.8899
  488SOL    HW2 1464   2.310   1.056   0.226  0.2138  0.9475  0.0942
  489SOL     OW 1465   1.405   2.934   1.144 -0.6752  0.1434 -0.5193
  489SOL    HW1 1466   1.348   2.884   1.210 -0.0715 -1.3710  0.8557
  489SOL    HW2 1467   1.421   3.027   1.186 -1.4435  0.7639 -1.4706
  490SOL     OW 1468   0.684   0.969   0.316 -0.2593  0.3401  0.4164
  490SOL    HW1 1469   0.749   0.952   0.393 -1.9982 -0.2901 -2.3668
  490SOL    HW2 1470   0.702   0.900   0.246  2.0191 -0.2913  1.0502
  491SOL     OW 1471   1.215   0.055   0.411 -0.4160  0.1285 -0.2452
  491SOL    HW1 1472   1.205   0.096   0.503 -0.3099 -2.6233 -0.6493
  491SOL    HW2 1473   1.180   3.073   0.415 -0.8155 -3.0754 -1.3503
  492SOL     OW 1474   1.265   1.301   2.253  0.6763  0.5136 -0.1027
  492SOL    HW1 1475   1.286   1.236   2.179  4.0177  2.3921  2.5631
  492SOL    HW2 1476   1.233   1.250   2.337  1.5697 -2.3751  2.8387
  493SOL     OW 1477   0.240   2.561   0.235 -0.2771  0.3367 -0.1664
  493SOL    HW1 1478   0.171   2.530   0.304  0.4859 -0.2855 -1.4123
  493SOL    HW2 1479   0.324   2.498   0.232  2.2854  1.7243  0.0548
  494SOL     OW 1480   2.185   1.762   0.286 -0.0483 -0.2133 -0.3739
  494SOL    HW1 1481   2.246   1.731   0.362 -1.2698  0.6472  0.5024
  494SOL    HW2 1482   2.223   1.740   0.195  0.3374 -0.5429  1.3199
  495SOL     OW 1483   2.834   0.744   2.858  0.0690  0.5477  0.3732
  495SOL    HW1 1484   2.920   0.749   2.807 -3.5550 -1.3943  0.1420
  495SOL    HW2 1485   2.846   0.774   2.958 -0.1561  0.7226  0.8674
  496SOL     OW 1486   3.023   2.886   2.125 -0.1019 -0.4889 -0.2992
  496SOL    HW1 1487   3.028   2.842   2.217  0.4146  2.5759 -0.8585
  496SOL    HW2 1488   3.080   2.835   2.056  2.3049  1.6517 -0.0644
  497SOL     OW 1489   2.712   0.862   0.926 -0.1374  0.7079  0.2925
  497SOL    HW1 1490   2.673   0.880   1.017  1.9027 -1.2072 -0.8437
  497SOL    HW2 1491   2.667   0.910   0.847 -2.9453  1.0259  0.5139
  498SOL     OW 1492   0.352   2.318   2.971 -0.3456  0.0987 -0.0348
  498SOL    HW1 1493   0.274   2.268   3.014  0.4564 -1.3494 -1.5675
  498SOL    HW2 1494   0.308   2.376   2.901  0.5098 -1.8810 -1.7090
  499SOL     OW 1495   0.720   2.216   0.523  0.1928  0.5116 -0.0957
  499SOL    HW1 1496   0.777   2.282   0.468 -0.7972  1.1056 -0.4229
  499SOL    HW2 1497   0.786   2.160   0.576  1.2933 -2.8085 -1.4830
  500SOL     OW 1498   1.000   0.236   2.490  0.2851  0.2305  0.3544
  500SOL    HW1 1499   0.915   0.205   2.534 -0.2026 -0.0604 -2.3035
  500SOL    HW2 1500   1.015   0.179   2.405  1.6869 -1.9607 -1.7629
  501SOL     OW 1501   0.909   0.149   1.419  0.3464 -0.3349  0.2717
  501SOL    HW1 1502   0.878   0.096   1.336  2.7220  1.7010  0.3399
  501SOL    HW2 1503   1.006   0.131   1.442  0.8983 -0.1238 -0.0071
  502SOL     OW 1504   0.109   0.254   2.095  0.1626 -0.3623 -0.5387
  502SOL    HW1 1505   0.210   0.234   2.106  0.4813  0.6643  1.6057
  502SOL    HW2 1506   0.085   0.346   2.130  0.7824 -0.1981 -2.8717
  503SOL     OW 1507   1.876   1.925   2.288 -0.6279 -0.7927 -0.3911
  503SOL    HW1 1508   1.938   1.942   2.365 -0.7952  1.4029 -0.5162
  503SOL    HW2 1509   1.856   1.825   2.276 -2.6431 -1.1393  0.4125
  504SOL     OW 1510   1.921   0.421   1.759  0.1651  0.7515  0.3232
  504SOL    HW1 1511   1.931   0.488   1.831 -1.6832  2.0129 -1.5161
  504SOL    HW2 1512   2.013   0.419   1.707  3.0032  0.9652 -0.5117
  505SOL     OW 1513   2.713   0.948   1.713  0.3279 -0.2854 -0.2754
  505SOL    HW1 1514   2.793   1.011   1.692 -1.3441  2.9896  0.7457
  505SOL    HW2 1515   2.664   0.914   1.633  2.6841  1.4640  1.1470
  506SOL     OW 1516   0.369   1.384   2.528  0.4826 -0.1705 -0.3987
  506SOL    HW1 1517   0.292   1.314   2.534  0.1546 -1.9575  2.4788
  506SOL    HW2 1518   0.372   1.428   2.435  2.9509  3.3837 -1.8869
  507SOL     OW 1519   0.497   2.903   2.352 -0.1665  0.2079 -0.0471
  507SOL    HW1 1520   0.550   2.985   2.325 -0.1370 -1.3263 -0.0149
  507SOL    HW2 1521   0.555   2.819   2.345  1.8407  0.1356  1.1600
  508SOL     OW 1522   1.371   0.806   1.375 -0.0583  0.0635 -0.0899
  508SOL    HW1 1523   1.373   0.909   1.395 -1.5681  1.4699 -1.0059
  508SOL    HW2 1524   1.459   0.757   1.382 -2.0177 -0.0455  1.1304
  509SOL     OW 1525   0.931   1.828   1.260 -0.2386 -0.1257  0.1108
  509SOL    HW1 1526   0.997   1.858   1.333 -0.9836 -0.2000  1.2063
  509SOL    HW2 1527   0.850   1.789   1.303  0.2175  1.0718  1.1339
  510SOL     OW 1528   2.718   0.956   2.556 -0.4840 -0.1931 -0.1841
  510SOL    HW1 1529   2.631   0.994   2.523 -0.6473 -1.8959  0.4382
  510SOL    HW2 1530   2.695   0.867   2.600  2.5330  2.1522 -1.8148
  511SOL     OW 1531   0.522   1.807   1.178 -0.1098  0.2399 -0.1375
  511SOL    HW1 1532   0.442   1.740   1.189 -1.3877  1.0243 -1.3501
  511SOL    HW2 1533   0.580   1.810   1.264  0.3033  3.3194 -1.0946
  512SOL     OW 1534   2.608   2.446   1.314  0.1766 -0.0422 -0.3901
  512SOL    HW1 1535   2.540   2.367   1.311 -0.2019 -2.2510  2.5212
  512SOL    HW2 1536   2.603   2.486   1.218 -0.0951 -0.7425 -2.0508
  513SOL     OW 1537   0.277   1.396   3.078  0.0523 -0.0699 -0.2348
  513SOL    HW1 1538   0.283   1.305   3.028 -1.5771  1.4913 -2.9400
  513SOL    HW2 1539   0.245   1.472   3.014 -3.3516  1.1728 -0.7864
  514SOL     OW 1540   0.176   2.580   2.893 -0.0120  0.6457  0.0205
  514SOL    HW1 1541   0.155   2.538   2.982  0.5477  0.0692 -2.5334
  514SOL    HW2 1542   0.169   2.679   2.900  0.6662 -2.2060  2.8383
  515SOL     OW 1543   1.734   1.177   2.280 -0.0403  0.0320  0.0670
  515SOL    HW1 1544   1.715   1.271   2.242  1.1072 -2.4878 -0.1292
  515SOL    HW2 1545   1.673   1.149   2.357  1.1184 -0.3087 -2.3740
  516SOL     OW 1546   2.253   2.141   0.325 -0.6876  0.3265  0.8694
  516SOL    HW1 1547   2.269   2.071   0.399 -0.2319  0.8241 -0.5692
  516SOL    HW2 1548   2.332   2.148   0.262  1.4686  0.0499 -1.8785
  517SOL     OW 1549   1.307   1.278   0.317 -0.1837 -0.1778  0.1445
  517SOL    HW1 1550   1.344   1.228   0.399  0.7830  2.4744 -0.5806
  517SOL    HW2 1551   1.225   1.231   0.277  2.6232  1.3262  3.0547
  518SOL     OW 1552   2.226   2.523   2.138  0.0852  0.1774  0.8089
  518SOL    HW1 1553   2.221   2.520   2.239  0.0973 -0.8730 -1.9330
  518SOL    HW2 1554   2.133   2.505   2.095  0.7963 -1.0193  1.8261
  519SOL     OW 1555   1.611   2.332   1.480  0.4741 -0.6943 -0.4430
  519SOL    HW1 1556   1.680   2.372   1.421 -2.0624  0.7752  2.0648
  519SOL    HW2 1557   1.541   2.406   1.506  0.4279  1.4531  0.8697
  520SOL     OW 1558   2.481   2.466   2.823 -0.5127 -0.2036 -0.0167
  520SOL    HW1 1559   2.531   2.549   2.792 -1.2460 -1.1297 -0.2942
  520SOL    HW2 1560   2.400   2.452   2.762  0.7986  1.9894 -1.5320
  521SOL     OW 1561   0.285   1.260   2.177 -0.1144  0.1034  0.0923
  521SOL    HW1 1562   0.212   1.242   2.242  1.4236  0.6425 -1.5734
  521SOL    HW2 1563   0.308   1.360   2.179 -1.7057 -2.3858 -2.1146
  522SOL     OW 1564   1.198   0.315   1.874  0.2623  0.4861  0.3527
  522SOL    HW1 1565   1.287   0.260   1.871  1.3960 -3.8791 -1.0666
  522SOL    HW2 1566   1.160   0.331   1.781  0.7244 -2.4602  0.0368
  523SOL     OW 1567   0.574   2.473   0.876 -0.3943  0.2121  0.2634
  523SOL    HW1 1568   0.575   2.370   0.862 -1.6326 -1.3555  0.4426
  523SOL    HW2 1569   0.481   2.505   0.906  1.2005  0.4730 -0.5736
  524SOL     OW 1570   1.596   2.654   0.561 -0.0182  0.5018  0.0186
  524SOL    HW1 1571   1.664   2.729   0.582  2.4489  1.6216 -0.4460
  524SOL    HW2 1572   1.605   2.585   0.637 -1.4676 -3.3120  1.6649
  525SOL     OW 1573   2.155   0.957   1.395  0.1428 -0.1235 -0.0821
  525SOL    HW1 1574   2.160   1.040   1.456 -0.2979  1.1236  0.9288
  525SOL    HW2 1575   2.114   0.980   1.306  0.8447 -0.4987  1.3805
  526SOL     OW 1576   1.061   2.838   0.828  0.2342 -0.2610  0.4471
  526SOL    HW1 1577   0.980   2.815   0.774 -0.1809  2.2068  0.8869
  526SOL    HW2 1578   1.084   2.939   0.821  1.0247  3.1566  2.0727
  527SOL     OW 1579   2.778   2.269   0.444  0.1707 -0.4809  0.3614
  527SOL    HW1 1580   2.784   2.357   0.499 -2.2896  0.3895  0.2517
  527SOL    HW2 1581   2.748   2.193   0.505 -1.5526 -1.8851 -0.4976
  528SOL     OW 1582   2.036   0.557   0.281  0.1947  0.5890 -0.0460
  528SOL    HW1 1583   2.037   0.655   0.315 -1.1700  2.1223  0.9717
  528SOL    HW2 1584   1.941   0.521   0.307  0.0102  2.2384 -1.4669
  529SOL     OW 1585   1.390   1.168   2.545 -0.5172  0.4272 -0.3250
  529SOL    HW1 1586   1.322   1.110   2.502  2.0685  0.5925  1.2625
  529SOL    HW2 1587   1.351   1.216   2.625 -1.5964  1.3170 -2.0692
  530SOL     OW 1588   2.445   0.669   0.108 -0.4419  0.0866  0.2736
  530SOL    HW1 1589   2.523   0.634   0.053 -2.1921  0.3174 -3.6349
  530SOL    HW2 1590   2.463   0.669   0.205  0.6042 -3.7296 -3.1542
  531SOL     OW 1591   1.123   1.209   3.025 -0.0625 -0.1018  0.6693
  531SOL    HW1 1592   1.089   1.306   3.029 -1.4409  0.7094 -0.5086
  531SOL    HW2 1593   1.047   1.146   2.998 -1.1439  1.4659 -0.1904
  532SOL     OW 1594   1.742   0.326   0.878 -1.0761 -0.0990  0.7869
  532SOL    HW1 1595   1.839   0.324   0.846 -1.4201  1.2678 -0.3745
  532SOL    HW2 1596   1.690   0.380   0.812 -2.1073 -0.1784 -0.9896
  533SOL     OW 1597   1.100   0.956   2.185  0.5559  0.7070 -0.0775
  533SOL    HW1 1598   1.128   0.982   2.282  0.3917  0.5753 -0.0183
  533SOL    HW2 1599   1.161   1.005   2.119 -1.4979  2.1354  0.1554
  534SOL     OW 1600   1.915   0.417   2.505 -0.3525 -0.2037  0.3616
  534SOL    HW1 1601   2.001   0.477   2.515 -1.5320 -1.9573 -2.1890
  534SOL    HW2 1602   1.868   0.394   2.589 -0.7388 -0.6863 -2.2866
  535SOL     OW 1603   0.499   0.373   0.337  0.6040  0.8531 -0.4231
  535SOL    HW1 1604   0.471   0.391   0.244 -0.3765  0.9159  2.0712
  535SOL    HW2 1605   0.501   0.277   0.355  2.0964  3.0187 -2.9601
  536SOL     OW 1606   1.018   0.018   0.765  0.5461 -0.1261  0.3545
  536SOL    HW1 1607   1.103   0.051   0.808 -3.2334 -2.7033 -2.0513
  536SOL    HW2 1608   0.939   0.013   0.830 -2.0467  0.6864  0.4945
  537SOL     OW 1609   1.503   1.266   0.753  0.0987  0.1155 -0.3658
  537SOL    HW1 1610   1.503   1.191   0.826 -0.7537 -0.4982  3.5067
  537SOL    HW2 1611   1.602   1.299   0.749  1.9602  0.6245  0.0045
  538SOL     OW 1612   2.896   2.062   0.035 -0.4296  0.2617  0.0172
  538SOL    HW1 1613   2.911   2.000   0.114  0.6569  0.8205 -0.0855
  538SOL    HW2 1614   2.984   2.107   0.006 -2.3956 -2.7859 -1.3625
  539SOL     OW 1615   2.533   1.873   0.176  0.4788  0.0590 -0.4109
  539SOL    HW1 1616   2.523   1.861   0.075 -1.4567  0.3225 -0.7398
  539SOL    HW2 1617   2.463   1.942   0.201 -0.9217 -0.3031  1.5199
  540SOL     OW 1618   0.440   2.805   1.432  0.2112  0.0477 -0.5539
  540SOL    HW1 1619   0.442   2.831   1.333 -1.2615  2.6426 -0.6535
  540SOL    HW2 1620   0.396   2.881   1.483 -2.7607 -0.8144 -1.9538
  541SOL     OW 1621   2.111   0.033   2.079  0.3603 -0.2200  0.3377
  541SOL    HW1 1622   2.174   3.068   2.091  2.3610 -1.2233  1.5082
  541SOL    HW2 1623   2.036   0.008   2.011 -0.3731  1.7897 -1.4455
  542SOL     OW 1624   2.792   0.163   2.374  0.1987 -0.3116  0.1412
  542SOL    HW1 1625   2.803   0.149   2.475 -3.0102  2.3087  1.2143
  542SOL    HW2 1626   2.873   0.143   2.320 -1.5499 -0.3598  0.8273
  543SOL     OW 1627   0.749   0.500   0.736  0.1259  0.2086  0.2293
  543SOL    HW1 1628   0.763   0.568   0.663 -0.6184  3.0379  1.3384
  543SOL    HW2 1629   0.698   0.416   0.704 -0.7102  1.0709 -1.1461
  544SOL     OW 1630   3.043   2.756   1.081  0.7954 -0.2464  0.4116
  544SOL    HW1 1631   3.044   2.797   1.175  0.4529 -0.9451 -1.5480
  544SOL    HW2 1632   3.040   2.653   1.093  0.7711 -2.5047  0.5180
  545SOL     OW 1633   1.389   2.203   0.883  0.9611  0.1093  0.0924
  545SOL    HW1 1634   1.366   2.119   0.832 -0.8238  0.3211 -0.2687
  545SOL    HW2 1635   1.478   2.194   0.932  0.6795 -1.3605 -1.4041
  546SOL     OW 1636   1.947   3.064   1.859 -0.1553 -0.1449  0.4720
  546SOL    HW1 1637   1.883   0.020   1.832 -0.3293  0.2772  1.6275
  546SOL    HW2 1638   2.009   3.047   1.778  1.5243 -0.8999 -1.4023
  547SOL     OW 1639   0.377   0.228   2.157 -0.3860  0.4159  0.5373
  547SOL    HW1 1640   0.406   0.181   2.242  0.8253 -2.4848 -2.2041
  547SOL    HW2 1641   0.430   0.311   2.134  2.8195  0.9171 -2.0448
  548SOL     OW 1642   1.969   1.641   2.723  0.2410  0.2309 -0.3958
  548SOL    HW1 1643   1.967   1.650   2.825  2.4772  2.8605  0.5088
  548SOL    HW2 1644   2.024   1.722   2.687  0.8152 -0.8652  0.7230
  549SOL     OW 1645   0.019   0.713   0.792  0.1117 -0.1882  0.2991
  549SOL    HW1 1646   3.099   0.751   0.708 -0.0680 -0.0015 -0.5245
  549SOL    HW2 1647   3.059   0.684   0.857 -1.6519  0.2215 -1.0364
  550SOL     OW 1648   1.620   1.862   0.693  0.6351 -0.0115 -0.0637
  550SOL    HW1 1649   1.675   1.780   0.671  0.1308  1.3051  1.1500
  550SOL    HW2 1650   1.607   1.926   0.615  0.5912  1.9040  0.2465
  551SOL     OW 1651   0.962   0.257   0.989 -0.1902  0.1166 -0.6264
  551SOL    HW1 1652   0.903   0.176   0.970  0.7030  2.3441 -0.5301
  551SOL    HW2 1653   0.906   0.336   1.031 -1.4190  0.0462  0.9497
  552SOL     OW 1654   2.416   2.715   2.080 -0.2915  0.4340 -0.2754
  552SOL    HW1 1655   2.414   2.741   2.178 -0.1224  1.5376  1.0207
  552SOL    HW2 1656   2.371   2.624   2.062 -1.9518  0.6623 -0.1742
  553SOL     OW 1657   3.048   3.042   2.645 -0.3737 -0.0430 -0.0028
  553SOL    HW1 1658   3.113   3.075   2.576 -4.4710  2.6938  4.3204
  553SOL    HW2 1659   3.014   2.951   2.623  2.2890  0.5304  1.0109
  554SOL     OW 1660   0.977   2.928   1.339  0.1606 -0.1139  1.0839
  554SOL    HW1 1661   0.940   2.919   1.436 -2.1627  1.8198  5.1137
  554SOL    HW2 1662   1.070   2.896   1.331 -1.6075 -1.4760 -1.1996
  555SOL     OW 1663   2.365   2.697   1.763  0.5116 -0.1926  0.2991
  555SOL    HW1 1664   2.417   2.626   1.714 -0.8206  3.5722  3.6803
  555SOL    HW2 1665   2.424   2.778   1.771  1.6683 -0.8923  1.8944
  556SOL     OW 1666   1.069   0.234   2.836 -0.6950  0.3188  0.0079
  556SOL    HW1 1667   1.119   0.187   2.760 -0.5125  0.4113 -0.9419
  556SOL    HW2 1668   1.095   0.193   2.925 -0.7565  0.2647 -2.8767
  557SOL     OW 1669   3.061   1.720   2.360 -0.1175  0.4093  0.3700
  557SOL    HW1 1670   3.068   1.780   2.442 -0.8626  2.8000  1.2013
  557SOL    HW2 1671   3.085   1.774   2.277 -2.4356  2.2446 -2.8065
  558SOL     OW 1672   2.453   1.104   2.454  0.1460 -0.1128 -0.4938
  558SOL    HW1 1673   2.417   1.020   2.401 -0.9164 -0.6038  0.2512
  558SOL    HW2 1674   2.451   1.191   2.400  1.4665 -1.7141 -1.1323
  559SOL     OW 1675   2.470   2.257   2.136 -0.1310  0.5395  0.0694
  559SOL    HW1 1676   2.572   2.232   2.143  1.0741 -1.0387 -0.0248
  559SOL    HW2 1677   2.451   2.319   2.055  0.6880  1.7866 -1.0348
  560SOL     OW 1678   2.913   0.539   2.330  0.0775  0.1115 -0.4012
  560SOL    HW1 1679   2.878   0.635   2.339  0.1406 -1.1285  1.7865
  560SOL    HW2 1680   2.995   0.537   2.267 -0.8019 -0.1113  1.7767
  561SOL     OW 1681   0.451   0.604   0.449  0.6043 -0.1329 -0.4295
  561SOL    HW1 1682   0.455   0.514   0.399  0.6181 -1.2876 -0.1411
  561SOL    HW2 1683   0.546   0.642   0.453 -0.4278  0.3906  2.4978
  562SOL     OW 1684   1.034   1.422   1.437 -0.5157 -0.1818 -0.3533
  562SOL    HW1 1685   1.012   1.499   1.500 -0.4933 -1.7132 -3.6087
  562SOL    HW2 1686   0.957   1.355   1.447 -0.1242 -0.0809 -0.4269
  563SOL     OW 1687   1.506   2.696   3.027 -0.0439  0.0479  0.0747
  563SOL    HW1 1688   1.508   2.730   0.002 -1.5374 -2.8171 -3.6753
  563SOL    HW2 1689   1.436   2.737   2.967 -1.7296 -0.9987  0.4754
  564SOL     OW 1690   0.251   2.261   0.996  0.0040 -0.2275  0.2923
  564SOL    HW1 1691   0.233   2.169   1.026  1.7330  0.3841 -3.3027
  564SOL    HW2 1692   0.344   2.265   0.960  1.3360  0.8931 -1.2333
  565SOL     OW 1693   0.752   2.115   2.290 -0.3073  0.7834 -0.7744
  565SOL    HW1 1694   0.655   2.140   2.277  0.8044  2.6676  1.3903
  565SOL    HW2 1695   0.811   2.179   2.238  3.3039 -1.7144  0.6363
  566SOL     OW 1696   1.188   2.612   2.389  0.0455 -0.4472  0.3037
  566SOL    HW1 1697   1.219   2.582   2.480 -1.2055  1.0592 -1.6477
  566SOL    HW2 1698   1.261   2.591   2.319 -1.5463  0.6250  4.1831
  567SOL     OW 1699   2.094   2.254   1.006  0.5103 -0.1511 -0.7026
  567SOL    HW1 1700   2.023   2.220   1.075  0.4503 -0.3413  0.4642
  567SOL    HW2 1701   2.050   2.296   0.922 -3.0293  0.7674  1.7641
  568SOL     OW 1702   2.022   0.834   0.360 -0.0036 -0.1092  0.2827
  568SOL    HW1 1703   1.984   0.920   0.327  2.3744  2.1390 -1.2600
  568SOL    HW2 1704   2.097   0.855   0.431 -0.3141 -0.8451  2.7657
  569SOL     OW 1705   0.079   1.495   2.697 -0.3767 -0.2795 -0.5618
  569SOL    HW1 1706   0.110   1.501   2.598  0.3774  0.6906  1.2794
  569SOL    HW2 1707   0.071   1.393   2.720 -1.0390 -0.7607 -0.7812
  570SOL     OW 1708   0.001   3.052   1.321 -0.7509  0.4890  0.2685
  570SOL    HW1 1709   3.090   3.117   1.396  2.0953  2.7655  1.2493
  570SOL    HW2 1710   3.101   2.951   1.338  1.0319  0.3196 -0.1438
  571SOL     OW 1711   3.103   0.615   1.517  0.7784 -0.1851 -0.1279
  571SOL    HW1 1712   0.010   0.655   1.421  0.7555  2.8834 -0.1280
  571SOL    HW2 1713   3.026   0.557   1.498  0.7620  3.4306  0.2522
  572SOL     OW 1714   2.965   2.587   0.780 -0.5342  0.1974 -0.0665
  572SOL    HW1 1715   3.046   2.526   0.804 -0.6942 -1.0852  2.4932
  572SOL    HW2 1716   2.981   2.684   0.807  1.4206 -0.4731 -1.6494
  573SOL     OW 1717   0.692   0.747   0.117 -0.2890  0.2142  0.4404
  573SOL    HW1 1718   0.684   0.655   0.078 -1.6427  2.3678  1.0264
  573SOL    HW2 1719   0.617   0.811   0.072 -1.5074  0.0498 -0.1273
  574SOL     OW 1720   2.863   2.654   2.992 -0.4373 -0.0747 -0.5728
  574SOL    HW1 1721   2.781   2.713   2.983  1.1015  0.4661  3.1726
  574SOL    HW2 1722   2.936   2.711   3.032 -1.3188  1.2705 -2.6381
  575SOL     OW 1723   1.195   2.394   1.295 -0.3066  0.2155  0.6637
  575SOL    HW1 1724   1.125   2.410   1.223  1.8589 -2.8798 -0.0257
  575SOL    HW2 1725   1.246   2.308   1.290  2.5098  1.8213 -0.1367
  576SOL     OW 1726   0.181   0.021   1.147  0.2674  0.3305 -0.0059
  576SOL    HW1 1727   0.235   3.056   1.115  1.8752  2.4692 -3.0264
  576SOL    HW2 1728   0.107   3.118   1.213  0.1210  2.4734 -1.3030
  577SOL     OW 1729   2.170   1.581   1.074  0.2385  0.1607 -0.0604
  577SOL    HW1 1730   2.180   1.484   1.054  0.9000  0.8728 -1.0888
  577SOL    HW2 1731   2.198   1.633   0.987  0.2204  0.0559 -2.5105
  578SOL     OW 1732   1.648   0.268   0.194  0.1118 -0.4186 -0.1204
  578SOL    HW1 1733   1.563   0.211   0.187 -0.2466 -0.3597  2.0967
  578SOL    HW2 1734   1.635   0.354   0.248  4.0097  2.4580 -0.0372
  579SOL     OW 1735   2.823   1.371   2.493 -0.2914  0.2254 -0.4716
  579SOL    HW1 1736   2.889   1.368   2.572  1.5106  4.4423  0.5599
  579SOL    HW2 1737   2.739   1.318   2.526  0.5882 -1.8766  0.7388
  580SOL     OW 1738   1.725   0.834   1.567 -0.0537 -0.0351 -0.7962
  580SOL    HW1 1739   1.822   0.815   1.571  1.1298  2.7138  0.3057
  580SOL    HW2 1740   1.671   0.765   1.515  0.0745 -0.4892 -0.7838
  581SOL     OW 1741   0.878   1.203   1.407 -0.7987 -0.0868 -0.2263
  581SOL    HW1 1742   0.855   1.171   1.501 -0.0956  0.0214  0.9319
  581SOL    HW2 1743   0.964   1.164   1.379 -0.8596 -0.1879  0.5960
  582SOL     OW 1744   0.080   0.023   1.952  0.8983  0.7147 -0.1469
  582SOL    HW1 1745   0.019   3.079   2.008 -0.1708 -2.3357  1.3273
  582SOL    HW2 1746   0.098   0.115   1.994  1.7873  2.8995 -1.0289
  583SOL     OW 1747   2.181   0.412   1.663 -0.3371  0.0412 -0.2360
  583SOL    HW1 1748   2.230   0.411   1.752 -1.0467  0.8473  0.1811
  583SOL    HW2 1749   2.242   0.433   1.584  0.9221 -1.2166  0.3947
  584SOL     OW 1750   1.496   2.065   2.764  0.2806 -0.1794 -0.2532
  584SOL    HW1 1751   1.545   1.997   2.705 -0.0750 -2.0826  0.5167
  584SOL    HW2 1752   1.403   2.086   2.722 -0.3851  0.3910  1.4662
  585SOL     OW 1753   0.351   2.998   0.336 -0.7131  0.5581  0.4459
  585SOL    HW1 1754   0.334   2.928   0.413  2.2138  0.0351  1.9547
  585SOL    HW2 1755   0.414   2.965   0.261  0.8564 -0.8191 -1.1620
  586SOL     OW 1756   1.749   2.235   2.467 -0.5434 -0.4717  0.0074
  586SOL    HW1 1757   1.762   2.162   2.536 -0.0923 -1.3735 -0.4872
  586SOL    HW2 1758   1.713   2.186   2.379 -0.9566 -4.5036 -3.7437
  587SOL     OW 1759   2.679   2.063   0.603 -0.0277 -0.0590 -0.4173
  587SOL    HW1 1760   2.580   2.059   0.589 -0.5738  1.6385  2.8427
  587SOL    HW2 1761   2.703   2.118   0.685 -1.4774  1.2535  1.1422
  588SOL     OW 1762   2.471   0.135   1.149 -0.1914  0.2453  0.0631
  588SOL    HW1 1763   2.571   0.155   1.131 -0.9191  1.2645  0.5632
  588SOL    HW2 1764   2.413   0.210   1.106 -1.0922  0.0203 -3.3541
  589SOL     OW 1765   0.725   0.681   0.507 -0.0602  0.1730  0.3625
  589SOL    HW1 1766   0.775   0.769   0.522 -3.2500 -3.2324 -1.2110
  589SOL    HW2 1767   0.777   0.621   0.442  2.1935 -2.5621 -0.2392
  590SOL     OW 1768   2.371   1.660   0.491  0.1163  0.2360  0.2311
  590SOL    HW1 1769   2.447   1.643   0.428  0.6339  0.0291 -0.2442
  590SOL    HW2 1770   2.393   1.637   0.586  1.3715 -1.0875 -3.9863
  591SOL     OW 1771   0.417   2.880   1.171 -0.1896 -0.3586 -0.3731
  591SOL    HW1 1772   0.496   2.884   1.101 -0.5636 -2.6180  1.1200
  591SOL    HW2 1773   0.334   2.836   1.130 -2.6588 -1.0219 -1.7700
  592SOL     OW 1774   1.019   0.851   1.498  0.1155  0.3281  0.0552
  592SOL    HW1 1775   0.950   0.856   1.576  0.4391  0.8888  1.2788
  592SOL    HW2 1776   1.100   0.792   1.525 -0.8163 -3.8957  0.6649
  593SOL     OW 1777   0.638   1.522   1.162 -0.3524 -0.0061  0.1113
  593SOL    HW1 1778   0.731   1.511   1.122  1.2188 -0.6442  1.6602
  593SOL    HW2 1779   0.610   1.620   1.145  0.0536  2.5649 -0.1527
  594SOL     OW 1780   0.876   2.051   0.208  0.5719 -0.1990 -0.0806
  594SOL    HW1 1781   0.819   2.137   0.200  0.9321 -0.3478 -0.2662
  594SOL    HW2 1782   0.877   2.020   0.305  1.0100 -0.4213  0.8802
  595SOL     OW 1783   1.648   0.307   1.129  0.0891  0.4972 -0.7174
  595SOL    HW1 1784   1.543   0.318   1.131 -1.2804 -1.0721 -1.6868
  595SOL    HW2 1785   1.687   0.309   1.034  0.9704 -1.5236  2.8311
  596SOL     OW 1786   3.071   1.694   1.046 -0.1550 -0.0795 -0.1975
  596SOL    HW1 1787   3.032   1.682   1.146  0.7561 -0.8191  4.0876
  596SOL    HW2 1788   0.043   1.643   1.039 -1.4851 -1.5372  0.3609
  597SOL     OW 1789   0.198   2.410   2.703  0.4736 -0.0897  0.6162
  597SOL    HW1 1790   0.114   2.357   2.721  1.6198 -1.2190  2.5189
  597SOL    HW2 1791   0.201   2.486   2.772 -0.0783  1.3633  3.0277
  598SOL     OW 1792   2.821   1.991   2.203  0.2497 -1.0094 -0.0991
  598SOL    HW1 1793   2.790   1.943   2.292 -0.2023 -2.2298  3.8799
  598SOL    HW2 1794   2.808   2.093   2.196 -1.3813  1.6160  0.7640
  599SOL     OW 1795   0.898   0.376   3.089  0.0195  0.1408 -0.2000
  599SOL    HW1 1796   0.812   0.417   0.007  0.4078  0.0189 -1.1666
  599SOL    HW2 1797   0.918   0.403   2.996  0.1806  0.9682  3.7843
  600SOL     OW 1798   0.779   2.664   0.373  0.4002  0.7966 -0.2598
  600SOL    HW1 1799   0.822   2.707   0.290 -0.5138  0.8466  2.0796
  600SOL    HW2 1800   0.676   2.668   0.368 -0.6011  1.9939  0.7791
  601SOL     OW 1801   0.442   0.834   1.362  0.4431  0.2236  1.0093
  601SOL    HW1 1802   0.498   0.913   1.331 -0.0138 -0.1860 -1.4861
  601SOL    HW2 1803   0.444   0.769   1.281 -0.2814 -0.4871 -1.8219
  602SOL     OW 1804   0.663   2.717   0.781  0.3474  0.2830  0.1677
  602SOL    HW1 1805   0.623   2.625   0.795 -1.1682  2.5914  2.8491
  602SOL    HW2 1806   0.688   2.743   0.872  0.3555 -1.3621 -1.8672
  603SOL     OW 1807   1.027   3.104   2.223 -0.4644 -0.6259 -0.0153
  603SOL    HW1 1808   1.034   3.023   2.160  0.8747  2.6645  1.7813
  603SOL    HW2 1809   0.972   0.062   2.174 -3.0712  3.5760 -3.0015
  604SOL     OW 1810   0.790   2.605   1.744 -0.6616  0.5618  0.0073
  604SOL    HW1 1811   0.738   2.636   1.663 -0.2319 -2.0628 -1.3712
  604SOL    HW2 1812   0.729   2.571   1.814  2.3191  1.2551 -0.4609
  605SOL     OW 1813   1.907   0.734   1.975  0.4360 -0.1559 -0.2198
  605SOL    HW1 1814   2.002   0.740   1.944 -0.3524  0.6971  6.8483
  605SOL    HW2 1815   1.899   0.784   2.068 -1.3523  1.8729  2.1661
  606SOL     OW 1816   2.395   2.897   2.737 -0.3078 -0.2005  0.3327
  606SOL    HW1 1817   2.375   2.929   2.834  0.6993 -0.6376 -1.3072
  606SOL    HW2 1818   2.429   2.978   2.688  0.2161 -0.0723  0.9740
  607SOL     OW 1819   0.821   0.755   1.316 -0.0988 -0.1243  0.5797
  607SOL    HW1 1820   0.754   0.695   1.364 -2.2620  0.1706  1.2907
  607SOL    HW2 1821   0.888   0.795   1.384  2.1950 -0.0923  1.0857
  608SOL     OW 1822   0.201   1.980   2.661 -0.1581  0.0286 -0.1246
  608SOL    HW1 1823   0.256   2.049   2.607  1.0944  1.1050 -0.3206
  608SOL    HW2 1824   0.260   1.910   2.710  1.6132 -1.7522  0.4572
  609SOL     OW 1825   1.645   1.185   0.170 -0.1712 -0.3078 -0.4383
  609SOL    HW1 1826   1.618   1.238   0.245  2.2493  1.3618 -1.4265
  609SOL    HW2 1827   1.586   1.213   0.092  0.4234 -0.9462  1.7169
  610SOL     OW 1828   0.691   0.490   1.363  0.0243  0.7241 -0.4897
  610SOL    HW1 1829   0.666   0.406   1.416  1.2144 -2.3093  0.9508
  610SOL    HW2 1830   0.732   0.461   1.274 -2.6457 -0.7107  1.2941
  611SOL     OW 1831   1.413   0.647   0.823  0.1783  0.7617  0.2436
  611SOL    HW1 1832   1.334   0.614   0.763 -2.0680 -1.3790  0.6048
  611SOL    HW2 1833   1.422   0.751   0.813  1.5401  2.1693 -2.3002
  612SOL     OW 1834   1.728   0.947   3.044  0.4101  0.5596  0.8635
  612SOL    HW1 1835   1.750   1.046   3.062 -0.5487 -0.0128 -0.7216
  612SOL    HW2 1836   1.747   0.898   0.012  1.2462 -1.9066  1.6403
  613SOL     OW 1837   2.286   0.575   0.410  0.0344  0.1664  0.5114
  613SOL    HW1 1838   2.192   0.550   0.372 -1.7804  1.6439 -0.5620
  613SOL    HW2 1839   2.330   0.489   0.426 -1.5023  2.1473 -1.3654
  614SOL     OW 1840   2.821   3.086   2.102 -0.5984 -0.3512 -0.6541
  614SOL    HW1 1841   2.863   2.995   2.118  1.0557  1.3785  0.6572
  614SOL    HW2 1842   2.877   0.042   2.148 -1.5165  1.7052  0.8946
  615SOL     OW 1843   0.846   2.047   1.129  0.1727  0.3747  0.0263
  615SOL    HW1 1844   0.874   1.967   1.185 -2.0836  0.2819 -0.3208
  615SOL    HW2 1845   0.743   2.049   1.121  1.2170 -0.2559  1.8876
  616SOL     OW 1846   1.695   1.613   2.691 -0.4909 -0.2400 -0.6191
  616SOL    HW1 1847   1.791   1.614   2.714 -3.0529 -1.6224 -2.4516
  616SOL    HW2 1848   1.677   1.538   2.623 -0.2370 -2.9779 -0.1550
  617SOL     OW 1849   1.542   0.114   2.991  0.1003 -0.5916  0.3274
  617SOL    HW1 1850   1.479   0.040   2.954 -0.0908  0.0219 -2.1765
  617SOL    HW2 1851   1.607   0.074   3.057 -0.3607 -0.5450  0.4223
  618SOL     OW 1852   1.262   2.100   2.683  0.3817 -0.1412 -0.1417
  618SOL    HW1 1853   1.223   2.026   2.738  0.1739  0.4163  0.3210
  618SOL    HW2 1854   1.236   2.186   2.727  0.4695 -2.2322 -0.8648
  619SOL     OW 1855   2.471   1.535   0.746 -0.1778  0.1708 -0.2807
  619SOL    HW1 1856   2.559   1.584   0.729 -0.5862  2.4647 -2.0776
  619SOL    HW2 1857   2.489   1.436   0.759 -1.6182  3.4113 -0.2657
  620SOL     OW 1858   2.022   2.851   2.215  0.0632 -0.1138  0.2547
  620SOL    HW1 1859   2.056   2.884   2.306  2.0194  1.5632 -1.7262
  620SOL    HW2 1860   2.106   2.853   2.155  1.7264  0.1518  1.6467
  621SOL     OW 1861   2.859   1.419   0.765 -0.3626  0.4058  0.1548
  621SOL    HW1 1862   2.818   1.353   0.833  0.7672  0.2668  0.2182
  621SOL    HW2 1863   2.951   1.454   0.802  1.4118  1.2024  0.5157
  622SOL     OW 1864   1.423   1.835   2.399  0.1161 -0.0916  0.6939
  622SOL    HW1 1865   1.325   1.811   2.365 -0.3512 -3.6690  0.8072
  622SOL    HW2 1866   1.483   1.753   2.389 -0.4392  0.3382 -1.5052
  623SOL     OW 1867   0.646   2.666   2.367 -0.4371  0.4275  0.3386
  623SOL    HW1 1868   0.740   2.679   2.399  1.1760  0.3250  0.2496
  623SOL    HW2 1869   0.613   2.576   2.396  1.5873  1.4181 -0.3701
  624SOL     OW 1870   0.665   2.656   2.965 -0.0703 -0.1391 -0.0149
  624SOL    HW1 1871   0.729   2.605   3.025  1.4994 -1.5623  1.6834
  624SOL    HW2 1872   0.601   2.708   3.023  3.7008 -0.3099 -0.5282
  625SOL     OW 1873   0.174   2.101   2.067  0.5878  0.0465 -0.0610
  625SOL    HW1 1874   0.164   2.202   2.053 -0.7769 -0.5208 -0.8400
  625SOL    HW2 1875   0.101   2.070   2.136  3.0874  1.0593  0.4564
  626SOL     OW 1876   0.088   0.107   3.041 -0.2465 -0.8002 -0.0965
  626SOL    HW1 1877   0.057   0.205   3.052  0.5254  3.1797  2.2279
  626SOL    HW2 1878   0.185   0.107   3.004  3.0372  1.4012 -0.6246
  627SOL     OW 1879   2.265   1.694   0.040 -0.0048 -0.2619 -0.8551
  627SOL    HW1 1880   2.355   1.702   0.000 -2.1745 -0.5824  3.9429
  627SOL    HW2 1881   2.191   1.706   3.092  3.0478 -4.1900  0.0272
  628SOL     OW 1882   1.578   1.820   3.111 -0.2616  0.0820  0.6410
  628SOL    HW1 1883   1.587   1.742   3.049 -0.7369 -0.4268  0.1985
  628SOL    HW2 1884   1.535   1.793   0.079  0.8258  0.2843 -2.7105
  629SOL     OW 1885   0.328   0.214   1.740 -0.0755 -0.8277  0.3284
  629SOL    HW1 1886   0.265   0.285   1.779 -1.1099  0.6486  0.0604
  629SOL    HW2 1887   0.286   0.156   1.665  1.7449 -0.9510 -1.1259
  630SOL     OW 1888   2.400   0.856   1.552 -0.0681 -0.0552  0.8099
  630SOL    HW1 1889   2.310   0.861   1.506 -0.0199 -1.8990 -0.0245
  630SOL    HW2 1890   2.393   0.808   1.642  0.4145  0.4145 -1.4805
  631SOL     OW 1891   2.048   0.055   0.475 -0.4199  0.1951  0.4270
  631SOL    HW1 1892   2.144   0.023   0.464 -1.8892  0.1648  0.7200
  631SOL    HW2 1893   2.006   3.117   0.542 -0.7417  0.7408 -2.9463
  632SOL     OW 1894   2.778   0.797   1.914 -0.1108 -0.4965 -0.1689
  632SOL    HW1 1895   2.753   0.855   1.830 -0.1090  0.4561 -1.5019
  632SOL    HW2 1896   2.708   0.817   1.988 -2.7640 -0.4714  0.8622
  633SOL     OW 1897   0.699   0.533   2.680 -0.3042  0.2412 -0.0489
  633SOL    HW1 1898   0.720   0.444   2.721  0.6626 -0.2743  0.4792
  633SOL    HW2 1899   0.741   0.612   2.733  4.1813  1.2839 -0.2288
  634SOL     OW 1900   0.481   2.761   2.806  0.0360  0.0203  0.6449
  634SOL    HW1 1901   0.543   2.684   2.824 -1.2385  0.9327 -2.3534
  634SOL    HW2 1902   0.385   2.760   2.841  0.5824 -0.0696  2.2950
  635SOL     OW 1903   0.056   1.318   1.232  0.1986  0.1804  0.4278
  635SOL    HW1 1904   0.099   1.390   1.170  2.7063  0.0544 -1.6594
  635SOL    HW2 1905   0.077   1.225   1.198 -0.9655  2.6273  1.2930
  636SOL     OW 1906   0.005   1.470   0.044  0.4718 -0.2584  0.4760
  636SOL    HW1 1907   3.088   1.386   0.082  4.3704  1.4255 -1.7627
  636SOL    HW2 1908   0.103   1.455   0.021 -0.6231  2.9662 -2.1138
  637SOL     OW 1909   0.193   2.819   0.061  0.3050 -0.3155 -0.5264
  637SOL    HW1 1910   0.226   2.762   0.141 -1.3258 -0.6154 -2.1766
  637SOL    HW2 1911   0.161   2.914   0.096 -0.3790  0.2353  0.3467
  638SOL     OW 1912   2.804   2.514   0.560  0.3727 -0.4104  0.0300
  638SOL    HW1 1913   2.854   2.579   0.500 -1.2252  1.5818 -2.0610
  638SOL    HW2 1914   2.848   2.516   0.652  0.3772  0.6051 -2.1398
  639SOL     OW 1915   1.029   1.147   0.264 -0.3735 -0.0991 -0.2148
  639SOL    HW1 1916   0.967   1.212   0.211 -1.0991 -0.0194 -0.2489
  639SOL    HW2 1917   1.041   1.060   0.214  0.9945  3.0042 -1.2862
  640SOL     OW 1918   1.928   2.677   1.449 -0.2716  0.2628  0.6365
  640SOL    HW1 1919   1.859   2.623   1.395 -2.8987  0.9624  0.7975
  640SOL    HW2 1920   1.995   2.607   1.482 -0.1302  0.0955 -0.2895
  641SOL     OW 1921   0.035   0.193   0.618 -0.0357 -0.2338 -0.3231
  641SOL    HW1 1922   3.071   0.193   0.682  1.5616  3.0485 -0.0138
  641SOL    HW2 1923   0.070   0.288   0.605  0.4496 -2.4217 -2.0133
  642SOL     OW 1924   1.268   0.835   1.791  0.3341 -0.5694  0.2230
  642SOL    HW1 1925   1.337   0.817   1.864 -1.1895 -3.1114 -2.4294
  642SOL    HW2 1926   1.278   0.924   1.748 -1.1298 -3.3104  1.2811
  643SOL     OW 1927   0.839   1.918   2.654  0.7724  0.1349  0.2072
  643SOL    HW1 1928   0.880   1.995   2.607  1.3955 -1.4236  0.2014
  643SOL    HW2 1929   0.785   1.948   2.736 -0.1483  1.9319 -1.9640
  644SOL     OW 1930   1.235   2.349   2.769 -1.4226  0.5449 -0.4166
  644SOL    HW1 1931   1.220   2.377   2.869 -2.3217  1.0527  2.5409
  644SOL    HW2 1932   1.267   2.431   2.713 -3.6668 -2.2446 -1.6715
  645SOL     OW 1933   1.522   1.263   1.750  0.1188  0.4845 -0.1147
  645SOL    HW1 1934   1.604   1.203   1.762  1.1839 -1.1442 -0.0161
  645SOL    HW2 1935   1.447   1.205   1.709  0.4837  1.0182 -3.2636
  646SOL     OW 1936   0.878   2.823   2.956  0.0969 -0.2685 -0.5417
  646SOL    HW1 1937   0.817   2.744   2.956 -0.6480  0.0583 -0.9478
  646SOL    HW2 1938   0.853   2.896   2.889 -0.0118  0.0961  3.4883
  647SOL     OW 1939   0.902   2.978   0.486 -0.2339 -0.2679 -0.9679
  647SOL    HW1 1940   0.803   2.944   0.492 -2.7150 -0.4276 -1.9355
  647SOL    HW2 1941   0.925   3.036   0.568  1.0585 -2.1572  2.6411
  648SOL     OW 1942   2.803   2.773   1.509 -0.5373  0.4141  0.4344
  648SOL    HW1 1943   2.742   2.748   1.429 -1.9785  2.2969  0.1719
  648SOL    HW2 1944   2.808   2.703   1.581  1.4771 -1.0179 -0.2933
  649SOL     OW 1945   0.791   2.289   2.861 -0.1761 -0.2897 -0.2299
  649SOL    HW1 1946   0.856   2.319   2.783 -0.8853  0.8473 -1.9629
  649SOL    HW2 1947   0.698   2.264   2.832 -1.8206  2.8121  2.6646
  650SOL     OW 1948   2.213   2.156   2.136  0.4128  0.2083  0.1835
  650SOL    HW1 1949   2.166   2.201   2.214  0.8947  1.9044  2.6726
  650SOL    HW2 1950   2.303   2.200   2.128 -0.2080  2.5593  0.8050
  651SOL     OW 1951   3.024   2.766   2.380 -0.5661  0.1427 -0.1882
  651SOL    HW1 1952   3.094   2.708   2.433  1.0808 -1.9233  0.0816
  651SOL    HW2 1953   2.932   2.767   2.424  1.2149  2.2280 -0.6508
  652SOL     OW 1954   2.901   1.922   0.582 -0.3533 -0.3898 -0.0075
  652SOL    HW1 1955   2.927   1.943   0.680  0.1213  0.9992 -1.9412
  652SOL    HW2 1956   2.812   1.970   0.559 -1.3172  1.8017 -0.3198
  653SOL     OW 1957   2.498   0.914   1.122 -0.2743  0.0197  0.1153
  653SOL    HW1 1958   2.496   0.861   1.209 -0.0548  0.2683 -1.3377
  653SOL    HW2 1959   2.451   0.864   1.044 -3.0470 -0.0512  2.1300
  654SOL     OW 1960   0.811   0.289   2.753 -0.2958 -0.2413  0.2903
  654SOL    HW1 1961   0.907   0.266   2.761  0.1456  4.4081 -1.9585
  654SOL    HW2 1962   0.745   0.231   2.808 -0.9832  0.6239  0.6618
  655SOL     OW 1963   0.887   0.383   1.546 -0.2603 -0.0998 -0.4581
  655SOL    HW1 1964   0.849   0.454   1.481  1.0969  2.1054  1.0382
  655SOL    HW2 1965   0.883   0.284   1.514 -2.6053  1.3551 -1.8889
  656SOL     OW 1966   0.230   2.522   2.247 -0.5494 -0.5095 -0.6299
  656SOL    HW1 1967   0.236   2.457   2.172  0.5427  0.5639  3.9527
  656SOL    HW2 1968   0.239   2.621   2.221  1.4354 -0.4425  0.5466
  657SOL     OW 1969   2.265   0.451   0.106  0.2194 -0.0849  0.2280
  657SOL    HW1 1970   2.196   0.470   0.183  0.4737 -0.9558  0.9869
  657SOL    HW2 1971   2.328   0.532   0.084  4.0291  0.7612  0.4403
  658SOL     OW 1972   2.059   1.929   1.133 -0.0450  0.2511 -0.3423
  658SOL    HW1 1973   2.141   1.934   1.191 -2.4741 -1.1014  1.5673
  658SOL    HW2 1974   2.078   1.875   1.047 -1.7564 -2.5174 -1.5058
  659SOL     OW 1975   2.645   2.270   2.861 -0.2818 -0.4718  0.2401
  659SOL    HW1 1976   2.582   2.347   2.863 -0.1192  1.9515  2.4039
  659SOL    HW2 1977   2.742   2.292   2.889  0.7603 -0.3265  1.0739
  660SOL     OW 1978   1.140   0.120   3.093 -0.1216  0.3289  0.4532
  660SOL    HW1 1979   1.190   0.208   3.109 -1.8340  0.7391 -1.6864
  660SOL    HW2 1980   1.050   0.125   0.024 -2.8141 -1.7612  2.0603
  661SOL     OW 1981   2.345   0.072   0.292  0.2480  0.1663  0.2897
  661SOL    HW1 1982   2.258   0.089   0.240 -1.3010 -2.5882  2.9361
  661SOL    HW2 1983   2.417   0.136   0.252 -0.8816  2.1415 -2.0648
  662SOL     OW 1984   0.501   0.044   0.832  0.3867 -0.7245 -0.3466
  662SOL    HW1 1985   0.422   0.084   0.789  0.6304 -2.3369 -0.7107
  662SOL    HW2 1986   0.503   3.064   0.812 -3.1186  5.1095 -0.7033
  663SOL     OW 1987   1.396   0.300   2.340  0.2892 -0.3454 -0.5348
  663SOL    HW1 1988   1.349   0.253   2.264 -1.8625  1.3605  1.5726
  663SOL    HW2 1989   1.327   0.330   2.406  1.1520 -1.3098 -2.2873
  664SOL     OW 1990   0.734   2.957   1.504  0.4285  0.4429  0.2387
  664SOL    HW1 1991   0.663   2.880   1.509 -0.6807  1.9115  0.7764
  664SOL    HW2 1992   0.756   3.007   1.592  1.3978  1.1940 -0.6821
  665SOL     OW 1993   1.006   2.197   1.946 -0.1221 -0.4675  0.3070
  665SOL    HW1 1994   1.027   2.286   1.903  0.0446 -1.1274  0.8667
  665SOL    HW2 1995   1.061   2.182   2.034 -0.7582 -1.4905 -0.0500
  666SOL     OW 1996   0.321   3.096   2.619  0.0098 -0.2069 -0.2304
  666SOL    HW1 1997   0.419   3.075   2.644 -0.2598  0.0169  1.4766
  666SOL    HW2 1998   0.290   3.027   2.552  1.0170 -0.7365  2.5244
  667SOL     OW 1999   1.793   1.614   1.510  0.5778 -0.0096  0.3472
  667SOL    HW1 2000   1.706   1.566   1.533 -0.2108 -0.0940  1.1734
  667SOL    HW2 2001   1.858   1.545   1.481  0.1768  0.8500 -2.0812
  668SOL     OW 2002   1.556   0.389   1.543  0.0915  0.1267 -0.2145
  668SOL    HW1 2003   1.605   0.312   1.489  1.5622 -2.0263  3.0110
  668SOL    HW2 2004   1.530   0.353   1.634  1.9595 -0.0030  1.9118
  669SOL     OW 2005   2.510   2.518   1.603 -0.1999 -0.1927 -0.8023
  669SOL    HW1 2006   2.520   2.415   1.597 -1.2665 -1.8773 -0.4868
  669SOL    HW2 2007   2.463   2.557   1.521  1.2284  3.4368 -0.4866
  670SOL     OW 2008   1.560   2.334   2.811  0.0369  0.5397  0.3041
  670SOL    HW1 2009   1.551   2.232   2.799  0.1528 -3.5613 -1.0921
  670SOL    HW2 2010   1.490   2.376   2.875  0.6900 -0.3554 -3.5263
  671SOL     OW 2011   0.986   1.161   0.565 -0.2439 -0.2233 -0.3288
  671SOL    HW1 2012   1.059   1.194   0.631 -0.3718 -2.6524 -1.9722
  671SOL    HW2 2013   1.025   1.145   0.468  1.9652 -0.2029 -2.3124
  672SOL     OW 2014   3.052   1.035   2.539 -0.5347  0.3120  0.1815
  672SOL    HW1 2015   2.977   1.008   2.602 -0.3209  2.3530 -3.4876
  672SOL    HW2 2016   3.101   0.951   2.501 -0.4727  1.2730 -1.2802
  673SOL     OW 2017   2.778   1.845   1.418 -0.6261  0.8497 -0.5409
  673SOL    HW1 2018   2.796   1.943   1.441  0.2431 -2.8952  0.3003
  673SOL    HW2 2019   2.774   1.781   1.499  1.1806  0.3782  1.2208
  674SOL     OW 2020   0.621   2.306   1.923 -0.3640  0.2041  0.3151
  674SOL    HW1 2021   0.574   2.342   1.836 -1.8019 -0.1214 -1.3784
  674SOL    HW2 2022   0.636   2.382   1.994  1.5331  0.4515  2.4742
  675SOL     OW 2023   0.970   0.895   1.802 -0.1966 -0.2854 -0.5250
  675SOL    HW1 2024   0.908   0.877   1.884 -2.9970  1.6744  2.4754
  675SOL    HW2 2025   1.045   0.832   1.804 -1.4352  0.9099 -1.0628
  676SOL     OW 2026   2.347   0.360   1.036 -0.4012 -0.1724  0.0505
  676SOL    HW1 2027   2.315   0.406   0.947 -0.1271 -1.5314 -1.0799
  676SOL    HW2 2028   2.399   0.425   1.093  0.7750 -0.2605 -1.0030
  677SOL     OW 2029   2.409   1.360   2.940 -0.0516  0.3123  0.1829
  677SOL    HW1 2030   2.348   1.354   3.022 -1.3599  1.0200  1.3661
  677SOL    HW2 2031   2.364   1.387   2.855  2.5349 -1.3038  1.0091
  678SOL     OW 2032   2.868   0.849   1.308 -0.1394 -0.6760  0.1105
  678SOL    HW1 2033   2.962   0.876   1.269  2.4357  0.5305  0.0842
  678SOL    HW2 2034   2.813   0.931   1.328  0.2651 -2.7794 -0.0715
  679SOL     OW 2035   2.491   0.274   0.177 -0.0931 -0.1625 -0.1621
  679SOL    HW1 2036   2.583   0.318   0.165  2.3087 -1.5079 -0.2064
  679SOL    HW2 2037   2.413   0.337   0.149 -0.6586 -0.0703 -0.0005
  680SOL     OW 2038   3.014   1.726   1.983  0.1205  0.3776 -0.3262
  680SOL    HW1 2039   3.101   1.774   2.016  1.4053  0.8152 -0.2485
  680SOL    HW2 2040   2.984   1.657   2.048 -0.1302  0.4849  1.5594
  681SOL     OW 2041   2.131   2.239   1.409 -0.2182 -0.4350 -0.0867
  681SOL    HW1 2042   2.063   2.167   1.410 -1.4219  0.5862 -0.2776
  681SOL    HW2 2043   2.126   2.290   1.318 -0.0404  0.5654  0.4115
  682SOL     OW 2044   0.189   1.780   3.061 -0.1029 -0.0157  0.0942
  682SOL    HW1 2045   0.089   1.775   3.085 -2.4999  1.5746  2.3981
  682SOL    HW2 2046   0.211   1.700   3.000  0.2881  0.2621  2.6436
  683SOL     OW 2047   0.068   2.058   1.550 -0.2631 -0.5638 -0.0198
  683SOL    HW1 2048   0.106   2.122   1.483 -0.4620 -1.8803  0.6451
  683SOL    HW2 2049   3.105   2.002   1.515  0.2046 -0.6718  0.4009
  684SOL     OW 2050   2.928   1.166   2.340 -0.2948  0.0380  0.4654
  684SOL    HW1 2051   2.857   1.227   2.385 -2.5067 -0.8269 -0.8579
  684SOL    HW2 2052   2.968   1.099   2.410  0.7931 -2.0570 -4.6803
  685SOL     OW 2053   1.399   1.148   0.519  0.1887  0.1628  0.1352
  685SOL    HW1 2054   1.414   1.192   0.608  1.6612 -1.7378 -3.7070
  685SOL    HW2 2055   1.327   1.077   0.531  1.4499  0.3614  1.5242
  686SOL     OW 2056   0.578   0.328   0.603  0.3290 -0.2671 -0.2642
  686SOL    HW1 2057   0.641   0.252   0.598  0.8135  1.1786 -1.4196
  686SOL    HW2 2058   0.563   0.354   0.503  0.0793  0.8908 -1.7675
  687SOL     OW 2059   0.965   2.082   2.919 -0.0513 -0.0650  0.0028
  687SOL    HW1 2060   0.983   2.099   3.016  1.0694 -1.5333 -0.7977
  687SOL    HW2 2061   0.884   2.137   2.890 -0.0728  5.4517 -0.1900
  688SOL     OW 2062   1.753   1.115   1.477  0.4566  0.1356 -0.4710
  688SOL    HW1 2063   1.676   1.164   1.431 -0.5265  2.1991  0.3975
  688SOL    HW2 2064   1.731   1.018   1.508 -0.0641 -1.9232  1.3449
  689SOL     OW 2065   2.037   0.397   0.783  0.3229 -0.0057  0.0591
  689SOL    HW1 2066   2.126   0.351   0.778  1.9247 -0.6874  0.3879
  689SOL    HW2 2067   2.035   0.487   0.728  1.1083  2.5117  1.3970
  690SOL     OW 2068   0.024   1.416   0.853 -0.1290  0.3081 -0.6048
  690SOL    HW1 2069   0.032   1.314   0.865 -0.6618 -2.3285 -0.6977
  690SOL    HW2 2070   0.051   1.453   0.761 -0.6789  1.5268  0.2616
  691SOL     OW 2071   0.216   2.182   1.342 -0.1715 -0.2307 -0.1093
  691SOL    HW1 2072   0.191   2.120   1.266 -3.1980  0.7582  1.4340
  691SOL    HW2 2073   0.197   2.279   1.307  0.9906  0.0198 -1.1301
  692SOL     OW 2074   1.989   0.458   1.267 -0.0799 -0.0812  0.5292
  692SOL    HW1 2075   1.952   0.393   1.339  1.1626 -2.0655  0.2657
  692SOL    HW2 2076   2.005   0.404   1.177  0.7637  1.5677 -1.0151
  693SOL     OW 2077   0.547   1.699   2.274  0.1881  0.0677  0.0571
  693SOL    HW1 2078   0.516   1.786   2.232 -2.2397  2.9444  2.8369
  693SOL    HW2 2079   0.614   1.715   2.349 -0.5682 -0.8258 -2.7718
  694SOL     OW 2080   1.910   1.563   1.154 -0.2177 -0.2092  0.3983
  694SOL    HW1 2081   1.858   1.655   1.172 -0.6837  0.9397 -0.4969
  694SOL    HW2 2082   2.000   1.585   1.107  2.6669  0.8335 -0.3843
  695SOL     OW 2083   1.205   0.962   0.590  0.1404  0.4414  0.0179
  695SOL    HW1 2084   1.153   0.899   0.527  1.9706 -1.1519 -0.0471
  695SOL    HW2 2085   1.209   0.922   0.685  2.2352  0.8625  0.2083
  696SOL     OW 2086   0.533   0.097   0.406 -0.0739  0.5835  0.2820
  696SOL    HW1 2087   0.460   0.027   0.383 -2.7822  0.2088  0.4693
  696SOL    HW2 2088   0.631   0.065   0.408  0.3576  1.2439 -2.0535
  697SOL     OW 2089   1.855   0.784   1.212 -0.4445 -0.0925  0.0236
  697SOL    HW1 2090   1.775   0.732   1.167  0.3848  1.0353 -0.8631
  697SOL    HW2 2091   1.946   0.739   1.189  0.2522  2.4726 -0.3895
  698SOL     OW 2092   1.610   1.409   2.180  0.2920 -0.1443 -0.6307
  698SOL    HW1 2093   1.536   1.404   2.098 -3.0055  1.6120 -3.3378
  698SOL    HW2 2094   1.639   1.501   2.192 -0.7055 -2.5305  1.3478
  699SOL     OW 2095   2.897   0.351   1.852 -0.1758  0.1667  0.4174
  699SOL    HW1 2096   2.877   0.380   1.950 -1.1363 -0.2663  0.4833
  699SOL    HW2 2097   2.860   0.258   1.834 -2.4954  1.7585 -0.2298
  700SOL     OW 2098   1.507   2.278   0.565  0.7907 -0.5545 -0.6475
  700SOL    HW1 2099   1.544   2.345   0.632 -1.4711 -0.9391 -3.1252
  700SOL    HW2 2100   1.441   2.219   0.613 -0.2107 -0.7298 -0.6025
  701SOL     OW 2101   2.455   2.045   2.440  0.5621 -0.0914  0.0067
  701SOL    HW1 2102   2.474   1.991   2.354  2.5097  0.3778 -0.6595
  701SOL    HW2 2103   2.545   2.061   2.489  1.2942 -1.5949 -1.6925
  702SOL     OW 2104   0.637   2.914   0.518  0.0587  0.4395  0.3077
  702SOL    HW1 2105   0.572   2.957   0.585  0.1521 -1.0955  0.5259
  702SOL    HW2 2106   0.601   2.824   0.490  1.2888  0.9564 -1.6357
  703SOL     OW 2107   1.771   2.976   2.090 -0.2410 -0.1612 -0.8246
  703SOL    HW1 2108   1.801   3.013   1.998 -1.0985 -0.9955 -1.2587
  703SOL    HW2 2109   1.856   2.946   2.139 -1.3548  1.1097 -1.2255
  704SOL     OW 2110   2.716   2.185   0.197 -0.0620  0.0633  0.6102
  704SOL    HW1 2111   2.760   2.192   0.287 -0.4237 -0.4470 -2.3868
  704SOL    HW2 2112   2.779   2.146   0.130 -2.4766 -0.4190  0.2106
  705SOL     OW 2113   2.600   2.504   2.386  0.4805  0.4702  0.2139
  705SOL    HW1 2114   2.694   2.528   2.352  0.8596 -0.8387 -0.0181
  705SOL    HW2 2115   2.570   2.414   2.347 -0.5711  1.0699 -1.4346
  706SOL     OW 2116   2.716   0.254   0.489 -0.9602  0.0079  0.1008
  706SOL    HW1 2117   2.750   0.283   0.399 -2.3938  2.3289 -1.0996
  706SOL    HW2 2118   2.740   0.157   0.505 -0.1740  1.4624 -0.7754
  707SOL     OW 2119   1.211   0.401   2.530 -0.4848 -0.0948  0.3000
  707SOL    HW1 2120   1.126   0.344   2.518 -2.9038  0.7667 -0.2591
  707SOL    HW2 2121   1.217   0.434   2.631  1.4782  1.5576  2.4012
  708SOL     OW 2122   0.235   2.092   1.771  0.1441 -0.4008  0.2498
  708SOL    HW1 2123   0.154   2.086   1.710  1.6280 -0.3119  0.0807
  708SOL    HW2 2124   0.231   2.098   1.870  0.8478  2.0832 -4.5312
  709SOL     OW 2125   1.330   3.037   1.672 -0.2703  0.0492  0.0728
  709SOL    HW1 2126   1.420   3.078   1.647 -0.6988  0.7624 -0.8122
  709SOL    HW2 2127   1.312   3.067   1.770  1.1826 -1.0666 -0.0082
  710SOL     OW 2128   1.543   2.724   2.573 -0.7739  0.1362  0.3187
  710SOL    HW1 2129   1.526   2.622   2.548  0.8857 -1.5354 -0.8059
  710SOL    HW2 2130   1.603   2.741   2.660 -0.8914 -1.5475  2.8224
  711SOL     OW 2131   0.982   2.323   2.668 -0.0614 -0.3210 -0.0948
  711SOL    HW1 2132   1.016   2.235   2.637 -1.2745  0.5719  1.2910
  711SOL    HW2 2133   1.056   2.380   2.708  2.4910 -0.8017 -1.0535
  712SOL     OW 2134   1.064   2.173   0.053 -0.3377 -0.4579 -1.1323
  712SOL    HW1 2135   0.979   2.136   0.097 -0.7256 -0.6846 -3.0038
  712SOL    HW2 2136   1.156   2.150   0.092  1.1804  1.0270 -0.4558
  713SOL     OW 2137   2.145   1.172   1.843 -0.2662 -0.2578 -0.6392
  713SOL    HW1 2138   2.156   1.266   1.814  0.5539 -5.2973  0.5315
  713SOL    HW2 2139   2.046   1.148   1.863 -2.5863 -1.3593  0.9428
  714SOL     OW 2140   0.907   1.161   2.149 -0.0143  0.9073  0.2184
  714SOL    HW1 2141   0.833   1.137   2.221 -1.0331 -0.3307 -0.2673
  714SOL    HW2 2142   0.974   1.086   2.145 -0.3683  0.9455  0.0847
  715SOL     OW 2143   2.739   0.398   0.128  0.1293  0.0948  0.3634
  715SOL    HW1 2144   2.760   0.302   0.164  0.4130  2.4292  0.4843
  715SOL    HW2 2145   2.766   0.462   0.203  3.0995 -0.1124  0.5108
  716SOL     OW 2146   3.050   2.797   1.378  0.3394 -0.1196  0.1689
  716SOL    HW1 2147   3.103   2.708   1.404  0.8511  0.6585 -0.1423
  716SOL    HW2 2148   2.954   2.798   1.420 -0.4329  2.2574 -0.0082
  717SOL     OW 2149   2.397   0.811   0.897 -0.3113 -0.3683 -0.5127
  717SOL    HW1 2150   2.433   0.873   0.823  0.2888 -1.4830 -0.2873
  717SOL    HW2 2151   2.380   0.719   0.860  1.1217  1.2374  0.7603
  718SOL     OW 2152   1.520   1.250   1.392 -0.3484 -0.6050  0.5191
  718SOL    HW1 2153   1.461   1.334   1.403  0.6716  0.9622 -1.7542
  718SOL    HW2 2154   1.545   1.246   1.295  0.0862 -0.5329  2.4591
  719SOL     OW 2155   2.625   2.738   2.788 -0.1856  0.1881  0.1565
  719SOL    HW1 2156   2.657   2.763   2.883  1.6863 -0.6618  5.4847
  719SOL    HW2 2157   2.543   2.794   2.765  2.1665  1.1856  1.8459
  720SOL     OW 2158   1.004   0.492   0.818 -0.3227  0.0774 -0.1609
  720SOL    HW1 2159   0.904   0.488   0.791 -0.8188  0.4163  0.6842
  720SOL    HW2 2160   1.031   0.411   0.877  0.1661  0.4422 -1.2918
  721SOL     OW 2161   2.353   0.551   0.750  1.0502  0.4379  0.0362
  721SOL    HW1 2162   2.453   0.560   0.742  1.5614 -1.0080 -0.2920
  721SOL    HW2 2163   2.330   0.462   0.703  2.7200 -2.1008 -1.2110
  722SOL     OW 2164   0.759   2.088   1.925  0.3789  0.5705  0.3186
  722SOL    HW1 2165   0.703   2.171   1.919  2.9211 -1.4512 -1.0484
  722SOL    HW2 2166   0.854   2.115   1.950  0.3818 -0.9516  0.2093
  723SOL     OW 2167   1.379   0.081   1.255 -0.0891  0.0862  0.6679
  723SOL    HW1 2168   1.290   0.067   1.306 -1.6889  0.7068  1.7757
  723SOL    HW2 2169   1.435   0.156   1.290 -0.3810 -0.7924 -0.9683
  724SOL     OW 2170   1.693   1.867   1.477  0.0966 -0.2899 -0.3101
  724SOL    HW1 2171   1.612   1.890   1.536  1.3746 -2.2715  3.2885
  724SOL    HW2 2172   1.722   1.774   1.502 -0.9527  1.7163  0.6676
  725SOL     OW 2173   1.346   2.579   1.187  0.3386 -0.3174 -0.7108
  725SOL    HW1 2174   1.363   2.549   1.088  1.8073 -2.1845 -1.6171
  725SOL    HW2 2175   1.285   2.507   1.230  0.7103 -1.0361  0.0160
  726SOL     OW 2176   1.746   3.118   0.036 -0.6673  0.1573 -0.0751
  726SOL    HW1 2177   1.780   3.030   3.117  1.1524 -0.3281 -4.0867
  726SOL    HW2 2178   1.818   0.049   0.089 -2.5762 -0.2587 -1.9914
  727SOL     OW 2179   1.706   1.685   0.373  0.1696  0.0004 -0.2853
  727SOL    HW1 2180   1.615   1.723   0.343 -1.2093  0.6196 -0.5630
  727SOL    HW2 2181   1.783   1.712   0.311  0.1285 -0.1494 -2.6393
  728SOL     OW 2182   1.895   2.651   1.825  0.1256 -0.1556 -0.3129
  728SOL    HW1 2183   1.857   2.603   1.744 -1.6691 -0.4331 -3.4862
  728SOL    HW2 2184   1.822   2.700   1.881 -1.0842  1.6771 -0.0918
  729SOL     OW 2185   2.134   2.491   1.533 -0.4639 -0.1733 -0.1329
  729SOL    HW1 2186   2.114   2.397   1.494  0.2241  0.4012  1.3775
  729SOL    HW2 2187   2.204   2.532   1.470 -0.5921 -1.0263 -2.7262
  730SOL     OW 2188   1.235   1.236   2.772 -0.0439  0.0783 -0.3941
  730SOL    HW1 2189   1.205   1.232   2.873  0.9860 -0.5747  5.6546
  730SOL    HW2 2190   1.154   1.208   2.714  0.2221  0.5368 -0.8458
  731SOL     OW 2191   0.571   0.275   1.488 -0.1519 -0.3636  0.1858
  731SOL    HW1 2192   0.614   0.186   1.517 -0.4468  1.4790 -1.1758
  731SOL    HW2 2193   0.479   0.285   1.530 -2.1416 -1.0046 -0.9589
  732SOL     OW 2194   1.275   3.062   0.941  0.1922  0.0345  0.0279
  732SOL    HW1 2195   1.296   2.990   1.013 -1.7963 -0.7589  1.1386
  732SOL    HW2 2196   1.284   0.037   0.974 -1.3193  2.6413  0.9863
  733SOL     OW 2197   1.215   1.136   1.066  0.1369  0.0368 -0.1853
  733SOL    HW1 2198   1.218   1.240   1.060  0.3124  1.2054  2.0478
  733SOL    HW2 2199   1.186   1.110   1.160  0.5577 -0.9223 -1.1764
  734SOL     OW 2200   2.464   2.193   0.150  0.2101 -0.0331 -0.0044
  734SOL    HW1 2201   2.469   2.139   0.060  0.8769 -1.5127 -0.3039
  734SOL    HW2 2202   2.550   2.183   0.203 -0.1614 -0.0924  0.4831
  735SOL     OW 2203   0.585   0.255   0.998 -0.4284  0.0137  0.4886
  735SOL    HW1 2204   0.571   0.171   0.941  0.2906  2.5602  1.0711
  735SOL    HW2 2205   0.522   0.324   0.955 -1.7851  1.6168  0.6262
  736SOL     OW 2206   1.811   2.467   2.775  0.3013 -0.3318 -0.1518
  736SOL    HW1 2207   1.880   2.456   2.849 -0.8556  0.4789 -2.3669
  736SOL    HW2 2208   1.738   2.401   2.783  2.6136  1.3406 -0.4237
  737SOL     OW 2209   0.905   2.759   1.038  0.4445 -0.4144 -0.2585
  737SOL    HW1 2210   0.966   2.779   0.959 -0.1150  0.2191 -1.0190
  737SOL    HW2 2211   0.957   2.757   1.126  3.2147  0.5037  0.9954
  738SOL     OW 2212   1.662   0.039   2.240  0.0685 -0.1708  0.0607
  738SOL    HW1 2213   1.689   0.052   2.337  2.8286 -1.0414 -0.6503
  738SOL    HW2 2214   1.718   3.080   2.203 -0.8061 -0.9836 -1.1072
  739SOL     OW 2215   1.137   2.216   2.168  0.3195 -0.2519 -0.5214
  739SOL    HW1 2216   1.233   2.249   2.151 -1.5269  0.9921  0.3398
  739SOL    HW2 2217   1.143   2.148   2.247 -1.8921 -2.3423  1.5439
  740SOL     OW 2218   1.310   2.363   1.598  0.4977  0.1131 -0.5189
  740SOL    HW1 2219   1.233   2.319   1.546  1.1184  1.5651 -0.0070
  740SOL    HW2 2220   1.355   2.430   1.534 -3.7999  1.2154 -1.6595
  741SOL     OW 2221   2.727   1.236   0.221  0.5921  0.3364  0.3958
  741SOL    HW1 2222   2.725   1.335   0.233 -1.4004 -0.4399 -1.2182
  741SOL    HW2 2223   2.696   1.212   0.126  1.8419 -1.5028 -1.2273
  742SOL     OW 2224   0.655   1.539   2.085 -0.4983  0.1131  0.5018
  742SOL    HW1 2225   0.622   1.608   2.152 -0.4537 -1.6369  0.2551
  742SOL    HW2 2226   0.748   1.503   2.115  1.4638 -0.7054  2.5526
  743SOL     OW 2227   3.095   0.769   2.485 -0.5159 -0.1124  0.1889
  743SOL    HW1 2228   0.043   0.705   2.444 -0.8666 -1.5937  0.0757
  743SOL    HW2 2229   3.003   0.765   2.438 -1.8762 -1.8853 -1.6710
  744SOL     OW 2230   2.400   2.274   1.377  0.1680 -0.1675  0.3135
  744SOL    HW1 2231   2.301   2.264   1.397 -1.5670  2.8139 -0.0382
  744SOL    HW2 2232   2.453   2.253   1.462 -0.5327 -1.3783 -2.9146
  745SOL     OW 2233   2.524   1.836   1.337 -0.0670 -0.3813  0.7194
  745SOL    HW1 2234   2.478   1.749   1.319  1.8023 -0.9702 -1.1405
  745SOL    HW2 2235   2.616   1.822   1.385  0.9970 -1.7594 -1.4610
  746SOL     OW 2236   2.529   0.980   0.744  0.0527 -0.5154  0.3299
  746SOL    HW1 2237   2.507   0.988   0.647 -1.6588  1.4949  0.6523
  746SOL    HW2 2238   2.524   1.078   0.778 -0.6469  2.7187  0.0317
  747SOL     OW 2239   1.669   2.070   0.484  0.2156  0.3376  0.2888
  747SOL    HW1 2240   1.757   2.067   0.532 -1.4000 -0.9220 -3.0069
  747SOL    HW2 2241   1.633   2.166   0.496  1.2249  0.2376 -2.7169
  748SOL     OW 2242   1.174   2.204   0.609  0.6245  0.2949  0.3168
  748SOL    HW1 2243   1.072   2.194   0.610 -0.5268  0.2766  2.1152
  748SOL    HW2 2244   1.204   2.280   0.552 -0.2754 -2.1503  1.2663
  749SOL     OW 2245   3.022   0.110   2.235  0.0967  0.5293 -0.3897
  749SOL    HW1 2246   3.068   0.182   2.183 -0.8650  1.2479  1.0578
  749SOL    HW2 2247   3.097   0.067   2.293  1.2469 -3.5238  0.2618
  750SOL     OW 2248   1.672   0.214   1.397  0.2005 -0.4286  0.1771
  750SOL    HW1 2249   1.766   0.222   1.447  0.6094 -0.8693 -1.2048
  750SOL    HW2 2250   1.687   0.215   1.296  1.4550 -0.1980 -0.2435
  751SOL     OW 2251   1.687   2.714   2.798 -0.5427  0.1248 -0.0201
  751SOL    HW1 2252   1.613   2.688   2.863 -0.3416 -0.8270  2.7061
  751SOL    HW2 2253   1.755   2.641   2.772  0.6850  1.3337  0.8196
  752SOL     OW 2254   1.818   2.007   0.245  0.2446 -0.5832  0.1013
  752SOL    HW1 2255   1.748   2.025   0.316  1.6245 -0.8582 -2.6849
  752SOL    HW2 2256   1.888   2.081   0.241  0.0550 -0.4143 -0.3418
  753SOL     OW 2257   1.905   0.862   2.216  0.2308 -0.2820 -0.0665
  753SOL    HW1 2258   1.862   0.824   2.300  0.9141 -0.7377 -0.3372
  753SOL    HW2 2259   1.965   0.937   2.248 -1.4733  0.2931  1.4706
  754SOL     OW 2260   0.288   2.808   0.539  0.0040  0.5089  0.2498
  754SOL    HW1 2261   0.230   2.727   0.562  1.0657 -0.1037  2.3974
  754SOL    HW2 2262   0.295   2.873   0.616 -2.1108 -0.1007  0.5400
  755SOL     OW 2263   2.069   0.298   1.066  0.3663 -0.1442 -0.2244
  755SOL    HW1 2264   2.171   0.301   1.063 -0.9362 -0.1347 -1.4401
  755SOL    HW2 2265   2.031   0.319   0.971 -0.5477  1.2229 -1.8919
  756SOL     OW 2266   0.994   1.464   2.530 -0.1825 -0.5291 -0.1044
  756SOL    HW1 2267   0.977   1.541   2.594 -1.1163  2.5713 -1.0099
  756SOL    HW2 2268   1.091   1.450   2.507 -1.0633  1.8940 -0.2180
  757SOL     OW 2269   2.662   2.786   1.254  0.3427 -0.5548  0.6290
  757SOL    HW1 2270   2.607   2.731   1.189  0.6339  1.8610  0.1847
  757SOL    HW2 2271   2.620   2.880   1.265 -2.1992  2.2417  4.6579
  758SOL     OW 2272   0.753   3.106   1.753 -0.1721 -0.3692  0.1960
  758SOL    HW1 2273   0.701   0.071   1.771 -0.4984 -2.1980  0.1884
  758SOL    HW2 2274   0.853   0.006   1.776 -3.7680  1.5075  1.1327
  759SOL     OW 2275   2.567   1.277   0.718  0.2529  0.6429 -0.0159
  759SOL    HW1 2276   2.593   1.292   0.620 -0.9500  0.4737  0.7542
  759SOL    HW2 2277   2.643   1.248   0.772 -2.5535 -0.5780  0.9565
  760SOL     OW 2278   2.189   0.630   1.296 -0.0819 -0.5710 -0.3569
  760SOL    HW1 2279   2.109   0.568   1.299  1.8583  0.2461 -2.1261
  760SOL    HW2 2280   2.269   0.578   1.331  1.5419  0.3714 -0.3588
  761SOL     OW 2281   2.128   0.077   0.132 -0.3672 -0.3963 -0.7813
  761SOL    HW1 2282   2.038   0.112   0.162 -0.2582 -2.3036 -0.9918
  761SOL    HW2 2283   2.135   3.091   0.130 -1.2024 -1.3551 -1.7979
  762SOL     OW 2284   2.006   2.193   0.186  0.3866  0.0630 -0.7360
  762SOL    HW1 2285   2.065   2.155   0.256 -1.0649  1.3796 -0.4488
  762SOL    HW2 2286   2.048   2.196   0.092  0.7598  0.7872  2.3205
  763SOL     OW 2287   0.636   1.018   1.253 -0.0479  0.2998  0.0993
  763SOL    HW1 2288   0.698   0.996   1.175 -0.7012  1.7067  0.4840
  763SOL    HW2 2289   0.688   1.071   1.323 -3.3341 -1.9287 -3.4823
  764SOL     OW 2290   2.496   2.473   3.107 -0.3008  0.0917  0.7471
  764SOL    HW1 2291   2.462   2.482   3.009  2.0439 -0.5610 -0.8037
  764SOL    HW2 2292   2.472   2.380   0.024  0.3259 -1.7690  0.0150
  765SOL     OW 2293   1.028   0.611   2.413  0.1537  0.2336  0.1210
  765SOL    HW1 2294   0.979   0.521   2.414 -0.8218 -2.2676 -0.4209
  765SOL    HW2 2295   1.060   0.635   2.319 -1.9890  1.8464 -0.0325
  766SOL     OW 2296   0.126   1.206   2.469 -0.1320  0.1327  0.0874
  766SOL    HW1 2297   0.056   1.142   2.505 -0.3992 -0.1726 -0.1051
  766SOL    HW2 2298   0.076   1.297   2.450 -0.9695 -1.0329  0.2235
  767SOL     OW 2299   2.920   1.558   2.199 -0.1033  0.0941 -0.8664
  767SOL    HW1 2300   2.952   1.612   2.282  3.7104  1.7914  2.0046
  767SOL    HW2 2301   2.816   1.542   2.202 -1.8605 -0.6604  1.4636
  768SOL     OW 2302   0.938   1.072   2.889  0.1022  0.6308  0.1331
  768SOL    HW1 2303   0.841   1.045   2.903  1.0769 -1.7477 -0.1006
  768SOL    HW2 2304   0.955   1.103   2.792 -0.9773 -1.2101  1.0946
  769SOL     OW 2305   2.110   2.863   3.045 -0.6954  0.4422 -0.2450
  769SOL    HW1 2306   2.134   2.764   3.026 -0.4111 -2.3953 -1.1697
  769SOL    HW2 2307   2.008   2.868   3.044 -2.7729 -0.0942  0.2216
  770SOL     OW 2308   2.985   0.361   2.536 -0.0584 -0.5788 -0.3117
  770SOL    HW1 2309   2.951   0.383   2.440 -0.6062 -0.3479  1.6627
  770SOL    HW2 2310   2.965   0.262   2.562  2.5558 -1.2558  1.1398
  771SOL     OW 2311   0.861   2.120   1.502  0.1033  0.5894 -0.2578
  771SOL    HW1 2312   0.901   2.069   1.427 -1.5822 -0.9799  3.3797
  771SOL    HW2 2313   0.916   2.205   1.525  1.2945 -0.2398  3.7923
  772SOL     OW 2314   0.478   0.496   2.880 -0.1934  0.0306  0.2044
  772SOL    HW1 2315   0.536   0.546   2.815 -1.5549  0.1893 -0.2277
  772SOL    HW2 2316   0.378   0.509   2.854 -2.0544 -1.6253  2.0320
  773SOL     OW 2317   2.412   1.109   1.697  0.0958  0.4855  0.1154
  773SOL    HW1 2318   2.408   1.085   1.796  0.4301  2.1953 -2.1174
  773SOL    HW2 2319   2.420   1.023   1.644  3.5250  1.3893  1.4696
  774SOL     OW 2320   1.061   0.751   0.454 -0.0646 -0.0539  0.1338
  774SOL    HW1 2321   1.040   0.742   0.355 -0.7317  0.4423  1.6374
  774SOL    HW2 2322   1.092   0.662   0.490 -1.6331  1.0724 -1.0713
  775SOL     OW 2323   2.030   2.491   2.979 -0.3809 -0.3292  0.1719
  775SOL    HW1 2324   2.027   2.578   2.923  0.2637 -1.1283 -2.0255
  775SOL    HW2 2325   2.068   2.505   3.075 -0.2510 -2.8587 -0.4497
  776SOL     OW 2326   2.332   0.141   1.958  0.4305  0.1437  0.4217
  776SOL    HW1 2327   2.241   0.117   1.996 -0.6452 -0.3274  3.1788
  776SOL    HW2 2328   2.402   0.130   2.033  0.1678  0.5404 -2.2721
  777SOL     OW 2329   0.277   1.037   2.649  0.0175 -0.1362  0.1642
  777SOL    HW1 2330   0.271   1.063   2.553  0.0262  2.2702  4.0955
  777SOL    HW2 2331   0.197   0.983   2.678 -0.3341 -0.3299 -0.3303
  778SOL     OW 2332   0.938   3.001   0.227  0.4052 -0.2535  0.3832
  778SOL    HW1 2333   0.947   3.096   0.191 -1.1020 -0.9287 -1.2224
  778SOL    HW2 2334   0.926   3.001   0.327  1.6637 -2.7920  0.8903
  779SOL     OW 2335   0.085   0.992   2.883 -0.0276  0.1345 -0.2467
  779SOL    HW1 2336   0.032   1.009   2.970  0.4169  0.3890  0.0485
  779SOL    HW2 2337   0.047   0.909   2.838 -0.4996  0.9590  0.9324
  780SOL     OW 2338   2.118   0.811   2.522  0.5242 -0.3925  0.0420
  780SOL    HW1 2339   2.148   0.712   2.524  1.3046  2.9750 -0.6464
  780SOL    HW2 2340   2.013   0.824   2.512 -0.0238 -1.8784 -0.9729
  781SOL     OW 2341   2.289   1.394   1.990 -0.4596  0.6215  0.0241
  781SOL    HW1 2342   2.253   1.394   1.898  1.3897  3.2491  3.5542
  781SOL    HW2 2343   2.363   1.463   1.999 -2.6432 -2.1815 -1.4211
  782SOL     OW 2344   1.171   1.748   2.306  0.3577  0.6386  0.3731
  782SOL    HW1 2345   1.145   1.654   2.280  0.2011  0.6416  2.2560
  782SOL    HW2 2346   1.094   1.808   2.331  0.3054 -1.2969 -0.3520
  783SOL     OW 2347   0.821   3.118   1.199 -0.6044 -0.1354  0.0740
  783SOL    HW1 2348   0.864   3.034   1.231  0.4097  1.6718 -1.5153
  783SOL    HW2 2349   0.721   0.005   1.219 -0.2119  0.5591 -2.0926
  784SOL     OW 2350   1.473   0.569   0.054  0.6369  0.1479  0.3361
  784SOL    HW1 2351   1.518   0.571   3.082  1.8604  2.5969  2.5880
  784SOL    HW2 2352   1.472   0.657   0.102 -0.9365  0.7097  0.9481
  785SOL     OW 2353   1.308   0.335   0.046 -0.4011  0.4574 -0.1879
  785SOL    HW1 2354   1.364   0.417   0.026 -1.7736 -3.8104 -0.1019
  785SOL    HW2 2355   1.369   0.266   0.089 -1.0337 -0.7327 -1.2760
  786SOL     OW 2356   0.187   1.488   0.633 -0.0844 -0.0348  0.5822
  786SOL    HW1 2357   0.277   1.443   0.662  0.0875 -2.3824  1.8696
  786SOL    HW2 2358   0.193   1.567   0.571 -2.0971 -2.5604 -1.5625
  787SOL     OW 2359   1.791   1.457   0.219  0.7726 -0.3529  0.3828
  787SOL    HW1 2360   1.802   1.556   0.194  0.8724 -0.1273 -0.4683
  787SOL    HW2 2361   1.703   1.443   0.267  0.6590 -0.5911  0.1956
  788SOL     OW 2362   1.830   1.807   1.230 -0.4042 -0.6980  0.2146
  788SOL    HW1 2363   1.809   1.839   1.329 -0.3613  1.0267  2.7710
  788SOL    HW2 2364   1.919   1.852   1.196  0.5636  3.4166  0.5971
  789SOL     OW 2365   3.039   1.333   2.137  0.5300  0.0242 -0.2718
  789SOL    HW1 2366   3.026   1.431   2.157 -0.3920 -1.2006 -0.0201
  789SOL    HW2 2367   3.009   1.288   2.222  0.1021  3.5491 -2.2469
  790SOL     OW 2368   0.655   0.059   0.083  0.2859 -0.1698 -0.1257
  790SOL    HW1 2369   0.609   3.102   0.138  0.2240  0.5287 -1.1911
  790SOL    HW2 2370   0.737   0.097   0.129  0.0300 -3.0761 -2.5021
  791SOL     OW 2371   0.652   0.255   2.442 -0.2328  0.1365  0.6471
  791SOL    HW1 2372   0.649   0.356   2.418  0.7514  3.7962 -1.3442
  791SOL    HW2 2373   0.642   0.244   2.543 -0.3605  2.1038 -1.8279
  792SOL     OW 2374   1.849   0.450   2.229  0.2104 -0.0551  0.4460
  792SOL    HW1 2375   1.891   0.430   2.318 -1.4411  1.7149 -3.7733
  792SOL    HW2 2376   1.752   0.469   2.228 -0.4490 -1.7912 -1.2616
  793SOL     OW 2377   3.061   0.382   1.274  0.0226 -0.4692 -0.0600
  793SOL    HW1 2378   3.012   0.361   1.360 -0.4925 -0.4725 -0.3945
  793SOL    HW2 2379   3.112   0.468   1.286 -3.8779  1.4892 -2.7583
  794SOL     OW 2380   0.434   0.520   1.775  0.5437 -0.2706 -0.0276
  794SOL    HW1 2381   0.515   0.500   1.829 -1.2177  2.0304  0.2726
  794SOL    HW2 2382   0.455   0.572   1.689 -0.0524  0.9006 -2.3687
  795SOL     OW 2383   3.003   1.441   0.324 -0.6106  0.5702  0.3499
  795SOL    HW1 2384   2.935   1.459   0.250 -1.3719  2.6101 -1.0845
  795SOL    HW2 2385   3.026   1.338   0.331  1.2785  0.0019  1.2373
  796SOL     OW 2386   2.909   2.726   0.368 -0.5142 -0.0176 -0.2056
  796SOL    HW1 2387   2.977   2.753   0.442  3.2077 -3.2286 -3.0332
  796SOL    HW2 2388   2.953   2.670   0.295 -0.1274  1.7239 -0.9409
  797SOL     OW 2389   1.844   2.660   2.205 -0.0474 -0.2988 -0.6202
  797SOL    HW1 2390   1.891   2.584   2.154  0.2144  0.3243  1.3107
  797SOL    HW2 2391   1.925   2.719   2.232  2.3924 -1.0658 -0.2726
  798SOL     OW 2392   0.041   1.125   0.807 -0.6015  0.0145  0.4162
  798SOL    HW1 2393   0.055   1.169   0.718  1.9175 -0.3089 -1.1731
  798SOL    HW2 2394   3.063   1.093   0.814  3.7608  0.2913  0.0724
  799SOL     OW 2395   2.865   0.479   2.745 -0.2593 -0.5124  0.4000
  799SOL    HW1 2396   2.915   0.452   2.661 -1.3608  0.6532 -1.1177
  799SOL    HW2 2397   2.886   0.580   2.762 -0.0772  1.6000 -0.6433
  800SOL     OW 2398   2.926   1.935   0.293  0.1086  0.5326 -0.3886
  800SOL    HW1 2399   3.027   1.924   0.291 -2.9020 -0.7340  1.7299
  800SOL    HW2 2400   2.890   1.933   0.385 -1.7998 -1.0648 -0.0546
  801SOL     OW 2401   1.554   1.435   1.083  0.4708 -0.3867  0.3580
  801SOL    HW1 2402   1.649   1.411   1.050 -0.1382  2.5630  0.0712
  801SOL    HW2 2403   1.554   1.526   1.125  1.0622 -1.7843 -0.0970
  802SOL     OW 2404   1.182   1.786   1.787  0.0352  0.2828 -0.2583
  802SOL    HW1 2405   1.218   1.830   1.869 -0.1525 -2.1515  1.8026
  802SOL    HW2 2406   1.255   1.741   1.732  2.2200  0.3421  0.4468
  803SOL     OW 2407   0.223   1.938   0.685 -0.1280 -0.5461 -0.1601
  803SOL    HW1 2408   0.149   1.869   0.679  0.1737  3.1965  1.5654
  803SOL    HW2 2409   0.230   1.986   0.595  2.2241  0.7637  0.5917
  804SOL     OW 2410   0.999   2.354   1.479 -0.0164 -0.2141  0.2677
  804SOL    HW1 2411   1.074   2.393   1.418  0.2960 -1.9524 -3.2033
  804SOL    HW2 2412   0.906   2.378   1.438 -3.1519  0.7329 -0.9222
  805SOL     OW 2413   2.213   1.309   0.020  0.0890  0.2641 -0.5657
  805SOL    HW1 2414   2.124   1.358   0.009  1.5086 -0.7061  1.1162
  805SOL    HW2 2415   2.203   1.216   3.104 -0.4896  0.4911  3.3191
  806SOL     OW 2416   1.608   2.750   1.260  0.1027 -0.0895 -0.0360
  806SOL    HW1 2417   1.620   2.802   1.348  1.5228  0.6601 -1.4439
  806SOL    HW2 2418   1.550   2.801   1.192 -2.0985 -1.2635 -0.3906
  807SOL     OW 2419   2.626   0.598   3.052 -0.2116 -0.0995 -0.2528
  807SOL    HW1 2420   2.643   0.647   2.961  0.2202 -1.0439 -1.5593
  807SOL    HW2 2421   2.708   0.571   3.101 -2.2277  1.2709 -1.3564
  808SOL     OW 2422   0.074   1.244   0.557 -0.1881  0.0261 -0.1673
  808SOL    HW1 2423   0.145   1.187   0.509 -0.9787 -0.1481 -0.3566
  808SOL    HW2 2424   0.116   1.337   0.575  0.0398 -1.2917  0.3378
  809SOL     OW 2425   2.847   0.831   2.362  0.3268 -0.2291  0.2171
  809SOL    HW1 2426   2.823   0.886   2.278  1.0364 -0.4902 -1.3621
  809SOL    HW2 2427   2.806   0.872   2.447  0.5828 -1.4367  1.7554
  810SOL     OW 2428   1.600   0.640   1.422 -0.1158 -1.2937 -0.5853
  810SOL    HW1 2429   1.584   0.545   1.455 -0.0352  2.2497 -2.6564
  810SOL    HW2 2430   1.642   0.633   1.325  1.8996 -0.4514 -3.6424
  811SOL     OW 2431   1.911   2.930   1.524 -0.4696  0.3770 -0.2090
  811SOL    HW1 2432   1.921   2.832   1.497 -1.6956  4.1188 -0.9685
  811SOL    HW2 2433   2.000   2.963   1.565  1.5202 -1.5641  0.6930
  812SOL     OW 2434   1.821   2.841   3.071  0.4930 -0.8731  0.0568
  812SOL    HW1 2435   1.824   2.811   0.052 -1.3463  0.5767 -1.0793
  812SOL    HW2 2436   1.781   2.766   3.014  0.5200 -2.7271  1.1850
  813SOL     OW 2437   1.927   1.024   1.946  0.2063 -0.1985  0.4529
  813SOL    HW1 2438   1.915   1.029   2.049 -0.9668  0.2462 -0.7326
  813SOL    HW2 2439   1.989   0.950   1.917 -2.6570 -1.5573 -0.3485
  814SOL     OW 2440   1.547   1.073   2.023 -0.1023 -0.5940 -0.0374
  814SOL    HW1 2441   1.599   1.075   1.936  2.1855  1.2312  1.0497
  814SOL    HW2 2442   1.598   1.124   2.090 -2.5293 -1.2020  1.2219
  815SOL     OW 2443   0.428   0.878   0.380  0.0457  0.1375  0.1531
  815SOL    HW1 2444   0.517   0.920   0.355 -1.1957 -2.0295 -0.8215
  815SOL    HW2 2445   0.441   0.785   0.414 -1.4381  0.1876  0.4617
  816SOL     OW 2446   2.305   1.707   2.589  0.5995  0.2282  0.1186
  816SOL    HW1 2447   2.227   1.768   2.575  5.4571 -1.0342 -0.3233
  816SOL    HW2 2448   2.390   1.757   2.601 -2.1913  0.6083  0.7876
  817SOL     OW 2449   0.516   2.670   0.458  0.3837  0.2223 -0.2896
  817SOL    HW1 2450   0.525   2.573   0.494  2.7713 -0.9667  0.2426
  817SOL    HW2 2451   0.420   2.712   0.467 -1.7869  0.1811 -0.7433
  818SOL     OW 2452   1.805   0.301   2.737  0.0951  0.6891 -0.0812
  818SOL    HW1 2453   1.853   0.327   2.822  0.8759 -1.3250 -0.6789
  818SOL    HW2 2454   1.706   0.278   2.753  1.1500 -1.3655 -0.4671
  819SOL     OW 2455   1.562   0.530   0.435 -0.1207  0.3171  0.6341
  819SOL    HW1 2456   1.474   0.498   0.393  0.9816  2.6671 -0.6477
  819SOL    HW2 2457   1.590   0.616   0.391  1.1888 -0.9927  1.2394
  820SOL     OW 2458   1.649   0.992   0.486 -0.6991 -0.8746 -0.0968
  820SOL    HW1 2459   1.567   1.055   0.488 -3.3506 -2.7844 -0.3711
  820SOL    HW2 2460   1.727   1.041   0.532 -1.2332  0.7951 -1.1917
  821SOL     OW 2461   2.400   2.829   0.356 -0.0331  0.2566 -0.5611
  821SOL    HW1 2462   2.365   2.908   0.410 -1.8788 -1.1756  1.6745
  821SOL    HW2 2463   2.501   2.830   0.356 -3.2252  1.3117  0.4453
  822SOL     OW 2464   0.237   2.785   2.166 -0.2498  0.1772  0.0397
  822SOL    HW1 2465   0.233   2.838   2.253 -0.7887  0.5267  1.9620
  822SOL    HW2 2466   0.281   2.831   2.088  0.0427 -1.3353 -1.4469
  823SOL     OW 2467   2.556   2.247   1.605 -0.3235  0.4476  0.1905
  823SOL    HW1 2468   2.641   2.278   1.659  0.4243 -1.0027 -1.5224
  823SOL    HW2 2469   2.514   2.164   1.644  1.0925  0.0392 -1.9424
  824SOL     OW 2470   1.336   2.866   2.470 -0.4064 -0.5184  0.8801
  824SOL    HW1 2471   1.331   2.816   2.380  1.7569 -2.2880 -3.3784
  824SOL    HW2 2472   1.421   2.837   2.522  0.0064  0.9646  0.8858
  825SOL     OW 2473   1.762   1.623   0.657 -0.0789 -0.8617  0.4055
  825SOL    HW1 2474   1.741   1.527   0.666 -0.2709  3.2046  0.9137
  825SOL    HW2 2475   1.755   1.654   0.559 -2.7020 -0.5201 -1.1366
  826SOL     OW 2476   1.846   0.797   0.119  0.3615 -0.5001 -0.4977
  826SOL    HW1 2477   1.899   0.821   0.201  0.0941 -0.0354 -0.2516
  826SOL    HW2 2478   1.905   0.775   0.043 -2.2857  1.7583  2.2537
  827SOL     OW 2479   0.419   1.291   1.401 -0.3010 -0.1349  0.0439
  827SOL    HW1 2480   0.366   1.352   1.461  0.9956  1.8960  2.6055
  827SOL    HW2 2481   0.515   1.321   1.409 -2.7102 -1.9032  1.5744
  828SOL     OW 2482   1.890   1.573   1.945 -0.0418  1.1061  0.2152
  828SOL    HW1 2483   1.804   1.614   1.905  1.5044 -0.6441 -0.4900
  828SOL    HW2 2484   1.899   1.480   1.909 -1.1223 -0.0744  0.2409
  829SOL     OW 2485   0.154   1.936   0.258 -0.0635  0.0802  0.2631
  829SOL    HW1 2486   0.181   1.979   0.165 -1.0139 -1.4170  0.0137
  829SOL    HW2 2487   0.164   1.839   0.245  1.1438  2.1564 -0.1779
  830SOL     OW 2488   1.158   0.510   0.590  0.4253  0.5038 -0.3182
  830SOL    HW1 2489   1.235   0.442   0.609  2.0736 -2.1305  2.4587
  830SOL    HW2 2490   1.100   0.508   0.678 -2.4373  1.0184  1.0914
  831SOL     OW 2491   2.802   1.484   0.140 -0.5924  0.1406  0.7291
  831SOL    HW1 2492   2.822   1.443   0.049 -0.4825  1.7139 -0.1367
  831SOL    HW2 2493   2.798   1.585   0.125  2.3319 -0.2476  1.9310
  832SOL     OW 2494   1.124   2.972   3.027  0.1064  0.2968  0.4069
  832SOL    HW1 2495   1.023   2.952   3.025 -3.2929 -0.3649  1.8236
  832SOL    HW2 2496   1.133   3.072   3.030  1.1684 -2.3479  0.1938
  833SOL     OW 2497   1.115   0.688   2.168  0.4026 -0.1209  0.3606
  833SOL    HW1 2498   1.212   0.684   2.156 -0.5588  0.3815  0.9878
  833SOL    HW2 2499   1.089   0.787   2.162 -0.5347 -0.0484  0.3044
  834SOL     OW 2500   0.087   0.624   1.251 -0.4835 -0.1352 -0.5010
  834SOL    HW1 2501   0.032   0.709   1.223  0.3989  1.0582  1.0727
  834SOL    HW2 2502   0.190   0.643   1.243  2.4268 -2.3590 -0.8949
  835SOL     OW 2503   2.907   0.416   1.500  0.1508 -0.1945 -0.7693
  835SOL    HW1 2504   2.807   0.424   1.531 -1.8275 -1.0306 -0.2013
  835SOL    HW2 2505   2.969   0.395   1.578  0.0148  2.3194 -1.6687
  836SOL     OW 2506   0.542   2.030   0.451 -0.1493  0.4877  0.3037
  836SOL    HW1 2507   0.580   1.939   0.436 -1.0849  0.2099  0.3499
  836SOL    HW2 2508   0.618   2.101   0.452  1.4058 -2.3038  0.8694
  837SOL     OW 2509   2.100   1.924   2.086 -0.0873  0.3289 -0.1702
  837SOL    HW1 2510   2.138   2.012   2.116 -1.1060 -0.2902  0.1001
  837SOL    HW2 2511   2.009   1.919   2.119  1.1977  0.8729  1.2457
  838SOL     OW 2512   3.117   1.184   1.924 -0.4598  0.3214 -0.1271
  838SOL    HW1 2513   0.096   1.200   1.903 -0.1819  0.6023  0.1974
  838SOL    HW2 2514   3.070   1.251   1.988  0.1788 -0.0075 -0.5454
  839SOL     OW 2515   0.391   0.384   0.828 -0.4176  0.3275  0.0650
  839SOL    HW1 2516   0.342   0.319   0.883 -1.5539  1.3468 -1.1678
  839SOL    HW2 2517   0.433   0.337   0.750 -1.8154  1.9179 -1.0218
  840SOL     OW 2518   2.880   0.134   2.624 -0.4959  0.0681  0.0786
  840SOL    HW1 2519   2.943   0.060   2.651  0.1552  1.6613  0.4944
  840SOL    HW2 2520   2.810   0.145   2.696  2.3627 -0.6937 -2.2043
  841SOL     OW 2521   0.542   2.874   0.173 -0.2161  0.1038  0.0035
  841SOL    HW1 2522   0.501   2.792   0.136  1.1670  2.7131  2.3976
  841SOL    HW2 2523   0.644   2.854   0.184  2.0409 -0.2363  0.0894
  842SOL     OW 2524   0.808   0.047   0.919 -0.4492 -0.0419 -0.0870
  842SOL    HW1 2525   0.716   0.044   0.881  1.5878  0.0433  3.7520
  842SOL    HW2 2526   0.807   0.009   1.011  1.9087  2.4000 -2.3471
  843SOL     OW 2527   3.101   0.762   2.765  0.1581  0.1689 -0.1411
  843SOL    HW1 2528   3.113   0.764   2.666  2.0060 -1.7183  1.9822
  843SOL    HW2 2529   0.022   0.679   2.808  0.0326  0.9999 -0.6522
  844SOL     OW 2530   0.956   2.108   2.500  0.0754 -0.0134  0.3617
  844SOL    HW1 2531   0.881   2.117   2.429 -3.3836  1.0850 -0.4997
  844SOL    HW2 2532   1.048   2.112   2.458 -0.2649 -0.7202 -0.0998
  845SOL     OW 2533   2.242   2.775   2.544  0.5215  0.2661  0.0838
  845SOL    HW1 2534   2.277   2.788   2.641  0.6808  2.7601  0.2655
  845SOL    HW2 2535   2.193   2.859   2.507 -0.0756  1.9498  0.4871
  846SOL     OW 2536   1.926   1.474   2.344 -0.0203 -0.0020 -0.6222
  846SOL    HW1 2537   1.929   1.444   2.442  2.6630  0.4842  0.8828
  846SOL    HW2 2538   1.992   1.421   2.284  0.4159  0.7435 -0.7284
  847SOL     OW 2539   2.701   2.870   3.001  0.2448  0.3346  0.7072
  847SOL    HW1 2540   2.633   2.877   3.076 -0.3881 -0.5957  0.6469
  847SOL    HW2 2541   2.739   2.963   2.978 -1.4207 -1.1084 -2.3496
  848SOL     OW 2542   0.157   0.555   0.321 -0.0292 -0.3444 -0.0565
  848SOL    HW1 2543   0.113   0.625   0.256 -0.7287  2.9226 -1.5185
  848SOL    HW2 2544   0.257   0.555   0.314  0.3745  2.9095  0.3753
  849SOL     OW 2545   1.420   3.099   2.149 -0.5234  0.1858  0.5900
  849SOL    HW1 2546   1.517   3.106   2.188  2.8660 -0.0007 -0.0073
  849SOL    HW2 2547   1.376   0.071   2.170  1.2427 -3.9939  0.7641
  850SOL     OW 2548   0.739   1.041   0.789  0.7692 -0.0563  0.4366
  850SOL    HW1 2549   0.759   1.025   0.688 -1.1748 -1.0105  1.3068
  850SOL    HW2 2550   0.783   1.122   0.830  0.6427  0.4394 -1.4023
  851SOL     OW 2551   0.262   1.305   0.217  0.2450  0.2169  0.3502
  851SOL    HW1 2552   0.319   1.346   0.293  2.9099  1.4009 -1.9465
  851SOL    HW2 2553   0.273   1.354   0.130 -0.2221  1.6313  2.4734
  852SOL     OW 2554   1.486   0.792   1.965  0.3935 -0.1544 -0.2111
  852SOL    HW1 2555   1.512   0.881   2.002  3.3173 -0.9035 -2.2770
  852SOL    HW2 2556   1.568   0.750   1.916  0.6542 -0.6183 -1.5701
  853SOL     OW 2557   2.757   1.530   0.461  0.7465 -0.4308 -0.1538
  853SOL    HW1 2558   2.709   1.444   0.496 -0.5901 -1.8807  2.0618
  853SOL    HW2 2559   2.854   1.512   0.433 -2.0188 -0.0162  1.4599
  854SOL     OW 2560   1.181   1.041   2.445  0.3575  0.5307  0.6483
  854SOL    HW1 2561   1.081   1.039   2.460 -2.4680 -3.5771 -1.3849
  854SOL    HW2 2562   1.221   0.948   2.436  1.5244  1.9169 -0.7157
  855SOL     OW 2563   0.246   2.838   2.906  0.6617 -0.1251 -0.1214
  855SOL    HW1 2564   0.250   2.820   3.007  1.4144  0.4844 -1.9634
  855SOL    HW2 2565   0.188   2.916   2.884  1.4824 -0.8396 -0.8920
  856SOL     OW 2566   1.263   0.781   2.432 -0.2274  0.0140 -1.1835
  856SOL    HW1 2567   1.312   0.738   2.359  0.3786  2.7305  2.1896
  856SOL    HW2 2568   1.181   0.729   2.458 -1.4555  0.7695  2.6050
  857SOL     OW 2569   1.446   0.776   2.665 -0.4036 -0.5899 -0.3232
  857SOL    HW1 2570   1.464   0.677   2.666 -1.4536  1.9657  1.1307
  857SOL    HW2 2571   1.368   0.798   2.603  0.2062 -1.9997  4.3128
  858SOL     OW 2572   2.820   1.017   2.151  0.4739 -0.2144  0.2755
  858SOL    HW1 2573   2.838   1.096   2.217 -1.7494  1.7299 -1.9717
  858SOL    HW2 2574   2.799   1.053   2.059  1.1341 -1.5959  1.6924
  859SOL     OW 2575   2.575   0.188   0.709 -0.1174 -0.4231 -0.5930
  859SOL    HW1 2576   2.631   0.201   0.798 -0.6445 -0.3504 -0.2449
  859SOL    HW2 2577   2.626   0.221   0.627 -0.0911  1.6356  0.6466
  860SOL     OW 2578   1.897   0.175   0.245  0.1312  0.0767  0.2454
  860SOL    HW1 2579   1.931   0.173   0.345  1.3671 -0.3859  2.1708
  860SOL    HW2 2580   1.801   0.208   0.236  2.0517  1.3207  3.0326
  861SOL     OW 2581   1.377   0.359   1.160  0.0360  0.0022 -0.2781
  861SOL    HW1 2582   1.393   0.452   1.119  0.9833 -2.2097 -1.1913
  861SOL    HW2 2583   1.328   0.364   1.250 -4.0086  0.5672  1.5270
  862SOL     OW 2584   1.488   0.180   2.577 -0.0981 -0.9856  0.5880
  862SOL    HW1 2585   1.577   0.129   2.572  2.0219 -1.8738 -0.3058
  862SOL    HW2 2586   1.465   0.231   2.490 -3.2027 -0.1156 -0.4359
  863SOL     OW 2587   2.654   2.576   0.865 -0.1521 -0.1629  0.2410
  863SOL    HW1 2588   2.621   2.652   0.805 -1.6741 -0.9968  3.1988
  863SOL    HW2 2589   2.757   2.571   0.864 -0.7005  0.4621 -0.2762
  864SOL     OW 2590   2.570   0.058   2.092 -0.0248 -0.0972  0.5412
  864SOL    HW1 2591   2.511   0.013   2.164 -0.7714 -1.3926  0.1856
  864SOL    HW2 2592   2.669   0.046   2.110 -2.9754  1.7145 -2.8132
  865SOL     OW 2593   1.275   1.108   2.041 -0.0552 -0.1661 -0.5789
  865SOL    HW1 2594   1.226   1.147   1.960  2.8907 -0.3964  1.2725
  865SOL    HW2 2595   1.378   1.101   2.032  3.0460  1.0660 -1.3336
  866SOL     OW 2596   1.848   2.803   0.996 -0.3273 -0.2597 -0.2857
  866SOL    HW1 2597   1.752   2.816   0.973  1.4978 -0.5915 -2.0067
  866SOL    HW2 2598   1.904   2.865   0.940 -4.5289 -0.9135  0.9757
  867SOL     OW 2599   2.308   3.035   0.504  0.3756  0.1494  0.0731
  867SOL    HW1 2600   2.377   3.045   0.582  1.3677 -0.5529  2.9421
  867SOL    HW2 2601   2.331   3.104   0.435 -0.7684 -1.9317 -0.2934
  868SOL     OW 2602   0.135   2.373   2.016  0.0164 -0.3259 -0.8534
  868SOL    HW1 2603   0.193   2.431   1.958  0.8186 -1.3659 -0.3523
  868SOL    HW2 2604   0.036   2.375   1.986 -1.9631  0.7572 -2.4813
  869SOL     OW 2605   2.082   2.259   2.345 -0.2574 -0.5553 -0.3888
  869SOL    HW1 2606   1.990   2.295   2.370  0.0768  2.1154 -1.6245
  869SOL    HW2 2607   2.153   2.326   2.376  0.4253 -0.7757 -1.1068
  870SOL     OW 2608   1.407   1.527   0.741  0.4443 -0.4257  0.2108
  870SOL    HW1 2609   1.482   1.580   0.779  2.2516 -0.0029  4.7256
  870SOL    HW2 2610   1.432   1.430   0.735 -1.1612  1.2868  0.7348
  871SOL     OW 2611   2.664   1.726   1.959 -0.3517 -0.5734 -0.2705
  871SOL    HW1 2612   2.701   1.822   1.964  0.7799  0.1931 -2.4798
  871SOL    HW2 2613   2.721   1.672   1.897  1.1005 -0.1795 -0.6092
  872SOL     OW 2614   0.654   1.683   2.727  0.1006  0.0782  0.0973
  872SOL    HW1 2615   0.686   1.686   2.632 -1.3330  0.2461 -0.4920
  872SOL    HW2 2616   0.683   1.766   2.773  0.3902 -0.2557 -0.6564
  873SOL     OW 2617   0.921   1.226   1.886  0.1695  0.3594 -0.5450
  873SOL    HW1 2618   0.861   1.310   1.883 -1.3163 -2.4240  0.5654
  873SOL    HW2 2619   0.892   1.166   1.970 -0.5052 -3.2699  3.2709
  874SOL     OW 2620   1.716   1.054   1.777 -0.0718 -0.4111  0.6891
  874SOL    HW1 2621   1.713   0.971   1.720 -0.2539 -0.0287 -0.0014
  874SOL    HW2 2622   1.791   1.048   1.844 -1.6535 -0.2293  2.0674
  875SOL     OW 2623   2.909   3.036   0.193  0.5340  0.0722 -0.6428
  875SOL    HW1 2624   3.011   3.038   0.182 -3.4219  0.1932  0.1931
  875SOL    HW2 2625   2.881   2.966   0.263  0.3269 -2.3942 -1.0313
  876SOL     OW 2626   0.671   1.236   0.293  0.6210 -0.7650  0.2459
  876SOL    HW1 2627   0.676   1.134   0.289  0.0430 -5.1896 -0.6410
  876SOL    HW2 2628   0.739   1.280   0.226  2.2191  2.9462 -0.9676
  877SOL     OW 2629   2.587   2.788   0.713 -0.2069 -0.2053 -0.4553
  877SOL    HW1 2630   2.536   2.877   0.704  0.4952  3.3201 -2.8562
  877SOL    HW2 2631   2.561   2.725   0.637  1.2326  1.8024 -3.3318
  878SOL     OW 2632   2.049   1.863   0.759 -0.1102  0.9668  0.3883
  878SOL    HW1 2633   2.022   1.874   0.661 -0.5385  0.6983  2.8440
  878SOL    HW2 2634   2.049   1.763   0.779 -0.1530  1.3959 -0.9867
  879SOL     OW 2635   2.579   1.528   1.354 -0.3354  0.0734  0.2468
  879SOL    HW1 2636   2.531   1.460   1.411  0.3424  2.8414 -0.2529
  879SOL    HW2 2637   2.551   1.533   1.255  1.3778  0.1500  0.9610
  880SOL     OW 2638   0.498   2.201   0.912 -0.0476  0.1474 -0.1294
  880SOL    HW1 2639   0.509   2.170   1.013  1.7917  0.6078  2.7129
  880SOL    HW2 2640   0.493   2.116   0.849 -0.2096 -2.5598  0.1445
  881SOL     OW 2641   0.654   0.695   1.102  0.5258  0.5240  0.5135
  881SOL    HW1 2642   0.725   0.733   1.167 -1.3569  1.2055  0.3710
  881SOL    HW2 2643   0.677   0.720   1.008 -0.8617 -2.1921  2.0142
  882SOL     OW 2644   2.479   1.190   1.208 -0.1560 -0.6554 -0.2660
  882SOL    HW1 2645   2.452   1.096   1.187  1.5943  0.9123 -0.1167
  882SOL    HW2 2646   2.549   1.229   1.140  0.2146 -2.0018  0.3499
  883SOL     OW 2647   1.462   0.220   1.816 -0.1965 -0.1292 -0.0492
  883SOL    HW1 2648   1.524   0.219   1.900  1.7270 -2.5614 -0.2305
  883SOL    HW2 2649   1.498   0.149   1.752  1.6007  2.1770  0.0698
  884SOL     OW 2650   3.096   0.323   1.673 -0.5590 -0.0328 -0.0126
  884SOL    HW1 2651   0.068   0.351   1.720  0.2078  0.5720  0.3662
  884SOL    HW2 2652   3.021   0.334   1.743 -0.5128  0.2339  2.3272
  885SOL     OW 2653   1.331   1.526   3.015 -0.3582 -0.1004  0.4498
  885SOL    HW1 2654   1.300   1.559   2.917 -0.5100  2.2387 -0.9523
  885SOL    HW2 2655   1.425   1.558   3.019  0.0153 -0.3046 -0.6296
  886SOL     OW 2656   1.969   0.342   2.930 -0.1241 -0.4386  0.2651
  886SOL    HW1 2657   1.909   0.352   3.011  3.3893 -0.6995 -1.2846
  886SOL    HW2 2658   2.057   0.301   2.966 -0.1551 -0.2804  2.4575
  887SOL     OW 2659   1.576   0.050   1.633  0.1822  0.1222  0.3077
  887SOL    HW1 2660   1.628   0.084   1.550 -1.9160  0.5613 -1.7419
  887SOL    HW2 2661   1.619   3.082   1.672  0.3041 -2.5738  3.2782
  888SOL     OW 2662   2.039   1.784   1.847 -0.5771  0.0637 -0.0699
  888SOL    HW1 2663   2.007   1.699   1.897  2.1310 -3.1180 -0.9381
  888SOL    HW2 2664   2.078   1.859   1.909 -0.1877 -0.4604 -1.3393
  889SOL     OW 2665   1.929   2.113   0.567 -0.3131 -0.2440  0.2008
  889SOL    HW1 2666   1.981   2.037   0.521  3.4012  1.0985  0.7226
  889SOL    HW2 2667   1.999   2.186   0.581 -1.0615 -0.7090 -0.8595
  890SOL     OW 2668   1.338   2.019   0.696 -0.4666 -0.0914  0.6015
  890SOL    HW1 2669   1.260   2.083   0.672 -2.7321 -1.8109  0.4434
  890SOL    HW2 2670   1.361   1.963   0.613 -1.1189 -1.2481 -0.5266
  891SOL     OW 2671   2.821   0.878   3.111  1.0727  0.2456 -0.1009
  891SOL    HW1 2672   2.863   0.852   0.086  2.4456  0.6061  2.1231
  891SOL    HW2 2673   2.719   0.903   0.001 -0.3202 -1.6480 -0.0242
  892SOL     OW 2674   1.800   0.708   2.795 -0.1180  0.2253 -0.5744
  892SOL    HW1 2675   1.746   0.644   2.853 -0.1222  0.0167  0.2872
  892SOL    HW2 2676   1.758   0.711   2.701  0.8487  2.2488 -0.7450
  893SOL     OW 2677   1.501   2.767   1.605 -0.5770  0.5578  0.2429
  893SOL    HW1 2678   1.414   2.822   1.620 -1.4991 -0.5055 -0.2732
  893SOL    HW2 2679   1.577   2.830   1.611 -3.6770  2.8040 -2.5858
  894SOL     OW 2680   2.749   3.108   0.525  0.3454 -0.5143 -0.4902
  894SOL    HW1 2681   2.699   3.033   0.483  1.1823 -0.2190 -3.1247
  894SOL    HW2 2682   2.779   3.086   0.617  1.8617  0.5737 -0.6997
  895SOL     OW 2683   2.077   2.221   3.015 -0.6954  0.4469 -0.1255
  895SOL    HW1 2684   2.129   2.174   2.940  1.0801 -1.9090 -1.2391
  895SOL    HW2 2685   2.063   2.319   2.999 -1.0506 -2.2184  0.1660
  896SOL     OW 2686   2.241   0.136   2.428 -0.4097  0.0002  0.0646
  896SOL    HW1 2687   2.245   0.168   2.523  1.3182 -0.4073 -1.3297
  896SOL    HW2 2688   2.201   0.204   2.364  0.5938 -2.5674  1.5188
  897SOL     OW 2689   0.319   1.714   1.839 -0.2585 -0.2124 -0.1562
  897SOL    HW1 2690   0.361   1.632   1.886 -0.2145  0.9290 -0.7293
  897SOL    HW2 2691   0.390   1.783   1.810  0.0655 -1.3298  0.8475
  898SOL     OW 2692   2.404   1.642   1.894  0.1189  0.2821  0.6712
  898SOL    HW1 2693   2.381   1.641   1.797  1.2242 -1.9190  1.1851
  898SOL    HW2 2694   2.499   1.662   1.913  2.4348 -1.6819 -0.5204
  899SOL     OW 2695   1.698   2.545   1.071 -0.1264  0.2012 -0.2079
  899SOL    HW1 2696   1.615   2.575   1.019  0.4145 -2.2438 -0.3132
  899SOL    HW2 2697   1.693   2.610   1.149 -1.4513  2.5948  0.2427
  900SOL     OW 2698   1.136   0.911   0.113  0.4056 -0.1326  0.0744
  900SOL    HW1 2699   1.224   0.863   0.136 -1.3697 -1.7630  0.7178
  900SOL    HW2 2700   1.152   0.966   0.029 -0.2523  1.8496 -1.8107
  901SOL     OW 2701   1.329   1.486   2.500 -0.1653 -0.4170 -0.4937
  901SOL    HW1 2702   1.327   1.451   2.402  0.6478  0.9800  0.9288
  901SOL    HW2 2703   1.426   1.517   2.522  0.8270  0.0789 -0.9952
  902SOL     OW 2704   0.080   2.507   0.010 -0.1473  0.1834  0.2440
  902SOL    HW1 2705   0.149   2.507   0.083 -3.1748 -0.0833 -0.8963
  902SOL    HW2 2706   3.112   2.543   0.050  1.9583  1.1981  1.6849
  903SOL     OW 2707   2.390   0.767   1.798  0.2996 -0.1568 -0.0995
  903SOL    HW1 2708   2.435   0.678   1.822 -1.2712  1.5718  1.0598
  903SOL    HW2 2709   2.401   0.835   1.871 -1.3161  1.3945  2.6703
  904SOL     OW 2710   1.616   0.519   2.958 -0.1743  0.3575  0.3085
  904SOL    HW1 2711   1.564   0.447   2.904 -0.4917  1.3272  0.0057
  904SOL    HW2 2712   1.671   0.471   3.028 -2.2211 -0.1106 -1.0104
  905SOL     OW 2713   2.084   2.416   1.228 -0.1070  0.0757 -0.3759
  905SOL    HW1 2714   2.068   2.514   1.205 -1.2845 -3.1647  1.6274
  905SOL    HW2 2715   2.116   2.367   1.143 -1.0516  0.4798 -0.7924
  906SOL     OW 2716   1.406   2.038   3.020  0.3074 -0.2709 -0.1245
  906SOL    HW1 2717   1.468   1.963   3.049 -0.2293 -0.9840  1.2538
  906SOL    HW2 2718   1.448   2.084   2.940  1.7024  1.0174 -1.8269
  907SOL     OW 2719   0.894   2.702   0.638 -0.1440  0.5575 -0.3333
  907SOL    HW1 2720   0.803   2.704   0.681  1.3283 -0.2277 -0.9251
  907SOL    HW2 2721   0.893   2.696   0.536 -2.7617 -1.1777 -2.4607
  908SOL     OW 2722   1.237   2.671   2.107 -0.4297 -0.1297  0.2119
  908SOL    HW1 2723   1.255   2.587   2.049  0.7998 -1.3858  0.7035
  908SOL    HW2 2724   1.317   2.736   2.108 -0.9733  0.2964  0.2755
  909SOL     OW 2725   1.662   0.580   1.167  0.0908 -0.9389  0.1782
  909SOL    HW1 2726   1.679   0.484   1.186 -0.8300  2.2296 -1.5055
  909SOL    HW2 2727   1.563   0.596   1.135 -2.1085  2.1092  2.2031
  910SOL     OW 2728   1.338   1.086   3.112  0.3220 -0.5892  0.2348
  910SOL    HW1 2729   1.266   1.147   3.071  0.0999  2.8966  1.5768
  910SOL    HW2 2730   1.369   1.014   3.043  3.0186  0.7470  0.0556
  911SOL     OW 2731   2.917   0.821   0.234  0.0741  0.3363  0.6455
  911SOL    HW1 2732   2.881   0.735   0.268  0.5859  1.8869 -0.5142
  911SOL    HW2 2733   2.888   0.901   0.285  2.6625 -1.2502  0.1720
  912SOL     OW 2734   0.006   2.239   3.093  0.0341 -0.0235  0.4214
  912SOL    HW1 2735   0.095   2.194   3.113  0.0357  1.9112 -0.2559
  912SOL    HW2 2736   0.026   2.341   3.074 -0.9555 -0.0673  0.6870
  913SOL     OW 2737   2.647   2.127   2.625 -0.1921  0.0238  0.0275
  913SOL    HW1 2738   2.636   2.175   2.710 -0.1768 -3.1462 -1.3103
  913SOL    HW2 2739   2.743   2.096   2.618  0.8218  0.4999 -1.7685
  914SOL     OW 2740   1.379   1.686   1.635 -0.2634 -0.2201  0.1773
  914SOL    HW1 2741   1.384   1.688   1.530 -0.3495 -0.1729  1.3961
  914SOL    HW2 2742   1.450   1.745   1.677  0.0844 -1.1757 -0.6140
  915SOL     OW 2743   0.668   2.543   2.088 -0.1615  0.3949  0.0785
  915SOL    HW1 2744   0.607   2.607   2.040  0.7856 -2.8712  4.3809
  915SOL    HW2 2745   0.661   2.551   2.190 -1.5826 -1.9855  0.5372
  916SOL     OW 2746   0.286   1.247   1.857  0.8669 -0.2016  0.2159
  916SOL    HW1 2747   0.344   1.166   1.870 -1.0218 -0.6627 -2.4057
  916SOL    HW2 2748   0.291   1.286   1.760  0.5221 -1.0746  0.6689
  917SOL     OW 2749   2.445   0.353   0.448 -0.5781  0.1241 -0.1171
  917SOL    HW1 2750   2.466   0.298   0.363 -0.9571  1.9879  1.0633
  917SOL    HW2 2751   2.515   0.344   0.514 -1.4567 -1.0467 -0.8930
  918SOL     OW 2752   1.632   2.769   2.295 -0.3306 -0.3245 -0.3015
  918SOL    HW1 2753   1.712   2.709   2.264 -2.7599  0.0321  2.2215
  918SOL    HW2 2754   1.638   2.787   2.394 -0.3315  2.6307 -2.5793
  919SOL     OW 2755   1.547   2.542   1.800 -0.4097 -0.1057  0.4612
  919SOL    HW1 2756   1.540   2.602   1.716 -1.3078 -1.3235  0.7264
  919SOL    HW2 2757   1.450   2.513   1.822 -0.1532  2.5750 -0.6851
  920SOL     OW 2758   0.684   0.973   2.917 -0.6883  0.2142  0.2495
  920SOL    HW1 2759   0.639   1.044   2.857 -0.7119  1.1675  1.5612
  920SOL    HW2 2760   0.620   0.947   2.992 -0.3701  1.1399 -2.7001
  921SOL     OW 2761   0.093   0.411   2.650 -0.2807 -0.0192  0.1336
  921SOL    HW1 2762   0.012   0.382   2.596 -1.0622 -1.3130  0.1705
  921SOL    HW2 2763   0.167   0.433   2.586  0.7987 -2.0789  1.9195
  922SOL     OW 2764   0.916   2.106   0.661 -0.7408  0.1477 -0.7058
  922SOL    HW1 2765   0.911   2.035   0.587  1.8442 -0.0072 -0.2908
  922SOL    HW2 2766   0.933   2.072   0.759 -1.2897 -0.0069 -2.0888
  923SOL     OW 2767   0.478   1.061   2.162  0.3274  0.5571 -0.5315
  923SOL    HW1 2768   0.498   1.050   2.066 -0.3177  0.6321  2.8313
  923SOL    HW2 2769   0.420   1.146   2.166  0.7505 -2.6241  0.8339
  924SOL     OW 2770   1.392   3.018   2.834 -0.4300  0.1955  0.4482
  924SOL    HW1 2771   1.307   3.067   2.795 -2.6768 -1.8475 -3.1597
  924SOL    HW2 2772   1.367   2.924   2.861  2.4651 -2.5594  1.0674
  925SOL     OW 2773   2.623   1.287   1.685  0.7449 -0.0289  0.4434
  925SOL    HW1 2774   2.530   1.249   1.693  2.3868 -1.9181  1.9721
  925SOL    HW2 2775   2.650   1.288   1.586  3.1177 -2.0327  1.3173
  926SOL     OW 2776   2.086   0.755   1.576 -0.2072 -0.2310  0.0258
  926SOL    HW1 2777   2.085   0.812   1.496 -0.1307 -0.1083 -0.2361
  926SOL    HW2 2778   2.103   0.658   1.541 -0.4879 -2.6522 -1.8574
  927SOL     OW 2779   2.233   2.852   1.278  0.2652  0.0809 -0.1063
  927SOL    HW1 2780   2.268   2.905   1.356 -1.3516 -3.6118  0.0237
  927SOL    HW2 2781   2.259   2.902   1.193 -1.6098 -1.6520  1.8826
  928SOL     OW 2782   0.259   0.891   2.176  0.0356  0.2316 -0.3515
  928SOL    HW1 2783   0.176   0.947   2.167 -1.2044 -1.8399 -1.2073
  928SOL    HW2 2784   0.336   0.952   2.142  1.3327 -0.3458 -0.0979
  929SOL     OW 2785   2.609   0.615   0.818 -0.5674  0.1204 -0.0873
  929SOL    HW1 2786   2.612   0.698   0.879 -0.5286 -1.4581  1.4631
  929SOL    HW2 2787   2.697   0.579   0.783 -1.8475  2.1802 -2.0232
  930SOL     OW 2788   2.960   2.680   1.898  0.0076  0.4715 -0.5297
  930SOL    HW1 2789   2.892   2.748   1.935  1.5457 -0.6674  0.6615
  930SOL    HW2 2790   3.019   2.728   1.835 -2.2622 -2.3245 -0.6362
  931SOL     OW 2791   1.875   1.164   0.580 -0.3187  0.6382  0.1070
  931SOL    HW1 2792   1.935   1.117   0.642 -1.8657 -0.9672 -0.4368
  931SOL    HW2 2793   1.915   1.238   0.525  2.0702  2.0646 -0.0902
  932SOL     OW 2794   2.744   1.136   1.914 -0.3512  0.0624 -0.0634
  932SOL    HW1 2795   2.737   1.070   1.837  1.8197 -0.1498  0.4795
  932SOL    HW2 2796   2.753   1.228   1.879  0.6388 -1.0774  1.1817
  933SOL     OW 2797   2.848   2.179   1.757 -0.0714  0.2878 -0.8124
  933SOL    HW1 2798   2.815   2.095   1.807  0.1064  1.0668  2.1757
  933SOL    HW2 2799   2.883   2.251   1.825  1.6787  1.4556  3.2061
  934SOL     OW 2800   0.600   2.190   1.424 -0.7314 -0.2174 -0.3487
  934SOL    HW1 2801   0.688   2.146   1.458  2.7704  0.2161 -0.1164
  934SOL    HW2 2802   0.535   2.187   1.500 -1.3582 -2.2346  1.6797
  935SOL     OW 2803   2.641   1.542   2.174 -0.3447 -0.0482 -0.2264
  935SOL    HW1 2804   2.622   1.619   2.106 -0.6518 -0.1132 -0.0304
  935SOL    HW2 2805   2.625   1.448   2.131 -3.5302  1.5741 -1.3252
  936SOL     OW 2806   2.298   1.741   2.118  0.1267  0.6039  0.3042
  936SOL    HW1 2807   2.316   1.712   2.021  0.4145  0.7213  2.2979
  936SOL    HW2 2808   2.203   1.780   2.129  0.5841  1.0556 -1.0084
  937SOL     OW 2809   1.906   1.321   1.865  0.1613  0.6572  1.0400
  937SOL    HW1 2810   1.871   1.243   1.922  1.3692 -0.0734 -1.3549
  937SOL    HW2 2811   1.903   1.290   1.769  0.1943  0.7134 -0.9281
  938SOL     OW 2812   0.803   2.416   2.460 -0.2766 -0.9261  0.1517
  938SOL    HW1 2813   0.837   2.387   2.372  0.7024  3.9527  0.3376
  938SOL    HW2 2814   0.878   2.394   2.522  0.9905 -0.1862  0.8492
  939SOL     OW 2815   2.162   1.021   3.027  0.5628  0.0631  0.2710
  939SOL    HW1 2816   2.122   1.025   2.932 -1.1029 -0.0894  0.4389
  939SOL    HW2 2817   2.200   0.926   3.041 -0.4477  1.4415 -0.3965
  940SOL     OW 2818   1.016   1.774   0.669 -0.0690 -0.1612 -0.3999
  940SOL    HW1 2819   1.073   1.693   0.684  0.3390 -1.0068  1.3646
  940SOL    HW2 2820   1.037   1.857   0.725 -2.2296  2.8947  0.4289
  941SOL     OW 2821   1.648   2.976   2.714  0.0727 -0.6206  0.2040
  941SOL    HW1 2822   1.551   3.006   2.725  1.1349  0.3666  2.1149
  941SOL    HW2 2823   1.671   2.893   2.762 -1.0723  1.3117  0.6148
  942SOL     OW 2824   0.870   2.406   0.390  0.5798  0.1370  0.2223
  942SOL    HW1 2825   0.838   2.501   0.376  1.3051  0.1043 -1.0308
  942SOL    HW2 2826   0.968   2.413   0.361  2.2603  0.0750  0.7510
  943SOL     OW 2827   1.803   0.161   1.811 -0.0957 -0.0944 -0.0563
  943SOL    HW1 2828   1.737   0.182   1.884  0.7551 -1.3749 -0.9904
  943SOL    HW2 2829   1.861   0.242   1.791  1.4292 -2.2400  1.3472
  944SOL     OW 2830   0.707   1.479   2.929 -0.1971 -0.3218  0.0220
  944SOL    HW1 2831   0.697   1.564   2.871  0.6255  1.2760 -0.9643
  944SOL    HW2 2832   0.705   1.398   2.874 -1.8626 -0.4902  0.5015
  945SOL     OW 2833   2.993   2.509   1.191 -0.0754 -0.1257  0.3671
  945SOL    HW1 2834   2.941   2.523   1.279 -2.7668 -1.6132 -1.9365
  945SOL    HW2 2835   2.960   2.428   1.142 -2.4230 -0.0876  2.6730
  946SOL     OW 2836   0.545   1.088   2.707  0.3355  0.1373  0.5097
  946SOL    HW1 2837   0.574   1.154   2.634 -2.2470 -0.1159  0.0926
  946SOL    HW2 2838   0.459   1.036   2.679  0.8094 -1.3795  3.0411
  947SOL     OW 2839   2.792   0.099   1.813  0.6096  0.0683 -0.4327
  947SOL    HW1 2840   2.784   0.056   1.904  1.0853 -1.3670 -1.2615
  947SOL    HW2 2841   2.814   0.029   1.742  0.4121  0.2411 -1.3265
  948SOL     OW 2842   0.100   1.972   1.183 -0.0536 -0.2476  0.1221
  948SOL    HW1 2843   0.151   1.915   1.115 -0.6566 -2.2383  0.4865
  948SOL    HW2 2844   0.077   1.926   1.270  0.7264  0.1581  0.7764
  949SOL     OW 2845   1.321   1.074   1.682  0.1287 -0.0189 -0.2420
  949SOL    HW1 2846   1.296   1.067   1.585  1.4543 -0.8384  0.5706
  949SOL    HW2 2847   1.265   1.136   1.742  1.7369  0.1183 -2.3434
  950SOL     OW 2848   0.117   1.086   1.085  0.0392 -0.2511 -0.4147
  950SOL    HW1 2849   0.110   1.104   0.987  0.4879 -2.3433 -0.6324
  950SOL    HW2 2850   0.219   1.071   1.107  2.2432  0.1642  0.1862
  951SOL     OW 2851   0.141   1.822   2.031 -0.1404  0.5104  0.6835
  951SOL    HW1 2852   0.150   1.925   2.023  0.1761  0.3613 -0.9283
  951SOL    HW2 2853   0.228   1.786   1.988 -0.7137  1.2725 -2.3778
  952SOL     OW 2854   1.444   1.756   0.236 -0.0261 -0.2342  0.1956
  952SOL    HW1 2855   1.442   1.812   0.322 -0.1388  0.4478 -0.7593
  952SOL    HW2 2856   1.358   1.702   0.213  1.1323 -1.4904 -1.0499
  953SOL     OW 2857   0.954   0.726   0.200  0.5576  0.0497  0.1352
  953SOL    HW1 2858   1.006   0.807   0.161  1.0959 -2.3267 -0.0395
  953SOL    HW2 2859   0.854   0.735   0.176 -2.2795 -0.8101  0.5440
  954SOL     OW 2860   2.056   1.090   0.787 -0.3259  0.4007 -0.0692
  954SOL    HW1 2861   2.126   1.148   0.743  0.9071  0.5537  2.6737
  954SOL    HW2 2862   2.061   1.098   0.890  1.3449  1.1324  0.3997
  955SOL     OW 2863   2.558   1.615   0.303  0.1652  0.3249  0.1806
  955SOL    HW1 2864   2.552   1.702   0.257  2.8707 -1.1578 -2.2317
  955SOL    HW2 2865   2.650   1.605   0.344 -1.5514  0.5899 -2.0655
  956SOL     OW 2866   1.152   0.420   1.615 -0.5257 -0.3383  0.0337
  956SOL    HW1 2867   1.179   0.520   1.606 -1.3917 -0.5503  1.0281
  956SOL    HW2 2868   1.054   0.404   1.591  0.4451 -0.2393  3.3691
  957SOL     OW 2869   1.857   1.082   1.200  0.0093 -0.1183  0.2752
  957SOL    HW1 2870   1.861   1.095   1.302 -1.0421  1.6421 -3.5368
  957SOL    HW2 2871   1.839   0.985   1.177  1.3954 -1.8798 -0.2944
  958SOL     OW 2872   0.495   1.993   0.730 -0.4478 -0.2624  0.9902
  958SOL    HW1 2873   0.400   1.959   0.728  0.8589  1.8390  0.6147
  958SOL    HW2 2874   0.536   2.015   0.638 -1.2573  0.2706 -1.8418
  959SOL     OW 2875   1.980   1.464   1.407  0.4624 -0.0886 -0.4600
  959SOL    HW1 2876   1.962   1.480   1.313  0.2413 -0.5920  2.6667
  959SOL    HW2 2877   2.078   1.489   1.423 -0.3305  1.0388 -2.1874
  960SOL     OW 2878   3.032   1.695   2.804  0.0306 -0.5717  0.3723
  960SOL    HW1 2879   3.030   1.693   2.907 -0.8129  2.2633 -2.5445
  960SOL    HW2 2880   3.073   1.613   2.763 -1.2490  0.7696 -0.8981
  961SOL     OW 2881   0.908   1.497   1.034 -0.0602 -0.0747  0.1526
  961SOL    HW1 2882   0.898   1.564   0.958  0.8372 -2.3020  1.8653
  961SOL    HW2 2883   0.981   1.529   1.096 -2.3207 -0.5827 -1.4839
  962SOL     OW 2884   0.866   0.918   0.550  0.1028 -0.1210  0.6244
  962SOL    HW1 2885   0.942   0.848   0.542  1.7261  1.4154 -2.2129
  962SOL    HW2 2886   0.904   1.015   0.561  0.6504 -1.2767 -1.8825
  963SOL     OW 2887   1.260   1.852   2.062 -0.0278  0.4116  0.1383
  963SOL    HW1 2888   1.227   1.808   2.146  0.8439 -0.5344 -2.1037
  963SOL    HW2 2889   1.363   1.853   2.057  1.8842  2.3587 -0.6325
  964SOL     OW 2890   0.125   2.662   2.559  0.2311  0.0679 -0.4793
  964SOL    HW1 2891   0.178   2.581   2.588  0.6143  1.4947  0.8448
  964SOL    HW2 2892   0.072   2.687   2.641  0.2352 -1.4741 -2.0919
  965SOL     OW 2893   0.732   2.281   0.174 -0.0200 -0.3606 -0.3142
  965SOL    HW1 2894   0.765   2.344   0.104  2.0021 -0.2406  1.9486
  965SOL    HW2 2895   0.764   2.317   0.263  1.5752 -0.9204 -4.3063
  966SOL     OW 2896   3.028   1.721   3.086 -0.6268  0.1469 -0.2953
  966SOL    HW1 2897   2.936   1.755   3.104  1.6687  0.4913  0.7236
  966SOL    HW2 2898   3.043   1.628   0.009 -3.7887  1.6518  0.3348
  967SOL     OW 2899   2.045   2.695   2.797 -0.1188 -0.0290  0.1030
  967SOL    HW1 2900   2.074   2.661   2.708 -0.1602  1.7427  0.3480
  967SOL    HW2 2901   2.003   2.790   2.783  1.3846  0.6774  2.4098
  968SOL     OW 2902   2.124   2.843   0.673  0.2198  0.6249 -0.4020
  968SOL    HW1 2903   2.184   2.894   0.739  1.8616  2.6543  1.7029
  968SOL    HW2 2904   2.135   2.743   0.688 -1.8407 -1.2292 -2.1116
  969SOL     OW 2905   0.712   1.122   2.320 -0.4751 -0.6571  0.3964
  969SOL    HW1 2906   0.682   1.176   2.398 -1.0599 -0.3733 -2.0461
  969SOL    HW2 2907   0.635   1.100   2.264 -0.1602  0.7388  0.4459
  970SOL     OW 2908   1.757   1.348   0.741 -0.1164 -0.6262 -0.1749
  970SOL    HW1 2909   1.803   1.290   0.670 -1.0930  2.0544  0.8542
  970SOL    HW2 2910   1.813   1.356   0.827 -1.3004  1.5719  0.8838
  971SOL     OW 2911   2.372   2.948   1.511  0.1211  0.1144 -0.1254
  971SOL    HW1 2912   2.434   2.945   1.594  0.5509 -0.7535 -0.9885
  971SOL    HW2 2913   2.432   2.967   1.429  0.7846  1.6019 -3.0603
  972SOL     OW 2914   3.038   0.093   1.535 -0.5228  0.0399 -0.2438
  972SOL    HW1 2915   2.957   0.055   1.588  1.1349  1.5691  0.1751
  972SOL    HW2 2916   3.073   0.177   1.591  0.3964  0.2403  4.2894
  973SOL     OW 2917   0.288   0.202   2.440 -0.3163  0.5066 -0.1925
  973SOL    HW1 2918   0.312   0.143   2.526  1.6363  1.6806  1.2916
  973SOL    HW2 2919   0.276   0.298   2.474  0.4662  1.2815 -0.7884
  974SOL     OW 2920   2.424   0.983   1.968 -0.1642  0.2852 -0.0895
  974SOL    HW1 2921   2.366   1.047   2.019 -0.0654  3.8043 -1.1841
  974SOL    HW2 2922   2.479   0.919   2.023  1.1909  0.8847  1.8444
  975SOL     OW 2923   0.994   0.556   1.271 -0.4664 -0.5565  0.5292
  975SOL    HW1 2924   0.939   0.500   1.207 -0.1965  2.6686 -0.8777
  975SOL    HW2 2925   0.941   0.640   1.290 -1.0828 -0.8641 -1.1900
  976SOL     OW 2926   0.836   1.498   1.864  0.1730 -0.2674 -0.4719
  976SOL    HW1 2927   0.760   1.496   1.939 -2.8476  1.5528  4.0297
  976SOL    HW2 2928   0.880   1.592   1.863  0.7171  0.2174  0.2274
  977SOL     OW 2929   0.931   0.173   0.153 -0.3090  0.5963 -0.0388
  977SOL    HW1 2930   0.915   0.243   0.083 -2.3028  3.0031  0.1404
  977SOL    HW2 2931   0.952   0.221   0.242 -1.5899 -0.0716 -1.2015
  978SOL     OW 2932   2.598   0.839   2.132  0.4185 -0.7029 -0.3217
  978SOL    HW1 2933   2.566   0.760   2.188  1.4758 -0.1133  1.3654
  978SOL    HW2 2934   2.650   0.915   2.173  0.3224 -0.8239 -1.5272
  979SOL     OW 2935   1.561   0.484   1.946 -0.0673 -0.0749 -0.0579
  979SOL    HW1 2936   1.502   0.450   1.869 -1.3155  3.0906 -0.9946
  979SOL    HW2 2937   1.612   0.565   1.919 -2.5041 -4.0040  0.0456
  980SOL     OW 2938   1.638   1.613   1.866  0.0611  0.0974  0.6592
  980SOL    HW1 2939   1.580   1.535   1.903  0.0078 -0.9750 -1.2704
  980SOL    HW2 2940   1.672   1.579   1.774  0.3600 -0.6815 -0.0388
  981SOL     OW 2941   2.518   0.734   1.352  0.1956 -0.2119  0.1168
  981SOL    HW1 2942   2.606   0.701   1.392  2.4716 -0.4936  0.3338
  981SOL    HW2 2943   2.468   0.790   1.420 -1.6159 -1.6637 -0.5636
  982SOL     OW 2944   0.518   0.239   2.743  0.0499  0.3530  0.6363
  982SOL    HW1 2945   0.518   0.323   2.805 -1.6151  0.0757  2.6082
  982SOL    HW2 2946   0.558   0.162   2.798 -1.5619  1.7532  1.7666
  983SOL     OW 2947   2.409   0.857   2.835 -0.3011  0.2883  0.6398
  983SOL    HW1 2948   2.365   0.948   2.804 -1.1071  1.6280 -0.9994
  983SOL    HW2 2949   2.357   0.810   2.907 -0.2656 -0.0790 -3.4519
  984SOL     OW 2950   1.269   3.044   1.934 -0.0542 -0.0755 -0.4186
  984SOL    HW1 2951   1.337   3.071   2.002 -2.8243  0.3569 -0.6896
  984SOL    HW2 2952   1.227   2.957   1.972 -0.4344 -3.0665  0.9925
  985SOL     OW 2953   1.797   1.898   1.792 -0.3568  0.7898  0.0959
  985SOL    HW1 2954   1.881   1.855   1.754  2.4781  2.7597 -0.6302
  985SOL    HW2 2955   1.785   1.875   1.885  1.7806  1.1733 -1.6236
  986SOL     OW 2956   2.346   0.484   1.442  0.5687 -0.4317 -0.7473
  986SOL    HW1 2957   2.408   0.536   1.506  0.8264  2.8015 -1.4314
  986SOL    HW2 2958   2.398   0.415   1.393 -0.0868 -2.3499 -1.1705
  987SOL     OW 2959   2.730   1.092   1.294  0.2700  0.1682  0.5869
  987SOL    HW1 2960   2.631   1.111   1.269 -2.5655  1.0568 -1.9832
  987SOL    HW2 2961   2.767   1.160   1.361  0.5656 -0.0057 -0.7578
  988SOL     OW 2962   2.331   1.628   1.612 -0.0228 -0.2687 -0.8749
  988SOL    HW1 2963   2.242   1.674   1.609  0.6842 -1.4868 -4.0497
  988SOL    HW2 2964   2.388   1.670   1.544 -3.2746  0.2345  0.6329
  989SOL     OW 2965   1.076   2.560   0.111  0.0560 -0.5124  0.3489
  989SOL    HW1 2966   1.124   2.651   0.124  0.1419  1.3409 -2.4214
  989SOL    HW2 2967   1.108   2.497   0.183  0.5558  0.9979 -0.3768
  990SOL     OW 2968   1.776   1.031   2.771  0.3927 -0.0180  0.0263
  990SOL    HW1 2969   1.760   0.949   2.832  2.3464  0.7457  2.3474
  990SOL    HW2 2970   1.727   1.029   2.682 -2.8623 -2.5640 -0.3241
  991SOL     OW 2971   1.037   0.270   0.421  0.0029  0.9639 -0.5633
  991SOL    HW1 2972   1.113   0.218   0.388  1.6146  4.7159 -2.2481
  991SOL    HW2 2973   1.063   0.350   0.481  0.4690  0.8115  2.2116
  992SOL     OW 2974   2.806   1.250   1.484 -0.2630 -0.4610 -0.1278
  992SOL    HW1 2975   2.846   1.308   1.410 -2.5238 -1.9946 -1.5083
  992SOL    HW2 2976   2.860   1.238   1.565 -1.3715 -2.1322  1.7735
  993SOL     OW 2977   2.752   0.700   1.534  0.0956  0.0394 -0.6193
  993SOL    HW1 2978   2.788   0.668   1.623 -1.3304 -0.6019 -0.7729
  993SOL    HW2 2979   2.814   0.744   1.464 -1.3631  0.3805  1.6417
  994SOL     OW 2980   0.296   2.233   2.523 -0.3300  0.1913  0.0847
  994SOL    HW1 2981   0.342   2.227   2.432  0.4462 -1.7278 -2.0422
  994SOL    HW2 2982   0.290   2.322   2.565 -2.0758 -0.2440  3.3262
  995SOL     OW 2983   2.040   1.114   2.741  0.4895  0.0378 -0.2919
  995SOL    HW1 2984   2.129   1.070   2.708  0.0482  4.1436  0.3925
  995SOL    HW2 2985   1.957   1.052   2.760 -2.0980 -2.4364 -1.4289
  996SOL     OW 2986   2.713   1.687   0.693 -0.2776 -0.0180 -0.2775
  996SOL    HW1 2987   2.742   1.782   0.682  2.2080 -2.2464  1.9898
  996SOL    HW2 2988   2.755   1.633   0.614 -1.0613  1.0478 -2.3360
  997SOL     OW 2989   2.316   0.915   2.320  0.2084 -0.5656 -0.0453
  997SOL    HW1 2990   2.289   0.988   2.256  0.7572 -1.1476 -0.3598
  997SOL    HW2 2991   2.243   0.875   2.371  2.1225 -1.7116 -1.3756
  998SOL     OW 2992   2.596   1.304   0.451 -0.6095 -0.0664 -0.1776
  998SOL    HW1 2993   2.511   1.343   0.418  0.8180  2.1367  1.3312
  998SOL    HW2 2994   2.622   1.227   0.387  2.3768 -1.4336 -1.5895
  999SOL     OW 2995   0.003   2.493   0.359  0.0077 -0.5610 -0.0346
  999SOL    HW1 2996   3.112   2.399   0.404  2.3794 -2.6072 -0.5471
  999SOL    HW2 2997   3.063   2.502   0.278 -0.7158  1.6779  4.3018
 1000SOL     OW 2998   0.847   0.769   2.541  0.1186  0.5741 -0.0608
 1000SOL    HW1 2999   0.840   0.754   2.641 -0.9935  2.1744  1.8366
 1000SOL    HW2 3000   0.906   0.703   2.490  1.1837  0.0223 -2.3660
   3.11823   3.11823   3.11823
