1000 SPC/Fw water molecules t= 417.00000 step= 417000
 3000
    1SOL     OW    1   0.187   3.056   1.220  0.3413  0.3405 -0.6037
    1SOL    HW1    2   0.180   0.022   1.303  2.3909 -0.8081  2.9948
    1SOL    HW2    3   0.156   2.970   1.268  3.5997 -0.5247  3.3302
    2SOL     OW    4   2.655   3.085   0.268 -0.1671 -0.2232  0.2117
    2SOL    HW1    5   2.614   2.991   0.264 -1.9196 -1.4203 -0.1068
    2SOL    HW2    6   2.698   0.006   0.180 -0.2718 -0.0392 -0.4008
    3SOL     OW    7   1.620   2.582   3.040  0.2645 -0.5346  0.0361
    3SOL    HW1    8   1.712   2.613   3.012 -0.5023 -0.2649  0.4133
    3SOL    HW2    9   1.549   2.655   3.019 -0.8114 -0.4180  2.2472
    4SOL     OW   10   0.954   0.025   2.253 -0.6990 -0.2379 -0.0181
    4SOL    HW1   11   0.949   0.033   2.355 -0.4637  2.8942 -0.2593
    4SOL    HW2   12   0.943   3.027   2.221  1.7961  0.8036 -1.3890
    5SOL     OW   13   2.233   0.157   1.621 -0.0050 -0.7058  0.1564
    5SOL    HW1   14   2.153   0.163   1.557 -3.9144 -0.0230 -2.0767
    5SOL    HW2   15   2.240   0.241   1.680 -2.8141 -2.3564 -0.1925
    6SOL     OW   16   2.461   1.738   1.355 -0.3029  0.4903 -0.5795
    6SOL    HW1   17   2.518   1.690   1.287  3.1460 -0.6046 -0.8844
    6SOL    HW2   18   2.391   1.674   1.394  2.6959  1.3712  2.6277
    7SOL     OW   19   2.029   1.148   0.707 -0.4742 -0.1217  0.3103
    7SOL    HW1   20   1.995   1.143   0.803  1.2745 -3.3243 -1.6375
    7SOL    HW2   21   2.124   1.177   0.713 -0.7905 -0.3379  1.3738
    8SOL     OW   22   0.419   1.556   1.103 -0.1199  0.6587 -0.4035
    8SOL    HW1   23   0.499   1.572   1.160 -0.7604 -0.3317 -0.4157
    8SOL    HW2   24   0.350   1.500   1.149 -0.3796  0.5667  0.2051
    9SOL     OW   25   0.053   2.831   1.348 -1.1691  0.5616  0.3324
    9SOL    HW1   26   3.081   2.842   1.417  1.4454  2.0339  0.4431
    9SOL    HW2   27   0.017   2.801   1.259 -1.2396  4.4567  1.2059
   10SOL     OW   28   1.137   2.390   0.543  0.2802  0.2782  0.1557
   10SOL    HW1   29   1.194   2.348   0.472  0.0729  0.2074  0.0408
   10SOL    HW2   30   1.085   2.473   0.515  3.5504 -0.8197 -0.0459
   11SOL     OW   31   1.657   2.015   1.220 -0.4599 -0.2475  0.6094
   11SOL    HW1   32   1.698   1.924   1.212 -1.0661 -0.4910  0.6222
   11SOL    HW2   33   1.725   2.095   1.230  2.2977  2.3255  0.6272
   12SOL     OW   34   2.977   0.840   2.329 -0.5828 -0.0029  0.0195
   12SOL    HW1   35   2.952   0.884   2.242 -0.9225 -0.8240  1.3209
   12SOL    HW2   36   2.942   0.747   2.343  0.8879 -0.9449  2.4366
   13SOL     OW   37   2.513   2.880   0.161  0.0392  0.8815 -0.0367
   13SOL    HW1   38   2.529   2.931   0.078 -2.2216  0.0772  0.9951
   13SOL    HW2   39   2.539   2.785   0.146  0.4086  1.8550  2.4148
   14SOL     OW   40   1.443   1.639   3.077 -0.3016 -0.0229  0.0785
   14SOL    HW1   41   1.463   1.541   3.049 -1.6909  0.6276  0.2055
   14SOL    HW2   42   1.516   1.697   3.030 -2.3686  1.7180  0.7941
   15SOL     OW   43   2.778   2.861   1.843 -0.5798 -0.0616  0.2150
   15SOL    HW1   44   2.875   2.848   1.822  0.0529  0.6062  0.2169
   15SOL    HW2   45   2.749   2.956   1.821 -2.6109  3.6898  1.2354
   16SOL     OW   46   2.920   0.426   0.870  0.3109 -0.6072  0.1878
   16SOL    HW1   47   2.998   0.497   0.875 -1.0175 -0.9335  0.3237
   16SOL    HW2   48   2.933   0.352   0.798 -2.2165  0.2657 -2.2014
   17SOL     OW   49   1.276   0.213   0.830  0.1002 -0.9180  0.3587
   17SOL    HW1   50   1.185   0.197   0.875  2.3200  0.2567 -1.2365
   17SOL    HW2   51   1.333   0.134   0.838  2.3853  1.1094  0.6557
   18SOL     OW   52   1.431   0.159   1.096  0.3526  0.3150 -0.2534
   18SOL    HW1   53   1.524   0.196   1.120 -0.0976  0.8928 -0.0922
   18SOL    HW2   54   1.398   0.204   1.013 -2.3405  0.4811  0.5291
   19SOL     OW   55   2.266   0.946   0.634 -0.2360  0.1545 -0.0534
   19SOL    HW1   56   2.301   1.035   0.667 -1.9337  0.1602 -2.7561
   19SOL    HW2   57   2.224   0.961   0.544  1.1748 -0.4497  2.4778
   20SOL     OW   58   2.393   1.647   2.627 -0.3216  0.2253  0.7718
   20SOL    HW1   59   2.445   1.664   2.538  0.1828  3.1973  0.4594
   20SOL    HW2   60   2.418   1.723   2.686  1.8359 -1.1909  3.0269
   21SOL     OW   61   1.339   0.003   0.235 -0.8452  0.6699  0.0971
   21SOL    HW1   62   1.373   0.007   0.332  0.7643  0.6049  0.6821
   21SOL    HW2   63   1.254   0.060   0.218 -0.5700  1.7582  0.5143
   22SOL     OW   64   2.883   1.109   0.896  0.1492  0.5132 -0.0444
   22SOL    HW1   65   2.839   1.098   0.991  1.0398  1.2603 -0.3534
   22SOL    HW2   66   2.815   1.142   0.824  0.3945  1.8459 -1.7786
   23SOL     OW   67   0.620   0.011   1.877 -0.2814  0.5139 -0.1514
   23SOL    HW1   68   0.694   0.043   1.943  0.3802 -1.1677  2.5614
   23SOL    HW2   69   0.607   0.085   1.808  0.0440  2.3667  0.3363
   24SOL     OW   70   2.477   2.055   0.834  0.2498  0.2805 -0.2780
   24SOL    HW1   71   2.401   2.128   0.846  0.6480 -0.2084 -0.9794
   24SOL    HW2   72   2.461   1.976   0.900  1.8866  0.4360 -0.3819
   25SOL     OW   73   1.688   0.017   2.460  0.4520  0.0262 -0.6920
   25SOL    HW1   74   1.640   0.107   2.459  0.4643 -1.7369  1.4668
   25SOL    HW2   75   1.655   3.056   2.540 -1.1990 -3.7277  2.5424
   26SOL     OW   76   1.534   2.358   0.072 -0.5944  0.0760 -0.3853
   26SOL    HW1   77   1.582   2.446   0.043 -1.2873  2.8877 -1.3185
   26SOL    HW2   78   1.511   2.312   3.084 -0.1705 -3.7142 -0.7794
   27SOL     OW   79   1.704   0.561   1.625 -0.3942 -0.2019 -0.7803
   27SOL    HW1   80   1.717   0.662   1.604 -2.6341  2.8910  0.2780
   27SOL    HW2   81   1.730   0.559   1.722  1.0840 -0.5868 -1.2012
   28SOL     OW   82   1.059   1.437   0.546 -0.2984  0.6515  0.0694
   28SOL    HW1   83   1.008   1.454   0.635 -1.9657  1.5745  2.7024
   28SOL    HW2   84   1.159   1.414   0.563  0.3231 -0.5182 -0.2993
   29SOL     OW   85   2.606   0.279   1.549  0.0753  0.0191  0.2003
   29SOL    HW1   86   2.599   0.209   1.476  0.3317 -2.4516 -0.0550
   29SOL    HW2   87   2.619   0.228   1.636  2.8128  2.5724 -0.6077
   30SOL     OW   88   1.336   2.501   1.561  0.1836  0.1431 -0.3788
   30SOL    HW1   89   1.408   2.573   1.570 -1.3399 -2.4117 -0.2602
   30SOL    HW2   90   1.357   2.451   1.471 -0.9746 -5.2755 -4.3727
   31SOL     OW   91   1.931   2.718   1.338 -0.3551 -0.1842 -0.9057
   31SOL    HW1   92   1.980   2.775   1.406  1.2136  3.5384  0.9394
   31SOL    HW2   93   1.956   2.746   1.243  3.1810 -1.0661  1.5413
   32SOL     OW   94   1.974   1.565   2.458  0.1142  0.1724 -0.6971
   32SOL    HW1   95   1.896   1.496   2.469 -2.1061 -1.8046 -3.3505
   32SOL    HW2   96   2.060   1.516   2.437  0.4498 -1.0570  1.3916
   33SOL     OW   97   2.388   0.571   2.973 -0.3222  0.0102  0.3865
   33SOL    HW1   98   2.327   0.624   3.035 -0.8448 -0.7020 -0.8857
   33SOL    HW2   99   2.356   0.574   2.876 -0.8942  2.6067 -1.3986
   34SOL     OW  100   1.947   0.111   0.327 -0.1492 -0.1162 -0.0988
   34SOL    HW1  101   1.876   0.071   0.393 -5.7235 -2.1292 -0.5715
   34SOL    HW2  102   2.039   0.094   0.371  1.5341 -1.7223  3.3489
   35SOL     OW  103   0.014   2.045   1.840  0.4139  0.0268  0.5040
   35SOL    HW1  104   3.040   2.061   1.766  0.5668  0.6610 -1.3497
   35SOL    HW2  105   3.088   1.962   1.899 -0.9253 -3.0487  0.3988
   36SOL     OW  106   2.431   1.841   2.839  0.1872 -0.6911 -0.0256
   36SOL    HW1  107   2.355   1.905   2.817 -1.8563  1.2727  1.8195
   36SOL    HW2  108   2.518   1.881   2.876 -1.9316  0.5398 -1.4281
   37SOL     OW  109   1.629   3.025   1.694  0.5322  0.1765  0.2305
   37SOL    HW1  110   1.679   2.942   1.681 -1.2965  1.6202  2.2584
   37SOL    HW2  111   1.569   3.023   1.774  1.3169  0.1464 -0.0426
   38SOL     OW  112   0.194   0.646   2.517  0.2730  0.6134  0.4543
   38SOL    HW1  113   0.192   0.723   2.454  2.3383 -1.4268  1.4734
   38SOL    HW2  114   0.289   0.607   2.518 -1.9387 -0.2419 -1.9863
   39SOL     OW  115   2.137   0.834   1.324  0.2435 -0.3423 -0.3024
   39SOL    HW1  116   2.140   0.732   1.309  1.5844  0.7578 -1.1724
   39SOL    HW2  117   2.104   0.880   1.237 -1.4025  0.5428  0.1566
   40SOL     OW  118   1.243   2.371   0.796  0.2694 -0.4070 -0.4049
   40SOL    HW1  119   1.218   2.284   0.844 -1.7850  0.9216  1.6216
   40SOL    HW2  120   1.205   2.366   0.700 -0.6238 -0.7836 -0.8504
   41SOL     OW  121   1.983   2.096   1.129  0.0921 -0.0402 -0.5609
   41SOL    HW1  122   1.943   2.096   1.036  1.2623 -2.5964 -1.7819
   41SOL    HW2  123   1.926   2.143   1.196  1.2887 -0.0690 -0.9210
   42SOL     OW  124   2.561   0.595   0.720 -0.0179 -0.2458  0.2649
   42SOL    HW1  125   2.611   0.625   0.800 -0.3056  1.7617 -4.2947
   42SOL    HW2  126   2.549   0.673   0.655  1.4297 -1.4710 -0.9774
   43SOL     OW  127   0.494   1.514   2.407  0.3650  0.4968  0.5585
   43SOL    HW1  128   0.533   1.481   2.317  2.0601  1.3866 -2.5638
   43SOL    HW2  129   0.489   1.616   2.412  0.1795 -0.0859 -1.8065
   44SOL     OW  130   1.650   2.620   1.327 -0.3285 -0.2085 -0.3333
   44SOL    HW1  131   1.598   2.664   1.403 -1.8644  0.1300 -1.3116
   44SOL    HW2  132   1.738   2.676   1.313 -1.3718 -0.1775  1.1546
   45SOL     OW  133   0.909   3.080   2.607 -0.5846 -0.0057 -0.4159
   45SOL    HW1  134   0.919   2.982   2.598  0.5284  3.5565 -0.5006
   45SOL    HW2  135   0.821   0.005   2.649 -2.5660 -0.8143 -0.8353
   46SOL     OW  136   0.769   2.613   1.960  0.4148  0.0397 -0.6577
   46SOL    HW1  137   0.844   2.566   1.907 -0.1496 -0.6068  1.2778
   46SOL    HW2  138   0.773   2.714   1.954  0.3312  0.3015  0.3793
   47SOL     OW  139   1.133   2.112   0.805  0.7977  0.7944  0.3377
   47SOL    HW1  140   1.179   2.061   0.727 -0.7884  0.5582 -0.0109
   47SOL    HW2  141   1.037   2.075   0.812 -0.4582  0.5650 -0.7776
   48SOL     OW  142   0.894   2.409   1.354  0.3183  0.2546  0.5807
   48SOL    HW1  143   0.938   2.441   1.270 -0.3481  1.5281  3.3338
   48SOL    HW2  144   0.959   2.437   1.429 -0.3635  2.0656  0.8060
   49SOL     OW  145   2.627   0.202   2.902  0.1404  0.3615 -0.1465
   49SOL    HW1  146   2.581   0.285   2.943 -2.6674 -1.6187 -2.4599
   49SOL    HW2  147   2.671   0.230   2.812  0.7140  2.0516 -2.3473
   50SOL     OW  148   1.696   0.935   0.442 -0.2664 -0.2816 -0.3132
   50SOL    HW1  149   1.730   0.873   0.518 -0.2272 -2.7476  4.8711
   50SOL    HW2  150   1.618   0.885   0.398  1.6603  0.2826 -3.5171
   51SOL     OW  151   2.309   0.011   0.775  0.2221 -0.1553  0.0112
   51SOL    HW1  152   2.378   3.085   0.704  1.7247 -0.7821 -1.7326
   51SOL    HW2  153   2.230   3.046   0.775 -0.5655 -0.7589  0.1359
   52SOL     OW  154   1.010   1.666   0.106  0.1919  0.0278  0.0248
   52SOL    HW1  155   1.027   1.630   0.014  0.0801 -0.4633  1.4525
   52SOL    HW2  156   0.912   1.660   0.129 -2.7083  1.8283 -1.5612
   53SOL     OW  157   0.110   1.047   2.832 -0.0285  0.2244  0.1578
   53SOL    HW1  158   0.202   1.057   2.877  0.8501  0.1347 -0.5664
   53SOL    HW2  159   0.109   1.095   2.738  0.3168  1.0966 -2.3349
   54SOL     OW  160   2.178   1.883   2.685  0.2674  0.1473 -0.0413
   54SOL    HW1  161   2.216   1.870   2.593  0.3720  2.0297  0.4543
   54SOL    HW2  162   2.109   1.808   2.697 -3.8481 -0.0613 -0.4951
   55SOL     OW  163   2.304   2.196   1.358  0.1545  0.1633 -0.1361
   55SOL    HW1  164   2.401   2.165   1.367  0.1793  0.6923 -0.0751
   55SOL    HW2  165   2.251   2.128   1.301 -0.0627  0.0825 -0.7716
   56SOL     OW  166   1.885   3.040   1.096  0.2406 -0.2425 -0.4170
   56SOL    HW1  167   1.927   2.945   1.110 -2.9539 -3.7066  0.3478
   56SOL    HW2  168   1.787   3.032   1.069 -0.7539  1.2094  1.0425
   57SOL     OW  169   1.586   1.328   0.621 -0.0942 -0.0653  0.0793
   57SOL    HW1  170   1.603   1.426   0.643  0.9533  1.4362 -0.2890
   57SOL    HW2  171   1.670   1.278   0.590 -0.7893 -2.0817 -0.0686
   58SOL     OW  172   2.402   3.080   1.447  0.3855 -0.0308 -0.4024
   58SOL    HW1  173   2.468   0.051   1.409  0.2290  1.9891 -0.2066
   58SOL    HW2  174   2.337   0.012   1.515  0.5706 -0.6811 -1.2374
   59SOL     OW  175   0.968   2.803   2.537 -0.4716 -0.4887 -0.1651
   59SOL    HW1  176   1.071   2.785   2.533  0.1144  0.4710 -1.3877
   59SOL    HW2  177   0.929   2.780   2.447  0.8623 -0.8365 -0.0850
   60SOL     OW  178   0.168   0.092   2.580 -0.3412  0.2868  0.4731
   60SOL    HW1  179   0.086   0.049   2.534  0.3643 -1.1842 -2.2926
   60SOL    HW2  180   0.158   0.191   2.596 -1.9375  0.7216  1.9891
   61SOL     OW  181   0.953   2.277   0.943  0.1607 -0.0586 -0.1085
   61SOL    HW1  182   1.014   2.199   0.919  1.0796  0.3367  1.1941
   61SOL    HW2  183   0.853   2.248   0.954 -1.2663 -2.7292  1.2591
   62SOL     OW  184   0.969   2.219   2.047 -0.1212  0.0240  0.1656
   62SOL    HW1  185   0.966   2.273   2.134 -1.1407 -2.6982  0.0200
   62SOL    HW2  186   1.050   2.155   2.046  2.3417  3.3151  0.0747
   63SOL     OW  187   1.559   1.806   0.628 -0.3020  0.5593 -0.7817
   63SOL    HW1  188   1.598   1.871   0.558 -2.8353  2.4172 -0.0243
   63SOL    HW2  189   1.519   1.725   0.583  1.0183  0.7708 -0.9321
   64SOL     OW  190   1.743   1.457   0.393  0.0401  0.0998  0.3484
   64SOL    HW1  191   1.737   1.469   0.289  2.8955  1.3138 -3.4461
   64SOL    HW2  192   1.736   1.356   0.406  1.6695 -1.9315  0.2150
   65SOL     OW  193   1.561   2.097   2.360 -0.2485 -0.0297  0.8563
   65SOL    HW1  194   1.532   2.006   2.322 -2.1659  0.2390  0.9214
   65SOL    HW2  195   1.632   2.089   2.434  0.6445 -2.3797  0.6199
   66SOL     OW  196   0.471   0.877   1.231 -0.6960  0.0904  0.0735
   66SOL    HW1  197   0.386   0.831   1.258  1.8152  0.2264 -1.3111
   66SOL    HW2  198   0.486   0.869   1.127  2.4510  0.3378 -0.4776
   67SOL     OW  199   2.272   2.528   0.393 -0.5530 -0.6959 -0.0471
   67SOL    HW1  200   2.216   2.573   0.462  1.7869  1.3880 -3.8756
   67SOL    HW2  201   2.346   2.472   0.435 -0.4896  0.2495  0.5533
   68SOL     OW  202   2.117   2.321   1.507  0.4375  0.1509 -0.5824
   68SOL    HW1  203   2.182   2.267   1.450  4.3342 -1.0097  3.8137
   68SOL    HW2  204   2.091   2.273   1.590  0.0314 -1.4836  3.5013
   69SOL     OW  205   2.456   2.198   2.700 -0.1392 -0.0256  0.1711
   69SOL    HW1  206   2.504   2.129   2.644  3.0607  1.5924  1.3945
   69SOL    HW2  207   2.355   2.194   2.680 -0.0968  0.0520 -2.5892
   70SOL     OW  208   0.238   1.237   2.583  0.1360  0.6844 -0.3837
   70SOL    HW1  209   0.148   1.282   2.591  2.5204  1.2326  0.1119
   70SOL    HW2  210   0.232   1.173   2.505 -3.4002  1.1267 -0.7089
   71SOL     OW  211   0.669   0.983   2.278 -0.0567 -0.0507 -0.3863
   71SOL    HW1  212   0.753   0.925   2.260 -1.1314 -1.3019 -0.5117
   71SOL    HW2  213   0.598   0.976   2.202 -0.4571  0.7720 -1.9112
   72SOL     OW  214   2.274   1.505   1.806  0.0186  0.3084 -0.6765
   72SOL    HW1  215   2.176   1.479   1.779 -0.5086 -0.2422 -0.9542
   72SOL    HW2  216   2.332   1.425   1.781 -0.5235  0.0779 -0.3295
   73SOL     OW  217   0.857   1.835   2.838 -0.1264  0.4768  0.8451
   73SOL    HW1  218   0.805   1.785   2.767 -0.4892  1.8536  1.2257
   73SOL    HW2  219   0.889   1.765   2.906  1.8114 -1.6748 -0.3222
   74SOL     OW  220   1.798   2.861   2.170 -0.1012  0.5741  0.6051
   74SOL    HW1  221   1.867   2.850   2.095  0.2531  2.1111  1.9463
   74SOL    HW2  222   1.769   2.960   2.178  1.5569 -0.3838  1.0212
   75SOL     OW  223   1.334   2.694   0.560  0.2243 -0.2851  0.4637
   75SOL    HW1  224   1.359   2.633   0.482  0.7687 -1.2868  0.8399
   75SOL    HW2  225   1.278   2.774   0.521 -1.0548 -0.3915  3.0894
   76SOL     OW  226   3.023   2.066   2.701 -0.4742  0.0176 -0.3387
   76SOL    HW1  227   3.094   2.005   2.739 -1.6697 -0.3410  0.5156
   76SOL    HW2  228   3.065   2.149   2.659  0.2749  1.4072  1.2216
   77SOL     OW  229   0.036   2.344   1.209 -0.6855  0.3453 -0.0786
   77SOL    HW1  230   0.125   2.315   1.163  2.9959 -0.3413  1.6672
   77SOL    HW2  231   0.056   2.386   1.300  2.1396  0.6221  0.1875
   78SOL     OW  232   2.528   1.058   0.100 -0.3470 -0.5937 -0.5779
   78SOL    HW1  233   2.530   1.160   0.114 -1.1161 -0.8389 -1.1618
   78SOL    HW2  234   2.561   1.026   0.008  0.9783  0.6054  2.1806
   79SOL     OW  235   0.102   1.875   2.799 -0.0046 -0.0489  0.1212
   79SOL    HW1  236   0.129   1.778   2.782  0.6008 -0.0888  0.4727
   79SOL    HW2  237   0.059   1.881   2.892  1.9849 -3.1875  1.2292
   80SOL     OW  238   1.635   1.506   1.640  0.2615  0.4483  0.3317
   80SOL    HW1  239   1.712   1.528   1.704  1.6137 -1.1873 -0.1848
   80SOL    HW2  240   1.580   1.588   1.619 -2.0878 -0.6900  0.0123
   81SOL     OW  241   2.085   1.122   2.179 -0.2706 -0.4761  0.2837
   81SOL    HW1  242   1.978   1.111   2.181 -3.5934 -0.2498 -0.9456
   81SOL    HW2  243   2.103   1.222   2.178  0.9669 -1.8995  0.1723
   82SOL     OW  244   1.552   1.230   1.630  0.1251 -0.3003 -0.2941
   82SOL    HW1  245   1.594   1.327   1.630 -1.4222  0.7886 -0.6568
   82SOL    HW2  246   1.506   1.212   1.718 -0.9908  0.3028 -0.5034
   83SOL     OW  247   3.066   0.339   3.023  0.7969 -0.0547  0.3061
   83SOL    HW1  248   3.051   0.273   0.000 -1.5607 -1.3683 -0.4608
   83SOL    HW2  249   3.023   0.293   2.944  2.5203 -0.3420  1.6917
   84SOL     OW  250   0.142   1.318   0.028  0.3933  0.1063 -0.6668
   84SOL    HW1  251   0.088   1.233   0.011 -3.1816 -0.9691 -0.9871
   84SOL    HW2  252   0.121   1.349   0.122  0.0166  1.9381 -2.0553
   85SOL     OW  253   2.209   1.688   2.008  1.0451  0.2642 -0.1981
   85SOL    HW1  254   2.258   1.621   1.950  1.4511 -1.3012  0.9377
   85SOL    HW2  255   2.231   1.678   2.109 -0.6062 -1.6082  3.1985
   86SOL     OW  256   0.563   0.848   0.979 -0.4399 -0.2596 -0.1899
   86SOL    HW1  257   0.593   0.944   0.991 -0.9211 -0.0913 -1.0736
   86SOL    HW2  258   0.546   0.838   0.879  1.9867 -2.7440 -1.2476
   87SOL     OW  259   2.826   1.971   2.091 -0.3208  0.0189  1.0620
   87SOL    HW1  260   2.771   2.028   2.025 -0.0405  0.0589 -0.7729
   87SOL    HW2  261   2.847   2.037   2.172  2.6200  2.0960  2.1807
   88SOL     OW  262   0.201   2.436   0.230  0.6662  0.1335  0.0877
   88SOL    HW1  263   0.227   2.523   0.275  0.9588 -0.8883 -1.9374
   88SOL    HW2  264   0.230   2.358   0.284 -1.1941 -0.3689  0.9829
   89SOL     OW  265   1.601   0.540   0.298  0.3488  0.1874  0.2950
   89SOL    HW1  266   1.525   0.522   0.229 -0.7376  0.0928 -2.2502
   89SOL    HW2  267   1.685   0.570   0.245 -1.5750  0.4876  1.4116
   90SOL     OW  268   2.946   1.596   2.522  0.1647 -0.9330 -0.2587
   90SOL    HW1  269   2.903   1.578   2.617  0.2085 -0.7773 -0.3288
   90SOL    HW2  270   2.936   1.690   2.492  2.0381 -1.4389  0.6378
   91SOL     OW  271   2.295   2.983   1.221 -0.0932  0.4127 -0.4109
   91SOL    HW1  272   2.331   3.011   1.312  0.4823 -1.7276  0.4320
   91SOL    HW2  273   2.226   3.051   1.192  2.3412 -1.2097  4.1969
   92SOL     OW  274   2.257   1.404   1.110 -0.2660  0.2504 -0.1943
   92SOL    HW1  275   2.223   1.492   1.147 -2.4811  2.3524  0.6482
   92SOL    HW2  276   2.182   1.369   1.049  0.1312  1.8699  1.5774
   93SOL     OW  277   0.041   1.397   0.274 -0.0486  1.0693 -0.4835
   93SOL    HW1  278   3.088   1.417   0.358 -1.1700  1.4664 -2.9551
   93SOL    HW2  279   0.102   1.480   0.263 -1.7481  0.9280 -0.2641
   94SOL     OW  280   1.165   2.586   1.828  0.0839 -0.2153 -0.4783
   94SOL    HW1  281   1.140   2.646   1.747  2.1366  5.4667  0.1640
   94SOL    HW2  282   1.265   2.571   1.844 -1.1551 -1.5926  0.4590
   95SOL     OW  283   0.276   0.670   0.824  0.8418  0.3583 -0.7308
   95SOL    HW1  284   0.349   0.724   0.775  0.8382 -1.5802 -3.5681
   95SOL    HW2  285   0.237   0.723   0.903 -1.0614 -0.0679  2.4848
   96SOL     OW  286   3.061   2.769   1.786  0.1561  0.1248  0.0174
   96SOL    HW1  287   3.088   2.865   1.771 -2.1672 -1.0842 -1.3905
   96SOL    HW2  288   0.047   2.716   1.788 -2.3578 -0.5515 -0.6197
   97SOL     OW  289   2.421   0.466   1.265 -0.2613 -0.4586  1.0034
   97SOL    HW1  290   2.502   0.525   1.277 -0.1643 -0.4348  1.8595
   97SOL    HW2  291   2.416   0.406   1.178 -1.9226 -1.9510 -1.9708
   98SOL     OW  292   2.770   2.277   1.420 -0.1787 -0.5667 -0.1638
   98SOL    HW1  293   2.717   2.349   1.367 -2.1694 -2.5927  0.9633
   98SOL    HW2  294   2.836   2.230   1.354  3.9699 -1.6690 -1.8481
   99SOL     OW  295   0.242   0.124   1.577  0.2349  0.4127 -0.4041
   99SOL    HW1  296   0.163   0.115   1.513  0.7233  2.4109 -1.7573
   99SOL    HW2  297   0.234   0.219   1.616 -2.6257 -0.0856 -1.2216
  100SOL     OW  298   2.241   0.308   2.589  0.6301 -0.1273  0.5888
  100SOL    HW1  299   2.140   0.330   2.571 -1.5621  1.7816  2.8475
  100SOL    HW2  300   2.254   0.221   2.639 -1.9101  0.8581 -0.1132
  101SOL     OW  301   0.324   0.297   2.260  0.2194 -0.1278 -0.2639
  101SOL    HW1  302   0.413   0.334   2.286  1.3319  2.0202 -2.2710
  101SOL    HW2  303   0.296   0.203   2.294  4.4456 -0.5372  0.1095
  102SOL     OW  304   0.630   0.287   1.712 -0.1257  0.3184 -0.4678
  102SOL    HW1  305   0.636   0.279   1.610 -2.8223 -2.2638 -1.0922
  102SOL    HW2  306   0.712   0.328   1.756 -0.3154  0.7714 -1.3130
  103SOL     OW  307   1.096   0.804   2.453  0.2259  0.4848 -0.5035
  103SOL    HW1  308   1.156   0.891   2.448  1.2835  0.0310 -4.1773
  103SOL    HW2  309   1.153   0.724   2.424  1.4526  1.0459  2.1111
  104SOL     OW  310   0.077   0.606   1.908 -0.6771 -0.2211  0.3304
  104SOL    HW1  311   0.041   0.677   1.841  1.9938 -0.3215 -0.6128
  104SOL    HW2  312   0.133   0.649   1.986  0.4815  0.1265  0.9341
  105SOL     OW  313   2.200   1.789   1.685  0.1007 -0.2758 -1.0085
  105SOL    HW1  314   2.195   1.876   1.745  3.7728  1.3251  0.3182
  105SOL    HW2  315   2.237   1.709   1.740  0.4962 -1.1704 -0.9770
  106SOL     OW  316   1.720   0.136   0.584 -0.0981 -0.0108  0.1611
  106SOL    HW1  317   1.705   0.161   0.682 -0.0217 -0.6970  1.5691
  106SOL    HW2  318   1.675   0.212   0.530 -0.9320  1.0531 -0.1191
  107SOL     OW  319   2.198   2.000   1.211  0.4000  0.4725  0.4308
  107SOL    HW1  320   2.108   2.029   1.170  1.3865  1.0829  0.3494
  107SOL    HW2  321   2.254   1.958   1.141 -2.9540  0.3815  2.2159
  108SOL     OW  322   0.282   2.264   1.114 -0.2279  0.4134  0.1306
  108SOL    HW1  323   0.325   2.318   1.039  2.5217  2.4926  1.6625
  108SOL    HW2  324   0.363   2.235   1.170  1.0835  2.8324 -0.2482
  109SOL     OW  325   1.585   2.478   1.063  0.3274  0.2724 -0.1429
  109SOL    HW1  326   1.522   2.538   1.013  3.1100  2.0194 -0.4104
  109SOL    HW2  327   1.620   2.525   1.143  0.9040 -4.4187 -2.2799
  110SOL     OW  328   1.786   1.724   1.185  0.6577 -0.7933  0.1828
  110SOL    HW1  329   1.869   1.750   1.232 -2.4063 -0.6073 -4.1172
  110SOL    HW2  330   1.794   1.625   1.151 -0.8329 -0.3988  1.6754
  111SOL     OW  331   1.439   2.226   1.915 -0.2175 -0.0262  0.2987
  111SOL    HW1  332   1.518   2.197   1.858 -0.1897 -1.4690 -0.4026
  111SOL    HW2  333   1.469   2.291   1.985 -3.7421 -0.0680 -0.8772
  112SOL     OW  334   2.155   2.222   3.090 -0.0109 -0.2891 -0.1614
  112SOL    HW1  335   2.107   2.142   0.031 -1.1234  0.1323  0.6912
  112SOL    HW2  336   2.236   2.182   3.042 -2.3608 -1.3858 -0.8089
  113SOL     OW  337   1.983   1.791   1.882 -0.3864  0.0381 -0.1283
  113SOL    HW1  338   1.947   1.864   1.946 -0.3752  0.2718 -1.1973
  113SOL    HW2  339   2.064   1.744   1.919  0.6181  2.7139  0.7893
  114SOL     OW  340   3.098   1.250   1.836  0.2934 -0.1470  0.7168
  114SOL    HW1  341   3.045   1.339   1.832 -0.6443 -1.4306 -0.7937
  114SOL    HW2  342   3.050   1.174   1.789 -1.8845 -1.6861 -0.1513
  115SOL     OW  343   2.984   0.953   0.182 -0.0212  0.2467  0.3461
  115SOL    HW1  344   2.951   0.990   0.269 -1.4062  1.1188  1.0001
  115SOL    HW2  345   3.084   0.929   0.192 -0.0775 -0.0165  1.8221
  116SOL     OW  346   2.529   0.939   2.937  0.0779  0.2461  0.0168
  116SOL    HW1  347   2.427   0.927   2.911 -2.5858 -1.7164  2.1805
  116SOL    HW2  348   2.592   0.867   2.905 -2.5498  0.8803  1.5743
  117SOL     OW  349   2.705   2.324   3.069  0.3509  0.1997 -0.5890
  117SOL    HW1  350   2.781   2.397   3.071  3.3827 -0.3845  0.4222
  117SOL    HW2  351   2.648   2.338   2.988 -0.3894  0.1840 -0.8531
  118SOL     OW  352   0.449   2.397   2.807  0.5103 -0.0846  0.2201
  118SOL    HW1  353   0.468   2.316   2.869  1.3850 -0.3401  0.8880
  118SOL    HW2  354   0.374   2.451   2.851  2.1420  3.4546 -0.9717
  119SOL     OW  355   0.582   2.786   0.293 -0.6206 -0.0934  0.1413
  119SOL    HW1  356   0.526   2.763   0.370  1.6719  1.0671  0.5790
  119SOL    HW2  357   0.523   2.800   0.208  0.3375  0.3994 -1.7738
  120SOL     OW  358   1.238   0.783   0.225  0.2951 -0.6735 -0.1845
  120SOL    HW1  359   1.141   0.764   0.250 -1.7481 -0.5074 -0.7371
  120SOL    HW2  360   1.260   0.881   0.240 -0.8905 -0.3947 -0.6121
  121SOL     OW  361   1.567   2.753   0.704  0.1268 -0.1389 -0.7465
  121SOL    HW1  362   1.507   2.720   0.627  0.9859  1.4791 -2.1207
  121SOL    HW2  363   1.665   2.732   0.691  0.5656  0.4299  2.0552
  122SOL     OW  364   2.584   1.639   2.404  0.4862 -0.7747 -0.1618
  122SOL    HW1  365   2.662   1.705   2.387  0.7999  0.1313 -0.4145
  122SOL    HW2  366   2.616   1.543   2.397  1.6916  1.2782  1.9862
  123SOL     OW  367   1.280   1.202   1.191  0.3407  0.1086 -0.6840
  123SOL    HW1  368   1.241   1.191   1.285 -1.3828  1.5710 -1.0688
  123SOL    HW2  369   1.226   1.152   1.121  2.8791  1.8012 -1.6270
  124SOL     OW  370   0.557   0.608   3.094 -0.0398  0.1618 -0.1802
  124SOL    HW1  371   0.515   0.514   3.077 -1.0265  0.4473 -0.1629
  124SOL    HW2  372   0.556   0.653   3.002 -0.3681  1.8635  0.9512
  125SOL     OW  373   0.666   0.188   0.400 -0.3859  0.1794  0.4076
  125SOL    HW1  374   0.647   0.087   0.394 -0.2940 -1.7477 -1.3416
  125SOL    HW2  375   0.578   0.241   0.403  0.8816  1.4416  3.4279
  126SOL     OW  376   0.238   1.851   0.478  0.1003  0.7494  0.6537
  126SOL    HW1  377   0.320   1.912   0.472 -0.2256  1.6793 -0.5286
  126SOL    HW2  378   0.244   1.810   0.574  1.5360  1.0714  1.0082
  127SOL     OW  379   0.918   2.734   1.687  0.3036  0.4312 -0.5603
  127SOL    HW1  380   0.821   2.707   1.667  0.5476  0.0440 -0.2275
  127SOL    HW2  381   0.919   2.831   1.717 -2.3529 -0.1517  0.3380
  128SOL     OW  382   1.375   1.654   0.230  0.1114  0.6956  0.2593
  128SOL    HW1  383   1.293   1.596   0.242 -1.8112 -0.8167  0.1633
  128SOL    HW2  384   1.413   1.630   0.136  0.2983 -0.2546 -0.1435
  129SOL     OW  385   1.686   1.693   1.981  0.2753  0.4145 -0.0099
  129SOL    HW1  386   1.590   1.694   1.943  0.7141 -0.1161 -1.4022
  129SOL    HW2  387   1.734   1.619   1.930  1.3789  0.7712 -1.3652
  130SOL     OW  388   1.650   2.195   1.698  0.1375 -0.0477  0.2611
  130SOL    HW1  389   1.651   2.103   1.660 -0.5985  0.0234 -1.0648
  130SOL    HW2  390   1.645   2.262   1.619  0.2833 -0.2478 -1.9798
  131SOL     OW  391   0.051   2.265   2.028 -0.5543  0.0703  0.2601
  131SOL    HW1  392   0.067   2.184   1.972 -0.0946 -0.8978  1.6155
  131SOL    HW2  393   0.017   2.344   1.977 -1.2318 -2.4994 -0.2267
  132SOL     OW  394   2.990   1.618   0.977 -0.0736  0.0489 -0.3679
  132SOL    HW1  395   3.050   1.702   0.987  0.4697  0.8353 -1.8015
  132SOL    HW2  396   2.912   1.615   1.049 -0.6951  2.2585  3.6828
  133SOL     OW  397   0.509   0.598   1.621  0.1987 -0.0722 -0.5427
  133SOL    HW1  398   0.574   0.630   1.553 -2.9321 -1.3328  1.7588
  133SOL    HW2  399   0.554   0.594   1.710 -2.1062 -1.2717 -1.0552
  134SOL     OW  400   2.526   1.633   0.223  0.2194 -0.0093  0.5923
  134SOL    HW1  401   2.441   1.681   0.258  0.5864  4.8677  2.4574
  134SOL    HW2  402   2.530   1.646   0.119  0.0299  1.3389 -2.3270
  135SOL     OW  403   1.854   1.004   2.638 -0.5329 -0.0283  0.3667
  135SOL    HW1  404   1.802   0.912   2.643 -1.4965  0.7904 -1.5006
  135SOL    HW2  405   1.790   1.078   2.615 -1.0427 -0.5999  2.2054
  136SOL     OW  406   2.679   1.819   1.568 -0.1044  0.0719  0.8494
  136SOL    HW1  407   2.762   1.759   1.593  1.6820 -1.0491  0.5660
  136SOL    HW2  408   2.617   1.784   1.495  0.1115  0.2079  1.3156
  137SOL     OW  409   2.349   1.790   0.567  0.0583  0.1532  0.2551
  137SOL    HW1  410   2.360   1.723   0.640  0.1527 -1.2903 -1.1783
  137SOL    HW2  411   2.416   1.866   0.579  1.6174 -0.2228  1.9900
  138SOL     OW  412   3.011   0.869   0.806 -0.3155 -0.1849  0.4067
  138SOL    HW1  413   2.938   0.801   0.802  0.3137 -0.2499 -1.0450
  138SOL    HW2  414   2.985   0.961   0.842  3.1422  3.0714  0.8801
  139SOL     OW  415   3.057   2.988   0.213  0.1230 -0.1379  0.0719
  139SOL    HW1  416   2.988   2.915   0.222  1.8175 -1.1443 -2.3932
  139SOL    HW2  417   3.088   3.033   0.298  1.7330  1.6121 -0.7573
  140SOL     OW  418   0.861   1.039   1.529  0.3043  0.0112  0.0369
  140SOL    HW1  419   0.832   1.090   1.609  1.6314 -1.4583 -1.1149
  140SOL    HW2  420   0.781   0.987   1.492 -3.1885  0.2994 -2.6397
  141SOL     OW  421   1.243   1.379   0.944  0.3984 -0.2350  0.4964
  141SOL    HW1  422   1.241   1.397   1.041 -0.5805  1.0313 -0.5748
  141SOL    HW2  423   1.241   1.469   0.897 -1.0565 -2.5388 -0.7543
  142SOL     OW  424   1.159   0.341   1.236 -0.0669 -0.0807 -0.0566
  142SOL    HW1  425   1.216   0.269   1.285 -0.4784  1.5381 -2.3149
  142SOL    HW2  426   1.139   0.422   1.293 -1.4109  1.6682 -1.7009
  143SOL     OW  427   0.316   1.088   2.368 -0.2604 -0.0495 -0.0771
  143SOL    HW1  428   0.393   1.058   2.428 -1.8820  0.1463  0.9741
  143SOL    HW2  429   0.351   1.150   2.299 -1.4238  0.1029  2.9214
  144SOL     OW  430   2.527   3.034   0.588  0.3144 -0.1714  0.3881
  144SOL    HW1  431   2.582   2.952   0.612 -1.4840  1.7973  0.7567
  144SOL    HW2  432   2.586   0.011   0.563 -2.1931  1.2893 -1.3362
  145SOL     OW  433   2.250   0.118   2.786  0.1601 -0.6430 -0.4017
  145SOL    HW1  434   2.318   0.068   2.840 -0.1273  3.4087 -1.7957
  145SOL    HW2  435   2.191   0.184   2.839  0.4379  0.7649 -3.3573
  146SOL     OW  436   2.921   3.041   0.615 -0.1940  0.5559 -0.0452
  146SOL    HW1  437   2.907   2.947   0.577  2.1249  1.3992 -1.3955
  146SOL    HW2  438   2.930   3.053   0.716  0.6343  0.3051 -0.7205
  147SOL     OW  439   0.908   1.064   2.616  0.3328 -0.0333 -0.4722
  147SOL    HW1  440   0.838   1.130   2.571 -3.4222 -0.2527 -1.1103
  147SOL    HW2  441   0.936   0.991   2.553  0.3337  3.0378 -0.4585
  148SOL     OW  442   1.408   0.053   3.077  0.1952  0.1632  0.1412
  148SOL    HW1  443   1.407   0.018   0.070 -0.2017  1.2480  1.6408
  148SOL    HW2  444   1.396   0.154   3.082  1.1629 -1.4772  1.3494
  149SOL     OW  445   1.460   0.139   2.082 -0.2935 -0.0726 -0.0915
  149SOL    HW1  446   1.384   0.126   2.148  1.5662 -2.4533  2.4780
  149SOL    HW2  447   1.498   0.234   2.082 -0.4360 -4.2059 -3.4240
  150SOL     OW  448   2.129   2.815   2.939  0.1688 -0.0881 -0.2511
  150SOL    HW1  449   2.212   2.762   2.926 -2.7406 -0.5847  0.2300
  150SOL    HW2  450   2.064   2.763   2.999  1.5707  0.3786 -1.7621
  151SOL     OW  451   0.608   1.638   3.057  0.3240  0.4024  0.4665
  151SOL    HW1  452   0.532   1.679   3.006  2.8273  1.0902 -1.8445
  151SOL    HW2  453   0.599   1.541   3.081  1.8244 -1.5610  1.1223
  152SOL     OW  454   0.440   2.998   1.112 -0.2842  0.1978 -0.0844
  152SOL    HW1  455   0.352   3.003   1.154  2.0505 -0.7759 -0.4557
  152SOL    HW2  456   0.513   2.993   1.182  1.1276 -1.7817 -3.7378
  153SOL     OW  457   2.535   2.690   1.841 -0.4604  0.0160 -0.2034
  153SOL    HW1  458   2.618   2.746   1.829  2.4969 -0.0136 -1.7772
  153SOL    HW2  459   2.466   2.729   1.905  0.6933  0.9838  2.1303
  154SOL     OW  460   2.383   2.844   2.586 -0.0065  0.0611 -0.5469
  154SOL    HW1  461   2.461   2.855   2.648 -0.5065 -1.4335 -2.2447
  154SOL    HW2  462   2.409   2.777   2.513  1.3080 -1.8266 -0.0924
  155SOL     OW  463   0.389   1.309   0.682 -0.3534 -0.2258  0.2313
  155SOL    HW1  464   0.294   1.342   0.685  1.4975 -1.8727 -1.3166
  155SOL    HW2  465   0.437   1.347   0.762 -2.0204 -1.5819 -1.0366
  156SOL     OW  466   2.887   1.599   0.694 -0.2825  0.3239  0.0022
  156SOL    HW1  467   2.945   1.601   0.780  1.9763  0.5490  1.0443
  156SOL    HW2  468   2.853   1.691   0.665 -0.8691  0.5267 -5.8531
  157SOL     OW  469   1.017   0.450   0.458  0.2876  0.2627  0.4681
  157SOL    HW1  470   0.993   0.483   0.550  1.5410 -2.1415 -1.4891
  157SOL    HW2  471   1.112   0.444   0.437 -2.2705 -0.2803 -1.8654
  158SOL     OW  472   1.713   1.077   1.125 -0.0592 -0.3439 -0.0337
  158SOL    HW1  473   1.679   1.000   1.065  0.6633 -2.2408  1.5743
  158SOL    HW2  474   1.644   1.150   1.138  1.6753 -0.4954 -0.8781
  159SOL     OW  475   0.017   0.647   0.199  0.3530 -0.5634  0.1937
  159SOL    HW1  476   0.077   0.728   0.217  0.5671 -2.4639 -3.0014
  159SOL    HW2  477   0.071   0.570   0.158  1.2175  0.1543 -0.7609
  160SOL     OW  478   2.190   2.018   1.901  0.4925 -0.4303 -0.4538
  160SOL    HW1  479   2.142   1.982   1.984  1.7984 -0.5000  0.5604
  160SOL    HW2  480   2.253   2.094   1.927  1.4659  0.9036  0.6975
  161SOL     OW  481   0.340   0.978   2.985  0.2083  0.1541 -0.4659
  161SOL    HW1  482   0.415   0.960   2.922  0.0594  0.7518  2.5216
  161SOL    HW2  483   0.336   0.906   3.058 -1.5381  5.4959 -3.5975
  162SOL     OW  484   0.659   0.357   2.071 -0.0650  0.0962  0.1633
  162SOL    HW1  485   0.737   0.295   2.060 -1.6071 -0.3349  0.5947
  162SOL    HW2  486   0.588   0.337   2.000  1.1440 -1.0578 -0.0803
  163SOL     OW  487   2.796   3.072   2.632 -0.1906 -0.4312 -0.3653
  163SOL    HW1  488   2.709   0.020   2.647 -1.6117  1.3891 -1.8684
  163SOL    HW2  489   2.833   3.094   2.542 -0.0296  1.0069  0.7702
  164SOL     OW  490   2.150   2.101   0.338  0.5501 -0.1566 -0.4780
  164SOL    HW1  491   2.118   2.084   0.244  0.2152  0.3565 -3.0086
  164SOL    HW2  492   2.235   2.157   0.334 -2.1833  1.7274 -2.2795
  165SOL     OW  493   0.478   0.189   1.148  0.2126 -0.2594 -0.5066
  165SOL    HW1  494   0.509   0.204   1.053 -0.3655  0.3151 -0.7466
  165SOL    HW2  495   0.466   0.090   1.171  1.3748 -0.3616  0.4170
  166SOL     OW  496   2.418   0.604   0.216 -0.1302  0.1219  0.2234
  166SOL    HW1  497   2.502   0.560   0.175 -1.3864  1.6948 -0.6877
  166SOL    HW2  498   2.389   0.541   0.294  1.1660 -3.2928 -1.6963
  167SOL     OW  499   2.263   0.968   0.176  0.1173 -0.1237 -0.0454
  167SOL    HW1  500   2.353   0.981   0.134 -0.0135 -1.4670 -2.2494
  167SOL    HW2  501   2.233   0.875   0.151  0.3824 -0.1279 -0.4305
  168SOL     OW  502   1.459   2.853   2.349 -0.2446  0.4554  0.0167
  168SOL    HW1  503   1.394   2.789   2.400  0.6466  2.6725  0.1733
  168SOL    HW2  504   1.556   2.844   2.372  0.4656 -0.5601  0.4675
  169SOL     OW  505   0.729   2.023   0.621 -0.3728 -0.0577 -0.1206
  169SOL    HW1  506   0.775   2.076   0.550  0.6121 -0.3121  1.8844
  169SOL    HW2  507   0.785   2.016   0.707  1.8167 -0.3793  1.3322
  170SOL     OW  508   0.018   0.806   1.370  0.2267  0.0406 -0.6262
  170SOL    HW1  509   3.091   0.895   1.400  2.5505 -0.1877  0.8642
  170SOL    HW2  510   3.069   0.773   1.285  0.7162 -0.0238 -0.5149
  171SOL     OW  511   2.672   1.398   2.373  0.0489  0.1360 -0.6015
  171SOL    HW1  512   2.697   1.385   2.472  0.0062  1.6845 -0.4620
  171SOL    HW2  513   2.741   1.365   2.306 -0.5300 -0.2335 -1.8455
  172SOL     OW  514   0.984   1.884   1.199 -0.2302 -0.1116 -0.3486
  172SOL    HW1  515   1.029   1.936   1.273 -1.6251 -1.8142  0.1999
  172SOL    HW2  516   1.043   1.812   1.160 -1.2759  0.4215 -0.6272
  173SOL     OW  517   2.009   2.015   0.094 -0.1621 -0.1770 -0.0752
  173SOL    HW1  518   1.910   2.007   0.066  2.0841 -1.2272 -1.6872
  173SOL    HW2  519   2.056   1.921   0.099 -1.3638 -3.6866 -2.5855
  174SOL     OW  520   1.759   0.700   2.619  0.0320  0.3387  0.0671
  174SOL    HW1  521   1.847   0.695   2.566 -1.2984  1.3691  1.2176
  174SOL    HW2  522   1.737   0.610   2.666  0.6308 -0.7551  0.2133
  175SOL     OW  523   0.966   1.514   1.222 -0.1181 -0.1444  0.1059
  175SOL    HW1  524   0.962   1.422   1.183 -0.2449 -1.3901 -0.8303
  175SOL    HW2  525   1.059   1.561   1.202 -1.1912 -0.8940 -1.1847
  176SOL     OW  526   1.135   0.135   0.150  0.4703  0.4216 -0.1686
  176SOL    HW1  527   1.061   0.165   0.217 -2.2953  0.9397  0.4637
  176SOL    HW2  528   1.138   0.200   0.075 -0.7181 -0.4419  1.9717
  177SOL     OW  529   0.222   1.634   0.269  0.0897  0.3512  0.0764
  177SOL    HW1  530   0.218   1.699   0.347  0.7898 -0.8629 -0.5941
  177SOL    HW2  531   0.315   1.595   0.263 -4.1546  2.7514 -0.6070
  178SOL     OW  532   3.029   2.523   2.464  0.1434  0.0547 -0.1101
  178SOL    HW1  533   3.051   2.576   2.547 -1.4524 -0.9977 -3.1133
  178SOL    HW2  534   0.019   2.498   2.424  0.3141  0.3098 -1.6721
  179SOL     OW  535   2.642   2.790   2.669 -0.1517 -0.0750 -0.1278
  179SOL    HW1  536   2.663   2.786   2.567 -0.8568 -0.1851  1.4319
  179SOL    HW2  537   2.696   2.866   2.703 -0.9044  0.1369 -2.3081
  180SOL     OW  538   2.384   0.485   0.906 -0.0837  0.3971  0.6206
  180SOL    HW1  539   2.316   0.554   0.941 -0.0375  3.9050  0.6364
  180SOL    HW2  540   2.461   0.526   0.853  1.1108  0.7128  1.2231
  181SOL     OW  541   2.520   0.412   2.584 -0.2711  0.2198  0.3332
  181SOL    HW1  542   2.587   0.351   2.632  1.1856  0.0185 -1.2828
  181SOL    HW2  543   2.429   0.368   2.591 -0.5383 -0.3179 -2.0848
  182SOL     OW  544   2.382   2.338   2.346  0.2434  0.5578  0.2150
  182SOL    HW1  545   2.299   2.322   2.403 -0.3676 -1.7669  1.0787
  182SOL    HW2  546   2.360   2.380   2.253  0.7411  0.5131 -4.8378
  183SOL     OW  547   2.238   0.655   1.879 -0.5834 -0.0017 -0.3675
  183SOL    HW1  548   2.309   0.685   1.807 -0.0135  2.6973 -1.0497
  183SOL    HW2  549   2.171   0.733   1.880 -0.3339 -0.0162  0.5947
  184SOL     OW  550   0.447   1.743   0.917 -0.4417 -0.0243 -0.1230
  184SOL    HW1  551   0.441   1.679   0.997  4.2201  2.5917 -0.3860
  184SOL    HW2  552   0.369   1.728   0.852 -1.6106  1.8033  0.5505
  185SOL     OW  553   2.952   0.254   0.648  0.0901 -0.1095 -0.4797
  185SOL    HW1  554   3.041   0.263   0.598  1.6315 -0.4594  0.0168
  185SOL    HW2  555   2.883   0.194   0.603  3.7772  0.9609  3.3169
  186SOL     OW  556   2.285   2.515   2.605  0.1113  0.5207  0.0766
  186SOL    HW1  557   2.261   2.418   2.623  0.5340  0.6739  2.1189
  186SOL    HW2  558   2.228   2.563   2.539  1.2006  0.8309  0.0501
  187SOL     OW  559   0.700   1.656   0.837  0.0969  0.4096 -0.3098
  187SOL    HW1  560   0.616   1.711   0.858  2.0757  0.0294 -0.5916
  187SOL    HW2  561   0.768   1.709   0.789  1.1493 -1.0717  0.4451
  188SOL     OW  562   1.983   1.575   0.728  0.0090  0.1852  0.0815
  188SOL    HW1  563   2.010   1.582   0.631  1.3464 -1.5081 -1.8394
  188SOL    HW2  564   1.969   1.671   0.763  1.4640  1.5446 -1.7977
  189SOL     OW  565   2.855   1.578   2.797  0.4151  0.5535 -0.1775
  189SOL    HW1  566   2.945   1.547   2.826  0.6518 -1.8014 -0.3409
  189SOL    HW2  567   2.782   1.510   2.816 -0.3238  1.5637 -1.0695
  190SOL     OW  568   2.332   0.318   2.322 -0.1835 -0.1050  0.7940
  190SOL    HW1  569   2.312   0.298   2.423  3.0864 -0.9284  2.4820
  190SOL    HW2  570   2.243   0.340   2.279  1.4259 -0.9946 -3.4759
  191SOL     OW  571   1.140   0.376   2.292 -0.0178  0.4391 -0.2142
  191SOL    HW1  572   1.188   0.290   2.251  3.8834 -3.1290  1.4662
  191SOL    HW2  573   1.148   0.372   2.394  1.6979 -0.8986  0.3224
  192SOL     OW  574   1.032   1.590   1.715 -0.2539 -0.3076  0.1008
  192SOL    HW1  575   0.965   1.576   1.641  2.3156 -0.0497  0.8840
  192SOL    HW2  576   1.058   1.687   1.719  1.8997  2.9794 -2.6027
  193SOL     OW  577   1.232   2.890   0.900  0.2892  0.4000  0.5259
  193SOL    HW1  578   1.161   2.908   0.967  2.5924  1.1167 -2.4181
  193SOL    HW2  579   1.200   2.817   0.837 -1.4266 -0.5467  1.2317
  194SOL     OW  580   0.956   1.697   2.201 -0.0424 -0.2063 -0.1550
  194SOL    HW1  581   0.935   1.783   2.243  4.2976 -3.0268  0.7802
  194SOL    HW2  582   0.951   1.710   2.099  2.1412 -0.1803  1.3100
  195SOL     OW  583   2.280   0.535   0.465 -0.0766  0.0655 -0.0525
  195SOL    HW1  584   2.195   0.540   0.408  2.5453  0.1585 -0.1214
  195SOL    HW2  585   2.277   0.598   0.549  0.9428  1.0148  1.4946
  196SOL     OW  586   1.236   1.469   2.110 -0.5667  0.0134  0.5221
  196SOL    HW1  587   1.252   1.543   2.179 -0.6208 -0.8933  0.6491
  196SOL    HW2  588   1.137   1.458   2.099 -2.5037 -0.1787  2.1761
  197SOL     OW  589   0.006   0.352   1.854  0.1315  0.3895  0.4338
  197SOL    HW1  590   0.079   0.306   1.913  4.1366 -0.9968 -1.1966
  197SOL    HW2  591   0.034   0.450   1.857  0.5805 -1.2930  0.4498
  198SOL     OW  592   0.344   1.075   0.948 -0.2318  0.5888  0.3929
  198SOL    HW1  593   0.366   1.061   0.849 -2.9049  0.1949 -0.1125
  198SOL    HW2  594   0.262   1.137   0.952 -1.3048  1.0149 -1.5689
  199SOL     OW  595   0.351   2.406   0.888  0.4170 -0.3857 -0.0446
  199SOL    HW1  596   0.268   2.445   0.841 -2.0899 -0.3937  0.5795
  199SOL    HW2  597   0.415   2.474   0.933 -1.4711  3.0679 -0.1317
  200SOL     OW  598   1.727   1.648   2.763  0.6830  0.5759 -0.1049
  200SOL    HW1  599   1.794   1.724   2.765 -0.1901 -2.1750 -0.7593
  200SOL    HW2  600   1.757   1.549   2.785 -0.7757 -2.6577 -0.8091
  201SOL     OW  601   0.463   2.361   1.689 -0.0582  0.0365 -0.7867
  201SOL    HW1  602   0.501   2.391   1.596  1.6965  3.2179 -4.8333
  201SOL    HW2  603   0.421   2.267   1.683  0.1660 -1.7497  1.2151
  202SOL     OW  604   0.995   2.921   2.881  0.0041 -0.1491  0.3572
  202SOL    HW1  605   0.892   2.918   2.872 -2.6525 -2.0878  1.4770
  202SOL    HW2  606   1.038   3.003   2.838 -0.2529  0.3700 -0.9475
  203SOL     OW  607   1.513   0.380   2.183  0.3334 -0.0391 -0.0012
  203SOL    HW1  608   1.498   0.465   2.126  0.6327  3.1097  0.4065
  203SOL    HW2  609   1.607   0.361   2.168 -3.7262  0.4865  0.9577
  204SOL     OW  610   0.679   0.901   1.401 -0.4291  0.4896 -0.0577
  204SOL    HW1  611   0.722   0.816   1.440  1.6508  1.9179  0.9360
  204SOL    HW2  612   0.609   0.882   1.324  0.7629  0.1838 -1.6238
  205SOL     OW  613   2.106   0.968   2.672 -0.1559 -0.1618 -0.4497
  205SOL    HW1  614   2.004   0.980   2.669 -0.2048  1.6790  2.4408
  205SOL    HW2  615   2.152   0.932   2.591  0.5861 -1.5150  1.2919
  206SOL     OW  616   0.479   2.144   2.952 -0.4869  0.3317  0.1204
  206SOL    HW1  617   0.430   2.132   3.044  1.5118 -2.8724  1.8325
  206SOL    HW2  618   0.473   2.059   2.898  1.9147  2.6052  0.5531
  207SOL     OW  619   0.417   0.356   1.857 -0.0481 -0.3435 -0.7690
  207SOL    HW1  620   0.425   0.455   1.853 -0.8270 -4.0730  1.1530
  207SOL    HW2  621   0.485   0.309   1.799  0.3790  0.1010  0.6650
  208SOL     OW  622   0.619   2.457   1.472 -0.2801 -0.3418  0.2611
  208SOL    HW1  623   0.542   2.461   1.407 -1.2257  2.1387 -1.8599
  208SOL    HW2  624   0.707   2.425   1.428  2.2401  0.1060 -0.7808
  209SOL     OW  625   1.420   2.746   3.001 -0.2323  0.2332 -0.5917
  209SOL    HW1  626   1.356   2.735   3.078  1.1307 -3.4828 -3.6101
  209SOL    HW2  627   1.416   2.836   2.958 -1.7628 -0.1489  1.7739
  210SOL     OW  628   2.747   1.409   1.671  0.1406 -0.2544  0.4884
  210SOL    HW1  629   2.823   1.436   1.740  0.9317 -0.5424  2.2285
  210SOL    HW2  630   2.668   1.475   1.682 -1.9635  1.2340  0.6469
  211SOL     OW  631   1.433   0.246   1.612  0.7281 -0.0331 -0.1100
  211SOL    HW1  632   1.438   0.319   1.689 -0.3015  3.3845  1.2731
  211SOL    HW2  633   1.521   0.205   1.587 -0.5549  0.2611 -1.6004
  212SOL     OW  634   1.032   2.149   1.699 -0.3448 -0.2792  0.0604
  212SOL    HW1  635   0.946   2.194   1.678  4.2808 -1.6140 -0.8456
  212SOL    HW2  636   1.107   2.217   1.707  0.6983  1.2872  0.0193
  213SOL     OW  637   2.422   0.319   2.023 -0.1971  0.7525  0.3051
  213SOL    HW1  638   2.450   0.382   1.943  0.1652 -0.4835  0.2881
  213SOL    HW2  639   2.372   0.365   2.099 -0.2945  1.5025  1.3179
  214SOL     OW  640   0.934   1.834   1.967 -0.0361  0.1070  0.9806
  214SOL    HW1  641   0.980   1.840   1.882 -0.8826  2.1349  3.3777
  214SOL    HW2  642   0.868   1.908   1.972  1.7772 -2.9667 -0.3401
  215SOL     OW  643   2.835   1.751   1.182  0.1995  0.1362  0.1291
  215SOL    HW1  644   2.907   1.778   1.252  1.3913 -0.0603  0.5989
  215SOL    HW2  645   2.768   1.827   1.165 -2.1757 -0.2429 -1.5008
  216SOL     OW  646   3.026   0.646   1.160 -0.3343 -0.1875 -0.2194
  216SOL    HW1  647   2.925   0.627   1.159 -0.8483  0.8361  1.4930
  216SOL    HW2  648   3.076   0.576   1.213 -0.7907  2.4004 -2.2828
  217SOL     OW  649   2.580   0.145   1.306  0.2139  0.0984 -0.8729
  217SOL    HW1  650   2.549   0.213   1.239  1.3824  0.1204  1.8985
  217SOL    HW2  651   2.661   0.091   1.275 -0.7537  0.1115 -0.0799
  218SOL     OW  652   1.486   2.222   1.142  0.5109  0.2758  0.4054
  218SOL    HW1  653   1.538   2.136   1.177 -0.3234 -3.7095 -0.3368
  218SOL    HW2  654   1.551   2.268   1.078 -2.3349 -2.3286  0.7644
  219SOL     OW  655   1.688   2.171   0.242  0.1889 -0.3827 -0.1796
  219SOL    HW1  656   1.762   2.220   0.301  0.5651 -0.0675  2.2622
  219SOL    HW2  657   1.639   2.236   0.182 -1.3276  0.4044  1.9071
  220SOL     OW  658   1.816   2.466   0.165 -0.1351  0.0912 -0.0982
  220SOL    HW1  659   1.751   2.536   0.190  2.8268  3.4651 -1.9501
  220SOL    HW2  660   1.847   2.415   0.248  0.0847  2.0159  1.0000
  221SOL     OW  661   2.920   2.300   0.885 -0.2088 -0.3587  0.0042
  221SOL    HW1  662   2.993   2.250   0.838  0.8588  0.6583 -1.5453
  221SOL    HW2  663   2.839   2.238   0.893  0.2377 -0.2856  2.3122
  222SOL     OW  664   1.716   2.390   0.854  0.2715  0.0497 -0.1071
  222SOL    HW1  665   1.661   2.391   0.943 -0.9049 -3.5202  2.5243
  222SOL    HW2  666   1.666   2.410   0.769 -0.1386 -0.5449 -2.3131
  223SOL     OW  667   0.800   2.696   2.345  0.1419 -0.2953  0.5034
  223SOL    HW1  668   0.725   2.765   2.348 -0.9731 -2.3108 -1.1405
  223SOL    HW2  669   0.750   2.608   2.332 -1.5568  2.1326  1.2469
  224SOL     OW  670   3.026   1.769   1.374 -0.0359 -0.2584 -0.1017
  224SOL    HW1  671   2.997   1.711   1.453  0.9751  1.2017  0.8238
  224SOL    HW2  672   3.095   1.841   1.397  0.2173 -0.5995 -0.9121
  225SOL     OW  673   2.158   1.708   0.952 -0.1295  0.0628 -0.1564
  225SOL    HW1  674   2.196   1.634   0.894 -1.0681  1.2354  0.8946
  225SOL    HW2  675   2.117   1.777   0.888 -0.0126 -0.4040  1.2826
  226SOL     OW  676   1.477   2.520   0.387  0.3476 -0.1669  0.6628
  226SOL    HW1  677   1.552   2.581   0.352  1.4611 -0.1367  0.5170
  226SOL    HW2  678   1.489   2.424   0.363  0.2697 -1.1188 -0.8437
  227SOL     OW  679   1.640   0.917   1.342 -0.3579  0.6218  0.6493
  227SOL    HW1  680   1.549   0.945   1.383 -0.9326 -2.0705 -0.3970
  227SOL    HW2  681   1.658   0.962   1.253 -1.1724  1.3535 -0.5109
  228SOL     OW  682   1.484   0.595   2.017  0.0752  0.5276  0.0230
  228SOL    HW1  683   1.535   0.664   2.071  1.1257 -0.0466  0.3442
  228SOL    HW2  684   1.436   0.649   1.944 -2.2963  1.9528  1.0048
  229SOL     OW  685   2.730   0.801   2.845  0.0697  0.4407  0.2383
  229SOL    HW1  686   2.755   0.715   2.892 -2.0426  0.5295  0.3035
  229SOL    HW2  687   2.808   0.869   2.844  0.3078 -0.7144 -1.0279
  230SOL     OW  688   0.948   1.305   1.004  0.4083 -0.2899 -0.7371
  230SOL    HW1  689   0.995   1.244   0.935 -0.3267  0.7341 -1.1419
  230SOL    HW2  690   0.936   1.245   1.090 -2.9040  2.6663  2.1623
  231SOL     OW  691   2.496   2.994   2.034  0.2774 -0.1817  0.1094
  231SOL    HW1  692   2.593   3.003   2.001  1.8919 -0.1560  2.2725
  231SOL    HW2  693   2.478   3.054   2.118 -0.1960  2.7177  0.6147
  232SOL     OW  694   0.347   2.215   0.375 -0.1884 -0.3829  0.4255
  232SOL    HW1  695   0.355   2.145   0.445  0.2258 -0.7999 -1.6001
  232SOL    HW2  696   0.443   2.249   0.353  0.0896 -0.7529 -1.2432
  233SOL     OW  697   1.260   2.275   2.510  0.1903 -0.0299 -0.3582
  233SOL    HW1  698   1.324   2.228   2.577 -2.3932 -2.2254  4.1299
  233SOL    HW2  699   1.229   2.357   2.559 -2.4340  0.5938 -3.5092
  234SOL     OW  700   0.853   1.424   1.849  0.1906 -0.0388 -0.3239
  234SOL    HW1  701   0.898   1.408   1.941 -0.5453 -0.0999  1.5437
  234SOL    HW2  702   0.903   1.490   1.794 -0.6028 -0.2671  0.3475
  235SOL     OW  703   0.616   1.497   1.928 -0.1268 -0.0397  0.3329
  235SOL    HW1  704   0.702   1.466   1.889 -3.1931  0.9236 -0.3336
  235SOL    HW2  705   0.615   1.592   1.953 -1.2004 -1.0664  2.7629
  236SOL     OW  706   1.607   2.499   2.501 -0.7663 -0.3377 -0.4199
  236SOL    HW1  707   1.547   2.440   2.446 -1.2322  0.5711  2.3156
  236SOL    HW2  708   1.665   2.551   2.436  1.9194 -2.0018 -0.8719
  237SOL     OW  709   1.379   0.016   0.500  0.1106 -0.0345 -0.3048
  237SOL    HW1  710   1.376   0.117   0.520  0.2570 -1.5780  0.7147
  237SOL    HW2  711   1.383   3.069   0.589 -0.7702  0.5020 -3.7761
  238SOL     OW  712   0.846   0.631   2.868  0.4814  0.4159  0.4276
  238SOL    HW1  713   0.905   0.637   2.948 -3.0233  0.8381 -0.7369
  238SOL    HW2  714   0.758   0.683   2.875 -1.4264  1.1904 -0.3430
  239SOL     OW  715   0.233   0.714   2.103 -0.2956  0.2126  0.2240
  239SOL    HW1  716   0.333   0.691   2.117 -0.7113 -1.0623 -0.3720
  239SOL    HW2  717   0.196   0.761   2.189  2.2973  3.2068  2.4205
  240SOL     OW  718   2.326   2.531   0.716 -0.1931  0.0373 -0.1948
  240SOL    HW1  719   2.273   2.605   0.667  0.3676  0.3831  0.2211
  240SOL    HW2  720   2.382   2.573   0.793 -0.6050  1.4760  1.3478
  241SOL     OW  721   1.327   1.219   1.473  0.5227  0.0078 -0.2821
  241SOL    HW1  722   1.241   1.266   1.504 -1.7980  0.1035 -0.5012
  241SOL    HW2  723   1.405   1.228   1.538  0.3502 -0.8444  0.0579
  242SOL     OW  724   0.341   1.028   0.655  0.0084 -0.0758  0.5247
  242SOL    HW1  725   0.247   1.006   0.624  0.8142  0.7530 -0.0870
  242SOL    HW2  726   0.347   1.130   0.656 -0.7678  0.1567  0.1108
  243SOL     OW  727   0.253   0.705   1.260 -0.3442 -0.1102 -0.1991
  243SOL    HW1  728   0.171   0.723   1.317  1.0827 -1.6446  0.0596
  243SOL    HW2  729   0.277   0.607   1.264 -0.3836  4.3119  0.6845
  244SOL     OW  730   1.032   0.598   3.068 -0.0467  1.0800  0.2620
  244SOL    HW1  731   0.977   0.646   0.038 -0.7692  1.0027 -0.9192
  244SOL    HW2  732   1.015   0.495   3.066  0.0171 -0.6328  2.4601
  245SOL     OW  733   1.961   0.832   3.050  0.1254  0.2622  0.6786
  245SOL    HW1  734   2.055   0.825   3.084 -1.9958 -1.9656  0.5203
  245SOL    HW2  735   1.940   0.921   3.013  1.8904  0.8612 -0.4448
  246SOL     OW  736   2.952   0.887   1.997  0.3954  0.3361 -0.4506
  246SOL    HW1  737   2.890   0.963   2.013 -0.9741 -1.0992  2.1494
  246SOL    HW2  738   3.049   0.908   2.003 -1.5596  2.4052 -4.8805
  247SOL     OW  739   0.525   2.944   2.062  0.1626 -0.1871  0.0532
  247SOL    HW1  740   0.428   2.915   2.042  0.4268 -1.0009 -1.4376
  247SOL    HW2  741   0.552   3.016   1.988  1.8453  3.8299 -3.5936
  248SOL     OW  742   0.574   1.395   2.180 -0.4229 -0.4175 -0.3319
  248SOL    HW1  743   0.589   1.423   2.079  2.8905 -1.1456 -1.8419
  248SOL    HW2  744   0.521   1.308   2.183  0.5019  0.1057 -0.9481
  249SOL     OW  745   0.189   0.290   2.882 -0.3328  0.4319  0.0740
  249SOL    HW1  746   0.172   0.366   2.820 -2.2762 -1.0065 -0.4128
  249SOL    HW2  747   0.109   0.279   2.943 -0.6827 -1.6500 -2.1527
  250SOL     OW  748   3.010   0.190   2.805 -0.1130 -0.1767 -0.1147
  250SOL    HW1  749   3.021   0.088   2.793 -0.7386 -1.8666 -0.3699
  250SOL    HW2  750   2.928   0.219   2.754 -0.6473 -2.8314  0.8750
  251SOL     OW  751   0.252   1.686   0.714 -0.3129 -0.3051  0.3593
  251SOL    HW1  752   0.231   1.589   0.699  1.1004  0.6993 -1.1861
  251SOL    HW2  753   0.196   1.708   0.792 -0.7585  0.6341 -2.2819
  252SOL     OW  754   1.514   2.408   2.097  0.0321 -0.1417 -0.3166
  252SOL    HW1  755   1.578   2.486   2.087  0.2768 -0.2441 -2.8447
  252SOL    HW2  756   1.471   2.401   2.193 -1.9518  0.9508  0.3011
  253SOL     OW  757   1.532   1.807   2.844  0.1281  0.3739 -0.4358
  253SOL    HW1  758   1.610   1.749   2.821 -1.3532  0.4705  2.0628
  253SOL    HW2  759   1.480   1.834   2.760  0.8274  3.0401 -0.9477
  254SOL     OW  760   0.333   1.473   1.893  0.1474 -0.1213  0.2285
  254SOL    HW1  761   0.305   1.427   1.804 -0.4431  0.7854 -0.1524
  254SOL    HW2  762   0.433   1.462   1.908  0.3321 -0.7526 -1.5972
  255SOL     OW  763   0.924   2.985   1.479  0.3492 -0.1693  0.0100
  255SOL    HW1  764   0.977   2.903   1.464  1.2989  2.3044 -1.4999
  255SOL    HW2  765   0.881   2.974   1.569  2.4037  0.8026  0.1658
  256SOL     OW  766   2.936   2.473   1.095  0.0561  0.2234  0.4351
  256SOL    HW1  767   2.999   2.421   1.158 -2.1310  2.0282 -1.0852
  256SOL    HW2  768   2.934   2.423   1.003 -0.8766  2.7116  0.5207
  257SOL     OW  769   0.137   2.894   2.980 -0.0453  0.4313 -0.3503
  257SOL    HW1  770   0.197   2.974   2.990  1.9923  0.3993  0.3516
  257SOL    HW2  771   0.052   2.919   2.933  0.1386  0.9326  0.6554
  258SOL     OW  772   0.967   2.452   1.897  0.4992 -0.1818  0.0987
  258SOL    HW1  773   0.983   2.363   1.947  1.3814  0.9847  0.5055
  258SOL    HW2  774   1.059   2.500   1.884  0.2147  0.4697  0.5557
  259SOL     OW  775   0.981   1.771   2.554  0.3363  0.4278 -0.5047
  259SOL    HW1  776   1.042   1.747   2.640  0.7019 -2.4193  0.2377
  259SOL    HW2  777   0.885   1.760   2.583 -0.7384  1.3206  0.6822
  260SOL     OW  778   2.360   0.739   2.271  0.3916  0.0242  0.4691
  260SOL    HW1  779   2.379   0.712   2.363  1.5234 -1.1695 -2.5474
  260SOL    HW2  780   2.305   0.672   2.216  0.6274 -3.5620 -0.1962
  261SOL     OW  781   1.371   0.735   1.037  0.4139  0.5409  0.1243
  261SOL    HW1  782   1.337   0.682   0.958  0.0632 -0.1072 -0.1756
  261SOL    HW2  783   1.465   0.777   1.022  0.0818 -0.7007  0.9795
  262SOL     OW  784   2.202   2.167   2.627  0.8882  0.5211 -0.2509
  262SOL    HW1  785   2.178   2.070   2.648 -2.3660 -0.0984  1.8051
  262SOL    HW2  786   2.123   2.220   2.585 -1.4162  3.5391 -0.6006
  263SOL     OW  787   0.674   2.378   0.629 -0.3458 -0.1159 -0.6494
  263SOL    HW1  788   0.670   2.342   0.534 -0.3461 -1.1634  0.7699
  263SOL    HW2  789   0.749   2.448   0.640 -0.6312  0.0552  2.5609
  264SOL     OW  790   3.073   2.502   0.500  0.4455  0.3942  0.0937
  264SOL    HW1  791   3.039   2.532   0.405  0.0043  2.2425 -1.0899
  264SOL    HW2  792   0.012   2.409   0.497  1.5124 -0.2057  1.2701
  265SOL     OW  793   0.589   1.399   0.079 -0.4949  0.0880  0.2467
  265SOL    HW1  794   0.518   1.338   0.041  2.8991  1.0244  0.8977
  265SOL    HW2  795   0.672   1.342   0.092 -0.7816  2.2065  0.1471
  266SOL     OW  796   0.687   2.014   2.401  0.1082  0.1448  0.0958
  266SOL    HW1  797   0.782   1.990   2.372  1.3503 -0.0577  1.7796
  266SOL    HW2  798   0.685   2.012   2.501  0.6367  0.9171  0.0869
  267SOL     OW  799   1.648   0.629   2.381  0.3358 -0.0151 -0.0785
  267SOL    HW1  800   1.741   0.604   2.357 -2.3148  1.4397 -2.3982
  267SOL    HW2  801   1.649   0.686   2.469 -2.5017 -1.0600 -0.3256
  268SOL     OW  802   0.717   0.975   0.133  0.0660 -0.1243  0.1826
  268SOL    HW1  803   0.765   1.064   0.138 -2.7210  1.4174 -0.2747
  268SOL    HW2  804   0.674   0.964   0.224  1.3067  1.6047 -1.2225
  269SOL     OW  805   2.383   1.717   2.226 -0.4947  0.0369 -0.3050
  269SOL    HW1  806   2.458   1.688   2.292 -0.3736 -0.4972  2.2826
  269SOL    HW2  807   2.420   1.778   2.148  0.2091  0.6132 -0.9801
  270SOL     OW  808   1.249   1.833   3.026  0.6869  0.2670  0.7248
  270SOL    HW1  809   1.174   1.853   3.094  2.4031 -0.8623  0.5805
  270SOL    HW2  810   1.308   1.756   3.063  0.3402  0.2197  2.6350
  271SOL     OW  811   0.154   0.497   0.038 -0.1701 -0.0598  0.2777
  271SOL    HW1  812   0.190   0.558   3.066  1.8250  0.7869  0.3262
  271SOL    HW2  813   0.084   0.434   0.002  3.0667  0.8358 -0.8350
  272SOL     OW  814   2.878   0.518   0.489  0.3077 -0.1239  0.2152
  272SOL    HW1  815   2.837   0.536   0.579 -1.4947 -1.3832  0.8165
  272SOL    HW2  816   2.977   0.534   0.483 -2.4848 -1.7248 -1.0351
  273SOL     OW  817   0.584   2.968   1.625  0.2187 -0.0969  0.1641
  273SOL    HW1  818   0.649   2.996   1.699  1.2305 -1.0300  1.2336
  273SOL    HW2  819   0.488   2.970   1.646  4.2562  0.4475 -2.0043
  274SOL     OW  820   2.809   0.449   1.465 -0.0542 -0.2277 -0.0627
  274SOL    HW1  821   2.864   0.464   1.546 -3.4925 -2.1082  0.2800
  274SOL    HW2  822   2.734   0.383   1.491 -0.1328 -0.7801 -1.2296
  275SOL     OW  823   1.004   1.715   0.838  0.0085 -0.3538  0.4207
  275SOL    HW1  824   0.971   1.624   0.809 -0.4260 -1.5506 -0.8113
  275SOL    HW2  825   1.106   1.701   0.845 -1.1741 -0.1128  0.3893
  276SOL     OW  826   0.532   0.938   2.032 -0.2462 -0.8211  0.6097
  276SOL    HW1  827   0.495   0.954   1.940 -1.4183 -1.2530 -0.1201
  276SOL    HW2  828   0.533   0.838   2.061  0.2749 -0.7510 -1.8414
  277SOL     OW  829   1.148   2.776   2.033  0.6070  0.1949  0.2100
  277SOL    HW1  830   1.245   2.804   2.053 -1.7357 -2.1693 -0.2832
  277SOL    HW2  831   1.142   2.707   1.960 -4.3168 -1.1451 -0.7689
  278SOL     OW  832   1.992   2.815   1.924 -0.3417 -0.3120  0.2566
  278SOL    HW1  833   2.086   2.843   1.956 -0.3845 -0.2630 -0.4790
  278SOL    HW2  834   1.995   2.747   1.849 -1.4106  1.1343  0.8446
  279SOL     OW  835   1.737   1.477   0.106  0.4987  0.3131  0.5521
  279SOL    HW1  836   1.729   1.569   0.063 -0.6335  0.4355  1.5288
  279SOL    HW2  837   1.677   1.410   0.065  1.5854  2.0995 -0.4312
  280SOL     OW  838   1.505   0.927   0.141 -0.0391 -0.1228 -0.6652
  280SOL    HW1  839   1.428   0.976   0.188 -1.5494  0.4555  1.5343
  280SOL    HW2  840   1.559   0.866   0.201 -3.2675  0.9805 -0.6895
  281SOL     OW  841   0.550   0.278   1.442 -0.0284  0.5582  0.4490
  281SOL    HW1  842   0.559   0.337   1.359  0.7126 -0.2762  0.1926
  281SOL    HW2  843   0.462   0.295   1.486  3.0026  0.2223 -2.4624
  282SOL     OW  844   0.179   2.612   0.635  0.4291 -0.3460  0.1329
  282SOL    HW1  845   0.100   2.583   0.579 -0.8022 -2.8342  1.1966
  282SOL    HW2  846   0.187   2.712   0.641  2.0840 -1.7353 -0.5330
  283SOL     OW  847   1.237   2.047   2.030 -0.2164  0.2609  0.3160
  283SOL    HW1  848   1.281   1.956   2.041 -4.3819  2.3265 -1.4636
  283SOL    HW2  849   1.292   2.105   1.965 -3.0186 -2.1513  0.1578
  284SOL     OW  850   3.025   2.726   1.153  0.1167 -0.4593  0.1587
  284SOL    HW1  851   2.940   2.758   1.203 -0.6042 -0.2983  2.1149
  284SOL    HW2  852   3.019   2.627   1.128  0.7104 -0.6089 -1.3178
  285SOL     OW  853   0.124   2.278   0.024 -0.1828 -0.5190  0.8749
  285SOL    HW1  854   0.025   2.250   0.011 -1.1312 -2.3957  0.1718
  285SOL    HW2  855   0.133   2.356   0.087 -1.9985 -2.8179  0.2366
  286SOL     OW  856   0.437   2.888   0.856  0.9900 -0.3041 -0.9133
  286SOL    HW1  857   0.437   2.936   0.949 -1.1996  0.6340  0.2157
  286SOL    HW2  858   0.355   2.914   0.799  0.0683 -0.0138 -0.7038
  287SOL     OW  859   0.701   1.366   0.617  0.0426 -0.4906  0.2378
  287SOL    HW1  860   0.739   1.284   0.571  0.8940  2.2395  1.3016
  287SOL    HW2  861   0.650   1.423   0.547  0.3739 -2.5092 -0.2622
  288SOL     OW  862   1.908   1.838   2.898 -0.5697  0.3814  0.5013
  288SOL    HW1  863   1.953   1.752   2.932 -0.5180  2.8320  0.3466
  288SOL    HW2  864   1.971   1.919   2.910  0.8020 -0.8552 -2.2529
  289SOL     OW  865   3.007   2.150   0.272 -0.5248  0.1621  0.5976
  289SOL    HW1  866   3.011   2.164   0.168  2.9413 -2.7296 -0.9791
  289SOL    HW2  867   3.042   2.052   0.289  2.7158  0.0651 -2.2150
  290SOL     OW  868   1.384   1.506   1.330  0.5409  0.3627 -0.3685
  290SOL    HW1  869   1.450   1.531   1.256 -0.7201 -0.8772  3.3700
  290SOL    HW2  870   1.357   1.409   1.324 -0.2674  1.2663 -1.3162
  291SOL     OW  871   1.006   1.297   3.062 -0.3768 -0.6246 -0.3082
  291SOL    HW1  872   0.981   1.392   3.023  0.1162  2.2755 -2.5200
  291SOL    HW2  873   1.005   1.234   2.984  1.5166 -0.1203  0.5495
  292SOL     OW  874   1.149   1.522   0.297  0.1267 -0.6705  0.0665
  292SOL    HW1  875   1.099   1.521   0.390  1.0033 -1.0950  0.9308
  292SOL    HW2  876   1.098   1.585   0.231 -0.4266 -0.1536 -0.5523
  293SOL     OW  877   1.441   3.005   0.756 -0.0104 -0.2888  0.1188
  293SOL    HW1  878   1.508   2.939   0.728  0.0277  2.0521  0.8257
  293SOL    HW2  879   1.371   2.968   0.823  2.5131 -1.0103  1.1227
  294SOL     OW  880   1.780   1.391   2.482  0.4457  0.1684 -0.4975
  294SOL    HW1  881   1.755   1.311   2.544  0.4469 -0.7083  0.2842
  294SOL    HW2  882   1.718   1.393   2.397 -0.4441 -0.0101 -1.5592
  295SOL     OW  883   1.739   1.961   0.085 -0.5200  0.2395 -0.5281
  295SOL    HW1  884   1.657   1.965   0.023 -0.6524 -1.8877 -0.7956
  295SOL    HW2  885   1.736   2.032   0.158  1.6743  0.8575 -1.0234
  296SOL     OW  886   1.299   0.721   1.834 -0.0275 -0.1933 -0.0389
  296SOL    HW1  887   1.325   0.698   1.737 -1.9706  0.2645 -0.6902
  296SOL    HW2  888   1.205   0.758   1.844 -0.3166 -1.5039  0.3098
  297SOL     OW  889   2.840   0.669   1.836 -1.0436  0.1051  0.1892
  297SOL    HW1  890   2.760   0.627   1.880  3.0994  1.5150 -0.4685
  297SOL    HW2  891   2.891   0.718   1.907 -1.5008  1.6808 -1.5127
  298SOL     OW  892   1.179   1.659   1.212  0.1447 -0.7480 -0.1847
  298SOL    HW1  893   1.228   1.716   1.143 -0.9944  1.6972  0.1142
  298SOL    HW2  894   1.253   1.619   1.271 -1.2081  0.3387 -1.5853
  299SOL     OW  895   1.161   0.022   2.692 -0.1624 -0.6807  0.4604
  299SOL    HW1  896   1.221   0.027   2.607 -2.4171  0.8387  0.5959
  299SOL    HW2  897   1.063   0.017   2.655 -1.7267  0.4934 -1.5411
  300SOL     OW  898   2.850   1.374   0.162  0.4233  0.1736  0.2930
  300SOL    HW1  899   2.938   1.346   0.208 -0.1976 -0.3535 -2.3992
  300SOL    HW2  900   2.843   1.473   0.167 -0.4185 -1.9039 -0.3842
  301SOL     OW  901   1.981   0.665   2.450  0.2431 -0.0869  0.2855
  301SOL    HW1  902   2.019   0.571   2.466  0.4211 -2.4670  0.1575
  301SOL    HW2  903   2.045   0.720   2.394  0.4783  0.9923 -0.1785
  302SOL     OW  904   2.555   1.992   2.554  0.6116  0.7812 -0.4604
  302SOL    HW1  905   2.585   2.032   2.466  0.9003  0.3952  0.3579
  302SOL    HW2  906   2.613   1.909   2.581 -1.5629 -0.2875  0.8759
  303SOL     OW  907   0.252   2.441   2.982  0.2944 -0.2170  0.1245
  303SOL    HW1  908   0.204   2.354   3.006 -0.2495 -1.1489 -0.9662
  303SOL    HW2  909   0.179   2.513   2.959  2.7470 -0.2912  0.0369
  304SOL     OW  910   0.562   1.763   1.330 -0.0082  0.8999 -0.3803
  304SOL    HW1  911   0.604   1.852   1.368  0.0796  1.1557  2.3169
  304SOL    HW2  912   0.628   1.718   1.264 -2.7160 -1.9626 -0.2650
  305SOL     OW  913   2.584   0.566   1.896 -0.4927 -0.0221 -0.3791
  305SOL    HW1  914   2.600   0.595   1.996  0.8052  0.4607  0.0738
  305SOL    HW2  915   2.513   0.618   1.843 -0.0522 -2.6406 -0.3011
  306SOL     OW  916   1.821   1.456   1.124 -0.0640  0.3075 -0.0789
  306SOL    HW1  917   1.744   1.439   1.055 -0.6527 -1.1709  2.9574
  306SOL    HW2  918   1.793   1.422   1.217 -0.5987 -0.5526 -0.5859
  307SOL     OW  919   0.017   0.615   0.839  0.0853  0.0121 -0.0316
  307SOL    HW1  920   3.090   0.711   0.836  0.7581  0.5556  0.9540
  307SOL    HW2  921   0.118   0.607   0.839 -1.6364  0.9572 -1.9671
  308SOL     OW  922   0.249   1.313   1.690  0.1021 -0.1305  0.3503
  308SOL    HW1  923   0.209   1.366   1.610  0.6735  1.3716 -0.5313
  308SOL    HW2  924   0.177   1.260   1.741 -2.3906  2.3943 -1.5207
  309SOL     OW  925   2.584   2.137   2.030  0.3042  0.2073  0.5012
  309SOL    HW1  926   2.665   2.185   1.993  0.5114  1.5775  1.6348
  309SOL    HW2  927   2.493   2.184   2.006 -0.0702 -0.0750  1.5958
  310SOL     OW  928   2.361   1.211   2.374 -0.1439 -0.4849  0.3984
  310SOL    HW1  929   2.377   1.112   2.340  0.4048 -1.0627 -0.1893
  310SOL    HW2  930   2.350   1.214   2.475  1.3610  0.5974  4.3031
  311SOL     OW  931   1.618   1.297   3.007 -0.7320 -0.2760 -0.0067
  311SOL    HW1  932   1.532   1.328   3.055 -1.2874  0.2632 -0.1292
  311SOL    HW2  933   1.616   1.199   2.989  1.8827  2.0630  0.3511
  312SOL     OW  934   1.344   1.929   2.569  0.7664  0.6738 -0.0311
  312SOL    HW1  935   1.393   2.003   2.619  3.2827 -1.3972 -0.5311
  312SOL    HW2  936   1.276   1.967   2.503  1.1697 -0.8132  0.5629
  313SOL     OW  937   0.480   0.460   0.756 -0.8946 -0.1005  0.0565
  313SOL    HW1  938   0.511   0.487   0.665 -0.7733 -3.2974  0.1073
  313SOL    HW2  939   0.433   0.541   0.800  0.0978  0.8535  0.2340
  314SOL     OW  940   0.782   1.995   1.085  0.2286 -0.1871 -0.4022
  314SOL    HW1  941   0.756   2.075   1.138  2.1633 -1.0730 -1.6497
  314SOL    HW2  942   0.853   1.944   1.141 -0.8095  0.6953 -0.5168
  315SOL     OW  943   0.582   2.177   2.193  0.3994 -0.2947 -0.6038
  315SOL    HW1  944   0.495   2.226   2.193 -2.1358 -1.1787 -0.5906
  315SOL    HW2  945   0.600   2.126   2.278 -0.3209 -1.1834 -0.6501
  316SOL     OW  946   0.449   2.693   0.522  0.2472 -0.1272  0.7427
  316SOL    HW1  947   0.394   2.627   0.577  0.2275 -2.9904 -1.3778
  316SOL    HW2  948   0.527   2.722   0.584  1.0983  0.4962  1.4875
  317SOL     OW  949   2.791   0.027   1.212 -0.2058 -0.4962 -0.1694
  317SOL    HW1  950   2.802   0.097   1.138 -3.8706 -0.9465 -1.2746
  317SOL    HW2  951   2.798   3.034   1.169  0.3004 -0.3521  1.1780
  318SOL     OW  952   2.188   2.591   0.131  0.2790 -0.3514 -0.0227
  318SOL    HW1  953   2.168   2.690   0.142  0.5164 -2.2114 -0.6986
  318SOL    HW2  954   2.253   2.566   0.209  2.6122 -1.3746  2.3109
  319SOL     OW  955   1.464   0.912   2.513 -0.0605 -0.0841 -0.0691
  319SOL    HW1  956   1.506   0.966   2.591  2.3739  1.4337  0.2514
  319SOL    HW2  957   1.428   0.818   2.537 -1.7948 -0.2755 -1.4792
  320SOL     OW  958   0.050   2.149   2.270 -0.1835 -0.3735 -0.1493
  320SOL    HW1  959   0.033   2.210   2.192  1.5984 -1.4963  4.5272
  320SOL    HW2  960   0.113   2.077   2.241  4.6464 -0.1356 -1.2179
  321SOL     OW  961   0.709   2.426   0.074 -0.1296  0.7320  0.1303
  321SOL    HW1  962   0.758   2.503   0.114 -3.0141 -0.6081 -1.9334
  321SOL    HW2  963   0.623   2.468   0.038  0.1279  2.7224 -1.3111
  322SOL     OW  964   2.566   0.903   2.658 -0.0078 -0.2752 -0.0558
  322SOL    HW1  965   2.627   0.858   2.725  1.3122 -0.0153 -0.7803
  322SOL    HW2  966   2.498   0.841   2.624 -0.0693  4.4566  1.5594
  323SOL     OW  967   2.509   1.132   0.926 -0.0291 -0.3026 -0.0183
  323SOL    HW1  968   2.579   1.182   0.983 -1.6165 -0.1856 -0.7832
  323SOL    HW2  969   2.542   1.051   0.874  2.5157  1.2699  0.0916
  324SOL     OW  970   0.071   0.447   1.276  0.2604  0.3888  0.5223
  324SOL    HW1  971   0.090   0.480   1.371  1.4650  0.9823 -1.7592
  324SOL    HW2  972   3.085   0.391   1.277 -3.3566 -1.6578  0.1202
  325SOL     OW  973   0.071   3.022   1.776 -0.5099  0.5934 -0.4359
  325SOL    HW1  974   0.014   3.093   1.727  0.5237 -1.1301 -1.3265
  325SOL    HW2  975   0.167   3.034   1.748 -1.8353  1.0430  1.1882
  326SOL     OW  976   2.142   2.844   0.263 -0.0323 -0.4285  0.2547
  326SOL    HW1  977   2.226   2.878   0.308 -2.1567 -0.1251  1.1560
  326SOL    HW2  978   2.125   2.903   0.181  0.2824  2.7266 -0.4065
  327SOL     OW  979   1.976   1.569   0.459 -0.2543  0.2763 -0.0644
  327SOL    HW1  980   1.961   1.664   0.431 -0.1799 -2.4027 -0.7781
  327SOL    HW2  981   1.894   1.513   0.438 -3.4043  1.1273  3.5133
  328SOL     OW  982   0.045   2.265   2.532  0.4108  0.2778  0.4639
  328SOL    HW1  983   0.139   2.289   2.567  1.1440  0.4765  1.3837
  328SOL    HW2  984   0.053   2.224   2.439 -2.0750  3.9253  1.0854
  329SOL     OW  985   0.237   2.200   1.489 -0.1169  0.5432  0.6486
  329SOL    HW1  986   0.300   2.159   1.421  3.2391 -2.1353  1.6981
  329SOL    HW2  987   0.261   2.173   1.584 -1.1506  1.1671  0.4649
  330SOL     OW  988   2.368   1.200   2.652  0.2007 -0.0210 -0.0835
  330SOL    HW1  989   2.463   1.195   2.690 -0.4042  0.4676  1.0927
  330SOL    HW2  990   2.312   1.139   2.711  1.5246  2.8795 -0.1176
  331SOL     OW  991   2.732   2.117   0.934  0.0002 -0.2952 -0.0264
  331SOL    HW1  992   2.725   2.096   1.031  0.2628  2.0128 -3.4244
  331SOL    HW2  993   2.641   2.101   0.892  1.8401 -0.9971  0.1754
  332SOL     OW  994   0.628   2.771   0.699 -0.2633 -0.5918 -0.5785
  332SOL    HW1  995   0.554   2.811   0.755  1.0724 -1.3158 -0.8956
  332SOL    HW2  996   0.723   2.806   0.714  1.2747 -1.5399 -1.4590
  333SOL     OW  997   2.298   1.863   2.441  0.4810 -0.3280 -0.0470
  333SOL    HW1  998   2.380   1.918   2.455  0.1303 -2.9034 -1.9740
  333SOL    HW2  999   2.314   1.820   2.356  2.7557  0.5294  6.4358
  334SOL     OW 1000   0.549   1.430   0.887  0.1774 -0.4220 -0.2846
  334SOL    HW1 1001   0.506   1.488   0.959  0.4267  2.5320 -0.0541
  334SOL    HW2 1002   0.615   1.490   0.840 -0.2180 -1.6854  1.0711
  335SOL     OW 1003   2.880   2.133   2.295 -0.6536  0.0018 -0.2631
  335SOL    HW1 1004   2.984   2.143   2.291  2.1720 -0.5141 -0.3757
  335SOL    HW2 1005   2.856   2.088   2.381  1.4328  2.3699 -0.1874
  336SOL     OW 1006   2.272   2.789   2.046 -0.0096  0.4111 -0.6616
  336SOL    HW1 1007   2.208   2.798   2.123  0.3832 -1.3450 -0.1747
  336SOL    HW2 1008   2.333   2.869   2.047  1.6640  3.9972  1.3190
  337SOL     OW 1009   0.709   0.912   0.581  0.2461  0.4484  0.0639
  337SOL    HW1 1010   0.795   0.917   0.521 -0.2169 -1.8106 -0.0453
  337SOL    HW2 1011   0.688   0.994   0.640 -1.2079  0.5289  0.0425
  338SOL     OW 1012   1.366   1.769   1.024 -0.2061 -0.2944 -0.3096
  338SOL    HW1 1013   1.308   1.856   1.031 -3.3541  4.3550 -0.4949
  338SOL    HW2 1014   1.452   1.800   0.972 -1.6701 -0.9423  0.0082
  339SOL     OW 1015   0.203   1.718   1.589 -0.1284  0.1670  0.2286
  339SOL    HW1 1016   0.259   1.738   1.506 -3.2079  0.7198 -0.9614
  339SOL    HW2 1017   0.210   1.802   1.650 -1.3005  2.1798 -1.3932
  340SOL     OW 1018   1.315   3.087   1.711 -0.1435 -0.2155  0.2599
  340SOL    HW1 1019   1.357   0.072   1.683  1.2947  1.3071 -0.2129
  340SOL    HW2 1020   1.362   3.051   1.793  0.2837  0.3900 -3.3242
  341SOL     OW 1021   1.533   1.595   1.137  0.0658  0.1489 -0.2977
  341SOL    HW1 1022   1.461   1.643   1.085 -1.4443 -0.4918  2.1021
  341SOL    HW2 1023   1.619   1.648   1.133  1.7895 -0.3622 -0.1255
  342SOL     OW 1024   2.496   1.454   0.997  0.5179 -0.4285 -0.5657
  342SOL    HW1 1025   2.564   1.381   1.009 -0.4126 -2.4347 -0.5825
  342SOL    HW2 1026   2.402   1.430   1.037 -1.6810 -0.5243 -0.7915
  343SOL     OW 1027   2.138   0.222   0.912  0.0759 -0.1610  0.3612
  343SOL    HW1 1028   2.238   0.214   0.889  1.6404  2.0268  0.3208
  343SOL    HW2 1029   2.083   0.197   0.829  2.4779  1.6903  2.3969
  344SOL     OW 1030   2.367   0.284   0.486 -0.4294  0.2736 -0.1782
  344SOL    HW1 1031   2.331   0.376   0.468 -2.1560  1.3706 -0.3673
  344SOL    HW2 1032   2.423   0.280   0.570  0.9615  0.1462 -1.7021
  345SOL     OW 1033   0.882   2.987   1.777 -0.3566  0.2208 -0.1409
  345SOL    HW1 1034   0.833   2.967   1.865  2.0788 -0.6561  1.5975
  345SOL    HW2 1035   0.920   3.082   1.767 -0.7868 -2.2009  1.0114
  346SOL     OW 1036   2.564   1.962   0.571 -0.6236  0.0107  0.5352
  346SOL    HW1 1037   2.646   1.908   0.594  1.2445  1.1104  0.2641
  346SOL    HW2 1038   2.534   2.020   0.649  1.0318  0.0874  1.2965
  347SOL     OW 1039   2.542   2.870   1.284 -0.1658 -0.1344  0.0432
  347SOL    HW1 1040   2.510   2.882   1.383 -1.4606 -1.8796  5.2275
  347SOL    HW2 1041   2.462   2.869   1.222  0.7155 -0.9766 -0.0082
  348SOL     OW 1042   1.072   0.867   1.520 -0.2752 -0.2347  0.1097
  348SOL    HW1 1043   0.991   0.934   1.515  1.4960  5.1652 -0.0053
  348SOL    HW2 1044   1.161   0.903   1.496 -0.2512 -1.8745  0.0426
  349SOL     OW 1045   2.379   0.651   2.542 -0.6323 -0.2675  0.3477
  349SOL    HW1 1046   2.436   0.569   2.535 -0.5723 -0.2540  0.6245
  349SOL    HW2 1047   2.295   0.629   2.590  1.4028  2.7951 -1.1964
  350SOL     OW 1048   1.890   2.279   0.387  0.0870 -0.2401  0.0511
  350SOL    HW1 1049   1.893   2.330   0.477  3.2890 -2.9044  0.2439
  350SOL    HW2 1050   1.957   2.202   0.394  1.6289 -1.3144 -0.7161
  351SOL     OW 1051   1.364   0.510   0.171  0.7458 -0.0527  0.0699
  351SOL    HW1 1052   1.351   0.462   0.086  1.6713  1.7201  0.0068
  351SOL    HW2 1053   1.304   0.596   0.178 -1.8301 -0.1821  0.9966
  352SOL     OW 1054   1.961   2.561   2.217 -0.0831 -0.0428  0.1373
  352SOL    HW1 1055   1.903   2.622   2.272 -0.1259 -1.2730  0.2287
  352SOL    HW2 1056   1.910   2.528   2.138  1.5935 -1.4646  0.4405
  353SOL     OW 1057   0.497   1.309   2.605  0.2462 -0.2818 -0.6086
  353SOL    HW1 1058   0.400   1.277   2.610  0.5985  1.0055 -0.1309
  353SOL    HW2 1059   0.509   1.381   2.537  1.3601  0.9767 -0.0078
  354SOL     OW 1060   0.464   2.782   2.555  0.0314  0.1208  0.6141
  354SOL    HW1 1061   0.531   2.815   2.482  1.6235 -2.2483  0.1990
  354SOL    HW2 1062   0.503   2.700   2.594 -0.0921  3.9805  1.0421
  355SOL     OW 1063   2.288   2.654   1.383  0.1528  0.0104 -0.0943
  355SOL    HW1 1064   2.351   2.691   1.455 -1.4933 -0.7749  1.5519
  355SOL    HW2 1065   2.198   2.697   1.403  0.5979 -1.5121  0.3872
  356SOL     OW 1066   0.087   0.980   0.628 -0.1063  0.7812  0.6907
  356SOL    HW1 1067   0.045   1.065   0.592 -3.2412  1.7984  0.1516
  356SOL    HW2 1068   0.029   0.937   0.695  1.7393  1.1223  1.1728
  357SOL     OW 1069   0.010   0.093   1.432  0.0183 -0.2587  0.0416
  357SOL    HW1 1070   3.049   0.085   1.509 -0.8577  0.3223 -1.2813
  357SOL    HW2 1071   3.064   0.144   1.363  2.2416 -1.2180  1.1929
  358SOL     OW 1072   2.913   1.653   1.591 -0.3937  0.6221 -0.7938
  358SOL    HW1 1073   2.992   1.637   1.659 -0.3624  0.5432  0.6289
  358SOL    HW2 1074   2.860   1.567   1.591  1.1506  1.9043  2.4242
  359SOL     OW 1075   2.471   2.628   2.413  0.6572 -0.2583  0.1907
  359SOL    HW1 1076   2.450   2.560   2.487 -1.9173 -0.0528  0.2727
  359SOL    HW2 1077   2.466   2.584   2.322 -1.3343 -1.6264  0.8296
  360SOL     OW 1078   1.364   0.460   1.447  0.6112 -0.1474  0.0585
  360SOL    HW1 1079   1.396   0.391   1.513  0.3789 -1.5470 -0.2502
  360SOL    HW2 1080   1.355   0.555   1.491  0.0943  2.5493  1.4291
  361SOL     OW 1081   2.632   2.475   1.277  0.5505  0.4800  0.6603
  361SOL    HW1 1082   2.704   2.501   1.208  0.4660  1.4315 -1.4554
  361SOL    HW2 1083   2.544   2.454   1.226 -2.7866  0.7632 -2.6183
  362SOL     OW 1084   1.402   0.270   0.593  0.6685 -0.3092  0.4432
  362SOL    HW1 1085   1.362   0.352   0.546 -2.3017  3.0862 -0.3247
  362SOL    HW2 1086   1.370   0.265   0.690 -1.8426 -0.5903 -0.0606
  363SOL     OW 1087   1.629   1.382   0.936 -0.1230  0.2092  0.2779
  363SOL    HW1 1088   1.565   1.320   0.881 -2.8929 -2.8975 -1.3137
  363SOL    HW2 1089   1.689   1.435   0.871  2.0252  0.3559 -1.1652
  364SOL     OW 1090   0.313   0.837   1.609  0.3313  0.3715  0.2934
  364SOL    HW1 1091   0.381   0.760   1.614  2.5354 -3.2308  0.5823
  364SOL    HW2 1092   0.325   0.892   1.530 -1.2360 -2.5088  1.2686
  365SOL     OW 1093   2.707   0.567   0.954 -0.2909 -0.5326 -0.0702
  365SOL    HW1 1094   2.791   0.521   0.917  2.2163  0.1978 -1.0078
  365SOL    HW2 1095   2.717   0.564   1.058 -0.4604 -1.7139  1.6145
  366SOL     OW 1096   2.660   1.421   0.726 -0.3966  0.1479 -0.2715
  366SOL    HW1 1097   2.696   1.513   0.695  1.3288 -0.9943  1.6711
  366SOL    HW2 1098   2.583   1.432   0.790  2.4155 -3.1601 -1.6204
  367SOL     OW 1099   2.024   1.930   2.099 -0.7836 -0.0264 -0.0906
  367SOL    HW1 1100   2.031   2.018   2.144 -0.2945 -2.8551 -3.0268
  367SOL    HW2 1101   2.026   1.849   2.162  1.6628  0.7193  1.1272
  368SOL     OW 1102   2.515   1.996   1.372 -0.3839 -0.0778  0.2169
  368SOL    HW1 1103   2.505   2.030   1.468  1.1908  0.2106  2.0292
  368SOL    HW2 1104   2.480   1.900   1.364 -2.4969  1.4098 -0.5216
  369SOL     OW 1105   2.112   2.868   2.673 -0.0540  0.4518  0.0398
  369SOL    HW1 1106   2.208   2.847   2.637  1.0379 -0.0060  1.9656
  369SOL    HW2 1107   2.110   2.862   2.773  0.2423  1.5705 -0.2094
  370SOL     OW 1108   0.772   0.404   1.078  0.0570 -0.5318  0.4733
  370SOL    HW1 1109   0.725   0.354   1.003  1.0578 -1.7606  1.3976
  370SOL    HW2 1110   0.829   0.337   1.130  0.1974  2.2742 -0.5028
  371SOL     OW 1111   0.557   1.597   0.522 -0.0034  0.8604  0.6959
  371SOL    HW1 1112   0.613   1.683   0.523 -2.8789 -2.0787  1.9018
  371SOL    HW2 1113   0.481   1.592   0.590 -0.4930 -3.1578 -1.6801
  372SOL     OW 1114   0.560   1.030   2.519  0.5422 -0.0520 -0.5292
  372SOL    HW1 1115   0.616   0.991   2.442 -2.6485  2.0975 -1.3608
  372SOL    HW2 1116   0.569   1.130   2.527  1.8592 -0.8631 -3.8051
  373SOL     OW 1117   1.159   2.729   2.795 -0.4882 -0.1908 -0.0085
  373SOL    HW1 1118   1.084   2.800   2.802 -0.5487  2.5783  0.6617
  373SOL    HW2 1119   1.223   2.745   2.873  0.1933 -0.7510 -1.5440
  374SOL     OW 1120   1.003   1.892   0.411  0.7622 -0.0097  0.7624
  374SOL    HW1 1121   1.069   1.909   0.487  0.1545 -1.0718 -2.7063
  374SOL    HW2 1122   1.052   1.884   0.321 -1.5326 -1.6978 -0.7771
  375SOL     OW 1123   0.657   0.599   1.866 -0.3180  0.0005  0.1387
  375SOL    HW1 1124   0.710   0.510   1.852  3.4709 -1.5447 -1.8666
  375SOL    HW2 1125   0.710   0.685   1.856 -1.3938 -1.8707 -0.0575
  376SOL     OW 1126   0.147   2.461   1.441 -0.6288 -0.0431  0.5707
  376SOL    HW1 1127   0.203   2.383   1.475  1.0352  0.3022 -1.6989
  376SOL    HW2 1128   0.161   2.535   1.514  0.7323 -0.1433  0.1530
  377SOL     OW 1129   2.827   1.767   3.030 -0.6159  0.9242  0.2727
  377SOL    HW1 1130   2.757   1.829   2.993  1.1149 -0.8655 -1.5645
  377SOL    HW2 1131   2.831   1.683   2.971 -0.8868  1.4540 -4.4350
  378SOL     OW 1132   1.709   2.884   3.089  0.0259 -0.0559  0.2099
  378SOL    HW1 1133   1.612   2.881   0.023 -1.4931  2.2215 -0.6610
  378SOL    HW2 1134   1.764   2.962   0.029  2.2164 -0.3839  0.4249
  379SOL     OW 1135   2.044   0.441   0.693 -0.1974  0.0670  0.6348
  379SOL    HW1 1136   2.063   0.343   0.698 -1.3263  0.3517  2.3803
  379SOL    HW2 1137   2.126   0.499   0.706  0.7752 -2.5373 -2.2538
  380SOL     OW 1138   2.808   1.790   1.860  0.2113  0.3899  1.1029
  380SOL    HW1 1139   2.838   1.866   1.801 -2.6809  1.1214  2.3574
  380SOL    HW2 1140   2.886   1.767   1.920 -1.4888 -0.2966 -1.9141
  381SOL     OW 1141   2.222   1.480   2.357 -0.8322 -0.1094  0.8056
  381SOL    HW1 1142   2.289   1.555   2.358 -0.1451 -0.0515  1.9802
  381SOL    HW2 1143   2.267   1.386   2.365  2.0186 -0.2793  1.4018
  382SOL     OW 1144   3.001   2.961   2.795 -0.1629  0.2313  0.2711
  382SOL    HW1 1145   2.997   2.992   2.896  2.4124  0.1597  0.6492
  382SOL    HW2 1146   2.918   2.977   2.737 -0.2168  1.2869  1.4691
  383SOL     OW 1147   1.185   1.277   0.166 -0.0391 -0.4189  0.1064
  383SOL    HW1 1148   1.117   1.284   0.090  0.8685 -0.1558  1.5805
  383SOL    HW2 1149   1.169   1.353   0.226  0.6953 -0.5986  0.1227
  384SOL     OW 1150   1.253   1.892   1.503 -0.5579 -0.3227 -0.0804
  384SOL    HW1 1151   1.170   1.927   1.458  0.3811  0.8777 -0.1184
  384SOL    HW2 1152   1.330   1.952   1.471  1.7848 -1.1565  0.4992
  385SOL     OW 1153   1.865   2.628   0.919 -0.0851  0.0652  0.3307
  385SOL    HW1 1154   1.882   2.651   0.823 -1.3378  0.3336  4.0792
  385SOL    HW2 1155   1.786   2.566   0.923 -0.2648 -0.3792  0.7239
  386SOL     OW 1156   1.701   1.569   0.727  0.7136 -0.1727  0.4712
  386SOL    HW1 1157   1.681   1.672   0.713 -0.6725  0.1572 -0.3594
  386SOL    HW2 1158   1.796   1.550   0.705  2.2312 -1.0819  0.8100
  387SOL     OW 1159   2.722   1.988   1.200  0.7820 -0.2739 -0.1361
  387SOL    HW1 1160   2.810   2.032   1.236  1.3936 -4.0133  2.5796
  387SOL    HW2 1161   2.652   1.997   1.275 -0.2254 -0.6555  1.0518
  388SOL     OW 1162   3.012   1.049   1.655 -0.4029  0.5797  0.2223
  388SOL    HW1 1163   3.045   1.073   1.560 -1.3190 -1.9340 -2.0472
  388SOL    HW2 1164   3.045   0.956   1.697  0.6172  0.7237 -0.0012
  389SOL     OW 1165   2.156   0.429   0.028 -0.0471 -0.4570 -0.1968
  389SOL    HW1 1166   2.092   0.396   0.103  2.4186 -0.4956  1.3276
  389SOL    HW2 1167   2.247   0.381   0.033 -0.9940 -1.8127  0.2123
  390SOL     OW 1168   1.268   1.494   2.846 -0.4054  0.2979 -0.5415
  390SOL    HW1 1169   1.264   1.582   2.796  0.1049 -0.4230  0.0201
  390SOL    HW2 1170   1.288   1.422   2.774 -0.5511 -0.5872 -2.7233
  391SOL     OW 1171   1.134   2.262   3.008 -0.5852 -0.5371 -0.3764
  391SOL    HW1 1172   1.087   2.172   3.025  0.0023 -1.2865  2.3699
  391SOL    HW2 1173   1.078   2.320   2.946  0.4086  0.7789  0.1607
  392SOL     OW 1174   0.181   2.642   1.648 -0.2582  0.6148  0.2568
  392SOL    HW1 1175   0.250   2.615   1.721  2.0084  0.7173  1.7443
  392SOL    HW2 1176   0.219   2.716   1.591  1.0778  0.3787  0.1170
  393SOL     OW 1177   1.266   2.390   0.127 -0.1920  0.1612  0.0831
  393SOL    HW1 1178   1.214   2.363   0.040 -1.9076 -1.2894 -0.4726
  393SOL    HW2 1179   1.366   2.395   0.103 -0.1790 -1.8890 -1.7501
  394SOL     OW 1180   0.669   0.675   2.426 -0.1105 -0.4094 -0.1251
  394SOL    HW1 1181   0.736   0.688   2.500 -1.7940  1.6748 -2.3351
  394SOL    HW2 1182   0.587   0.619   2.461 -0.5841  0.1422 -0.1020
  395SOL     OW 1183   0.528   1.226   1.080  0.2430 -0.4611 -0.0657
  395SOL    HW1 1184   0.546   1.290   1.004 -0.8674 -0.3861 -0.9214
  395SOL    HW2 1185   0.464   1.156   1.043 -1.0042  0.5069 -0.2389
  396SOL     OW 1186   1.797   1.184   2.176  0.3302 -0.1378 -0.6380
  396SOL    HW1 1187   1.707   1.140   2.199 -2.1581  0.1143 -0.0774
  396SOL    HW2 1188   1.809   1.260   2.243  1.2243  2.0293  1.6202
  397SOL     OW 1189   0.870   0.284   0.240 -0.5138  0.3558 -0.7365
  397SOL    HW1 1190   0.799   0.240   0.301 -2.6924 -2.5841 -1.3905
  397SOL    HW2 1191   0.937   0.339   0.295  0.7993 -0.8214 -0.5469
  398SOL     OW 1192   0.792   2.322   2.768  0.0064  0.0488 -0.1217
  398SOL    HW1 1193   0.891   2.349   2.786 -0.5570  0.2830 -2.2391
  398SOL    HW2 1194   0.740   2.305   2.854  1.3457  1.5540 -2.0225
  399SOL     OW 1195   1.455   1.835   2.323  0.3744 -0.2162 -0.1039
  399SOL    HW1 1196   1.450   1.854   2.421  2.2548  0.0674 -3.2176
  399SOL    HW2 1197   1.531   1.769   2.304 -2.7082  0.6883  0.0309
  400SOL     OW 1198   1.999   1.469   1.394 -0.6598 -0.1154 -0.7260
  400SOL    HW1 1199   2.017   1.520   1.309 -1.0752  1.6103 -0.9745
  400SOL    HW2 1200   1.966   1.372   1.377 -0.4870 -3.4096  3.8067
  401SOL     OW 1201   1.150   1.013   1.025  0.8625  0.2577  0.5370
  401SOL    HW1 1202   1.225   0.947   1.060  3.4767  0.4900  0.3796
  401SOL    HW2 1203   1.079   0.957   0.979 -1.0960  0.4315  1.3899
  402SOL     OW 1204   3.057   2.489   1.913  0.3815  0.2274 -0.4237
  402SOL    HW1 1205   3.002   2.560   1.867  0.8088  1.1261  2.3097
  402SOL    HW2 1206   0.023   2.536   1.977  1.9241  1.6170  0.0901
  403SOL     OW 1207   3.093   1.660   1.786 -0.5858 -0.3985 -0.0088
  403SOL    HW1 1208   3.078   1.731   1.860 -0.0542  1.6506  1.0670
  403SOL    HW2 1209   0.065   1.686   1.723 -0.0748 -0.7219 -0.6718
  404SOL     OW 1210   2.001   1.857   1.349  0.1766 -0.6308  0.3403
  404SOL    HW1 1211   1.979   1.893   1.440  0.5127  1.3969  0.0379
  404SOL    HW2 1212   2.054   1.927   1.291  1.7294  1.5887  0.7719
  405SOL     OW 1213   2.524   0.374   3.054 -0.0728  0.5195 -0.1349
  405SOL    HW1 1214   2.575   0.399   0.033 -1.1449 -0.6729 -0.6518
  405SOL    HW2 1215   2.480   0.453   3.011  0.8137  1.6372  0.1672
  406SOL     OW 1216   0.966   1.460   2.530 -0.7824  0.1250  0.6391
  406SOL    HW1 1217   0.979   1.559   2.520 -3.9058  0.3281 -1.1813
  406SOL    HW2 1218   0.894   1.428   2.466 -1.1787 -1.0881 -0.4291
  407SOL     OW 1219   1.911   2.683   3.100 -0.5020  0.5447  0.0008
  407SOL    HW1 1220   1.892   2.607   0.065 -3.6143 -0.6406 -0.1275
  407SOL    HW2 1221   1.841   2.753   0.009 -1.5287  0.1945  0.0095
  408SOL     OW 1222   0.471   0.089   0.687  0.0153 -0.8866 -0.5082
  408SOL    HW1 1223   0.448   0.039   0.598  0.7102 -0.2596 -2.5862
  408SOL    HW2 1224   0.387   0.136   0.724  2.2268 -0.8214  1.3487
  409SOL     OW 1225   2.405   1.872   1.015  0.3656  0.0058 -0.1746
  409SOL    HW1 1226   2.351   1.804   0.959  1.4667 -3.0616 -0.3546
  409SOL    HW2 1227   2.456   1.831   1.093  1.5446  0.6352  0.6336
  410SOL     OW 1228   2.378   2.081   3.029 -0.5711 -0.4411  0.1123
  410SOL    HW1 1229   2.437   2.154   2.984  1.2155 -0.6481  0.3515
  410SOL    HW2 1230   2.446   2.007   3.053 -0.0876  0.8102 -0.9687
  411SOL     OW 1231   0.223   0.728   0.532 -0.7800  0.4975  0.1409
  411SOL    HW1 1232   0.175   0.747   0.618  0.0915 -0.8356 -0.5658
  411SOL    HW2 1233   0.323   0.715   0.546 -1.1121  0.4549 -2.7340
  412SOL     OW 1234   1.682   2.665   0.261  0.6482 -0.5416  0.0837
  412SOL    HW1 1235   1.759   2.697   0.319 -0.3672  0.7061 -0.5116
  412SOL    HW2 1236   1.619   2.745   0.238  1.5751  1.5650  3.5588
  413SOL     OW 1237   2.066   0.333   2.201 -0.5271 -0.0636  0.0002
  413SOL    HW1 1238   2.075   0.311   2.102  1.0597 -1.9973 -1.7101
  413SOL    HW2 1239   2.022   0.261   2.252  0.0917 -1.7788 -2.4068
  414SOL     OW 1240   0.093   0.280   0.516  0.2740 -0.1062  0.1757
  414SOL    HW1 1241   0.078   0.380   0.495 -1.0205  0.1439  0.6106
  414SOL    HW2 1242   0.177   0.277   0.571 -3.9646  0.3075 -0.7132
  415SOL     OW 1243   0.637   1.552   1.509  0.1001 -0.3204  0.3789
  415SOL    HW1 1244   0.631   1.638   1.451 -0.3867  3.6507  1.1357
  415SOL    HW2 1245   0.616   1.467   1.456  1.0514 -2.6370 -3.9132
  416SOL     OW 1246   0.361   2.816   0.130  0.0398  0.5091 -0.1715
  416SOL    HW1 1247   0.369   2.916   0.151 -1.7976  0.5595  0.1183
  416SOL    HW2 1248   0.286   2.772   0.191 -1.1255 -0.7804  4.3391
  417SOL     OW 1249   2.775   2.856   1.162 -0.7765  0.5980  0.1455
  417SOL    HW1 1250   2.688   2.869   1.208  2.5311  0.7262  3.0252
  417SOL    HW2 1251   2.757   2.858   1.063 -1.7797 -1.5642  0.8523
  418SOL     OW 1252   0.554   0.434   2.716 -0.0724  0.0921 -0.0993
  418SOL    HW1 1253   0.529   0.388   2.799  2.4117  3.6192 -2.6129
  418SOL    HW2 1254   0.656   0.423   2.704  2.2857  1.2268 -1.9339
  419SOL     OW 1255   0.233   1.399   1.224 -0.0100  0.1253  0.0456
  419SOL    HW1 1256   0.208   1.317   1.165  2.3250  0.0698 -1.0592
  419SOL    HW2 1257   0.177   1.482   1.198  1.8956 -1.4966 -0.1373
  420SOL     OW 1258   1.579   1.880   0.888  0.5023  0.5605  0.1941
  420SOL    HW1 1259   1.562   1.982   0.887  1.7932  1.2804 -2.1406
  420SOL    HW2 1260   1.577   1.847   0.793 -0.1754 -1.3527 -1.3697
  421SOL     OW 1261   1.659   1.966   1.997 -0.1429  0.1958 -0.2334
  421SOL    HW1 1262   1.560   1.982   2.005 -0.8184 -0.3388 -1.3153
  421SOL    HW2 1263   1.682   1.872   1.968 -0.8567 -1.9808  0.1944
  422SOL     OW 1264   2.925   0.591   2.963  0.4185  0.2253  0.4777
  422SOL    HW1 1265   2.981   0.506   2.977 -3.2886 -1.3976 -2.3578
  422SOL    HW2 1266   2.909   0.636   3.053 -1.2169  0.1906 -0.2473
  423SOL     OW 1267   1.506   2.126   0.816  0.0633  0.6996 -0.0646
  423SOL    HW1 1268   1.524   2.147   0.719 -1.7056  1.8860 -0.5978
  423SOL    HW2 1269   1.450   2.194   0.862  1.0174 -1.3914  0.2570
  424SOL     OW 1270   0.731   1.217   1.712  0.3306 -0.4166  0.1677
  424SOL    HW1 1271   0.649   1.233   1.657  1.3840  1.1746  1.5264
  424SOL    HW2 1272   0.770   1.300   1.756 -0.1066  1.9870 -0.2046
  425SOL     OW 1273   2.732   2.766   2.097 -0.3564 -0.4439 -0.0945
  425SOL    HW1 1274   2.742   2.800   1.999 -1.9075 -0.4092 -1.5676
  425SOL    HW2 1275   2.710   2.666   2.091  0.7161  2.4252  0.1647
  426SOL     OW 1276   2.222   2.727   0.564 -0.5953 -0.5472 -0.1806
  426SOL    HW1 1277   2.135   2.773   0.585 -1.6125 -1.2232  0.2571
  426SOL    HW2 1278   2.274   2.772   0.490  0.5747  2.7433  1.2612
  427SOL     OW 1279   0.518   0.953   2.780  0.1046 -0.2375  0.2816
  427SOL    HW1 1280   0.513   0.984   2.680 -0.8360  0.9677 -5.2528
  427SOL    HW2 1281   0.592   0.994   2.829 -2.5471  1.7686  0.9139
  428SOL     OW 1282   2.108   1.227   0.211 -0.3669  0.3955  0.0343
  428SOL    HW1 1283   2.017   1.223   0.170 -0.2167  0.3971 -3.0802
  428SOL    HW2 1284   2.156   1.138   0.223  1.4837  2.1332  1.6506
  429SOL     OW 1285   3.100   0.048   0.427 -0.0685  0.4931 -0.3348
  429SOL    HW1 1286   0.052   0.131   0.453  2.1181  1.4853 -1.0842
  429SOL    HW2 1287   3.036   0.017   0.500 -0.9541 -2.6261 -0.0225
  430SOL     OW 1288   0.600   2.890   2.313  0.1204 -0.3148  0.0093
  430SOL    HW1 1289   0.624   2.985   2.341 -2.5200 -0.4248  1.8629
  430SOL    HW2 1290   0.550   2.887   2.222 -1.3392 -0.3013 -0.8372
  431SOL     OW 1291   2.787   1.187   1.392 -0.4767  0.0527  0.0271
  431SOL    HW1 1292   2.711   1.252   1.394  0.6094  0.9695 -2.2920
  431SOL    HW2 1293   2.875   1.230   1.425  3.4558 -0.8983  1.2521
  432SOL     OW 1294   1.949   2.479   1.950 -0.1572 -0.5014 -0.3244
  432SOL    HW1 1295   2.032   2.520   1.904 -0.3199 -1.0714  1.0509
  432SOL    HW2 1296   1.945   2.376   1.955  1.4927 -1.6396  1.5536
  433SOL     OW 1297   1.081   1.920   0.163 -0.3111 -0.7967  0.6610
  433SOL    HW1 1298   1.046   1.825   0.149 -0.8336  2.5855 -1.2551
  433SOL    HW2 1299   1.039   1.990   0.097 -0.5429  0.6121 -1.8066
  434SOL     OW 1300   0.331   2.247   2.608  0.1088 -0.2985 -0.1754
  434SOL    HW1 1301   0.368   2.312   2.678 -1.4034 -2.4399 -1.6193
  434SOL    HW2 1302   0.354   2.274   2.515  1.8381 -1.3566  1.5076
  435SOL     OW 1303   0.612   0.677   0.267  0.2613  0.2666 -0.1152
  435SOL    HW1 1304   0.584   0.643   0.177  0.4342  0.4484  1.5409
  435SOL    HW2 1305   0.554   0.760   0.289  1.7943 -0.0898  0.9437
  436SOL     OW 1306   0.291   2.775   1.438 -0.4521 -0.0048 -0.0897
  436SOL    HW1 1307   0.348   2.699   1.406 -1.2857  1.9602 -0.5757
  436SOL    HW2 1308   0.205   2.788   1.378 -1.6999 -0.2707 -2.8606
  437SOL     OW 1309   1.063   2.057   1.406 -0.1444 -0.0092 -0.1067
  437SOL    HW1 1310   1.096   2.083   1.498 -0.7333  0.3068 -0.7888
  437SOL    HW2 1311   1.094   2.124   1.334  1.8991  2.2784  1.5431
  438SOL     OW 1312   0.100   1.802   0.911  0.2094 -0.5981 -0.5924
  438SOL    HW1 1313   0.176   1.855   0.956  0.6365 -1.9201  0.0575
  438SOL    HW2 1314   0.039   1.869   0.859 -2.5046  0.9973 -1.1020
  439SOL     OW 1315   0.337   0.420   1.211 -0.2875 -1.2478  0.1054
  439SOL    HW1 1316   0.241   0.401   1.241  0.8412 -0.1417 -0.1334
  439SOL    HW2 1317   0.395   0.336   1.198  0.4455 -0.5074  0.1815
  440SOL     OW 1318   3.006   2.779   2.261 -0.2996  0.6278  0.0128
  440SOL    HW1 1319   2.975   2.707   2.331  1.3721 -0.5120  1.2726
  440SOL    HW2 1320   2.930   2.839   2.232 -0.1798  0.6886 -0.0114
  441SOL     OW 1321   0.066   0.563   1.523 -0.0150 -0.5823  0.1905
  441SOL    HW1 1322   0.046   0.660   1.541  0.0124 -2.0878 -2.1796
  441SOL    HW2 1323   3.098   0.514   1.572  0.7220  1.5792 -0.4377
  442SOL     OW 1324   1.897   2.317   3.016  0.9481  0.1432 -0.3347
  442SOL    HW1 1325   1.979   2.262   3.022 -0.0637  2.9171 -0.3023
  442SOL    HW2 1326   1.877   2.359   0.006  0.8222 -0.4927 -1.9514
  443SOL     OW 1327   0.404   1.241   3.057  0.6026  0.0721  0.0188
  443SOL    HW1 1328   0.389   1.148   3.017  0.3445 -0.7197 -0.0047
  443SOL    HW2 1329   0.320   1.284   3.093 -2.5665 -0.6704  0.0387
  444SOL     OW 1330   1.277   1.479   1.838 -0.5200 -0.0175  0.4669
  444SOL    HW1 1331   1.186   1.502   1.795 -2.6403 -0.3199 -2.2793
  444SOL    HW2 1332   1.275   1.497   1.941 -0.7322 -0.0745 -0.5287
  445SOL     OW 1333   0.091   0.067   0.964 -0.0199 -0.2798 -0.1623
  445SOL    HW1 1334   0.119   0.164   0.961 -1.2577  0.5395 -1.0753
  445SOL    HW2 1335   0.129   0.016   1.044  2.5993 -3.5169  1.2826
  446SOL     OW 1336   2.552   0.729   1.267  0.2676  0.2998 -0.3409
  446SOL    HW1 1337   2.602   0.796   1.319 -0.8702 -1.4717 -1.8883
  446SOL    HW2 1338   2.478   0.779   1.212 -0.3625  0.7330 -2.2789
  447SOL     OW 1339   0.343   0.785   0.078 -0.2087  0.2453 -0.2292
  447SOL    HW1 1340   0.384   0.693   0.063  2.0556  1.3064 -0.9415
  447SOL    HW2 1341   0.316   0.795   0.179 -1.9621  0.9529  4.3171
  448SOL     OW 1342   1.280   2.299   1.713  0.2944 -0.2596 -0.1981
  448SOL    HW1 1343   1.315   2.309   1.809  1.7136  0.9678 -0.6077
  448SOL    HW2 1344   1.306   2.386   1.662 -0.3303 -0.3805 -2.6887
  449SOL     OW 1345   1.302   1.092   0.530  0.1036  0.1839 -0.2691
  449SOL    HW1 1346   1.286   1.191   0.531  0.3645  0.1199 -1.9834
  449SOL    HW2 1347   1.242   1.042   0.591  1.5078 -0.1494 -2.6099
  450SOL     OW 1348   2.545   1.693   1.889  0.5599  0.2962 -0.0901
  450SOL    HW1 1349   2.643   1.725   1.866  3.3173 -0.3934 -0.8420
  450SOL    HW2 1350   2.492   1.771   1.930  1.7290  0.3049 -1.6124
  451SOL     OW 1351   2.622   1.446   2.923  0.0683 -0.1631 -0.3473
  451SOL    HW1 1352   2.552   1.412   2.859  1.9546  1.0999 -1.0374
  451SOL    HW2 1353   2.680   1.369   2.959 -1.6191  1.4602 -0.9473
  452SOL     OW 1354   1.709   0.660   1.196  0.0867  0.5569 -0.1674
  452SOL    HW1 1355   1.628   0.603   1.183  0.6352  0.4260 -0.7440
  452SOL    HW2 1356   1.687   0.732   1.263 -0.9203  0.4174 -1.6391
  453SOL     OW 1357   1.948   1.139   1.020  0.5315 -0.2443 -0.0444
  453SOL    HW1 1358   1.848   1.121   1.047 -3.2180  1.4839  2.3409
  453SOL    HW2 1359   1.963   1.240   1.028 -0.6866  0.0544  1.0356
  454SOL     OW 1360   2.888   1.043   0.408 -0.2149 -0.2746 -0.0840
  454SOL    HW1 1361   2.850   0.957   0.448 -0.4221  0.7752 -0.2428
  454SOL    HW2 1362   2.809   1.103   0.404  1.2774  1.2452 -1.6489
  455SOL     OW 1363   2.599   1.662   1.127  0.2483  0.1578 -0.4577
  455SOL    HW1 1364   2.566   1.587   1.063 -1.2608 -0.2787 -1.3720
  455SOL    HW2 1365   2.700   1.680   1.129  0.8337 -0.0057 -1.6613
  456SOL     OW 1366   0.796   3.019   1.253 -0.3972 -0.0809 -0.3506
  456SOL    HW1 1367   0.701   3.038   1.287  0.4580  0.0009  0.0219
  456SOL    HW2 1368   0.864   3.013   1.328 -2.5380 -1.3860 -0.4105
  457SOL     OW 1369   1.849   2.902   0.755  0.0338  0.3885 -0.5810
  457SOL    HW1 1370   1.828   2.821   0.699  0.3195  0.3824  1.4545
  457SOL    HW2 1371   1.772   2.912   0.825 -1.5223 -2.8438  0.3440
  458SOL     OW 1372   2.517   0.287   0.698 -0.4729  0.0394  0.0595
  458SOL    HW1 1373   2.530   0.230   0.779 -1.0538  0.8797 -3.1449
  458SOL    HW2 1374   2.529   0.385   0.727 -1.0131 -0.2609 -0.2174
  459SOL     OW 1375   1.987   0.594   2.909 -0.3951 -0.1271  0.0743
  459SOL    HW1 1376   1.962   0.682   2.955 -2.0374  1.6897  5.4124
  459SOL    HW2 1377   1.993   0.518   2.975  0.0714  1.2991  0.7115
  460SOL     OW 1378   3.040   2.711   2.691 -0.1735  0.4791 -0.2347
  460SOL    HW1 1379   3.011   2.804   2.700  0.6686 -4.4065  0.5546
  460SOL    HW2 1380   2.961   2.649   2.719 -1.4680 -0.2885  0.6145
  461SOL     OW 1381   0.765   1.690   0.190 -0.6789  0.3287 -0.5872
  461SOL    HW1 1382   0.715   1.704   0.272  2.1469  1.3288  0.9848
  461SOL    HW2 1383   0.704   1.671   0.111  0.4070  1.3876  1.2196
  462SOL     OW 1384   2.321   2.272   0.872 -0.1711 -0.0146 -0.6738
  462SOL    HW1 1385   2.311   2.351   0.802 -1.1423  2.5236 -0.8381
  462SOL    HW2 1386   2.300   2.299   0.972  0.7310  0.7680 -4.2368
  463SOL     OW 1387   0.041   0.551   0.454  0.5804 -0.2825  0.2166
  463SOL    HW1 1388   0.110   0.613   0.488 -0.2459 -1.6037  0.5769
  463SOL    HW2 1389   0.006   0.588   0.364 -0.4505 -1.9109 -1.7196
  464SOL     OW 1390   0.929   2.569   0.455  0.9884  1.1000  0.2142
  464SOL    HW1 1391   0.863   2.601   0.530  0.5305  0.7443 -0.1730
  464SOL    HW2 1392   0.891   2.575   0.361 -0.7558  0.5509  1.3029
  465SOL     OW 1393   2.507   0.818   0.580  0.1546 -0.2728  0.5217
  465SOL    HW1 1394   2.419   0.852   0.609  1.2001 -0.1260 -0.7286
  465SOL    HW2 1395   2.509   0.820   0.476 -1.8215 -1.5159 -1.0422
  466SOL     OW 1396   2.123   3.001   0.032  0.2989 -0.2937  0.6655
  466SOL    HW1 1397   2.173   3.087   0.012  0.3949 -1.1585 -2.1952
  466SOL    HW2 1398   2.117   2.943   3.049  0.0387 -0.5603  1.0010
  467SOL     OW 1399   1.199   0.350   1.863 -0.3615 -0.6013 -0.2410
  467SOL    HW1 1400   1.115   0.355   1.928 -0.3243 -1.8804  0.8458
  467SOL    HW2 1401   1.278   0.407   1.890 -0.6196  1.5357 -0.8882
  468SOL     OW 1402   3.019   0.542   2.109 -0.2607  0.1282  0.0601
  468SOL    HW1 1403   3.058   0.450   2.137  1.1373 -2.3477  1.5358
  468SOL    HW2 1404   3.075   0.581   2.030 -2.7634  0.7981 -0.9087
  469SOL     OW 1405   0.677   0.034   2.756  0.3529 -0.9141  0.2653
  469SOL    HW1 1406   0.688   3.043   2.794  1.7456 -1.0998 -0.3852
  469SOL    HW2 1407   0.575   0.040   2.746 -0.7754 -0.9802 -1.2167
  470SOL     OW 1408   1.608   1.415   2.262  0.1200 -0.3912 -0.5560
  470SOL    HW1 1409   1.525   1.438   2.318  2.3188  0.9565  1.0598
  470SOL    HW2 1410   1.589   1.430   2.163 -0.2624  2.7039  2.5777
  471SOL     OW 1411   2.791   1.228   2.985 -0.0810 -0.2801 -0.5444
  471SOL    HW1 1412   2.855   1.161   2.945 -0.3944  3.0038  1.0095
  471SOL    HW2 1413   2.824   1.275   3.067 -0.8270 -0.7244 -1.0981
  472SOL     OW 1414   0.243   2.673   0.338 -0.5650  0.4060  0.4612
  472SOL    HW1 1415   0.189   2.752   0.372 -3.0045  1.2004 -0.7764
  472SOL    HW2 1416   0.306   2.636   0.406 -1.7275  3.3533 -5.4405
  473SOL     OW 1417   0.760   0.230   2.944 -0.2929  0.2143  0.5070
  473SOL    HW1 1418   0.685   0.236   3.014  1.3753 -1.7630 -0.9837
  473SOL    HW2 1419   0.739   0.150   2.884 -0.3655  1.1416 -0.9322
  474SOL     OW 1420   1.703   0.016   2.195  0.0975  0.0029  0.2118
  474SOL    HW1 1421   1.635   0.057   2.131 -2.1064  2.6959  0.1179
  474SOL    HW2 1422   1.661   3.099   2.285  0.2487  1.0408 -0.7554
  475SOL     OW 1423   0.800   2.645   0.218 -0.0411  0.7497 -0.0270
  475SOL    HW1 1424   0.894   2.685   0.221  0.9670 -1.4291 -1.2803
  475SOL    HW2 1425   0.728   2.711   0.243  0.5742 -0.0202 -2.6129
  476SOL     OW 1426   0.476   0.799   0.712 -0.0708  0.7816  0.2786
  476SOL    HW1 1427   0.425   0.876   0.670 -1.0417 -1.3094 -2.4445
  476SOL    HW2 1428   0.565   0.785   0.667  0.1807  0.3631  3.1221
  477SOL     OW 1429   1.882   2.048   1.554  0.1185  0.1777  0.0161
  477SOL    HW1 1430   1.812   1.981   1.599 -0.4891  1.3754 -2.7789
  477SOL    HW2 1431   1.946   2.087   1.625 -0.2789 -0.3086  0.1746
  478SOL     OW 1432   0.421   1.182   2.122  0.0958 -0.0815  0.0323
  478SOL    HW1 1433   0.450   1.093   2.078 -1.2006 -2.8246  0.9557
  478SOL    HW2 1434   0.329   1.210   2.080 -1.7015  1.8671 -1.2440
  479SOL     OW 1435   0.746   3.084   0.772  0.2242 -0.4935  0.1795
  479SOL    HW1 1436   0.766   0.074   0.730  1.0265 -1.0266 -1.7259
  479SOL    HW2 1437   0.646   3.064   0.753 -1.5346 -0.4239  0.5081
  480SOL     OW 1438   2.351   2.646   2.850  0.4256 -0.3738  0.0231
  480SOL    HW1 1439   2.299   2.572   2.900 -0.8391 -2.2483 -1.8250
  480SOL    HW2 1440   2.351   2.629   2.752  3.8828  0.7159 -1.6658
  481SOL     OW 1441   2.774   0.584   1.230 -0.6297 -0.0302  0.0426
  481SOL    HW1 1442   2.686   0.629   1.246  0.4606  0.2259 -0.5385
  481SOL    HW2 1443   2.808   0.541   1.315 -1.0584 -2.9857 -1.3695
  482SOL     OW 1444   1.443   2.550   1.863 -0.3101  0.5836 -0.0638
  482SOL    HW1 1445   1.540   2.542   1.821  2.6190 -0.5615  2.6172
  482SOL    HW2 1446   1.431   2.493   1.943  0.2877  2.1351 -1.4401
  483SOL     OW 1447   0.201   1.617   2.745  0.2832  0.9332 -0.0464
  483SOL    HW1 1448   0.226   1.607   2.648 -1.0688  2.3865  0.9365
  483SOL    HW2 1449   0.129   1.560   2.781 -0.8038  0.1743  2.3171
  484SOL     OW 1450   1.194   2.080   2.319  0.1435 -0.3202 -0.3821
  484SOL    HW1 1451   1.219   2.087   2.221 -0.8299  1.0886 -1.6361
  484SOL    HW2 1452   1.224   2.160   2.378  1.9664 -1.1141 -0.1383
  485SOL     OW 1453   2.932   0.226   2.463  0.2978 -0.0919  0.2422
  485SOL    HW1 1454   2.978   0.306   2.417  1.3340  1.1607 -0.1690
  485SOL    HW2 1455   2.974   0.144   2.426  0.6986  2.6039 -0.3434
  486SOL     OW 1456   1.730   3.006   0.431 -0.0893  0.0177 -0.1747
  486SOL    HW1 1457   1.723   3.091   0.492  0.1908  1.2096  1.7547
  486SOL    HW2 1458   1.645   2.966   0.393 -1.3599 -0.2167 -0.4957
  487SOL     OW 1459   1.267   2.650   1.156  0.4049  0.3044 -0.9364
  487SOL    HW1 1460   1.340   2.651   1.086 -2.5813 -0.0815 -2.5867
  487SOL    HW2 1461   1.206   2.729   1.138  1.1751 -1.3821 -0.3911
  488SOL     OW 1462   1.987   0.870   0.708  0.2202  0.1442  0.0066
  488SOL    HW1 1463   2.041   0.812   0.768 -0.3587 -1.0269 -1.2343
  488SOL    HW2 1464   2.016   0.967   0.715 -1.4861 -0.1343  0.2152
  489SOL     OW 1465   1.085   2.797   1.384 -0.3194 -0.3701 -0.2272
  489SOL    HW1 1466   1.067   2.707   1.420  2.4469  1.9108 -0.3997
  489SOL    HW2 1467   1.164   2.838   1.427 -1.7824 -2.2327 -0.4988
  490SOL     OW 1468   0.970   0.903   0.463 -0.0861  0.0127 -0.5267
  490SOL    HW1 1469   1.054   0.902   0.522 -1.7358  1.2774 -1.2752
  490SOL    HW2 1470   0.969   0.829   0.398  2.6119 -1.3573  4.1735
  491SOL     OW 1471   1.493   2.849   0.216 -0.1797 -0.2024  0.4816
  491SOL    HW1 1472   1.442   2.934   0.235  1.1643 -0.6308  0.8776
  491SOL    HW2 1473   1.430   2.776   0.173 -2.8198 -0.1375 -0.9652
  492SOL     OW 1474   1.329   1.219   2.165  0.3544  0.5621  0.5449
  492SOL    HW1 1475   1.282   1.306   2.150  1.4126 -0.2590 -0.4951
  492SOL    HW2 1476   1.268   1.141   2.168  1.4221  0.8012 -0.7097
  493SOL     OW 1477   0.016   1.916   0.308  0.3193  0.2320 -0.1826
  493SOL    HW1 1478   3.070   1.828   0.327  1.7931  1.6919  0.1869
  493SOL    HW2 1479   0.103   1.919   0.352 -2.5310  0.0011  0.3345
  494SOL     OW 1480   2.195   1.459   0.367 -0.3136  0.2341  0.2724
  494SOL    HW1 1481   2.104   1.483   0.408  0.7326  1.5932 -2.6694
  494SOL    HW2 1482   2.196   1.364   0.331 -1.8220 -1.0996 -0.3795
  495SOL     OW 1483   2.921   1.027   2.811 -0.2481 -0.0896  0.2987
  495SOL    HW1 1484   2.908   0.994   2.713 -0.4066 -2.4721  1.0322
  495SOL    HW2 1485   3.022   1.032   2.827 -0.6144 -2.3766 -0.7517
  496SOL     OW 1486   2.850   3.018   2.365 -0.2426 -0.2977  0.1059
  496SOL    HW1 1487   2.784   3.087   2.332  0.0645 -1.6487  0.1954
  496SOL    HW2 1488   2.798   2.933   2.385  1.7527  0.4920 -1.0204
  497SOL     OW 1489   2.646   0.943   0.773 -0.3000  0.2765  0.3174
  497SOL    HW1 1490   2.598   0.888   0.699 -0.0457  2.0010  0.6505
  497SOL    HW2 1491   2.670   1.034   0.741 -1.1954  0.0422  2.0204
  498SOL     OW 1492   0.043   2.582   0.050 -0.2010 -0.1355  0.4896
  498SOL    HW1 1493   0.124   2.549   0.101 -0.0439  1.8130  1.3071
  498SOL    HW2 1494   0.067   2.625   3.061 -1.6959  1.5624 -1.0322
  499SOL     OW 1495   1.397   2.623   0.916  0.0298 -0.0321  0.1940
  499SOL    HW1 1496   1.454   2.659   0.835  0.3297  4.1331 -3.3501
  499SOL    HW2 1497   1.313   2.579   0.877  0.5776 -1.7703  0.7726
  500SOL     OW 1498   1.089   0.414   2.599  0.2916 -0.3815 -0.2191
  500SOL    HW1 1499   0.993   0.393   2.627 -0.1417  0.4859  0.5607
  500SOL    HW2 1500   1.114   0.508   2.631  0.1407 -1.4306  0.5880
  501SOL     OW 1501   1.050   0.139   1.485  0.2907 -0.0365  0.4530
  501SOL    HW1 1502   1.140   0.110   1.445 -3.5058 -2.4316 -0.2305
  501SOL    HW2 1503   0.999   0.053   1.494  4.1946  1.0067 -0.2776
  502SOL     OW 1504   3.045   0.272   2.162  0.8584 -0.4478 -0.0288
  502SOL    HW1 1505   0.024   0.251   2.106  0.7986  2.5556  2.7945
  502SOL    HW2 1506   3.084   0.323   2.243  3.5218 -0.5433 -2.8481
  503SOL     OW 1507   1.788   2.145   2.186 -0.2717  0.0523 -0.8899
  503SOL    HW1 1508   1.725   2.171   2.264  0.2012 -1.7951  0.5341
  503SOL    HW2 1509   1.754   2.071   2.126  1.7659  0.4386  0.4252
  504SOL     OW 1510   2.197   2.938   1.628  0.5749 -0.2451 -0.1818
  504SOL    HW1 1511   2.204   2.976   1.725 -0.2569  0.8753  0.2623
  504SOL    HW2 1512   2.292   2.929   1.588  1.7855 -3.5298 -2.2133
  505SOL     OW 1513   2.750   1.137   1.741 -0.2493  0.2553  0.0127
  505SOL    HW1 1514   2.846   1.122   1.705  0.1416  0.4979 -0.9608
  505SOL    HW2 1515   2.731   1.237   1.731  0.7943  0.5077 -0.2685
  506SOL     OW 1516   0.246   1.539   2.487 -0.3389 -0.0371  0.1203
  506SOL    HW1 1517   0.187   1.468   2.442  0.4686  1.7944 -2.0530
  506SOL    HW2 1518   0.335   1.533   2.440 -0.7091 -0.3775  1.1309
  507SOL     OW 1519   0.315   2.979   1.630 -0.8528  0.6770 -0.0791
  507SOL    HW1 1520   0.294   3.074   1.606  1.4294 -2.3975  0.6628
  507SOL    HW2 1521   0.307   2.913   1.550  2.5999 -0.1386 -4.0987
  508SOL     OW 1522   1.415   0.709   1.565 -0.1272 -0.0317 -1.0514
  508SOL    HW1 1523   1.396   0.810   1.544 -0.6188  2.4666 -1.2824
  508SOL    HW2 1524   1.510   0.680   1.541  1.2008  1.1387 -0.5227
  509SOL     OW 1525   1.238   2.001   1.036  0.7352  0.1460  0.1100
  509SOL    HW1 1526   1.196   2.071   1.101  0.8474 -0.5772  0.3928
  509SOL    HW2 1527   1.204   2.020   0.940 -0.0817  1.5644 -1.4494
  510SOL     OW 1528   2.605   1.175   2.816 -0.2544  0.4646  0.8527
  510SOL    HW1 1529   2.563   1.087   2.837 -2.2994  1.2650  2.1890
  510SOL    HW2 1530   2.678   1.194   2.891  0.2701  1.2190  3.3534
  511SOL     OW 1531   0.584   1.320   1.334  0.3920  0.1785 -0.0521
  511SOL    HW1 1532   0.547   1.270   1.414  0.8259 -1.0176 -0.5862
  511SOL    HW2 1533   0.533   1.292   1.248  2.0679  0.2115 -1.4481
  512SOL     OW 1534   2.699   2.604   0.541 -0.1862 -0.1634 -0.0940
  512SOL    HW1 1535   2.695   2.511   0.584  1.1208  0.4477 -1.0137
  512SOL    HW2 1536   2.721   2.598   0.443 -0.2527  0.9039 -0.2445
  513SOL     OW 1537   0.384   1.712   2.924 -0.1875  0.3536 -0.2773
  513SOL    HW1 1538   0.342   1.754   3.008 -1.5624 -0.7110 -2.0917
  513SOL    HW2 1539   0.317   1.667   2.862 -0.6307  1.4292 -0.4269
  514SOL     OW 1540   0.099   2.646   2.900 -0.7193 -0.5291 -0.7147
  514SOL    HW1 1541   0.039   2.654   2.823 -1.2482  0.5088  2.2989
  514SOL    HW2 1542   0.123   2.738   2.937 -0.3285 -0.4777 -2.7934
  515SOL     OW 1543   1.519   1.051   2.258 -0.5032 -0.7384  0.1264
  515SOL    HW1 1544   1.468   1.133   2.230  1.6382  1.7991 -2.1973
  515SOL    HW2 1545   1.494   1.016   2.351 -0.8613  0.3628 -0.4141
  516SOL     OW 1546   2.089   2.180   0.754 -0.1844  0.2087 -0.5643
  516SOL    HW1 1547   2.119   2.093   0.709  0.7009 -0.2622  0.4109
  516SOL    HW2 1548   2.166   2.221   0.800 -0.9963  1.5615 -2.2152
  517SOL     OW 1549   1.334   1.381   0.519 -0.3570  0.3797  0.2010
  517SOL    HW1 1550   1.411   1.378   0.584  0.7164  0.4524  0.1076
  517SOL    HW2 1551   1.361   1.427   0.432 -1.8030 -1.7066 -0.6917
  518SOL     OW 1552   2.190   2.416   2.115  0.4188 -0.1540 -0.3129
  518SOL    HW1 1553   2.112   2.475   2.150 -2.5206 -1.1816  1.2469
  518SOL    HW2 1554   2.273   2.471   2.100 -0.0996 -0.1902  1.6329
  519SOL     OW 1555   1.822   2.189   1.322  0.2534 -0.5765 -0.1131
  519SOL    HW1 1556   1.843   2.131   1.409 -1.0035 -3.5965  1.4909
  519SOL    HW2 1557   1.800   2.284   1.350  1.0809  0.5178  0.7778
  520SOL     OW 1558   2.665   2.388   2.590  0.4674 -0.5205 -0.3925
  520SOL    HW1 1559   2.703   2.377   2.495  0.0514 -0.6573 -0.3005
  520SOL    HW2 1560   2.591   2.319   2.602 -2.0033 -1.4407  1.8087
  521SOL     OW 1561   0.182   1.265   2.019  0.4586  0.4287 -0.1065
  521SOL    HW1 1562   0.091   1.270   1.968 -0.4991 -1.3224 -0.5959
  521SOL    HW2 1563   0.230   1.349   1.995 -1.2004  1.9082  0.8515
  522SOL     OW 1564   0.591   0.358   2.338 -0.2562 -0.4164 -0.1033
  522SOL    HW1 1565   0.638   0.389   2.254  0.6381 -1.2619  2.6545
  522SOL    HW2 1566   0.591   0.260   2.353  1.6427  1.9509  1.4140
  523SOL     OW 1567   0.680   2.222   0.886 -0.1389 -0.0302 -0.0957
  523SOL    HW1 1568   0.622   2.141   0.896  1.4992  0.1491  1.0768
  523SOL    HW2 1569   0.661   2.272   0.800 -1.6569 -2.8710  0.0917
  524SOL     OW 1570   1.895   2.804   0.395  0.8388 -0.2986 -0.3837
  524SOL    HW1 1571   1.984   2.810   0.343 -1.1680  0.3967  1.2946
  524SOL    HW2 1572   1.851   2.895   0.411 -1.3026 -0.4487 -0.1250
  525SOL     OW 1573   2.416   0.512   1.551  0.4610 -0.4345 -0.8386
  525SOL    HW1 1574   2.399   0.492   1.455  0.4960 -2.0445  1.5632
  525SOL    HW2 1575   2.500   0.463   1.574  3.7425 -0.3914 -0.0297
  526SOL     OW 1576   1.125   2.665   0.741  0.0830  0.1952 -0.1379
  526SOL    HW1 1577   1.077   2.574   0.734  3.0721  0.4306  2.4202
  526SOL    HW2 1578   1.197   2.665   0.671 -0.2145  0.4726  0.0140
  527SOL     OW 1579   2.536   2.604   0.239  0.2777  0.0218 -0.3781
  527SOL    HW1 1580   2.470   2.648   0.299 -0.3003 -2.8732  0.2315
  527SOL    HW2 1581   2.479   2.535   0.191 -1.8894  1.8218 -1.2758
  528SOL     OW 1582   2.423   0.134   0.262 -0.0107  0.5975  0.6843
  528SOL    HW1 1583   2.510   0.076   0.262 -0.3093 -2.3930  0.8898
  528SOL    HW2 1584   2.389   0.159   0.354 -2.5026  2.7956 -0.2427
  529SOL     OW 1585   1.395   1.484   2.429 -0.1358  0.1165  0.3405
  529SOL    HW1 1586   1.481   1.538   2.453  0.5056  1.9034  1.3863
  529SOL    HW2 1587   1.330   1.549   2.388 -1.9665  1.2302 -0.5220
  530SOL     OW 1588   2.196   0.696   0.104 -0.2219 -0.1914  0.4324
  530SOL    HW1 1589   2.162   0.601   0.094 -2.3613 -0.8428 -0.7553
  530SOL    HW2 1590   2.290   0.688   0.146  1.5837  1.1401  2.0988
  531SOL     OW 1591   1.552   1.014   2.994  0.3593  0.5932  0.1653
  531SOL    HW1 1592   1.550   0.977   3.090 -0.7666 -0.6400 -2.0569
  531SOL    HW2 1593   1.454   1.030   2.959 -2.0767 -1.3477  0.6215
  532SOL     OW 1594   1.777   0.528   0.716 -0.6455 -0.2132  0.4995
  532SOL    HW1 1595   1.874   0.497   0.722  1.0021  1.9206 -1.5544
  532SOL    HW2 1596   1.730   0.474   0.646  0.4699  2.3416 -0.5833
  533SOL     OW 1597   0.917   0.674   2.046 -0.6062  0.0208  0.2185
  533SOL    HW1 1598   0.899   0.694   2.147  0.3938  0.1888  0.9845
  533SOL    HW2 1599   0.860   0.730   1.985 -0.6633  0.6297 -0.7908
  534SOL     OW 1600   1.493   0.366   2.655 -0.4081 -0.0203 -0.3234
  534SOL    HW1 1601   1.575   0.323   2.697  1.1614 -3.2674  0.4244
  534SOL    HW2 1602   1.414   0.358   2.717 -0.6768 -0.9102  1.2546
  535SOL     OW 1603   0.416   0.299   0.406  0.5636 -0.3368 -0.1462
  535SOL    HW1 1604   0.404   0.212   0.460 -1.2773  0.1221 -0.9670
  535SOL    HW2 1605   0.346   0.306   0.332  0.8756 -0.2675  0.9182
  536SOL     OW 1606   0.865   0.192   0.609 -0.5632 -0.3706 -0.0484
  536SOL    HW1 1607   0.795   0.193   0.529 -0.8539 -0.8360 -1.7478
  536SOL    HW2 1608   0.890   0.289   0.626  1.8532 -0.4126  0.2765
  537SOL     OW 1609   1.721   0.788   0.702  0.1525  1.2666  0.0487
  537SOL    HW1 1610   1.810   0.838   0.723  1.3458  2.2156  0.2391
  537SOL    HW2 1611   1.736   0.684   0.709 -0.5935 -5.3180 -3.1197
  538SOL     OW 1612   2.991   2.140   0.003  0.0429  0.1116  0.1603
  538SOL    HW1 1613   2.900   2.141   3.060 -2.3433 -0.6111 -1.6169
  538SOL    HW2 1614   3.040   2.053   3.098  0.7331  0.1465  0.4722
  539SOL     OW 1615   2.097   1.776   0.129 -0.0052  0.1743  0.2153
  539SOL    HW1 1616   2.165   1.749   0.199 -0.7850  0.9497  0.6043
  539SOL    HW2 1617   2.102   1.741   0.038 -0.5620 -1.2281  1.3185
  540SOL     OW 1618   0.400   2.536   1.305  0.5217  0.0961  0.1325
  540SOL    HW1 1619   0.313   2.488   1.293 -1.6834  1.6106 -1.1694
  540SOL    HW2 1620   0.433   2.571   1.216 -0.5054 -0.2994 -0.2199
  541SOL     OW 1621   1.971   0.007   2.121  0.9126 -1.0108  0.2704
  541SOL    HW1 1622   1.955   3.097   2.017 -2.0022  0.7214 -2.6549
  541SOL    HW2 1623   1.883   0.038   2.152 -0.7200 -2.2058 -1.3676
  542SOL     OW 1624   2.856   0.534   2.700 -0.7774 -0.1495 -0.1382
  542SOL    HW1 1625   2.893   0.555   2.795  0.5317  0.0914  3.9856
  542SOL    HW2 1626   2.826   0.613   2.648  2.1838  1.2401  0.5918
  543SOL     OW 1627   0.120   1.235   1.042  0.1290 -0.0422 -0.7983
  543SOL    HW1 1628   0.074   1.287   0.968  0.2528 -0.1357  1.6540
  543SOL    HW2 1629   0.079   1.143   1.065  0.7767 -3.1063 -0.4544
  544SOL     OW 1630   2.799   0.257   1.055 -0.4008  0.2654 -0.5196
  544SOL    HW1 1631   2.701   0.288   1.068 -1.7345  0.0331  1.1470
  544SOL    HW2 1632   2.849   0.318   0.989 -0.4475 -0.3888 -0.4433
  545SOL     OW 1633   1.590   2.427   0.631 -0.0704  0.1561  0.6225
  545SOL    HW1 1634   1.534   2.482   0.565 -2.6436  2.3613 -0.6511
  545SOL    HW2 1635   1.581   2.330   0.613  0.2040  0.1400  2.1121
  546SOL     OW 1636   2.034   2.708   1.623 -0.6931 -0.2104 -0.1250
  546SOL    HW1 1637   2.097   2.628   1.652 -1.1652 -4.7487  2.0354
  546SOL    HW2 1638   2.078   2.800   1.647 -2.0384  0.0342 -0.1561
  547SOL     OW 1639   0.220   0.272   2.015 -0.0273 -0.0204  0.7427
  547SOL    HW1 1640   0.269   0.280   2.104  0.1626  0.0701  2.3142
  547SOL    HW2 1641   0.284   0.286   1.936  1.1767 -1.7577 -1.0000
  548SOL     OW 1642   1.832   1.401   2.823  0.1446 -0.7376  0.2557
  548SOL    HW1 1643   1.777   1.349   2.889  1.2130  1.5968 -1.9653
  548SOL    HW2 1644   1.928   1.363   2.815  0.7548  1.5317 -1.3603
  549SOL     OW 1645   0.001   1.195   0.488  0.2007 -0.0828 -0.0955
  549SOL    HW1 1646   3.019   1.141   0.455 -0.5967 -0.8207 -1.6803
  549SOL    HW2 1647   0.040   1.235   0.406  1.3742 -1.4831  3.4472
  550SOL     OW 1648   1.855   2.111   0.868  0.0496 -0.2362 -0.1058
  550SOL    HW1 1649   1.946   2.127   0.828 -3.0111 -0.9265 -0.2481
  550SOL    HW2 1650   1.784   2.173   0.831 -0.4373  0.7676 -1.2270
  551SOL     OW 1651   1.301   0.565   0.825  0.7622 -0.3653  0.2563
  551SOL    HW1 1652   1.208   0.538   0.857 -0.9633 -2.1836  1.7420
  551SOL    HW2 1653   1.364   0.487   0.837 -0.6314 -0.4213  1.5852
  552SOL     OW 1654   2.680   2.792   2.358 -0.4761 -0.1007 -0.0785
  552SOL    HW1 1655   2.687   2.814   2.258  1.3055  1.5095 -2.0154
  552SOL    HW2 1656   2.602   2.730   2.379 -0.5747  2.2672  2.1139
  553SOL     OW 1657   3.099   3.080   2.424  0.2496  0.5536 -0.5968
  553SOL    HW1 1658   0.073   3.030   2.376 -0.4205  0.5370 -1.2717
  553SOL    HW2 1659   3.003   3.047   2.404 -1.0563  1.3883  1.5749
  554SOL     OW 1660   1.062   2.841   1.111  0.0391 -0.2278  0.4745
  554SOL    HW1 1661   0.975   2.885   1.082 -0.7137 -0.0699  1.5038
  554SOL    HW2 1662   1.055   2.804   1.209 -1.2774 -1.1906  1.7123
  555SOL     OW 1663   2.404   2.556   2.159 -0.2944  0.4340 -0.2998
  555SOL    HW1 1664   2.355   2.646   2.151 -1.6879  2.1975 -1.7745
  555SOL    HW2 1665   2.502   2.555   2.126  1.8918  1.2014  1.3591
  556SOL     OW 1666   1.235   0.266   2.796  0.9548  0.2455 -0.3126
  556SOL    HW1 1667   1.191   0.344   2.744 -1.5218  0.9375 -2.7172
  556SOL    HW2 1668   1.222   0.178   2.746  1.7815  3.4020 -1.6847
  557SOL     OW 1669   0.161   1.832   2.410  0.4859 -0.4656  0.7885
  557SOL    HW1 1670   0.213   1.881   2.480  0.6560 -2.4272 -2.8918
  557SOL    HW2 1671   0.201   1.737   2.416  2.3736 -0.9613 -0.3745
  558SOL     OW 1672   2.130   0.889   2.310 -0.7722  0.2676  0.5541
  558SOL    HW1 1673   2.212   0.830   2.291  3.9539  0.2302  1.1357
  558SOL    HW2 1674   2.123   0.970   2.250 -1.9732 -0.6339  1.0142
  559SOL     OW 1675   2.550   2.126   2.325  0.1326  0.0274  0.3944
  559SOL    HW1 1676   2.524   2.222   2.340  1.9603 -0.8207  0.9931
  559SOL    HW2 1677   2.582   2.118   2.231 -0.2530  1.6389  0.2391
  560SOL     OW 1678   2.502   0.981   2.253 -0.1938 -0.0917  0.3656
  560SOL    HW1 1679   2.457   0.886   2.259 -1.5237  0.6775 -0.8454
  560SOL    HW2 1680   2.481   1.026   2.161 -3.4238 -1.5507 -2.0510
  561SOL     OW 1681   0.215   0.306   0.230  0.2781  0.1695  0.1831
  561SOL    HW1 1682   0.125   0.263   0.247 -2.1439  0.5887  0.1308
  561SOL    HW2 1683   0.207   0.386   0.164  1.2279  0.1575 -1.5162
  562SOL     OW 1684   1.026   1.254   1.492 -0.0373 -0.1206  0.1204
  562SOL    HW1 1685   0.981   1.326   1.548  0.6425 -0.6996 -0.0655
  562SOL    HW2 1686   0.976   1.162   1.508  2.2859 -1.7337 -0.7201
  563SOL     OW 1687   1.590   3.020   2.689  0.3891  0.4451 -0.5009
  563SOL    HW1 1688   1.497   3.020   2.735  0.2752  2.3997 -0.7089
  563SOL    HW2 1689   1.631   2.932   2.716  0.5103  1.6723  1.3051
  564SOL     OW 1690   0.225   2.000   1.076 -0.3654 -0.0713  0.0659
  564SOL    HW1 1691   0.233   2.101   1.063  1.1172  0.2489  2.1848
  564SOL    HW2 1692   0.290   1.961   1.145  0.2547  2.3997 -1.3753
  565SOL     OW 1693   0.739   2.448   2.162 -1.0742 -0.4070 -0.5674
  565SOL    HW1 1694   0.758   2.508   2.085  0.6642  2.3090  5.1112
  565SOL    HW2 1695   0.651   2.400   2.151  1.6531  0.1548  0.0308
  566SOL     OW 1696   1.138   2.539   2.223 -0.0686  0.4756  0.0916
  566SOL    HW1 1697   1.062   2.484   2.265 -2.8508 -1.1447  2.7415
  566SOL    HW2 1698   1.115   2.584   2.135  0.0956  2.4294  0.3222
  567SOL     OW 1699   2.214   2.332   1.117 -0.3806  0.2431 -0.2702
  567SOL    HW1 1700   2.113   2.349   1.108 -0.4527 -1.0514  0.3147
  567SOL    HW2 1701   2.232   2.298   1.209  1.1449  2.7563 -2.1929
  568SOL     OW 1702   1.944   0.553   0.433 -0.0787 -0.2806  0.0137
  568SOL    HW1 1703   1.913   0.619   0.359 -1.0711  2.2330  0.7756
  568SOL    HW2 1704   1.935   0.602   0.519  0.0102 -1.5446 -2.1643
  569SOL     OW 1705   2.698   1.741   2.629 -0.9181  0.0486 -0.3710
  569SOL    HW1 1706   2.655   1.676   2.573 -1.2514  1.6791  1.5196
  569SOL    HW2 1707   2.752   1.707   2.715 -0.0490 -1.3876 -0.3441
  570SOL     OW 1708   0.167   0.341   1.004 -0.1924 -0.1761  0.1366
  570SOL    HW1 1709   0.251   0.387   1.043  1.4589 -1.8243 -0.2267
  570SOL    HW2 1710   0.086   0.365   1.060  0.3215 -0.5840  1.7134
  571SOL     OW 1711   2.949   0.478   1.684 -0.1272  0.6333  0.2124
  571SOL    HW1 1712   2.897   0.553   1.732 -1.8462  3.0926 -0.8894
  571SOL    HW2 1713   3.000   0.423   1.754 -0.4537  1.3457 -2.3831
  572SOL     OW 1714   2.739   2.311   0.625  0.2970  0.1419  0.0769
  572SOL    HW1 1715   2.738   2.234   0.696  1.7428 -3.5270  2.6353
  572SOL    HW2 1716   2.759   2.270   0.529 -2.3667  1.8754  0.9081
  573SOL     OW 1717   0.811   0.727   0.069 -0.2264 -0.1119  0.3016
  573SOL    HW1 1718   0.731   0.672   0.040 -1.4277 -1.5905  1.1469
  573SOL    HW2 1719   0.784   0.824   0.081 -0.3502  1.7844  1.1235
  574SOL     OW 1720   2.951   2.990   3.047  0.2309  0.4883  0.4307
  574SOL    HW1 1721   2.890   2.907   3.034 -4.1731 -0.9584 -0.1532
  574SOL    HW2 1722   3.005   2.984   0.031 -0.4561 -0.8688  0.8352
  575SOL     OW 1723   1.195   2.224   1.210  0.5205  0.3401  0.0965
  575SOL    HW1 1724   1.177   2.321   1.229 -1.1306  0.0662 -2.0482
  575SOL    HW2 1725   1.295   2.205   1.200  0.5102 -0.4307 -0.7257
  576SOL     OW 1726   0.742   2.572   1.077 -0.0585 -0.2961 -0.2374
  576SOL    HW1 1727   0.733   2.635   1.157  0.9747 -0.8497 -1.2485
  576SOL    HW2 1728   0.842   2.566   1.057 -0.4580 -1.5487 -0.0281
  577SOL     OW 1729   2.098   1.625   1.194 -0.5709  0.3449 -0.3693
  577SOL    HW1 1730   2.116   1.697   1.265  0.1863  2.4978 -0.3760
  577SOL    HW2 1731   2.112   1.669   1.106  0.6913  2.2099  2.8172
  578SOL     OW 1732   1.652   0.373   0.499 -0.5244 -0.5461  0.0757
  578SOL    HW1 1733   1.639   0.428   0.413  1.5843 -2.4614  0.7741
  578SOL    HW2 1734   1.558   0.341   0.531 -0.1597 -1.3798 -1.5519
  579SOL     OW 1735   2.360   1.445   2.788 -0.4278 -0.3624 -0.1257
  579SOL    HW1 1736   2.379   1.528   2.731 -1.7929  0.5128 -0.2893
  579SOL    HW2 1737   2.365   1.363   2.732 -0.1670  0.7311  0.2448
  580SOL     OW 1738   1.724   0.584   1.882  0.6129  0.2523 -0.3264
  580SOL    HW1 1739   1.723   0.684   1.899 -0.0337 -4.0884  0.1700
  580SOL    HW2 1740   1.736   0.532   1.972  1.3671 -1.8818 -1.3657
  581SOL     OW 1741   0.729   1.041   1.045  0.0744 -0.4722  0.2620
  581SOL    HW1 1742   0.676   1.122   1.082  1.8822  1.7093  2.8181
  581SOL    HW2 1743   0.762   0.989   1.125 -0.3552  1.4674 -0.4968
  582SOL     OW 1744   2.653   0.079   2.274  0.4614  0.2314 -0.0223
  582SOL    HW1 1745   2.550   0.057   2.261 -3.9462 -0.9771 -0.5331
  582SOL    HW2 1746   2.687   0.144   2.199  0.8738  0.2240  0.1957
  583SOL     OW 1747   2.617   0.640   2.161  0.6413  0.1771  0.4588
  583SOL    HW1 1748   2.645   0.561   2.225  1.5523  0.4377 -0.4649
  583SOL    HW2 1749   2.523   0.682   2.190 -3.0956  3.0409  0.2150
  584SOL     OW 1750   1.202   1.747   2.728 -0.4395  0.0141 -0.6825
  584SOL    HW1 1751   1.213   1.788   2.822 -0.5985  1.1977  0.2613
  584SOL    HW2 1752   1.253   1.806   2.663  0.0915  0.2419 -0.4708
  585SOL     OW 1753   0.386   0.014   0.178 -0.0776  0.2111 -0.3308
  585SOL    HW1 1754   0.478   0.040   0.144 -0.4184 -1.6741 -1.6448
  585SOL    HW2 1755   0.322   0.085   0.147 -0.7322  1.5164  1.7992
  586SOL     OW 1756   1.724   2.132   2.568 -0.6005 -0.5995  0.7467
  586SOL    HW1 1757   1.729   2.218   2.624  0.8275  1.1200  0.5281
  586SOL    HW2 1758   1.812   2.082   2.571 -1.8508 -1.9826  1.9497
  587SOL     OW 1759   2.469   2.374   0.546  0.1775 -0.5829  0.4575
  587SOL    HW1 1760   2.414   2.417   0.620 -0.5610 -1.2522 -0.4811
  587SOL    HW2 1761   2.563   2.354   0.572 -2.7816  1.5042 -0.6061
  588SOL     OW 1762   2.527   0.306   1.054  0.1766  0.7106  0.3893
  588SOL    HW1 1763   2.521   0.220   0.996 -0.1593  0.7372  1.5169
  588SOL    HW2 1764   2.472   0.384   1.012 -1.5964  3.2505  1.4836
  589SOL     OW 1765   0.718   0.643   0.649  0.0982  0.0145  0.1674
  589SOL    HW1 1766   0.765   0.722   0.607  1.7375 -0.3892 -0.8844
  589SOL    HW2 1767   0.649   0.604   0.583 -1.8486  0.0023  2.1572
  590SOL     OW 1768   2.167   1.986   0.598 -0.0381  0.2803 -0.5231
  590SOL    HW1 1769   2.227   1.906   0.587 -2.3998  0.4407 -2.7951
  590SOL    HW2 1770   2.169   2.039   0.511 -1.7687 -1.1949  0.3266
  591SOL     OW 1771   0.625   2.346   1.143  0.3508 -0.7696  0.5359
  591SOL    HW1 1772   0.643   2.302   1.051 -1.3794  1.7588 -2.7670
  591SOL    HW2 1773   0.685   2.428   1.143  2.2692 -1.0648  1.2014
  592SOL     OW 1774   1.008   0.647   1.174  0.1852 -0.1494  0.0845
  592SOL    HW1 1775   0.911   0.675   1.151 -1.9131  1.4538 -1.0940
  592SOL    HW2 1776   1.014   0.608   1.267 -0.2431  0.7823  1.5066
  593SOL     OW 1777   0.848   1.213   1.239  0.0354 -0.1054  0.5702
  593SOL    HW1 1778   0.926   1.218   1.298 -3.5569 -0.8092 -1.2422
  593SOL    HW2 1779   0.769   1.273   1.255  0.8868 -0.0856  0.0265
  594SOL     OW 1780   0.857   2.162   0.393  0.0472  0.7471  0.0630
  594SOL    HW1 1781   0.917   2.232   0.344  0.8461 -0.5065 -1.7102
  594SOL    HW2 1782   0.902   2.073   0.379  1.2042  1.6607 -3.9154
  595SOL     OW 1783   1.680   0.304   1.163 -0.1847  0.2956 -0.4233
  595SOL    HW1 1784   1.755   0.334   1.103 -0.9693 -1.0766  2.2144
  595SOL    HW2 1785   1.614   0.381   1.169 -2.0426 -0.6429  0.6377
  596SOL     OW 1786   0.101   1.629   1.175 -0.8157  0.5127  0.5722
  596SOL    HW1 1787   0.025   1.659   1.235  3.2163 -2.4442  0.2346
  596SOL    HW2 1788   0.095   1.676   1.083  2.5276 -0.0627 -3.1065
  597SOL     OW 1789   0.201   2.537   2.374  0.5682 -0.4879 -0.1697
  597SOL    HW1 1790   0.293   2.499   2.361  0.5241  1.1234 -3.5663
  597SOL    HW2 1791   0.202   2.593   2.463  1.3164 -2.5963  2.4462
  598SOL     OW 1792   2.803   2.360   1.925 -0.4583 -0.2815 -0.3956
  598SOL    HW1 1793   2.904   2.379   1.931  1.7140 -1.9103  0.9234
  598SOL    HW2 1794   2.773   2.336   1.830 -0.4929 -0.1992 -2.1252
  599SOL     OW 1795   0.982   0.334   3.097  0.4717 -0.2693 -0.4362
  599SOL    HW1 1796   0.926   0.320   0.086 -1.3538 -0.2397 -0.4333
  599SOL    HW2 1797   0.948   0.273   3.021  1.3551 -1.8067  0.5189
  600SOL     OW 1798   0.497   2.536   3.083  0.4565  0.3995  0.6364
  600SOL    HW1 1799   0.478   2.627   3.049 -0.4458 -0.8350  1.4226
  600SOL    HW2 1800   0.412   2.480   3.063  1.4026 -2.6953  0.8412
  601SOL     OW 1801   0.733   0.641   1.455 -0.7094  0.2011  0.4187
  601SOL    HW1 1802   0.822   0.607   1.485  0.1460  1.8083  0.5061
  601SOL    HW2 1803   0.692   0.574   1.384  0.3659 -1.1604 -4.2458
  602SOL     OW 1804   0.884   2.825   0.745  0.6845 -0.0177  0.0927
  602SOL    HW1 1805   0.948   2.745   0.732  0.2954 -2.6858  2.5174
  602SOL    HW2 1806   0.881   2.857   0.843  0.9864 -0.3078 -1.0897
  603SOL     OW 1807   0.436   0.520   2.489  0.8568  0.2236  0.2366
  603SOL    HW1 1808   0.472   0.451   2.418  0.8293 -1.0968  0.7578
  603SOL    HW2 1809   0.458   0.482   2.579  1.1749 -1.6587 -0.0913
  604SOL     OW 1810   0.674   2.713   1.594 -0.2673 -0.2031 -0.3419
  604SOL    HW1 1811   0.646   2.811   1.590 -0.2415  0.8500 -0.7921
  604SOL    HW2 1812   0.602   2.648   1.571 -0.6469  1.5124  0.9393
  605SOL     OW 1813   1.739   0.850   1.929  0.7013  0.8551 -0.1000
  605SOL    HW1 1814   1.740   0.946   1.894  2.8248  0.6994 -0.3457
  605SOL    HW2 1815   1.688   0.841   2.017  0.9278  4.8273  2.2956
  606SOL     OW 1816   2.506   2.834   2.962 -0.3399  0.1854  0.1644
  606SOL    HW1 1817   2.448   2.763   2.919 -0.1437 -0.8380  0.3489
  606SOL    HW2 1818   2.486   2.931   2.942  2.3680 -2.2220 -0.6282
  607SOL     OW 1819   0.779   0.661   1.002 -0.4686  0.4767  0.3192
  607SOL    HW1 1820   0.776   0.564   1.033 -0.5010 -0.2843 -1.4784
  607SOL    HW2 1821   0.685   0.686   0.968  0.2187  0.2544 -1.6841
  608SOL     OW 1822   0.272   1.979   2.610 -0.2049 -0.1617  0.3489
  608SOL    HW1 1823   0.293   2.078   2.612 -1.2112  0.5270  1.2529
  608SOL    HW2 1824   0.219   1.948   2.689 -1.1778 -1.4204  0.0965
  609SOL     OW 1825   1.306   1.047   0.252  0.4627 -0.1684 -0.0614
  609SOL    HW1 1826   1.312   1.064   0.354  1.0160 -1.0769 -0.0471
  609SOL    HW2 1827   1.268   1.133   0.209 -1.9948  0.4751  1.0006
  610SOL     OW 1828   0.602   0.495   1.270 -0.4867 -0.0695  0.3102
  610SOL    HW1 1829   0.670   0.463   1.201 -2.8874 -1.9364  2.8411
  610SOL    HW2 1830   0.508   0.499   1.237 -0.1052  4.1414  2.4550
  611SOL     OW 1831   1.601   0.908   0.938 -0.4133 -0.7255  0.1320
  611SOL    HW1 1832   1.543   0.990   0.909  2.0739  2.3939 -0.1957
  611SOL    HW2 1833   1.624   0.847   0.864 -2.1360 -0.3089 -0.4682
  612SOL     OW 1834   1.902   1.018   0.284 -0.4527 -0.5847 -0.4473
  612SOL    HW1 1835   1.817   0.998   0.340 -1.4445  1.7098 -1.6666
  612SOL    HW2 1836   1.881   1.072   0.203 -2.1712 -3.1696  4.5105
  613SOL     OW 1837   1.962   0.379   0.223  0.2426 -0.8860 -0.2778
  613SOL    HW1 1838   1.955   0.283   0.256 -0.6420 -0.0366  0.1799
  613SOL    HW2 1839   1.961   0.442   0.301  3.0693 -1.7950  0.2960
  614SOL     OW 1840   2.540   0.052   2.560  0.2320 -0.0160  0.2293
  614SOL    HW1 1841   2.550   0.079   2.464 -0.4902 -1.0004  0.4214
  614SOL    HW2 1842   2.455   3.100   2.564 -0.7467 -1.2258  1.7432
  615SOL     OW 1843   0.895   1.995   0.844  0.6640  0.1433 -0.7819
  615SOL    HW1 1844   0.934   1.899   0.828 -2.2225 -0.5524 -0.3942
  615SOL    HW2 1845   0.862   2.014   0.940 -1.5086 -0.4616  0.3116
  616SOL     OW 1846   1.401   1.148   2.717  0.3488 -0.2838  0.0166
  616SOL    HW1 1847   1.341   1.221   2.673  0.2076  1.3257 -0.6286
  616SOL    HW2 1848   1.345   1.098   2.786  0.6172 -1.4334  0.7582
  617SOL     OW 1849   1.595   0.438   2.987 -0.0296 -0.4655 -0.0002
  617SOL    HW1 1850   1.568   0.533   2.969  2.2801  0.8091  0.9253
  617SOL    HW2 1851   1.691   0.437   3.029  2.9691  1.4814  0.8311
  618SOL     OW 1852   1.470   2.134   2.688 -0.4327  0.2077  0.3009
  618SOL    HW1 1853   1.567   2.126   2.652  1.6251  0.4442 -0.4796
  618SOL    HW2 1854   1.465   2.187   2.774  0.2679  2.2870  3.0973
  619SOL     OW 1855   2.354   1.565   0.785  0.2512 -0.1292  0.1721
  619SOL    HW1 1856   2.412   1.530   0.860 -0.3979  1.5311 -0.0681
  619SOL    HW2 1857   2.352   1.498   0.708 -0.8457 -3.1701 -0.4977
  620SOL     OW 1858   2.122   2.892   2.263  0.2399  0.1353 -0.3112
  620SOL    HW1 1859   2.184   2.959   2.312  2.5540 -0.5243 -1.8038
  620SOL    HW2 1860   2.030   2.936   2.239 -3.0533  0.0956  0.6939
  621SOL     OW 1861   3.036   1.350   0.870 -0.5550  0.2566 -0.1165
  621SOL    HW1 1862   2.966   1.273   0.870  0.3000 -3.2823  0.0456
  621SOL    HW2 1863   3.006   1.436   0.918  3.4202 -1.5824  0.9252
  622SOL     OW 1864   1.679   1.220   2.667  0.5882  0.8108  0.0987
  622SOL    HW1 1865   1.710   1.292   2.733  1.5486  1.8025 -1.4902
  622SOL    HW2 1866   1.582   1.194   2.679  2.1817 -3.7059  2.1920
  623SOL     OW 1867   0.105   2.609   2.101 -0.0042 -0.7342  0.5976
  623SOL    HW1 1868   0.138   2.573   2.193  1.3342 -0.0223 -2.2607
  623SOL    HW2 1869   0.024   2.668   2.120 -0.5555 -0.4947  0.6716
  624SOL     OW 1870   0.704   2.865   2.842  0.3237 -0.7577 -0.7409
  624SOL    HW1 1871   0.763   2.786   2.826 -1.8202  1.1869 -1.9155
  624SOL    HW2 1872   0.605   2.835   2.863  0.0028  1.1452  0.6060
  625SOL     OW 1873   0.357   2.351   2.142 -0.1898  0.4537 -0.2219
  625SOL    HW1 1874   0.409   2.388   2.064  0.9610 -1.4148  0.0568
  625SOL    HW2 1875   0.259   2.330   2.118  1.6353  0.5206  1.8112
  626SOL     OW 1876   0.311   0.040   2.913 -0.0366  0.0798 -0.0839
  626SOL    HW1 1877   0.252   0.117   2.881 -1.8663 -0.4945 -1.0690
  626SOL    HW2 1878   0.389   0.033   2.851  2.6936 -0.8483 -0.7204
  627SOL     OW 1879   2.105   1.663   2.972  0.2504  0.0971  0.5857
  627SOL    HW1 1880   2.162   1.591   3.013  0.7174 -0.6340 -0.5428
  627SOL    HW2 1881   2.114   1.651   2.873 -0.6532 -3.5312 -0.2276
  628SOL     OW 1882   1.347   1.956   0.339 -0.3183  0.2538  0.5189
  628SOL    HW1 1883   1.428   1.903   0.303  1.2159 -1.3088 -0.5169
  628SOL    HW2 1884   1.263   1.924   0.295 -0.7571  2.2087 -0.5299
  629SOL     OW 1885   3.021   0.125   1.683  0.4869  0.6426 -0.2270
  629SOL    HW1 1886   3.058   0.209   1.717  1.4622 -0.5601 -0.0878
  629SOL    HW2 1887   2.936   0.108   1.727  0.8362  0.0364  3.7645
  630SOL     OW 1888   2.023   0.820   1.810  0.1890 -0.1213  0.4827
  630SOL    HW1 1889   1.938   0.799   1.863 -0.6223  0.6524  1.4507
  630SOL    HW2 1890   2.020   0.779   1.719  1.7263 -1.6008  2.5350
  631SOL     OW 1891   1.709   0.189   0.856  0.4521  0.2448  0.7781
  631SOL    HW1 1892   1.785   0.248   0.882  0.6467 -2.5968 -1.9821
  631SOL    HW2 1893   1.719   0.107   0.913 -1.3076 -0.7635  0.4407
  632SOL     OW 1894   2.781   1.116   2.003 -0.4708  0.1789  0.2381
  632SOL    HW1 1895   2.767   1.135   1.900  0.8538 -1.4526 -2.4312
  632SOL    HW2 1896   2.701   1.061   2.033 -0.0522 -1.8604 -1.0377
  633SOL     OW 1897   0.888   0.706   2.593 -0.2615  0.2437 -0.1067
  633SOL    HW1 1898   0.982   0.741   2.561  0.0701  0.0818 -1.2792
  633SOL    HW2 1899   0.891   0.648   2.673 -0.8516  0.8552 -0.5538
  634SOL     OW 1900   0.421   3.041   2.678  0.5066  0.0699 -0.2216
  634SOL    HW1 1901   0.333   3.080   2.648  1.5962  0.5809  0.7262
  634SOL    HW2 1902   0.431   2.948   2.637 -0.6751 -0.5278  0.0343
  635SOL     OW 1903   3.026   1.315   1.439 -0.2923 -0.2706 -0.5505
  635SOL    HW1 1904   2.988   1.396   1.386 -4.0035  1.6806 -1.2408
  635SOL    HW2 1905   3.097   1.351   1.505  0.8643  0.3019  3.0551
  636SOL     OW 1906   0.248   1.809   0.045 -0.0532  0.0521  0.0550
  636SOL    HW1 1907   0.237   1.750   0.127  1.5850  0.6253  1.4826
  636SOL    HW2 1908   0.268   1.906   0.078  0.2463  1.3165  1.7176
  637SOL     OW 1909   2.762   2.477   0.285 -0.3066  0.4771  0.2009
  637SOL    HW1 1910   2.749   2.383   0.318  0.7821  2.2072 -2.3293
  637SOL    HW2 1911   2.674   2.515   0.240 -2.8719  3.7849 -0.9400
  638SOL     OW 1912   2.884   2.797   0.463 -0.0711  0.2396  0.1528
  638SOL    HW1 1913   2.927   2.766   0.373  0.9599  2.8477  0.7525
  638SOL    HW2 1914   2.867   2.713   0.520  2.6628  1.5772 -1.2506
  639SOL     OW 1915   1.257   0.734   3.051  0.7880 -0.6897  0.0535
  639SOL    HW1 1916   1.174   0.677   3.048 -0.2069  1.1442  0.5500
  639SOL    HW2 1917   1.255   0.790   0.038  0.3760 -1.8344  2.2888
  640SOL     OW 1918   1.843   2.225   1.903 -0.3680  0.1005 -0.2449
  640SOL    HW1 1919   1.763   2.223   1.841  1.6120  1.5278 -0.8559
  640SOL    HW2 1920   1.823   2.165   1.981 -1.2259  1.4261  0.7691
  641SOL     OW 1921   2.943   0.039   0.863 -0.1818  0.0313 -0.1600
  641SOL    HW1 1922   2.902   0.132   0.854 -0.2215 -0.6288  0.6419
  641SOL    HW2 1923   3.041   0.051   0.897  4.3028  2.0025 -2.5500
  642SOL     OW 1924   1.065   0.856   1.792  0.4586 -0.6068  0.0997
  642SOL    HW1 1925   1.094   0.946   1.839  2.9941  3.4150 -1.4203
  642SOL    HW2 1926   1.088   0.857   1.691 -0.7459 -1.2840  0.9435
  643SOL     OW 1927   0.737   1.693   2.630  0.2816  0.1161 -0.1327
  643SOL    HW1 1928   0.753   1.600   2.675  0.1109  1.1917  0.2776
  643SOL    HW2 1929   0.636   1.720   2.636 -0.6775 -0.3011 -0.0949
  644SOL     OW 1930   1.250   2.520   2.648  0.0876 -0.3257 -0.1075
  644SOL    HW1 1931   1.343   2.535   2.692  1.0893  1.5790  0.1134
  644SOL    HW2 1932   1.188   2.594   2.682  1.5130 -0.7263 -2.3679
  645SOL     OW 1933   1.727   1.039   1.720  0.3421 -0.0375 -0.1394
  645SOL    HW1 1934   1.655   1.096   1.675  1.5773  3.9072 -2.1981
  645SOL    HW2 1935   1.732   0.952   1.669  0.6639  0.2301 -1.1189
  646SOL     OW 1936   1.041   2.425   2.823 -0.3377 -0.6614 -0.1463
  646SOL    HW1 1937   0.986   2.513   2.821 -2.0616  1.0609  0.1675
  646SOL    HW2 1938   1.123   2.439   2.763  1.3539  0.6167 -0.9856
  647SOL     OW 1939   1.180   2.915   0.435  0.0859  0.0270  0.1271
  647SOL    HW1 1940   1.237   2.995   0.437  2.7652 -2.2421  1.9812
  647SOL    HW2 1941   1.093   2.933   0.484  0.6686  0.7396  0.1914
  648SOL     OW 1942   2.718   2.694   1.411 -0.3419 -0.1411 -0.2552
  648SOL    HW1 1943   2.708   2.602   1.377  0.9754  2.3419  0.0445
  648SOL    HW2 1944   2.703   2.760   1.337  0.4798  0.0605  0.7645
  649SOL     OW 1945   0.621   2.557   2.633 -0.3437  0.4392  0.4160
  649SOL    HW1 1946   0.550   2.502   2.684 -0.6770 -2.0166 -0.4390
  649SOL    HW2 1947   0.663   2.498   2.558  0.4880  1.5011  0.9856
  650SOL     OW 1948   2.840   1.779   2.276  0.1322  0.2548  0.8730
  650SOL    HW1 1949   2.900   1.830   2.337  1.8293 -1.6221 -1.5973
  650SOL    HW2 1950   2.819   1.833   2.189  0.5661  1.7318 -2.1300
  651SOL     OW 1951   2.672   2.516   2.113 -0.2837 -0.1821 -0.3826
  651SOL    HW1 1952   2.716   2.448   2.050  1.0480 -0.7860 -0.9375
  651SOL    HW2 1953   2.688   2.487   2.207 -0.0280 -0.0072  0.6845
  652SOL     OW 1954   2.545   1.997   0.301  0.5722 -0.7459  0.0574
  652SOL    HW1 1955   2.551   1.976   0.400 -0.2154  1.2507  0.5705
  652SOL    HW2 1956   2.480   2.073   0.296  2.7812 -1.5069 -0.8252
  653SOL     OW 1957   2.797   0.975   1.137  0.1031  0.2314  0.3885
  653SOL    HW1 1958   2.770   0.880   1.118 -0.4498  0.5548  1.5496
  653SOL    HW2 1959   2.755   1.014   1.222 -1.8347  0.3175  0.8941
  654SOL     OW 1960   0.839   0.397   2.729 -0.4051 -0.1171 -0.1980
  654SOL    HW1 1961   0.851   0.485   2.779 -0.0262  0.6386 -1.3019
  654SOL    HW2 1962   0.839   0.314   2.793 -2.7981 -2.7386 -0.6286
  655SOL     OW 1963   0.915   0.197   1.201 -0.1860 -0.3249 -0.0257
  655SOL    HW1 1964   0.979   0.242   1.265  0.0025 -0.3697 -1.0981
  655SOL    HW2 1965   0.920   0.097   1.210 -0.8233  2.1605  2.7036
  656SOL     OW 1966   0.513   2.472   1.930  0.6355  0.5182 -0.2425
  656SOL    HW1 1967   0.495   2.414   1.849 -2.1346  2.8387  2.7793
  656SOL    HW2 1968   0.602   2.524   1.932  0.8888 -0.0851  1.8259
  657SOL     OW 1969   2.518   0.854   0.303 -0.1402 -0.0996 -0.4295
  657SOL    HW1 1970   2.494   0.761   0.269  1.1927  2.2323 -1.5596
  657SOL    HW2 1971   2.515   0.922   0.230  0.1237  0.6943  0.6096
  658SOL     OW 1972   1.895   1.831   0.868  0.4086 -0.6967 -0.0710
  658SOL    HW1 1973   1.845   1.922   0.856 -1.2848  1.5053  2.3241
  658SOL    HW2 1974   1.898   1.810   0.969 -1.8659  0.2926  2.1772
  659SOL     OW 1975   2.667   1.965   2.963 -0.7222 -0.6799 -0.0514
  659SOL    HW1 1976   2.713   2.024   2.894  0.4380  2.4434 -0.4171
  659SOL    HW2 1977   2.683   1.998   3.059  0.6465  2.1443 -0.5877
  660SOL     OW 1978   1.284   0.469   0.446  0.0740 -0.0939  0.1820
  660SOL    HW1 1979   1.303   0.556   0.505  0.8963  2.2398  1.5188
  660SOL    HW2 1980   1.329   0.473   0.353  1.3755 -2.1377 -2.0205
  661SOL     OW 1981   1.885   3.082   0.098 -0.2461 -0.0161 -0.2475
  661SOL    HW1 1982   1.898   0.035   0.185  2.1523  0.2986  0.1303
  661SOL    HW2 1983   1.971   3.032   0.066  2.6378 -0.3602 -0.1108
  662SOL     OW 1984   0.934   3.034   0.540 -0.0611 -0.5767 -0.3858
  662SOL    HW1 1985   0.924   0.030   0.552 -2.5753 -2.1723  0.7120
  662SOL    HW2 1986   0.931   2.985   0.627 -2.0635 -0.3306  2.4480
  663SOL     OW 1987   1.514   0.242   2.433  0.1376 -0.4232  0.1768
  663SOL    HW1 1988   1.501   0.293   2.346  2.4845  0.1911  1.3992
  663SOL    HW2 1989   1.501   0.307   2.511 -0.9661 -2.8723 -1.6419
  664SOL     OW 1990   0.744   2.735   1.302 -0.7176 -0.0421  0.5631
  664SOL    HW1 1991   0.738   2.704   1.399  0.6509  1.9328  0.7046
  664SOL    HW2 1992   0.755   2.833   1.294 -1.5661 -2.8399  1.8925
  665SOL     OW 1993   0.803   2.305   1.670 -0.1481 -0.1493 -0.3714
  665SOL    HW1 1994   0.718   2.349   1.630 -0.0200 -1.7842 -1.8805
  665SOL    HW2 1995   0.859   2.364   1.734 -1.4293 -1.3014  0.3408
  666SOL     OW 1996   0.319   0.035   2.368  0.5983 -0.6243 -0.5428
  666SOL    HW1 1997   0.274   0.054   2.456 -1.5486  2.0315 -1.0341
  666SOL    HW2 1998   0.263   3.069   2.313 -0.6191 -1.5631 -0.6619
  667SOL     OW 1999   1.897   1.745   1.630  0.3051  0.5219 -0.0425
  667SOL    HW1 2000   1.961   1.716   1.555 -1.1285 -1.5792  0.9754
  667SOL    HW2 2001   1.934   1.748   1.724  0.8776  2.7483 -0.0680
  668SOL     OW 2002   1.802   0.127   1.633  0.1737 -0.2696  0.0205
  668SOL    HW1 2003   1.732   0.058   1.647  0.0979  1.6476 -0.9725
  668SOL    HW2 2004   1.765   0.188   1.559  1.3950  0.4955  0.9284
  669SOL     OW 2005   2.730   2.619   0.946 -0.5886 -0.4314 -1.0271
  669SOL    HW1 2006   2.794   2.582   0.873  0.4538 -1.8707  2.1456
  669SOL    HW2 2007   2.792   2.648   1.026  2.3177  2.5738  0.4776
  670SOL     OW 2008   1.393   2.312   2.891 -0.6460  0.5882 -0.3249
  670SOL    HW1 2009   1.311   2.311   2.950  0.8674  1.2605 -0.8411
  670SOL    HW2 2010   1.417   2.405   2.849  0.6399  0.9824 -0.3161
  671SOL     OW 2011   0.882   1.204   0.455 -0.4844 -0.5495  0.1203
  671SOL    HW1 2012   0.938   1.287   0.472 -1.2005 -1.0084  0.2865
  671SOL    HW2 2013   0.929   1.116   0.450 -2.9991  0.5860 -0.1767
  672SOL     OW 2014   2.740   1.269   2.601 -0.1072  0.0770  0.1674
  672SOL    HW1 2015   2.694   1.248   2.686  2.7406 -0.9564 -0.1931
  672SOL    HW2 2016   2.722   1.193   2.537  1.2660  0.1200 -0.4125
  673SOL     OW 2017   2.498   2.009   1.668  0.3737  0.2940  0.2667
  673SOL    HW1 2018   2.568   1.936   1.666 -0.1498  1.6894  1.0840
  673SOL    HW2 2019   2.404   1.975   1.691  0.2155 -0.5547  1.5058
  674SOL     OW 2020   0.444   2.388   2.392 -0.0847 -0.2952  0.1818
  674SOL    HW1 2021   0.530   2.341   2.432  2.6243  1.1737  1.9091
  674SOL    HW2 2022   0.420   2.369   2.295  0.0979 -0.0915  1.0432
  675SOL     OW 2023   1.069   0.596   1.430  0.2496 -0.2620  0.5979
  675SOL    HW1 2024   1.061   0.688   1.467 -0.0069  0.6049  0.9584
  675SOL    HW2 2025   1.081   0.526   1.507 -4.0668  1.7910  1.4660
  676SOL     OW 2026   2.129   0.085   1.161  0.2930  0.6079  0.1814
  676SOL    HW1 2027   2.035   0.056   1.135 -0.8642  2.0640  0.6868
  676SOL    HW2 2028   2.173   0.140   1.085  1.1559  2.0071 -1.5565
  677SOL     OW 2029   2.277   1.469   3.050 -0.0459 -0.3219 -0.2293
  677SOL    HW1 2030   2.339   1.540   3.088  2.2505 -0.0829 -0.2615
  677SOL    HW2 2031   2.291   1.453   2.953 -0.0262 -1.8166  1.1989
  678SOL     OW 2032   2.668   1.266   1.102  0.4792 -0.4757 -0.0030
  678SOL    HW1 2033   2.738   1.319   1.156  0.7036  2.7099 -1.2857
  678SOL    HW2 2034   2.580   1.265   1.160 -1.8289 -2.6089 -0.0710
  679SOL     OW 2035   2.692   0.498   0.157 -0.4327  0.0797 -0.1970
  679SOL    HW1 2036   2.725   0.422   0.219 -1.2356  0.8839  0.2588
  679SOL    HW2 2037   2.773   0.552   0.123  1.1538 -0.3223 -0.2054
  680SOL     OW 2038   0.230   1.900   1.785  0.0251 -0.5308  0.0330
  680SOL    HW1 2039   0.159   1.970   1.815 -0.7982  3.1438  2.5039
  680SOL    HW2 2040   0.267   1.854   1.871 -0.3780  0.0267  1.2589
  681SOL     OW 2041   2.064   2.186   1.743 -0.1877 -0.3652  0.2301
  681SOL    HW1 2042   2.120   2.113   1.789  1.4962 -2.3412  0.0759
  681SOL    HW2 2043   1.985   2.213   1.797 -0.9018  1.6426 -0.6478
  682SOL     OW 2044   0.301   2.088   0.082  0.0872  1.1065  0.3453
  682SOL    HW1 2045   0.232   2.161   0.050 -1.3491  0.8617 -1.9348
  682SOL    HW2 2046   0.355   2.110   0.166  0.1907 -1.4540  0.5774
  683SOL     OW 2047   0.078   2.003   1.362 -0.7535 -0.2504  0.0777
  683SOL    HW1 2048   0.098   2.094   1.400 -2.1908 -1.2183 -1.1274
  683SOL    HW2 2049   0.164   1.963   1.323  2.6992 -1.3682 -2.5446
  684SOL     OW 2050   2.878   1.290   2.216  0.4902  0.2846  0.5890
  684SOL    HW1 2051   2.914   1.376   2.180 -0.8691  0.8890 -0.3855
  684SOL    HW2 2052   2.837   1.237   2.142  1.6949 -1.2300  1.9535
  685SOL     OW 2053   1.341   0.678   0.585  0.1398 -0.7050  0.5598
  685SOL    HW1 2054   1.340   0.657   0.686  0.9975  0.2789 -2.2947
  685SOL    HW2 2055   1.420   0.737   0.557  1.3437 -2.1657  0.5295
  686SOL     OW 2056   0.578   0.252   0.917 -0.1204 -0.3597 -0.2549
  686SOL    HW1 2057   0.541   0.332   0.864 -0.8324  0.0309  0.3544
  686SOL    HW2 2058   0.573   0.170   0.851  0.5061 -2.1973 -2.0572
  687SOL     OW 2059   0.735   2.068   2.671 -0.2321  0.3946  0.2998
  687SOL    HW1 2060   0.769   2.008   2.746  0.5695 -1.6419  1.5667
  687SOL    HW2 2061   0.745   2.170   2.696  2.4769  1.6831 -0.0566
  688SOL     OW 2062   2.008   0.724   1.557 -0.5575  0.1099 -0.0282
  688SOL    HW1 2063   2.032   0.785   1.476 -2.5196 -1.7479 -0.0475
  688SOL    HW2 2064   2.032   0.626   1.544 -1.1882  0.0353 -3.1836
  689SOL     OW 2065   1.559   0.441   0.875 -0.1918 -0.0070  0.0857
  689SOL    HW1 2066   1.580   0.342   0.903  1.5594 -0.8327  1.5706
  689SOL    HW2 2067   1.646   0.484   0.845 -0.4224 -0.3039 -1.7391
  690SOL     OW 2068   2.890   1.507   1.314  0.0421 -0.0339 -0.1676
  690SOL    HW1 2069   2.796   1.476   1.343 -3.3507  0.3851  0.2209
  690SOL    HW2 2070   2.896   1.606   1.305 -0.8865 -1.4569 -0.8126
  691SOL     OW 2071   0.466   2.167   1.307  0.3355  0.8532  0.1093
  691SOL    HW1 2072   0.529   2.244   1.290  0.1322 -0.3579 -1.7244
  691SOL    HW2 2073   0.519   2.087   1.347 -2.3156  0.5579 -0.5372
  692SOL     OW 2074   1.569   0.036   1.460 -0.1078  0.1549  0.4923
  692SOL    HW1 2075   1.602   0.005   1.547  2.4397 -0.8838 -1.6888
  692SOL    HW2 2076   1.644   0.050   1.396 -3.0847 -2.3746 -2.1719
  693SOL     OW 2077   0.592   1.746   2.123 -0.2740 -0.4061 -0.6109
  693SOL    HW1 2078   0.657   1.821   2.116 -1.8020  1.6095 -2.5368
  693SOL    HW2 2079   0.546   1.747   2.214 -0.7469 -1.9794 -2.0341
  694SOL     OW 2080   2.039   1.406   0.954 -0.0501  0.2901 -0.0507
  694SOL    HW1 2081   2.034   1.420   0.853 -1.1376 -2.2337 -4.3589
  694SOL    HW2 2082   1.972   1.472   0.991 -1.8584  1.6320  0.9520
  695SOL     OW 2083   1.273   0.827   1.260  0.2002 -0.1217 -0.3108
  695SOL    HW1 2084   1.316   0.796   1.174  0.0725  1.2086  2.3369
  695SOL    HW2 2085   1.174   0.800   1.251  0.4963 -1.5058  0.7268
  696SOL     OW 2086   0.360   0.021   0.449  0.1048  0.9953  0.7131
  696SOL    HW1 2087   0.287   3.067   0.494 -0.2906  1.0982  0.6246
  696SOL    HW2 2088   0.356   0.006   0.348 -0.3922 -1.5418 -0.7009
  697SOL     OW 2089   2.179   0.681   0.973 -0.3154  0.3441  0.1750
  697SOL    HW1 2090   2.179   0.780   0.992 -0.4964  1.7245 -0.0181
  697SOL    HW2 2091   2.107   0.635   1.034 -1.0443 -0.3955 -0.5448
  698SOL     OW 2092   1.406   1.211   1.861 -0.3097 -0.5495  0.1193
  698SOL    HW1 2093   1.351   1.288   1.823  1.0188  1.1632  1.3028
  698SOL    HW2 2094   1.415   1.223   1.961  0.4106  2.1136  0.7661
  699SOL     OW 2095   2.889   0.598   2.336 -0.0791 -0.2284 -0.2436
  699SOL    HW1 2096   2.795   0.552   2.348  1.8827  2.0765 -1.0663
  699SOL    HW2 2097   2.922   0.583   2.240 -0.5772 -2.4690 -0.1186
  700SOL     OW 2098   1.834   2.659   0.625 -0.3439 -0.4229 -0.0715
  700SOL    HW1 2099   1.833   2.685   0.526 -2.2521 -1.3353 -0.0770
  700SOL    HW2 2100   1.869   2.564   0.637 -0.8206  1.6416 -1.4459
  701SOL     OW 2101   3.002   1.888   2.464  0.2967 -0.2366  0.0459
  701SOL    HW1 2102   2.987   1.925   2.557  1.0679  0.0324 -0.6573
  701SOL    HW2 2103   3.096   1.854   2.450 -4.4054  1.3272  1.7955
  702SOL     OW 2104   0.710   3.034   0.378 -0.3308  0.0395 -0.2572
  702SOL    HW1 2105   0.799   3.017   0.423  1.9722  0.5699 -0.3960
  702SOL    HW2 2106   0.660   2.948   0.366 -0.0262  0.8241  0.8979
  703SOL     OW 2107   1.760   2.698   2.381 -0.1775  0.2516  0.2519
  703SOL    HW1 2108   1.805   2.695   2.472 -0.5550  0.8891  2.9943
  703SOL    HW2 2109   1.786   2.784   2.331 -2.4956 -0.1446 -0.0844
  704SOL     OW 2110   2.710   2.071   0.100 -0.3340  0.2296 -0.0384
  704SOL    HW1 2111   2.695   2.170   0.079  1.3717 -0.5440 -0.2872
  704SOL    HW2 2112   2.644   2.026   0.167 -0.1567  0.2149  1.9725
  705SOL     OW 2113   2.800   2.394   2.331  0.1175  0.5119  0.1703
  705SOL    HW1 2114   2.823   2.299   2.309 -0.7334  2.6832  0.2822
  705SOL    HW2 2115   2.886   2.443   2.367  1.7759  1.5078  3.7967
  706SOL     OW 2116   2.755   0.103   0.489  0.1335  0.0433 -0.4555
  706SOL    HW1 2117   2.697   0.061   0.412 -1.9911  0.2681 -0.0039
  706SOL    HW2 2118   2.829   0.042   0.526  1.8677  0.9876  1.1584
  707SOL     OW 2119   1.371   0.328   3.033  0.4104 -0.5354  0.1976
  707SOL    HW1 2120   1.309   0.296   2.960 -1.5350  0.7985 -0.8357
  707SOL    HW2 2121   1.455   0.374   2.996 -4.2609 -0.2013 -1.5506
  708SOL     OW 2122   0.410   2.081   1.688 -0.2604  0.3163  0.5386
  708SOL    HW1 2123   0.355   1.997   1.721  0.8759  0.1860  1.3108
  708SOL    HW2 2124   0.509   2.077   1.708  1.1009 -0.7721 -1.3496
  709SOL     OW 2125   1.475   3.024   1.911  0.3864 -0.0099  0.1443
  709SOL    HW1 2126   1.460   0.002   1.977 -3.4694 -0.4116 -1.4440
  709SOL    HW2 2127   1.453   2.937   1.954  1.7795  1.7424 -0.9450
  710SOL     OW 2128   1.505   2.552   2.745  0.8765 -0.1335  0.8230
  710SOL    HW1 2129   1.552   2.542   2.655 -0.9918  1.3687  0.6462
  710SOL    HW2 2130   1.532   2.633   2.798 -1.9195 -0.7454 -1.7700
  711SOL     OW 2131   0.868   2.627   2.713  0.3912 -0.3195  0.2143
  711SOL    HW1 2132   0.880   2.692   2.635 -1.3480 -3.0862  0.6176
  711SOL    HW2 2133   0.775   2.593   2.711  2.2149  0.1808 -0.1758
  712SOL     OW 2134   0.983   2.035   3.000  0.0313  0.1239  0.6838
  712SOL    HW1 2135   0.951   1.964   2.933  0.3051 -0.3811 -0.9347
  712SOL    HW2 2136   0.900   2.083   3.038 -1.3614 -0.0268 -1.5363
  713SOL     OW 2137   1.897   1.185   1.351 -0.5672  0.0128  0.2452
  713SOL    HW1 2138   1.912   1.119   1.278  2.5010  1.6199 -0.5650
  713SOL    HW2 2139   1.826   1.255   1.337 -1.0591  0.1723  1.1020
  714SOL     OW 2140   0.951   1.151   2.154  0.1497  0.1838 -0.8095
  714SOL    HW1 2141   1.021   1.075   2.173  1.2995 -0.2938  2.4865
  714SOL    HW2 2142   0.869   1.114   2.101 -1.3314 -0.7112 -2.4425
  715SOL     OW 2143   2.826   0.315   0.314 -0.1543  0.0723 -0.0552
  715SOL    HW1 2144   2.858   0.392   0.375 -0.4800 -0.3698 -2.1376
  715SOL    HW2 2145   2.772   0.250   0.368 -0.2916  1.1432  0.2938
  716SOL     OW 2146   0.501   2.636   1.001  0.1822 -0.1415 -0.1496
  716SOL    HW1 2147   0.602   2.615   1.000  0.1132  2.6029 -2.6168
  716SOL    HW2 2148   0.482   2.732   0.980 -1.1678  0.2349  3.2874
  717SOL     OW 2149   2.769   0.824   0.494  0.0844  0.6153  0.4621
  717SOL    HW1 2150   2.800   0.729   0.477 -1.7296 -0.8284  0.3397
  717SOL    HW2 2151   2.669   0.819   0.517  2.0731 -1.3873 -3.4959
  718SOL     OW 2152   1.703   1.420   1.377 -0.7939  0.1963  0.3417
  718SOL    HW1 2153   1.707   1.458   1.470 -3.0526  1.6132 -1.5974
  718SOL    HW2 2154   1.602   1.429   1.344 -3.1929  1.9851 -0.9022
  719SOL     OW 2155   2.787   2.787   3.012  0.0600 -0.2305 -0.4715
  719SOL    HW1 2156   2.689   2.797   2.994 -2.9424  0.3467  4.0626
  719SOL    HW2 2157   2.803   2.687   3.021  2.3097  1.6227  1.6664
  720SOL     OW 2158   1.074   0.475   0.973  0.5193 -0.0093  0.1757
  720SOL    HW1 2159   1.034   0.537   1.040  3.4730  0.9787  0.0481
  720SOL    HW2 2160   1.141   0.414   1.018 -0.1498 -2.2220  2.0964
  721SOL     OW 2161   1.892   0.356   0.974 -0.6067 -0.5947  0.4463
  721SOL    HW1 2162   1.988   0.316   0.968  0.8341 -0.4294 -0.8122
  721SOL    HW2 2163   1.904   0.454   0.997  0.7084  1.7460 -0.8440
  722SOL     OW 2164   0.693   2.046   1.735 -0.2878 -0.0672  0.3748
  722SOL    HW1 2165   0.700   2.021   1.832 -0.7404  0.4396 -0.7745
  722SOL    HW2 2166   0.752   2.126   1.713  2.1890 -0.2236 -0.1854
  723SOL     OW 2167   1.299   0.164   1.385 -0.7326 -0.2362 -0.2417
  723SOL    HW1 2168   1.356   0.100   1.321  1.7715  1.4274 -2.8307
  723SOL    HW2 2169   1.345   0.196   1.471 -0.0751  1.8112 -0.0834
  724SOL     OW 2170   1.672   1.887   1.620  0.0770 -0.6196 -0.0507
  724SOL    HW1 2171   1.597   1.839   1.569  1.5218  1.1069 -1.8693
  724SOL    HW2 2172   1.754   1.823   1.622 -0.1649  1.2584  0.0166
  725SOL     OW 2173   1.401   2.430   1.312 -0.4213 -0.5179  0.1185
  725SOL    HW1 2174   1.428   2.368   1.236 -0.6703  1.2714  0.5506
  725SOL    HW2 2175   1.349   2.510   1.273  1.5442  0.7731 -0.8217
  726SOL     OW 2176   1.841   0.157   2.990 -0.0397 -0.1319 -0.3738
  726SOL    HW1 2177   1.855   0.094   3.066  0.9644 -0.0029  0.0487
  726SOL    HW2 2178   1.743   0.154   2.961  0.0823 -0.0729  1.2053
  727SOL     OW 2179   1.370   2.231   0.332 -0.4286  1.0294 -0.4094
  727SOL    HW1 2180   1.365   2.128   0.326 -0.6209  0.4973  0.2909
  727SOL    HW2 2181   1.324   2.274   0.253 -1.0830 -2.1533 -0.3398
  728SOL     OW 2182   1.708   2.607   2.077  0.0033 -0.1418 -0.3605
  728SOL    HW1 2183   1.780   2.576   2.010 -0.4936  1.4335  0.3357
  728SOL    HW2 2184   1.734   2.698   2.115  1.4553 -1.9768  0.8730
  729SOL     OW 2185   2.209   2.500   1.727  0.7120 -0.1066 -0.2506
  729SOL    HW1 2186   2.190   2.442   1.647 -0.7156  0.7098 -2.0457
  729SOL    HW2 2187   2.309   2.496   1.744  2.8875  0.0535  0.1404
  730SOL     OW 2188   1.398   0.658   2.569 -0.1977  0.1367  0.3779
  730SOL    HW1 2189   1.482   0.606   2.584  1.1975  1.0202 -0.4381
  730SOL    HW2 2190   1.362   0.630   2.479 -3.4535  2.3086 -3.1350
  731SOL     OW 2191   0.833   2.967   0.979  0.1084 -0.3012  0.0202
  731SOL    HW1 2192   0.807   3.015   0.893 -1.6449  0.1672  0.9952
  731SOL    HW2 2193   0.799   3.011   1.065 -3.9564 -1.0965  3.1153
  732SOL     OW 2194   1.557   2.828   1.159 -0.4016  0.1218 -0.3692
  732SOL    HW1 2195   1.540   2.756   1.226 -0.0184  1.9534  1.4423
  732SOL    HW2 2196   1.479   2.892   1.157  2.0559 -0.5920 -0.6028
  733SOL     OW 2197   1.403   0.962   1.452 -0.0347  0.1235  0.3022
  733SOL    HW1 2198   1.340   0.926   1.370 -4.1736  0.9561 -2.5013
  733SOL    HW2 2199   1.395   1.063   1.452  1.4732 -2.8801 -1.5168
  734SOL     OW 2200   2.400   2.235   0.299 -0.5474  0.0051  0.4015
  734SOL    HW1 2201   2.384   2.305   0.223 -1.7604 -1.2904  0.9418
  734SOL    HW2 2202   2.431   2.283   0.381 -0.8461 -3.7288 -1.8406
  735SOL     OW 2203   0.556   0.505   0.483  0.2012  0.5092  0.1189
  735SOL    HW1 2204   0.589   0.560   0.405  0.4186 -0.0717 -1.2505
  735SOL    HW2 2205   0.505   0.423   0.447 -0.5043  0.5485 -0.6321
  736SOL     OW 2206   2.005   2.309   2.504 -0.0961 -0.0618  0.4298
  736SOL    HW1 2207   1.993   2.401   2.530  2.7773 -1.0616  0.4976
  736SOL    HW2 2208   2.001   2.296   2.401 -0.2129  1.5912 -1.2545
  737SOL     OW 2209   1.056   2.475   1.145 -0.5454 -0.0728  0.1104
  737SOL    HW1 2210   1.141   2.531   1.145 -2.3539  1.3809 -1.9846
  737SOL    HW2 2211   1.051   2.418   1.061  2.0973  1.2914  0.5980
  738SOL     OW 2212   1.425   2.810   2.069  0.4405 -0.0276 -0.5245
  738SOL    HW1 2213   1.418   2.829   2.169  0.2357 -0.8614  1.7396
  738SOL    HW2 2214   1.487   2.731   2.052 -1.1494 -3.2048  1.8314
  739SOL     OW 2215   0.736   2.032   2.018  0.3427 -0.1760  0.6499
  739SOL    HW1 2216   0.818   2.094   2.015 -1.1947 -0.5534 -1.3370
  739SOL    HW2 2217   0.675   2.061   2.091 -0.0918 -1.6845 -0.5784
  740SOL     OW 2218   1.625   2.397   1.503  1.3650 -0.4698  0.1702
  740SOL    HW1 2219   1.709   2.437   1.468 -1.0863 -0.6083 -1.2958
  740SOL    HW2 2220   1.545   2.437   1.448 -0.4247  1.2928 -1.1254
  741SOL     OW 2221   2.494   1.666   3.034 -0.4172 -0.3023 -0.1227
  741SOL    HW1 2222   2.534   1.587   2.985  0.0912  1.0597  0.3510
  741SOL    HW2 2223   2.446   1.732   2.971 -0.3065  2.3457 -1.4040
  742SOL     OW 2224   0.811   1.492   2.298 -0.1620 -0.3270 -0.6471
  742SOL    HW1 2225   0.863   1.574   2.281  0.3432 -1.6290  4.1832
  742SOL    HW2 2226   0.719   1.487   2.260  0.7440 -0.0140  1.8438
  743SOL     OW 2227   3.013   1.148   2.392 -0.0124 -0.0684  0.0481
  743SOL    HW1 2228   2.963   1.094   2.461 -1.1718  0.8614 -2.0918
  743SOL    HW2 2229   2.950   1.193   2.325 -0.7284  0.7506 -0.9592
  744SOL     OW 2230   2.347   2.254   1.964  0.0119 -0.2849  0.1840
  744SOL    HW1 2231   2.281   2.301   2.031 -0.5011 -3.3806 -0.2394
  744SOL    HW2 2232   2.397   2.321   1.909 -1.4431 -1.4190 -0.3569
  745SOL     OW 2233   2.280   1.513   1.443 -0.0743  0.1315 -0.3726
  745SOL    HW1 2234   2.185   1.486   1.441  0.5759  1.5595  0.7677
  745SOL    HW2 2235   2.341   1.432   1.437 -0.6542 -2.4402  3.1030
  746SOL     OW 2236   2.735   1.181   0.676  0.0352  0.1227  0.2267
  746SOL    HW1 2237   2.694   1.152   0.586  4.2245 -0.3734 -1.6147
  746SOL    HW2 2238   2.711   1.279   0.698 -2.0778  0.9197  1.5052
  747SOL     OW 2239   1.925   2.389   0.680 -0.0367 -0.0183  0.2034
  747SOL    HW1 2240   2.009   2.329   0.688  2.4020 -0.7212 -0.9409
  747SOL    HW2 2241   1.862   2.377   0.758  0.1457 -0.9082 -0.3636
  748SOL     OW 2242   1.037   2.353   0.290  0.0000 -0.2191  0.1248
  748SOL    HW1 2243   1.122   2.355   0.229 -0.1375  1.5712  0.4100
  748SOL    HW2 2244   1.014   2.444   0.318 -0.9852 -0.3266 -2.8563
  749SOL     OW 2245   2.668   0.435   2.332 -0.4844  0.1838 -0.0332
  749SOL    HW1 2246   2.597   0.415   2.405  0.3176  1.4545  1.6463
  749SOL    HW2 2247   2.718   0.356   2.290 -1.4779  0.4925  0.5533
  750SOL     OW 2248   1.797   0.103   1.308 -0.2576 -0.5235 -0.2441
  750SOL    HW1 2249   1.760   0.192   1.269  0.4221  1.4884 -1.9200
  750SOL    HW2 2250   1.836   0.043   1.234 -0.1081  0.5504 -0.9773
  751SOL     OW 2251   1.759   2.335   2.749  0.5458  0.1040  0.1511
  751SOL    HW1 2252   1.693   2.402   2.709  0.4320 -1.7147  0.7041
  751SOL    HW2 2253   1.753   2.325   2.849 -2.4354  1.9740  0.2312
  752SOL     OW 2254   1.671   1.970   0.443  0.3555 -0.1227  0.5398
  752SOL    HW1 2255   1.651   2.026   0.364  3.7137  0.0443  2.7285
  752SOL    HW2 2256   1.748   1.909   0.419 -2.9550  1.0813 -1.1886
  753SOL     OW 2257   1.599   0.798   2.171 -0.2626  0.1978  0.1913
  753SOL    HW1 2258   1.614   0.740   2.251 -0.7706 -0.7686 -3.8208
  753SOL    HW2 2259   1.552   0.884   2.201  1.5212  0.7685 -0.4551
  754SOL     OW 2260   0.162   2.958   0.805 -0.2043  0.0170  0.4760
  754SOL    HW1 2261   0.141   3.048   0.847  0.3471 -1.3013  0.0205
  754SOL    HW2 2262   0.097   2.881   0.827 -0.4503 -0.3043 -3.7940
  755SOL     OW 2263   2.051   0.180   1.427  0.1492 -0.3515  0.0859
  755SOL    HW1 2264   2.079   0.156   1.333  1.1530 -0.0486  1.8085
  755SOL    HW2 2265   1.963   0.136   1.452 -3.0260 -1.5147  2.3015
  756SOL     OW 2266   1.234   1.033   2.453  0.9056 -0.2205  0.2191
  756SOL    HW1 2267   1.319   1.006   2.495 -0.9471  0.8354 -1.2689
  756SOL    HW2 2268   1.184   1.100   2.516  1.6639  3.1351 -1.4940
  757SOL     OW 2269   2.945   2.816   1.519 -0.0639  1.0378 -0.4081
  757SOL    HW1 2270   3.004   2.764   1.584  1.4751 -1.1985  2.4427
  757SOL    HW2 2271   2.858   2.769   1.508  2.7099 -1.2526  0.6118
  758SOL     OW 2272   0.540   3.079   1.364 -0.2240  0.9505  0.4195
  758SOL    HW1 2273   0.559   3.029   1.449  0.9336 -0.8884 -0.1503
  758SOL    HW2 2274   0.556   0.079   1.374  0.1214 -0.0435 -1.5175
  759SOL     OW 2275   2.302   1.196   0.752 -0.1219  0.0719  0.2442
  759SOL    HW1 2276   2.340   1.264   0.685 -1.1316  0.0994 -0.1541
  759SOL    HW2 2277   2.370   1.186   0.827 -2.9616 -0.9761  0.9117
  760SOL     OW 2278   2.153   0.565   1.290 -0.0168 -0.2838  0.1199
  760SOL    HW1 2279   2.100   0.510   1.360 -0.4495  0.8404 -0.6785
  760SOL    HW2 2280   2.246   0.530   1.289  1.7807  1.9069  1.1447
  761SOL     OW 2281   2.199   0.086   0.458  0.2766 -0.1127 -0.4218
  761SOL    HW1 2282   2.271   0.155   0.489  1.8124  0.3401 -0.5797
  761SOL    HW2 2283   2.246   3.098   0.438 -1.4113  1.0659  3.0022
  762SOL     OW 2284   2.406   2.405   0.092  0.0563 -0.3582 -0.2065
  762SOL    HW1 2285   2.472   2.402   0.012  1.4301 -3.2565 -1.3766
  762SOL    HW2 2286   2.313   2.427   0.057  0.4394  0.7582 -0.2237
  763SOL     OW 2287   0.626   1.116   0.799  0.0399 -0.2740 -0.0684
  763SOL    HW1 2288   0.630   1.211   0.762  0.9712  0.9858 -2.9052
  763SOL    HW2 2289   0.685   1.103   0.882  0.4292  0.4676  1.7278
  764SOL     OW 2290   2.515   2.370   2.879 -0.0192  0.5983  0.0791
  764SOL    HW1 2291   2.529   2.461   2.836 -0.3964 -0.9800  1.1182
  764SOL    HW2 2292   2.492   2.296   2.817 -0.1864  1.5277  0.2289
  765SOL     OW 2293   0.508   0.680   2.087 -0.7346  0.0038  0.3807
  765SOL    HW1 2294   0.524   0.621   2.168 -0.3476 -0.7652  0.9296
  765SOL    HW2 2295   0.559   0.648   2.002  0.0946  0.1868 -0.8302
  766SOL     OW 2296   3.013   1.287   2.646 -0.3820 -0.1543  0.4014
  766SOL    HW1 2297   2.910   1.279   2.649 -3.2797 -0.8072  0.3952
  766SOL    HW2 2298   3.042   1.258   2.551 -0.0657 -0.1576 -2.2293
  767SOL     OW 2299   0.180   1.879   2.154  0.2469 -0.0893  0.0394
  767SOL    HW1 2300   0.253   1.824   2.110  0.4280 -1.1485  0.4744
  767SOL    HW2 2301   0.162   1.851   2.249 -0.1754 -1.1550 -2.1356
  768SOL     OW 2302   0.954   1.087   2.885 -0.4436 -0.3639 -0.2868
  768SOL    HW1 2303   0.872   1.046   2.931 -0.7979 -1.4709  1.5943
  768SOL    HW2 2304   0.942   1.080   2.783  1.8984 -0.4832  2.2867
  769SOL     OW 2305   1.683   2.787   2.797 -0.2101 -0.3817  0.4906
  769SOL    HW1 2306   1.757   2.749   2.731  1.5444  0.7809 -1.2108
  769SOL    HW2 2307   1.714   2.788   2.892  1.5899  0.4134 -0.3318
  770SOL     OW 2308   0.009   0.421   2.380  0.1416 -0.5118  0.6577
  770SOL    HW1 2309   0.094   0.445   2.432 -1.0348 -0.0261  0.3825
  770SOL    HW2 2310   3.053   0.506   2.382 -2.0030  1.1032 -0.6774
  771SOL     OW 2311   0.806   2.161   1.331 -0.5296 -0.2196 -0.2508
  771SOL    HW1 2312   0.887   2.115   1.386  1.0201 -1.8962  0.2839
  771SOL    HW2 2313   0.827   2.259   1.317 -1.3316  2.8349 -0.0713
  772SOL     OW 2314   0.587   0.718   2.860 -0.0390  0.0049 -0.4451
  772SOL    HW1 2315   0.566   0.649   2.790  0.9719  0.1290  1.7916
  772SOL    HW2 2316   0.552   0.812   2.835  1.1311 -1.8453  0.2932
  773SOL     OW 2317   2.245   1.166   1.575 -0.1092  0.1891  0.2437
  773SOL    HW1 2318   2.314   1.135   1.651  1.3674 -1.1791  2.6885
  773SOL    HW2 2319   2.152   1.153   1.600  2.0646  0.4578  0.0222
  774SOL     OW 2320   1.159   0.904   0.652 -0.3674 -0.5870 -0.1888
  774SOL    HW1 2321   1.121   0.880   0.742  1.9902  1.4222 -0.6571
  774SOL    HW2 2322   1.228   0.838   0.618 -1.6747  0.5138 -2.3005
  775SOL     OW 2323   1.905   2.679   2.606 -0.5829 -0.4684  0.6581
  775SOL    HW1 2324   1.972   2.755   2.616  0.8849 -1.1124  1.4162
  775SOL    HW2 2325   1.933   2.594   2.656  2.7644 -0.0084 -1.6609
  776SOL     OW 2326   2.262   3.040   2.437  0.0546 -0.1876  0.2140
  776SOL    HW1 2327   2.176   3.086   2.478 -0.5620  1.9030  1.1710
  776SOL    HW2 2328   2.309   2.981   2.508  0.3673  0.5674  3.0123
  777SOL     OW 2329   0.603   1.280   2.850 -0.2698 -0.3027 -0.4001
  777SOL    HW1 2330   0.566   1.281   2.752  1.6670 -0.8213  1.4702
  777SOL    HW2 2331   0.527   1.287   2.920 -1.7412 -0.0915  3.6265
  778SOL     OW 2332   0.761   3.011   0.086  0.2638  0.4243 -0.1648
  778SOL    HW1 2333   0.844   2.971   0.047 -1.0791  1.1682  1.1635
  778SOL    HW2 2334   0.701   2.945   0.135 -0.8921 -0.5925  0.3086
  779SOL     OW 2335   0.018   1.101   3.099  0.3867 -0.1108 -0.0595
  779SOL    HW1 2336   3.036   1.051   0.042 -0.0953 -0.3359 -0.6450
  779SOL    HW2 2337   0.051   1.045   3.023  0.2214  1.3420  3.1489
  780SOL     OW 2338   1.988   0.397   2.518  0.2575  0.0705 -0.3940
  780SOL    HW1 2339   1.921   0.407   2.591 -0.1777  1.0794 -0.0819
  780SOL    HW2 2340   1.973   0.322   2.449  0.3981 -0.1675  0.3700
  781SOL     OW 2341   2.170   0.981   1.970  0.0528  0.4797  0.5655
  781SOL    HW1 2342   2.124   1.025   2.050  0.0454 -0.0728  0.0061
  781SOL    HW2 2343   2.101   0.942   1.906  1.9082 -1.2269 -0.6724
  782SOL     OW 2344   1.218   1.656   2.313  0.0687  0.7375  0.2393
  782SOL    HW1 2345   1.288   1.728   2.299 -0.0640 -1.6189  0.1974
  782SOL    HW2 2346   1.124   1.680   2.286 -1.4332  1.1235 -0.7230
  783SOL     OW 2347   1.345   3.006   1.168  0.0866 -0.1074  0.2319
  783SOL    HW1 2348   1.388   3.096   1.138 -1.5045 -1.7455 -0.6832
  783SOL    HW2 2349   1.276   2.975   1.096 -0.9427 -2.5133 -6.0953
  784SOL     OW 2350   1.533   0.718   2.990  0.2400  0.2852  0.6776
  784SOL    HW1 2351   1.588   0.803   2.969 -0.3473 -0.9768 -2.0703
  784SOL    HW2 2352   1.435   0.735   3.015 -0.3864 -4.5112  1.3980
  785SOL     OW 2353   1.839   0.443   2.741  0.1929 -0.2986  0.4602
  785SOL    HW1 2354   1.895   0.506   2.802  2.1354  0.9271 -1.3628
  785SOL    HW2 2355   1.789   0.374   2.794 -2.9888  0.3834  0.7700
  786SOL     OW 2356   0.138   1.436   0.682  0.0471 -0.2234  0.0739
  786SOL    HW1 2357   0.105   1.426   0.585 -0.9760 -0.3196 -0.2848
  786SOL    HW2 2358   0.070   1.409   0.752  1.5929  0.3932  0.3250
  787SOL     OW 2359   1.715   1.718   3.093  0.2534 -0.2489 -0.4539
  787SOL    HW1 2360   1.736   1.796   0.054  1.4115  1.4585  0.2577
  787SOL    HW2 2361   1.721   1.751   3.000 -4.3367 -0.0919  0.7290
  788SOL     OW 2362   1.461   2.050   1.437 -0.0130  0.1480 -0.2321
  788SOL    HW1 2363   1.547   2.026   1.388  2.3471  1.0887 -0.8498
  788SOL    HW2 2364   1.475   2.140   1.479  3.3372 -1.8581 -0.7359
  789SOL     OW 2365   0.040   1.407   2.400 -0.0595 -0.2910 -0.4061
  789SOL    HW1 2366   0.013   1.337   2.327 -0.1642 -0.2645  0.7539
  789SOL    HW2 2367   3.063   1.469   2.434  0.0017  3.0054 -0.8835
  790SOL     OW 2368   0.613   0.144   0.103  0.0585  0.1035 -0.2368
  790SOL    HW1 2369   0.624   0.183   0.199  1.3335  2.9781  0.9280
  790SOL    HW2 2370   0.686   0.079   0.084 -1.5931 -0.7952  1.8150
  791SOL     OW 2371   0.586   0.061   2.294  0.1446 -0.9550  0.2243
  791SOL    HW1 2372   0.588   0.074   2.194  0.6935  0.0854 -1.1788
  791SOL    HW2 2373   0.488   0.051   2.323  1.2453  1.1861 -0.9058
  792SOL     OW 2374   1.782   0.359   2.113  0.8530 -0.3282 -0.1112
  792SOL    HW1 2375   1.845   0.344   2.195  0.1525 -0.9860  1.7668
  792SOL    HW2 2376   1.797   0.297   2.035  2.6510  0.8383 -0.0685
  793SOL     OW 2377   2.680   0.862   1.698 -0.3057  0.0257 -0.2315
  793SOL    HW1 2378   2.737   0.778   1.716  1.3079 -1.4394 -0.4658
  793SOL    HW2 2379   2.721   0.947   1.736 -1.8869  0.8956  1.2125
  794SOL     OW 2380   0.315   0.414   1.538 -0.3116 -0.6044 -0.2185
  794SOL    HW1 2381   0.229   0.470   1.544  1.9144 -0.4379  0.7755
  794SOL    HW2 2382   0.393   0.466   1.577  0.8896 -0.5383  0.9464
  795SOL     OW 2383   3.000   1.445   0.517 -0.2491  0.0199 -0.5331
  795SOL    HW1 2384   2.967   1.501   0.599 -1.1638  1.8439 -0.0959
  795SOL    HW2 2385   3.023   1.351   0.549  0.3620 -1.7320 -0.3940
  796SOL     OW 2386   2.986   2.639   0.271  0.5136 -0.4176  0.6063
  796SOL    HW1 2387   3.047   2.628   0.190 -2.5702  0.6997  1.6269
  796SOL    HW2 2388   2.907   2.579   0.263  1.5390  0.2032  1.1925
  797SOL     OW 2389   1.996   2.481   2.780 -0.0905  0.2974  0.1093
  797SOL    HW1 2390   2.053   2.496   2.864 -1.6127  0.4027  0.7468
  797SOL    HW2 2391   1.943   2.397   2.795  0.5321  3.9872  0.4047
  798SOL     OW 2392   0.035   1.074   1.393 -0.1772  0.5498  0.1679
  798SOL    HW1 2393   0.017   1.054   1.294 -0.3269  0.7804  0.7544
  798SOL    HW2 2394   0.004   1.166   1.414 -0.1281 -1.5081 -0.0770
  799SOL     OW 2395   0.210   0.624   2.916  0.3117 -0.2774 -0.4940
  799SOL    HW1 2396   0.133   0.576   2.867 -1.5177  0.3969 -0.3412
  799SOL    HW2 2397   0.230   0.715   2.878  0.7857  0.0072 -0.1667
  800SOL     OW 2398   2.843   1.842   0.608  0.0725  0.3234 -0.1037
  800SOL    HW1 2399   2.878   1.928   0.650 -1.7543 -3.2237 -1.2622
  800SOL    HW2 2400   2.886   1.809   0.520  0.8191 -1.8970  0.8224
  801SOL     OW 2401   1.540   1.279   1.156  0.4550  0.2583 -0.1191
  801SOL    HW1 2402   1.568   1.340   1.078  0.2541 -0.2881  2.3873
  801SOL    HW2 2403   1.442   1.241   1.167 -0.0803 -3.8929 -1.1370
  802SOL     OW 2404   1.089   1.878   1.738  0.2218  0.4116  0.9710
  802SOL    HW1 2405   1.162   1.856   1.673 -1.0940 -0.4939  0.4111
  802SOL    HW2 2406   1.076   1.980   1.753  0.8135  1.2351  2.3444
  803SOL     OW 2407   0.430   2.024   0.563  0.0683  0.0519 -0.3818
  803SOL    HW1 2408   0.527   2.052   0.538  1.4160  1.4698  0.2237
  803SOL    HW2 2409   0.396   2.057   0.651  1.3464 -0.4429 -0.6320
  804SOL     OW 2410   1.078   2.568   1.527  0.1052  0.1152  0.0199
  804SOL    HW1 2411   1.178   2.553   1.556 -2.1099 -0.7746  1.1677
  804SOL    HW2 2412   1.016   2.599   1.601 -1.1056  1.1830 -0.7526
  805SOL     OW 2413   1.847   1.217   0.105  0.4164 -0.2892 -0.1561
  805SOL    HW1 2414   1.851   1.178   0.009 -0.4921  0.8656 -2.3439
  805SOL    HW2 2415   1.834   1.321   0.097  0.7532  1.7076  1.3072
  806SOL     OW 2416   1.645   2.979   0.947  0.2657 -0.3215 -0.4702
  806SOL    HW1 2417   1.574   3.007   0.880 -4.1685 -2.2994  1.0996
  806SOL    HW2 2418   1.606   2.909   1.013 -1.8112 -0.2735  2.5784
  807SOL     OW 2419   2.451   0.001   2.938  0.4701  0.0087 -0.1076
  807SOL    HW1 2420   2.413   0.045   3.020  2.3725 -2.5932 -1.6083
  807SOL    HW2 2421   2.525   0.066   2.907  2.7673 -0.6441  0.1031
  808SOL     OW 2422   0.349   1.080   0.216  0.1197  0.4572 -0.9643
  808SOL    HW1 2423   0.404   1.163   0.230 -1.0924 -2.9214 -0.1556
  808SOL    HW2 2424   0.364   1.044   0.122  2.3074  0.3347 -2.5651
  809SOL     OW 2425   2.639   1.062   2.465  0.8980  0.3274  0.0328
  809SOL    HW1 2426   2.600   1.014   2.543 -0.3266  1.6235 -1.9743
  809SOL    HW2 2427   2.574   1.053   2.384 -0.3956 -0.4241 -1.1137
  810SOL     OW 2428   1.940   0.022   1.835 -0.3222  0.4579  0.1722
  810SOL    HW1 2429   1.906   0.071   1.750  0.7577 -1.0952 -0.8158
  810SOL    HW2 2430   1.958   3.024   1.823 -2.7222  1.2126  1.3701
  811SOL     OW 2431   2.474   2.431   1.805  0.6267  0.0225  0.1721
  811SOL    HW1 2432   2.526   2.516   1.819  1.2180 -2.7385 -1.9005
  811SOL    HW2 2433   2.489   2.398   1.707  1.9891 -0.2393 -0.7516
  812SOL     OW 2434   1.598   0.137   2.871  0.8323  0.1144  0.8070
  812SOL    HW1 2435   1.538   0.103   2.943 -1.1668 -1.9598 -2.0726
  812SOL    HW2 2436   1.612   0.073   2.789  1.5118 -2.6529 -1.1701
  813SOL     OW 2437   2.061   0.283   1.912 -0.4376 -0.2340 -0.1632
  813SOL    HW1 2438   2.008   0.217   1.859 -0.5762 -1.7270  0.4835
  813SOL    HW2 2439   2.141   0.318   1.863 -3.1419 -2.1776  2.3711
  814SOL     OW 2440   1.770   1.241   1.899  0.2516  0.0273 -0.0098
  814SOL    HW1 2441   1.792   1.228   1.999 -1.0312  1.3406 -0.0165
  814SOL    HW2 2442   1.751   1.155   1.847 -0.9199  0.0476 -1.8368
  815SOL     OW 2443   0.539   0.899   0.368 -0.0666  0.5998  0.2213
  815SOL    HW1 2444   0.470   0.975   0.365  1.1200  0.7312  0.4764
  815SOL    HW2 2445   0.595   0.909   0.453  0.4795 -0.5530 -0.9358
  816SOL     OW 2446   2.124   1.608   2.669  0.2841  0.5303 -0.0815
  816SOL    HW1 2447   2.067   1.599   2.583  0.5423 -0.7094 -1.0321
  816SOL    HW2 2448   2.222   1.599   2.645 -2.0426 -1.4671  0.6392
  817SOL     OW 2449   0.175   2.941   0.551 -0.4997 -0.3338  0.2803
  817SOL    HW1 2450   0.168   2.940   0.654 -1.0547  1.8644  2.0753
  817SOL    HW2 2451   0.100   3.002   0.511  0.2843  0.8338 -0.4882
  818SOL     OW 2452   1.919   0.185   2.391 -0.2805 -0.3548 -0.2041
  818SOL    HW1 2453   1.977   0.130   2.461  1.5764 -2.7369  0.4058
  818SOL    HW2 2454   1.833   0.132   2.387 -0.8838 -0.4299 -1.4009
  819SOL     OW 2455   1.492   0.765   0.368  0.1315  0.5920 -0.1848
  819SOL    HW1 2456   1.395   0.752   0.332 -0.6714  0.0515 -2.3654
  819SOL    HW2 2457   1.549   0.677   0.369 -0.3069 -0.4471 -1.4209
  820SOL     OW 2458   2.208   0.681   0.690  0.1126 -0.4465 -0.0374
  820SOL    HW1 2459   2.212   0.782   0.672 -2.0584 -0.1676  2.3239
  820SOL    HW2 2460   2.208   0.671   0.792  0.3290 -1.3460  0.1694
  821SOL     OW 2461   2.376   2.892   0.378 -0.2196 -0.6037  0.3209
  821SOL    HW1 2462   2.419   2.931   0.462  0.3991 -2.1083  0.4984
  821SOL    HW2 2463   2.425   2.900   0.285  1.3692  0.5245 -3.1714
  822SOL     OW 2464   0.156   2.942   2.261 -0.0213 -0.5933  1.1351
  822SOL    HW1 2465   0.198   2.930   2.165  0.6372 -0.7367 -5.8596
  822SOL    HW2 2466   0.102   2.862   2.283  1.5503 -0.3610 -0.9930
  823SOL     OW 2467   2.711   2.243   1.686 -0.9096 -0.0660 -1.1723
  823SOL    HW1 2468   2.748   2.259   1.593  1.2917 -0.7846  3.6946
  823SOL    HW2 2469   2.622   2.192   1.679  1.8666 -1.1825 -1.0542
  824SOL     OW 2470   0.779   2.898   2.004 -0.5257  0.2980 -0.0527
  824SOL    HW1 2471   0.686   2.887   2.039  0.3773 -0.7033 -0.7454
  824SOL    HW2 2472   0.848   2.893   2.083 -1.2419  0.0451  3.7918
  825SOL     OW 2473   1.506   1.612   0.462 -0.7115  0.0657  0.0183
  825SOL    HW1 2474   1.592   1.559   0.441  1.0179 -2.0196  2.5869
  825SOL    HW2 2475   1.469   1.666   0.382 -0.8564  0.6262 -0.6480
  826SOL     OW 2476   1.854   0.412   3.070 -0.2422  0.1700  0.4496
  826SOL    HW1 2477   1.857   0.311   3.053 -0.2332 -0.8540 -1.8215
  826SOL    HW2 2478   1.878   0.431   0.066  0.2029  0.7443 -1.7936
  827SOL     OW 2479   0.150   1.447   1.495  0.0458  0.5820  0.0638
  827SOL    HW1 2480   0.176   1.543   1.517  0.5156 -1.0163 -0.5729
  827SOL    HW2 2481   0.186   1.429   1.404 -1.6932 -0.0883  1.3087
  828SOL     OW 2482   1.975   1.150   1.619  0.0838 -0.5170  0.3671
  828SOL    HW1 2483   1.945   1.150   1.525 -0.6855 -1.8679  3.6829
  828SOL    HW2 2484   1.910   1.094   1.679  0.1301 -0.8868  0.9466
  829SOL     OW 2485   0.071   2.247   0.487  0.8026  0.6403 -0.3301
  829SOL    HW1 2486   0.002   2.230   0.413 -2.6105 -1.7334  1.4804
  829SOL    HW2 2487   0.163   2.222   0.455  0.7332  0.8278 -1.5678
  830SOL     OW 2488   0.956   0.841   0.890 -0.5579 -0.1422 -0.9874
  830SOL    HW1 2489   0.887   0.892   0.836 -0.1765 -0.8155 -2.5132
  830SOL    HW2 2490   0.910   0.758   0.932 -0.0987 -0.7836 -0.0630
  831SOL     OW 2491   2.789   1.651   0.165 -0.4056  0.1973 -0.0631
  831SOL    HW1 2492   2.805   1.710   0.082 -0.7541  1.2685 -0.3759
  831SOL    HW2 2493   2.692   1.662   0.189  1.0978 -0.4747  0.4482
  832SOL     OW 2494   1.027   2.781   0.245  0.3416 -0.5771 -0.1128
  832SOL    HW1 2495   1.034   2.849   0.170 -1.4141 -1.8999  1.2298
  832SOL    HW2 2496   1.080   2.813   0.326 -2.2794  0.4929  0.8016
  833SOL     OW 2497   1.017   0.423   2.063 -0.1860 -0.0477 -0.3529
  833SOL    HW1 2498   1.076   0.419   2.148  0.0722 -1.0900  2.9094
  833SOL    HW2 2499   0.968   0.511   2.045 -2.4348  2.0417 -1.7385
  834SOL     OW 2500   0.222   0.827   1.027  0.1553  0.3521 -0.5972
  834SOL    HW1 2501   0.279   0.913   1.037  3.4833  0.5145  1.6217
  834SOL    HW2 2502   0.234   0.765   1.107 -0.1011 -2.9212 -0.9476
  835SOL     OW 2503   2.476   0.145   1.777  0.1292 -0.9030 -0.2366
  835SOL    HW1 2504   2.455   0.181   1.874 -1.8721 -2.4330 -0.0571
  835SOL    HW2 2505   2.394   0.136   1.722 -0.3622 -0.7871  1.2739
  836SOL     OW 2506   0.334   2.117   0.816 -0.1811 -0.4028 -0.4816
  836SOL    HW1 2507   0.350   2.214   0.845  2.4981 -1.8802  1.2278
  836SOL    HW2 2508   0.407   2.060   0.866 -1.1096 -0.2172  0.4500
  837SOL     OW 2509   2.030   1.795   2.317  0.3498  0.1137 -0.3343
  837SOL    HW1 2510   2.011   1.702   2.355  0.2429 -1.0912 -0.6464
  837SOL    HW2 2511   2.102   1.837   2.371 -0.4071  0.0112 -2.6660
  838SOL     OW 2512   0.376   1.050   1.403  0.0701  0.2608 -0.4084
  838SOL    HW1 2513   0.428   1.022   1.318 -1.0285 -0.6235  0.4889
  838SOL    HW2 2514   0.276   1.048   1.380 -2.6632  0.8407 -2.0666
  839SOL     OW 2515   0.288   0.284   0.757 -0.1442 -0.3959  0.1300
  839SOL    HW1 2516   0.375   0.346   0.748  5.1392  3.4995 -0.4684
  839SOL    HW2 2517   0.226   0.323   0.832 -1.6197 -1.0372  0.8612
  840SOL     OW 2518   2.771   0.295   2.657  0.0977  0.5616 -0.0518
  840SOL    HW1 2519   2.828   0.251   2.580  0.6404 -1.0890 -2.0803
  840SOL    HW2 2520   2.808   0.389   2.666 -2.3380 -1.0496  3.2246
  841SOL     OW 2521   0.426   2.824   2.934  0.3324 -0.0587  0.2981
  841SOL    HW1 2522   0.400   2.828   3.031 -0.0359 -0.3412 -1.5495
  841SOL    HW2 2523   0.366   2.883   2.878  2.1558 -2.4553 -0.9495
  842SOL     OW 2524   1.070   0.132   0.964  0.0798  0.6665  0.0302
  842SOL    HW1 2525   1.011   0.084   0.896 -1.9825 -3.8437 -0.2263
  842SOL    HW2 2526   1.006   0.175   1.034  1.4623  0.3911  0.4686
  843SOL     OW 2527   3.080   1.455   2.876  0.1192  0.0381  0.4481
  843SOL    HW1 2528   0.037   1.428   2.954 -0.5162 -1.3901 -0.9363
  843SOL    HW2 2529   3.060   1.370   2.819  3.5308 -1.1104 -0.6460
  844SOL     OW 2530   0.957   2.350   2.296 -0.6759 -0.2100 -0.0681
  844SOL    HW1 2531   0.964   2.306   2.386 -1.7984  1.9747 -1.1895
  844SOL    HW2 2532   0.862   2.364   2.267  1.0868 -1.2932  1.8516
  845SOL     OW 2533   2.166   2.644   2.399 -0.4359  0.7292 -0.4912
  845SOL    HW1 2534   2.192   2.741   2.377 -2.0424  0.0284  1.1796
  845SOL    HW2 2535   2.110   2.604   2.325  0.8580  1.5881 -0.1949
  846SOL     OW 2536   1.600   1.643   2.487 -0.1036 -0.1047  0.6704
  846SOL    HW1 2537   1.642   1.647   2.581 -1.4844 -0.0101 -0.7925
  846SOL    HW2 2538   1.671   1.671   2.421 -1.3104  0.6518  1.7857
  847SOL     OW 2539   2.743   0.034   0.025  0.1694  0.7778  0.5427
  847SOL    HW1 2540   2.822   3.084   3.090  0.0749 -0.8084 -0.8868
  847SOL    HW2 2541   2.722   0.115   3.067 -0.9938  0.7780  0.9728
  848SOL     OW 2542   0.152   0.883   0.284  0.1695  0.2575 -0.0625
  848SOL    HW1 2543   0.161   0.844   0.377 -1.1569 -1.7159  2.6186
  848SOL    HW2 2544   0.215   0.958   0.269  1.0690 -0.9124  0.9283
  849SOL     OW 2545   1.229   0.107   2.238  0.1093 -0.3611  0.0958
  849SOL    HW1 2546   1.126   0.107   2.232  1.2976  0.6951 -1.6421
  849SOL    HW2 2547   1.266   0.082   2.329  1.7814 -3.9539 -0.4274
  850SOL     OW 2548   0.464   1.273   0.414  0.1313 -0.1860  0.9576
  850SOL    HW1 2549   0.436   1.356   0.363  0.2494 -2.2350  0.1252
  850SOL    HW2 2550   0.425   1.273   0.514 -2.1572 -1.0670  1.7541
  851SOL     OW 2551   0.445   1.514   0.289  0.6858  0.6138 -0.5425
  851SOL    HW1 2552   0.509   1.530   0.374  0.8238 -0.0578  2.0518
  851SOL    HW2 2553   0.501   1.468   0.214  2.2924  1.4157 -1.9579
  852SOL     OW 2554   1.157   1.088   1.881  0.1557  0.3902 -0.5223
  852SOL    HW1 2555   1.241   1.132   1.837  1.6051  0.7730 -3.1589
  852SOL    HW2 2556   1.140   1.127   1.973  0.5668 -0.5618  2.5115
  853SOL     OW 2557   2.601   1.493   0.443 -0.2033  0.4388  0.5935
  853SOL    HW1 2558   2.698   1.483   0.465 -0.1427  1.0348 -1.9760
  853SOL    HW2 2559   2.580   1.544   0.358  0.6510 -2.1319 -2.3132
  854SOL     OW 2560   1.160   0.970   2.177  0.2307 -0.0939  0.2566
  854SOL    HW1 2561   1.213   0.971   2.266 -0.8085 -0.5555  0.4326
  854SOL    HW2 2562   1.164   0.876   2.134  0.0978 -2.7580 -1.3938
  855SOL     OW 2563   0.215   2.684   2.581 -0.0791  0.0214 -0.1689
  855SOL    HW1 2564   0.296   2.748   2.593  0.9831  2.7078 -2.1191
  855SOL    HW2 2565   0.128   2.722   2.619 -2.1273 -1.3282 -0.3328
  856SOL     OW 2566   1.179   0.741   2.074  0.4888  0.1278 -0.5429
  856SOL    HW1 2567   1.229   0.717   1.991  2.7958  0.4830  2.0433
  856SOL    HW2 2568   1.083   0.711   2.083  0.3946  1.2214  0.1620
  857SOL     OW 2569   1.265   0.626   2.327  0.1728  0.2984 -0.1757
  857SOL    HW1 2570   1.224   0.535   2.309  0.7348  0.2869  0.4742
  857SOL    HW2 2571   1.294   0.674   2.244 -0.7488  0.9617  0.3852
  858SOL     OW 2572   0.080   0.833   1.758 -0.7477 -0.8351 -0.1299
  858SOL    HW1 2573   0.100   0.896   1.840 -2.1401 -0.1591  0.3680
  858SOL    HW2 2574   0.165   0.838   1.703 -0.3325  0.2640 -1.4477
  859SOL     OW 2575   2.694   2.999   0.939 -0.6436 -0.5721 -0.3757
  859SOL    HW1 2576   2.781   3.055   0.902  3.3291  4.3404 -0.3800
  859SOL    HW2 2577   2.666   2.922   0.880 -1.4907  0.7105  1.6100
  860SOL     OW 2578   2.023   0.170   0.670 -0.2849 -0.1178 -0.7362
  860SOL    HW1 2579   1.920   0.163   0.650 -0.8345 -0.1005  1.3246
  860SOL    HW2 2580   2.074   0.135   0.588  0.8580 -1.9116 -1.1158
  861SOL     OW 2581   1.472   0.510   1.193  0.0067 -0.7305 -0.3109
  861SOL    HW1 2582   1.410   0.506   1.275 -0.3797  0.5659 -1.8278
  861SOL    HW2 2583   1.427   0.549   1.115  1.3254 -1.3233  0.7831
  862SOL     OW 2584   1.337   0.022   2.483  0.9337 -0.3413  0.1555
  862SOL    HW1 2585   1.365   3.035   2.439 -3.7321 -0.3471 -1.0854
  862SOL    HW2 2586   1.405   0.091   2.474  0.0166 -0.1605  1.4399
  863SOL     OW 2587   0.004   2.745   0.882 -0.4541  0.2241  0.2722
  863SOL    HW1 2588   3.078   2.742   0.982  0.7532 -1.5848 -0.0309
  863SOL    HW2 2589   3.055   2.670   0.821 -1.0361 -1.2341 -1.0473
  864SOL     OW 2590   2.394   0.053   2.227  0.4882 -0.4021 -0.0541
  864SOL    HW1 2591   2.322   0.021   2.293  1.3384  3.4955  0.6309
  864SOL    HW2 2592   2.396   0.156   2.220 -2.4014  1.8415  0.9153
  865SOL     OW 2593   0.983   1.402   2.094  0.0537  0.8700 -0.2370
  865SOL    HW1 2594   0.975   1.299   2.116  0.1707  0.2343  0.2427
  865SOL    HW2 2595   0.923   1.451   2.161 -1.8534  1.3669 -1.0371
  866SOL     OW 2596   1.989   2.795   1.093  0.7136 -0.4942 -0.0511
  866SOL    HW1 2597   1.928   2.732   1.036  1.6012 -0.6517  2.4291
  866SOL    HW2 2598   2.084   2.797   1.062 -0.8463 -1.2986 -0.1272
  867SOL     OW 2599   2.109   2.955   0.773 -0.4553  0.2849 -0.0039
  867SOL    HW1 2600   2.149   2.911   0.857  0.5990  2.4668  1.1266
  867SOL    HW2 2601   2.010   2.953   0.770  0.4533 -0.3059  0.7542
  868SOL     OW 2602   2.885   2.020   1.704  0.1555 -0.3388 -0.0821
  868SOL    HW1 2603   2.883   1.973   1.613  0.7205 -3.1764  0.3932
  868SOL    HW2 2604   2.813   2.087   1.713 -1.1529 -0.1357 -2.5611
  869SOL     OW 2605   2.068   2.178   2.207  0.0570 -0.3178 -1.0311
  869SOL    HW1 2606   1.966   2.194   2.209 -2.1681 -0.4737  1.3840
  869SOL    HW2 2607   2.129   2.256   2.177  0.1217  0.5799  1.2709
  870SOL     OW 2608   1.441   1.163   0.834  0.0363 -1.0847 -0.3006
  870SOL    HW1 2609   1.482   1.184   0.739  2.2602 -0.3520 -1.3122
  870SOL    HW2 2610   1.352   1.206   0.846  0.7588 -1.0768  2.3516
  871SOL     OW 2611   3.042   1.838   1.998  0.0806 -0.1831 -0.3010
  871SOL    HW1 2612   2.959   1.871   2.044  1.8758 -0.2496 -1.1521
  871SOL    HW2 2613   0.025   1.858   2.053 -1.5995 -0.7006  1.3491
  872SOL     OW 2614   1.253   1.310   2.578 -0.1494  0.5277  0.2509
  872SOL    HW1 2615   1.159   1.331   2.550  1.1564 -0.7316  0.3234
  872SOL    HW2 2616   1.320   1.364   2.522 -0.7669  0.5235  1.8251
  873SOL     OW 2617   0.740   1.095   1.966 -0.2170 -0.6323 -0.2918
  873SOL    HW1 2618   0.736   1.146   1.880  2.6905 -0.6367  1.6024
  873SOL    HW2 2619   0.648   1.057   2.004  1.7057 -0.8954  2.2117
  874SOL     OW 2620   1.751   0.822   1.556 -0.4328 -0.2670 -0.0157
  874SOL    HW1 2621   1.706   0.858   1.473 -0.2957 -1.6808  2.0065
  874SOL    HW2 2622   1.852   0.811   1.547 -1.2278  3.3603 -0.7833
  875SOL     OW 2623   3.046   0.227   0.177 -0.4916  0.4453  0.1238
  875SOL    HW1 2624   3.066   0.135   0.220  1.1807  0.3264 -2.1785
  875SOL    HW2 2625   2.961   0.268   0.212  1.8624 -3.0618 -3.9448
  876SOL     OW 2626   0.821   1.217   0.166 -0.5883  0.1035  0.2221
  876SOL    HW1 2627   0.829   1.216   0.266 -2.7669 -2.4265  0.3900
  876SOL    HW2 2628   0.910   1.239   0.115  5.1466 -0.5181 -0.8058
  877SOL     OW 2629   2.462   2.666   0.931 -0.0795  0.1504  0.3061
  877SOL    HW1 2630   2.409   2.665   1.018  0.5314 -2.7303  2.3380
  877SOL    HW2 2631   2.556   2.632   0.943 -1.3450  0.6413 -0.2107
  878SOL     OW 2632   1.938   1.851   0.425  0.2360 -0.1802  0.6068
  878SOL    HW1 2633   1.989   1.889   0.507 -2.6446 -1.2135 -0.7314
  878SOL    HW2 2634   1.997   1.852   0.341  0.4838 -2.9855 -1.2739
  879SOL     OW 2635   2.933   1.439   1.870  0.3888  0.3366  0.4032
  879SOL    HW1 2636   2.999   1.510   1.832 -0.6690  2.1622 -0.0933
  879SOL    HW2 2637   2.887   1.468   1.956  0.1062  0.7504  0.8089
  880SOL     OW 2638   0.544   2.003   0.957 -0.7646  0.2777  0.8092
  880SOL    HW1 2639   0.633   1.988   1.007  1.2130  2.5968 -1.5304
  880SOL    HW2 2640   0.505   1.910   0.952 -2.0044  0.4833 -0.5189
  881SOL     OW 2641   1.047   0.102   1.803  0.1117 -0.2776  0.3724
  881SOL    HW1 2642   1.101   0.014   1.788 -3.6191 -1.8351  0.5267
  881SOL    HW2 2643   1.106   0.180   1.810 -3.1942 -1.1707 -0.9229
  882SOL     OW 2644   2.394   0.937   1.120 -0.4257 -0.0663 -0.0845
  882SOL    HW1 2645   2.431   1.003   1.048  1.2255  1.7314 -2.4326
  882SOL    HW2 2646   2.380   0.987   1.205  3.2093  0.8569 -1.7400
  883SOL     OW 2647   1.684   0.323   1.500 -0.0650 -0.3419  0.1060
  883SOL    HW1 2648   1.653   0.348   1.409 -0.4155  1.2106  2.3324
  883SOL    HW2 2649   1.706   0.410   1.549 -0.3193 -0.4893 -0.2311
  884SOL     OW 2650   2.770   0.266   2.108 -0.4526 -0.4589  0.0508
  884SOL    HW1 2651   2.868   0.292   2.110  0.2236 -2.3310 -1.6210
  884SOL    HW2 2652   2.717   0.299   2.030  0.6382 -1.6026  0.5240
  885SOL     OW 2653   1.361   1.372   3.086  0.2410 -0.4285  0.3133
  885SOL    HW1 2654   1.311   1.421   3.011  0.6168 -1.1091 -1.6268
  885SOL    HW2 2655   1.301   1.341   0.060 -2.0401 -2.7481  1.1470
  886SOL     OW 2656   2.081   0.277   2.917 -0.4908  0.0351  0.4979
  886SOL    HW1 2657   2.120   0.350   2.984  1.8406  1.2051  0.0254
  886SOL    HW2 2658   2.002   0.224   2.949  2.0613  1.1169  0.7685
  887SOL     OW 2659   1.318   2.925   1.469 -0.1020 -0.1246 -0.1452
  887SOL    HW1 2660   1.334   2.983   1.389  0.6851 -2.6819 -0.5013
  887SOL    HW2 2661   1.309   2.976   1.558  2.5633 -0.9594 -1.3205
  888SOL     OW 2662   1.721   1.761   2.274  0.1066  0.2212  0.8779
  888SOL    HW1 2663   1.707   1.711   2.183 -2.5979  1.3215 -1.4355
  888SOL    HW2 2664   1.799   1.827   2.267 -0.9723 -0.2762  0.1900
  889SOL     OW 2665   1.936   2.418   1.096 -0.1204  1.3611 -0.6383
  889SOL    HW1 2666   1.881   2.437   1.180 -0.0602  0.8315 -0.8540
  889SOL    HW2 2667   1.910   2.471   1.015  2.4501 -1.8520 -1.5488
  890SOL     OW 2668   1.269   1.628   0.815  0.0848 -0.4286  0.6631
  890SOL    HW1 2669   1.311   1.677   0.896 -0.6401  1.6573 -0.6393
  890SOL    HW2 2670   1.338   1.597   0.748 -0.3028 -1.0376 -0.7527
  891SOL     OW 2671   2.582   1.325   0.156 -0.8034  0.3055 -0.4646
  891SOL    HW1 2672   2.683   1.327   0.153 -0.7906  0.1550 -2.1598
  891SOL    HW2 2673   2.550   1.419   0.137  0.2269 -0.8385  2.7702
  892SOL     OW 2674   2.118   1.173   3.027 -0.3197  0.3140 -0.0335
  892SOL    HW1 2675   2.171   1.201   0.010 -2.2647  0.9422 -3.4100
  892SOL    HW2 2676   2.084   1.253   2.980 -0.7018 -0.8853  1.8577
  893SOL     OW 2677   1.871   2.438   1.439 -0.2759  0.9304  0.3225
  893SOL    HW1 2678   1.882   2.532   1.407 -0.5198  4.4753  1.1069
  893SOL    HW2 2679   1.959   2.396   1.456 -3.7239  2.9840 -2.8837
  894SOL     OW 2680   2.609   2.788   0.696  0.5142 -0.4293 -0.6947
  894SOL    HW1 2681   2.657   2.733   0.628 -4.1032  0.8858  2.2635
  894SOL    HW2 2682   2.562   2.729   0.763  2.2771  0.1352  0.8353
  895SOL     OW 2683   2.820   2.579   2.766  0.1014  0.5310  0.0148
  895SOL    HW1 2684   2.736   2.636   2.758  1.2228  0.6322 -1.8968
  895SOL    HW2 2685   2.806   2.486   2.726 -0.3682 -1.0732  1.9870
  896SOL     OW 2686   2.057   0.016   2.582 -0.0686  0.3875  0.1275
  896SOL    HW1 2687   2.067   0.055   2.679 -2.5403  0.8518  3.5693
  896SOL    HW2 2688   2.056   3.017   2.602  0.1671 -1.1085 -0.3033
  897SOL     OW 2689   0.346   1.722   1.980 -0.2095 -0.3776  0.2080
  897SOL    HW1 2690   0.306   1.631   1.953 -3.4949  0.2959 -0.2527
  897SOL    HW2 2691   0.437   1.714   2.030 -0.5440 -1.9290 -0.8010
  898SOL     OW 2692   2.523   1.557   1.652 -0.1259  0.0947 -0.3923
  898SOL    HW1 2693   2.521   1.609   1.736  0.6488 -1.5145  0.7173
  898SOL    HW2 2694   2.430   1.564   1.604  0.3904 -1.2263 -1.3265
  899SOL     OW 2695   1.507   2.729   1.523  0.0881 -0.0150  0.4664
  899SOL    HW1 2696   1.581   2.768   1.581  0.3202 -2.5046  3.6009
  899SOL    HW2 2697   1.434   2.801   1.505 -1.1445  1.7493 -0.4230
  900SOL     OW 2698   1.238   1.015   2.905  0.0715 -0.1857  0.0296
  900SOL    HW1 2699   1.141   1.043   2.883 -1.1039 -2.0481  2.1283
  900SOL    HW2 2700   1.243   0.914   2.914 -2.1720 -2.0760  0.6815
  901SOL     OW 2701   0.750   1.219   2.425 -0.1605  0.0920 -0.4336
  901SOL    HW1 2702   0.726   1.144   2.363 -2.4745 -3.0945  2.1338
  901SOL    HW2 2703   0.743   1.310   2.380 -0.1925 -0.8346  0.7886
  902SOL     OW 2704   2.761   2.187   0.381 -0.2715  0.2114  0.5805
  902SOL    HW1 2705   2.683   2.167   0.316 -1.7539 -1.4167  2.0774
  902SOL    HW2 2706   2.853   2.155   0.344  4.8345  0.1204 -1.5730
  903SOL     OW 2707   2.446   1.137   1.746 -0.2424  0.1386  0.3879
  903SOL    HW1 2708   2.533   1.134   1.697 -1.1905  1.9978  1.4442
  903SOL    HW2 2709   2.454   1.091   1.839 -0.3581  0.8343  0.1413
  904SOL     OW 2710   1.902   0.744   0.246  0.7264  0.3050 -0.0536
  904SOL    HW1 2711   1.908   0.751   0.142  0.6044  0.0214 -0.6994
  904SOL    HW2 2712   1.928   0.833   0.291 -1.5849 -3.8010 -1.3916
  905SOL     OW 2713   2.372   2.540   1.155 -0.1124  0.0026  0.2282
  905SOL    HW1 2714   2.331   2.576   1.237  0.0986 -0.0001 -2.9501
  905SOL    HW2 2715   2.308   2.465   1.120 -3.1359 -1.9732  0.7314
  906SOL     OW 2716   1.497   1.967   3.044  0.3890 -0.2718  0.3179
  906SOL    HW1 2717   1.513   1.920   2.955 -0.0511  1.3807  0.4870
  906SOL    HW2 2718   1.397   1.977   3.050 -1.1818 -0.2991  1.4541
  907SOL     OW 2719   0.917   2.474   0.731 -0.1086 -0.0684 -0.1282
  907SOL    HW1 2720   0.924   2.422   0.816 -0.2172  2.8544 -1.1723
  907SOL    HW2 2721   0.958   2.421   0.658 -1.0307 -0.8104 -1.1324
  908SOL     OW 2722   0.959   2.859   2.189  0.0608  0.1340 -0.1467
  908SOL    HW1 2723   0.913   2.786   2.245 -1.8395  2.4372  1.0258
  908SOL    HW2 2724   1.047   2.825   2.146  1.8160  0.4146  0.0285
  909SOL     OW 2725   1.987   0.437   1.459 -0.5428 -0.6456 -0.5320
  909SOL    HW1 2726   1.888   0.441   1.492 -2.9333  0.1449 -1.2540
  909SOL    HW2 2727   2.027   0.344   1.457 -1.1644  1.4642 -1.2423
  910SOL     OW 2728   1.211   0.597   2.761 -0.2046  0.2934 -0.2152
  910SOL    HW1 2729   1.289   0.624   2.700 -1.8483  0.1418 -0.4917
  910SOL    HW2 2730   1.218   0.633   2.857  2.5085 -1.0473 -1.2195
  911SOL     OW 2731   2.873   0.703   0.115 -0.9270 -0.6251 -0.1528
  911SOL    HW1 2732   2.887   0.801   0.133 -0.3946 -1.7818  1.8497
  911SOL    HW2 2733   2.961   0.653   0.143  1.9103 -0.9552 -2.5921
  912SOL     OW 2734   2.910   2.517   3.015  0.1434 -0.3433 -0.3412
  912SOL    HW1 2735   2.901   2.550   2.921 -1.0400 -0.8554  0.5607
  912SOL    HW2 2736   3.000   2.541   3.063  0.7469 -1.1353 -0.5555
  913SOL     OW 2737   2.772   2.144   2.786  0.1453  0.1803  0.2640
  913SOL    HW1 2738   2.754   2.240   2.753 -0.4573 -2.7580 -1.8578
  913SOL    HW2 2739   2.866   2.110   2.767 -1.2313  0.2377 -1.2957
  914SOL     OW 2740   1.463   1.718   1.552  0.3358  0.1608 -0.2614
  914SOL    HW1 2741   1.451   1.646   1.478  2.4925 -2.9469 -0.4664
  914SOL    HW2 2742   1.389   1.789   1.547  0.8893  1.6845  0.4794
  915SOL     OW 2743   0.296   2.640   1.900 -0.0851  0.2551 -0.4546
  915SOL    HW1 2744   0.221   2.605   1.959 -1.7004 -0.0276  0.2269
  915SOL    HW2 2745   0.384   2.586   1.898  1.2676  1.6518 -2.5624
  916SOL     OW 2746   0.467   1.200   1.596 -0.2648  0.4563 -0.2427
  916SOL    HW1 2747   0.427   1.133   1.530  1.1739 -0.6091 -0.4176
  916SOL    HW2 2748   0.394   1.259   1.630 -1.6190 -0.7151  0.5888
  917SOL     OW 2749   2.343   0.164   0.008  0.5303 -0.8873 -0.2326
  917SOL    HW1 2750   2.356   0.134   0.108  1.2993 -2.5859  2.2737
  917SOL    HW2 2751   2.406   0.241   3.089 -1.8272 -0.8236  1.5641
  918SOL     OW 2752   1.443   2.346   2.346  0.3596 -0.3977  0.0553
  918SOL    HW1 2753   1.497   2.260   2.339  0.4779 -0.5895 -1.3478
  918SOL    HW2 2754   1.359   2.328   2.409 -5.0737 -3.5393  3.9156
  919SOL     OW 2755   1.708   2.511   1.745 -0.0517  0.8202  0.1618
  919SOL    HW1 2756   1.682   2.467   1.656 -0.2667 -0.6489  0.9161
  919SOL    HW2 2757   1.791   2.464   1.772 -0.8086 -1.4075 -4.1438
  920SOL     OW 2758   0.703   1.033   2.949 -0.1846 -0.3201  0.9960
  920SOL    HW1 2759   0.689   1.124   2.908  1.5076 -2.7052  0.9738
  920SOL    HW2 2760   0.682   1.024   3.050 -0.9025 -0.7792  0.5741
  921SOL     OW 2761   2.874   0.987   2.554 -0.0352 -0.5175  0.4001
  921SOL    HW1 2762   2.777   1.006   2.518  0.6886  0.6711 -0.2753
  921SOL    HW2 2763   2.926   0.928   2.483  3.1148 -0.6224 -2.7953
  922SOL     OW 2764   0.736   1.819   0.435  0.1410  0.4628 -0.1114
  922SOL    HW1 2765   0.836   1.819   0.411  1.0545 -0.0764 -1.5686
  922SOL    HW2 2766   0.723   1.885   0.508  0.0706  0.7039  1.9695
  923SOL     OW 2767   0.397   1.012   1.813  0.3802 -0.2387  0.2208
  923SOL    HW1 2768   0.436   1.089   1.759 -1.3384 -0.5417 -1.5674
  923SOL    HW2 2769   0.349   0.947   1.750 -0.9808 -1.2735  0.0023
  924SOL     OW 2770   1.332   2.978   2.904  0.8433  0.4804  0.0881
  924SOL    HW1 2771   1.291   3.021   2.824  1.1966  1.2404  1.2635
  924SOL    HW2 2772   1.359   3.051   2.972 -1.9573  1.5654  1.4958
  925SOL     OW 2773   2.647   1.411   1.404  0.3246  0.5136  0.1795
  925SOL    HW1 2774   2.564   1.368   1.370  1.4063  3.0034 -1.2225
  925SOL    HW2 2775   2.633   1.444   1.501 -2.6067  1.8920  1.9489
  926SOL     OW 2776   2.228   0.412   1.734 -0.4797 -0.3622 -0.0112
  926SOL    HW1 2777   2.202   0.484   1.803  1.5169  1.7880  2.9223
  926SOL    HW2 2778   2.288   0.448   1.660 -1.1507  0.0044  0.2842
  927SOL     OW 2779   2.460   2.426   1.544  0.0581 -0.0106 -0.1849
  927SOL    HW1 2780   2.414   2.514   1.533  2.3310  0.5743 -0.9226
  927SOL    HW2 2781   2.459   2.380   1.458  0.8326 -0.1162  3.2948
  928SOL     OW 2782   0.146   0.843   2.334 -0.2405  0.4251 -0.4159
  928SOL    HW1 2783   0.047   0.860   2.343 -2.2528  1.5446 -1.6893
  928SOL    HW2 2784   0.200   0.927   2.351 -3.2801 -1.5046 -0.3682
  929SOL     OW 2785   2.517   0.103   0.898 -0.1155  0.5766  0.0488
  929SOL    HW1 2786   2.573   0.025   0.930 -1.4742 -1.4231 -1.7721
  929SOL    HW2 2787   2.432   0.067   0.857  2.0156 -1.6066  0.9451
  930SOL     OW 2788   2.787   3.038   1.460  0.0489 -0.1611 -0.5197
  930SOL    HW1 2789   2.862   2.967   1.464  3.3121 -1.8620  1.5184
  930SOL    HW2 2790   2.776   3.070   1.362 -0.4120 -2.9407  0.1809
  931SOL     OW 2791   2.138   1.003   0.413 -0.3323  0.2024  0.5536
  931SOL    HW1 2792   2.043   1.021   0.381 -1.8294 -2.3794 -0.7396
  931SOL    HW2 2793   2.193   0.964   0.337  0.4899  0.0035 -0.3719
  932SOL     OW 2794   2.038   1.429   1.676  0.4529  0.5239  0.4641
  932SOL    HW1 2795   2.011   1.475   1.593  0.7621 -1.0211  1.6888
  932SOL    HW2 2796   2.018   1.329   1.667  2.8431 -1.0629 -3.1647
  933SOL     OW 2797   2.946   2.114   1.269 -0.0707  0.7502 -0.0696
  933SOL    HW1 2798   2.993   2.190   1.218 -0.3658 -0.5043 -1.5752
  933SOL    HW2 2799   3.014   2.050   1.306  1.6591 -0.1495 -3.0946
  934SOL     OW 2800   0.640   1.993   1.413  0.2393 -0.7689 -0.1482
  934SOL    HW1 2801   0.722   2.042   1.372  0.7116 -2.3145  0.2473
  934SOL    HW2 2802   0.636   2.010   1.510  2.1905  1.7525 -4.3796
  935SOL     OW 2803   2.876   1.550   2.105 -0.0858 -0.0812 -0.5624
  935SOL    HW1 2804   2.778   1.517   2.102  0.1793 -0.3570 -1.0753
  935SOL    HW2 2805   2.889   1.628   2.169 -0.4871  2.2727  1.0087
  936SOL     OW 2806   2.634   1.469   2.045 -0.1130 -0.0829  0.1617
  936SOL    HW1 2807   2.552   1.411   2.070 -0.4899 -1.4145  1.8442
  936SOL    HW2 2808   2.602   1.543   1.985 -0.3565  1.0607  2.3458
  937SOL     OW 2809   2.132   1.390   2.104  0.5155 -0.0438  0.6705
  937SOL    HW1 2810   2.122   1.465   2.040  1.6929 -0.4308 -0.7306
  937SOL    HW2 2811   2.154   1.425   2.198  0.8626  1.1608 -1.3214
  938SOL     OW 2812   0.703   2.309   2.486 -0.1720  0.8206  0.8119
  938SOL    HW1 2813   0.772   2.328   2.557  1.9462  0.4012  0.7431
  938SOL    HW2 2814   0.709   2.214   2.445 -0.9093 -1.0438  2.9372
  939SOL     OW 2815   2.263   0.978   2.878  0.2176 -0.8885 -0.1201
  939SOL    HW1 2816   2.192   0.963   2.805  1.0638  1.0137  0.5746
  939SOL    HW2 2817   2.216   1.035   2.951 -0.4586  0.5919 -0.7655
  940SOL     OW 2818   1.208   1.933   0.617  0.5233 -0.2759  0.6565
  940SOL    HW1 2819   1.280   1.949   0.548 -0.2214 -0.2588  0.9537
  940SOL    HW2 2820   1.198   1.834   0.633 -1.9983  1.3103  0.4610
  941SOL     OW 2821   1.254   2.682   2.426 -0.1892  0.0264 -0.5814
  941SOL    HW1 2822   1.277   2.620   2.506  2.1391 -1.1869  4.1609
  941SOL    HW2 2823   1.215   2.628   2.349 -1.9387  1.2847  0.5359
  942SOL     OW 2824   0.622   2.273   0.360 -0.1955  0.0641  0.0848
  942SOL    HW1 2825   0.643   2.334   0.287 -0.7725 -0.1549 -0.8054
  942SOL    HW2 2826   0.709   2.218   0.377  4.3422 -0.8079 -0.7970
  943SOL     OW 2827   1.743   2.780   1.680 -0.3747  0.2519  0.0394
  943SOL    HW1 2828   1.714   2.692   1.720  0.4755 -1.1058 -0.5707
  943SOL    HW2 2829   1.828   2.764   1.623  3.2534  0.7048 -1.2120
  944SOL     OW 2830   1.005   1.559   2.940  0.2039 -0.8162  0.3320
  944SOL    HW1 2831   1.098   1.536   2.910 -2.6055  1.3778  2.7000
  944SOL    HW2 2832   0.933   1.527   2.876 -1.5204  0.1615  1.7858
  945SOL     OW 2833   2.922   2.553   0.771 -0.0938 -0.1947  0.5470
  945SOL    HW1 2834   2.921   2.465   0.818  0.4594  0.3713 -0.5365
  945SOL    HW2 2835   2.956   2.543   0.679 -1.4026 -0.3236 -1.0398
  946SOL     OW 2836   0.819   1.443   2.769  0.2887 -0.1646 -0.6458
  946SOL    HW1 2837   0.744   1.372   2.769  1.6231 -0.4393  0.3256
  946SOL    HW2 2838   0.889   1.419   2.697 -0.2946 -1.4662 -1.6639
  947SOL     OW 2839   2.729   0.031   1.735  0.1360 -0.2652  0.0255
  947SOL    HW1 2840   2.748   0.002   1.638  0.0346  2.0236 -1.8036
  947SOL    HW2 2841   2.635   0.055   1.753  1.0014 -0.4766  2.3408
  948SOL     OW 2842   0.314   1.834   1.281 -0.1992  0.1057  0.6354
  948SOL    HW1 2843   0.268   1.759   1.226  0.1290 -3.9856 -0.7465
  948SOL    HW2 2844   0.406   1.800   1.320  3.0633  1.4701  0.8326
  949SOL     OW 2845   0.808   0.834   1.879 -0.2311  0.7663  0.0166
  949SOL    HW1 2846   0.906   0.828   1.843 -0.6999 -0.9071 -0.2760
  949SOL    HW2 2847   0.793   0.927   1.918 -0.8000  3.3312 -0.1942
  950SOL     OW 2848   3.080   0.987   1.076  0.6007 -0.5051 -0.6392
  950SOL    HW1 2849   0.022   0.898   1.058 -0.3467 -3.5171 -0.5129
  950SOL    HW2 2850   2.977   0.982   1.065  3.5846  0.7095 -0.3015
  951SOL     OW 2851   0.501   1.802   2.394 -0.2808 -0.2669  0.2587
  951SOL    HW1 2852   0.491   1.806   2.494  0.1881 -3.9373 -1.2984
  951SOL    HW2 2853   0.569   1.868   2.369  1.0985 -0.1397  0.5598
  952SOL     OW 2854   1.519   2.180   0.553  0.0982  0.4569 -0.3016
  952SOL    HW1 2855   1.589   2.110   0.526 -0.6705  0.2190  0.1625
  952SOL    HW2 2856   1.465   2.216   0.472  0.8563 -0.1160 -0.2139
  953SOL     OW 2857   0.987   0.702   0.294  0.0350 -0.9622 -0.3696
  953SOL    HW1 2858   0.976   0.619   0.356  1.3670 -1.0733  1.5591
  953SOL    HW2 2859   0.913   0.713   0.226 -2.6593 -1.4846  1.9138
  954SOL     OW 2860   2.121   0.931   1.066  0.1768  0.5460 -0.0243
  954SOL    HW1 2861   2.218   0.953   1.080 -2.1226 -0.2112 -1.2364
  954SOL    HW2 2862   2.056   1.009   1.032 -1.5599  2.2726 -2.9527
  955SOL     OW 2863   2.382   1.396   0.575 -0.3250  0.7675 -0.1837
  955SOL    HW1 2864   2.305   1.408   0.512  0.5733 -1.0778  2.5727
  955SOL    HW2 2865   2.470   1.426   0.532 -0.1327  1.8464 -1.1071
  956SOL     OW 2866   0.841   0.415   1.813  0.1895 -0.3142  0.2017
  956SOL    HW1 2867   0.877   0.399   1.904 -2.7061 -0.8633 -1.2276
  956SOL    HW2 2868   0.913   0.414   1.737  0.9637  1.5485 -2.0355
  957SOL     OW 2869   1.952   0.588   1.100  0.3351 -0.5938 -0.4727
  957SOL    HW1 2870   1.863   0.632   1.130 -1.5275 -4.1347  0.6841
  957SOL    HW2 2871   2.018   0.563   1.175 -0.3849  2.5456 -0.2191
  958SOL     OW 2872   0.070   2.182   0.756 -0.0416 -0.2673 -0.3278
  958SOL    HW1 2873   0.062   2.200   0.657  2.4585  1.9998 -1.0265
  958SOL    HW2 2874   0.163   2.157   0.792  2.3639  1.5242 -1.4747
  959SOL     OW 2875   1.820   1.485   1.842  0.2085  0.0808 -0.3085
  959SOL    HW1 2876   1.909   1.482   1.792  1.1666  2.1506 -2.9940
  959SOL    HW2 2877   1.793   1.394   1.881  1.4527 -0.6908  0.8580
  960SOL     OW 2878   3.073   1.873   3.046 -0.5155  0.5048  0.1220
  960SOL    HW1 2879   0.032   1.827   0.015 -0.6266 -0.6234 -0.3010
  960SOL    HW2 2880   2.979   1.828   3.034  0.9825  0.7013 -1.8206
  961SOL     OW 2881   0.730   1.613   1.154  0.1779  0.2117  0.2404
  961SOL    HW1 2882   0.816   1.595   1.205  1.5844  0.9126 -0.7598
  961SOL    HW2 2883   0.745   1.623   1.053 -0.6360  0.3076 -3.1067
  962SOL     OW 2884   0.917   1.463   0.780  0.1081 -0.0194 -0.4683
  962SOL    HW1 2885   0.820   1.443   0.745 -1.3203 -1.2824 -2.9891
  962SOL    HW2 2886   0.929   1.417   0.870  0.9637 -2.9811 -0.1346
  963SOL     OW 2887   0.946   1.930   2.330 -0.6732 -0.0150  0.1162
  963SOL    HW1 2888   0.946   1.865   2.407  0.3055 -1.1681  2.4266
  963SOL    HW2 2889   1.034   1.983   2.327  0.1620 -3.8935 -0.2782
  964SOL     OW 2890   0.248   2.914   2.016  0.2099  0.3464  0.6633
  964SOL    HW1 2891   0.168   2.952   1.966 -0.5402 -0.5466  1.4349
  964SOL    HW2 2892   0.270   2.819   1.979  1.9709 -1.6338  0.1853
  965SOL     OW 2893   0.752   2.166   3.068  0.1066 -0.8358  0.3278
  965SOL    HW1 2894   0.760   2.259   0.015  0.1125  2.4094 -0.4352
  965SOL    HW2 2895   0.653   2.144   3.046 -2.1271  2.1354 -0.9518
  966SOL     OW 2896   2.968   1.692   0.374 -0.1986 -0.0620 -0.2267
  966SOL    HW1 2897   2.995   1.604   0.421  1.1642 -0.6849  0.1107
  966SOL    HW2 2898   2.905   1.676   0.295 -0.2904 -1.5042  0.3829
  967SOL     OW 2899   2.184   2.484   2.987  0.5691  0.2914  0.5061
  967SOL    HW1 2900   2.156   2.387   3.003  0.1199 -1.1104 -0.3226
  967SOL    HW2 2901   2.163   2.532   3.077  0.7406 -0.2273  2.7465
  968SOL     OW 2902   2.234   2.845   0.984 -0.0689 -0.9897 -0.0851
  968SOL    HW1 2903   2.272   2.886   1.075  1.1832  0.9617  2.8418
  968SOL    HW2 2904   2.307   2.804   0.928 -1.5071 -0.0184 -2.1297
  969SOL     OW 2905   0.128   0.976   2.006 -0.3762  0.0026  0.3187
  969SOL    HW1 2906   0.195   0.913   2.047 -0.0371  0.2421 -2.0178
  969SOL    HW2 2907   0.161   1.074   2.026 -0.5852  0.4377  1.8870
  970SOL     OW 2908   1.788   1.184   0.534 -0.5059 -0.5663  0.8062
  970SOL    HW1 2909   1.882   1.172   0.573  2.1076 -1.0753  1.2935
  970SOL    HW2 2910   1.741   1.098   0.512 -1.1704 -0.1162 -0.4910
  971SOL     OW 2911   2.490   2.729   1.561  0.2839 -0.3580 -0.7285
  971SOL    HW1 2912   2.489   2.717   1.664 -2.6388 -0.2527  3.8020
  971SOL    HW2 2913   2.579   2.708   1.526 -2.5428  2.7086  0.7647
  972SOL     OW 2914   2.942   0.306   1.291 -0.2010  0.4108 -0.1857
  972SOL    HW1 2915   2.879   0.275   1.218  2.7202  1.0653  0.2593
  972SOL    HW2 2916   2.896   0.364   1.359  1.6754 -1.5410 -1.9917
  973SOL     OW 2917   0.047   0.504   2.737  0.2401 -0.1132  0.2731
  973SOL    HW1 2918   0.103   0.555   2.669 -1.3799 -1.1294  1.0091
  973SOL    HW2 2919   3.043   0.508   2.714 -2.4638  0.9283  0.1175
  974SOL     OW 2920   2.433   1.068   2.012  0.2092 -0.0382 -0.2020
  974SOL    HW1 2921   2.344   1.017   1.998  0.5903 -1.2129  0.9816
  974SOL    HW2 2922   2.411   1.163   2.051  0.1929  2.2980  0.6206
  975SOL     OW 2923   1.063   0.404   1.631  0.1140 -0.5575 -0.1973
  975SOL    HW1 2924   1.062   0.311   1.587  0.3559 -1.4216 -0.9233
  975SOL    HW2 2925   1.133   0.403   1.706  0.7797  1.1584  2.3894
  976SOL     OW 2926   0.893   1.516   1.510  0.2407 -0.2556 -0.0518
  976SOL    HW1 2927   0.908   1.532   1.413 -0.8314  0.7816  0.4804
  976SOL    HW2 2928   0.793   1.529   1.531  2.1470 -0.0821  2.3501
  977SOL     OW 2929   1.106   2.942   0.042  0.4225 -0.1661 -0.2158
  977SOL    HW1 2930   1.083   2.931   3.043  0.2279 -1.1839  1.1556
  977SOL    HW2 2931   1.135   3.042   0.051  0.1017  3.0370  0.4587
  978SOL     OW 2932   2.404   1.324   2.108  0.7196  0.0623  0.2262
  978SOL    HW1 2933   2.306   1.343   2.094  2.5297  0.2606  2.2701
  978SOL    HW2 2934   2.415   1.283   2.202 -1.0630  1.0545 -0.7984
  979SOL     OW 2935   1.486   0.419   1.795 -0.0361 -0.0542 -0.9001
  979SOL    HW1 2936   1.504   0.478   1.877  0.9970 -2.3530 -2.2940
  979SOL    HW2 2937   1.552   0.446   1.725 -1.2024 -1.7294  1.0240
  980SOL     OW 2938   1.459   1.681   1.827 -0.5325  0.4332 -1.2867
  980SOL    HW1 2939   1.483   1.725   1.737  0.4252 -1.0816  0.0327
  980SOL    HW2 2940   1.394   1.603   1.808 -0.8128 -1.7521 -3.1538
  981SOL     OW 2941   2.340   1.040   1.368  0.2039 -0.4843 -0.7595
  981SOL    HW1 2942   2.291   0.952   1.377  1.1285  0.1856 -1.4912
  981SOL    HW2 2943   2.311   1.095   1.451  0.2013  1.7314  1.6404
  982SOL     OW 2944   0.450   0.366   3.036  0.2282 -0.0647 -0.3229
  982SOL    HW1 2945   0.360   0.363   2.982 -2.0284 -1.3918 -0.9327
  982SOL    HW2 2946   0.465   0.289   0.001  0.7752  4.4552 -2.4914
  983SOL     OW 2947   2.206   0.562   2.742 -0.1161  0.3344  0.2417
  983SOL    HW1 2948   2.205   0.460   2.747  0.1385  0.0732 -1.0526
  983SOL    HW2 2949   2.124   0.603   2.801 -0.1130  0.5027  0.6457
  984SOL     OW 2950   0.831   0.118   2.028 -0.3706  0.3388  0.2459
  984SOL    HW1 2951   0.862   0.096   2.121 -0.3813  1.9345 -1.2188
  984SOL    HW2 2952   0.916   0.146   1.977 -1.1890  0.4479 -0.9212
  985SOL     OW 2953   1.379   1.825   2.052  0.7787 -0.0559  0.1718
  985SOL    HW1 2954   1.400   1.761   1.975 -1.1757  2.1051 -1.9749
  985SOL    HW2 2955   1.431   1.823   2.141  0.0854  0.0719 -0.1079
  986SOL     OW 2956   2.249   3.053   1.878  0.6425 -0.1656 -0.4595
  986SOL    HW1 2957   2.167   3.071   1.939 -0.9059 -0.2835  2.6219
  986SOL    HW2 2958   2.338   3.082   1.925  1.5868  0.0460  1.5052
  987SOL     OW 2959   2.445   1.271   1.270 -0.2990 -0.3491  0.7309
  987SOL    HW1 2960   2.360   1.298   1.217  0.7701  1.6033 -0.2854
  987SOL    HW2 2961   2.432   1.179   1.318 -0.1106 -1.2140  0.4262
  988SOL     OW 2962   2.440   1.907   2.029  0.0984 -0.3938 -0.3980
  988SOL    HW1 2963   2.495   1.991   2.039  2.1099  0.0790  1.0544
  988SOL    HW2 2964   2.349   1.925   1.988 -0.0298  2.0352 -0.8258
  989SOL     OW 2965   1.290   2.686   0.143  0.6218  0.0524  0.3493
  989SOL    HW1 2966   1.201   2.724   0.172 -0.9584  1.3633 -2.8266
  989SOL    HW2 2967   1.284   2.589   0.125 -2.0440  2.4405  1.7309
  990SOL     OW 2968   1.811   1.080   2.958 -0.1419  0.2099 -0.1854
  990SOL    HW1 2969   1.836   1.069   2.861 -2.4845  0.8296  1.0181
  990SOL    HW2 2970   1.715   1.044   2.971  0.2194 -0.1097 -1.5425
  991SOL     OW 2971   0.923   0.470   0.721 -0.1492 -0.1767  0.2898
  991SOL    HW1 2972   0.845   0.532   0.731  2.1876  0.7683 -1.0484
  991SOL    HW2 2973   0.962   0.447   0.811 -2.2345  1.5856 -2.0201
  992SOL     OW 2974   2.664   0.928   1.415 -0.2662  0.1032  0.3563
  992SOL    HW1 2975   2.629   0.902   1.509 -0.7538 -0.8197  0.1501
  992SOL    HW2 2976   2.723   1.014   1.424  1.3240 -0.8040 -2.9521
  993SOL     OW 2977   2.452   0.727   1.727  0.4622  0.6111 -0.0847
  993SOL    HW1 2978   2.448   0.658   1.650  0.5104 -0.2704 -2.0231
  993SOL    HW2 2979   2.535   0.784   1.720  0.7002 -3.0761 -1.2612
  994SOL     OW 2980   0.488   1.801   2.693  0.2259  0.2247 -0.3977
  994SOL    HW1 2981   0.410   1.867   2.671 -2.9410  0.3216 -1.7274
  994SOL    HW2 2982   0.480   1.759   2.788  0.2279  2.0120 -0.3017
  995SOL     OW 2983   2.076   1.312   2.765  0.4343 -0.5613 -0.3345
  995SOL    HW1 2984   2.160   1.361   2.751 -1.5211 -1.8759  1.7885
  995SOL    HW2 2985   2.076   1.219   2.724 -1.3158 -0.2448 -0.5823
  996SOL     OW 2986   2.275   1.703   0.316  0.4957 -0.0742 -0.8352
  996SOL    HW1 2987   2.249   1.602   0.313  1.5147 -0.7769 -0.5844
  996SOL    HW2 2988   2.302   1.726   0.414 -1.7780 -1.5891  0.1346
  997SOL     OW 2989   2.226   0.548   2.140  0.1084 -0.3368  0.2068
  997SOL    HW1 2990   2.214   0.589   2.050 -0.1535 -0.5221  3.1412
  997SOL    HW2 2991   2.142   0.498   2.166  0.9027  2.5985  0.0460
  998SOL     OW 2992   2.644   1.153   0.411  0.5316 -0.3874 -0.1860
  998SOL    HW1 2993   2.613   1.246   0.381  1.9672 -0.6218  1.8715
  998SOL    HW2 2994   2.590   1.075   0.379  1.8413 -0.2659  0.2936
  999SOL     OW 2995   2.996   1.980   0.808 -0.3843  0.4887 -0.0526
  999SOL    HW1 2996   2.918   2.018   0.862  1.8657  0.3551 -1.1925
  999SOL    HW2 2997   3.060   2.055   0.789  0.6298 -0.9859  1.8739
 1000SOL     OW 2998   0.874   0.790   2.289 -0.1583 -0.1170 -0.0526
 1000SOL    HW1 2999   0.958   0.813   2.346  0.8396  1.5363  2.1798
 1000SOL    HW2 3000   0.798   0.744   2.336 -0.0631 -1.3900 -0.2208
   3.10058   3.10058   3.10058
