1000 SPC/Fw water molecules t= 470.00000 step= 470000
 3000
    1SOL     OW    1   2.763   2.918   1.773 -0.2354  0.8030  0.4816
    1SOL    HW1    2   2.794   2.950   1.677 -0.4096  4.1581  0.8336
    1SOL    HW2    3   2.711   2.988   1.826 -1.6595 -0.8440 -1.3919
    2SOL     OW    4   2.635   2.781   3.044  0.8042  0.0243 -0.1385
    2SOL    HW1    5   2.698   2.810   0.009 -2.1967  0.8090  0.1814
    2SOL    HW2    6   2.691   2.733   2.970  2.4116 -2.8580  0.3020
    3SOL     OW    7   1.183   2.412   0.047 -0.3048  0.0738 -0.3989
    3SOL    HW1    8   1.204   2.329   3.098  0.2324 -2.0849  1.0004
    3SOL    HW2    9   1.243   2.392   0.127 -0.4959 -1.6460 -0.7732
    4SOL     OW   10   1.347   2.798   2.516 -0.4730 -0.0663 -0.2017
    4SOL    HW1   11   1.402   2.866   2.461  0.7754 -0.3742 -0.9475
    4SOL    HW2   12   1.355   2.837   2.611  0.5643  0.1031  1.1143
    5SOL     OW   13   1.918   0.205   2.363 -0.1812 -0.2615 -0.1201
    5SOL    HW1   14   1.950   0.154   2.280 -0.1004 -0.0437  0.1839
    5SOL    HW2   15   1.831   0.169   2.402 -1.9779 -0.2994  1.3814
    6SOL     OW   16   3.037   1.685   1.247 -0.1427 -0.7147 -0.0982
    6SOL    HW1   17   0.001   1.702   1.180 -3.4025 -1.5240  1.1296
    6SOL    HW2   18   2.990   1.772   1.256  1.7312  0.6667  1.7273
    7SOL     OW   19   1.238   1.846   0.573 -0.3631  0.1007 -0.4440
    7SOL    HW1   20   1.176   1.790   0.633  1.6344  1.2968 -0.4274
    7SOL    HW2   21   1.338   1.821   0.591  1.8840 -0.0270 -0.7752
    8SOL     OW   22   0.222   0.506   0.237 -0.6238 -0.1340  0.1894
    8SOL    HW1   23   0.294   0.581   0.232  1.0808  0.6348  0.0515
    8SOL    HW2   24   0.135   0.529   0.190 -1.7718 -0.0246  2.1780
    9SOL     OW   25   0.172   3.026   1.727  0.4018  0.4603  0.0855
    9SOL    HW1   26   0.238   3.014   1.649  0.6272  0.8278  3.3290
    9SOL    HW2   27   0.120   2.938   1.736  0.8158 -0.0052  0.6458
   10SOL     OW   28   1.302   2.020   0.350  0.0927  0.2051  0.2311
   10SOL    HW1   29   1.280   1.962   0.432  0.2557 -1.6710  0.9055
   10SOL    HW2   30   1.392   2.068   0.357  0.3948 -1.3313  1.0658
   11SOL     OW   31   2.002   0.789   1.320 -0.3167 -0.5332 -0.1575
   11SOL    HW1   32   2.045   0.729   1.398  3.1158 -0.2305  2.5913
   11SOL    HW2   33   1.928   0.845   1.357  2.4061 -0.5717 -1.5328
   12SOL     OW   34   0.332   0.871   2.134  0.3479 -0.1901  0.0738
   12SOL    HW1   35   0.293   0.908   2.049 -2.2061 -1.0244  2.3623
   12SOL    HW2   36   0.319   0.926   2.223 -0.7455  3.5214  3.6359
   13SOL     OW   37   1.991   3.102   0.410 -0.1551 -0.0167 -0.2374
   13SOL    HW1   38   2.020   0.010   0.504  0.6109  1.3832 -1.4592
   13SOL    HW2   39   2.009   3.003   0.385 -0.5817  2.7691  0.7795
   14SOL     OW   40   2.184   2.022   0.166 -0.0777  0.2091  0.4506
   14SOL    HW1   41   2.219   2.048   0.072 -3.1663 -0.7699 -2.3592
   14SOL    HW2   42   2.233   2.071   0.234 -1.7634 -4.1614 -3.5080
   15SOL     OW   43   2.993   3.034   3.084  0.6006 -0.0813  0.2212
   15SOL    HW1   44   2.955   2.943   3.109  0.0308 -2.2457  2.0547
   15SOL    HW2   45   3.063   3.061   0.044 -1.0981 -0.7618 -0.4980
   16SOL     OW   46   3.016   0.587   1.103  0.7350  0.3548 -0.5182
   16SOL    HW1   47   2.995   0.520   1.028  0.6566  0.8068 -1.5871
   16SOL    HW2   48   2.993   0.543   1.197 -0.6170 -0.2087  0.0479
   17SOL     OW   49   0.745   0.454   0.968  0.1069 -0.1861  0.0663
   17SOL    HW1   50   0.710   0.356   0.956 -1.3654 -1.0579  0.3122
   17SOL    HW2   51   0.687   0.511   1.026  0.6465  1.6553 -4.4429
   18SOL     OW   52   2.879   3.089   0.853  0.0237 -0.3227  0.0284
   18SOL    HW1   53   2.785   3.092   0.815  0.9392 -2.3463  0.0101
   18SOL    HW2   54   2.946   0.041   0.803 -1.0893  0.5909 -0.1076
   19SOL     OW   55   1.759   1.349   1.131  0.3797 -0.1317 -0.1811
   19SOL    HW1   56   1.718   1.394   1.049 -0.6025  1.9461 -2.0280
   19SOL    HW2   57   1.804   1.417   1.193 -1.5276 -0.7470  0.4126
   20SOL     OW   58   2.188   1.870   2.560  0.1119  0.0142 -0.0458
   20SOL    HW1   59   2.188   1.864   2.664 -1.2171  0.6727 -0.2521
   20SOL    HW2   60   2.151   1.781   2.532  0.0463 -0.2726 -0.7393
   21SOL     OW   61   1.362   2.841   0.352  0.3764 -0.1439  0.7062
   21SOL    HW1   62   1.363   2.786   0.264 -3.3132 -0.5620 -2.1643
   21SOL    HW2   63   1.306   2.918   0.334 -0.0979 -1.9697 -2.8852
   22SOL     OW   64   2.483   0.798   3.087  0.0660  0.1036  0.2428
   22SOL    HW1   65   2.572   0.833   3.056 -0.6950  0.7235  2.4451
   22SOL    HW2   66   2.499   0.707   0.020  0.0423 -1.5029  1.4973
   23SOL     OW   67   0.804   0.640   2.095 -0.3142  0.3272  0.2384
   23SOL    HW1   68   0.788   0.540   2.083  0.8896 -0.4354  1.1540
   23SOL    HW2   69   0.889   0.661   2.143 -3.6627 -2.6921  1.3443
   24SOL     OW   70   2.168   2.216   0.871  0.7046  0.6018 -0.1872
   24SOL    HW1   71   2.237   2.254   0.933  1.1960  1.8815 -0.4161
   24SOL    HW2   72   2.105   2.288   0.839 -0.6481  0.0327 -1.8384
   25SOL     OW   73   1.337   0.064   3.035 -0.0862 -0.5076 -0.8686
   25SOL    HW1   74   1.347   0.112   2.945 -1.5104  1.6786 -1.7955
   25SOL    HW2   75   1.430   0.035   3.071 -0.7216 -1.0944 -1.7263
   26SOL     OW   76   1.007   2.952   2.834  0.0607 -0.5338 -0.5024
   26SOL    HW1   77   1.090   2.950   2.890  0.1003 -1.3047  0.3914
   26SOL    HW2   78   0.972   2.854   2.828 -1.1111 -3.0488  0.7115
   27SOL     OW   79   1.111   0.546   1.122 -0.0685 -0.0471 -0.4884
   27SOL    HW1   80   1.120   0.497   1.033 -2.6222  0.2419  2.2061
   27SOL    HW2   81   1.051   0.501   1.193 -2.1677  0.0499  0.1327
   28SOL     OW   82   0.322   2.010   1.110  0.0165 -0.6298  0.0147
   28SOL    HW1   83   0.383   2.061   1.045  1.2204  2.2095 -0.2418
   28SOL    HW2   84   0.349   2.028   1.210 -2.7699  0.0423  4.0483
   29SOL     OW   85   2.654   1.178   1.138 -0.6421  0.0737  0.4633
   29SOL    HW1   86   2.658   1.272   1.183 -0.9400  2.6279  2.1143
   29SOL    HW2   87   2.661   1.103   1.212  2.2032 -2.4164  0.7858
   30SOL     OW   88   1.721   0.005   1.390 -0.8651  0.7896  0.2192
   30SOL    HW1   89   1.767   3.055   1.319  4.1094 -1.5060 -2.4729
   30SOL    HW2   90   1.647   0.055   1.339  1.1742 -0.1773  1.9843
   31SOL     OW   91   1.300   0.005   1.121 -0.4011 -0.4860  0.0621
   31SOL    HW1   92   1.339   0.059   1.040 -0.1557 -2.0085 -1.2095
   31SOL    HW2   93   1.329   3.015   1.110 -0.4785  0.2432  2.0607
   32SOL     OW   94   2.431   1.286   1.961 -0.1515 -0.0434 -0.2429
   32SOL    HW1   95   2.445   1.375   1.916 -1.8881 -2.1706 -0.4915
   32SOL    HW2   96   2.350   1.243   1.917  2.6447 -1.2853 -0.3366
   33SOL     OW   97   2.251   2.867   2.755 -0.0042 -0.2822  0.0560
   33SOL    HW1   98   2.154   2.842   2.739  1.0706 -0.1507  0.6975
   33SOL    HW2   99   2.291   2.922   2.678 -1.5900 -3.5329 -0.8961
   34SOL     OW  100   2.105   0.989   2.983 -0.0206  0.0355 -0.2753
   34SOL    HW1  101   2.180   0.985   3.054 -0.7038 -0.0055 -1.4134
   34SOL    HW2  102   2.073   0.896   2.961 -0.9042 -1.1060  2.8080
   35SOL     OW  103   2.637   1.332   1.496 -0.6274  0.2676 -0.5992
   35SOL    HW1  104   2.541   1.316   1.516  0.3151  1.2375 -1.6170
   35SOL    HW2  105   2.695   1.312   1.577 -0.6489  2.4508 -0.2697
   36SOL     OW  106   2.307   2.357   2.867  0.3073  0.7461 -0.5105
   36SOL    HW1  107   2.311   2.388   2.964 -0.7112  2.0215  1.3449
   36SOL    HW2  108   2.292   2.445   2.820  0.7329  1.2326  0.8737
   37SOL     OW  109   1.781   2.973   1.881  0.1332 -0.0457  0.2895
   37SOL    HW1  110   1.807   3.073   1.891 -1.4093 -0.6397  0.1527
   37SOL    HW2  111   1.859   2.918   1.839 -0.0585 -0.6859  3.0274
   38SOL     OW  112   0.651   1.195   2.541  0.2441  0.5104 -0.1938
   38SOL    HW1  113   0.722   1.125   2.523  0.9236  0.8498  0.5537
   38SOL    HW2  114   0.554   1.163   2.528 -1.4167  0.5500  0.3515
   39SOL     OW  115   1.566   0.547   1.738 -0.0969  0.0173 -0.2957
   39SOL    HW1  116   1.631   0.533   1.816 -0.7425  1.6208  1.2711
   39SOL    HW2  117   1.478   0.497   1.766 -0.2925 -1.5739  2.1655
   40SOL     OW  118   0.745   2.336   0.673 -0.3693 -0.1737  0.2652
   40SOL    HW1  119   0.762   2.255   0.618 -3.4132  0.7399  2.0707
   40SOL    HW2  120   0.827   2.370   0.715 -0.2199 -1.5659 -0.1669
   41SOL     OW  121   2.328   2.085   1.108 -0.1513 -0.1877  0.2392
   41SOL    HW1  122   2.335   2.173   1.060  0.5416 -0.7838  0.3078
   41SOL    HW2  123   2.422   2.045   1.109  3.5019  0.7382  1.3672
   42SOL     OW  124   2.093   0.320   0.579 -0.0330 -0.5049 -0.3761
   42SOL    HW1  125   2.023   0.350   0.511 -1.1170 -0.4840  1.7762
   42SOL    HW2  126   2.183   0.347   0.540  1.3640 -0.2168  1.8229
   43SOL     OW  127   0.693   1.460   2.575 -0.2079 -0.5029  0.3475
   43SOL    HW1  128   0.631   1.506   2.504  0.7408  0.7044 -2.1840
   43SOL    HW2  129   0.675   1.355   2.579 -1.0632 -2.3838  0.3354
   44SOL     OW  130   1.943   2.907   1.216 -0.0624  0.6140  0.7627
   44SOL    HW1  131   1.884   2.835   1.170 -2.4263 -2.8140  3.1431
   44SOL    HW2  132   1.948   2.988   1.159 -1.6100  0.1818 -0.1430
   45SOL     OW  133   0.429   2.239   2.823  0.0664  0.4899 -0.0780
   45SOL    HW1  134   0.350   2.263   2.882 -0.3436 -2.0759  0.4897
   45SOL    HW2  135   0.495   2.319   2.824 -1.8096  1.4049 -0.2067
   46SOL     OW  136   0.703   2.698   2.338 -0.0519 -0.0979  0.1559
   46SOL    HW1  137   0.682   2.623   2.270 -1.3860 -2.5286  1.8058
   46SOL    HW2  138   0.694   2.647   2.427  0.9986 -2.7300 -0.4908
   47SOL     OW  139   0.574   1.683   0.828  0.3300  1.0691  0.5655
   47SOL    HW1  140   0.607   1.674   0.728  1.1996 -1.5671  2.4460
   47SOL    HW2  141   0.613   1.767   0.867 -0.8199  2.8669 -2.3893
   48SOL     OW  142   0.817   2.748   1.438  0.0596  0.5356  0.0202
   48SOL    HW1  143   0.859   2.655   1.451 -0.7781 -1.3738  1.1442
   48SOL    HW2  144   0.884   2.822   1.433 -1.6579 -0.2614  0.8884
   49SOL     OW  145   0.150   2.970   0.111 -0.5475 -0.0346 -0.1626
   49SOL    HW1  146   0.174   2.918   0.195  3.4426 -2.4456  0.4868
   49SOL    HW2  147   0.173   2.909   0.031 -1.6378 -2.5328 -0.8800
   50SOL     OW  148   1.684   0.704   0.402 -0.1553  0.6067 -0.0073
   50SOL    HW1  149   1.602   0.760   0.379 -3.5256 -0.0344 -3.8790
   50SOL    HW2  150   1.750   0.762   0.445 -3.0427  1.5804 -1.7076
   51SOL     OW  151   2.020   2.983   0.821 -0.5012 -0.3171 -0.2907
   51SOL    HW1  152   1.956   2.927   0.770 -1.7819  0.6162  1.5294
   51SOL    HW2  153   2.068   3.047   0.752 -0.8979  0.8887 -1.1328
   52SOL     OW  154   0.398   1.686   1.267  0.0213  0.0507 -0.2967
   52SOL    HW1  155   0.460   1.602   1.261  1.4061 -1.1088  0.5748
   52SOL    HW2  156   0.383   1.742   1.180 -2.0378  2.1268 -2.2139
   53SOL     OW  157   0.064   1.133   2.859  0.3141 -0.0079  0.1301
   53SOL    HW1  158   0.088   1.033   2.851 -1.5969  0.0507  3.4821
   53SOL    HW2  159   0.064   1.168   2.955 -0.0679 -0.9566 -1.2057
   54SOL     OW  160   2.688   2.250   2.621  0.4453  0.2895  0.4070
   54SOL    HW1  161   2.640   2.243   2.714 -3.6296  2.1829  0.5903
   54SOL    HW2  162   2.737   2.171   2.582 -1.3793  4.1813 -1.2402
   55SOL     OW  163   2.581   2.190   1.288 -0.1200 -0.5032 -0.1760
   55SOL    HW1  164   2.635   2.274   1.313 -1.7988 -2.6387 -1.3331
   55SOL    HW2  165   2.485   2.197   1.323  1.7375 -0.7429  0.2958
   56SOL     OW  166   1.370   0.801   1.396 -0.3105  0.4586  0.0317
   56SOL    HW1  167   1.449   0.860   1.410 -1.5923 -0.2126 -0.7170
   56SOL    HW2  168   1.333   0.798   1.302  1.5101  1.4595  4.2059
   57SOL     OW  169   1.938   1.716   0.954  0.4809  0.3242 -0.1871
   57SOL    HW1  170   2.006   1.781   0.918 -0.9692 -0.5506  0.3193
   57SOL    HW2  171   1.989   1.652   1.014 -2.2153  0.5667 -0.0914
   58SOL     OW  172   2.248   0.199   2.171  0.4401 -0.1147 -0.5714
   58SOL    HW1  173   2.231   0.251   2.258  1.6082  0.5070  1.0136
   58SOL    HW2  174   2.232   0.261   2.093  2.7060  0.2141 -1.9439
   59SOL     OW  175   1.512   2.997   2.388  0.4428 -0.1947  0.5941
   59SOL    HW1  176   1.464   3.058   2.318 -0.0026 -0.5427  1.5519
   59SOL    HW2  177   1.610   2.974   2.370  1.5781 -0.1944  2.4269
   60SOL     OW  178   1.393   1.908   2.819 -0.1720 -0.5088  0.2383
   60SOL    HW1  179   1.429   1.946   2.731 -2.4881 -0.6207 -2.8837
   60SOL    HW2  180   1.299   1.945   2.826 -0.0483  0.0238 -1.9290
   61SOL     OW  181   0.631   2.144   0.084 -0.4005 -0.4101 -0.6887
   61SOL    HW1  182   0.629   2.073   0.155 -0.5826 -2.2985  2.4865
   61SOL    HW2  183   0.605   2.107   3.104  0.6348 -0.2722 -0.7152
   62SOL     OW  184   1.455   1.733   1.422 -0.5155 -0.0835  0.3895
   62SOL    HW1  185   1.431   1.789   1.502  2.1696 -2.1500  0.3283
   62SOL    HW2  186   1.557   1.736   1.414 -0.8319 -1.1733  0.8656
   63SOL     OW  187   1.060   2.053   0.615  0.1306  0.5254 -0.3269
   63SOL    HW1  188   0.981   2.050   0.547 -2.4050  0.7924 -3.0265
   63SOL    HW2  189   1.133   1.983   0.599 -0.4603 -0.5308 -1.6433
   64SOL     OW  190   1.824   1.480   2.498  0.0431 -0.0764 -0.6798
   64SOL    HW1  191   1.729   1.501   2.526 -1.0219 -0.0758 -1.4310
   64SOL    HW2  192   1.887   1.544   2.537  0.1039 -0.7962 -1.6803
   65SOL     OW  193   1.724   1.724   1.415 -0.2141  0.0219  0.0907
   65SOL    HW1  194   1.767   1.648   1.358  0.6107  2.3976  2.4228
   65SOL    HW2  195   1.752   1.812   1.374 -0.5506 -0.9734 -1.1848
   66SOL     OW  196   3.067   1.018   0.866  0.1727 -0.1477 -0.1535
   66SOL    HW1  197   3.067   0.923   0.843 -1.2345  1.8514 -2.2465
   66SOL    HW2  198   2.990   1.040   0.932  0.2536  1.1473  1.7622
   67SOL     OW  199   2.341   2.346   1.027  0.4679  0.0121  0.2757
   67SOL    HW1  200   2.315   2.425   1.089 -0.7000  0.4983 -0.6363
   67SOL    HW2  201   2.401   2.378   0.949 -1.0643  0.4441  0.9243
   68SOL     OW  202   2.419   2.838   1.746 -0.0778  0.0766 -0.2799
   68SOL    HW1  203   2.441   2.796   1.654 -0.2428  3.5756  0.9690
   68SOL    HW2  204   2.331   2.888   1.748  0.9661  1.0807  1.8461
   69SOL     OW  205   2.362   2.828   3.015 -0.2349 -0.3242  0.0578
   69SOL    HW1  206   2.314   2.850   2.926  0.7211  1.5918 -0.5354
   69SOL    HW2  207   2.461   2.807   3.011  1.9313 -1.2318 -2.0130
   70SOL     OW  208   0.976   1.505   2.470  0.1514  0.3418 -0.7805
   70SOL    HW1  209   0.999   1.478   2.374 -1.0468 -2.1523 -1.1780
   70SOL    HW2  210   0.879   1.483   2.494 -1.5387  1.0041  0.1675
   71SOL     OW  211   0.758   1.662   1.859 -0.0459 -0.2153 -0.0965
   71SOL    HW1  212   0.787   1.611   1.770  1.9195  1.2501 -2.2895
   71SOL    HW2  213   0.761   1.758   1.847  0.4441 -3.2199  2.4438
   72SOL     OW  214   2.842   1.054   1.479 -0.5577 -0.0293 -0.1876
   72SOL    HW1  215   2.805   1.089   1.568 -2.1370 -2.0089  0.6144
   72SOL    HW2  216   2.899   1.122   1.431 -1.8117 -1.4116 -3.4101
   73SOL     OW  217   0.788   2.090   2.554  0.3719  0.0051  0.4170
   73SOL    HW1  218   0.813   2.083   2.455 -1.8012 -0.7603 -0.3885
   73SOL    HW2  219   0.854   2.157   2.595 -0.8356  0.7515 -0.3626
   74SOL     OW  220   1.091   0.293   2.200 -0.3076 -0.4246  0.4733
   74SOL    HW1  221   1.011   0.242   2.243  0.6821 -0.6096  0.7129
   74SOL    HW2  222   1.109   0.375   2.262  3.4376 -0.4558 -1.1590
   75SOL     OW  223   1.305   0.100   0.583 -0.1478  0.3361 -0.2783
   75SOL    HW1  224   1.233   0.029   0.560 -1.8083  0.0570  0.9733
   75SOL    HW2  225   1.378   0.052   0.643 -0.5663 -2.1696  3.9518
   76SOL     OW  226   0.479   1.874   2.820 -0.6759 -0.5625  0.1300
   76SOL    HW1  227   0.515   1.823   2.742 -0.3774 -0.6962  1.0290
   76SOL    HW2  228   0.389   1.916   2.794 -0.2424  3.6183  0.0678
   77SOL     OW  229   0.484   2.381   0.956 -0.0121 -0.5657  0.3765
   77SOL    HW1  230   0.501   2.421   0.865  1.7038  1.7724  0.3383
   77SOL    HW2  231   0.407   2.424   1.002 -0.6747 -0.8737 -0.6352
   78SOL     OW  232   2.714   1.262   0.068 -0.9536  0.1819  0.2532
   78SOL    HW1  233   2.732   1.279   3.081  0.2391  1.2445  0.0692
   78SOL    HW2  234   2.692   1.351   0.117 -1.2554  0.9295  0.0457
   79SOL     OW  235   0.757   1.609   2.828  0.2843 -0.0499  0.1555
   79SOL    HW1  236   0.762   1.552   2.746  0.7287 -0.3569  0.0547
   79SOL    HW2  237   0.762   1.708   2.810 -0.8339 -1.6844  2.0460
   80SOL     OW  238   2.165   1.192   1.354  0.8153  0.0094 -0.2696
   80SOL    HW1  239   2.097   1.182   1.433 -4.0358 -1.0132  3.8365
   80SOL    HW2  240   2.209   1.284   1.359  2.1494 -0.8519 -1.4658
   81SOL     OW  241   1.944   0.819   2.437 -0.4200  1.0540  0.5122
   81SOL    HW1  242   1.874   0.793   2.508 -1.1572 -0.0973  2.7660
   81SOL    HW2  243   1.902   0.817   2.344 -0.5807 -0.0729  1.2682
   82SOL     OW  244   2.309   1.910   1.354  0.1143 -0.5793  0.7981
   82SOL    HW1  245   2.289   2.003   1.313 -1.4138 -1.6047 -3.2011
   82SOL    HW2  246   2.282   1.898   1.452  1.7450 -1.3720  2.0738
   83SOL     OW  247   2.103   2.900   0.049 -0.0338  0.1753 -0.9079
   83SOL    HW1  248   2.196   2.871   0.008  0.0657  0.2787 -2.2851
   83SOL    HW2  249   2.102   2.994   0.081  3.2591 -2.1695 -0.3179
   84SOL     OW  250   0.843   0.714   0.457 -0.1999 -0.2384 -0.2951
   84SOL    HW1  251   0.910   0.693   0.532  1.1768  1.9239 -0.2012
   84SOL    HW2  252   0.898   0.756   0.379 -0.9006  4.5122 -1.4980
   85SOL     OW  253   2.046   1.585   1.151 -0.1991  0.3631 -0.5767
   85SOL    HW1  254   2.093   1.500   1.124  1.1203 -1.2941  2.1885
   85SOL    HW2  255   2.107   1.670   1.155 -1.4851  2.4283  1.7943
   86SOL     OW  256   0.576   0.848   1.153  0.1091 -0.2729  0.1406
   86SOL    HW1  257   0.478   0.847   1.169  3.0347 -0.0008 -0.7580
   86SOL    HW2  258   0.604   0.927   1.090  1.9681 -2.0362 -0.4263
   87SOL     OW  259   0.115   2.287   2.409 -0.3446 -0.3895 -0.1280
   87SOL    HW1  260   0.209   2.244   2.393  1.1028 -1.7362 -5.6769
   87SOL    HW2  261   0.071   2.320   2.326 -2.1319 -1.3330  1.2649
   88SOL     OW  262   0.270   2.907   0.340 -0.0162 -0.4214  0.3782
   88SOL    HW1  263   0.194   2.916   0.406  2.7079 -3.1596 -0.1105
   88SOL    HW2  264   0.356   2.905   0.387 -2.7392  2.5731 -0.1024
   89SOL     OW  265   1.391   0.145   0.928 -0.4602 -0.0852  0.0708
   89SOL    HW1  266   1.449   0.087   0.863  0.5237  1.6761 -2.8868
   89SOL    HW2  267   1.445   0.225   0.962  1.2511 -1.8039  0.9169
   90SOL     OW  268   2.995   0.893   2.036 -0.1708  0.2032 -0.3899
   90SOL    HW1  269   3.037   0.963   2.097 -0.6250  2.0679  0.9827
   90SOL    HW2  270   3.026   0.911   1.941 -1.0604 -0.3986  1.0891
   91SOL     OW  271   2.101   2.702   0.683  0.6243  0.2356  0.0641
   91SOL    HW1  272   2.091   2.620   0.623  3.8873  3.0438 -0.8345
   91SOL    HW2  273   2.148   2.679   0.768 -0.3503 -1.6715 -0.0464
   92SOL     OW  274   1.708   1.591   0.842 -0.2466  0.1363  0.2012
   92SOL    HW1  275   1.793   1.629   0.881 -0.1982 -0.3586 -0.2976
   92SOL    HW2  276   1.719   1.496   0.812 -1.6691 -1.6863  0.5843
   93SOL     OW  277   0.519   1.433   0.480  0.7677  0.0493  0.4108
   93SOL    HW1  278   0.612   1.391   0.467 -0.4252 -2.2431 -3.3378
   93SOL    HW2  279   0.542   1.527   0.510  1.0481  0.3749 -1.3635
   94SOL     OW  280   0.751   2.489   1.114 -0.0385  0.1874 -0.3243
   94SOL    HW1  281   0.738   2.394   1.079 -0.8931  0.1993  0.0899
   94SOL    HW2  282   0.667   2.508   1.169  0.7792  1.4049 -0.2427
   95SOL     OW  283   0.482   0.936   0.332  0.0387 -0.4920 -0.4002
   95SOL    HW1  284   0.470   0.946   0.433  1.5501 -1.9391  0.4322
   95SOL    HW2  285   0.527   0.847   0.321  0.4498  0.1845  2.0393
   96SOL     OW  286   0.628   2.546   2.144 -0.0959  0.9013  0.3949
   96SOL    HW1  287   0.525   2.546   2.126 -2.9723  0.1330 -0.8546
   96SOL    HW2  288   0.682   2.544   2.062 -3.7878 -1.7434 -0.4894
   97SOL     OW  289   2.734   0.740   0.926 -0.6228  0.3195  0.4618
   97SOL    HW1  290   2.733   0.731   1.026 -0.8356 -1.2364 -0.4695
   97SOL    HW2  291   2.690   0.830   0.911 -0.0438 -3.4658 -1.4286
   98SOL     OW  292   0.290   1.966   2.079 -0.3029 -0.2561 -0.1495
   98SOL    HW1  293   0.240   1.888   2.045 -0.1349 -0.1519  0.6464
   98SOL    HW2  294   0.225   2.042   2.074  1.6093 -4.0867 -0.1288
   99SOL     OW  295   2.890   0.337   1.585 -0.6475  0.4120 -0.1931
   99SOL    HW1  296   2.908   0.241   1.617 -2.4289 -0.6808 -1.1461
   99SOL    HW2  297   2.893   0.398   1.668 -2.3697 -0.0961  1.6678
  100SOL     OW  298   2.160   0.296   2.405 -0.0457  0.1390  0.7559
  100SOL    HW1  299   2.191   0.258   2.497  0.4534  0.5019  2.1919
  100SOL    HW2  300   2.066   0.259   2.393 -0.3871  0.2144  1.5462
  101SOL     OW  301   0.892   3.005   1.965  0.5237  0.0130 -0.1774
  101SOL    HW1  302   0.960   3.064   1.914  1.1987  3.7817 -1.1963
  101SOL    HW2  303   0.854   3.054   2.051 -3.5858 -1.6395 -1.0837
  102SOL     OW  304   0.700   0.681   1.756  0.7049  0.2459  0.2710
  102SOL    HW1  305   0.656   0.733   1.831 -1.1907  0.1703  2.3457
  102SOL    HW2  306   0.800   0.678   1.763 -2.8360 -0.4617  0.0438
  103SOL     OW  307   0.529   0.804   2.890 -0.0956 -0.3959 -0.9553
  103SOL    HW1  308   0.445   0.853   2.916  1.8401 -1.9812 -1.0438
  103SOL    HW2  309   0.606   0.862   2.849  0.5749  0.0722 -0.1452
  104SOL     OW  310   0.639   0.140   1.857  0.2129  0.2090 -0.5716
  104SOL    HW1  311   0.719   0.199   1.839 -3.5211  1.5164 -1.0622
  104SOL    HW2  312   0.607   0.144   1.951  1.3409 -4.1641 -4.0082
  105SOL     OW  313   2.584   2.482   2.034 -0.4325  0.6104  0.4161
  105SOL    HW1  314   2.593   2.540   1.952 -0.6353  2.0825 -0.1116
  105SOL    HW2  315   2.505   2.419   2.019  0.0736 -0.7522 -0.3637
  106SOL     OW  316   0.644   3.058   0.835  0.4554 -0.8008  0.2005
  106SOL    HW1  317   0.735   3.053   0.790 -0.2719  0.5285 -1.5977
  106SOL    HW2  318   0.629   2.998   0.912 -2.1628  1.7763  0.6281
  107SOL     OW  319   2.958   1.940   1.114 -0.5620  0.9077 -0.2337
  107SOL    HW1  320   2.927   2.018   1.062  0.2856 -1.3170  1.4199
  107SOL    HW2  321   2.881   1.882   1.140  2.2359  1.4432 -0.4659
  108SOL     OW  322   0.171   2.572   0.801  0.3791  0.1546 -0.1713
  108SOL    HW1  323   0.193   2.566   0.904  0.3137  2.2735  0.7940
  108SOL    HW2  324   0.185   2.484   0.756  0.6756  2.8556  2.2739
  109SOL     OW  325   1.613   2.707   0.731  0.1629  0.1492 -0.3160
  109SOL    HW1  326   1.598   2.744   0.824  0.0621 -0.2078  1.1250
  109SOL    HW2  327   1.701   2.747   0.702 -3.6141  1.1918  2.2380
  110SOL     OW  328   1.834   2.073   0.719  0.2589 -0.2045 -0.1264
  110SOL    HW1  329   1.928   2.037   0.707  0.5126  2.0732 -1.6411
  110SOL    HW2  330   1.819   2.087   0.820 -0.2247  1.9060 -0.7662
  111SOL     OW  331   1.847   2.634   1.984 -0.3013 -0.5686  0.2181
  111SOL    HW1  332   1.893   2.699   1.926 -1.2048 -0.8463 -1.4800
  111SOL    HW2  333   1.850   2.661   2.081 -1.5154  0.4958  1.8517
  112SOL     OW  334   1.658   2.314   2.563  0.0702  0.4088 -0.2297
  112SOL    HW1  335   1.705   2.342   2.648 -0.1427  0.4532  1.8896
  112SOL    HW2  336   1.639   2.390   2.501  1.0550 -3.7396  0.2022
  113SOL     OW  337   2.387   2.324   1.964  0.1008  0.2938  0.7908
  113SOL    HW1  338   2.330   2.343   2.045  1.1841 -0.5487  1.9989
  113SOL    HW2  339   2.365   2.233   1.925 -0.4345 -0.6485  2.5724
  114SOL     OW  340   0.267   0.950   1.425 -0.2324 -0.1144  0.0831
  114SOL    HW1  341   0.224   1.037   1.392  0.3467  1.8198  1.9147
  114SOL    HW2  342   0.274   0.886   1.345  0.0805  0.2461  0.4641
  115SOL     OW  343   2.552   0.558   2.791 -0.6208  0.1423  0.1873
  115SOL    HW1  344   2.529   0.655   2.787 -1.0056 -0.7514  0.3308
  115SOL    HW2  345   2.566   0.524   2.882 -1.3124  1.1410 -1.3282
  116SOL     OW  346   2.734   0.198   0.045  0.3656 -0.4575  0.3253
  116SOL    HW1  347   2.795   0.172   0.119 -0.4489  0.5518 -0.9574
  116SOL    HW2  348   2.773   0.170   3.063  3.0847 -0.8890  2.0353
  117SOL     OW  349   2.725   2.712   0.842  0.4182 -0.4129 -0.4806
  117SOL    HW1  350   2.665   2.791   0.853 -1.3611 -3.5251  1.2542
  117SOL    HW2  351   2.689   2.639   0.902  3.8302 -1.9111  0.2309
  118SOL     OW  352   0.951   2.021   2.314 -0.0896  0.3437 -0.6208
  118SOL    HW1  353   0.932   1.919   2.311  2.1745 -2.2442  1.0292
  118SOL    HW2  354   1.021   2.034   2.388  2.9504  0.2764  0.4238
  119SOL     OW  355   0.693   2.633   0.391  0.5612  0.2741 -0.0050
  119SOL    HW1  356   0.669   2.707   0.460 -0.5474 -0.5056  0.3743
  119SOL    HW2  357   0.791   2.602   0.396 -0.6956 -0.2060  0.0866
  120SOL     OW  358   1.450   0.830   0.335 -0.5470 -0.7102 -0.8882
  120SOL    HW1  359   1.419   0.735   0.319  1.3425  0.6023 -0.0553
  120SOL    HW2  360   1.477   0.877   0.250  0.6787 -0.9031 -1.2441
  121SOL     OW  361   1.817   0.686   1.069 -0.0787 -0.3796 -0.2573
  121SOL    HW1  362   1.900   0.636   1.101 -0.1440 -1.6458 -1.8470
  121SOL    HW2  363   1.812   0.776   1.113  2.5763 -0.4763  0.8121
  122SOL     OW  364   2.085   1.746   2.183  0.0416 -0.7239  0.1881
  122SOL    HW1  365   2.142   1.825   2.211 -1.4582 -1.1183 -0.5031
  122SOL    HW2  366   2.020   1.771   2.109  1.4245  2.6240 -1.0689
  123SOL     OW  367   0.319   0.958   0.561 -0.1366  0.0663 -0.1152
  123SOL    HW1  368   0.319   1.057   0.568 -2.4235  1.3227 -1.5597
  123SOL    HW2  369   0.365   0.907   0.636  0.1622 -0.5510 -1.0851
  124SOL     OW  370   0.616   0.370   2.674  0.7612 -0.5908 -0.3630
  124SOL    HW1  371   0.646   0.366   2.768 -4.0873  0.5275 -0.6585
  124SOL    HW2  372   0.681   0.316   2.619 -0.0014 -0.7914  2.8486
  125SOL     OW  373   0.737   0.050   2.957  0.0675  0.5921 -0.1195
  125SOL    HW1  374   0.802   3.106   3.014 -3.9994  0.9628 -3.9017
  125SOL    HW2  375   0.731   0.001   2.867  0.7049 -1.6382 -1.7590
  126SOL     OW  376   0.729   1.515   0.160 -0.2743  0.3146  0.3127
  126SOL    HW1  377   0.770   1.500   0.069 -1.7538 -0.1727 -1.3359
  126SOL    HW2  378   0.791   1.488   0.238 -2.0985  2.3770  0.1172
  127SOL     OW  379   1.159   2.573   0.952  0.0191  0.1099  0.2993
  127SOL    HW1  380   1.135   2.669   0.979  1.3966  0.6422 -2.5971
  127SOL    HW2  381   1.240   2.567   0.888  0.3668  1.0864  2.2487
  128SOL     OW  382   1.626   1.997   0.115 -0.0417 -0.1308 -0.4114
  128SOL    HW1  383   1.536   1.942   0.112 -1.3254  0.4272  0.6083
  128SOL    HW2  384   1.690   1.971   0.041 -2.1812 -0.2488  0.8116
  129SOL     OW  385   2.023   1.466   1.607  0.7553  0.6622  0.4187
  129SOL    HW1  386   2.044   1.368   1.586  0.1129 -0.4683  1.5548
  129SOL    HW2  387   1.941   1.472   1.669  0.7192  0.1381  0.5275
  130SOL     OW  388   2.178   1.665   1.752 -0.8123  0.1911  0.1668
  130SOL    HW1  389   2.116   1.605   1.700  2.2847  2.0758  2.0216
  130SOL    HW2  390   2.198   1.627   1.844  1.7292  0.5200  2.2469
  131SOL     OW  391   0.839   2.468   1.942 -0.3662  0.1575 -0.7623
  131SOL    HW1  392   0.927   2.495   1.896 -0.8157 -0.9584  0.9758
  131SOL    HW2  393   0.773   2.427   1.879 -0.5244 -0.6244  2.2559
  132SOL     OW  394   2.724   1.466   0.604 -0.2014  0.0036  1.1948
  132SOL    HW1  395   2.784   1.456   0.684 -0.9466 -2.1379  1.1586
  132SOL    HW2  396   2.739   1.551   0.546 -1.0518 -2.2635 -0.0918
  133SOL     OW  397   0.831   1.945   1.844 -0.4611 -0.5715 -0.3058
  133SOL    HW1  398   0.752   1.993   1.801 -0.3495  1.4522  0.9127
  133SOL    HW2  399   0.870   2.006   1.918  0.7698  2.4310  3.1842
  134SOL     OW  400   3.049   1.753   0.795  0.6238 -0.0876  0.3343
  134SOL    HW1  401   3.029   1.653   0.791  0.3196  1.1385 -0.6046
  134SOL    HW2  402   0.009   1.781   0.866  1.9580  2.2098 -0.2407
  135SOL     OW  403   2.064   1.360   2.846 -0.4623  0.2476  0.3651
  135SOL    HW1  404   2.092   1.457   2.826  1.8492  0.7959 -0.3667
  135SOL    HW2  405   2.042   1.314   2.759 -1.3686  2.1562  2.7406
  136SOL     OW  406   3.035   1.542   1.468 -0.3534 -0.1145 -0.0747
  136SOL    HW1  407   3.030   1.581   1.372  0.2590 -1.5728  1.9991
  136SOL    HW2  408   3.100   1.591   1.533  0.9711  1.5963  3.8088
  137SOL     OW  409   2.759   1.302   2.912 -0.1986  0.4546 -0.2199
  137SOL    HW1  410   2.839   1.279   2.849  1.2123 -0.1263 -1.5202
  137SOL    HW2  411   2.677   1.310   2.857  1.4588 -0.1727  0.6527
  138SOL     OW  412   2.768   0.357   0.746  0.4058  0.0846 -0.1265
  138SOL    HW1  413   2.680   0.305   0.753  1.3842  0.7644 -0.0681
  138SOL    HW2  414   2.764   0.458   0.726 -0.4658  0.3770  0.9354
  139SOL     OW  415   2.135   2.468   2.604 -0.3827 -0.1314  0.4280
  139SOL    HW1  416   2.205   2.528   2.643  0.8690  0.7776  0.0850
  139SOL    HW2  417   2.176   2.410   2.533 -1.4067  0.4621  0.3558
  140SOL     OW  418   0.702   1.465   0.939 -0.4147  0.9450 -0.2398
  140SOL    HW1  419   0.638   1.538   0.911  0.3954  0.6475  2.8761
  140SOL    HW2  420   0.736   1.415   0.855  0.7193  2.8042 -0.6528
  141SOL     OW  421   1.056   1.264   0.822 -0.0300 -0.2680  0.1948
  141SOL    HW1  422   1.113   1.285   0.902 -0.8965  1.5227 -1.6048
  141SOL    HW2  423   1.117   1.235   0.746 -0.5441  0.5779 -2.3439
  142SOL     OW  424   1.357   0.745   1.137  0.0475 -0.0324  0.0577
  142SOL    HW1  425   1.277   0.689   1.114  1.0117 -1.1509 -0.8809
  142SOL    HW2  426   1.438   0.725   1.074 -0.6943 -1.0400 -0.5107
  143SOL     OW  427   0.270   0.497   2.959 -0.1335  0.5999 -0.2447
  143SOL    HW1  428   0.192   0.460   3.013  0.8428  1.8435 -1.1907
  143SOL    HW2  429   0.246   0.513   2.862 -1.2328 -1.2129 -2.3792
  144SOL     OW  430   2.499   3.109   0.326  0.8266  0.0268  0.0498
  144SOL    HW1  431   2.450   3.047   0.256 -2.8631 -0.3155  0.5721
  144SOL    HW2  432   2.509   0.085   0.278 -0.5577  1.5027  3.1961
  145SOL     OW  433   2.312   3.082   2.551  0.3157 -0.0459 -0.0522
  145SOL    HW1  434   2.370   0.005   2.474  1.6735 -2.0075  0.1359
  145SOL    HW2  435   2.286   0.047   2.617 -0.5739  1.4467 -0.7425
  146SOL     OW  436   3.036   2.641   0.438  0.6984 -0.1629  0.2155
  146SOL    HW1  437   3.084   2.573   0.385 -0.8811  0.5562  0.9061
  146SOL    HW2  438   2.960   2.691   0.386  1.3335  0.7937  0.6017
  147SOL     OW  439   1.488   0.651   3.066 -0.1895  0.1910  0.0225
  147SOL    HW1  440   1.390   0.645   3.054  0.9513 -0.6019  3.1405
  147SOL    HW2  441   1.525   0.567   3.105 -2.5561  1.2902 -0.6443
  148SOL     OW  442   1.163   0.076   0.161  0.5217  0.0575  0.1683
  148SOL    HW1  443   1.176   0.151   0.229  0.0690 -0.0295  2.2849
  148SOL    HW2  444   1.240   0.077   0.093 -1.3574 -2.5587 -1.0784
  149SOL     OW  445   1.432   1.042   2.790  0.0121  0.2848  0.6677
  149SOL    HW1  446   1.513   0.995   2.821 -0.5653 -0.7307  2.1658
  149SOL    HW2  447   1.379   0.971   2.740  1.0325  0.4440  1.3758
  150SOL     OW  448   1.225   2.937   2.980 -0.0713 -0.8661  0.2503
  150SOL    HW1  449   1.219   2.875   3.064 -0.8779  2.5608 -0.1492
  150SOL    HW2  450   1.256   3.032   2.999  3.9420  0.2686  0.1998
  151SOL     OW  451   0.107   1.248   0.015 -0.3271 -0.5760  0.1875
  151SOL    HW1  452   0.066   1.242   0.109 -3.0391  1.1333 -0.6445
  151SOL    HW2  453   0.208   1.234   0.017 -1.0334  0.7621  2.6013
  152SOL     OW  454   0.830   0.313   1.505 -0.3236  0.5316 -0.5179
  152SOL    HW1  455   0.742   0.347   1.469 -1.1406  1.1368  1.1842
  152SOL    HW2  456   0.837   0.211   1.493 -2.1645 -3.0228  2.3174
  153SOL     OW  457   2.601   3.101   1.894  0.1653 -0.6687  0.0457
  153SOL    HW1  458   2.505   3.077   1.922 -1.3557  1.2921  0.4649
  153SOL    HW2  459   2.621   0.072   1.953 -1.3030  0.6741 -0.5238
  154SOL     OW  460   2.338   3.092   2.025 -0.5019 -0.6183  0.6239
  154SOL    HW1  461   2.296   3.013   2.060 -0.1207  2.9952  0.5020
  154SOL    HW2  462   2.312   0.063   2.085 -0.3171 -0.9067  0.9577
  155SOL     OW  463   0.031   1.258   0.480 -0.0326  0.8213  0.4968
  155SOL    HW1  464   0.123   1.250   0.515  1.1920 -0.3975 -2.5659
  155SOL    HW2  465   3.066   1.246   0.549 -0.9171 -1.5665  0.9803
  156SOL     OW  466   1.820   1.283   0.110 -0.0320  0.1367 -0.1708
  156SOL    HW1  467   1.769   1.207   0.156 -0.0432 -1.2537 -3.2397
  156SOL    HW2  468   1.808   1.273   0.010  1.5671  1.8374 -0.9363
  157SOL     OW  469   0.944   2.524   3.080  0.4201 -0.0793  0.2379
  157SOL    HW1  470   1.026   2.469   3.106 -3.3573 -1.4957  2.3927
  157SOL    HW2  471   0.860   2.469   3.103 -2.8364 -0.6495 -0.5179
  158SOL     OW  472   1.859   0.940   1.514 -0.5772 -0.1609  0.0669
  158SOL    HW1  473   1.927   1.016   1.511 -1.2091 -1.7377  2.5461
  158SOL    HW2  474   1.766   0.978   1.517  0.6390 -0.4282  0.3203
  159SOL     OW  475   3.102   0.394   0.493  0.5556 -0.0397 -0.1320
  159SOL    HW1  476   3.090   0.362   0.396  2.0339  0.5935  1.4149
  159SOL    HW2  477   3.013   0.409   0.543 -1.0497  0.3173  2.8394
  160SOL     OW  478   2.477   1.996   1.731  0.7031  0.0921  1.0099
  160SOL    HW1  479   2.520   1.904   1.738 -0.8797 -0.2000  3.6409
  160SOL    HW2  480   2.384   1.988   1.686  0.4005  0.7471 -0.3479
  161SOL     OW  481   0.043   0.077   0.237 -0.3235 -0.0182  0.0306
  161SOL    HW1  482   0.075   3.095   0.205 -1.7111 -0.4303 -0.7339
  161SOL    HW2  483   0.120   0.137   0.275  1.4134  1.9387  2.1771
  162SOL     OW  484   0.600   0.788   2.011  0.1056  0.0141  0.2231
  162SOL    HW1  485   0.516   0.777   2.068 -1.8176  0.4496 -0.2295
  162SOL    HW2  486   0.684   0.748   2.051 -1.1484 -0.2872 -1.6624
  163SOL     OW  487   2.709   0.059   2.733  0.2098 -0.1962  0.1825
  163SOL    HW1  488   2.662   0.144   2.699  0.7708  1.0369 -0.3898
  163SOL    HW2  489   2.750   0.003   2.658  1.7781  1.5746 -1.1551
  164SOL     OW  490   2.492   1.611   3.039 -0.5046 -0.2094 -0.1817
  164SOL    HW1  491   2.444   1.691   3.073 -0.7171 -1.7268 -0.7212
  164SOL    HW2  492   2.432   1.530   3.033 -0.0502 -0.3329 -0.6658
  165SOL     OW  493   0.442   0.193   1.270 -0.3622 -0.1340  0.4268
  165SOL    HW1  494   0.513   0.260   1.279  1.8196 -0.5036 -0.2937
  165SOL    HW2  495   0.402   0.162   1.359 -3.1578  1.3308 -0.3495
  166SOL     OW  496   2.910   0.176   0.246  0.5894 -0.3070  0.0629
  166SOL    HW1  497   3.012   0.171   0.248 -1.0997  2.0881 -1.2261
  166SOL    HW2  498   2.869   0.087   0.269  2.9843 -0.4119 -1.0404
  167SOL     OW  499   2.272   0.663   0.772  0.6700  0.5343  0.1223
  167SOL    HW1  500   2.300   0.722   0.850  1.2427  0.4536 -0.6139
  167SOL    HW2  501   2.194   0.599   0.797  0.2421 -0.9446  1.9869
  168SOL     OW  502   1.123   0.536   2.344  0.0493 -0.2502 -0.2607
  168SOL    HW1  503   1.096   0.555   2.440 -1.2635  1.2928 -1.0646
  168SOL    HW2  504   1.094   0.600   2.270  0.1069 -0.2768  1.1182
  169SOL     OW  505   0.721   1.804   1.139  0.9138  0.6199  0.0244
  169SOL    HW1  506   0.720   1.865   1.220  0.8542  0.1883  0.4964
  169SOL    HW2  507   0.676   1.853   1.062 -0.2455  1.7000 -1.2849
  170SOL     OW  508   2.989   0.077   1.682 -0.0097  0.0781  0.4414
  170SOL    HW1  509   3.084   0.050   1.673  0.3904 -0.0643  0.4948
  170SOL    HW2  510   2.936   0.007   1.626 -0.6310 -0.1625 -1.6875
  171SOL     OW  511   2.435   1.345   2.229 -0.1941 -0.0574 -0.1146
  171SOL    HW1  512   2.521   1.395   2.255 -0.8284  1.4243  0.9609
  171SOL    HW2  513   2.435   1.327   2.130  2.0053  1.9662 -0.4716
  172SOL     OW  514   1.414   2.136   1.145  0.4909  0.0727 -0.3536
  172SOL    HW1  515   1.315   2.144   1.127 -1.2805  1.3420  0.5480
  172SOL    HW2  516   1.444   2.044   1.123  0.1580 -1.1019  1.0157
  173SOL     OW  517   2.242   2.428   0.018 -0.7563 -0.9761 -0.4035
  173SOL    HW1  518   2.142   2.437   0.011  1.4325  0.2181  2.5457
  173SOL    HW2  519   2.284   2.498   0.080 -0.7316 -2.7851 -2.3129
  174SOL     OW  520   1.855   0.801   0.108 -0.4107  0.3477  0.4619
  174SOL    HW1  521   1.850   0.702   0.092 -1.1574 -1.2125  1.4184
  174SOL    HW2  522   1.930   0.821   0.171 -0.3286  0.4660 -2.4467
  175SOL     OW  523   0.577   1.896   1.561 -0.1931 -0.0633  0.1825
  175SOL    HW1  524   0.501   1.827   1.554 -0.8568 -1.4282  1.3390
  175SOL    HW2  525   0.666   1.850   1.574  0.1521  1.2457  0.5214
  176SOL     OW  526   0.396   3.089   0.694 -0.5291 -0.6250 -0.1583
  176SOL    HW1  527   0.475   3.067   0.753  0.3536  1.3899 -1.8647
  176SOL    HW2  528   0.319   3.026   0.713 -0.7422  1.5850  1.5340
  177SOL     OW  529   3.083   1.163   0.233  0.3281 -0.2494  0.3491
  177SOL    HW1  530   2.997   1.104   0.238 -2.1502  0.0030  0.2436
  177SOL    HW2  531   3.107   1.215   0.318 -3.7172 -0.1264  1.3001
  178SOL     OW  532   2.803   2.462   2.219  0.7143 -0.1217  0.0907
  178SOL    HW1  533   2.716   2.479   2.165 -1.9868 -1.7856  1.1298
  178SOL    HW2  534   2.782   2.451   2.321  1.2345 -0.3447  0.4093
  179SOL     OW  535   2.177   3.109   0.184  0.0907  0.1317 -0.2509
  179SOL    HW1  536   2.198   0.061   0.106  0.7550  0.3279 -1.2867
  179SOL    HW2  537   2.101   0.037   0.243 -1.7835  0.2896  2.1165
  180SOL     OW  538   2.449   0.738   0.579 -0.0829  0.8836  0.0341
  180SOL    HW1  539   2.373   0.713   0.643  2.6279  0.4817 -0.0008
  180SOL    HW2  540   2.538   0.703   0.618  2.4571 -0.4032 -0.2955
  181SOL     OW  541   0.036   2.925   2.846 -0.1702  0.1386  0.0279
  181SOL    HW1  542   3.071   2.969   2.902  2.1467  0.4211 -1.2799
  181SOL    HW2  543   0.096   2.858   2.901  2.9342  0.9827  1.0668
  182SOL     OW  544   2.740   2.061   2.406  0.0064 -0.5243 -0.2175
  182SOL    HW1  545   2.681   2.094   2.325 -2.2849  0.2669 -3.3973
  182SOL    HW2  546   2.839   2.075   2.382 -0.8708  1.3601 -1.0208
  183SOL     OW  547   2.665   0.705   1.487  0.1211 -0.1329  0.4956
  183SOL    HW1  548   2.734   0.698   1.410  0.7499  1.3341 -2.0447
  183SOL    HW2  549   2.675   0.793   1.540 -2.6771  1.8526 -0.4818
  184SOL     OW  550   2.958   1.441   1.148 -0.1863 -0.4493  0.0047
  184SOL    HW1  551   2.989   1.538   1.166 -0.7707  1.8488  1.5982
  184SOL    HW2  552   3.019   1.398   1.079 -0.9781  0.6593 -1.2824
  185SOL     OW  553   0.015   0.068   1.196  0.0449 -0.4590 -0.3953
  185SOL    HW1  554   0.066   3.101   1.146 -2.2254  2.3306  0.6313
  185SOL    HW2  555   0.050   0.160   1.159 -1.3686  1.2821  0.8597
  186SOL     OW  556   2.208   2.405   2.150 -0.0017  0.3107  0.0900
  186SOL    HW1  557   2.111   2.378   2.139 -3.0787 -0.2780 -1.4775
  186SOL    HW2  558   2.235   2.392   2.245 -1.1471 -1.2836 -0.3566
  187SOL     OW  559   0.291   1.285   0.560  0.3488 -0.2495 -0.2072
  187SOL    HW1  560   0.382   1.309   0.533 -2.0176 -0.6959  2.2278
  187SOL    HW2  561   0.283   1.337   0.649  0.5261 -0.9826 -0.1958
  188SOL     OW  562   1.757   1.700   2.967  0.3154  0.0762  0.5897
  188SOL    HW1  563   1.720   1.793   2.935 -1.8974  1.4166 -2.0599
  188SOL    HW2  564   1.835   1.707   3.029  2.5004 -0.4067 -2.3049
  189SOL     OW  565   0.106   1.640   3.004  0.4657 -0.1433  0.3763
  189SOL    HW1  566   0.049   1.555   2.996 -0.3017  1.7793  1.2742
  189SOL    HW2  567   0.202   1.623   3.023 -2.5592  0.9667 -1.1496
  190SOL     OW  568   1.924   0.515   2.401  0.6277 -0.1306  0.7209
  190SOL    HW1  569   2.013   0.542   2.359  0.1493  0.8687 -0.7513
  190SOL    HW2  570   1.894   0.427   2.367  1.1804  4.3887  0.8639
  191SOL     OW  571   0.884   1.359   2.165 -0.3686  0.2643 -0.9870
  191SOL    HW1  572   0.830   1.332   2.081  1.7653  1.4259 -1.1841
  191SOL    HW2  573   0.911   1.272   2.221 -2.3516 -1.5655  2.9985
  192SOL     OW  574   1.703   1.440   2.007 -0.4350  0.4049 -0.6613
  192SOL    HW1  575   1.752   1.491   1.937 -0.5428 -0.7197  0.6036
  192SOL    HW2  576   1.701   1.340   1.981  2.3788 -2.0978 -1.6093
  193SOL     OW  577   0.927   3.076   0.723 -0.3386  0.3077 -0.5072
  193SOL    HW1  578   1.011   3.067   0.662  2.0926  1.0403  2.4018
  193SOL    HW2  579   0.957   3.036   0.814  5.1891 -2.2058  0.8387
  194SOL     OW  580   1.579   1.471   1.676  0.0019  0.0941  0.2508
  194SOL    HW1  581   1.563   1.530   1.593 -0.3214  1.0157 -0.9306
  194SOL    HW2  582   1.496   1.478   1.731 -0.1219 -1.6371 -1.1257
  195SOL     OW  583   1.782   0.132   0.790 -0.3194  0.4656 -0.1346
  195SOL    HW1  584   1.750   0.212   0.742 -0.4033 -0.8337 -2.1240
  195SOL    HW2  585   1.856   0.166   0.850  3.3008  2.6118 -3.2882
  196SOL     OW  586   0.906   1.761   2.163  0.5157  0.2421 -0.1997
  196SOL    HW1  587   0.916   1.824   2.090  1.1909 -0.8762 -0.6905
  196SOL    HW2  588   0.823   1.706   2.150 -0.4544  2.2264 -0.1534
  197SOL     OW  589   0.416   0.316   2.505 -0.4826  0.2987 -0.4036
  197SOL    HW1  590   0.488   0.354   2.565 -1.2716  1.1767 -3.7914
  197SOL    HW2  591   0.438   0.220   2.475  0.4751 -2.6249  1.2826
  198SOL     OW  592   2.872   0.986   1.117  0.2023 -0.2613 -0.0742
  198SOL    HW1  593   2.808   0.913   1.151 -0.3374 -2.0379  0.3818
  198SOL    HW2  594   2.813   1.070   1.113  0.5701 -1.8293  0.4133
  199SOL     OW  595   0.629   2.237   1.174 -0.0406  0.0787 -0.0725
  199SOL    HW1  596   0.713   2.219   1.117  0.8098  0.1603 -0.1554
  199SOL    HW2  597   0.557   2.279   1.111 -1.0090  1.1483 -2.2895
  200SOL     OW  598   2.945   1.952   2.693  0.1727 -0.1613 -0.0530
  200SOL    HW1  599   2.955   1.894   2.776 -0.6346  0.9452  0.0203
  200SOL    HW2  600   2.858   1.932   2.653 -0.9978  1.2898 -0.0607
  201SOL     OW  601   0.969   2.485   1.451 -0.1512 -0.4792 -0.3217
  201SOL    HW1  602   1.013   2.494   1.358  0.4717  0.4806 -1.2279
  201SOL    HW2  603   0.922   2.395   1.465  1.3609  0.9052  0.5573
  202SOL     OW  604   0.955   2.590   0.345 -0.3243 -0.0365 -0.1744
  202SOL    HW1  605   0.972   2.494   0.326  2.1194 -0.1031 -0.0967
  202SOL    HW2  606   0.932   2.653   0.264  1.5783  2.7014 -1.7419
  203SOL     OW  607   1.881   3.054   2.627 -0.4033 -0.3147  0.5905
  203SOL    HW1  608   1.841   0.017   2.570 -3.0892 -1.2837  3.1613
  203SOL    HW2  609   1.923   2.979   2.572 -1.4834  0.2196  0.6010
  204SOL     OW  610   0.292   1.424   1.575 -0.4729  0.5309  0.1312
  204SOL    HW1  611   0.311   1.376   1.489  0.6682  0.6376  2.0430
  204SOL    HW2  612   0.359   1.411   1.652 -0.8654  1.5145 -1.7480
  205SOL     OW  613   2.233   1.381   2.407 -0.1228  0.3774 -0.2839
  205SOL    HW1  614   2.296   1.369   2.327 -0.0705 -0.9372 -0.2030
  205SOL    HW2  615   2.145   1.346   2.370 -1.0146 -1.1518  0.8629
  206SOL     OW  616   0.267   1.970   2.697  0.0909 -0.2212 -0.2233
  206SOL    HW1  617   0.189   1.928   2.641 -0.5736 -2.3373 -1.4516
  206SOL    HW2  618   0.279   2.067   2.673  0.0519 -0.0396 -0.1825
  207SOL     OW  619   0.651   2.783   1.800  0.3643  0.3108  0.2772
  207SOL    HW1  620   0.754   2.778   1.793 -1.0860  1.5215 -1.0403
  207SOL    HW2  621   0.608   2.698   1.763  3.2364  0.3562 -2.6908
  208SOL     OW  622   3.100   2.697   1.442 -0.2255 -0.7125 -0.1224
  208SOL    HW1  623   0.008   2.724   1.538  0.5713  1.6176  1.3035
  208SOL    HW2  624   0.074   2.721   1.389  2.6536  0.3597 -1.0517
  209SOL     OW  625   1.175   2.694   2.336  0.2692  0.2213  0.2673
  209SOL    HW1  626   1.164   2.591   2.344  1.1589 -0.0833  0.3677
  209SOL    HW2  627   1.232   2.732   2.412 -1.6162  1.2396  2.8221
  210SOL     OW  628   2.760   1.028   2.128  0.0342  0.2593  0.0473
  210SOL    HW1  629   2.817   0.955   2.085  1.7224 -1.6900 -0.1595
  210SOL    HW2  630   2.732   1.001   2.223  0.0760 -4.1326  1.9098
  211SOL     OW  631   1.355   3.035   2.137  0.0460  0.4313 -0.4784
  211SOL    HW1  632   1.441   2.990   2.106  0.6093 -0.4011  1.2061
  211SOL    HW2  633   1.271   2.981   2.118 -1.1803 -0.4493  0.3155
  212SOL     OW  634   1.579   2.819   1.762 -0.5605 -0.2160 -0.0371
  212SOL    HW1  635   1.645   2.880   1.815  1.4274  0.7885  2.5844
  212SOL    HW2  636   1.565   2.856   1.667  0.2790  1.0302  0.4142
  213SOL     OW  637   2.273   0.638   1.680 -0.2407  0.0211 -0.6869
  213SOL    HW1  638   2.234   0.628   1.587  0.3035  0.8038  0.6099
  213SOL    HW2  639   2.371   0.613   1.688 -2.3004  0.2751  0.1681
  214SOL     OW  640   0.833   2.211   1.000 -0.0675  0.1045  0.4080
  214SOL    HW1  641   0.872   2.123   0.962  1.5796 -0.7902  0.4779
  214SOL    HW2  642   0.871   2.296   0.955  0.5951 -0.9096 -1.1163
  215SOL     OW  643   2.527   1.848   0.718  0.3392  0.3813 -0.1816
  215SOL    HW1  644   2.623   1.829   0.735 -1.1953  2.0965  1.6369
  215SOL    HW2  645   2.518   1.895   0.633  0.0620  0.0752  0.9498
  216SOL     OW  646   2.704   0.629   1.895  0.1286 -0.1547  0.5251
  216SOL    HW1  647   2.677   0.656   1.987  1.1172 -0.7249 -1.3569
  216SOL    HW2  648   2.618   0.601   1.840 -0.1675 -0.5420  1.4717
  217SOL     OW  649   2.047   0.321   1.293  0.6416 -0.6258  0.3536
  217SOL    HW1  650   2.129   0.289   1.241  0.8370 -0.4135 -3.2724
  217SOL    HW2  651   2.011   0.406   1.244  0.6606  4.6461 -1.7584
  218SOL     OW  652   1.918   2.308   1.174  0.6491  0.3736  0.0234
  218SOL    HW1  653   1.956   2.390   1.136  3.6989 -2.2791  3.0957
  218SOL    HW2  654   1.850   2.330   1.249  0.7092 -1.3502 -0.5397
  219SOL     OW  655   1.923   2.371   3.097 -0.6408 -0.1664 -0.5787
  219SOL    HW1  656   1.927   2.275   0.010  0.0005  3.1670 -1.1434
  219SOL    HW2  657   1.878   2.426   0.059  0.8957 -0.1705 -2.0284
  220SOL     OW  658   1.462   2.705   0.143  0.7596  0.3014 -0.3221
  220SOL    HW1  659   1.506   2.666   0.222 -1.7637  0.4850 -3.9673
  220SOL    HW2  660   1.537   2.734   0.079  0.9794 -0.3000 -1.3020
  221SOL     OW  661   3.079   2.427   1.912  0.4114 -0.4343 -0.1928
  221SOL    HW1  662   2.989   2.431   1.867  0.1051  1.5978  2.0183
  221SOL    HW2  663   3.066   2.383   2.003  3.7777 -1.2143 -0.9994
  222SOL     OW  664   1.997   2.544   0.994  0.2737  0.4524 -0.0317
  222SOL    HW1  665   2.075   2.610   0.985 -2.1763 -0.2727 -3.6571
  222SOL    HW2  666   1.970   2.507   0.901 -4.1641  0.7950 -1.5713
  223SOL     OW  667   1.443   2.465   1.471 -0.0984 -0.6681  0.2899
  223SOL    HW1  668   1.472   2.481   1.568 -1.4070 -1.4847  0.4921
  223SOL    HW2  669   1.469   2.370   1.440 -1.0403  0.8614  0.2450
  224SOL     OW  670   2.732   2.371   1.404  0.5545  0.3121  0.1231
  224SOL    HW1  671   2.807   2.316   1.363  1.2464 -2.7152 -0.2093
  224SOL    HW2  672   2.740   2.382   1.507 -0.5799  0.7760 -2.8414
  225SOL     OW  673   2.226   2.059   0.643  0.0104  0.0321  0.2577
  225SOL    HW1  674   2.147   2.001   0.628  0.0469  1.2906 -0.6550
  225SOL    HW2  675   2.212   2.119   0.721  0.0814 -0.3500  0.7432
  226SOL     OW  676   1.289   2.420   0.336  0.2980 -0.3814 -0.0974
  226SOL    HW1  677   1.328   2.333   0.367 -1.3097 -1.5371  1.0430
  226SOL    HW2  678   1.280   2.486   0.415 -0.6160 -0.0648  0.8071
  227SOL     OW  679   2.244   1.069   0.494 -0.3470 -0.1562 -0.6039
  227SOL    HW1  680   2.175   1.140   0.511  0.5884 -0.5365  0.7378
  227SOL    HW2  681   2.205   0.984   0.537 -0.3258  1.8349  1.4698
  228SOL     OW  682   1.840   0.529   0.051  0.4685 -0.6678  0.2820
  228SOL    HW1  683   1.877   0.488   3.078 -2.3671 -2.2879  1.6190
  228SOL    HW2  684   1.744   0.500   0.072 -0.4031  2.0972  0.7682
  229SOL     OW  685   2.659   0.975   2.364 -0.7346 -0.1240 -0.1390
  229SOL    HW1  686   2.639   0.892   2.423 -2.5502 -0.2626 -1.0090
  229SOL    HW2  687   2.651   1.058   2.422 -0.8177  0.5438  2.2821
  230SOL     OW  688   0.357   1.239   1.018  0.0751 -0.4369 -0.3909
  230SOL    HW1  689   0.373   1.289   1.102 -1.0374 -0.7273 -0.2764
  230SOL    HW2  690   0.438   1.223   0.963 -3.7311 -1.2740 -0.1941
  231SOL     OW  691   2.408   0.338   2.698  0.1504 -0.9389 -0.3709
  231SOL    HW1  692   2.427   0.432   2.732 -0.0002  1.6198 -0.9125
  231SOL    HW2  693   2.474   0.303   2.633  0.7784 -3.3641 -1.1362
  232SOL     OW  694   2.888   2.100   0.510  0.4040  0.5059  0.3788
  232SOL    HW1  695   2.973   2.063   0.559  2.4200 -0.9507  2.4223
  232SOL    HW2  696   2.849   2.172   0.573 -1.1282 -0.3341  2.1401
  233SOL     OW  697   1.515   2.506   2.406 -0.0946 -0.1267  0.1545
  233SOL    HW1  698   1.484   2.594   2.449 -1.6350  1.8925 -0.9737
  233SOL    HW2  699   1.530   2.520   2.305  2.4219  0.4758 -1.3773
  234SOL     OW  700   1.318   1.778   1.199  0.1510  0.0052  0.0559
  234SOL    HW1  701   1.357   1.745   1.289  2.5785 -1.2323  2.2187
  234SOL    HW2  702   1.375   1.840   1.144 -2.0557  1.1897 -0.1750
  235SOL     OW  703   1.044   1.872   1.689 -0.7576  0.1679  0.0083
  235SOL    HW1  704   0.965   1.878   1.752  1.7923  0.4568 -0.1745
  235SOL    HW2  705   1.034   1.793   1.621 -2.5465 -0.7229 -0.9806
  236SOL     OW  706   0.966   2.688   2.826 -0.1808 -0.0616 -0.0562
  236SOL    HW1  707   1.024   2.659   2.748  0.0294 -4.6379  0.6427
  236SOL    HW2  708   0.974   2.625   2.902  0.0546 -1.3520 -2.6320
  237SOL     OW  709   0.832   0.064   1.447  0.2519  0.3323  0.1930
  237SOL    HW1  710   0.818   0.034   1.354 -0.6600 -2.4292 -0.1300
  237SOL    HW2  711   0.815   3.096   1.514 -1.0276 -1.0932 -0.7464
  238SOL     OW  712   1.174   0.831   0.283  0.0586 -0.0914 -0.5818
  238SOL    HW1  713   1.196   0.859   0.380 -1.2760  1.5710  0.9475
  238SOL    HW2  714   1.070   0.836   0.270 -2.4749 -0.1655 -1.1279
  239SOL     OW  715   2.483   0.820   2.827 -0.7896 -0.6226  0.1343
  239SOL    HW1  716   2.404   0.841   2.763  0.0749 -2.8054 -2.4984
  239SOL    HW2  717   2.454   0.804   2.920  1.1066  2.0991  1.5170
  240SOL     OW  718   2.763   2.032   0.829 -0.0190 -0.1529  0.2268
  240SOL    HW1  719   2.717   1.984   0.907 -1.9535 -2.2269  0.9992
  240SOL    HW2  720   2.818   1.969   0.777 -0.9750  0.5831  0.2857
  241SOL     OW  721   0.957   1.564   0.936 -0.1007 -0.2049  0.0854
  241SOL    HW1  722   0.981   1.466   0.955  0.6768 -0.8681 -0.8939
  241SOL    HW2  723   0.854   1.573   0.936 -2.3818 -0.7479 -0.5575
  242SOL     OW  724   1.117   0.501   0.849 -0.4580  0.2206  0.4516
  242SOL    HW1  725   1.059   0.570   0.804  2.2727 -0.6350 -2.0684
  242SOL    HW2  726   1.174   0.455   0.779  0.1387  0.4626  0.9191
  243SOL     OW  727   0.576   0.571   1.140 -0.0648 -0.8068  0.1802
  243SOL    HW1  728   0.491   0.558   1.077 -3.5343 -1.8490 -1.3887
  243SOL    HW2  729   0.584   0.666   1.169  0.0479  0.1419 -2.3264
  244SOL     OW  730   1.252   0.236   0.348  0.0320  0.2586 -0.0928
  244SOL    HW1  731   1.277   0.173   0.425 -0.0970  0.1044 -0.6169
  244SOL    HW2  732   1.174   0.299   0.384  0.0144  0.1713 -0.9403
  245SOL     OW  733   2.071   0.858   0.273 -0.6316  0.4435  0.2342
  245SOL    HW1  734   2.073   0.908   0.368 -1.0929 -0.0247  2.0711
  245SOL    HW2  735   2.143   0.894   0.210 -2.3913  1.6611  0.4248
  246SOL     OW  736   0.422   0.267   1.757  0.4979  0.2010 -0.1931
  246SOL    HW1  737   0.508   0.210   1.792  4.3974 -0.4267 -0.0566
  246SOL    HW2  738   0.454   0.350   1.709 -0.4261 -1.8460  2.8172
  247SOL     OW  739   1.048   3.109   1.740 -0.3424 -0.2252 -0.3418
  247SOL    HW1  740   1.075   0.099   1.739  0.8906  4.5190  0.1063
  247SOL    HW2  741   1.104   3.052   1.673  0.3001  0.9749 -2.2647
  248SOL     OW  742   0.479   1.597   1.983  0.0198  0.2583 -0.2934
  248SOL    HW1  743   0.573   1.634   1.983 -1.4006  0.2305  1.5203
  248SOL    HW2  744   0.460   1.569   2.078  0.4065  4.1180 -2.6723
  249SOL     OW  745   0.490   2.455   0.383 -0.0401  0.0719  0.0998
  249SOL    HW1  746   0.433   2.507   0.317  0.5027  1.0213  1.2421
  249SOL    HW2  747   0.577   2.505   0.408  0.6604  0.4951 -0.0650
  250SOL     OW  748   0.779   0.364   2.076  0.2192 -0.1567  0.1752
  250SOL    HW1  749   0.713   0.282   2.087 -0.3772 -2.4573 -0.4222
  250SOL    HW2  750   0.800   0.382   1.975 -0.8071  1.0098 -3.6910
  251SOL     OW  751   2.698   1.986   1.472 -0.2724 -0.1597  0.3991
  251SOL    HW1  752   2.636   1.911   1.492  2.6316  0.0688  0.2651
  251SOL    HW2  753   2.658   2.046   1.395 -3.0858  1.4434  0.8426
  252SOL     OW  754   1.353   0.375   1.766 -0.2961  0.4963 -0.1877
  252SOL    HW1  755   1.339   0.366   1.868  2.0353 -0.8777  2.5742
  252SOL    HW2  756   1.433   0.323   1.736  0.6419  0.0426 -0.1396
  253SOL     OW  757   2.387   1.955   2.139 -0.8136 -0.1600 -0.5975
  253SOL    HW1  758   2.334   1.995   2.062  1.6984  0.8388 -1.2470
  253SOL    HW2  759   2.440   2.027   2.188  1.4293  0.0313 -0.7880
  254SOL     OW  760   0.716   1.539   1.189  0.4448 -0.0954  0.4661
  254SOL    HW1  761   0.715   1.641   1.176  1.9322 -2.0701 -0.3494
  254SOL    HW2  762   0.714   1.487   1.102  1.7547  0.1165  0.9323
  255SOL     OW  763   0.506   2.972   1.909  0.3250 -0.2806 -0.7197
  255SOL    HW1  764   0.553   2.889   1.868  0.1073 -0.1190  1.6788
  255SOL    HW2  765   0.529   3.061   1.865 -1.1587  2.2379  0.5426
  256SOL     OW  766   0.363   2.772   0.818 -0.1147  0.3990  0.0869
  256SOL    HW1  767   0.282   2.707   0.805 -1.6900  0.2616  0.2065
  256SOL    HW2  768   0.460   2.740   0.792  2.7084 -1.5266 -1.7981
  257SOL     OW  769   1.164   2.411   2.361  0.1760  0.4615 -0.4566
  257SOL    HW1  770   1.256   2.376   2.334  0.9538 -2.1683  0.4242
  257SOL    HW2  771   1.093   2.371   2.300  0.2041 -1.0168 -0.5060
  258SOL     OW  772   1.339   2.229   1.863 -0.0286 -0.4817  0.1536
  258SOL    HW1  773   1.245   2.209   1.905 -2.5670  2.1369  2.2428
  258SOL    HW2  774   1.349   2.204   1.766  1.0444 -0.1222  0.1131
  259SOL     OW  775   0.767   0.964   2.413 -0.0657  0.2734  0.4211
  259SOL    HW1  776   0.784   0.954   2.310 -0.1008  1.1475 -1.4252
  259SOL    HW2  777   0.700   0.891   2.438  0.6245 -3.4517  0.4702
  260SOL     OW  778   2.670   0.533   2.554  0.0595  0.5208  0.0041
  260SOL    HW1  779   2.639   0.517   2.651 -0.4481  1.0008 -2.2487
  260SOL    HW2  780   2.592   0.522   2.496  2.7850  0.9529  0.6251
  261SOL     OW  781   0.800   1.319   0.734  0.3540  0.2955 -0.4420
  261SOL    HW1  782   0.892   1.279   0.741  1.3740  0.6819 -1.2598
  261SOL    HW2  783   0.770   1.316   0.635 -0.7477  0.7089 -2.8654
  262SOL     OW  784   2.377   2.081   2.548 -0.2512 -0.3876 -0.4221
  262SOL    HW1  785   2.335   1.992   2.577  0.7113  1.4197 -0.9693
  262SOL    HW2  786   2.476   2.084   2.555 -0.3842 -1.6290 -1.9700
  263SOL     OW  787   0.817   2.721   1.033 -0.6305 -0.7264 -0.9281
  263SOL    HW1  788   0.884   2.764   1.095 -1.0306 -4.3702 -1.5788
  263SOL    HW2  789   0.790   2.631   1.074  0.4016  1.0849  1.2154
  264SOL     OW  790   2.833   2.165   0.226 -0.2510 -0.6357  0.5635
  264SOL    HW1  791   2.796   2.152   0.319  2.2398  0.5108  0.0501
  264SOL    HW2  792   2.848   2.076   0.177  0.6985 -1.1636 -1.4668
  265SOL     OW  793   1.973   1.250   2.625  0.2760 -0.8747 -0.1825
  265SOL    HW1  794   1.901   1.174   2.611 -2.2574 -0.6842 -0.2234
  265SOL    HW2  795   1.944   1.337   2.583  0.4984 -1.0182  3.2223
  266SOL     OW  796   1.340   1.953   2.029 -0.1354  0.3109  0.8443
  266SOL    HW1  797   1.391   1.973   2.116  0.7014 -0.3419  0.4008
  266SOL    HW2  798   1.263   2.014   2.029  2.0001 -0.8873 -0.2830
  267SOL     OW  799   2.522   0.786   2.511 -0.1069  0.0734 -0.1170
  267SOL    HW1  800   2.510   0.716   2.435 -0.2648 -1.7440 -0.8031
  267SOL    HW2  801   2.442   0.789   2.574  0.8551 -1.2279  1.3369
  268SOL     OW  802   0.995   1.190   3.036 -0.1198 -0.5549  0.3758
  268SOL    HW1  803   0.953   1.283   3.037 -1.5122  0.9445 -1.3540
  268SOL    HW2  804   1.088   1.196   3.005  0.4232  0.7295 -0.9906
  269SOL     OW  805   2.992   2.128   1.939  0.0815 -0.0341  0.6639
  269SOL    HW1  806   2.970   2.030   1.943 -0.5961 -0.4827 -0.3803
  269SOL    HW2  807   2.913   2.187   1.902  1.2786  3.4350  0.7137
  270SOL     OW  808   0.163   1.881   0.042 -0.0806 -0.4250 -0.4482
  270SOL    HW1  809   0.206   1.842   0.128  4.2441 -1.6414  0.9952
  270SOL    HW2  810   0.113   1.813   3.100  2.1502  1.3689 -0.3675
  271SOL     OW  811   0.267   0.250   0.329  0.1302  0.6826 -0.0889
  271SOL    HW1  812   0.295   0.255   0.426 -1.0727 -1.7981  1.5918
  271SOL    HW2  813   0.244   0.339   0.291  2.4865 -1.9465  0.6597
  272SOL     OW  814   3.075   2.879   0.556  0.2525 -0.6919  0.2264
  272SOL    HW1  815   2.981   2.912   0.578  0.2364 -1.9318  2.6938
  272SOL    HW2  816   3.083   2.788   0.507 -1.9862  2.6075 -1.3757
  273SOL     OW  817   0.361   2.907   2.128 -0.2417  0.3398  0.3530
  273SOL    HW1  818   0.270   2.951   2.144  1.1506 -2.3287 -0.2727
  273SOL    HW2  819   0.396   2.926   2.030  0.4836 -2.3340 -2.3086
  274SOL     OW  820   0.281   0.550   1.222 -0.0559 -0.0445  0.6772
  274SOL    HW1  821   0.234   0.475   1.168 -1.3790  1.7979 -1.1792
  274SOL    HW2  822   0.270   0.537   1.319 -0.5307  0.1084  1.3446
  275SOL     OW  823   1.040   1.800   1.065  0.2372 -0.1296  0.1543
  275SOL    HW1  824   1.128   1.773   1.109  0.6128 -2.4661 -3.8676
  275SOL    HW2  825   1.003   1.728   1.006  0.7578  2.6468  4.1737
  276SOL     OW  826   0.463   1.393   1.810  0.1367 -0.4941  0.1060
  276SOL    HW1  827   0.478   1.492   1.827  0.1227  0.1602 -1.7794
  276SOL    HW2  828   0.392   1.359   1.875 -0.0003 -1.7770 -1.4851
  277SOL     OW  829   1.103   2.105   1.935  0.8866  0.4923  0.2759
  277SOL    HW1  830   1.018   2.098   1.989 -2.1031 -1.7943  0.0114
  277SOL    HW2  831   1.091   2.058   1.845  1.0768 -1.1577  1.4877
  278SOL     OW  832   2.175   2.880   2.120  0.5515 -0.1947 -0.2709
  278SOL    HW1  833   2.185   2.786   2.078  1.0439 -3.0572 -1.9104
  278SOL    HW2  834   2.196   2.870   2.217  1.2776  2.0871 -0.1541
  279SOL     OW  835   1.601   1.474   2.930  0.1461  0.4615  1.0051
  279SOL    HW1  836   1.667   1.397   2.932 -0.3911  1.7711  1.3836
  279SOL    HW2  837   1.635   1.562   2.959 -2.2033 -2.3207 -1.0855
  280SOL     OW  838   1.671   0.437   0.446  0.3632  0.1823  0.3597
  280SOL    HW1  839   1.641   0.431   0.541 -2.0727 -1.0094 -0.8018
  280SOL    HW2  840   1.658   0.536   0.414 -1.4600  2.1372 -1.0406
  281SOL     OW  841   0.518   0.506   1.634  0.2242  0.4656  0.4405
  281SOL    HW1  842   0.425   0.551   1.648 -2.1871 -0.2400 -0.9389
  281SOL    HW2  843   0.583   0.541   1.701 -2.5722  0.5156 -0.6777
  282SOL     OW  844   0.178   2.940   0.756  0.3435 -0.0257  0.0106
  282SOL    HW1  845   0.103   2.908   0.692 -3.1722 -0.4924  0.0417
  282SOL    HW2  846   0.248   2.864   0.766  3.0243  1.5178  0.9225
  283SOL     OW  847   1.481   2.199   1.403 -0.2299 -0.7325  1.1810
  283SOL    HW1  848   1.450   2.168   1.307 -0.9594 -0.2837 -0.6425
  283SOL    HW2  849   1.408   2.170   1.469  1.3911 -2.9227 -0.7842
  284SOL     OW  850   2.430   2.672   1.384 -0.1653 -0.4544  0.5001
  284SOL    HW1  851   2.525   2.662   1.348  0.1275  0.0194 -0.2932
  284SOL    HW2  852   2.369   2.609   1.325  1.7302 -2.1832  1.0206
  285SOL     OW  853   0.433   2.121   0.879 -0.0922 -0.1050  0.0694
  285SOL    HW1  854   0.458   2.210   0.918 -2.4779 -1.5472 -0.3521
  285SOL    HW2  855   0.421   2.121   0.777 -0.2146  0.8004 -1.1101
  286SOL     OW  856   0.045   2.763   1.706 -0.6425 -0.0571  0.2094
  286SOL    HW1  857   3.076   2.756   1.769 -2.9391  0.6116 -0.7712
  286SOL    HW2  858   0.112   2.686   1.721  1.0666 -1.9372  0.1313
  287SOL     OW  859   0.524   1.251   0.782  0.3622  0.4363  0.0520
  287SOL    HW1  860   0.590   1.191   0.732  1.5439 -0.8987 -0.1700
  287SOL    HW2  861   0.488   1.319   0.721 -1.5934  1.7977  2.3086
  288SOL     OW  862   1.244   1.818   2.513 -0.1995 -0.7071  0.0927
  288SOL    HW1  863   1.327   1.826   2.462 -1.6594 -2.4617  0.0070
  288SOL    HW2  864   1.255   1.735   2.573  2.2420 -2.8415  0.5142
  289SOL     OW  865   2.573   1.541   2.764 -0.2404 -0.2115  0.1896
  289SOL    HW1  866   2.552   1.577   2.861  2.8532  3.1132  3.0435
  289SOL    HW2  867   2.490   1.511   2.722  2.0551  0.9872  0.7119
  290SOL     OW  868   1.222   1.322   1.031  0.1618  0.0054  0.4006
  290SOL    HW1  869   1.162   1.284   1.105 -2.2654  1.0552 -1.0308
  290SOL    HW2  870   1.292   1.386   1.058 -0.1748 -3.4297 -2.2380
  291SOL     OW  871   1.234   0.992   0.047 -0.1614 -0.6093 -0.6991
  291SOL    HW1  872   1.217   0.918   0.115 -4.1733 -3.0424  2.6215
  291SOL    HW2  873   1.214   0.958   3.065  2.4069 -2.5007  0.9334
  292SOL     OW  874   1.918   1.699   0.113  0.0622 -0.3119 -0.4237
  292SOL    HW1  875   1.992   1.630   0.112  0.1628  0.9993 -2.2542
  292SOL    HW2  876   1.830   1.658   0.144  0.5698  1.7239  1.6104
  293SOL     OW  877   1.659   3.066   1.056  0.5531  0.6896  0.2858
  293SOL    HW1  878   1.616   0.039   1.085  0.3823 -1.9627 -1.8996
  293SOL    HW2  879   1.750   3.081   1.019 -0.3644  0.5558  0.3912
  294SOL     OW  880   2.262   0.957   0.078 -0.2601 -0.1886 -0.1789
  294SOL    HW1  881   2.349   0.898   0.068  1.7600 -1.0312 -0.5749
  294SOL    HW2  882   2.286   1.046   0.123 -2.0348 -2.3938 -1.4365
  295SOL     OW  883   1.912   2.041   2.670  0.4122  0.6243  1.0327
  295SOL    HW1  884   1.907   1.941   2.689 -1.3761  2.0637 -0.5841
  295SOL    HW2  885   1.914   2.060   2.569  2.2357 -1.1483 -0.3308
  296SOL     OW  886   1.394   1.434   1.393 -0.3832 -0.1681  0.0963
  296SOL    HW1  887   1.427   1.461   1.298  0.4507  0.0774 -2.2526
  296SOL    HW2  888   1.337   1.508   1.432 -0.4618 -0.3453 -0.0201
  297SOL     OW  889   0.258   0.941   2.376  0.4176  0.2697 -0.0294
  297SOL    HW1  890   0.251   0.836   2.382 -1.4127 -0.7996 -0.0432
  297SOL    HW2  891   0.309   0.980   2.459  1.1182 -0.6736  0.4322
  298SOL     OW  892   1.735   2.312   1.383  0.3703  0.0461 -0.1375
  298SOL    HW1  893   1.656   2.251   1.397  1.1596  0.0628  0.0394
  298SOL    HW2  894   1.779   2.346   1.469 -1.4188  1.0307 -1.9241
  299SOL     OW  895   1.044   0.521   2.589 -0.6946 -0.0085  0.5017
  299SOL    HW1  896   1.130   0.562   2.638  0.4924  0.0027  2.6073
  299SOL    HW2  897   1.032   0.423   2.617  0.4620  1.7592  1.0804
  300SOL     OW  898   2.370   1.532   0.313 -0.1447  0.0417 -0.1861
  300SOL    HW1  899   2.445   1.504   0.251 -3.7520 -0.0766  1.1097
  300SOL    HW2  900   2.283   1.535   0.259  2.5353  1.4078  1.9307
  301SOL     OW  901   2.185   0.191   2.662  0.3211 -0.3607  1.0436
  301SOL    HW1  902   2.276   0.238   2.674  0.4149  0.1906 -0.2408
  301SOL    HW2  903   2.130   0.184   2.744  1.4917 -0.9885  0.7503
  302SOL     OW  904   2.685   1.851   2.579  0.1228 -0.3031 -0.1440
  302SOL    HW1  905   2.754   1.776   2.585 -1.4981  2.1080  0.6339
  302SOL    HW2  906   2.714   1.929   2.522  1.1562  0.9773  0.5588
  303SOL     OW  907   0.287   2.520   2.368  0.2917  0.5296 -0.1943
  303SOL    HW1  908   0.377   2.468   2.367  3.2630 -1.2143 -0.0502
  303SOL    HW2  909   0.216   2.449   2.400  0.9578 -1.0375  0.8387
  304SOL     OW  910   2.728   1.422   1.255  0.0532 -0.1636  0.1277
  304SOL    HW1  911   2.722   1.381   1.350  3.1670  0.1758 -1.1948
  304SOL    HW2  912   2.822   1.421   1.213  1.6270 -1.7439 -3.0335
  305SOL     OW  913   0.346   0.211   2.143 -0.5227 -0.1939 -0.1617
  305SOL    HW1  914   0.316   0.178   2.054  4.0401  1.1470  1.1178
  305SOL    HW2  915   0.294   0.184   2.222  2.9616  2.4928 -1.6936
  306SOL     OW  916   1.239   1.484   0.515 -0.0597  0.9163 -0.1606
  306SOL    HW1  917   1.213   1.384   0.495 -0.4148 -2.4294 -0.9952
  306SOL    HW2  918   1.327   1.494   0.558 -2.5540 -0.9309 -2.4206
  307SOL     OW  919   2.866   0.001   1.116  0.4722 -0.0944 -0.2442
  307SOL    HW1  920   2.873   3.105   1.015 -1.3605  3.6252  0.8244
  307SOL    HW2  921   2.960   0.023   1.147  1.0561 -0.7358  0.4045
  308SOL     OW  922   3.031   1.358   2.685  0.0913 -0.0228 -0.6253
  308SOL    HW1  923   2.938   1.386   2.657  1.3482  0.3571 -1.9046
  308SOL    HW2  924   3.055   1.279   2.637 -0.7418  6.5281  2.3169
  309SOL     OW  925   0.063   1.879   2.539  0.6867 -0.5074  0.0775
  309SOL    HW1  926   0.033   1.834   2.452 -0.0306  2.2084 -0.0649
  309SOL    HW2  927   3.086   1.900   2.594 -1.4805 -3.2313  2.0666
  310SOL     OW  928   2.264   0.426   0.095 -0.0313  0.2902  0.0169
  310SOL    HW1  929   2.289   0.482   0.010 -0.7203 -2.5536 -0.2779
  310SOL    HW2  930   2.237   0.486   0.172  0.4390 -1.2889 -4.0155
  311SOL     OW  931   2.150   1.060   2.733 -0.6019 -0.0511  0.3421
  311SOL    HW1  932   2.075   1.111   2.678 -2.5649  0.9940 -0.5682
  311SOL    HW2  933   2.113   1.031   2.825 -0.4176 -0.0953 -1.4086
  312SOL     OW  934   1.347   1.572   1.798  0.2581  0.5499 -0.0451
  312SOL    HW1  935   1.394   1.648   1.844  0.8168  0.9509 -0.8769
  312SOL    HW2  936   1.295   1.513   1.862  1.0739  0.4694  0.8065
  313SOL     OW  937   3.088   0.531   0.157 -0.5052 -0.1337 -0.0021
  313SOL    HW1  938   3.070   0.477   0.072  0.6872 -2.2357 -1.5620
  313SOL    HW2  939   3.007   0.513   0.221 -1.8519  3.1506  1.9582
  314SOL     OW  940   0.251   1.951   1.592  0.1493  0.1695  0.4965
  314SOL    HW1  941   0.286   2.011   1.667  1.1528  1.8023  1.4823
  314SOL    HW2  942   0.292   1.855   1.592  0.3364 -0.2589  0.4837
  315SOL     OW  943   1.091   1.691   1.358  0.2894 -0.0687 -0.4718
  315SOL    HW1  944   1.125   1.647   1.445 -1.3206  1.9673  0.2705
  315SOL    HW2  945   1.161   1.758   1.324 -0.9920 -0.6289  0.2837
  316SOL     OW  946   0.215   2.329   0.626  0.4194 -0.7460 -0.6293
  316SOL    HW1  947   0.146   2.278   0.568 -1.8449  0.6556 -1.7152
  316SOL    HW2  948   0.310   2.299   0.609 -0.4829  0.8854  2.2419
  317SOL     OW  949   2.577   0.174   1.289  0.4881 -0.0755 -0.9883
  317SOL    HW1  950   2.594   0.218   1.379 -0.5987 -0.6069 -0.2668
  317SOL    HW2  951   2.638   0.091   1.279  0.3666 -0.5333 -1.6439
  318SOL     OW  952   1.099   2.952   0.247  0.0572  0.0375  0.8948
  318SOL    HW1  953   1.081   2.886   0.163 -0.5508 -0.2711 -2.2676
  318SOL    HW2  954   1.123   3.045   0.209 -0.7467  1.8035  0.6579
  319SOL     OW  955   1.680   0.098   2.518  0.2651 -0.7654 -0.2502
  319SOL    HW1  956   1.613   0.174   2.525 -0.6451  0.2173 -1.7489
  319SOL    HW2  957   1.639   0.011   2.498  1.1405  2.2261  0.5664
  320SOL     OW  958   2.684   2.100   1.884 -0.0742 -0.2301 -0.7726
  320SOL    HW1  959   2.749   2.023   1.903  3.9092  3.1173  0.0016
  320SOL    HW2  960   2.613   2.059   1.828  2.5930 -0.1905  0.7527
  321SOL     OW  961   0.166   2.574   0.015 -0.3848 -0.0369 -0.2611
  321SOL    HW1  962   0.219   2.587   0.100 -1.4848  1.5678 -0.4737
  321SOL    HW2  963   0.199   2.496   3.068 -1.6654  0.3017 -1.7406
  322SOL     OW  964   2.543   0.733   2.101 -0.5498  0.0729  0.4440
  322SOL    HW1  965   2.496   0.820   2.124  2.0473 -0.1325 -1.3948
  322SOL    HW2  966   2.484   0.652   2.107  0.3259  2.9211 -1.1839
  323SOL     OW  967   2.046   1.313   0.244  0.2834  0.2691  0.0351
  323SOL    HW1  968   1.961   1.313   0.188  1.3998 -1.1907  2.8742
  323SOL    HW2  969   2.025   1.288   0.341  0.6643  2.3800 -2.1746
  324SOL     OW  970   0.072   0.290   1.482  0.3234 -0.3221 -0.3566
  324SOL    HW1  971   3.088   0.316   1.521 -2.4715  1.9987 -0.3507
  324SOL    HW2  972   0.076   0.333   1.391  1.4276 -1.3519 -1.1776
  325SOL     OW  973   2.880   3.003   1.519  0.3041 -0.4433 -0.8862
  325SOL    HW1  974   2.973   3.013   1.479  2.8173 -1.0018  0.8741
  325SOL    HW2  975   2.814   2.963   1.450  0.9569  1.5016 -0.7031
  326SOL     OW  976   1.569   2.570   0.369 -0.3977  0.2662 -0.3243
  326SOL    HW1  977   1.490   2.507   0.371 -1.6140  0.4300  1.2409
  326SOL    HW2  978   1.618   2.567   0.458  0.3624 -0.4517 -1.1004
  327SOL     OW  979   1.947   2.300   0.325  0.2001  0.0403 -0.2426
  327SOL    HW1  980   1.871   2.253   0.378 -0.3329  1.1669  1.8236
  327SOL    HW2  981   2.038   2.250   0.340  4.2183 -3.2868  3.6295
  328SOL     OW  982   2.797   2.336   1.891 -0.4885 -0.2827 -0.1404
  328SOL    HW1  983   2.757   2.241   1.881  0.0900 -1.8983  0.2972
  328SOL    HW2  984   2.747   2.395   1.953  2.3693 -0.7817 -3.1154
  329SOL     OW  985   0.338   2.375   1.298 -0.1422 -0.5920  0.1320
  329SOL    HW1  986   0.265   2.406   1.362  0.2577 -0.3421 -1.7550
  329SOL    HW2  987   0.377   2.284   1.323 -0.3277 -1.4490  0.5338
  330SOL     OW  988   2.231   0.911   2.369  0.2855  0.2173  0.8163
  330SOL    HW1  989   2.133   0.901   2.394  0.0343 -0.6560 -1.1035
  330SOL    HW2  990   2.278   0.992   2.414 -0.3170  0.9308 -1.3373
  331SOL     OW  991   2.445   1.410   0.597  0.5693  0.0181 -0.2615
  331SOL    HW1  992   2.420   1.472   0.520  0.7086 -0.7961 -2.1161
  331SOL    HW2  993   2.536   1.442   0.628 -1.4492  0.5766 -0.5823
  332SOL     OW  994   0.224   2.774   1.331  0.0166 -0.2770 -0.4302
  332SOL    HW1  995   0.282   2.769   1.248  2.7407 -0.7257  0.2226
  332SOL    HW2  996   0.261   2.828   1.408 -1.8420  0.4403 -0.4914
  333SOL     OW  997   0.026   1.586   2.095 -0.3094 -0.3967  0.1906
  333SOL    HW1  998   0.094   1.645   2.046  0.8570  0.6382  0.9727
  333SOL    HW2  999   0.022   1.487   2.062 -2.1027  1.4109 -0.0787
  334SOL     OW 1000   0.262   0.817   1.177 -0.0925 -0.0209 -0.7547
  334SOL    HW1 1001   0.165   0.846   1.189  2.1614  2.1005  1.9127
  334SOL    HW2 1002   0.270   0.714   1.196  1.5954 -2.1997  0.3192
  335SOL     OW 1003   2.904   1.613   1.961 -0.4731  0.2517  0.3967
  335SOL    HW1 1004   2.971   1.618   2.037 -0.8572 -1.2366 -0.0273
  335SOL    HW2 1005   2.858   1.520   1.959 -1.3001  1.2478  0.6668
  336SOL     OW 1006   1.988   2.818   2.524  0.3795  0.4308  0.0633
  336SOL    HW1 1007   1.929   2.747   2.480 -3.8510  1.9467 -0.2213
  336SOL    HW2 1008   2.003   2.792   2.621  0.8771  2.2715 -0.3077
  337SOL     OW 1009   0.774   0.719   1.337  0.1207  0.1770  0.1432
  337SOL    HW1 1010   0.693   0.728   1.399  0.2830  0.9196 -0.5213
  337SOL    HW2 1011   0.753   0.743   1.241  0.9632  0.1733 -1.0537
  338SOL     OW 1012   1.489   2.361   0.999  0.0282 -0.3152 -0.4390
  338SOL    HW1 1013   1.529   2.414   1.078 -0.1114  3.6580 -0.4771
  338SOL    HW2 1014   1.454   2.278   1.035  3.1956  1.0306  1.7005
  339SOL     OW 1015   0.378   2.119   1.388 -0.2736  0.0074  0.3110
  339SOL    HW1 1016   0.444   2.154   1.461  2.8229 -1.5052  1.4001
  339SOL    HW2 1017   0.326   2.042   1.411  0.0081  3.1582  2.1016
  340SOL     OW 1018   0.619   0.169   2.116  0.1955 -0.0243 -0.1601
  340SOL    HW1 1019   0.637   0.078   2.156 -1.4195  1.4227  1.6396
  340SOL    HW2 1020   0.518   0.186   2.121  2.3734  0.2236  1.2070
  341SOL     OW 1021   1.979   1.603   0.475  0.2307  0.4283 -0.5385
  341SOL    HW1 1022   2.051   1.674   0.457 -0.0049 -0.5311  0.0579
  341SOL    HW2 1023   1.993   1.550   0.559 -1.7583 -0.1363 -0.1275
  342SOL     OW 1024   1.707   1.462   0.476 -0.2168  0.0633 -0.4157
  342SOL    HW1 1025   1.692   1.467   0.376 -0.1627  1.3746 -1.3181
  342SOL    HW2 1026   1.785   1.528   0.499  2.4997  0.8942  0.5516
  343SOL     OW 1027   1.984   0.016   1.043  0.3857 -0.3735  0.1559
  343SOL    HW1 1028   2.065   0.040   1.098 -1.1194 -1.9407  1.0677
  343SOL    HW2 1029   2.008   3.067   0.961  1.5484 -0.2254 -0.0686
  344SOL     OW 1030   2.859   0.110   2.951 -0.2381 -0.1310  0.0819
  344SOL    HW1 1031   2.913   0.040   3.009 -2.2936 -1.1095  1.7361
  344SOL    HW2 1032   2.801   0.073   2.876 -0.8271 -1.1554  2.0885
  345SOL     OW 1033   1.424   2.726   1.379 -0.0200  0.0464 -0.2223
  345SOL    HW1 1034   1.509   2.770   1.409 -1.7681 -3.1200  1.8228
  345SOL    HW2 1035   1.418   2.636   1.432  1.3857 -1.5581  0.9018
  346SOL     OW 1036   2.318   2.253   1.399 -0.1119  0.3402 -0.3659
  346SOL    HW1 1037   2.231   2.209   1.372  1.7139 -1.6280  2.1197
  346SOL    HW2 1038   2.323   2.265   1.501 -1.3860  1.4432  0.7246
  347SOL     OW 1039   2.254   2.935   1.023 -0.0291 -0.1429 -0.5964
  347SOL    HW1 1040   2.163   2.948   0.978  2.7284  1.4629 -0.8296
  347SOL    HW2 1041   2.249   2.970   1.120  0.7475 -0.7804 -0.7336
  348SOL     OW 1042   0.649   1.041   1.390 -0.8572  0.0602 -0.2940
  348SOL    HW1 1043   0.686   1.025   1.297 -0.4690 -0.4464  0.5454
  348SOL    HW2 1044   0.606   0.952   1.422 -1.3727  0.8783  2.8340
  349SOL     OW 1045   2.216   0.171   0.003 -0.7479 -0.6734  0.5350
  349SOL    HW1 1046   2.209   0.264   0.045 -1.9436 -0.6325  0.5891
  349SOL    HW2 1047   2.290   0.166   3.041  2.6477 -0.2645 -0.7515
  350SOL     OW 1048   2.322   2.129   3.086 -0.4281  0.6114  0.4766
  350SOL    HW1 1049   2.415   2.100   3.057 -0.6431 -0.7884  0.4896
  350SOL    HW2 1050   2.309   2.227   3.071  0.4472 -1.3530 -0.8571
  351SOL     OW 1051   1.447   0.521   0.574 -0.2696 -0.0131 -0.8713
  351SOL    HW1 1052   1.386   0.456   0.624 -0.7864 -2.6406 -1.4247
  351SOL    HW2 1053   1.408   0.553   0.486  0.6038  0.8124 -1.7187
  352SOL     OW 1054   1.753   2.091   2.425 -0.2892  0.4633 -0.0202
  352SOL    HW1 1055   1.719   2.164   2.483  0.0139 -1.4723 -1.3221
  352SOL    HW2 1056   1.776   2.120   2.330  0.2958  0.0558 -0.7990
  353SOL     OW 1057   0.496   0.630   3.089 -0.2696 -0.3448 -0.6033
  353SOL    HW1 1058   0.408   0.595   3.051  0.8262 -0.8890 -1.1260
  353SOL    HW2 1059   0.529   0.704   3.026 -0.4902 -0.0155 -0.6857
  354SOL     OW 1060   1.173   1.986   0.119  0.3831  0.0572 -0.0996
  354SOL    HW1 1061   1.097   2.052   0.137  0.6795 -0.5031 -1.2304
  354SOL    HW2 1062   1.236   2.003   0.196 -0.9158 -0.7895  0.4208
  355SOL     OW 1063   2.616   2.668   1.815 -0.0832 -0.2886  0.0215
  355SOL    HW1 1064   2.698   2.726   1.836 -0.3284 -1.0168 -1.8895
  355SOL    HW2 1065   2.534   2.726   1.805  1.2650 -0.6145  2.2586
  356SOL     OW 1066   2.710   0.978   0.559  0.2847 -0.2647 -0.3002
  356SOL    HW1 1067   2.743   0.881   0.532  0.7686 -1.6876  0.4395
  356SOL    HW2 1068   2.611   0.974   0.574 -0.1534  0.0467 -0.2153
  357SOL     OW 1069   2.817   0.284   1.200  0.0485  0.0121  0.4293
  357SOL    HW1 1070   2.735   0.240   1.237  2.0901  0.3068 -1.7792
  357SOL    HW2 1071   2.858   0.213   1.142  0.2417  2.3946  3.6064
  358SOL     OW 1072   1.042   2.434   1.171 -0.0414  0.1369 -0.3172
  358SOL    HW1 1073   0.946   2.451   1.140 -0.2679  1.8738 -0.7147
  358SOL    HW2 1074   1.107   2.487   1.115 -0.0962  1.1877  0.4181
  359SOL     OW 1075   0.189   2.532   2.744  0.0291  0.2576  0.1025
  359SOL    HW1 1076   0.167   2.606   2.807  0.1716 -3.1440  1.9062
  359SOL    HW2 1077   0.273   2.547   2.694 -0.5152  1.9647 -0.2872
  360SOL     OW 1078   0.800   1.024   1.840  0.0346  0.2635  0.3194
  360SOL    HW1 1079   0.812   1.051   1.741  0.3602  0.8698  2.1646
  360SOL    HW2 1080   0.701   0.991   1.852 -2.5001  3.8150 -1.6947
  361SOL     OW 1081   2.384   3.104   0.578  0.3364  0.0304 -0.1866
  361SOL    HW1 1082   2.473   0.016   0.627  1.1553 -0.8420  0.3816
  361SOL    HW2 1083   2.401   3.106   0.475  0.2414  1.5281 -1.1036
  362SOL     OW 1084   0.135   3.004   1.015 -0.0834 -0.1972  0.0936
  362SOL    HW1 1085   0.136   2.992   0.911  0.9088  1.2259 -2.7121
  362SOL    HW2 1086   0.229   3.006   1.062 -0.4264  1.1776  0.7454
  363SOL     OW 1087   0.759   1.317   0.455  0.1419  0.6365 -0.2073
  363SOL    HW1 1088   0.749   1.228   0.402 -1.8890  0.2940 -1.4298
  363SOL    HW2 1089   0.847   1.368   0.423  1.4785  0.8838 -1.4424
  364SOL     OW 1090   0.615   1.317   1.598  0.3393  0.5606  0.5825
  364SOL    HW1 1091   0.614   1.212   1.601 -1.1981 -1.4143 -0.2225
  364SOL    HW2 1092   0.543   1.353   1.667 -0.0243  1.3066 -0.5185
  365SOL     OW 1093   2.819   1.085   0.270 -0.3216 -0.2900  0.1826
  365SOL    HW1 1094   2.791   1.135   0.351  0.7041 -0.8692 -2.7779
  365SOL    HW2 1095   2.783   1.136   0.188 -0.8986  0.7035 -0.0323
  366SOL     OW 1096   2.769   1.762   1.199  0.4325  0.0730 -0.3660
  366SOL    HW1 1097   2.786   1.686   1.136  1.6370 -0.5141  1.7344
  366SOL    HW2 1098   2.770   1.734   1.295  0.5511  1.5429  0.9040
  367SOL     OW 1099   2.196   2.075   1.949 -0.2078  0.3562  0.3028
  367SOL    HW1 1100   2.146   2.127   2.021 -1.8990 -0.2499  1.1802
  367SOL    HW2 1101   2.145   2.091   1.865  2.5150 -1.8028  0.2280
  368SOL     OW 1102   2.762   1.548   0.974  0.2484 -0.2558 -0.0952
  368SOL    HW1 1103   2.805   1.541   0.886 -1.2460  0.7530  0.3599
  368SOL    HW2 1104   2.784   1.471   1.035 -4.0383  2.0144 -0.2461
  369SOL     OW 1105   2.488   2.601   0.098 -0.2175 -0.0603 -0.4762
  369SOL    HW1 1106   2.470   2.652   0.186 -2.3543 -0.6660  0.3056
  369SOL    HW2 1107   2.535   2.665   0.028  2.6871  0.1513 -2.6880
  370SOL     OW 1108   0.027   3.073   1.459 -0.1625 -0.7318  0.9112
  370SOL    HW1 1109   0.115   3.066   1.510 -0.7370  1.7687  1.7662
  370SOL    HW2 1110   0.032   0.028   1.383 -0.2339 -1.4752  0.9494
  371SOL     OW 1111   0.855   1.857   2.739  0.1518  0.7968 -0.3293
  371SOL    HW1 1112   0.914   1.836   2.656 -0.7116 -4.1933 -0.0969
  371SOL    HW2 1113   0.858   1.954   2.748  1.4993 -2.8776 -1.8006
  372SOL     OW 1114   0.910   0.919   0.243  0.4628 -0.1792 -0.3972
  372SOL    HW1 1115   0.854   0.990   0.290 -2.4065  0.2529 -0.1047
  372SOL    HW2 1116   0.875   0.903   0.150  2.2749 -2.3587  2.6364
  373SOL     OW 1117   1.484   2.630   2.861 -0.0136  0.1659  0.1574
  373SOL    HW1 1118   1.438   2.665   2.941 -2.3489 -0.4244  0.1125
  373SOL    HW2 1119   1.417   2.579   2.801  2.7167  2.9920 -2.0487
  374SOL     OW 1120   0.173   2.108   0.251  0.7202  0.2903  0.2986
  374SOL    HW1 1121   0.255   2.165   0.243 -0.8730 -3.0747  0.3809
  374SOL    HW2 1122   0.141   2.077   0.160 -0.9981  1.7543  0.9108
  375SOL     OW 1123   0.803   1.517   1.641 -0.1846  0.3663  0.3605
  375SOL    HW1 1124   0.734   1.449   1.618  3.9887  0.7104 -1.0519
  375SOL    HW2 1125   0.892   1.473   1.618  2.3290  1.2498  1.3197
  376SOL     OW 1126   0.650   2.397   1.769  0.6041 -0.4998  0.4090
  376SOL    HW1 1127   0.584   2.464   1.732 -3.0662  0.2221 -0.5923
  376SOL    HW2 1128   0.603   2.361   1.854  1.9019 -3.0656 -1.0939
  377SOL     OW 1129   2.664   1.497   2.258  0.2523  0.2703  0.5239
  377SOL    HW1 1130   2.643   1.584   2.212  1.9206 -0.3646  2.0773
  377SOL    HW2 1131   2.764   1.481   2.277  3.9761  1.1501 -2.5130
  378SOL     OW 1132   0.906   3.036   0.004  0.1301  0.2367 -0.0639
  378SOL    HW1 1133   0.896   2.939   0.040  1.9147 -2.8468 -1.2193
  378SOL    HW2 1134   0.996   3.077   0.014 -1.6662  1.0455 -0.6983
  379SOL     OW 1135   2.076   0.460   0.821 -0.0224 -0.3699  0.2903
  379SOL    HW1 1136   2.092   0.410   0.734  2.5934 -1.4128 -0.8540
  379SOL    HW2 1137   2.040   0.396   0.889  0.0325  0.2219 -2.0057
  380SOL     OW 1138   2.973   2.016   1.442 -0.1605 -0.3244  0.3215
  380SOL    HW1 1139   2.870   2.011   1.465  0.1536 -0.0704  1.4866
  380SOL    HW2 1140   2.991   2.082   1.363 -0.1116  0.0106 -1.1877
  381SOL     OW 1141   1.917   1.786   1.746  0.0525 -0.6248 -0.1044
  381SOL    HW1 1142   1.873   1.864   1.692 -0.0930  1.4215  2.0544
  381SOL    HW2 1143   2.020   1.784   1.751  1.1348  1.1636  1.3806
  382SOL     OW 1144   3.030   0.286   2.840 -0.2563 -0.0810  0.3522
  382SOL    HW1 1145   3.048   0.263   2.745 -0.4916  0.6858 -0.5365
  382SOL    HW2 1146   2.967   0.216   2.881  0.4871  0.5874  1.7453
  383SOL     OW 1147   1.583   1.501   2.642  0.0348  0.2892  0.1218
  383SOL    HW1 1148   1.557   1.404   2.620 -1.1514  1.2173  0.7132
  383SOL    HW2 1149   1.623   1.510   2.735  4.5276 -0.4923  2.8810
  384SOL     OW 1150   1.145   2.172   1.086 -0.1926  0.4259 -0.2569
  384SOL    HW1 1151   1.116   2.268   1.068 -2.1620  2.7532 -2.4557
  384SOL    HW2 1152   1.076   2.118   1.135  2.4361  0.8969 -3.8808
  385SOL     OW 1153   1.956   2.358   0.769  0.0581 -0.1643  0.2928
  385SOL    HW1 1154   1.854   2.352   0.772  0.7943 -1.9591  2.4465
  385SOL    HW2 1155   1.994   2.395   0.680 -0.4475 -0.1139 -1.1839
  386SOL     OW 1156   2.125   1.909   0.913  0.2763  0.2823 -0.0202
  386SOL    HW1 1157   2.116   2.009   0.916  1.0677 -2.3185  1.4670
  386SOL    HW2 1158   2.194   1.877   0.981  0.2931  0.1255  1.2737
  387SOL     OW 1159   0.296   2.330   1.630  0.0146 -0.4850 -0.5152
  387SOL    HW1 1160   0.230   2.352   1.557  1.3417 -1.4804 -0.4292
  387SOL    HW2 1161   0.274   2.238   1.669 -0.5547 -0.0594 -0.5968
  388SOL     OW 1162   2.922   0.487   1.797 -0.6135  0.4368  0.2591
  388SOL    HW1 1163   2.853   0.550   1.836  2.1731  0.7470 -1.1041
  388SOL    HW2 1164   2.931   0.402   1.852 -1.2762  0.9181 -1.3582
  389SOL     OW 1165   2.010   1.206   0.553 -0.0280 -0.4310 -0.2022
  389SOL    HW1 1166   2.007   1.230   0.655 -0.1040  1.4837  3.1232
  389SOL    HW2 1167   1.916   1.188   0.513  0.1904 -1.7662 -0.7883
  390SOL     OW 1168   0.998   2.223   2.689  0.1184 -0.3660  0.8349
  390SOL    HW1 1169   1.033   2.315   2.684 -0.1139  0.6496  2.2522
  390SOL    HW2 1170   1.054   2.158   2.630 -2.1847 -1.1568  0.5844
  391SOL     OW 1171   0.885   2.203   2.986 -0.5918 -0.6535 -0.2917
  391SOL    HW1 1172   0.792   2.159   2.987 -0.9219 -1.2279 -0.0446
  391SOL    HW2 1173   0.907   2.253   2.900  0.4338 -2.2069  0.4096
  392SOL     OW 1174   2.948   2.798   1.923  0.4504  0.1814 -0.1215
  392SOL    HW1 1175   2.893   2.827   1.841 -1.9767 -0.7922 -1.2607
  392SOL    HW2 1176   2.946   2.861   2.000 -3.3521  0.9362 -0.5869
  393SOL     OW 1177   1.869   2.536   0.213  0.0857 -0.5758  0.4241
  393SOL    HW1 1178   1.897   2.449   0.258  0.3065  1.4538 -1.6503
  393SOL    HW2 1179   1.858   2.611   0.275 -1.2917 -0.7915 -1.2679
  394SOL     OW 1180   0.541   0.614   2.254  0.7927  0.1810  0.1223
  394SOL    HW1 1181   0.474   0.541   2.265  1.4805  1.7809 -2.2158
  394SOL    HW2 1182   0.617   0.589   2.191 -1.0356  4.1743  1.8353
  395SOL     OW 1183   0.384   1.300   1.303  0.1578 -0.3707 -0.4152
  395SOL    HW1 1184   0.436   1.219   1.272  1.8696 -1.0034 -3.8773
  395SOL    HW2 1185   0.446   1.371   1.348  1.1842 -0.7909  1.8119
  396SOL     OW 1186   1.649   1.688   2.111 -0.0168 -0.2180 -0.2646
  396SOL    HW1 1187   1.659   1.589   2.121  1.5235 -1.6576  0.6057
  396SOL    HW2 1188   1.629   1.727   2.204 -0.5924  0.9249 -1.5119
  397SOL     OW 1189   0.873   0.480   2.996  0.2367 -0.5030 -0.3480
  397SOL    HW1 1190   0.844   0.512   3.086  1.6800  0.1958 -1.3991
  397SOL    HW2 1191   0.793   0.435   2.951 -1.7428  0.0461 -1.4856
  398SOL     OW 1192   0.453   1.824   2.474  0.1499 -0.6275 -0.2312
  398SOL    HW1 1193   0.444   1.909   2.525  2.9719 -3.1804 -0.7238
  398SOL    HW2 1194   0.550   1.802   2.435  4.4757 -1.1558 -2.9983
  399SOL     OW 1195   2.949   1.831   2.202  0.8742  0.4501 -0.3644
  399SOL    HW1 1196   2.953   1.911   2.270 -0.6115 -1.4528 -0.6263
  399SOL    HW2 1197   2.995   1.749   2.238  0.3055 -0.2455 -1.3666
  400SOL     OW 1198   2.314   0.900   1.717  0.1101  0.3464 -0.4973
  400SOL    HW1 1199   2.337   0.943   1.622 -0.8002  2.2869 -2.5631
  400SOL    HW2 1200   2.328   0.802   1.706 -0.7809  1.2951 -0.7691
  401SOL     OW 1201   1.075   1.660   0.689  0.6924 -0.5665  0.0285
  401SOL    HW1 1202   1.046   1.625   0.782 -2.4917 -1.0098  2.2773
  401SOL    HW2 1203   1.123   1.593   0.628  2.4871 -1.1018  0.4441
  402SOL     OW 1204   3.093   2.651   2.129  0.2424  0.4362 -0.1285
  402SOL    HW1 1205   3.052   2.706   2.056 -2.0405  0.2684  2.0280
  402SOL    HW2 1206   0.086   2.651   2.122  2.4652 -1.0513 -0.0342
  403SOL     OW 1207   0.457   1.547   2.267 -1.1316  0.0054 -0.0414
  403SOL    HW1 1208   0.384   1.591   2.328  0.1647 -1.1342  0.8454
  403SOL    HW2 1209   0.433   1.452   2.255  1.5035  2.7823 -0.7496
  404SOL     OW 1210   1.843   2.015   1.627 -0.3697 -0.0878 -0.0795
  404SOL    HW1 1211   1.771   2.076   1.658  4.8021 -1.1315 -0.9725
  404SOL    HW2 1212   1.850   2.009   1.523  0.3170 -1.4971  0.6607
  405SOL     OW 1213   2.796   2.621   2.912 -0.7908 -0.6464 -0.1694
  405SOL    HW1 1214   2.836   2.589   2.998 -2.4138  4.2507 -1.6049
  405SOL    HW2 1215   2.837   2.565   2.837 -1.0409  0.0357 -1.1390
  406SOL     OW 1216   0.651   1.167   0.042  0.5094 -0.2790 -0.0565
  406SOL    HW1 1217   0.699   1.092   3.109  0.2648  2.4035 -0.1718
  406SOL    HW2 1218   0.684   1.260   0.009 -0.4629 -0.6231 -0.5199
  407SOL     OW 1219   1.997   2.511   2.853 -0.2980 -0.1947  0.3093
  407SOL    HW1 1220   2.021   2.459   2.768 -2.2453  1.1260 -4.2418
  407SOL    HW2 1221   1.961   2.454   2.929 -0.6812  1.0172  0.5140
  408SOL     OW 1222   2.846   2.866   0.116 -0.4618 -0.5229 -0.2458
  408SOL    HW1 1223   2.851   2.778   0.164 -0.7726 -0.0178  1.9071
  408SOL    HW2 1224   2.831   2.949   0.178  0.9715  2.1339  4.2246
  409SOL     OW 1225   2.317   1.472   0.823  0.0582  0.4169 -0.1702
  409SOL    HW1 1226   2.315   1.572   0.799  2.3296 -0.9666  0.3767
  409SOL    HW2 1227   2.363   1.421   0.747 -0.6495  2.3516  1.3372
  410SOL     OW 1228   2.685   1.898   0.450  0.2629  0.4668 -0.3287
  410SOL    HW1 1229   2.592   1.940   0.439 -0.0518  0.7534  0.8990
  410SOL    HW2 1230   2.756   1.967   0.474 -3.3222 -1.1885 -1.3997
  411SOL     OW 1231   0.233   1.403   0.816 -0.0621 -0.3713 -0.3070
  411SOL    HW1 1232   0.234   1.500   0.850 -0.2922  2.4027 -0.6440
  411SOL    HW2 1233   0.266   1.341   0.886 -1.0296  0.6638  0.4796
  412SOL     OW 1234   2.212   2.206   0.407 -0.5488  0.0599 -0.0194
  412SOL    HW1 1235   2.307   2.243   0.387  3.8875  1.7493  2.9431
  412SOL    HW2 1236   2.214   2.148   0.493 -0.2698 -1.1862  0.6638
  413SOL     OW 1237   1.862   0.823   2.165 -0.9851  0.0963 -0.0545
  413SOL    HW1 1238   1.776   0.764   2.162 -0.3984 -1.3160 -0.6398
  413SOL    HW2 1239   1.925   0.784   2.102  0.7618  2.1037  0.9739
  414SOL     OW 1240   2.782   3.060   0.329 -0.8251 -0.8002 -0.4530
  414SOL    HW1 1241   2.683   3.066   0.309  1.4957 -1.2117  1.5729
  414SOL    HW2 1242   2.801   3.007   0.413 -0.4583  3.5349  0.9075
  415SOL     OW 1243   0.968   2.023   1.212  0.3237  0.4339  0.3023
  415SOL    HW1 1244   0.997   1.940   1.159  2.2749 -1.6617 -1.0829
  415SOL    HW2 1245   0.881   2.005   1.252  3.7155 -0.4861 -0.1787
  416SOL     OW 1246   0.407   2.804   2.836  0.2368  0.6796  0.0454
  416SOL    HW1 1247   0.427   2.862   2.760 -0.1251 -0.7594  1.0496
  416SOL    HW2 1248   0.472   2.728   2.853  1.0084 -0.8937 -1.9658
  417SOL     OW 1249   2.668   0.504   1.131  0.1849  0.3017 -0.0581
  417SOL    HW1 1250   2.631   0.480   1.044  1.6816  3.9222  3.1815
  417SOL    HW2 1251   2.749   0.449   1.150  0.8708 -1.5319 -0.0379
  418SOL     OW 1252   0.064   0.330   3.079 -0.2815 -0.2937  0.2579
  418SOL    HW1 1253   0.095   0.254   0.021  0.5552  1.4143 -1.2158
  418SOL    HW2 1254   0.002   0.303   3.001  3.3510 -0.8025 -0.9665
  419SOL     OW 1255   0.030   1.339   1.704 -0.0690 -0.2689  0.1798
  419SOL    HW1 1256   3.091   1.294   1.627 -0.0508  2.0429  0.4079
  419SOL    HW2 1257   0.130   1.352   1.684  0.8232  1.5182 -1.9591
  420SOL     OW 1258   0.632   1.678   0.569 -0.7143  0.0675  0.0789
  420SOL    HW1 1259   0.559   1.719   0.514  2.0198 -1.6206  0.2073
  420SOL    HW2 1260   0.723   1.723   0.544 -1.7295 -1.0888 -0.1182
  421SOL     OW 1261   2.282   2.309   2.411 -0.4884  0.0699 -0.5587
  421SOL    HW1 1262   2.295   2.224   2.469  0.8810  1.2923  1.5015
  421SOL    HW2 1263   2.369   2.354   2.390 -2.9545  0.9452  1.0317
  422SOL     OW 1264   3.015   0.561   2.897 -0.5663 -0.7141  0.1958
  422SOL    HW1 1265   2.946   0.604   2.837  0.6958  0.3155  1.3995
  422SOL    HW2 1266   3.014   0.465   2.867  0.9646  4.7817  1.3326
  423SOL     OW 1267   1.436   2.236   0.640  0.4943 -0.7467 -0.1594
  423SOL    HW1 1268   1.487   2.256   0.552 -0.3215  1.5573 -0.2130
  423SOL    HW2 1269   1.378   2.312   0.677  0.7403  2.0797  2.5612
  424SOL     OW 1270   0.640   2.116   1.719 -0.1511 -0.3296 -0.1237
  424SOL    HW1 1271   0.640   2.221   1.710 -2.6556 -0.1220  2.0119
  424SOL    HW2 1272   0.618   2.070   1.632  0.1016 -1.5924  0.1715
  425SOL     OW 1273   0.022   2.890   2.532 -0.2705 -0.6367 -0.0885
  425SOL    HW1 1274   3.060   2.846   2.475  2.9029 -0.3160 -1.6379
  425SOL    HW2 1275   3.107   2.920   2.626 -2.2880  1.0210 -0.2042
  426SOL     OW 1276   1.861   0.849   0.652  0.3056 -0.1575  0.3352
  426SOL    HW1 1277   1.867   0.753   0.685  0.2353  0.0141  1.1798
  426SOL    HW2 1278   1.774   0.897   0.650 -1.4744 -1.7449 -0.1913
  427SOL     OW 1279   0.368   1.204   0.037  0.6554  0.5047  0.0019
  427SOL    HW1 1280   0.329   1.117   0.078  0.6574 -2.2158  0.6672
  427SOL    HW2 1281   0.468   1.192   0.030 -1.0402 -0.1651  1.1304
  428SOL     OW 1282   1.354   1.210   0.136  0.3370 -0.3024  0.0004
  428SOL    HW1 1283   1.329   1.119   0.088 -1.3356 -0.3115  0.1439
  428SOL    HW2 1284   1.358   1.291   0.067 -0.0562  1.7186 -1.2425
  429SOL     OW 1285   2.880   2.540   0.702 -0.1061  0.2468 -0.8060
  429SOL    HW1 1286   2.818   2.616   0.722  0.0288  1.4427  0.0054
  429SOL    HW2 1287   2.947   2.566   0.634 -0.6966  1.0502  4.0427
  430SOL     OW 1288   0.743   2.463   2.570 -0.3844  0.4961 -0.4303
  430SOL    HW1 1289   0.690   2.420   2.649  0.7858  1.9079  0.0725
  430SOL    HW2 1290   0.742   2.409   2.485  0.7134 -3.3082 -3.2155
  431SOL     OW 1291   2.922   1.131   0.664 -1.0818  0.0280  0.3504
  431SOL    HW1 1292   2.852   1.063   0.634  2.0365 -0.2115  1.0820
  431SOL    HW2 1293   2.999   1.076   0.702  1.5538  0.2228 -0.8079
  432SOL     OW 1294   2.209   2.635   1.983 -0.8409 -0.1125 -0.1560
  432SOL    HW1 1295   2.255   2.629   1.894 -1.3581 -0.0576  3.6717
  432SOL    HW2 1296   2.201   2.544   2.014 -0.2150  4.7173 -0.6790
  433SOL     OW 1297   1.381   2.576   0.813  0.3394 -0.1575  0.3174
  433SOL    HW1 1298   1.415   2.502   0.872 -1.0643 -0.1215 -4.1793
  433SOL    HW2 1299   1.452   2.626   0.758 -1.2692  1.3185 -0.1646
  434SOL     OW 1300   0.870   2.089   2.066  0.2949  0.6688 -0.6004
  434SOL    HW1 1301   0.925   2.099   2.149 -0.4144  0.8709  0.4415
  434SOL    HW2 1302   0.775   2.068   2.090  0.1966 -0.3927  1.0456
  435SOL     OW 1303   2.991   0.919   0.005 -0.3717  0.2278  1.0547
  435SOL    HW1 1304   2.988   1.016   0.012 -0.0923 -4.4792 -0.7608
  435SOL    HW2 1305   3.060   0.874   0.066 -0.6211  0.0436 -1.5076
  436SOL     OW 1306   0.255   2.668   2.135  0.1456 -0.0887 -0.2298
  436SOL    HW1 1307   0.306   2.756   2.128  0.3872 -0.4903  3.5705
  436SOL    HW2 1308   0.285   2.619   2.213 -1.8453  0.9957 -1.5527
  437SOL     OW 1309   1.875   2.758   1.593  0.3397 -0.4049  0.1315
  437SOL    HW1 1310   1.937   2.787   1.516  0.4412  1.0205 -0.2197
  437SOL    HW2 1311   1.922   2.785   1.679  3.3706  2.3785 -2.1156
  438SOL     OW 1312   0.182   1.756   0.553 -0.3398  0.5979  0.2660
  438SOL    HW1 1313   0.081   1.738   0.575 -0.8059  0.5490 -0.2923
  438SOL    HW2 1314   0.250   1.719   0.620 -1.4299 -2.3100 -0.9955
  439SOL     OW 1315   0.330   0.206   0.925  0.2852  0.1707  0.6817
  439SOL    HW1 1316   0.402   0.270   0.900 -0.7557  0.2238  2.6869
  439SOL    HW2 1317   0.300   0.166   0.839  0.6460 -1.3464  1.2613
  440SOL     OW 1318   0.294   2.821   2.542  0.4794 -0.1322  0.1291
  440SOL    HW1 1319   0.306   2.721   2.540 -2.3165  0.7225  0.5913
  440SOL    HW2 1320   0.195   2.849   2.529 -4.1659 -2.6334  1.2263
  441SOL     OW 1321   0.138   0.825   0.423  0.3200  0.0983 -0.6503
  441SOL    HW1 1322   0.209   0.892   0.460 -0.9621 -0.2652  0.1904
  441SOL    HW2 1323   0.111   0.761   0.500  2.9500  0.5869  0.1803
  442SOL     OW 1324   1.360   2.206   2.516 -0.6691 -0.0734  0.1761
  442SOL    HW1 1325   1.294   2.276   2.486  0.1666  0.5901 -1.9004
  442SOL    HW2 1326   1.451   2.255   2.531  3.0285  1.3360  1.2262
  443SOL     OW 1327   0.655   0.025   0.391 -0.0662  0.4246  0.2924
  443SOL    HW1 1328   0.724   3.065   0.367  0.8854 -1.9111  3.3785
  443SOL    HW2 1329   0.594   0.057   0.312 -0.3787  4.1221 -1.2730
  444SOL     OW 1330   1.557   1.667   2.360 -0.1633 -0.3522 -0.4641
  444SOL    HW1 1331   1.624   1.720   2.418  4.2479 -1.7063 -2.1018
  444SOL    HW2 1332   1.518   1.589   2.410  2.4920  2.2253  0.4005
  445SOL     OW 1333   0.220   0.528   0.552 -0.1217  0.4536 -0.5527
  445SOL    HW1 1334   0.156   0.451   0.528  0.4921 -1.0218  0.5201
  445SOL    HW2 1335   0.266   0.562   0.467  1.3290  1.2851 -2.5555
  446SOL     OW 1336   1.904   0.940   0.931 -0.3401  0.2093 -0.8235
  446SOL    HW1 1337   1.910   0.892   0.839 -1.3765  1.1504 -0.2319
  446SOL    HW2 1338   1.815   0.927   0.972  1.8589  1.3278 -5.3382
  447SOL     OW 1339   0.078   0.783   0.162  0.0284 -0.4036  0.1492
  447SOL    HW1 1340   0.041   0.688   0.143  1.8048 -1.7024 -1.6188
  447SOL    HW2 1341   0.084   0.802   0.261  0.4159 -0.7571  1.2970
  448SOL     OW 1342   1.882   1.975   1.366  0.6967  0.8451  0.2168
  448SOL    HW1 1343   1.861   1.948   1.272  0.9770  1.0574  0.8678
  448SOL    HW2 1344   1.961   2.039   1.365  1.7509  1.3716  0.3851
  449SOL     OW 1345   0.973   1.436   0.329 -0.2279  0.0482  0.4695
  449SOL    HW1 1346   1.028   1.360   0.296 -4.4887  3.5201  2.2453
  449SOL    HW2 1347   1.039   1.511   0.341 -0.5813 -1.7407 -0.8061
  450SOL     OW 1348   2.652   2.762   2.322  0.0971 -0.3708  0.1656
  450SOL    HW1 1349   2.567   2.747   2.374  0.0366  1.5516 -1.0036
  450SOL    HW2 1350   2.651   2.845   2.263 -0.0634  1.7280  0.8808
  451SOL     OW 1351   2.251   0.810   2.652 -0.2375  0.1593 -0.0538
  451SOL    HW1 1352   2.239   0.911   2.661  0.5751 -0.1028 -0.9557
  451SOL    HW2 1353   2.221   0.770   2.561 -0.6410  0.2189 -0.9041
  452SOL     OW 1354   1.574   1.076   0.964  0.2488 -0.4567  0.1797
  452SOL    HW1 1355   1.473   1.072   0.964 -0.2545 -1.7267  2.1550
  452SOL    HW2 1356   1.614   1.016   1.037 -0.4852  1.4675  1.8266
  453SOL     OW 1357   1.742   0.690   1.571 -0.3054 -0.0915  0.1182
  453SOL    HW1 1358   1.655   0.671   1.624  0.3092 -1.0512 -1.3375
  453SOL    HW2 1359   1.787   0.778   1.585  2.2996  1.1009  1.3055
  454SOL     OW 1360   2.597   1.105   2.629 -0.1387 -0.0656  0.3982
  454SOL    HW1 1361   2.654   1.022   2.650  0.5504 -0.0437 -0.2510
  454SOL    HW2 1362   2.542   1.126   2.710  1.3743  1.2594  1.1939
  455SOL     OW 1363   2.773   1.662   1.461 -0.0973  0.1232  0.3211
  455SOL    HW1 1364   2.856   1.610   1.486  2.9477 -1.1720  0.5600
  455SOL    HW2 1365   2.755   1.725   1.534 -0.9995  1.2384 -1.2343
  456SOL     OW 1366   1.328   3.067   1.614 -0.1046  0.3964  0.1060
  456SOL    HW1 1367   1.300   0.021   1.536 -1.2846  2.8217 -4.4942
  456SOL    HW2 1368   1.389   3.108   1.685 -2.0525  1.4853  1.4422
  457SOL     OW 1369   1.615   2.816   0.966  0.0352 -0.4743  0.0446
  457SOL    HW1 1370   1.692   2.770   1.009 -0.0106 -2.1006 -2.5950
  457SOL    HW2 1371   1.604   2.915   0.994  0.7615  1.1929  2.7702
  458SOL     OW 1372   2.930   2.831   0.963 -0.3968 -0.4829 -0.1017
  458SOL    HW1 1373   2.868   2.773   0.909 -1.1578  0.5217 -0.3834
  458SOL    HW2 1374   2.931   2.924   0.918 -2.2012 -0.0199 -1.3784
  459SOL     OW 1375   1.606   0.903   0.108 -0.0354  0.2130 -0.0717
  459SOL    HW1 1376   1.562   0.828   0.053  0.9559  0.5496 -0.3925
  459SOL    HW2 1377   1.700   0.873   0.128 -4.7553 -3.5819  0.1117
  460SOL     OW 1378   0.425   2.549   2.616  0.0530 -0.1111  0.4450
  460SOL    HW1 1379   0.413   2.506   2.526 -1.2247 -1.3777  0.4938
  460SOL    HW2 1380   0.522   2.545   2.644 -3.5621  0.2616 -2.6164
  461SOL     OW 1381   0.367   1.440   0.225 -0.0060  0.4102 -0.2890
  461SOL    HW1 1382   0.418   1.427   0.314 -0.4198 -0.3134 -0.7390
  461SOL    HW2 1383   0.405   1.377   0.155  3.5367 -0.4820  0.7096
  462SOL     OW 1384   1.760   2.155   0.486  0.0406  0.3551 -0.1290
  462SOL    HW1 1385   1.795   2.109   0.571  2.3876 -1.6010 -0.3234
  462SOL    HW2 1386   1.789   2.092   0.412  0.5872  0.3489  1.9525
  463SOL     OW 1387   2.330   0.328   0.471 -0.0346 -0.7709 -0.0287
  463SOL    HW1 1388   2.354   0.421   0.440  0.0225  0.1370 -1.3173
  463SOL    HW2 1389   2.363   0.257   0.410 -1.9727 -2.5057 -0.2179
  464SOL     OW 1390   0.850   2.182   0.471  0.0710 -0.4494  0.0677
  464SOL    HW1 1391   0.926   2.230   0.419 -0.4295  3.3903 -4.2367
  464SOL    HW2 1392   0.814   2.104   0.413  1.2133 -0.4089  0.4933
  465SOL     OW 1393   2.313   0.259   1.200  0.1163 -0.1797 -0.2092
  465SOL    HW1 1394   2.323   0.355   1.166 -0.0829  2.1195  1.6533
  465SOL    HW2 1395   2.400   0.226   1.235 -1.7977 -0.0778  5.2075
  466SOL     OW 1396   2.125   0.052   0.645 -0.2369  0.1498 -0.2233
  466SOL    HW1 1397   2.107   0.147   0.633  4.1994 -0.1555 -1.1819
  466SOL    HW2 1398   2.217   0.033   0.602 -1.1919 -0.6207  0.5863
  467SOL     OW 1399   1.058   0.742   2.190 -0.5713 -0.1916  0.4825
  467SOL    HW1 1400   1.073   0.840   2.210 -0.3466 -2.9208 -0.8913
  467SOL    HW2 1401   1.118   0.713   2.112 -1.2338 -0.9195 -0.4263
  468SOL     OW 1402   2.624   0.424   2.185  0.0775 -0.2266  0.0887
  468SOL    HW1 1403   2.541   0.453   2.128 -1.2673 -0.5299 -0.3278
  468SOL    HW2 1404   2.697   0.493   2.191  1.3512  0.7260 -2.0078
  469SOL     OW 1405   1.042   2.537   1.807  0.4960  0.0321  0.0563
  469SOL    HW1 1406   1.051   2.498   1.716  0.8739 -0.7122  1.5389
  469SOL    HW2 1407   1.020   2.636   1.805  0.8805 -2.9819  0.9194
  470SOL     OW 1408   2.149   1.191   1.869  0.0817  0.2037  0.0092
  470SOL    HW1 1409   2.185   1.105   1.913  1.2388 -1.1113  0.1823
  470SOL    HW2 1410   2.100   1.255   1.938 -1.6320  0.3321  1.2724
  471SOL     OW 1411   3.073   1.420   2.962  0.5339  0.0470  0.2154
  471SOL    HW1 1412   3.066   1.387   2.863 -0.5834  1.1048 -3.2394
  471SOL    HW2 1413   0.023   1.358   3.013 -0.2082 -2.5527  1.1277
  472SOL     OW 1414   0.438   2.178   0.603  0.1389  0.8049 -0.4183
  472SOL    HW1 1415   0.407   2.095   0.550 -0.7397  0.7101 -2.5609
  472SOL    HW2 1416   0.533   2.204   0.588  1.0050 -0.4487 -0.1846
  473SOL     OW 1417   1.001   2.361   2.142  0.5568  0.2480  0.6552
  473SOL    HW1 1418   0.928   2.406   2.090 -2.0410  1.3682  2.7886
  473SOL    HW2 1419   1.055   2.300   2.079 -0.9356 -1.0236 -0.3205
  474SOL     OW 1420   0.880   3.004   2.594  0.1807  0.4019 -0.7376
  474SOL    HW1 1421   0.911   2.956   2.511  2.5348 -0.2750  0.1708
  474SOL    HW2 1422   0.940   2.978   2.672  2.1849  0.0267  3.6410
  475SOL     OW 1423   1.031   2.336   0.301  0.2429  0.4010 -0.5364
  475SOL    HW1 1424   1.132   2.356   0.291  3.4382  2.6027 -1.8729
  475SOL    HW2 1425   1.000   2.292   0.215  1.2610 -0.8314  0.7675
  476SOL     OW 1426   0.912   0.699   0.987 -0.2034  0.2676  0.0700
  476SOL    HW1 1427   0.862   0.619   0.949  0.1090  1.2332 -0.3208
  476SOL    HW2 1428   0.996   0.670   1.034 -2.3848 -1.2655 -0.8816
  477SOL     OW 1429   2.104   2.131   1.259 -0.2220 -1.0107 -0.0386
  477SOL    HW1 1430   2.184   2.107   1.196  0.6682 -3.8673 -3.4124
  477SOL    HW2 1431   2.044   2.207   1.224 -0.7352  3.9631  2.6931
  478SOL     OW 1432   0.069   0.863   2.840  0.0328  0.3646  0.7856
  478SOL    HW1 1433   0.072   0.876   2.740  2.5748  0.1212 -0.1321
  478SOL    HW2 1434   0.005   0.787   2.864 -2.5856  0.1498  1.4458
  479SOL     OW 1435   0.850   3.041   1.209  1.1388 -0.0870  0.3566
  479SOL    HW1 1436   0.868   0.021   1.158 -0.4856  0.1403  0.7577
  479SOL    HW2 1437   0.932   2.994   1.239 -2.7074  4.3171 -0.5317
  480SOL     OW 1438   2.625   2.449   0.429  0.1978 -0.7001 -0.0860
  480SOL    HW1 1439   2.601   2.418   0.336  0.5456  1.4830  1.9292
  480SOL    HW2 1440   2.686   2.381   0.473  0.0725 -1.0310 -1.6388
  481SOL     OW 1441   2.984   0.456   1.337  0.1705 -0.2589  0.0255
  481SOL    HW1 1442   2.940   0.387   1.278 -0.3062  0.0681  0.8264
  481SOL    HW2 1443   2.953   0.442   1.431  1.5979 -0.8182 -0.5221
  482SOL     OW 1444   1.075   2.978   0.954 -0.2035 -0.7719 -0.3216
  482SOL    HW1 1445   1.152   3.041   0.981 -1.3682  1.3630  1.0592
  482SOL    HW2 1446   1.066   2.906   1.023 -1.6998  3.4290 -0.6423
  483SOL     OW 1447   0.198   1.500   2.682  0.0505 -0.0746  0.5613
  483SOL    HW1 1448   0.268   1.486   2.752 -2.2090 -1.4094 -0.9748
  483SOL    HW2 1449   0.105   1.494   2.718  3.7832  0.1801 -0.6514
  484SOL     OW 1450   1.895   1.805   2.019  0.8127 -0.0901  0.1047
  484SOL    HW1 1451   1.904   1.800   1.918 -0.6553 -0.8637  1.4865
  484SOL    HW2 1452   1.813   1.755   2.055  2.3630 -0.9032  2.3844
  485SOL     OW 1453   0.400   3.033   2.662 -0.2858  0.0378  0.3668
  485SOL    HW1 1454   0.319   3.081   2.705 -2.2769  0.9519 -1.0659
  485SOL    HW2 1455   0.363   2.953   2.608 -1.5173  2.3838  1.5162
  486SOL     OW 1456   1.525   2.923   0.552 -0.0889 -0.1469 -0.0335
  486SOL    HW1 1457   1.551   2.848   0.620  0.7967 -1.3126  0.6905
  486SOL    HW2 1458   1.470   2.899   0.467  0.7786  2.0935 -2.6589
  487SOL     OW 1459   1.536   0.001   0.727 -0.1928 -0.2996 -0.8127
  487SOL    HW1 1460   1.543   3.018   0.683  1.1112 -0.7282 -0.9342
  487SOL    HW2 1461   1.628   0.044   0.732  3.6261 -2.3990 -1.4838
  488SOL     OW 1462   2.375   0.792   1.001  0.2857  0.4689  0.0390
  488SOL    HW1 1463   2.438   0.871   1.001 -2.9548 -0.6048  0.0967
  488SOL    HW2 1464   2.294   0.817   1.058 -0.6268 -0.7341  1.0111
  489SOL     OW 1465   1.107   0.065   1.293  0.1809  0.2804 -0.1599
  489SOL    HW1 1466   1.181   0.036   1.232 -1.0503 -0.2721  3.0249
  489SOL    HW2 1467   1.032   0.114   1.242  1.7486 -1.7175 -2.2746
  490SOL     OW 1468   0.754   0.554   0.120  0.1867 -0.2934 -0.1572
  490SOL    HW1 1469   0.740   0.538   0.220 -1.7012  2.1182 -1.3887
  490SOL    HW2 1470   0.674   0.602   0.081  3.0896  1.4770 -1.0783
  491SOL     OW 1471   1.146   3.006   0.520 -0.4606  0.5872 -0.1207
  491SOL    HW1 1472   1.095   2.996   0.435 -0.7412  1.7233  1.3656
  491SOL    HW2 1473   1.160   2.910   0.559  1.5001 -0.4786 -3.6102
  492SOL     OW 1474   1.183   1.555   1.565  0.5576 -0.1882 -0.4898
  492SOL    HW1 1475   1.226   1.578   1.653  1.3049 -0.1774  2.3326
  492SOL    HW2 1476   1.124   1.477   1.571  0.1004  2.8738  0.4891
  493SOL     OW 1477   0.503   1.818   0.375  0.1997  0.2010  0.9226
  493SOL    HW1 1478   0.426   1.878   0.407 -1.6347 -1.8079 -1.2922
  493SOL    HW2 1479   0.475   1.780   0.285 -1.7636  1.6147  1.4561
  494SOL     OW 1480   2.004   1.916   0.526  0.4502  0.0370 -0.3612
  494SOL    HW1 1481   2.082   1.890   0.473 -1.3758  2.7233 -1.6398
  494SOL    HW2 1482   1.916   1.911   0.474  0.8606  1.0147 -0.3252
  495SOL     OW 1483   0.201   1.297   2.506  0.4598 -0.3533  0.8833
  495SOL    HW1 1484   0.196   1.371   2.577  3.1703 -0.1192  0.9153
  495SOL    HW2 1485   0.115   1.273   2.457  0.5211  0.3369 -1.6420
  496SOL     OW 1486   0.482   0.062   2.412  0.6861 -0.1947  0.2136
  496SOL    HW1 1487   0.411   0.014   2.467 -1.2216  1.7614 -0.1643
  496SOL    HW2 1488   0.544   3.102   2.380 -2.2164 -1.1704  2.7825
  497SOL     OW 1489   1.691   1.203   0.461  0.3670  0.1342 -0.0969
  497SOL    HW1 1490   1.642   1.178   0.377 -2.3538  1.1543  1.7120
  497SOL    HW2 1491   1.686   1.307   0.478 -1.0652  3.0691  0.2429
  498SOL     OW 1492   2.800   2.601   0.238 -0.2815 -0.2872 -0.2472
  498SOL    HW1 1493   2.821   2.543   0.160 -2.3319  2.0417  0.9655
  498SOL    HW2 1494   2.726   2.559   0.294  1.1510 -0.7577 -0.3568
  499SOL     OW 1495   2.024   2.489   0.536  0.4452 -0.2612 -0.3138
  499SOL    HW1 1496   1.989   2.401   0.501 -2.0247 -2.9846  0.4462
  499SOL    HW2 1497   2.092   2.523   0.472  0.1366 -0.2636  1.2235
  500SOL     OW 1498   0.434   0.572   2.730 -0.0584 -0.1588 -0.4036
  500SOL    HW1 1499   0.482   0.630   2.800 -0.3593 -3.6272  2.9098
  500SOL    HW2 1500   0.488   0.490   2.713 -1.8563  1.5011 -0.6572
  501SOL     OW 1501   1.559   0.031   1.775  0.2700  0.3469  0.3090
  501SOL    HW1 1502   1.649   3.099   1.784  0.0455 -0.0689  2.1790
  501SOL    HW2 1503   1.554   0.125   1.807 -2.0326  0.0235  1.5719
  502SOL     OW 1504   0.167   0.115   2.333  0.2116 -0.3375  0.0382
  502SOL    HW1 1505   0.132   0.175   2.409  0.8464  0.4771  0.0729
  502SOL    HW2 1506   0.136   0.020   2.352  0.5170 -1.2968 -0.4580
  503SOL     OW 1507   1.543   2.510   2.147 -0.2671 -0.2964  0.0916
  503SOL    HW1 1508   1.629   2.478   2.101 -2.3830  1.5280  1.6579
  503SOL    HW2 1509   1.499   2.594   2.106  0.7318  2.9751  1.7678
  504SOL     OW 1510   1.842   0.431   1.629 -0.3696  0.4921  0.7003
  504SOL    HW1 1511   1.763   0.362   1.628 -2.0309  1.0814  3.0133
  504SOL    HW2 1512   1.815   0.514   1.571  0.8473  0.9661  0.5493
  505SOL     OW 1513   2.583   1.743   1.718 -0.3619  0.1045  0.1937
  505SOL    HW1 1514   2.684   1.741   1.717  0.1650 -2.5450  1.1703
  505SOL    HW2 1515   2.552   1.743   1.623 -1.8616 -3.5179  1.2320
  506SOL     OW 1516   0.003   1.323   1.972 -0.1418  0.2915 -0.3695
  506SOL    HW1 1517   3.027   1.297   2.016 -1.6364  0.2227 -4.5259
  506SOL    HW2 1518   3.108   1.325   1.871  1.4057 -0.2331 -1.2220
  507SOL     OW 1519   0.377   2.956   1.514  0.5196  0.6141 -0.2171
  507SOL    HW1 1520   0.399   3.052   1.512  1.2508  0.5913  1.1185
  507SOL    HW2 1521   0.460   2.899   1.531 -0.4869 -1.3389  0.1289
  508SOL     OW 1522   0.958   0.815   1.528  0.2635 -0.1218 -0.3704
  508SOL    HW1 1523   0.934   0.751   1.600  1.2076  0.1230 -2.3447
  508SOL    HW2 1524   0.902   0.790   1.447  0.8538 -0.7909  1.6442
  509SOL     OW 1525   1.528   2.559   1.741  0.0554  0.0899  0.5538
  509SOL    HW1 1526   1.548   2.660   1.753  1.0799 -0.7105  0.3893
  509SOL    HW2 1527   1.445   2.519   1.785  2.1749 -0.4173  2.1418
  510SOL     OW 1528   2.409   1.151   2.826  0.0309 -0.7337 -0.1684
  510SOL    HW1 1529   2.310   1.115   2.813 -2.1849  3.1898  1.1608
  510SOL    HW2 1530   2.433   1.158   2.924  1.7213 -2.0787  0.4538
  511SOL     OW 1531   0.557   1.469   1.382  0.0933 -0.0474 -0.9058
  511SOL    HW1 1532   0.629   1.495   1.316  2.2123 -0.1126 -0.0165
  511SOL    HW2 1533   0.597   1.420   1.466 -0.4459 -0.1607  0.0213
  512SOL     OW 1534   2.798   1.656   0.407 -0.0025 -0.1865 -0.0745
  512SOL    HW1 1535   2.733   1.741   0.416 -1.7497  1.6409 -1.2421
  512SOL    HW2 1536   2.865   1.667   0.332 -1.2230  2.4999  0.0976
  513SOL     OW 1537   0.720   1.801   2.408  0.1279  0.0268  0.0005
  513SOL    HW1 1538   0.795   1.820   2.476 -1.3624  1.3838  1.2304
  513SOL    HW2 1539   0.741   1.719   2.352 -1.4472  0.2756  1.2859
  514SOL     OW 1540   0.019   2.199   1.617  0.1909 -0.2265 -0.2287
  514SOL    HW1 1541   3.083   2.122   1.571 -2.0416 -0.3707 -3.0874
  514SOL    HW2 1542   0.009   2.208   1.718  2.6502 -0.6592  0.8818
  515SOL     OW 1543   1.998   1.187   1.572 -0.6089 -0.4807 -0.0108
  515SOL    HW1 1544   2.053   1.136   1.637  3.4062  0.5674 -0.0772
  515SOL    HW2 1545   1.900   1.204   1.603  2.1387 -0.1405  0.1408
  516SOL     OW 1546   2.452   2.743   0.324 -1.1706  0.2111 -0.1300
  516SOL    HW1 1547   2.433   2.829   0.277 -0.0140 -3.5555 -0.2441
  516SOL    HW2 1548   2.509   2.765   0.405 -2.0909  1.1701 -1.1540
  517SOL     OW 1549   1.137   1.562   3.108 -0.9043  0.0242 -0.3167
  517SOL    HW1 1550   1.215   1.505   3.076 -0.1797  0.6344  2.1662
  517SOL    HW2 1551   1.158   1.617   0.083  1.2257  2.3743  0.1286
  518SOL     OW 1552   1.652   2.833   1.430 -0.2864 -0.3110  0.0985
  518SOL    HW1 1553   1.664   2.934   1.436 -2.3111 -0.9188 -0.7094
  518SOL    HW2 1554   1.729   2.786   1.469  0.9730 -0.8472  0.3557
  519SOL     OW 1555   2.211   2.687   0.920 -0.6261 -0.3164  0.3905
  519SOL    HW1 1556   2.241   2.773   0.966 -1.4053 -1.9715  0.8748
  519SOL    HW2 1557   2.296   2.627   0.908  4.3682  1.0881 -1.7104
  520SOL     OW 1558   3.048   2.398   2.190  0.0656  0.0388  0.4878
  520SOL    HW1 1559   2.946   2.408   2.195 -3.2602 -1.7189  1.0036
  520SOL    HW2 1560   3.081   2.492   2.161 -0.3280 -0.0091  0.2050
  521SOL     OW 1561   2.748   0.883   2.721  0.8030 -0.1072  0.2720
  521SOL    HW1 1562   2.665   0.847   2.769  0.6533 -1.3529  1.5632
  521SOL    HW2 1563   2.804   0.805   2.690 -0.0651 -1.5706 -0.0207
  522SOL     OW 1564   0.914   0.751   2.630  0.0025  0.1674 -0.0750
  522SOL    HW1 1565   0.958   0.661   2.609  1.3482 -1.1062  1.0010
  522SOL    HW2 1566   0.831   0.770   2.578  2.2036  0.4895 -0.2411
  523SOL     OW 1567   0.047   2.200   0.858  0.6996 -0.1984 -0.5124
  523SOL    HW1 1568   0.117   2.155   0.921  0.9477  0.8014  3.1939
  523SOL    HW2 1569   0.095   2.254   0.791 -1.4237 -2.0164  3.1745
  524SOL     OW 1570   1.874   2.761   3.080 -0.6525  0.3749 -0.0335
  524SOL    HW1 1571   1.893   2.672   0.015 -2.0028 -1.1378 -0.9185
  524SOL    HW2 1572   1.943   2.828   3.100 -3.5588 -2.5951 -1.0828
  525SOL     OW 1573   2.190   0.589   1.435 -0.1108  0.3335  0.2565
  525SOL    HW1 1574   2.284   0.552   1.436 -2.3418  3.2673 -0.1560
  525SOL    HW2 1575   2.147   0.569   1.345 -1.7191  0.1900 -0.1251
  526SOL     OW 1576   1.041   2.730   0.570 -0.0773 -0.8092  0.3213
  526SOL    HW1 1577   0.976   2.705   0.649  1.0987  0.3533 -0.1745
  526SOL    HW2 1578   1.019   2.678   0.487 -0.7891 -1.6523 -1.9203
  527SOL     OW 1579   2.346   2.827   0.638  0.3630 -0.3852  0.1115
  527SOL    HW1 1580   2.248   2.800   0.640  0.3073 -0.1704  3.2876
  527SOL    HW2 1581   2.367   2.924   0.618 -0.3458 -0.0426  0.0474
  528SOL     OW 1582   2.060   0.700   2.991  0.0248 -0.7589  0.3380
  528SOL    HW1 1583   2.014   0.688   3.081 -1.6153 -0.8392  2.0460
  528SOL    HW2 1584   2.159   0.678   2.988 -0.3933  0.9353 -1.3299
  529SOL     OW 1585   1.499   1.297   2.146  0.7706  0.2604 -0.5749
  529SOL    HW1 1586   1.562   1.372   2.152 -1.6950 -2.1581  0.7678
  529SOL    HW2 1587   1.452   1.268   2.232 -2.3455 -1.0878 -1.4483
  530SOL     OW 1588   2.385   2.933   0.145 -0.6462 -0.0429 -0.2334
  530SOL    HW1 1589   2.310   2.997   0.162 -0.7246 -1.5248  1.0091
  530SOL    HW2 1590   2.396   2.898   0.048  0.2742  0.6816 -0.1365
  531SOL     OW 1591   1.817   1.047   2.984 -0.1271 -0.1635 -0.9076
  531SOL    HW1 1592   1.902   1.009   3.011  0.0910  1.2395 -1.1684
  531SOL    HW2 1593   1.749   1.002   3.049  2.4647 -2.9325  1.0263
  532SOL     OW 1594   1.673   0.380   0.730  0.3436  0.4915 -0.2444
  532SOL    HW1 1595   1.594   0.353   0.785  0.3593  1.1419  0.1400
  532SOL    HW2 1596   1.729   0.451   0.769 -0.3711 -3.9314  1.6164
  533SOL     OW 1597   0.677   1.011   2.783  0.3462  0.1877  0.1660
  533SOL    HW1 1598   0.704   1.043   2.688  0.7532 -0.6504  0.4742
  533SOL    HW2 1599   0.597   1.064   2.817 -1.0254  0.1232 -0.6897
  534SOL     OW 1600   1.592   0.379   0.053  0.2149  0.8907  0.0476
  534SOL    HW1 1601   1.576   0.318   0.140  2.4048 -1.2631 -1.4413
  534SOL    HW2 1602   1.614   0.319   3.082 -1.1566 -1.6562  0.7620
  535SOL     OW 1603   0.717   2.430   0.054  0.0681 -0.0339 -0.5717
  535SOL    HW1 1604   0.651   2.507   0.066  2.3095  2.8550 -3.1631
  535SOL    HW2 1605   0.678   2.337   0.079 -1.2950 -1.4478 -0.5763
  536SOL     OW 1606   0.521   2.880   0.487  0.0215 -0.2084 -0.3426
  536SOL    HW1 1607   0.568   2.970   0.504 -1.6222  1.6794  1.3282
  536SOL    HW2 1608   0.545   2.815   0.566  0.2857 -2.1659  2.3296
  537SOL     OW 1609   1.923   0.445   0.347  0.3177 -0.3535  0.6146
  537SOL    HW1 1610   1.910   0.459   0.248 -0.8197 -2.3148 -0.6227
  537SOL    HW2 1611   1.832   0.455   0.394 -2.3479  1.8747  2.5127
  538SOL     OW 1612   2.550   2.227   2.869 -0.5677  0.0680  0.3208
  538SOL    HW1 1613   2.468   2.282   2.860  0.8970 -2.1674 -2.0114
  538SOL    HW2 1614   2.528   2.133   2.838 -3.0163 -0.8931 -1.0657
  539SOL     OW 1615   2.764   1.651   3.096 -0.4506  0.3100 -0.4953
  539SOL    HW1 1616   2.664   1.634   3.097 -0.9800 -1.8648 -0.4152
  539SOL    HW2 1617   2.825   1.584   0.026  2.0153  3.2430 -1.1385
  540SOL     OW 1618   0.937   2.799   1.800  0.3317  0.7111 -0.2782
  540SOL    HW1 1619   0.903   2.879   1.863 -3.3684 -1.3645  1.5530
  540SOL    HW2 1620   1.022   2.822   1.745  1.3635 -3.2773  0.7667
  541SOL     OW 1621   2.475   0.042   2.314  0.0597  0.7943 -0.1050
  541SOL    HW1 1622   2.420   0.101   2.251 -1.6877  1.8865  0.3435
  541SOL    HW2 1623   2.532   3.088   2.255  0.1763 -2.5696 -3.9925
  542SOL     OW 1624   0.293   0.929   2.959 -0.2353  0.3234  0.2934
  542SOL    HW1 1625   0.214   0.901   2.902  1.5409 -0.6385 -0.2855
  542SOL    HW2 1626   0.275   0.934   3.061  0.5032  1.2979 -2.0662
  543SOL     OW 1627   0.424   0.774   0.754  0.1336  0.2131 -1.0448
  543SOL    HW1 1628   0.395   0.829   0.831 -1.2468 -1.3249  0.7101
  543SOL    HW2 1629   0.386   0.681   0.763  0.3508  1.0852 -1.2897
  544SOL     OW 1630   2.458   0.535   1.413  0.0980  0.1027  0.0903
  544SOL    HW1 1631   2.515   0.450   1.405 -0.2354 -0.9693  1.8803
  544SOL    HW2 1632   2.515   0.609   1.447 -1.9143 -1.0751 -0.7397
  545SOL     OW 1633   1.502   1.800   0.525  0.3913  0.6556  0.2991
  545SOL    HW1 1634   1.536   1.880   0.574  2.2732 -0.2754 -5.0369
  545SOL    HW2 1635   1.538   1.808   0.432 -1.3824  0.3269  0.2374
  546SOL     OW 1636   2.202   2.649   1.526 -0.1310  0.0041 -0.4451
  546SOL    HW1 1637   2.123   2.640   1.463 -0.0255  0.5398 -0.4690
  546SOL    HW2 1638   2.286   2.672   1.481 -0.7506 -1.0774  0.9150
  547SOL     OW 1639   0.777   2.321   2.288 -0.4253 -0.1413  0.2394
  547SOL    HW1 1640   0.739   2.228   2.281 -0.2950 -1.9372 -0.2570
  547SOL    HW2 1641   0.861   2.331   2.227  0.1577  0.4006 -2.3703
  548SOL     OW 1642   1.285   0.608   2.705  0.1367  0.4420 -0.3414
  548SOL    HW1 1643   1.266   0.559   2.792  0.7304  1.1800 -1.2788
  548SOL    HW2 1644   1.383   0.600   2.679 -0.3481  1.6246  0.2346
  549SOL     OW 1645   2.578   0.587   0.158 -0.0064 -0.0169  0.3154
  549SOL    HW1 1646   2.506   0.597   0.230  2.6348 -0.2212  0.8682
  549SOL    HW2 1647   2.654   0.644   0.179  1.6103 -0.1900 -1.9147
  550SOL     OW 1648   2.284   1.177   0.260  0.1916 -0.0106  0.1185
  550SOL    HW1 1649   2.304   1.151   0.356 -1.3338 -0.9876 -1.3039
  550SOL    HW2 1650   2.204   1.241   0.245 -3.2535  0.5342 -0.5123
  551SOL     OW 1651   1.524   0.381   1.010 -0.3724 -0.0346  0.2612
  551SOL    HW1 1652   1.502   0.479   1.002  1.7107 -0.7039 -1.4992
  551SOL    HW2 1653   1.590   0.368   1.085 -2.5007 -1.3833 -2.1960
  552SOL     OW 1654   2.215   2.881   2.386 -0.6428 -0.2202  0.1532
  552SOL    HW1 1655   2.130   2.856   2.435  1.7798  0.8286 -1.7922
  552SOL    HW2 1656   2.249   2.967   2.433  0.3803  0.9426  0.3496
  553SOL     OW 1657   0.563   2.949   2.300  0.0081  0.3971  0.7937
  553SOL    HW1 1658   0.603   2.852   2.310 -1.0763 -1.1064  1.7374
  553SOL    HW2 1659   0.469   2.937   2.261  0.5461 -1.3322 -0.9945
  554SOL     OW 1660   0.302   0.120   1.525 -0.4574  0.6336  0.4942
  554SOL    HW1 1661   0.217   0.168   1.518 -1.4172  1.0700  0.3403
  554SOL    HW2 1662   0.355   0.156   1.603  1.2914  0.0503 -1.7710
  555SOL     OW 1663   2.584   1.758   2.144  0.1132  0.2779 -0.1164
  555SOL    HW1 1664   2.509   1.822   2.108 -2.7673  0.9416 -0.7739
  555SOL    HW2 1665   2.678   1.783   2.119 -0.9774  1.0820 -2.5825
  556SOL     OW 1666   1.127   0.368   3.030  0.2062  0.0811 -0.1782
  556SOL    HW1 1667   1.142   0.270   3.023  1.0042  4.2713 -0.3949
  556SOL    HW2 1668   1.028   0.400   3.041 -2.2486  0.0798  0.2097
  557SOL     OW 1669   0.361   2.140   2.354  0.2233  0.3368 -0.2267
  557SOL    HW1 1670   0.392   2.069   2.420  0.8156  0.2132 -2.3269
  557SOL    HW2 1671   0.340   2.106   2.260 -0.0427  2.8300  0.4400
  558SOL     OW 1672   1.949   0.483   2.656  0.6002  0.2761  0.4864
  558SOL    HW1 1673   1.930   0.477   2.557  3.2437  0.9141  2.2024
  558SOL    HW2 1674   1.906   0.403   2.706 -1.9225  0.3486  1.7294
  559SOL     OW 1675   2.232   1.911   1.608 -0.2924 -0.0114  1.0058
  559SOL    HW1 1676   2.229   1.816   1.647  0.3157 -1.3977 -0.3975
  559SOL    HW2 1677   2.159   1.969   1.649 -0.3042 -0.5621  0.6233
  560SOL     OW 1678   2.076   0.727   2.012  0.0222 -0.1746 -0.1530
  560SOL    HW1 1679   2.126   0.816   1.994  0.5885  1.0986 -1.7671
  560SOL    HW2 1680   2.048   0.690   1.926  0.6734  3.7049  2.8245
  561SOL     OW 1681   0.195   0.041   2.811 -0.0496 -0.4192 -0.4960
  561SOL    HW1 1682   0.128   3.077   2.818  0.5223  2.2547 -0.1568
  561SOL    HW2 1683   0.248   0.049   2.901  1.1193  0.0538  0.5179
  562SOL     OW 1684   0.782   1.745   1.507 -0.9961 -0.2091 -0.6288
  562SOL    HW1 1685   0.849   1.774   1.436  2.7317  0.8541 -0.1079
  562SOL    HW2 1686   0.781   1.647   1.539 -0.5359 -0.6356  1.7558
  563SOL     OW 1687   1.062   0.113   2.898 -0.0132 -0.3676 -0.4254
  563SOL    HW1 1688   0.977   0.153   2.942 -0.6270 -0.3416  1.7049
  563SOL    HW2 1689   1.042   0.023   2.864  0.2796  1.2508  0.9671
  564SOL     OW 1690   2.972   2.391   0.929  0.1788 -0.5510  0.3659
  564SOL    HW1 1691   3.051   2.330   0.911  2.8392  1.2200  1.8275
  564SOL    HW2 1692   2.942   2.454   0.856 -1.9554  0.6244 -0.2768
  565SOL     OW 1693   0.702   1.998   1.304 -0.1372 -0.3991 -0.4726
  565SOL    HW1 1694   0.653   1.983   1.392 -2.2505  0.2623  0.2864
  565SOL    HW2 1695   0.679   2.092   1.266  0.0464  0.5976 -2.3776
  566SOL     OW 1696   1.239   0.086   2.541 -0.3633  0.6188 -0.0228
  566SOL    HW1 1697   1.241   3.092   2.540 -1.6949 -1.4174  0.2042
  566SOL    HW2 1698   1.148   0.118   2.560  1.0496 -1.3758  0.9705
  567SOL     OW 1699   2.500   2.884   0.859  0.1419  0.7581 -0.3162
  567SOL    HW1 1700   2.442   2.889   0.945 -1.0587 -2.7046 -0.4195
  567SOL    HW2 1701   2.445   2.856   0.781  1.3425 -0.6346  2.6808
  568SOL     OW 1702   1.425   1.443   0.848 -0.3597 -0.4050  0.0951
  568SOL    HW1 1703   1.328   1.426   0.861  0.2673 -2.1664  0.4892
  568SOL    HW2 1704   1.449   1.474   0.756 -0.9904 -1.0091  0.2759
  569SOL     OW 1705   2.768   1.339   2.598 -0.3969  0.4529 -0.0758
  569SOL    HW1 1706   2.720   1.405   2.661  1.3640 -3.4895  2.8639
  569SOL    HW2 1707   2.697   1.268   2.587  0.7561 -0.9309 -0.3304
  570SOL     OW 1708   2.905   0.203   1.888  0.2581  0.3689 -0.2365
  570SOL    HW1 1709   2.973   0.194   1.964  0.4556 -0.8574 -2.9937
  570SOL    HW2 1710   2.936   0.143   1.810 -0.4815  0.5047 -2.4162
  571SOL     OW 1711   0.237   0.121   1.892 -0.1239  0.2817  0.4484
  571SOL    HW1 1712   0.303   0.185   1.843 -0.9338  1.7802  0.3672
  571SOL    HW2 1713   0.203   0.037   1.837  1.8053 -3.0122 -3.4150
  572SOL     OW 1714   2.964   2.263   1.277 -0.1024  0.0759  0.5932
  572SOL    HW1 1715   2.904   2.241   1.200  0.2411 -0.5004 -0.8729
  572SOL    HW2 1716   3.004   2.359   1.264  1.6218  0.6316  1.1785
  573SOL     OW 1717   1.198   0.632   3.008  0.4544  0.1134  0.5207
  573SOL    HW1 1718   1.115   0.680   2.975 -0.5403  0.4795  0.9025
  573SOL    HW2 1719   1.181   0.536   3.030  2.8637  2.4885  1.0631
  574SOL     OW 1720   2.343   2.608   2.722 -0.4779 -0.6209 -0.3898
  574SOL    HW1 1721   2.444   2.606   2.732  0.0342  0.2003 -0.0497
  574SOL    HW2 1722   2.305   2.690   2.774 -0.5269  2.0255 -3.4086
  575SOL     OW 1723   1.359   2.843   1.141 -0.3699 -0.2417 -0.4681
  575SOL    HW1 1724   1.396   2.809   1.228 -1.4966 -0.8448 -1.3858
  575SOL    HW2 1725   1.406   2.801   1.060 -1.9747  0.4518 -2.4053
  576SOL     OW 1726   1.146   0.247   0.972  0.2075 -0.4571  0.3293
  576SOL    HW1 1727   1.233   0.198   0.949 -2.2595  2.2116  1.8072
  576SOL    HW2 1728   1.143   0.340   0.929 -0.8198  3.8406  3.4331
  577SOL     OW 1729   2.461   1.104   0.655  0.3785  0.6355  0.1455
  577SOL    HW1 1730   2.468   1.203   0.642  0.2807 -0.9880  2.6401
  577SOL    HW2 1731   2.388   1.052   0.602 -0.5567 -1.2458 -2.7907
  578SOL     OW 1732   1.872   0.618   0.806 -0.1376  0.3172  0.4588
  578SOL    HW1 1733   1.950   0.546   0.795  1.7397 -4.3193 -1.0991
  578SOL    HW2 1734   1.867   0.668   0.894 -0.1891 -1.6738 -1.4428
  579SOL     OW 1735   1.874   0.715   2.781  0.1024  0.2280  0.4691
  579SOL    HW1 1736   1.869   0.648   2.709  0.3507  1.1166  0.7302
  579SOL    HW2 1737   1.948   0.690   2.852  0.9616 -2.1916  2.6972
  580SOL     OW 1738   1.394   0.795   2.221  0.0436 -0.1562 -0.1640
  580SOL    HW1 1739   1.428   0.807   2.316 -0.8790 -0.3522  2.8072
  580SOL    HW2 1740   1.315   0.863   2.207 -4.6305 -0.4063 -1.6111
  581SOL     OW 1741   0.383   0.498   0.768 -0.5044  0.1634  0.1913
  581SOL    HW1 1742   0.456   0.441   0.724 -1.4079 -0.6724 -3.7668
  581SOL    HW2 1743   0.301   0.497   0.702 -2.7165  0.8725  0.5284
  582SOL     OW 1744   2.678   0.215   2.035 -0.4577 -0.3301 -0.1113
  582SOL    HW1 1745   2.765   0.220   1.979  0.4739  2.2326 -1.2232
  582SOL    HW2 1746   2.671   0.295   2.098 -0.5582  0.6277 -1.9092
  583SOL     OW 1747   0.274   0.639   2.471 -0.3102 -0.1802  0.6281
  583SOL    HW1 1748   0.308   0.605   2.562  0.3560  0.0650 -0.8888
  583SOL    HW2 1749   0.292   0.577   2.394 -0.8988  3.1780 -0.3881
  584SOL     OW 1750   1.969   2.065   3.085 -0.0078  0.3593 -0.0220
  584SOL    HW1 1751   2.011   1.991   0.031  3.8211 -0.9372  0.2316
  584SOL    HW2 1752   2.034   2.103   3.019 -2.1532 -1.2994  0.0526
  585SOL     OW 1753   0.219   2.302   3.038 -0.1936 -0.5280 -0.2266
  585SOL    HW1 1754   0.132   2.263   3.033  3.9480  1.8704 -0.4935
  585SOL    HW2 1755   0.251   2.295   0.023  0.5723  2.4214 -1.4199
  586SOL     OW 1756   2.082   1.641   2.442  0.4229 -0.2438 -0.5471
  586SOL    HW1 1757   2.081   1.672   2.347 -0.8393  0.8843  1.4269
  586SOL    HW2 1758   2.137   1.556   2.463 -0.3977 -0.1272  0.7233
  587SOL     OW 1759   2.519   1.958   2.794 -0.0015  0.5342  0.4560
  587SOL    HW1 1760   2.489   1.890   2.865 -0.1780 -0.0450 -0.8629
  587SOL    HW2 1761   2.567   1.914   2.709  2.3235 -1.4778 -1.1918
  588SOL     OW 1762   0.135   0.309   1.116  0.7126  0.0119  0.1941
  588SOL    HW1 1763   0.071   0.341   1.046  0.8899 -1.3713  0.2963
  588SOL    HW2 1764   0.227   0.282   1.073  0.9754  0.4162  2.0755
  589SOL     OW 1765   1.018   0.352   0.495 -0.2627  0.0022 -0.1415
  589SOL    HW1 1766   0.995   0.417   0.419 -2.4801  1.2575 -0.7962
  589SOL    HW2 1767   0.940   0.291   0.516 -1.9526 -0.0994 -0.7215
  590SOL     OW 1768   2.451   2.013   0.505 -0.5053 -0.5042  0.5263
  590SOL    HW1 1769   2.369   2.020   0.566 -1.0737 -0.4942  2.8563
  590SOL    HW2 1770   2.437   2.058   0.415 -0.9762  0.5799  1.9924
  591SOL     OW 1771   0.525   2.567   1.238 -0.0269 -0.0241 -0.1213
  591SOL    HW1 1772   0.468   2.480   1.244  1.5676  1.4732  1.1415
  591SOL    HW2 1773   0.475   2.638   1.183  1.4360  0.2168 -1.1330
  592SOL     OW 1774   1.304   1.009   1.050 -0.0928  0.3029  0.0579
  592SOL    HW1 1775   1.296   1.088   1.111 -1.6112 -1.2486 -1.1456
  592SOL    HW2 1776   1.317   0.924   1.106  0.9622 -0.2620  1.5129
  593SOL     OW 1777   0.846   2.240   1.428  0.0603  0.5587  0.2824
  593SOL    HW1 1778   0.881   2.199   1.344  1.4894  0.6906 -0.2986
  593SOL    HW2 1779   0.744   2.239   1.435  0.2202  0.8976 -0.0388
  594SOL     OW 1780   1.235   1.609   0.266 -0.0416 -0.5025 -0.4128
  594SOL    HW1 1781   1.252   1.582   0.363  0.5849  0.5754  0.5023
  594SOL    HW2 1782   1.326   1.632   0.221  0.3511 -0.6424  1.0065
  595SOL     OW 1783   1.582   0.969   1.451 -0.4436  0.4999 -0.7304
  595SOL    HW1 1784   1.556   1.058   1.413 -0.2474  0.0228  0.4305
  595SOL    HW2 1785   1.568   0.962   1.550  1.6938 -0.9371 -0.6330
  596SOL     OW 1786   3.072   0.662   1.656 -0.2767 -0.4257  0.3954
  596SOL    HW1 1787   2.999   0.618   1.712  1.1454  0.2281 -2.5566
  596SOL    HW2 1788   3.017   0.711   1.578  0.4103  1.2876  0.1555
  597SOL     OW 1789   1.140   2.852   2.100 -0.2580  0.0562  0.0885
  597SOL    HW1 1790   1.053   2.883   2.055  1.4406  2.2731  1.5264
  597SOL    HW2 1791   1.121   2.797   2.184  0.0554  0.4282 -1.2500
  598SOL     OW 1792   2.370   1.341   1.616  0.1768 -0.7826  0.0809
  598SOL    HW1 1793   2.327   1.385   1.534  0.4524  1.0535 -2.5015
  598SOL    HW2 1794   2.368   1.403   1.697 -1.3353 -0.2134  1.2000
  599SOL     OW 1795   0.848   2.767   0.091 -0.9139  0.0463  0.2031
  599SOL    HW1 1796   0.750   2.758   0.107  1.7403  3.0092 -0.8891
  599SOL    HW2 1797   0.879   2.698   0.021  0.5098 -1.9429  1.6409
  600SOL     OW 1798   3.060   2.292   0.127  0.3607  0.2407  0.2078
  600SOL    HW1 1799   2.976   2.282   0.184  0.6929 -0.7237  0.2735
  600SOL    HW2 1800   3.080   2.206   0.075 -1.9758  2.7391  0.0544
  601SOL     OW 1801   0.567   0.797   1.554 -0.1694  0.0168 -0.3177
  601SOL    HW1 1802   0.478   0.819   1.598 -0.0930 -1.1818 -1.4769
  601SOL    HW2 1803   0.621   0.745   1.630  0.8294 -1.8747  1.3225
  602SOL     OW 1804   0.634   0.190   0.965 -0.2218 -0.2324  0.0673
  602SOL    HW1 1805   0.571   0.180   1.043  0.5779 -4.6799  1.8867
  602SOL    HW2 1806   0.643   0.113   0.896 -1.5605  1.0011 -0.0998
  603SOL     OW 1807   0.171   0.241   2.608 -0.0621 -0.5620 -0.6237
  603SOL    HW1 1808   0.193   0.174   2.681  0.7325 -0.3860 -2.1200
  603SOL    HW2 1809   0.256   0.281   2.573  2.0814  0.8215 -0.8527
  604SOL     OW 1810   1.204   2.546   1.574 -0.0122  0.0437 -0.3254
  604SOL    HW1 1811   1.285   2.492   1.539 -1.0570  0.1143 -1.3033
  604SOL    HW2 1812   1.115   2.518   1.531 -0.8139  1.1263 -0.7272
  605SOL     OW 1813   1.504   1.213   1.886 -0.0364 -0.4763  0.2340
  605SOL    HW1 1814   1.467   1.287   1.826  0.8172  0.5030 -0.3430
  605SOL    HW2 1815   1.491   1.231   1.987  0.4830 -0.1144  0.6413
  606SOL     OW 1816   2.003   2.762   2.791 -0.5336 -0.3252 -0.4203
  606SOL    HW1 1817   2.012   2.665   2.818  0.1823 -0.2969  0.0959
  606SOL    HW2 1818   1.957   2.820   2.862 -0.0242 -1.4281 -1.0482
  607SOL     OW 1819   0.841   0.329   1.800 -0.3761 -0.6879 -0.2508
  607SOL    HW1 1820   0.941   0.326   1.782  0.3987 -1.4212 -3.8108
  607SOL    HW2 1821   0.786   0.315   1.713  1.8272 -0.2233  1.5404
  608SOL     OW 1822   0.515   2.364   2.385  0.0398 -0.0345  0.2713
  608SOL    HW1 1823   0.481   2.266   2.379  0.8761 -0.0172 -1.6327
  608SOL    HW2 1824   0.593   2.377   2.318 -0.4878  0.4799 -0.1239
  609SOL     OW 1825   1.115   1.209   0.308  0.0226 -0.0010  0.4538
  609SOL    HW1 1826   1.069   1.126   0.277 -0.0719 -1.5305  0.7427
  609SOL    HW2 1827   1.194   1.236   0.250  0.3737  1.1821 -2.4625
  610SOL     OW 1828   0.379   3.064   1.152  0.0047  0.0151  0.1604
  610SOL    HW1 1829   0.477   3.028   1.142  1.4246 -0.4740 -1.2188
  610SOL    HW2 1830   0.375   0.049   1.189 -0.3620 -0.2370 -3.2371
  611SOL     OW 1831   1.222   1.188   0.595 -0.3415 -0.0455 -0.3327
  611SOL    HW1 1832   1.175   1.156   0.510 -0.2291  0.2396 -1.3329
  611SOL    HW2 1833   1.267   1.119   0.653 -1.0853 -2.5349 -3.6289
  612SOL     OW 1834   2.256   1.770   0.003 -0.3218 -0.0579  0.2432
  612SOL    HW1 1835   2.216   1.858   0.036  1.6622  1.8405  0.4508
  612SOL    HW2 1836   2.208   1.693   0.053 -3.6952 -2.2470 -1.1377
  613SOL     OW 1837   1.711   1.532   0.177  0.3181  0.0233 -0.2174
  613SOL    HW1 1838   1.733   1.449   0.121  0.8026 -1.6350  0.9161
  613SOL    HW2 1839   1.616   1.557   0.152  1.7922 -2.4801 -0.8412
  614SOL     OW 1840   2.609   0.226   2.509  0.1768 -0.1543  0.8369
  614SOL    HW1 1841   2.543   0.182   2.441  0.5620  1.6077  0.9450
  614SOL    HW2 1842   2.696   0.253   2.459  3.9860 -0.5587 -1.1825
  615SOL     OW 1843   0.881   1.764   0.476 -0.0182 -0.4431  0.1447
  615SOL    HW1 1844   0.941   1.718   0.544  0.6717 -0.4235  0.6187
  615SOL    HW2 1845   0.922   1.770   0.383 -0.2415 -0.2218 -0.5078
  616SOL     OW 1846   1.607   0.835   2.901  0.2272  0.1498 -0.2944
  616SOL    HW1 1847   1.705   0.818   2.911 -2.4810  0.3298 -1.4135
  616SOL    HW2 1848   1.551   0.761   2.948 -2.5836 -1.2265 -1.7978
  617SOL     OW 1849   1.534   0.250   0.296  0.2451  0.2713 -0.1173
  617SOL    HW1 1850   1.593   0.317   0.350  3.2637  0.0913  0.3826
  617SOL    HW2 1851   1.434   0.263   0.310  0.7846 -0.3133 -1.6359
  618SOL     OW 1852   3.021   2.089   2.323 -0.8864 -0.2018 -0.2191
  618SOL    HW1 1853   3.031   2.158   2.245 -1.5483  3.0173 -1.9251
  618SOL    HW2 1854   3.105   2.080   2.372 -0.4772  0.0762 -4.4104
  619SOL     OW 1855   2.283   1.731   0.775 -0.1684  0.2063  0.0644
  619SOL    HW1 1856   2.211   1.788   0.823 -0.5309  0.5135 -2.0369
  619SOL    HW2 1857   2.369   1.777   0.767 -0.0642  1.2771 -1.3087
  620SOL     OW 1858   2.490   0.046   1.624  0.1071  0.1500 -0.1096
  620SOL    HW1 1859   2.484   3.106   1.536  2.4933  0.3218 -0.5647
  620SOL    HW2 1860   2.545   3.103   1.694  0.6212 -2.5492  0.0929
  621SOL     OW 1861   3.080   2.009   0.676 -0.2493  0.0830 -0.1993
  621SOL    HW1 1862   3.066   1.916   0.718  2.1458 -2.5568 -0.7716
  621SOL    HW2 1863   3.077   2.088   0.743  0.7832  0.7479  2.8197
  622SOL     OW 1864   0.720   1.543   2.288  0.2163  0.0694  0.5452
  622SOL    HW1 1865   0.619   1.530   2.284 -0.0173  1.0678  0.4736
  622SOL    HW2 1866   0.765   1.459   2.253 -0.1165 -1.3088  2.1139
  623SOL     OW 1867   2.597   2.649   2.730  0.2024  0.0670  0.5351
  623SOL    HW1 1868   2.637   2.641   2.638  1.2884  2.4696  0.6584
  623SOL    HW2 1869   2.669   2.658   2.803  0.4943  1.8809 -0.2107
  624SOL     OW 1870   0.987   1.823   0.233  0.2452  0.2782 -0.0722
  624SOL    HW1 1871   1.068   1.764   0.224 -2.2530 -2.3994  0.9735
  624SOL    HW2 1872   1.008   1.908   0.179 -2.2554 -0.5162  0.6867
  625SOL     OW 1873   0.633   2.023   2.176 -0.3151  0.0281  0.6315
  625SOL    HW1 1874   0.685   1.952   2.231 -2.7042 -2.7241  2.0726
  625SOL    HW2 1875   0.531   1.998   2.178 -0.6163  2.9161  1.1092
  626SOL     OW 1876   0.089   2.454   0.306 -0.1577 -0.1255 -0.5380
  626SOL    HW1 1877   0.086   2.406   0.395 -0.4813 -0.3720 -0.8286
  626SOL    HW2 1878   0.052   2.404   0.228  2.3075  1.4623  2.7798
  627SOL     OW 1879   0.993   1.775   2.513  0.9278  0.6646  0.0723
  627SOL    HW1 1880   0.970   1.673   2.503  0.6277 -0.6456 -3.1604
  627SOL    HW2 1881   1.090   1.788   2.491 -0.8327 -1.4969 -1.9896
  628SOL     OW 1882   1.557   2.011   0.701 -0.1106  0.2782  0.7156
  628SOL    HW1 1883   1.493   2.091   0.679 -2.2187  0.2881 -2.2697
  628SOL    HW2 1884   1.654   2.047   0.709  1.7395  1.8090 -0.6955
  629SOL     OW 1885   0.946   0.599   1.690  0.4127  0.1021 -0.3297
  629SOL    HW1 1886   1.044   0.617   1.711  2.1098 -2.0352 -0.1070
  629SOL    HW2 1887   0.928   0.502   1.664  1.3672 -2.6320 -0.3941
  630SOL     OW 1888   2.573   0.279   1.762  0.6553  0.1113 -0.3357
  630SOL    HW1 1889   2.551   0.190   1.719 -0.8853 -5.8300  0.7191
  630SOL    HW2 1890   2.528   0.285   1.852 -0.2136 -0.6499  2.3432
  631SOL     OW 1891   1.570   0.730   0.720  0.4725 -0.4783 -0.4618
  631SOL    HW1 1892   1.581   0.820   0.672  3.0964  2.5970 -2.1539
  631SOL    HW2 1893   1.552   0.651   0.660  0.0109 -1.1151 -0.6132
  632SOL     OW 1894   2.362   0.525   2.077 -0.0502  0.0048 -0.6074
  632SOL    HW1 1895   2.298   0.546   2.151  2.2204  0.6162 -2.4762
  632SOL    HW2 1896   2.328   0.449   2.021  3.6120  2.8302  0.1230
  633SOL     OW 1897   1.240   1.234   2.879 -0.0730 -0.6380  0.2716
  633SOL    HW1 1898   1.246   1.304   2.801 -1.8556  2.2371  0.1620
  633SOL    HW2 1899   1.286   1.144   2.858 -0.4522 -0.2680 -0.2914
  634SOL     OW 1900   0.402   2.232   0.212  0.8477 -0.3843  0.0880
  634SOL    HW1 1901   0.448   2.290   0.279  0.9207 -0.4309 -1.0943
  634SOL    HW2 1902   0.469   2.203   0.142 -0.1675 -1.0478 -0.5512
  635SOL     OW 1903   2.743   1.397   1.911  0.5377  0.0440 -0.1561
  635SOL    HW1 1904   2.750   1.350   2.001  0.5433 -1.8487  1.8611
  635SOL    HW2 1905   2.647   1.429   1.886 -3.0227  1.7340  0.0009
  636SOL     OW 1906   0.426   1.930   0.092  0.0799  0.5151  0.1907
  636SOL    HW1 1907   0.462   1.835   0.112  0.9931 -0.1739 -0.0903
  636SOL    HW2 1908   0.331   1.922   0.063 -0.4577 -0.5647  1.9012
  637SOL     OW 1909   0.034   2.218   0.443  0.1002 -0.3479 -0.1585
  637SOL    HW1 1910   0.062   2.173   0.357 -1.4347 -1.8399  2.3435
  637SOL    HW2 1911   3.051   2.183   0.461  1.0474  0.9150 -2.8239
  638SOL     OW 1912   2.604   2.721   0.534 -0.8737  0.1941  0.1167
  638SOL    HW1 1913   2.540   2.730   0.609 -0.3830 -2.0310 -2.8460
  638SOL    HW2 1914   2.636   2.623   0.526 -2.2344  0.0812  3.1407
  639SOL     OW 1915   1.032   0.501   0.256 -0.0580 -0.2077 -0.0934
  639SOL    HW1 1916   0.943   0.518   0.212 -0.7456  2.2033  0.9271
  639SOL    HW2 1917   1.096   0.471   0.184 -2.0640 -0.3458  0.4016
  640SOL     OW 1918   2.281   2.535   1.756  0.1184 -0.0960  0.4589
  640SOL    HW1 1919   2.335   2.455   1.733 -1.4359  1.6857  1.1924
  640SOL    HW2 1920   2.254   2.586   1.673  1.8395 -1.6533 -4.0561
  641SOL     OW 1921   2.712   2.953   1.285  0.0075  0.1692  0.2872
  641SOL    HW1 1922   2.747   3.016   1.220 -0.9619 -2.9706  0.6693
  641SOL    HW2 1923   2.758   2.860   1.272  1.2513 -2.8262 -0.4026
  642SOL     OW 1924   1.513   0.991   1.717  0.0081  0.3820  0.5202
  642SOL    HW1 1925   1.520   1.080   1.759  1.8465 -2.1399  1.7780
  642SOL    HW2 1926   1.430   0.948   1.752  3.1431  1.7124 -1.6724
  643SOL     OW 1927   1.083   1.540   2.171  0.0562 -0.7199 -0.5003
  643SOL    HW1 1928   1.012   1.469   2.166  0.3685 -0.4452  0.9727
  643SOL    HW2 1929   1.033   1.629   2.179  3.4424 -2.1559 -0.7321
  644SOL     OW 1930   1.296   0.330   2.027  0.1658  0.4180  0.4919
  644SOL    HW1 1931   1.203   0.316   2.069 -0.6111  0.5586 -0.2508
  644SOL    HW2 1932   1.364   0.289   2.089  0.2642  2.4800  0.3602
  645SOL     OW 1933   1.738   1.245   1.597 -0.3015 -0.4461 -0.1913
  645SOL    HW1 1934   1.666   1.214   1.534  1.3702  0.6546  1.5448
  645SOL    HW2 1935   1.707   1.334   1.637  1.6171 -1.1513  0.9627
  646SOL     OW 1936   1.491   2.227   0.091  0.3574 -0.3348  0.4431
  646SOL    HW1 1937   1.495   2.254   3.104 -0.9801  0.0050  0.8361
  646SOL    HW2 1938   1.553   2.150   0.111  0.3048  3.4459 -0.6950
  647SOL     OW 1939   1.805   2.682   1.102 -1.0061 -0.2043  0.3413
  647SOL    HW1 1940   1.856   2.623   1.035  3.2548 -0.6488  1.6245
  647SOL    HW2 1941   1.734   2.631   1.150  1.9811  2.0061  1.9826
  648SOL     OW 1942   0.095   2.433   1.457  0.1902 -0.5967 -0.1459
  648SOL    HW1 1943   0.053   2.523   1.443  0.6276 -0.5003 -1.2629
  648SOL    HW2 1944   0.026   2.364   1.471 -1.2877 -0.9508 -1.5099
  649SOL     OW 1945   1.274   2.495   2.754 -0.2508  0.4418 -0.2481
  649SOL    HW1 1946   1.272   2.432   2.833  2.3294 -1.2352  1.4622
  649SOL    HW2 1947   1.203   2.493   2.688  1.7831  1.3141  2.4230
  650SOL     OW 1948   2.876   1.921   0.078  0.3194 -0.2667  0.6648
  650SOL    HW1 1949   2.904   1.840   0.137 -0.1885  0.1476 -0.7747
  650SOL    HW2 1950   2.926   1.924   3.101 -0.0413 -3.9105  0.2768
  651SOL     OW 1951   2.619   2.169   2.195  0.1038 -0.5492  0.3914
  651SOL    HW1 1952   2.582   2.264   2.192 -1.1208  0.2661 -1.4938
  651SOL    HW2 1953   2.632   2.134   2.100  0.3600 -0.1663 -1.2695
  652SOL     OW 1954   2.403   2.468   0.571 -0.1903 -0.2572 -0.2764
  652SOL    HW1 1955   2.337   2.527   0.521  2.1712 -1.2959  0.7016
  652SOL    HW2 1956   2.475   2.438   0.507 -4.9042  0.7209  2.4469
  653SOL     OW 1957   2.848   1.737   1.709 -0.6988  0.4120  0.4720
  653SOL    HW1 1958   2.864   1.668   1.778 -1.1274 -1.0681  1.5206
  653SOL    HW2 1959   2.932   1.796   1.686  3.0521  2.9099  1.9916
  654SOL     OW 1960   0.824   0.957   3.066  0.0743  0.3938  0.2330
  654SOL    HW1 1961   0.888   1.034   3.061 -1.7850  1.1637 -0.9461
  654SOL    HW2 1962   0.837   0.887   2.994  0.2989  0.0153 -0.1522
  655SOL     OW 1963   0.901   1.161   1.032 -0.6534 -0.0612  0.1609
  655SOL    HW1 1964   0.963   1.170   1.114 -0.8998 -2.3969  0.2277
  655SOL    HW2 1965   0.927   1.219   0.952  0.3074  0.4009  0.4644
  656SOL     OW 1966   1.378   2.708   2.055 -0.0407  0.0011  0.3717
  656SOL    HW1 1967   1.352   2.646   1.981  1.4224 -1.1298 -0.4496
  656SOL    HW2 1968   1.300   2.757   2.100 -0.7381  0.3939  3.6974
  657SOL     OW 1969   2.150   1.522   0.105 -0.2527 -0.6544  0.3770
  657SOL    HW1 1970   2.112   1.457   0.174  1.9256 -1.0567  0.4799
  657SOL    HW2 1971   2.200   1.468   0.038 -0.8513 -0.7195 -0.7498
  658SOL     OW 1972   1.867   2.461   1.566 -0.6519 -0.0866 -0.6922
  658SOL    HW1 1973   1.938   2.432   1.641  0.9909 -1.1463  0.8553
  658SOL    HW2 1974   1.852   2.562   1.576  0.1344  1.0499 -0.4913
  659SOL     OW 1975   2.999   1.708   0.229 -0.2761  0.3496 -0.2282
  659SOL    HW1 1976   2.980   1.618   0.183 -1.5226  0.4345 -2.5153
  659SOL    HW2 1977   3.100   1.728   0.243 -0.3133  1.3574  0.1172
  660SOL     OW 1978   1.241   0.379   0.656 -0.3562  0.0485 -0.1410
  660SOL    HW1 1979   1.151   0.383   0.609  0.9698  0.3989  0.6916
  660SOL    HW2 1980   1.291   0.291   0.644 -0.7340 -1.1573 -2.5376
  661SOL     OW 1981   2.021   0.202   2.900 -0.2120  0.0526 -0.1002
  661SOL    HW1 1982   2.101   0.232   2.950 -0.5360 -3.3420 -1.6177
  661SOL    HW2 1983   1.942   0.209   2.960  4.2785 -0.6673  0.2887
  662SOL     OW 1984   0.371   0.248   0.580 -0.3320  0.0471 -0.4948
  662SOL    HW1 1985   0.381   0.149   0.595  0.1594 -0.1818 -0.0801
  662SOL    HW2 1986   0.453   0.294   0.606 -1.7455 -0.7515  3.4054
  663SOL     OW 1987   1.664   2.914   2.775 -0.4751 -0.4303 -0.0240
  663SOL    HW1 1988   1.722   2.891   2.694 -0.1757 -2.2083 -0.5854
  663SOL    HW2 1989   1.714   2.986   2.832  1.8382  0.7943  1.8031
  664SOL     OW 1990   0.463   2.570   1.691 -0.3999 -0.3521  0.0958
  664SOL    HW1 1991   0.363   2.573   1.679  0.6538 -1.4018 -1.3409
  664SOL    HW2 1992   0.513   2.617   1.615 -1.4355 -1.0208 -0.2546
  665SOL     OW 1993   1.606   2.502   1.218  0.1726 -0.1399 -0.1891
  665SOL    HW1 1994   1.560   2.559   1.291  1.8967 -0.6146 -0.5854
  665SOL    HW2 1995   1.654   2.423   1.263  0.8850 -4.5651  4.2933
  666SOL     OW 1996   0.946   2.843   2.390 -0.3264  0.7874  0.4221
  666SOL    HW1 1997   1.037   2.796   2.371  3.6025 -4.0989 -1.0353
  666SOL    HW2 1998   0.867   2.786   2.352 -2.0258  1.8898 -0.3403
  667SOL     OW 1999   2.528   0.553   1.692 -0.0375  0.2817  0.7630
  667SOL    HW1 2000   2.596   0.577   1.620  1.3522 -0.8803 -1.0479
  667SOL    HW2 2001   2.514   0.452   1.698 -2.9350 -1.6080  0.0445
  668SOL     OW 2002   1.136   0.318   1.416 -0.1068  0.3680  0.3648
  668SOL    HW1 2003   1.097   0.231   1.383 -1.2871  0.1873  1.0647
  668SOL    HW2 2004   1.078   0.391   1.375 -4.4153  0.0272  1.1078
  669SOL     OW 2005   2.256   2.473   1.262 -0.8111 -0.4979  0.6734
  669SOL    HW1 2006   2.157   2.498   1.278  3.1251 -1.7753  2.5566
  669SOL    HW2 2007   2.285   2.385   1.297  1.0073  1.0999 -3.5820
  670SOL     OW 2008   1.518   2.304   2.926  0.5815 -0.1385  0.1453
  670SOL    HW1 2009   1.564   2.395   2.914 -1.1433  2.7241 -1.8704
  670SOL    HW2 2010   1.581   2.240   2.878  3.9245 -0.3210  1.5304
  671SOL     OW 2011   0.700   1.094   0.291  0.2609  0.3688 -0.6238
  671SOL    HW1 2012   0.690   1.128   0.197 -1.5129 -0.8073 -0.9432
  671SOL    HW2 2013   0.616   1.043   0.305  2.5911 -1.7657 -1.8387
  672SOL     OW 2014   2.837   0.716   3.058  0.1732 -0.2649  0.1526
  672SOL    HW1 2015   2.885   0.803   3.068  2.1520 -1.4788 -0.5624
  672SOL    HW2 2016   2.889   0.642   3.007  0.9675 -3.2680  2.0731
  673SOL     OW 2017   3.102   1.827   1.573  0.0596 -0.4258 -0.5813
  673SOL    HW1 2018   3.044   1.890   1.515  1.1878 -0.5796  1.4330
  673SOL    HW2 2019   0.086   1.867   1.575  1.4890  0.6021 -1.3143
  674SOL     OW 2020   1.308   2.130   1.582  0.3827  0.1566  0.4444
  674SOL    HW1 2021   1.209   2.146   1.568  1.7043 -2.4766 -2.5233
  674SOL    HW2 2022   1.327   2.032   1.588 -0.6588  1.9802  0.0676
  675SOL     OW 2023   0.953   1.461   1.321 -0.0283  0.3841  0.2439
  675SOL    HW1 2024   1.009   1.548   1.331  0.1957  1.7708  0.8563
  675SOL    HW2 2025   0.876   1.493   1.263 -2.6883  0.5756 -0.9575
  676SOL     OW 2026   2.324   0.535   1.151  0.5703  0.0429 -0.2532
  676SOL    HW1 2027   2.336   0.600   1.074  1.6932 -1.4543  1.7278
  676SOL    HW2 2028   2.385   0.561   1.224  1.0994  0.2080 -2.7915
  677SOL     OW 2029   2.493   0.215   0.161 -0.3025  0.3938 -0.5137
  677SOL    HW1 2030   2.426   0.283   0.125 -1.4382 -0.8212 -0.7121
  677SOL    HW2 2031   2.579   0.226   0.107 -0.5537  0.5396 -0.2924
  678SOL     OW 2032   2.459   1.608   1.034  0.5489  0.2275  0.1758
  678SOL    HW1 2033   2.551   1.589   0.990  3.5215 -1.1370 -1.6092
  678SOL    HW2 2034   2.378   1.562   0.992 -2.1593 -1.8359 -1.9262
  679SOL     OW 2035   2.645   0.448   3.049  0.2091 -0.3812  0.4377
  679SOL    HW1 2036   2.621   0.488   0.032  0.4582 -1.6965 -0.1208
  679SOL    HW2 2037   2.665   0.350   3.050  0.4742  0.8589 -0.7475
  680SOL     OW 2038   0.378   1.277   2.240 -0.3495 -0.5300  0.1431
  680SOL    HW1 2039   0.445   1.199   2.224 -1.8315 -0.4204 -1.3090
  680SOL    HW2 2040   0.315   1.258   2.314  0.9242 -0.4755  0.5224
  681SOL     OW 2041   2.439   2.257   1.665 -0.2269 -0.0286  0.1422
  681SOL    HW1 2042   2.516   2.321   1.650 -4.0466  2.7560  0.6923
  681SOL    HW2 2043   2.469   2.169   1.705 -0.4821 -0.5647  0.2888
  682SOL     OW 2044   0.639   2.084   2.929 -0.1537  0.1404  0.1064
  682SOL    HW1 2045   0.575   2.146   2.884  2.2530 -2.5718 -1.8671
  682SOL    HW2 2046   0.612   1.988   2.912 -0.0373  0.4016  0.4208
  683SOL     OW 2047   2.607   1.999   1.066 -0.1160  0.7008 -0.8630
  683SOL    HW1 2048   2.645   1.902   1.082  4.1475 -5.0071  2.4501
  683SOL    HW2 2049   2.602   2.059   1.150  1.3089 -2.8359  2.9619
  684SOL     OW 2050   2.614   1.087   1.881  0.0393  0.1189  0.4957
  684SOL    HW1 2051   2.539   1.158   1.896 -3.1621  0.7235  1.4673
  684SOL    HW2 2052   2.645   1.052   1.968  2.6159  1.9815 -1.2244
  685SOL     OW 2053   0.961   0.928   0.852  0.1487  0.5850  0.0308
  685SOL    HW1 2054   0.972   1.004   0.924  1.0052  4.1290  2.2193
  685SOL    HW2 2055   0.937   0.840   0.900  0.3095  1.8917  1.9345
  686SOL     OW 2056   0.679   0.299   2.923 -0.0622  0.7699 -0.4830
  686SOL    HW1 2057   0.704   0.199   2.924  0.1458  2.9269 -0.6259
  686SOL    HW2 2058   0.596   0.307   2.983 -2.3602 -2.3034  2.9107
  687SOL     OW 2059   0.531   2.267   1.961  0.0425  0.2818  0.4138
  687SOL    HW1 2060   0.447   2.319   1.995 -0.2092 -0.2969 -1.1873
  687SOL    HW2 2061   0.563   2.202   2.037 -1.2188 -2.5676 -1.2225
  688SOL     OW 2062   2.057   0.273   1.549 -0.2368 -0.0490  0.2191
  688SOL    HW1 2063   1.977   0.325   1.580 -0.7195 -0.9624  0.3750
  688SOL    HW2 2064   2.056   0.280   1.448 -0.5042 -0.0712  0.5305
  689SOL     OW 2065   2.142   0.851   0.602  0.5432  0.6021 -0.7156
  689SOL    HW1 2066   2.047   0.869   0.636 -0.5984  1.8223  0.4442
  689SOL    HW2 2067   2.193   0.781   0.656 -0.9828 -1.5241 -1.7563
  690SOL     OW 2068   2.979   0.820   1.461 -0.5300  0.3020 -0.7118
  690SOL    HW1 2069   2.914   0.898   1.467  0.0695  2.0015  2.7554
  690SOL    HW2 2070   3.040   0.845   1.386 -2.9202  0.0946  0.1917
  691SOL     OW 2071   3.092   0.932   1.755  0.3919 -0.2832 -0.1908
  691SOL    HW1 2072   3.067   1.003   1.686  2.5558 -0.5126 -1.1817
  691SOL    HW2 2073   3.083   0.834   1.728  1.8714 -0.3142  1.9082
  692SOL     OW 2074   0.799   0.989   2.148 -0.2883  0.4827  0.3563
  692SOL    HW1 2075   0.803   0.895   2.105 -0.1530  0.1052  1.3563
  692SOL    HW2 2076   0.819   1.062   2.079 -0.0088  0.9250 -0.1450
  693SOL     OW 2077   0.263   1.333   1.993  0.2646  0.6882  0.1980
  693SOL    HW1 2078   0.160   1.322   2.009 -1.3904 -0.9932  0.7607
  693SOL    HW2 2079   0.314   1.321   2.081  1.4396  1.3518  2.7006
  694SOL     OW 2080   1.491   1.520   0.602  0.0659 -1.1268  0.0356
  694SOL    HW1 2081   1.567   1.482   0.548  0.2259 -0.3586 -1.7164
  694SOL    HW2 2082   1.490   1.620   0.585  0.9763 -0.3879  0.2194
  695SOL     OW 2083   0.347   0.955   0.974  0.6589 -0.1588 -0.0312
  695SOL    HW1 2084   0.316   1.051   0.983  1.1161 -3.0818 -1.2922
  695SOL    HW2 2085   0.302   0.899   1.048 -0.4505  0.8257  1.3515
  696SOL     OW 2086   0.529   2.465   0.695  0.1716 -0.1086 -0.5875
  696SOL    HW1 2087   0.469   2.432   0.626  2.1685 -0.6487 -1.2035
  696SOL    HW2 2088   0.624   2.420   0.689 -1.0832  0.0536 -0.4479
  697SOL     OW 2089   1.205   0.747   1.613  0.1910  0.2081  0.0723
  697SOL    HW1 2090   1.278   0.745   1.539 -3.4471  2.5012  1.6802
  697SOL    HW2 2091   1.116   0.780   1.574 -1.0315 -0.1398  0.9679
  698SOL     OW 2092   1.805   1.546   1.770  0.8826 -0.5293  0.1237
  698SOL    HW1 2093   1.716   1.528   1.721 -0.3874 -0.1143 -0.7893
  698SOL    HW2 2094   1.849   1.639   1.752 -0.3640  2.7849 -0.5491
  699SOL     OW 2095   0.000   0.635   2.499  0.6548  0.1046 -0.2267
  699SOL    HW1 2096   3.089   0.656   2.400  0.3865 -0.6888 -0.7709
  699SOL    HW2 2097   0.096   0.656   2.509 -4.2012 -3.3053 -0.2158
  700SOL     OW 2098   1.688   2.385   0.810 -0.0009 -0.3115 -0.4432
  700SOL    HW1 2099   1.679   2.479   0.772 -0.4108  0.8275  0.4932
  700SOL    HW2 2100   1.621   2.365   0.887  0.8712 -1.7840  3.5148
  701SOL     OW 2101   0.271   1.641   2.453 -0.4006 -0.2294 -0.3455
  701SOL    HW1 2102   0.267   1.583   2.538  1.1667  1.4129  1.4635
  701SOL    HW2 2103   0.313   1.732   2.470 -1.8437 -0.3129 -2.7660
  702SOL     OW 2104   0.432   0.300   3.049 -0.5481  0.4905 -0.0163
  702SOL    HW1 2105   0.372   0.219   3.072  0.0322 -1.7298 -0.5519
  702SOL    HW2 2106   0.376   0.371   3.003  0.0076 -1.0623 -1.2953
  703SOL     OW 2107   1.619   0.303   2.879 -0.5759 -0.2671 -0.6072
  703SOL    HW1 2108   1.707   0.293   2.829  2.1791  4.3982 -0.6078
  703SOL    HW2 2109   1.547   0.242   2.832 -0.7029  1.0871  0.0458
  704SOL     OW 2110   2.789   1.780   0.695  0.7241 -0.2769 -0.1246
  704SOL    HW1 2111   2.884   1.760   0.718 -2.0275  0.4186 -0.1784
  704SOL    HW2 2112   2.772   1.760   0.600 -0.6657 -1.2010  0.7034
  705SOL     OW 2113   2.855   1.886   1.953 -0.1633  0.5651  0.0245
  705SOL    HW1 2114   2.852   1.788   1.915  1.7661  0.1510 -1.1893
  705SOL    HW2 2115   2.895   1.880   2.050  0.8365 -1.0034  2.5027
  706SOL     OW 2116   0.054   2.731   1.091 -0.0904 -0.1592  0.1135
  706SOL    HW1 2117   3.107   2.800   1.039  2.0127  3.4325 -2.8780
  706SOL    HW2 2118   0.088   2.767   1.180 -1.1454 -0.5742 -3.0158
  707SOL     OW 2119   0.806   2.912   0.398 -0.0606  0.6349 -0.0348
  707SOL    HW1 2120   0.880   2.887   0.464  2.1907 -0.2119  2.1219
  707SOL    HW2 2121   0.829   2.917   0.299 -1.8662 -2.1566 -0.7086
  708SOL     OW 2122   0.561   2.316   1.500 -0.2071  0.8604  0.5130
  708SOL    HW1 2123   0.567   2.376   1.418 -2.2373  0.1511 -0.9249
  708SOL    HW2 2124   0.502   2.354   1.573  0.0762  1.8366 -1.7112
  709SOL     OW 2125   1.397   0.159   2.228 -0.1398  0.0936  0.7809
  709SOL    HW1 2126   1.336   0.191   2.303  0.9632  0.4191  0.1221
  709SOL    HW2 2127   1.369   0.067   2.190  0.0025 -2.8052  0.2348
  710SOL     OW 2128   1.373   2.972   2.744  0.1016  0.3846  0.2232
  710SOL    HW1 2129   1.316   2.937   2.819 -0.2881 -1.3493 -2.3459
  710SOL    HW2 2130   1.471   2.976   2.769 -0.9203 -1.2193 -2.1742
  711SOL     OW 2131   1.131   2.069   2.521 -0.2822  0.6394 -0.0660
  711SOL    HW1 2132   1.158   1.972   2.533  0.2232  2.2370 -2.2832
  711SOL    HW2 2133   1.222   2.116   2.530 -1.2161  0.6770 -0.6236
  712SOL     OW 2134   1.141   2.015   2.858 -0.0867 -0.0749 -0.7169
  712SOL    HW1 2135   1.073   2.081   2.885  2.8476  1.3115 -1.4302
  712SOL    HW2 2136   1.108   1.916   2.859 -1.5003 -4.8045 -0.1371
  713SOL     OW 2137   1.058   1.038   1.947  0.2499 -0.0987 -0.6443
  713SOL    HW1 2138   0.958   1.032   1.914 -1.3608  0.4007 -0.4080
  713SOL    HW2 2139   1.113   0.960   1.911 -1.2216  0.0463  2.7809
  714SOL     OW 2140   1.431   1.519   1.101  0.8926 -0.1277  0.9373
  714SOL    HW1 2141   1.460   1.509   1.000  0.7297  0.5317  1.1089
  714SOL    HW2 2142   1.421   1.613   1.130  0.1845 -0.0983  0.4169
  715SOL     OW 2143   2.470   0.248   0.757 -0.1306 -0.1270 -0.0126
  715SOL    HW1 2144   2.454   0.340   0.796  0.5317  0.0057 -0.8499
  715SOL    HW2 2145   2.398   0.235   0.688  0.5090  0.3018 -0.1053
  716SOL     OW 2146   0.625   2.723   0.718 -0.1091  0.3162 -0.5750
  716SOL    HW1 2147   0.718   2.705   0.756  1.1382  1.1839 -0.5110
  716SOL    HW2 2148   0.577   2.633   0.720  1.1192 -1.7519 -1.5138
  717SOL     OW 2149   2.870   0.447   0.301 -0.2368 -0.1803 -0.0188
  717SOL    HW1 2150   2.865   0.348   0.305  0.4002  1.9055  0.5784
  717SOL    HW2 2151   2.791   0.484   0.243 -3.0511 -0.7516 -0.5063
  718SOL     OW 2152   1.791   1.892   1.118 -0.3102  0.1896 -0.3367
  718SOL    HW1 2153   1.853   1.832   1.065  0.1118 -1.3809  0.0001
  718SOL    HW2 2154   1.772   1.977   1.058  1.1965  1.0003  1.1065
  719SOL     OW 2155   2.838   2.199   1.052 -0.1381 -0.3445  0.4590
  719SOL    HW1 2156   2.784   2.142   0.987  1.1220 -1.8019  1.0528
  719SOL    HW2 2157   2.907   2.257   0.997  3.4554  0.0492 -1.0531
  720SOL     OW 2158   0.653   1.092   1.064 -0.2630 -0.1962 -0.6601
  720SOL    HW1 2159   0.747   1.132   1.062 -1.6503 -1.2264 -0.9741
  720SOL    HW2 2160   0.612   1.090   0.969 -0.7452  1.0659  0.3570
  721SOL     OW 2161   1.569   0.665   0.983  0.2242  0.2222  0.6455
  721SOL    HW1 2162   1.578   0.666   0.883  1.6824 -1.4779  0.3405
  721SOL    HW2 2163   1.661   0.647   1.021  0.8155 -1.7698  0.4067
  722SOL     OW 2164   1.265   1.424   2.041  0.7711  0.2871 -0.0204
  722SOL    HW1 2165   1.342   1.376   2.084 -2.7176 -0.4655  0.1557
  722SOL    HW2 2166   1.207   1.465   2.116  0.1572  0.4652 -0.9142
  723SOL     OW 2167   1.024   2.910   1.431  0.3980  0.1547 -0.0451
  723SOL    HW1 2168   1.048   3.008   1.403  0.4924  4.1613  1.1109
  723SOL    HW2 2169   1.081   2.872   1.503  1.3613  0.6011 -0.1518
  724SOL     OW 2170   2.072   2.135   1.723 -0.5386 -0.3100  0.5644
  724SOL    HW1 2171   2.099   2.230   1.703 -0.0802 -0.5553 -1.3518
  724SOL    HW2 2172   1.976   2.119   1.692  2.6492  0.0909 -0.6690
  725SOL     OW 2173   1.090   2.815   1.182  0.2671  0.2238 -0.2314
  725SOL    HW1 2174   1.061   2.801   1.283 -0.2838  0.6743  3.0962
  725SOL    HW2 2175   1.186   2.833   1.170 -0.2863 -0.9789  3.7761
  726SOL     OW 2176   1.582   0.019   0.027  1.2460 -0.0331  0.5887
  726SOL    HW1 2177   1.608   0.028   0.123 -0.6226  0.7788 -2.4498
  726SOL    HW2 2178   1.609   3.038   3.102 -2.0583 -0.0821  0.2619
  727SOL     OW 2179   1.498   1.765   0.835  0.0292  0.0851  0.6144
  727SOL    HW1 2180   1.524   1.849   0.786  0.1676 -0.0588  3.2155
  727SOL    HW2 2181   1.577   1.697   0.836  0.2908 -0.2742  0.3351
  728SOL     OW 2182   1.961   3.088   2.147 -0.3311  0.3098 -0.3488
  728SOL    HW1 2183   1.956   0.042   2.066  1.1772 -0.3107 -2.9076
  728SOL    HW2 2184   2.045   3.031   2.144  1.9432  0.7240  0.7283
  729SOL     OW 2185   2.506   1.781   1.469 -0.6862 -0.1973  0.3404
  729SOL    HW1 2186   2.429   1.830   1.416 -2.9363  1.3291 -0.6388
  729SOL    HW2 2187   2.540   1.700   1.414  1.6173 -0.4784  0.4466
  730SOL     OW 2188   1.670   0.619   2.374  0.5333  0.2577  0.5401
  730SOL    HW1 2189   1.767   0.598   2.389  1.6910 -0.3109 -0.7416
  730SOL    HW2 2190   1.645   0.633   2.279 -1.4141  0.2306  0.6877
  731SOL     OW 2191   0.601   0.399   1.399 -0.0926  0.5433  0.1426
  731SOL    HW1 2192   0.557   0.443   1.482  0.0485  3.0874  1.3227
  731SOL    HW2 2193   0.623   0.469   1.330 -0.4561 -0.3903 -0.1756
  732SOL     OW 2194   1.720   0.354   1.201  0.8891 -0.1730  0.1477
  732SOL    HW1 2195   1.693   0.432   1.257 -1.0056 -1.2946 -2.9029
  732SOL    HW2 2196   1.751   0.279   1.257  0.1623  2.3980 -1.3166
  733SOL     OW 2197   0.863   1.094   1.577 -0.3667 -0.0682  0.0538
  733SOL    HW1 2198   0.790   1.118   1.509 -1.9302  0.5571 -3.6998
  733SOL    HW2 2199   0.909   1.006   1.545 -1.2218 -2.4308 -1.0363
  734SOL     OW 2200   2.583   1.917   0.037 -0.0064  0.2436 -0.4417
  734SOL    HW1 2201   2.611   1.820   0.010 -2.7515  0.6503 -1.9201
  734SOL    HW2 2202   2.668   1.971   0.041 -0.1136  2.0159 -1.8856
  735SOL     OW 2203   0.520   0.653   0.249 -0.7011  0.4346  0.3857
  735SOL    HW1 2204   0.503   0.641   0.146 -1.6723 -3.8298 -3.4562
  735SOL    HW2 2205   0.553   0.565   0.296 -1.0823 -2.0517 -2.9432
  736SOL     OW 2206   1.729   2.544   2.769 -0.3043  0.0037 -0.0386
  736SOL    HW1 2207   1.805   2.581   2.827 -0.0928 -0.4821 -1.4735
  736SOL    HW2 2208   1.638   2.582   2.790 -0.7519 -0.0847 -0.3732
  737SOL     OW 2209   0.921   1.975   0.870  0.1918 -0.3793 -0.0044
  737SOL    HW1 2210   0.968   1.901   0.926  0.4349 -1.8400  0.1367
  737SOL    HW2 2211   0.945   1.969   0.774 -1.0404  0.5183  2.3524
  738SOL     OW 2212   1.749   2.957   2.278 -0.1638 -0.3781  0.0955
  738SOL    HW1 2213   1.693   2.930   2.195  0.3880  0.9545 -2.4684
  738SOL    HW2 2214   1.838   2.992   2.245  0.1729  1.2346 -0.0533
  739SOL     OW 2215   1.332   2.332   2.140  0.2759  0.3375  0.0356
  739SOL    HW1 2216   1.406   2.401   2.155 -0.9072  1.3515 -1.8966
  739SOL    HW2 2217   1.340   2.283   2.050 -4.4951  0.1570  2.7259
  740SOL     OW 2218   1.699   2.438   1.917 -0.4514  0.0027 -0.0080
  740SOL    HW1 2219   1.768   2.515   1.930 -0.4452  2.0780 -1.7032
  740SOL    HW2 2220   1.625   2.473   1.859 -1.0594 -1.5800  1.1768
  741SOL     OW 2221   2.373   1.563   2.566  0.0457  0.3153 -0.0714
  741SOL    HW1 2222   2.324   1.496   2.511  0.6099  2.6244 -0.8979
  741SOL    HW2 2223   2.386   1.646   2.504 -0.6025 -0.2122 -0.2919
  742SOL     OW 2224   0.877   1.446   3.043 -0.1268  0.4211 -0.2509
  742SOL    HW1 2225   0.964   1.493   3.064 -2.2800  1.5299  0.1757
  742SOL    HW2 2226   0.830   1.481   2.960 -0.1159 -0.4679  0.0802
  743SOL     OW 2227   1.746   1.140   2.513  0.1147 -0.4460  0.4341
  743SOL    HW1 2228   1.767   1.137   2.411  2.4596  0.6431 -2.7697
  743SOL    HW2 2229   1.656   1.184   2.528 -2.2089 -0.8546 -0.5285
  744SOL     OW 2230   2.046   2.913   1.457 -0.6476  0.6620 -0.6443
  744SOL    HW1 2231   2.148   2.909   1.458 -1.9369 -0.6651 -0.0755
  744SOL    HW2 2232   2.017   2.922   1.359 -1.2490 -2.0874 -1.7988
  745SOL     OW 2233   2.596   0.979   0.918  0.2869  0.0565  0.3245
  745SOL    HW1 2234   2.600   1.049   0.991 -0.4323  2.7217 -0.7229
  745SOL    HW2 2235   2.567   1.030   0.832  1.3547 -3.3361 -2.7710
  746SOL     OW 2236   2.243   1.774   1.118  0.3376 -0.3261 -0.4291
  746SOL    HW1 2237   2.327   1.720   1.089 -0.4258 -2.6215  0.1935
  746SOL    HW2 2238   2.269   1.852   1.186  0.9935  0.6797  2.3975
  747SOL     OW 2239   2.027   2.801   0.312  0.1624 -0.1152  0.4178
  747SOL    HW1 2240   1.931   2.815   0.349 -0.5828  1.9991  1.5277
  747SOL    HW2 2241   2.039   2.843   0.218 -0.8879 -1.3342 -0.7857
  748SOL     OW 2242   0.929   2.131   0.141 -0.3436  0.2047 -0.1816
  748SOL    HW1 2243   0.847   2.083   0.175 -0.2513  0.8600  1.3967
  748SOL    HW2 2244   0.911   2.165   0.046 -0.1259 -1.8763 -0.8924
  749SOL     OW 2245   2.865   0.293   2.341 -0.2872 -0.5028  0.4353
  749SOL    HW1 2246   2.945   0.319   2.404 -1.8186 -0.0603  1.6456
  749SOL    HW2 2247   2.831   0.382   2.301 -2.2615  2.6111 -0.9417
  750SOL     OW 2248   1.223   0.839   1.874 -0.0740 -0.3147 -0.5714
  750SOL    HW1 2249   1.248   0.763   1.937  0.7292  0.9020  0.7498
  750SOL    HW2 2250   1.232   0.817   1.778 -0.2808  0.2397  2.2783
  751SOL     OW 2251   2.457   2.734   2.098  0.7800  0.0895 -0.3601
  751SOL    HW1 2252   2.523   2.660   2.103  0.0410  1.7598 -0.1468
  751SOL    HW2 2253   2.365   2.695   2.081 -0.5029 -3.3926  2.6891
  752SOL     OW 2254   2.125   1.357   1.032  0.3204 -0.3643  0.1953
  752SOL    HW1 2255   2.060   1.311   0.968 -0.7491 -0.5348  3.4019
  752SOL    HW2 2256   2.217   1.361   0.985  4.8240 -2.7077  2.3222
  753SOL     OW 2257   1.417   1.164   2.386 -0.3568  0.4806  0.1552
  753SOL    HW1 2258   1.314   1.170   2.389  1.6188  0.6232 -0.1807
  753SOL    HW2 2259   1.452   1.066   2.397 -2.5089 -0.2066 -0.1908
  754SOL     OW 2260   0.251   2.501   1.064 -0.2330 -0.0024  0.1097
  754SOL    HW1 2261   0.197   2.587   1.078  0.6892 -3.1288 -1.0457
  754SOL    HW2 2262   0.262   2.446   1.152  0.5789 -2.4486  2.6645
  755SOL     OW 2263   2.472   2.952   1.403  0.0663  0.0933 -0.2449
  755SOL    HW1 2264   2.558   2.962   1.347 -3.4974 -1.1355  0.3701
  755SOL    HW2 2265   2.448   2.854   1.421 -0.0954  2.6943  0.2554
  756SOL     OW 2266   1.976   2.050   2.157  0.0937 -0.3594 -0.2226
  756SOL    HW1 2267   1.959   1.970   2.100 -0.0106  4.6568 -0.8834
  756SOL    HW2 2268   2.051   2.030   2.221 -0.9212  1.2489 -0.9232
  757SOL     OW 2269   2.973   2.983   2.104  0.2654 -0.0772  0.4895
  757SOL    HW1 2270   2.911   3.023   2.174  1.5245 -1.1441 -0.3735
  757SOL    HW2 2271   3.023   3.059   2.057 -0.1179 -1.6229  0.8786
  758SOL     OW 2272   0.559   2.705   1.477  0.0261  0.4516  0.1580
  758SOL    HW1 2273   0.652   2.741   1.461 -0.1102 -1.2013  0.8588
  758SOL    HW2 2274   0.532   2.646   1.395 -2.7414 -0.9439 -3.2257
  759SOL     OW 2275   2.143   0.886   1.105  0.4230 -0.0272 -0.3828
  759SOL    HW1 2276   2.077   0.947   1.062 -1.3783  0.4737 -1.4095
  759SOL    HW2 2277   2.115   0.874   1.205  0.1768 -1.8277  1.4165
  760SOL     OW 2278   1.422   0.346   1.411 -0.9553  0.0281 -0.4295
  760SOL    HW1 2279   1.321   0.359   1.418  0.4330  1.6938 -0.3929
  760SOL    HW2 2280   1.462   0.435   1.388 -3.6804 -0.7438  0.8103
  761SOL     OW 2281   1.898   0.298   1.004 -0.2697  0.4537 -0.0688
  761SOL    HW1 2282   1.906   0.208   1.041  0.1835  1.8178 -1.5487
  761SOL    HW2 2283   1.831   0.354   1.057  2.6185  0.7137 -0.7271
  762SOL     OW 2284   1.758   2.844   0.382 -0.3678 -0.2047 -0.1112
  762SOL    HW1 2285   1.743   2.941   0.355 -1.2919  0.3910 -2.0847
  762SOL    HW2 2286   1.661   2.805   0.399 -1.0432 -1.0892 -0.5887
  763SOL     OW 2287   0.933   0.503   1.345 -0.4889 -0.2126  0.4231
  763SOL    HW1 2288   0.903   0.447   1.422  1.4174 -0.1150  0.1416
  763SOL    HW2 2289   0.863   0.574   1.328 -0.7893 -2.2005 -1.7854
  764SOL     OW 2290   2.495   2.464   2.343  0.4559 -0.1451  0.3406
  764SOL    HW1 2291   2.591   2.463   2.372 -0.1243 -1.3460  1.4724
  764SOL    HW2 2292   2.457   2.562   2.350 -0.9786  2.2487 -1.5992
  765SOL     OW 2293   3.066   1.154   2.452  0.2454 -0.3951  0.5486
  765SOL    HW1 2294   3.050   1.098   2.369 -0.2675 -1.8613 -1.2155
  765SOL    HW2 2295   3.041   1.097   2.529  0.8762  5.0348  0.2876
  766SOL     OW 2296   2.905   1.353   2.366  0.4308 -0.4629 -0.0971
  766SOL    HW1 2297   2.856   1.323   2.456 -0.2389 -0.6133  2.0938
  766SOL    HW2 2298   3.007   1.339   2.380  3.0941  0.0044 -1.7841
  767SOL     OW 2299   0.337   2.088   1.822 -0.8000 -0.8054  0.4446
  767SOL    HW1 2300   0.426   2.130   1.844  1.0149  0.5076 -1.4627
  767SOL    HW2 2301   0.300   2.025   1.897  0.1952 -3.3392  1.2629
  768SOL     OW 2302   0.989   0.722   2.890 -0.0382  0.4161  0.1624
  768SOL    HW1 2303   0.956   0.754   2.802  2.6331  0.6366  2.8875
  768SOL    HW2 2304   0.933   0.643   2.924 -0.5923  2.3208  1.8107
  769SOL     OW 2305   1.199   2.735   0.077  0.3263  0.1467  0.4036
  769SOL    HW1 2306   1.163   2.651   0.040  1.1872 -0.7789  0.6773
  769SOL    HW2 2307   1.297   2.726   0.110  2.1552 -0.1740  1.6397
  770SOL     OW 2308   0.774   0.174   2.571 -0.5182  0.1981  0.7251
  770SOL    HW1 2309   0.787   0.177   2.470  2.4320 -0.5493  1.2813
  770SOL    HW2 2310   0.759   0.083   2.606  0.4414  1.5541 -1.1306
  771SOL     OW 2311   0.882   2.652   0.777  0.3243  1.0098  0.3180
  771SOL    HW1 2312   0.899   2.550   0.788  1.0269  0.5678  1.4754
  771SOL    HW2 2313   0.873   2.694   0.871 -0.0922 -0.0147  1.3813
  772SOL     OW 2314   2.775   0.804   0.228  0.3308  0.0536 -0.5453
  772SOL    HW1 2315   2.779   0.903   0.251  2.0741 -1.7843  2.8475
  772SOL    HW2 2316   2.843   0.771   0.152  1.0170 -0.4125  1.1053
  773SOL     OW 2317   1.673   0.856   1.891  0.0425  0.1903  0.7623
  773SOL    HW1 2318   1.772   0.844   1.871  0.0744  1.1077 -1.5471
  773SOL    HW2 2319   1.641   0.927   1.820 -0.1105  0.8736 -0.7523
  774SOL     OW 2320   0.796   0.149   0.572 -0.1135 -0.4564 -0.5130
  774SOL    HW1 2321   0.834   0.078   0.638 -0.1543  1.0252 -2.8196
  774SOL    HW2 2322   0.744   0.093   0.501  0.6430  0.6740  2.9552
  775SOL     OW 2323   1.595   3.082   0.328  0.2499  0.1623 -0.1791
  775SOL    HW1 2324   1.589   3.049   0.422  2.1101  0.5447 -0.2973
  775SOL    HW2 2325   1.576   0.070   0.328  0.1070  1.6037 -1.3543
  776SOL     OW 2326   2.434   0.525   2.418  0.0445  0.8905  0.3104
  776SOL    HW1 2327   2.472   0.490   2.328  1.5094 -1.4363  1.5338
  776SOL    HW2 2328   2.334   0.509   2.423 -2.5791 -4.0234  1.6603
  777SOL     OW 2329   1.346   1.439   3.018 -0.2114 -0.4491  0.9046
  777SOL    HW1 2330   1.445   1.461   2.987  1.4866 -1.2088 -0.6044
  777SOL    HW2 2331   1.298   1.369   2.954 -1.3392  0.7632 -2.8864
  778SOL     OW 2332   0.302   2.611   0.256  0.0405 -0.0669  0.0836
  778SOL    HW1 2333   0.234   2.543   0.286 -1.7849  3.0405  4.0607
  778SOL    HW2 2334   0.286   2.699   0.295 -3.1289  1.0024 -1.9149
  779SOL     OW 2335   0.121   1.461   0.323  0.2301 -0.4863 -0.2051
  779SOL    HW1 2336   0.088   1.374   0.370  0.1167 -0.0346 -1.9497
  779SOL    HW2 2337   0.212   1.447   0.278  0.1595  1.3928  2.8297
  780SOL     OW 2338   1.913   0.104   1.908 -0.0642  0.2483 -0.8731
  780SOL    HW1 2339   1.950   0.068   1.820 -0.6782 -0.9362 -2.4567
  780SOL    HW2 2340   1.935   0.204   1.924  0.0103  0.6609  0.5263
  781SOL     OW 2341   1.580   1.236   1.342 -0.2527  0.0274 -0.3397
  781SOL    HW1 2342   1.501   1.292   1.371 -0.8195 -0.5898 -2.0155
  781SOL    HW2 2343   1.607   1.263   1.251  0.7990 -0.7501  2.0365
  782SOL     OW 2344   1.982   2.283   2.032  0.1541  0.1132  0.1004
  782SOL    HW1 2345   1.894   2.303   1.989  3.0605  0.5399  0.5052
  782SOL    HW2 2346   1.972   2.196   2.084 -0.9067  0.8922  2.7335
  783SOL     OW 2347   1.266   0.628   2.046  0.1036  0.0337  0.2434
  783SOL    HW1 2348   1.322   0.654   2.125 -3.2067  2.9877 -0.4311
  783SOL    HW2 2349   1.275   0.532   2.023  3.2068 -1.5327 -0.0232
  784SOL     OW 2350   1.811   1.104   2.240  0.1361 -0.1212 -0.0572
  784SOL    HW1 2351   1.770   1.132   2.155 -2.2812  1.0933  1.4202
  784SOL    HW2 2352   1.826   1.004   2.234 -3.5090 -0.1420  0.2320
  785SOL     OW 2353   2.136   0.600   0.279 -0.0104 -0.2006 -0.5558
  785SOL    HW1 2354   2.118   0.702   0.292  0.4085  0.7778 -0.7852
  785SOL    HW2 2355   2.058   0.549   0.314  0.2365 -0.4147 -0.3404
  786SOL     OW 2356   2.959   1.494   0.777  0.2927  0.5253 -0.5947
  786SOL    HW1 2357   2.973   1.497   0.676 -1.2158  1.3489  2.0047
  786SOL    HW2 2358   3.004   1.412   0.811  0.5229  1.8782  1.3442
  787SOL     OW 2359   1.836   1.973   0.288 -0.6358  0.0457 -0.1797
  787SOL    HW1 2360   1.781   1.992   0.202  0.9921 -1.2997 -1.0060
  787SOL    HW2 2361   1.917   1.923   0.261 -0.7532  2.1894  0.6848
  788SOL     OW 2362   2.239   1.444   1.386 -0.5015  0.4637 -0.1516
  788SOL    HW1 2363   2.332   1.466   1.347  2.4312  2.5452  0.2395
  788SOL    HW2 2364   2.194   1.533   1.410 -0.6884 -0.8508  1.3338
  789SOL     OW 2365   2.880   1.670   2.556 -0.6147  0.4663 -0.1989
  789SOL    HW1 2366   2.851   1.612   2.481  0.4548  0.9988 -1.8702
  789SOL    HW2 2367   2.979   1.661   2.576  0.0337  1.7938 -0.9395
  790SOL     OW 2368   0.659   3.001   2.737  0.8603 -0.9335  0.1992
  790SOL    HW1 2369   0.724   2.986   2.658  0.6974  1.4088  0.9870
  790SOL    HW2 2370   0.560   3.031   2.712 -1.3564 -0.0107 -1.9469
  791SOL     OW 2371   0.689   2.738   2.878  0.3369  0.0245  0.1372
  791SOL    HW1 2372   0.786   2.707   2.901  2.2837 -1.1874  1.6887
  791SOL    HW2 2373   0.687   2.827   2.828 -1.6350  1.6136 -2.7681
  792SOL     OW 2374   1.624   0.334   2.254  0.1742  0.0690 -0.0967
  792SOL    HW1 2375   1.567   0.261   2.230  0.5738  5.4506 -0.2087
  792SOL    HW2 2376   1.606   0.344   2.354  0.3522  0.2865  0.1994
  793SOL     OW 2377   2.809   0.039   2.258 -0.3147  0.1041 -0.0174
  793SOL    HW1 2378   2.852   0.125   2.289  0.8577  0.0903  0.3000
  793SOL    HW2 2379   2.723   0.054   2.206 -1.8274  1.0640  0.3069
  794SOL     OW 2380   0.537   0.990   1.839 -0.0840  0.3489 -0.0387
  794SOL    HW1 2381   0.530   0.913   1.903  1.3288 -0.6056  0.7638
  794SOL    HW2 2382   0.470   0.976   1.763  0.4157  0.7774  0.1771
  795SOL     OW 2383   3.003   1.537   0.529 -0.4367  0.5251 -0.5372
  795SOL    HW1 2384   2.926   1.583   0.476  0.5609 -1.0911 -2.0032
  795SOL    HW2 2385   3.085   1.518   0.466  1.8432 -0.0445 -2.5519
  796SOL     OW 2386   2.900   2.454   2.734 -0.0233 -0.2628 -0.6724
  796SOL    HW1 2387   2.838   2.387   2.695 -0.0912 -1.4998  0.0146
  796SOL    HW2 2388   2.993   2.422   2.711 -1.2314  2.6450  1.2369
  797SOL     OW 2389   2.616   2.342   0.187  0.4841  0.1864 -1.0402
  797SOL    HW1 2390   2.698   2.287   0.166 -2.3556 -2.2085  1.2044
  797SOL    HW2 2391   2.591   2.405   0.113  0.8010  0.2328 -0.3239
  798SOL     OW 2392   0.316   0.883   1.683 -0.4908  0.4334 -0.5756
  798SOL    HW1 2393   0.253   0.822   1.732  0.8203  2.1883 -1.1340
  798SOL    HW2 2394   0.282   0.905   1.588 -3.1718 -1.8467 -4.4945
  799SOL     OW 2395   2.838   0.566   2.281 -0.1338  0.2159  0.6245
  799SOL    HW1 2396   2.785   0.610   2.359 -1.2778 -1.2421 -0.1500
  799SOL    HW2 2397   2.934   0.600   2.258 -1.4909  1.2015 -0.2471
  800SOL     OW 2398   2.759   2.312   0.619 -0.3298 -0.3297  0.0912
  800SOL    HW1 2399   2.678   2.292   0.680 -0.7391  0.6086  2.6979
  800SOL    HW2 2400   2.805   2.401   0.647 -2.7368 -0.0412 -0.7605
  801SOL     OW 2401   1.231   0.981   0.792  0.1766 -0.2767  0.4171
  801SOL    HW1 2402   1.130   0.959   0.781 -1.0485  1.5098 -1.2066
  801SOL    HW2 2403   1.255   0.987   0.894 -0.8729 -2.6604  3.6819
  802SOL     OW 2404   1.501   1.916   1.057  0.5207 -0.2889 -0.7590
  802SOL    HW1 2405   1.595   1.906   1.098 -0.1125 -1.9486 -1.8280
  802SOL    HW2 2406   1.501   1.882   0.963  2.6718  3.3415  3.1727
  803SOL     OW 2407   0.159   1.730   0.274  0.5939  0.4628  0.0123
  803SOL    HW1 2408   0.154   1.625   0.285  1.5198 -0.9709 -1.9732
  803SOL    HW2 2409   0.167   1.769   0.366 -1.3046 -0.8396 -0.8164
  804SOL     OW 2410   1.277   2.579   0.555  0.3220  0.5080  0.6256
  804SOL    HW1 2411   1.188   2.626   0.541  0.2601 -0.6164 -2.9561
  804SOL    HW2 2412   1.301   2.586   0.652 -2.2667 -0.0159 -0.2947
  805SOL     OW 2413   1.437   2.046   2.296  0.0203 -0.5807  0.3605
  805SOL    HW1 2414   1.410   2.105   2.374 -0.4910  0.4346 -1.8667
  805SOL    HW2 2415   1.532   2.070   2.266  0.0167  1.9413  0.8852
  806SOL     OW 2416   1.503   0.125   1.255  0.4856 -0.3290 -0.1270
  806SOL    HW1 2417   1.468   0.213   1.289 -0.2228 -0.4573 -0.6926
  806SOL    HW2 2418   1.430   0.059   1.228  0.6299 -0.1389  0.6294
  807SOL     OW 2419   1.854   3.065   2.888  0.0583 -0.0358  0.5895
  807SOL    HW1 2420   1.879   0.038   2.941  0.4560  2.4980 -0.5210
  807SOL    HW2 2421   1.878   3.071   2.790  0.7786  1.8580  2.0062
  808SOL     OW 2422   0.481   1.667   0.148  0.7547  0.8150 -0.0583
  808SOL    HW1 2423   0.415   1.592   0.145  0.3196  0.5804 -0.6571
  808SOL    HW2 2424   0.576   1.634   0.160 -1.4021 -0.7311 -2.6739
  809SOL     OW 2425   2.884   0.650   2.648  0.1792 -0.4213 -0.2847
  809SOL    HW1 2426   2.961   0.649   2.578  1.9460  0.4111 -1.3454
  809SOL    HW2 2427   2.801   0.596   2.617 -2.6068  0.5126 -0.3670
  810SOL     OW 2428   3.029   0.361   2.548 -0.0723 -0.0898 -0.0649
  810SOL    HW1 2429   3.044   0.464   2.559  1.0068  0.2643  1.2225
  810SOL    HW2 2430   0.010   0.313   2.569  1.7151 -2.2995 -1.0613
  811SOL     OW 2431   2.047   2.402   1.789 -0.4029 -0.2991  0.1820
  811SOL    HW1 2432   2.033   2.354   1.878 -3.1896  0.5101  0.5866
  811SOL    HW2 2433   2.133   2.458   1.786  1.9914 -0.6458 -0.1558
  812SOL     OW 2434   1.358   0.588   0.322  0.4956 -0.1701  0.2766
  812SOL    HW1 2435   1.286   0.660   0.305  0.8641 -0.3082  0.2051
  812SOL    HW2 2436   1.363   0.524   0.240 -2.8133  0.7964  0.9672
  813SOL     OW 2437   1.691   0.485   2.025 -0.0021 -0.0374 -1.3331
  813SOL    HW1 2438   1.665   0.420   2.098 -0.6619 -1.5168  0.8584
  813SOL    HW2 2439   1.651   0.577   2.039  4.1676  0.1426 -0.2753
  814SOL     OW 2440   1.945   1.126   1.205  0.5120 -0.1610 -0.3821
  814SOL    HW1 2441   2.034   1.162   1.238 -2.7820 -0.4084 -1.3706
  814SOL    HW2 2442   1.878   1.200   1.202 -1.6028 -0.6760  0.3350
  815SOL     OW 2443   0.648   0.875   0.580  0.0492 -0.0550  0.1732
  815SOL    HW1 2444   0.713   0.813   0.533 -1.3918  0.7171 -2.8337
  815SOL    HW2 2445   0.587   0.820   0.638  0.1813 -0.6942  0.9095
  816SOL     OW 2446   2.114   2.146   2.870  0.1708  0.1362  0.3837
  816SOL    HW1 2447   2.186   2.216   2.855 -2.3613 -5.1611 -1.3158
  816SOL    HW2 2448   2.045   2.134   2.795 -1.2801  0.8342  0.5912
  817SOL     OW 2449   2.896   2.770   1.260  0.7446  0.4841  0.0877
  817SOL    HW1 2450   2.932   2.788   1.168 -2.8976  0.6179  0.9516
  817SOL    HW2 2451   2.972   2.725   1.316  2.9820 -2.3557  2.3215
  818SOL     OW 2452   1.328   0.411   0.102  0.2078  0.5583  0.3688
  818SOL    HW1 2453   1.270   0.361   0.033 -1.6409 -1.3165  1.5443
  818SOL    HW2 2454   1.425   0.410   0.074  1.2051 -0.2065  1.2723
  819SOL     OW 2455   0.621   0.373   0.653  0.0986  0.1127 -0.0258
  819SOL    HW1 2456   0.670   0.436   0.707 -2.5203 -0.8579 -2.2221
  819SOL    HW2 2457   0.675   0.286   0.637  1.7427  0.0534  0.2599
  820SOL     OW 2458   2.053   0.572   1.173 -0.0606 -0.4261  0.1038
  820SOL    HW1 2459   2.143   0.549   1.136 -0.6640 -0.1766 -1.5297
  820SOL    HW2 2460   2.038   0.668   1.204 -2.1543 -2.0610  0.2774
  821SOL     OW 2461   2.796   2.903   0.547  0.0915 -0.0908 -0.2815
  821SOL    HW1 2462   2.780   2.958   0.635 -1.7540  1.5671  0.6984
  821SOL    HW2 2463   2.734   2.822   0.533  2.6904  0.9948  0.9926
  822SOL     OW 2464   1.064   2.486   2.601 -0.0455  0.2473  0.0160
  822SOL    HW1 2465   1.107   2.472   2.512 -0.4823 -0.6684 -0.2709
  822SOL    HW2 2466   0.962   2.490   2.582 -2.1519  0.3425 -1.3296
  823SOL     OW 2467   2.775   1.223   1.709  0.1172  0.0298  0.1139
  823SOL    HW1 2468   2.798   1.295   1.775  1.2259 -0.0085 -3.1031
  823SOL    HW2 2469   2.713   1.160   1.756 -2.3001 -0.2304 -3.1330
  824SOL     OW 2470   0.817   3.053   2.223 -0.1285 -0.1475 -0.9278
  824SOL    HW1 2471   0.893   2.996   2.255 -3.2411 -0.6385  0.2903
  824SOL    HW2 2472   0.727   3.003   2.245  0.6168 -3.0268  0.2122
  825SOL     OW 2473   1.418   1.890   3.098  0.0120  0.4889 -0.4471
  825SOL    HW1 2474   1.330   1.922   0.022  0.4004 -1.1054 -0.2285
  825SOL    HW2 2475   1.429   1.906   3.000  2.3233  2.1239  0.0950
  826SOL     OW 2476   1.259   2.249   2.935  0.3728  0.7388 -0.3395
  826SOL    HW1 2477   1.358   2.248   2.929  1.1096 -0.1380  1.5529
  826SOL    HW2 2478   1.218   2.160   2.906 -0.8380  0.1345 -1.6041
  827SOL     OW 2479   0.237   1.724   1.952 -0.7674 -0.1071  0.6213
  827SOL    HW1 2480   0.179   1.676   1.883  2.2811  2.4102 -0.5290
  827SOL    HW2 2481   0.329   1.680   1.968 -0.5230  0.6958  0.5537
  828SOL     OW 2482   0.090   1.846   1.051  0.6911 -0.3596 -0.3752
  828SOL    HW1 2483   0.169   1.909   1.058 -2.8149 -0.9963 -2.1299
  828SOL    HW2 2484   0.009   1.890   1.094  1.0972 -1.4782 -0.3246
  829SOL     OW 2485   2.916   2.489   0.018 -0.0889  0.3449  0.2160
  829SOL    HW1 2486   3.007   2.459   0.047  3.0667  3.0697 -0.3640
  829SOL    HW2 2487   2.865   2.413   3.077  0.8192  1.0056 -0.3612
  830SOL     OW 2488   1.252   0.873   0.531 -0.0297  0.3662  0.0631
  830SOL    HW1 2489   1.337   0.854   0.475 -0.8544 -1.7447  0.3891
  830SOL    HW2 2490   1.269   0.918   0.622 -1.6567  0.4652  1.7404
  831SOL     OW 2491   2.785   2.260   3.015  0.4466  0.1060  0.0682
  831SOL    HW1 2492   2.694   2.223   2.977 -3.5623  1.1616  2.1126
  831SOL    HW2 2493   2.863   2.248   2.948  2.5787  0.4321 -2.1790
  832SOL     OW 2494   1.510   2.259   0.358 -0.0298  0.8496 -0.4360
  832SOL    HW1 2495   1.488   2.276   0.261  0.2580  1.7168  0.5796
  832SOL    HW2 2496   1.601   2.212   0.370  0.4122  2.0873 -1.0522
  833SOL     OW 2497   0.373   1.099   2.600  0.3919 -0.0385  0.7428
  833SOL    HW1 2498   0.411   1.123   2.687 -0.6521 -1.7284 -0.7243
  833SOL    HW2 2499   0.312   1.175   2.568  1.0450 -2.2400 -0.3124
  834SOL     OW 2500   3.012   0.743   0.885  0.0874 -0.2032 -0.6632
  834SOL    HW1 2501   3.049   0.698   0.968 -0.1459  0.6733 -0.6082
  834SOL    HW2 2502   2.911   0.740   0.890  0.8137 -1.5245 -1.9416
  835SOL     OW 2503   2.175   0.659   2.252  0.2950 -0.4600  0.6279
  835SOL    HW1 2504   2.194   0.753   2.289  1.4024  0.7552 -2.2274
  835SOL    HW2 2505   2.127   0.664   2.158 -2.3824  0.5319 -3.0561
  836SOL     OW 2506   0.710   1.960   0.275  0.2441  0.3944 -0.0031
  836SOL    HW1 2507   0.637   1.914   0.329  1.0198 -2.1377  3.1922
  836SOL    HW2 2508   0.764   1.882   0.239 -1.2891 -2.7264  1.1418
  837SOL     OW 2509   2.198   1.567   1.999 -0.7198  0.2546  1.1202
  837SOL    HW1 2510   2.187   1.626   2.081 -2.3388  1.8524  1.7425
  837SOL    HW2 2511   2.140   1.482   2.000  1.4686  2.9977 -0.5180
  838SOL     OW 2512   0.044   1.015   2.210 -0.4930  0.1261 -0.0139
  838SOL    HW1 2513   0.110   0.994   2.284 -0.7379  2.6436  0.0762
  838SOL    HW2 2514   0.094   1.029   2.122  0.2672 -1.8411  1.2318
  839SOL     OW 2515   0.524   3.018   3.053  0.4514  0.4870 -0.3793
  839SOL    HW1 2516   0.522   2.931   3.003  1.8768  0.0395  0.2042
  839SOL    HW2 2517   0.614   3.064   3.035 -0.7712  0.2541  0.8742
  840SOL     OW 2518   3.010   1.003   2.650 -0.3934 -0.1421  0.4112
  840SOL    HW1 2519   3.051   1.046   2.732  0.5484 -2.7516  2.5854
  840SOL    HW2 2520   2.918   0.975   2.668  3.4399  1.6114 -0.8722
  841SOL     OW 2521   0.516   2.082   2.584 -0.5339  0.3485 -0.1416
  841SOL    HW1 2522   0.474   2.117   2.670 -1.5281  1.3279 -1.8013
  841SOL    HW2 2523   0.618   2.090   2.592  0.6163 -1.0383  0.0848
  842SOL     OW 2524   0.941   0.156   1.108 -0.3721  0.1279 -0.3705
  842SOL    HW1 2525   1.022   0.171   1.047  1.5926 -2.7528  0.3956
  842SOL    HW2 2526   0.890   0.240   1.115 -0.2149 -1.4681  2.8339
  843SOL     OW 2527   0.030   1.659   2.354  0.0717  0.1355  0.0383
  843SOL    HW1 2528   0.043   1.608   2.266 -2.2023 -1.0281  0.3113
  843SOL    HW2 2529   0.116   1.658   2.410 -0.6887  1.1917 -1.2587
  844SOL     OW 2530   1.651   2.104   2.127 -0.0414  0.0433  0.1757
  844SOL    HW1 2531   1.693   2.021   2.167  0.6361 -3.0002  2.1761
  844SOL    HW2 2532   1.656   2.105   2.023  1.2451 -0.8204 -2.7836
  845SOL     OW 2533   2.418   2.699   2.452 -0.2713 -0.4594 -0.2731
  845SOL    HW1 2534   2.379   2.646   2.528  1.4771 -0.0102 -1.1892
  845SOL    HW2 2535   2.352   2.768   2.412 -2.5175 -1.1950 -1.6638
  846SOL     OW 2536   2.207   1.883   2.849  0.2888 -0.2908 -0.3597
  846SOL    HW1 2537   2.197   1.988   2.855 -0.2601  1.6688  0.3767
  846SOL    HW2 2538   2.238   1.848   2.939 -0.4640 -0.3636  2.2975
  847SOL     OW 2539   2.381   0.194   2.921  0.2136  0.2520  0.3104
  847SOL    HW1 2540   2.400   0.264   2.849  1.7906  1.4273  0.1329
  847SOL    HW2 2541   2.430   0.109   2.907 -0.6505 -0.4865  0.4927
  848SOL     OW 2542   2.386   0.595   0.369 -0.2382 -0.2000  0.5211
  848SOL    HW1 2543   2.286   0.603   0.340  0.1678  1.7558 -2.9496
  848SOL    HW2 2544   2.411   0.652   0.451  0.5179 -0.8351 -1.5327
  849SOL     OW 2545   1.369   0.195   2.777  0.1775  0.0348 -0.0069
  849SOL    HW1 2546   1.335   0.137   2.700  4.0157  1.5693  1.8247
  849SOL    HW2 2547   1.365   0.292   2.758  0.0463 -0.4619 -0.7679
  850SOL     OW 2548   2.839   0.760   0.482  0.3152 -0.2771 -0.4705
  850SOL    HW1 2549   2.823   0.781   0.379  2.1360 -0.6883 -3.2850
  850SOL    HW2 2550   2.939   0.740   0.495  0.6170 -1.4082 -1.4935
  851SOL     OW 2551   0.131   1.191   1.308  0.0042 -0.0952 -0.1564
  851SOL    HW1 2552   0.222   1.240   1.305 -1.5807  2.0156  0.2428
  851SOL    HW2 2553   0.083   1.191   1.216 -0.7729  0.6717 -1.4539
  852SOL     OW 2554   1.506   0.884   2.473 -0.2908 -0.3466  0.1632
  852SOL    HW1 2555   1.593   0.873   2.526  0.4824 -0.5220  2.8804
  852SOL    HW2 2556   1.434   0.868   2.541  0.0314  0.6858  1.8361
  853SOL     OW 2557   2.303   1.430   3.008 -0.1858  0.2609 -0.3586
  853SOL    HW1 2558   2.361   1.350   3.039 -0.4906  0.2089  0.5357
  853SOL    HW2 2559   2.230   1.397   2.946 -0.2084  2.3303 -1.1557
  854SOL     OW 2560   1.166   1.282   1.843  0.1312 -0.4281  1.1788
  854SOL    HW1 2561   1.131   1.196   1.873 -1.2305  3.0616 -2.5727
  854SOL    HW2 2562   1.196   1.344   1.915 -1.0841 -1.6131 -1.7221
  855SOL     OW 2563   0.316   2.434   1.989 -0.2483  0.1942 -0.3395
  855SOL    HW1 2564   0.276   2.514   2.034  0.2776 -2.0642  0.8404
  855SOL    HW2 2565   0.310   2.448   1.886  2.3018  2.4079  1.6208
  856SOL     OW 2566   0.961   1.165   2.322 -0.1812 -0.0341  1.1141
  856SOL    HW1 2567   1.038   1.179   2.386  0.3797  0.0730  1.0375
  856SOL    HW2 2568   0.900   1.087   2.353 -2.2593 -1.2366  2.7095
  857SOL     OW 2569   1.031   1.005   2.648 -0.3765 -0.0783  0.3769
  857SOL    HW1 2570   0.974   1.027   2.727  1.2219 -2.3988 -2.0475
  857SOL    HW2 2571   0.992   0.917   2.618 -0.6722  0.9839  0.2367
  858SOL     OW 2572   0.205   0.695   1.861 -0.2257  0.0258  0.2606
  858SOL    HW1 2573   0.140   0.660   1.788 -0.5399 -1.7042 -1.0006
  858SOL    HW2 2574   0.179   0.654   1.952  1.1484 -0.1071 -0.3464
  859SOL     OW 2575   2.281   3.079   1.239  0.0300 -0.6192  0.3878
  859SOL    HW1 2576   2.350   3.030   1.299  2.1841 -1.8033  3.3646
  859SOL    HW2 2577   2.315   0.058   1.207 -0.2569 -0.5343  0.3010
  860SOL     OW 2578   1.122   1.046   1.416  0.2260 -0.8467 -0.0503
  860SOL    HW1 2579   1.110   0.952   1.446  1.7139  1.2816  1.6750
  860SOL    HW2 2580   1.175   1.102   1.484 -0.7535  1.6814  0.8038
  861SOL     OW 2581   1.741   0.936   1.188 -0.2850  0.5319 -0.4313
  861SOL    HW1 2582   1.708   0.941   1.284 -2.3822  0.7327  2.8642
  861SOL    HW2 2583   1.821   1.000   1.180  0.4742 -0.8280  1.5863
  862SOL     OW 2584   0.863   0.195   2.302  0.2508 -0.6688  0.1523
  862SOL    HW1 2585   0.857   0.098   2.264  2.3580  0.6435 -1.5797
  862SOL    HW2 2586   0.821   0.263   2.240  0.9666 -3.1927 -0.5875
  863SOL     OW 2587   2.643   0.322   1.488 -0.2226 -0.3350 -0.1785
  863SOL    HW1 2588   2.596   0.266   1.561 -1.4565 -3.2385 -1.0017
  863SOL    HW2 2589   2.744   0.318   1.495 -2.5116  0.7026  0.1583
  864SOL     OW 2590   2.832   3.042   2.510 -0.3273  0.1241 -0.7537
  864SOL    HW1 2591   2.828   2.941   2.520  3.3613  1.8289  2.4369
  864SOL    HW2 2592   2.820   3.088   2.422 -1.9128  1.2836  0.1768
  865SOL     OW 2593   1.166   1.196   2.505  0.7104  0.1788 -0.4685
  865SOL    HW1 2594   1.133   1.122   2.564  0.1487  0.4196  0.7438
  865SOL    HW2 2595   1.187   1.280   2.559  0.2301  1.5984  1.3649
  866SOL     OW 2596   2.680   2.487   1.004 -0.4569  0.0594  0.1697
  866SOL    HW1 2597   2.668   2.539   1.093  1.3367  0.0336  2.7512
  866SOL    HW2 2598   2.722   2.394   1.020  3.3272  0.9384  1.6448
  867SOL     OW 2599   2.672   2.603   1.268 -0.6133 -0.5687 -0.6178
  867SOL    HW1 2600   2.754   2.664   1.265 -2.0528 -1.3515 -0.7145
  867SOL    HW2 2601   2.694   2.518   1.319 -1.6610  1.5281  1.0968
  868SOL     OW 2602   3.021   1.257   1.459  0.1463  0.1857 -0.2107
  868SOL    HW1 2603   3.094   1.211   1.404  0.8709  2.0121 -2.1907
  868SOL    HW2 2604   3.024   1.359   1.464  0.3428 -0.7071  0.4664
  869SOL     OW 2605   2.179   1.971   2.296 -0.6031 -0.8554  0.1407
  869SOL    HW1 2606   2.259   1.966   2.237  0.6243 -2.7118  0.6067
  869SOL    HW2 2607   2.204   1.966   2.393  0.0311  1.0878  1.7192
  870SOL     OW 2608   1.655   1.018   0.677 -0.1138 -0.3995  0.2035
  870SOL    HW1 2609   1.614   1.068   0.758  1.9675  1.3632  3.7800
  870SOL    HW2 2610   1.669   1.080   0.597  0.5358  0.4127  1.8907
  871SOL     OW 2611   2.466   1.536   1.885  0.0251 -0.1446 -0.2590
  871SOL    HW1 2612   2.383   1.564   1.943 -0.4761 -0.1184 -0.2278
  871SOL    HW2 2613   2.499   1.620   1.833 -0.5343  0.8540 -0.6111
  872SOL     OW 2614   1.345   1.635   2.687 -0.0364  0.1352  0.0600
  872SOL    HW1 2615   1.358   1.699   2.767 -1.5303  0.7745 -0.6671
  872SOL    HW2 2616   1.430   1.580   2.673 -0.2030  1.6566  0.1813
  873SOL     OW 2617   1.000   1.324   1.626 -0.1562  0.4654  0.3919
  873SOL    HW1 2618   0.937   1.244   1.606  0.7759 -3.4581 -2.0472
  873SOL    HW2 2619   1.063   1.302   1.703 -1.8326 -0.6925  4.0309
  874SOL     OW 2620   1.058   1.225   1.228  0.2263  0.5845  0.0028
  874SOL    HW1 2621   1.080   1.159   1.302  3.1443  0.1941 -0.3964
  874SOL    HW2 2622   1.041   1.319   1.262 -0.5247  2.8443 -1.8573
  875SOL     OW 2623   2.597   3.062   2.962  0.0206  0.5449 -0.0754
  875SOL    HW1 2624   2.646   3.086   2.881 -2.1376 -2.2571  1.2394
  875SOL    HW2 2625   2.628   2.974   3.002  2.2205  0.8132 -0.2618
  876SOL     OW 2626   0.865   1.045   0.635 -0.1630  0.1155  0.4035
  876SOL    HW1 2627   0.789   0.993   0.588 -0.2703  0.9179 -3.0146
  876SOL    HW2 2628   0.892   1.009   0.727 -2.4105  0.0558  0.0335
  877SOL     OW 2629   1.879   2.824   0.631 -0.1880 -0.0730 -0.7722
  877SOL    HW1 2630   1.849   2.822   0.533 -0.6946 -1.0919 -0.1146
  877SOL    HW2 2631   1.969   2.778   0.645 -1.6759  0.5368 -1.2728
  878SOL     OW 2632   2.477   2.102   0.239  0.6128 -0.2150  0.3032
  878SOL    HW1 2633   2.491   2.025   0.171  0.7182 -1.1395 -1.8243
  878SOL    HW2 2634   2.486   2.191   0.195 -1.5548  0.2958 -1.4326
  879SOL     OW 2635   0.179   2.524   1.766  0.1270 -0.2893 -0.1070
  879SOL    HW1 2636   0.096   2.490   1.816 -0.5149  1.6904  1.2586
  879SOL    HW2 2637   0.203   2.452   1.694  1.6051 -3.0588 -0.2460
  880SOL     OW 2638   0.302   1.658   0.850 -0.4251  0.3468 -0.0629
  880SOL    HW1 2639   0.265   1.742   0.894  0.0575  0.4454 -0.4223
  880SOL    HW2 2640   0.404   1.661   0.841  0.4698 -1.4444  0.7744
  881SOL     OW 2641   1.311   0.324   2.422  0.8194 -0.5627  0.5161
  881SOL    HW1 2642   1.268   0.255   2.482  1.1131  0.0440 -1.0089
  881SOL    HW2 2643   1.248   0.395   2.380 -1.0062 -2.0808 -0.3431
  882SOL     OW 2644   2.684   1.234   0.465  0.0388  0.4554 -0.2222
  882SOL    HW1 2645   2.710   1.310   0.526 -0.6183  0.4267  0.8779
  882SOL    HW2 2646   2.686   1.149   0.520 -2.2272 -1.8639  1.7693
  883SOL     OW 2647   1.555   0.632   2.626 -0.1175  0.0382 -0.6381
  883SOL    HW1 2648   1.620   0.671   2.691  0.7697  0.9868 -0.8194
  883SOL    HW2 2649   1.583   0.637   2.525  2.9082  0.6499 -3.9377
  884SOL     OW 2650   0.019   0.129   2.082 -0.3099  0.0891  0.3377
  884SOL    HW1 2651   0.044   0.129   2.180  0.1540  0.9855 -1.2398
  884SOL    HW2 2652   0.100   0.115   2.016  1.6620  0.6548 -1.8217
  885SOL     OW 2653   1.971   1.320   2.305  0.2249 -0.1316 -0.1752
  885SOL    HW1 2654   1.912   1.236   2.282 -0.0527 -1.1789 -2.5721
  885SOL    HW2 2655   1.916   1.386   2.358 -2.0874 -1.3976 -1.6802
  886SOL     OW 2656   1.816   0.237   2.724 -0.0861 -0.5484  0.3521
  886SOL    HW1 2657   1.903   0.216   2.772  1.8617  1.0371 -1.5431
  886SOL    HW2 2658   1.774   0.153   2.688  0.8878  0.0320  2.3648
  887SOL     OW 2659   1.168   2.827   1.653 -0.1558  0.2819 -0.5719
  887SOL    HW1 2660   1.249   2.887   1.638 -0.3657 -1.1390 -2.0717
  887SOL    HW2 2661   1.194   2.726   1.644  0.0782 -1.3333  2.5997
  888SOL     OW 2662   2.612   1.019   1.347 -0.3510  0.3190 -0.7080
  888SOL    HW1 2663   2.518   1.028   1.394  1.7544 -1.0538 -1.0331
  888SOL    HW2 2664   2.683   1.025   1.420 -1.6225 -1.5758  0.5772
  889SOL     OW 2665   2.006   2.565   1.357  0.4163 -0.8452  0.0091
  889SOL    HW1 2666   1.946   2.638   1.322  0.2872  2.6395 -0.3349
  889SOL    HW2 2667   1.954   2.501   1.415 -1.7410 -0.3904 -1.1647
  890SOL     OW 2668   0.956   2.391   0.855  0.2585  0.5454  0.0360
  890SOL    HW1 2669   1.015   2.312   0.825  1.0133 -1.1634  0.2398
  890SOL    HW2 2670   1.016   2.457   0.896 -0.8222  1.4178  0.9829
  891SOL     OW 2671   2.989   1.477   0.121 -0.2300  0.4692  0.1323
  891SOL    HW1 2672   2.954   1.389   0.163  2.6872  0.4112 -0.7932
  891SOL    HW2 2673   3.010   1.463   0.024 -2.0752  0.6305  1.5681
  892SOL     OW 2674   2.476   1.783   2.402 -0.0880 -0.7445 -0.0984
  892SOL    HW1 2675   2.552   1.802   2.464  0.0901  2.9150  0.8170
  892SOL    HW2 2676   2.506   1.787   2.305 -0.2475  0.6530 -1.2416
  893SOL     OW 2677   2.449   2.532   0.836  0.1223 -0.0333 -0.3021
  893SOL    HW1 2678   2.542   2.507   0.861 -2.2106  1.0764  2.2575
  893SOL    HW2 2679   2.421   2.512   0.736  0.4265 -0.6769 -1.9626
  894SOL     OW 2680   3.092   0.694   0.620  0.2118  0.2221  0.0122
  894SOL    HW1 2681   3.047   0.710   0.711  0.3213 -2.7593 -1.6745
  894SOL    HW2 2682   0.059   0.628   0.614  1.0722  0.4055 -1.1061
  895SOL     OW 2683   2.764   2.462   2.472 -0.7002  0.3236  0.0227
  895SOL    HW1 2684   2.842   2.514   2.518  2.5457 -0.9251 -0.1974
  895SOL    HW2 2685   2.729   2.385   2.528 -1.7513  1.8522  0.9869
  896SOL     OW 2686   1.877   2.568   2.542 -0.5109  0.7381  0.1072
  896SOL    HW1 2687   1.975   2.537   2.560  0.0678 -1.3541  3.0577
  896SOL    HW2 2688   1.815   2.552   2.617  2.1339  1.3300  1.4999
  897SOL     OW 2689   0.073   1.619   1.751 -0.2998  0.5622 -0.2115
  897SOL    HW1 2690   0.031   1.528   1.731  1.3976 -0.8717  2.5999
  897SOL    HW2 2691   0.063   1.686   1.678  0.1929 -1.1360  0.5388
  898SOL     OW 2692   0.118   2.174   2.069 -0.5093  0.2344  0.3214
  898SOL    HW1 2693   0.029   2.151   2.018 -0.2307 -2.4306  1.8046
  898SOL    HW2 2694   0.150   2.267   2.050  0.0049  0.0777 -2.3924
  899SOL     OW 2695   1.641   0.267   1.582 -0.1612 -0.4748  0.1318
  899SOL    HW1 2696   1.563   0.316   1.538  0.8749 -0.7598  0.7564
  899SOL    HW2 2697   1.650   0.170   1.546 -0.4185 -1.3307  0.6055
  900SOL     OW 2698   1.597   1.144   0.220 -0.5850  0.1818 -0.6138
  900SOL    HW1 2699   1.619   1.055   0.173 -0.6964 -2.3600 -2.6900
  900SOL    HW2 2700   1.500   1.170   0.200  0.8794  0.2234  1.2239
  901SOL     OW 2701   1.494   1.254   2.624  0.0656  0.3183  0.1664
  901SOL    HW1 2702   1.472   1.207   2.535 -1.4843 -2.6331 -1.9931
  901SOL    HW2 2703   1.484   1.184   2.699  0.5312 -0.5608  2.3947
  902SOL     OW 2704   3.030   2.498   1.180 -0.4194 -0.3954 -0.0679
  902SOL    HW1 2705   3.082   2.579   1.155  0.4813  1.7839 -0.0627
  902SOL    HW2 2706   3.008   2.454   1.090  0.6028  2.7648  1.9313
  903SOL     OW 2707   2.904   1.247   2.116  0.1135  0.0953 -0.0917
  903SOL    HW1 2708   2.906   1.288   2.209  1.4928 -1.7864 -3.1439
  903SOL    HW2 2709   2.863   1.153   2.130  3.0919  0.3526  2.1873
  904SOL     OW 2710   1.446   1.645   0.094 -0.3762 -0.0406 -0.7117
  904SOL    HW1 2711   1.401   1.579   0.034 -1.1515  3.7057  2.2128
  904SOL    HW2 2712   1.448   1.738   0.049  2.5971  0.4955  0.6611
  905SOL     OW 2713   2.014   2.850   1.807  0.3470 -0.2795 -0.5881
  905SOL    HW1 2714   2.066   2.767   1.845  2.0160 -1.7793  2.0224
  905SOL    HW2 2715   2.075   2.928   1.793 -0.3766 -3.7381 -0.8978
  906SOL     OW 2716   1.633   2.864   3.040  0.3417  0.5421  0.2119
  906SOL    HW1 2717   1.732   2.841   3.045  2.2513  1.9498  0.8093
  906SOL    HW2 2718   1.607   2.854   2.940  1.7167  0.9230 -0.5410
  907SOL     OW 2719   0.382   2.771   1.095 -0.1435  0.0948 -0.2882
  907SOL    HW1 2720   0.425   2.860   1.122  0.7205 -2.9762 -3.4584
  907SOL    HW2 2721   0.373   2.775   0.993  1.4162  0.0599  0.6047
  908SOL     OW 2722   0.762   3.030   1.649 -0.1856  0.4485 -0.3931
  908SOL    HW1 2723   0.823   3.099   1.701 -0.3054  2.1696  2.4519
  908SOL    HW2 2724   0.759   2.933   1.688  1.9567 -1.0285 -1.8594
  909SOL     OW 2725   1.574   0.581   1.356  0.1716 -0.2453  0.1317
  909SOL    HW1 2726   1.641   0.634   1.406 -0.2032 -1.3461 -1.3020
  909SOL    HW2 2727   1.498   0.642   1.319  0.1692 -0.2191 -0.1934
  910SOL     OW 2728   0.652   0.438   0.354  0.0240  0.1134 -0.3027
  910SOL    HW1 2729   0.644   0.436   0.456 -1.4337  0.4045  2.1483
  910SOL    HW2 2730   0.664   0.342   0.321  0.9087 -1.7434 -3.5629
  911SOL     OW 2731   0.299   0.050   3.075 -0.0707  0.0085 -0.2064
  911SOL    HW1 2732   0.244   0.003   0.032 -0.3588  0.8201  0.7549
  911SOL    HW2 2733   0.388   0.001   3.062 -0.1395  1.4642 -0.9074
  912SOL     OW 2734   0.025   2.351   2.667  0.3553 -0.6308  0.1447
  912SOL    HW1 2735   0.094   2.425   2.690  0.7424  1.2114  0.9488
  912SOL    HW2 2736   0.040   2.310   2.575  0.2906 -0.3417 -1.8761
  913SOL     OW 2737   2.215   2.625   0.404  0.1235  0.4940  0.0852
  913SOL    HW1 2738   2.147   2.691   0.364  1.4160 -1.0602  0.0433
  913SOL    HW2 2739   2.304   2.652   0.369 -1.8055 -1.1647 -0.3392
  914SOL     OW 2740   1.485   1.774   1.916 -0.8561 -0.0413  0.2437
  914SOL    HW1 2741   1.554   1.736   1.982 -0.7065 -0.4601 -0.2470
  914SOL    HW2 2742   1.424   1.841   1.959  2.2944 -2.9799  0.2413
  915SOL     OW 2743   2.948   2.780   2.365 -0.3941 -0.1910 -0.5839
  915SOL    HW1 2744   2.970   2.704   2.303 -1.4309 -1.1781  1.3434
  915SOL    HW2 2745   2.854   2.812   2.342  1.6278 -0.2553 -1.8769
  916SOL     OW 2746   3.056   0.708   2.250 -0.4355 -0.2018  0.0177
  916SOL    HW1 2747   3.033   0.802   2.207 -3.7194  1.8069 -1.5016
  916SOL    HW2 2748   0.037   0.672   2.212  0.8655  0.2177 -1.4557
  917SOL     OW 2749   1.809   0.187   3.096 -0.1531  0.0392  0.1479
  917SOL    HW1 2750   1.824   0.205   0.083  1.9493  0.9249 -1.8551
  917SOL    HW2 2751   1.713   0.159   3.079  1.5900  0.7868 -0.1778
  918SOL     OW 2752   1.830   2.664   2.269  0.3329 -0.1830 -0.2258
  918SOL    HW1 2753   1.786   2.756   2.290 -1.4762  4.6242 -1.6704
  918SOL    HW2 2754   1.826   2.603   2.351  1.4971  1.8876  0.6984
  919SOL     OW 2755   1.681   2.179   1.829  1.1283  0.0710  0.0970
  919SOL    HW1 2756   1.670   2.273   1.863  0.2948  0.7781 -0.7873
  919SOL    HW2 2757   1.594   2.128   1.844  0.8794 -0.2525  1.6588
  920SOL     OW 2758   0.294   0.945   0.128  0.3685  0.1506  0.4525
  920SOL    HW1 2759   0.211   0.883   0.141  0.0810 -1.4415  2.8522
  920SOL    HW2 2760   0.353   0.953   0.215  0.7841 -1.7904  1.6321
  921SOL     OW 2761   2.355   1.104   2.495  0.4530  0.2998 -0.6135
  921SOL    HW1 2762   2.293   1.173   2.528  0.6432 -3.5279 -3.4294
  921SOL    HW2 2763   2.445   1.119   2.539 -3.4866 -1.1438 -1.6929
  922SOL     OW 2764   1.069   1.760   2.882  0.6246 -0.1979  0.4742
  922SOL    HW1 2765   0.972   1.794   2.867 -0.2627  1.3976 -0.5969
  922SOL    HW2 2766   1.077   1.668   2.926  1.0799 -1.6991  0.2626
  923SOL     OW 2767   0.532   1.069   2.180  0.9660 -0.1801  0.5775
  923SOL    HW1 2768   0.471   1.001   2.137  1.9564 -0.5151 -3.5027
  923SOL    HW2 2769   0.625   1.050   2.150 -1.2418 -0.0867 -1.0712
  924SOL     OW 2770   0.636   2.452   2.878 -0.6307 -0.0678 -0.3188
  924SOL    HW1 2771   0.665   2.420   2.973  0.3134  0.0493  0.3670
  924SOL    HW2 2772   0.649   2.550   2.878  2.7204 -0.2846 -1.3730
  925SOL     OW 2773   1.651   1.307   0.858  0.0202  0.1413  0.3660
  925SOL    HW1 2774   1.633   1.226   0.921 -1.5338  0.3718 -0.4297
  925SOL    HW2 2775   1.566   1.359   0.851 -0.4661 -1.0391  0.8468
  926SOL     OW 2776   1.547   0.367   2.524  0.3538  0.4940  0.1452
  926SOL    HW1 2777   1.451   0.357   2.491  0.4509 -2.1372  0.5579
  926SOL    HW2 2778   1.566   0.455   2.569  0.5134  0.8621 -2.1464
  927SOL     OW 2779   2.604   2.952   2.150 -0.0914  0.1388  0.3527
  927SOL    HW1 2780   2.535   2.879   2.143  1.6462  1.0157 -0.2964
  927SOL    HW2 2781   2.637   2.989   2.060 -0.4585 -0.1905  0.2247
  928SOL     OW 2782   0.390   1.439   2.842  0.1572 -0.4375 -0.1693
  928SOL    HW1 2783   0.409   1.516   2.912 -0.1688  2.0893  0.0651
  928SOL    HW2 2784   0.458   1.443   2.769  0.5944 -1.9859  1.0190
  929SOL     OW 2785   3.109   0.105   0.757  0.0544  0.0864  0.1479
  929SOL    HW1 2786   3.098   0.100   0.657 -0.8918 -2.0689  2.9714
  929SOL    HW2 2787   0.067   0.031   0.783  0.8772 -0.4774 -1.3104
  930SOL     OW 2788   2.206   0.344   1.949  0.0565  0.2286 -0.0063
  930SOL    HW1 2789   2.112   0.389   1.935  1.2396 -1.3968 -1.0293
  930SOL    HW2 2790   2.237   0.292   1.864  1.9903  1.0223  0.0364
  931SOL     OW 2791   2.446   1.224   0.003  0.6068  0.1249 -0.0762
  931SOL    HW1 2792   2.407   1.214   0.093  2.3775  3.2232 -1.8223
  931SOL    HW2 2793   2.542   1.214   0.016 -4.5004 -3.2459  0.0761
  932SOL     OW 2794   2.500   1.554   1.296  0.2061  0.4336  0.4654
  932SOL    HW1 2795   2.594   1.518   1.300  0.3089  2.3617 -0.0285
  932SOL    HW2 2796   2.471   1.582   1.203  0.2483  0.7815 -0.9356
  933SOL     OW 2797   2.699   2.436   1.663 -0.1363  0.3842 -0.3478
  933SOL    HW1 2798   2.747   2.378   1.737 -0.8797 -0.9960  0.4826
  933SOL    HW2 2799   2.656   2.515   1.715 -0.1434 -2.3361 -0.8940
  934SOL     OW 2800   0.616   2.923   1.111  0.5090  0.3962 -0.5681
  934SOL    HW1 2801   0.636   2.825   1.083 -0.7513 -1.1712 -0.4157
  934SOL    HW2 2802   0.702   2.970   1.141 -0.4249 -1.8813 -0.3989
  935SOL     OW 2803   2.427   0.957   2.167  0.4673 -0.3810  0.0635
  935SOL    HW1 2804   2.514   0.999   2.174 -3.2705 -0.5603  0.8968
  935SOL    HW2 2805   2.371   0.978   2.250  2.1567 -2.6168  0.8394
  936SOL     OW 2806   2.219   0.952   1.972  0.5517  0.0354  0.0519
  936SOL    HW1 2807   2.263   0.945   1.882  0.4288 -1.3598 -1.2562
  936SOL    HW2 2808   2.290   0.946   2.045 -0.2458 -0.8484 -1.9736
  937SOL     OW 2809   1.779   1.153   1.958 -0.3291  0.2664  0.6407
  937SOL    HW1 2810   1.698   1.162   1.900 -0.9901  3.3003  1.5862
  937SOL    HW2 2811   1.847   1.090   1.915 -0.9676  1.4135  2.3074
  938SOL     OW 2812   0.518   2.601   0.049  0.2548  0.5285 -0.4161
  938SOL    HW1 2813   0.538   2.685   0.101  0.1020  0.8845 -1.0636
  938SOL    HW2 2814   0.427   2.564   0.078 -1.6486 -1.4402  0.5195
  939SOL     OW 2815   2.310   0.584   2.980  0.1799 -0.0406 -0.2776
  939SOL    HW1 2816   2.266   0.570   2.894 -1.3756 -0.5803  1.5330
  939SOL    HW2 2817   2.409   0.595   2.974 -0.9405  0.6533 -0.5083
  940SOL     OW 2818   1.135   2.205   0.814 -0.2914  0.0036 -0.4882
  940SOL    HW1 2819   1.192   2.161   0.885  0.2639  0.3871 -1.6179
  940SOL    HW2 2820   1.102   2.137   0.747  1.3034 -0.1253  1.8828
  941SOL     OW 2821   1.034   2.127   1.571 -0.5375 -0.6394 -0.2816
  941SOL    HW1 2822   0.963   2.181   1.520 -3.1376  1.8532  0.9687
  941SOL    HW2 2823   1.006   2.034   1.601  0.9370  0.2900  1.4724
  942SOL     OW 2824   0.032   2.093   3.079 -0.0652  0.2299 -0.0024
  942SOL    HW1 2825   0.081   2.007   3.081 -0.0252  1.1794  0.1026
  942SOL    HW2 2826   3.075   2.101   3.005 -0.1316  3.2946 -0.9438
  943SOL     OW 2827   1.997   0.026   1.647  0.3751  0.4610  0.7963
  943SOL    HW1 2828   1.990   3.057   1.582  0.9744  0.3356 -0.3678
  943SOL    HW2 2829   2.011   0.116   1.599 -1.1893 -0.0926 -0.9201
  944SOL     OW 2830   1.685   2.145   2.785 -0.3955  0.0452  0.5164
  944SOL    HW1 2831   1.608   2.106   2.724 -0.9933  1.8778  0.3776
  944SOL    HW2 2832   1.772   2.099   2.755  1.3098 -1.8470  0.5856
  945SOL     OW 2833   2.568   2.233   0.796  0.2230  0.0748 -0.1569
  945SOL    HW1 2834   2.644   2.167   0.807 -2.1407  0.4188 -2.8481
  945SOL    HW2 2835   2.500   2.178   0.748  2.5536  1.0998  3.7028
  946SOL     OW 2836   1.207   1.408   2.652 -0.4711  0.6291  0.6933
  946SOL    HW1 2837   1.114   1.446   2.614 -0.8632 -0.1071 -1.9343
  946SOL    HW2 2838   1.264   1.486   2.678 -0.9086 -3.6019  2.3375
  947SOL     OW 2839   0.195   0.634   2.141 -0.2171  0.0593  0.3525
  947SOL    HW1 2840   0.265   0.713   2.134  1.2359 -0.6347  1.5181
  947SOL    HW2 2841   0.242   0.555   2.191  3.1827  0.1815  2.1070
  948SOL     OW 2842   0.004   1.313   0.910  0.5841  0.1595  0.4104
  948SOL    HW1 2843   0.092   1.357   0.883  2.4064  2.9786  0.1403
  948SOL    HW2 2844   3.095   1.224   0.866 -0.3541  0.1194 -1.7136
  949SOL     OW 2845   0.624   0.729   2.480 -0.0128  0.3892 -0.0992
  949SOL    HW1 2846   0.575   0.693   2.557  1.7566  3.4762 -1.3917
  949SOL    HW2 2847   0.602   0.680   2.395 -0.8493  0.1777  1.3612
  950SOL     OW 2848   0.224   0.546   1.530 -0.2489  0.1575 -0.0548
  950SOL    HW1 2849   0.205   0.451   1.548  1.0785  0.2108  0.6443
  950SOL    HW2 2850   0.144   0.604   1.554 -0.0717  0.4446 -0.7531
  951SOL     OW 2851   0.453   1.132   2.869  0.1160  0.1791 -0.0884
  951SOL    HW1 2852   0.424   1.225   2.898  2.6128  1.4013  0.3587
  951SOL    HW2 2853   0.400   1.059   2.920  0.9788 -0.7017  3.1445
  952SOL     OW 2854   1.787   2.130   0.981 -0.3605  0.1777 -0.0806
  952SOL    HW1 2855   1.698   2.179   0.975  1.4823  1.5885  2.6173
  952SOL    HW2 2856   1.846   2.183   1.042 -0.1226 -2.6442  0.4692
  953SOL     OW 2857   0.574   2.843   0.186  0.0593 -0.0284 -0.3684
  953SOL    HW1 2858   0.562   2.827   0.289  0.7707  0.9693  2.2779
  953SOL    HW2 2859   0.515   2.917   0.146 -1.1055 -3.4667 -1.1569
  954SOL     OW 2860   2.692   0.788   1.212  0.2868 -0.0469  0.3180
  954SOL    HW1 2861   2.639   0.853   1.270 -0.2903 -2.2130 -1.6331
  954SOL    HW2 2862   2.658   0.692   1.210  1.5292 -2.9610  0.1692
  955SOL     OW 2863   1.795   1.308   2.926 -0.8518  0.0618  0.3109
  955SOL    HW1 2864   1.875   1.352   2.890 -1.6559 -3.6770  1.5418
  955SOL    HW2 2865   1.814   1.209   2.939 -0.8380 -0.3541 -0.7108
  956SOL     OW 2866   1.277   0.879   2.649  0.0636  0.3685  0.3788
  956SOL    HW1 2867   1.188   0.922   2.670  0.9896 -2.7873  1.5948
  956SOL    HW2 2868   1.282   0.777   2.671 -0.0166  0.6931 -2.0423
  957SOL     OW 2869   1.100   0.319   1.700  0.2963  0.4874 -0.2761
  957SOL    HW1 2870   1.187   0.349   1.740 -0.2233  2.0873 -0.3424
  957SOL    HW2 2871   1.106   0.308   1.596 -0.5647 -1.4971 -3.2395
  958SOL     OW 2872   0.304   1.979   0.444 -0.1494  0.1605  0.0025
  958SOL    HW1 2873   0.241   1.922   0.490  2.1341  1.1136 -0.9424
  958SOL    HW2 2874   0.268   2.023   0.361  1.1555  1.6539  1.0871
  959SOL     OW 2875   1.948   1.003   1.816  0.0777 -0.4395 -0.4193
  959SOL    HW1 2876   2.040   1.045   1.837  0.7988 -1.1037 -1.4135
  959SOL    HW2 2877   1.966   0.902   1.797 -0.7126 -0.1961 -0.2266
  960SOL     OW 2878   0.397   1.662   2.982  0.2567 -0.3906  0.3977
  960SOL    HW1 2879   0.401   1.749   2.935  0.2765 -1.4439  3.8366
  960SOL    HW2 2880   0.449   1.659   3.072  1.1023  1.4548  1.1705
  961SOL     OW 2881   0.622   1.936   0.914 -0.3075 -1.0279  0.5740
  961SOL    HW1 2882   0.533   1.987   0.905 -3.6008  0.8299 -1.6143
  961SOL    HW2 2883   0.707   1.997   0.907  3.7280 -1.5880 -1.1737
  962SOL     OW 2884   0.365   1.695   1.522  0.6765 -0.1758  0.0108
  962SOL    HW1 2885   0.396   1.709   1.429 -0.4019  0.8782 -0.6185
  962SOL    HW2 2886   0.337   1.598   1.545  0.1808 -2.1132 -3.2388
  963SOL     OW 2887   1.543   2.011   2.607 -0.1887  0.3036  0.6044
  963SOL    HW1 2888   1.497   2.067   2.541 -0.9417 -2.2164  2.2907
  963SOL    HW2 2889   1.613   1.950   2.566  0.7187  1.0334 -1.3025
  964SOL     OW 2890   0.095   2.958   2.232  0.2354  0.1023  0.1672
  964SOL    HW1 2891   0.101   2.863   2.262 -2.1092  0.8362 -0.3438
  964SOL    HW2 2892   0.002   2.968   2.190  2.4957 -0.7333  4.1817
  965SOL     OW 2893   2.976   2.177   2.844  0.3118 -0.5745  0.3487
  965SOL    HW1 2894   3.039   2.248   2.806  1.5581 -0.0133 -0.1094
  965SOL    HW2 2895   2.964   2.106   2.773 -0.6471  1.2558 -0.2386
  966SOL     OW 2896   2.992   1.775   2.900  0.3747  0.5675 -0.4991
  966SOL    HW1 2897   2.915   1.738   2.957 -0.2853  0.5577 -1.4546
  966SOL    HW2 2898   3.067   1.708   2.905 -1.0507 -0.6274 -1.7152
  967SOL     OW 2899   1.850   0.176   0.276 -0.2131  0.1234  0.2313
  967SOL    HW1 2900   1.850   0.260   0.333 -1.0488  1.2353  0.3802
  967SOL    HW2 2901   1.901   0.104   0.321  0.6536 -1.5962 -2.3804
  968SOL     OW 2902   2.606   3.105   0.767 -0.5174  0.6439 -0.0765
  968SOL    HW1 2903   2.563   3.020   0.806  0.2296 -0.8079 -1.4124
  968SOL    HW2 2904   2.546   0.076   0.793  0.6887  0.3765  3.1830
  969SOL     OW 2905   0.177   1.022   1.950  0.4861 -0.1258  0.5121
  969SOL    HW1 2906   0.150   0.982   1.865  0.6852 -1.9051 -0.6363
  969SOL    HW2 2907   0.205   1.117   1.940  0.5808  3.9038 -1.3706
  970SOL     OW 2908   1.901   1.742   2.720  0.1246 -0.4437  0.3998
  970SOL    HW1 2909   1.989   1.694   2.705  0.9368 -0.7080  1.9053
  970SOL    HW2 2910   1.852   1.726   2.806 -2.3802  2.0005  0.8164
  971SOL     OW 2911   2.260   0.206   1.716  0.0325  0.2963 -0.1966
  971SOL    HW1 2912   2.180   0.239   1.661  1.2653  0.8583  2.5850
  971SOL    HW2 2913   2.333   0.165   1.665 -1.8738 -0.0769 -0.6710
  972SOL     OW 2914   3.034   0.375   0.894  0.1426  0.1942  0.5774
  972SOL    HW1 2915   2.948   0.367   0.838  3.1780  1.0825  0.8954
  972SOL    HW2 2916   3.108   0.322   0.854  2.3861  3.4458  0.6892
  973SOL     OW 2917   0.325   0.441   2.283 -0.1775 -0.0016 -0.0676
  973SOL    HW1 2918   0.337   0.375   2.204  0.0518  0.5894 -1.6195
  973SOL    HW2 2919   0.354   0.401   2.372  2.2967 -1.4098 -2.0147
  974SOL     OW 2920   2.689   0.854   1.738  0.3924 -0.6886  0.1372
  974SOL    HW1 2921   2.648   0.937   1.785  2.5108  1.4367 -0.3557
  974SOL    HW2 2922   2.685   0.772   1.799  2.6187  1.4782 -1.4530
  975SOL     OW 2923   1.612   2.872   2.077  0.1658 -0.7580 -0.4501
  975SOL    HW1 2924   1.673   2.906   2.009  0.9891 -1.6132  1.1365
  975SOL    HW2 2925   1.542   2.812   2.033  0.1975  1.5617 -1.6003
  976SOL     OW 2926   1.868   1.496   1.327  0.3521  0.6084  0.1096
  976SOL    HW1 2927   1.898   1.474   1.420 -0.7196  0.6302 -0.9088
  976SOL    HW2 2928   1.948   1.530   1.273 -1.4136  1.7425  1.4059
  977SOL     OW 2929   0.215   2.798   3.008  0.1229  0.1571  0.4904
  977SOL    HW1 2930   0.298   2.798   2.949  1.6215 -1.7687 -1.5028
  977SOL    HW2 2931   0.194   2.707   3.048  1.8566  2.7485 -1.2724
  978SOL     OW 2932   1.993   1.356   2.031 -0.3026 -0.3386 -0.7818
  978SOL    HW1 2933   1.910   1.301   2.026  0.9706  0.8532  0.1441
  978SOL    HW2 2934   2.013   1.362   2.130  0.3201  0.1113  1.2319
  979SOL     OW 2935   1.187   0.999   2.177  0.7165 -0.2876  0.3794
  979SOL    HW1 2936   1.154   1.087   2.205 -2.4346 -0.5058 -0.6879
  979SOL    HW2 2937   1.164   0.989   2.075 -0.5116  0.6600 -2.9143
  980SOL     OW 2938   1.760   1.804   2.498 -0.6742 -0.7019  0.3211
  980SOL    HW1 2939   1.785   1.890   2.447  2.0634  1.0157 -3.0049
  980SOL    HW2 2940   1.820   1.787   2.575  1.0886 -2.6512 -0.0786
  981SOL     OW 2941   1.607   0.718   2.104 -0.1810  0.4174 -0.0740
  981SOL    HW1 2942   1.635   0.764   2.013 -0.9953  0.9696  0.1661
  981SOL    HW2 2943   1.514   0.747   2.134 -2.9020  0.5482 -1.1559
  982SOL     OW 2944   0.514   0.164   0.198  0.5266  0.1880 -0.3013
  982SOL    HW1 2945   0.434   0.210   0.246  0.3166 -2.3113 -0.7186
  982SOL    HW2 2946   0.506   0.188   0.099  1.2692  0.9265 -0.1874
  983SOL     OW 2947   2.199   0.564   2.743  0.2957  0.5391  0.1444
  983SOL    HW1 2948   2.206   0.657   2.701  1.9485  2.6093  1.0388
  983SOL    HW2 2949   2.123   0.509   2.700  0.7674  0.8389 -1.2596
  984SOL     OW 2950   1.030   0.249   2.649 -0.3309  0.0773 -0.1647
  984SOL    HW1 2951   0.930   0.249   2.654  0.9552  1.2564 -3.7751
  984SOL    HW2 2952   1.072   0.205   2.731  0.5425 -0.9555  0.1786
  985SOL     OW 2953   1.304   2.506   1.885  0.2647 -0.5867 -0.0471
  985SOL    HW1 2954   1.320   2.404   1.898  1.0944  1.1170 -0.4854
  985SOL    HW2 2955   1.202   2.526   1.872 -1.6034  1.9570 -1.4826
  986SOL     OW 2956   2.225   3.035   1.766 -0.1368 -0.0557 -0.1107
  986SOL    HW1 2957   2.180   0.007   1.721  0.0609  0.2549  1.6188
  986SOL    HW2 2958   2.284   3.072   1.843  2.7976  1.4717  3.9413
  987SOL     OW 2959   1.939   1.221   0.819 -0.5321 -0.1774 -0.2434
  987SOL    HW1 2960   1.939   1.131   0.865  0.1796 -0.4302  1.3093
  987SOL    HW2 2961   1.847   1.266   0.826 -2.7871  2.1318 -1.1077
  988SOL     OW 2962   2.370   1.082   1.491  0.0847 -0.1169 -0.1071
  988SOL    HW1 2963   2.308   1.088   1.412  2.8440  1.5720  0.7135
  988SOL    HW2 2964   2.356   1.159   1.559  0.5740 -0.4550 -1.6028
  989SOL     OW 2965   1.752   1.964   2.983 -0.3392 -0.1395  0.3328
  989SOL    HW1 2966   1.714   2.009   2.901  0.2673 -1.7862  0.4870
  989SOL    HW2 2967   1.828   2.023   3.020  1.8306  4.0184 -0.4334
  990SOL     OW 2968   1.741   0.881   2.613 -0.2195 -0.2237  0.3494
  990SOL    HW1 2969   1.753   0.984   2.609  0.3993  2.2297  1.9049
  990SOL    HW2 2970   1.800   0.836   2.685  1.2612 -0.5347  1.3477
  991SOL     OW 2971   1.018   0.728   0.653 -0.0184 -0.2116  0.0186
  991SOL    HW1 2972   1.099   0.756   0.600 -2.1028  1.0249  0.1210
  991SOL    HW2 2973   0.984   0.797   0.713 -1.8265 -0.8452 -2.8506
  992SOL     OW 2974   3.100   0.843   1.194 -0.9057 -0.2117  0.1771
  992SOL    HW1 2975   3.043   0.913   1.152 -0.0475 -1.3150  1.6500
  992SOL    HW2 2976   3.060   0.748   1.178  0.9067 -2.6413 -1.2852
  993SOL     OW 2977   2.020   0.656   1.763  0.8524 -0.1906 -0.8564
  993SOL    HW1 2978   1.966   0.573   1.732 -1.9921 -2.5232 -0.3419
  993SOL    HW2 2979   2.116   0.658   1.736 -2.5630 -0.9574 -1.7981
  994SOL     OW 2980   1.367   1.879   1.677 -0.5617  0.2975  0.3160
  994SOL    HW1 2981   1.455   1.877   1.730  2.1102  0.4786  0.8433
  994SOL    HW2 2982   1.286   1.858   1.735 -1.0922 -0.2219 -3.4718
  995SOL     OW 2983   2.154   1.607   2.748 -0.2077  0.1559  0.2826
  995SOL    HW1 2984   2.234   1.593   2.683  0.3590  0.1526  0.3632
  995SOL    HW2 2985   2.177   1.685   2.805 -1.0671 -2.8270 -1.9021
  996SOL     OW 2986   2.250   1.749   0.475  0.4834  0.4199 -0.6720
  996SOL    HW1 2987   2.265   1.733   0.573 -0.1733 -1.3890 -0.0133
  996SOL    HW2 2988   2.287   1.673   0.420 -1.8906 -0.2033 -1.4944
  997SOL     OW 2989   1.943   0.421   1.902  0.1661 -0.5314 -0.1550
  997SOL    HW1 2990   1.868   0.447   1.965  0.4131  2.3429 -3.6726
  997SOL    HW2 2991   1.905   0.421   1.807 -1.5376  1.2344 -0.9260
  998SOL     OW 2992   2.705   0.635   0.674  0.8570 -0.3105  0.2870
  998SOL    HW1 2993   2.731   0.663   0.770  0.0743  1.0050 -1.8667
  998SOL    HW2 2994   2.755   0.689   0.600  1.1933  2.2307  1.0767
  999SOL     OW 2995   2.651   1.440   0.270 -0.7162  1.0098  0.4472
  999SOL    HW1 2996   2.692   1.523   0.309 -1.4562  1.5091 -1.3589
  999SOL    HW2 2997   2.662   1.364   0.336 -2.6721  0.7061 -0.8063
 1000SOL     OW 2998   0.729   1.276   1.950  0.6934 -0.2420 -0.2243
 1000SOL    HW1 2999   0.640   1.324   1.928 -1.5915  1.9245 -1.1867
 1000SOL    HW2 3000   0.748   1.188   1.898  0.9120 -2.9379 -0.5867
   3.11013   3.11013   3.11013
