1000 SPC/Fw water molecules t=  40.00000 step= 40000
 3000
    1SOL     OW    1   2.030   2.577   0.501  0.2172  0.3771 -0.3403
    1SOL    HW1    2   2.063   2.600   0.413 -0.2142 -0.8773  2.4519
    1SOL    HW2    3   1.931   2.547   0.497  0.7427  1.0519 -1.9002
    2SOL     OW    4   1.222   0.652   2.096  0.3794  0.3685 -0.1144
    2SOL    HW1    5   1.312   0.607   2.118  1.4280 -2.7576 -0.1455
    2SOL    HW2    6   1.187   0.707   2.176 -0.6655  2.3926 -0.4131
    3SOL     OW    7   1.046   2.840   2.784  0.3350 -0.5851 -0.1654
    3SOL    HW1    8   1.081   2.848   2.877  3.6540 -0.6692  3.4605
    3SOL    HW2    9   0.998   2.756   2.755  0.7278  0.3419 -0.0989
    4SOL     OW   10   1.279   1.356   2.977  0.4333  0.0285  0.2730
    4SOL    HW1   11   1.353   1.315   2.917 -0.1461 -2.5666 -2.2003
    4SOL    HW2   12   1.295   1.456   2.994  0.4624  1.2798  0.4973
    5SOL     OW   13   0.637   1.188   2.187 -0.9778  0.0352 -0.3638
    5SOL    HW1   14   0.734   1.199   2.156  1.3960  2.2959 -2.9321
    5SOL    HW2   15   0.578   1.231   2.117  0.3370 -1.4961  1.3932
    6SOL     OW   16   2.116   0.788   2.566  0.0340 -0.2966 -0.1079
    6SOL    HW1   17   2.100   0.688   2.585 -0.5595 -0.7320 -0.1300
    6SOL    HW2   18   2.199   0.809   2.513 -2.4608  1.0242  1.7748
    7SOL     OW   19   0.463   0.667   1.466 -0.6653 -0.3059 -0.5624
    7SOL    HW1   20   0.481   0.649   1.369 -0.0117  1.8461  1.9840
    7SOL    HW2   21   0.529   0.623   1.533 -0.1977 -0.2379  0.6659
    8SOL     OW   22   1.865   2.889   1.835  0.0214  0.3954  0.2692
    8SOL    HW1   23   1.764   2.904   1.840 -0.3697  3.1113 -0.4171
    8SOL    HW2   24   1.903   2.945   1.754  0.5321  1.1387  0.1265
    9SOL     OW   25   0.143   3.012   0.691  0.5270  0.2041  0.3941
    9SOL    HW1   26   0.207   0.008   0.683  0.7274 -0.3516  0.9157
    9SOL    HW2   27   0.057   3.043   0.745 -2.8581  1.6866  2.9558
   10SOL     OW   28   0.133   2.263   2.453  0.1712 -0.2719  0.1499
   10SOL    HW1   29   0.226   2.304   2.433 -1.5393  1.1391 -1.9014
   10SOL    HW2   30   0.138   2.195   2.525  0.3712  2.1988 -1.9781
   11SOL     OW   31   0.836   1.593   2.992  0.7850 -0.3633 -0.0800
   11SOL    HW1   32   0.891   1.509   2.998 -0.3174  1.4881  0.4172
   11SOL    HW2   33   0.888   1.678   3.015  1.3993  0.4806  0.3142
   12SOL     OW   34   2.207   2.730   1.105  0.2702 -0.4984 -0.0381
   12SOL    HW1   35   2.283   2.755   1.043 -0.3014 -1.9957  0.6798
   12SOL    HW2   36   2.130   2.702   1.045 -0.6788  2.1532 -0.7790
   13SOL     OW   37   0.325   2.674   3.036  1.1218 -0.3331 -0.4447
   13SOL    HW1   38   0.340   2.708   0.045  1.3496 -1.7626  0.3485
   13SOL    HW2   39   0.385   2.715   2.966 -0.2290  0.6024 -0.7890
   14SOL     OW   40   1.278   1.468   1.322  0.0642  0.4467  0.3975
   14SOL    HW1   41   1.318   1.374   1.333  0.5075  0.4753  2.0609
   14SOL    HW2   42   1.256   1.506   1.412 -0.2620  1.2550 -1.8101
   15SOL     OW   43   0.325   1.471   2.355  0.6107 -0.1650  0.4044
   15SOL    HW1   44   0.357   1.494   2.261  0.3339 -1.0667 -1.9559
   15SOL    HW2   45   0.232   1.438   2.346  1.7866 -0.8102 -2.7696
   16SOL     OW   46   1.670   0.610   2.557  0.0390 -0.6188 -0.2360
   16SOL    HW1   47   1.580   0.572   2.537 -0.2861  1.2177  2.4598
   16SOL    HW2   48   1.670   0.699   2.610  2.0398 -0.9005  1.9807
   17SOL     OW   49   2.876   2.689   2.343  0.2710  0.0910 -0.0980
   17SOL    HW1   50   2.777   2.699   2.368  2.1826 -0.6616  2.2183
   17SOL    HW2   51   2.926   2.626   2.401 -1.4009  2.6495 -0.1885
   18SOL     OW   52   1.445   1.098   0.508  0.6868  0.0311 -0.5739
   18SOL    HW1   53   1.361   1.098   0.561  1.2837  0.4921  0.8408
   18SOL    HW2   54   1.521   1.121   0.570 -0.7496  0.0905  0.7866
   19SOL     OW   55   3.035   1.573   2.356 -0.0211  0.2990 -0.2359
   19SOL    HW1   56   3.059   1.497   2.293 -0.6236  0.9683  0.3039
   19SOL    HW2   57   3.071   1.663   2.320 -0.9613  3.7384 -2.3591
   20SOL     OW   58   2.132   2.476   2.547  0.6911  0.2119 -0.5740
   20SOL    HW1   59   2.209   2.433   2.593  1.6532  2.7293 -1.5471
   20SOL    HW2   60   2.102   2.427   2.464  0.0865  2.5620  0.4568
   21SOL     OW   61   1.759   1.986   0.844  0.1565 -0.0607 -0.3692
   21SOL    HW1   62   1.759   2.056   0.774 -1.7494 -0.2979 -0.8262
   21SOL    HW2   63   1.726   2.024   0.931  0.6222 -0.4321 -1.9887
   22SOL     OW   64   2.310   2.108   1.311  0.3874  0.5060  0.3021
   22SOL    HW1   65   2.301   2.140   1.215  1.5993 -0.7403  2.8224
   22SOL    HW2   66   2.260   2.164   1.378 -0.1924 -2.0637  0.2271
   23SOL     OW   67   3.029   1.377   1.449  0.5509  0.8452  0.4416
   23SOL    HW1   68   3.000   1.465   1.407 -1.2688 -0.9575 -1.1805
   23SOL    HW2   69   2.941   1.319   1.452 -0.8246  0.5123 -2.3014
   24SOL     OW   70   1.760   1.109   2.078 -0.9626 -0.8741 -0.3091
   24SOL    HW1   71   1.729   1.032   2.020 -0.0276  4.5671  0.9614
   24SOL    HW2   72   1.781   1.192   2.021  0.8124 -0.8224  0.0639
   25SOL     OW   73   1.750   0.098   2.186  0.3008 -0.2886 -0.1449
   25SOL    HW1   74   1.774   0.160   2.260 -0.9215 -2.9643 -1.8545
   25SOL    HW2   75   1.821   0.108   2.116  0.2941  0.8977  1.0122
   26SOL     OW   76   1.001   0.409   0.405  0.0811  0.2176  0.2064
   26SOL    HW1   77   0.965   0.369   0.318 -0.1445 -1.0461  0.3241
   26SOL    HW2   78   1.033   0.504   0.393  1.7724  0.8768  2.2257
   27SOL     OW   79   0.950   1.318   0.707  0.4916 -0.1519 -0.5844
   27SOL    HW1   80   0.915   1.355   0.619  2.6411 -1.2888 -0.1157
   27SOL    HW2   81   0.967   1.396   0.773  1.9163 -0.9031  0.4620
   28SOL     OW   82   2.336   2.192   1.044 -0.8982  0.0006  0.0910
   28SOL    HW1   83   2.282   2.271   1.075  0.3168 -0.8487 -2.5596
   28SOL    HW2   84   2.435   2.211   1.018  1.5015 -0.4424 -0.2458
   29SOL     OW   85   2.258   2.990   1.979 -0.1131 -0.4226  0.0701
   29SOL    HW1   86   2.158   2.984   2.005 -1.7068  0.7174 -2.8946
   29SOL    HW2   87   2.284   2.913   1.918  2.3174  0.2364  0.3166
   30SOL     OW   88   0.170   2.652   1.779  0.4007  0.3385 -0.2022
   30SOL    HW1   89   0.110   2.569   1.786 -0.3388  2.2343  1.4868
   30SOL    HW2   90   0.145   2.706   1.701  2.9150 -2.4457  0.4981
   31SOL     OW   91   0.052   1.805   2.166 -0.1721  0.1363  0.3683
   31SOL    HW1   92   3.070   1.880   2.184  0.9778  1.8230 -0.0553
   31SOL    HW2   93   0.037   1.782   2.067 -1.8435 -1.8933 -2.0051
   32SOL     OW   94   1.638   2.294   2.220  0.4002 -0.1151  0.5022
   32SOL    HW1   95   1.583   2.362   2.159 -0.7748  0.3185  0.9780
   32SOL    HW2   96   1.626   2.327   2.316  2.3506 -1.9400 -0.1669
   33SOL     OW   97   0.217   0.070   2.786  0.7095  0.2292 -0.1493
   33SOL    HW1   98   0.272   0.010   2.845 -1.5101 -1.0361 -0.7699
   33SOL    HW2   99   0.137   0.116   2.833  0.6872 -3.4647  0.5261
   34SOL     OW  100   2.565   0.049   0.380 -0.1349  0.3119 -0.0275
   34SOL    HW1  101   2.618   0.081   0.464 -0.7954  0.4951  2.8016
   34SOL    HW2  102   2.503   0.126   0.360  1.6580 -1.3997  0.5479
   35SOL     OW  103   2.839   2.771   1.670 -0.6405  0.2383  0.2806
   35SOL    HW1  104   2.778   2.813   1.595 -1.6528  2.1622 -0.3356
   35SOL    HW2  105   2.802   2.678   1.697  0.8378  1.1591  1.8304
   36SOL     OW  106   2.628   3.046   2.298 -0.1287 -0.2424  0.6616
   36SOL    HW1  107   2.651   3.029   2.394 -1.1106  1.2314 -3.4909
   36SOL    HW2  108   2.692   0.035   2.267  0.6955  3.8182 -1.1763
   37SOL     OW  109   1.504   0.076   0.137  0.4812  0.2260  0.0594
   37SOL    HW1  110   1.592   0.094   0.186  0.4468  1.7670  1.7313
   37SOL    HW2  111   1.484   3.060   0.134 -1.4605  0.5260  0.9927
   38SOL     OW  112   0.323   0.395   0.064  0.0909  0.1500  0.3449
   38SOL    HW1  113   0.368   0.468   0.123 -1.2863 -2.5478  1.6305
   38SOL    HW2  114   0.369   0.386   3.054  1.8429  0.2538 -0.9608
   39SOL     OW  115   1.344   1.720   2.123 -0.0632  0.7594 -0.5173
   39SOL    HW1  116   1.404   1.640   2.146  1.1642 -0.4087 -0.4765
   39SOL    HW2  117   1.311   1.757   2.209  3.4754  0.1178 -0.7824
   40SOL     OW  118   0.081   0.511   2.471  0.1190  0.4078 -0.5031
   40SOL    HW1  119   0.147   0.574   2.426  0.4126 -1.0715 -0.3720
   40SOL    HW2  120   0.135   0.449   2.528 -0.6620 -0.2154  1.2536
   41SOL     OW  121   1.406   1.019   2.118 -0.2759  0.6177  0.1269
   41SOL    HW1  122   1.382   0.978   2.027  1.2979 -0.3116  1.9211
   41SOL    HW2  123   1.454   0.949   2.178 -1.1860  1.3288  2.4504
   42SOL     OW  124   2.757   0.066   1.466 -0.3019 -0.1843  0.0487
   42SOL    HW1  125   2.660   0.090   1.472  2.9874 -0.8746  0.4357
   42SOL    HW2  126   2.775   3.078   1.540 -0.9492 -1.0284  0.4044
   43SOL     OW  127   1.411   1.108   1.605 -0.4036 -0.0335 -0.5314
   43SOL    HW1  128   1.407   1.136   1.704  1.2281 -2.2466  0.8988
   43SOL    HW2  129   1.494   1.053   1.592 -1.7885 -0.1246  1.6087
   44SOL     OW  130   0.014   0.055   0.003  0.2038  0.2576  0.3171
   44SOL    HW1  131   0.067   0.121   0.053  0.2925 -0.1909  0.8623
   44SOL    HW2  132   3.069   3.062   0.066  0.5057 -2.4657  0.5123
   45SOL     OW  133   0.442   1.933   1.559 -0.2039  0.1352  0.6463
   45SOL    HW1  134   0.436   2.012   1.499  2.5859  4.0619 -2.2781
   45SOL    HW2  135   0.481   1.854   1.500 -0.7116 -2.7943  0.1022
   46SOL     OW  136   2.396   2.819   1.758 -0.2802  0.9281 -0.5555
   46SOL    HW1  137   2.460   2.902   1.760  1.5825 -2.7079 -0.1533
   46SOL    HW2  138   2.434   2.748   1.826  3.3055 -0.9298  2.9997
   47SOL     OW  139   0.553   1.887   1.213 -0.1190 -0.2056 -0.0200
   47SOL    HW1  140   0.571   1.806   1.275 -0.9893  1.6729  0.0473
   47SOL    HW2  141   0.545   1.853   1.120 -2.2367 -0.1529  2.4846
   48SOL     OW  142   0.515   2.729   2.857  0.1494 -0.0847  0.1914
   48SOL    HW1  143   0.504   2.641   2.805 -1.3513  2.7365 -1.7887
   48SOL    HW2  144   0.580   2.721   2.934 -1.0702  2.1020  1.5738
   49SOL     OW  145   2.910   1.501   1.768 -0.5378 -0.1242 -0.1557
   49SOL    HW1  146   2.979   1.437   1.733 -1.1802  1.1848 -1.9594
   49SOL    HW2  147   2.878   1.567   1.696 -1.3650  0.2653 -0.7266
   50SOL     OW  148   1.459   2.804   0.565  0.0202 -0.2596 -0.6085
   50SOL    HW1  149   1.458   2.789   0.668  2.4477 -1.0364  1.2004
   50SOL    HW2  150   1.402   2.888   0.550 -0.9545 -0.5302 -0.0089
   51SOL     OW  151   1.052   0.105   0.970  0.3708 -0.3553 -0.5107
   51SOL    HW1  152   1.081   0.156   1.059  2.8407  2.2966  4.5268
   51SOL    HW2  153   1.002   0.165   0.900 -0.1599  3.9104 -1.3603
   52SOL     OW  154   0.672   1.352   0.294 -0.2123  0.6530 -0.3843
   52SOL    HW1  155   0.604   1.415   0.262  1.6198 -2.2153  1.9239
   52SOL    HW2  156   0.646   1.309   0.387 -1.8744 -2.3279  3.1602
   53SOL     OW  157   1.317   2.719   2.759  0.4442  0.3431 -0.0165
   53SOL    HW1  158   1.378   2.757   2.834  2.1265 -0.5072 -0.6953
   53SOL    HW2  159   1.224   2.760   2.755  0.0376  1.4279 -1.9459
   54SOL     OW  160   1.949   0.506   1.825 -0.6141 -0.4777  0.6500
   54SOL    HW1  161   1.942   0.466   1.732 -1.6222 -2.5955 -2.6290
   54SOL    HW2  162   1.969   0.437   1.891 -0.4732 -0.1516 -1.8428
   55SOL     OW  163   2.962   2.412   0.574 -0.1278 -0.2762  0.3140
   55SOL    HW1  164   2.868   2.442   0.589  1.2162  0.6211  0.9909
   55SOL    HW2  165   3.019   2.497   0.568 -0.5938 -3.2890 -1.3337
   56SOL     OW  166   1.056   2.758   1.690 -0.3306  0.1144 -0.3221
   56SOL    HW1  167   1.071   2.857   1.702 -1.7132  0.6189 -0.0747
   56SOL    HW2  168   0.958   2.731   1.703  0.8855  0.2804 -0.7178
   57SOL     OW  169   1.884   0.967   2.550 -0.7128  0.3295  0.0692
   57SOL    HW1  170   1.976   0.927   2.562 -1.8597  1.9844  2.1247
   57SOL    HW2  171   1.883   1.017   2.461  0.8071 -0.5624  1.0996
   58SOL     OW  172   0.122   0.801   2.076 -0.2113  0.0292  0.0528
   58SOL    HW1  173   0.047   0.737   2.099  1.5197  0.7696  0.7060
   58SOL    HW2  174   0.133   0.820   1.975  1.0623  1.3856  2.0957
   59SOL     OW  175   0.916   2.335   1.811 -0.3870 -0.0453  0.3442
   59SOL    HW1  176   0.842   2.383   1.755  0.5807  1.5118  0.3844
   59SOL    HW2  177   1.005   2.366   1.774 -0.0790 -2.7573  1.5572
   60SOL     OW  178   2.142   2.594   0.220 -0.4110  0.6777 -0.1380
   60SOL    HW1  179   2.243   2.578   0.243  0.8343  1.0326 -0.3802
   60SOL    HW2  180   2.119   2.688   0.181  1.6576  3.4425  0.3305
   61SOL     OW  181   1.656   2.543   0.736  0.4779 -0.2022  0.6878
   61SOL    HW1  182   1.678   2.446   0.775  0.1051 -0.4323 -1.0503
   61SOL    HW2  183   1.557   2.564   0.733  3.4266  0.1018  1.4076
   62SOL     OW  184   1.898   0.086   3.043 -0.6299  0.0608  0.0211
   62SOL    HW1  185   1.874   0.062   0.057  1.5111 -2.5500 -0.0158
   62SOL    HW2  186   1.857   0.177   3.019  5.0314 -2.2145  0.5119
   63SOL     OW  187   2.403   0.417   3.008  0.1529  0.3662 -0.3097
   63SOL    HW1  188   2.426   0.519   3.006 -0.3738 -0.9255 -0.0163
   63SOL    HW2  189   2.475   0.358   2.962 -0.7397  0.7716  0.6994
   64SOL     OW  190   1.402   0.953   2.936  0.3469 -0.8243 -0.3777
   64SOL    HW1  191   1.345   0.873   2.899  2.1629 -2.2194  0.8506
   64SOL    HW2  192   1.478   0.917   2.995 -1.0080 -0.9270  1.9201
   65SOL     OW  193   0.685   2.834   1.471 -0.2453  0.3763  0.4596
   65SOL    HW1  194   0.685   2.782   1.381  0.9603 -0.7510  0.4589
   65SOL    HW2  195   0.594   2.858   1.504 -0.5037  0.5378 -1.0068
   66SOL     OW  196   0.976   1.266   1.492 -0.9537 -0.3257  0.2558
   66SOL    HW1  197   0.969   1.174   1.448  3.7243  2.3807 -1.4029
   66SOL    HW2  198   1.058   1.271   1.556  0.9207  1.1782  0.2581
   67SOL     OW  199   2.255   2.013   2.050  0.1740 -0.2811  0.2721
   67SOL    HW1  200   2.292   2.089   1.991  0.6141  2.4362 -2.1803
   67SOL    HW2  201   2.238   1.930   1.997  1.0156  2.3950  1.8350
   68SOL     OW  202   0.585   1.392   1.981  0.2978  0.3487  0.1998
   68SOL    HW1  203   0.604   1.486   2.011  1.1460 -2.3102 -2.8824
   68SOL    HW2  204   0.652   1.361   1.911 -0.3663  1.7962 -1.4356
   69SOL     OW  205   2.859   2.560   0.262  0.4574 -0.2399 -0.0825
   69SOL    HW1  206   2.952   2.597   0.250  1.0641  2.3015  2.0101
   69SOL    HW2  207   2.806   2.622   0.325  0.4483  1.8717  2.9352
   70SOL     OW  208   2.336   0.828   2.414  0.4973 -0.4080 -0.4947
   70SOL    HW1  209   2.413   0.772   2.389  0.4999  1.2557 -0.0797
   70SOL    HW2  210   2.376   0.914   2.440 -0.9767 -0.4413 -2.6310
   71SOL     OW  211   0.523   2.017   0.816 -0.0792  0.1810  0.1326
   71SOL    HW1  212   0.463   1.968   0.883  2.2397  0.9322 -1.7328
   71SOL    HW2  213   0.496   2.112   0.790 -1.6776 -0.6569 -0.7913
   72SOL     OW  214   2.558   2.054   0.764  0.4085 -0.5167 -0.3639
   72SOL    HW1  215   2.506   2.085   0.683  0.5262  0.0068  0.4536
   72SOL    HW2  216   2.579   2.134   0.826 -0.6580 -0.9626  1.3774
   73SOL     OW  217   1.227   0.651   0.669  0.2240 -0.1196 -0.3595
   73SOL    HW1  218   1.205   0.624   0.570  3.6875 -0.2949 -2.4068
   73SOL    HW2  219   1.328   0.628   0.689 -1.0322 -1.0139  2.2210
   74SOL     OW  220   2.587   2.076   1.962 -0.5558  0.2554  0.1162
   74SOL    HW1  221   2.592   1.978   1.926  1.4846 -3.5516 -0.9251
   74SOL    HW2  222   2.497   2.123   1.948  0.4495 -3.2672 -1.0862
   75SOL     OW  223   1.552   1.503   1.892  0.4908  0.0771 -0.2238
   75SOL    HW1  224   1.510   1.581   1.834 -0.5935 -0.1970 -0.1580
   75SOL    HW2  225   1.507   1.500   1.980  3.9284 -1.5092 -2.3269
   76SOL     OW  226   1.095   1.801   1.140 -0.3177 -0.0456 -0.2479
   76SOL    HW1  227   1.192   1.825   1.119  1.2832 -0.7476  1.1017
   76SOL    HW2  228   1.075   1.707   1.113  1.8488 -1.8703 -0.9353
   77SOL     OW  229   2.745   1.339   1.904 -0.2614 -0.1143 -0.1685
   77SOL    HW1  230   2.700   1.383   1.985 -0.6609 -1.3800  1.4471
   77SOL    HW2  231   2.798   1.408   1.846 -1.2088  0.9621  2.6447
   78SOL     OW  232   1.826   0.704   0.230  0.5168 -0.0546 -0.0997
   78SOL    HW1  233   1.840   0.615   0.185  0.4306  3.0668  0.2117
   78SOL    HW2  234   1.869   0.715   0.323  1.1652 -1.4189 -0.4699
   79SOL     OW  235   1.507   1.499   2.160 -0.1907  0.3089  0.5993
   79SOL    HW1  236   1.595   1.549   2.185  2.5037 -1.2012 -1.9937
   79SOL    HW2  237   1.527   1.400   2.164  1.8848  1.9457 -0.9637
   80SOL     OW  238   0.964   0.484   1.686 -0.2666  0.2097  0.4106
   80SOL    HW1  239   0.985   0.478   1.587  0.1716  0.9795 -1.8370
   80SOL    HW2  240   1.049   0.517   1.729 -2.1789  0.2359 -0.5210
   81SOL     OW  241   0.697   2.411   0.275  0.5834  0.2320 -0.2925
   81SOL    HW1  242   0.669   2.401   0.179  1.4065 -0.7894  1.3104
   81SOL    HW2  243   0.777   2.476   0.284  2.3303  2.8277 -1.2652
   82SOL     OW  244   1.216   0.541   1.758  0.0274  0.3446 -0.2359
   82SOL    HW1  245   1.276   0.512   1.678  0.8397 -2.0087 -1.6211
   82SOL    HW2  246   1.252   0.498   1.844  0.0605  0.1227  0.9866
   83SOL     OW  247   0.440   2.257   0.761  0.1404 -0.3209  0.8010
   83SOL    HW1  248   0.460   2.334   0.827 -1.2143  1.9823 -2.2793
   83SOL    HW2  249   0.460   2.291   0.667  1.9556 -0.4525 -2.2525
   84SOL     OW  250   2.846   1.545   0.728 -0.6788 -0.1860  0.5872
   84SOL    HW1  251   2.894   1.464   0.684  3.2739 -1.9197 -0.7230
   84SOL    HW2  252   2.753   1.526   0.762 -1.2496  0.2206  2.2213
   85SOL     OW  253   2.462   1.917   1.449  0.4557 -0.5206  0.5180
   85SOL    HW1  254   2.393   1.971   1.392 -1.4955  0.4063  0.4514
   85SOL    HW2  255   2.557   1.950   1.434 -1.2959  0.6542 -1.2702
   86SOL     OW  256   1.568   2.396   1.215 -0.3653  0.2760  0.5582
   86SOL    HW1  257   1.629   2.436   1.147  1.3145 -0.9978 -0.6550
   86SOL    HW2  258   1.627   2.350   1.288  0.5857 -0.0571 -1.0792
   87SOL     OW  259   2.234   1.503   0.425  0.6876 -0.0115 -0.8000
   87SOL    HW1  260   2.143   1.518   0.373 -2.3146 -1.2789 -1.6639
   87SOL    HW2  261   2.319   1.514   0.371 -0.0010  0.9842 -1.5828
   88SOL     OW  262   0.730   0.100   0.785 -0.1274  0.0532  0.3017
   88SOL    HW1  263   0.683   0.057   0.702 -1.6378 -0.3687 -3.0850
   88SOL    HW2  264   0.813   0.148   0.758  0.0209 -1.8349  3.5809
   89SOL     OW  265   0.821   0.108   1.718  0.0773  0.2746 -0.0967
   89SOL    HW1  266   0.849   0.187   1.775  0.7652 -1.9034 -1.4306
   89SOL    HW2  267   0.731   0.116   1.678  3.0634  0.0379 -1.9659
   90SOL     OW  268   2.942   1.939   0.408  0.2159 -0.2271 -0.1544
   90SOL    HW1  269   2.844   1.915   0.394 -1.3078 -1.1140  1.4415
   90SOL    HW2  270   2.976   1.903   0.498  1.5267  0.7730 -3.4157
   91SOL     OW  271   0.956   1.503   0.902 -0.4346  0.3974  0.7123
   91SOL    HW1  272   0.878   1.566   0.910  0.1536 -0.6242  0.2939
   91SOL    HW2  273   1.006   1.496   0.993  1.0263  1.4266 -0.5532
   92SOL     OW  274   2.284   0.036   1.431 -0.4205 -0.5329 -0.6191
   92SOL    HW1  275   2.369   0.085   1.447 -0.9560  0.2997 -0.2303
   92SOL    HW2  276   2.280   3.030   1.478 -2.6754  0.2296  0.3576
   93SOL     OW  277   0.435   1.046   2.751 -0.6857  0.3245 -0.7550
   93SOL    HW1  278   0.472   1.141   2.747  0.0335  2.5636  0.5972
   93SOL    HW2  279   0.419   1.013   2.657  0.7502  1.1387  1.0428
   94SOL     OW  280   2.555   3.047   1.791  0.6645  0.1460 -0.6598
   94SOL    HW1  281   2.533   0.021   1.870  2.4557 -2.2955 -0.4370
   94SOL    HW2  282   2.647   3.005   1.810  0.7050 -1.6084  1.2986
   95SOL     OW  283   1.962   0.860   1.651  0.3921 -0.0804  0.1404
   95SOL    HW1  284   1.947   0.908   1.558 -1.0830  0.7689  0.9108
   95SOL    HW2  285   1.931   0.769   1.641  1.5147  4.2919 -2.3104
   96SOL     OW  286   2.891   0.270   1.680 -0.0804 -0.8712  0.1188
   96SOL    HW1  287   2.803   0.275   1.736 -0.2566  2.0583 -2.0734
   96SOL    HW2  288   2.932   0.363   1.668  2.0954  2.9086  0.8192
   97SOL     OW  289   2.117   0.298   1.368  0.1253  0.0600 -0.1622
   97SOL    HW1  290   2.034   0.275   1.315 -2.8402  0.6290  0.8173
   97SOL    HW2  291   2.177   0.213   1.393  2.7189 -3.0764  0.0864
   98SOL     OW  292   2.024   2.653   1.812 -0.1886  0.2054 -0.5255
   98SOL    HW1  293   2.072   2.664   1.903  1.5022 -0.8399  1.9580
   98SOL    HW2  294   1.960   2.729   1.795  0.0736  0.0721 -0.2878
   99SOL     OW  295   0.271   0.806   1.071 -0.3357  1.0856  0.0597
   99SOL    HW1  296   0.204   0.802   1.150  0.2693  0.6578 -0.5827
   99SOL    HW2  297   0.252   0.877   1.003  0.7608 -0.6549  0.0195
  100SOL     OW  298   2.538   1.771   1.919 -0.9062 -0.4778  0.3124
  100SOL    HW1  299   2.446   1.796   1.881 -1.1217  1.6505 -0.5295
  100SOL    HW2  300   2.605   1.803   1.852 -1.4294 -0.3107  1.6528
  101SOL     OW  301   2.165   0.064   0.143 -0.1973  0.2892 -0.7218
  101SOL    HW1  302   2.264   0.105   0.139  2.7723  0.8731 -0.3295
  101SOL    HW2  303   2.161   3.065   0.086  0.2620  1.5057 -0.1754
  102SOL     OW  304   0.554   0.369   1.265  0.1802 -0.0337  0.3201
  102SOL    HW1  305   0.559   0.342   1.366 -0.1677  2.4989  0.5893
  102SOL    HW2  306   0.461   0.401   1.244 -2.9838  1.8923 -1.0794
  103SOL     OW  307   3.006   0.112   2.613 -0.1710  0.1915  0.2367
  103SOL    HW1  308   3.044   0.021   2.601  1.3111  2.3245  0.3979
  103SOL    HW2  309   3.084   0.173   2.627 -0.0884 -0.6193  1.6108
  104SOL     OW  310   0.426   2.115   1.339  0.2119  0.5198 -0.5389
  104SOL    HW1  311   0.462   2.031   1.294 -1.3950  2.4867 -1.4321
  104SOL    HW2  312   0.367   2.158   1.267 -1.9324  0.3358 -1.1465
  105SOL     OW  313   0.660   1.657   2.079  0.4515 -0.0897 -0.3041
  105SOL    HW1  314   0.722   1.677   2.155 -0.9834  0.0782 -0.5481
  105SOL    HW2  315   0.696   1.714   1.998  0.5008  2.7359  0.5718
  106SOL     OW  316   2.207   0.407   0.766  0.0328  0.2477 -0.0930
  106SOL    HW1  317   2.176   0.395   0.864  2.3567  1.1674  1.7154
  106SOL    HW2  318   2.190   0.324   0.712 -0.0045  1.4723 -0.4252
  107SOL     OW  319   0.593   0.983   1.238 -0.1564 -0.4425 -0.3494
  107SOL    HW1  320   0.545   0.926   1.169 -2.3085 -0.6374 -2.4066
  107SOL    HW2  321   0.643   1.055   1.186 -1.8905 -1.4298  2.3812
  108SOL     OW  322   2.624   0.882   2.149  0.1157 -0.1210 -0.7610
  108SOL    HW1  323   2.722   0.905   2.156  1.4826  0.1634  2.8403
  108SOL    HW2  324   2.593   0.808   2.217  0.8954  0.9950 -0.7811
  109SOL     OW  325   1.776   3.015   2.848 -0.4503 -0.1909  0.0263
  109SOL    HW1  326   1.848   2.992   2.779  2.3390 -0.6766 -2.2014
  109SOL    HW2  327   1.808   3.058   2.939  1.2283 -1.1898 -2.2458
  110SOL     OW  328   0.216   1.941   3.057  0.1541 -0.7448 -0.1468
  110SOL    HW1  329   0.148   1.921   0.046  1.1615  0.4416  1.1750
  110SOL    HW2  330   0.306   1.903   0.001 -1.2034 -0.8525 -1.1005
  111SOL     OW  331   2.555   0.675   2.327  0.3609 -0.1016 -0.2756
  111SOL    HW1  332   2.542   0.576   2.291 -0.9832 -2.8368  0.5678
  111SOL    HW2  333   2.588   0.685   2.423  0.5742  1.1700  1.4406
  112SOL     OW  334   2.136   2.709   1.360  0.1543  0.3944  0.5111
  112SOL    HW1  335   2.035   2.697   1.363  0.3882  0.4071 -0.4640
  112SOL    HW2  336   2.168   2.733   1.269 -0.2340 -0.0936  0.8879
  113SOL     OW  337   2.088   2.174   2.221 -0.0390  0.8804  0.2470
  113SOL    HW1  338   2.103   2.104   2.297  0.5253  1.2436 -0.4217
  113SOL    HW2  339   2.127   2.136   2.129  1.8448  1.1889 -1.3118
  114SOL     OW  340   0.367   0.173   0.292 -0.2931 -0.1738  0.0168
  114SOL    HW1  341   0.327   0.080   0.270  1.0928 -4.8365 -1.1356
  114SOL    HW2  342   0.389   0.229   0.210 -0.5564 -1.3111  1.6956
  115SOL     OW  343   2.737   1.499   0.083 -0.5376 -0.4605 -0.4009
  115SOL    HW1  344   2.832   1.530   0.061  0.7788  1.0545  2.6586
  115SOL    HW2  345   2.741   1.417   0.151  3.8736 -3.0658  2.6635
  116SOL     OW  346   0.047   0.774   1.555  0.3318 -0.0184  0.5390
  116SOL    HW1  347   0.005   0.696   1.604 -2.3455  2.2781  1.5127
  116SOL    HW2  348   3.075   0.857   1.558 -0.2433  2.6527 -0.4428
  117SOL     OW  349   2.513   0.371   1.318 -0.6317 -0.1152  0.3991
  117SOL    HW1  350   2.608   0.412   1.303 -0.1011  1.3709  1.0609
  117SOL    HW2  351   2.489   0.374   1.416 -0.4037  0.8735  0.5584
  118SOL     OW  352   2.754   2.091   2.165 -0.1358  0.4914  0.2716
  118SOL    HW1  353   2.761   2.190   2.182  2.5375 -0.5766 -0.2036
  118SOL    HW2  354   2.684   2.077   2.086 -0.5089 -0.0672 -1.2635
  119SOL     OW  355   0.729   1.658   0.945  0.1532  0.0257 -0.1041
  119SOL    HW1  356   0.722   1.759   0.932 -0.5654 -2.0126  0.7191
  119SOL    HW2  357   0.678   1.628   1.029  1.0765 -1.8308  0.4536
  120SOL     OW  358   0.421   1.456   1.338  0.3277 -0.6500  0.1284
  120SOL    HW1  359   0.337   1.469   1.282 -1.6189 -0.1083 -0.7562
  120SOL    HW2  360   0.428   1.364   1.372 -1.5967  2.9486 -1.4263
  121SOL     OW  361   1.789   1.126   0.950  0.2599  0.3127 -0.8260
  121SOL    HW1  362   1.810   1.096   0.855 -0.1107  0.4530  1.0194
  121SOL    HW2  363   1.861   1.189   0.981  4.7362 -1.4763 -0.8489
  122SOL     OW  364   1.977   2.399   2.747 -0.6011  0.8517  0.3383
  122SOL    HW1  365   1.905   2.461   2.765  5.0088 -2.4627  2.5921
  122SOL    HW2  366   2.029   2.432   2.667 -1.4710  1.3355  0.7446
  123SOL     OW  367   2.903   3.032   0.435 -0.0790 -0.0580  0.0559
  123SOL    HW1  368   2.853   3.025   0.524 -2.5161 -0.6799  0.8480
  123SOL    HW2  369   2.913   0.042   0.403 -1.4758  0.5561 -0.6585
  124SOL     OW  370   1.441   1.231   0.229 -0.2448  0.1599 -0.5448
  124SOL    HW1  371   1.371   1.200   0.159  1.3434  2.4290  0.3288
  124SOL    HW2  372   1.440   1.170   0.316  2.1722 -0.3584  1.6222
  125SOL     OW  373   0.225   0.987   2.252 -0.4842 -0.2566 -0.2790
  125SOL    HW1  374   0.237   1.073   2.201  0.8608  0.3461 -0.6007
  125SOL    HW2  375   0.176   0.910   2.199 -2.3028  1.9631  0.9598
  126SOL     OW  376   2.947   2.411   0.044  0.0264 -0.4245  0.2229
  126SOL    HW1  377   3.041   2.367   0.051 -0.6192  1.0061  0.6610
  126SOL    HW2  378   2.914   2.474   0.116  1.3788 -2.4477 -0.1810
  127SOL     OW  379   2.771   1.579   0.402 -0.0123 -0.3322  0.1514
  127SOL    HW1  380   2.812   1.491   0.436 -0.1511 -0.3416 -0.3889
  127SOL    HW2  381   2.829   1.656   0.434 -1.9040 -3.1126  1.0452
  128SOL     OW  382   1.420   0.893   0.784 -0.5142  0.4937  0.2710
  128SOL    HW1  383   1.478   0.967   0.825 -2.5608 -0.7163  0.9514
  128SOL    HW2  384   1.345   0.930   0.728  1.9514  1.1143 -1.4376
  129SOL     OW  385   2.669   1.799   1.113  0.4799 -0.0773 -0.1575
  129SOL    HW1  386   2.754   1.737   1.119  3.3105 -0.4643 -3.4227
  129SOL    HW2  387   2.690   1.898   1.109 -1.8040  0.7050  0.4426
  130SOL     OW  388   2.114   1.121   0.773  0.1647 -0.2199 -0.1913
  130SOL    HW1  389   2.139   1.164   0.683  0.7198 -2.3581 -1.1204
  130SOL    HW2  390   2.067   1.190   0.832 -1.0976 -1.2200 -0.6176
  131SOL     OW  391   3.020   1.163   2.387  0.0447  0.7170  0.4106
  131SOL    HW1  392   2.956   1.247   2.379 -2.7432  0.5486 -3.0034
  131SOL    HW2  393   2.992   1.075   2.340  1.1285 -3.2175  0.5115
  132SOL     OW  394   1.146   1.318   1.975 -0.0083  0.7409 -0.1258
  132SOL    HW1  395   1.058   1.369   1.996  1.2363  0.1380  0.7842
  132SOL    HW2  396   1.154   1.239   2.038  2.7307  1.2516 -0.7388
  133SOL     OW  397   0.255   1.253   0.265 -0.2847  0.4423  0.1715
  133SOL    HW1  398   0.318   1.334   0.251  1.4242  0.3832 -2.1566
  133SOL    HW2  399   0.286   1.169   0.211 -0.9158 -2.9817 -1.9681
  134SOL     OW  400   2.708   0.993   0.193 -0.2415 -0.3713  0.0000
  134SOL    HW1  401   2.701   0.940   0.107  0.1728  1.8042 -0.5750
  134SOL    HW2  402   2.731   1.090   0.164 -1.0370  2.4733 -0.5680
  135SOL     OW  403   1.555   0.630   2.948 -0.1834  0.4093  0.2847
  135SOL    HW1  404   1.499   0.612   2.858 -1.6625  0.9773 -2.0413
  135SOL    HW2  405   1.652   0.659   2.934 -1.7595 -2.4387 -2.1565
  136SOL     OW  406   1.938   1.760   1.856 -0.4564  0.2543 -0.3220
  136SOL    HW1  407   1.854   1.771   1.807  0.2197  1.4606 -1.5186
  136SOL    HW2  408   1.957   1.665   1.882 -0.6883 -0.5039  1.3116
  137SOL     OW  409   2.276   2.489   0.893  0.6047  0.4952  0.0061
  137SOL    HW1  410   2.203   2.556   0.891  1.6694 -1.0466 -1.1723
  137SOL    HW2  411   2.252   2.411   0.831 -1.0728  1.2047 -2.4252
  138SOL     OW  412   2.338   0.585   1.643  0.2409  0.2106  0.0317
  138SOL    HW1  413   2.373   0.676   1.672 -0.1976  0.0045 -1.9847
  138SOL    HW2  414   2.289   0.589   1.557  2.3206  1.7521  0.9191
  139SOL     OW  415   2.352   2.771   2.824 -0.7692 -0.2102 -0.2394
  139SOL    HW1  416   2.416   2.705   2.784 -0.0475  0.4927  1.9110
  139SOL    HW2  417   2.264   2.777   2.776  2.9723  1.0022 -1.1110
  140SOL     OW  418   1.459   1.862   2.489 -1.0311  0.0761  0.0187
  140SOL    HW1  419   1.540   1.803   2.476 -1.6225  0.1547  0.8160
  140SOL    HW2  420   1.371   1.808   2.476 -1.8030  0.9991  1.4701
  141SOL     OW  421   0.779   1.077   2.545  0.0310 -0.5602 -0.0700
  141SOL    HW1  422   0.691   1.035   2.534  3.5180 -0.7901  0.1423
  141SOL    HW2  423   0.769   1.175   2.570 -0.9854  1.0018 -2.8638
  142SOL     OW  424   2.515   2.672   1.953 -0.1663  0.1239 -0.3741
  142SOL    HW1  425   2.561   2.747   2.013  0.2423 -0.6107  1.4793
  142SOL    HW2  426   2.481   2.602   2.022  1.8071  0.7103 -0.7904
  143SOL     OW  427   1.155   2.387   0.338 -0.2070 -0.0891 -0.2054
  143SOL    HW1  428   1.246   2.407   0.371 -1.9873 -0.0572  0.2373
  143SOL    HW2  429   1.097   2.396   0.420  2.2197 -0.3370 -0.2488
  144SOL     OW  430   1.168   2.581   0.686 -0.2961 -0.3161  0.1323
  144SOL    HW1  431   1.246   2.519   0.726  1.9303  1.5488  1.4578
  144SOL    HW2  432   1.178   2.682   0.710 -2.3499  4.0595  2.7877
  145SOL     OW  433   1.386   2.638   2.484 -0.1201  0.1735 -0.0106
  145SOL    HW1  434   1.476   2.590   2.478  0.1380  1.7253  0.9116
  145SOL    HW2  435   1.369   2.690   2.571 -1.0544 -0.1462 -0.6673
  146SOL     OW  436   2.121   3.080   2.917  0.2288 -0.0414 -0.0197
  146SOL    HW1  437   2.136   0.086   2.870  0.3998  1.3173 -2.2044
  146SOL    HW2  438   2.044   0.008   2.981  1.3006  0.4320  1.5552
  147SOL     OW  439   2.877   1.687   1.346  0.4591 -0.4768  0.1822
  147SOL    HW1  440   2.874   1.661   1.246  0.2185 -0.6832  0.7094
  147SOL    HW2  441   2.937   1.769   1.358 -2.2148  1.9616  0.8163
  148SOL     OW  442   2.176   2.864   0.240  0.1163 -0.4122  0.4333
  148SOL    HW1  443   2.229   2.864   0.331  1.5323 -1.2170 -1.4883
  148SOL    HW2  444   2.243   2.879   0.161  1.8230 -0.4296  0.2013
  149SOL     OW  445   0.627   1.797   2.925  0.7609 -0.8425 -0.2065
  149SOL    HW1  446   0.690   1.721   2.955 -1.7435  1.1533 -0.5186
  149SOL    HW2  447   0.605   1.800   2.824  0.7767 -1.6365 -2.6629
  150SOL     OW  448   0.469   2.680   1.045  0.0302 -0.7345  0.3271
  150SOL    HW1  449   0.504   2.751   1.107  1.3959 -0.9857 -0.8746
  150SOL    HW2  450   0.444   2.731   0.962  1.9498 -0.9173  4.0898
  151SOL     OW  451   0.113   0.952   3.045  0.1082 -0.3895 -0.1240
  151SOL    HW1  452   0.207   0.932   3.006 -1.0394  0.8671 -1.6889
  151SOL    HW2  453   0.054   0.981   2.964 -0.6733  0.5671 -1.0331
  152SOL     OW  454   3.013   1.913   0.967 -0.0471  0.1042  0.1893
  152SOL    HW1  455   2.941   1.958   0.915 -1.6414 -2.4039  2.0189
  152SOL    HW2  456   3.014   1.810   0.953  0.1754  2.7971  1.3630
  153SOL     OW  457   1.695   2.309   0.852 -0.2738  0.2089  0.3454
  153SOL    HW1  458   1.755   2.269   0.778 -0.3118 -3.2053  2.0297
  153SOL    HW2  459   1.658   2.237   0.916 -0.9119  2.4212  0.6530
  154SOL     OW  460   0.559   2.906   1.191  0.0978  0.1581 -0.5126
  154SOL    HW1  461   0.531   2.999   1.223 -0.0485 -0.2760  1.5950
  154SOL    HW2  462   0.661   2.900   1.188  0.9137 -2.8536 -0.7931
  155SOL     OW  463   2.828   2.005   0.766 -0.3195  0.4004 -0.2167
  155SOL    HW1  464   2.886   2.092   0.770  0.3006  1.0366  0.7535
  155SOL    HW2  465   2.732   2.031   0.757  3.9990  0.3859 -1.3487
  156SOL     OW  466   2.613   2.154   0.327 -0.2626  0.0254  0.1004
  156SOL    HW1  467   2.700   2.199   0.359  0.0151 -3.3418  1.1410
  156SOL    HW2  468   2.623   2.054   0.323  2.6972  0.5438 -1.5995
  157SOL     OW  469   0.297   2.310   1.684 -0.0922 -0.1344  0.1641
  157SOL    HW1  470   0.247   2.227   1.718  1.5050 -0.3514 -3.0510
  157SOL    HW2  471   0.351   2.341   1.761 -1.7854 -0.5827  1.1504
  158SOL     OW  472   1.457   0.409   0.925 -0.2150  0.2197  0.2005
  158SOL    HW1  473   1.386   0.337   0.903 -1.6616 -1.7286  1.9922
  158SOL    HW2  474   1.448   0.453   1.018  0.6807  3.3745  1.7281
  159SOL     OW  475   1.843   0.993   0.189  0.1313  0.1089 -0.4485
  159SOL    HW1  476   1.862   0.896   0.182  2.2451  0.6707  0.4663
  159SOL    HW2  477   1.752   1.008   0.148  3.0622 -0.9436  1.5589
  160SOL     OW  478   1.167   2.024   0.344  0.5128 -0.0984  0.1544
  160SOL    HW1  479   1.211   2.077   0.269  1.5950  0.2288  1.2048
  160SOL    HW2  480   1.098   1.954   0.306  1.7889  0.7194 -2.1688
  161SOL     OW  481   2.607   2.253   2.520 -0.0839  0.1831 -0.2096
  161SOL    HW1  482   2.628   2.270   2.619  1.2841 -0.0916  0.2735
  161SOL    HW2  483   2.605   2.337   2.463  2.7831 -0.6368 -0.9272
  162SOL     OW  484   0.146   2.233   1.262  0.1388  0.1925 -0.2909
  162SOL    HW1  485   0.096   2.236   1.350 -1.3308  0.2318  0.1650
  162SOL    HW2  486   0.206   2.315   1.249  0.1963 -0.9357 -0.3928
  163SOL     OW  487   0.217   0.445   2.768  0.2843  0.0026 -0.8652
  163SOL    HW1  488   0.197   0.359   2.717  1.5073  0.7872  1.5203
  163SOL    HW2  489   0.129   0.488   2.801  0.8936  0.2153  0.4078
  164SOL     OW  490   0.294   2.615   2.539 -0.9447  0.7967  0.1452
  164SOL    HW1  491   0.317   2.713   2.536 -0.4034 -0.9284  0.4163
  164SOL    HW2  492   0.193   2.607   2.546  1.2678 -1.0228 -2.0199
  165SOL     OW  493   2.720   1.073   1.582  0.2416  0.5246  0.1795
  165SOL    HW1  494   2.655   1.101   1.654 -0.7476  0.1347 -0.4672
  165SOL    HW2  495   2.707   0.976   1.549 -1.0931 -2.0625 -1.3045
  166SOL     OW  496   2.006   1.904   1.582 -0.4116 -0.2159 -0.0343
  166SOL    HW1  497   2.089   1.872   1.634  1.0347 -0.5621 -0.5397
  166SOL    HW2  498   1.967   1.825   1.527 -0.4471 -0.0582 -0.6110
  167SOL     OW  499   0.473   0.600   2.366  0.4805  0.6626 -0.3249
  167SOL    HW1  500   0.428   0.561   2.286 -1.4456  0.7083  1.3877
  167SOL    HW2  501   0.409   0.660   2.423 -0.4195  0.7720  3.6105
  168SOL     OW  502   2.115   0.113   2.210  0.1943  0.2911  0.0875
  168SOL    HW1  503   2.131   0.061   2.295 -2.7350 -2.2280 -0.2174
  168SOL    HW2  504   2.057   0.053   2.149 -0.0620  0.2630 -2.2022
  169SOL     OW  505   0.360   0.935   2.993  0.4965 -0.0481  0.2799
  169SOL    HW1  506   0.392   0.984   2.909 -1.7302  0.2311  0.3745
  169SOL    HW2  507   0.415   0.850   3.005  1.8536 -0.8748  2.5376
  170SOL     OW  508   0.822   1.392   1.286 -0.2151  0.1236 -0.0015
  170SOL    HW1  509   0.883   1.357   1.359  0.9723 -2.6017 -1.0510
  170SOL    HW2  510   0.789   1.312   1.228  0.4856 -1.5594 -2.7749
  171SOL     OW  511   1.123   2.479   1.668  0.3219 -0.0466  0.2837
  171SOL    HW1  512   1.109   2.577   1.706 -1.0423  0.9067  2.6952
  171SOL    HW2  513   1.073   2.452   1.583 -1.0333 -0.2608  2.6307
  172SOL     OW  514   1.177   0.155   1.857 -0.6632 -0.1466 -0.2988
  172SOL    HW1  515   1.201   0.096   1.933  0.5457 -0.2581  0.4002
  172SOL    HW2  516   1.205   0.255   1.883  3.9158  2.2266  1.7497
  173SOL     OW  517   1.349   2.421   0.865  0.0941  0.0326  0.4909
  173SOL    HW1  518   1.346   2.385   0.961 -0.2127  0.0666 -1.7693
  173SOL    HW2  519   1.388   2.354   0.805 -0.6290  0.9022  1.2719
  174SOL     OW  520   2.293   0.122   0.602 -0.1706  0.3871 -0.4497
  174SOL    HW1  521   2.190   0.133   0.590  2.1616  1.6930  0.9940
  174SOL    HW2  522   2.344   0.171   0.527  0.0719  0.8323  0.2761
  175SOL     OW  523   1.176   1.197   0.633  0.7180 -0.4639  0.0504
  175SOL    HW1  524   1.101   1.256   0.675 -0.7064  2.4977  1.4735
  175SOL    HW2  525   1.143   1.157   0.546  1.3973  1.3348  2.0144
  176SOL     OW  526   0.852   1.718   0.430 -0.1133 -0.3632  0.3080
  176SOL    HW1  527   0.872   1.758   0.522 -0.3817  0.2708  0.5116
  176SOL    HW2  528   0.926   1.650   0.398  1.5488 -0.2712 -1.0314
  177SOL     OW  529   1.402   1.330   0.785 -0.1599  0.3370 -0.6936
  177SOL    HW1  530   1.343   1.264   0.744 -0.2301  1.7043  0.6947
  177SOL    HW2  531   1.475   1.284   0.832  0.6174  2.7892 -4.2289
  178SOL     OW  532   2.352   1.802   0.258  0.1968 -0.3610 -0.9294
  178SOL    HW1  533   2.379   1.809   0.356  0.1991  1.2421 -3.7300
  178SOL    HW2  534   2.367   1.707   0.226 -0.5242  3.3128 -0.3562
  179SOL     OW  535   1.441   2.913   0.088  0.4913 -0.0705 -0.5458
  179SOL    HW1  536   1.346   2.910   0.133 -0.2443  1.4704  2.3930
  179SOL    HW2  537   1.487   2.823   0.104 -0.8697  1.4540  0.3992
  180SOL     OW  538   1.909   1.393   1.581  0.2762 -0.1347 -0.4243
  180SOL    HW1  539   1.966   1.355   1.658  0.6569 -1.4742  0.4530
  180SOL    HW2  540   1.912   1.496   1.590  0.1543  4.0703 -0.7763
  181SOL     OW  541   1.131   0.770   1.874 -0.3834  0.1470  0.3945
  181SOL    HW1  542   1.157   0.753   1.968  2.7819 -1.9898 -0.9807
  181SOL    HW2  543   1.153   0.684   1.818 -2.8597 -1.8392  0.3262
  182SOL     OW  544   0.076   1.351   2.254  0.6332  0.3559  0.2943
  182SOL    HW1  545   0.020   1.271   2.285 -0.0328  0.6276 -0.9311
  182SOL    HW2  546   0.149   1.316   2.189 -1.3792  0.5079 -0.5263
  183SOL     OW  547   1.448   0.562   2.206 -0.2237  0.1694  0.2211
  183SOL    HW1  548   1.465   0.462   2.181 -0.1659 -3.2166 -3.2118
  183SOL    HW2  549   1.430   0.559   2.308  0.3386 -0.6768 -1.0399
  184SOL     OW  550   0.697   0.565   1.139 -0.3307  0.2356 -0.2615
  184SOL    HW1  551   0.793   0.593   1.155 -0.8905 -1.1828 -0.0313
  184SOL    HW2  552   0.667   0.496   1.207  1.3111  0.8105  2.7112
  185SOL     OW  553   2.289   1.511   0.749 -0.3490  0.2869  0.4856
  185SOL    HW1  554   2.289   1.512   0.647 -3.8367  0.2387  0.9200
  185SOL    HW2  555   2.192   1.486   0.778  1.0374 -1.6934  0.3773
  186SOL     OW  556   0.283   1.958   0.292 -0.4648 -0.2806  0.2170
  186SOL    HW1  557   0.307   1.873   0.346 -1.6843 -1.5081 -1.1828
  186SOL    HW2  558   0.186   1.949   0.256  0.8441 -1.4438 -2.5024
  187SOL     OW  559   1.904   2.191   0.034  0.0310 -0.0550 -0.1084
  187SOL    HW1  560   1.924   2.117   0.101  3.0380  1.4440  0.9515
  187SOL    HW2  561   1.910   2.155   3.025 -1.5133 -1.2041  1.5629
  188SOL     OW  562   1.171   2.167   1.299  0.4312 -0.1427 -0.0230
  188SOL    HW1  563   1.170   2.085   1.239  3.6716  0.1033 -0.7635
  188SOL    HW2  564   1.078   2.185   1.329 -2.2611  2.8348 -1.3328
  189SOL     OW  565   2.138   1.625   2.597  0.1028 -0.3965  0.1462
  189SOL    HW1  566   2.062   1.603   2.531  0.0941 -1.2710 -2.2112
  189SOL    HW2  567   2.123   1.718   2.635 -0.3291 -2.8955 -1.0288
  190SOL     OW  568   0.889   2.490   2.302 -0.1844 -0.0596 -0.5610
  190SOL    HW1  569   0.941   2.489   2.220 -0.8415  1.5099  6.7433
  190SOL    HW2  570   0.820   2.564   2.301  2.3397 -0.3626 -0.1498
  191SOL     OW  571   2.558   0.881   1.252  0.1001 -0.7814 -0.3670
  191SOL    HW1  572   2.621   0.845   1.325 -0.7425  0.7994 -2.0408
  191SOL    HW2  573   2.593   0.880   1.155 -1.4845  2.7137 -2.9074
  192SOL     OW  574   2.650   0.690   1.740  0.2367  0.8957  0.3874
  192SOL    HW1  575   2.571   0.752   1.735  3.2596 -1.5637  0.2110
  192SOL    HW2  576   2.662   0.635   1.825 -0.0964  0.0307 -0.6443
  193SOL     OW  577   0.873   0.329   0.138  0.3404  0.2387  0.0244
  193SOL    HW1  578   0.949   0.261   0.122 -0.1727 -0.5283 -1.9229
  193SOL    HW2  579   0.903   0.420   0.110 -0.6128 -2.4687  1.8898
  194SOL     OW  580   0.970   2.442   1.443  0.2578  0.2391  0.5319
  194SOL    HW1  581   0.952   2.346   1.422 -1.9381  1.6723  2.3133
  194SOL    HW2  582   1.045   2.479   1.376  2.2725 -2.0255 -2.3813
  195SOL     OW  583   2.498   1.222   0.425 -0.6080  0.3965 -0.3649
  195SOL    HW1  584   2.520   1.217   0.529  0.0342  0.5257  0.4999
  195SOL    HW2  585   2.441   1.142   0.395  0.7047 -2.1503  1.8273
  196SOL     OW  586   0.566   2.257   1.544  0.2695 -0.4645 -0.3101
  196SOL    HW1  587   0.525   2.234   1.452  0.6106 -2.7982 -0.9954
  196SOL    HW2  588   0.491   2.298   1.598 -1.1089 -0.2787  1.1046
  197SOL     OW  589   3.040   0.611   2.150  0.0145  0.5433 -0.2196
  197SOL    HW1  590   0.014   0.531   2.127  0.9237 -1.4086 -0.3776
  197SOL    HW2  591   2.983   0.590   2.235 -0.0581  0.8891 -0.4498
  198SOL     OW  592   1.815   1.127   0.424 -0.8177 -0.0151  0.0878
  198SOL    HW1  593   1.829   1.071   0.339  0.4086 -1.6345 -0.9879
  198SOL    HW2  594   1.812   1.229   0.410  0.0564 -1.7173  3.4492
  199SOL     OW  595   2.477   0.359   1.602  0.0715 -0.3145 -0.1271
  199SOL    HW1  596   2.422   0.444   1.618  1.8556  1.7511 -0.1619
  199SOL    HW2  597   2.538   0.349   1.686  3.0362 -0.4817  4.5325
  200SOL     OW  598   2.131   0.217   2.726 -0.6079  0.0536 -0.2552
  200SOL    HW1  599   2.214   0.191   2.673  0.1336  1.0367 -0.5419
  200SOL    HW2  600   2.158   0.297   2.778  0.0545 -2.0553 -0.6646
  201SOL     OW  601   2.673   0.160   1.134 -0.2521  0.2892  0.0798
  201SOL    HW1  602   2.741   0.207   1.190 -2.2706  1.2569 -1.1918
  201SOL    HW2  603   2.621   0.225   1.075  0.2527 -2.0564  1.9383
  202SOL     OW  604   3.080   2.656   0.596 -0.4329  0.1263 -0.8872
  202SOL    HW1  605   0.012   2.702   0.509  0.9188 -2.6275  0.3712
  202SOL    HW2  606   0.075   2.640   0.660  0.3792  2.0241  2.9600
  203SOL     OW  607   1.343   1.649   0.170 -0.0584 -0.7254 -0.5015
  203SOL    HW1  608   1.256   1.637   0.219 -1.2855 -1.6529 -1.2704
  203SOL    HW2  609   1.412   1.579   0.201 -0.2484  1.1054  0.5391
  204SOL     OW  610   0.462   2.027   2.199  0.1218 -0.0155  0.2269
  204SOL    HW1  611   0.525   1.992   2.126 -1.5749 -1.2686  2.2677
  204SOL    HW2  612   0.379   1.967   2.216 -1.0115 -0.6908  2.6461
  205SOL     OW  613   0.988   0.577   0.784  0.0978 -0.5779 -0.3889
  205SOL    HW1  614   1.019   0.557   0.880  1.6330 -1.0871  1.9676
  205SOL    HW2  615   1.073   0.621   0.740 -2.0843 -1.0357 -0.7261
  206SOL     OW  616   0.386   0.681   2.731 -0.0308 -0.0350  0.1748
  206SOL    HW1  617   0.342   0.767   2.711 -0.5958 -1.7049  4.1732
  206SOL    HW2  618   0.317   0.605   2.735  0.6539 -2.0935 -0.7167
  207SOL     OW  619   1.318   2.306   1.709 -0.5263  0.3824  0.1348
  207SOL    HW1  620   1.405   2.358   1.706 -0.1165  0.3924  0.8669
  207SOL    HW2  621   1.238   2.376   1.714  0.1147  0.7793  1.6757
  208SOL     OW  622   3.041   2.984   1.419  0.9188 -0.0272 -0.7805
  208SOL    HW1  623   3.026   2.956   1.319  1.7790 -0.5521 -2.5825
  208SOL    HW2  624   2.977   3.058   1.453 -1.2207  0.3164 -1.8357
  209SOL     OW  625   1.815   1.029   0.685  0.9809  0.0825  0.4858
  209SOL    HW1  626   1.775   0.933   0.702 -0.4918 -3.7432 -2.7928
  209SOL    HW2  627   1.802   1.055   0.589  1.9951 -0.6091 -3.0576
  210SOL     OW  628   2.593   0.841   0.381  0.7100  0.3638 -0.2363
  210SOL    HW1  629   2.555   0.886   0.465  2.8944  0.7774 -0.2742
  210SOL    HW2  630   2.640   0.908   0.318  0.4254  1.4338 -1.7383
  211SOL     OW  631   1.310   0.240   0.231  0.0172  0.4993  0.0432
  211SOL    HW1  632   1.222   0.244   0.175 -0.3820 -3.5470  2.2402
  211SOL    HW2  633   1.369   0.161   0.196  1.0367 -3.5860 -1.7480
  212SOL     OW  634   1.821   2.167   0.661 -0.5755  0.8335  0.4153
  212SOL    HW1  635   1.920   2.185   0.694  1.5482  1.7250 -0.1935
  212SOL    HW2  636   1.805   2.209   0.568  1.1150 -0.4560  2.4834
  213SOL     OW  637   2.352   0.101   2.608  0.3876 -0.6314  0.5886
  213SOL    HW1  638   2.369   0.033   2.682 -1.8237  1.1443  0.0253
  213SOL    HW2  639   2.415   0.181   2.612  1.6698  0.2563 -1.0953
  214SOL     OW  640   0.968   1.998   2.208 -0.1416  0.0037 -0.1958
  214SOL    HW1  641   1.058   2.031   2.168  0.8090  2.8758  1.1672
  214SOL    HW2  642   0.905   2.080   2.212 -2.7280  2.3235 -2.5399
  215SOL     OW  643   0.210   1.329   0.932  0.0224 -0.3974  0.2737
  215SOL    HW1  644   0.228   1.393   1.010  0.6868 -0.2707 -2.3878
  215SOL    HW2  645   0.218   1.235   0.959  1.4266  1.8754 -2.8393
  216SOL     OW  646   0.260   2.174   2.713  0.9431  0.0854  0.0593
  216SOL    HW1  647   0.172   2.179   2.768 -1.3992 -0.2289  2.1249
  216SOL    HW2  648   0.336   2.218   2.761 -1.4909  1.0538 -0.7101
  217SOL     OW  649   2.791   1.266   1.413  0.4558 -0.7000 -0.0467
  217SOL    HW1  650   2.774   1.240   1.319 -0.3922  1.0726  2.5004
  217SOL    HW2  651   2.763   1.190   1.483  0.9010 -3.1967  1.1042
  218SOL     OW  652   0.713   2.272   1.978  0.2981 -0.5891  0.0582
  218SOL    HW1  653   0.792   2.300   1.920 -0.4507 -0.4344  1.6307
  218SOL    HW2  654   0.745   2.247   2.075 -0.3294  0.1181  2.5793
  219SOL     OW  655   2.007   1.632   0.313 -0.8796  0.3649 -0.4526
  219SOL    HW1  656   2.034   1.674   0.225  1.3997 -0.9976  0.8629
  219SOL    HW2  657   1.995   1.707   0.384 -1.5190 -1.6974  0.9790
  220SOL     OW  658   2.100   0.887   0.383  0.0213  0.1575  0.1935
  220SOL    HW1  659   2.091   0.990   0.397 -0.1141  0.2587 -0.2508
  220SOL    HW2  660   2.034   0.843   0.441  1.2713  0.0291  0.0668
  221SOL     OW  661   2.804   0.419   0.111  0.5059 -0.4713  0.3027
  221SOL    HW1  662   2.760   0.500   0.158 -0.3926 -0.9334  0.5352
  221SOL    HW2  663   2.880   0.381   0.164 -1.8000  0.1505 -0.2808
  222SOL     OW  664   1.413   1.642   0.460 -0.2177  0.1753 -0.0282
  222SOL    HW1  665   1.366   1.584   0.525  2.4629  0.3636 -2.1181
  222SOL    HW2  666   1.410   1.739   0.481  0.8493 -3.1486  1.9501
  223SOL     OW  667   1.114   3.077   2.993 -0.5944  0.0278  0.3306
  223SOL    HW1  668   1.170   0.011   2.907  0.9064  1.2148 -1.3839
  223SOL    HW2  669   1.132   2.982   3.022 -1.2120  1.0291  0.0888
  224SOL     OW  670   1.051   2.957   1.102 -0.3402 -0.0676 -0.4577
  224SOL    HW1  671   1.054   3.049   1.054 -1.4617  0.3530 -1.7134
  224SOL    HW2  672   1.069   2.968   1.203 -0.3908  0.5833  4.4589
  225SOL     OW  673   0.453   2.574   1.776 -0.0932  0.0012 -0.4253
  225SOL    HW1  674   0.355   2.597   1.782  1.6711  1.0616 -0.9640
  225SOL    HW2  675   0.476   2.492   1.830  0.8186  2.3903  0.7702
  226SOL     OW  676   1.589   1.467   0.270  0.7685  0.0000  0.4255
  226SOL    HW1  677   1.534   1.518   0.340 -0.0213 -0.8681 -2.6169
  226SOL    HW2  678   1.558   1.370   0.253 -0.3902 -1.5937 -0.0799
  227SOL     OW  679   0.469   1.534   0.735 -0.1940  0.1047 -0.0430
  227SOL    HW1  680   0.509   1.616   0.690 -0.8888 -0.6363 -0.0270
  227SOL    HW2  681   0.398   1.488   0.674 -1.0326 -0.0668  0.1230
  228SOL     OW  682   0.121   1.867   0.713 -0.0963 -0.2078  0.0087
  228SOL    HW1  683   0.018   1.862   0.699 -0.3599  2.0762 -0.0786
  228SOL    HW2  684   0.163   1.963   0.705  2.0431  0.4459  0.8977
  229SOL     OW  685   2.664   0.050   2.979 -0.2339 -0.3602 -0.1294
  229SOL    HW1  686   2.671   0.076   3.078 -1.3132 -0.3902  0.3904
  229SOL    HW2  687   2.725   3.058   2.956  2.1206 -0.0635  0.9060
  230SOL     OW  688   2.387   1.023   0.890  0.0991  0.1513  0.5234
  230SOL    HW1  689   2.435   1.056   0.972  0.0544  0.1235 -2.0654
  230SOL    HW2  690   2.287   1.021   0.903 -0.0647  0.2545  1.2474
  231SOL     OW  691   1.669   1.284   2.983 -0.0739  0.4134 -0.5218
  231SOL    HW1  692   1.615   1.311   2.900 -0.0155 -0.6003 -2.2728
  231SOL    HW2  693   1.702   1.370   3.030  1.0723 -1.8462 -0.3824
  232SOL     OW  694   2.171   1.974   0.972 -0.0699 -0.5783 -0.2930
  232SOL    HW1  695   2.212   1.883   0.944  0.6981 -2.3392  0.1459
  232SOL    HW2  696   2.243   2.044   0.969  2.2050  1.3466 -0.6763
  233SOL     OW  697   0.217   2.902   1.066 -0.3967  0.0946  0.1468
  233SOL    HW1  698   0.306   2.870   1.029 -1.0485  0.3897 -1.8839
  233SOL    HW2  699   0.216   2.996   1.111 -0.3921 -2.4729 -1.0438
  234SOL     OW  700   0.937   0.105   2.527 -0.2696 -0.5360 -0.1148
  234SOL    HW1  701   1.011   0.052   2.486 -0.6492  0.8736  0.3992
  234SOL    HW2  702   0.875   0.045   2.582  0.4000 -0.0040  0.9865
  235SOL     OW  703   2.903   0.968   2.222 -0.3365 -0.4473  0.1817
  235SOL    HW1  704   2.881   1.032   2.148 -0.7236 -0.8862  1.8050
  235SOL    HW2  705   2.977   0.906   2.191  1.3557  0.5156  0.3547
  236SOL     OW  706   1.413   2.894   1.636 -0.2108 -0.0788 -0.2127
  236SOL    HW1  707   1.367   2.978   1.661  3.9055  2.8859 -0.4876
  236SOL    HW2  708   1.365   2.847   1.560 -0.5126  4.8733  2.3263
  237SOL     OW  709   0.734   1.371   2.597 -0.6678 -0.1152  0.7406
  237SOL    HW1  710   0.640   1.345   2.571 -0.1369 -0.0976  1.5366
  237SOL    HW2  711   0.765   1.461   2.550  0.7415  1.7607  1.1055
  238SOL     OW  712   1.113   0.485   2.423 -0.3960  0.4936  0.6346
  238SOL    HW1  713   1.111   0.574   2.375  1.5378  1.3678  0.8032
  238SOL    HW2  714   1.042   0.485   2.498 -1.6694 -1.8718 -1.6652
  239SOL     OW  715   0.125   2.122   2.012  0.2068  0.0092 -0.6317
  239SOL    HW1  716   0.157   2.112   1.914  0.7608 -2.4670 -1.2912
  239SOL    HW2  717   0.203   2.162   2.073 -0.4440 -0.3209  2.8180
  240SOL     OW  718   2.357   0.039   0.856  0.1391 -0.3435  0.5993
  240SOL    HW1  719   2.288   0.072   0.928 -4.0629 -0.4338  0.9303
  240SOL    HW2  720   2.335   0.061   0.760  1.9063 -0.8110  1.3206
  241SOL     OW  721   3.058   0.793   0.131 -0.1655  0.2429 -0.7354
  241SOL    HW1  722   3.083   0.696   0.110 -1.0240 -1.3804  1.7049
  241SOL    HW2  723   0.013   0.853   0.054  0.3087  1.3869 -0.8704
  242SOL     OW  724   1.549   2.441   1.671  0.1046 -0.3880  0.4379
  242SOL    HW1  725   1.623   2.377   1.635 -1.2001 -1.4767  0.9856
  242SOL    HW2  726   1.584   2.510   1.741  2.4190  1.6958  1.4979
  243SOL     OW  727   0.474   2.358   1.932  0.0521  0.6818 -0.0233
  243SOL    HW1  728   0.567   2.316   1.943 -0.1244 -0.3594 -0.1166
  243SOL    HW2  729   0.411   2.318   1.999  2.3940  0.8245  2.9207
  244SOL     OW  730   2.342   0.257   2.147 -0.1945 -0.5927 -0.0614
  244SOL    HW1  731   2.255   0.202   2.160  0.3714  1.4210 -2.1971
  244SOL    HW2  732   2.325   0.355   2.123  0.4023  2.1177 -0.4267
  245SOL     OW  733   1.433   0.002   1.014  0.3532  0.5495  0.0725
  245SOL    HW1  734   1.405   0.082   1.070  0.3126  2.3225  0.6520
  245SOL    HW2  735   1.399   0.012   0.919  3.3167  0.8289 -1.1631
  246SOL     OW  736   1.723   2.855   0.506  0.5377  0.5217 -0.6100
  246SOL    HW1  737   1.735   2.824   0.408  1.6926  0.1143 -1.6029
  246SOL    HW2  738   1.628   2.826   0.534 -1.6711 -2.1962  0.8209
  247SOL     OW  739   1.556   0.627   1.925 -0.4823  0.8012  0.7635
  247SOL    HW1  740   1.567   0.532   1.962 -0.4025 -1.5609  1.0355
  247SOL    HW2  741   1.653   0.671   1.932  0.9942  2.2862  0.3678
  248SOL     OW  742   2.934   2.018   1.785  0.2018 -0.3000 -0.3193
  248SOL    HW1  743   2.995   1.951   1.829  1.2054 -0.3576 -2.6610
  248SOL    HW2  744   2.943   2.115   1.822  0.6398 -0.0657 -1.8014
  249SOL     OW  745   2.929   0.224   0.309  0.0468  0.1780 -0.0585
  249SOL    HW1  746   2.928   0.305   0.373  0.0886 -1.4939  0.8284
  249SOL    HW2  747   3.011   0.230   0.250 -0.0550  1.6243  0.3578
  250SOL     OW  748   2.689   3.009   2.577  0.0283 -0.1933 -0.2201
  250SOL    HW1  749   2.731   2.915   2.584  2.9834 -0.5572  0.2424
  250SOL    HW2  750   2.624   3.029   2.656  1.0712  1.0704  1.5473
  251SOL     OW  751   1.550   0.675   0.135 -0.6443  0.6652  0.3345
  251SOL    HW1  752   1.559   0.642   0.040 -0.7438  0.0434  1.9755
  251SOL    HW2  753   1.639   0.676   0.179 -3.2069 -0.7006  1.0764
  252SOL     OW  754   1.257   2.348   2.131 -0.2849 -0.7525 -0.5409
  252SOL    HW1  755   1.254   2.315   2.225 -1.5620  0.6797 -0.6260
  252SOL    HW2  756   1.330   2.422   2.118  0.8246  3.6619  0.7357
  253SOL     OW  757   2.032   2.612   0.924  0.0626 -0.3017 -0.3887
  253SOL    HW1  758   1.989   2.520   0.924 -4.7662 -2.0074  1.1182
  253SOL    HW2  759   1.964   2.674   0.875 -2.8604  3.8419 -0.3105
  254SOL     OW  760   2.397   1.425   0.998 -0.3450 -0.1576 -0.1319
  254SOL    HW1  761   2.307   1.450   0.952  0.6492  0.9382 -0.3793
  254SOL    HW2  762   2.378   1.379   1.090  1.4559 -2.3776 -0.1112
  255SOL     OW  763   0.814   2.842   1.118 -0.3147  0.0945  0.0199
  255SOL    HW1  764   0.904   2.887   1.104 -0.7018 -0.6721  1.1138
  255SOL    HW2  765   0.831   2.747   1.147  1.8675  1.5047 -2.2022
  256SOL     OW  766   1.747   1.998   1.645 -0.5942  0.0118 -0.3830
  256SOL    HW1  767   1.838   1.961   1.618  1.7057 -0.4888  0.1058
  256SOL    HW2  768   1.672   1.984   1.576 -0.7156  0.5686  0.5218
  257SOL     OW  769   0.376   2.388   2.391  0.1977  0.1471 -0.3790
  257SOL    HW1  770   0.458   2.333   2.410 -1.1139 -0.0841  0.7127
  257SOL    HW2  771   0.390   2.482   2.437  1.4196  0.2930 -0.3137
  258SOL     OW  772   0.740   2.912   0.858 -0.1007 -0.0178 -0.6582
  258SOL    HW1  773   0.758   2.882   0.954  3.3471 -2.0214  3.2278
  258SOL    HW2  774   0.740   3.013   0.853  0.2567 -0.3835  1.1024
  259SOL     OW  775   1.353   0.552   2.760  0.0295 -0.8403 -0.0285
  259SOL    HW1  776   1.350   0.476   2.832 -0.1995 -0.0951  0.4336
  259SOL    HW2  777   1.268   0.610   2.760  1.5346 -1.5497  1.9566
  260SOL     OW  778   0.017   1.074   1.113  0.0961  0.0290 -0.2508
  260SOL    HW1  779   0.068   1.094   1.200  1.3261 -0.5227 -0.9586
  260SOL    HW2  780   0.084   1.049   1.038 -0.4519  1.9532  2.0156
  261SOL     OW  781   0.845   0.271   2.327 -0.2236  0.5166  0.0153
  261SOL    HW1  782   0.884   0.220   2.407 -0.4816 -3.0093  1.4258
  261SOL    HW2  783   0.891   0.244   2.238  2.0879  0.9644 -0.0264
  262SOL     OW  784   1.029   2.460   2.049  0.3059  0.2745  0.0204
  262SOL    HW1  785   0.972   2.403   1.986 -0.3362  0.3664 -0.2129
  262SOL    HW2  786   1.122   2.415   2.059 -1.9379 -1.4090  0.0375
  263SOL     OW  787   0.589   2.077   2.971 -0.2822 -0.2793  0.3944
  263SOL    HW1  788   0.646   2.113   3.048 -1.5322  1.4661 -1.7132
  263SOL    HW2  789   0.606   1.975   2.954  1.2122 -1.7645  1.4934
  264SOL     OW  790   1.047   1.515   1.172  0.4301 -0.0159 -0.2513
  264SOL    HW1  791   1.131   1.521   1.230 -1.0733 -2.4590  1.7995
  264SOL    HW2  792   0.970   1.470   1.213  1.2977  2.3639 -1.6062
  265SOL     OW  793   0.931   2.465   0.542  0.0385  0.5708  0.1938
  265SOL    HW1  794   0.890   2.374   0.549 -0.1189  1.0712  0.4312
  265SOL    HW2  795   1.015   2.474   0.603  1.2079  0.0919 -0.8736
  266SOL     OW  796   2.662   0.843   1.023  0.1694 -0.4226  0.4137
  266SOL    HW1  797   2.594   0.789   0.965 -1.4875 -0.3379  0.6315
  266SOL    HW2  798   2.755   0.853   0.977  0.9450 -1.0099 -2.8356
  267SOL     OW  799   2.917   1.257   2.880  0.2486 -0.1759 -0.1697
  267SOL    HW1  800   2.963   1.232   2.966 -2.0095  1.8189  0.2060
  267SOL    HW2  801   2.980   1.247   2.800  1.1628 -3.5811 -0.5284
  268SOL     OW  802   1.779   0.138   0.237 -0.2739  0.0547  0.1053
  268SOL    HW1  803   1.818   0.052   0.279 -1.0222  2.2537 -0.6473
  268SOL    HW2  804   1.793   0.216   0.303 -0.8569  0.4008  0.5445
  269SOL     OW  805   2.854   0.859   2.466 -0.0373 -0.3602  0.2380
  269SOL    HW1  806   2.797   0.912   2.528  1.8698 -1.9078 -1.5587
  269SOL    HW2  807   2.860   0.900   2.375  1.2767 -1.2192 -1.5291
  270SOL     OW  808   3.028   1.166   0.013  0.0316  0.0529 -0.7633
  270SOL    HW1  809   3.018   1.209   0.106  0.7160  1.9411  1.1285
  270SOL    HW2  810   0.016   1.091   0.018  0.5081 -1.1173 -1.0789
  271SOL     OW  811   2.709   1.631   2.569  0.0515 -0.0535  0.4145
  271SOL    HW1  812   2.736   1.583   2.651  1.7331 -1.1797 -2.9663
  271SOL    HW2  813   2.757   1.723   2.567  0.0555  1.4204  0.3263
  272SOL     OW  814   2.293   2.478   1.850  0.3153 -0.0407  0.2702
  272SOL    HW1  815   2.230   2.519   1.776 -1.2888  1.6345 -1.7685
  272SOL    HW2  816   2.284   2.535   1.933 -1.6803  0.4312  2.0705
  273SOL     OW  817   0.337   2.409   0.006  0.5385  0.3309 -0.2287
  273SOL    HW1  818   0.336   2.511   3.066  1.9033  1.9406  1.5502
  273SOL    HW2  819   0.423   2.395   0.062 -0.6810 -0.5524 -0.3191
  274SOL     OW  820   0.925   2.584   0.883  0.5371 -0.6016  0.5388
  274SOL    HW1  821   0.839   2.527   0.867 -0.6805 -1.0832 -0.7254
  274SOL    HW2  822   0.999   2.559   0.817  0.1605  0.4648 -1.9510
  275SOL     OW  823   2.112   1.762   0.089 -0.2542  0.3540  0.1960
  275SOL    HW1  824   2.207   1.753   0.121 -0.1536  0.1746  0.3202
  275SOL    HW2  825   2.093   1.826   0.008 -0.6801  1.4244 -0.4960
  276SOL     OW  826   2.358   1.283   1.745 -0.1466 -0.1064 -0.4852
  276SOL    HW1  827   2.351   1.338   1.829  0.3943  0.9119  0.0598
  276SOL    HW2  828   2.441   1.226   1.741 -1.4662 -1.3031 -2.8336
  277SOL     OW  829   2.541   0.327   0.970  0.5284  0.2833  0.3972
  277SOL    HW1  830   2.514   0.345   0.872  1.9240 -2.6576  2.1967
  277SOL    HW2  831   2.456   0.323   1.027 -0.3440 -1.5512  0.7558
  278SOL     OW  832   1.796   0.493   2.354  0.5147  0.6677  0.1692
  278SOL    HW1  833   1.764   0.553   2.429  0.7863 -0.4840  0.7427
  278SOL    HW2  834   1.794   0.390   2.376 -0.6808 -1.8431  1.3279
  279SOL     OW  835   1.228   2.739   1.143  0.0498  0.1238 -0.4501
  279SOL    HW1  836   1.325   2.737   1.117 -2.1502 -1.4244 -0.7611
  279SOL    HW2  837   1.184   2.829   1.130 -2.3625  0.1943 -1.3564
  280SOL     OW  838   1.163   0.918   0.326  0.1780 -0.3066 -0.4782
  280SOL    HW1  839   1.130   0.873   0.239 -1.0403 -3.1963 -3.6378
  280SOL    HW2  840   1.264   0.927   0.313 -0.9963  0.9839  1.2379
  281SOL     OW  841   2.375   1.505   0.121  0.1276 -0.0810  0.0890
  281SOL    HW1  842   2.423   1.491   0.210  0.1139 -1.2644 -2.0855
  281SOL    HW2  843   2.379   1.414   0.079 -0.3108  1.0282  2.7525
  282SOL     OW  844   2.773   1.276   0.244 -0.5766 -0.4920 -0.5381
  282SOL    HW1  845   2.704   1.255   0.315  0.5980  0.5713  0.0918
  282SOL    HW2  846   2.869   1.297   0.277 -1.3451  0.7904 -1.4331
  283SOL     OW  847   1.635   2.912   2.656 -0.1444  0.2907  0.6687
  283SOL    HW1  848   1.637   2.960   2.564 -1.7867  1.0521  0.9974
  283SOL    HW2  849   1.701   2.949   2.723  0.3788 -0.4031 -1.1076
  284SOL     OW  850   0.796   0.015   2.934  0.3026 -0.2191 -0.1394
  284SOL    HW1  851   0.824   0.102   2.885 -0.7547  3.1194 -0.7950
  284SOL    HW2  852   0.855   3.071   3.009 -0.6698  0.6314 -1.5469
  285SOL     OW  853   1.938   2.138   2.801  0.3300  0.1652  0.4600
  285SOL    HW1  854   1.972   2.237   2.800 -0.4920  0.4651  0.6331
  285SOL    HW2  855   1.872   2.114   2.728 -1.6536 -0.6357 -0.6306
  286SOL     OW  856   1.165   1.833   0.776 -0.1314 -0.1024  0.6428
  286SOL    HW1  857   1.212   1.762   0.828 -2.3026  2.5169 -2.7904
  286SOL    HW2  858   1.169   1.916   0.830  1.3841  0.3169 -0.1088
  287SOL     OW  859   1.624   0.046   1.346 -0.2312 -0.1296  0.5007
  287SOL    HW1  860   1.674   0.068   1.428  0.5725  0.2164 -1.9115
  287SOL    HW2  861   1.522   0.042   1.350  1.4582  0.9209 -1.6319
  288SOL     OW  862   0.741   2.695   2.299  0.0000  0.5595 -0.9534
  288SOL    HW1  863   0.694   2.769   2.350 -4.6374 -2.3810  1.1070
  288SOL    HW2  864   0.755   2.725   2.207  3.7995 -1.5413  1.8534
  289SOL     OW  865   0.098   1.408   0.708 -0.5403 -0.0612  0.8374
  289SOL    HW1  866   0.101   1.329   0.641  0.8188 -1.5038  0.7003
  289SOL    HW2  867   0.146   1.388   0.798 -0.9112  0.8181  1.1984
  290SOL     OW  868   1.102   1.959   1.564 -0.1640 -0.1666  0.6280
  290SOL    HW1  869   1.091   1.947   1.663 -1.2732 -0.5642 -2.0970
  290SOL    HW2  870   1.197   1.991   1.543  0.3371 -1.9344  0.7312
  291SOL     OW  871   2.009   0.170   0.614 -0.0125 -0.1479  0.2739
  291SOL    HW1  872   1.955   0.146   0.699  0.9107  0.2524  2.2419
  291SOL    HW2  873   1.991   0.105   0.538 -2.4327  1.1960  1.3338
  292SOL     OW  874   0.247   0.350   1.451  0.2984 -0.0389 -0.4617
  292SOL    HW1  875   0.207   0.409   1.375 -3.1907  2.6292 -2.2850
  292SOL    HW2  876   0.211   0.388   1.537 -0.4522  0.9112 -2.4440
  293SOL     OW  877   2.288   1.805   0.778 -0.5199 -0.2963  0.2171
  293SOL    HW1  878   2.379   1.813   0.820  0.6944  2.5602  1.2121
  293SOL    HW2  879   2.259   1.708   0.773  1.4295 -0.0665  1.3580
  294SOL     OW  880   0.326   0.262   2.319  0.5299  0.7791  0.4117
  294SOL    HW1  881   0.351   0.340   2.255  1.9374 -1.2664 -0.4175
  294SOL    HW2  882   0.409   0.206   2.337 -1.4902  1.6253 -0.5377
  295SOL     OW  883   0.943   1.338   0.396  0.0202  0.1235 -0.2687
  295SOL    HW1  884   0.946   1.238   0.417 -0.9243  0.1046 -1.6265
  295SOL    HW2  885   0.850   1.359   0.355 -0.7111 -0.5416 -0.6104
  296SOL     OW  886   1.953   1.956   1.118  0.2369 -0.2029 -0.1200
  296SOL    HW1  887   1.904   1.867   1.120  0.4962  1.0599  0.0610
  296SOL    HW2  888   2.034   1.956   1.053  2.7491 -1.7568 -0.2539
  297SOL     OW  889   1.818   0.452   2.735 -0.2623 -0.2843  0.1374
  297SOL    HW1  890   1.916   0.461   2.705  0.6610  0.0379  1.0365
  297SOL    HW2  891   1.758   0.511   2.676  0.7014 -1.3216 -1.2410
  298SOL     OW  892   1.368   0.027   2.829  0.1447  0.2021  0.2154
  298SOL    HW1  893   1.441   3.046   2.797  2.8971 -0.7033  0.4436
  298SOL    HW2  894   1.399   0.086   2.905 -0.0767 -0.9027  0.5752
  299SOL     OW  895   1.005   0.163   2.116 -0.5516 -0.2671 -0.5401
  299SOL    HW1  896   1.060   0.174   2.204  0.5703  1.7708  0.9371
  299SOL    HW2  897   0.997   0.066   2.088 -3.1717  0.6054 -0.4229
  300SOL     OW  898   2.517   0.095   1.555 -0.5383  0.2984 -0.4012
  300SOL    HW1  899   2.508   0.049   1.643 -1.2663  0.0367  0.6551
  300SOL    HW2  900   2.491   0.193   1.570 -0.6314 -0.4281 -0.7290
  301SOL     OW  901   2.155   0.789   1.832 -0.6093  0.3370  0.1928
  301SOL    HW1  902   2.238   0.853   1.834  1.8781 -0.0862  2.9396
  301SOL    HW2  903   2.092   0.820   1.757 -1.1190  1.3047 -0.5948
  302SOL     OW  904   0.703   2.773   0.278  0.4583 -0.2064 -0.0421
  302SOL    HW1  905   0.603   2.745   0.286 -1.6366  0.0128  0.3958
  302SOL    HW2  906   0.754   2.767   0.364 -1.8581 -1.0451  0.7221
  303SOL     OW  907   1.901   1.845   2.111  0.5312  0.0313 -0.4247
  303SOL    HW1  908   1.931   1.807   2.018  1.7740 -1.6615 -1.1184
  303SOL    HW2  909   1.841   1.929   2.097  2.1052 -0.9110  0.2884
  304SOL     OW  910   0.415   0.342   0.762  0.6818 -0.1377  0.7990
  304SOL    HW1  911   0.384   0.277   0.833  3.0206 -1.6768  1.1922
  304SOL    HW2  912   0.492   0.397   0.794 -1.6147  1.0103 -3.0559
  305SOL     OW  913   0.808   0.902   0.511 -0.1446  0.4564 -0.0086
  305SOL    HW1  914   0.738   0.907   0.440  1.0568 -1.5461  0.2482
  305SOL    HW2  915   0.817   0.813   0.564  0.3916  0.6229  0.3984
  306SOL     OW  916   0.553   1.272   2.923  0.5459  0.0527 -0.3269
  306SOL    HW1  917   0.654   1.269   2.898  1.0430  0.8708  0.7784
  306SOL    HW2  918   0.539   1.275   3.020  1.9998  0.8684 -4.3186
  307SOL     OW  919   0.838   0.330   1.921  0.2934 -0.2367 -0.2176
  307SOL    HW1  920   0.859   0.416   1.867 -0.9841  1.0162  0.9714
  307SOL    HW2  921   0.921   0.301   1.975  0.1044  1.6596 -1.4655
  308SOL     OW  922   0.947   0.254   0.755 -0.2641  0.2321  0.0024
  308SOL    HW1  923   0.902   0.342   0.742  1.0420 -0.1106 -1.4421
  308SOL    HW2  924   1.027   0.254   0.695 -0.3108  1.1683  0.9182
  309SOL     OW  925   2.225   1.265   0.568 -0.0810 -0.0689  0.6195
  309SOL    HW1  926   2.316   1.247   0.607 -3.3735  1.9062 -2.6010
  309SOL    HW2  927   2.217   1.354   0.514 -2.0942  4.3860 -0.8008
  310SOL     OW  928   0.994   1.352   2.997 -0.3968  0.3190 -0.3110
  310SOL    HW1  929   1.093   1.349   2.966  2.0696 -0.5310 -0.3310
  310SOL    HW2  930   0.986   1.306   0.003 -0.4337  1.4526  5.0133
  311SOL     OW  931   1.835   2.500   2.086 -0.1405 -0.8067 -0.1620
  311SOL    HW1  932   1.821   2.423   2.149 -0.2122  0.9370 -1.5327
  311SOL    HW2  933   1.837   2.589   2.140 -0.2980  0.9922 -0.2948
  312SOL     OW  934   2.288   2.937   3.083 -0.2714  0.0575 -0.0898
  312SOL    HW1  935   2.250   2.943   2.989  0.4777  0.2512 -1.1841
  312SOL    HW2  936   2.377   2.888   3.084 -1.8594  0.6651 -0.2595
  313SOL     OW  937   0.433   0.337   2.928 -0.3780 -0.1719 -0.2211
  313SOL    HW1  938   0.515   0.396   2.914 -0.0898  0.2070 -0.5015
  313SOL    HW2  939   0.354   0.358   2.866 -1.3001  0.6716  1.7478
  314SOL     OW  940   2.616   1.485   2.834 -0.3219  0.0495  0.3818
  314SOL    HW1  941   2.596   1.448   2.925  2.4110 -2.4260 -2.0271
  314SOL    HW2  942   2.668   1.574   2.850  0.8328  1.9137 -0.4347
  315SOL     OW  943   1.817   0.734   2.251 -0.0935  0.4173  0.2432
  315SOL    HW1  944   1.824   0.634   2.277  2.3905 -2.2522 -0.1484
  315SOL    HW2  945   1.909   0.780   2.261 -1.8114 -0.4690 -4.0268
  316SOL     OW  946   3.015   1.035   0.567  0.1470 -0.0770  1.1754
  316SOL    HW1  947   3.006   1.004   0.469  0.0923 -2.6554 -0.0285
  316SOL    HW2  948   2.928   1.017   0.615  1.4520  1.6988 -1.7816
  317SOL     OW  949   0.469   3.006   0.109 -0.8198 -0.0940 -0.5866
  317SOL    HW1  950   0.457   3.064   0.022  0.7988  1.1071 -1.6648
  317SOL    HW2  951   0.541   3.041   0.178  2.0181 -1.3763  0.4600
  318SOL     OW  952   1.851   2.731   1.363  0.3443  0.4574 -0.1571
  318SOL    HW1  953   1.769   2.735   1.424  1.4452  1.0940 -0.2111
  318SOL    HW2  954   1.876   2.635   1.340 -0.5640  1.6652  0.2566
  319SOL     OW  955   1.093   1.575   0.349  0.3238  0.0339  0.1444
  319SOL    HW1  956   1.042   1.492   0.335  3.6603  0.7219  0.9829
  319SOL    HW2  957   1.160   1.553   0.420  2.0201 -3.4947  1.8184
  320SOL     OW  958   0.762   1.919   0.884  0.4267  0.5777 -0.0085
  320SOL    HW1  959   0.815   1.967   0.962  1.4295  1.0420 -0.0713
  320SOL    HW2  960   0.670   1.967   0.865 -1.7593  0.0640 -2.9032
  321SOL     OW  961   2.223   2.686   2.022  0.5897 -0.2011  0.6601
  321SOL    HW1  962   2.297   2.638   2.068 -1.0533 -0.6294 -1.6909
  321SOL    HW2  963   2.214   2.772   2.074  1.0245  1.7340 -0.2799
  322SOL     OW  964   2.345   2.151   2.468 -0.4054 -0.2890 -0.3460
  322SOL    HW1  965   2.314   2.056   2.488  1.7382  2.7648  0.1423
  322SOL    HW2  966   2.451   2.162   2.480  1.1094 -1.3157  1.3029
  323SOL     OW  967   2.479   0.721   0.861  0.2805 -0.1831 -0.0658
  323SOL    HW1  968   2.406   0.789   0.848 -2.0926 -3.0463  2.1597
  323SOL    HW2  969   2.515   0.683   0.775 -0.5391  0.0145 -2.2341
  324SOL     OW  970   2.258   2.347   2.311  0.1013 -0.0912 -0.5445
  324SOL    HW1  971   2.301   2.275   2.367 -0.3340 -0.5615 -0.7350
  324SOL    HW2  972   2.186   2.304   2.251 -0.1939 -1.4802  0.2990
  325SOL     OW  973   1.372   0.520   2.474 -0.5943 -0.4591 -0.0369
  325SOL    HW1  974   1.275   0.500   2.447 -2.8517 -1.1729 -1.9446
  325SOL    HW2  975   1.379   0.518   2.579  0.1405 -2.3767  1.7260
  326SOL     OW  976   2.487   2.595   1.003  0.1177 -0.0297  0.2805
  326SOL    HW1  977   2.554   2.640   0.939  2.1452  2.2975 -1.1301
  326SOL    HW2  978   2.413   2.550   0.950  1.1933 -1.9166  1.5459
  327SOL     OW  979   2.580   2.876   0.318 -0.1889  0.1238 -0.5659
  327SOL    HW1  980   2.579   2.855   0.218 -1.2101 -1.2798  0.9327
  327SOL    HW2  981   2.553   2.971   0.342  0.2202  0.1473  0.7506
  328SOL     OW  982   0.788   0.690   0.673 -0.1771  0.0002  0.1521
  328SOL    HW1  983   0.869   0.650   0.723  1.8858  0.4201  0.7477
  328SOL    HW2  984   0.701   0.652   0.702  1.3928 -0.4019  0.1185
  329SOL     OW  985   1.949   0.680   1.357  0.3465  0.1732  0.4143
  329SOL    HW1  986   1.923   0.778   1.353  0.7674 -1.6658 -1.9225
  329SOL    HW2  987   2.048   0.660   1.344 -2.3524 -1.0840  2.2733
  330SOL     OW  988   0.629   0.464   0.374 -0.2569  0.2671 -0.2866
  330SOL    HW1  989   0.698   0.542   0.380 -0.4747  0.0277  2.8938
  330SOL    HW2  990   0.667   0.387   0.331 -3.9137  3.0059  1.0217
  331SOL     OW  991   0.788   1.779   1.878  0.4320 -0.4038 -0.1158
  331SOL    HW1  992   0.876   1.727   1.879 -0.7803 -2.3697 -0.6785
  331SOL    HW2  993   0.767   1.819   1.788 -0.0207  0.3481 -3.2030
  332SOL     OW  994   1.928   2.402   1.833  0.1829 -0.4373 -0.2276
  332SOL    HW1  995   1.913   2.401   1.936  1.1733 -1.6109  2.5082
  332SOL    HW2  996   1.982   2.486   1.803 -0.9482  1.4661 -1.6588
  333SOL     OW  997   2.983   0.012   1.099 -0.2068  0.2446  0.2126
  333SOL    HW1  998   2.984   0.081   1.175  2.1828 -1.2143  3.0375
  333SOL    HW2  999   2.953   3.007   1.138  1.1602 -0.7591  1.2927
  334SOL     OW 1000   3.040   1.641   0.900 -0.4379 -0.3958 -0.3031
  334SOL    HW1 1001   2.992   1.583   0.833  0.1439  0.7776  1.0786
  334SOL    HW2 1002   0.051   1.604   0.907 -0.3129 -1.3460 -0.4202
  335SOL     OW 1003   0.485   2.503   2.704  0.2395 -0.0100 -0.1997
  335SOL    HW1 1004   0.450   2.432   2.769  3.0636  0.7900 -0.6418
  335SOL    HW2 1005   0.411   2.538   2.645  0.2599 -0.0556  1.1532
  336SOL     OW 1006   3.001   2.737   2.097 -0.0836  0.1832  0.2423
  336SOL    HW1 1007   2.951   2.679   2.170  0.0628 -3.6211  0.5444
  336SOL    HW2 1008   2.957   2.829   2.094 -1.3832 -0.5168  1.2230
  337SOL     OW 1009   1.099   1.882   1.844  0.0035  0.1704  0.2793
  337SOL    HW1 1010   1.072   1.783   1.830 -0.1498 -0.1720  2.5688
  337SOL    HW2 1011   1.197   1.885   1.878 -0.8572 -0.9188 -0.3441
  338SOL     OW 1012   1.232   0.102   2.590 -0.7601 -0.3459  0.1471
  338SOL    HW1 1013   1.214   0.019   2.538  2.8070  0.5568  2.2443
  338SOL    HW2 1014   1.270   0.073   2.679 -1.3888  1.5567 -1.0662
  339SOL     OW 1015   0.242   0.751   2.409 -0.0869 -0.4663 -0.2892
  339SOL    HW1 1016   0.258   0.829   2.341 -0.6562 -2.6490 -0.8764
  339SOL    HW2 1017   0.235   0.792   2.504 -0.3460  3.1037  0.6197
  340SOL     OW 1018   2.200   0.568   1.407  0.1766 -0.2339 -0.2107
  340SOL    HW1 1019   2.266   0.603   1.344  0.5444 -3.4831  2.9914
  340SOL    HW2 1020   2.194   0.464   1.394  0.7179  0.3437  1.2569
  341SOL     OW 1021   2.225   1.301   1.212  0.2486  0.5750 -0.2175
  341SOL    HW1 1022   2.241   1.383   1.272 -1.9203 -0.3686 -0.8165
  341SOL    HW2 1023   2.257   1.216   1.258 -1.1629 -0.3898  1.2340
  342SOL     OW 1024   2.050   2.876   2.766 -0.1756  0.3656 -0.3777
  342SOL    HW1 1025   2.086   2.961   2.811  1.0283 -1.5561  0.9049
  342SOL    HW2 1026   2.022   2.808   2.838 -0.1958 -1.1748 -2.7484
  343SOL     OW 1027   2.971   2.429   1.146  0.1970 -0.6769  0.2878
  343SOL    HW1 1028   2.981   2.341   1.191  2.2239 -2.8356  0.9139
  343SOL    HW2 1029   3.024   2.506   1.187  2.1804  1.5687 -0.3557
  344SOL     OW 1030   2.273   0.041   1.153 -0.1503  0.4351  0.5322
  344SOL    HW1 1031   2.177   0.016   1.131  0.6061 -2.6829 -1.5299
  344SOL    HW2 1032   2.281   0.030   1.253 -3.4780  0.6079 -1.9900
  345SOL     OW 1033   2.429   2.150   0.550 -0.1764 -0.0864  0.1534
  345SOL    HW1 1034   2.477   2.144   0.462 -0.6860 -1.1742 -1.3589
  345SOL    HW2 1035   2.376   2.243   0.555 -1.6649  1.8949  1.3285
  346SOL     OW 1036   1.505   1.895   1.509  0.4041  0.6522  0.1217
  346SOL    HW1 1037   1.490   1.814   1.572  0.4928 -0.0782 -1.3556
  346SOL    HW2 1038   1.446   1.977   1.542  0.8818 -0.7483  0.4512
  347SOL     OW 1039   0.979   1.792   1.392  0.3482  0.5818  0.7766
  347SOL    HW1 1040   1.015   1.817   1.299  1.9250  3.2974  0.3179
  347SOL    HW2 1041   1.019   1.858   1.460 -2.2764 -0.8128 -0.5602
  348SOL     OW 1042   0.435   1.919   1.845  0.4371  0.6109  0.2197
  348SOL    HW1 1043   0.519   1.955   1.893  0.6530 -0.2101 -2.0618
  348SOL    HW2 1044   0.449   1.929   1.743 -0.2161  1.0837  1.7207
  349SOL     OW 1045   1.721   1.611   1.673  0.3196  0.4363  0.1276
  349SOL    HW1 1046   1.699   1.511   1.683  1.5305 -2.0860  3.3459
  349SOL    HW2 1047   1.644   1.673   1.701 -1.7797  1.5356 -0.5776
  350SOL     OW 1048   2.225   2.413   0.543  0.0550  0.3235 -0.7485
  350SOL    HW1 1049   2.312   2.464   0.565  1.2375 -0.8379  0.8563
  350SOL    HW2 1050   2.147   2.480   0.523 -0.5642  0.6983  1.5663
  351SOL     OW 1051   0.433   2.926   1.600  0.1526 -0.6417  0.0644
  351SOL    HW1 1052   0.408   2.857   1.528  1.1006  2.1099  1.8896
  351SOL    HW2 1053   0.345   2.971   1.633 -0.0178  1.4453 -1.7696
  352SOL     OW 1054   0.613   1.036   0.678  0.0513  0.1523  0.1362
  352SOL    HW1 1055   0.641   1.096   0.757  1.4481 -1.0053  0.2662
  352SOL    HW2 1056   0.699   1.002   0.639  0.4624 -1.6043 -0.2133
  353SOL     OW 1057   1.162   1.762   2.628 -0.7206 -0.1990 -0.5898
  353SOL    HW1 1058   1.140   1.857   2.596 -4.4309  0.0307 -2.3428
  353SOL    HW2 1059   1.075   1.713   2.655 -0.3179 -0.1220  0.4301
  354SOL     OW 1060   1.678   2.612   1.835  0.2152 -0.2386  0.8097
  354SOL    HW1 1061   1.762   2.553   1.830 -1.6333  1.3285 -0.9936
  354SOL    HW2 1062   1.704   2.691   1.889  0.8593  1.5043  0.1637
  355SOL     OW 1063   2.328   1.084   0.190 -0.0905 -0.6675 -0.7691
  355SOL    HW1 1064   2.369   1.156   0.135  1.6239 -1.4569  0.5689
  355SOL    HW2 1065   2.228   1.085   0.162 -0.1484 -0.5505 -4.9415
  356SOL     OW 1066   0.378   1.881   0.987  0.1406  0.4221 -0.3530
  356SOL    HW1 1067   0.347   1.787   0.951 -2.0146 -0.9535  0.5678
  356SOL    HW2 1068   0.302   1.940   1.024  0.6899 -1.7385 -0.4357
  357SOL     OW 1069   0.027   2.809   1.615 -0.2411  0.0761  0.0710
  357SOL    HW1 1070   3.023   2.767   1.649 -1.6724 -1.3008 -0.0341
  357SOL    HW2 1071   3.083   2.866   1.535 -1.8075 -1.0682 -0.0896
  358SOL     OW 1072   2.347   1.781   1.662 -0.4448 -0.1378 -0.4102
  358SOL    HW1 1073   2.412   1.829   1.597  2.2498  0.8518 -0.6824
  358SOL    HW2 1074   2.346   1.681   1.649  2.4299  1.6969 -3.5879
  359SOL     OW 1075   2.167   2.749   2.547 -0.0872 -0.3960 -0.5433
  359SOL    HW1 1076   2.115   2.797   2.621 -0.4413 -0.8685 -2.2066
  359SOL    HW2 1077   2.148   2.652   2.543  0.1777  3.6490 -1.2077
  360SOL     OW 1078   1.070   2.850   0.823 -0.2538  0.1961 -0.2205
  360SOL    HW1 1079   1.006   2.783   0.866 -2.4685  0.0181 -0.9696
  360SOL    HW2 1080   1.137   2.882   0.888 -2.2555 -0.6931  0.1797
  361SOL     OW 1081   1.935   0.449   0.583 -0.1115 -0.2300  0.1025
  361SOL    HW1 1082   1.963   0.352   0.580  1.2115  0.5691  0.3347
  361SOL    HW2 1083   1.940   0.486   0.678 -0.2123 -1.8464  0.0174
  362SOL     OW 1084   1.452   0.865   1.195 -0.4482  0.3839  0.1127
  362SOL    HW1 1085   1.427   0.823   1.107 -3.3223 -0.3010  1.8052
  362SOL    HW2 1086   1.384   0.847   1.267  1.5918  1.5389 -0.8572
  363SOL     OW 1087   1.972   1.469   2.295  0.4612 -0.5868  0.1318
  363SOL    HW1 1088   2.023   1.408   2.353 -2.5702  1.3102  1.2050
  363SOL    HW2 1089   2.027   1.514   2.224  1.8580  0.8252 -1.7832
  364SOL     OW 1090   0.430   0.608   1.174 -0.2380 -0.4421 -0.9157
  364SOL    HW1 1091   0.386   0.693   1.140  0.9533 -1.1540  0.1752
  364SOL    HW2 1092   0.528   0.604   1.145  0.0983 -1.1958  0.5911
  365SOL     OW 1093   0.582   0.178   2.364  0.0593 -1.0440 -0.0117
  365SOL    HW1 1094   0.670   0.231   2.337  1.1715  1.4146 -1.6502
  365SOL    HW2 1095   0.594   0.090   2.327 -0.6077  1.9252 -0.1008
  366SOL     OW 1096   2.222   2.022   2.682 -0.0310 -0.6018 -0.1412
  366SOL    HW1 1097   2.308   1.968   2.675 -0.5877 -1.2935 -0.7358
  366SOL    HW2 1098   2.224   2.088   2.765 -0.7395  3.6091 -0.7663
  367SOL     OW 1099   2.637   2.606   0.109  0.1172  0.5560  0.0438
  367SOL    HW1 1100   2.723   2.601   0.166 -1.1466  2.7882 -0.5298
  367SOL    HW2 1101   2.639   2.553   0.024  0.9152 -0.5855  0.3586
  368SOL     OW 1102   2.859   1.584   1.089  0.1672  0.1536  0.1102
  368SOL    HW1 1103   2.797   1.507   1.069  0.0669 -1.3706 -0.4977
  368SOL    HW2 1104   2.919   1.592   1.005 -1.9865 -1.0386  0.4072
  369SOL     OW 1105   0.717   2.951   2.409  0.1685 -0.5325  0.0040
  369SOL    HW1 1106   0.749   2.972   2.504 -3.2794 -1.4013 -1.5439
  369SOL    HW2 1107   0.793   2.971   2.338  3.1716  1.2498 -1.2244
  370SOL     OW 1108   2.904   0.272   0.715 -0.0826  0.4615 -0.2354
  370SOL    HW1 1109   2.945   0.325   0.635 -0.5072 -1.6364  1.9637
  370SOL    HW2 1110   2.817   0.228   0.684  2.2476  0.3636 -0.3148
  371SOL     OW 1111   1.340   2.098   1.546  0.7305 -0.2470  0.4899
  371SOL    HW1 1112   1.322   2.164   1.467  0.6261 -1.2529 -1.0007
  371SOL    HW2 1113   1.333   2.153   1.635 -0.2670  2.4963  1.6146
  372SOL     OW 1114   2.910   0.580   2.376  0.2447 -0.4008  0.0178
  372SOL    HW1 1115   3.001   0.565   2.416 -2.4739  0.3543 -1.7241
  372SOL    HW2 1116   2.847   0.637   2.439 -2.7270  1.6214  2.0863
  373SOL     OW 1117   0.195   2.111   0.726  0.1157  0.3102  0.9448
  373SOL    HW1 1118   0.279   2.161   0.747 -0.4886 -0.0297  1.1170
  373SOL    HW2 1119   0.113   2.148   0.772 -0.9932  1.5635 -2.2749
  374SOL     OW 1120   0.310   2.887   2.563 -0.3377 -0.1195  0.1080
  374SOL    HW1 1121   0.363   2.901   2.650  1.2083 -0.1000  1.5212
  374SOL    HW2 1122   0.371   2.913   2.484  1.2129  0.9110 -1.6979
  375SOL     OW 1123   0.588   0.176   2.663 -0.3628  0.5462  0.3723
  375SOL    HW1 1124   0.547   0.088   2.695 -1.5413 -5.1489  0.5451
  375SOL    HW2 1125   0.582   0.175   2.561 -0.9963 -1.3429 -2.3110
  376SOL     OW 1126   2.723   2.233   1.784 -0.4944 -0.1483  0.2256
  376SOL    HW1 1127   2.810   2.257   1.831 -1.4889  0.6772 -0.1821
  376SOL    HW2 1128   2.681   2.155   1.834  1.5562  0.4972 -2.1072
  377SOL     OW 1129   1.491   2.841   2.921  0.0191  0.0009 -0.0744
  377SOL    HW1 1130   1.469   2.879   3.015 -0.5780 -0.2421  2.6640
  377SOL    HW2 1131   1.584   2.871   2.890  4.9135 -0.1737 -0.7208
  378SOL     OW 1132   3.049   0.300   2.323  0.5533  0.4959 -0.3828
  378SOL    HW1 1133   0.028   0.339   2.393 -1.0654  1.8348  0.8165
  378SOL    HW2 1134   2.953   0.320   2.341  3.0861  1.0098  0.3453
  379SOL     OW 1135   0.362   0.981   0.181  0.4179  0.3006 -0.5761
  379SOL    HW1 1136   0.370   0.967   0.080  0.3456 -2.0787  1.6496
  379SOL    HW2 1137   0.297   0.918   0.231 -0.8367 -3.4987  0.2620
  380SOL     OW 1138   0.333   1.667   1.873  0.2611 -0.3734  0.1366
  380SOL    HW1 1139   0.377   1.758   1.866 -1.7854 -0.5882  0.7503
  380SOL    HW2 1140   0.341   1.641   1.970  0.0926  2.2952  2.4059
  381SOL     OW 1141   0.254   1.227   2.101 -0.5236  0.0592 -0.1143
  381SOL    HW1 1142   0.327   1.163   2.065 -1.7606  1.4079  1.8559
  381SOL    HW2 1143   0.183   1.245   2.028  2.8377 -0.3319 -0.8554
  382SOL     OW 1144   2.414   1.863   0.518 -0.2997  0.3383  0.0852
  382SOL    HW1 1145   2.406   1.961   0.540 -2.2932 -0.5132 -1.3447
  382SOL    HW2 1146   2.368   1.804   0.583  0.2462 -1.2195 -1.3766
  383SOL     OW 1147   0.435   1.786   0.053  0.7831 -0.2455 -0.1591
  383SOL    HW1 1148   0.451   1.801   0.155  2.5837  1.9714  1.2708
  383SOL    HW2 1149   0.518   1.813   3.084  0.7840 -1.5185 -1.1020
  384SOL     OW 1150   0.887   2.177   2.607  0.1227 -0.0310  0.8558
  384SOL    HW1 1151   0.787   2.161   2.616  0.3498 -0.5158 -1.6297
  384SOL    HW2 1152   0.905   2.263   2.553  0.4111 -0.2155 -0.2635
  385SOL     OW 1153   2.150   1.977   0.623  0.3375 -0.6716  0.1773
  385SOL    HW1 1154   2.208   1.924   0.691  0.3536 -2.3161  2.1435
  385SOL    HW2 1155   2.143   2.078   0.645  1.6533  3.8290  0.8769
  386SOL     OW 1156   2.275   1.025   1.562  0.2818 -0.3209  0.3297
  386SOL    HW1 1157   2.271   1.049   1.465  0.6254 -1.4144 -0.4187
  386SOL    HW2 1158   2.194   1.066   1.615  0.1621  3.7252  1.7722
  387SOL     OW 1159   2.660   1.374   2.191 -0.1923 -0.1692  0.5002
  387SOL    HW1 1160   2.607   1.465   2.180 -0.5030  4.7932 -1.4640
  387SOL    HW2 1161   2.736   1.386   2.264 -1.3041 -0.8285  0.6912
  388SOL     OW 1162   0.401   1.615   2.149 -1.0294  0.1629  0.4784
  388SOL    HW1 1163   0.496   1.649   2.127 -1.9269  1.3270  1.4118
  388SOL    HW2 1164   0.350   1.680   2.207 -0.8836 -0.5972  0.0667
  389SOL     OW 1165   0.898   1.190   2.097 -0.0536 -0.2442  0.1113
  389SOL    HW1 1166   0.888   1.121   2.018  3.0230 -1.5105 -2.4023
  389SOL    HW2 1167   0.972   1.156   2.152 -0.5075  0.8819 -1.1223
  390SOL     OW 1168   2.317   0.320   1.130 -0.0327  0.0397 -0.1192
  390SOL    HW1 1169   2.379   0.358   1.204  0.6659 -0.9026  0.6301
  390SOL    HW2 1170   2.298   0.220   1.142 -1.5638  1.2833 -0.6849
  391SOL     OW 1171   1.893   1.509   1.278 -0.6600 -0.3436 -0.0587
  391SOL    HW1 1172   1.987   1.504   1.320  1.4475 -0.2826  0.7264
  391SOL    HW2 1173   1.844   1.422   1.284  1.2379  4.4125  2.3609
  392SOL     OW 1174   2.764   2.747   0.454  0.2284  0.6795  0.3508
  392SOL    HW1 1175   2.690   2.782   0.390 -0.7288  1.1020 -2.9086
  392SOL    HW2 1176   2.799   2.825   0.509  0.5285 -1.7516 -2.4317
  393SOL     OW 1177   1.692   2.344   3.064 -0.0178  0.5976 -0.4728
  393SOL    HW1 1178   1.709   2.395   2.976 -0.3984 -1.3127  2.2909
  393SOL    HW2 1179   1.776   2.290   0.012 -0.3862 -0.1403  0.4519
  394SOL     OW 1180   0.009   2.531   2.508  0.4079  0.0837 -0.1352
  394SOL    HW1 1181   3.067   2.560   2.604 -0.7021 -1.6520  0.4501
  394SOL    HW2 1182   0.015   2.431   2.509  0.7312  1.3159 -0.5146
  395SOL     OW 1183   0.364   0.122   0.577 -0.2156 -0.2382 -0.7416
  395SOL    HW1 1184   0.340   0.141   0.484 -0.2724 -0.0184  3.0769
  395SOL    HW2 1185   0.369   0.212   0.628 -2.4140  0.5166 -3.0389
  396SOL     OW 1186   1.920   0.732   0.505 -0.5714 -0.4889 -0.6618
  396SOL    HW1 1187   1.860   0.750   0.587  1.7885  0.4910  1.4084
  396SOL    HW2 1188   1.952   0.634   0.504  0.5494  1.1141  2.6224
  397SOL     OW 1189   0.391   0.476   2.144 -0.6395  0.0703 -0.2699
  397SOL    HW1 1190   0.455   0.429   2.080 -0.6081 -0.7983  2.1535
  397SOL    HW2 1191   0.289   0.456   2.130 -3.5108 -0.7502 -0.4683
  398SOL     OW 1192   0.923   0.075   0.396 -0.4352 -0.3398  0.5739
  398SOL    HW1 1193   0.974   0.163   0.406 -1.6237 -1.3023 -1.6123
  398SOL    HW2 1194   0.937   0.027   0.486  0.3927  1.7625 -0.1654
  399SOL     OW 1195   2.290   0.405   1.841 -0.4375 -0.5612  0.3620
  399SOL    HW1 1196   2.294   0.468   1.760 -1.2516  0.6317  3.1749
  399SOL    HW2 1197   2.320   0.455   1.928  1.1920 -0.1414  2.1235
  400SOL     OW 1198   1.078   2.002   2.494 -0.0881 -1.0901  0.0074
  400SOL    HW1 1199   1.005   2.064   2.532  1.8152 -0.1404 -0.8450
  400SOL    HW2 1200   1.046   1.975   2.400 -0.4108  0.5714  0.7829
  401SOL     OW 1201   0.539   0.916   2.519  0.0611 -0.1998  0.1216
  401SOL    HW1 1202   0.590   0.840   2.560 -1.0081  2.1184 -1.6508
  401SOL    HW2 1203   0.543   0.916   2.418 -0.6994 -0.3407  2.1423
  402SOL     OW 1204   0.293   2.517   0.471  0.5113 -0.2078 -0.1841
  402SOL    HW1 1205   0.297   2.422   0.435  0.4617 -2.9042  2.8475
  402SOL    HW2 1206   0.235   2.518   0.554 -0.8551 -2.3530  0.4789
  403SOL     OW 1207   0.060   1.261   1.914  0.1592  0.0626 -0.0550
  403SOL    HW1 1208   0.074   1.296   1.820 -1.2482 -2.7939 -0.5656
  403SOL    HW2 1209   3.047   1.275   1.945  0.3459  0.7803 -0.7719
  404SOL     OW 1210   2.600   2.437   2.298 -0.0600  0.1522  1.0976
  404SOL    HW1 1211   2.517   2.446   2.239  1.8384 -0.3203 -1.0294
  404SOL    HW2 1212   2.674   2.405   2.233  0.4699  2.6078  0.0638
  405SOL     OW 1213   0.209   0.252   1.890  0.0216 -0.1132 -0.0350
  405SOL    HW1 1214   0.280   0.192   1.932  2.5918  0.4005 -1.2174
  405SOL    HW2 1215   0.138   0.194   1.848 -0.4486 -0.3349 -1.2471
  406SOL     OW 1216   1.315   1.500   2.664 -0.1562 -0.4901  0.0688
  406SOL    HW1 1217   1.305   1.597   2.700 -0.4277  3.4175 -0.1348
  406SOL    HW2 1218   1.379   1.443   2.722 -0.3540  0.3074 -2.5298
  407SOL     OW 1219   1.648   0.878   2.659 -0.0448 -0.2826  0.4076
  407SOL    HW1 1220   1.627   0.936   2.737  1.6085 -2.3686 -1.9817
  407SOL    HW2 1221   1.739   0.905   2.624 -2.0906 -2.1100  1.8977
  408SOL     OW 1222   0.459   2.905   2.342  0.0477 -0.3385 -0.1140
  408SOL    HW1 1223   0.561   2.918   2.343 -1.2596 -1.8285  2.5457
  408SOL    HW2 1224   0.426   2.908   2.248  3.0900 -0.2818  0.3331
  409SOL     OW 1225   0.153   2.017   1.055 -0.3594  0.0671 -0.1222
  409SOL    HW1 1226   0.055   1.997   1.025 -0.4892 -0.3125 -2.2053
  409SOL    HW2 1227   0.150   2.072   1.138 -0.6192 -0.5263  2.6722
  410SOL     OW 1228   2.509   1.482   0.349 -0.4293 -0.1461 -0.2160
  410SOL    HW1 1229   2.608   1.513   0.369  2.1278 -0.1736 -0.4220
  410SOL    HW2 1230   2.493   1.387   0.386 -0.2042 -0.4092  0.7714
  411SOL     OW 1231   2.897   0.228   1.290  0.1085  0.1941 -0.4247
  411SOL    HW1 1232   2.858   0.182   1.379 -2.6217 -0.3413  1.8758
  411SOL    HW2 1233   2.862   0.321   1.271 -1.5987 -0.0495 -0.5266
  412SOL     OW 1234   1.910   0.386   1.570 -0.6882 -0.2815  0.0255
  412SOL    HW1 1235   1.847   0.452   1.530 -0.0106  0.8756  3.0162
  412SOL    HW2 1236   1.992   0.384   1.515 -2.1360 -0.8122  2.0997
  413SOL     OW 1237   0.556   0.367   1.958 -0.0444  0.0190  0.0905
  413SOL    HW1 1238   0.515   0.273   1.944 -0.7947  0.1639 -0.3303
  413SOL    HW2 1239   0.660   0.352   1.967  1.7731 -1.6186 -1.9272
  414SOL     OW 1240   2.758   1.353   2.670  0.0338  0.1148  0.4254
  414SOL    HW1 1241   2.829   1.305   2.724  2.7472 -0.0765  1.7084
  414SOL    HW2 1242   2.687   1.397   2.735 -0.0301 -1.5167 -5.0661
  415SOL     OW 1243   0.684   2.736   3.072 -0.2199 -0.3013  0.4340
  415SOL    HW1 1244   0.786   2.722   3.046  2.6409 -0.8999  1.2517
  415SOL    HW2 1245   0.678   2.783   0.076  1.6713 -2.5030 -0.0055
  416SOL     OW 1246   1.673   0.222   2.736  0.2378  0.0214  0.3599
  416SOL    HW1 1247   1.690   0.158   2.818  0.4756  0.6406  0.6369
  416SOL    HW2 1248   1.739   0.300   2.732 -1.7175 -1.9050  2.2921
  417SOL     OW 1249   0.108   0.392   0.621  0.3442 -0.0536 -0.4421
  417SOL    HW1 1250   0.193   0.411   0.571 -0.2148  1.2844 -0.9305
  417SOL    HW2 1251   0.125   0.382   0.723 -0.3809 -0.7722  1.4947
  418SOL     OW 1252   2.655   0.177   0.649  0.1035 -0.4531  0.1396
  418SOL    HW1 1253   2.642   0.101   0.718  1.8403 -1.1838 -0.9189
  418SOL    HW2 1254   2.593   0.256   0.667  0.2148  0.7191  0.6799
  419SOL     OW 1255   0.052   2.914   0.453  0.1521  0.1363  0.3036
  419SOL    HW1 1256   0.078   2.925   0.554  0.5551 -1.2011  0.3883
  419SOL    HW2 1257   3.036   2.939   0.435 -0.0880  0.8474 -3.5589
  420SOL     OW 1258   0.399   1.403   1.768 -0.3469  0.0335  0.1856
  420SOL    HW1 1259   0.396   1.510   1.759  3.8053 -0.7004 -0.4228
  420SOL    HW2 1260   0.446   1.371   1.855  0.9081 -2.8033  2.1736
  421SOL     OW 1261   1.770   2.498   1.046 -0.1532  0.6384  0.0006
  421SOL    HW1 1262   1.774   2.588   0.993  1.9566  0.1158 -2.5389
  421SOL    HW2 1263   1.733   2.419   0.988  2.7639 -0.0371 -1.9459
  422SOL     OW 1264   0.518   0.347   1.530  0.6272  0.3303  0.5800
  422SOL    HW1 1265   0.551   0.401   1.610 -3.3662 -1.2270  1.0349
  422SOL    HW2 1266   0.417   0.364   1.505 -1.3586  2.2359 -2.4279
  423SOL     OW 1267   0.777   1.257   1.820 -0.1936 -0.1383 -0.4493
  423SOL    HW1 1268   0.820   1.335   1.774  0.2107 -0.2699  0.6449
  423SOL    HW2 1269   0.833   1.174   1.829 -0.2598 -2.0456  0.1345
  424SOL     OW 1270   1.802   2.267   0.399 -0.6633  0.1280 -0.7495
  424SOL    HW1 1271   1.864   2.322   0.339 -0.7053  0.5235  0.4715
  424SOL    HW2 1272   1.722   2.234   0.344 -1.8953 -1.1970  1.3701
  425SOL     OW 1273   2.803   2.961   1.852  0.5807  0.2974  0.1675
  425SOL    HW1 1274   2.891   3.005   1.883 -1.5135 -1.1819 -0.6174
  425SOL    HW2 1275   2.825   2.900   1.773  1.8639 -1.0486 -0.8500
  426SOL     OW 1276   3.001   2.604   2.766  0.1347 -0.1282  0.5918
  426SOL    HW1 1277   3.070   2.641   2.837  0.9505 -2.6366 -2.1609
  426SOL    HW2 1278   2.959   2.521   2.803  0.4396  1.5612 -0.6984
  427SOL     OW 1279   1.135   0.552   0.002  0.5926 -0.3691 -0.1984
  427SOL    HW1 1280   1.191   0.571   0.084  1.0124 -0.0120 -1.0782
  427SOL    HW2 1281   1.172   0.469   3.043 -0.7846  1.0663  0.6008
  428SOL     OW 1282   2.733   0.815   1.432 -0.1667 -0.4150 -0.4839
  428SOL    HW1 1283   2.819   0.804   1.377 -0.2074 -1.7594 -0.8595
  428SOL    HW2 1284   2.736   0.752   1.512 -0.2980 -2.5246  5.1125
  429SOL     OW 1285   2.021   3.037   1.095 -0.2704  0.0234 -0.2297
  429SOL    HW1 1286   1.941   2.996   1.140  0.6009  1.9465 -2.6328
  429SOL    HW2 1287   2.034   2.997   1.004  0.7068  1.8389  0.2681
  430SOL     OW 1288   1.063   1.527   2.308  0.8894  0.2595  0.5419
  430SOL    HW1 1289   1.072   1.465   2.393  0.9655 -0.9177  0.9127
  430SOL    HW2 1290   0.992   1.495   2.239 -0.2302 -3.1245 -1.4391
  431SOL     OW 1291   2.525   1.667   1.274 -0.0184 -0.2445 -0.7009
  431SOL    HW1 1292   2.493   1.736   1.343  1.8282  1.6727  1.8972
  431SOL    HW2 1293   2.591   1.707   1.200  0.8664  0.7513  0.1726
  432SOL     OW 1294   1.379   2.884   2.341 -0.0267 -0.1430 -0.4506
  432SOL    HW1 1295   1.377   2.795   2.395  0.7581 -4.4561  1.6164
  432SOL    HW2 1296   1.463   2.941   2.369  0.2490  0.2894 -0.0272
  433SOL     OW 1297   1.733   0.414   2.073  0.1622  0.7471 -0.0685
  433SOL    HW1 1298   1.743   0.490   2.137 -2.3236  0.9683 -0.5010
  433SOL    HW2 1299   1.823   0.374   2.050  0.2294  5.6727 -0.8069
  434SOL     OW 1300   0.330   2.257   2.147  0.2034  0.8005  0.1282
  434SOL    HW1 1301   0.345   2.313   2.228  0.6018 -1.2454 -0.5936
  434SOL    HW2 1302   0.393   2.177   2.149 -1.0922 -1.2951 -1.8539
  435SOL     OW 1303   0.231   3.024   0.273 -0.0360  0.0937 -0.3985
  435SOL    HW1 1304   0.258   2.934   0.233 -0.8888  0.0378  1.0489
  435SOL    HW2 1305   0.180   3.010   0.359  0.1677  0.6967  0.0257
  436SOL     OW 1306   0.433   0.773   2.086 -0.1117  0.0881 -0.0548
  436SOL    HW1 1307   0.336   0.780   2.083  3.1831 -3.6709  3.0234
  436SOL    HW2 1308   0.461   0.678   2.107  0.9997  0.7488 -3.5724
  437SOL     OW 1309   0.708   2.565   2.563 -0.1846  0.1938 -0.4471
  437SOL    HW1 1310   0.700   2.593   2.465  3.1141 -1.7007 -0.1737
  437SOL    HW2 1311   0.621   2.518   2.595  0.3818  0.3211 -0.6505
  438SOL     OW 1312   1.008   1.015   0.818 -0.1214 -0.2940  0.2846
  438SOL    HW1 1313   1.022   1.118   0.814  2.7322 -0.6660  2.2796
  438SOL    HW2 1314   1.050   0.974   0.735 -2.4615  2.4411  2.2639
  439SOL     OW 1315   2.517   1.450   2.556 -0.2829 -0.2548  0.3964
  439SOL    HW1 1316   2.584   1.373   2.579  0.6490  0.9703  1.9590
  439SOL    HW2 1317   2.568   1.542   2.564  0.4718  2.2256  1.7327
  440SOL     OW 1318   3.068   0.557   2.826  0.4115  0.0388 -0.2822
  440SOL    HW1 1319   3.034   0.632   2.760 -1.8321  1.9819  0.2752
  440SOL    HW2 1320   2.986   0.515   2.869  2.4234 -0.8166  0.6290
  441SOL     OW 1321   0.917   2.167   1.421  0.2036 -0.4433 -0.2766
  441SOL    HW1 1322   0.853   2.119   1.367  2.3950 -0.0332  0.4905
  441SOL    HW2 1323   0.944   2.111   1.500 -2.6222  0.0713  1.2325
  442SOL     OW 1324   1.674   1.530   0.740  0.5985 -0.0454  0.6750
  442SOL    HW1 1325   1.624   1.482   0.814  0.5531 -1.9070 -1.5273
  442SOL    HW2 1326   1.741   1.462   0.696 -0.7836 -0.5200 -2.3708
  443SOL     OW 1327   2.266   2.175   2.879 -0.5016 -0.0538  0.3921
  443SOL    HW1 1328   2.327   2.122   2.945 -0.9832  3.9326 -1.6137
  443SOL    HW2 1329   2.217   2.247   2.928 -4.1456  2.4665  0.6243
  444SOL     OW 1330   1.942   1.583   3.019  0.0450 -0.2939  0.1085
  444SOL    HW1 1331   1.931   1.639   2.934 -0.5574  2.5613 -3.6691
  444SOL    HW2 1332   2.008   1.629   0.000 -1.9527  2.5460  0.7785
  445SOL     OW 1333   2.977   2.546   1.896 -0.1235  0.4689 -0.0245
  445SOL    HW1 1334   3.008   2.616   1.962 -1.2107 -3.8463 -1.8095
  445SOL    HW2 1335   2.874   2.552   1.884 -1.4015 -1.3868  1.2782
  446SOL     OW 1336   1.192   0.957   1.661 -0.8155 -0.2065  0.2189
  446SOL    HW1 1337   1.290   0.983   1.645  2.5556 -2.2061 -0.5804
  446SOL    HW2 1338   1.190   0.884   1.734  0.1872  0.8384  1.0788
  447SOL     OW 1339   0.902   0.803   0.979  0.1578  0.1063  0.3181
  447SOL    HW1 1340   0.900   0.730   0.908  0.3502 -2.1331 -1.4892
  447SOL    HW2 1341   0.948   0.883   0.937 -0.7139 -2.0339  0.6767
  448SOL     OW 1342   1.022   1.112   2.456  0.1777  0.2753  0.7235
  448SOL    HW1 1343   0.935   1.088   2.505 -2.2350  0.9315 -1.2474
  448SOL    HW2 1344   1.053   1.209   2.475  0.7765 -0.7566  1.9532
  449SOL     OW 1345   0.038   1.978   2.512 -0.0493 -0.4110  0.3187
  449SOL    HW1 1346   0.110   1.907   2.528  3.2038 -2.9434 -0.7630
  449SOL    HW2 1347   0.023   2.010   2.417 -2.6763  1.5509 -3.4882
  450SOL     OW 1348   2.188   1.583   2.158 -0.2977  0.0847 -0.0289
  450SOL    HW1 1349   2.228   1.569   2.250 -1.2632 -0.4258 -2.1475
  450SOL    HW2 1350   2.227   1.664   2.114  1.1298  0.3049 -0.5851
  451SOL     OW 1351   2.786   1.678   1.617 -0.4805 -0.1300 -0.0497
  451SOL    HW1 1352   2.744   1.759   1.660 -0.1439 -3.4464 -1.6338
  451SOL    HW2 1353   2.803   1.693   1.518  2.6636  1.9482 -0.2198
  452SOL     OW 1354   0.521   1.043   1.502  0.3090  0.0104 -0.9749
  452SOL    HW1 1355   0.457   0.960   1.509  0.5651  0.0568 -2.2423
  452SOL    HW2 1356   0.572   1.051   1.415  0.0272  2.6314  1.3011
  453SOL     OW 1357   0.341   1.408   0.514 -0.2456 -0.1440 -0.3896
  453SOL    HW1 1358   0.339   1.468   0.437  2.4161 -2.1832 -1.3078
  453SOL    HW2 1359   0.258   1.351   0.507  2.3040 -0.0779 -0.1099
  454SOL     OW 1360   0.975   1.874   0.234 -0.2903  1.2942  0.5786
  454SOL    HW1 1361   0.952   1.853   0.139 -0.8101 -0.8472  0.4607
  454SOL    HW2 1362   0.929   1.811   0.295  1.1868 -1.1909 -2.2024
  455SOL     OW 1363   1.715   0.669   1.158 -0.2632  0.6513 -0.1041
  455SOL    HW1 1364   1.795   0.723   1.124  1.9430  0.6735 -0.2416
  455SOL    HW2 1365   1.748   0.594   1.213 -2.7532  2.3741  2.4281
  456SOL     OW 1366   1.767   2.729   0.903 -0.5791  0.1673  0.4974
  456SOL    HW1 1367   1.715   2.679   0.832 -3.2358 -0.6637  0.8316
  456SOL    HW2 1368   1.735   2.827   0.914  2.7396  1.0426  0.7926
  457SOL     OW 1369   2.083   0.508   2.591  0.3177  0.1274  0.1231
  457SOL    HW1 1370   2.176   0.508   2.634 -0.4590 -2.0356 -0.8138
  457SOL    HW2 1371   2.074   0.452   2.503  0.6276  0.1719  0.1334
  458SOL     OW 1372   2.593   0.675   2.589 -0.1810 -0.6137  0.2307
  458SOL    HW1 1373   2.602   0.764   2.636 -0.0499  1.2996  1.7266
  458SOL    HW2 1374   2.664   0.608   2.623 -1.5726  0.5761 -0.1770
  459SOL     OW 1375   2.529   1.610   2.161 -0.1438 -0.2119 -0.3160
  459SOL    HW1 1376   2.558   1.670   2.081 -0.0374 -0.7864 -1.2189
  459SOL    HW2 1377   2.522   1.671   2.243 -1.1690 -0.4682 -0.3767
  460SOL     OW 1378   0.562   0.726   0.004  0.7423  0.4243 -0.2447
  460SOL    HW1 1379   0.644   0.783   0.015  0.6916  2.2773 -1.8484
  460SOL    HW2 1380   0.591   0.629   3.073 -0.3198 -1.8574  0.0167
  461SOL     OW 1381   0.083   2.240   0.094  0.3268 -0.0172  0.0479
  461SOL    HW1 1382   0.174   2.288   0.080 -1.5532 -1.6401 -0.4576
  461SOL    HW2 1383   0.101   2.152   0.141 -0.9430 -0.0222 -2.0495
  462SOL     OW 1384   0.221   2.460   1.465  0.1093  0.1178 -0.3916
  462SOL    HW1 1385   0.128   2.490   1.498 -2.7832  0.8679  2.1743
  462SOL    HW2 1386   0.250   2.384   1.529 -0.3536 -0.2991 -0.2827
  463SOL     OW 1387   1.615   1.986   1.884 -0.1556  0.2254 -0.0353
  463SOL    HW1 1388   1.660   2.003   1.796 -0.3579  1.8857  0.8020
  463SOL    HW2 1389   1.662   2.033   1.956 -0.9254 -2.5865 -0.7301
  464SOL     OW 1390   2.631   2.785   0.854 -0.4532 -0.5234  0.2371
  464SOL    HW1 1391   2.631   2.882   0.891  2.6001  2.0280 -1.3017
  464SOL    HW2 1392   2.728   2.753   0.843 -2.0146  1.7067 -1.8378
  465SOL     OW 1393   0.257   0.070   1.407  0.1883  0.7929  0.4237
  465SOL    HW1 1394   0.234   0.015   1.488 -0.4562 -1.0812  1.8449
  465SOL    HW2 1395   0.254   0.169   1.418 -1.0062 -1.3525 -0.5378
  466SOL     OW 1396   1.299   2.336   2.432 -0.4301 -0.5416  0.6467
  466SOL    HW1 1397   1.368   2.404   2.440 -1.8891 -1.9542  1.0176
  466SOL    HW2 1398   1.326   2.245   2.466  1.3235 -0.4804 -0.7827
  467SOL     OW 1399   2.913   1.784   0.628  0.0263 -0.7246  0.0223
  467SOL    HW1 1400   2.871   1.856   0.687 -1.8781  1.6368  0.4148
  467SOL    HW2 1401   2.876   1.697   0.673  1.7261  2.8589  1.1341
  468SOL     OW 1402   2.079   1.917   2.956 -0.2575  0.2157  0.1376
  468SOL    HW1 1403   2.032   1.991   2.902  1.4037 -1.1756 -0.0266
  468SOL    HW2 1404   2.175   1.932   2.947 -1.7890  0.5288 -1.0179
  469SOL     OW 1405   1.396   2.210   0.695  0.3888  0.3555  1.0647
  469SOL    HW1 1406   1.428   2.246   0.607 -1.4381 -2.2946  1.0201
  469SOL    HW2 1407   1.358   2.117   0.668 -0.4842 -3.1940 -2.3869
  470SOL     OW 1408   1.739   1.239   1.260  0.1054  0.4534  0.6981
  470SOL    HW1 1409   1.712   1.153   1.212 -0.0693  0.5796 -2.0608
  470SOL    HW2 1410   1.838   1.238   1.293  1.5988  1.3368 -0.6698
  471SOL     OW 1411   0.399   2.146   0.110 -0.8141  0.4453  0.2274
  471SOL    HW1 1412   0.379   2.143   0.012 -1.5547  1.3480 -0.3379
  471SOL    HW2 1413   0.367   2.063   0.156  1.5147 -0.1411  1.5853
  472SOL     OW 1414   2.431   1.883   2.672  0.4915 -0.1393  0.1199
  472SOL    HW1 1415   2.510   1.907   2.731  0.3572  1.1600  2.1687
  472SOL    HW2 1416   2.400   1.788   2.683 -0.1121  1.3073 -4.4997
  473SOL     OW 1417   1.189   2.117   0.911 -0.5158 -0.5829  0.5318
  473SOL    HW1 1418   1.191   2.159   0.817  0.4109 -3.6522 -4.0893
  473SOL    HW2 1419   1.261   2.155   0.976 -1.1964 -0.7354  0.4642
  474SOL     OW 1420   3.001   0.310   1.049  0.0366  0.4411 -0.3658
  474SOL    HW1 1421   2.955   0.265   1.125  1.9932  2.6450 -0.8665
  474SOL    HW2 1422   2.932   0.355   0.987 -2.3073  0.1244 -1.2420
  475SOL     OW 1423   2.247   2.889   1.546  0.3914 -0.1206  0.3569
  475SOL    HW1 1424   2.302   2.855   1.623 -0.5838  1.5766  0.5281
  475SOL    HW2 1425   2.206   2.818   1.484 -0.7160  0.3506  2.2466
  476SOL     OW 1426   0.369   0.445   0.516  0.1896 -0.0526 -0.0808
  476SOL    HW1 1427   0.446   0.426   0.455 -1.8013  0.5042  1.0920
  476SOL    HW2 1428   0.392   0.401   0.604 -1.3099  1.9645 -0.6666
  477SOL     OW 1429   0.939   2.027   1.073 -0.0728 -0.2581 -0.0908
  477SOL    HW1 1430   0.987   1.942   1.094 -0.4068 -1.5105 -0.4035
  477SOL    HW2 1431   1.002   2.085   1.014  1.9031  1.1388 -2.1222
  478SOL     OW 1432   1.095   2.217   2.774 -1.1590  0.5384 -0.2670
  478SOL    HW1 1433   1.014   2.216   2.706 -2.3765 -0.8719 -4.2828
  478SOL    HW2 1434   1.151   2.305   2.763 -1.7338 -1.7057  0.0904
  479SOL     OW 1435   2.858   1.121   2.006 -0.1021 -0.1199  0.2916
  479SOL    HW1 1436   2.812   1.208   1.979  0.9952  0.9541  1.6633
  479SOL    HW2 1437   2.883   1.069   1.920  1.3202  0.2232 -0.5840
  480SOL     OW 1438   2.881   2.326   2.874  0.9457  0.3680 -0.4471
  480SOL    HW1 1439   2.891   2.360   2.965 -0.3949 -1.4803 -2.3733
  480SOL    HW2 1440   2.960   2.267   2.853 -1.1190  0.4438 -1.6256
  481SOL     OW 1441   1.516   0.041   2.035  0.3960 -0.2585 -0.0241
  481SOL    HW1 1442   1.576   0.058   2.118  1.2014 -0.9843  2.5041
  481SOL    HW2 1443   1.495   0.130   1.994 -0.6094 -0.9547  1.1272
  482SOL     OW 1444   1.596   2.130   2.859 -0.5602  0.6866 -0.4433
  482SOL    HW1 1445   1.615   2.158   2.953 -2.2611 -0.7032 -1.8500
  482SOL    HW2 1446   1.639   2.044   2.829 -1.1334 -2.0104 -1.8435
  483SOL     OW 1447   0.929   2.589   2.721 -0.2101  0.2692  0.0126
  483SOL    HW1 1448   0.833   2.583   2.678  1.5817 -1.0926 -2.2160
  483SOL    HW2 1449   0.989   2.538   2.658 -1.3465  0.2229 -1.0912
  484SOL     OW 1450   0.193   2.742   1.281  0.5316 -0.2168 -0.3933
  484SOL    HW1 1451   0.268   2.728   1.343 -2.2392  1.1228  1.8165
  484SOL    HW2 1452   0.222   2.807   1.203 -0.0171  1.4228 -0.2516
  485SOL     OW 1453   2.317   0.736   0.516  0.0490 -0.0358 -0.0185
  485SOL    HW1 1454   2.252   0.777   0.447 -0.2228 -0.1225  0.9455
  485SOL    HW2 1455   2.364   0.810   0.567 -0.5042 -3.3012 -0.6567
  486SOL     OW 1456   2.414   2.771   2.398 -0.0617 -0.3328  0.4399
  486SOL    HW1 1457   2.397   2.872   2.374 -0.8365  1.4545 -2.7799
  486SOL    HW2 1458   2.332   2.744   2.454  0.4695  0.5797 -0.1976
  487SOL     OW 1459   1.229   0.902   0.594 -0.3273 -0.1230  0.3528
  487SOL    HW1 1460   1.209   0.910   0.499  2.8024 -1.8806  1.4608
  487SOL    HW2 1461   1.220   0.806   0.625  0.0308  0.6268 -0.2441
  488SOL     OW 1462   2.464   3.021   2.804 -0.7877  0.0606  0.0048
  488SOL    HW1 1463   2.440   2.932   2.846  0.7020  0.9724  2.5440
  488SOL    HW2 1464   2.534   3.073   2.858  3.1046  1.2844 -1.6455
  489SOL     OW 1465   2.008   3.078   0.377 -0.0871 -0.6381 -0.1786
  489SOL    HW1 1466   2.022   2.986   0.415  4.4655  1.6234 -1.3462
  489SOL    HW2 1467   2.061   0.005   0.290  0.3843 -1.9808  2.0979
  490SOL     OW 1468   1.759   0.341   2.998 -0.2193  0.4356  0.6741
  490SOL    HW1 1469   1.762   0.407   3.077 -1.2390 -0.2445 -1.6793
  490SOL    HW2 1470   1.794   0.378   2.913  0.5989 -2.9170 -0.8001
  491SOL     OW 1471   0.576   0.188   1.020 -0.3350 -0.2752 -0.0428
  491SOL    HW1 1472   0.640   0.232   1.085  0.9466  0.7990  1.6253
  491SOL    HW2 1473   0.621   0.135   0.941  1.6458 -0.2999 -3.8641
  492SOL     OW 1474   1.702   3.073   0.650  0.4074  0.2670  0.1852
  492SOL    HW1 1475   1.752   3.082   0.740  1.9440 -0.5772 -0.8167
  492SOL    HW2 1476   1.726   2.990   0.597 -0.5042  4.2159 -2.7150
  493SOL     OW 1477   1.029   2.206   3.026 -1.0647 -0.0022  0.3126
  493SOL    HW1 1478   1.098   2.180   0.014 -1.9905 -1.4987 -1.1555
  493SOL    HW2 1479   1.079   2.212   2.935  0.3776 -1.8361 -5.1843
  494SOL     OW 1480   0.626   0.895   0.969  0.5086 -0.6885 -0.1570
  494SOL    HW1 1481   0.590   0.849   0.886  1.2307 -0.0849  0.1182
  494SOL    HW2 1482   0.726   0.878   0.975 -1.9154  0.0584 -0.7764
  495SOL     OW 1483   2.788   0.564   1.529  0.2198 -0.2585 -0.4741
  495SOL    HW1 1484   2.883   0.596   1.561  1.4569  2.5474 -0.4081
  495SOL    HW2 1485   2.719   0.588   1.597 -2.9716 -2.4309 -0.3168
  496SOL     OW 1486   2.396   2.548   2.185 -0.2949  0.3151 -0.4781
  496SOL    HW1 1487   2.415   2.612   2.264 -0.2984 -1.3954  1.1098
  496SOL    HW2 1488   2.323   2.478   2.204  3.0475  2.3929  0.4604
  497SOL     OW 1489   1.719   1.012   2.885 -0.3539 -0.5832 -0.7980
  497SOL    HW1 1490   1.808   1.054   2.856 -0.1128 -1.2506  0.9735
  497SOL    HW2 1491   1.665   1.078   2.938  1.8483 -1.8522 -1.8892
  498SOL     OW 1492   0.879   2.193   0.574 -0.1343 -0.5807 -0.5242
  498SOL    HW1 1493   0.958   2.146   0.612 -0.0660  0.4291  0.5256
  498SOL    HW2 1494   0.818   2.125   0.537  0.7112 -0.2003  0.6616
  499SOL     OW 1495   0.264   1.663   0.886 -0.0108 -0.1256 -0.0407
  499SOL    HW1 1496   0.239   1.734   0.818  1.9133  1.7278 -2.2093
  499SOL    HW2 1497   0.314   1.591   0.837 -1.9216  1.3575  3.9304
  500SOL     OW 1498   1.400   2.625   0.369  0.3132 -0.2035 -0.6473
  500SOL    HW1 1499   1.313   2.647   0.322  0.0895 -2.6228  0.1470
  500SOL    HW2 1500   1.433   2.699   0.434  1.1490  0.5486  0.8666
  501SOL     OW 1501   1.993   2.859   0.586  0.0880 -0.7115  0.1592
  501SOL    HW1 1502   2.021   2.761   0.593 -1.1691 -1.1044  1.1401
  501SOL    HW2 1503   1.890   2.861   0.580 -1.4837  2.2860 -0.0858
  502SOL     OW 1504   0.185   0.490   1.220 -0.4396 -0.0841  0.0540
  502SOL    HW1 1505   0.143   0.433   1.145  1.7454  0.6516  1.5825
  502SOL    HW2 1506   0.271   0.535   1.195 -0.6849 -0.2076 -0.2747
  503SOL     OW 1507   2.020   3.018   1.663 -0.2661 -0.0494 -0.1191
  503SOL    HW1 1508   2.018   0.032   1.686 -0.1244 -2.2458 -0.3038
  503SOL    HW2 1509   2.085   2.999   1.591 -0.9410  2.8212 -0.4906
  504SOL     OW 1510   1.941   1.064   1.843 -0.0216  0.0533  0.1728
  504SOL    HW1 1511   1.937   0.987   1.782 -2.5139  3.6989 -0.4911
  504SOL    HW2 1512   1.849   1.108   1.845  0.9890 -0.5791  1.6722
  505SOL     OW 1513   1.604   3.044   2.413  0.2522  0.4476 -0.3766
  505SOL    HW1 1514   1.572   0.047   2.452 -0.8668 -0.5832 -0.5729
  505SOL    HW2 1515   1.665   3.045   2.333 -2.1469 -1.6114  0.3432
  506SOL     OW 1516   0.511   0.536   1.748  0.3628  0.3692  0.3652
  506SOL    HW1 1517   0.526   0.461   1.817 -0.0629  1.0348 -1.6611
  506SOL    HW2 1518   0.566   0.617   1.774 -1.7599 -1.3196 -1.0185
  507SOL     OW 1519   1.837   0.461   0.143  0.1650  0.4992  0.2221
  507SOL    HW1 1520   1.809   0.439   0.235 -0.4669  0.2703 -2.1478
  507SOL    HW2 1521   1.925   0.416   0.124  2.9118 -1.2324 -2.6324
  508SOL     OW 1522   2.137   0.617   2.059  0.0334 -0.0711  0.8497
  508SOL    HW1 1523   2.100   0.686   2.126 -0.2069  0.0853 -1.1159
  508SOL    HW2 1524   2.142   0.664   1.966 -1.7678  1.7508 -2.2845
  509SOL     OW 1525   0.757   1.604   2.453 -0.1485 -0.2594 -0.0514
  509SOL    HW1 1526   0.659   1.625   2.451 -0.0046  0.1862  0.5300
  509SOL    HW2 1527   0.809   1.659   2.380  1.4231 -1.9745 -0.3250
  510SOL     OW 1528   2.887   0.715   0.595 -0.3909 -0.4904  0.1731
  510SOL    HW1 1529   2.906   0.779   0.519 -0.5640 -0.2535 -1.1058
  510SOL    HW2 1530   2.930   0.752   0.682  1.2269 -1.5851  3.1804
  511SOL     OW 1531   1.735   1.213   1.675  0.2170  0.2120 -0.2808
  511SOL    HW1 1532   1.710   1.247   1.767 -0.3262 -0.9568 -3.7072
  511SOL    HW2 1533   1.793   1.282   1.626  0.8296  1.8704 -2.1371
  512SOL     OW 1534   0.588   1.717   0.584  0.1342 -0.6568  0.4750
  512SOL    HW1 1535   0.681   1.678   0.570  1.4146  0.6976  0.9997
  512SOL    HW2 1536   0.584   1.818   0.579 -1.3692 -1.4174  2.0582
  513SOL     OW 1537   0.517   2.436   0.971 -0.3492  0.1844  0.1848
  513SOL    HW1 1538   0.494   2.535   0.987  0.5169  2.6371 -0.3498
  513SOL    HW2 1539   0.574   2.404   1.052  0.2842 -2.1985 -0.6432
  514SOL     OW 1540   0.554   2.266   0.479 -0.3264 -0.1967  0.0239
  514SOL    HW1 1541   0.458   2.253   0.449  1.3137  2.3575  2.9349
  514SOL    HW2 1542   0.602   2.305   0.402 -3.4400 -0.2136 -0.7365
  515SOL     OW 1543   0.009   2.692   0.217  0.0702  0.3082  0.0402
  515SOL    HW1 1544   0.109   2.685   0.229 -0.7934 -1.1185 -1.0177
  515SOL    HW2 1545   3.067   2.791   0.223  1.0514  0.9749  0.3255
  516SOL     OW 1546   1.944   0.217   1.157  0.6343  0.2086  0.2118
  516SOL    HW1 1547   1.852   0.247   1.191  1.9450 -0.8328  0.4208
  516SOL    HW2 1548   1.948   0.115   1.151 -0.2473 -0.6687 -0.4360
  517SOL     OW 1549   1.702   1.810   0.543 -0.0669  0.1398 -0.1307
  517SOL    HW1 1550   1.633   1.819   0.466  2.6773  0.0801 -1.6485
  517SOL    HW2 1551   1.690   1.726   0.598  0.0412  1.7924 -0.4740
  518SOL     OW 1552   1.422   0.000   0.739 -0.3022  0.1223 -0.1311
  518SOL    HW1 1553   1.375   0.059   0.671  0.1089  0.3080 -1.6575
  518SOL    HW2 1554   1.519   3.072   0.721 -4.0620 -0.9732 -0.9446
  519SOL     OW 1555   2.835   2.278   0.381  0.1512 -0.1524 -0.3678
  519SOL    HW1 1556   2.888   2.315   0.464 -1.9248  1.5523 -1.2763
  519SOL    HW2 1557   2.820   2.354   0.319  0.7544  0.8629  0.2029
  520SOL     OW 1558   1.795   2.096   2.123  0.4215  0.1078  0.3780
  520SOL    HW1 1559   1.895   2.120   2.135 -1.9607  1.0650 -0.9525
  520SOL    HW2 1560   1.733   2.162   2.164  1.4790  0.4132 -1.1760
  521SOL     OW 1561   1.217   2.980   2.027 -0.2368  0.5063 -0.8269
  521SOL    HW1 1562   1.222   2.894   1.972  0.9829 -1.3740 -0.2517
  521SOL    HW2 1563   1.312   2.998   2.064 -0.4433  2.9801  1.4600
  522SOL     OW 1564   0.146   2.873   1.975  0.0027 -0.2883  0.2836
  522SOL    HW1 1565   0.181   2.809   1.901  3.1626 -2.6296 -0.4032
  522SOL    HW2 1566   0.105   2.816   2.049  0.0454 -1.6226  1.2341
  523SOL     OW 1567   0.892   2.067   1.810 -0.3191  0.1611 -0.3737
  523SOL    HW1 1568   0.915   2.166   1.828 -0.8959 -1.6648 -0.0735
  523SOL    HW2 1569   0.966   1.999   1.832  1.9560  1.2039  0.5069
  524SOL     OW 1570   2.374   2.240   0.237 -0.6798 -0.1714  0.6030
  524SOL    HW1 1571   2.465   2.204   0.273  1.3009  1.5328 -0.8999
  524SOL    HW2 1572   2.305   2.166   0.224 -2.0678 -3.7379 -0.4968
  525SOL     OW 1573   2.856   0.426   2.921 -0.2475 -0.3999  0.6008
  525SOL    HW1 1574   2.825   0.421   3.019  0.7999  0.7196 -1.8929
  525SOL    HW2 1575   2.900   0.335   2.900  0.0855  1.0343 -0.0457
  526SOL     OW 1576   0.390   2.820   0.822  0.1017 -0.0321  0.4057
  526SOL    HW1 1577   0.334   2.897   0.801  0.9725 -3.7418 -0.7072
  526SOL    HW2 1578   0.469   2.807   0.761  0.8137 -1.2362  2.7747
  527SOL     OW 1579   2.885   1.310   0.569 -0.2128 -0.1135 -0.2456
  527SOL    HW1 1580   2.943   1.226   0.551 -1.7564 -1.1152 -1.4178
  527SOL    HW2 1581   2.824   1.280   0.643 -0.0236 -1.7487 -1.9092
  528SOL     OW 1582   0.842   0.770   2.262  0.4622  0.9023  0.1686
  528SOL    HW1 1583   0.824   0.691   2.324  1.9897 -0.6096  1.3700
  528SOL    HW2 1584   0.769   0.841   2.274 -0.0753  0.2529  0.0798
  529SOL     OW 1585   0.603   1.503   0.063  0.2556 -0.1185 -0.4469
  529SOL    HW1 1586   0.636   1.583   0.124  3.9271  1.3879  1.9263
  529SOL    HW2 1587   0.651   1.505   3.059 -0.5424  3.2170 -3.2715
  530SOL     OW 1588   1.146   1.117   2.196  0.2069  0.1933  0.2348
  530SOL    HW1 1589   1.245   1.094   2.186 -3.9474  0.4459 -1.6429
  530SOL    HW2 1590   1.117   1.088   2.291  1.3914 -0.5031 -1.5786
  531SOL     OW 1591   1.043   2.434   0.082  0.0148  0.1881  0.1155
  531SOL    HW1 1592   1.006   2.350   0.039 -0.9468 -0.2873  1.4388
  531SOL    HW2 1593   1.082   2.423   0.173 -0.2951 -0.5801 -4.2235
  532SOL     OW 1594   2.300   1.232   2.600  0.2239 -0.2191 -0.0722
  532SOL    HW1 1595   2.274   1.224   2.695  0.4019  0.6126 -1.6944
  532SOL    HW2 1596   2.359   1.315   2.589  1.2636  0.3504  1.8322
  533SOL     OW 1597   0.018   0.114   1.711  0.2011 -0.0924 -0.2418
  533SOL    HW1 1598   3.079   0.047   1.786 -1.3791 -0.5879 -0.9901
  533SOL    HW2 1599   3.024   0.176   1.693  1.7699 -0.2986  0.7605
  534SOL     OW 1600   2.374   0.264   0.396 -0.1637  0.3767  0.2231
  534SOL    HW1 1601   2.318   0.260   0.308 -0.4202  0.9899  1.5011
  534SOL    HW2 1602   2.423   0.353   0.404  0.2301  1.2589 -0.9595
  535SOL     OW 1603   0.509   0.052   2.950  0.0142 -0.9639 -0.0546
  535SOL    HW1 1604   0.604   0.046   2.977  0.2120 -3.3970  1.7363
  535SOL    HW2 1605   0.482   0.146   2.942  2.3344 -0.4904 -3.5532
  536SOL     OW 1606   0.760   1.738   1.583 -0.4195  0.7103  0.7212
  536SOL    HW1 1607   0.732   1.832   1.611  1.9524  1.6506 -1.2723
  536SOL    HW2 1608   0.838   1.741   1.521 -1.7649 -0.4855  0.8033
  537SOL     OW 1609   3.058   2.482   1.615 -0.1487 -0.0979 -0.0136
  537SOL    HW1 1610   2.999   2.505   1.536  1.5443  1.3706  0.2240
  537SOL    HW2 1611   3.030   2.522   1.704  2.3690 -0.3473  2.0363
  538SOL     OW 1612   0.289   2.218   0.445 -0.0686 -0.2944  0.4484
  538SOL    HW1 1613   0.230   2.204   0.527  0.0427  2.1869  1.8864
  538SOL    HW2 1614   0.310   2.127   0.405 -0.9264 -0.1269  2.7288
  539SOL     OW 1615   2.489   1.052   2.479  0.2280  0.2005 -0.1099
  539SOL    HW1 1616   2.407   1.080   2.538  0.0113  1.3632  2.3818
  539SOL    HW2 1617   2.482   1.078   2.381  0.0543 -0.9190 -0.1916
  540SOL     OW 1618   1.793   0.766   2.974 -0.1184 -0.1075  0.1191
  540SOL    HW1 1619   1.784   0.865   2.948 -0.4833 -0.6982  1.3959
  540SOL    HW2 1620   1.778   0.761   3.075 -1.3282  0.5455 -1.8595
  541SOL     OW 1621   0.711   0.486   2.404  0.5288  0.2552 -0.4508
  541SOL    HW1 1622   0.753   0.406   2.351 -1.1590 -1.0707 -2.9394
  541SOL    HW2 1623   0.614   0.512   2.379 -0.2435 -2.3440  1.8669
  542SOL     OW 1624   1.502   2.472   2.075  0.5732 -0.4379  0.3727
  542SOL    HW1 1625   1.477   2.572   2.087 -0.9164 -0.2205 -1.6279
  542SOL    HW2 1626   1.558   2.462   1.993 -0.5931  2.0940 -1.4565
  543SOL     OW 1627   0.823   2.750   0.518  0.1044  0.2559  0.7128
  543SOL    HW1 1628   0.863   2.665   0.547 -1.4867  1.8790 -3.7293
  543SOL    HW2 1629   0.748   2.773   0.578 -0.7085 -2.3499 -1.7283
  544SOL     OW 1630   2.891   1.939   2.645 -0.0794 -0.3493 -0.1737
  544SOL    HW1 1631   2.822   1.991   2.598 -0.3749 -0.0820  2.7193
  544SOL    HW2 1632   2.983   1.947   2.602 -3.5878 -3.0309 -0.0085
  545SOL     OW 1633   1.433   1.683   1.678 -0.1637  0.0984  0.4495
  545SOL    HW1 1634   1.404   1.743   1.757  0.6818  0.4070  0.8194
  545SOL    HW2 1635   1.351   1.649   1.623 -2.2362 -0.8465  0.7693
  546SOL     OW 1636   0.201   0.242   2.579  0.1734 -0.0885 -0.2005
  546SOL    HW1 1637   0.256   0.217   2.494  0.4354 -1.4275 -0.0283
  546SOL    HW2 1638   0.195   0.159   2.641  1.0535 -1.3640 -0.2033
  547SOL     OW 1639   1.153   0.280   0.592  0.2089  0.1069  0.3856
  547SOL    HW1 1640   1.097   0.342   0.533  1.7179 -1.8729  0.2438
  547SOL    HW2 1641   1.236   0.255   0.547 -0.6786  1.3001 -1.7212
  548SOL     OW 1642   1.404   1.953   2.958  0.0751 -0.6321  0.3133
  548SOL    HW1 1643   1.337   1.995   3.019  1.0735 -1.4090 -0.3490
  548SOL    HW2 1644   1.459   2.025   2.909  2.9260 -0.4769  1.8479
  549SOL     OW 1645   2.403   0.832   0.168  0.2057 -0.0715  0.6059
  549SOL    HW1 1646   2.385   0.931   0.158  1.0200 -2.3577 -1.4513
  549SOL    HW2 1647   2.445   0.803   0.256 -0.5303 -1.2842 -0.5755
  550SOL     OW 1648   2.583   2.278   0.924  0.2158  0.4130  0.2862
  550SOL    HW1 1649   2.517   2.345   0.878 -0.1175 -0.6090 -0.9568
  550SOL    HW2 1650   2.674   2.318   0.943  0.6432  1.4332 -1.4149
  551SOL     OW 1651   1.047   0.443   1.420 -0.2231 -0.0622 -0.0633
  551SOL    HW1 1652   1.030   0.341   1.424 -0.3853  0.0933  0.3209
  551SOL    HW2 1653   1.022   0.485   1.331 -0.6806  0.9276 -0.6720
  552SOL     OW 1654   0.052   1.682   2.891  0.1084  0.0456  0.5654
  552SOL    HW1 1655   0.042   1.640   2.800  2.1109  1.2345  1.4145
  552SOL    HW2 1656   0.147   1.660   2.923 -0.3105 -2.4970 -0.9212
  553SOL     OW 1657   2.728   2.548   0.632  0.1825 -0.0673 -0.4029
  553SOL    HW1 1658   2.731   2.622   0.560 -1.2405 -0.6152 -1.9489
  553SOL    HW2 1659   2.737   2.590   0.724  0.4485  1.1124 -0.4265
  554SOL     OW 1660   1.994   1.230   1.345 -0.3199  0.0128  0.0986
  554SOL    HW1 1661   2.084   1.238   1.296  2.2575  0.6015 -1.3469
  554SOL    HW2 1662   1.975   1.314   1.404 -1.9501  3.4018 -0.1117
  555SOL     OW 1663   1.214   2.056   2.144 -0.1265  0.9691  0.2448
  555SOL    HW1 1664   1.222   2.132   2.079  0.4301 -1.0229 -0.2122
  555SOL    HW2 1665   1.309   2.027   2.180  1.4128  2.4951 -0.6751
  556SOL     OW 1666   1.174   1.337   1.684  0.3728 -0.3230 -0.7558
  556SOL    HW1 1667   1.161   1.296   1.780  1.8779 -1.0817  1.1817
  556SOL    HW2 1668   1.267   1.311   1.653  2.0498 -1.4265  1.3776
  557SOL     OW 1669   1.341   0.039   1.415  0.0166  0.3325 -0.2657
  557SOL    HW1 1670   1.262   3.064   1.383 -0.5660  0.7770 -1.8116
  557SOL    HW2 1671   1.329   0.063   1.514  1.1942 -1.5603 -0.4485
  558SOL     OW 1672   0.964   2.970   2.170  0.4715  0.5481 -0.4181
  558SOL    HW1 1673   0.898   2.894   2.141 -1.0359  0.4328  0.4373
  558SOL    HW2 1674   1.046   2.964   2.110  1.3934 -1.5236 -1.1277
  559SOL     OW 1675   1.751   2.726   0.274 -0.8140 -0.0958 -0.2905
  559SOL    HW1 1676   1.706   2.692   0.190  1.8106  2.4949  1.2059
  559SOL    HW2 1677   1.750   2.650   0.346 -2.7982 -3.8047  1.3974
  560SOL     OW 1678   1.574   2.168   0.272 -0.0539 -0.4026 -0.5146
  560SOL    HW1 1679   1.535   2.079   0.300 -0.3336  0.2481  1.0837
  560SOL    HW2 1680   1.530   2.208   0.187  0.8634 -1.7329  1.7238
  561SOL     OW 1681   1.615   0.216   0.546  0.1525 -0.1987  0.0555
  561SOL    HW1 1682   1.651   0.124   0.568  0.1583  1.0679 -0.2362
  561SOL    HW2 1683   1.670   0.270   0.480 -1.0980  2.0212 -1.1056
  562SOL     OW 1684   0.421   1.056   2.004  0.4508  0.0402  0.2447
  562SOL    HW1 1685   0.474   1.075   1.920 -0.2741 -1.1570  2.6642
  562SOL    HW2 1686   0.429   0.957   2.034 -0.9051  1.4222 -1.9271
  563SOL     OW 1687   1.488   2.282   2.647 -0.4984 -0.1794 -0.4576
  563SOL    HW1 1688   1.423   2.213   2.613  0.0454 -0.3711  1.7942
  563SOL    HW2 1689   1.538   2.242   2.725  0.8661 -0.8730  0.2299
  564SOL     OW 1690   2.918   0.907   0.892 -0.3607  0.1044 -0.0501
  564SOL    HW1 1691   2.964   0.995   0.913  0.3606  0.7198  3.1376
  564SOL    HW2 1692   2.987   0.829   0.902  1.2483 -2.8019 -1.6434
  565SOL     OW 1693   0.734   1.139   0.119  0.0170 -0.3479 -0.5732
  565SOL    HW1 1694   0.681   1.204   0.178  0.4859 -1.3530  2.6117
  565SOL    HW2 1695   0.829   1.172   0.114 -1.3555 -1.3169 -0.3027
  566SOL     OW 1696   2.242   2.624   3.050  0.1715 -1.2052 -0.4431
  566SOL    HW1 1697   2.295   2.568   0.027  0.1266 -0.4106 -2.4901
  566SOL    HW2 1698   2.300   2.664   2.980  0.4119 -0.7353  1.8472
  567SOL     OW 1699   1.462   1.249   1.357  0.8350 -0.0707  0.1354
  567SOL    HW1 1700   1.555   1.223   1.334  0.8213  1.2061 -0.1402
  567SOL    HW2 1701   1.441   1.218   1.453  1.5581  2.1157  0.6775
  568SOL     OW 1702   1.449   1.209   2.822 -0.2714 -0.3820 -0.3334
  568SOL    HW1 1703   1.433   1.120   2.870  0.0258  0.9387 -0.7525
  568SOL    HW2 1704   1.498   1.193   2.734 -0.9149 -0.7536  2.5497
  569SOL     OW 1705   1.974   1.822   0.505 -0.0592 -0.0222  0.3578
  569SOL    HW1 1706   2.047   1.871   0.562  1.9017 -0.6618  0.5709
  569SOL    HW2 1707   1.879   1.840   0.538 -2.3373  0.3377  0.9290
  570SOL     OW 1708   2.669   2.003   2.446  0.4342  0.1633  0.2272
  570SOL    HW1 1709   2.733   2.014   2.369  0.2545  1.6592 -3.8707
  570SOL    HW2 1710   2.624   2.091   2.475  1.5046 -3.0196 -1.7549
  571SOL     OW 1711   2.706   1.897   1.726 -0.1533 -0.0168  0.2247
  571SOL    HW1 1712   2.687   1.942   1.634 -2.9802 -1.1450 -0.4807
  571SOL    HW2 1713   2.795   1.940   1.758  2.7062  0.7492  0.7992
  572SOL     OW 1714   1.505   2.670   0.123  0.0908  0.0700 -0.0995
  572SOL    HW1 1715   1.479   2.645   0.222  0.1828 -0.7273  3.0876
  572SOL    HW2 1716   1.453   2.611   0.053 -0.5346  0.2806 -3.9403
  573SOL     OW 1717   1.509   1.882   0.867 -0.7083  0.3327 -1.0082
  573SOL    HW1 1718   1.604   1.901   0.842 -2.1769 -1.0212  0.0458
  573SOL    HW2 1719   1.483   1.796   0.822  1.4178 -0.9665 -0.9889
  574SOL     OW 1720   1.121   2.964   1.380  0.2702  0.1103  0.1625
  574SOL    HW1 1721   1.182   2.881   1.405  0.4665 -0.5051  0.9414
  574SOL    HW2 1722   1.044   2.991   1.447 -1.5850  2.0092  1.2714
  575SOL     OW 1723   0.950   0.659   1.203 -0.1878 -0.4010  0.6393
  575SOL    HW1 1724   0.942   0.707   1.114 -0.4902  1.6899  0.7423
  575SOL    HW2 1725   0.912   0.720   1.277 -1.1226 -2.4024 -4.1657
  576SOL     OW 1726   2.783   0.461   1.285 -0.0212  0.4244  0.0717
  576SOL    HW1 1727   2.830   0.515   1.214  2.6080 -0.8279  0.6374
  576SOL    HW2 1728   2.783   0.506   1.375 -0.9323  0.6091  0.5865
  577SOL     OW 1729   2.344   0.579   2.674 -0.3928 -0.2343 -0.4247
  577SOL    HW1 1730   2.316   0.642   2.747 -0.2319 -0.3742 -1.1038
  577SOL    HW2 1731   2.421   0.619   2.617 -0.7330  0.3298 -1.7058
  578SOL     OW 1732   1.743   1.612   2.254 -0.1889 -0.0235 -0.1271
  578SOL    HW1 1733   1.811   1.536   2.283  0.2076 -2.3596  1.2120
  578SOL    HW2 1734   1.793   1.689   2.206 -0.3930  0.4565  0.4098
  579SOL     OW 1735   0.555   1.350   0.926  0.1675  0.0170 -0.5201
  579SOL    HW1 1736   0.522   1.408   0.849 -0.6898 -1.5471  0.6677
  579SOL    HW2 1737   0.592   1.405   1.008  0.6713 -1.6721  0.7802
  580SOL     OW 1738   1.278   2.542   0.005 -0.1295  0.2464 -0.4318
  580SOL    HW1 1739   1.192   2.498   0.007  1.0947 -0.4664 -0.9701
  580SOL    HW2 1740   1.272   2.636   3.061 -0.9750 -2.7307 -1.3060
  581SOL     OW 1741   0.856   0.779   1.976 -0.1112  0.4520 -0.4694
  581SOL    HW1 1742   0.865   0.750   2.072 -1.5699 -1.3464 -0.5588
  581SOL    HW2 1743   0.942   0.752   1.930  1.3270 -0.8801 -1.2900
  582SOL     OW 1744   0.525   0.766   0.705 -0.9479 -0.5429 -0.1342
  582SOL    HW1 1745   0.455   0.740   0.633 -0.2329 -2.5208 -1.7526
  582SOL    HW2 1746   0.585   0.846   0.676 -1.4398 -2.2933 -0.2163
  583SOL     OW 1747   1.249   1.559   1.913 -0.0252 -0.0439  0.3274
  583SOL    HW1 1748   1.286   1.613   1.991  0.4551  2.4230  0.1047
  583SOL    HW2 1749   1.205   1.473   1.942  0.9958  0.6951 -2.3968
  584SOL     OW 1750   2.322   2.872   0.459 -0.4690 -0.1349 -0.3238
  584SOL    HW1 1751   2.420   2.857   0.425 -0.8556 -1.3008  3.0960
  584SOL    HW2 1752   2.305   2.965   0.491  1.4586 -2.1706 -0.3207
  585SOL     OW 1753   2.040   0.634   3.011  0.0854 -0.5106  0.2071
  585SOL    HW1 1754   1.953   0.683   2.988 -3.1629 -0.3585 -1.5820
  585SOL    HW2 1755   2.096   0.684   3.078  0.4360 -3.3707  1.1327
  586SOL     OW 1756   0.343   1.711   0.396  0.0656  0.3169 -0.2825
  586SOL    HW1 1757   0.265   1.690   0.462 -1.0236  3.9937  2.5222
  586SOL    HW2 1758   0.430   1.696   0.449  0.3696 -1.7828  3.9274
  587SOL     OW 1759   1.720   2.098   1.097  0.1737  0.3998  0.4227
  587SOL    HW1 1760   1.823   2.081   1.109  2.6082  1.0536 -1.7163
  587SOL    HW2 1761   1.668   2.040   1.161  0.2574  1.3231 -0.8730
  588SOL     OW 1762   0.565   0.559   0.871  0.2503  0.9711  0.6676
  588SOL    HW1 1763   0.590   0.575   0.969  0.5456 -0.9082 -1.6221
  588SOL    HW2 1764   0.531   0.638   0.820  0.7255  0.9735  1.1584
  589SOL     OW 1765   1.257   0.256   0.858 -0.1947 -0.1144 -0.1333
  589SOL    HW1 1766   1.210   0.266   0.769  1.5516 -1.3354  1.4622
  589SOL    HW2 1767   1.211   0.181   0.906  0.9189 -0.7754 -0.7333
  590SOL     OW 1768   1.425   0.894   0.257  0.5204  0.0837  0.1603
  590SOL    HW1 1769   1.459   0.863   0.349 -1.7298 -2.3850 -0.6442
  590SOL    HW2 1770   1.456   0.833   0.183  1.3080 -0.8354  1.4008
  591SOL     OW 1771   2.371   2.209   1.899  0.5080 -0.3599  0.2185
  591SOL    HW1 1772   2.349   2.303   1.869  0.6471 -2.0558 -1.4737
  591SOL    HW2 1773   2.338   2.144   1.824 -3.5569  1.0979  2.1173
  592SOL     OW 1774   1.378   1.902   1.085  1.0899  0.3080  0.0769
  592SOL    HW1 1775   1.457   1.895   1.151 -1.1288 -1.6955  2.9536
  592SOL    HW2 1776   1.414   1.924   0.989 -1.9820 -0.3767  1.2391
  593SOL     OW 1777   0.984   2.973   0.575 -0.5177  0.0996  0.1799
  593SOL    HW1 1778   1.005   2.943   0.672  3.3825 -1.3811 -1.0293
  593SOL    HW2 1779   0.907   2.918   0.544  0.4033 -0.0003  1.4392
  594SOL     OW 1780   0.218   0.928   1.851 -0.0462  0.5867 -0.3433
  594SOL    HW1 1781   0.252   0.895   1.762  1.0929  1.8893  1.2451
  594SOL    HW2 1782   0.282   1.003   1.883  2.5629  0.4966  0.0637
  595SOL     OW 1783   2.881   2.668   0.839 -0.0602 -0.1875  0.4033
  595SOL    HW1 1784   2.913   2.686   0.743 -2.5102 -2.3612  1.8872
  595SOL    HW2 1785   2.938   2.704   0.915  1.9959  0.4028 -0.5996
  596SOL     OW 1786   3.052   0.566   1.699 -0.6730  0.1589 -0.4716
  596SOL    HW1 1787   0.056   0.513   1.701  2.0098 -0.8159 -1.9470
  596SOL    HW2 1788   3.027   0.618   1.786 -0.6069  1.7112  0.5815
  597SOL     OW 1789   2.005   1.501   0.822 -0.0327 -0.2749 -0.1931
  597SOL    HW1 1790   1.949   1.586   0.844  2.4190  1.9426 -0.5806
  597SOL    HW2 1791   1.947   1.445   0.755 -1.2941 -2.2228  0.1537
  598SOL     OW 1792   0.788   2.787   2.031  0.1242 -0.2775  0.2695
  598SOL    HW1 1793   0.830   2.700   1.991  2.3555 -4.1775 -2.5823
  598SOL    HW2 1794   0.720   2.831   1.966  0.1376  2.6348 -0.0347
  599SOL     OW 1795   2.634   1.744   0.102  0.6390  0.2276 -0.1387
  599SOL    HW1 1796   2.670   1.649   0.120  1.7733 -2.0860  1.6515
  599SOL    HW2 1797   2.572   1.747   0.019 -0.0883 -0.2373 -1.8481
  600SOL     OW 1798   0.770   0.898   3.078  0.5886 -0.4906 -0.1546
  600SOL    HW1 1799   0.748   0.909   2.978 -0.5195 -0.5275 -0.5677
  600SOL    HW2 1800   0.768   0.992   0.034  0.3638  0.9372  1.6804
  601SOL     OW 1801   1.246   1.115   0.039  0.7674  0.5551  0.4443
  601SOL    HW1 1802   1.296   1.041   3.084 -3.2627  0.4103  1.8413
  601SOL    HW2 1803   1.254   1.195   3.059 -0.0389 -0.5398  1.5422
  602SOL     OW 1804   1.501   2.792   1.077  0.6482 -0.1272 -0.1130
  602SOL    HW1 1805   1.601   2.780   1.072 -0.3966 -1.8918 -0.9037
  602SOL    HW2 1806   1.471   2.893   1.062 -1.6244  3.5157  0.3000
  603SOL     OW 1807   1.139   3.026   2.370 -0.4183  0.0122  0.2661
  603SOL    HW1 1808   1.079   3.012   2.286 -1.9941 -1.4777 -2.0797
  603SOL    HW2 1809   1.222   2.969   2.366 -1.0202 -0.4833  0.0337
  604SOL     OW 1810   3.010   0.059   2.187  0.1545  0.4445  0.2287
  604SOL    HW1 1811   3.023   3.049   2.226 -1.7718 -3.0443  2.8453
  604SOL    HW2 1812   3.053   0.131   2.248  1.2446 -2.2646 -0.2814
  605SOL     OW 1813   2.542   2.236   1.314 -0.4644  0.0165  0.0933
  605SOL    HW1 1814   2.454   2.183   1.320 -2.3210 -0.7961  0.0500
  605SOL    HW2 1815   2.587   2.229   1.403 -1.0352  0.6116 -0.0491
  606SOL     OW 1816   0.303   1.608   2.969  0.0868 -0.0452 -0.4838
  606SOL    HW1 1817   0.271   1.551   3.048 -0.4221 -2.4742 -3.1790
  606SOL    HW2 1818   0.361   1.681   3.006  0.9553  0.2075 -0.1400
  607SOL     OW 1819   1.154   0.637   0.406  0.4907  0.3113  0.0536
  607SOL    HW1 1820   1.215   0.598   0.334  0.2014  1.9772 -1.1191
  607SOL    HW2 1821   1.133   0.734   0.390  2.9243 -2.0677 -0.2813
  608SOL     OW 1822   1.841   1.277   2.578 -0.1257  0.2055 -0.3187
  608SOL    HW1 1823   1.762   1.226   2.539  2.4190  1.3630 -1.5891
  608SOL    HW2 1824   1.805   1.367   2.611 -0.6719 -0.9960  1.6228
  609SOL     OW 1825   2.792   0.405   0.918 -0.2396 -0.3179 -0.5523
  609SOL    HW1 1826   2.828   0.364   0.832 -1.5795  1.3759  1.7812
  609SOL    HW2 1827   2.697   0.378   0.933  0.4177  1.2455 -1.0774
  610SOL     OW 1828   0.433   2.283   2.879 -0.2945  0.1863  0.1530
  610SOL    HW1 1829   0.505   2.218   2.908  2.2273  0.2776 -0.0033
  610SOL    HW2 1830   0.398   2.330   2.962 -0.0096  0.4920 -0.8026
  611SOL     OW 1831   1.831   1.402   0.370 -0.6558 -0.0779 -0.5560
  611SOL    HW1 1832   1.904   1.462   0.326  1.2704  0.3735 -0.9613
  611SOL    HW2 1833   1.746   1.407   0.319  0.5452 -0.7447  0.4877
  612SOL     OW 1834   1.046   2.438   2.534 -1.2778  0.1898  0.0931
  612SOL    HW1 1835   1.146   2.427   2.516  0.2753  0.9556 -0.7126
  612SOL    HW2 1836   0.998   2.447   2.442  2.6371  1.2271 -2.7530
  613SOL     OW 1837   1.211   1.717   3.020  0.1060 -0.4355 -0.0919
  613SOL    HW1 1838   1.277   1.692   0.011 -1.2803 -1.6805  1.7432
  613SOL    HW2 1839   1.254   1.720   2.928  2.0657 -0.4040 -0.4877
  614SOL     OW 1840   2.724   2.548   1.818  0.4317  0.5202 -0.2817
  614SOL    HW1 1841   2.649   2.591   1.870  1.6861  2.6846 -0.5785
  614SOL    HW2 1842   2.706   2.461   1.761 -0.8322  0.6404  0.9787
  615SOL     OW 1843   2.422   1.271   3.082  0.2289 -0.4835 -0.0397
  615SOL    HW1 1844   2.364   1.235   3.005  1.9140 -0.3952 -2.9820
  615SOL    HW2 1845   2.517   1.277   3.053 -0.6522  1.4039  1.3267
  616SOL     OW 1846   1.657   0.278   0.804  0.1822  0.0198  0.1306
  616SOL    HW1 1847   1.575   0.320   0.851  0.0188 -0.4382 -2.7478
  616SOL    HW2 1848   1.629   0.282   0.705 -1.1511  0.0931 -1.0717
  617SOL     OW 1849   0.739   0.978   2.823 -0.3942  0.1598  0.3818
  617SOL    HW1 1850   0.682   0.966   2.739 -0.1342  0.7039 -1.6893
  617SOL    HW2 1851   0.750   1.074   2.844  2.1045  0.5150  1.0055
  618SOL     OW 1852   0.636   0.792   1.808 -0.3061  0.3561 -0.8848
  618SOL    HW1 1853   0.598   0.883   1.803 -0.0908  0.7960  1.7554
  618SOL    HW2 1854   0.721   0.792   1.868  3.4078  0.7411  0.9987
  619SOL     OW 1855   0.287   0.853   1.601 -0.2696  0.2695  0.4431
  619SOL    HW1 1856   0.189   0.821   1.599  2.1442 -1.1202  0.7798
  619SOL    HW2 1857   0.345   0.795   1.545  2.8606 -1.3137 -0.8546
  620SOL     OW 1858   2.080   1.078   0.093  0.5213 -0.2394  0.0023
  620SOL    HW1 1859   1.995   1.051   0.141  2.2085  2.5968 -3.0011
  620SOL    HW2 1860   2.058   1.164   0.046 -0.3756 -1.3756  0.7333
  621SOL     OW 1861   2.550   3.028   1.194  0.0652  0.1119 -0.0109
  621SOL    HW1 1862   2.610   0.023   1.169  2.1166 -2.2428 -1.4148
  621SOL    HW2 1863   2.452   3.054   1.194  1.8106 -0.2891  0.2990
  622SOL     OW 1864   1.540   0.825   2.218 -0.1728 -0.5533  0.4804
  622SOL    HW1 1865   1.639   0.821   2.224  0.8472 -0.9195 -0.8970
  622SOL    HW2 1866   1.503   0.734   2.193  1.9835  2.9636  0.1725
  623SOL     OW 1867   0.906   0.473   2.604  0.4073 -0.5334  0.3537
  623SOL    HW1 1868   0.839   0.490   2.532 -0.6631 -1.0587  0.2140
  623SOL    HW2 1869   0.869   0.502   2.691 -0.2410  0.2269  2.1519
  624SOL     OW 1870   1.746   0.403   0.398  0.0839  0.4842 -0.0173
  624SOL    HW1 1871   1.659   0.452   0.414  0.0355  0.0410 -1.1379
  624SOL    HW2 1872   1.812   0.420   0.474 -1.7129 -1.1432  0.1822
  625SOL     OW 1873   0.766   1.184   0.850 -0.1403 -0.0876  0.4165
  625SOL    HW1 1874   0.840   1.239   0.802 -2.0716 -0.9566 -0.7362
  625SOL    HW2 1875   0.696   1.251   0.876  2.9387  2.4264 -2.3266
  626SOL     OW 1876   1.598   1.049   0.068  0.5034 -0.0414  0.3062
  626SOL    HW1 1877   1.611   1.133   0.019 -2.1265 -2.6408 -0.7374
  626SOL    HW2 1878   1.531   1.063   0.149 -1.2680 -0.7113  1.5995
  627SOL     OW 1879   1.054   3.022   1.717  0.4518 -0.0455 -0.3357
  627SOL    HW1 1880   1.099   3.083   1.786 -1.7652  1.4030  0.3405
  627SOL    HW2 1881   0.956   3.050   1.702  0.2494 -2.0717  0.8151
  628SOL     OW 1882   2.523   0.099   2.017 -0.2031 -0.4955  0.1698
  628SOL    HW1 1883   2.611   0.105   2.068  2.3439  0.8747  0.2608
  628SOL    HW2 1884   2.443   0.148   2.064 -1.1370  0.3610  2.6615
  629SOL     OW 1885   0.796   1.269   2.830 -0.0548  0.1433 -0.1755
  629SOL    HW1 1886   0.880   1.305   2.875  0.4360  1.5286 -1.0798
  629SOL    HW2 1887   0.780   1.315   2.742 -0.9615  0.2076 -1.7538
  630SOL     OW 1888   1.199   0.252   2.316  0.2256 -0.2790  0.1157
  630SOL    HW1 1889   1.177   0.348   2.339  0.7054 -0.9596  0.1524
  630SOL    HW2 1890   1.235   0.201   2.394 -0.9125  0.5519  2.2752
  631SOL     OW 1891   2.742   0.985   0.690 -0.2287 -0.2209 -0.6080
  631SOL    HW1 1892   2.745   1.073   0.737 -3.2629  0.1629  0.0345
  631SOL    HW2 1893   2.781   0.910   0.740  0.2440 -1.2242 -1.2680
  632SOL     OW 1894   2.514   1.156   1.099  0.0265 -0.1298 -0.1930
  632SOL    HW1 1895   2.509   1.158   1.199 -1.4404  0.8638 -0.6118
  632SOL    HW2 1896   2.609   1.163   1.063  0.1208 -0.6503 -0.4050
  633SOL     OW 1897   1.524   1.106   0.914  0.1696  0.6360  0.2106
  633SOL    HW1 1898   1.615   1.125   0.953  0.0436 -0.0170  0.0125
  633SOL    HW2 1899   1.457   1.117   0.990 -1.2058 -2.0920 -0.6944
  634SOL     OW 1900   1.871   0.111   0.835 -0.3704  0.0860  0.2981
  634SOL    HW1 1901   1.805   0.189   0.827  1.1780 -1.0839  2.0104
  634SOL    HW2 1902   1.837   0.050   0.912  2.3871  1.9750 -0.5741
  635SOL     OW 1903   1.735   0.548   1.449 -0.1093 -0.4335  0.2143
  635SOL    HW1 1904   1.801   0.591   1.381 -0.0763  1.1086 -0.7824
  635SOL    HW2 1905   1.661   0.616   1.462 -0.8371  2.6751 -0.1271
  636SOL     OW 1906   0.991   1.080   0.449  0.9430 -0.2987 -0.1024
  636SOL    HW1 1907   1.041   1.036   0.375 -1.1154  1.0053  2.7817
  636SOL    HW2 1908   0.924   1.016   0.491  0.5971  4.0050  2.0785
  637SOL     OW 1909   1.438   2.308   0.072  0.0917 -0.1405  0.0033
  637SOL    HW1 1910   1.382   2.375   0.022 -1.8546 -0.2095 -2.0517
  637SOL    HW2 1911   1.536   2.311   0.047 -1.1582 -0.1398  1.4178
  638SOL     OW 1912   1.105   2.810   3.062  0.5262  0.3209  0.1665
  638SOL    HW1 1913   1.067   2.858   0.058 -1.0706  1.2975  0.4375
  638SOL    HW2 1914   1.046   2.733   3.040  0.9431 -1.9992  0.0182
  639SOL     OW 1915   0.700   2.127   1.203  0.3703 -0.2233 -0.0762
  639SOL    HW1 1916   0.776   2.124   1.138 -0.6080 -2.7328  2.8649
  639SOL    HW2 1917   0.665   2.032   1.220 -0.9307  0.6050  0.4395
  640SOL     OW 1918   0.361   2.785   0.191 -0.3186  0.3180  0.5311
  640SOL    HW1 1919   0.386   2.782   0.289  0.7269 -0.6506 -1.1075
  640SOL    HW2 1920   0.398   2.861   0.136  1.7845 -3.8368 -0.8397
  641SOL     OW 1921   0.103   0.273   0.164 -0.6695  0.5540  0.4587
  641SOL    HW1 1922   0.171   0.220   0.224  1.9792 -0.9800 -0.2587
  641SOL    HW2 1923   0.156   0.338   0.106  3.4591  1.0015 -0.4701
  642SOL     OW 1924   0.230   1.519   1.119 -0.0060  0.0979 -0.0415
  642SOL    HW1 1925   0.261   1.562   1.033  2.2059 -0.7917 -1.3936
  642SOL    HW2 1926   0.198   1.602   1.176 -1.8029  3.8183 -0.0411
  643SOL     OW 1927   0.883   1.734   2.247  0.5660  0.2558 -0.3237
  643SOL    HW1 1928   0.967   1.679   2.261 -1.0379 -1.4329 -0.4874
  643SOL    HW2 1929   0.906   1.826   2.213  0.4911  1.2186 -1.1308
  644SOL     OW 1930   1.762   2.536   0.474  0.0624 -0.0213  0.1536
  644SOL    HW1 1931   1.765   2.431   0.460  1.5366 -0.2779 -0.5976
  644SOL    HW2 1932   1.713   2.558   0.563 -0.5532  1.0977  1.7973
  645SOL     OW 1933   1.761   2.257   1.368 -0.5772 -0.1147  0.0193
  645SOL    HW1 1934   1.746   2.278   1.469 -0.2304  1.8625 -1.3383
  645SOL    HW2 1935   1.819   2.176   1.363 -2.8946  4.4461  2.5853
  646SOL     OW 1936   1.225   2.882   0.258 -0.1067  0.0156 -0.0332
  646SOL    HW1 1937   1.126   2.909   0.239 -0.7190  0.0260  1.2068
  646SOL    HW2 1938   1.256   2.922   0.345  0.5280 -0.9625 -1.1526
  647SOL     OW 1939   0.588   2.838   1.828 -0.2330 -0.0246  0.1474
  647SOL    HW1 1940   0.596   2.738   1.817  0.6130 -2.8586  3.5366
  647SOL    HW2 1941   0.526   2.876   1.754  0.8546 -2.2512  1.7123
  648SOL     OW 1942   2.477   0.972   0.634  0.1221  0.6785  0.4668
  648SOL    HW1 1943   2.422   0.983   0.719  0.1080 -3.6104  1.8931
  648SOL    HW2 1944   2.576   0.986   0.652 -0.9760 -1.0218 -0.2426
  649SOL     OW 1945   1.757   2.581   2.841  0.3518  0.3086  0.3480
  649SOL    HW1 1946   1.828   2.632   2.896 -0.1364 -0.3172  0.8232
  649SOL    HW2 1947   1.661   2.616   2.842  0.9069 -0.3532  1.5522
  650SOL     OW 1948   2.356   1.446   1.987  0.0747 -0.1918  0.1676
  650SOL    HW1 1949   2.389   1.529   2.034  1.5195 -1.9584  3.6369
  650SOL    HW2 1950   2.323   1.380   2.055 -0.9117  1.5541  0.7212
  651SOL     OW 1951   1.549   1.530   2.848 -0.0091 -0.0006 -0.2929
  651SOL    HW1 1952   1.601   1.534   2.937 -0.5853 -0.4538 -2.4766
  651SOL    HW2 1953   1.506   1.624   2.839  2.1577  1.2249 -1.2559
  652SOL     OW 1954   0.812   2.985   2.663  0.4884 -0.2343 -0.2663
  652SOL    HW1 1955   0.893   2.934   2.700  0.8756 -0.1127 -0.3126
  652SOL    HW2 1956   0.730   2.967   2.726 -0.2583 -2.4582 -0.6683
  653SOL     OW 1957   2.057   2.277   0.964 -0.0973 -0.2946  0.4664
  653SOL    HW1 1958   2.044   2.174   0.957  0.9647 -2.7998  3.5435
  653SOL    HW2 1959   2.103   2.306   1.048 -0.1194  1.2412 -0.7145
  654SOL     OW 1960   2.642   2.874   2.063 -0.0564 -0.0939 -0.5740
  654SOL    HW1 1961   2.633   2.928   2.153  0.4469  0.1294  2.5765
  654SOL    HW2 1962   2.690   2.926   1.989 -1.3045 -0.0151 -1.3947
  655SOL     OW 1963   2.688   2.102   1.102 -0.0223 -0.1018 -0.0428
  655SOL    HW1 1964   2.650   2.169   1.034 -2.5207 -1.8326 -0.2966
  655SOL    HW2 1965   2.648   2.122   1.191  1.4656 -0.9504  0.2791
  656SOL     OW 1966   3.020   1.925   2.885  0.0863 -0.3932  0.2151
  656SOL    HW1 1967   2.982   1.921   2.788 -1.1232 -0.7725 -1.7269
  656SOL    HW2 1968   3.083   1.846   2.901  2.1008  0.6585 -1.8413
  657SOL     OW 1969   2.920   0.889   0.346  0.2454 -0.0696 -0.6445
  657SOL    HW1 1970   2.844   0.933   0.297 -0.7074 -0.9078  3.0510
  657SOL    HW2 1971   2.974   0.837   0.281 -4.7298  1.3712 -0.5612
  658SOL     OW 1972   1.438   1.624   1.127 -0.4803  0.5249  0.0218
  658SOL    HW1 1973   1.389   1.563   1.192 -1.8242 -1.2859  0.5024
  658SOL    HW2 1974   1.450   1.713   1.164 -0.3733  0.7731 -1.0361
  659SOL     OW 1975   1.127   0.209   1.199  0.5924 -0.2053 -0.6346
  659SOL    HW1 1976   1.224   0.227   1.235  2.1975 -1.1337  1.6359
  659SOL    HW2 1977   1.067   0.190   1.281 -2.1126 -0.6611  0.6236
  660SOL     OW 1978   2.017   1.307   1.015  0.2767 -0.0734  0.2885
  660SOL    HW1 1979   2.014   1.397   0.962 -0.2005  3.8613  0.2048
  660SOL    HW2 1980   2.072   1.321   1.096  2.0367  3.3164 -1.7801
  661SOL     OW 1981   0.380   1.498   0.211 -0.5879  0.3490  0.2829
  661SOL    HW1 1982   0.353   1.582   0.258 -1.6338 -0.2150 -5.3121
  661SOL    HW2 1983   0.450   1.510   0.134  3.2302 -2.6628 -1.6247
  662SOL     OW 1984   2.714   0.558   1.992 -0.5096 -0.2148 -0.4476
  662SOL    HW1 1985   2.753   0.506   2.069 -0.0684  4.2857 -3.2118
  662SOL    HW2 1986   2.783   0.628   1.953  2.9524  0.5519  0.7651
  663SOL     OW 1987   2.155   1.556   1.329  0.0231  1.0746  0.1185
  663SOL    HW1 1988   2.179   1.627   1.263 -3.0621 -1.2673 -0.2405
  663SOL    HW2 1989   2.211   1.560   1.414 -1.1665 -0.0231 -1.7774
  664SOL     OW 1990   0.517   0.061   1.289  0.0280 -0.4732 -0.0421
  664SOL    HW1 1991   0.418   0.065   1.328 -5.0685  0.0741 -1.0636
  664SOL    HW2 1992   0.532   0.128   1.210 -1.2522 -0.0647 -2.7747
  665SOL     OW 1993   1.483   0.202   2.999 -0.0412 -0.5010  0.4156
  665SOL    HW1 1994   1.575   0.251   2.976 -0.4050  3.5084 -1.5496
  665SOL    HW2 1995   1.497   0.162   0.008  1.1160 -0.1513  0.0332
  666SOL     OW 1996   0.450   0.111   1.914 -0.7515  0.7421  0.4573
  666SOL    HW1 1997   0.480   0.112   1.816  1.6900 -1.0114 -1.2024
  666SOL    HW2 1998   0.432   0.015   1.949 -1.4531 -2.1584 -1.7755
  667SOL     OW 1999   1.768   1.348   1.935 -0.4555  0.3666 -0.3666
  667SOL    HW1 2000   1.850   1.402   1.970  0.5442  2.9930  1.9884
  667SOL    HW2 2001   1.684   1.407   1.921 -0.4328  2.2369  1.4440
  668SOL     OW 2002   0.043   1.579   2.621 -0.2659  0.7107  0.2745
  668SOL    HW1 2003   0.103   1.491   2.638  0.9029 -3.5210  1.6675
  668SOL    HW2 2004   3.067   1.569   2.537 -0.2984 -2.2118 -0.4960
  669SOL     OW 2005   2.200   3.068   2.425  0.2033  0.1667 -0.1476
  669SOL    HW1 2006   2.252   3.020   2.348  1.0332 -2.8794 -0.1745
  669SOL    HW2 2007   2.262   0.028   2.491  0.4031 -0.3823 -1.2848
  670SOL     OW 2008   2.488   1.126   2.228  0.2114 -0.2943  0.6851
  670SOL    HW1 2009   2.530   1.039   2.194 -4.0700  0.6590  2.1182
  670SOL    HW2 2010   2.542   1.209   2.196 -0.1452  2.8562  0.4128
  671SOL     OW 2011   2.690   1.870   0.344  0.5138 -0.0902  0.0267
  671SOL    HW1 2012   2.646   1.838   0.257  1.8503  1.9654 -0.4423
  671SOL    HW2 2013   2.640   1.831   0.421  2.7092  2.4544  0.8387
  672SOL     OW 2014   1.558   1.245   2.179  0.3634  0.0123  0.6095
  672SOL    HW1 2015   1.650   1.217   2.141 -0.9786 -1.0544  3.5930
  672SOL    HW2 2016   1.488   1.168   2.176 -3.5179 -4.6940 -3.2605
  673SOL     OW 2017   2.989   1.924   1.428  0.0717  0.3109  0.1087
  673SOL    HW1 2018   2.996   2.003   1.364  0.4454 -3.0914  1.5496
  673SOL    HW2 2019   3.070   1.911   1.487 -0.5776 -0.5934  2.0310
  674SOL     OW 2020   1.007   1.634   1.837  0.0328  0.0987 -0.5633
  674SOL    HW1 2021   1.100   1.596   1.851  1.6914  2.3597 -0.3846
  674SOL    HW2 2022   0.947   1.578   1.775 -0.5423  1.7774  0.4425
  675SOL     OW 2023   0.024   0.691   0.870 -0.0187 -0.0465 -0.9911
  675SOL    HW1 2024   0.088   0.756   0.828 -0.3001 -1.1982  0.7748
  675SOL    HW2 2025   0.064   0.603   0.884  1.3346  2.0873 -1.7089
  676SOL     OW 2026   2.994   1.256   0.906 -0.3587 -0.0761  0.7584
  676SOL    HW1 2027   3.054   1.326   0.864 -0.5857  2.8342  0.0201
  676SOL    HW2 2028   3.038   1.201   0.979  0.8263  2.2798 -0.0687
  677SOL     OW 2029   1.718   1.751   2.490  0.0120 -0.2901 -0.0662
  677SOL    HW1 2030   1.712   1.713   2.395  1.5104 -2.9741 -0.1996
  677SOL    HW2 2031   1.717   1.671   2.550  0.4609  0.7270 -0.1573
  678SOL     OW 2032   2.634   1.499   0.903  0.2368  0.5792 -0.0667
  678SOL    HW1 2033   2.633   1.601   0.906  1.4070  2.4683  1.7257
  678SOL    HW2 2034   2.547   1.464   0.947  0.1082 -2.4312 -1.5089
  679SOL     OW 2035   0.610   2.720   0.694 -0.3005 -0.1407 -0.0264
  679SOL    HW1 2036   0.664   2.637   0.717  1.9125 -0.0679 -2.0312
  679SOL    HW2 2037   0.646   2.801   0.748 -2.0746 -0.3836  1.5399
  680SOL     OW 2038   0.138   1.776   1.246 -0.0050  0.5838  0.2993
  680SOL    HW1 2039   0.107   1.831   1.165 -2.3392  2.4974 -1.1895
  680SOL    HW2 2040   0.139   1.824   1.333 -1.7446  0.3155  1.2450
  681SOL     OW 2041   1.127   0.527   0.987 -0.2381 -0.1692 -0.1944
  681SOL    HW1 2042   1.142   0.547   1.085  1.0221  2.8446 -0.0125
  681SOL    HW2 2043   1.180   0.452   0.961 -2.1897  5.2199  2.8739
  682SOL     OW 2044   1.664   2.751   1.570  0.2293  0.2945  0.3444
  682SOL    HW1 2045   1.593   2.821   1.569  1.9551 -0.5267 -1.9992
  682SOL    HW2 2046   1.659   2.696   1.655 -0.0038 -0.1834 -1.3502
  683SOL     OW 2047   2.341   1.513   1.529  0.2257 -0.1839  0.4253
  683SOL    HW1 2048   2.327   1.422   1.572 -2.8126  0.4804 -2.4580
  683SOL    HW2 2049   2.431   1.506   1.478  0.6457  1.6611 -1.6952
  684SOL     OW 2050   0.143   1.670   1.691 -0.0586  0.1410  0.2541
  684SOL    HW1 2051   0.107   1.583   1.649 -0.2407 -0.6525 -0.5207
  684SOL    HW2 2052   0.218   1.660   1.762  1.2462 -1.9404 -1.0986
  685SOL     OW 2053   1.949   2.024   0.315  0.2353  0.1580 -0.0346
  685SOL    HW1 2054   1.912   2.104   0.361  2.0986 -3.5260 -2.3936
  685SOL    HW2 2055   1.963   1.951   0.386  1.3127  1.9162 -1.1747
  686SOL     OW 2056   2.925   0.775   1.253 -0.1772 -0.2084 -0.7374
  686SOL    HW1 2057   2.897   0.714   1.170 -3.3278 -0.3449 -2.9414
  686SOL    HW2 2058   3.026   0.782   1.254  1.0985  1.9401  0.2207
  687SOL     OW 2059   1.773   0.238   2.418 -0.3609 -0.0090  0.3271
  687SOL    HW1 2060   1.850   0.205   2.474  0.3715 -1.7733 -2.2927
  687SOL    HW2 2061   1.687   0.245   2.476 -1.0948  1.1496  2.4128
  688SOL     OW 2062   1.335   2.095   2.527  0.7334  0.0419 -0.2213
  688SOL    HW1 2063   1.398   2.012   2.511  0.5080  3.1946  0.8119
  688SOL    HW2 2064   1.239   2.072   2.500 -0.0451 -1.1368 -1.1241
  689SOL     OW 2065   2.064   1.289   1.794 -0.0743  0.5704 -0.4667
  689SOL    HW1 2066   2.162   1.300   1.784 -0.9361  1.5193  0.2422
  689SOL    HW2 2067   2.034   1.197   1.819 -0.5409  0.3232 -0.3971
  690SOL     OW 2068   1.882   1.697   1.471  0.1177 -0.0243  0.2868
  690SOL    HW1 2069   1.807   1.669   1.538 -0.0134  0.3345  0.5667
  690SOL    HW2 2070   1.881   1.625   1.393 -1.8171 -1.8994 -2.2846
  691SOL     OW 2071   0.162   1.641   0.568  0.8014  0.2672 -0.2152
  691SOL    HW1 2072   0.127   1.708   0.634 -1.6916 -1.9881 -1.2224
  691SOL    HW2 2073   0.155   1.548   0.606  1.8323  2.7214 -0.3907
  692SOL     OW 2074   2.642   2.633   2.472  0.2723 -0.2037  0.3478
  692SOL    HW1 2075   2.566   2.698   2.454  0.7874 -2.2702  2.9781
  692SOL    HW2 2076   2.630   2.552   2.405 -2.1816 -3.4956 -1.8775
  693SOL     OW 2077   2.857   1.390   2.401 -0.2592 -0.5559 -0.0584
  693SOL    HW1 2078   2.809   1.386   2.492 -1.9768 -0.7207  2.4610
  693SOL    HW2 2079   2.910   1.480   2.389 -0.7055  0.8446  2.7709
  694SOL     OW 2080   2.146   0.178   1.899 -0.4951  0.2710 -0.4187
  694SOL    HW1 2081   2.206   0.259   1.876 -0.4276 -0.3239  0.1584
  694SOL    HW2 2082   2.210   0.099   1.908 -0.4369  2.4404 -1.3334
  695SOL     OW 2083   1.107   0.736   2.336  0.0297 -0.6231 -0.5687
  695SOL    HW1 2084   1.010   0.763   2.301 -1.6989  0.2697 -1.4948
  695SOL    HW2 2085   1.129   0.786   2.422  0.7087 -0.5379  0.8730
  696SOL     OW 2086   1.681   0.069   1.634 -0.1181 -0.1657 -0.2116
  696SOL    HW1 2087   1.773   0.106   1.659  0.3519 -0.5975 -1.5752
  696SOL    HW2 2088   1.653   3.076   1.693  1.2614 -0.3816  0.5717
  697SOL     OW 2089   1.515   0.313   1.980  0.3288 -0.0138 -0.2943
  697SOL    HW1 2090   1.608   0.346   2.012  3.4443 -0.0009  0.3731
  697SOL    HW2 2091   1.520   0.307   1.879  0.4297 -0.1430  3.4948
  698SOL     OW 2092   2.011   1.870   2.614 -0.1672  0.2135 -0.2645
  698SOL    HW1 2093   2.069   1.934   2.667 -0.3399  0.3180  1.6784
  698SOL    HW2 2094   2.026   1.878   2.513  0.8978 -1.7785  4.3077
  699SOL     OW 2095   2.133   0.762   0.150 -0.3906  0.4263  0.1068
  699SOL    HW1 2096   2.081   0.804   0.234 -3.0326  0.5926  1.8867
  699SOL    HW2 2097   2.226   0.806   0.134 -0.4087  1.4686  1.8726
  700SOL     OW 2098   1.356   0.149   0.480 -0.2674 -0.0543  0.1148
  700SOL    HW1 2099   1.450   0.182   0.492 -1.9807 -0.0249  2.3995
  700SOL    HW2 2100   1.325   0.178   0.388  2.5609  2.1013  1.6273
  701SOL     OW 2101   0.138   0.869   0.694  0.4857  0.3838  0.8763
  701SOL    HW1 2102   0.210   0.809   0.650 -0.6796 -0.2374  0.9768
  701SOL    HW2 2103   0.088   0.913   0.620 -0.7593 -1.1101  1.0897
  702SOL     OW 2104   1.904   0.191   1.747  0.1005 -0.0543  0.0119
  702SOL    HW1 2105   1.994   0.195   1.798  0.6557 -2.3196 -0.3233
  702SOL    HW2 2106   1.889   0.268   1.680 -0.6455 -0.8680  1.5305
  703SOL     OW 2107   2.825   1.086   1.189 -0.1784 -0.4292  0.2901
  703SOL    HW1 2108   2.924   1.082   1.155  0.3622 -1.9718 -0.6862
  703SOL    HW2 2109   2.783   0.990   1.190  0.3678 -0.0106  0.6894
  704SOL     OW 2110   0.772   2.619   1.318  0.3189  0.0327 -0.6654
  704SOL    HW1 2111   0.831   2.579   1.245  0.8705 -1.0514  1.2188
  704SOL    HW2 2112   0.780   2.572   1.406  0.8733 -0.8531  1.0363
  705SOL     OW 2113   0.209   1.350   2.641 -0.1393  0.1037 -0.2732
  705SOL    HW1 2114   0.230   1.255   2.618  1.4535  3.0184 -1.2423
  705SOL    HW2 2115   0.287   1.391   2.693  0.6526 -0.2745  0.8137
  706SOL     OW 2116   2.953   2.964   0.170  0.3910 -0.3362 -0.0861
  706SOL    HW1 2117   2.886   3.010   0.112 -1.1901 -3.5322  0.9943
  706SOL    HW2 2118   2.944   2.988   0.268  1.4268  0.4793 -0.8356
  707SOL     OW 2119   1.573   2.841   2.096 -0.3829 -0.2342  0.1034
  707SOL    HW1 2120   1.558   2.938   2.081  0.5470 -0.0809 -1.2270
  707SOL    HW2 2121   1.492   2.811   2.151 -0.7537 -1.8407  1.1394
  708SOL     OW 2122   0.399   2.670   1.515  0.5841  0.5226 -0.4730
  708SOL    HW1 2123   0.440   2.657   1.609  0.5172 -0.1107  5.0198
  708SOL    HW2 2124   0.345   2.587   1.488  0.0886 -0.8498 -2.1888
  709SOL     OW 2125   2.914   0.703   1.899  0.3042  0.0708  0.0717
  709SOL    HW1 2126   2.927   0.800   1.882 -3.5015  0.9746  0.9710
  709SOL    HW2 2127   2.978   0.667   1.971  1.8730  1.7650 -0.8823
  710SOL     OW 2128   0.188   1.018   0.921 -1.1879 -0.1298  0.3099
  710SOL    HW1 2129   0.288   1.046   0.927  1.3547 -1.0793 -1.5295
  710SOL    HW2 2130   0.183   0.974   0.831  0.1153 -1.6068  2.7338
  711SOL     OW 2131   2.663   2.790   1.195  0.3036  0.2827  0.1698
  711SOL    HW1 2132   2.609   2.717   1.158  3.5016  3.5661  0.3330
  711SOL    HW2 2133   2.610   2.880   1.194  0.8117  0.1285 -0.2444
  712SOL     OW 2134   0.041   2.952   2.606 -0.2801 -0.1539  0.1053
  712SOL    HW1 2135   0.008   2.907   2.692 -0.2986 -1.8568  0.1039
  712SOL    HW2 2136   0.143   2.947   2.590  0.2604  0.2217  1.6686
  713SOL     OW 2137   2.493   0.386   0.717 -0.2818 -0.6484  0.0774
  713SOL    HW1 2138   2.390   0.386   0.701 -0.0833  0.2795 -0.4433
  713SOL    HW2 2139   2.544   0.470   0.676  3.5695  3.3525  1.2448
  714SOL     OW 2140   1.695   1.863   2.968  0.1374 -0.2469  0.3578
  714SOL    HW1 2141   1.593   1.872   2.990  0.1893 -1.4345  0.0337
  714SOL    HW2 2142   1.753   1.865   3.050  0.9354 -3.8708  2.7672
  715SOL     OW 2143   0.123   0.420   0.922  0.4861 -0.0529  1.2064
  715SOL    HW1 2144   0.211   0.373   0.940  2.9927  1.2478  0.5663
  715SOL    HW2 2145   0.047   0.360   0.962 -0.2490 -5.2195 -0.0344
  716SOL     OW 2146   0.745   0.660   1.582  0.1255  0.0428  0.3948
  716SOL    HW1 2147   0.817   0.600   1.616 -0.5069  1.1847 -0.0054
  716SOL    HW2 2148   0.712   0.731   1.648 -0.2448  1.5396 -1.3000
  717SOL     OW 2149   0.811   0.248   2.810  0.6854  0.7991 -0.0383
  717SOL    HW1 2150   0.871   0.276   2.737 -1.4377  2.2271 -1.5321
  717SOL    HW2 2151   0.715   0.240   2.775 -0.8955 -2.0341 -2.1721
  718SOL     OW 2152   1.308   0.520   0.217 -0.4093  0.1219  0.4049
  718SOL    HW1 2153   1.399   0.554   0.178  1.7904 -1.7324  1.1525
  718SOL    HW2 2154   1.300   0.419   0.227  1.6822  0.7165  1.5204
  719SOL     OW 2155   2.653   2.272   2.783  0.5567  0.4072 -0.2616
  719SOL    HW1 2156   2.749   2.297   2.806 -2.5028 -0.3020  1.3135
  719SOL    HW2 2157   2.623   2.223   2.868 -2.1963 -3.6950  1.9565
  720SOL     OW 2158   1.250   0.577   1.342  0.3753  0.2580  0.0716
  720SOL    HW1 2159   1.232   0.679   1.353 -1.7278  2.8321  0.2585
  720SOL    HW2 2160   1.174   0.527   1.390  0.7706 -0.7941  0.8736
  721SOL     OW 2161   2.918   2.845   1.200 -0.2851  0.1100  0.2161
  721SOL    HW1 2162   2.975   2.791   1.135 -2.3436  0.9420  1.0749
  721SOL    HW2 2163   2.819   2.826   1.184  3.8015 -1.2942 -0.1281
  722SOL     OW 2164   1.077   1.383   2.547  0.3873  0.8827 -0.4215
  722SOL    HW1 2165   1.006   1.413   2.614 -0.0962  1.6731 -1.1408
  722SOL    HW2 2166   1.171   1.411   2.579 -1.1559 -2.1985 -1.4728
  723SOL     OW 2167   2.395   0.662   1.256  0.1839  0.3804  0.6395
  723SOL    HW1 2168   2.448   0.575   1.264 -1.4346 -0.1597 -2.8894
  723SOL    HW2 2169   2.458   0.742   1.250 -1.0092 -0.7532 -1.8300
  724SOL     OW 2170   0.785   2.197   0.017 -0.2643 -0.2842 -0.1583
  724SOL    HW1 2171   0.798   2.181   0.117  1.4265 -0.5755  0.2104
  724SOL    HW2 2172   0.875   2.183   3.055 -1.2880 -0.7884 -0.4272
  725SOL     OW 2173   0.339   1.240   1.553  0.1697  0.3967  0.0141
  725SOL    HW1 2174   0.374   1.275   1.643 -0.3534  1.4099  0.1806
  725SOL    HW2 2175   0.410   1.164   1.525 -0.5353 -2.6759 -1.2021
  726SOL     OW 2176   2.476   0.665   3.051  0.6576  0.4947  0.0507
  726SOL    HW1 2177   2.451   0.717   0.053  2.3114 -1.6590 -0.7903
  726SOL    HW2 2178   2.571   0.685   3.024 -2.6383  2.0844  0.7390
  727SOL     OW 2179   1.939   1.145   2.796  0.2565 -0.0301 -0.1847
  727SOL    HW1 2180   1.915   1.176   2.702  0.4223  2.5957  2.1164
  727SOL    HW2 2181   1.986   1.054   2.794  0.0982  0.4272  1.7414
  728SOL     OW 2182   1.408   2.480   1.446 -0.2960  0.1652 -0.1421
  728SOL    HW1 2183   1.460   2.472   1.531  1.5308 -1.5342 -1.3265
  728SOL    HW2 2184   1.457   2.436   1.370  2.0923 -1.4818 -0.7739
  729SOL     OW 2185   2.098   0.819   2.251  0.3440  0.4433  0.1921
  729SOL    HW1 2186   2.191   0.824   2.299  0.6507  1.6647  0.7603
  729SOL    HW2 2187   2.056   0.914   2.246 -1.5000  0.2794 -0.4960
  730SOL     OW 2188   1.278   0.800   0.994  0.3544 -0.3667 -0.2543
  730SOL    HW1 2189   1.239   0.707   0.990 -2.9536  0.0132 -1.0288
  730SOL    HW2 2190   1.330   0.831   0.909  0.5843  1.5430 -1.1069
  731SOL     OW 2191   0.689   0.476   3.000  0.3845 -0.1371  0.7971
  731SOL    HW1 2192   0.744   0.538   2.941  3.4810  2.4980  1.2402
  731SOL    HW2 2193   0.735   0.388   3.014 -2.5583  1.9433 -2.5954
  732SOL     OW 2194   0.433   0.608   0.212 -0.7361 -0.0278  0.0156
  732SOL    HW1 2195   0.501   0.550   0.263 -0.1528  0.8194 -0.3789
  732SOL    HW2 2196   0.490   0.662   0.141  3.0980 -2.6646  1.6615
  733SOL     OW 2197   1.729   1.519   2.649  0.1336  0.0925 -0.1439
  733SOL    HW1 2198   1.634   1.506   2.684  0.7481  1.3427 -0.5841
  733SOL    HW2 2199   1.785   1.581   2.705 -3.7837 -2.0174  2.2288
  734SOL     OW 2200   0.289   1.909   2.788 -0.3436 -0.1800 -0.6746
  734SOL    HW1 2201   0.246   1.875   2.874  1.2330  1.7301 -1.6738
  734SOL    HW2 2202   0.282   2.010   2.782 -0.2288  0.4216 -0.9807
  735SOL     OW 2203   2.216   0.629   1.050  0.1723 -0.3002 -0.1952
  735SOL    HW1 2204   2.243   0.662   0.957 -0.7347  2.0927  0.2920
  735SOL    HW2 2205   2.294   0.649   1.116  0.8211  1.4642 -1.4003
  736SOL     OW 2206   1.833   1.722   2.803  0.3318  0.0059 -0.0762
  736SOL    HW1 2207   1.774   1.778   2.864 -1.6575  0.9826  0.8016
  736SOL    HW2 2208   1.888   1.786   2.746  0.3794  1.2334 -0.1148
  737SOL     OW 2209   2.953   0.448   0.511  0.3056 -0.0070 -0.1343
  737SOL    HW1 2210   2.939   0.549   0.544 -0.8208  4.6537  0.4791
  737SOL    HW2 2211   3.045   0.426   0.535 -1.2912  3.1416 -2.7943
  738SOL     OW 2212   0.718   2.004   1.633 -0.1082 -0.0314  0.8232
  738SOL    HW1 2213   0.758   2.027   1.720 -1.0839  0.5595 -0.4064
  738SOL    HW2 2214   0.656   2.070   1.589 -2.4985 -1.9753  0.3371
  739SOL     OW 2215   1.346   2.690   2.132  0.1959 -0.1197  0.1904
  739SOL    HW1 2216   1.261   2.720   2.079 -1.8315 -0.0993  1.7685
  739SOL    HW2 2217   1.342   2.696   2.231  0.2879 -0.0843 -1.5495
  740SOL     OW 2218   2.157   2.239   1.504  0.7694  0.7894 -0.2644
  740SOL    HW1 2219   2.060   2.202   1.487 -2.2181 -1.6341  2.2066
  740SOL    HW2 2220   2.154   2.341   1.514  0.2562  0.6197  0.9329
  741SOL     OW 2221   2.192   0.495   0.218  0.0271 -0.4258  0.2127
  741SOL    HW1 2222   2.157   0.423   0.158 -1.9103 -1.1145 -0.1964
  741SOL    HW2 2223   2.175   0.588   0.184 -3.3799 -0.2518  0.3597
  742SOL     OW 2224   0.933   2.624   2.986 -0.2048 -0.0572  0.5884
  742SOL    HW1 2225   0.938   2.615   2.881 -0.4284 -3.2241  0.4099
  742SOL    HW2 2226   0.950   2.535   3.033  0.9848  0.4724 -0.7728
  743SOL     OW 2227   2.197   1.048   1.988 -0.6775 -0.0416 -0.0752
  743SOL    HW1 2228   2.198   1.138   2.037 -2.5451 -2.2313 -2.5599
  743SOL    HW2 2229   2.097   1.020   1.983 -0.2614  0.4898  1.2646
  744SOL     OW 2230   2.611   0.613   0.612  0.9066 -0.0768 -0.1630
  744SOL    HW1 2231   2.566   0.638   0.521  2.1655  0.2073  0.2350
  744SOL    HW2 2232   2.709   0.634   0.614 -1.0333 -1.3011  2.8781
  745SOL     OW 2233   2.585   1.143   1.805 -0.3899  0.1694  0.4531
  745SOL    HW1 2234   2.550   1.077   1.877 -1.1853 -2.0359  1.8155
  745SOL    HW2 2235   2.630   1.221   1.848 -2.3489 -3.7581  0.6449
  746SOL     OW 2236   1.225   1.478   0.583  0.0302 -0.0854 -0.1318
  746SOL    HW1 2237   1.251   1.384   0.591  0.9254  2.8296 -0.8671
  746SOL    HW2 2238   1.189   1.521   0.675 -0.3034  2.0175  0.8077
  747SOL     OW 2239   1.186   1.613   1.557 -0.2774  0.7856 -0.0926
  747SOL    HW1 2240   1.163   1.530   1.612 -1.8895  0.8073 -1.2047
  747SOL    HW2 2241   1.111   1.679   1.551  1.3252 -0.5852  0.5931
  748SOL     OW 2242   0.038   2.675   2.994  0.0179  0.2645  0.3729
  748SOL    HW1 2243   0.138   2.689   3.009 -0.8030  1.0727 -2.1606
  748SOL    HW2 2244   3.062   2.670   3.073  0.9634  0.8354 -0.2583
  749SOL     OW 2245   0.262   1.111   2.520 -0.3550  0.2873  0.0005
  749SOL    HW1 2246   0.203   1.096   2.434 -0.0810 -1.0271 -1.3247
  749SOL    HW2 2247   0.350   1.160   2.490  0.2659  1.5142 -1.4556
  750SOL     OW 2248   1.661   0.914   1.897 -0.2440  0.0111 -0.1860
  750SOL    HW1 2249   1.569   0.897   1.931  1.6532 -0.2816 -1.9704
  750SOL    HW2 2250   1.730   0.842   1.917  0.1785  0.6488 -0.0612
  751SOL     OW 2251   2.661   0.622   0.252 -0.0796 -0.2588  0.0750
  751SOL    HW1 2252   2.571   0.585   0.274  0.5450 -2.1822 -0.1001
  751SOL    HW2 2253   2.679   0.707   0.313 -0.6315  2.5345  2.4245
  752SOL     OW 2254   3.023   2.659   1.361  0.5365  0.2697  0.3730
  752SOL    HW1 2255   0.037   2.694   1.359  2.3697 -0.2353  0.8468
  752SOL    HW2 2256   2.970   2.715   1.299  1.2336 -4.2647  0.5973
  753SOL     OW 2257   0.616   2.374   1.195 -0.1207  0.1768 -0.0805
  753SOL    HW1 2258   0.671   2.449   1.240  0.0064  0.3617 -3.0873
  753SOL    HW2 2259   0.653   2.276   1.203  0.3547  0.0981  0.8365
  754SOL     OW 2260   0.401   2.946   1.998 -0.0210 -0.1349 -0.4328
  754SOL    HW1 2261   0.305   2.906   2.005 -4.2041 -2.9497 -0.8132
  754SOL    HW2 2262   0.470   2.888   1.944  3.1481 -1.3091 -0.1094
  755SOL     OW 2263   2.421   0.536   0.364  0.2629 -0.1293  0.0678
  755SOL    HW1 2264   2.357   0.520   0.288  2.6133  0.7478  2.0199
  755SOL    HW2 2265   2.377   0.599   0.430 -0.4211 -2.3110  0.6926
  756SOL     OW 2266   2.142   2.385   2.987  0.1570  0.1848  0.0123
  756SOL    HW1 2267   2.165   2.476   3.024 -0.8539 -1.7898  1.3276
  756SOL    HW2 2268   2.088   2.390   2.901 -1.7740 -0.0143  0.3383
  757SOL     OW 2269   2.213   0.665   0.774 -0.1135 -0.2003  0.3467
  757SOL    HW1 2270   2.233   0.709   0.681  1.0972  1.9725 -0.9087
  757SOL    HW2 2271   2.219   0.560   0.764  2.5721  0.8931  0.7433
  758SOL     OW 2272   2.442   0.844   1.705  0.2541 -0.1145  0.0889
  758SOL    HW1 2273   2.400   0.898   1.622 -0.8896  1.2931 -0.3381
  758SOL    HW2 2274   2.437   0.898   1.790 -0.5939 -2.7878 -1.0052
  759SOL     OW 2275   2.911   0.622   1.044 -0.0801  0.2630  0.0174
  759SOL    HW1 2276   2.988   0.658   0.988 -1.4084  0.3727  1.2472
  759SOL    HW2 2277   2.850   0.557   0.994  1.3350 -0.7855  1.4342
  760SOL     OW 2278   2.546   1.400   1.352 -0.4124 -0.3223 -0.0517
  760SOL    HW1 2279   2.641   1.380   1.382 -1.6278 -0.5170  1.2218
  760SOL    HW2 2280   2.545   1.481   1.290  1.1934 -1.4310 -1.8964
  761SOL     OW 2281   0.796   0.666   0.265 -0.4851 -0.3515  0.1601
  761SOL    HW1 2282   0.739   0.751   0.278 -0.1970  1.0420 -0.0262
  761SOL    HW2 2283   0.889   0.691   0.236  2.1680 -0.7921 -0.7834
  762SOL     OW 2284   0.919   1.834   0.660 -0.0044  0.3820 -0.1334
  762SOL    HW1 2285   1.016   1.836   0.693 -0.4436 -2.9981  1.4801
  762SOL    HW2 2286   0.863   1.866   0.738  0.6526  1.2414 -2.2901
  763SOL     OW 2287   1.222   0.839   1.364  0.1460 -0.5363 -0.4495
  763SOL    HW1 2288   1.207   0.895   1.450 -1.1868 -2.1151 -1.9753
  763SOL    HW2 2289   1.197   0.892   1.279 -1.3446  0.3834  2.8243
  764SOL     OW 2290   0.532   1.849   2.642  0.3292 -0.3221 -0.0713
  764SOL    HW1 2291   0.511   1.769   2.584  2.8559 -0.1777 -1.4471
  764SOL    HW2 2292   0.457   1.872   2.709 -3.5812 -2.3717 -1.8650
  765SOL     OW 2293   0.803   2.683   1.684  0.3728 -0.2518 -0.0054
  765SOL    HW1 2294   0.751   2.602   1.656 -0.1626 -1.2939  2.1800
  765SOL    HW2 2295   0.781   2.766   1.631 -1.9769 -0.6485  2.3500
  766SOL     OW 2296   2.518   1.779   2.400 -0.3529  0.1491  0.5094
  766SOL    HW1 2297   2.565   1.865   2.420  0.9859 -1.6778 -2.2238
  766SOL    HW2 2298   2.535   1.710   2.475  0.9370  2.1762 -0.7431
  767SOL     OW 2299   1.564   1.146   2.583 -0.1800  0.0280  0.4630
  767SOL    HW1 2300   1.540   1.048   2.567 -1.9105 -0.0651 -1.1836
  767SOL    HW2 2301   1.524   1.196   2.504  0.6535  0.3848 -1.6640
  768SOL     OW 2302   1.520   1.895   0.246 -0.5680  0.3961  0.1543
  768SOL    HW1 2303   1.471   1.809   0.221  0.4576  1.9316  1.0623
  768SOL    HW2 2304   1.622   1.891   0.222  1.9176  0.7003 -0.5429
  769SOL     OW 2305   0.433   1.113   0.949 -0.0470  0.5654  0.1431
  769SOL    HW1 2306   0.470   1.209   0.946  0.5222 -1.0923 -1.3768
  769SOL    HW2 2307   0.508   1.045   0.955  1.0615  3.4758  1.3477
  770SOL     OW 2308   1.444   0.860   2.500 -0.1808 -0.1681  0.4430
  770SOL    HW1 2309   1.525   0.847   2.563 -1.4316 -0.3658  0.0810
  770SOL    HW2 2310   1.470   0.839   2.402  1.8102  2.0541 -1.5643
  771SOL     OW 2311   3.023   2.922   2.338 -0.5902  0.3863 -0.3813
  771SOL    HW1 2312   2.974   2.836   2.363 -0.5284  0.7406 -0.1054
  771SOL    HW2 2313   3.080   2.942   2.423  1.4758 -0.8356 -0.2771
  772SOL     OW 2314   2.025   1.867   2.347 -0.2377  0.5837  0.1903
  772SOL    HW1 2315   1.963   1.853   2.264 -1.0334  0.6248 -1.0058
  772SOL    HW2 2316   2.120   1.866   2.313 -4.9151  1.7388 -1.0313
  773SOL     OW 2317   0.535   1.705   1.441 -0.0309 -0.5869  0.0136
  773SOL    HW1 2318   0.622   1.687   1.495  1.4575 -1.1822 -1.8714
  773SOL    HW2 2319   0.500   1.612   1.412 -2.1745 -0.3929  0.2564
  774SOL     OW 2320   1.201   0.738   2.901  0.2371 -0.5157  0.1707
  774SOL    HW1 2321   1.116   0.767   2.851 -1.1819 -1.6324 -1.6625
  774SOL    HW2 2322   1.170   0.672   2.969 -1.3099  2.4119 -3.2369
  775SOL     OW 2323   1.926   2.862   0.102  0.0205  0.1329  0.5232
  775SOL    HW1 2324   1.868   2.804   0.155  2.9887  2.5141 -3.0356
  775SOL    HW2 2325   2.013   2.869   0.149 -4.1685 -0.8967 -1.1288
  776SOL     OW 2326   0.211   0.437   1.714  0.3922  0.4087 -0.9025
  776SOL    HW1 2327   0.217   0.363   1.784 -0.7637 -0.9814 -1.1367
  776SOL    HW2 2328   0.291   0.498   1.730 -3.0072  2.1672  1.5446
  777SOL     OW 2329   2.282   1.886   2.288 -0.0845 -0.7197  0.5252
  777SOL    HW1 2330   2.369   1.848   2.326 -0.3900 -2.5843  1.7253
  777SOL    HW2 2331   2.298   1.933   2.199  1.9063 -0.7324  2.1209
  778SOL     OW 2332   1.966   1.044   2.267 -0.1252 -0.0151 -0.2634
  778SOL    HW1 2333   1.886   1.072   2.207 -0.8134 -0.0672  0.5372
  778SOL    HW2 2334   1.995   1.122   2.331 -0.9969  2.1961  0.2852
  779SOL     OW 2335   2.696   0.860   3.019 -0.3575 -0.3190 -0.0817
  779SOL    HW1 2336   2.787   0.882   2.981 -0.2984  0.4521  0.7478
  779SOL    HW2 2337   2.627   0.904   2.960  1.3774 -1.3153 -0.1470
  780SOL     OW 2338   2.526   0.377   2.333 -0.6646 -0.3634 -0.4474
  780SOL    HW1 2339   2.507   0.370   2.432  1.6122 -0.9710 -1.5098
  780SOL    HW2 2340   2.451   0.347   2.271 -0.1616  1.7095 -0.7007
  781SOL     OW 2341   0.173   1.881   1.518 -0.0434 -0.0130  0.5372
  781SOL    HW1 2342   0.271   1.910   1.530 -2.3177  0.6443  0.2730
  781SOL    HW2 2343   0.153   1.787   1.558 -0.3908 -2.2028 -1.0002
  782SOL     OW 2344   2.624   2.123   3.026 -0.3679  0.3632  0.3434
  782SOL    HW1 2345   2.682   2.129   0.024 -0.0685 -0.1394  0.5819
  782SOL    HW2 2346   2.530   2.086   3.036  0.3436 -1.7349 -1.1974
  783SOL     OW 2347   0.768   1.177   1.135 -0.0834  0.4028 -0.2211
  783SOL    HW1 2348   0.839   1.136   1.202  0.9255 -1.2993  5.3524
  783SOL    HW2 2349   0.783   1.157   1.037 -0.6609  0.2693  1.3705
  784SOL     OW 2350   2.274   0.719   2.886 -0.1594  0.1390  0.3555
  784SOL    HW1 2351   2.362   0.722   2.934 -1.7114  1.2725  2.4274
  784SOL    HW2 2352   2.208   0.662   2.938  0.5003 -1.5518 -0.3246
  785SOL     OW 2353   2.369   2.646   0.624  0.3458  0.7741 -0.0980
  785SOL    HW1 2354   2.397   2.709   0.698 -0.1798  0.9396 -2.6107
  785SOL    HW2 2355   2.331   2.697   0.548 -1.9838  1.7323 -0.5090
  786SOL     OW 2356   0.565   2.190   2.403 -0.5417 -0.8677 -0.1396
  786SOL    HW1 2357   0.536   2.108   2.349 -1.1235  1.1392 -2.3293
  786SOL    HW2 2358   0.578   2.180   2.506  1.0045  2.7819 -0.6727
  787SOL     OW 2359   1.431   0.546   1.143 -0.0815 -0.2339 -0.2090
  787SOL    HW1 2360   1.371   0.571   1.222  1.1751  0.9367 -0.7892
  787SOL    HW2 2361   1.522   0.593   1.163  4.7668  2.0035  1.9546
  788SOL     OW 2362   0.227   0.762   0.294 -0.1963  0.2594  0.4372
  788SOL    HW1 2363   0.300   0.702   0.258 -1.1812 -1.1727 -1.1038
  788SOL    HW2 2364   0.140   0.749   0.247  0.1513 -1.5496  3.4101
  789SOL     OW 2365   2.919   2.159   1.290  0.0904 -0.1386  0.3990
  789SOL    HW1 2366   2.857   2.193   1.363  1.8702  1.3748 -0.5800
  789SOL    HW2 2367   2.871   2.107   1.217  1.6505  0.9004 -1.2005
  790SOL     OW 2368   1.397   0.856   1.896 -0.1795  0.0823 -0.2184
  790SOL    HW1 2369   1.451   0.766   1.905  1.3236 -3.5252 -2.3344
  790SOL    HW2 2370   1.306   0.839   1.860 -1.0365  0.7980  1.7801
  791SOL     OW 2371   1.535   0.540   0.467 -0.2310 -0.3121 -0.0075
  791SOL    HW1 2372   1.548   0.549   0.567 -0.5487  1.4205 -0.8070
  791SOL    HW2 2373   1.482   0.622   0.425 -1.3214  0.5238  3.1677
  792SOL     OW 2374   1.606   2.971   1.807  0.7271 -0.6886  0.4984
  792SOL    HW1 2375   1.554   3.018   1.877 -0.8439 -1.7183  0.8600
  792SOL    HW2 2376   1.542   2.926   1.740 -3.0943 -1.8099 -2.4287
  793SOL     OW 2377   0.626   3.054   0.547  0.0615 -0.0939  0.3868
  793SOL    HW1 2378   0.639   3.062   0.444 -1.4412  0.5581 -2.5127
  793SOL    HW2 2379   0.534   3.084   0.578  0.2899  0.8343  0.0934
  794SOL     OW 2380   0.587   0.917   2.252  0.0036  0.3694 -0.4877
  794SOL    HW1 2381   0.605   1.012   2.219 -1.6754 -1.9059 -3.9219
  794SOL    HW2 2382   0.533   0.863   2.187  0.9794  1.7623 -0.8624
  795SOL     OW 2383   0.284   1.810   2.290  0.2107  0.1265  0.0001
  795SOL    HW1 2384   0.187   1.805   2.248  1.2506  0.6101  1.6833
  795SOL    HW2 2385   0.280   1.804   2.394  0.1209  1.0892 -0.9308
  796SOL     OW 2386   2.241   1.236   2.164 -0.1908  0.3492 -0.1299
  796SOL    HW1 2387   2.192   1.285   2.237  0.9307  0.3855 -0.7801
  796SOL    HW2 2388   2.331   1.196   2.193  3.6969 -0.3349 -0.2506
  797SOL     OW 2389   2.788   2.754   2.664  0.1576  0.2505 -0.3782
  797SOL    HW1 2390   2.868   2.704   2.713  1.0124 -2.4205 -0.1795
  797SOL    HW2 2391   2.751   2.690   2.593  0.6949  0.0179 -0.4480
  798SOL     OW 2392   3.033   2.053   2.209 -0.0207 -0.5615 -0.4521
  798SOL    HW1 2393   2.937   2.066   2.183  1.5053  1.2543  1.4970
  798SOL    HW2 2394   0.018   2.081   2.141 -1.8396  0.7085 -0.3856
  799SOL     OW 2395   0.036   2.181   2.887  0.0853 -0.6417 -0.5984
  799SOL    HW1 2396   0.062   2.200   2.983  0.8856  2.4069 -1.3670
  799SOL    HW2 2397   3.076   2.088   2.884  0.1558 -1.9364  0.0531
  800SOL     OW 2398   1.361   1.891   0.534  0.1359  0.2743 -0.0356
  800SOL    HW1 2399   1.316   1.933   0.452 -3.0549 -1.3816 -0.0455
  800SOL    HW2 2400   1.297   1.855   0.609 -2.0453 -1.9365 -1.6531
  801SOL     OW 2401   2.031   0.852   0.805  0.1028 -0.4929  0.2680
  801SOL    HW1 2402   2.052   0.951   0.783 -0.1960  2.4748  1.3028
  801SOL    HW2 2403   2.107   0.783   0.799  1.9239  0.9363 -1.3727
  802SOL     OW 2404   3.064   1.296   0.255 -0.5630  0.2628  0.3205
  802SOL    HW1 2405   0.076   1.251   0.262  5.1070 -1.8632 -2.4368
  802SOL    HW2 2406   3.068   1.395   0.285  2.1878 -0.0293  2.1729
  803SOL     OW 2407   1.377   1.748   2.789  0.3060  0.0509  0.1865
  803SOL    HW1 2408   1.381   1.823   2.863 -0.7109 -0.9314  2.9974
  803SOL    HW2 2409   1.302   1.768   2.721  2.3278  1.5621  1.9405
  804SOL     OW 2410   1.841   1.889   0.122 -0.0661 -0.5703 -0.2076
  804SOL    HW1 2411   1.860   1.940   0.207  1.2750  1.1164  1.4347
  804SOL    HW2 2412   1.926   1.843   0.096 -1.2354  1.6128 -1.2163
  805SOL     OW 2413   2.385   1.740   3.028 -0.0324  0.3318  0.3842
  805SOL    HW1 2414   2.389   1.734   2.925 -0.4043 -2.3519  0.7036
  805SOL    HW2 2415   2.373   1.644   3.067  0.5162 -3.2801 -1.3763
  806SOL     OW 2416   0.665   0.050   0.287 -0.3666 -0.4445 -0.4006
  806SOL    HW1 2417   0.631   0.128   0.230 -0.4690 -0.6423  0.0393
  806SOL    HW2 2418   0.760   0.059   0.327  0.8597 -1.5866  0.3809
  807SOL     OW 2419   2.048   1.305   2.982  0.2017  0.0973 -0.0008
  807SOL    HW1 2420   2.017   1.400   3.001 -0.3461  1.6368  0.4137
  807SOL    HW2 2421   1.974   1.264   2.925 -0.0013  0.5861  0.8826
  808SOL     OW 2422   0.029   1.564   0.320 -0.3176 -0.1516  0.2907
  808SOL    HW1 2423   0.052   1.640   0.384  0.1400 -0.6712 -1.8767
  808SOL    HW2 2424   3.065   1.592   0.231  0.6285  1.1222 -0.8344
  809SOL     OW 2425   2.524   1.038   2.910 -0.4535  0.7021  0.0155
  809SOL    HW1 2426   2.423   1.048   2.941 -1.4683  2.8396 -0.0708
  809SOL    HW2 2427   2.581   1.111   2.950 -5.0987 -0.6146 -0.1137
  810SOL     OW 2428   0.660   0.900   0.276 -0.0686 -0.4597  0.0629
  810SOL    HW1 2429   0.713   0.959   0.212 -0.5389  0.2981 -2.0300
  810SOL    HW2 2430   0.565   0.910   0.243 -0.7848  0.2230  1.4121
  811SOL     OW 2431   1.201   2.513   1.297 -0.9443  0.6018  0.9536
  811SOL    HW1 2432   1.213   2.593   1.228  1.2582  0.6150 -2.5897
  811SOL    HW2 2433   1.285   2.511   1.362  2.7539 -1.9346  0.3836
  812SOL     OW 2434   0.750   2.431   1.581  0.3135  0.3546  0.1444
  812SOL    HW1 2435   0.829   2.440   1.516  0.6546 -1.0619 -0.8713
  812SOL    HW2 2436   0.686   2.351   1.565 -0.7195  0.4145  1.7735
  813SOL     OW 2437   1.239   0.388   1.980 -0.1215 -0.1272  0.1010
  813SOL    HW1 2438   1.336   0.353   1.989  0.7258 -0.5911 -1.3654
  813SOL    HW2 2439   1.221   0.455   2.052 -0.5664  0.8291 -1.9307
  814SOL     OW 2440   1.283   2.433   2.741  0.3744  0.2844  0.5612
  814SOL    HW1 2441   1.289   2.533   2.754 -1.6472 -0.5063  0.3075
  814SOL    HW2 2442   1.375   2.394   2.711  0.5539 -2.0218 -1.9315
  815SOL     OW 2443   0.534   0.103   1.645  0.1979  0.3513  0.5942
  815SOL    HW1 2444   0.505   0.013   1.610 -0.5410 -2.6462 -0.6399
  815SOL    HW2 2445   0.527   0.180   1.579 -1.1996 -0.1131  2.1328
  816SOL     OW 2446   2.151   0.407   2.901 -0.1488 -0.2905  0.4481
  816SOL    HW1 2447   2.241   0.403   2.947 -0.2816  2.2059  1.6091
  816SOL    HW2 2448   2.109   0.497   2.933  0.8180  2.2680  3.1255
  817SOL     OW 2449   2.067   0.360   2.363 -0.3575  0.2938  0.0272
  817SOL    HW1 2450   1.994   0.407   2.308 -0.5011  1.5107 -0.5177
  817SOL    HW2 2451   2.073   0.261   2.333  1.9158 -1.6679  0.3287
  818SOL     OW 2452   2.055   0.307   0.068 -0.2527 -0.6760  0.2736
  818SOL    HW1 2453   2.099   0.225   0.112  3.0062  0.8415  0.3098
  818SOL    HW2 2454   2.053   0.301   3.049 -0.3680 -1.6133 -0.0947
  819SOL     OW 2455   2.379   2.017   3.057 -0.2622  0.4360  0.1415
  819SOL    HW1 2456   2.406   1.920   3.053 -0.2151  1.9312  0.6660
  819SOL    HW2 2457   2.319   2.024   0.047  1.2416 -1.1692 -5.1481
  820SOL     OW 2458   0.028   1.932   0.198  0.5023 -0.0370 -0.1602
  820SOL    HW1 2459   3.038   1.954   0.131  0.1862  0.2203 -1.0036
  820SOL    HW2 2460   3.068   1.918   0.288 -1.1260 -0.4562 -0.6869
  821SOL     OW 2461   0.166   2.480   1.005 -0.0085  0.3620  0.0242
  821SOL    HW1 2462   0.092   2.410   1.013  2.2581  1.0018 -0.1138
  821SOL    HW2 2463   0.235   2.472   1.083  2.2844 -0.0378  1.6805
  822SOL     OW 2464   2.615   2.540   2.943  0.5647  0.4635 -0.4557
  822SOL    HW1 2465   2.627   2.614   2.875  0.4682  1.4841  1.0356
  822SOL    HW2 2466   2.583   2.452   2.897 -3.3978  1.4966  0.4251
  823SOL     OW 2467   1.498   0.191   2.526 -0.2258  0.2840  0.1723
  823SOL    HW1 2468   1.548   0.193   2.619  2.9191  0.5867  1.6386
  823SOL    HW2 2469   1.395   0.184   2.536 -2.2002 -3.0258 -0.4595
  824SOL     OW 2470   2.727   1.968   1.464  0.2744 -0.1683 -0.3237
  824SOL    HW1 2471   2.744   2.071   1.475 -0.4538  1.2697  0.6786
  824SOL    HW2 2472   2.816   1.922   1.470 -0.3866  0.5980 -1.2575
  825SOL     OW 2473   2.651   1.952   2.822 -0.7751 -0.4451 -0.1495
  825SOL    HW1 2474   2.663   2.022   2.895 -0.1411 -1.8944 -2.3700
  825SOL    HW2 2475   2.739   1.944   2.769  0.0136  0.1776 -1.9580
  826SOL     OW 2476   2.294   1.550   2.398  0.1311 -0.1968 -0.1941
  826SOL    HW1 2477   2.243   1.588   2.479 -1.8060  0.0977  0.3625
  826SOL    HW2 2478   2.389   1.525   2.425 -1.1139  1.3006  1.3803
  827SOL     OW 2479   2.173   2.379   1.188  0.2095 -0.4099 -0.5687
  827SOL    HW1 2480   2.083   2.379   1.236 -3.0720 -0.7380  3.6214
  827SOL    HW2 2481   2.228   2.463   1.203  1.8347  0.0388  1.5489
  828SOL     OW 2482   2.673   2.858   1.470  0.5777 -0.2090 -0.1852
  828SOL    HW1 2483   2.674   2.816   1.378 -2.1690  1.8208  0.3299
  828SOL    HW2 2484   2.598   2.928   1.473 -1.1914  1.8192 -0.6505
  829SOL     OW 2485   1.596   2.448   2.476 -0.5031  0.1670 -0.0177
  829SOL    HW1 2486   1.574   2.387   2.555 -0.0167 -3.0414  0.2360
  829SOL    HW2 2487   1.681   2.500   2.502 -0.1786 -1.3485 -2.0306
  830SOL     OW 2488   1.485   0.611   0.729 -0.6487 -0.1133 -0.0135
  830SOL    HW1 2489   1.508   0.706   0.753  0.2043 -3.3495  0.1579
  830SOL    HW2 2490   1.476   0.551   0.810 -0.1791  0.1410 -0.3550
  831SOL     OW 2491   2.695   1.239   3.014  0.2624 -0.0678 -0.5282
  831SOL    HW1 2492   2.736   1.260   0.024  0.9143  0.4271  4.0098
  831SOL    HW2 2493   2.768   1.252   2.940  0.5515 -0.6210  0.0978
  832SOL     OW 2494   1.371   1.856   1.882  0.7553  0.4214 -0.1922
  832SOL    HW1 2495   1.347   1.824   1.977 -1.4719  0.8369  0.4309
  832SOL    HW2 2496   1.460   1.905   1.890 -2.5658 -2.0722  0.4000
  833SOL     OW 2497   3.053   3.064   1.920  0.1302 -0.1293 -0.4940
  833SOL    HW1 2498   0.038   2.995   1.924 -3.5786  1.9638  0.4179
  833SOL    HW2 2499   3.029   0.008   2.015 -1.2499  0.0680  1.6496
  834SOL     OW 2500   0.907   1.025   1.841  0.1641  0.5910 -0.7348
  834SOL    HW1 2501   0.873   0.939   1.876  0.6578 -0.1217  1.2506
  834SOL    HW2 2502   0.978   1.013   1.766 -0.9527 -1.1288 -0.1420
  835SOL     OW 2503   2.896   0.733   2.696  0.2262  0.1675 -0.2675
  835SOL    HW1 2504   2.887   0.781   2.605  0.1671 -1.0839 -1.2604
  835SOL    HW2 2505   2.854   0.639   2.688  0.7582 -0.3390 -1.3668
  836SOL     OW 2506   1.151   2.085   0.604  0.2574 -0.0665  0.2141
  836SOL    HW1 2507   1.123   1.988   0.619 -2.8586 -0.4730  0.6571
  836SOL    HW2 2508   1.144   2.099   0.504  3.6655  1.5570  1.5464
  837SOL     OW 2509   1.575   1.428   0.997 -0.0314 -0.0143  0.0960
  837SOL    HW1 2510   1.535   1.505   1.053 -2.1016 -0.1548  0.8845
  837SOL    HW2 2511   1.666   1.400   1.034 -4.2735  2.0053  1.2226
  838SOL     OW 2512   1.264   1.705   2.378  0.4302 -0.5775 -0.2096
  838SOL    HW1 2513   1.226   1.630   2.314 -0.5856 -1.7716 -1.3386
  838SOL    HW2 2514   1.216   1.696   2.467 -1.2004  2.8354  3.1999
  839SOL     OW 2515   0.632   2.142   2.669 -0.8318  0.3077 -0.1765
  839SOL    HW1 2516   0.614   2.042   2.687  3.7567 -2.0472  1.4683
  839SOL    HW2 2517   0.593   2.206   2.737 -1.3961 -1.8456 -1.2616
  840SOL     OW 2518   0.633   2.415   0.015 -0.5416 -0.6759  0.1160
  840SOL    HW1 2519   0.702   2.341   3.082 -0.0546  1.6698 -1.0898
  840SOL    HW2 2520   0.668   2.505   3.072 -1.0609  1.5886  1.0346
  841SOL     OW 2521   1.953   2.386   0.231 -0.3363 -0.3058 -0.1580
  841SOL    HW1 2522   1.966   2.333   0.143  0.6955 -0.0199 -2.8143
  841SOL    HW2 2523   2.006   2.471   0.227  2.1750 -1.3725  0.2149
  842SOL     OW 2524   0.811   0.641   2.822 -0.0145 -0.3000 -0.0292
  842SOL    HW1 2525   0.738   0.660   2.752 -1.3085 -1.3141 -0.1268
  842SOL    HW2 2526   0.883   0.714   2.829 -0.4052 -2.6257  0.8959
  843SOL     OW 2527   1.256   2.982   0.510  0.2639  0.2086 -0.0671
  843SOL    HW1 2528   1.281   3.081   0.493  0.0838  0.0831 -2.1834
  843SOL    HW2 2529   1.166   2.970   0.566 -1.6547  0.4388  2.0514
  844SOL     OW 2530   2.371   3.002   2.237 -0.4036 -0.0843 -0.6152
  844SOL    HW1 2531   2.464   3.031   2.265 -1.2099  2.5147  1.1655
  844SOL    HW2 2532   2.368   2.988   2.136  1.4889 -0.8433  1.7203
  845SOL     OW 2533   2.576   2.482   1.225 -0.0603 -0.1945  0.1915
  845SOL    HW1 2534   2.572   2.380   1.245  0.6017 -1.2216  0.6510
  845SOL    HW2 2535   2.530   2.507   1.139 -0.3387 -0.7734 -1.2832
  846SOL     OW 2536   0.212   1.784   2.561 -0.4113  0.0063 -0.3407
  846SOL    HW1 2537   0.173   1.695   2.582  1.6696  2.6819  0.6019
  846SOL    HW2 2538   0.251   1.840   2.639  1.2300  1.4236 -0.8564
  847SOL     OW 2539   1.555   0.729   1.456 -0.0442 -0.8736 -0.4660
  847SOL    HW1 2540   1.542   0.752   1.356 -0.1240 -0.1819 -2.0292
  847SOL    HW2 2541   1.592   0.811   1.499  0.8045 -1.4726  0.1887
  848SOL     OW 2542   2.705   0.127   0.146 -0.4537  0.0207  0.3864
  848SOL    HW1 2543   2.652   0.077   0.216 -3.0580  1.4556 -1.1205
  848SOL    HW2 2544   2.773   0.194   0.186  0.8776  1.8487  0.7071
  849SOL     OW 2545   0.510   2.975   2.736  0.4455  0.0601  0.1985
  849SOL    HW1 2546   0.525   2.878   2.767 -0.2678  3.1634 -2.2250
  849SOL    HW2 2547   0.507   3.040   2.818 -1.2789  1.1859 -1.5878
  850SOL     OW 2548   0.943   2.524   1.142  0.4505 -0.0143 -0.2674
  850SOL    HW1 2549   0.942   2.563   1.045 -2.2317  1.5966 -2.1425
  850SOL    HW2 2550   1.033   2.482   1.161  2.0106 -1.6661  0.4634
  851SOL     OW 2551   2.766   0.145   2.153  0.1201  0.7420 -0.3420
  851SOL    HW1 2552   2.857   0.106   2.164 -4.6667  0.7756  1.2009
  851SOL    HW2 2553   2.774   0.248   2.161  0.2115  2.5963 -1.0534
  852SOL     OW 2554   2.069   1.241   2.448 -0.2540  0.0932 -0.5673
  852SOL    HW1 2555   1.985   1.265   2.505 -3.8371  2.2011  2.1312
  852SOL    HW2 2556   2.144   1.209   2.507  1.4529 -1.4029 -0.8251
  853SOL     OW 2557   2.819   2.986   0.689  0.2215  0.5915  0.9464
  853SOL    HW1 2558   2.903   3.035   0.721  0.9310  3.9430 -0.1532
  853SOL    HW2 2559   2.743   3.015   0.755 -0.0527  2.3353  0.3299
  854SOL     OW 2560   2.295   1.049   1.298 -0.0897  0.4532 -0.5255
  854SOL    HW1 2561   2.390   1.013   1.297  1.0036  0.9277  3.0408
  854SOL    HW2 2562   2.234   1.015   1.214 -1.3615 -2.9066 -2.8243
  855SOL     OW 2563   1.448   2.363   0.448 -0.0792  0.2600  0.2773
  855SOL    HW1 2564   1.477   2.456   0.421 -1.4246 -2.1029  1.3605
  855SOL    HW2 2565   1.511   2.295   0.395  1.9692 -1.2669 -0.1799
  856SOL     OW 2566   2.949   0.165   2.875  0.3566 -0.6347 -0.0029
  856SOL    HW1 2567   2.943   0.123   2.782  0.1718 -2.9190 -1.7301
  856SOL    HW2 2568   2.982   0.100   2.946  0.5019 -1.1894  1.4637
  857SOL     OW 2569   1.362   0.077   1.687  0.5268  0.1508 -0.1616
  857SOL    HW1 2570   1.449   0.128   1.697 -2.6516 -2.4436  2.7608
  857SOL    HW2 2571   1.288   0.114   1.745  0.4176 -2.0317 -0.7142
  858SOL     OW 2572   2.297   2.045   1.699  0.0213 -0.0066  0.3441
  858SOL    HW1 2573   2.312   1.955   1.653  0.8142 -2.0458 -3.5370
  858SOL    HW2 2574   2.252   2.106   1.632 -2.2602 -1.2895 -2.2576
  859SOL     OW 2575   1.337   2.266   1.102 -0.2757 -0.3717 -0.1330
  859SOL    HW1 2576   1.433   2.270   1.140 -1.2615  0.8052  1.1791
  859SOL    HW2 2577   1.268   2.251   1.181 -0.0428 -0.4637 -1.4751
  860SOL     OW 2578   2.398   2.531   0.228 -0.7407 -0.1925  0.2743
  860SOL    HW1 2579   2.487   2.569   0.195  1.3639  2.4299 -0.5234
  860SOL    HW2 2580   2.402   2.427   0.240  1.7181 -0.9846  1.4259
  861SOL     OW 2581   1.687   3.002   0.937 -0.3431 -0.5272 -0.3036
  861SOL    HW1 2582   1.587   3.035   0.947  1.0308  1.0617 -0.9088
  861SOL    HW2 2583   1.732   2.988   1.027 -1.9218  0.6004  3.6493
  862SOL     OW 2584   1.910   2.852   2.458  0.2066 -0.0609  0.2935
  862SOL    HW1 2585   2.007   2.824   2.436  1.5762  0.6576 -1.2123
  862SOL    HW2 2586   1.905   2.935   2.516  1.2595  1.1832 -1.2497
  863SOL     OW 2587   0.309   0.708   0.530 -0.1383  0.7039 -0.0652
  863SOL    HW1 2588   0.312   0.606   0.531  1.0855 -1.0775 -0.8144
  863SOL    HW2 2589   0.277   0.743   0.441  0.7133  1.2855 -1.1154
  864SOL     OW 2590   2.807   2.389   2.155 -0.4238  0.4276  0.1512
  864SOL    HW1 2591   2.898   2.412   2.196  0.1554  0.0065 -1.1584
  864SOL    HW2 2592   2.802   2.413   2.056  1.7272 -0.5277  1.1257
  865SOL     OW 2593   0.417   1.469   2.778 -0.0952  0.3519  0.4185
  865SOL    HW1 2594   0.391   1.535   2.853  2.0276  2.1837  0.0273
  865SOL    HW2 2595   0.471   1.391   2.818  1.0885  1.5413  2.5221
  866SOL     OW 2596   2.786   0.493   2.670  0.3978 -0.2039  0.0185
  866SOL    HW1 2597   2.824   0.457   2.755  1.3345  1.7629 -2.3295
  866SOL    HW2 2598   2.800   0.436   2.588 -1.2236  2.0834  0.8602
  867SOL     OW 2599   3.079   2.944   2.903  0.1074 -0.1030 -0.1171
  867SOL    HW1 2600   0.012   2.849   2.942 -0.8474  1.6331 -2.6244
  867SOL    HW2 2601   0.054   3.010   2.955  2.0038  2.9668  0.4524
  868SOL     OW 2602   1.417   2.677   0.844 -0.5242  0.1727  0.2207
  868SOL    HW1 2603   1.431   2.713   0.939 -1.9700 -1.8288  1.4433
  868SOL    HW2 2604   1.391   2.582   0.856  0.4709  0.6460  0.5190
  869SOL     OW 2605   1.343   1.625   0.858 -0.3867 -0.2932 -0.5087
  869SOL    HW1 2606   1.379   1.533   0.829 -1.1059 -1.0687  1.7304
  869SOL    HW2 2607   1.357   1.644   0.957  1.3308 -0.2955  1.5314
  870SOL     OW 2608   1.946   2.062   1.364 -0.0119 -0.1315  0.3543
  870SOL    HW1 2609   1.943   2.041   1.267 -3.1110 -0.6660  1.1821
  870SOL    HW2 2610   2.000   1.993   1.416 -0.5213 -2.0712  0.3548
  871SOL     OW 2611   0.854   1.490   1.673  0.0260 -0.7046 -0.6991
  871SOL    HW1 2612   0.800   1.566   1.634  1.6005 -1.6305  2.7640
  871SOL    HW2 2613   0.880   1.423   1.596 -1.3637 -0.2033 -0.5715
  872SOL     OW 2614   1.363   1.209   1.111 -0.0997  0.7149  0.1672
  872SOL    HW1 2615   1.402   1.216   1.206 -0.5359  1.7803  0.1170
  872SOL    HW2 2616   1.382   1.295   1.059 -3.2339 -0.4330 -1.9787
  873SOL     OW 2617   1.171   0.893   2.546 -1.0464 -0.3131 -0.0293
  873SOL    HW1 2618   1.150   0.987   2.515  0.9850  0.1581  1.8212
  873SOL    HW2 2619   1.267   0.868   2.565 -1.5656 -2.0003 -2.5185
  874SOL     OW 2620   0.110   1.160   1.407 -0.4995  0.5433 -0.4792
  874SOL    HW1 2621   0.058   1.243   1.397  0.2109 -1.7782 -1.1362
  874SOL    HW2 2622   0.194   1.180   1.465  2.6313  1.7025  0.5841
  875SOL     OW 2623   2.624   0.008   0.849  0.0459  0.0681 -0.2181
  875SOL    HW1 2624   2.683   0.035   0.929 -1.6250 -0.3552 -0.0777
  875SOL    HW2 2625   2.527   0.025   0.875 -0.3832 -2.4091 -0.9345
  876SOL     OW 2626   1.116   0.314   2.727 -0.1750 -0.4327 -0.5169
  876SOL    HW1 2627   1.143   0.243   2.665  1.7274  4.8930  2.9464
  876SOL    HW2 2628   1.036   0.367   2.683 -2.2081  1.1208  0.2081
  877SOL     OW 2629   0.150   0.059   1.161  0.2597  0.0480  0.1587
  877SOL    HW1 2630   0.164   0.061   1.266  3.4732 -3.5881 -0.1654
  877SOL    HW2 2631   0.054   0.053   1.122  0.3885 -0.5851  0.1145
  878SOL     OW 2632   1.991   2.693   2.979  0.5813  0.5230 -0.6117
  878SOL    HW1 2633   1.942   2.758   3.041  1.8471  0.7752  1.0545
  878SOL    HW2 2634   2.082   2.668   3.030  0.8919  0.9583  0.1582
  879SOL     OW 2635   2.226   1.794   1.898  0.6158  0.6648  0.2118
  879SOL    HW1 2636   2.259   1.779   1.803 -1.5147 -0.6590  1.5802
  879SOL    HW2 2637   2.138   1.756   1.917  0.8458  1.4118 -0.0170
  880SOL     OW 2638   0.800   0.817   1.360  0.2616  0.3944  0.2184
  880SOL    HW1 2639   0.778   0.755   1.433  0.2025  0.1687 -3.3562
  880SOL    HW2 2640   0.715   0.847   1.313  1.1021  0.1544 -2.4293
  881SOL     OW 2641   0.971   1.828   3.044  0.1438 -0.3507  0.3185
  881SOL    HW1 2642   0.963   1.900   2.974 -1.0425  0.6478 -1.2601
  881SOL    HW2 2643   1.065   1.783   3.039  2.3789  0.0465 -1.6186
  882SOL     OW 2644   1.822   0.498   0.839 -0.7277  0.0716  0.1780
  882SOL    HW1 2645   1.750   0.424   0.846 -2.5008  0.1738  0.1299
  882SOL    HW2 2646   1.898   0.465   0.894  0.4998  1.3894  1.2226
  883SOL     OW 2647   1.815   0.704   1.957 -0.1112 -0.6879  0.2074
  883SOL    HW1 2648   1.827   0.700   2.059 -0.2645 -0.5127  0.1006
  883SOL    HW2 2649   1.899   0.663   1.908 -0.5214 -0.6620  0.9952
  884SOL     OW 2650   2.381   0.219   0.104  0.2608 -0.7927 -0.4267
  884SOL    HW1 2651   2.462   0.168   0.088 -0.4524  3.4763 -0.4793
  884SOL    HW2 2652   2.384   0.309   0.057 -1.6651 -1.7320  0.6393
  885SOL     OW 2653   0.639   2.024   0.573  0.1313 -0.6012 -0.1558
  885SOL    HW1 2654   0.613   2.109   0.518 -2.6327 -1.1968 -2.0654
  885SOL    HW2 2655   0.592   2.025   0.664 -0.0913 -0.2246  1.7017
  886SOL     OW 2656   1.674   1.539   0.006  0.1871  0.4144 -0.0773
  886SOL    HW1 2657   1.659   1.541   0.106 -1.8732 -0.1098 -1.1182
  886SOL    HW2 2658   1.775   1.546   0.000 -1.0978 -1.7312 -0.0508
  887SOL     OW 2659   1.436   0.477   1.541 -0.0906 -0.1938  0.1184
  887SOL    HW1 2660   1.370   0.452   1.467  0.5611 -2.4673  1.0745
  887SOL    HW2 2661   1.491   0.560   1.520 -0.4330  2.4081 -0.0868
  888SOL     OW 2662   2.985   1.021   1.580 -0.4301  0.0821  0.1785
  888SOL    HW1 2663   3.031   1.076   1.511 -2.7900  1.2660  1.3820
  888SOL    HW2 2664   2.887   1.042   1.591  2.9627 -2.9725 -1.0214
  889SOL     OW 2665   2.841   2.367   0.920 -0.0139 -0.3119  0.3739
  889SOL    HW1 2666   2.853   2.453   0.863  1.7507  0.5682 -3.2230
  889SOL    HW2 2667   2.887   2.384   1.006 -0.8551 -0.6120 -0.8761
  890SOL     OW 2668   3.068   2.435   2.246  0.2514  0.0158  0.2234
  890SOL    HW1 2669   0.053   2.358   2.261 -0.2531 -1.3753  0.0432
  890SOL    HW2 2670   3.077   2.503   2.319 -0.7224  1.3116 -1.7629
  891SOL     OW 2671   0.647   1.717   0.240  0.0315  0.0819 -0.1547
  891SOL    HW1 2672   0.630   1.814   0.211 -0.9608 -0.0277 -1.7538
  891SOL    HW2 2673   0.722   1.724   0.314  2.2386  0.7718  1.2939
  892SOL     OW 2674   3.081   2.197   1.544 -0.2543 -0.2430  0.1733
  892SOL    HW1 2675   3.003   2.139   1.563  1.3884  3.8320  0.8636
  892SOL    HW2 2676   3.075   2.277   1.602 -0.8067  1.6893 -0.2992
  893SOL     OW 2677   0.180   3.016   1.633 -0.6031  0.1893  0.7746
  893SOL    HW1 2678   0.125   0.014   1.656 -0.6619 -3.3042 -2.3591
  893SOL    HW2 2679   0.113   2.940   1.618 -1.9382  0.5580  1.0381
  894SOL     OW 2680   2.600   1.781   0.843  0.1964 -0.1054  0.2711
  894SOL    HW1 2681   2.639   1.814   0.932 -1.4683 -0.4616 -2.4065
  894SOL    HW2 2682   2.603   1.854   0.779  0.6903 -1.9522  5.1038
  895SOL     OW 2683   2.131   2.551   1.571 -0.3286 -0.4078  0.4229
  895SOL    HW1 2684   2.105   2.601   1.655  1.8294 -1.0531 -0.5780
  895SOL    HW2 2685   2.151   2.599   1.482 -0.6776 -0.8762  2.7347
  896SOL     OW 2686   0.776   0.057   1.387  0.0681 -0.1721 -0.0849
  896SOL    HW1 2687   0.681   0.079   1.354  0.3602 -1.3736  2.4814
  896SOL    HW2 2688   0.784   3.045   1.417 -1.6144 -0.6965 -1.3246
  897SOL     OW 2689   0.937   1.044   1.331  0.3249 -0.2645  0.0879
  897SOL    HW1 2690   0.880   0.965   1.354 -2.2488  1.6044  0.6402
  897SOL    HW2 2691   1.023   1.029   1.277 -0.4952  0.2970 -0.3954
  898SOL     OW 2692   1.291   2.759   1.442  0.2629 -0.2916  0.1468
  898SOL    HW1 2693   1.217   2.694   1.456  3.3797  0.2450 -2.6991
  898SOL    HW2 2694   1.367   2.717   1.388  0.2779  0.2672 -0.9129
  899SOL     OW 2695   1.247   0.326   2.946 -0.3513 -0.7718 -0.0591
  899SOL    HW1 2696   1.336   0.282   2.956 -2.2293  0.7165  2.8236
  899SOL    HW2 2697   1.203   0.316   2.850  0.7042  1.6459 -0.6428
  900SOL     OW 2698   1.137   2.688   1.954 -0.0565 -1.0924  0.5296
  900SOL    HW1 2699   1.100   2.604   1.981 -0.3896  0.0313  0.9991
  900SOL    HW2 2700   1.111   2.720   1.856  1.1924  2.4559 -2.4491
  901SOL     OW 2701   0.875   2.134   0.268  0.0359  0.2845 -0.1328
  901SOL    HW1 2702   0.919   2.206   0.331 -0.4851  3.8951  2.5356
  901SOL    HW2 2703   0.925   2.047   0.270  1.2138  1.1648 -0.7431
  902SOL     OW 2704   1.715   0.975   1.171 -0.0154  0.3073  0.2078
  902SOL    HW1 2705   1.631   0.919   1.182  1.0460  0.5191 -0.7034
  902SOL    HW2 2706   1.731   0.998   1.076 -1.9595 -0.9489  1.2380
  903SOL     OW 2707   2.665   0.953   2.655  0.6526  0.0409  0.0435
  903SOL    HW1 2708   2.645   0.989   2.743  0.6634 -2.0508 -0.6415
  903SOL    HW2 2709   2.610   0.996   2.581 -0.2322 -0.5416 -0.3022
  904SOL     OW 2710   0.987   1.209   0.147 -0.0324  0.4567  0.0524
  904SOL    HW1 2711   0.991   1.240   0.245 -0.7088  0.4171 -3.3931
  904SOL    HW2 2712   1.064   1.151   0.126 -1.1990  1.5736  1.3144
  905SOL     OW 2713   1.775   2.939   1.195 -0.1055  0.2213  0.0552
  905SOL    HW1 2714   1.740   3.015   1.252 -0.9549  1.5071  0.8290
  905SOL    HW2 2715   1.814   2.863   1.258 -0.3374 -1.1378  4.6747
  906SOL     OW 2716   2.358   2.844   0.866  0.1977  0.6122  0.1956
  906SOL    HW1 2717   2.354   2.950   0.872  0.4868  4.4073  1.2772
  906SOL    HW2 2718   2.457   2.817   0.866  2.0384 -2.0607 -0.1685
  907SOL     OW 2719   1.508   0.803   0.511 -0.0629  0.4400 -0.4719
  907SOL    HW1 2720   1.427   0.846   0.554  0.8197 -0.5520  0.2304
  907SOL    HW2 2721   1.588   0.812   0.570 -1.6155 -0.8092  2.1325
  908SOL     OW 2722   1.710   0.283   1.283  0.6423  0.8119 -0.2595
  908SOL    HW1 2723   1.729   0.323   1.374  1.7561 -0.4579  0.9688
  908SOL    HW2 2724   1.675   0.189   1.289  0.4182 -0.7774  1.7236
  909SOL     OW 2725   2.037   0.432   1.006  0.3627  0.1668 -0.0111
  909SOL    HW1 2726   2.017   0.366   1.081 -0.0013  2.6631  0.6504
  909SOL    HW2 2727   2.116   0.494   1.035  1.4089 -1.6886  0.8664
  910SOL     OW 2728   2.455   0.530   2.080 -0.0605 -0.5711 -0.2817
  910SOL    HW1 2729   2.547   0.551   2.044 -1.7397  0.5644  1.1716
  910SOL    HW2 2730   2.401   0.613   2.101 -0.1629  2.6745  3.2669
  911SOL     OW 2731   2.483   0.373   2.614 -0.4172 -0.3474 -0.2227
  911SOL    HW1 2732   2.410   0.443   2.638 -0.1939 -0.0750  0.3827
  911SOL    HW2 2733   2.539   0.355   2.696  1.0267 -0.3362 -0.7100
  912SOL     OW 2734   0.564   1.083   1.773 -0.1949 -0.4094  0.1493
  912SOL    HW1 2735   0.617   1.166   1.782  1.4006  0.9380  2.8084
  912SOL    HW2 2736   0.531   1.066   1.679 -0.0389  1.5035 -0.9074
  913SOL     OW 2737   2.746   2.240   1.513  0.1482  0.0588 -0.3674
  913SOL    HW1 2738   2.728   2.239   1.615  0.2131 -0.0266  0.5986
  913SOL    HW2 2739   2.755   2.338   1.487  0.6069 -0.3150 -0.1526
  914SOL     OW 2740   1.902   0.975   1.388  0.0074  0.1672  0.2262
  914SOL    HW1 2741   1.968   1.052   1.373  1.3158  2.5462  0.3423
  914SOL    HW2 2742   1.815   0.989   1.339 -0.4125 -0.0961 -0.0877
  915SOL     OW 2743   2.752   1.246   0.778  0.4430  0.1497  0.2696
  915SOL    HW1 2744   2.681   1.313   0.816 -0.6352 -0.1769 -0.5874
  915SOL    HW2 2745   2.832   1.247   0.837  0.8511 -0.9072 -0.4128
  916SOL     OW 2746   1.931   2.456   1.268  0.3438  0.2305 -0.1614
  916SOL    HW1 2747   1.894   2.476   1.176  1.2043  0.4915 -3.8177
  916SOL    HW2 2748   1.866   2.400   1.324 -1.1493 -0.1297  2.4379
  917SOL     OW 2749   1.824   2.785   2.189 -0.0012  0.0946 -0.2775
  917SOL    HW1 2750   1.728   2.798   2.153  3.0011 -1.6264 -0.1138
  917SOL    HW2 2751   1.833   2.810   2.289 -2.1658  1.1082  1.0544
  918SOL     OW 2752   1.793   2.590   2.565  0.5602  0.3475 -0.2416
  918SOL    HW1 2753   1.819   2.581   2.660 -0.5405 -1.7180 -2.8277
  918SOL    HW2 2754   1.789   2.689   2.542 -1.8469 -1.6799  1.0516
  919SOL     OW 2755   1.002   0.175   1.444 -0.5878 -0.1223 -0.1323
  919SOL    HW1 2756   0.907   0.142   1.416 -1.0401 -0.4693 -3.7605
  919SOL    HW2 2757   1.035   0.160   1.542  3.8207 -2.4518  2.9139
  920SOL     OW 2758   2.757   0.399   2.221 -0.5083  0.0789  0.3278
  920SOL    HW1 2759   2.664   0.380   2.260  1.7920 -1.5524  0.4886
  920SOL    HW2 2760   2.813   0.446   2.294  0.4371  0.9284  2.8512
  921SOL     OW 2761   3.013   0.944   1.850  0.2822 -0.2462 -0.1377
  921SOL    HW1 2762   0.014   0.984   1.886  0.0633  0.6528 -2.6439
  921SOL    HW2 2763   3.005   0.965   1.751 -1.6186  1.9645 -0.2545
  922SOL     OW 2764   2.498   2.438   0.722 -0.5396  0.1963 -0.8406
  922SOL    HW1 2765   2.587   2.466   0.677  0.3963  1.6504 -0.8398
  922SOL    HW2 2766   2.432   2.515   0.708  2.9222  1.0031  2.6661
  923SOL     OW 2767   0.696   2.478   0.771  0.3832 -0.3631  0.3892
  923SOL    HW1 2768   0.688   2.409   0.693 -0.1565 -1.0379 -0.0536
  923SOL    HW2 2769   0.636   2.455   0.850  0.8482 -0.8396  1.6344
  924SOL     OW 2770   0.978   0.854   2.764  0.3636  0.4561 -0.2158
  924SOL    HW1 2771   0.898   0.915   2.777 -1.2806  0.2283  0.4116
  924SOL    HW2 2772   1.031   0.883   2.682 -1.9210 -0.5747 -0.6145
  925SOL     OW 2773   2.442   1.255   0.742 -0.1917  0.1638  0.3973
  925SOL    HW1 2774   2.417   1.178   0.801  2.0732  2.0908  1.4994
  925SOL    HW2 2775   2.440   1.345   0.783 -1.2934 -4.1710 -2.9624
  926SOL     OW 2776   0.308   0.228   0.986 -0.4073 -0.3315  0.0015
  926SOL    HW1 2777   0.409   0.213   1.001  0.9138 -1.5667  0.6908
  926SOL    HW2 2778   0.257   0.164   1.042  1.1475  0.5257  0.5267
  927SOL     OW 2779   0.485   1.604   2.526 -0.0625 -0.0970  0.9681
  927SOL    HW1 2780   0.480   1.555   2.618 -0.6279 -1.2647  1.5062
  927SOL    HW2 2781   0.420   1.563   2.463 -1.7006  0.5276  0.3326
  928SOL     OW 2782   0.116   0.386   2.113 -0.4857 -0.1839  0.0241
  928SOL    HW1 2783   0.073   0.338   2.189  1.1588 -2.0541 -0.4977
  928SOL    HW2 2784   0.116   0.329   2.032 -2.3297  1.4972  1.3798
  929SOL     OW 2785   2.789   2.513   1.432 -0.1267  0.3898 -0.4212
  929SOL    HW1 2786   2.868   2.564   1.389  1.2811  1.1490  1.4915
  929SOL    HW2 2787   2.707   2.512   1.372 -0.2869 -2.1720  1.5467
  930SOL     OW 2788   2.022   0.375   2.050 -0.5175 -0.0037 -0.2204
  930SOL    HW1 2789   2.080   0.457   2.078 -2.9307  0.0822 -0.5940
  930SOL    HW2 2790   2.078   0.297   2.013  0.2316 -0.2185  1.3522
  931SOL     OW 2791   2.252   1.157   2.897 -0.1274 -0.4605  0.2337
  931SOL    HW1 2792   2.180   1.213   2.944  0.1175 -0.2033 -0.5440
  931SOL    HW2 2793   2.207   1.074   2.856 -0.1563  0.3914 -1.1614
  932SOL     OW 2794   1.890   1.340   0.634  0.1007 -0.3324  0.6175
  932SOL    HW1 2795   1.900   1.241   0.641 -0.4187 -1.4323 -1.1046
  932SOL    HW2 2796   1.869   1.370   0.536  0.2461 -2.4090 -0.2561
  933SOL     OW 2797   1.786   1.717   1.139  0.0935  0.0753  0.2869
  933SOL    HW1 2798   1.793   1.698   1.039 -0.7976 -0.6917  0.2452
  933SOL    HW2 2799   1.818   1.641   1.198  2.8704 -1.1916  0.3366
  934SOL     OW 2800   2.116   0.933   2.802  0.1522 -0.2994 -0.0279
  934SOL    HW1 2801   2.154   0.854   2.852 -1.1556  0.2524 -1.0933
  934SOL    HW2 2802   2.114   0.911   2.701 -0.3655  2.1692  1.8775
  935SOL     OW 2803   0.135   1.202   0.509 -0.0002  0.0799 -0.3253
  935SOL    HW1 2804   0.197   1.181   0.430  0.5241 -3.0071  2.5250
  935SOL    HW2 2805   0.056   1.141   0.508 -0.2711 -1.3446 -0.2687
  936SOL     OW 2806   0.009   2.728   1.021  0.0301  0.1971  0.5368
  936SOL    HW1 2807   0.087   2.797   1.033 -0.6107 -1.3317  0.4311
  936SOL    HW2 2808   0.055   2.634   1.023  0.9365 -0.6606 -0.2046
  937SOL     OW 2809   2.960   2.264   1.910  0.6926  0.3515 -0.2714
  937SOL    HW1 2810   2.987   2.362   1.886  0.3173 -2.9145 -0.3653
  937SOL    HW2 2811   3.024   2.221   1.977  1.0093 -2.3074  2.1218
  938SOL     OW 2812   2.896   2.122   0.167  0.1727  0.8245 -0.0963
  938SOL    HW1 2813   2.940   2.206   0.129  1.7199 -0.2428 -0.8438
  938SOL    HW2 2814   2.898   2.130   0.266 -0.1381  0.6595  0.1838
  939SOL     OW 2815   1.158   0.999   1.150 -0.1547  0.4550  0.3621
  939SOL    HW1 2816   1.223   1.080   1.146  2.7903 -0.5840 -1.0248
  939SOL    HW2 2817   1.181   0.931   1.079 -0.5326 -0.1067 -0.4837
  940SOL     OW 2818   2.819   0.285   2.479 -0.4628  0.0698 -0.3075
  940SOL    HW1 2819   2.730   0.257   2.437  0.0068  2.8617 -2.1490
  940SOL    HW2 2820   2.864   0.206   2.528  2.3782  0.9514 -1.1414
  941SOL     OW 2821   2.466   2.588   2.679 -0.0318  0.1207  0.0697
  941SOL    HW1 2822   2.534   2.597   2.603  1.5239 -0.3321 -1.3991
  941SOL    HW2 2823   2.426   2.494   2.684  1.9322  0.0693 -1.7184
  942SOL     OW 2824   1.410   0.226   1.212  0.2570 -0.5197 -0.2637
  942SOL    HW1 2825   1.390   0.159   1.289 -1.7682 -2.5871  2.3408
  942SOL    HW2 2826   1.488   0.287   1.236  0.8760 -0.8822  1.9941
  943SOL     OW 2827   0.902   1.451   2.088  0.0805  0.2108  0.0018
  943SOL    HW1 2828   0.883   1.359   2.121 -1.7062 -0.7962 -2.5728
  943SOL    HW2 2829   0.822   1.513   2.099  2.6226  2.4304 -1.1623
  944SOL     OW 2830   2.121   0.995   1.093 -0.2748 -0.2039 -0.0723
  944SOL    HW1 2831   2.070   0.908   1.080  2.0845 -0.3987 -2.9723
  944SOL    HW2 2832   2.073   1.075   1.051  0.9079 -0.0321 -1.6177
  945SOL     OW 2833   2.797   2.893   2.910 -0.6259 -0.1082  0.3616
  945SOL    HW1 2834   2.783   2.868   2.809  0.9478  0.4955  0.1365
  945SOL    HW2 2835   2.895   2.916   2.923 -0.4042  2.9159 -0.2698
  946SOL     OW 2836   0.102   1.392   1.679 -0.0691 -0.0592  0.1373
  946SOL    HW1 2837   0.062   1.383   1.588  1.4877 -1.0835 -0.4731
  946SOL    HW2 2838   0.200   1.373   1.682 -4.6413  2.0966  2.2389
  947SOL     OW 2839   0.940   2.930   0.207  0.1621 -0.5405  0.0703
  947SOL    HW1 2840   0.946   2.997   0.284  2.3137  3.1205 -2.0568
  947SOL    HW2 2841   0.874   2.858   0.228  1.1730 -0.4476  0.1670
  948SOL     OW 2842   2.264   1.758   1.197  0.2126 -0.5351 -0.2897
  948SOL    HW1 2843   2.359   1.721   1.187  2.3761  0.5386 -3.0330
  948SOL    HW2 2844   2.259   1.859   1.208 -1.7099 -3.3979  1.1905
  949SOL     OW 2845   0.216   0.881   2.639 -0.0025 -0.6470  0.5023
  949SOL    HW1 2846   0.125   0.885   2.690 -0.7261 -0.8633 -1.4919
  949SOL    HW2 2847   0.237   0.975   2.597  2.7088  0.5230 -0.5217
  950SOL     OW 2848   0.337   2.447   1.218 -0.1285  0.0024 -0.3622
  950SOL    HW1 2849   0.336   2.514   1.294 -0.4100  0.7749  0.5243
  950SOL    HW2 2850   0.433   2.418   1.203  0.3277 -0.4864 -1.4276
  951SOL     OW 2851   0.936   1.593   2.688 -0.0563  0.4487 -0.0887
  951SOL    HW1 2852   0.889   1.597   2.778  0.8177  1.7204 -0.0053
  951SOL    HW2 2853   0.874   1.617   2.613  0.6906 -0.3820 -0.1757
  952SOL     OW 2854   0.566   1.263   0.516 -0.3381  0.0503  0.6301
  952SOL    HW1 2855   0.562   1.181   0.578 -0.0445  1.8339 -1.5586
  952SOL    HW2 2856   0.483   1.322   0.517  1.1550 -0.2232  3.0724
  953SOL     OW 2857   2.343   2.350   2.677  0.7454 -0.4181  0.1961
  953SOL    HW1 2858   2.338   2.274   2.601 -0.1640 -0.8491 -0.6541
  953SOL    HW2 2859   2.337   2.309   2.772 -1.6565 -0.3038  0.8394
  954SOL     OW 2860   1.776   0.774   0.747  0.0739 -0.1442  0.1200
  954SOL    HW1 2861   1.768   0.691   0.800 -1.1559  1.1120 -1.6105
  954SOL    HW2 2862   1.873   0.807   0.754 -1.1582 -0.3760 -2.3458
  955SOL     OW 2863   0.637   1.984   0.210 -0.3602 -0.3474  0.2259
  955SOL    HW1 2864   0.717   2.030   0.256 -1.5684 -0.0047  0.6085
  955SOL    HW2 2865   0.556   2.048   0.208 -2.3663 -2.3366  1.0421
  956SOL     OW 2866   2.644   0.328   1.821  0.2575  0.8188  0.3174
  956SOL    HW1 2867   2.675   0.406   1.876 -0.0958  0.2147 -0.5956
  956SOL    HW2 2868   2.584   0.259   1.871 -1.4234 -3.8533  1.0388
  957SOL     OW 2869   1.756   2.280   1.635  0.0907  0.3899 -0.3129
  957SOL    HW1 2870   1.819   2.320   1.702  0.3046 -0.6187  0.9068
  957SOL    HW2 2871   1.767   2.180   1.635  1.1442  1.5840 -2.1807
  958SOL     OW 2872   1.641   0.969   1.617  0.0648  0.7009 -0.1417
  958SOL    HW1 2873   1.624   0.922   1.709 -1.5844 -0.8998  3.3540
  958SOL    HW2 2874   1.680   1.061   1.629 -0.7909  1.4683  1.5724
  959SOL     OW 2875   1.455   2.068   2.242 -0.1490  0.7595  0.2209
  959SOL    HW1 2876   1.515   2.148   2.226  0.4340 -0.1901 -1.4912
  959SOL    HW2 2877   1.499   1.999   2.292  0.5452  3.7027  0.2588
  960SOL     OW 2878   0.645   0.690   2.620  0.3442  0.4115  0.6429
  960SOL    HW1 2879   0.549   0.675   2.662  0.1255  0.2820  1.5356
  960SOL    HW2 2880   0.659   0.624   2.542 -2.1935 -0.7096 -0.0972
  961SOL     OW 2881   3.058   0.958   2.797 -0.0783 -0.4565 -0.1756
  961SOL    HW1 2882   2.980   0.897   2.765 -1.4373 -2.5075  0.4527
  961SOL    HW2 2883   3.037   1.059   2.782  1.7574  0.1572 -1.3821
  962SOL     OW 2884   0.999   1.967   2.800 -0.4114  0.1259 -0.0626
  962SOL    HW1 2885   0.949   1.964   2.715  1.6042  1.4255 -1.7126
  962SOL    HW2 2886   1.049   2.059   2.805  2.1987  3.0474 -1.3867
  963SOL     OW 2887   2.859   1.889   0.051 -0.3931  0.9514  0.5151
  963SOL    HW1 2888   2.767   1.843   0.062  2.2231  2.2994 -3.6254
  963SOL    HW2 2889   2.866   1.983   0.087 -0.1369 -2.2480 -1.5927
  964SOL     OW 2890   0.802   2.236   2.217 -0.0774 -0.3148  0.3736
  964SOL    HW1 2891   0.722   2.224   2.283 -0.7909 -2.2236  2.5280
  964SOL    HW2 2892   0.859   2.315   2.248 -0.5309 -0.3236  1.4996
  965SOL     OW 2893   1.596   1.876   1.229 -0.0113 -0.2103 -0.6154
  965SOL    HW1 2894   1.580   1.873   1.327  0.1442  1.0410 -1.0440
  965SOL    HW2 2895   1.676   1.826   1.198  1.8856  0.8426 -1.7906
  966SOL     OW 2896   3.000   1.651   0.043  0.1999  0.1270 -0.3756
  966SOL    HW1 2897   2.963   1.744   0.074 -0.8857  0.9913 -2.2202
  966SOL    HW2 2898   3.045   1.659   3.038  1.1252 -2.4321 -0.6923
  967SOL     OW 2899   1.993   2.969   2.065  0.2062  0.1121 -0.3181
  967SOL    HW1 2900   1.952   2.890   2.116 -0.1879 -2.6251 -0.0179
  967SOL    HW2 2901   1.961   2.966   1.966  1.4749  2.6983  0.9597
  968SOL     OW 2902   1.015   0.783   0.108  0.5664  0.3416 -0.3545
  968SOL    HW1 2903   0.941   0.840   0.064 -0.4773  2.7911 -1.7294
  968SOL    HW2 2904   1.028   0.703   0.047 -0.2942  0.1197 -0.1820
  969SOL     OW 2905   0.495   1.272   2.440 -0.1993 -0.2888 -0.1330
  969SOL    HW1 2906   0.438   1.357   2.421 -2.4102 -0.6336  0.1166
  969SOL    HW2 2907   0.530   1.222   2.359 -0.6116 -0.5433  0.0820
  970SOL     OW 2908   2.072   2.916   0.841  0.2568  0.6422  0.3638
  970SOL    HW1 2909   2.058   2.901   0.740 -0.6005 -2.0286  0.1794
  970SOL    HW2 2910   2.164   2.884   0.864 -0.4426 -1.2373  0.2563
  971SOL     OW 2911   2.069   2.244   0.689  0.1147 -0.5621 -0.4185
  971SOL    HW1 2912   2.085   2.270   0.788  0.1382 -0.1233 -1.7258
  971SOL    HW2 2913   2.114   2.311   0.628 -1.9360 -1.0324  0.9174
  972SOL     OW 2914   3.060   1.220   2.674  0.4997 -0.0046 -0.5949
  972SOL    HW1 2915   3.049   1.200   2.578  0.1162  1.1024  1.0390
  972SOL    HW2 2916   0.058   1.274   2.687 -1.5665 -1.8896 -0.7448
  973SOL     OW 2917   0.609   0.258   0.120 -0.2498 -0.3965 -0.0221
  973SOL    HW1 2918   0.694   0.315   0.120  0.0221  0.3628 -0.0162
  973SOL    HW2 2919   0.562   0.261   0.030  0.9317 -2.7404 -0.3575
  974SOL     OW 2920   2.444   0.977   1.938 -0.2275  0.1641  0.0674
  974SOL    HW1 2921   2.495   0.941   2.016 -1.7556  0.3585 -1.9631
  974SOL    HW2 2922   2.348   1.004   1.971  1.9035 -2.6488  1.5635
  975SOL     OW 2923   3.021   0.059   0.811 -0.3938 -0.2218  0.0908
  975SOL    HW1 2924   3.018   0.053   0.911  0.7234 -2.1048  0.9816
  975SOL    HW2 2925   2.999   0.154   0.787  0.1518 -3.1607  0.2768
  976SOL     OW 2926   0.625   1.531   1.166 -0.3557 -0.0511  0.4983
  976SOL    HW1 2927   0.539   1.535   1.216  1.5127 -0.5820  2.4517
  976SOL    HW2 2928   0.704   1.482   1.207  0.3963  2.5966  3.0634
  977SOL     OW 2929   1.209   2.185   0.143 -0.6637  0.0079 -0.6030
  977SOL    HW1 2930   1.296   2.224   0.108 -0.4893  1.2781  1.8828
  977SOL    HW2 2931   1.169   2.242   0.224 -1.3511  1.8977  0.6064
  978SOL     OW 2932   0.104   0.581   3.056 -0.4026 -0.1758  0.0851
  978SOL    HW1 2933   0.065   0.601   2.965 -0.5965  1.2448  2.3386
  978SOL    HW2 2934   0.197   0.539   3.056  2.8592  1.2534 -2.4607
  979SOL     OW 2935   1.836   1.700   0.872  0.2106 -0.8073 -0.0223
  979SOL    HW1 2936   1.767   1.645   0.818  1.1886 -1.2341  0.2685
  979SOL    HW2 2937   1.830   1.800   0.849  1.6460  0.6060 -0.6079
  980SOL     OW 2938   0.644   2.007   1.987 -0.1521 -0.1999 -0.1856
  980SOL    HW1 2939   0.731   1.955   1.981 -0.5421 -0.2986  1.0283
  980SOL    HW2 2940   0.659   2.108   1.979 -1.3182 -1.3728  1.4011
  981SOL     OW 2941   2.367   1.617   2.755  0.5419  0.2497  0.2607
  981SOL    HW1 2942   2.442   1.551   2.782  2.6955 -0.6926  0.9797
  981SOL    HW2 2943   2.305   1.578   2.681 -0.5918  0.8593  1.3195
  982SOL     OW 2944   0.194   2.063   1.757 -0.3554 -0.1544  0.2203
  982SOL    HW1 2945   0.136   2.028   1.678 -2.3541 -0.1201 -0.6707
  982SOL    HW2 2946   0.276   2.002   1.783  1.1686 -2.4916 -0.3859
  983SOL     OW 2947   1.538   0.290   1.725 -0.0890 -0.4856 -0.0669
  983SOL    HW1 2948   1.518   0.364   1.657 -0.2755 -0.0258 -0.3095
  983SOL    HW2 2949   1.611   0.229   1.694 -1.2968  0.6608 -1.1868
  984SOL     OW 2950   2.560   2.847   0.034  0.0738 -0.0590  0.1302
  984SOL    HW1 2951   2.627   2.896   3.065 -1.9267 -1.6555 -1.0862
  984SOL    HW2 2952   2.579   2.749   0.020 -1.2237  0.7028 -1.8338
  985SOL     OW 2953   1.437   1.198   1.867 -0.0398 -0.0452 -0.1246
  985SOL    HW1 2954   1.401   1.292   1.885  2.8738  1.3583  0.4515
  985SOL    HW2 2955   1.445   1.143   1.951  1.8428 -0.2579 -0.0428
  986SOL     OW 2956   1.977   0.073   2.557  0.5265  0.2984  0.0350
  986SOL    HW1 2957   2.061   0.028   2.528 -0.8534 -0.6138  1.6214
  986SOL    HW2 2958   2.005   0.136   2.633  1.4186 -1.9510  1.6864
  987SOL     OW 2959   2.763   1.696   2.871  0.3685 -0.0558 -0.1701
  987SOL    HW1 2960   2.834   1.712   2.942  0.6441  0.5989 -1.8764
  987SOL    HW2 2961   2.720   1.781   2.846  2.6631 -0.1376  0.4379
  988SOL     OW 2962   0.120   0.753   1.283  0.3121 -0.4773 -0.6194
  988SOL    HW1 2963   0.150   0.657   1.271 -0.5589 -0.5019  0.0208
  988SOL    HW2 2964   0.087   0.762   1.383 -3.4317  0.2915  2.9961
  989SOL     OW 2965   1.974   0.767   1.071 -0.6610  0.0903  0.6623
  989SOL    HW1 2966   2.038   0.692   1.099  2.3110 -0.6184 -0.4878
  989SOL    HW2 2967   1.965   0.771   0.970 -0.1183  0.7996 -0.6009
  990SOL     OW 2968   2.606   0.300   2.879 -0.1199 -0.3886  0.2014
  990SOL    HW1 2969   2.689   0.348   2.900 -3.4906  0.9342  0.8698
  990SOL    HW2 2970   2.623   0.200   2.897 -1.0225 -2.7943  1.6474
  991SOL     OW 2971   0.164   1.435   0.033 -0.1352  0.1935  0.2967
  991SOL    HW1 2972   0.117   1.346   0.015  1.8426 -1.6128  2.0370
  991SOL    HW2 2973   0.195   1.439   0.128  2.3990 -0.0239 -1.2242
  992SOL     OW 2974   2.027   1.503   1.956  0.0420 -0.1852 -0.2739
  992SOL    HW1 2975   2.089   1.512   2.038  1.7591  1.8984  1.6957
  992SOL    HW2 2976   2.034   1.412   1.911  1.6970  0.4119  0.6998
  993SOL     OW 2977   0.209   2.576   0.745 -0.5669 -0.3453 -0.4594
  993SOL    HW1 2978   0.202   2.533   0.841 -0.6119 -1.2774  2.3631
  993SOL    HW2 2979   0.284   2.644   0.740 -2.4186  1.0050 -0.8892
  994SOL     OW 2980   3.050   1.745   1.897 -0.2047  0.2336  0.1066
  994SOL    HW1 2981   2.951   1.715   1.878 -1.2127 -0.4823 -0.1541
  994SOL    HW2 2982   0.039   1.719   1.833  0.0747  0.0037  1.1409
  995SOL     OW 2983   1.754   2.011   2.633  0.1176 -0.2973 -0.9708
  995SOL    HW1 2984   1.839   1.962   2.612 -2.1735  0.5570 -2.2903
  995SOL    HW2 2985   1.673   1.962   2.604  1.4614  1.2721  2.0452
  996SOL     OW 2986   2.203   2.024   0.187  0.2580  0.2315 -0.5053
  996SOL    HW1 2987   2.108   2.037   0.223 -0.6043 -0.4675 -0.8480
  996SOL    HW2 2988   2.259   1.952   0.235  0.8696 -0.0222 -1.7737
  997SOL     OW 2989   1.435   1.356   2.470  0.0945  0.2066  0.3922
  997SOL    HW1 2990   1.398   1.429   2.536 -1.0970 -0.6900  0.4189
  997SOL    HW2 2991   1.446   1.396   2.376 -0.8794 -0.3895  1.8227
  998SOL     OW 2992   2.999   2.211   0.754  0.4638 -0.1468 -0.3076
  998SOL    HW1 2993   3.005   2.265   0.669 -0.0459  0.7477 -0.1525
  998SOL    HW2 2994   2.950   2.264   0.828  0.5791 -0.7854  1.5727
  999SOL     OW 2995   0.457   2.726   0.458 -0.0530 -0.2386 -0.0294
  999SOL    HW1 2996   0.518   2.728   0.538 -0.8369 -1.0322 -0.2989
  999SOL    HW2 2997   0.397   2.644   0.459  2.7556  0.1520 -1.5987
 1000SOL     OW 2998   1.100   0.204   0.062 -0.1950  0.0869 -0.4430
 1000SOL    HW1 2999   1.088   0.112   0.017  2.1282 -3.4534 -1.8540
 1000SOL    HW2 3000   1.138   0.261   3.070 -0.2805  1.5293  0.4757
   3.08451   3.08451   3.08451
