1000 SPC/Fw water molecules t= 447.00000 step= 447000
 3000
    1SOL     OW    1   0.170   0.133   1.461  0.9361 -0.3448  0.2141
    1SOL    HW1    2   0.194   0.121   1.361 -1.0821  3.5326  0.7619
    1SOL    HW2    3   0.219   0.062   1.515 -1.7057  0.4795  1.4261
    2SOL     OW    4   2.832   0.042   0.050 -0.4803  0.3767  0.0701
    2SOL    HW1    5   2.867   0.050   0.145 -0.4894 -0.4434  0.2617
    2SOL    HW2    6   2.729   0.027   0.052 -1.0309  1.6395  0.2533
    3SOL     OW    7   1.174   2.745   0.082 -0.2595 -0.0789 -0.8466
    3SOL    HW1    8   1.168   2.683   3.090  1.5118 -4.1875 -1.9323
    3SOL    HW2    9   1.271   2.749   0.115  0.9186  0.5614 -0.1650
    4SOL     OW   10   1.196   2.672   2.342 -0.2859 -0.0562  0.3711
    4SOL    HW1   11   1.253   2.595   2.324 -0.5708  0.7006  2.8812
    4SOL    HW2   12   1.114   2.635   2.388  0.9660  1.7246 -0.5724
    5SOL     OW   13   2.366   0.437   1.884 -0.7232 -0.3276  0.4685
    5SOL    HW1   14   2.376   0.374   1.802  0.3545  1.1631  0.2697
    5SOL    HW2   15   2.454   0.470   1.920 -1.3684 -1.8069 -0.9435
    6SOL     OW   16   2.519   2.168   1.189  0.0284  0.1066  0.2212
    6SOL    HW1   17   2.557   2.075   1.216 -0.3044 -0.2679  1.0564
    6SOL    HW2   18   2.572   2.242   1.232  1.3428 -2.5921 -0.3290
    7SOL     OW   19   1.439   1.796   0.435 -0.1063  0.1280 -0.3762
    7SOL    HW1   20   1.361   1.851   0.398 -0.1001 -0.8843 -0.1106
    7SOL    HW2   21   1.419   1.767   0.530  0.6350 -1.4179  2.0090
    8SOL     OW   22   0.504   0.968   0.811 -0.0234 -0.5164 -0.5209
    8SOL    HW1   23   0.606   0.955   0.837  1.4820 -0.7208 -1.1186
    8SOL    HW2   24   0.495   0.992   0.715  0.3214  0.9699  2.6792
    9SOL     OW   25   0.455   3.083   1.537  0.2477  0.1377 -0.5492
    9SOL    HW1   26   0.555   3.077   1.546  0.2827  2.4285 -0.3267
    9SOL    HW2   27   0.414   0.007   1.630  1.6824 -1.0130 -1.8526
   10SOL     OW   28   1.106   2.325   0.588 -0.5512 -0.3004 -0.5459
   10SOL    HW1   29   1.188   2.374   0.622 -1.0169 -0.5106  0.8539
   10SOL    HW2   30   1.022   2.383   0.605 -1.3644 -1.1828 -1.0966
   11SOL     OW   31   2.314   1.195   1.294  0.2221  0.0465 -0.4241
   11SOL    HW1   32   2.239   1.137   1.336  0.0223 -4.9758  1.0592
   11SOL    HW2   33   2.363   1.141   1.220 -0.8491 -2.9753  0.9680
   12SOL     OW   34   0.072   0.958   2.075  0.0920 -0.3431 -0.0651
   12SOL    HW1   35   0.066   0.962   1.973 -1.2128  0.1119 -0.4777
   12SOL    HW2   36   0.162   0.922   2.100  0.4938 -0.2976 -0.4391
   13SOL     OW   37   2.309   0.049   0.114  0.0717  0.5188 -0.3640
   13SOL    HW1   38   2.254   0.038   0.198  3.0253  0.4355  0.6585
   13SOL    HW2   39   2.252   0.028   0.031  0.7142 -0.0566  2.5595
   14SOL     OW   40   1.308   2.043   0.156  0.6422 -0.0460  0.3326
   14SOL    HW1   41   1.269   2.020   0.247  0.1318  0.2267  0.3149
   14SOL    HW2   42   1.299   2.145   0.135  1.8064  0.1496  0.2573
   15SOL     OW   43   2.972   2.343   1.923  0.6173  0.0185 -0.1932
   15SOL    HW1   44   3.049   2.389   1.968 -1.4073 -1.8581  1.6408
   15SOL    HW2   45   2.970   2.246   1.948 -2.1270  2.3682 -1.9749
   16SOL     OW   46   2.786   0.507   1.021 -0.1613 -0.3304  0.1953
   16SOL    HW1   47   2.853   0.443   0.978 -0.0232  1.1466 -2.0314
   16SOL    HW2   48   2.807   0.507   1.118  1.7424 -1.2544 -0.3171
   17SOL     OW   49   0.826   0.330   0.911  0.1965 -0.1199  1.0367
   17SOL    HW1   50   0.889   0.367   0.844  1.5490 -1.6359 -2.0387
   17SOL    HW2   51   0.826   0.226   0.910 -0.0704  1.3885  1.8082
   18SOL     OW   52   0.501   0.078   0.489 -0.4127  0.6475 -0.4477
   18SOL    HW1   53   0.597   0.067   0.525  1.2496 -0.6202 -1.1534
   18SOL    HW2   54   0.491   0.067   0.388  0.0123 -0.5207 -0.3812
   19SOL     OW   55   1.479   0.966   1.021  0.3357 -0.0879 -0.1168
   19SOL    HW1   56   1.387   1.001   1.000 -1.8408 -2.1823  1.3944
   19SOL    HW2   57   1.487   0.924   1.113  1.4284 -0.9540  0.0562
   20SOL     OW   58   2.271   1.764   2.665  0.3488 -0.2966  0.3997
   20SOL    HW1   59   2.268   1.867   2.650 -3.4062  1.4774 -0.3841
   20SOL    HW2   60   2.344   1.736   2.721 -1.3650 -1.4148 -2.3294
   21SOL     OW   61   1.407   2.827   0.389 -0.3828 -0.0695 -0.3121
   21SOL    HW1   62   1.403   2.767   0.304 -0.5737  0.4521 -0.4203
   21SOL    HW2   63   1.504   2.852   0.406  1.3650 -0.0492 -1.8261
   22SOL     OW   64   2.613   0.868   0.427  0.0351  0.4374 -0.0747
   22SOL    HW1   65   2.586   0.865   0.525 -1.3730  0.4338  0.0299
   22SOL    HW2   66   2.552   0.928   0.380  3.0198 -3.9201  2.8836
   23SOL     OW   67   0.823   0.314   1.990 -0.0212  0.1338 -0.1823
   23SOL    HW1   68   0.826   0.226   1.942  4.2822 -0.5272  0.7860
   23SOL    HW2   69   0.909   0.363   1.965  0.9993 -0.5897  0.4189
   24SOL     OW   70   1.782   2.466   0.437 -0.0120  0.1287 -0.0177
   24SOL    HW1   71   1.874   2.457   0.483 -1.8712 -1.0093 -1.5065
   24SOL    HW2   72   1.731   2.376   0.423 -0.9725 -2.5663 -1.9720
   25SOL     OW   73   1.881   0.290   2.456 -1.0476  0.3256  0.2612
   25SOL    HW1   74   1.803   0.314   2.524  0.3900  2.6401  2.4103
   25SOL    HW2   75   1.876   0.343   2.369 -0.1467 -2.4294  1.9353
   26SOL     OW   76   1.540   2.688   2.733  0.5900  0.0208  0.5829
   26SOL    HW1   77   1.597   2.693   2.818 -0.6722  1.2057  2.2053
   26SOL    HW2   78   1.487   2.603   2.738 -0.5825  1.1225  0.3667
   27SOL     OW   79   1.300   0.288   1.090  0.3433 -0.4161  0.3232
   27SOL    HW1   80   1.224   0.277   1.162 -2.3859 -0.3123  1.6623
   27SOL    HW2   81   1.367   0.211   1.090  0.0771  1.8495  0.8400
   28SOL     OW   82   0.526   1.655   0.992  0.4938  0.3406  0.2174
   28SOL    HW1   83   0.579   1.635   1.076 -2.9713  0.3937 -0.0461
   28SOL    HW2   84   0.439   1.700   1.023  0.9813  0.0096  0.1430
   29SOL     OW   85   2.499   0.576   1.254 -0.5014  0.0051  0.1716
   29SOL    HW1   86   2.472   0.520   1.175 -0.3388 -1.4060  1.4565
   29SOL    HW2   87   2.583   0.533   1.295  0.8658  1.4052  2.3840
   30SOL     OW   88   1.682   2.518   1.427 -0.5144  0.1910  0.7180
   30SOL    HW1   89   1.748   2.560   1.364 -0.5369  1.6618 -0.1826
   30SOL    HW2   90   1.626   2.451   1.376 -0.8660  1.3772  1.2543
   31SOL     OW   91   1.774   2.889   1.384  0.3574  0.2781  0.1134
   31SOL    HW1   92   1.819   2.812   1.332 -1.4428 -1.5392  0.4816
   31SOL    HW2   93   1.791   2.867   1.482 -0.6088 -2.4773  1.7828
   32SOL     OW   94   2.018   1.432   2.046 -0.4029 -0.2123 -0.5074
   32SOL    HW1   95   2.101   1.373   2.051 -1.4801 -0.0011  1.1232
   32SOL    HW2   96   2.046   1.515   2.000  0.4113  1.1307 -1.1701
   33SOL     OW   97   2.391   2.995   2.323 -0.2477  0.3147  0.8047
   33SOL    HW1   98   2.396   3.091   2.285  2.2631  0.9560  1.7621
   33SOL    HW2   99   2.294   2.960   2.308  1.0034  0.4704 -2.9275
   34SOL     OW  100   2.082   0.420   0.758  0.3546  0.5014 -0.4715
   34SOL    HW1  101   2.082   0.389   0.660 -0.1312 -0.7263 -1.9088
   34SOL    HW2  102   1.989   0.415   0.796 -1.0692  0.0439  0.7411
   35SOL     OW  103   0.169   1.525   1.776  0.0589 -0.2345  0.0196
   35SOL    HW1  104   0.204   1.503   1.871  2.2793  1.2942 -0.0932
   35SOL    HW2  105   0.196   1.459   1.701 -1.5314 -0.1041  0.9328
   36SOL     OW  106   2.667   2.217   2.960 -0.1856 -0.0497  0.4766
   36SOL    HW1  107   2.657   2.212   2.858  0.2349 -1.3742  0.3783
   36SOL    HW2  108   2.638   2.306   3.000  0.8644  0.1026 -0.9135
   37SOL     OW  109   1.103   2.788   1.786 -0.4736  0.0658 -0.2207
   37SOL    HW1  110   1.141   2.863   1.838 -0.8238  1.3373  2.0065
   37SOL    HW2  111   1.186   2.728   1.754  1.0194 -3.8716 -1.1518
   38SOL     OW  112   0.814   0.792   2.370  0.2651  0.2347  0.0255
   38SOL    HW1  113   0.871   0.712   2.339  0.4366 -2.1062 -1.0923
   38SOL    HW2  114   0.821   0.862   2.299 -0.1139  2.2473  1.0740
   39SOL     OW  115   1.929   0.729   1.620 -0.4498  0.1283  0.0420
   39SOL    HW1  116   2.006   0.676   1.575  1.4519 -0.1428 -1.9331
   39SOL    HW2  117   1.961   0.794   1.692  0.3453 -1.1649  0.3568
   40SOL     OW  118   0.915   2.219   0.779  0.7155  0.1175  0.2166
   40SOL    HW1  119   0.951   2.153   0.716  0.6312  0.8434  3.6610
   40SOL    HW2  120   0.838   2.174   0.826 -1.6724 -1.8083 -1.8324
   41SOL     OW  121   2.255   2.109   1.185 -0.6183 -0.8941 -0.2959
   41SOL    HW1  122   2.230   2.170   1.108  1.0689 -2.0320 -1.3782
   41SOL    HW2  123   2.357   2.106   1.195 -1.3418 -0.5188 -1.1785
   42SOL     OW  124   2.585   0.638   0.636 -0.0075 -0.3485 -0.0527
   42SOL    HW1  125   2.518   0.567   0.606 -1.2657  0.1866 -0.9513
   42SOL    HW2  126   2.536   0.726   0.659 -2.3170  0.6586 -0.6665
   43SOL     OW  127   0.847   1.077   2.537 -0.4260  0.1752  0.0141
   43SOL    HW1  128   0.850   0.993   2.478  0.8124  4.4485  1.1926
   43SOL    HW2  129   0.787   1.149   2.503  2.8301 -3.8382  0.3583
   44SOL     OW  130   1.849   2.654   1.211 -0.0629  0.3991  0.2729
   44SOL    HW1  131   1.909   2.577   1.178 -1.2006  1.1311  0.7679
   44SOL    HW2  132   1.831   2.722   1.133  2.3449  3.0822 -1.6856
   45SOL     OW  133   0.506   2.654   2.908 -0.4789 -0.3400 -0.3643
   45SOL    HW1  134   0.454   2.695   2.983  0.0952  0.9337  0.4248
   45SOL    HW2  135   0.535   2.734   2.848 -0.2224 -2.2755  0.4067
   46SOL     OW  136   0.424   2.747   2.070  0.5077 -0.5534 -0.0658
   46SOL    HW1  137   0.520   2.741   2.081 -4.6802 -1.9532 -3.8634
   46SOL    HW2  138   0.370   2.681   2.133 -4.8564  1.7580  1.0461
   47SOL     OW  139   0.545   1.943   0.505  0.3380 -0.1823 -0.5086
   47SOL    HW1  140   0.612   1.874   0.483  0.4035 -0.2795  0.5082
   47SOL    HW2  141   0.519   1.934   0.605 -0.8329  0.3743  1.6707
   48SOL     OW  142   0.881   2.944   1.229 -0.0024  0.3555  0.5535
   48SOL    HW1  143   0.839   2.873   1.291 -0.0858 -2.1204  0.5157
   48SOL    HW2  144   0.818   3.022   1.216  1.5440  0.6926  1.7280
   49SOL     OW  145   3.013   2.710   2.690 -0.0642 -0.0092  0.5133
   49SOL    HW1  146   3.018   2.628   2.632  0.6268  1.0721 -2.1597
   49SOL    HW2  147   2.934   2.716   2.755  0.2289 -0.4142 -1.6803
   50SOL     OW  148   1.216   1.058   0.195  0.2957  0.0469  0.0936
   50SOL    HW1  149   1.180   1.129   0.131  1.9153 -1.2911  0.8861
   50SOL    HW2  150   1.314   1.074   0.219  3.4898 -1.1630 -0.3838
   51SOL     OW  151   1.864   3.092   0.452 -0.2016 -0.6409  0.4413
   51SOL    HW1  152   1.834   0.071   0.384  0.1266  1.2537 -0.7027
   51SOL    HW2  153   1.903   0.042   0.538 -1.2219 -2.5358 -2.0045
   52SOL     OW  154   0.552   1.541   0.715  0.1887 -0.1709 -0.0063
   52SOL    HW1  155   0.565   1.551   0.816  2.7132 -0.0066 -0.9115
   52SOL    HW2  156   0.611   1.612   0.664 -0.3428  1.4361 -2.6891
   53SOL     OW  157   0.281   1.251   2.912 -0.0050  0.0202 -0.1018
   53SOL    HW1  158   0.184   1.242   2.885  1.5924 -1.4486  1.0090
   53SOL    HW2  159   0.297   1.198   3.000 -1.2527  0.3468  0.9666
   54SOL     OW  160   2.507   2.057   0.024  0.2226  0.0749  0.0668
   54SOL    HW1  161   2.550   1.965   0.045  0.7198 -1.6598  1.4233
   54SOL    HW2  162   2.565   2.127   3.067 -1.2023  1.8435 -2.9134
   55SOL     OW  163   2.665   2.408   1.094  0.3834  0.1232 -0.0617
   55SOL    HW1  164   2.760   2.413   1.134 -1.1717 -1.5051 -1.4187
   55SOL    HW2  165   2.634   2.497   1.058 -1.2429 -1.6429  1.4879
   56SOL     OW  166   1.832   0.250   1.527 -0.1627 -0.0781 -0.1272
   56SOL    HW1  167   1.778   0.320   1.472  0.4574 -1.8411  1.2331
   56SOL    HW2  168   1.789   0.237   1.613  1.2199  2.1192 -1.6250
   57SOL     OW  169   1.743   1.860   0.983  0.1980 -0.3420 -0.1876
   57SOL    HW1  170   1.740   1.932   1.056 -1.5774  2.5089  1.7169
   57SOL    HW2  171   1.645   1.841   0.958 -0.5011 -0.2053  0.4527
   58SOL     OW  172   2.571   0.536   2.057 -0.3822  0.6335 -0.2008
   58SOL    HW1  173   2.603   0.500   2.145  4.8420 -0.3416  1.6819
   58SOL    HW2  174   2.524   0.624   2.072  1.2669 -0.5989 -0.8787
   59SOL     OW  175   1.076   2.486   2.022 -0.1125  0.7449 -0.5529
   59SOL    HW1  176   1.026   2.561   2.075 -0.4480  1.4839 -0.0516
   59SOL    HW2  177   1.035   2.468   1.933 -2.3642  0.1439  1.0259
   60SOL     OW  178   0.583   2.886   2.762  0.1190  0.2752 -0.1085
   60SOL    HW1  179   0.617   2.889   2.664 -0.0870  1.3861  0.3081
   60SOL    HW2  180   0.630   2.953   2.818 -2.5907 -0.0351  1.1521
   61SOL     OW  181   0.600   2.198   0.432 -0.1355  0.3829 -0.7134
   61SOL    HW1  182   0.579   2.167   0.337  0.5619 -2.3477  2.4731
   61SOL    HW2  183   0.577   2.120   0.493  1.2613  2.4008 -1.5175
   62SOL     OW  184   1.140   1.574   1.757  0.3715 -0.1535  0.8333
   62SOL    HW1  185   1.055   1.617   1.719 -2.3124 -2.4053  2.8434
   62SOL    HW2  186   1.213   1.647   1.771  3.5350  3.5418 -1.1262
   63SOL     OW  187   0.902   1.936   0.700 -0.3163  0.0738 -0.2774
   63SOL    HW1  188   0.860   1.852   0.738  0.8286  0.2186 -0.6610
   63SOL    HW2  189   0.856   1.966   0.612 -1.8850  0.5528 -2.9319
   64SOL     OW  190   1.253   1.478   2.806  0.6590  0.2880 -0.0079
   64SOL    HW1  191   1.172   1.522   2.848 -3.5663 -2.8272  0.9238
   64SOL    HW2  192   1.222   1.388   2.768  1.3452  0.3461  1.0921
   65SOL     OW  193   1.580   2.140   2.213 -0.6903  0.5389  0.3975
   65SOL    HW1  194   1.650   2.101   2.148  0.6242 -1.1311 -2.2054
   65SOL    HW2  195   1.608   2.117   2.309  0.9137 -1.2643  2.4977
   66SOL     OW  196   0.024   0.770   1.111 -0.1564  0.4078 -0.0867
   66SOL    HW1  197   3.075   0.755   1.019 -1.4485 -1.4420 -0.7182
   66SOL    HW2  198   3.081   0.700   1.173  3.8541 -1.0968  0.3578
   67SOL     OW  199   2.387   2.420   0.481  0.3912  0.8025 -0.1770
   67SOL    HW1  200   2.337   2.333   0.500  1.2457  1.4850 -1.4579
   67SOL    HW2  201   2.334   2.472   0.408  2.8951  5.0208  1.6468
   68SOL     OW  202   2.676   2.588   1.459  0.3268 -0.4548  0.2956
   68SOL    HW1  203   2.715   2.670   1.497  2.5649 -4.4636 -1.1033
   68SOL    HW2  204   2.746   2.513   1.466  2.5777  1.2063  0.4431
   69SOL     OW  205   2.584   2.670   2.952 -0.0580 -0.8372  0.0047
   69SOL    HW1  206   2.510   2.703   2.889  0.1289  0.0304  0.1980
   69SOL    HW2  207   2.656   2.740   2.959 -1.9658  0.7782 -1.4979
   70SOL     OW  208   0.388   1.312   2.664 -0.2621 -0.4670 -0.8689
   70SOL    HW1  209   0.443   1.401   2.666  0.4135  1.5918  0.1895
   70SOL    HW2  210   0.360   1.282   2.758 -0.2621  1.3068 -0.9596
   71SOL     OW  211   0.784   1.204   2.049 -0.2347  0.3944  0.1065
   71SOL    HW1  212   0.682   1.213   2.047 -1.3015  0.1075  2.4490
   71SOL    HW2  213   0.834   1.276   1.995  1.1727 -0.7710  1.0389
   72SOL     OW  214   2.522   1.209   1.704 -0.5580 -0.0191 -0.2310
   72SOL    HW1  215   2.485   1.124   1.742 -1.8861  0.0462  0.3923
   72SOL    HW2  216   2.579   1.260   1.772  1.1311 -0.1426 -5.7065
   73SOL     OW  217   0.670   2.087   2.443 -0.4263  0.2582 -0.2408
   73SOL    HW1  218   0.571   2.100   2.463 -0.4908 -1.3031  1.4641
   73SOL    HW2  219   0.720   2.169   2.414 -2.4381  1.2899 -1.7407
   74SOL     OW  220   1.616   2.937   1.807  1.1851  0.4385  0.7698
   74SOL    HW1  221   1.587   2.902   1.898 -1.6908  0.5835  0.1881
   74SOL    HW2  222   1.701   2.890   1.779 -0.8735 -1.4192  0.4420
   75SOL     OW  223   1.045   2.612   0.882 -0.0058  0.4732 -0.2520
   75SOL    HW1  224   1.017   2.521   0.921 -0.6829  0.9495  1.0924
   75SOL    HW2  225   1.147   2.609   0.891  0.6010  1.6906 -0.8218
   76SOL     OW  226   0.453   1.894   2.794  0.7068 -0.2789 -0.0454
   76SOL    HW1  227   0.532   1.956   2.785  1.2531  1.2835  0.6916
   76SOL    HW2  228   0.458   1.812   2.734 -0.2345  1.1624  0.7499
   77SOL     OW  229   0.601   2.581   1.116  0.1707  0.2560 -0.7813
   77SOL    HW1  230   0.576   2.679   1.130  1.0607 -0.8586  0.3393
   77SOL    HW2  231   0.679   2.551   1.173 -0.7700 -1.4521  1.3198
   78SOL     OW  232   2.634   1.272   0.276 -0.5949 -0.7979 -0.1725
   78SOL    HW1  233   2.719   1.235   0.225 -1.3862 -1.9176 -1.8376
   78SOL    HW2  234   2.637   1.374   0.265  1.6372 -0.3508 -2.3295
   79SOL     OW  235   0.366   1.755   3.003 -0.2710 -0.0962 -0.0671
   79SOL    HW1  236   0.386   1.656   2.994  1.1535 -0.6212  0.4029
   79SOL    HW2  237   0.405   1.809   2.922  0.8047 -0.6875 -0.3501
   80SOL     OW  238   1.827   1.758   1.580  0.5677 -0.0652 -0.2912
   80SOL    HW1  239   1.859   1.713   1.667 -0.1225  2.0198  0.0380
   80SOL    HW2  240   1.735   1.789   1.610  2.8799 -2.3768  0.2142
   81SOL     OW  241   2.228   0.797   2.478  0.8522  0.3228  0.2264
   81SOL    HW1  242   2.225   0.719   2.410  1.4600  2.6328  0.8489
   81SOL    HW2  243   2.313   0.788   2.535  2.4977  1.0766  0.2692
   82SOL     OW  244   1.577   1.780   1.646 -0.2574  0.1602  0.0889
   82SOL    HW1  245   1.564   1.760   1.744  0.9555 -0.9963 -0.3437
   82SOL    HW2  246   1.539   1.702   1.588 -0.8950  0.0904 -0.5747
   83SOL     OW  247   0.067   0.172   2.837  0.2261 -0.0351 -0.1754
   83SOL    HW1  248   3.059   0.142   2.843 -0.0810  0.8917 -1.3267
   83SOL    HW2  249   0.130   0.091   2.838  0.1131 -2.2744  1.5886
   84SOL     OW  250   0.686   1.268   0.270 -0.1998  0.7207 -0.1573
   84SOL    HW1  251   0.719   1.217   0.187  0.6303  2.9498  2.2498
   84SOL    HW2  252   0.763   1.315   0.317 -2.1925  0.4778  0.5316
   85SOL     OW  253   2.000   1.655   1.132 -0.5930  0.3715  0.1793
   85SOL    HW1  254   1.901   1.660   1.108 -1.5763  0.4266 -1.7242
   85SOL    HW2  255   2.046   1.580   1.087 -1.4234  1.3799 -0.3158
   86SOL     OW  256   0.783   0.746   1.148 -0.1009  0.2784 -0.0500
   86SOL    HW1  257   0.739   0.825   1.197 -0.9356 -1.1384  0.4550
   86SOL    HW2  258   0.851   0.705   1.209 -2.0328  1.5531 -1.7202
   87SOL     OW  259   2.612   1.962   2.517  0.2040  0.0478  0.1451
   87SOL    HW1  260   2.640   1.949   2.615  1.0646  2.9868 -1.9302
   87SOL    HW2  261   2.513   1.972   2.504 -1.5744 -1.0112  2.5398
   88SOL     OW  262   0.123   2.889   0.172 -0.2267  0.4057  0.1759
   88SOL    HW1  263   0.147   2.981   0.132 -0.6852  1.6131 -0.2166
   88SOL    HW2  264   0.130   2.905   0.272  1.2525 -0.2944  0.3634
   89SOL     OW  265   1.328   0.031   0.298 -0.3323 -0.0489  0.1617
   89SOL    HW1  266   1.307   0.022   0.201  2.2677  1.3878 -0.1859
   89SOL    HW2  267   1.326   3.033   0.345  1.4569  0.3067 -3.5879
   90SOL     OW  268   2.874   1.313   2.338 -0.0978  0.5403  0.2437
   90SOL    HW1  269   2.807   1.238   2.372 -0.3607 -1.6038 -1.0555
   90SOL    HW2  270   2.967   1.277   2.330  1.5099 -1.2740  1.4197
   91SOL     OW  271   2.148   2.892   0.963  0.0107 -0.3614 -0.2620
   91SOL    HW1  272   2.154   2.823   1.038 -0.8659 -0.1160  0.0811
   91SOL    HW2  273   2.222   2.885   0.894  1.8110  1.6700  0.4344
   92SOL     OW  274   1.542   1.436   0.688 -0.1119  0.8456  0.4866
   92SOL    HW1  275   1.569   1.336   0.712  0.8143 -1.6973  2.2385
   92SOL    HW2  276   1.517   1.490   0.771  0.3577  1.8965 -1.5281
   93SOL     OW  277   0.288   1.749   0.358  0.2507  0.1554  0.2814
   93SOL    HW1  278   0.202   1.803   0.371 -0.0378 -0.6458  2.6324
   93SOL    HW2  279   0.348   1.790   0.283 -1.3168  0.0883  0.8037
   94SOL     OW  280   0.953   2.627   1.416 -0.1862 -0.0819  0.6588
   94SOL    HW1  281   1.028   2.575   1.373 -3.2699 -0.6045  0.1629
   94SOL    HW2  282   0.995   2.704   1.462  1.1547 -1.4542 -0.1507
   95SOL     OW  283   0.032   0.738   0.830  0.1999  0.5928 -0.1819
   95SOL    HW1  284   0.067   0.831   0.811 -1.5229 -0.2036  0.2745
   95SOL    HW2  285   3.072   0.691   0.758 -0.3146 -2.4059  0.4049
   96SOL     OW  286   0.651   2.814   1.715 -0.0461 -0.0897  0.1550
   96SOL    HW1  287   0.661   2.886   1.645  1.1043  0.9943 -2.7096
   96SOL    HW2  288   0.571   2.754   1.704  3.9771  1.9915  0.5640
   97SOL     OW  289   2.329   0.694   0.946 -0.0878 -0.2203 -0.0437
   97SOL    HW1  290   2.239   0.643   0.959  1.2881  1.7032 -2.5608
   97SOL    HW2  291   2.308   0.762   0.870 -3.2370 -0.0850 -0.2060
   98SOL     OW  292   0.089   2.562   1.662  0.2372  0.2350 -0.3341
   98SOL    HW1  293   3.083   2.568   1.657  3.1151  0.4588 -1.0129
   98SOL    HW2  294   0.126   2.587   1.756  3.3268  1.2002  0.1188
   99SOL     OW  295   2.962   0.381   1.655 -0.3105  0.4595  0.4820
   99SOL    HW1  296   2.976   0.299   1.592 -0.0997  1.5515 -0.3505
   99SOL    HW2  297   2.878   0.386   1.720 -2.8008 -0.6451  0.8517
  100SOL     OW  298   2.087   0.328   2.641  0.4447  0.1854  0.5919
  100SOL    HW1  299   2.182   0.305   2.599  0.6764  0.1382 -1.4726
  100SOL    HW2  300   2.018   0.305   2.566 -0.5583  2.1792 -2.3832
  101SOL     OW  301   1.019   3.063   2.251 -0.1208 -0.6009  0.0690
  101SOL    HW1  302   1.003   2.986   2.180  2.3052 -2.8514  1.2958
  101SOL    HW2  303   1.107   3.057   2.306 -3.1757 -0.3343  3.2528
  102SOL     OW  304   0.922   0.835   1.636  0.0395  0.8210 -0.0915
  102SOL    HW1  305   0.830   0.799   1.656  1.7392 -2.0522  1.6474
  102SOL    HW2  306   0.918   0.913   1.567  1.1240  0.3650 -0.8793
  103SOL     OW  307   0.954   0.870   2.817 -0.3334  0.1063  0.3765
  103SOL    HW1  308   1.023   0.843   2.747  1.1291 -3.1079 -1.0468
  103SOL    HW2  309   0.881   0.797   2.814  0.5485 -0.4914  1.3704
  104SOL     OW  310   0.359   0.312   2.030 -0.3988 -0.3464  0.0192
  104SOL    HW1  311   0.446   0.275   2.076  1.7955 -1.7890 -0.5606
  104SOL    HW2  312   0.276   0.284   2.079  3.3263  2.0146 -0.2567
  105SOL     OW  313   2.843   2.384   1.447 -0.6618 -0.7923  0.7796
  105SOL    HW1  314   2.804   2.290   1.444  3.0553  1.9154  1.0940
  105SOL    HW2  315   2.860   2.405   1.546  1.8555 -0.9839 -2.3461
  106SOL     OW  316   1.078   0.013   0.811  0.0371  0.0318  0.0773
  106SOL    HW1  317   1.079   0.066   0.727 -2.3531 -0.3578  2.8013
  106SOL    HW2  318   1.154   3.044   0.835 -1.6166  0.9572 -0.8277
  107SOL     OW  319   2.980   2.062   1.194  0.4444 -0.8337  0.7123
  107SOL    HW1  320   3.000   1.966   1.214 -0.9405  4.2179  1.1096
  107SOL    HW2  321   2.920   2.071   1.114 -0.7812  0.4990  0.6242
  108SOL     OW  322   0.088   2.205   0.583  0.2995 -0.3769 -0.2145
  108SOL    HW1  323   0.186   2.204   0.547 -0.7559  0.3872 -1.7066
  108SOL    HW2  324   0.082   2.221   0.678 -0.5136 -6.3496 -0.4322
  109SOL     OW  325   1.427   3.045   0.712  0.0902 -0.0243  0.1870
  109SOL    HW1  326   1.408   3.035   0.814  0.2987  0.2296  2.5489
  109SOL    HW2  327   1.423   0.054   0.693 -1.4090  3.2931 -0.7972
  110SOL     OW  328   1.481   1.637   0.936  0.3083  0.3860 -0.5933
  110SOL    HW1  329   1.462   1.730   0.978 -1.5386 -0.4151  1.0645
  110SOL    HW2  330   1.448   1.564   0.995  0.3324  0.6307  0.7466
  111SOL     OW  331   1.768   2.560   1.853  0.0381  0.2185  0.0697
  111SOL    HW1  332   1.805   2.477   1.808 -0.2699 -2.5988 -0.6291
  111SOL    HW2  333   1.782   2.565   1.952 -0.2381 -0.6053 -0.6183
  112SOL     OW  334   1.652   2.126   2.485 -0.0746  0.5652 -0.4647
  112SOL    HW1  335   1.590   2.104   2.562 -1.8958  0.5366 -1.2122
  112SOL    HW2  336   1.683   2.222   2.494  0.9468  1.6164 -1.3187
  113SOL     OW  337   2.074   1.980   2.001  0.4697  0.0451 -0.3268
  113SOL    HW1  338   2.106   1.885   1.996 -2.3794  3.1624  2.1793
  113SOL    HW2  339   2.045   2.009   1.908 -0.7784 -1.0578  0.6236
  114SOL     OW  340   0.127   1.048   1.080  0.2396  0.4855  0.0234
  114SOL    HW1  341   0.096   0.952   1.085  2.0177 -0.1065  0.5423
  114SOL    HW2  342   0.049   1.111   1.051 -1.5358  4.0817  0.3330
  115SOL     OW  343   2.748   0.597   2.653  0.2857  0.1736  0.4359
  115SOL    HW1  344   2.825   0.649   2.691  1.2071 -1.4913 -0.5366
  115SOL    HW2  345   2.700   0.646   2.580  2.0535  0.2832  0.1298
  116SOL     OW  346   2.797   0.361   2.769 -0.4401  0.4974 -0.7076
  116SOL    HW1  347   2.783   0.459   2.735 -0.4564  0.3931 -1.2077
  116SOL    HW2  348   2.763   0.302   2.692 -0.7365  0.8514 -1.2287
  117SOL     OW  349   2.440   2.705   0.450 -0.0323 -0.5178  0.7161
  117SOL    HW1  350   2.442   2.622   0.506 -2.5580  1.6662  0.0992
  117SOL    HW2  351   2.500   2.694   0.369 -2.2123 -0.9205  0.5618
  118SOL     OW  352   0.589   2.015   2.103 -0.3833 -0.1503 -0.0084
  118SOL    HW1  353   0.520   2.073   2.145  4.2432 -1.3925 -0.4165
  118SOL    HW2  354   0.615   2.038   2.007  0.2984  0.5161  1.5351
  119SOL     OW  355   0.623   2.821   0.445 -0.2896  0.4859  0.2132
  119SOL    HW1  356   0.685   2.890   0.405 -2.3067 -1.0744 -0.5859
  119SOL    HW2  357   0.614   2.838   0.545  0.3628  0.2342  2.2692
  120SOL     OW  358   1.363   0.752   0.355 -0.3514  0.0766 -0.4947
  120SOL    HW1  359   1.407   0.782   0.445 -0.6166 -1.5418 -2.8671
  120SOL    HW2  360   1.409   0.797   0.276  1.4112  0.8926 -2.9430
  121SOL     OW  361   1.834   0.450   0.850 -0.0969 -0.1338  0.3587
  121SOL    HW1  362   1.840   0.432   0.951 -1.1592  0.3313 -0.3501
  121SOL    HW2  363   1.827   0.552   0.832  1.6482  3.1812 -1.7760
  122SOL     OW  364   2.113   1.279   2.396 -0.0251 -0.8932 -0.0274
  122SOL    HW1  365   2.109   1.381   2.374  0.1266  1.7437 -0.6660
  122SOL    HW2  366   2.023   1.235   2.388 -1.0377  0.1715  4.4924
  123SOL     OW  367   0.916   1.083   1.088 -0.4481  0.1795  0.5815
  123SOL    HW1  368   0.992   1.026   1.055 -0.2787 -0.0937  1.4389
  123SOL    HW2  369   0.872   1.115   1.005  1.6044 -1.3343  2.6456
  124SOL     OW  370   0.582   0.503   2.781  0.4059  0.3248 -0.3221
  124SOL    HW1  371   0.480   0.491   2.770 -1.3523  0.6342  0.7676
  124SOL    HW2  372   0.620   0.440   2.854  2.0580 -0.1890  0.0711
  125SOL     OW  373   0.897   0.157   3.082  0.9653  0.2991 -0.0003
  125SOL    HW1  374   0.958   0.083   3.048 -0.3747  2.7060 -1.5922
  125SOL    HW2  375   0.880   0.148   0.086  1.5980 -2.2700 -1.5423
  126SOL     OW  376   0.599   1.668   0.298 -0.4620 -0.1700  0.4220
  126SOL    HW1  377   0.544   1.588   0.267  0.9289  0.5947  2.8967
  126SOL    HW2  378   0.624   1.661   0.399 -0.8212  0.8446  0.0922
  127SOL     OW  379   1.167   2.459   1.567  0.7098 -0.5070 -0.4670
  127SOL    HW1  380   1.191   2.467   1.469  0.6306 -1.1930 -0.2956
  127SOL    HW2  381   1.227   2.510   1.624  0.4132 -0.5476  2.5560
  128SOL     OW  382   0.859   1.858   0.424  0.8194 -0.0693 -0.1834
  128SOL    HW1  383   0.932   1.818   0.367 -1.0977  1.5812  2.6567
  128SOL    HW2  384   0.847   1.953   0.394 -0.2838 -2.1685 -4.3057
  129SOL     OW  385   1.839   1.487   2.252  0.6815 -0.5026  0.2062
  129SOL    HW1  386   1.744   1.463   2.233  1.6820 -0.5927 -1.4910
  129SOL    HW2  387   1.895   1.452   2.173  0.7131  1.4778 -0.3735
  130SOL     OW  388   2.022   2.057   1.737 -0.0412 -0.2640 -0.4366
  130SOL    HW1  389   2.012   1.971   1.683  0.0266 -0.3676 -2.8083
  130SOL    HW2  390   2.012   2.140   1.675  0.5039  1.5272  1.1771
  131SOL     OW  391   0.295   2.307   1.946 -0.4760  0.4392  0.1427
  131SOL    HW1  392   0.254   2.295   1.860 -1.1954  1.7292  1.6533
  131SOL    HW2  393   0.223   2.334   2.011  2.6801  0.8816 -1.1848
  132SOL     OW  394   2.456   1.608   0.612 -1.1151  0.4622 -0.0328
  132SOL    HW1  395   2.489   1.523   0.567 -0.8600  0.7893  0.2140
  132SOL    HW2  396   2.512   1.688   0.580  0.8820  2.1554  1.4396
  133SOL     OW  397   0.412   1.538   1.502  0.0405 -0.0350 -0.3864
  133SOL    HW1  398   0.400   1.597   1.582  0.3594 -0.7339 -1.4529
  133SOL    HW2  399   0.335   1.476   1.498 -1.3792  2.5335 -1.6478
  134SOL     OW  400   2.800   1.321   0.620  0.4200  0.0048  0.0378
  134SOL    HW1  401   2.824   1.222   0.610 -1.9439 -1.3054 -0.3141
  134SOL    HW2  402   2.883   1.381   0.598  1.1003 -0.7236  1.0155
  135SOL     OW  403   1.918   1.071   2.869  0.2408 -0.4288 -0.0712
  135SOL    HW1  404   1.878   1.149   2.929 -0.0015 -0.5258  1.6985
  135SOL    HW2  405   1.844   1.041   2.803  1.1181  4.6928  2.5339
  136SOL     OW  406   2.842   1.586   1.044  0.1542  0.5483 -0.4417
  136SOL    HW1  407   2.888   1.652   0.986 -2.0602 -0.6674 -1.3304
  136SOL    HW2  408   2.759   1.618   1.093 -0.0231 -0.3692  1.1151
  137SOL     OW  409   2.223   1.674   0.504  0.3172  0.5683 -0.3306
  137SOL    HW1  410   2.149   1.600   0.511 -0.3174  0.0016 -1.3144
  137SOL    HW2  411   2.313   1.657   0.549  1.3374  1.5344 -0.8866
  138SOL     OW  412   2.541   0.332   0.516  0.2080 -0.0815 -0.0627
  138SOL    HW1  413   2.538   0.234   0.491  0.6163 -2.3633  0.7251
  138SOL    HW2  414   2.476   0.369   0.585  0.6197 -0.0307 -0.9256
  139SOL     OW  415   2.880   3.005   2.911 -0.2329 -0.3314 -0.4597
  139SOL    HW1  416   2.870   3.045   3.007 -2.0376  1.0536  2.8496
  139SOL    HW2  417   2.796   3.010   2.857 -2.2217  1.3218  0.2021
  140SOL     OW  418   0.885   1.306   1.598  0.4879 -0.3829  0.5871
  140SOL    HW1  419   0.929   1.301   1.690 -3.2810 -2.5131  0.4003
  140SOL    HW2  420   0.787   1.323   1.605 -0.8571  0.5367 -0.0326
  141SOL     OW  421   1.220   1.501   0.675 -0.2722 -0.1476  0.1339
  141SOL    HW1  422   1.220   1.458   0.769  2.8170 -0.2515  2.9689
  141SOL    HW2  423   1.286   1.582   0.684 -0.4429 -0.0507 -1.2111
  142SOL     OW  424   1.311   0.692   1.104 -0.3035  0.2379  0.1846
  142SOL    HW1  425   1.307   0.678   1.207  1.0784  2.0574 -1.5593
  142SOL    HW2  426   1.406   0.704   1.069  2.2503 -0.3131 -1.5835
  143SOL     OW  427   0.742   0.702   2.861  0.4132  0.4778 -0.0979
  143SOL    HW1  428   0.689   0.781   2.887  1.2275 -3.5673 -0.5940
  143SOL    HW2  429   0.685   0.634   2.808  3.6080 -0.0815  0.1892
  144SOL     OW  430   2.568   0.006   0.156  0.0600  0.2443 -0.5786
  144SOL    HW1  431   2.471   0.017   0.123  0.4687  0.6086  0.7256
  144SOL    HW2  432   2.560   3.080   0.256  0.4071  0.7094  1.0330
  145SOL     OW  433   2.147   3.033   2.613 -0.5087 -0.3626  0.2197
  145SOL    HW1  434   2.206   3.047   2.695 -2.5444  0.7660 -0.7470
  145SOL    HW2  435   2.163   0.015   2.547 -0.5059  0.2901  3.1416
  146SOL     OW  436   2.875   2.902   0.357 -0.0595  0.0054  0.3508
  146SOL    HW1  437   2.911   2.851   0.282 -0.6407  1.7650  1.3001
  146SOL    HW2  438   2.889   3.002   0.333  2.4370  1.8132 -0.6832
  147SOL     OW  439   1.356   0.851   2.624  0.1123 -0.3356 -0.1920
  147SOL    HW1  440   1.443   0.815   2.661 -0.0394 -1.4926 -2.9933
  147SOL    HW2  441   1.324   0.928   2.686  1.2790  0.3666  1.4471
  148SOL     OW  442   1.138   0.111   0.540 -0.1941 -0.1475  0.0168
  148SOL    HW1  443   1.238   0.123   0.516  2.6017  0.7781 -0.3781
  148SOL    HW2  444   1.089   0.090   0.453 -0.5017  2.9150  0.7464
  149SOL     OW  445   1.268   0.764   2.157 -0.4937  0.1781  0.7529
  149SOL    HW1  446   1.189   0.825   2.150 -0.9791 -0.6192 -3.9846
  149SOL    HW2  447   1.327   0.786   2.240 -0.0184  0.1332  0.3859
  150SOL     OW  448   1.832   3.035   2.835 -0.0740 -0.5634 -0.1423
  150SOL    HW1  449   1.882   0.029   2.830  0.5593 -1.9878 -1.2954
  150SOL    HW2  450   1.899   2.956   2.815  1.9179  0.0766  2.7225
  151SOL     OW  451   0.458   1.474   0.149 -0.3206 -0.0110 -0.0633
  151SOL    HW1  452   0.368   1.462   0.194  0.6912 -2.3077  0.0481
  151SOL    HW2  453   0.519   1.394   0.157  1.0136  0.9779 -0.5898
  152SOL     OW  454   0.930   0.465   1.260  0.5692 -0.8910  0.0125
  152SOL    HW1  455   0.856   0.445   1.327  1.8993 -0.1252 -2.8244
  152SOL    HW2  456   1.001   0.393   1.268 -1.0432 -0.5279  0.8311
  153SOL     OW  457   2.501   2.982   1.872  0.5954 -0.0967  0.7403
  153SOL    HW1  458   2.565   3.050   1.912 -1.3064  1.6023 -0.1398
  153SOL    HW2  459   2.413   2.988   1.918  1.4768  0.2906 -1.6639
  154SOL     OW  460   2.240   2.935   1.968  0.2708 -1.0469  0.2956
  154SOL    HW1  461   2.216   3.024   1.926  3.2796 -1.3560  0.3576
  154SOL    HW2  462   2.191   2.857   1.921 -2.4838  0.4831  0.7220
  155SOL     OW  463   0.121   1.014   0.709  0.5476  0.2253 -0.2678
  155SOL    HW1  464   0.142   1.013   0.609  0.1041 -2.4770  0.0418
  155SOL    HW2  465   0.134   1.106   0.752 -2.9027  0.4454 -0.4232
  156SOL     OW  466   2.090   1.441   0.515 -0.2148 -0.4601  0.0608
  156SOL    HW1  467   2.112   1.346   0.548 -1.0205  1.5724  1.9627
  156SOL    HW2  468   2.017   1.434   0.446 -0.0249  1.1250 -0.1774
  157SOL     OW  469   0.724   3.086   2.899  0.0756 -0.1161 -0.5811
  157SOL    HW1  470   0.691   3.061   2.995  1.0115 -0.9497  2.1148
  157SOL    HW2  471   0.718   0.093   2.887  1.7617  1.0531 -1.4118
  158SOL     OW  472   1.783   1.368   1.261 -0.1175  0.4603  0.1374
  158SOL    HW1  473   1.837   1.431   1.320  0.0300  0.3961  0.3145
  158SOL    HW2  474   1.757   1.410   1.175 -0.0621 -0.0409  1.3888
  159SOL     OW  475   0.038   0.272   0.366  0.1005  0.2490 -0.1713
  159SOL    HW1  476   0.132   0.239   0.353  1.4177 -1.0617 -3.1224
  159SOL    HW2  477   0.024   0.335   0.446 -2.2765  3.1372 -0.9670
  160SOL     OW  478   2.543   2.172   1.870 -0.3799  0.4104 -0.1027
  160SOL    HW1  479   2.537   2.161   1.974 -1.5121  0.4829  1.9541
  160SOL    HW2  480   2.476   2.238   1.833 -1.3741  0.1016  0.0120
  161SOL     OW  481   0.484   0.810   3.056  0.4944  0.1922 -0.6046
  161SOL    HW1  482   0.558   0.874   3.033 -1.4332 -1.5972 -1.8865
  161SOL    HW2  483   0.446   0.766   2.971 -0.8626 -1.2037  1.3735
  162SOL     OW  484   0.829   0.434   1.649  0.4075  0.2252 -0.2960
  162SOL    HW1  485   0.772   0.479   1.578  0.2168  1.3541  0.7733
  162SOL    HW2  486   0.770   0.357   1.691  2.5165 -1.7495  1.0078
  163SOL     OW  487   2.685   2.956   2.320 -0.1805  0.0194  0.0761
  163SOL    HW1  488   2.705   2.881   2.260  0.6494  0.1997  1.9341
  163SOL    HW2  489   2.584   2.976   2.319 -2.1395  2.1334  0.1959
  164SOL     OW  490   2.258   1.723   0.254  0.0535 -0.2099  0.1659
  164SOL    HW1  491   2.236   1.814   0.217 -0.8203 -1.0046  1.6341
  164SOL    HW2  492   2.256   1.721   0.352 -0.7089 -0.2260 -3.5945
  165SOL     OW  493   0.399   0.140   0.971 -0.1482  0.4305 -0.4887
  165SOL    HW1  494   0.410   0.199   0.888 -0.6468  1.0885 -0.3153
  165SOL    HW2  495   0.428   0.191   1.053  1.6853  2.1636  0.8328
  166SOL     OW  496   2.861   0.292   3.031 -0.5567 -0.2548 -0.3662
  166SOL    HW1  497   2.839   0.306   2.933  1.1838  1.7355 -0.2514
  166SOL    HW2  498   2.840   0.200   3.064  0.7301  2.8290 -0.7818
  167SOL     OW  499   2.135   0.533   0.359 -0.7360  0.2797  0.2122
  167SOL    HW1  500   2.093   0.628   0.363  2.4446  0.0580 -0.0838
  167SOL    HW2  501   2.216   0.537   0.299  2.8092 -4.6297 -0.5294
  168SOL     OW  502   1.615   0.060   2.127  0.2387  0.1185 -0.6489
  168SOL    HW1  503   1.556   0.106   2.198 -1.5871  1.1279 -2.2462
  168SOL    HW2  504   1.574   0.066   2.035 -0.9526 -0.0539 -0.5946
  169SOL     OW  505   0.475   2.002   0.771  0.1791  0.6151  0.0381
  169SOL    HW1  506   0.490   1.978   0.869 -0.9635  0.2250  0.6367
  169SOL    HW2  507   0.442   2.099   0.768  2.4864 -1.4204 -0.3162
  170SOL     OW  508   0.533   0.257   1.526 -0.2810 -0.1957  0.1393
  170SOL    HW1  509   0.571   0.257   1.616 -3.0087  1.1583 -4.4048
  170SOL    HW2  510   0.493   0.163   1.501 -0.4831 -4.4717 -2.7711
  171SOL     OW  511   2.660   1.498   2.482  0.2601 -0.2382 -0.4011
  171SOL    HW1  512   2.606   1.485   2.396 -1.4310  2.2645 -1.7901
  171SOL    HW2  513   2.715   1.580   2.466 -0.2556  0.9561 -1.6469
  172SOL     OW  514   0.889   1.728   1.248  0.2741 -0.0854 -0.0386
  172SOL    HW1  515   0.853   1.654   1.187 -0.8346 -3.7569  0.7632
  172SOL    HW2  516   0.970   1.694   1.303 -2.2306 -1.0348  3.9999
  173SOL     OW  517   1.864   2.103   2.968 -0.6575  0.3368 -0.2084
  173SOL    HW1  518   1.773   2.090   2.929  3.2909 -0.3566  2.0451
  173SOL    HW2  519   1.862   2.165   3.050 -2.1461  1.2347 -2.0564
  174SOL     OW  520   1.832   0.616   0.067 -0.3126  0.0252  0.3357
  174SOL    HW1  521   1.903   0.671   0.020 -0.6571  0.7953 -1.6585
  174SOL    HW2  522   1.776   0.668   0.133 -1.8337 -1.8138 -0.6715
  175SOL     OW  523   0.349   1.703   1.716  0.1329  0.5076  0.3415
  175SOL    HW1  524   0.342   1.772   1.785  0.1611 -0.0822 -1.2516
  175SOL    HW2  525   0.269   1.637   1.731  0.0209  0.3700  2.6461
  176SOL     OW  526   0.765   0.345   0.383  0.0784  0.9371  0.1967
  176SOL    HW1  527   0.861   0.379   0.402 -0.0375 -0.7703  1.3442
  176SOL    HW2  528   0.707   0.357   0.466  0.2568 -0.2556  1.7986
  177SOL     OW  529   0.065   1.504   0.041  0.2237  0.1142  0.4106
  177SOL    HW1  530   0.011   1.418   0.033  2.3571 -0.5014  1.6661
  177SOL    HW2  531   0.121   1.499   0.126  0.6058 -1.6191  1.0858
  178SOL     OW  532   0.166   2.042   2.155  0.0601 -0.2386 -0.0858
  178SOL    HW1  533   0.217   1.954   2.153  2.7062  1.6232  1.5094
  178SOL    HW2  534   0.079   2.047   2.105 -0.2559 -1.6727 -1.9674
  179SOL     OW  535   2.344   3.054   2.810 -0.2052  0.4653 -0.0922
  179SOL    HW1  536   2.398   0.045   2.802 -2.9785 -3.6872  0.1088
  179SOL    HW2  537   2.286   3.053   2.891  2.0308 -2.2073 -1.5833
  180SOL     OW  538   2.506   0.151   0.904  0.0458 -0.2655  0.0851
  180SOL    HW1  539   2.423   0.148   0.846  0.5767 -1.0199  1.0098
  180SOL    HW2  540   2.579   0.197   0.846  3.0857  1.6190 -0.2222
  181SOL     OW  541   2.869   2.898   2.516 -0.6869 -0.2140 -0.1649
  181SOL    HW1  542   2.801   2.912   2.444  0.2760 -0.2696  0.4635
  181SOL    HW2  543   2.948   2.850   2.470 -0.5024 -2.6006  0.8249
  182SOL     OW  544   2.305   2.495   2.284 -0.2255 -0.0932  0.2301
  182SOL    HW1  545   2.348   2.490   2.378 -0.6205 -2.0055  2.6327
  182SOL    HW2  546   2.357   2.429   2.223  2.8029 -0.7767  2.2632
  183SOL     OW  547   2.587   1.369   1.487  0.3588  0.1791 -0.7861
  183SOL    HW1  548   2.576   1.307   1.569 -1.4300 -2.0837  1.5441
  183SOL    HW2  549   2.499   1.408   1.451 -1.9868 -2.7839  2.8564
  184SOL     OW  550   2.761   1.364   0.888  0.3516 -0.0873 -0.1535
  184SOL    HW1  551   2.809   1.439   0.938 -0.1270  0.9623  0.0326
  184SOL    HW2  552   2.770   1.377   0.784 -0.6120  0.2750 -0.3959
  185SOL     OW  553   0.044   0.176   0.853  0.2654  0.2338  0.3633
  185SOL    HW1  554   0.120   0.184   0.786 -1.2322  0.7547  1.0070
  185SOL    HW2  555   3.092   0.083   0.851 -3.4787 -0.6282 -1.9543
  186SOL     OW  556   2.039   2.499   2.238 -0.0308 -0.0550 -0.2901
  186SOL    HW1  557   2.006   2.586   2.283  3.0925  2.8966 -0.3205
  186SOL    HW2  558   2.138   2.487   2.252 -0.5914 -0.5097  0.4768
  187SOL     OW  559   0.306   1.619   0.622 -0.3736  0.5569  0.1380
  187SOL    HW1  560   0.299   1.626   0.518  2.0362  0.3460 -2.2113
  187SOL    HW2  561   0.397   1.580   0.652  0.3677 -1.0510  2.0960
  188SOL     OW  562   1.703   1.849   0.412 -0.0102  0.0537 -0.3524
  188SOL    HW1  563   1.751   1.766   0.441 -1.4417 -0.3810 -1.1772
  188SOL    HW2  564   1.604   1.828   0.391 -0.6266 -1.3675 -2.5982
  189SOL     OW  565   2.972   1.324   3.056  0.4086 -0.0885 -0.1158
  189SOL    HW1  566   3.021   1.255   3.002 -2.9910  1.7253  0.9884
  189SOL    HW2  567   2.880   1.347   3.015  0.8144 -1.7197  1.3542
  190SOL     OW  568   2.446   0.393   2.343  0.1776  0.4766  0.4513
  190SOL    HW1  569   2.384   0.470   2.327 -1.5705 -2.5448  0.1681
  190SOL    HW2  570   2.547   0.404   2.329  1.8318  0.7012 -1.2059
  191SOL     OW  571   0.864   0.933   2.121  0.3992  0.0555 -0.3763
  191SOL    HW1  572   0.848   0.863   2.045 -0.3555  0.2394  0.0216
  191SOL    HW2  573   0.833   1.028   2.099 -2.1578 -0.8388  1.1680
  192SOL     OW  574   1.539   1.431   2.225 -0.6333 -0.6730 -0.4524
  192SOL    HW1  575   1.502   1.496   2.157 -0.2890  0.9587 -0.2346
  192SOL    HW2  576   1.567   1.355   2.170 -0.4109  4.5312  1.7949
  193SOL     OW  577   1.363   2.716   1.162  0.7163  0.2392 -0.0411
  193SOL    HW1  578   1.420   2.793   1.133 -0.1587  0.4400 -1.6695
  193SOL    HW2  579   1.300   2.685   1.089 -1.9267  0.0360 -0.2757
  194SOL     OW  580   1.588   1.398   1.851 -0.2563 -0.1411  0.5751
  194SOL    HW1  581   1.655   1.397   1.773  0.1648 -2.3785 -0.5413
  194SOL    HW2  582   1.543   1.308   1.861  1.5736 -0.0460 -0.1833
  195SOL     OW  583   1.962   0.096   0.720  0.4653  0.2099  0.4575
  195SOL    HW1  584   2.022   0.159   0.663 -0.4662  3.2280  2.9351
  195SOL    HW2  585   2.004   0.087   0.811  0.4126 -0.4481 -0.1849
  196SOL     OW  586   1.133   1.385   2.407 -0.5343  0.8529 -0.0332
  196SOL    HW1  587   1.175   1.372   2.313  0.7583  1.1445 -0.8787
  196SOL    HW2  588   1.112   1.294   2.456  0.5470 -3.3179 -1.9399
  197SOL     OW  589   0.371   0.229   2.348 -0.1455  0.2527  0.1559
  197SOL    HW1  590   0.286   0.243   2.294 -0.7914 -0.8903 -2.1067
  197SOL    HW2  591   0.354   0.147   2.411  1.3439 -2.0437 -0.1015
  198SOL     OW  592   2.999   1.242   1.018  0.2550  0.0047  0.2058
  198SOL    HW1  593   2.909   1.243   0.965 -1.2538 -0.4325 -0.4153
  198SOL    HW2  594   3.083   1.260   0.962  0.9813  1.2028  1.5353
  199SOL     OW  595   0.369   2.257   0.776  0.4329  0.7758  0.7443
  199SOL    HW1  596   0.368   2.307   0.691  0.3626 -0.3507  1.9764
  199SOL    HW2  597   0.396   2.316   0.851  1.6316 -0.4300  2.4828
  200SOL     OW  598   2.606   1.895   2.821 -0.2438 -0.2339  0.4304
  200SOL    HW1  599   2.703   1.919   2.836  1.0452  1.0281  0.1514
  200SOL    HW2  600   2.587   1.820   2.888 -1.6793  0.0389 -1.4972
  201SOL     OW  601   0.919   1.961   1.356 -0.0552  0.2218 -0.3709
  201SOL    HW1  602   0.971   1.970   1.442 -0.5438  0.1632 -1.7061
  201SOL    HW2  603   0.903   1.869   1.320  1.0498  0.6898 -0.9571
  202SOL     OW  604   0.947   2.489   0.007  0.1409 -0.5694 -0.0505
  202SOL    HW1  605   0.973   2.505   0.104 -2.4033 -0.6522 -0.9267
  202SOL    HW2  606   1.031   2.499   3.034  1.6236  1.8201 -2.0455
  203SOL     OW  607   2.095   0.451   2.136 -0.5998  0.7155 -0.5286
  203SOL    HW1  608   2.171   0.389   2.106  1.2549 -1.9692  1.0246
  203SOL    HW2  609   2.025   0.398   2.188 -1.0726 -1.5680  1.9657
  204SOL     OW  610   0.259   1.339   1.613 -0.1723 -0.4035 -0.1464
  204SOL    HW1  611   0.194   1.284   1.565 -0.1132 -0.0993  0.2237
  204SOL    HW2  612   0.339   1.279   1.639  0.1441 -2.8501 -1.0011
  205SOL     OW  613   2.505   1.484   2.710  0.7082  0.6645  0.4063
  205SOL    HW1  614   2.570   1.496   2.632 -0.5497  0.9574 -2.1447
  205SOL    HW2  615   2.481   1.568   2.758 -1.0559  0.3277 -0.9892
  206SOL     OW  616   3.023   1.963   2.370  0.0769 -0.8483  0.2289
  206SOL    HW1  617   3.012   1.888   2.439 -1.9604 -1.1279  0.4923
  206SOL    HW2  618   3.069   1.937   2.280  1.3946 -3.1444 -4.2499
  207SOL     OW  619   0.702   3.018   1.509  0.0984 -0.2526  0.4067
  207SOL    HW1  620   0.719   2.938   1.445 -0.7860  1.8115 -1.3389
  207SOL    HW2  621   0.792   3.055   1.540 -0.5672 -3.0315 -0.2969
  208SOL     OW  622   0.502   2.487   1.414 -0.1912  0.0736 -0.4632
  208SOL    HW1  623   0.499   2.422   1.496  1.1835 -0.4952 -0.4216
  208SOL    HW2  624   0.597   2.500   1.378 -0.3651  0.0530 -0.2955
  209SOL     OW  625   0.930   2.618   2.501 -0.1746 -0.1368 -0.3429
  209SOL    HW1  626   0.916   2.549   2.574  1.0924 -2.5060  0.1284
  209SOL    HW2  627   0.945   2.714   2.541  1.3662  2.5862 -1.6727
  210SOL     OW  628   2.792   1.487   2.122 -0.0749 -0.4655  0.5023
  210SOL    HW1  629   2.830   1.438   2.200 -4.2843 -0.6897 -0.1907
  210SOL    HW2  630   2.803   1.589   2.138  1.3923 -1.1981 -0.7919
  211SOL     OW  631   1.236   3.034   1.968  0.0515 -0.1760  0.4644
  211SOL    HW1  632   1.277   2.972   2.037  1.4347  0.9672  0.0229
  211SOL    HW2  633   1.204   0.029   2.015 -0.3981 -0.5225  1.0224
  212SOL     OW  634   1.347   2.642   1.698 -0.5445 -0.2441  0.0055
  212SOL    HW1  635   1.372   2.597   1.788 -1.0404 -0.9174  1.5347
  212SOL    HW2  636   1.433   2.664   1.646 -0.6601 -2.4528 -0.4338
  213SOL     OW  637   2.375   0.811   1.676  0.0641  0.2039 -0.5536
  213SOL    HW1  638   2.312   0.870   1.621  0.7009  1.9718 -3.1955
  213SOL    HW2  639   2.457   0.795   1.615 -0.8256 -1.1390  1.6712
  214SOL     OW  640   0.988   2.093   1.591  0.2512 -0.2115  0.6315
  214SOL    HW1  641   0.897   2.135   1.559 -0.9849  2.5666 -1.5223
  214SOL    HW2  642   1.007   2.118   1.689  0.7769 -2.4366 -0.8536
  215SOL     OW  643   2.374   2.033   0.729  0.0615 -0.0314 -0.0374
  215SOL    HW1  644   2.410   2.070   0.818 -2.1883 -0.6546  2.8024
  215SOL    HW2  645   2.281   1.985   0.746 -0.7806 -0.8849  3.0309
  216SOL     OW  646   0.079   0.823   1.437 -0.3494 -0.3539  0.1509
  216SOL    HW1  647   0.069   0.727   1.485 -1.0931 -1.2714 -2.5541
  216SOL    HW2  648   3.080   0.856   1.404  2.8584  1.9038  0.8065
  217SOL     OW  649   2.210   0.181   1.393 -0.2646  0.1899 -0.7147
  217SOL    HW1  650   2.300   0.151   1.355 -0.7969 -0.6192 -0.3423
  217SOL    HW2  651   2.147   0.199   1.316  2.0104  0.6207  1.8571
  218SOL     OW  652   1.653   2.384   0.993 -0.2312  0.3638  0.0363
  218SOL    HW1  653   1.645   2.458   0.924 -0.3109 -2.1848  0.8981
  218SOL    HW2  654   1.609   2.410   1.080 -0.4759 -1.9362  0.0681
  219SOL     OW  655   1.261   2.307   0.087  0.6819 -0.8681 -0.4237
  219SOL    HW1  656   1.306   2.386   0.037 -1.1654  1.5459  2.6353
  219SOL    HW2  657   1.210   2.339   0.172 -0.5010 -0.5995  1.8607
  220SOL     OW  658   1.536   2.312   2.791 -0.4140 -0.2889 -0.3481
  220SOL    HW1  659   1.488   2.365   2.717 -0.5927  0.7250  0.2611
  220SOL    HW2  660   1.544   2.218   2.752  1.0984  0.9741 -0.1755
  221SOL     OW  661   0.226   2.524   1.444  0.0214  0.0190  0.3616
  221SOL    HW1  662   0.328   2.514   1.464  2.0405  1.7268 -2.2316
  221SOL    HW2  663   0.171   2.498   1.525 -0.3345  2.9773 -2.3781
  222SOL     OW  664   2.088   2.501   0.814  0.0235  0.0657  0.2046
  222SOL    HW1  665   2.018   2.576   0.820  0.9804  3.5408 -0.4802
  222SOL    HW2  666   2.182   2.543   0.815  0.0984  1.7076 -0.8138
  223SOL     OW  667   0.747   2.351   1.780 -0.4383 -0.3829 -0.4384
  223SOL    HW1  668   0.734   2.257   1.812  0.9111  1.3993 -0.0534
  223SOL    HW2  669   0.699   2.418   1.837  0.8369  0.9923 -2.1183
  224SOL     OW  670   2.912   2.486   1.205  0.0964 -0.1995 -0.6603
  224SOL    HW1  671   2.909   2.588   1.214 -0.4210 -1.9640  0.0090
  224SOL    HW2  672   2.886   2.440   1.295 -1.6841 -2.2790  0.5940
  225SOL     OW  673   2.251   2.165   0.514  0.3877 -0.1461  0.2036
  225SOL    HW1  674   2.300   2.115   0.592  1.9536 -2.4977  2.4305
  225SOL    HW2  675   2.173   2.112   0.481  0.1486  0.6206 -1.0488
  226SOL     OW  676   1.413   2.355   0.423  0.1137 -0.3453 -0.5195
  226SOL    HW1  677   1.334   2.378   0.359 -1.7674  1.9308 -0.9545
  226SOL    HW2  678   1.413   2.418   0.504 -2.1917 -0.6818 -0.2655
  227SOL     OW  679   2.117   1.081   1.005  0.3196 -0.6600 -0.3061
  227SOL    HW1  680   2.029   1.107   1.057 -4.5438  3.8447  1.7669
  227SOL    HW2  681   2.185   1.159   0.997 -0.6406  0.4693  1.0244
  228SOL     OW  682   1.477   0.443   2.323 -0.4826 -0.1510  0.3461
  228SOL    HW1  683   1.451   0.432   2.424 -0.3085  0.5423  2.0574
  228SOL    HW2  684   1.558   0.496   2.319 -0.5993 -1.7640 -1.0304
  229SOL     OW  685   0.018   1.179   2.877 -0.2073 -0.3584 -0.0003
  229SOL    HW1  686   0.072   1.090   2.896 -0.0112 -1.0791  0.8063
  229SOL    HW2  687   3.064   1.157   2.789 -0.8137  0.3509 -0.3601
  230SOL     OW  688   0.617   1.384   1.207 -0.4411 -0.0153 -0.1501
  230SOL    HW1  689   0.531   1.427   1.176 -0.9620  1.8540  1.4297
  230SOL    HW2  690   0.602   1.288   1.249 -0.6426 -1.1268 -1.3559
  231SOL     OW  691   2.462   2.891   2.593 -0.2677  0.0836  0.5824
  231SOL    HW1  692   2.419   2.966   2.641 -1.3100  1.2292 -1.7951
  231SOL    HW2  693   2.422   2.894   2.495 -0.2818 -1.9612  0.2206
  232SOL     OW  694   0.220   2.313   0.198 -0.1642  0.3100 -0.0994
  232SOL    HW1  695   0.277   2.392   0.165 -1.4623 -0.8470 -2.7083
  232SOL    HW2  696   0.267   2.230   0.167  0.4331 -1.4954  2.0960
  233SOL     OW  697   1.228   2.326   2.196 -0.0828 -0.1581  0.3244
  233SOL    HW1  698   1.174   2.391   2.138  0.5291 -1.8590  1.1007
  233SOL    HW2  699   1.243   2.370   2.287  2.8875  1.1701  1.4728
  234SOL     OW  700   1.317   1.374   1.649 -0.1107  0.1449  0.2303
  234SOL    HW1  701   1.388   1.430   1.603 -0.2168 -2.4263  0.3145
  234SOL    HW2  702   1.253   1.432   1.699 -1.3575 -0.2501 -0.4916
  235SOL     OW  703   0.938   1.869   1.886  0.5604 -0.1710 -0.3053
  235SOL    HW1  704   1.004   1.924   1.938 -0.5448 -0.6971 -1.3964
  235SOL    HW2  705   0.873   1.822   1.958 -0.4325 -0.3249  2.4414
  236SOL     OW  706   1.567   3.033   2.772  0.0810 -0.3784  0.0870
  236SOL    HW1  707   1.660   3.051   2.808 -0.4946 -0.8778 -1.7762
  236SOL    HW2  708   1.561   2.951   2.715 -0.4954  1.3981  0.5458
  237SOL     OW  709   1.270   0.352   1.559  0.5568 -0.2035 -0.1452
  237SOL    HW1  710   1.300   0.391   1.647  1.3198  0.7000 -0.3905
  237SOL    HW2  711   1.326   0.270   1.527  0.6948 -0.3647  0.7695
  238SOL     OW  712   1.427   0.440   0.079 -0.5199 -0.5142  0.4703
  238SOL    HW1  713   1.497   0.506   0.042 -1.0188  0.2776 -0.6138
  238SOL    HW2  714   1.333   0.477   0.066  1.4806 -0.6171  0.0757
  239SOL     OW  715   3.031   0.731   2.791 -0.2958 -0.1309  0.3681
  239SOL    HW1  716   3.024   0.829   2.784 -1.0696 -3.3926  2.8093
  239SOL    HW2  717   0.018   0.702   2.845 -1.6815 -2.7980 -1.4456
  240SOL     OW  718   2.480   2.451   0.744 -0.3943 -0.0227 -0.0827
  240SOL    HW1  719   2.502   2.370   0.802 -1.7070  0.9509  1.2340
  240SOL    HW2  720   2.463   2.428   0.648  0.3563  1.0565 -0.3285
  241SOL     OW  721   1.096   1.271   1.179 -0.3418 -0.1435  0.0495
  241SOL    HW1  722   1.108   1.311   1.275 -3.3443  2.4146  3.6680
  241SOL    HW2  723   1.005   1.225   1.164 -2.4810 -0.9348  0.2166
  242SOL     OW  724   0.665   0.568   0.790 -0.0687 -0.1621  0.7623
  242SOL    HW1  725   0.748   0.626   0.799 -0.2819  1.2351 -0.2989
  242SOL    HW2  726   0.665   0.490   0.857  0.9192 -0.4328 -2.0596
  243SOL     OW  727   0.410   0.579   1.041 -0.4012 -0.1541 -0.9886
  243SOL    HW1  728   0.394   0.676   1.018  0.1196  1.9010 -0.2358
  243SOL    HW2  729   0.510   0.562   1.066  3.4895 -2.3326 -1.1313
  244SOL     OW  730   0.899   0.149   0.274 -0.0231  0.2284  0.1649
  244SOL    HW1  731   0.841   0.222   0.315 -0.0655 -1.3107  2.1516
  244SOL    HW2  732   0.992   0.191   0.247 -0.4491  0.6054 -0.2341
  245SOL     OW  733   2.043   0.780   0.328 -0.5164 -0.0551 -0.1036
  245SOL    HW1  734   2.019   0.778   0.229 -1.1254  0.4010 -0.2647
  245SOL    HW2  735   2.097   0.863   0.345 -1.5090 -1.2776  0.8281
  246SOL     OW  736   0.336   0.768   1.870  0.9097 -0.3766 -0.5822
  246SOL    HW1  737   0.357   0.868   1.851 -1.8312  0.7445  0.0535
  246SOL    HW2  738   0.358   0.749   1.968  1.0677 -1.7567  1.6794
  247SOL     OW  739   0.710   2.981   1.934  0.0557  0.6353  0.2323
  247SOL    HW1  740   0.661   2.922   1.867  1.5165  0.7251 -2.3614
  247SOL    HW2  741   0.793   2.930   1.973  2.3813 -1.9685 -2.4677
  248SOL     OW  742   0.663   1.617   2.292 -0.5197  0.0939 -0.3580
  248SOL    HW1  743   0.684   1.688   2.365  0.8348 -1.1175 -0.5202
  248SOL    HW2  744   0.748   1.560   2.274  0.9180  0.7978 -0.1028
  249SOL     OW  745   0.498   3.018   3.069 -0.3623 -0.2015  0.2058
  249SOL    HW1  746   0.427   3.043   3.000  3.0757 -1.1742  1.3056
  249SOL    HW2  747   0.478   2.931   0.024 -0.0821  2.8233  0.8409
  250SOL     OW  748   0.503   0.457   2.420  0.4608 -0.2741  0.7798
  250SOL    HW1  749   0.597   0.469   2.450  0.0123 -0.6286  0.9081
  250SOL    HW2  750   0.473   0.359   2.406 -2.3722 -0.6187  0.0167
  251SOL     OW  751   3.042   1.482   1.185 -0.3275 -0.4661  0.0741
  251SOL    HW1  752   2.985   1.541   1.126 -1.5463  1.1300 -1.3938
  251SOL    HW2  753   2.999   1.388   1.205 -1.4920 -0.8524 -0.5352
  252SOL     OW  754   1.923   3.028   1.928 -0.0008 -0.3427  0.2775
  252SOL    HW1  755   1.888   3.053   2.020  1.3976 -1.4194  0.8020
  252SOL    HW2  756   1.877   2.942   1.898  0.0408  1.1234 -0.1744
  253SOL     OW  757   2.182   1.578   2.464  0.0485  0.7071 -0.2495
  253SOL    HW1  758   2.083   1.562   2.488  1.5560  1.0979 -0.9401
  253SOL    HW2  759   2.225   1.623   2.541 -4.3919 -3.1212 -3.0902
  254SOL     OW  760   0.678   1.539   1.857  0.0011  0.3930  0.1839
  254SOL    HW1  761   0.664   1.613   1.784  0.9519 -0.6067  1.0295
  254SOL    HW2  762   0.587   1.498   1.890 -1.0892 -0.5135  1.9405
  255SOL     OW  763   0.818   0.102   1.822  0.0677  0.9369 -0.1969
  255SOL    HW1  764   0.883   0.065   1.758 -2.8785 -0.5831  2.4700
  255SOL    HW2  765   0.764   0.017   1.867  1.1384 -0.5138 -0.5792
  256SOL     OW  766   0.183   2.515   0.823  0.0615 -0.6122 -0.1825
  256SOL    HW1  767   0.179   2.418   0.848 -3.3782 -0.2674 -1.5739
  256SOL    HW2  768   0.236   2.566   0.891 -1.2265 -5.7028 -2.1807
  257SOL     OW  769   0.315   2.579   2.252  0.1297 -0.3616  0.0695
  257SOL    HW1  770   0.280   2.488   2.247 -0.2289  1.0591  0.6322
  257SOL    HW2  771   0.393   2.589   2.316 -0.7418 -0.0598 -1.6131
  258SOL     OW  772   1.435   1.576   1.973 -0.1572  0.1879  0.2257
  258SOL    HW1  773   1.509   1.520   1.922  1.4431 -0.3796 -0.5496
  258SOL    HW2  774   1.388   1.634   1.903 -0.5767  1.0495 -1.0212
  259SOL     OW  775   1.234   1.461   2.125 -0.4347 -0.2132 -0.6227
  259SOL    HW1  776   1.166   1.533   2.150  0.8824 -2.2600 -1.1497
  259SOL    HW2  777   1.296   1.499   2.055 -3.7755  1.2824  0.4015
  260SOL     OW  778   2.272   0.590   2.283  1.1175 -0.4123 -0.5274
  260SOL    HW1  779   2.199   0.547   2.225 -1.3199 -0.4763 -1.5175
  260SOL    HW2  780   2.330   0.651   2.229 -1.3370  1.1274 -0.6997
  261SOL     OW  781   0.805   1.130   0.840 -0.1592 -0.4868  0.1077
  261SOL    HW1  782   0.719   1.182   0.827  0.4316 -1.5615  0.3815
  261SOL    HW2  783   0.864   1.119   0.761 -0.9524 -1.3434  0.6121
  262SOL     OW  784   2.312   2.042   2.659  0.0974 -0.5112 -0.1652
  262SOL    HW1  785   2.378   2.035   2.737 -2.0874  0.4670  0.9473
  262SOL    HW2  786   2.221   2.070   2.699  1.4893 -2.4561  2.3948
  263SOL     OW  787   0.874   2.213   1.223 -0.3796 -0.3977 -0.2586
  263SOL    HW1  788   0.902   2.147   1.295 -0.4501  0.1487  0.3110
  263SOL    HW2  789   0.826   2.161   1.149 -0.8212 -0.8625 -0.3689
  264SOL     OW  790   0.012   2.258   0.334 -0.2484  0.2745 -0.1034
  264SOL    HW1  791   0.023   2.242   0.435  2.2648 -1.6090  2.3141
  264SOL    HW2  792   0.099   2.268   0.286 -1.8969  1.7837  0.7655
  265SOL     OW  793   1.337   1.175   2.973  0.7969  0.3227 -0.4117
  265SOL    HW1  794   1.378   1.081   2.973 -1.3923 -2.7274  0.9454
  265SOL    HW2  795   1.287   1.189   2.888  0.4094  0.8474  4.1815
  266SOL     OW  796   0.864   1.990   2.191  0.6993  0.0906  0.2733
  266SOL    HW1  797   0.915   2.041   2.116 -1.3485  0.8481 -1.5735
  266SOL    HW2  798   0.769   1.961   2.158 -3.0858  0.7547 -1.2648
  267SOL     OW  799   2.502   1.079   2.568  0.5606  0.0394  0.2763
  267SOL    HW1  800   2.566   1.120   2.633 -1.4998 -1.5314 -1.5925
  267SOL    HW2  801   2.412   1.108   2.600 -0.3240  1.9967  2.4110
  268SOL     OW  802   0.937   1.388   0.252  0.2111  0.1696 -0.2771
  268SOL    HW1  803   1.003   1.343   0.192  0.0589 -1.2492 -0.5618
  268SOL    HW2  804   0.960   1.372   0.351 -0.7916 -0.5757  3.0798
  269SOL     OW  805   2.780   1.740   2.436  0.3967  0.1421 -0.6369
  269SOL    HW1  806   2.707   1.809   2.428 -4.0004  1.0392 -1.2834
  269SOL    HW2  807   2.847   1.762   2.504 -1.3819 -1.0681 -1.6104
  270SOL     OW  808   0.538   2.266   3.066 -0.3483 -0.1946  0.0431
  270SOL    HW1  809   0.610   2.336   3.041 -0.3425 -1.3780  0.5365
  270SOL    HW2  810   0.448   2.284   3.021 -0.9943  1.8084 -0.2799
  271SOL     OW  811   0.241   0.427   0.151 -0.4590 -0.1763  0.1598
  271SOL    HW1  812   0.295   0.380   0.223  1.8736 -0.9981 -1.1156
  271SOL    HW2  813   0.140   0.427   0.166 -0.3560 -1.6377 -1.6974
  272SOL     OW  814   2.933   0.107   0.294 -0.1170 -0.1205 -0.2583
  272SOL    HW1  815   3.033   0.132   0.300 -0.4262  0.7829 -1.8662
  272SOL    HW2  816   2.877   0.185   0.325  1.1484 -3.0429 -1.6925
  273SOL     OW  817   0.358   0.038   1.791  0.0232 -0.3033  0.3807
  273SOL    HW1  818   0.366   0.022   1.891  0.8527  1.1121  0.6040
  273SOL    HW2  819   0.311   0.126   1.779  0.4142 -1.1302  1.2276
  274SOL     OW  820   0.074   0.569   1.501  0.1947 -0.6840  0.0936
  274SOL    HW1  821   0.012   0.497   1.538  1.5633  2.8260  1.0570
  274SOL    HW2  822   0.171   0.543   1.506  1.5211 -0.9357 -0.9979
  275SOL     OW  823   0.836   1.510   1.103 -0.0419 -0.5522 -0.1197
  275SOL    HW1  824   0.844   1.464   1.017 -1.3521 -0.4140  1.8074
  275SOL    HW2  825   0.769   1.459   1.157  1.9773  0.7348  0.4737
  276SOL     OW  826   0.465   1.204   1.735  0.4384  0.1387  0.0658
  276SOL    HW1  827   0.448   1.218   1.832  0.8881 -3.3438 -0.6426
  276SOL    HW2  828   0.464   1.106   1.706 -1.1547  4.4566 -0.4150
  277SOL     OW  829   1.209   1.977   1.923  0.7503  0.0044  0.4421
  277SOL    HW1  830   1.244   2.026   2.005 -0.3737  0.8211 -1.8871
  277SOL    HW2  831   1.151   2.039   1.863 -0.1949  0.7280 -3.3141
  278SOL     OW  832   2.384   2.709   2.130 -0.0520 -0.1999  0.0872
  278SOL    HW1  833   2.316   2.790   2.122 -1.4039 -0.3060  0.4647
  278SOL    HW2  834   2.339   2.634   2.186  0.1450 -0.9196  2.6751
  279SOL     OW  835   1.097   1.970   3.084 -0.1504  0.0563 -0.2381
  279SOL    HW1  836   1.187   1.991   0.032  1.1398  0.5258 -0.7196
  279SOL    HW2  837   1.034   2.052   3.076 -0.0799 -0.6506  0.3400
  280SOL     OW  838   1.259   0.509   0.420  0.4711 -0.2686 -0.1751
  280SOL    HW1  839   1.324   0.464   0.479 -1.5455  2.2258  1.0107
  280SOL    HW2  840   1.302   0.596   0.389 -0.3824  3.2123  1.9024
  281SOL     OW  841   0.687   0.461   1.407  0.1639 -0.2460  0.8224
  281SOL    HW1  842   0.628   0.543   1.400  2.6309  1.6405  1.6256
  281SOL    HW2  843   0.640   0.379   1.445 -0.3080 -1.2558 -2.5377
  282SOL     OW  844   0.052   2.659   0.604 -0.5770  0.2310  0.0971
  282SOL    HW1  845   0.072   2.608   0.694 -0.2126 -0.3665  0.1246
  282SOL    HW2  846   0.104   2.615   0.528 -2.0423  1.8127 -0.1550
  283SOL     OW  847   1.348   1.777   1.804  0.0347 -0.2341 -0.2740
  283SOL    HW1  848   1.363   1.806   1.708 -0.9864 -1.9359  1.4934
  283SOL    HW2  849   1.309   1.851   1.862  1.4836 -1.6701  1.5014
  284SOL     OW  850   2.816   2.819   1.497 -0.0638  0.1100 -0.1246
  284SOL    HW1  851   2.843   2.913   1.521 -0.6375  0.9165  0.4759
  284SOL    HW2  852   2.868   2.787   1.419  0.6166  0.2673  1.9839
  285SOL     OW  853   0.205   2.547   0.400  0.3986  0.3727  0.2718
  285SOL    HW1  854   0.160   2.510   0.316 -1.1463  0.1702  2.3241
  285SOL    HW2  855   0.270   2.480   0.440 -0.2088 -2.6097 -2.1040
  286SOL     OW  856   0.506   2.873   1.097 -0.1687 -0.1824 -0.7849
  286SOL    HW1  857   0.565   2.962   1.110  4.8278  3.5729 -0.8510
  286SOL    HW2  858   0.417   2.888   1.143 -0.0532  0.7568 -0.1982
  287SOL     OW  859   0.608   1.278   0.708  0.2548 -0.2170 -0.2393
  287SOL    HW1  860   0.574   1.222   0.628 -0.8857  1.2029  2.8256
  287SOL    HW2  861   0.577   1.375   0.708 -3.6679 -0.6478  3.2724
  288SOL     OW  862   1.368   2.214   2.449 -0.0415 -0.2201 -0.2356
  288SOL    HW1  863   1.305   2.147   2.401  0.5067 -1.4706 -0.6231
  288SOL    HW2  864   1.465   2.194   2.419 -0.0606 -2.3865 -2.1608
  289SOL     OW  865   2.434   1.618   0.062 -0.2059 -0.2356  0.1287
  289SOL    HW1  866   2.353   1.655   0.113  0.3229 -0.0612 -1.0905
  289SOL    HW2  867   2.430   1.512   0.069  0.7423 -2.7994  0.2943
  290SOL     OW  868   1.212   1.378   0.974  0.0327 -0.3118 -0.6769
  290SOL    HW1  869   1.279   1.436   1.021 -0.1154  0.0765 -0.4803
  290SOL    HW2  870   1.163   1.319   1.043  0.1007  0.9340  2.7067
  291SOL     OW  871   1.433   0.939   2.920  0.3072 -0.0700  0.1667
  291SOL    HW1  872   1.362   0.868   2.908  0.8910  0.0780 -1.4294
  291SOL    HW2  873   1.513   0.917   2.870 -2.0334  2.5510  4.5321
  292SOL     OW  874   1.438   1.579   0.253 -0.1663  0.5629 -0.4039
  292SOL    HW1  875   1.427   1.662   0.309  0.7636 -0.1039 -1.1526
  292SOL    HW2  876   1.464   1.609   0.161 -3.6785 -0.5601  3.0896
  293SOL     OW  877   1.596   3.081   1.333  0.0020 -0.0151  0.0593
  293SOL    HW1  878   1.656   3.004   1.364  0.9163 -2.2624 -1.1088
  293SOL    HW2  879   1.535   0.028   1.406 -1.0091 -1.3068 -1.0033
  294SOL     OW  880   2.144   1.022   2.735 -0.3126  0.1307  0.2361
  294SOL    HW1  881   2.062   1.043   2.789  0.1344 -0.6697  1.2862
  294SOL    HW2  882   2.184   1.106   2.691  1.7934 -0.0768  0.8025
  295SOL     OW  883   1.583   1.992   2.952 -0.3278 -0.5199 -0.4622
  295SOL    HW1  884   1.583   1.965   3.052 -2.2728  0.1327 -0.2801
  295SOL    HW2  885   1.614   1.915   2.891  1.1172  0.1523  1.0947
  296SOL     OW  886   1.393   1.246   1.302 -0.1816  0.4190 -0.6220
  296SOL    HW1  887   1.339   1.161   1.325  1.6448 -1.8348 -3.8114
  296SOL    HW2  888   1.482   1.237   1.355  1.2896 -0.3520 -0.9798
  297SOL     OW  889   0.312   0.786   2.172  0.4738 -0.0636 -0.1853
  297SOL    HW1  890   0.355   0.693   2.155  2.6072 -2.7584  1.4058
  297SOL    HW2  891   0.238   0.778   2.242  0.1798  1.9467 -1.6317
  298SOL     OW  892   1.521   1.886   1.336 -0.6226  0.5309  0.0781
  298SOL    HW1  893   1.436   1.875   1.392 -0.5750 -0.1836 -1.2986
  298SOL    HW2  894   1.579   1.957   1.369 -2.5093 -0.6347 -0.4913
  299SOL     OW  895   1.230   3.047   2.637  0.3330 -0.8207  0.2366
  299SOL    HW1  896   1.258   2.964   2.584  2.7762  2.1788 -0.9192
  299SOL    HW2  897   1.156   3.030   2.707  0.2267  0.0825  0.8632
  300SOL     OW  898   2.689   2.060   0.451 -0.3310 -0.1260 -0.1522
  300SOL    HW1  899   2.774   2.073   0.508  1.5506  0.2725  1.0910
  300SOL    HW2  900   2.646   2.155   0.440 -0.8426  1.2899  2.6817
  301SOL     OW  901   2.344   0.261   2.546 -0.3049 -0.6387 -0.8199
  301SOL    HW1  902   2.382   0.331   2.479  2.0247  1.9555 -0.7744
  301SOL    HW2  903   2.412   0.193   2.576 -0.1300 -0.6697 -0.5356
  302SOL     OW  904   2.294   2.233   2.981 -0.1726 -0.2716 -0.1615
  302SOL    HW1  905   2.342   2.154   3.024 -1.3956 -0.1234 -0.0022
  302SOL    HW2  906   2.346   2.322   2.982  1.3994  0.9301  1.0476
  303SOL     OW  907   2.956   2.439   2.559 -0.8325  0.9802 -0.1885
  303SOL    HW1  908   3.052   2.467   2.568 -0.6337 -1.8588 -3.0892
  303SOL    HW2  909   2.947   2.348   2.608 -0.4063  0.2579 -0.3359
  304SOL     OW  910   0.107   1.573   0.968  0.4686 -0.2489  0.0999
  304SOL    HW1  911   0.078   1.545   1.060  0.0588  0.3927 -2.8435
  304SOL    HW2  912   0.185   1.646   0.985  2.5506  1.3653  1.1153
  305SOL     OW  913   3.069   0.515   1.899  0.0075  0.0539  0.5412
  305SOL    HW1  914   0.022   0.429   1.876  1.8408 -2.2325 -1.9877
  305SOL    HW2  915   2.980   0.508   1.851 -0.5271  0.0562 -0.0889
  306SOL     OW  916   1.293   1.311   0.500 -0.1108  0.4468  0.6060
  306SOL    HW1  917   1.278   1.404   0.536  3.4331  1.9339  1.3869
  306SOL    HW2  918   1.343   1.309   0.409  1.0218  0.0063 -1.6354
  307SOL     OW  919   0.253   0.079   0.652  0.6309 -0.2874  1.0372
  307SOL    HW1  920   0.337   0.062   0.595 -1.4932  0.2129  0.0931
  307SOL    HW2  921   0.202   3.084   0.654 -1.6182  2.1390  0.2540
  308SOL     OW  922   0.033   1.189   2.264  0.5276  0.0795  0.1742
  308SOL    HW1  923   0.106   1.200   2.334 -0.6889  2.6105  2.1060
  308SOL    HW2  924   0.041   1.108   2.203  0.8005 -1.3314  1.4083
  309SOL     OW  925   2.964   1.807   2.626 -0.0641 -0.1553  0.7648
  309SOL    HW1  926   3.015   1.722   2.618 -0.9789 -1.4190  2.1804
  309SOL    HW2  927   2.969   1.839   2.722 -0.0778  1.5647 -1.2663
  310SOL     OW  928   2.321   0.527   0.163 -0.4949  0.1297 -0.0926
  310SOL    HW1  929   2.407   0.580   0.189  1.1183 -0.6584 -3.2534
  310SOL    HW2  930   2.299   0.527   0.065 -1.1734 -1.8704 -0.9393
  311SOL     OW  931   2.061   0.767   0.005  0.1073  0.5571 -0.0224
  311SOL    HW1  932   2.096   0.853   3.060  0.9466 -1.2398 -0.7262
  311SOL    HW2  933   2.122   0.689   3.067  0.5984 -0.4437 -2.9326
  312SOL     OW  934   1.288   1.922   2.718  0.2770 -0.0710  0.4307
  312SOL    HW1  935   1.223   1.972   2.776 -1.0833 -0.7872 -1.1144
  312SOL    HW2  936   1.253   1.831   2.691  1.3273 -0.4827  2.0440
  313SOL     OW  937   0.256   0.554   0.619  0.1107 -0.8797  0.1380
  313SOL    HW1  938   0.267   0.474   0.561  1.8641  2.8813  0.8434
  313SOL    HW2  939   0.224   0.522   0.712  0.4893 -0.2471 -0.3703
  314SOL     OW  940   0.550   1.655   1.285 -0.1265  0.1315  0.3515
  314SOL    HW1  941   0.541   1.578   1.349 -1.0952 -0.5131 -2.4822
  314SOL    HW2  942   0.592   1.731   1.342 -0.2122  2.1724  0.2056
  315SOL     OW  943   0.791   1.698   2.047 -0.0267 -0.5162  0.0450
  315SOL    HW1  944   0.771   1.640   1.965 -2.2191  0.5783 -2.5162
  315SOL    HW2  945   0.717   1.688   2.120 -0.0082  2.3856  0.9186
  316SOL     OW  946   0.431   2.633   0.691 -0.3277 -0.2812 -0.3197
  316SOL    HW1  947   0.345   2.586   0.726  0.2657  0.0212 -0.4495
  316SOL    HW2  948   0.417   2.733   0.674 -2.9420 -1.3271  1.1750
  317SOL     OW  949   2.469   0.107   1.307  0.0308 -0.4526  0.0633
  317SOL    HW1  950   2.545   0.055   1.262  1.1711 -1.0955  2.0112
  317SOL    HW2  951   2.458   0.193   1.248  2.1249  1.5314 -1.9486
  318SOL     OW  952   1.646   2.939   0.520 -0.3899 -0.0954 -0.7737
  318SOL    HW1  953   1.571   2.984   0.573  0.0411 -0.7685  0.9190
  318SOL    HW2  954   1.721   3.009   0.515  1.0056  4.3131 -0.2449
  319SOL     OW  955   1.777   0.613   2.780 -0.5686  0.3115 -0.0713
  319SOL    HW1  956   1.771   0.545   2.703  2.7585  2.0790  0.3998
  319SOL    HW2  957   1.875   0.642   2.799  2.0695 -2.6928 -2.0384
  320SOL     OW  958   2.895   2.096   1.672  0.7655 -0.3177 -0.4626
  320SOL    HW1  959   2.833   2.114   1.750 -0.1946  0.1922 -1.0450
  320SOL    HW2  960   2.885   1.998   1.643  4.8850 -0.2936  0.2557
  321SOL     OW  961   0.119   2.455   2.987 -0.5330  0.1361 -0.5286
  321SOL    HW1  962   0.151   2.541   3.033 -0.1141 -1.4132  0.1241
  321SOL    HW2  963   0.021   2.454   2.959  1.8264  0.0349  3.1026
  322SOL     OW  964   2.621   0.676   2.418 -0.0055 -0.4609 -0.5895
  322SOL    HW1  965   2.614   0.748   2.352  1.4113  0.3710  0.7732
  322SOL    HW2  966   2.677   0.600   2.379  1.8139  2.4846 -1.3898
  323SOL     OW  967   2.177   1.209   0.612  0.0863 -0.1844 -0.6526
  323SOL    HW1  968   2.267   1.211   0.665  2.5658  1.2398 -1.0514
  323SOL    HW2  969   2.150   1.115   0.593  0.8891 -0.0766 -0.5447
  324SOL     OW  970   0.274   0.404   1.222  0.2907 -0.1975 -0.3081
  324SOL    HW1  971   0.324   0.463   1.160 -1.6188  0.9937  1.8459
  324SOL    HW2  972   0.271   0.444   1.317  0.9749 -1.2424  1.0665
  325SOL     OW  973   2.692   0.168   1.716  0.2627  0.2163  0.2613
  325SOL    HW1  974   2.703   0.172   1.814 -0.1518  1.3939  0.4294
  325SOL    HW2  975   2.606   0.221   1.686 -2.4588  2.5996  2.1214
  326SOL     OW  976   1.444   2.724   0.151  0.3830 -0.3905  0.2767
  326SOL    HW1  977   1.471   2.632   0.180  2.6453  1.2569  0.1527
  326SOL    HW2  978   1.529   2.768   0.109  2.9765 -1.4068 -1.1583
  327SOL     OW  979   1.774   2.070   0.261  0.0858  0.4871 -0.3028
  327SOL    HW1  980   1.732   2.131   0.335 -2.9781  2.1657  0.7791
  327SOL    HW2  981   1.772   1.975   0.285  1.6272  4.3191 -2.5543
  328SOL     OW  982   3.033   2.065   1.983  0.2576 -0.3568  0.0127
  328SOL    HW1  983   2.937   2.050   1.957 -0.5360 -0.9030 -1.9633
  328SOL    HW2  984   0.002   2.035   1.909 -0.5467 -0.8523  0.7888
  329SOL     OW  985   0.013   2.308   1.127  0.0826  0.7171 -0.5128
  329SOL    HW1  986   3.041   2.384   1.149  0.6250  0.6519  3.0470
  329SOL    HW2  987   3.067   2.212   1.137  1.1327 -0.4004 -0.2595
  330SOL     OW  988   2.456   0.797   2.608 -0.2218  0.3264 -0.0490
  330SOL    HW1  989   2.509   0.744   2.537  0.5657 -0.1603  3.3308
  330SOL    HW2  990   2.479   0.896   2.602 -1.5234 -2.2480  2.4720
  331SOL     OW  991   2.305   1.676   0.848 -0.0484  0.1122  0.2317
  331SOL    HW1  992   2.266   1.764   0.819  1.2169 -2.0099 -1.1453
  331SOL    HW2  993   2.348   1.635   0.767 -2.5903  1.0223 -1.2472
  332SOL     OW  994   0.235   3.001   0.896 -0.3222  0.1001  0.0340
  332SOL    HW1  995   0.308   3.071   0.875 -0.7566 -0.9266  0.5967
  332SOL    HW2  996   0.252   2.961   0.986 -0.7549  0.2866 -0.3541
  333SOL     OW  997   2.917   1.732   2.188 -0.0090  0.4007  0.3095
  333SOL    HW1  998   3.007   1.685   2.198 -2.4810  0.3440 -1.3770
  333SOL    HW2  999   2.885   1.755   2.281  2.9891 -0.2140  1.8391
  334SOL     OW 1000   0.734   0.882   0.925  0.1661  0.3198  0.3487
  334SOL    HW1 1001   0.754   0.833   1.013  0.7564  0.4898  1.1413
  334SOL    HW2 1002   0.806   0.961   0.921  1.4069 -0.0359 -0.8200
  335SOL     OW 1003   0.053   1.588   2.228  0.1218 -0.0786  0.4584
  335SOL    HW1 1004   0.094   1.577   2.323 -0.8426  0.5316 -0.6250
  335SOL    HW2 1005   0.069   1.506   2.166 -0.2266 -1.8679  0.1869
  336SOL     OW 1006   2.158   2.905   2.250 -0.0102  0.4733  0.3452
  336SOL    HW1 1007   2.072   2.854   2.260  1.8268  1.2017  0.7710
  336SOL    HW2 1008   2.174   2.936   2.153 -0.0301 -0.9116  0.2520
  337SOL     OW 1009   0.898   0.702   0.833 -0.3596  0.2191  0.0653
  337SOL    HW1 1010   0.831   0.773   0.859 -2.0580  0.3518 -3.2668
  337SOL    HW2 1011   0.933   0.643   0.914 -1.9729 -1.5408  0.8124
  338SOL     OW 1012   1.466   1.878   1.042  0.1655 -0.9480 -0.3776
  338SOL    HW1 1013   1.456   1.895   1.140 -0.0973 -1.1662 -0.5254
  338SOL    HW2 1014   1.416   1.954   0.998  0.9295 -0.2731  1.4716
  339SOL     OW 1015   0.296   1.701   1.149  0.8897 -0.3261 -0.0735
  339SOL    HW1 1016   0.372   1.699   1.218  1.7007  0.4273  0.9709
  339SOL    HW2 1017   0.247   1.791   1.156 -1.6779  0.5985 -0.1368
  340SOL     OW 1018   0.839   2.672   1.885  0.1161 -0.6265  0.3751
  340SOL    HW1 1019   0.918   2.624   1.836  2.4068 -0.1172 -2.3056
  340SOL    HW2 1020   0.775   2.723   1.819 -0.9989  1.0549 -0.2763
  341SOL     OW 1021   1.935   1.462   0.769  0.0024 -0.0032 -0.1011
  341SOL    HW1 1022   1.844   1.413   0.767 -0.9616  0.5267 -2.1446
  341SOL    HW2 1023   1.986   1.453   0.684 -2.2254  0.7530 -0.2372
  342SOL     OW 1024   2.182   1.026   0.333 -0.2251 -0.3650 -0.6929
  342SOL    HW1 1025   2.278   1.013   0.295 -0.9089 -0.5325 -1.4321
  342SOL    HW2 1026   2.128   1.087   0.269 -0.5507 -0.7125 -0.2739
  343SOL     OW 1027   2.078   0.054   0.951  0.0247  0.7907  0.0825
  343SOL    HW1 1028   2.070   0.110   1.035 -0.4101 -1.0347 -0.0544
  343SOL    HW2 1029   2.098   3.044   0.973  0.3958 -3.1373  1.4544
  344SOL     OW 1030   2.729   0.476   0.127 -0.2194 -0.1539  0.1088
  344SOL    HW1 1031   2.783   0.455   0.039  1.6221 -0.2985 -0.2658
  344SOL    HW2 1032   2.652   0.404   0.138 -2.1455 -1.5592  1.0188
  345SOL     OW 1033   1.006   2.443   1.763 -0.2280  0.6423 -0.4038
  345SOL    HW1 1034   1.052   2.451   1.670  2.6864  0.3304 -0.0783
  345SOL    HW2 1035   0.915   2.398   1.760 -0.4001  2.0737  0.3859
  346SOL     OW 1036   2.464   2.225   0.919 -0.0238  0.3103 -0.4253
  346SOL    HW1 1037   2.361   2.237   0.934 -1.6394 -0.4852  0.6007
  346SOL    HW2 1038   2.505   2.222   1.011 -2.2130  0.0686 -2.8053
  347SOL     OW 1039   2.091   3.002   1.500 -0.2472  0.4072 -0.5951
  347SOL    HW1 1040   2.139   3.074   1.542  0.9545 -3.6472 -1.8774
  347SOL    HW2 1041   2.030   3.033   1.426  1.2964  2.5567  0.0002
  348SOL     OW 1042   0.923   1.035   1.453  0.4420  0.0794 -0.1114
  348SOL    HW1 1043   0.885   1.107   1.515 -1.3497  0.0832  2.7652
  348SOL    HW2 1044   0.861   1.017   1.376 -0.2985  0.5800  2.1715
  349SOL     OW 1045   2.478   0.395   2.962  0.2205 -0.1073  0.0351
  349SOL    HW1 1046   2.515   0.488   2.956 -1.4697  1.6474 -2.0021
  349SOL    HW2 1047   2.500   0.356   3.056 -0.8841 -0.0714  2.3489
  350SOL     OW 1048   2.091   2.144   2.793  0.6070 -0.0628  0.5888
  350SOL    HW1 1049   2.004   2.109   2.833  0.9404  0.7693 -2.4696
  350SOL    HW2 1050   2.159   2.179   2.865  0.3260 -0.5843  3.2113
  351SOL     OW 1051   0.983   0.481   0.451  0.3088 -0.4823  0.3171
  351SOL    HW1 1052   0.944   0.572   0.477 -0.5512 -3.1921  0.3354
  351SOL    HW2 1053   1.086   0.497   0.442 -2.2841  1.7540  0.7468
  352SOL     OW 1054   1.516   2.067   2.697  0.8740  0.1628  0.3109
  352SOL    HW1 1055   1.561   2.033   2.782  0.9170 -2.0661 -0.1854
  352SOL    HW2 1056   1.422   2.026   2.694 -0.3420  1.2797 -2.0968
  353SOL     OW 1057   0.675   0.965   2.982  0.0873 -0.5315  0.2906
  353SOL    HW1 1058   0.651   1.000   2.884  1.3853 -2.1719 -3.6369
  353SOL    HW2 1059   0.725   1.030   3.038 -0.2748 -0.0980 -0.7320
  354SOL     OW 1060   0.565   2.497   2.677  0.1479  0.0877  0.2205
  354SOL    HW1 1061   0.516   2.405   2.682  1.8479  0.7273 -0.9895
  354SOL    HW2 1062   0.552   2.545   2.766 -1.2197  2.4933  0.1486
  355SOL     OW 1063   2.913   2.758   1.830  0.1439 -0.1279  0.5625
  355SOL    HW1 1064   2.822   2.798   1.862  0.3608  0.7077  2.8230
  355SOL    HW2 1065   2.965   2.832   1.789  0.8292 -0.7738 -0.0056
  356SOL     OW 1066   2.695   1.334   1.261  0.1578 -0.2897 -0.2824
  356SOL    HW1 1067   2.644   1.354   1.348 -1.1135 -0.0078  3.0602
  356SOL    HW2 1068   2.631   1.343   1.178 -1.1357  1.1083  0.0680
  357SOL     OW 1069   2.715   0.466   1.384  0.2641  0.0246  0.1437
  357SOL    HW1 1070   2.713   0.492   1.483  1.1059  0.0366 -1.4751
  357SOL    HW2 1071   2.756   0.375   1.371 -1.3218  1.0133  0.7319
  358SOL     OW 1072   0.667   1.877   1.427  0.1722 -0.2858  0.0636
  358SOL    HW1 1073   0.743   1.930   1.387  0.2171 -1.0678  1.4254
  358SOL    HW2 1074   0.583   1.937   1.430  0.4147  0.2779  0.0017
  359SOL     OW 1075   2.733   2.583   2.585  0.2637 -0.0222 -0.1096
  359SOL    HW1 1076   2.665   2.625   2.524 -1.3895 -0.2530  1.0236
  359SOL    HW2 1077   2.812   2.539   2.541  0.6407  2.5513  3.0584
  360SOL     OW 1078   1.205   0.889   1.631 -0.7404  0.3325  0.0608
  360SOL    HW1 1079   1.106   0.860   1.647 -1.5953 -1.3384 -2.7037
  360SOL    HW2 1080   1.262   0.815   1.667 -3.0150  0.0666  0.5557
  361SOL     OW 1081   2.281   0.138   0.697  0.0685  0.1677 -0.3128
  361SOL    HW1 1082   2.283   0.242   0.694 -1.0961  0.5901  0.1510
  361SOL    HW2 1083   2.288   0.104   0.603 -2.2963 -2.6320 -0.4125
  362SOL     OW 1084   0.754   0.055   0.607 -0.6721 -0.4237 -0.1232
  362SOL    HW1 1085   0.781   3.070   0.550 -2.5448 -0.2360  2.5052
  362SOL    HW2 1086   0.793   0.059   0.695  1.5121  2.3446 -1.9522
  363SOL     OW 1087   0.840   1.398   0.628 -0.4098  0.0769 -0.9111
  363SOL    HW1 1088   0.775   1.329   0.666 -0.0684 -0.5011  0.1426
  363SOL    HW2 1089   0.921   1.353   0.579  2.3447 -0.4520 -2.0871
  364SOL     OW 1090   0.468   0.948   1.669  0.1660  0.4783  0.1960
  364SOL    HW1 1091   0.547   0.886   1.653 -0.4763  1.3496 -0.7028
  364SOL    HW2 1092   0.393   0.940   1.599 -0.1173  2.6816 -1.7386
  365SOL     OW 1093   2.775   0.897   0.883 -0.7563  0.0548  0.0450
  365SOL    HW1 1094   2.784   0.882   0.981  1.5035 -4.0273 -1.4692
  365SOL    HW2 1095   2.795   0.807   0.842 -1.2375 -0.4357 -0.8117
  366SOL     OW 1096   2.545   1.353   0.513 -0.6116  0.7174 -0.0622
  366SOL    HW1 1097   2.555   1.334   0.414  0.0362 -0.1757  1.3936
  366SOL    HW2 1098   2.635   1.337   0.558 -2.9434 -1.1913  1.7275
  367SOL     OW 1099   2.163   2.152   2.202  0.6991 -0.1234  0.0345
  367SOL    HW1 1100   2.124   2.090   2.130 -0.4224  1.3673  0.1866
  367SOL    HW2 1101   2.095   2.190   2.267 -0.0034  0.8890 -0.8885
  368SOL     OW 1102   2.559   1.802   0.880 -0.0439  0.2154 -0.7503
  368SOL    HW1 1103   2.482   1.746   0.912  0.2422 -3.0881  3.0909
  368SOL    HW2 1104   2.574   1.826   0.784  1.3997 -1.0845 -1.0201
  369SOL     OW 1105   2.011   2.374   2.673 -0.7444 -0.0388 -0.0146
  369SOL    HW1 1106   2.032   2.285   2.720 -1.2088 -2.9791 -1.5704
  369SOL    HW2 1107   1.934   2.416   2.720 -1.7333 -0.3102 -1.7940
  370SOL     OW 1108   0.235   0.110   1.192  0.8016 -0.4478  0.3412
  370SOL    HW1 1109   0.238   0.210   1.201 -0.9844 -0.6191 -0.5113
  370SOL    HW2 1110   0.234   0.096   1.090  0.7291  2.1410 -1.2667
  371SOL     OW 1111   0.624   2.103   0.171 -0.0441  0.1613 -0.2592
  371SOL    HW1 1112   0.605   2.168   0.096  4.0271 -2.7546  3.1756
  371SOL    HW2 1113   0.584   2.011   0.161 -0.8176 -1.2687  1.5107
  372SOL     OW 1114   1.173   1.289   0.060  0.2669 -0.5220 -0.1102
  372SOL    HW1 1115   1.236   1.250   3.079  0.4831  1.0327  0.6802
  372SOL    HW2 1116   1.099   1.331   0.012  0.5524 -1.3476  2.0958
  373SOL     OW 1117   1.406   2.517   2.324 -0.0642 -0.1542 -0.0471
  373SOL    HW1 1118   1.449   2.466   2.246 -2.4209  0.3268 -1.0491
  373SOL    HW2 1119   1.475   2.573   2.376  0.7858  0.2063  1.9347
  374SOL     OW 1120   0.308   2.252   2.925 -0.2109  0.3312  0.0231
  374SOL    HW1 1121   0.254   2.162   2.929 -1.3685 -2.2017 -1.4039
  374SOL    HW2 1122   0.244   2.327   2.945 -1.3639 -4.4428 -0.7976
  375SOL     OW 1123   0.606   1.335   1.541  0.1645  0.1978 -0.1517
  375SOL    HW1 1124   0.560   1.296   1.622  1.9367 -0.7948 -2.0593
  375SOL    HW2 1125   0.563   1.423   1.512 -3.3390 -1.0106 -3.0604
  376SOL     OW 1126   0.437   2.366   1.661 -0.4532 -0.1647 -0.5496
  376SOL    HW1 1127   0.478   2.333   1.749 -0.9768 -1.9924  0.1704
  376SOL    HW2 1128   0.339   2.335   1.656  1.6228  0.1744  1.4788
  377SOL     OW 1129   2.848   1.356   2.670 -0.1945  0.3040  0.5291
  377SOL    HW1 1130   2.800   1.379   2.583  1.0065  1.1489  0.3415
  377SOL    HW2 1131   2.922   1.281   2.653  1.4797 -2.6727 -0.8791
  378SOL     OW 1132   1.270   0.025   0.032 -0.0799 -0.7951 -0.4168
  378SOL    HW1 1133   1.305   0.028   3.029  0.8705  1.9050 -2.4305
  378SOL    HW2 1134   1.191   3.057   0.035  0.8859  0.2176  0.4344
  379SOL     OW 1135   1.797   0.732   0.814  0.2543 -0.0040 -0.1771
  379SOL    HW1 1136   1.791   0.813   0.878  0.0943 -3.0383  0.5954
  379SOL    HW2 1137   1.827   0.749   0.718  1.4002 -1.4935  0.2678
  380SOL     OW 1138   0.239   1.995   1.161  0.4816 -0.1752 -0.1229
  380SOL    HW1 1139   0.207   2.021   1.253  2.1126  0.2959 -2.6272
  380SOL    HW2 1140   0.170   2.010   1.089  1.0244  2.0463  1.1590
  381SOL     OW 1141   2.305   1.604   2.178  0.1337 -0.7272 -0.3753
  381SOL    HW1 1142   2.256   1.625   2.263  1.8857 -1.5286  1.4403
  381SOL    HW2 1143   2.262   1.524   2.138 -0.4162  2.7176  1.6235
  382SOL     OW 1144   0.073   0.098   2.495  0.4920 -0.1852  0.0109
  382SOL    HW1 1145   0.036   0.039   2.574 -1.2116 -2.6383  2.0122
  382SOL    HW2 1146   0.174   0.089   2.490 -0.6610 -3.1365 -2.3086
  383SOL     OW 1147   1.792   1.327   2.905 -0.1025 -0.1377 -0.2687
  383SOL    HW1 1148   1.859   1.399   2.940 -1.2815  1.3554 -1.0703
  383SOL    HW2 1149   1.708   1.323   2.959  0.5777 -0.4018 -3.5807
  384SOL     OW 1150   1.216   2.135   1.475  0.2216  0.0083 -0.4552
  384SOL    HW1 1151   1.127   2.136   1.523  0.1582 -1.9079 -2.3129
  384SOL    HW2 1152   1.288   2.160   1.543 -0.9332 -2.2951 -1.8081
  385SOL     OW 1153   1.577   2.664   0.901 -0.0288 -0.4701  0.3755
  385SOL    HW1 1154   1.636   2.723   0.957  0.7797 -0.3738 -0.7921
  385SOL    HW2 1155   1.598   2.677   0.805 -1.6413 -1.2816  2.7846
  386SOL     OW 1156   1.909   2.236   0.994  0.2600  0.5634 -0.0001
  386SOL    HW1 1157   1.928   2.211   0.894 -1.0804  3.3320 -0.5055
  386SOL    HW2 1158   1.812   2.270   1.007 -2.0261  1.0688  3.0034
  387SOL     OW 1159   3.069   2.204   1.500  0.5145  0.5409  0.0491
  387SOL    HW1 1160   3.029   2.280   1.444  0.2503  1.4719 -1.6234
  387SOL    HW2 1161   2.994   2.163   1.558 -2.3494 -0.1803 -0.5798
  388SOL     OW 1162   2.609   0.504   1.657 -0.3938 -0.4771 -0.4123
  388SOL    HW1 1163   2.646   0.601   1.662  1.7473  3.6795  2.1833
  388SOL    HW2 1164   2.516   0.493   1.616 -1.0537 -0.3147  1.0211
  389SOL     OW 1165   1.865   0.753   0.538  0.0271 -0.0868 -0.4318
  389SOL    HW1 1166   1.924   0.758   0.455 -0.0827 -0.3528  1.4797
  389SOL    HW2 1167   1.785   0.694   0.527 -0.2777  0.9892 -0.0185
  390SOL     OW 1168   0.995   1.976   2.663  0.2213  0.1512  0.0190
  390SOL    HW1 1169   0.898   1.975   2.690  2.1441 -1.8475  0.2046
  390SOL    HW2 1170   0.999   1.964   2.562 -1.7949 -2.0869  1.5374
  391SOL     OW 1171   0.934   2.172   3.014 -0.1857 -0.0059  0.3213
  391SOL    HW1 1172   0.936   2.275   3.023  1.2414  1.5940 -0.5647
  391SOL    HW2 1173   0.848   2.144   2.970 -0.0780  1.1712 -2.3802
  392SOL     OW 1174   0.126   2.972   1.607  0.4147 -0.4146  0.2926
  392SOL    HW1 1175   0.200   2.974   1.678  0.7582 -1.8438  2.2496
  392SOL    HW2 1176   0.036   2.979   1.662 -1.7603 -0.3147 -0.2553
  393SOL     OW 1177   1.533   2.486   0.210  0.0748  0.9095  0.2121
  393SOL    HW1 1178   1.622   2.484   0.161 -0.1881 -0.8655 -0.2837
  393SOL    HW2 1179   1.541   2.430   0.293 -0.4867  0.0545  2.2995
  394SOL     OW 1180   0.691   0.561   2.157 -0.0145 -0.9580 -0.7067
  394SOL    HW1 1181   0.717   0.474   2.112 -0.6429  0.9618 -0.2563
  394SOL    HW2 1182   0.591   0.566   2.180  0.8556  0.2882  0.8596
  395SOL     OW 1183   0.272   1.146   1.274 -0.2117 -0.1685  0.3286
  395SOL    HW1 1184   0.203   1.095   1.212 -1.9683 -3.3645 -0.4424
  395SOL    HW2 1185   0.284   1.244   1.242 -0.7832  1.5803 -2.4996
  396SOL     OW 1186   1.871   1.135   2.356 -0.3981  0.1520 -0.1726
  396SOL    HW1 1187   1.782   1.167   2.403 -1.2806  0.3468  1.7603
  396SOL    HW2 1188   1.916   1.067   2.419  0.4639  0.1965  2.9199
  397SOL     OW 1189   0.669   0.278   2.921  0.3521 -0.4165  0.5135
  397SOL    HW1 1190   0.764   0.243   2.935 -1.0717 -1.7487 -0.9248
  397SOL    HW2 1191   0.617   0.286   3.007 -1.2564 -1.7349  1.1028
  398SOL     OW 1192   0.725   2.075   2.715 -0.3130 -0.6748  0.2003
  398SOL    HW1 1193   0.646   2.129   2.744  0.9910 -0.1995 -2.5504
  398SOL    HW2 1194   0.738   2.069   2.614 -0.5047  0.0320 -0.5210
  399SOL     OW 1195   2.478   1.246   2.866  0.0392 -0.7899 -0.1586
  399SOL    HW1 1196   2.467   1.335   2.812  2.9463  1.0629 -2.3955
  399SOL    HW2 1197   2.394   1.225   2.923  0.2335 -4.0904 -1.3136
  400SOL     OW 1198   2.352   1.458   1.362  0.5541  0.2018  0.1872
  400SOL    HW1 1199   2.354   1.522   1.281 -0.5741  1.5645  1.4644
  400SOL    HW2 1200   2.337   1.363   1.322  0.7523 -0.2969 -1.5770
  401SOL     OW 1201   1.216   1.678   1.197 -0.8344  0.2189 -0.4983
  401SOL    HW1 1202   1.274   1.597   1.166  4.2977 -2.6796 -0.9946
  401SOL    HW2 1203   1.177   1.651   1.287  3.9916 -3.5286 -0.7821
  402SOL     OW 1204   0.095   2.481   2.024 -0.1017  0.0550 -0.2530
  402SOL    HW1 1205   0.131   2.455   2.114 -0.1544  1.7806 -2.8708
  402SOL    HW2 1206   0.164   2.545   1.979  0.2589 -0.2929  0.3089
  403SOL     OW 1207   0.170   1.047   2.509 -0.2338  0.3873 -0.2442
  403SOL    HW1 1208   0.205   1.136   2.474 -1.2400 -1.3874 -0.0856
  403SOL    HW2 1209   0.227   1.015   2.588  0.5815  2.5549 -0.9394
  404SOL     OW 1210   2.056   1.892   1.241 -1.0754 -0.0416  0.2459
  404SOL    HW1 1211   2.142   1.944   1.221  2.9011 -1.7838 -0.6237
  404SOL    HW2 1212   2.055   1.804   1.183 -0.0162 -2.9306  0.9520
  405SOL     OW 1213   2.690   0.141   2.584  0.0687  0.9357 -0.1845
  405SOL    HW1 1214   2.701   0.145   2.481 -1.1201  0.8641 -0.3542
  405SOL    HW2 1215   2.703   0.045   2.617 -1.8173  0.5935 -0.3264
  406SOL     OW 1216   0.843   1.145   0.023  0.1505 -0.0745 -0.1076
  406SOL    HW1 1217   0.924   1.082   0.016  1.2851  0.0028  0.3682
  406SOL    HW2 1218   0.857   1.227   3.063 -0.8665 -1.8053  0.6145
  407SOL     OW 1219   1.777   2.442   2.774  0.2547  0.4162  0.5258
  407SOL    HW1 1220   1.696   2.385   2.786  0.6528 -3.2757  0.6532
  407SOL    HW2 1221   1.788   2.514   2.840  0.7240 -0.7672 -1.7634
  408SOL     OW 1222   0.172   0.050   0.043 -0.6741 -0.4759 -0.1856
  408SOL    HW1 1223   0.194   0.136   0.098  1.6386 -1.5828 -0.8366
  408SOL    HW2 1224   0.205   0.067   3.040 -0.1913 -0.3866  0.0036
  409SOL     OW 1225   2.130   1.474   0.949 -0.2742 -0.4803  0.0032
  409SOL    HW1 1226   2.055   1.440   0.891  2.8430 -1.8213  2.5559
  409SOL    HW2 1227   2.164   1.568   0.916 -1.4670 -1.4125 -0.5391
  410SOL     OW 1228   2.305   1.904   2.977  0.0477  0.3989 -0.1830
  410SOL    HW1 1229   2.229   1.885   3.041  1.8516  0.2319 -0.8512
  410SOL    HW2 1230   2.372   1.961   3.024 -1.3871 -2.3410 -2.0982
  411SOL     OW 1231   0.135   1.311   0.869 -0.1522  0.3947  0.1623
  411SOL    HW1 1232   0.131   1.407   0.895  3.3982 -1.4466  0.0602
  411SOL    HW2 1233   0.224   1.264   0.889  0.1718 -0.6453  0.7383
  412SOL     OW 1234   1.681   2.663   0.594  0.0303  0.2885 -0.1124
  412SOL    HW1 1235   1.662   2.743   0.536  0.4649  0.2073 -1.2423
  412SOL    HW2 1236   1.704   2.586   0.534  0.7849  0.3913 -3.0216
  413SOL     OW 1237   1.995   0.703   2.169  0.1948  0.1727  0.1892
  413SOL    HW1 1238   1.913   0.735   2.115 -0.6614 -1.0739 -0.7065
  413SOL    HW2 1239   2.031   0.612   2.139 -0.8334  0.6430  0.6200
  414SOL     OW 1240   2.988   0.427   0.554  0.2223 -0.0786  0.0759
  414SOL    HW1 1241   2.920   0.419   0.481  2.0823  0.9683 -0.0444
  414SOL    HW2 1242   2.966   0.373   0.640 -1.8736 -1.5582  0.8220
  415SOL     OW 1243   0.944   1.755   1.632  0.4313 -0.7262 -0.2295
  415SOL    HW1 1244   0.939   1.829   1.703 -0.3145 -0.6638 -1.7308
  415SOL    HW2 1245   0.855   1.742   1.580  0.9847  2.8937  1.3832
  416SOL     OW 1246   0.294   0.001   2.878  0.3627  0.1398  0.3278
  416SOL    HW1 1247   0.355   0.070   2.841 -0.8859 -1.2330  2.0917
  416SOL    HW2 1248   0.257   3.016   2.814 -2.2640  0.3595 -0.8593
  417SOL     OW 1249   2.570   2.978   0.942 -0.1244  0.2230 -0.4114
  417SOL    HW1 1250   2.571   2.942   1.036 -2.1395  1.1910  0.3471
  417SOL    HW2 1251   2.557   3.081   0.944  0.0181 -0.6004  1.1492
  418SOL     OW 1252   0.337   0.537   2.637 -0.6529 -0.2275  0.7376
  418SOL    HW1 1253   0.251   0.485   2.616  0.0448 -0.2106 -1.4418
  418SOL    HW2 1254   0.408   0.510   2.568  0.8224  0.5189 -0.8794
  419SOL     OW 1255   3.064   1.354   1.489 -0.8320  0.3724  0.0785
  419SOL    HW1 1256   0.036   1.428   1.467 -1.3104 -0.8639  1.6548
  419SOL    HW2 1257   3.038   1.302   1.410 -2.1062 -1.0320  0.6096
  420SOL     OW 1258   0.760   1.793   0.900  0.1551 -0.6221 -0.1960
  420SOL    HW1 1259   0.821   1.727   0.945 -0.5347 -1.9946  1.7615
  420SOL    HW2 1260   0.666   1.763   0.898 -0.0392  2.3497 -0.0848
  421SOL     OW 1261   1.977   2.263   2.380  0.6146 -0.0356  0.3091
  421SOL    HW1 1262   1.912   2.252   2.457  2.1635  1.9887 -0.9116
  421SOL    HW2 1263   1.980   2.361   2.351  1.1432  0.3506  2.1076
  422SOL     OW 1264   0.082   0.373   2.592 -0.5553 -0.5524 -0.0706
  422SOL    HW1 1265   0.065   0.314   2.513 -0.5092  0.6834  3.7020
  422SOL    HW2 1266   0.036   0.328   2.672 -0.9687  0.3806  1.3431
  423SOL     OW 1267   1.315   2.070   0.944 -0.2479  0.5893 -0.2791
  423SOL    HW1 1268   1.259   2.015   0.874 -0.7708 -1.0740 -4.4368
  423SOL    HW2 1269   1.281   2.073   1.042  1.2920  0.6166  0.0307
  424SOL     OW 1270   0.616   1.758   1.686 -0.0844 -0.2192  0.8796
  424SOL    HW1 1271   0.630   1.814   1.601 -0.0536  0.4392 -1.1786
  424SOL    HW2 1272   0.518   1.746   1.710  0.5012  0.3891  0.5280
  425SOL     OW 1273   3.008   2.689   2.103 -0.7419  0.6033  0.2221
  425SOL    HW1 1274   3.058   2.599   2.086  2.9590  1.1344  0.5201
  425SOL    HW2 1275   2.960   2.719   2.023 -2.3095 -2.1692  1.0542
  426SOL     OW 1276   1.672   0.391   0.605  0.3347 -0.2327 -0.1916
  426SOL    HW1 1277   1.707   0.335   0.528 -0.0346  1.1582  0.1483
  426SOL    HW2 1278   1.720   0.375   0.689 -0.1290 -0.7594 -1.2282
  427SOL     OW 1279   1.170   0.515   0.041 -0.4848  0.2742 -0.4271
  427SOL    HW1 1280   1.131   0.587   0.098 -1.0461 -0.1509  0.7148
  427SOL    HW2 1281   1.097   0.458   0.004  0.4027 -0.4451 -2.2428
  428SOL     OW 1282   1.560   1.189   0.135 -0.4759 -0.1440  0.3379
  428SOL    HW1 1283   1.491   1.234   0.197  0.1867 -1.0493  2.0812
  428SOL    HW2 1284   1.550   1.226   0.036 -1.2290 -0.0506 -2.0510
  429SOL     OW 1285   2.881   2.761   0.603 -0.2279  0.0013 -0.1659
  429SOL    HW1 1286   2.977   2.724   0.608 -2.1352  3.2470 -0.5257
  429SOL    HW2 1287   2.868   2.809   0.513 -0.8818  0.2417  0.3170
  430SOL     OW 1288   0.586   3.027   2.188  0.0403 -0.0100 -0.0709
  430SOL    HW1 1289   0.642   3.086   2.251  1.4690 -3.4586  0.4296
  430SOL    HW2 1290   0.642   3.014   2.100  0.3690  0.6221 -3.5846
  431SOL     OW 1291   2.597   0.829   1.319  0.3358 -0.3377  0.1787
  431SOL    HW1 1292   2.534   0.751   1.304  0.8782  1.3251  1.1483
  431SOL    HW2 1293   2.550   0.918   1.338  0.0091  0.3581 -0.3203
  432SOL     OW 1294   2.100   2.494   1.973 -0.2792 -0.2165  0.3609
  432SOL    HW1 1295   2.105   2.494   2.074  0.4000 -1.4076 -3.0127
  432SOL    HW2 1296   2.028   2.430   1.936 -0.9632  1.1381  0.2737
  433SOL     OW 1297   1.354   2.474   0.678 -0.3185 -0.4862  0.2632
  433SOL    HW1 1298   1.402   2.399   0.735 -0.3325  0.0355 -0.4272
  433SOL    HW2 1299   1.330   2.552   0.735  3.9769 -1.2888 -1.3163
  434SOL     OW 1300   0.306   1.950   1.851  0.3927  0.6900  0.2224
  434SOL    HW1 1301   0.313   1.919   1.948  1.6442 -4.3880 -0.6315
  434SOL    HW2 1302   0.209   1.982   1.824  1.6650 -0.7557 -0.7515
  435SOL     OW 1303   0.216   0.934   0.316 -0.0618 -0.5003 -0.0825
  435SOL    HW1 1304   0.197   0.862   0.382  1.4105  1.5748 -0.2804
  435SOL    HW2 1305   0.319   0.928   0.305  2.1133  2.6653  0.3566
  436SOL     OW 1306   0.247   2.645   1.888  0.0042  0.2959 -0.0795
  436SOL    HW1 1307   0.306   2.696   1.956 -1.3805 -0.0965  3.7055
  436SOL    HW2 1308   0.300   2.627   1.805 -0.8122 -0.6357  1.5018
  437SOL     OW 1309   1.606   2.404   1.651 -0.7165 -0.4085  0.2360
  437SOL    HW1 1310   1.626   2.460   1.566  1.0634 -2.3414  1.9655
  437SOL    HW2 1311   1.630   2.452   1.739  1.7212 -0.8424 -1.5526
  438SOL     OW 1312   0.076   1.928   0.407 -0.7150 -0.3855  0.3456
  438SOL    HW1 1313   0.147   1.996   0.438  1.0339 -0.2984  1.2935
  438SOL    HW2 1314   0.045   1.941   0.306  3.2188 -0.1137 -0.4130
  439SOL     OW 1315   0.233   0.446   0.889  0.0771 -0.1132 -0.5247
  439SOL    HW1 1316   0.306   0.484   0.951 -0.6368 -2.2629 -0.1065
  439SOL    HW2 1317   0.144   0.481   0.917 -0.6701 -1.4072 -0.5549
  440SOL     OW 1318   3.073   2.766   2.351 -0.4594 -0.0749  0.1697
  440SOL    HW1 1319   0.070   2.739   2.387  0.6233  0.4784 -0.9674
  440SOL    HW2 1320   3.058   2.739   2.254  0.9012 -1.8002 -0.0565
  441SOL     OW 1321   2.908   0.311   0.819 -0.0970  0.7178  0.3850
  441SOL    HW1 1322   2.989   0.250   0.839 -0.7444  0.2970  0.7813
  441SOL    HW2 1323   2.824   0.259   0.780 -1.8742 -0.3772 -0.4824
  442SOL     OW 1324   1.135   2.352   2.479  0.1776  0.0761 -0.4312
  442SOL    HW1 1325   1.115   2.325   2.576  1.7813 -1.7411  0.3795
  442SOL    HW2 1326   1.229   2.312   2.453  2.3547 -2.5838 -0.5998
  443SOL     OW 1327   0.740   0.942   0.220 -0.1749  0.3347  0.3193
  443SOL    HW1 1328   0.730   0.840   0.227  0.0771 -0.2790 -0.4555
  443SOL    HW2 1329   0.820   0.965   0.161  0.6373  0.6989 -1.0388
  444SOL     OW 1330   1.717   1.447   2.683 -0.0019 -0.3322 -0.8555
  444SOL    HW1 1331   1.645   1.517   2.704 -0.7001  0.2768 -1.5762
  444SOL    HW2 1332   1.747   1.399   2.772 -1.6919  2.5071  0.0797
  445SOL     OW 1333   2.976   3.049   0.814  0.0237 -0.0418 -0.0107
  445SOL    HW1 1334   3.037   2.979   0.769  2.6239 -1.3369 -2.6542
  445SOL    HW2 1335   2.880   3.047   0.779 -0.2212  0.1071  1.7439
  446SOL     OW 1336   2.147   0.494   1.010 -0.4624  0.1494 -0.7259
  446SOL    HW1 1337   2.101   0.451   0.927 -0.2125 -2.2775 -1.6825
  446SOL    HW2 1338   2.077   0.505   1.087 -2.0889  1.3532  4.0000
  447SOL     OW 1339   0.168   0.665   2.964 -0.5538  0.5432 -0.1859
  447SOL    HW1 1340   0.137   0.570   2.985 -0.1920  1.9735  1.8364
  447SOL    HW2 1341   0.183   0.706   3.057  0.1860  1.2272 -0.2277
  448SOL     OW 1342   1.572   2.046   1.669  0.8182 -0.5288  0.8021
  448SOL    HW1 1343   1.602   2.100   1.587  0.6644 -0.7224 -0.0353
  448SOL    HW2 1344   1.586   1.950   1.651  0.5491  2.0272  0.6281
  449SOL     OW 1345   0.962   1.434   0.888  0.0723  0.1444  0.0833
  449SOL    HW1 1346   1.058   1.423   0.920 -1.2813 -0.3379  2.8124
  449SOL    HW2 1347   0.947   1.425   0.786  3.2930  0.8896 -0.4906
  450SOL     OW 1348   2.748   2.368   2.092 -0.0124 -0.3196 -0.0163
  450SOL    HW1 1349   2.811   2.387   2.017  1.1490 -0.3667  0.8732
  450SOL    HW2 1350   2.722   2.269   2.097  0.9413 -0.2440 -3.2152
  451SOL     OW 1351   2.670   1.080   2.797  0.0003 -0.1057  0.3626
  451SOL    HW1 1352   2.697   1.023   2.877 -3.2509  1.8834 -1.7974
  451SOL    HW2 1353   2.603   1.155   2.819  0.6751  0.2850 -0.5422
  452SOL     OW 1354   1.896   1.138   1.177 -0.2200 -0.3672  0.7781
  452SOL    HW1 1355   1.841   1.224   1.203 -1.1983  0.0562  2.5168
  452SOL    HW2 1356   1.974   1.128   1.240 -1.1841  2.8617 -2.4024
  453SOL     OW 1357   2.132   1.001   1.356  0.0333 -0.8423 -0.2911
  453SOL    HW1 1358   2.132   1.004   1.457 -1.3745  0.9788 -2.1855
  453SOL    HW2 1359   2.176   0.914   1.321  1.1280 -1.5664 -2.1743
  454SOL     OW 1360   3.053   1.069   0.338 -0.8005 -0.2556  0.1130
  454SOL    HW1 1361   0.035   1.013   0.310 -2.6917  2.6450  0.7199
  454SOL    HW2 1362   2.979   1.008   0.361  1.8607  0.1451 -0.9244
  455SOL     OW 1363   2.424   1.567   1.115  0.5083 -0.3925 -0.0422
  455SOL    HW1 1364   2.481   1.486   1.097  0.5710  2.0671  0.6530
  455SOL    HW2 1365   2.359   1.587   1.040 -0.6739  0.9161  1.2880
  456SOL     OW 1366   0.993   0.262   1.512  0.7175 -0.4588  0.2200
  456SOL    HW1 1367   0.929   0.337   1.538 -0.0467  2.0923 -1.1155
  456SOL    HW2 1368   1.087   0.281   1.543  0.5913  0.2883  0.1765
  457SOL     OW 1369   1.798   2.815   1.001  0.4653 -0.3153  0.6207
  457SOL    HW1 1370   1.861   2.791   0.925 -0.1888  2.1472 -2.3453
  457SOL    HW2 1371   1.787   2.919   1.001 -2.1573  1.5807 -1.4297
  458SOL     OW 1372   2.777   0.373   0.394  0.5890  0.4544 -0.5177
  458SOL    HW1 1373   2.771   0.422   0.307  0.5916  0.1867  1.7393
  458SOL    HW2 1374   2.688   0.369   0.442  0.9847  0.3850  2.7626
  459SOL     OW 1375   1.696   0.742   0.248  0.1413  0.4819 -0.1667
  459SOL    HW1 1376   1.621   0.803   0.217 -0.7471  2.7225  0.6415
  459SOL    HW2 1377   1.672   0.680   0.333  3.8608 -0.0151  0.0540
  460SOL     OW 1378   0.147   2.546   2.569  0.2896 -0.3079 -0.4993
  460SOL    HW1 1379   0.148   2.604   2.656 -1.6026  1.0554  2.8012
  460SOL    HW2 1380   0.236   2.512   2.554 -0.7859  3.3489  0.6845
  461SOL     OW 1381   0.493   1.853   0.138  0.2151 -0.0048  0.7617
  461SOL    HW1 1382   0.555   1.783   0.180 -3.3045  1.2580 -0.2536
  461SOL    HW2 1383   0.467   1.824   0.044  1.7568  0.4620 -1.6825
  462SOL     OW 1384   2.029   2.381   0.574 -0.6082  0.1205 -0.3147
  462SOL    HW1 1385   2.096   2.307   0.553 -1.0823  0.3977 -1.7506
  462SOL    HW2 1386   2.047   2.419   0.670 -0.3823  2.6566  0.5266
  463SOL     OW 1387   2.973   0.689   0.608  0.2318  1.0540 -0.4127
  463SOL    HW1 1388   2.890   0.700   0.667  3.8027 -1.0365  1.2206
  463SOL    HW2 1389   2.980   0.591   0.576  0.8921 -1.6773 -2.4992
  464SOL     OW 1390   0.633   2.625   0.252 -0.8632  0.2209 -0.1753
  464SOL    HW1 1391   0.652   2.700   0.321  1.9562  0.8943 -2.5031
  464SOL    HW2 1392   0.678   2.545   0.295 -0.2779 -1.8302 -1.3938
  465SOL     OW 1393   2.344   0.431   0.711 -0.3166  0.5257 -0.0687
  465SOL    HW1 1394   2.401   0.451   0.790  0.7389  1.7052 -0.1450
  465SOL    HW2 1395   2.250   0.459   0.732  1.1846  0.5328 -0.6822
  466SOL     OW 1396   2.024   0.183   0.256  0.1404 -0.5126 -0.0892
  466SOL    HW1 1397   1.972   0.271   0.252  2.1511 -0.2675 -1.1772
  466SOL    HW2 1398   1.996   0.117   0.187 -0.2073 -1.0268  0.5485
  467SOL     OW 1399   1.131   0.183   2.065 -0.0791 -0.2481 -0.2546
  467SOL    HW1 1400   1.082   0.133   2.139  2.7216 -0.1100  0.7477
  467SOL    HW2 1401   1.150   0.282   2.088 -1.7534  0.7859  2.3821
  468SOL     OW 1402   2.908   0.819   2.094  0.4946 -0.2830  0.4159
  468SOL    HW1 1403   2.996   0.861   2.061  2.1454  0.7982  0.4508
  468SOL    HW2 1404   2.914   0.741   2.159 -0.7857 -0.6249 -1.4226
  469SOL     OW 1405   0.888   2.289   2.354  0.3236  0.3316 -0.4088
  469SOL    HW1 1406   0.965   2.312   2.417 -0.8955 -0.1942 -0.3850
  469SOL    HW2 1407   0.922   2.234   2.271  1.0633 -2.3346 -0.8592
  470SOL     OW 1408   2.007   1.175   1.866 -0.4170 -0.2810 -0.0140
  470SOL    HW1 1409   2.102   1.138   1.873  0.1746  0.3310 -1.4939
  470SOL    HW2 1410   1.945   1.148   1.944 -0.9067  2.0109  1.2349
  471SOL     OW 1411   2.860   1.147   0.157 -0.0369  0.2232  0.2156
  471SOL    HW1 1412   2.901   1.202   0.078  1.2557 -1.6118  0.9280
  471SOL    HW2 1413   2.933   1.116   0.225 -1.2183 -3.2742  1.1198
  472SOL     OW 1414   0.358   2.783   0.393 -0.5184  0.0389 -0.7627
  472SOL    HW1 1415   0.325   2.689   0.391  1.7078  2.4202 -0.5921
  472SOL    HW2 1416   0.460   2.782   0.403  1.6066 -2.0882 -0.9858
  473SOL     OW 1417   0.895   2.605   2.231 -0.1543 -0.1789 -0.1412
  473SOL    HW1 1418   0.807   2.562   2.213 -0.2308  2.1711  1.0571
  473SOL    HW2 1419   0.915   2.610   2.329 -0.9533 -0.1698 -1.6758
  474SOL     OW 1420   1.654   0.099   2.554  0.1166 -0.3025  0.0454
  474SOL    HW1 1421   1.618   0.041   2.631 -0.1772  0.2391 -0.1831
  474SOL    HW2 1422   1.734   0.047   2.517  0.2521  1.2485 -0.3595
  475SOL     OW 1423   0.955   2.583   0.263  0.0133 -0.2847  0.0775
  475SOL    HW1 1424   0.933   2.682   0.297 -0.0611  4.3729 -0.4835
  475SOL    HW2 1425   0.888   2.511   0.313 -0.5083 -2.1934  1.0259
  476SOL     OW 1426   0.661   0.501   1.084  0.5268  0.0572  0.2796
  476SOL    HW1 1427   0.694   0.585   1.131  0.4233  0.2598 -1.1095
  476SOL    HW2 1428   0.740   0.444   1.061  0.8742  2.2248 -0.4934
  477SOL     OW 1429   1.836   2.046   1.187  0.0587  0.3261  0.4607
  477SOL    HW1 1430   1.863   2.108   1.111  0.8465 -0.8052 -2.5816
  477SOL    HW2 1431   1.912   1.993   1.230  2.3375 -1.6620 -2.1396
  478SOL     OW 1432   0.114   0.945   2.898  0.0536  0.0144  0.9447
  478SOL    HW1 1433   0.190   0.967   2.833  2.5270  0.2440 -1.3166
  478SOL    HW2 1434   0.135   0.854   2.941  0.1538 -2.1908 -0.1874
  479SOL     OW 1435   0.800   0.009   0.885  0.8896  0.0442  0.1039
  479SOL    HW1 1436   0.750   3.008   0.874 -2.3507 -1.6272 -0.6967
  479SOL    HW2 1437   0.899   0.001   0.861 -1.3372  0.1855  0.9171
  480SOL     OW 1438   2.569   2.679   0.204 -0.2961 -0.2174  0.1400
  480SOL    HW1 1439   2.613   2.766   0.175  0.7382  0.6044 -0.2666
  480SOL    HW2 1440   2.621   2.598   0.178  0.7307  2.8952 -0.6728
  481SOL     OW 1441   2.984   0.619   1.289  0.0786 -0.6113 -0.2336
  481SOL    HW1 1442   2.903   0.564   1.319 -0.7178 -0.7099  0.6089
  481SOL    HW2 1443   3.064   0.599   1.347  1.2031  1.2542 -1.2149
  482SOL     OW 1444   1.188   2.511   1.308  0.1730 -0.0569 -0.4319
  482SOL    HW1 1445   1.195   2.427   1.244 -2.0512 -1.8638 -2.7270
  482SOL    HW2 1446   1.253   2.584   1.280  4.9059 -0.8432  0.9450
  483SOL     OW 1447   0.412   1.487   2.960  0.1250  0.3489 -0.7683
  483SOL    HW1 1448   0.442   1.490   3.057  0.1383  3.9360 -0.5025
  483SOL    HW2 1449   0.367   1.402   2.938 -0.6777  3.9837  1.3071
  484SOL     OW 1450   1.411   1.475   2.460  0.7429 -0.1204 -0.3132
  484SOL    HW1 1451   1.309   1.468   2.469 -1.6260  1.7126 -0.5682
  484SOL    HW2 1452   1.450   1.441   2.374  1.5430  0.8327 -1.5417
  485SOL     OW 1453   0.354   0.025   2.539 -0.0698 -0.4011 -0.2216
  485SOL    HW1 1454   0.305   3.059   2.604 -0.6652 -1.5717 -0.0036
  485SOL    HW2 1455   0.443   0.049   2.581  0.1189  0.8474  0.2951
  486SOL     OW 1456   1.270   2.838   0.633  0.0701  0.6553 -0.0808
  486SOL    HW1 1457   1.321   2.929   0.647 -0.2877  4.4941  0.5488
  486SOL    HW2 1458   1.296   2.802   0.542  0.0992  0.9588  0.8472
  487SOL     OW 1459   1.512   2.959   1.092 -0.3033 -0.0092 -0.4150
  487SOL    HW1 1460   1.537   3.002   1.179 -1.2866 -1.4965  1.3464
  487SOL    HW2 1461   1.581   2.989   1.019 -1.7377 -0.2332 -1.0510
  488SOL     OW 1462   2.238   0.915   0.801  0.7822 -0.4915 -0.0312
  488SOL    HW1 1463   2.181   0.971   0.864 -1.9394  1.7976 -0.4647
  488SOL    HW2 1464   2.185   0.905   0.712 -0.9040 -0.8200  1.3629
  489SOL     OW 1465   1.266   3.087   1.291  0.3709  0.2152  0.8702
  489SOL    HW1 1466   1.282   2.993   1.329  1.8969  2.1640  0.3973
  489SOL    HW2 1467   1.201   3.078   1.213 -1.6573  0.0621 -3.3238
  490SOL     OW 1468   0.890   0.727   0.487 -0.6086  0.3075  0.2489
  490SOL    HW1 1469   0.816   0.777   0.541  3.2699  0.9747  0.0995
  490SOL    HW2 1470   0.978   0.771   0.504 -1.0867  0.3304 -0.8766
  491SOL     OW 1471   1.008   2.839   0.367  0.8016  0.5034 -0.0287
  491SOL    HW1 1472   1.017   2.790   0.460 -2.8802 -0.8964 -0.6593
  491SOL    HW2 1473   1.092   2.845   0.310 -3.2047 -1.2018 -1.2497
  492SOL     OW 1474   0.872   1.420   2.242  0.0178  0.0898  0.1674
  492SOL    HW1 1475   0.942   1.495   2.250 -1.5263  0.1438 -0.1772
  492SOL    HW2 1476   0.906   1.352   2.173  1.4482  0.3375 -0.7611
  493SOL     OW 1477   3.052   1.953   0.145  0.0393  0.2850  0.0986
  493SOL    HW1 1478   0.006   1.980   0.056  1.3818  1.0666 -1.9367
  493SOL    HW2 1479   2.956   1.978   0.149 -0.3023  0.1276 -1.4748
  494SOL     OW 1480   1.879   1.420   0.349 -0.3952 -0.2444  0.7063
  494SOL    HW1 1481   1.816   1.485   0.400 -0.4845 -1.8791  1.1476
  494SOL    HW2 1482   1.834   1.333   0.326 -0.0187  1.4640  1.8061
  495SOL     OW 1483   0.505   1.183   2.273 -0.4508 -0.2096 -0.5454
  495SOL    HW1 1484   0.503   1.085   2.312 -1.0660 -2.6191  2.2639
  495SOL    HW2 1485   0.414   1.220   2.292 -0.0127 -1.4603  0.0174
  496SOL     OW 1486   3.019   0.163   2.282  0.3889 -0.6308 -0.0197
  496SOL    HW1 1487   3.065   0.137   2.370 -3.3267  0.2248 -2.0665
  496SOL    HW2 1488   3.032   0.093   2.206  2.2330  0.0676  1.5593
  497SOL     OW 1489   2.084   0.932   0.570 -0.4367  0.2352 -0.0406
  497SOL    HW1 1490   2.124   0.961   0.482 -2.5188 -1.9707  0.4964
  497SOL    HW2 1491   1.998   0.881   0.559 -1.2938  1.0893  2.7393
  498SOL     OW 1492   2.785   2.515   2.858  0.0208  0.1889 -0.0920
  498SOL    HW1 1493   2.713   2.565   2.915 -1.2399  1.8694 -0.2385
  498SOL    HW2 1494   2.781   2.546   2.757  0.8647  0.2086 -2.5343
  499SOL     OW 1495   1.925   2.718   0.755 -0.0149  0.6322  0.2460
  499SOL    HW1 1496   1.970   2.778   0.678  0.5130  2.0405 -3.9358
  499SOL    HW2 1497   1.834   2.688   0.715 -0.9023  0.4564  0.9371
  500SOL     OW 1498   1.246   0.569   2.601  0.2244  0.1229  0.6098
  500SOL    HW1 1499   1.325   0.506   2.626  1.4574 -3.1756  1.7539
  500SOL    HW2 1500   1.277   0.663   2.586 -1.5008 -0.9717  1.5006
  501SOL     OW 1501   1.414   0.092   1.507  0.9814  0.4123  0.8696
  501SOL    HW1 1502   1.408   0.046   1.597 -0.6703 -1.0986 -1.9696
  501SOL    HW2 1503   1.340   0.062   1.438  0.2230  1.0791 -1.1386
  502SOL     OW 1504   3.090   0.149   1.853  0.4816  0.8313 -0.1893
  502SOL    HW1 1505   0.012   0.136   1.952 -2.0555  3.0055 -0.3740
  502SOL    HW2 1506   0.080   0.168   1.795 -2.2206  0.8958 -1.4119
  503SOL     OW 1507   1.530   2.385   2.114  0.3719  0.4619  0.0792
  503SOL    HW1 1508   1.623   2.429   2.100  1.3402 -0.1868 -2.5883
  503SOL    HW2 1509   1.533   2.286   2.150  0.9932 -4.3897  1.9997
  504SOL     OW 1510   2.141   0.056   1.847 -0.1531  0.1293 -0.1317
  504SOL    HW1 1511   2.145   0.110   1.762 -1.4970  3.0598  2.3948
  504SOL    HW2 1512   2.052   0.007   1.865 -0.4907  0.6234 -2.5799
  505SOL     OW 1513   2.632   1.634   1.519  0.0433  0.5263 -0.4473
  505SOL    HW1 1514   2.649   1.535   1.527  1.2725  0.3517 -1.2975
  505SOL    HW2 1515   2.551   1.667   1.564 -2.0552 -2.1265 -3.1272
  506SOL     OW 1516   0.093   1.365   2.067  0.5505  0.1491 -0.0950
  506SOL    HW1 1517   0.064   1.312   2.150  0.2600 -2.0878  0.8694
  506SOL    HW2 1518   0.056   1.312   1.987  0.3153  0.0987  0.0446
  507SOL     OW 1519   0.248   2.924   1.195  0.3994 -0.2801 -0.0994
  507SOL    HW1 1520   0.250   3.027   1.219 -0.2317  0.6669 -3.0946
  507SOL    HW2 1521   0.173   2.868   1.245 -1.7572  0.8734 -2.1187
  508SOL     OW 1522   1.443   0.676   1.535 -0.1293 -0.2507 -0.1113
  508SOL    HW1 1523   1.364   0.659   1.472 -2.1250 -1.1955 -1.1278
  508SOL    HW2 1524   1.418   0.672   1.634  2.0515 -1.1571  0.3901
  509SOL     OW 1525   1.369   2.206   1.692  0.0008 -0.6654 -0.1870
  509SOL    HW1 1526   1.413   2.290   1.658 -1.7729  2.3285 -1.9004
  509SOL    HW2 1527   1.444   2.133   1.688  0.1246  1.1289 -0.8733
  510SOL     OW 1528   2.400   1.343   0.064 -0.4801 -0.4242  0.0499
  510SOL    HW1 1529   2.486   1.295   0.083 -3.5428 -1.6060  2.1134
  510SOL    HW2 1530   2.318   1.291   0.044  0.8789  0.2708  2.1376
  511SOL     OW 1531   0.155   1.536   1.375 -0.1331  0.6642 -0.5856
  511SOL    HW1 1532   0.245   1.555   1.335 -0.4603  0.9480  2.1185
  511SOL    HW2 1533   0.086   1.514   1.301  1.7620 -0.4658 -1.4120
  512SOL     OW 1534   2.708   2.433   0.159 -0.4536  0.0327 -0.1985
  512SOL    HW1 1535   2.797   2.391   0.136 -0.1382 -0.8047 -0.5601
  512SOL    HW2 1536   2.673   2.396   0.248  1.0274 -2.3956 -1.0718
  513SOL     OW 1537   0.681   1.801   2.468 -0.1987 -0.3029  0.7123
  513SOL    HW1 1538   0.714   1.780   2.560  1.4611  0.8107 -2.3554
  513SOL    HW2 1539   0.696   1.901   2.445 -0.6321  1.0274 -1.5010
  514SOL     OW 1540   0.174   2.320   2.238 -0.1676 -0.4724 -0.3573
  514SOL    HW1 1541   0.196   2.220   2.245 -2.3860  1.1235  2.1076
  514SOL    HW2 1542   0.081   2.341   2.281 -1.8145 -1.1382  0.7174
  515SOL     OW 1543   1.958   1.292   1.646 -0.3085 -0.1644 -0.2875
  515SOL    HW1 1544   1.987   1.252   1.741  1.4817  0.5218 -0.2840
  515SOL    HW2 1545   2.047   1.312   1.599  0.5600  1.6082 -0.1263
  516SOL     OW 1546   1.735   2.472   0.049 -0.0012  0.2538 -0.0708
  516SOL    HW1 1547   1.751   2.534   3.061 -0.4153 -0.0132 -0.8578
  516SOL    HW2 1548   1.790   2.387   0.040 -1.1797 -0.1963  0.7953
  517SOL     OW 1549   0.710   1.643   0.537 -0.1781  0.1199 -0.4861
  517SOL    HW1 1550   0.791   1.698   0.511  2.1639 -0.6636  0.1222
  517SOL    HW2 1551   0.754   1.553   0.571  2.1652 -1.3367 -1.0372
  518SOL     OW 1552   1.994   2.497   1.512 -0.4336  0.7780 -0.4460
  518SOL    HW1 1553   1.987   2.596   1.547 -0.2267 -0.4120 -1.8530
  518SOL    HW2 1554   2.032   2.491   1.419  3.6579 -1.0203  1.7513
  519SOL     OW 1555   2.208   2.291   0.996  0.7017  0.2485  0.5500
  519SOL    HW1 1556   2.260   2.358   1.053 -1.6921 -0.1947  0.4188
  519SOL    HW2 1557   2.137   2.337   0.940  0.6959  0.4946  2.0479
  520SOL     OW 1558   2.794   2.137   2.471 -0.0916 -0.2198 -0.1935
  520SOL    HW1 1559   2.729   2.059   2.483 -0.3691 -1.4881 -2.2557
  520SOL    HW2 1560   2.871   2.104   2.417 -0.9784  3.3236  1.1513
  521SOL     OW 1561   2.716   1.090   2.406 -0.2849 -0.0096  0.2281
  521SOL    HW1 1562   2.683   1.102   2.314 -1.0024 -3.9255  3.0772
  521SOL    HW2 1563   2.630   1.082   2.463 -0.9213  0.6569 -0.5024
  522SOL     OW 1564   0.935   0.568   2.272 -1.1434 -0.5962  0.8295
  522SOL    HW1 1565   1.008   0.541   2.203  1.4304 -1.7788  0.4267
  522SOL    HW2 1566   0.847   0.576   2.222 -1.2961  1.6984  1.0333
  523SOL     OW 1567   0.085   2.014   0.920  0.1096 -0.1521  0.1904
  523SOL    HW1 1568   0.122   1.938   0.863  0.2927  1.0774 -0.5311
  523SOL    HW2 1569   0.085   2.099   0.868 -0.9469  0.7396  0.0029
  524SOL     OW 1570   1.899   2.816   0.072  0.6996  0.2485 -0.0911
  524SOL    HW1 1571   1.909   2.752   0.155  1.7186 -0.2098  2.9754
  524SOL    HW2 1572   1.949   2.783   3.083  0.0645  0.3381  0.2870
  525SOL     OW 1573   2.245   0.772   1.215 -0.3644  0.1990 -0.3975
  525SOL    HW1 1574   2.142   0.766   1.219 -3.3073 -1.1006  0.1429
  525SOL    HW2 1575   2.292   0.695   1.170  1.4267 -3.4927  0.4829
  526SOL     OW 1576   0.888   2.451   0.672  0.1751  0.2573 -0.3674
  526SOL    HW1 1577   0.835   2.516   0.726 -2.1062  2.4510  1.4407
  526SOL    HW2 1578   0.906   2.363   0.726  0.5574 -3.2543  3.7777
  527SOL     OW 1579   2.244   2.886   0.338 -0.3356  0.8900  0.1824
  527SOL    HW1 1580   2.305   2.822   0.386  1.4938  0.8560  1.6341
  527SOL    HW2 1581   2.242   2.861   0.238  0.1295  0.5122  1.0477
  528SOL     OW 1582   1.623   0.638   0.488 -0.4657  0.4851 -0.0849
  528SOL    HW1 1583   1.576   0.711   0.544  1.4807 -2.8593  0.1988
  528SOL    HW2 1584   1.629   0.549   0.534 -1.3334 -1.6879 -0.2772
  529SOL     OW 1585   1.491   1.583   2.705  0.2672 -0.0963 -0.5647
  529SOL    HW1 1586   1.413   1.565   2.769  1.3959  0.4663  0.5190
  529SOL    HW2 1587   1.468   1.542   2.615  0.7548 -0.9399  3.0916
  530SOL     OW 1588   2.514   0.319   0.132 -0.2710 -0.0515  0.0309
  530SOL    HW1 1589   2.433   0.366   0.172  0.6851  1.7271 -0.6841
  530SOL    HW2 1590   2.501   0.218   0.125  0.6623  0.3206 -0.2960
  531SOL     OW 1591   1.599   0.810   2.724 -0.4378 -0.4230 -0.1875
  531SOL    HW1 1592   1.636   0.900   2.684  1.1740  1.0668 -0.7087
  531SOL    HW2 1593   1.672   0.739   2.737  1.0524 -0.1916  0.2961
  532SOL     OW 1594   1.567   0.610   0.965  0.1174 -0.1860  0.0671
  532SOL    HW1 1595   1.489   0.608   0.896 -1.6898 -0.0625 -0.6489
  532SOL    HW2 1596   1.650   0.641   0.916 -1.0877  0.0017  0.7409
  533SOL     OW 1597   0.566   1.088   2.720  0.6280 -0.3798 -0.6440
  533SOL    HW1 1598   0.542   1.179   2.674  0.8107 -0.6884 -1.4962
  533SOL    HW2 1599   0.588   1.015   2.654 -0.3515 -1.4597  0.7654
  534SOL     OW 1600   1.709   0.347   2.706  0.3752  0.2130  0.1296
  534SOL    HW1 1601   1.760   0.340   2.793 -1.3515 -0.8365 -1.9928
  534SOL    HW2 1602   1.696   0.256   2.661  2.5108  0.3934  0.6606
  535SOL     OW 1603   0.203   2.946   2.691 -0.2811 -0.0491 -0.1507
  535SOL    HW1 1604   0.224   2.855   2.732 -1.4897  0.5113 -1.1425
  535SOL    HW2 1605   0.103   2.957   2.701 -3.0299 -2.4396  1.4158
  536SOL     OW 1606   0.449   0.423   0.353  0.6761 -0.4326  0.3768
  536SOL    HW1 1607   0.476   0.502   0.292  0.8934 -0.4477 -1.8238
  536SOL    HW2 1608   0.500   0.423   0.439 -1.0928 -2.1075  1.0273
  537SOL     OW 1609   1.500   0.237   0.260  0.1485 -0.7434 -0.2621
  537SOL    HW1 1610   1.468   0.311   0.198  1.2211  0.2686  0.0742
  537SOL    HW2 1611   1.425   0.175   0.284 -0.5738 -0.7227  2.1598
  538SOL     OW 1612   2.847   2.028   2.849 -0.4834 -0.3272  0.0912
  538SOL    HW1 1613   2.906   1.957   2.893  1.1790  2.0573  1.1376
  538SOL    HW2 1614   2.828   2.101   2.913  0.1897 -2.4656 -1.1211
  539SOL     OW 1615   2.034   1.887   3.067 -0.0145 -0.4337  0.0409
  539SOL    HW1 1616   1.967   1.954   3.039  1.2564  0.0862  1.7560
  539SOL    HW2 1617   2.053   1.820   2.989 -2.1016 -1.1281 -0.3245
  540SOL     OW 1618   0.426   2.681   1.651  0.4976  0.2099  0.2342
  540SOL    HW1 1619   0.472   2.592   1.631  1.3725  0.6501 -1.9215
  540SOL    HW2 1620   0.397   2.723   1.561  1.1074  3.9182  0.3378
  541SOL     OW 1621   2.413   0.161   2.238  0.4014  0.3408  0.0328
  541SOL    HW1 1622   2.417   0.253   2.280 -0.2145 -3.0262  1.2407
  541SOL    HW2 1623   2.367   0.160   2.147 -1.6015  0.1875 -0.6915
  542SOL     OW 1624   0.388   0.734   2.833 -0.2579 -0.3897  0.1242
  542SOL    HW1 1625   0.393   0.690   2.746  0.9558  1.0767  3.6024
  542SOL    HW2 1626   0.302   0.699   2.885 -2.8400 -2.9323  2.2958
  543SOL     OW 1627   0.317   0.748   1.287  0.4610 -0.0158 -0.1724
  543SOL    HW1 1628   0.301   0.779   1.189  0.8162  0.4278  1.9490
  543SOL    HW2 1629   0.231   0.759   1.338  0.7162 -0.4906 -0.1835
  544SOL     OW 1630   2.527   0.493   0.947 -0.4342  0.0059 -0.1135
  544SOL    HW1 1631   2.622   0.496   0.989  1.1847 -1.3255  1.7669
  544SOL    HW2 1632   2.489   0.587   0.939  0.0295  1.2552 -1.4900
  545SOL     OW 1633   1.588   2.073   0.668 -0.1010  0.3228  0.5819
  545SOL    HW1 1634   1.517   2.007   0.642  2.5388  0.3351 -0.4218
  545SOL    HW2 1635   1.546   2.155   0.712 -2.5875  1.5923  1.1669
  546SOL     OW 1636   2.335   2.829   1.426 -0.1581 -0.4193  0.1694
  546SOL    HW1 1637   2.400   2.899   1.465 -0.4543  0.6311 -0.6425
  546SOL    HW2 1638   2.240   2.866   1.418  0.6856 -0.4234  0.3810
  547SOL     OW 1639   0.500   2.849   2.389  0.1056  0.4386  0.2068
  547SOL    HW1 1640   0.428   2.878   2.453 -0.1662  2.1111 -0.6537
  547SOL    HW2 1641   0.520   2.935   2.336  2.8211 -1.7845  3.0779
  548SOL     OW 1642   1.602   0.632   3.022 -0.2192 -0.4617  0.1176
  548SOL    HW1 1643   1.617   0.642   2.923 -1.7752 -1.1313  0.2050
  548SOL    HW2 1644   1.684   0.643   3.076 -0.7051 -1.1806 -0.6483
  549SOL     OW 1645   2.888   0.861   0.400 -0.3360  0.9714 -0.1622
  549SOL    HW1 1646   2.916   0.802   0.479 -0.1425  4.5134  2.1004
  549SOL    HW2 1647   2.795   0.888   0.427  1.5353  0.5032  0.5880
  550SOL     OW 1648   1.866   1.937   0.632 -0.5577  0.3701 -0.2385
  550SOL    HW1 1649   1.776   1.946   0.582 -0.6189 -1.1076 -1.1094
  550SOL    HW2 1650   1.872   1.853   0.693 -0.1888 -1.2330 -1.2272
  551SOL     OW 1651   1.276   2.967   0.952 -0.0415  0.3220 -0.1623
  551SOL    HW1 1652   1.354   2.961   1.017  0.3642  1.0771 -0.8243
  551SOL    HW2 1653   1.193   2.929   0.995  0.5423 -2.5096  1.0819
  552SOL     OW 1654   2.736   2.696   2.224  0.0493  0.0303 -0.3046
  552SOL    HW1 1655   2.707   2.603   2.264  0.5435 -4.2248  2.6552
  552SOL    HW2 1656   2.822   2.693   2.172  0.7976 -0.3624 -3.1007
  553SOL     OW 1657   0.354   3.018   2.038 -0.1600 -0.0478 -0.0936
  553SOL    HW1 1658   0.341   2.917   2.036 -0.7443  0.8184 -1.0208
  553SOL    HW2 1659   0.422   3.037   2.110 -2.7091 -2.0023 -1.2402
  554SOL     OW 1660   0.672   0.006   1.128  0.2683  0.0938 -0.1714
  554SOL    HW1 1661   0.644   0.091   1.177  0.9979 -0.9045  1.1946
  554SOL    HW2 1662   0.691   0.025   1.029 -1.8826  1.3648  1.1873
  555SOL     OW 1663   2.578   2.108   2.135  0.4596 -0.4881  0.3965
  555SOL    HW1 1664   2.563   2.011   2.149  1.2897  1.0746  2.3037
  555SOL    HW2 1665   2.500   2.164   2.177  0.4041  2.0196 -0.5749
  556SOL     OW 1666   1.270   0.220   2.652 -0.2724 -0.2928 -0.3715
  556SOL    HW1 1667   1.185   0.259   2.691 -0.8555 -0.3709  1.4075
  556SOL    HW2 1668   1.252   0.122   2.631  0.1254  0.1245  2.0868
  557SOL     OW 1669   0.394   1.529   2.283 -0.4766  0.5281 -0.1270
  557SOL    HW1 1670   0.340   1.561   2.361 -0.2365 -3.0773  1.9194
  557SOL    HW2 1671   0.494   1.552   2.297  0.3809 -1.5560  0.9337
  558SOL     OW 1672   2.449   0.842   3.083 -0.2127  0.5953  0.4696
  558SOL    HW1 1673   2.500   0.781   3.015 -0.4746 -2.7784  0.4916
  558SOL    HW2 1674   2.459   0.804   0.086  0.3884  1.3544  2.0400
  559SOL     OW 1675   2.530   2.005   1.621  0.2333  0.4215 -0.5089
  559SOL    HW1 1676   2.458   2.053   1.569 -2.4405  3.1217 -2.3919
  559SOL    HW2 1677   2.533   2.039   1.715  0.1334  0.4930 -0.3856
  560SOL     OW 1678   2.458   0.963   1.893 -0.3969 -0.0442 -0.4093
  560SOL    HW1 1679   2.410   0.890   1.842 -0.3742 -0.6922  2.5316
  560SOL    HW2 1680   2.556   0.935   1.904 -1.5051  1.2710  0.3479
  561SOL     OW 1681   3.027   3.026   2.699 -0.6458 -0.2397 -0.8607
  561SOL    HW1 1682   2.980   2.963   2.636 -0.2814 -0.5379  3.0047
  561SOL    HW2 1683   2.976   3.027   2.790 -2.7341  0.5419  1.3872
  562SOL     OW 1684   1.073   1.349   1.435  0.3272  0.6286 -0.3452
  562SOL    HW1 1685   1.150   1.304   1.487  2.3281 -0.4475 -1.2775
  562SOL    HW2 1686   0.986   1.347   1.492 -0.3333  2.0607  2.3710
  563SOL     OW 1687   1.383   0.069   2.893 -0.4367  0.5528 -0.1752
  563SOL    HW1 1688   1.443   3.083   2.847  0.2189 -1.2306 -1.8971
  563SOL    HW2 1689   1.368   0.137   2.822  0.1408 -0.1025  3.4382
  564SOL     OW 1690   0.030   2.292   0.839  0.4857 -0.4718 -0.8284
  564SOL    HW1 1691   0.017   2.295   0.942 -0.1324 -0.0483 -1.7969
  564SOL    HW2 1692   3.044   2.343   0.799 -1.1841  3.9604  1.2451
  565SOL     OW 1693   0.568   2.203   1.290  0.3110  0.4142  0.6549
  565SOL    HW1 1694   0.534   2.299   1.302 -2.6371  1.8975  0.2953
  565SOL    HW2 1695   0.552   2.172   1.195  3.5177  0.5558 -1.7691
  566SOL     OW 1696   1.377   2.547   1.976  0.6725  0.7136 -0.3021
  566SOL    HW1 1697   1.277   2.518   1.970 -0.0464 -2.1553 -1.3406
  566SOL    HW2 1698   1.434   2.478   2.031 -1.4122 -0.2586 -0.1266
  567SOL     OW 1699   2.331   2.660   0.813  0.2294 -0.4554 -0.3748
  567SOL    HW1 1700   2.366   2.749   0.773 -0.6260  1.7212 -2.9557
  567SOL    HW2 1701   2.382   2.581   0.778  0.1349  4.2652  0.3055
  568SOL     OW 1702   1.768   1.058   0.528  0.6958  0.3785  0.0806
  568SOL    HW1 1703   1.782   0.958   0.522  0.2330 -0.2903  0.5776
  568SOL    HW2 1704   1.779   1.102   0.437 -0.4067  1.3319  0.0827
  569SOL     OW 1705   0.035   1.556   2.673  0.1037 -0.0264  0.5144
  569SOL    HW1 1706   0.060   1.589   2.769 -0.5802  0.1930 -0.2211
  569SOL    HW2 1707   0.004   1.462   2.673  1.7755 -2.2013  0.2348
  570SOL     OW 1708   3.003   0.201   1.474 -0.0028 -0.2843  0.0005
  570SOL    HW1 1709   2.952   0.234   1.392 -1.9639 -2.0918  0.7191
  570SOL    HW2 1710   0.009   0.179   1.450 -1.2875 -1.4033  1.8222
  571SOL     OW 1711   0.359   0.473   1.811  0.0985  0.3486 -0.4436
  571SOL    HW1 1712   0.383   0.425   1.902 -0.9091  0.1672  1.2721
  571SOL    HW2 1713   0.344   0.570   1.829  0.3764 -0.3554 -0.7075
  572SOL     OW 1714   0.227   2.480   1.184  0.6716  0.1687  0.0107
  572SOL    HW1 1715   0.158   2.406   1.181  1.6058  3.7288  1.0612
  572SOL    HW2 1716   0.235   2.510   1.285 -0.5376  1.0388  0.5801
  573SOL     OW 1717   0.966   0.402   2.982 -0.1015  0.0499 -0.2661
  573SOL    HW1 1718   0.901   0.471   3.016  0.1620 -1.1953 -0.4528
  573SOL    HW2 1719   0.952   0.312   3.035 -0.7506  1.4654  1.1632
  574SOL     OW 1720   2.821   2.761   3.041 -0.6646  0.0148 -0.9102
  574SOL    HW1 1721   2.878   2.742   0.033  0.7765  0.4139  0.1656
  574SOL    HW2 1722   2.847   2.841   2.990 -0.3005 -1.1372 -1.6632
  575SOL     OW 1723   1.498   2.452   1.195 -0.5129  0.1821 -0.2606
  575SOL    HW1 1724   1.418   2.395   1.177  0.8258 -0.2721 -1.7957
  575SOL    HW2 1725   1.474   2.548   1.193  0.8916 -2.5838  2.7407
  576SOL     OW 1726   1.068   2.834   1.079 -0.2055 -0.2841  0.3928
  576SOL    HW1 1727   1.028   2.768   1.009  0.4993 -3.4928 -3.1176
  576SOL    HW2 1728   0.996   2.886   1.133 -1.9199  2.7301 -0.8764
  577SOL     OW 1729   2.413   1.234   0.726 -0.1590  0.0794 -0.3175
  577SOL    HW1 1730   2.459   1.270   0.641 -2.0482 -1.0439 -0.8924
  577SOL    HW2 1731   2.477   1.194   0.795  0.9721 -0.2436  1.4569
  578SOL     OW 1732   1.440   0.267   0.692 -0.7825 -0.0338 -0.0228
  578SOL    HW1 1733   1.524   0.318   0.666 -1.7877 -0.9250  0.7923
  578SOL    HW2 1734   1.374   0.321   0.746 -0.7510 -2.0572 -2.6542
  579SOL     OW 1735   2.242   0.556   2.983  0.2135 -0.3182 -0.3952
  579SOL    HW1 1736   2.322   0.489   2.967 -0.0007  1.7792 -0.7175
  579SOL    HW2 1737   2.235   0.628   2.913 -1.4852 -0.7351  3.0967
  580SOL     OW 1738   1.643   0.675   2.300 -0.2833  0.0248 -0.1894
  580SOL    HW1 1739   1.719   0.681   2.369  2.4726 -1.0959 -1.2988
  580SOL    HW2 1740   1.563   0.734   2.325 -0.5456 -0.5901  2.2563
  581SOL     OW 1741   0.321   0.810   0.989  0.6674 -0.4477 -0.5790
  581SOL    HW1 1742   0.387   0.857   0.929 -0.4931 -0.9118  0.5539
  581SOL    HW2 1743   0.229   0.814   0.939  0.1953  0.2352 -2.4196
  582SOL     OW 1744   2.846   0.227   1.984  0.1172  0.2142  0.2233
  582SOL    HW1 1745   2.804   0.319   1.971 -1.5096 -0.6110 -1.0491
  582SOL    HW2 1746   2.932   0.216   1.927  0.2531 -0.5518  0.4956
  583SOL     OW 1747   0.440   0.546   2.147  0.9602 -0.1966  0.5225
  583SOL    HW1 1748   0.428   0.541   2.249  0.2072 -0.1935  2.3162
  583SOL    HW2 1749   0.420   0.457   2.101  0.0362 -0.2416 -1.0418
  584SOL     OW 1750   1.301   2.220   2.906  0.6457  0.0781  0.0614
  584SOL    HW1 1751   1.401   2.232   2.886  2.5140 -1.1546  0.5850
  584SOL    HW2 1752   1.278   2.219   3.006  0.1988 -1.0112 -3.1547
  585SOL     OW 1753   0.254   2.710   2.798 -0.1659 -0.1450  0.0630
  585SOL    HW1 1754   0.223   2.690   2.891  1.1999 -1.2358 -3.6278
  585SOL    HW2 1755   0.353   2.687   2.799  0.3060  0.5586  0.3473
  586SOL     OW 1756   1.889   1.789   2.640 -0.8929 -0.1593  0.2581
  586SOL    HW1 1757   1.938   1.868   2.596 -0.7870  0.6995 -1.5501
  586SOL    HW2 1758   1.878   1.712   2.572 -0.9957 -1.2053  2.2402
  587SOL     OW 1759   2.199   2.257   0.190  0.1218 -0.2368 -0.3395
  587SOL    HW1 1760   2.264   2.313   0.137  0.0578  0.7664 -0.9869
  587SOL    HW2 1761   2.207   2.156   0.176  1.2174 -0.3376  0.2456
  588SOL     OW 1762   2.723   0.141   1.112  0.4557  0.6287 -0.4318
  588SOL    HW1 1763   2.732   0.067   1.185  0.9714 -1.6218  1.5539
  588SOL    HW2 1764   2.641   0.121   1.058 -1.1023 -1.5305  0.4070
  589SOL     OW 1765   0.462   0.756   0.606  0.1475  0.1466  0.3321
  589SOL    HW1 1766   0.509   0.717   0.682 -0.6626  3.4363 -1.2839
  589SOL    HW2 1767   0.370   0.712   0.592 -0.4971 -2.3889 -1.1620
  590SOL     OW 1768   2.176   1.990   0.185  0.2027  0.1400 -0.3305
  590SOL    HW1 1769   2.141   1.969   0.280 -4.3710 -0.0361  0.5787
  590SOL    HW2 1770   2.114   1.945   0.114  3.1414 -2.4962 -0.1114
  591SOL     OW 1771   0.452   2.366   1.020  0.0576 -0.1868  0.4919
  591SOL    HW1 1772   0.369   2.401   1.068 -0.7377 -0.4433  1.9357
  591SOL    HW2 1773   0.530   2.428   1.040  0.1430 -1.3772 -3.0280
  592SOL     OW 1774   1.242   0.576   1.384  0.0370 -0.2160  0.3129
  592SOL    HW1 1775   1.154   0.618   1.366  2.6936 -1.4121  0.8183
  592SOL    HW2 1776   1.226   0.481   1.424 -0.9787  0.4332  1.0236
  593SOL     OW 1777   1.098   1.626   1.420  0.1942  0.5223 -0.3443
  593SOL    HW1 1778   1.088   1.522   1.434  0.0163 -2.8629  1.4812
  593SOL    HW2 1779   1.071   1.679   1.502  0.9695  1.0877  1.1695
  594SOL     OW 1780   0.969   2.138   0.477  0.0902 -0.2487 -0.4810
  594SOL    HW1 1781   0.975   2.157   0.376  0.8142  0.9510 -1.0037
  594SOL    HW2 1782   1.022   2.207   0.530  0.7309  2.6483 -1.5061
  595SOL     OW 1783   1.747   0.728   1.419  0.1814 -0.4757 -0.5542
  595SOL    HW1 1784   1.795   0.745   1.505  0.5428 -0.0692 -1.2456
  595SOL    HW2 1785   1.647   0.741   1.430  0.3279 -0.8665  2.6558
  596SOL     OW 1786   2.638   0.767   1.564  0.1125 -0.2107  0.4594
  596SOL    HW1 1787   2.682   0.848   1.601 -0.2699 -0.4232  0.0612
  596SOL    HW2 1788   2.631   0.769   1.464  2.2113 -2.0560  0.4650
  597SOL     OW 1789   0.642   2.460   2.216 -0.1219 -0.4799  0.4685
  597SOL    HW1 1790   0.618   2.511   2.301  0.1910 -0.9316  0.7590
  597SOL    HW2 1791   0.715   2.396   2.236  1.6767  2.5993 -0.2136
  598SOL     OW 1792   2.432   1.750   1.664  0.6101 -0.0453  0.1254
  598SOL    HW1 1793   2.470   1.845   1.653 -0.2519  0.3515  0.4233
  598SOL    HW2 1794   2.334   1.750   1.695  1.0198  1.4459  0.6673
  599SOL     OW 1795   0.783   2.957   0.071  0.3909 -0.8611  0.0556
  599SOL    HW1 1796   0.686   2.958   0.041 -0.6758 -0.5015  2.6113
  599SOL    HW2 1797   0.778   2.954   0.175 -1.1060  2.4305  3.2103
  600SOL     OW 1798   2.994   2.212   2.706 -0.2350  0.3244 -0.2734
  600SOL    HW1 1799   3.012   2.257   2.795 -0.5005 -0.6251  0.8894
  600SOL    HW2 1800   2.934   2.134   2.721 -2.8885  0.2167  0.5247
  601SOL     OW 1801   0.558   0.704   1.412  0.1763 -0.6041 -0.2554
  601SOL    HW1 1802   0.468   0.732   1.372  0.5280 -0.9177 -1.5189
  601SOL    HW2 1803   0.611   0.786   1.445  1.7710  0.4816 -0.1573
  602SOL     OW 1804   0.602   0.420   0.590  0.4169  0.7492 -0.4232
  602SOL    HW1 1805   0.649   0.485   0.655  2.2691  2.2170  2.5842
  602SOL    HW2 1806   0.542   0.350   0.639 -2.2998 -0.4665  1.1382
  603SOL     OW 1807   0.400   0.244   2.798  0.4373  0.2063 -0.2711
  603SOL    HW1 1808   0.303   0.254   2.768 -1.7868  0.7609  3.2612
  603SOL    HW2 1809   0.412   0.281   2.890 -0.3270  0.2977 -0.3510
  604SOL     OW 1810   0.718   2.776   1.381 -0.1653  0.6371 -0.1202
  604SOL    HW1 1811   0.620   2.749   1.398  2.2202  0.4490  0.3990
  604SOL    HW2 1812   0.785   2.704   1.415 -0.6112 -0.2740 -1.2488
  605SOL     OW 1813   1.421   1.136   2.246  0.0160 -0.7647 -0.2468
  605SOL    HW1 1814   1.339   1.145   2.181 -1.8459 -0.0252 -1.7748
  605SOL    HW2 1815   1.513   1.159   2.202 -2.5740  1.0514  0.6603
  606SOL     OW 1816   2.183   2.787   2.990 -0.0093 -0.8533  0.1522
  606SOL    HW1 1817   2.214   2.773   3.086 -0.0109  0.6371 -0.7838
  606SOL    HW2 1818   2.250   2.759   2.917  0.1083  3.8233 -2.5932
  607SOL     OW 1819   1.100   0.236   1.257 -0.0096 -0.0661  0.3033
  607SOL    HW1 1820   1.066   0.210   1.345  2.1351  1.2762 -2.2240
  607SOL    HW2 1821   1.078   0.158   1.194 -2.7766  0.0510  0.4214
  608SOL     OW 1822   0.199   1.597   2.467  0.1257  0.0644  0.3969
  608SOL    HW1 1823   0.265   1.657   2.516 -0.6574 -0.7457 -1.3973
  608SOL    HW2 1824   0.134   1.562   2.539 -1.0330 -1.1982  1.6142
  609SOL     OW 1825   1.375   1.330   0.259 -0.0958 -0.7076  0.6608
  609SOL    HW1 1826   1.413   1.430   0.260 -0.5445 -1.3977 -1.1451
  609SOL    HW2 1827   1.291   1.338   0.205 -0.4241 -0.3315  1.8979
  610SOL     OW 1828   3.084   0.383   1.037  0.3127  0.0829  0.4298
  610SOL    HW1 1829   0.005   0.297   0.975  0.0110 -1.3590 -1.0918
  610SOL    HW2 1830   0.069   0.390   1.098 -2.2850  0.3855 -3.7486
  611SOL     OW 1831   1.310   1.067   0.609 -0.5014 -0.4624 -0.3151
  611SOL    HW1 1832   1.310   1.163   0.567 -2.0400 -0.2805 -0.1383
  611SOL    HW2 1833   1.233   1.016   0.571  0.7830  1.2932  0.8017
  612SOL     OW 1834   2.093   1.489   0.175 -0.2681 -0.1961  0.4444
  612SOL    HW1 1835   2.010   1.464   0.218  2.8018 -0.3011  0.7782
  612SOL    HW2 1836   2.140   1.560   0.234 -0.6444 -2.1164  1.3632
  613SOL     OW 1837   1.504   0.921   0.138 -0.8969  0.2065  0.8045
  613SOL    HW1 1838   1.517   0.874   0.049  1.3329  1.2730 -2.4326
  613SOL    HW2 1839   1.555   1.012   0.138  0.0968  1.1295  1.5991
  614SOL     OW 1840   2.740   0.137   2.299 -0.3587  0.2106 -0.5047
  614SOL    HW1 1841   2.835   0.156   2.271 -1.9007 -2.4220 -0.2142
  614SOL    HW2 1842   2.724   0.037   2.280 -0.3897 -0.8314  1.5672
  615SOL     OW 1843   0.758   2.080   1.010 -0.0890 -0.6872  0.5148
  615SOL    HW1 1844   0.778   1.985   0.977 -2.6629  1.6266 -0.0459
  615SOL    HW2 1845   0.657   2.100   1.001  0.8035 -1.2241  0.1492
  616SOL     OW 1846   1.727   1.033   2.671 -0.2838  0.0336  0.6082
  616SOL    HW1 1847   1.706   1.119   2.619 -0.1162  1.7245 -1.9566
  616SOL    HW2 1848   1.801   0.984   2.620  1.4913  0.4226  1.2242
  617SOL     OW 1849   1.116   0.290   0.207  0.7884 -0.0110 -0.1850
  617SOL    HW1 1850   1.140   0.386   0.221 -1.5905  1.7567 -1.0938
  617SOL    HW2 1851   1.194   0.240   0.168  0.1210 -1.8897 -1.0606
  618SOL     OW 1852   2.320   2.005   2.388 -0.1238  0.3050  0.4106
  618SOL    HW1 1853   2.252   2.049   2.330  0.4624  0.2840  1.5066
  618SOL    HW2 1854   2.314   2.030   2.486  1.7894 -1.1132  0.7739
  619SOL     OW 1855   2.143   1.905   0.819  0.5270 -0.3842  0.5775
  619SOL    HW1 1856   2.113   1.997   0.858  3.0587 -0.0411  0.7028
  619SOL    HW2 1857   2.059   1.848   0.816 -0.5103 -2.5155 -0.0684
  620SOL     OW 1858   2.232   2.692   1.792  0.5214 -0.1712 -0.4424
  620SOL    HW1 1859   2.331   2.678   1.793 -4.6243  1.2576 -2.4314
  620SOL    HW2 1860   2.181   2.623   1.847  0.2859 -1.7523 -0.7693
  621SOL     OW 1861   2.974   1.791   0.893 -0.1269 -0.2667  0.1002
  621SOL    HW1 1862   2.969   1.741   0.802  1.6099 -0.0567  1.5454
  621SOL    HW2 1863   3.045   1.863   0.899  0.5366 -0.3458 -0.9398
  622SOL     OW 1864   1.054   1.808   2.887 -0.1070 -0.3708  0.0005
  622SOL    HW1 1865   1.020   1.868   2.812 -0.7572 -0.0397  1.8982
  622SOL    HW2 1866   1.089   1.868   2.963 -0.3432  0.9284  1.7418
  623SOL     OW 1867   2.691   2.380   2.361  0.0702  0.1948 -0.4924
  623SOL    HW1 1868   2.706   2.379   2.260 -0.3009 -1.7169 -1.5704
  623SOL    HW2 1869   2.728   2.301   2.409 -1.5772  1.7235  0.7245
  624SOL     OW 1870   0.773   2.443   0.424 -0.3123 -0.1965  0.1410
  624SOL    HW1 1871   0.816   2.465   0.517  0.1343 -0.2349 -0.5333
  624SOL    HW2 1872   0.705   2.367   0.427 -0.1240 -1.2356 -0.0160
  625SOL     OW 1873   0.318   1.812   2.100  0.6966  0.2033  0.5004
  625SOL    HW1 1874   0.272   1.733   2.142  2.2142 -1.1491  1.0267
  625SOL    HW2 1875   0.411   1.824   2.138  0.1155 -2.0584 -0.4265
  626SOL     OW 1876   0.487   2.808   0.145 -0.5065 -0.3150  0.1268
  626SOL    HW1 1877   0.562   2.745   0.169 -0.7724 -2.8282  0.8819
  626SOL    HW2 1878   0.415   2.813   0.218  0.6551  1.7683  1.8484
  627SOL     OW 1879   1.592   1.675   3.036 -0.4118  0.0281  0.0392
  627SOL    HW1 1880   1.620   1.696   2.941 -1.4240  0.7339  1.7353
  627SOL    HW2 1881   1.615   1.751   0.013  0.7407  2.5608 -1.1942
  628SOL     OW 1882   1.463   2.268   0.832  0.0867 -0.5390  0.0316
  628SOL    HW1 1883   1.421   2.189   0.881 -1.8018  0.7839  0.9143
  628SOL    HW2 1884   1.528   2.314   0.898  0.5510 -0.7865 -0.5439
  629SOL     OW 1885   0.631   0.261   1.768 -0.4349 -0.6802 -0.6482
  629SOL    HW1 1886   0.572   0.253   1.846  3.8181 -0.7512 -2.8189
  629SOL    HW2 1887   0.707   0.204   1.794 -2.3806  1.9574 -1.2915
  630SOL     OW 1888   2.394   0.475   1.508 -0.2686 -0.2522  0.1354
  630SOL    HW1 1889   2.294   0.480   1.506  1.9816 -0.3125  0.1400
  630SOL    HW2 1890   2.430   0.503   1.420 -0.0636  0.0807  2.4598
  631SOL     OW 1891   1.541   0.436   1.178 -0.8988 -0.1237  0.2502
  631SOL    HW1 1892   1.556   0.503   1.102  3.1113  1.0112  0.2327
  631SOL    HW2 1893   1.438   0.428   1.191 -1.8018  0.0427 -0.1015
  632SOL     OW 1894   2.731   0.905   1.883  0.2119  0.2865 -0.1306
  632SOL    HW1 1895   2.771   0.942   1.800 -2.6810 -0.7409 -0.4002
  632SOL    HW2 1896   2.798   0.888   1.956  0.0435  1.1725 -1.0697
  633SOL     OW 1897   1.230   0.767   2.949  0.0406 -0.4162  0.3687
  633SOL    HW1 1898   1.269   0.677   2.976 -1.2293  0.8477 -0.2815
  633SOL    HW2 1899   1.171   0.812   3.019 -0.9397 -1.2613  3.0683
  634SOL     OW 1900   0.433   2.499   0.101  0.4044  0.0383 -0.3823
  634SOL    HW1 1901   0.505   2.543   0.163 -1.3598  2.7785  1.6743
  634SOL    HW2 1902   0.475   2.417   0.052 -1.0489  1.1826 -0.5213
  635SOL     OW 1903   2.840   1.823   1.610 -0.1395  0.8978  0.4882
  635SOL    HW1 1904   2.770   1.762   1.565 -0.3641  0.4800 -0.2276
  635SOL    HW2 1905   2.884   1.766   1.679 -2.3624 -0.7885 -2.6233
  636SOL     OW 1906   2.977   1.687   0.126 -0.1659 -0.0554 -0.4648
  636SOL    HW1 1907   3.043   1.617   0.089 -2.3654 -0.8805  1.1542
  636SOL    HW2 1908   3.023   1.782   0.139 -0.6005  0.0688  1.8825
  637SOL     OW 1909   2.808   2.512   0.499  0.7689 -0.3929  0.3897
  637SOL    HW1 1910   2.817   2.603   0.544  0.6180  0.2107 -0.8845
  637SOL    HW2 1911   2.857   2.444   0.557 -0.0249  0.9526 -2.5264
  638SOL     OW 1912   2.980   2.740   0.160 -0.3100 -0.1923  0.2619
  638SOL    HW1 1913   2.992   2.647   0.205  0.0761  1.2811  0.6642
  638SOL    HW2 1914   3.070   2.794   0.172  0.4463  2.4922 -0.4262
  639SOL     OW 1915   1.544   0.265   3.010  0.2450 -0.2689 -0.0296
  639SOL    HW1 1916   1.498   0.332   3.071 -1.0774 -1.3829  2.7777
  639SOL    HW2 1917   1.472   0.221   2.952 -2.5696 -1.4446 -0.1252
  640SOL     OW 1918   2.256   2.107   1.458 -0.3525 -0.2709 -0.2568
  640SOL    HW1 1919   2.255   2.123   1.355  0.6666  1.2921 -1.8030
  640SOL    HW2 1920   2.236   2.198   1.506  0.2862  1.8275  1.0396
  641SOL     OW 1921   2.951   2.966   1.081  0.2087  0.2702 -0.7048
  641SOL    HW1 1922   2.876   3.004   1.137  2.3869 -1.2838 -3.0971
  641SOL    HW2 1923   2.955   3.013   0.989 -0.4295  0.7888  1.0784
  642SOL     OW 1924   1.637   1.131   1.389 -0.5799  0.1763  0.4737
  642SOL    HW1 1925   1.700   1.191   1.335 -2.7478 -0.5424  1.8847
  642SOL    HW2 1926   1.675   1.125   1.485  3.4854 -1.4789  1.7593
  643SOL     OW 1927   0.997   1.865   2.395  0.5974 -0.1108  0.1689
  643SOL    HW1 1928   1.090   1.868   2.358 -0.2582  0.6150  1.2833
  643SOL    HW2 1929   0.935   1.918   2.330 -0.6956 -0.9081  1.0020
  644SOL     OW 1930   1.856   3.083   2.194 -0.4993 -0.5603 -0.1353
  644SOL    HW1 1931   1.861   3.063   2.295  1.3555 -2.9169 -0.1227
  644SOL    HW2 1932   1.767   0.033   2.168 -0.9076  4.6597  0.7253
  645SOL     OW 1933   1.562   1.118   1.846  0.7980  0.2349  0.0262
  645SOL    HW1 1934   1.462   1.105   1.824 -1.6902  1.7501  0.5439
  645SOL    HW2 1935   1.626   1.094   1.769  1.6325 -1.2622  0.9026
  646SOL     OW 1936   1.184   2.519   2.953  0.5526  0.1548  0.4753
  646SOL    HW1 1937   1.171   2.539   2.854 -3.3121  2.6332  0.6357
  646SOL    HW2 1938   1.283   2.522   2.975 -0.6916  3.0963  0.6905
  647SOL     OW 1939   1.239   2.325   1.120  0.4244  0.0501  0.0432
  647SOL    HW1 1940   1.145   2.338   1.072 -0.9336  2.2973 -1.7911
  647SOL    HW2 1941   1.237   2.233   1.162  0.1925  0.3563 -0.7583
  648SOL     OW 1942   2.959   2.752   1.241 -0.6213 -0.4323 -0.1406
  648SOL    HW1 1943   3.059   2.747   1.271  0.2291  0.0647  1.5601
  648SOL    HW2 1944   2.947   2.834   1.178  2.9354  0.4037  1.0260
  649SOL     OW 1945   0.888   2.433   2.711  0.2724  0.3867  0.1370
  649SOL    HW1 1946   0.927   2.340   2.709 -3.2480 -0.8342  0.2448
  649SOL    HW2 1947   0.802   2.426   2.767 -1.1940 -1.7800  1.3749
  650SOL     OW 1948   2.983   1.808   2.913 -0.1232 -0.1249  0.5642
  650SOL    HW1 1949   2.906   1.739   2.926  0.0058 -1.1045  2.5228
  650SOL    HW2 1950   3.073   1.757   2.926 -1.2816 -0.9944  1.4816
  651SOL     OW 1951   2.354   2.306   2.084  0.3687 -0.5738  0.4286
  651SOL    HW1 1952   2.275   2.250   2.121 -0.5433 -1.9392 -0.5270
  651SOL    HW2 1953   2.344   2.305   1.980 -1.5617  2.0309 -2.2056
  652SOL     OW 1954   2.295   2.707   1.092  0.2825  0.1636 -0.1110
  652SOL    HW1 1955   2.342   2.775   1.149  0.7211  1.3787 -2.2659
  652SOL    HW2 1956   2.334   2.679   0.998 -0.1245  0.4019 -1.0201
  653SOL     OW 1957   2.936   1.228   1.273  0.4543 -0.0142 -0.2713
  653SOL    HW1 1958   2.846   1.271   1.292  1.8994 -1.9104 -0.2053
  653SOL    HW2 1959   2.957   1.234   1.172 -1.9259  0.9488  0.7837
  654SOL     OW 1960   1.004   0.299   2.724 -0.6664  0.1398  0.0025
  654SOL    HW1 1961   0.986   0.376   2.663  3.4634 -0.2658  0.6573
  654SOL    HW2 1962   0.976   0.324   2.819  0.8442  1.6582  0.2804
  655SOL     OW 1963   1.049   0.555   1.015 -0.0331 -0.0189 -0.7019
  655SOL    HW1 1964   0.998   0.539   1.100  1.3925 -1.0129  0.2445
  655SOL    HW2 1965   1.148   0.530   1.024  1.0436  1.4075  2.4653
  656SOL     OW 1966   0.547   2.420   1.958  0.3026 -0.2122  0.1262
  656SOL    HW1 1967   0.448   2.402   1.943  2.1220 -1.0585  1.2076
  656SOL    HW2 1968   0.570   2.443   2.055 -1.3555  2.1546 -2.3140
  657SOL     OW 1969   2.449   1.031   0.224  0.4532 -0.0293 -0.3816
  657SOL    HW1 1970   2.475   0.991   0.132  1.0723  0.9064  0.1973
  657SOL    HW2 1971   2.503   1.119   0.241  1.1882  4.4050 -0.3872
  658SOL     OW 1972   1.670   2.154   1.428  0.0227  0.0303  0.5282
  658SOL    HW1 1973   1.728   2.198   1.499 -3.4235  1.8438 -1.1397
  658SOL    HW2 1974   1.716   2.149   1.339  0.7317 -1.8697  1.9441
  659SOL     OW 1975   2.635   1.810   0.043  0.0839 -0.0287 -0.5032
  659SOL    HW1 1976   2.718   1.762   0.010  0.3331 -0.3927 -0.5468
  659SOL    HW2 1977   2.557   1.750   0.077 -0.3878  0.5690 -0.7212
  660SOL     OW 1978   1.025   0.325   0.679  0.0492 -0.3737 -0.0445
  660SOL    HW1 1979   1.069   0.243   0.631  0.7022 -0.1959  3.0026
  660SOL    HW2 1980   1.009   0.403   0.613 -0.1164  1.0515  0.5303
  661SOL     OW 1981   1.753   0.252   0.355  0.0533  0.0433  0.3816
  661SOL    HW1 1982   1.653   0.256   0.325 -1.4356 -2.3930 -1.4824
  661SOL    HW2 1983   1.813   0.313   0.308  0.5486 -3.8020  2.1776
  662SOL     OW 1984   0.389   0.297   0.726 -0.3170 -0.0119 -0.0517
  662SOL    HW1 1985   0.335   0.366   0.779  0.7729 -0.0325  0.8531
  662SOL    HW2 1986   0.335   0.215   0.713  0.2891  2.1366  0.8388
  663SOL     OW 1987   1.324   2.870   2.194 -0.3359  0.0126 -0.1724
  663SOL    HW1 1988   1.291   2.956   2.239  0.1622  1.6580 -1.0097
  663SOL    HW2 1989   1.276   2.788   2.230  1.5609  0.8232  1.3093
  664SOL     OW 1990   0.750   2.209   1.543  0.0564  0.1554  0.1530
  664SOL    HW1 1991   0.722   2.273   1.614  1.9828  1.2259 -2.1192
  664SOL    HW2 1992   0.672   2.174   1.488  2.1194  0.9714 -2.9911
  665SOL     OW 1993   1.110   2.205   1.822 -0.1446 -0.0883  0.0597
  665SOL    HW1 1994   1.071   2.295   1.802  1.7210  0.5286  3.2783
  665SOL    HW2 1995   1.204   2.194   1.786  0.5319  0.7149  0.3792
  666SOL     OW 1996   0.736   2.944   2.499 -0.5345 -0.4744  0.2492
  666SOL    HW1 1997   0.682   2.892   2.431  0.1240 -2.2335 -4.1083
  666SOL    HW2 1998   0.777   3.026   2.449  0.4549  3.0646 -1.7884
  667SOL     OW 1999   2.504   1.052   1.448 -0.1603 -0.8448  0.2231
  667SOL    HW1 2000   2.433   1.088   1.385  2.5769  0.4991  1.7608
  667SOL    HW2 2001   2.538   1.126   1.514  1.8759  0.6096 -3.2055
  668SOL     OW 2002   1.782   0.154   1.813 -0.8271  0.2029 -0.9372
  668SOL    HW1 2003   1.842   0.082   1.853  0.1853 -1.8609 -0.0695
  668SOL    HW2 2004   1.687   0.134   1.833  1.3736 -0.8871  2.4035
  669SOL     OW 2005   2.552   2.797   1.171  0.4542  0.6434  0.2040
  669SOL    HW1 2006   2.527   2.743   1.252 -1.0932  1.3372 -1.6023
  669SOL    HW2 2007   2.559   2.741   1.086 -2.4911  1.8702  0.9519
  670SOL     OW 2008   1.406   2.461   2.625  0.3539  0.3695 -0.6674
  670SOL    HW1 2009   1.313   2.497   2.639  4.1020 -1.5022  1.5960
  670SOL    HW2 2010   1.417   2.452   2.526 -0.2929  0.6495  1.6893
  671SOL     OW 2011   0.539   1.144   0.472  0.1558 -0.1944 -0.4424
  671SOL    HW1 2012   0.580   1.203   0.401  2.6883  2.5534 -2.3753
  671SOL    HW2 2013   0.437   1.134   0.450 -1.0651  0.1832 -3.0372
  672SOL     OW 2014   2.751   0.974   3.037 -0.5395  0.2392  0.0281
  672SOL    HW1 2015   2.760   1.029   0.030 -0.1934 -3.0986 -2.7804
  672SOL    HW2 2016   2.772   0.876   3.048  2.0780  0.5705 -0.2256
  673SOL     OW 2017   0.171   2.045   1.400  0.3279  0.2210 -0.0514
  673SOL    HW1 2018   0.100   2.117   1.431  1.4107 -1.1165  0.5751
  673SOL    HW2 2019   0.160   1.960   1.456 -0.6557  0.2608 -0.3391
  674SOL     OW 2020   1.005   2.209   2.079  0.2717  0.3562  0.2541
  674SOL    HW1 2021   1.074   2.265   2.129 -0.1910  0.1745 -0.7990
  674SOL    HW2 2022   1.002   2.223   1.977  1.0275  2.6140 -2.6208
  675SOL     OW 2023   1.235   1.043   1.414  0.0475 -0.2985 -0.0098
  675SOL    HW1 2024   1.230   0.988   1.501  1.1589 -0.7929  3.3544
  675SOL    HW2 2025   1.140   1.055   1.379 -0.7704  1.2110  1.7041
  676SOL     OW 2026   2.042   0.230   1.169  0.7901  0.3157 -0.6347
  676SOL    HW1 2027   1.989   0.314   1.154 -0.9558 -1.1814 -0.5624
  676SOL    HW2 2028   1.983   0.163   1.224 -0.0604  0.5520 -0.6204
  677SOL     OW 2029   2.980   0.709   0.186 -0.0357  0.0879 -0.1011
  677SOL    HW1 2030   2.921   0.627   0.181  0.2373 -1.4053  0.4772
  677SOL    HW2 2031   2.959   0.765   0.266 -0.7136 -0.6509  1.3109
  678SOL     OW 2032   2.541   1.336   1.049  0.2562  0.5483  0.1513
  678SOL    HW1 2033   2.613   1.317   0.984 -1.0385  0.6036 -2.4363
  678SOL    HW2 2034   2.458   1.284   1.027  2.0730  5.6906 -0.9715
  679SOL     OW 2035   2.590   0.662   2.910  1.1451 -0.4398 -0.2683
  679SOL    HW1 2036   2.577   0.642   2.811 -1.0711  1.3802 -2.2330
  679SOL    HW2 2037   2.686   0.685   2.934 -2.3733  0.3904  2.4233
  680SOL     OW 2038   0.493   1.237   2.025 -0.4349 -0.9616  0.8424
  680SOL    HW1 2039   0.491   1.204   2.123 -2.0387 -0.2436 -0.6795
  680SOL    HW2 2040   0.444   1.328   2.009 -0.8121 -0.4469  0.2054
  681SOL     OW 2041   2.722   2.117   1.425 -0.2796 -0.3005 -0.1597
  681SOL    HW1 2042   2.699   2.082   1.521 -0.5761 -2.4850  0.2227
  681SOL    HW2 2043   2.745   2.041   1.365 -1.9574 -2.8735  3.0959
  682SOL     OW 2044   0.103   2.075   3.005 -0.3729 -0.1289 -0.0079
  682SOL    HW1 2045   0.057   2.165   3.018 -0.1108 -1.7543  2.1348
  682SOL    HW2 2046   0.097   2.059   2.905  1.9313  0.6468 -0.9824
  683SOL     OW 2047   2.811   2.221   0.905 -0.0550  0.0093  0.2436
  683SOL    HW1 2048   2.782   2.125   0.932 -2.9796 -1.3899 -1.2624
  683SOL    HW2 2049   2.780   2.289   0.978 -0.3283  1.4971  1.9224
  684SOL     OW 2050   2.622   1.141   2.156  0.6346  0.8743  0.2713
  684SOL    HW1 2051   2.672   1.144   2.069 -1.6080 -0.7665  0.9161
  684SOL    HW2 2052   2.584   1.228   2.176 -0.1238 -1.0580 -1.1715
  685SOL     OW 2053   1.323   0.648   0.829  0.2527 -0.0895 -0.8063
  685SOL    HW1 2054   1.290   0.553   0.831  1.8813  1.9901  1.2382
  685SOL    HW2 2055   1.304   0.692   0.919 -1.3777  3.4620  1.3570
  686SOL     OW 2056   0.647   0.349   0.105  0.6055  0.1234  0.3141
  686SOL    HW1 2057   0.692   0.430   0.064  0.1667 -0.2661  0.1754
  686SOL    HW2 2058   0.669   0.343   0.204  1.9073 -2.0936  0.2884
  687SOL     OW 2059   0.396   2.166   2.463  0.3035 -0.0966 -0.1288
  687SOL    HW1 2060   0.412   2.220   2.372  2.6226 -1.8584 -2.7512
  687SOL    HW2 2061   0.297   2.150   2.479 -0.3278  2.2595  3.5957
  688SOL     OW 2062   2.071   0.218   1.646 -0.8174 -0.4234 -0.0923
  688SOL    HW1 2063   2.137   0.255   1.573 -1.3642 -0.4060 -0.3687
  688SOL    HW2 2064   1.974   0.227   1.613 -0.9740 -0.6637  1.1307
  689SOL     OW 2065   1.778   0.940   1.015 -0.0772 -0.3855 -0.6702
  689SOL    HW1 2066   1.828   1.016   1.067 -1.6323 -0.6700  0.8405
  689SOL    HW2 2067   1.684   0.968   0.992  0.9106  0.5913  1.6518
  690SOL     OW 2068   2.918   0.970   1.375 -0.3212  0.0744  0.4417
  690SOL    HW1 2069   2.942   1.072   1.353 -0.6753  1.6713  1.2239
  690SOL    HW2 2070   2.870   0.929   1.295 -0.4502 -0.6378 -1.7338
  691SOL     OW 2071   2.874   1.248   1.659  0.4206  0.4913  0.1241
  691SOL    HW1 2072   2.945   1.293   1.597 -2.4621 -5.1997 -0.1687
  691SOL    HW2 2073   2.822   1.319   1.709  0.9201 -0.0713 -0.5059
  692SOL     OW 2074   1.004   0.476   1.855 -0.8782 -0.0654 -0.1828
  692SOL    HW1 2075   1.102   0.456   1.827  0.4663 -1.7616  0.2751
  692SOL    HW2 2076   0.934   0.446   1.781 -2.3488  0.6127 -0.7000
  693SOL     OW 2077   0.712   1.287   2.418 -1.0090  0.2459  0.3526
  693SOL    HW1 2078   0.789   1.341   2.378 -1.5944 -1.2796  2.6565
  693SOL    HW2 2079   0.641   1.270   2.351  1.1423  1.1968  2.4033
  694SOL     OW 2080   1.658   1.567   0.464 -0.3035 -0.0129  0.3867
  694SOL    HW1 2081   1.616   1.527   0.546 -1.2810  1.2135 -0.0077
  694SOL    HW2 2082   1.594   1.566   0.385 -0.1926 -3.2615 -0.0188
  695SOL     OW 2083   0.549   1.172   1.335  0.2390  0.0021 -0.1464
  695SOL    HW1 2084   0.450   1.151   1.334  1.6157 -1.7463 -3.1574
  695SOL    HW2 2085   0.582   1.217   1.419 -3.1611 -0.5311 -0.8242
  696SOL     OW 2086   0.171   2.980   0.415  0.7003  0.1656  0.1071
  696SOL    HW1 2087   0.103   2.975   0.495 -3.0319 -1.6685  1.3790
  696SOL    HW2 2088   0.246   2.912   0.425 -0.6804 -0.6988  0.6291
  697SOL     OW 2089   1.894   0.490   1.157  0.5808  0.5753  0.3103
  697SOL    HW1 2090   1.911   0.589   1.146  1.3038 -0.1331  0.6855
  697SOL    HW2 2091   1.815   0.463   1.216 -3.0329  1.6982  0.3482
  698SOL     OW 2092   1.734   1.443   1.627  0.0746  0.1216 -0.9800
  698SOL    HW1 2093   1.787   1.529   1.637  0.3378 -0.1462 -0.4691
  698SOL    HW2 2094   1.810   1.369   1.629  0.3313 -1.6203  1.4346
  699SOL     OW 2095   0.149   0.308   2.200 -0.4363  0.2859 -0.3775
  699SOL    HW1 2096   0.116   0.405   2.214 -1.8852  0.5095 -2.1203
  699SOL    HW2 2097   0.069   0.241   2.214  0.5548  0.9671  0.5961
  700SOL     OW 2098   1.320   2.662   0.879  0.2301  0.1759 -0.0565
  700SOL    HW1 2099   1.417   2.651   0.910  0.5914  0.3771  2.4096
  700SOL    HW2 2100   1.313   2.753   0.828 -0.1472  0.9630  1.0764
  701SOL     OW 2101   0.275   1.280   2.414 -0.6527 -0.2818  0.1306
  701SOL    HW1 2102   0.280   1.370   2.358  1.6950  3.4451 -0.4199
  701SOL    HW2 2103   0.314   1.296   2.512  1.6226 -0.9567  1.8947
  702SOL     OW 2104   0.406   0.328   3.059 -0.2856  0.2012 -0.1159
  702SOL    HW1 2105   0.334   0.388   0.006 -1.2285  0.6720 -0.3809
  702SOL    HW2 2106   0.491   0.337   0.025  0.5854  2.0258  1.8801
  703SOL     OW 2107   1.888   0.001   2.471 -0.1456  0.3124  0.0087
  703SOL    HW1 2108   1.973   3.051   2.511  0.7027 -2.1801  1.4344
  703SOL    HW2 2109   1.902   0.101   2.464  0.0457 -0.7242 -1.7581
  704SOL     OW 2110   2.569   1.867   0.605  0.1084 -0.1695 -0.1009
  704SOL    HW1 2111   2.480   1.915   0.631  2.5237  0.8353 -0.9471
  704SOL    HW2 2112   2.627   1.928   0.538  0.3438  0.9835 -1.1234
  705SOL     OW 2113   2.785   2.044   1.904 -0.1459 -0.0507 -0.0911
  705SOL    HW1 2114   2.762   1.966   1.962  1.1004 -1.2393 -0.0632
  705SOL    HW2 2115   2.704   2.097   1.876 -0.2802 -2.7297  2.2499
  706SOL     OW 2116   2.832   2.680   0.850  0.0439 -0.2700  0.2296
  706SOL    HW1 2117   2.916   2.675   0.904 -0.0690  0.3867 -0.5880
  706SOL    HW2 2118   2.844   2.731   0.764 -0.5193 -2.8014  0.8065
  707SOL     OW 2119   0.802   3.007   0.353  0.5442 -0.5961 -0.2952
  707SOL    HW1 2120   0.881   2.934   0.369  3.1056 -2.6803 -0.4737
  707SOL    HW2 2121   0.839   0.004   0.319 -0.0337 -1.1561 -0.2698
  708SOL     OW 2122   0.457   2.036   1.447  0.2658  0.0309  0.4091
  708SOL    HW1 2123   0.356   2.043   1.432 -1.2025  0.7533  0.5379
  708SOL    HW2 2124   0.504   2.080   1.367  0.5098 -2.9985  2.9393
  709SOL     OW 2125   1.530   2.795   2.042  0.0883  0.0278  0.1677
  709SOL    HW1 2126   1.499   2.711   2.001  1.6090 -0.0584  1.1041
  709SOL    HW2 2127   1.460   2.824   2.109 -0.7900 -0.8451 -1.9053
  710SOL     OW 2128   1.616   2.625   2.457 -0.0118 -0.1514  0.1475
  710SOL    HW1 2129   1.607   2.637   2.560  0.5028  1.4363 -0.0882
  710SOL    HW2 2130   1.629   2.714   2.409  0.8771  1.6711  0.9492
  711SOL     OW 2131   1.151   2.583   2.693 -0.6357  0.8074  0.0586
  711SOL    HW1 2132   1.126   2.679   2.670  0.4509 -2.2353 -4.0519
  711SOL    HW2 2133   1.068   2.521   2.679 -1.6818  2.3464 -0.5129
  712SOL     OW 2134   1.086   2.238   2.714  0.1463  0.1587  0.3434
  712SOL    HW1 2135   1.174   2.249   2.764  0.4013  1.4534 -1.3788
  712SOL    HW2 2136   1.054   2.139   2.717  0.2797 -2.5175 -0.2303
  713SOL     OW 2137   1.306   1.125   1.767  0.1167 -0.0683  0.1766
  713SOL    HW1 2138   1.312   1.194   1.695 -0.1735  0.8083  1.8391
  713SOL    HW2 2139   1.258   1.042   1.736 -0.6698 -0.8243 -1.2490
  714SOL     OW 2140   1.412   1.468   1.148  0.7306  0.2452  0.1227
  714SOL    HW1 2141   1.381   1.386   1.203 -1.4086 -2.7119 -0.0979
  714SOL    HW2 2142   1.493   1.512   1.189 -2.5393  1.6124  1.7959
  715SOL     OW 2143   2.615   2.923   0.464 -0.8845  0.4913  0.2550
  715SOL    HW1 2144   2.700   2.900   0.408  0.7801  2.0621 -0.5495
  715SOL    HW2 2145   2.537   2.854   0.465 -0.6304  1.2544 -1.6574
  716SOL     OW 2146   0.667   2.868   0.860  0.0876  0.7194  0.2989
  716SOL    HW1 2147   0.699   2.771   0.848  0.8686 -2.5297  0.1659
  716SOL    HW2 2148   0.583   2.860   0.922 -0.6599 -2.9047 -0.6059
  717SOL     OW 2149   3.034   0.382   0.123  0.0849 -0.2276 -0.1253
  717SOL    HW1 2150   2.966   0.333   0.060 -1.0934  0.4212 -1.2715
  717SOL    HW2 2151   3.051   0.329   0.210  1.0057  1.8649 -0.4286
  718SOL     OW 2152   1.596   1.628   1.301  0.2011 -0.4196 -0.0444
  718SOL    HW1 2153   1.692   1.628   1.304 -1.3720 -1.2628 -0.6517
  718SOL    HW2 2154   1.562   1.726   1.290 -0.2387 -1.1832  0.0165
  719SOL     OW 2155   3.008   2.516   0.322 -0.0421 -0.6003 -0.4474
  719SOL    HW1 2156   3.043   2.419   0.323  1.3557 -1.9076  0.5152
  719SOL    HW2 2157   2.914   2.518   0.371 -2.3117 -0.9604  0.7646
  720SOL     OW 2158   1.138   0.945   1.020 -0.7040  0.3098 -0.0265
  720SOL    HW1 2159   1.189   0.869   1.062  0.5438 -0.0242  1.0534
  720SOL    HW2 2160   1.194   1.014   0.969  0.2748  1.2174 -1.1820
  721SOL     OW 2161   1.681   0.164   1.152 -0.0748 -0.3169  0.8290
  721SOL    HW1 2162   1.637   0.260   1.150 -1.6570  2.2699 -3.8107
  721SOL    HW2 2163   1.645   0.104   1.225  1.4013 -1.1463 -1.4916
  722SOL     OW 2164   1.037   1.652   2.175 -0.5353 -0.4419  0.6631
  722SOL    HW1 2165   0.946   1.672   2.129 -3.2984  1.7258 -0.2666
  722SOL    HW2 2166   1.088   1.737   2.200  0.7224  2.8863  0.3443
  723SOL     OW 2167   0.950   0.006   1.593 -0.8696  0.4492  0.6049
  723SOL    HW1 2168   0.967   0.095   1.547  0.2020 -4.5248  0.6077
  723SOL    HW2 2169   1.014   3.028   1.561 -1.0349 -1.3087  1.4682
  724SOL     OW 2170   1.755   2.034   2.062  0.1843  0.5202  0.3132
  724SOL    HW1 2171   1.718   1.997   1.976 -0.3491 -2.7559  0.8834
  724SOL    HW2 2172   1.839   1.982   2.080 -1.9270  1.1116 -1.7859
  725SOL     OW 2173   1.323   2.831   1.398 -0.5614 -0.1246 -0.3951
  725SOL    HW1 2174   1.411   2.820   1.450  1.5807 -1.0179  0.2326
  725SOL    HW2 2175   1.331   2.767   1.324  1.6219  0.0686  1.9751
  726SOL     OW 2176   1.639   2.833   0.032  0.1629 -0.0777 -0.3596
  726SOL    HW1 2177   1.616   2.931   0.044  0.0726  0.8814  0.8837
  726SOL    HW2 2178   1.736   2.820   0.066  1.1822  0.2440  0.9930
  727SOL     OW 2179   1.357   1.723   0.690  0.3726  0.1497  0.1531
  727SOL    HW1 2180   1.277   1.779   0.718  0.5702 -1.1292  0.3241
  727SOL    HW2 2181   1.414   1.696   0.771  1.5707  0.5487  1.0603
  728SOL     OW 2182   1.934   2.725   2.337  0.1839  0.1080 -0.1149
  728SOL    HW1 2183   1.849   2.782   2.346 -1.7633 -1.1923  1.0173
  728SOL    HW2 2184   1.996   2.745   2.419 -1.4886  0.7144  2.8215
  729SOL     OW 2185   2.114   1.894   1.510 -0.2987  0.4128  0.0044
  729SOL    HW1 2186   2.192   1.961   1.504  3.4176  0.6234  0.6245
  729SOL    HW2 2187   2.068   1.875   1.420  2.9174  1.5628 -1.3909
  730SOL     OW 2188   1.893   0.700   2.430 -0.6306  0.3579  0.2249
  730SOL    HW1 2189   1.945   0.686   2.341 -1.6417  1.0326  1.9427
  730SOL    HW2 2190   1.954   0.669   2.507 -0.6534  0.4966  0.7484
  731SOL     OW 2191   0.524   0.300   1.183  0.0579 -0.3304 -0.2386
  731SOL    HW1 2192   0.437   0.327   1.226  3.1367  0.0237  0.9666
  731SOL    HW2 2193   0.576   0.379   1.145  1.6037  1.6277 -1.2150
  732SOL     OW 2194   1.757   3.089   0.952  0.1607 -0.2361 -0.0048
  732SOL    HW1 2195   1.815   0.012   0.869 -0.0472  2.8377 -1.6421
  732SOL    HW2 2196   1.762   0.073   1.019  0.7497 -0.0878  0.1493
  733SOL     OW 2197   0.728   0.988   1.250 -0.0369  0.1694  0.4163
  733SOL    HW1 2198   0.655   1.058   1.263  0.5096 -0.2520 -1.9804
  733SOL    HW2 2199   0.795   1.019   1.180 -1.8533  1.9723  0.4628
  734SOL     OW 2200   2.631   2.313   0.396 -0.0318  0.5549  0.0204
  734SOL    HW1 2201   2.531   2.344   0.394 -2.2775  0.1189 -0.3788
  734SOL    HW2 2202   2.688   2.385   0.436 -1.8746 -1.9426  0.9421
  735SOL     OW 2203   0.460   0.626   0.163 -0.1303  0.2272 -0.3646
  735SOL    HW1 2204   0.493   0.679   0.082  1.0518 -1.2781  0.8884
  735SOL    HW2 2205   0.365   0.604   0.155  2.5045 -1.2983  3.6191
  736SOL     OW 2206   1.716   2.363   2.507  0.3011 -0.0193  0.0094
  736SOL    HW1 2207   1.691   2.452   2.462 -1.5866 -1.2261 -1.5010
  736SOL    HW2 2208   1.732   2.387   2.603 -0.4021  1.2783 -2.8661
  737SOL     OW 2209   1.231   2.077   1.196  0.0689 -0.4581  0.3001
  737SOL    HW1 2210   1.154   2.014   1.189  0.8047 -0.5520  1.6055
  737SOL    HW2 2211   1.246   2.088   1.297  0.8273 -1.3335 -0.1167
  738SOL     OW 2212   1.692   2.821   2.276 -0.1974  0.4521 -0.0871
  738SOL    HW1 2213   1.640   2.801   2.191 -1.6430 -1.2942  1.0925
  738SOL    HW2 2214   1.717   2.919   2.291  1.0734 -1.6744  2.4155
  739SOL     OW 2215   1.298   2.075   2.150 -0.4164  0.0329 -0.7785
  739SOL    HW1 2216   1.400   2.077   2.141 -2.9065  0.3621  0.5065
  739SOL    HW2 2217   1.268   2.174   2.169  0.2348  0.5070  1.4984
  740SOL     OW 2218   1.917   2.239   1.531 -0.0405 -0.2464 -0.0661
  740SOL    HW1 2219   1.959   2.186   1.460 -3.0844  0.1580  0.8240
  740SOL    HW2 2220   1.929   2.342   1.508 -1.5767 -0.7259 -2.9815
  741SOL     OW 2221   2.043   1.714   2.845  0.5778  0.2295 -0.4050
  741SOL    HW1 2222   1.970   1.734   2.772 -1.4938 -0.3095 -2.2329
  741SOL    HW2 2223   2.133   1.723   2.800 -3.2694  2.4673  0.1356
  742SOL     OW 2224   0.962   1.360   2.947 -0.0266  0.0546  0.2893
  742SOL    HW1 2225   0.931   1.459   2.943 -2.6543  0.4566 -1.4151
  742SOL    HW2 2226   0.935   1.305   2.865 -3.9399 -0.5107  0.1352
  743SOL     OW 2227   2.244   0.751   2.805  0.2375 -0.0741  0.0594
  743SOL    HW1 2228   2.333   0.753   2.756  0.4379  0.4872 -0.2790
  743SOL    HW2 2229   2.201   0.842   2.808  1.2392  2.7027  1.6910
  744SOL     OW 2230   2.054   2.758   1.598  0.1083  0.4021  0.2233
  744SOL    HW1 2231   2.074   2.850   1.554  1.9794  2.5047 -1.4736
  744SOL    HW2 2232   2.129   2.728   1.661 -3.0328  0.8141  1.0482
  745SOL     OW 2233   2.708   1.934   1.241 -0.2062 -0.0359  0.0899
  745SOL    HW1 2234   2.731   1.941   1.145  1.6361 -0.5805  1.7455
  745SOL    HW2 2235   2.672   1.838   1.259 -0.3349  0.1385  1.1777
  746SOL     OW 2236   2.757   1.971   0.956  0.5348 -0.1007 -0.3076
  746SOL    HW1 2237   2.663   1.934   0.946  0.7478 -0.6646  1.6455
  746SOL    HW2 2238   2.832   1.902   0.945 -0.2478  0.4545 -2.6351
  747SOL     OW 2239   1.937   2.696   0.344 -0.0313  0.3495  0.0398
  747SOL    HW1 2240   1.867   2.621   0.359  0.8786 -2.6187 -1.1141
  747SOL    HW2 2241   1.976   2.744   0.423 -1.2360 -1.4696  0.1826
  748SOL     OW 2242   0.879   2.194   0.194 -0.0750  0.0588  0.2989
  748SOL    HW1 2243   0.923   2.182   0.106  0.1109  0.6806  1.8674
  748SOL    HW2 2244   0.781   2.161   0.185 -1.6251 -3.2989  1.3141
  749SOL     OW 2245   2.710   0.418   2.311 -0.5681 -0.0444 -0.4068
  749SOL    HW1 2246   2.726   0.317   2.313 -2.7467  1.2546 -1.6336
  749SOL    HW2 2247   2.795   0.472   2.304 -0.5897 -2.9985  2.1816
  750SOL     OW 2248   1.351   0.701   1.782  0.6618  0.1538  0.3328
  750SOL    HW1 2249   1.404   0.744   1.862 -0.2006 -1.8387  0.7148
  750SOL    HW2 2250   1.320   0.609   1.814 -2.1714  1.9961  0.5732
  751SOL     OW 2251   2.352   2.356   1.806  0.1994 -0.1250  0.1306
  751SOL    HW1 2252   2.284   2.361   1.727 -1.6019  0.4621  0.1662
  751SOL    HW2 2253   2.398   2.440   1.819 -1.5331 -1.4385 -0.3456
  752SOL     OW 2254   1.910   1.737   0.801 -0.0014  1.2867  0.0484
  752SOL    HW1 2255   1.838   1.771   0.871 -1.3364  0.4789  1.3625
  752SOL    HW2 2256   1.916   1.633   0.799  0.7060 -0.2938 -3.2055
  753SOL     OW 2257   1.445   0.865   2.351  0.2018 -0.5086 -0.4220
  753SOL    HW1 2258   1.427   0.954   2.299 -1.5809  4.1442 -0.8268
  753SOL    HW2 2259   1.434   0.874   2.453  0.7972 -1.3325  2.4885
  754SOL     OW 2260   0.286   2.681   0.999 -0.9498 -0.1935  0.1572
  754SOL    HW1 2261   0.371   2.739   1.016  0.7742 -0.8754  3.0531
  754SOL    HW2 2262   0.255   2.632   1.083 -0.1703 -0.8220 -1.3655
  755SOL     OW 2263   2.429   0.025   1.562  0.2615 -0.3483  0.6849
  755SOL    HW1 2264   2.489   3.040   1.584  0.1992  0.2741  1.6631
  755SOL    HW2 2265   2.433   0.038   1.463 -0.9762 -0.5095  0.9146
  756SOL     OW 2266   1.657   1.242   2.491 -0.0549  0.1094 -0.1505
  756SOL    HW1 2267   1.655   1.329   2.551  0.4017  2.1256 -0.8990
  756SOL    HW2 2268   1.580   1.223   2.429 -0.4865 -0.5394  2.1471
  757SOL     OW 2269   2.978   3.022   1.725 -0.1404 -0.0626  0.2945
  757SOL    HW1 2270   2.998   0.021   1.773  1.3043  0.2549  0.3663
  757SOL    HW2 2271   2.901   3.029   1.664  0.1200 -0.7626  1.8802
  758SOL     OW 2272   0.429   2.824   1.408  0.3496 -0.9094  0.3949
  758SOL    HW1 2273   0.453   2.921   1.428 -0.6753  0.3355  1.4963
  758SOL    HW2 2274   0.346   2.824   1.346 -0.3366 -0.9663 -0.3320
  759SOL     OW 2275   2.290   1.260   0.977 -0.1397  0.2629  0.4000
  759SOL    HW1 2276   2.329   1.248   0.877  0.9670  0.1781 -2.0622
  759SOL    HW2 2277   2.236   1.346   0.984 -1.5860  2.2147 -0.0014
  760SOL     OW 2278   1.516   0.154   1.873  0.1883 -0.1146 -0.5456
  760SOL    HW1 2279   1.425   0.147   1.844  4.6139 -1.7202 -0.8488
  760SOL    HW2 2280   1.539   0.238   1.926  1.1326  0.0498  0.7498
  761SOL     OW 2281   2.066   0.318   0.514  0.0149  0.2676  0.2883
  761SOL    HW1 2282   2.021   0.261   0.445  1.2784 -1.2001  2.6939
  761SOL    HW2 2283   2.102   0.399   0.466  0.0833 -0.3436  0.5950
  762SOL     OW 2284   2.302   2.710   0.114  0.3671 -0.0398 -0.1401
  762SOL    HW1 2285   2.402   2.702   0.090 -1.6557  0.2979 -0.6515
  762SOL    HW2 2286   2.279   2.654   0.194  1.4224 -0.1556 -3.5104
  763SOL     OW 2287   1.009   0.714   1.400 -0.0709 -0.6247 -0.0724
  763SOL    HW1 2288   1.086   0.774   1.369  1.3681 -3.6474 -1.8261
  763SOL    HW2 2289   0.965   0.742   1.490 -3.3401 -2.5994 -0.1663
  764SOL     OW 2290   2.262   2.512   2.616  0.0249  0.2236 -0.5261
  764SOL    HW1 2291   2.346   2.467   2.583  0.1350  2.4284 -3.2844
  764SOL    HW2 2292   2.175   2.457   2.621  2.6698  0.4010  2.3326
  765SOL     OW 2293   0.123   0.795   2.380 -0.6947 -0.0745 -0.1072
  765SOL    HW1 2294   0.060   0.732   2.428  0.0855 -0.3301 -0.4844
  765SOL    HW2 2295   0.115   0.891   2.414 -0.9200  2.8836  0.3086
  766SOL     OW 2296   2.753   1.385   2.933  0.1984  0.8372 -0.5123
  766SOL    HW1 2297   2.652   1.369   2.928 -0.6772  1.8283 -1.2436
  766SOL    HW2 2298   2.791   1.391   2.839  1.4787 -0.3074 -1.1365
  767SOL     OW 2299   0.053   1.999   1.758 -0.3561  0.4067  0.2961
  767SOL    HW1 2300   3.054   2.040   1.736  1.3285 -1.2903 -1.8170
  767SOL    HW2 2301   0.073   1.938   1.675 -2.2473 -0.3643 -0.3026
  768SOL     OW 2302   0.973   0.910   3.083 -0.0503  0.0218  0.1329
  768SOL    HW1 2303   0.969   0.832   0.056  0.7171 -0.1036  1.4551
  768SOL    HW2 2304   0.934   0.884   2.995  1.2209 -0.2679  0.4771
  769SOL     OW 2305   1.737   2.671   2.939 -0.0887 -0.7591 -0.0622
  769SOL    HW1 2306   1.819   2.725   2.913  0.7781 -1.3205 -2.3305
  769SOL    HW2 2307   1.678   2.732   2.997  1.2722  0.8495 -2.2843
  770SOL     OW 2308   0.772   0.072   2.304 -0.0186  0.3683  0.5699
  770SOL    HW1 2309   0.867   0.040   2.270 -0.7180  1.9537  1.2508
  770SOL    HW2 2310   0.777   0.122   2.394 -2.2311  1.9655  0.1655
  771SOL     OW 2311   0.671   2.553   0.843 -0.2641 -0.2716 -0.4001
  771SOL    HW1 2312   0.582   2.560   0.793  2.1384 -0.2547  2.1055
  771SOL    HW2 2313   0.661   2.567   0.942  1.9384  1.6294 -2.7716
  772SOL     OW 2314   0.135   0.758   0.521 -0.5944  0.4047 -0.3699
  772SOL    HW1 2315   0.184   0.685   0.569 -4.4569  1.0020 -1.5118
  772SOL    HW2 2316   0.042   0.755   0.549 -0.0565 -1.4758 -0.9294
  773SOL     OW 2317   1.902   1.043   2.064 -1.0282 -0.0440  0.3810
  773SOL    HW1 2318   1.843   0.959   2.060 -0.0612  2.1983  0.1590
  773SOL    HW2 2319   1.945   1.052   2.156  1.7246 -0.1384  0.2998
  774SOL     OW 2320   0.701   0.898   0.560  0.5852  0.1385  0.3670
  774SOL    HW1 2321   0.703   0.974   0.493 -0.9418 -2.0825  2.3019
  774SOL    HW2 2322   0.613   0.848   0.548  1.0922 -2.2656  0.9365
  775SOL     OW 2323   1.635   0.015   0.091  0.7440  0.1084  0.0235
  775SOL    HW1 2324   1.598   0.082   0.161 -2.6146 -0.6746 -0.2240
  775SOL    HW2 2325   1.614   0.043   3.089  2.5855  1.0904 -0.1867
  776SOL     OW 2326   2.177   0.110   2.403  0.4279 -0.0009 -0.2472
  776SOL    HW1 2327   2.253   0.164   2.442 -3.0803 -0.7001 -3.4087
  776SOL    HW2 2328   2.159   0.134   2.305 -0.3116  1.5437  0.0024
  777SOL     OW 2329   0.839   1.603   0.121 -0.1041  0.0476  0.1234
  777SOL    HW1 2330   0.860   1.517   0.172 -0.5723 -1.1497 -0.4842
  777SOL    HW2 2331   0.752   1.642   0.154  0.8094 -1.5820 -2.6300
  778SOL     OW 2332   0.234   2.675   0.015  0.1963 -0.1360 -0.5461
  778SOL    HW1 2333   0.200   2.740   0.086 -0.6417 -0.5345  4.1485
  778SOL    HW2 2334   0.311   2.619   0.050 -1.3979  2.5194  0.8662
  779SOL     OW 2335   0.314   1.173   0.091 -0.2203  0.6502  0.1690
  779SOL    HW1 2336   0.276   1.237   0.157 -0.1778 -0.3096 -2.1084
  779SOL    HW2 2337   0.371   1.095   0.127  1.7139  1.4397  0.0825
  780SOL     OW 2338   2.222   0.233   2.031  0.2440  0.2600  0.1569
  780SOL    HW1 2339   2.282   0.280   1.964  3.5572  0.2335 -0.3245
  780SOL    HW2 2340   2.168   0.160   1.973 -1.0046  1.0830 -2.1376
  781SOL     OW 2341   1.777   1.080   1.652 -0.1342  0.2732 -0.1162
  781SOL    HW1 2342   1.833   1.162   1.625  2.2779 -0.6574  0.1095
  781SOL    HW2 2343   1.837   1.000   1.675 -1.2835 -1.3674 -1.2086
  782SOL     OW 2344   1.719   1.750   2.252  0.2921 -0.2836  0.2709
  782SOL    HW1 2345   1.742   1.840   2.291 -1.2432  0.9844 -0.6992
  782SOL    HW2 2346   1.779   1.672   2.278  1.0334  0.9238 -0.7648
  783SOL     OW 2347   1.372   3.011   1.706 -0.9845 -0.0661  0.2236
  783SOL    HW1 2348   1.298   3.001   1.780 -1.2397  0.8872  1.7537
  783SOL    HW2 2349   1.461   2.982   1.751  0.7071 -1.9006 -1.0077
  784SOL     OW 2350   1.959   0.953   2.542 -0.2367  0.4336 -0.1844
  784SOL    HW1 2351   2.034   0.976   2.608 -0.3829  2.2195  0.3205
  784SOL    HW2 2352   1.969   0.864   2.497 -4.5741  1.4481  0.6121
  785SOL     OW 2353   1.912   0.443   0.245 -0.8144 -0.2518  0.1421
  785SOL    HW1 2354   1.863   0.490   0.168 -3.4174  0.5140  0.6132
  785SOL    HW2 2355   1.998   0.490   0.277  1.1545 -1.3317 -0.3017
  786SOL     OW 2356   2.950   1.860   0.565  0.0613 -0.5994  0.3846
  786SOL    HW1 2357   2.913   1.950   0.596  0.0500 -3.6500  2.1896
  786SOL    HW2 2358   3.030   1.872   0.506 -1.2123  1.0234 -0.5990
  787SOL     OW 2359   1.663   2.215   0.445  0.0429  0.1064  0.2351
  787SOL    HW1 2360   1.663   2.145   0.517 -1.3144  0.2615 -1.0801
  787SOL    HW2 2361   1.573   2.249   0.429 -0.3096  0.6740 -0.4955
  788SOL     OW 2362   1.890   1.596   1.374 -0.3334 -0.3739 -0.0599
  788SOL    HW1 2363   1.946   1.623   1.293 -0.1657 -1.1560 -1.8305
  788SOL    HW2 2364   1.879   1.676   1.440  1.7581  1.4441  0.0149
  789SOL     OW 2365   3.036   1.164   2.614  0.6016  0.3133  0.0604
  789SOL    HW1 2366   0.031   1.136   2.572 -0.8904 -2.1417 -2.3016
  789SOL    HW2 2367   2.967   1.087   2.614 -1.4162  1.0037  1.0653
  790SOL     OW 2368   0.566   0.117   2.645 -0.0900 -0.0515  0.3712
  790SOL    HW1 2369   0.508   0.170   2.715  1.0109 -2.5146  2.2828
  790SOL    HW2 2370   0.664   0.152   2.643  2.8200  2.5792 -0.7112
  791SOL     OW 2371   0.979   3.028   2.799 -0.5938  0.0186  0.1625
  791SOL    HW1 2372   0.881   3.050   2.807 -1.5488  1.4100 -0.1439
  791SOL    HW2 2373   1.017   3.012   2.892  0.4366  0.4082 -0.9675
  792SOL     OW 2374   1.809   0.470   2.244 -0.2709  0.9399 -0.8252
  792SOL    HW1 2375   1.789   0.431   2.158  0.0062 -0.2910  2.8713
  792SOL    HW2 2376   1.736   0.542   2.256 -2.2238 -2.4843 -0.5371
  793SOL     OW 2377   2.782   0.488   1.884  0.3575  0.6137  0.0757
  793SOL    HW1 2378   2.720   0.472   1.804 -3.6357 -0.3713 -0.1651
  793SOL    HW2 2379   2.722   0.493   1.964  1.1968  3.5316 -1.7611
  794SOL     OW 2380   0.657   0.720   1.713  0.0550  0.4504  0.3829
  794SOL    HW1 2381   0.703   0.730   1.803 -1.4262  1.4189  0.6953
  794SOL    HW2 2382   0.600   0.638   1.719  0.2327 -0.4394 -0.1602
  795SOL     OW 2383   2.970   1.512   0.529 -0.1029  0.1100  0.4285
  795SOL    HW1 2384   2.904   1.583   0.503 -1.9320  0.2647 -1.5496
  795SOL    HW2 2385   3.036   1.538   0.607 -0.9057 -2.1772  0.4315
  796SOL     OW 2386   2.973   2.339   2.958 -0.0129  0.0657  0.2007
  796SOL    HW1 2387   2.934   2.299   3.042 -0.6341 -4.0403  1.1881
  796SOL    HW2 2388   2.921   2.421   2.928 -1.3372 -0.0377 -0.1058
  797SOL     OW 2389   2.189   2.527   0.306  0.1819  0.1123  0.4201
  797SOL    HW1 2390   2.112   2.589   0.330  0.4968 -1.5276 -1.8865
  797SOL    HW2 2391   2.154   2.436   0.289  0.0255 -0.7427  0.5451
  798SOL     OW 2392   0.249   1.030   1.517 -0.2225 -0.1821  0.1570
  798SOL    HW1 2393   0.174   0.969   1.517  2.9910 -0.3096 -2.8491
  798SOL    HW2 2394   0.252   1.082   1.430 -0.2709 -2.2119 -0.4735
  799SOL     OW 2395   2.920   0.583   2.297 -0.1769 -0.0342  0.0618
  799SOL    HW1 2396   2.962   0.597   2.389  0.4472 -0.6995 -1.0347
  799SOL    HW2 2397   2.998   0.574   2.230  0.5339  1.5621 -1.8027
  800SOL     OW 2398   2.888   2.106   0.646 -0.5788  0.0469 -0.5467
  800SOL    HW1 2399   2.971   2.165   0.633  0.7625  2.5213  1.3135
  800SOL    HW2 2400   2.847   2.119   0.737  2.4706  0.9259 -3.4279
  801SOL     OW 2401   1.284   1.125   0.886 -0.3876 -0.1297  0.2487
  801SOL    HW1 2402   1.287   1.115   0.787  0.4762 -0.1579  2.8226
  801SOL    HW2 2403   1.280   1.226   0.909  0.5364  0.8840 -2.5963
  802SOL     OW 2404   1.293   1.866   1.483  0.1209  0.0978 -0.5676
  802SOL    HW1 2405   1.236   1.822   1.413 -1.6256 -1.5424  1.3030
  802SOL    HW2 2406   1.280   1.967   1.480  1.6989 -1.2562  0.5574
  803SOL     OW 2407   2.825   1.711   0.357  0.4058  0.2410 -0.0546
  803SOL    HW1 2408   2.886   1.687   0.276  1.1123 -0.3721 -1.2051
  803SOL    HW2 2409   2.870   1.789   0.408  1.5086  2.0361  0.0744
  804SOL     OW 2410   0.973   2.371   1.001 -0.5583  0.2282 -0.0901
  804SOL    HW1 2411   0.951   2.303   0.924 -1.7336  2.6805  0.9170
  804SOL    HW2 2412   0.914   2.342   1.078 -0.1501  0.3208  0.2568
  805SOL     OW 2413   1.535   1.368   3.010  0.2514  0.0856 -0.3659
  805SOL    HW1 2414   1.534   1.465   3.039 -0.5185  0.8843 -0.2395
  805SOL    HW2 2415   1.447   1.338   2.965 -2.1670 -1.7230  0.0647
  806SOL     OW 2416   1.553   2.715   1.547  0.0963  0.1471 -0.1370
  806SOL    HW1 2417   1.614   2.737   1.620  0.1143 -0.3282 -2.8962
  806SOL    HW2 2418   1.599   2.657   1.478 -0.6583 -2.6280  2.1188
  807SOL     OW 2419   1.968   2.798   2.837 -0.0881 -0.2619  0.4483
  807SOL    HW1 2420   1.986   2.747   2.751 -2.6911  2.4992  1.5582
  807SOL    HW2 2421   2.048   2.790   2.897 -2.3618  2.0489  0.9183
  808SOL     OW 2422   0.199   1.500   0.273 -0.1209 -0.6150  0.1152
  808SOL    HW1 2423   0.152   1.438   0.335  2.6453 -0.7637  1.4580
  808SOL    HW2 2424   0.215   1.587   0.321  0.6073 -0.9347 -0.9972
  809SOL     OW 2425   2.641   0.862   2.175 -0.4720  0.0340 -0.3309
  809SOL    HW1 2426   2.740   0.835   2.157 -1.2657 -1.0801  1.5989
  809SOL    HW2 2427   2.622   0.964   2.168 -1.9484  3.8136 -0.0580
  810SOL     OW 2428   2.634   0.070   2.032 -0.0178 -0.1945  0.1198
  810SOL    HW1 2429   2.608   0.083   2.128  0.9046  0.7854  0.3166
  810SOL    HW2 2430   2.716   0.127   2.011 -0.6545 -0.1675 -1.1824
  811SOL     OW 2431   2.249   2.380   1.550  0.6828  0.0240 -0.2387
  811SOL    HW1 2432   2.151   2.403   1.539  0.0363 -0.9282  0.7552
  811SOL    HW2 2433   2.307   2.454   1.508 -2.4681 -1.2290  0.5141
  812SOL     OW 2434   1.800   0.369   2.976 -0.2598  0.1060  0.2637
  812SOL    HW1 2435   1.712   0.337   3.012  1.6710 -0.6402 -1.5861
  812SOL    HW2 2436   1.818   0.465   3.004 -1.2751 -1.3032 -1.7098
  813SOL     OW 2437   1.759   0.410   1.966 -0.1829  0.5559  0.0378
  813SOL    HW1 2438   1.758   0.493   1.901  1.0144  0.6173 -0.1835
  813SOL    HW2 2439   1.779   0.323   1.922  1.1909  0.2100  1.7672
  814SOL     OW 2440   2.128   1.513   1.529 -0.3605  0.1999  0.1750
  814SOL    HW1 2441   2.211   1.505   1.466 -0.4252  1.9217  0.4446
  814SOL    HW2 2442   2.042   1.524   1.471 -3.2576  0.1286 -3.8207
  815SOL     OW 2443   0.283   1.162   0.457  1.1292 -0.0454  0.1504
  815SOL    HW1 2444   0.212   1.233   0.480  1.2136 -3.0023  1.8238
  815SOL    HW2 2445   0.245   1.096   0.390 -2.0117  2.1454  1.5129
  816SOL     OW 2446   1.661   1.797   2.797  0.2214  0.5163  0.5278
  816SOL    HW1 2447   1.742   1.791   2.736 -1.7772  2.0921  2.5659
  816SOL    HW2 2448   1.584   1.739   2.756 -1.6497 -0.7863 -2.9993
  817SOL     OW 2449   0.087   2.915   0.676 -0.0014  0.0417 -0.3859
  817SOL    HW1 2450   0.141   2.939   0.760  2.6293  1.6640  1.4898
  817SOL    HW2 2451   0.085   2.816   0.651 -0.7282  0.7295  1.8726
  818SOL     OW 2452   1.458   0.403   2.594 -0.2221  0.2570 -0.4233
  818SOL    HW1 2453   1.546   0.411   2.645 -0.1368 -0.6229 -1.4199
  818SOL    HW2 2454   1.398   0.325   2.626 -0.8031 -0.5542  0.2020
  819SOL     OW 2455   0.948   1.014   0.639  0.3394  0.1549  0.6501
  819SOL    HW1 2456   1.021   0.940   0.648  0.0889 -2.9012  1.3587
  819SOL    HW2 2457   0.856   0.970   0.650  0.6501 -0.0484  1.2967
  820SOL     OW 2458   2.361   1.002   1.113 -0.1400 -0.1621 -0.2454
  820SOL    HW1 2459   2.327   0.920   1.165  0.6330  1.7085  0.6664
  820SOL    HW2 2460   2.295   1.037   1.052  3.4915  1.7250  0.8602
  821SOL     OW 2461   2.237   0.040   0.422 -0.0183 -0.5156  0.0325
  821SOL    HW1 2462   2.223   3.033   0.401 -4.2729 -0.0047  1.5013
  821SOL    HW2 2463   2.166   0.104   0.382  1.6896 -0.7381 -2.1412
  822SOL     OW 2464   0.546   2.596   2.413  0.1213 -0.0149  0.3052
  822SOL    HW1 2465   0.560   2.558   2.506  0.7245  0.6078 -0.5135
  822SOL    HW2 2466   0.537   2.697   2.423  1.1721  2.3765  0.5212
  823SOL     OW 2467   0.174   2.303   1.695  0.1455  0.3439  0.2017
  823SOL    HW1 2468   0.128   2.398   1.692 -3.6278 -0.2069  0.1002
  823SOL    HW2 2469   0.110   2.231   1.665  1.8075  2.0546  0.0493
  824SOL     OW 2470   0.915   2.840   2.103 -0.0421 -0.4616 -0.1604
  824SOL    HW1 2471   0.919   2.786   2.015 -1.7716 -3.2052  1.3198
  824SOL    HW2 2472   0.910   2.763   2.173  0.4937  0.5322 -1.2299
  825SOL     OW 2473   1.208   1.947   0.382  0.0068  0.0262 -0.0469
  825SOL    HW1 2474   1.133   1.911   0.323  0.7413 -0.0391 -2.2268
  825SOL    HW2 2475   1.172   1.979   0.473  0.0666  1.7734  1.0693
  826SOL     OW 2476   1.053   2.975   3.083  0.5944  0.3159 -0.3540
  826SOL    HW1 2477   0.957   2.990   0.022  0.6821  1.0135 -0.6411
  826SOL    HW2 2478   1.089   2.887   0.028  0.4196 -0.4371  0.6198
  827SOL     OW 2479   0.116   1.834   1.558  0.1428 -0.5239  0.3708
  827SOL    HW1 2480   0.049   1.785   1.493  0.5599 -0.2327  0.3288
  827SOL    HW2 2481   0.182   1.760   1.581  2.6955 -1.0621  0.3785
  828SOL     OW 2482   2.626   1.683   1.250  0.4325 -0.1105  0.1398
  828SOL    HW1 2483   2.547   1.645   1.197 -2.3102  2.9675 -0.7036
  828SOL    HW2 2484   2.620   1.648   1.345  1.3581  1.9691  0.5787
  829SOL     OW 2485   2.936   2.250   0.126  0.3120 -0.0796 -0.6509
  829SOL    HW1 2486   3.002   2.258   0.205  1.5834  0.6416 -0.3090
  829SOL    HW2 2487   2.874   2.174   0.142  1.5074  0.2055 -0.1692
  830SOL     OW 2488   1.123   0.743   0.671  0.2188  0.2033 -0.1678
  830SOL    HW1 2489   1.196   0.716   0.739  1.3804  3.2102 -0.7041
  830SOL    HW2 2490   1.031   0.723   0.702  3.3093 -1.0204  0.2185
  831SOL     OW 2491   2.786   2.031   0.160 -0.3254  0.2453 -0.1663
  831SOL    HW1 2492   2.713   1.970   0.118 -0.6317 -0.1658 -2.9853
  831SOL    HW2 2493   2.758   2.060   0.255  1.5831 -0.7549  1.2845
  832SOL     OW 2494   1.012   2.750   0.627 -0.6360 -0.0537  0.3144
  832SOL    HW1 2495   1.006   2.691   0.708 -0.3942  2.6936 -2.8556
  832SOL    HW2 2496   1.099   2.798   0.629 -0.0966  0.7354 -0.0074
  833SOL     OW 2497   0.998   0.497   2.530 -0.2348 -0.0904  0.3469
  833SOL    HW1 2498   0.974   0.510   2.429  0.3290 -0.2111 -1.2991
  833SOL    HW2 2499   1.098   0.519   2.544 -2.2163  3.6899 -0.5535
  834SOL     OW 2500   2.790   0.649   0.790  0.1551 -0.3093 -0.4592
  834SOL    HW1 2501   2.706   0.633   0.732  0.1123 -0.1777 -0.3380
  834SOL    HW2 2502   2.798   0.580   0.865  2.3257 -1.5110  0.6613
  835SOL     OW 2503   2.409   0.746   2.115  0.4728  0.2949 -0.0085
  835SOL    HW1 2504   2.363   0.776   2.032  1.2356 -1.8120  1.6099
  835SOL    HW2 2505   2.491   0.803   2.126 -0.8278 -0.3483  0.9970
  836SOL     OW 2506   0.390   2.395   0.534  0.8376 -0.9894  0.6375
  836SOL    HW1 2507   0.448   2.468   0.571  1.4689 -2.3825 -0.8386
  836SOL    HW2 2508   0.441   2.330   0.477  0.7321  2.2052  1.6597
  837SOL     OW 2509   2.486   1.859   2.215  0.3353  0.7908  0.1421
  837SOL    HW1 2510   2.407   1.803   2.185  1.2887  0.2500  3.6432
  837SOL    HW2 2511   2.459   1.910   2.304 -0.3227  2.3999 -0.7186
  838SOL     OW 2512   0.016   1.206   1.855  0.3949 -0.5945 -0.2286
  838SOL    HW1 2513   0.076   1.130   1.824  0.4979  0.2907 -0.5442
  838SOL    HW2 2514   3.051   1.242   1.778 -0.5223 -0.2904  0.3857
  839SOL     OW 2515   0.254   0.121   0.287  0.1456  0.5488 -0.2649
  839SOL    HW1 2516   0.350   0.115   0.261 -1.6376 -0.4415 -1.3784
  839SOL    HW2 2517   0.214   0.035   0.322  1.6671  6.3531  0.2245
  840SOL     OW 2518   3.064   0.626   2.541  0.6438 -0.0356  0.2909
  840SOL    HW1 2519   3.035   0.665   2.633 -2.1495 -2.2869 -0.6855
  840SOL    HW2 2520   0.014   0.532   2.561  2.9628 -0.6736 -1.1188
  841SOL     OW 2521   0.495   2.205   2.719 -0.1198 -0.1157 -0.5422
  841SOL    HW1 2522   0.433   2.193   2.802  2.1031 -2.0249  2.3482
  841SOL    HW2 2523   0.447   2.200   2.629  0.0939  0.0863 -1.6433
  842SOL     OW 2524   1.033   0.047   1.091  0.5219  0.5714 -0.8493
  842SOL    HW1 2525   0.962   3.069   1.118  1.3480 -0.6406  2.0708
  842SOL    HW2 2526   1.033   0.060   0.991 -0.6813  0.2049  0.4941
  843SOL     OW 2527   0.437   1.707   2.543  0.1698 -0.9189 -0.4543
  843SOL    HW1 2528   0.491   1.772   2.486 -1.3281 -1.5918  1.7720
  843SOL    HW2 2529   0.497   1.626   2.559  0.6192  2.6860 -2.1570
  844SOL     OW 2530   1.230   1.858   2.297 -0.3340  0.7548 -0.2489
  844SOL    HW1 2531   1.253   1.942   2.245  0.3352 -0.5149  0.0317
  844SOL    HW2 2532   1.311   1.802   2.316 -3.5669  1.4887 -1.1147
  845SOL     OW 2533   2.372   2.720   2.764  0.3212  0.0287 -0.4991
  845SOL    HW1 2534   2.410   2.794   2.700 -0.8586 -2.3690  0.2602
  845SOL    HW2 2535   2.333   2.638   2.714 -0.7956 -0.8959 -1.7403
  846SOL     OW 2536   2.014   1.491   2.988 -0.3777 -0.1214  0.0912
  846SOL    HW1 2537   2.018   1.580   2.934 -2.0960  0.0538  1.3129
  846SOL    HW2 2538   2.054   1.511   3.081  0.5717  0.0227  0.9139
  847SOL     OW 2539   2.511   0.165   2.797  0.2891 -0.4223  0.4972
  847SOL    HW1 2540   2.579   0.166   2.714  0.7966 -1.6169 -0.7254
  847SOL    HW2 2541   2.520   0.238   2.866 -0.6258  0.8580 -0.9228
  848SOL     OW 2542   0.148   0.763   0.122 -0.3478  0.1609  0.0834
  848SOL    HW1 2543   0.168   0.846   0.184  1.9232  2.4472  2.9905
  848SOL    HW2 2544   0.050   0.729   0.141 -1.0620 -0.7929  0.2059
  849SOL     OW 2545   1.491   0.166   2.345  0.7445  0.0089 -0.1085
  849SOL    HW1 2546   1.524   0.124   2.433  0.6952 -1.9006  3.1641
  849SOL    HW2 2547   1.496   0.269   2.340 -0.7801  0.2901 -1.5207
  850SOL     OW 2548   2.874   1.046   0.673  0.8510 -0.1010  0.0387
  850SOL    HW1 2549   2.824   0.995   0.747 -1.7710 -1.5535  1.1346
  850SOL    HW2 2550   2.977   1.030   0.678  0.9781  0.8263 -1.2414
  851SOL     OW 2551   0.357   1.135   0.971  0.3714  0.1630 -0.1040
  851SOL    HW1 2552   0.276   1.093   1.008 -0.3935 -0.7187 -0.7084
  851SOL    HW2 2553   0.408   1.080   0.898 -0.0560 -0.2732 -1.9207
  852SOL     OW 2554   1.215   1.200   2.023  0.1128  0.0057  0.2432
  852SOL    HW1 2555   1.219   1.297   2.059 -1.8329 -0.7380 -2.7471
  852SOL    HW2 2556   1.226   1.199   1.924  0.4083  1.6589  0.6993
  853SOL     OW 2557   2.025   1.192   0.140 -0.1107 -0.4586  0.0219
  853SOL    HW1 2558   2.082   1.172   0.060 -1.3206  0.6322  0.6108
  853SOL    HW2 2559   2.040   1.281   0.189 -0.3735  3.9186  1.8292
  854SOL     OW 2560   1.635   1.181   2.098  0.4846  0.3643  0.1511
  854SOL    HW1 2561   1.731   1.158   2.105 -2.4240 -2.0833 -1.3389
  854SOL    HW2 2562   1.605   1.167   2.001  1.0579  0.3063 -0.8102
  855SOL     OW 2563   0.452   2.255   2.203  0.2931  0.5208  0.2731
  855SOL    HW1 2564   0.398   2.254   2.116 -1.2177 -0.2122  1.0386
  855SOL    HW2 2565   0.528   2.321   2.198 -1.4376  1.8344 -0.1907
  856SOL     OW 2566   1.116   0.986   2.146  0.2160 -0.0561  0.2063
  856SOL    HW1 2567   1.014   0.967   2.139  0.6765  2.0747  1.3056
  856SOL    HW2 2568   1.140   1.074   2.106 -1.5317 -0.6071 -0.7061
  857SOL     OW 2569   1.173   1.059   2.487 -0.5078 -0.1195  0.2941
  857SOL    HW1 2570   1.088   1.002   2.492  1.3863 -0.8344 -0.5677
  857SOL    HW2 2571   1.238   1.017   2.421 -1.6917 -1.4244 -1.2905
  858SOL     OW 2572   3.064   0.768   1.782 -0.6194 -1.2491 -0.2431
  858SOL    HW1 2573   2.975   0.791   1.744  2.2803 -0.3136  1.3245
  858SOL    HW2 2574   3.071   0.674   1.810  0.3458  2.9441 -0.5683
  859SOL     OW 2575   2.327   2.965   0.762  0.0352  0.5221 -0.5984
  859SOL    HW1 2576   2.293   3.055   0.736  0.8370 -0.2639 -0.3819
  859SOL    HW2 2577   2.397   2.968   0.834  1.8036 -0.4799 -0.6362
  860SOL     OW 2578   1.717   0.463   1.421  0.1784 -0.1387  0.3129
  860SOL    HW1 2579   1.737   0.566   1.426  0.8876  0.9003  0.8320
  860SOL    HW2 2580   1.629   0.458   1.374  2.3419 -0.6092  2.0699
  861SOL     OW 2581   1.942   0.757   1.206 -0.0429  0.0782 -0.0747
  861SOL    HW1 2582   1.891   0.813   1.139  1.7918 -3.1459 -1.0598
  861SOL    HW2 2583   1.897   0.744   1.293 -2.4989 -1.0528 -2.8798
  862SOL     OW 2584   1.344   2.806   2.572  0.3927  0.0701 -0.4987
  862SOL    HW1 2585   1.317   2.740   2.498 -0.9557 -1.3856 -2.6492
  862SOL    HW2 2586   1.413   2.761   2.635 -1.7756  0.2459 -1.0197
  863SOL     OW 2587   2.795   0.034   1.519  0.0876 -0.1126 -0.2244
  863SOL    HW1 2588   2.736   0.078   1.591  1.7638 -1.2715 -0.4095
  863SOL    HW2 2589   2.881   0.090   1.512 -0.8907  2.8001  0.8729
  864SOL     OW 2590   2.665   2.782   1.974  0.0270 -0.0045 -0.0351
  864SOL    HW1 2591   2.639   2.752   2.066 -2.1942  4.2833 -2.1025
  864SOL    HW2 2592   2.596   2.845   1.935  3.8412  0.8164  1.5810
  865SOL     OW 2593   1.199   1.223   2.721  0.0240 -0.3971  0.4916
  865SOL    HW1 2594   1.103   1.187   2.734  1.2139  1.7393  0.8470
  865SOL    HW2 2595   1.233   1.183   2.635  1.5585 -0.1430 -1.7359
  866SOL     OW 2596   2.715   3.009   1.258  0.4757  0.1454 -0.1689
  866SOL    HW1 2597   2.727   3.038   1.357 -0.4697  0.9742  1.3795
  866SOL    HW2 2598   2.667   2.919   1.253  0.5084 -1.0817 -1.9740
  867SOL     OW 2599   3.088   2.722   0.943  0.5151  0.1582 -0.2714
  867SOL    HW1 2600   0.096   2.720   0.957 -0.3023 -1.0892 -1.4822
  867SOL    HW2 2601   3.060   2.816   0.972  1.6618  2.1458 -0.7470
  868SOL     OW 2602   3.015   1.745   1.383  0.0570  0.1327  0.0140
  868SOL    HW1 2603   2.991   1.657   1.341 -1.1590 -1.0441  0.2537
  868SOL    HW2 2604   2.945   1.778   1.451 -0.1404 -0.3320  0.7999
  869SOL     OW 2605   1.829   1.962   2.353  0.3654  0.1040 -0.3216
  869SOL    HW1 2606   1.769   2.015   2.414  1.8675 -1.7108 -1.5888
  869SOL    HW2 2607   1.904   2.015   2.321  0.7492 -0.8239 -0.0330
  870SOL     OW 2608   1.462   0.812   0.610  0.6790 -0.4751 -0.4981
  870SOL    HW1 2609   1.422   0.907   0.608  0.4452  0.6316  1.7089
  870SOL    HW2 2610   1.439   0.756   0.686  0.6085  0.8854 -2.4111
  871SOL     OW 2611   2.618   1.615   1.858 -0.1344 -0.0635 -0.1740
  871SOL    HW1 2612   2.560   1.635   1.775 -3.5861  1.7635 -0.5158
  871SOL    HW2 2613   2.615   1.697   1.918 -1.1963  0.2800 -1.2098
  872SOL     OW 2614   0.879   1.606   2.956  0.2447  0.1349 -0.2125
  872SOL    HW1 2615   0.939   1.690   2.932  1.1663  2.0720  2.9799
  872SOL    HW2 2616   0.856   1.618   3.056  2.3017 -0.1721 -1.2844
  873SOL     OW 2617   0.922   1.374   1.874 -0.1196  0.1717  0.8741
  873SOL    HW1 2618   0.850   1.443   1.874  0.9903 -0.4363  0.9171
  873SOL    HW2 2619   1.006   1.425   1.872 -3.4848  1.3921  1.0975
  874SOL     OW 2620   1.505   0.888   1.273  0.1781  0.5332 -0.1391
  874SOL    HW1 2621   1.590   0.941   1.300  1.1065 -3.1339  0.0542
  874SOL    HW2 2622   1.434   0.904   1.343 -0.5366 -0.1697  1.0749
  875SOL     OW 2623   2.698   2.983   2.699  0.4257  0.3607  0.2517
  875SOL    HW1 2624   2.611   2.935   2.681  3.4149 -1.0621  2.2260
  875SOL    HW2 2625   2.772   2.947   2.635  1.2820 -0.6499 -0.5713
  876SOL     OW 2626   1.015   1.235   0.508 -0.2391 -0.5058  0.4839
  876SOL    HW1 2627   0.983   1.147   0.545  1.9550  2.1107 -0.6417
  876SOL    HW2 2628   1.110   1.260   0.539 -0.0465 -1.9611  1.3915
  877SOL     OW 2629   2.007   2.868   0.565 -0.1103 -0.5449 -0.1525
  877SOL    HW1 2630   1.942   2.930   0.518 -2.0445 -2.2965 -1.4067
  877SOL    HW2 2631   2.091   2.924   0.582 -0.9226 -1.7884  2.5227
  878SOL     OW 2632   1.903   2.251   0.109 -0.5547  0.1574 -0.1547
  878SOL    HW1 2633   2.001   2.255   0.144  3.0834 -1.2558  1.8520
  878SOL    HW2 2634   1.857   2.178   0.162 -0.8456  3.7437  2.4402
  879SOL     OW 2635   0.497   2.080   1.722 -0.1012 -0.2342 -0.2210
  879SOL    HW1 2636   0.481   2.048   1.629  0.1335 -1.8411  3.0073
  879SOL    HW2 2637   0.424   2.037   1.784  0.8221 -1.1914  0.6292
  880SOL     OW 2638   0.258   1.845   0.778 -1.2208  0.1295 -0.0774
  880SOL    HW1 2639   0.327   1.915   0.762 -3.2564  0.7985  1.4313
  880SOL    HW2 2640   0.278   1.761   0.723 -0.4589  0.3205  1.6283
  881SOL     OW 2641   1.253   3.079   2.373 -0.1239 -0.2162  0.1153
  881SOL    HW1 2642   1.234   3.059   2.469 -0.0501 -2.1861 -0.2800
  881SOL    HW2 2643   1.311   0.068   2.368 -3.2822 -0.8443  1.8905
  882SOL     OW 2644   2.563   1.059   0.928 -0.2866  0.8994  0.0175
  882SOL    HW1 2645   2.641   0.996   0.921  0.2026  0.7937 -1.8769
  882SOL    HW2 2646   2.499   1.034   1.006 -1.8950 -1.2822  1.9257
  883SOL     OW 2647   1.482   0.399   2.023  0.6047  0.2045 -0.7453
  883SOL    HW1 2648   1.450   0.419   2.118  0.0845 -3.0693 -0.1174
  883SOL    HW2 2649   1.582   0.418   2.018 -1.1466 -0.3560 -1.4352
  884SOL     OW 2650   0.201   0.243   1.713 -0.1714  0.2667  0.4913
  884SOL    HW1 2651   0.186   0.212   1.614 -0.8882  0.4332 -3.2607
  884SOL    HW2 2652   0.240   0.338   1.723  0.8532  2.2953  0.1922
  885SOL     OW 2653   2.277   1.316   2.636 -0.7990 -0.0198  0.4966
  885SOL    HW1 2654   2.354   1.387   2.634  2.7406  2.5197  1.7732
  885SOL    HW2 2655   2.231   1.308   2.546  1.6041  2.1568  1.8041
  886SOL     OW 2656   1.961   0.186   2.832 -0.1295  0.3951 -0.1596
  886SOL    HW1 2657   2.023   0.244   2.771 -0.6461  3.1082  3.2990
  886SOL    HW2 2658   1.911   0.241   2.902  0.9563  0.2756 -0.7216
  887SOL     OW 2659   1.071   2.840   1.534 -0.0912  0.2907  0.5167
  887SOL    HW1 2660   1.049   2.819   1.633  0.5196  3.0116 -0.6339
  887SOL    HW2 2661   1.172   2.826   1.515  2.6955  0.3541 -1.0020
  888SOL     OW 2662   2.144   1.693   1.959 -0.1948 -0.3549  0.2741
  888SOL    HW1 2663   2.213   1.643   2.007 -2.4524  1.7457  1.9811
  888SOL    HW2 2664   2.157   1.686   1.853 -0.9867  0.4513 -2.5762
  889SOL     OW 2665   1.988   2.382   1.206  0.3936  0.1013 -0.1830
  889SOL    HW1 2666   2.078   2.424   1.178  2.2043 -0.5960 -2.0061
  889SOL    HW2 2667   1.961   2.317   1.130  3.0497  1.0387 -0.3718
  890SOL     OW 2668   1.151   1.889   0.809 -0.2881 -0.2482  0.4759
  890SOL    HW1 2669   1.142   1.866   0.909  1.2584  0.8137 -0.2873
  890SOL    HW2 2670   1.060   1.889   0.756  1.4436 -0.3763  0.2536
  891SOL     OW 2671   0.054   1.328   0.429  0.0438 -0.4248  0.2141
  891SOL    HW1 2672   0.007   1.249   0.378 -0.9353 -0.0335 -2.6773
  891SOL    HW2 2673   3.080   1.392   0.476 -0.8536  0.8089  3.6438
  892SOL     OW 2674   2.429   1.686   2.889  0.1690  0.1119 -0.1770
  892SOL    HW1 2675   2.464   1.634   2.968  1.2476 -1.8849 -1.1694
  892SOL    HW2 2676   2.367   1.761   2.917  0.8428  2.8702 -0.6588
  893SOL     OW 2677   2.252   2.459   1.200  0.0338  0.2362  0.0931
  893SOL    HW1 2678   2.258   2.556   1.167 -1.3483  0.8796 -1.8828
  893SOL    HW2 2679   2.326   2.446   1.267 -0.8974  0.1016  0.1800
  894SOL     OW 2680   2.700   0.188   0.704 -0.4847 -0.2914  0.1878
  894SOL    HW1 2681   2.740   0.093   0.695 -0.5205  0.9715  1.9148
  894SOL    HW2 2682   2.655   0.225   0.620 -2.7095  0.9285  0.3966
  895SOL     OW 2683   2.454   2.405   2.484 -0.2046 -0.5121 -0.2094
  895SOL    HW1 2684   2.517   2.392   2.408 -1.8178 -0.8968  2.4364
  895SOL    HW2 2685   2.496   2.362   2.566 -0.0400 -1.6929  0.4410
  896SOL     OW 2686   2.092   2.757   2.562 -0.1310 -0.0121  0.0279
  896SOL    HW1 2687   2.140   2.674   2.600 -2.1164  0.4934  0.0673
  896SOL    HW2 2688   2.137   2.848   2.587  1.7463 -0.3495 -0.1599
  897SOL     OW 2689   0.344   1.457   2.012 -0.1931 -0.0760  0.0309
  897SOL    HW1 2690   0.254   1.415   2.030  1.9654  0.7720  1.5043
  897SOL    HW2 2691   0.378   1.508   2.097 -0.7274  2.1318  0.8783
  898SOL     OW 2692   2.993   1.633   1.769 -0.3067 -0.3087  0.6472
  898SOL    HW1 2693   2.940   1.626   1.854 -2.0739  1.2967 -2.6205
  898SOL    HW2 2694   3.092   1.616   1.775  0.7888  3.5249 -1.3132
  899SOL     OW 2695   1.917   0.045   1.341  0.0019 -0.3895 -0.3579
  899SOL    HW1 2696   1.868   0.109   1.407 -1.0305 -1.6109  1.5643
  899SOL    HW2 2697   1.849   3.072   1.308 -1.9062  1.0482 -2.6219
  900SOL     OW 2698   1.136   0.914   0.414  0.5221  0.1980 -0.2424
  900SOL    HW1 2699   1.213   0.847   0.411 -0.6964  2.0021  2.2934
  900SOL    HW2 2700   1.142   0.987   0.340 -0.1953 -1.1332 -0.2949
  901SOL     OW 2701   0.949   1.129   2.771 -0.4818 -0.3421 -0.3099
  901SOL    HW1 2702   0.950   1.047   2.835 -0.2044 -2.6090  4.5430
  901SOL    HW2 2703   0.911   1.097   2.680 -1.3850 -1.9134  1.3270
  902SOL     OW 2704   2.875   2.410   0.758  0.0848  0.1608  0.5206
  902SOL    HW1 2705   2.836   2.498   0.795  3.9697  0.7288 -0.1468
  902SOL    HW2 2706   2.851   2.323   0.810  0.2693 -2.2656  1.1975
  903SOL     OW 2707   2.699   1.358   1.867 -0.0490  0.2990  0.3179
  903SOL    HW1 2708   2.661   1.453   1.869  1.5242 -0.8423 -1.0258
  903SOL    HW2 2709   2.758   1.340   1.943 -0.4559  3.2192 -1.3748
  904SOL     OW 2710   1.568   1.163   0.705  0.4041  0.0576  0.1523
  904SOL    HW1 2711   1.478   1.125   0.673  0.1687 -3.0140 -2.5642
  904SOL    HW2 2712   1.649   1.114   0.658  0.8466  1.5034 -0.8779
  905SOL     OW 2713   2.409   2.567   1.448  0.0678 -0.3069  0.1523
  905SOL    HW1 2714   2.386   2.666   1.442  0.4798  0.5827  0.2962
  905SOL    HW2 2715   2.505   2.552   1.484  3.8838  2.2587 -0.6836
  906SOL     OW 2716   1.439   2.468   2.999  0.2120  0.3800  0.1092
  906SOL    HW1 2717   1.485   2.485   3.090  1.5643 -0.6004  4.5619
  906SOL    HW2 2718   1.501   2.427   2.931 -0.1833 -1.0062  2.0897
  907SOL     OW 2719   0.482   2.915   0.670  0.4756 -0.1519  0.1373
  907SOL    HW1 2720   0.476   3.000   0.607 -0.6277 -1.8577  1.8079
  907SOL    HW2 2721   0.562   2.917   0.736  1.2259 -0.0333  2.7466
  908SOL     OW 2722   0.606   0.258   2.145  0.5248  0.1105 -0.1720
  908SOL    HW1 2723   0.642   0.186   2.208 -0.5396  0.5871 -0.4974
  908SOL    HW2 2724   0.681   0.285   2.081 -3.0086 -1.4397  3.0288
  909SOL     OW 2725   2.099   0.491   1.518  0.3545  0.5325 -0.2067
  909SOL    HW1 2726   2.045   0.447   1.446 -1.4748 -1.1350 -1.2349
  909SOL    HW2 2727   2.074   0.448   1.608 -0.2590  1.2808  1.3453
  910SOL     OW 2728   0.996   0.748   0.208 -0.1375  0.3887 -0.4980
  910SOL    HW1 2729   0.911   0.704   0.252 -1.8340 -0.0311  0.0599
  910SOL    HW2 2730   1.045   0.807   0.277  0.1736 -0.5695 -1.2247
  911SOL     OW 2731   0.056   0.417   2.958 -0.4293 -0.0914 -0.3758
  911SOL    HW1 2732   0.004   0.392   3.044 -0.1408 -1.3658 -0.5038
  911SOL    HW2 2733   0.047   0.339   2.893  0.3133  0.7455  1.3856
  912SOL     OW 2734   2.634   2.278   2.688  0.8397  0.1290  0.6152
  912SOL    HW1 2735   2.654   2.375   2.696  1.4114 -2.4444  1.2872
  912SOL    HW2 2736   2.678   2.232   2.608  2.9331 -3.3405 -0.9855
  913SOL     OW 2737   2.498   2.425   3.067  0.2921 -0.5671  0.1861
  913SOL    HW1 2738   2.559   2.422   0.054 -5.0207  1.4577 -0.8344
  913SOL    HW2 2739   2.499   2.511   3.015  1.0429  0.6723 -0.7019
  914SOL     OW 2740   1.883   1.681   1.833  0.0814  0.7717  0.0486
  914SOL    HW1 2741   1.954   1.679   1.905  1.1394  1.0899 -0.7652
  914SOL    HW2 2742   1.796   1.682   1.882  1.3135  1.4668 -0.7963
  915SOL     OW 2743   3.002   2.419   2.276  0.6144 -0.5126 -0.1702
  915SOL    HW1 2744   2.976   2.458   2.368  1.8443  0.6108  2.9123
  915SOL    HW2 2745   2.934   2.447   2.212  4.2262  0.0249  2.3403
  916SOL     OW 2746   2.840   0.976   1.632  0.0826  0.4134 -0.0906
  916SOL    HW1 2747   2.852   1.074   1.639 -0.1255 -4.7787 -1.7459
  916SOL    HW2 2748   2.904   0.948   1.553  1.2065 -2.3607 -1.9585
  917SOL     OW 2749   2.131   0.020   3.000 -0.4733  0.0158 -0.3349
  917SOL    HW1 2750   2.044   3.092   3.048 -2.8449 -0.4683 -1.6330
  917SOL    HW2 2751   2.105   0.066   2.914 -0.0294 -1.9480  2.0884
  918SOL     OW 2752   1.779   2.501   2.146  0.1161 -0.0685  0.5704
  918SOL    HW1 2753   1.877   2.475   2.142 -1.5354  1.6134 -2.6353
  918SOL    HW2 2754   1.753   2.557   2.224  1.8087  2.1490 -0.2926
  919SOL     OW 2755   1.902   2.320   1.839 -0.0024 -0.2840 -0.5235
  919SOL    HW1 2756   1.889   2.289   1.744 -0.0899 -3.6805 -0.3034
  919SOL    HW2 2757   1.879   2.249   1.903  0.4114  2.8131 -0.6036
  920SOL     OW 2758   0.465   0.989   0.187 -0.3970 -0.6249  0.3305
  920SOL    HW1 2759   0.557   1.012   0.214 -1.1772  0.5715 -0.2727
  920SOL    HW2 2760   0.474   0.930   0.102  2.2466 -0.2381  1.3177
  921SOL     OW 2761   2.869   0.946   2.637 -0.1115 -0.1470 -0.3588
  921SOL    HW1 2762   2.809   0.968   2.713  0.4396 -2.1155  1.5493
  921SOL    HW2 2763   2.828   0.967   2.542  0.8930  2.0045 -0.4150
  922SOL     OW 2764   0.304   2.076   0.114 -0.3649 -0.4713  0.1648
  922SOL    HW1 2765   0.244   2.058   0.030 -0.8222 -2.9682 -2.1635
  922SOL    HW2 2766   0.380   2.012   0.107 -0.9187  1.9172  1.0429
  923SOL     OW 2767   0.496   0.914   2.319 -0.0117  0.2203  0.6331
  923SOL    HW1 2768   0.430   0.864   2.258  0.0230 -0.8778  0.9018
  923SOL    HW2 2769   0.535   0.855   2.391  0.2620 -2.0327 -1.4379
  924SOL     OW 2770   0.966   2.845   2.604  0.1724  0.0502 -0.1224
  924SOL    HW1 2771   0.876   2.863   2.559  0.6425  0.2371 -1.2533
  924SOL    HW2 2772   0.981   2.911   2.683  2.4603  3.8528 -1.0480
  925SOL     OW 2773   1.601   1.254   0.982 -0.4965 -0.1613 -0.0644
  925SOL    HW1 2774   1.596   1.208   0.889  3.2259  0.7010 -0.5193
  925SOL    HW2 2775   1.542   1.206   1.048 -1.1951 -2.1128  1.7399
  926SOL     OW 2776   1.755   0.784   2.023  0.3415 -0.7727 -0.0916
  926SOL    HW1 2777   1.766   0.724   1.941  1.4203 -1.2805  0.7270
  926SOL    HW2 2778   1.658   0.783   2.050  2.5281  2.0033  1.9341
  927SOL     OW 2779   2.919   2.495   1.705 -0.4092  0.1890  0.0057
  927SOL    HW1 2780   2.924   2.420   1.772  1.2313  0.3843 -0.4468
  927SOL    HW2 2781   2.869   2.582   1.732 -0.2239  1.9293 -0.4535
  928SOL     OW 2782   0.309   0.977   2.726  0.0429 -0.0736  0.1552
  928SOL    HW1 2783   0.333   0.877   2.741 -1.0249 -0.0344  0.1476
  928SOL    HW2 2784   0.395   1.026   2.707 -2.1605 -1.3128 -2.6690
  929SOL     OW 2785   2.733   3.001   0.716 -0.3760  0.1391  0.5302
  929SOL    HW1 2786   2.670   2.977   0.796  0.7805  1.1258  2.9002
  929SOL    HW2 2787   2.696   2.954   0.633 -0.4924  0.1842 -0.5473
  930SOL     OW 2788   2.422   0.273   1.677  0.3580  0.2709 -0.6185
  930SOL    HW1 2789   2.405   0.177   1.641  0.5904 -0.1809 -1.3386
  930SOL    HW2 2790   2.414   0.344   1.609  0.9925 -1.3613  1.8908
  931SOL     OW 2791   2.222   0.991   3.034 -0.1608  0.2486  0.0538
  931SOL    HW1 2792   2.306   0.938   3.020 -1.6526  2.1635 -0.7628
  931SOL    HW2 2793   2.191   1.049   2.957  2.7922 -0.5283  1.6588
  932SOL     OW 2794   2.181   1.704   1.699  0.2550 -0.4324  0.0970
  932SOL    HW1 2795   2.152   1.789   1.660 -2.7796 -3.5811  1.9036
  932SOL    HW2 2796   2.166   1.630   1.629  2.7035  4.4437 -1.4713
  933SOL     OW 2797   0.121   2.782   1.387 -0.4408  0.5368 -0.4144
  933SOL    HW1 2798   0.148   2.682   1.388  0.3617 -1.3819 -2.2163
  933SOL    HW2 2799   0.098   2.822   1.482 -0.4277  1.3454  0.1167
  934SOL     OW 2800   0.776   2.466   1.294 -0.0040  0.4818 -0.1674
  934SOL    HW1 2801   0.801   2.367   1.277 -3.0370 -1.4820  0.2825
  934SOL    HW2 2802   0.844   2.515   1.353 -0.2192 -2.3731  0.9345
  935SOL     OW 2803   2.271   1.333   2.117  0.1633  0.6284  0.1280
  935SOL    HW1 2804   2.324   1.337   2.204  0.7774 -1.0833  0.6216
  935SOL    HW2 2805   2.257   1.233   2.097 -1.3381 -0.2388  0.3925
  936SOL     OW 2806   2.248   1.265   1.670  0.0307  0.1793 -0.2520
  936SOL    HW1 2807   2.227   1.362   1.656 -0.9334 -2.2483 -0.5038
  936SOL    HW2 2808   2.346   1.254   1.697  1.2529  1.5776 -1.2017
  937SOL     OW 2809   2.181   1.022   2.321 -0.0167  0.0141  0.1464
  937SOL    HW1 2810   2.184   1.109   2.370  0.8392 -0.1958  0.4009
  937SOL    HW2 2811   2.195   0.941   2.385 -1.1418 -0.3826  0.8010
  938SOL     OW 2812   0.690   2.467   3.005  0.0731  0.4044  0.2188
  938SOL    HW1 2813   0.786   2.481   3.037 -1.2755  0.4097  0.8903
  938SOL    HW2 2814   0.643   2.553   2.976 -1.8606 -0.6556 -1.4383
  939SOL     OW 2815   2.841   0.693   3.020 -0.4791  0.0384 -0.2503
  939SOL    HW1 2816   2.916   0.688   2.951 -0.6337  0.6185  1.3923
  939SOL    HW2 2817   2.881   0.674   0.020  2.2267 -1.1426 -0.5908
  940SOL     OW 2818   1.072   1.876   1.078 -0.3675  0.2432 -0.0657
  940SOL    HW1 2819   1.114   1.788   1.102 -0.5909  1.3440 -1.0796
  940SOL    HW2 2820   0.989   1.893   1.134 -1.0038 -1.8753  0.1427
  941SOL     OW 2821   0.732   2.097   1.851  0.0815  0.0251  0.4014
  941SOL    HW1 2822   0.645   2.086   1.795 -0.4096  0.4280 -1.3960
  941SOL    HW2 2823   0.783   2.009   1.840 -0.5429 -1.5759 -1.4575
  942SOL     OW 2824   0.206   2.000   2.759  0.2720  0.1398 -0.5108
  942SOL    HW1 2825   0.162   2.015   2.670 -0.7604 -0.1470 -1.1269
  942SOL    HW2 2826   0.293   1.947   2.749 -1.5533 -0.1696  3.1879
  943SOL     OW 2827   1.855   2.817   1.764 -0.1693  0.3264 -0.2155
  943SOL    HW1 2828   1.838   2.730   1.818 -2.6772 -0.6646  2.0439
  943SOL    HW2 2829   1.934   2.806   1.698  0.8747  0.8753 -2.4841
  944SOL     OW 2830   1.043   1.811   0.211  0.2403 -0.4049 -0.4172
  944SOL    HW1 2831   1.062   1.838   0.115 -0.5383 -0.9275  0.5206
  944SOL    HW2 2832   0.981   1.729   0.204 -0.5101  1.2987 -2.4882
  945SOL     OW 2833   2.602   2.620   0.971  0.6482  0.0624 -0.1243
  945SOL    HW1 2834   2.684   2.667   0.929 -0.5285  0.7303 -0.7109
  945SOL    HW2 2835   2.548   2.563   0.904 -1.7628 -3.0730 -2.6189
  946SOL     OW 2836   0.784   1.660   2.684 -0.0982 -0.1231  0.8682
  946SOL    HW1 2837   0.867   1.629   2.632 -1.4361 -0.8043 -1.5530
  946SOL    HW2 2838   0.791   1.622   2.781  1.1588 -3.0523  0.2503
  947SOL     OW 2839   0.060   0.565   2.158  0.0525  0.5292  0.6825
  947SOL    HW1 2840   0.120   0.643   2.171 -0.1550  1.9627  2.2588
  947SOL    HW2 2841   0.025   0.549   2.062 -0.7298  0.5090  1.8175
  948SOL     OW 2842   0.047   1.595   0.713 -0.4322  0.5864  0.0034
  948SOL    HW1 2843   0.132   1.637   0.669  0.0113 -2.0512 -2.1373
  948SOL    HW2 2844   0.064   1.588   0.814  0.8546  4.1374  0.3365
  949SOL     OW 2845   0.583   0.750   2.522  0.1129 -0.3714  0.2958
  949SOL    HW1 2846   0.566   0.653   2.541 -0.0037 -0.5723  0.0396
  949SOL    HW2 2847   0.681   0.757   2.491  0.6721  0.5969  2.3029
  950SOL     OW 2848   0.329   0.463   1.480  0.3938  0.0394 -0.4488
  950SOL    HW1 2849   0.399   0.533   1.480 -3.3395 -3.2481 -2.2156
  950SOL    HW2 2850   0.376   0.375   1.502 -1.8012 -0.2277 -0.4829
  951SOL     OW 2851   0.583   1.499   2.594 -0.5920 -0.3580  0.9470
  951SOL    HW1 2852   0.651   1.555   2.641 -1.2995 -0.0685 -1.2486
  951SOL    HW2 2853   0.634   1.426   2.539  1.8643 -1.2504 -1.3528
  952SOL     OW 2854   1.982   2.157   0.744 -0.2722  0.1234  0.1747
  952SOL    HW1 2855   1.933   2.078   0.705 -1.6600 -0.3544  0.0770
  952SOL    HW2 2856   1.956   2.240   0.692  1.1113 -0.1391 -0.4464
  953SOL     OW 2857   0.728   0.679   0.274  1.1215 -0.5288 -0.6091
  953SOL    HW1 2858   0.754   0.652   0.372 -0.7441  0.6863 -1.9667
  953SOL    HW2 2859   0.633   0.659   0.246  0.6337 -1.1155  1.0420
  954SOL     OW 2860   2.392   0.314   1.140  0.2485 -0.0913  0.1163
  954SOL    HW1 2861   2.458   0.324   1.065  0.1260  0.8699 -3.0763
  954SOL    HW2 2862   2.296   0.328   1.111 -0.0344  2.1606 -0.2559
  955SOL     OW 2863   1.782   1.164   0.269 -0.4968 -0.2524 -0.3366
  955SOL    HW1 2864   1.859   1.165   0.197  2.0913  2.5036 -0.5832
  955SOL    HW2 2865   1.693   1.183   0.223  0.7062 -1.9827  0.7585
  956SOL     OW 2866   1.138   0.510   2.089  0.3633  0.3855 -0.2284
  956SOL    HW1 2867   1.111   0.518   1.991 -0.0623 -1.7215  0.1759
  956SOL    HW2 2868   1.200   0.586   2.119 -0.6547 -1.0286 -0.5539
  957SOL     OW 2869   1.295   0.435   1.837 -0.0965  0.3993  0.0167
  957SOL    HW1 2870   1.261   0.342   1.817 -1.3987  2.2589  2.8600
  957SOL    HW2 2871   1.358   0.431   1.916 -3.1791  2.0647  1.7404
  958SOL     OW 2872   0.302   2.082   0.399  0.5149 -0.0418  0.1429
  958SOL    HW1 2873   0.292   2.072   0.301 -1.2517  2.4985  1.8610
  958SOL    HW2 2874   0.389   2.054   0.430 -5.4878 -0.4147 -1.5705
  959SOL     OW 2875   2.152   0.991   1.624  0.1392  0.0704 -0.0100
  959SOL    HW1 2876   2.188   1.087   1.641  0.5970  2.6928  3.0443
  959SOL    HW2 2877   2.119   0.952   1.713 -0.5018  0.5612 -1.0899
  960SOL     OW 2878   0.111   1.657   2.921 -0.6573  0.2124 -0.2089
  960SOL    HW1 2879   0.201   1.703   2.937 -0.5521 -0.2327 -0.6896
  960SOL    HW2 2880   0.099   1.584   2.992  0.9316 -1.2012 -0.4905
  961SOL     OW 2881   0.479   2.105   1.047 -0.2698  0.0860 -0.0758
  961SOL    HW1 2882   0.400   2.051   1.079  0.8996  2.2109 -0.3908
  961SOL    HW2 2883   0.443   2.197   1.020 -0.9805 -2.1646  0.5497
  962SOL     OW 2884   0.350   1.397   1.134  0.0356  0.0950  0.1251
  962SOL    HW1 2885   0.371   1.331   1.059 -1.6696  0.7668 -0.0197
  962SOL    HW2 2886   0.319   1.492   1.110  0.4277  1.0826  0.3556
  963SOL     OW 2887   1.478   1.753   2.352 -0.4220  0.9403  0.4820
  963SOL    HW1 2888   1.473   1.652   2.379  0.6999 -1.2004  0.2274
  963SOL    HW2 2889   1.570   1.774   2.311  0.2484 -1.3228  1.1144
  964SOL     OW 2890   0.029   3.077   2.112  0.6595 -0.4105  0.5506
  964SOL    HW1 2891   3.052   3.002   2.103 -0.6288 -1.3246  1.3833
  964SOL    HW2 2892   0.122   3.051   2.082  0.2164 -1.8168 -1.1900
  965SOL     OW 2893   0.122   2.094   2.501  0.4166 -0.1000 -0.0850
  965SOL    HW1 2894   0.083   2.171   2.554  0.7748  0.9323  1.3782
  965SOL    HW2 2895   0.057   2.061   2.430  0.5172  1.2577  0.3365
  966SOL     OW 2896   2.803   1.640   3.002  0.0976  0.7679  0.2033
  966SOL    HW1 2897   2.790   1.541   2.979 -1.4937 -1.2152 -0.9020
  966SOL    HW2 2898   2.863   1.657   3.079  0.4678  2.0247  0.0895
  967SOL     OW 2899   1.916   3.082   0.079 -0.1275  0.4690  0.0490
  967SOL    HW1 2900   1.918   2.981   0.078 -0.7323  0.8607  1.6754
  967SOL    HW2 2901   1.821   0.024   0.089  0.0156 -1.5881  0.8822
  968SOL     OW 2902   2.504   0.080   0.445  0.1986 -0.6833 -0.3532
  968SOL    HW1 2903   2.539   3.078   0.466 -0.4461  0.2703  0.8641
  968SOL    HW2 2904   2.400   0.084   0.431 -0.9644  0.0010  0.5929
  969SOL     OW 2905   0.145   0.982   1.781 -0.3332 -0.0885  0.3337
  969SOL    HW1 2906   0.231   1.004   1.725  0.2468 -0.0120 -1.2631
  969SOL    HW2 2907   0.114   0.887   1.774  1.2857  1.6185 -0.9300
  970SOL     OW 2908   1.551   1.913   0.124  0.3441 -0.5202  0.0548
  970SOL    HW1 2909   1.617   1.983   0.159  1.2916 -0.2259 -0.7792
  970SOL    HW2 2910   1.452   1.933   0.149 -2.4505  1.8360  0.2908
  971SOL     OW 2911   2.539   2.880   1.617  0.4606 -0.1637  0.1694
  971SOL    HW1 2912   2.635   2.857   1.601 -1.0113  2.5315 -0.5608
  971SOL    HW2 2913   2.524   2.893   1.715  1.1915  0.2506 -1.7536
  972SOL     OW 2914   2.900   0.319   1.226  0.0426  0.1929 -0.1029
  972SOL    HW1 2915   2.963   0.349   1.156 -0.1893  2.3416  2.2155
  972SOL    HW2 2916   2.832   0.259   1.175 -1.1669 -0.2210  0.1952
  973SOL     OW 2917   0.731   0.493   2.537 -0.2209  0.0201  0.3324
  973SOL    HW1 2918   0.831   0.516   2.555 -1.1264 -0.3426  1.7174
  973SOL    HW2 2919   0.682   0.486   2.626  1.3491 -0.4829 -0.8081
  974SOL     OW 2920   2.537   1.460   2.238  0.1503 -0.2422 -0.2001
  974SOL    HW1 2921   2.460   1.518   2.207  0.8956  1.3825  1.4893
  974SOL    HW2 2922   2.621   1.475   2.182 -2.1345  3.8550  0.3589
  975SOL     OW 2923   1.172   0.200   1.791 -0.3175 -0.2930  0.1522
  975SOL    HW1 2924   1.157   0.187   1.893  0.0026  0.3854  0.9452
  975SOL    HW2 2925   1.135   0.119   1.732  1.7576 -2.6705  0.7171
  976SOL     OW 2926   1.489   1.539   1.527  0.0567  0.2159  0.0135
  976SOL    HW1 2927   1.579   1.506   1.562 -3.9946  0.4901 -2.1537
  976SOL    HW2 2928   1.514   1.578   1.435  0.3108  1.5769  0.7942
  977SOL     OW 2929   0.509   0.086   0.206 -0.3266 -0.4083 -0.0292
  977SOL    HW1 2930   0.568   0.168   0.191 -0.8284  2.4368 -0.9355
  977SOL    HW2 2931   0.522   0.023   0.128  1.3913 -0.9511  0.1796
  978SOL     OW 2932   2.269   1.061   2.049  0.6044  0.0981  0.0526
  978SOL    HW1 2933   2.337   1.019   1.987 -1.6168 -1.9372  3.5926
  978SOL    HW2 2934   2.244   1.006   2.134 -3.0100 -2.0689  2.1918
  979SOL     OW 2935   1.479   0.846   1.964  0.5829  0.0548 -0.1631
  979SOL    HW1 2936   1.410   0.842   2.036 -0.4963  0.9154  0.3455
  979SOL    HW2 2937   1.488   0.938   1.930 -0.6627 -0.6090 -1.5447
  980SOL     OW 2938   1.903   1.548   2.517  0.7972 -0.0339  0.3432
  980SOL    HW1 2939   1.890   1.523   2.416 -1.7047 -1.0040 -0.7901
  980SOL    HW2 2940   1.832   1.507   2.577 -1.2328  0.5627  1.4924
  981SOL     OW 2941   1.731   0.637   1.779 -1.1178  0.5158  0.1651
  981SOL    HW1 2942   1.655   0.626   1.714 -1.4069 -0.6285  0.8735
  981SOL    HW2 2943   1.814   0.668   1.726 -0.9908  1.5975  1.5301
  982SOL     OW 2944   0.773   0.575   0.026  0.5049  0.7033 -0.3186
  982SOL    HW1 2945   0.783   0.618   0.116  0.3285 -3.8914 -0.6362
  982SOL    HW2 2946   0.779   0.639   3.040  0.0480 -2.2750  0.8394
  983SOL     OW 2947   2.550   0.668   0.206  0.6123 -0.1579 -0.4187
  983SOL    HW1 2948   2.555   0.716   0.297 -2.0374 -2.0622 -0.9582
  983SOL    HW2 2949   2.632   0.610   0.191 -1.3013 -0.2289  2.5725
  984SOL     OW 2950   0.803   0.230   2.543  0.1763  0.1708 -0.6210
  984SOL    HW1 2951   0.891   0.246   2.584 -0.4732  1.3171 -1.5609
  984SOL    HW2 2952   0.767   0.317   2.507  3.2307 -0.5357 -0.0941
  985SOL     OW 2953   1.638   1.757   1.991 -0.2273 -0.0026  0.9010
  985SOL    HW1 2954   1.559   1.697   2.011  2.8342  2.1469  2.2961
  985SOL    HW2 2955   1.674   1.783   2.083 -1.6107  0.2649 -0.3152
  986SOL     OW 2956   2.465   2.610   1.858 -0.2962  0.2509  0.4069
  986SOL    HW1 2957   2.553   2.656   1.878 -1.5286  1.1513 -4.0507
  986SOL    HW2 2958   2.412   2.616   1.947 -0.1090 -0.8450  1.2215
  987SOL     OW 2959   1.718   1.501   1.023 -0.2055  0.1131 -0.4122
  987SOL    HW1 2960   1.647   1.568   0.996  1.0134 -1.1284 -0.7213
  987SOL    HW2 2961   1.680   1.404   1.002  1.8002  0.0049  0.7714
  988SOL     OW 2962   2.701   1.816   2.041  0.2486  0.6554 -0.1455
  988SOL    HW1 2963   2.796   1.785   2.068  0.9486 -3.8261 -0.7405
  988SOL    HW2 2964   2.630   1.825   2.118 -0.6303  4.1760  1.9627
  989SOL     OW 2965   1.164   2.430   0.335  0.1644  0.0422 -0.2911
  989SOL    HW1 2966   1.089   2.497   0.305  2.3715  3.6122 -0.7120
  989SOL    HW2 2967   1.139   2.381   0.422 -1.5948 -1.0117  1.2418
  990SOL     OW 2968   2.032   0.584   2.637  0.0501  0.4114 -0.1718
  990SOL    HW1 2969   2.113   0.651   2.639 -0.3903  0.4826 -0.5713
  990SOL    HW2 2970   2.056   0.487   2.636 -1.4953  1.7767  1.6455
  991SOL     OW 2971   1.255   0.382   0.841 -0.8461  0.8059  0.2663
  991SOL    HW1 2972   1.163   0.364   0.792  0.2407  2.4719  0.0502
  991SOL    HW2 2973   1.263   0.343   0.934  0.6456  1.2765 -1.2956
  992SOL     OW 2974   2.819   0.831   1.164  0.2546 -0.6065  0.5441
  992SOL    HW1 2975   2.728   0.820   1.205  0.0068  3.5324  0.3304
  992SOL    HW2 2976   2.881   0.755   1.188 -3.0001  0.4110 -2.7592
  993SOL     OW 2977   2.212   0.683   1.858 -0.3816 -0.3848 -0.6157
  993SOL    HW1 2978   2.240   0.590   1.886  0.1259  1.4284 -1.1259
  993SOL    HW2 2979   2.281   0.713   1.786 -0.2073 -0.2781 -1.6457
  994SOL     OW 2980   0.996   1.612   2.535  0.6832 -0.9813  0.0636
  994SOL    HW1 2981   1.050   1.544   2.490 -2.4581  0.1218 -0.4201
  994SOL    HW2 2982   0.977   1.687   2.469 -0.4710 -2.0788  0.8883
  995SOL     OW 2983   2.191   1.295   2.898  0.0898  0.3305  0.3152
  995SOL    HW1 2984   2.207   1.313   2.799 -0.2811  0.6625  0.5313
  995SOL    HW2 2985   2.129   1.367   2.933 -0.6161  1.8199 -1.6874
  996SOL     OW 2986   2.072   1.953   0.463 -0.5113 -0.4597 -0.2598
  996SOL    HW1 2987   1.989   1.952   0.522 -2.2153  1.7337 -0.0434
  996SOL    HW2 2988   2.133   1.876   0.489  0.5257 -0.4956 -0.6035
  997SOL     OW 2989   2.036   0.869   1.846 -0.4014  0.2442 -0.3243
  997SOL    HW1 2990   2.025   0.910   1.940  1.1372 -0.1467  2.1801
  997SOL    HW2 2991   2.103   0.786   1.854  0.2860 -2.8037 -0.9437
  998SOL     OW 2992   2.477   0.880   0.703 -0.5640 -0.2532  0.4830
  998SOL    HW1 2993   2.377   0.889   0.728 -0.0415 -1.0259  0.9679
  998SOL    HW2 2994   2.527   0.960   0.749 -1.1165  3.0228  0.7569
  999SOL     OW 2995   2.619   1.533   0.282 -0.6835  0.0393 -0.3893
  999SOL    HW1 2996   2.551   1.582   0.225  0.5289 -0.2932  0.9547
  999SOL    HW2 2997   2.673   1.598   0.347  2.4335  1.0836 -0.3978
 1000SOL     OW 2998   0.835   0.704   1.949 -0.4225  0.3366  0.1440
 1000SOL    HW1 2999   0.883   0.631   1.897 -0.7902 -0.5096 -0.0778
 1000SOL    HW2 3000   0.791   0.671   2.036 -3.1799  0.2511  1.1858
   3.09268   3.09268   3.09268
