1000 SPC/Fw water molecules t=  46.00000 step= 46000
 3000
    1SOL     OW    1   2.158   2.715   0.712 -0.7040 -0.0934  0.1025
    1SOL    HW1    2   2.163   2.724   0.611 -1.9232  0.1213  3.4035
    1SOL    HW2    3   2.149   2.803   0.754 -1.5458 -1.6658 -0.6848
    2SOL     OW    4   1.320   0.830   2.278 -0.2884  0.0902 -0.4583
    2SOL    HW1    5   1.413   0.789   2.300  0.2905 -2.0739  2.0821
    2SOL    HW2    6   1.268   0.852   2.368  1.5366 -0.0122 -2.3928
    3SOL     OW    7   1.047   2.830   2.813 -0.3947  0.5196 -0.0554
    3SOL    HW1    8   1.102   2.776   2.881 -0.9389 -1.4029 -0.2684
    3SOL    HW2    9   1.023   2.757   2.740 -0.4050 -2.0788 -4.3399
    4SOL     OW   10   1.236   1.508   2.831 -0.2024 -0.1586  0.0781
    4SOL    HW1   11   1.293   1.422   2.817  2.2992  2.2188  1.4491
    4SOL    HW2   12   1.265   1.560   2.915 -1.1241  1.6959 -0.2577
    5SOL     OW   13   0.849   1.094   2.007 -0.7209 -0.1597 -0.4455
    5SOL    HW1   14   0.919   1.027   2.045  0.5735 -0.1604  2.1148
    5SOL    HW2   15   0.860   1.185   2.048  0.3849  2.4123  1.6777
    6SOL     OW   16   2.167   0.614   2.436 -0.0897 -0.3322  0.0300
    6SOL    HW1   17   2.210   0.563   2.356 -1.2601  0.5915 -0.3596
    6SOL    HW2   18   2.230   0.684   2.479  1.5016  2.1436 -0.3742
    7SOL     OW   19   0.414   0.866   1.676  0.0852  0.2281 -0.6157
    7SOL    HW1   20   0.396   0.856   1.573  0.5584  2.1081  0.1524
    7SOL    HW2   21   0.449   0.783   1.730  0.4558  1.0462  0.7431
    8SOL     OW   22   1.902   2.971   1.881 -0.5229  0.2857  0.4561
    8SOL    HW1   23   1.806   2.945   1.870  1.7400 -0.6015  0.0932
    8SOL    HW2   24   1.935   3.036   1.807  2.2668  2.0873  1.1411
    9SOL     OW   25   0.270   0.050   0.593 -0.4804 -0.0749  0.6496
    9SOL    HW1   26   0.300   0.142   0.627  0.2112 -2.1945 -2.7824
    9SOL    HW2   27   0.169   0.035   0.604  1.1683  1.1317  3.2551
   10SOL     OW   28   0.102   2.350   2.540  0.1419  0.1591  0.5816
   10SOL    HW1   29   0.039   2.275   2.502  0.2510 -0.1399 -1.1121
   10SOL    HW2   30   0.127   2.325   2.633 -0.2850  0.6262 -0.0507
   11SOL     OW   31   0.752   1.581   2.940  0.0182 -0.0152 -0.0487
   11SOL    HW1   32   0.688   1.565   3.018 -2.6770 -0.6162  0.5615
   11SOL    HW2   33   0.800   1.493   2.930 -3.5004 -0.1159 -1.7581
   12SOL     OW   34   2.454   2.511   1.340 -0.6738 -0.7619  0.8478
   12SOL    HW1   35   2.414   2.572   1.272 -0.7534  2.7162 -0.8491
   12SOL    HW2   36   2.418   2.422   1.339 -0.2650  1.1004 -0.9063
   13SOL     OW   37   0.622   2.783   2.955 -0.2240  0.2139  0.0413
   13SOL    HW1   38   0.613   2.872   3.005 -0.6305 -0.0488  1.3050
   13SOL    HW2   39   0.707   2.734   2.987 -0.3136  0.6174  0.1246
   14SOL     OW   40   1.214   1.680   1.415 -0.4192 -0.2978 -0.1600
   14SOL    HW1   41   1.124   1.638   1.438  1.2066  1.9123 -1.2436
   14SOL    HW2   42   1.281   1.672   1.493  0.5981 -3.1650  0.3142
   15SOL     OW   43   0.344   1.468   2.331  0.1521  0.0187  0.4132
   15SOL    HW1   44   0.339   1.556   2.275  1.9241 -0.2158  0.9000
   15SOL    HW2   45   0.290   1.397   2.277 -0.5132 -5.5857 -2.5896
   16SOL     OW   46   1.679   0.658   2.739 -0.2791 -0.3206  0.4439
   16SOL    HW1   47   1.628   0.631   2.825 -1.3466  1.1682  0.6775
   16SOL    HW2   48   1.685   0.758   2.754 -0.3630 -2.1047 -0.9848
   17SOL     OW   49   3.082   2.792   2.564  0.3834 -0.0384 -0.0665
   17SOL    HW1   50   3.075   2.836   2.660 -0.0271  0.0222  0.0607
   17SOL    HW2   51   0.030   2.716   2.561  2.1409  0.3544 -2.9033
   18SOL     OW   52   1.233   1.023   0.653  0.4754 -0.2307  0.0504
   18SOL    HW1   53   1.169   1.098   0.675 -1.6257 -2.4216 -0.3245
   18SOL    HW2   54   1.325   1.054   0.678 -1.8327 -0.3640 -1.4980
   19SOL     OW   55   3.009   1.722   2.301  0.1158  0.7596 -0.0625
   19SOL    HW1   56   3.067   1.779   2.238  0.1853  0.0099 -0.5653
   19SOL    HW2   57   3.057   1.710   2.388 -0.0632  0.3653  1.6951
   20SOL     OW   58   2.370   2.390   2.569 -0.2083 -0.1481 -0.5433
   20SOL    HW1   59   2.407   2.335   2.499 -0.4491  2.7523  2.5600
   20SOL    HW2   60   2.328   2.478   2.535 -1.5393  2.8373  0.3712
   21SOL     OW   61   1.731   1.948   0.628  0.6516  0.0017 -0.0960
   21SOL    HW1   62   1.771   2.002   0.554 -0.8751 -1.4447  1.1127
   21SOL    HW2   63   1.762   1.984   0.719  0.3990 -0.2534 -1.5044
   22SOL     OW   64   2.393   2.006   1.227  0.2091  0.4110  0.1771
   22SOL    HW1   65   2.477   2.005   1.169 -2.1494  1.6452 -1.6317
   22SOL    HW2   66   2.315   1.952   1.179 -3.5698 -0.7659  0.8087
   23SOL     OW   67   3.089   1.245   1.283  0.1528 -0.4535 -0.4790
   23SOL    HW1   68   0.066   1.241   1.265 -4.4326  0.5455  0.2972
   23SOL    HW2   69   3.044   1.308   1.222  1.2523 -0.0543  1.1033
   24SOL     OW   70   2.129   1.301   2.043 -0.0608  0.4749 -0.5834
   24SOL    HW1   71   2.174   1.379   2.001  0.7189 -0.8506  2.3825
   24SOL    HW2   72   2.149   1.292   2.144  0.8510  0.8505  0.6134
   25SOL     OW   73   1.832   3.088   2.357 -0.2945 -0.1947  0.1856
   25SOL    HW1   74   1.910   3.067   2.423  1.1988  1.8066  1.0143
   25SOL    HW2   75   1.856   3.039   2.271  0.0799 -0.8575  1.4181
   26SOL     OW   76   0.767   0.454   0.357 -0.2873  0.4704  0.1735
   26SOL    HW1   77   0.687   0.457   0.292 -0.6573 -0.6028  2.3368
   26SOL    HW2   78   0.847   0.508   0.323 -1.8918 -0.6186 -0.9571
   27SOL     OW   79   0.853   1.363   0.806 -0.6500 -0.0296 -0.0806
   27SOL    HW1   80   0.923   1.432   0.779  1.8515 -0.7352  1.3225
   27SOL    HW2   81   0.820   1.374   0.901 -4.1228 -0.2417  2.4565
   28SOL     OW   82   2.287   2.215   0.897 -0.5938 -0.1694 -0.2393
   28SOL    HW1   83   2.302   2.236   0.997 -1.1512 -2.4856  2.3567
   28SOL    HW2   84   2.352   2.273   0.840 -0.9886 -0.6470 -1.0982
   29SOL     OW   85   2.207   0.022   2.124 -0.3592  0.0890  0.5961
   29SOL    HW1   86   2.210   0.094   2.053  0.9463 -0.5579  1.0706
   29SOL    HW2   87   2.290   3.086   2.125 -2.7411  2.0436 -1.6138
   30SOL     OW   88   0.183   2.868   1.533  0.1843  0.3116  0.1926
   30SOL    HW1   89   0.117   2.794   1.539  0.3567  2.3260  0.2980
   30SOL    HW2   90   0.188   2.913   1.444  0.1739  0.2831 -1.2520
   31SOL     OW   91   0.041   1.902   2.162 -0.3266  0.2594  0.2254
   31SOL    HW1   92   3.110   1.989   2.153  0.4828 -2.6864 -0.2070
   31SOL    HW2   93   0.115   1.896   2.091 -1.4701 -2.2819 -0.0742
   32SOL     OW   94   1.479   2.339   2.283 -0.4413  0.3506 -0.4867
   32SOL    HW1   95   1.448   2.438   2.289  0.2777 -0.0434  0.2838
   32SOL    HW2   96   1.510   2.312   2.378 -0.3696 -1.1146  2.6182
   33SOL     OW   97   0.311   0.157   2.759  0.0898  0.1559 -0.5604
   33SOL    HW1   98   0.406   0.150   2.723 -0.7574 -1.5393 -0.9394
   33SOL    HW2   99   0.265   0.064   2.765 -1.8723  0.2977 -0.1478
   34SOL     OW  100   2.524   0.082   0.248  0.2676  0.5898 -0.2661
   34SOL    HW1  101   2.570   0.127   0.331 -0.0911  2.5765  1.2236
   34SOL    HW2  102   2.466   0.154   0.204 -2.4468  0.8893 -3.6941
   35SOL     OW  103   2.758   3.107   1.603 -0.2914 -0.3157  0.0261
   35SOL    HW1  104   2.830   0.048   1.559  2.8835  0.3603 -4.2817
   35SOL    HW2  105   2.776   3.012   1.573  0.7034 -1.7583  0.5327
   36SOL     OW  106   2.653   0.068   2.361 -0.8135 -0.1783 -0.0696
   36SOL    HW1  107   2.669   0.092   2.459 -0.8297  2.1024 -0.4877
   36SOL    HW2  108   2.672   0.153   2.306 -0.6003 -0.8562 -1.9535
   37SOL     OW  109   1.396   0.020   3.081  0.0713 -0.1649 -0.1476
   37SOL    HW1  110   1.468   0.048   0.029 -5.0977 -0.5215 -1.7242
   37SOL    HW2  111   1.299   0.012   0.002 -1.0188 -1.7994  1.2762
   38SOL     OW  112   0.127   0.615   0.032 -0.1081  0.0014 -0.0345
   38SOL    HW1  113   0.042   0.564   0.004  1.5900 -0.8702  2.7623
   38SOL    HW2  114   0.176   0.647   3.068 -0.6465 -0.7467  1.3291
   39SOL     OW  115   1.142   1.963   2.136 -0.0938 -0.6443  0.0626
   39SOL    HW1  116   1.218   2.018   2.101 -1.3977  0.9203  1.8642
   39SOL    HW2  117   1.161   1.925   2.231 -0.1738 -0.2953 -2.1605
   40SOL     OW  118   0.282   0.411   2.573  0.7916 -0.2000  0.6567
   40SOL    HW1  119   0.374   0.455   2.577 -0.0314  0.0236 -1.2586
   40SOL    HW2  120   0.291   0.314   2.544 -0.4510  3.4741  2.9919
   41SOL     OW  121   1.670   1.090   2.138 -0.3269  0.5815  0.1091
   41SOL    HW1  122   1.757   1.076   2.090 -1.6317  1.1502  0.8263
   41SOL    HW2  123   1.694   1.111   2.235 -0.2905  0.3109 -1.0662
   42SOL     OW  124   2.999   0.134   1.574 -0.9275 -0.7229 -0.3779
   42SOL    HW1  125   3.022   0.225   1.533 -0.2495  2.8905  0.7467
   42SOL    HW2  126   3.081   0.091   1.617 -1.3779  1.6906 -1.8015
   43SOL     OW  127   1.336   1.354   1.866  0.0366  0.3816  0.3977
   43SOL    HW1  128   1.431   1.332   1.899 -0.4733 -1.5625  1.8256
   43SOL    HW2  129   1.280   1.271   1.878 -0.5182  0.2854 -0.4048
   44SOL     OW  130   3.067   0.214   0.002  0.4499  0.1779  0.1860
   44SOL    HW1  131   0.044   0.181   0.020  0.6095  1.9247 -0.6666
   44SOL    HW2  132   3.005   0.133   3.110  2.0254  1.7643  1.6031
   45SOL     OW  133   0.355   2.071   1.574 -0.1573 -0.5196 -0.0639
   45SOL    HW1  134   0.359   2.112   1.482 -1.2933  2.6700  0.4155
   45SOL    HW2  135   0.417   2.122   1.641  1.9311  1.9621  1.6940
   46SOL     OW  136   2.446   3.011   2.017  0.2185 -0.2552 -0.0597
   46SOL    HW1  137   2.495   3.086   2.065  0.5751  1.0138 -0.8064
   46SOL    HW2  138   2.509   2.966   1.949 -0.5151  0.3698  1.6170
   47SOL     OW  139   0.628   2.007   1.217  0.0118  0.6969 -0.3515
   47SOL    HW1  140   0.655   1.955   1.298  0.8117 -0.5816 -0.9098
   47SOL    HW2  141   0.561   1.947   1.167 -0.3661 -1.9588  0.5695
   48SOL     OW  142   0.828   2.634   3.010 -0.1369  0.3846 -0.0315
   48SOL    HW1  143   0.803   2.550   2.966  2.4775  2.1074 -0.1177
   48SOL    HW2  144   0.925   2.636   3.036  0.6501 -1.0901  0.9223
   49SOL     OW  145   2.889   1.558   1.523  0.1723 -0.4446  0.5427
   49SOL    HW1  146   2.968   1.497   1.536 -1.0578  0.6310 -1.4220
   49SOL    HW2  147   2.834   1.530   1.437 -0.1514  2.1265 -2.3039
   50SOL     OW  148   1.432   2.865   0.691  0.2819 -0.2800 -0.2756
   50SOL    HW1  149   1.505   2.875   0.762  0.2349  1.5787  1.6939
   50SOL    HW2  150   1.372   2.955   0.674 -2.9180  4.2419  0.2478
   51SOL     OW  151   0.991   2.969   1.135  0.1271 -0.0793  0.2709
   51SOL    HW1  152   1.085   2.996   1.106  1.1413 -2.0158 -0.1898
   51SOL    HW2  153   0.933   3.050   1.133  2.6257 -2.3623  0.3307
   52SOL     OW  154   0.653   1.260   0.331  0.0865  0.1112  0.3076
   52SOL    HW1  155   0.652   1.203   0.243  1.7695  0.8672  0.9018
   52SOL    HW2  156   0.596   1.211   0.400 -2.4708 -0.5630  0.9497
   53SOL     OW  157   1.299   2.916   2.650  0.2806  0.0405  0.1366
   53SOL    HW1  158   1.383   2.864   2.618  2.0354  0.8457  0.1201
   53SOL    HW2  159   1.262   2.875   2.736  0.8966 -0.1044 -0.6658
   54SOL     OW  160   1.875   0.450   1.828  0.1773  0.1502  0.1166
   54SOL    HW1  161   1.844   0.455   1.728 -0.2588  3.5241 -0.0200
   54SOL    HW2  162   1.888   0.359   1.867 -0.1119 -0.1130  0.3807
   55SOL     OW  163   3.018   2.472   0.760  0.0382 -0.0163  0.5066
   55SOL    HW1  164   3.057   2.561   0.794  1.0615  3.5809  0.3606
   55SOL    HW2  165   3.088   2.411   0.716  0.7742 -0.3178  1.9143
   56SOL     OW  166   0.977   2.856   1.851  0.5469  0.1219  0.0949
   56SOL    HW1  167   0.953   2.959   1.864  0.9761  2.6584  1.7825
   56SOL    HW2  168   0.894   2.807   1.816 -0.2531 -0.1201  0.3529
   57SOL     OW  169   2.008   0.853   2.380  0.0034  0.0730 -0.2002
   57SOL    HW1  170   2.087   0.789   2.399  0.3523 -0.0870  0.0091
   57SOL    HW2  171   2.014   0.884   2.283  2.2186 -0.8656  2.4678
   58SOL     OW  172   0.224   0.939   2.144 -0.3079 -0.3194 -0.3343
   58SOL    HW1  173   0.187   0.845   2.155  1.7352 -0.8222 -1.1626
   58SOL    HW2  174   0.245   0.961   2.047  1.0887 -2.0293 -2.5388
   59SOL     OW  175   0.989   2.405   1.824 -0.0186 -0.3502  0.5515
   59SOL    HW1  176   0.922   2.428   1.748 -2.3289  1.6692 -0.6391
   59SOL    HW2  177   1.062   2.478   1.821  1.8182  0.7405 -1.1635
   60SOL     OW  178   2.522   2.520   0.281 -0.6157  0.1932  0.2867
   60SOL    HW1  179   2.609   2.570   0.310  1.1089 -2.1954  2.2788
   60SOL    HW2  180   2.505   2.525   0.182 -0.7696  0.0652  1.9100
   61SOL     OW  181   1.436   2.479   0.758 -0.9556  0.4215  0.4608
   61SOL    HW1  182   1.467   2.503   0.853  0.7327 -0.8909 -2.0952
   61SOL    HW2  183   1.353   2.419   0.761 -0.1042  1.7669 -0.6196
   62SOL     OW  184   1.528   2.926   2.956 -0.2707 -0.2147 -0.0155
   62SOL    HW1  185   1.581   2.881   3.033  2.1011 -0.3030  0.8659
   62SOL    HW2  186   1.489   3.015   2.994 -1.4405  4.6874 -0.7104
   63SOL     OW  187   2.292   0.524   0.043  0.2634 -0.3247  0.2818
   63SOL    HW1  188   2.321   0.583   0.117 -1.7266 -2.3673  3.1333
   63SOL    HW2  189   2.356   0.522   3.083  1.7779  0.5408  0.4921
   64SOL     OW  190   1.343   0.996   3.101  0.2789  0.0015  0.0302
   64SOL    HW1  191   1.252   0.982   3.055 -0.0868  0.2589  1.1514
   64SOL    HW2  192   1.327   1.047   0.072  0.9000 -1.1172  0.4444
   65SOL     OW  193   0.667   2.830   1.533 -0.1772  0.3174 -0.2367
   65SOL    HW1  194   0.683   2.817   1.434  2.2739 -0.5754  0.4300
   65SOL    HW2  195   0.568   2.822   1.554 -1.1790  3.4228 -0.2971
   66SOL     OW  196   0.973   1.084   1.529 -0.1792 -0.1779  1.2797
   66SOL    HW1  197   1.056   1.082   1.465  1.0903 -0.2791 -1.0243
   66SOL    HW2  198   0.893   1.085   1.470 -0.0660 -0.8288  1.6097
   67SOL     OW  199   2.244   2.225   1.897  0.1538 -0.4765 -0.2087
   67SOL    HW1  200   2.284   2.311   1.929  0.9267 -1.7121 -1.1535
   67SOL    HW2  201   2.279   2.202   1.804  0.5019  0.9138  1.2511
   68SOL     OW  202   0.896   1.334   2.133 -0.2976 -0.0560 -0.1533
   68SOL    HW1  203   0.805   1.348   2.177 -0.0679  0.3042  0.8687
   68SOL    HW2  204   0.945   1.426   2.121  0.7217  0.1012  0.2167
   69SOL     OW  205   2.762   2.662   0.337 -0.0864 -1.3332  0.4143
   69SOL    HW1  206   2.861   2.687   0.340  0.4815 -2.5304 -0.1153
   69SOL    HW2  207   2.713   2.740   0.380 -0.3673 -0.6182  0.1794
   70SOL     OW  208   2.503   0.803   2.274  0.2736  0.4565 -0.1717
   70SOL    HW1  209   2.504   0.884   2.337 -2.0387 -3.3389 -1.6881
   70SOL    HW2  210   2.587   0.749   2.292  0.3785  1.0862 -3.4881
   71SOL     OW  211   0.497   2.026   0.837 -0.4468 -0.0480  0.2466
   71SOL    HW1  212   0.486   1.961   0.919  1.2867  1.1543  2.1304
   71SOL    HW2  213   0.430   2.106   0.841 -1.5454  3.6705 -2.3206
   72SOL     OW  214   2.452   1.890   0.664  0.2961 -0.2831 -0.8483
   72SOL    HW1  215   2.472   1.834   0.580  0.0301 -1.2655 -2.7632
   72SOL    HW2  216   2.513   1.972   0.679 -0.7356  1.8463  1.9266
   73SOL     OW  217   1.115   0.400   0.568 -0.3906 -0.6423 -0.1262
   73SOL    HW1  218   1.124   0.466   0.486 -0.0094  1.8333 -2.7658
   73SOL    HW2  219   1.105   0.450   0.658 -0.6274 -0.8194  0.7782
   74SOL     OW  220   2.655   2.177   1.997 -0.1733 -0.1915 -0.2359
   74SOL    HW1  221   2.623   2.165   2.097 -1.3396 -0.1566  3.7634
   74SOL    HW2  222   2.590   2.229   1.935 -0.0953  1.4683 -0.7901
   75SOL     OW  223   1.525   1.758   1.863  0.3510  0.2662  0.1272
   75SOL    HW1  224   1.504   1.853   1.895 -0.8930  0.6474 -0.7387
   75SOL    HW2  225   1.551   1.696   1.942  1.6323 -3.0596 -2.2095
   76SOL     OW  226   1.118   1.794   1.030  0.3935  0.3409 -0.1254
   76SOL    HW1  227   1.215   1.766   1.029 -0.0115  0.7611 -0.3857
   76SOL    HW2  228   1.054   1.753   1.095 -1.1313  0.0190  0.0945
   77SOL     OW  229   2.760   1.408   1.745  0.1611  0.2979  0.4379
   77SOL    HW1  230   2.789   1.431   1.839  0.6429 -0.7127  0.5548
   77SOL    HW2  231   2.814   1.457   1.674  0.4485  1.2729  0.6213
   78SOL     OW  232   1.539   0.638   0.426 -0.1958  0.3916  0.0273
   78SOL    HW1  233   1.599   0.555   0.418  1.6855 -0.2012 -0.3239
   78SOL    HW2  234   1.517   0.660   0.525 -0.7523 -2.9472 -1.8658
   79SOL     OW  235   1.554   1.580   2.091  0.4024  0.9335 -0.5251
   79SOL    HW1  236   1.621   1.536   2.026 -0.3449  1.5631  2.1246
   79SOL    HW2  237   1.503   1.508   2.145 -0.8908 -0.9057  1.9706
   80SOL     OW  238   1.021   0.432   1.805 -0.0275 -0.2674  0.2693
   80SOL    HW1  239   1.026   0.361   1.734 -0.1015 -2.3087  3.5483
   80SOL    HW2  240   1.116   0.437   1.842 -1.4989  0.0094 -2.6916
   81SOL     OW  241   0.754   2.453   0.450 -0.4401 -0.5024  0.0309
   81SOL    HW1  242   0.759   2.545   0.411  1.1091  2.7035  0.5939
   81SOL    HW2  243   0.847   2.417   0.450 -1.7964  2.4564 -0.5672
   82SOL     OW  244   1.306   0.495   1.842  0.2239  0.2211 -0.0877
   82SOL    HW1  245   1.357   0.528   1.758  2.7525  3.2085 -0.9717
   82SOL    HW2  246   1.365   0.468   1.917 -3.4479  1.5420 -3.1614
   83SOL     OW  247   0.295   2.236   0.820  0.3362  0.6258  0.0170
   83SOL    HW1  248   0.301   2.323   0.865 -0.1152  0.2526  1.1267
   83SOL    HW2  249   0.241   2.247   0.730 -2.2589 -0.3967 -6.2955
   84SOL     OW  250   2.863   1.552   0.547  0.2134  0.2391  0.3051
   84SOL    HW1  251   2.879   1.456   0.523 -1.2544  1.6949 -0.4144
   84SOL    HW2  252   2.801   1.566   0.627  5.1993 -1.6494 -1.5148
   85SOL     OW  253   2.423   2.003   1.508  0.3948 -0.7800  0.0158
   85SOL    HW1  254   2.407   2.011   1.404  0.1938  0.3308 -0.4718
   85SOL    HW2  255   2.518   2.024   1.534  3.2810  0.9736 -0.8138
   86SOL     OW  256   1.561   2.268   1.270 -0.0800 -0.5283 -0.2322
   86SOL    HW1  257   1.595   2.289   1.174 -1.3655  0.4926 -1.4286
   86SOL    HW2  258   1.617   2.308   1.340  1.6935  3.7025 -0.1495
   87SOL     OW  259   2.415   1.429   0.622 -0.7922 -0.1104  0.3218
   87SOL    HW1  260   2.328   1.454   0.665 -0.1918  1.0008 -1.2567
   87SOL    HW2  261   2.418   1.437   0.519  2.4799 -1.2605 -1.2565
   88SOL     OW  262   0.769   0.054   1.086 -0.1934  0.1291 -0.4596
   88SOL    HW1  263   0.698   3.104   1.060  0.1540  0.6983  1.5339
   88SOL    HW2  264   0.795   0.131   1.020 -0.2567  2.1544  2.4544
   89SOL     OW  265   0.754   0.178   1.755  0.2398 -0.0925 -0.2390
   89SOL    HW1  266   0.735   0.225   1.667 -1.5446 -0.9142  1.5701
   89SOL    HW2  267   0.681   0.207   1.822  0.3696 -0.5441  2.4674
   90SOL     OW  268   0.016   2.055   0.629  0.2570 -0.6358  0.1800
   90SOL    HW1  269   3.043   2.021   0.596 -1.1032  0.3287 -0.3644
   90SOL    HW2  270   0.097   1.992   0.609 -2.5252 -3.1256 -1.3776
   91SOL     OW  271   0.970   1.616   1.175  0.2125 -0.4262 -0.1199
   91SOL    HW1  272   0.871   1.633   1.163 -1.0268  0.2635  1.8879
   91SOL    HW2  273   0.991   1.519   1.168  0.3737  1.8131 -0.1396
   92SOL     OW  274   2.505   2.845   1.720  0.0310  0.0727 -0.0314
   92SOL    HW1  275   2.479   2.925   1.659 -0.7653 -1.1544  1.2627
   92SOL    HW2  276   2.607   2.835   1.727 -1.0459  2.5772  0.4661
   93SOL     OW  277   0.429   1.153   2.722  0.6274 -0.1447  0.1294
   93SOL    HW1  278   0.471   1.222   2.782 -0.1046 -3.3268  0.5503
   93SOL    HW2  279   0.434   1.173   2.623  0.3283  0.5851 -0.2487
   94SOL     OW  280   2.594   0.118   2.029 -0.0128  0.5002  0.1081
   94SOL    HW1  281   2.630   0.183   2.096  0.0282 -0.9083  0.0613
   94SOL    HW2  282   2.665   0.072   1.974  0.8181 -0.2276  2.1853
   95SOL     OW  283   2.021   0.766   1.876  0.3006  0.2766  0.3078
   95SOL    HW1  284   1.952   0.816   1.819 -2.2111 -0.0225  0.5277
   95SOL    HW2  285   1.977   0.735   1.963 -0.4927 -0.3397  1.9236
   96SOL     OW  286   2.947   0.391   1.932  0.2204  0.7200  0.0879
   96SOL    HW1  287   2.850   0.391   1.912  2.4790 -0.8417 -0.4406
   96SOL    HW2  288   2.991   0.465   1.883 -4.0715  0.2114  0.3180
   97SOL     OW  289   2.347   3.026   1.481 -0.7737 -0.5708  0.5803
   97SOL    HW1  290   2.302   2.936   1.498  1.7279 -0.1896  1.2679
   97SOL    HW2  291   2.300   3.090   1.421 -1.6118  1.6478  2.0635
   98SOL     OW  292   2.085   2.598   1.605 -0.3222  0.4078  0.0814
   98SOL    HW1  293   2.067   2.514   1.661 -1.2722 -0.4164  1.7467
   98SOL    HW2  294   2.018   2.668   1.634 -0.7797 -2.0016 -0.9102
   99SOL     OW  295   3.014   0.643   1.050 -0.3507  0.3262  0.1506
   99SOL    HW1  296   3.033   0.575   1.125 -1.6881 -0.0339  0.5131
   99SOL    HW2  297   3.087   0.711   1.031  0.6660  1.2050  0.3318
  100SOL     OW  298   2.555   1.916   1.778 -0.3802 -0.3056  0.0664
  100SOL    HW1  299   2.479   1.976   1.814  1.0053  1.2221 -1.6669
  100SOL    HW2  300   2.607   1.860   1.847 -0.6173  1.7790  0.1493
  101SOL     OW  301   2.154   0.161   0.036  0.0810 -0.5679 -0.4500
  101SOL    HW1  302   2.249   0.186   0.060  0.3579  0.8009  1.7346
  101SOL    HW2  303   2.160   0.112   3.066  2.1631  0.3792 -1.8953
  102SOL     OW  304   0.798   0.350   1.367 -0.2667  0.3286  0.4858
  102SOL    HW1  305   0.784   0.362   1.468 -1.8255 -0.6716 -1.3062
  102SOL    HW2  306   0.714   0.380   1.317 -1.6622 -1.3835 -1.5296
  103SOL     OW  307   3.029   0.068   2.672  0.0510  0.5256  0.0298
  103SOL    HW1  308   3.050   0.021   2.765 -1.0677  0.2511  3.6648
  103SOL    HW2  309   3.075   0.015   2.596 -3.5567  2.8797 -0.9158
  104SOL     OW  310   0.414   2.165   1.303  0.1840 -0.2092  1.0204
  104SOL    HW1  311   0.503   2.115   1.283 -1.9762 -1.2202 -1.1733
  104SOL    HW2  312   0.437   2.265   1.296  0.5652  1.6783  1.4892
  105SOL     OW  313   0.602   1.683   2.054 -0.3655  0.0341  0.1444
  105SOL    HW1  314   0.686   1.680   2.114 -0.6490 -0.7899  0.3660
  105SOL    HW2  315   0.617   1.653   1.960 -1.4051  0.3354 -0.2565
  106SOL     OW  316   1.829   0.557   0.762  0.4134  0.2068 -0.3043
  106SOL    HW1  317   1.820   0.656   0.749 -0.3386 -1.2079  0.7579
  106SOL    HW2  318   1.748   0.496   0.746  0.6398 -1.7906  1.8273
  107SOL     OW  319   0.733   1.093   1.355 -0.5055 -0.3072 -0.1277
  107SOL    HW1  320   0.659   1.040   1.312 -1.9290 -1.1410  3.6306
  107SOL    HW2  321   0.767   1.175   1.299  2.5396  0.7140 -1.2896
  108SOL     OW  322   2.864   0.816   2.223  0.3826 -0.2278  0.1066
  108SOL    HW1  323   2.926   0.794   2.144  2.0978 -2.5490 -2.3271
  108SOL    HW2  324   2.808   0.741   2.258  0.3490  1.4689 -0.6451
  109SOL     OW  325   1.826   3.099   2.757 -0.0027 -0.1377 -0.1432
  109SOL    HW1  326   1.860   3.064   2.849  2.2867  0.3773  2.5702
  109SOL    HW2  327   1.750   3.039   2.721 -0.3260  0.6827  0.0459
  110SOL     OW  328   0.269   1.925   3.069  0.3217  0.1018 -0.1020
  110SOL    HW1  329   0.189   1.982   3.095 -1.5826  2.1739 -1.5921
  110SOL    HW2  330   0.361   1.967   3.097  0.3878  1.3067  1.3542
  111SOL     OW  331   2.701   0.604   2.311 -0.5438  0.1268  0.1318
  111SOL    HW1  332   2.631   0.540   2.342  2.1526 -0.4899  0.6859
  111SOL    HW2  333   2.788   0.552   2.288  3.5650 -1.6045 -1.0514
  112SOL     OW  334   2.667   2.643   1.423  0.1192  0.3813 -0.3866
  112SOL    HW1  335   2.581   2.586   1.402  3.2006  2.1087 -1.4755
  112SOL    HW2  336   2.738   2.639   1.350  0.5932 -2.5623 -0.2302
  113SOL     OW  337   2.000   2.180   2.004  0.3145  0.1693  0.2538
  113SOL    HW1  338   1.926   2.251   1.992  0.5067 -2.2054 -0.5845
  113SOL    HW2  339   2.087   2.199   1.961  0.8627  0.2619  2.0789
  114SOL     OW  340   0.302   0.115   0.327  0.0628  0.3468  0.2828
  114SOL    HW1  341   0.300   0.089   0.426 -1.1409 -1.6225 -3.1534
  114SOL    HW2  342   0.396   0.145   0.294 -0.6723  0.7814 -0.9143
  115SOL     OW  343   2.825   1.720   0.103 -0.1669  0.3221 -0.2920
  115SOL    HW1  344   2.896   1.712   0.027  1.7645  1.8785 -2.3308
  115SOL    HW2  345   2.787   1.626   0.129  0.1086 -1.7859 -0.6249
  116SOL     OW  346   0.011   0.898   1.522  0.4827  0.4855  0.3266
  116SOL    HW1  347   0.020   0.873   1.618 -1.1545 -0.4285 -1.4046
  116SOL    HW2  348   3.053   0.967   1.498  0.4964 -1.1194  3.2167
  117SOL     OW  349   2.485   0.141   1.418 -0.1463  0.4004  0.0415
  117SOL    HW1  350   2.493   0.051   1.459  0.4777  1.5508  1.2330
  117SOL    HW2  351   2.472   0.211   1.490 -0.7852  0.8552 -0.0267
  118SOL     OW  352   2.881   2.305   2.064 -0.1103 -0.3854  0.4680
  118SOL    HW1  353   2.860   2.398   2.035  1.8324 -1.1930  0.7730
  118SOL    HW2  354   2.815   2.230   2.037  0.2340 -1.0932 -1.2973
  119SOL     OW  355   0.709   1.653   1.141 -0.1314 -0.4283 -0.3131
  119SOL    HW1  356   0.682   1.747   1.126  0.2361  0.6453  0.4898
  119SOL    HW2  357   0.685   1.628   1.235 -1.3035  0.9943  0.9939
  120SOL     OW  358   0.417   1.745   1.511 -0.2931 -0.1667  0.3110
  120SOL    HW1  359   0.352   1.733   1.592  2.1659  0.6322  1.5847
  120SOL    HW2  360   0.364   1.778   1.429  0.6995  1.4758  1.9714
  121SOL     OW  361   1.681   1.366   1.046  0.4178 -0.6742  0.5243
  121SOL    HW1  362   1.770   1.365   1.095  0.0728 -1.8953 -1.1304
  121SOL    HW2  363   1.643   1.270   1.031 -0.9309 -0.9239 -1.7168
  122SOL     OW  364   1.804   2.401   2.568  0.9725 -0.4083  0.2054
  122SOL    HW1  365   1.873   2.353   2.624 -0.7426  1.6069 -0.7882
  122SOL    HW2  366   1.804   2.497   2.596  1.5093 -1.9667  1.8004
  123SOL     OW  367   2.983   3.013   0.276  0.0654  0.4143 -0.4283
  123SOL    HW1  368   3.079   2.992   0.313 -0.2695  0.8393 -1.9239
  123SOL    HW2  369   2.931   3.050   0.359 -1.1849  0.0825 -1.5092
  124SOL     OW  370   1.113   1.371   0.373 -0.0571 -0.5554  0.3628
  124SOL    HW1  371   1.021   1.393   0.415 -0.8626 -0.8508 -2.6061
  124SOL    HW2  372   1.100   1.285   0.309  2.8298  3.1449 -1.7164
  125SOL     OW  373   0.242   1.105   2.345 -0.0367  0.5407  0.5192
  125SOL    HW1  374   0.172   1.174   2.316  1.1072  1.2204 -0.9546
  125SOL    HW2  375   0.258   1.036   2.265  1.0928 -1.5773 -1.2810
  126SOL     OW  376   3.119   2.542   0.165  0.2337 -0.1060  0.5509
  126SOL    HW1  377   3.072   2.470   0.218  0.9421 -2.5476 -1.7517
  126SOL    HW2  378   3.094   2.632   0.209 -0.3277  1.9024  2.6796
  127SOL     OW  379   2.985   1.712   0.358 -0.2827  0.2430  0.1362
  127SOL    HW1  380   2.954   1.643   0.428  0.9695 -2.7566  2.1407
  127SOL    HW2  381   2.929   1.719   0.270 -0.6837 -1.9246  0.6487
  128SOL     OW  382   1.186   0.795   0.826  0.2371  0.1554  0.2948
  128SOL    HW1  383   1.170   0.875   0.767 -1.0436  0.6401  0.5967
  128SOL    HW2  384   1.136   0.791   0.914  1.0465 -1.7397  0.6513
  129SOL     OW  385   2.591   2.047   1.037  0.1019 -0.8087 -0.2490
  129SOL    HW1  386   2.600   2.043   0.937  0.1987 -3.1918  3.7090
  129SOL    HW2  387   2.675   2.082   1.085  0.9658 -0.2625 -0.4256
  130SOL     OW  388   2.177   1.087   0.632  0.0304  0.2507 -0.3057
  130SOL    HW1  389   2.131   1.002   0.595 -2.8252 -1.0463 -0.2319
  130SOL    HW2  390   2.209   1.064   0.724 -1.0387 -3.3138  0.5299
  131SOL     OW  391   2.923   1.240   2.402  0.3465  0.2008 -0.1749
  131SOL    HW1  392   2.879   1.327   2.371 -1.1750  0.1051  0.5657
  131SOL    HW2  393   2.905   1.161   2.335 -2.7723 -0.3999  2.5812
  132SOL     OW  394   1.418   1.375   2.257 -0.1578 -0.1711 -0.3487
  132SOL    HW1  395   1.399   1.315   2.174  1.7856 -1.1075 -0.0737
  132SOL    HW2  396   1.478   1.323   2.316 -1.4939 -1.2950 -1.0811
  133SOL     OW  397   0.171   1.299   0.203 -0.5312 -0.3688 -0.2967
  133SOL    HW1  398   0.235   1.376   0.213 -2.3584  3.3690 -3.0490
  133SOL    HW2  399   0.179   1.261   0.109  0.5080 -0.7428  0.5712
  134SOL     OW  400   2.634   0.839   0.080 -0.4629  0.3726 -0.0833
  134SOL    HW1  401   2.696   0.763   0.050 -1.6318  0.5200 -1.4752
  134SOL    HW2  402   2.639   0.922   0.022  1.8457 -2.2956  0.7001
  135SOL     OW  403   1.565   0.860   3.106  0.0051  0.0279 -0.4139
  135SOL    HW1  404   1.556   0.777   3.050  1.0756  1.6437 -0.4983
  135SOL    HW2  405   1.476   0.911   3.109 -1.3353  0.7630  0.6541
  136SOL     OW  406   1.847   1.662   1.703  0.4994 -0.1459 -0.2806
  136SOL    HW1  407   1.820   1.678   1.606 -0.5771  0.3926 -0.7105
  136SOL    HW2  408   1.948   1.659   1.716  0.3447  1.0262 -0.2807
  137SOL     OW  409   2.501   2.333   0.770  0.1644 -0.0550  0.0236
  137SOL    HW1  410   2.559   2.274   0.714  1.2231  2.5998 -0.2306
  137SOL    HW2  411   2.479   2.421   0.718 -2.6059  1.0461  1.6467
  138SOL     OW  412   2.306   0.487   1.561 -0.1001  0.3679 -0.4150
  138SOL    HW1  413   2.221   0.539   1.589 -0.9535  1.9907 -0.0664
  138SOL    HW2  414   2.295   0.451   1.463  0.9990 -1.3029 -5.9432
  139SOL     OW  415   2.613   2.907   2.808 -0.5312 -0.4357 -0.8971
  139SOL    HW1  416   2.545   2.856   2.744 -2.4767 -1.7547  1.3724
  139SOL    HW2  417   2.615   3.008   2.799  0.6474  1.1947  2.5025
  140SOL     OW  418   1.453   1.917   2.398 -0.1257  0.2206  0.2201
  140SOL    HW1  419   1.516   1.860   2.343  0.1071  0.5208  1.4138
  140SOL    HW2  420   1.356   1.889   2.397  0.4803  0.4084 -0.1978
  141SOL     OW  421   0.792   1.098   2.373  0.1426  0.1081  0.5679
  141SOL    HW1  422   0.809   1.177   2.434 -0.8071  0.3679 -0.3766
  141SOL    HW2  423   0.756   1.124   2.282  2.5299 -1.8936  1.5224
  142SOL     OW  424   2.497   2.827   2.413 -0.6836 -0.2871  0.5325
  142SOL    HW1  425   2.567   2.847   2.342  1.8716  0.4803 -0.0198
  142SOL    HW2  426   2.535   2.761   2.480 -1.6381  0.9586 -2.9536
  143SOL     OW  427   1.175   2.219   0.233 -0.3395  0.4792  0.3653
  143SOL    HW1  428   1.203   2.172   0.321  0.7081 -1.8909 -0.1006
  143SOL    HW2  429   1.082   2.261   0.235  2.4595  0.8578  0.1787
  144SOL     OW  430   1.117   2.581   0.374 -0.2864  0.4234 -0.8429
  144SOL    HW1  431   1.212   2.595   0.410  1.2190 -1.9214  0.7258
  144SOL    HW2  432   1.083   2.488   0.409 -1.3756 -3.2557  0.0432
  145SOL     OW  433   1.388   2.517   2.571 -0.3215  0.0446 -0.3127
  145SOL    HW1  434   1.308   2.509   2.509  2.8787 -0.2079 -0.7066
  145SOL    HW2  435   1.457   2.441   2.564  0.1199  0.3243 -1.6936
  146SOL     OW  436   1.910   3.020   2.998  0.5710  0.2653 -0.0981
  146SOL    HW1  437   1.994   3.082   3.010  0.8308  1.7550 -0.1489
  146SOL    HW2  438   1.894   2.974   3.086  0.6487  1.8846 -3.3527
  147SOL     OW  439   2.995   1.435   1.095  0.2138 -0.2460 -0.3181
  147SOL    HW1  440   2.943   1.439   1.004 -0.1111 -1.2192 -1.3087
  147SOL    HW2  441   3.083   1.483   1.079 -2.6286 -0.2535 -0.7293
  148SOL     OW  442   2.129   2.684   0.125  0.1667 -0.3006  0.2192
  148SOL    HW1  443   2.206   2.708   0.187  1.2032  0.5888 -3.5874
  148SOL    HW2  444   2.157   2.660   0.029 -0.5632 -0.7699 -2.2111
  149SOL     OW  445   0.646   1.836   2.935  0.0663 -0.2656  0.4580
  149SOL    HW1  446   0.706   1.752   2.938  0.8375  0.5719  0.2999
  149SOL    HW2  447   0.606   1.847   2.844 -0.8940  0.0680 -0.4311
  150SOL     OW  448   0.592   2.648   0.861  0.3333 -0.1789  0.4541
  150SOL    HW1  449   0.580   2.556   0.903 -1.7736  0.6504  1.3167
  150SOL    HW2  450   0.572   2.726   0.927  0.2650  0.1012  2.0963
  151SOL     OW  451   0.125   1.171   3.060  0.5991 -0.0530 -0.6144
  151SOL    HW1  452   0.224   1.150   3.046 -0.5518 -0.7147 -0.7518
  151SOL    HW2  453   0.059   1.119   3.002 -0.1717 -1.0752  2.9193
  152SOL     OW  454   2.822   2.076   0.795  0.5653  0.5582 -0.7845
  152SOL    HW1  455   2.871   2.150   0.847 -0.4540 -1.6228  0.9935
  152SOL    HW2  456   2.873   1.988   0.791 -1.7741 -0.1450 -2.7745
  153SOL     OW  457   1.719   2.317   1.040 -0.0780 -0.0464 -0.8392
  153SOL    HW1  458   1.798   2.304   1.107 -3.4636 -1.2000  1.7530
  153SOL    HW2  459   1.731   2.252   0.962  0.0092 -0.0269  1.9818
  154SOL     OW  460   0.589   2.975   1.213 -0.0322 -0.1302  0.8367
  154SOL    HW1  461   0.570   3.053   1.276  0.9100  1.4430 -0.6672
  154SOL    HW2  462   0.656   2.909   1.255  2.6807 -1.7368  0.8375
  155SOL     OW  463   2.900   1.837   0.622 -0.4110  0.1477  0.5567
  155SOL    HW1  464   2.913   1.884   0.535 -0.7530 -1.3600  0.9494
  155SOL    HW2  465   2.897   1.738   0.610  1.6866  2.7547 -1.2693
  156SOL     OW  466   2.589   2.143   0.375 -0.4364 -0.0738 -0.1173
  156SOL    HW1  467   2.641   2.199   0.310 -1.0199 -0.5251  1.3931
  156SOL    HW2  468   2.609   2.045   0.363 -2.9737  0.1070 -0.8850
  157SOL     OW  469   0.385   2.484   1.618  0.2368 -0.6508 -0.2320
  157SOL    HW1  470   0.361   2.523   1.708 -1.9600  1.6807  0.3711
  157SOL    HW2  471   0.321   2.412   1.589 -3.3493  1.4923  1.6173
  158SOL     OW  472   1.376   0.380   0.949 -0.0225 -0.0196  0.1783
  158SOL    HW1  473   1.360   0.278   0.959  1.2072 -0.5056  0.2842
  158SOL    HW2  474   1.362   0.434   1.034 -1.3630 -2.4922  2.0259
  159SOL     OW  475   1.703   0.808   0.236 -0.3137 -0.5570  0.4664
  159SOL    HW1  476   1.627   0.785   0.301  0.3773  0.1903 -4.0047
  159SOL    HW2  477   1.669   0.858   0.153 -0.3124  0.1610 -0.5643
  160SOL     OW  478   1.140   1.732   0.317 -0.4755 -0.3810 -0.4533
  160SOL    HW1  479   1.167   1.809   0.260 -0.8831 -2.2261 -1.1931
  160SOL    HW2  480   1.055   1.690   0.275 -0.1269 -2.9914 -0.6272
  161SOL     OW  481   2.737   2.408   2.667  0.3197  0.1921  0.3691
  161SOL    HW1  482   2.657   2.390   2.732 -0.4975  2.2936  0.4881
  161SOL    HW2  483   2.787   2.320   2.656 -0.0303  0.8370 -1.4547
  162SOL     OW  484   0.153   2.182   1.279 -0.0563  0.9406  0.4902
  162SOL    HW1  485   0.102   2.228   1.355 -0.9006 -1.3468  0.0004
  162SOL    HW2  486   0.251   2.184   1.297 -2.4956 -0.8790 -0.8456
  163SOL     OW  487   0.323   0.434   2.852 -0.5181 -0.4615 -0.2750
  163SOL    HW1  488   0.309   0.331   2.864 -2.0057 -2.5605  2.1563
  163SOL    HW2  489   0.275   0.455   2.764 -2.3255 -0.4600 -1.7367
  164SOL     OW  490   0.277   2.740   2.303  0.1260 -0.2778 -0.1898
  164SOL    HW1  491   0.359   2.768   2.359  2.2599  0.0466  0.1562
  164SOL    HW2  492   0.227   2.669   2.346  1.2270  3.6973  0.3881
  165SOL     OW  493   2.572   0.876   1.601 -0.3335  0.4313 -0.3834
  165SOL    HW1  494   2.522   0.962   1.579  0.4262  0.7938  0.4889
  165SOL    HW2  495   2.655   0.886   1.662 -0.4720  1.9007  1.2140
  166SOL     OW  496   1.978   1.934   1.493  0.5049 -0.0550  0.0090
  166SOL    HW1  497   2.069   1.883   1.515  2.9673 -2.3876  2.5973
  166SOL    HW2  498   1.910   1.865   1.455 -0.7054 -0.0706 -0.9010
  167SOL     OW  499   0.495   0.643   2.485  0.1607 -0.1942  0.4528
  167SOL    HW1  500   0.513   0.644   2.387  0.3463  2.8713 -0.8450
  167SOL    HW2  501   0.420   0.713   2.504  1.1763  0.7055  4.6918
  168SOL     OW  502   2.132   0.203   2.307  0.2398 -0.3269 -0.3967
  168SOL    HW1  503   2.173   0.185   2.395 -0.4238 -1.2306 -0.2065
  168SOL    HW2  504   2.167   0.133   2.240 -1.0729  3.9785  0.2148
  169SOL     OW  505   0.395   1.055   0.003 -0.3705 -0.0213 -0.1830
  169SOL    HW1  506   0.361   1.035   0.100  2.5134 -0.2185  1.6559
  169SOL    HW2  507   0.429   0.968   3.078 -0.1076  0.1062  1.5909
  170SOL     OW  508   1.005   1.531   1.578 -0.2694 -0.0753 -0.2013
  170SOL    HW1  509   1.065   1.458   1.621  0.1964 -5.4291 -1.3973
  170SOL    HW2  510   1.031   1.621   1.616 -1.3236 -0.9356 -2.4190
  171SOL     OW  511   1.219   2.544   1.867 -0.2008 -0.0743  0.2531
  171SOL    HW1  512   1.240   2.580   1.771 -0.0913  0.2663  1.2767
  171SOL    HW2  513   1.304   2.508   1.907 -1.6235 -0.8213 -0.3650
  172SOL     OW  514   1.215   0.045   2.032  0.2152 -0.1013  0.5611
  172SOL    HW1  515   1.295   3.100   2.040  0.7837 -2.1722  1.3973
  172SOL    HW2  516   1.218   0.108   2.113  1.3452  0.1993 -0.3497
  173SOL     OW  517   1.446   2.038   0.779  0.0006 -0.0368  0.1431
  173SOL    HW1  518   1.525   1.985   0.819  2.7195  2.5131 -1.2209
  173SOL    HW2  519   1.481   2.112   0.712 -1.2839  2.0151 -1.8906
  174SOL     OW  520   2.176   2.943   0.473 -0.3100 -0.1190  0.0238
  174SOL    HW1  521   2.086   2.946   0.520  0.2494  0.3705 -0.4385
  174SOL    HW2  522   2.156   2.985   0.384 -1.4487 -0.2608  2.3759
  175SOL     OW  523   1.195   1.501   0.609 -0.0096  0.0454 -0.7010
  175SOL    HW1  524   1.221   1.599   0.613  0.2760 -0.0654  0.0221
  175SOL    HW2  525   1.170   1.467   0.517 -0.2298 -0.7856 -1.4965
  176SOL     OW  526   0.750   1.529   0.393  0.1300  0.4043  0.2448
  176SOL    HW1  527   0.779   1.573   0.481 -2.4343  0.2146  0.6356
  176SOL    HW2  528   0.697   1.440   0.403 -1.8685  0.0314 -0.5110
  177SOL     OW  529   1.179   1.112   0.998  0.1324 -0.3893  0.0290
  177SOL    HW1  530   1.223   1.199   0.999 -1.7770 -3.6704  0.7361
  177SOL    HW2  531   1.238   1.040   1.038 -1.0731  0.3930  0.4570
  178SOL     OW  532   2.482   1.743   0.408 -0.2271  0.9849  0.0703
  178SOL    HW1  533   2.389   1.790   0.410  2.0101 -1.2646 -1.8198
  178SOL    HW2  534   2.458   1.643   0.386 -1.5086 -3.5833  1.3211
  179SOL     OW  535   1.221   2.723   0.091 -0.2618 -0.3428  0.8573
  179SOL    HW1  536   1.133   2.763   0.120  3.9182 -0.5398 -1.8483
  179SOL    HW2  537   1.290   2.729   0.165 -1.9657 -2.4433  0.8251
  180SOL     OW  538   2.036   1.382   1.698 -0.1219  0.3999  0.0690
  180SOL    HW1  539   2.113   1.403   1.638 -0.0892  2.3335  1.0990
  180SOL    HW2  540   1.976   1.459   1.711 -1.5953 -4.3633 -0.6790
  181SOL     OW  541   1.246   0.729   2.026 -0.5076 -0.7462  0.4655
  181SOL    HW1  542   1.281   0.732   2.122  2.2303 -0.1388 -3.8170
  181SOL    HW2  543   1.273   0.639   1.975  1.9749  0.8821  1.2769
  182SOL     OW  544   0.080   1.327   2.290 -0.1400  0.0367 -0.7272
  182SOL    HW1  545   3.114   1.326   2.346 -0.6340 -2.4362  1.1102
  182SOL    HW2  546   0.059   1.344   2.191 -1.5449 -1.5813  0.8316
  183SOL     OW  547   1.552   0.698   2.394  0.4912 -0.0481  0.2059
  183SOL    HW1  548   1.620   0.624   2.401 -0.6611  0.9455 -0.6884
  183SOL    HW2  549   1.479   0.672   2.456  0.3006 -0.4924 -0.4314
  184SOL     OW  550   0.690   0.677   1.397  0.3473  0.4217 -0.0699
  184SOL    HW1  551   0.771   0.725   1.429 -0.7408 -0.0093 -0.4109
  184SOL    HW2  552   0.701   0.579   1.394  0.8264  1.3230 -0.7271
  185SOL     OW  553   2.183   1.494   0.761  0.1487 -0.3457 -0.5216
  185SOL    HW1  554   2.135   1.560   0.708 -1.3810  0.5986  2.2394
  185SOL    HW2  555   2.117   1.452   0.826 -2.4487  0.6065  1.6813
  186SOL     OW  556   0.176   2.213   0.048  0.1237 -0.0211  0.2193
  186SOL    HW1  557   0.206   2.237   0.144 -1.3182  0.0465 -0.0050
  186SOL    HW2  558   0.214   2.273   3.095  0.7567 -1.5586 -0.0045
  187SOL     OW  559   2.138   2.368   0.002 -0.1490 -0.3946  0.1467
  187SOL    HW1  560   2.096   2.403   0.090 -1.0637  0.8574  0.6414
  187SOL    HW2  561   2.160   2.274   0.019 -0.6879  1.8793 -1.7871
  188SOL     OW  562   1.111   2.067   1.097  0.1079 -0.5708 -0.0680
  188SOL    HW1  563   1.011   2.079   1.125  0.6696 -1.6207  1.7320
  188SOL    HW2  564   1.117   1.972   1.057 -1.1407 -1.3463  2.2177
  189SOL     OW  565   2.227   1.540   2.428 -0.1290  0.0115 -0.2337
  189SOL    HW1  566   2.128   1.549   2.405  0.3061 -0.8525  0.3974
  189SOL    HW2  567   2.257   1.625   2.474  1.4395 -1.1575 -2.1835
  190SOL     OW  568   0.946   2.496   2.161  0.1925  0.0523 -0.3342
  190SOL    HW1  569   0.983   2.568   2.099  0.7069  0.2112 -2.8009
  190SOL    HW2  570   0.867   2.537   2.206  0.1039 -0.2821 -0.0050
  191SOL     OW  571   2.478   0.848   1.206 -0.1127 -0.0975 -0.6175
  191SOL    HW1  572   2.571   0.875   1.241  0.9006  0.5577 -3.7187
  191SOL    HW2  573   2.490   0.756   1.163 -0.4418 -0.4653 -0.2599
  192SOL     OW  574   2.548   0.616   1.534  0.3508 -0.1787  0.8458
  192SOL    HW1  575   2.452   0.580   1.550 -1.2146  1.0736  0.3519
  192SOL    HW2  576   2.557   0.707   1.577 -1.3770  1.5627 -0.2122
  193SOL     OW  577   0.532   0.397   0.201  0.5886  0.8123 -0.0226
  193SOL    HW1  578   0.464   0.465   0.230  0.7686  1.4088  0.6849
  193SOL    HW2  579   0.539   0.392   0.099  0.4969  0.0053  1.8346
  194SOL     OW  580   1.078   2.433   1.448 -0.2770  0.2112  0.0344
  194SOL    HW1  581   1.097   2.333   1.458 -0.8635  2.4258  1.3100
  194SOL    HW2  582   1.166   2.482   1.471  1.1623  0.3398 -1.4684
  195SOL     OW  583   2.617   1.248   0.265 -0.4294  0.2118 -0.3876
  195SOL    HW1  584   2.612   1.213   0.361  0.3256 -1.8376 -2.2088
  195SOL    HW2  585   2.554   1.197   0.211 -1.0733  1.6953  1.2305
  196SOL     OW  586   0.628   2.449   1.479  0.1196  0.1220 -0.0815
  196SOL    HW1  587   0.586   2.441   1.386 -0.0305  0.0461  3.4469
  196SOL    HW2  588   0.555   2.473   1.541  0.6188  0.8144 -2.4312
  197SOL     OW  589   0.140   0.661   2.178 -0.1803  0.8316  0.6209
  197SOL    HW1  590   0.192   0.598   2.116  1.6109 -1.7609 -0.8977
  197SOL    HW2  591   0.145   0.635   2.277 -1.3228  1.2097  0.9792
  198SOL     OW  592   1.611   0.980   0.539 -0.5616  0.0407  0.2667
  198SOL    HW1  593   1.535   0.928   0.497  1.0278 -1.0119  0.1115
  198SOL    HW2  594   1.669   1.024   0.466  2.3801  0.1439  1.7911
  199SOL     OW  595   2.762   0.450   1.598 -0.7482 -0.1373  0.1035
  199SOL    HW1  596   2.768   0.430   1.697 -0.5631  0.0304  3.0355
  199SOL    HW2  597   2.681   0.508   1.577  2.1425  0.1798  2.3801
  200SOL     OW  598   2.173   0.034   2.921 -0.1599 -0.8922 -0.5478
  200SOL    HW1  599   2.163   3.066   2.862  3.8227  0.5625 -1.5196
  200SOL    HW2  600   2.209   0.113   2.869 -2.3821 -1.8033 -0.1417
  201SOL     OW  601   2.609   0.202   1.172  0.1955 -0.1388 -0.0406
  201SOL    HW1  602   2.579   0.193   1.270  0.4111  1.7117  0.6472
  201SOL    HW2  603   2.548   0.277   1.137 -0.5952 -0.0928  1.0740
  202SOL     OW  604   3.018   2.749   0.308  0.1408  0.1481  0.4854
  202SOL    HW1  605   3.036   2.750   0.409 -0.0176 -3.3242  1.7548
  202SOL    HW2  606   3.001   2.840   0.272 -0.4374 -2.5996  1.7763
  203SOL     OW  607   1.328   1.637   3.052  0.5371  0.5144 -0.3620
  203SOL    HW1  608   1.309   1.587   0.020 -0.8446 -1.5930  1.4716
  203SOL    HW2  609   1.428   1.635   3.031 -1.0213 -0.1121  0.1240
  204SOL     OW  610   0.432   2.065   2.222  0.0662  0.6695  0.1303
  204SOL    HW1  611   0.457   2.043   2.128 -0.5836 -0.7360  2.5139
  204SOL    HW2  612   0.362   1.999   2.260  0.4156 -0.2677  1.3352
  205SOL     OW  613   0.941   0.528   0.907 -0.3124  0.1680 -0.3918
  205SOL    HW1  614   0.955   0.468   0.988 -0.1844 -2.5482  0.9556
  205SOL    HW2  615   1.031   0.537   0.856 -0.1225 -1.4683  0.6752
  206SOL     OW  616   0.276   0.703   2.944 -0.2520  0.1630 -0.4272
  206SOL    HW1  617   0.258   0.779   2.885  1.5443 -4.6120  0.1600
  206SOL    HW2  618   0.288   0.613   2.893 -0.5408  1.5435 -0.9052
  207SOL     OW  619   1.554   2.425   1.726  0.8215 -0.1278  0.3190
  207SOL    HW1  620   1.646   2.470   1.738 -0.5715  2.0848  0.9890
  207SOL    HW2  621   1.534   2.386   1.815  3.6107 -0.9605 -2.1661
  208SOL     OW  622   0.173   2.903   0.968  0.4719 -0.7727 -0.2930
  208SOL    HW1  623   0.217   2.913   0.878 -0.0936 -0.3332  3.3671
  208SOL    HW2  624   0.108   2.985   0.983 -2.2800  2.1032 -0.7030
  209SOL     OW  625   1.474   1.114   0.730 -0.0265  0.1318 -0.0172
  209SOL    HW1  626   1.508   1.118   0.826 -1.7008 -2.6539  1.8483
  209SOL    HW2  627   1.531   1.053   0.671 -1.7561 -0.4204  1.2898
  210SOL     OW  628   2.434   0.777   0.515  0.2460  0.3339  0.1964
  210SOL    HW1  629   2.451   0.786   0.616 -2.1089 -0.3129  0.2833
  210SOL    HW2  630   2.519   0.769   0.457  1.2267 -0.2829 -1.2988
  211SOL     OW  631   1.298   0.174   0.204 -0.3424  0.0796  0.4771
  211SOL    HW1  632   1.249   0.141   0.122 -0.1954  0.3465 -0.5013
  211SOL    HW2  633   1.389   0.133   0.204 -3.2307 -1.8032 -2.3971
  212SOL     OW  634   1.873   2.133   0.470 -0.4544 -0.1603 -0.1056
  212SOL    HW1  635   1.845   2.211   0.538 -0.3702  1.7722  0.5675
  212SOL    HW2  636   1.860   2.154   0.374 -0.4431  1.7529 -1.1611
  213SOL     OW  637   2.285   0.270   2.790  0.2660  0.1260  0.1510
  213SOL    HW1  638   2.366   0.316   2.753 -0.2828 -1.4678 -0.1413
  213SOL    HW2  639   2.209   0.333   2.813 -1.2202  1.2704  3.4413
  214SOL     OW  640   0.876   1.939   2.214 -0.0010 -0.5600 -0.7876
  214SOL    HW1  641   0.969   1.961   2.176 -0.6336 -0.5782 -1.2201
  214SOL    HW2  642   0.819   2.022   2.207 -0.3467  0.4148  1.0987
  215SOL     OW  643   0.223   1.320   1.167  0.0122 -0.0265 -0.2315
  215SOL    HW1  644   0.178   1.409   1.155  2.5603  0.6389  0.0325
  215SOL    HW2  645   0.300   1.327   1.236 -0.9258  1.7326  1.2098
  216SOL     OW  646   0.114   2.229   2.825 -0.4019 -0.0121  0.7201
  216SOL    HW1  647   0.016   2.222   2.862  0.8716 -0.3006 -2.5603
  216SOL    HW2  648   0.174   2.291   2.879 -1.6467  0.8678 -0.5392
  217SOL     OW  649   2.667   1.154   1.446  0.2030  0.3491  0.2254
  217SOL    HW1  650   2.688   1.068   1.403 -0.1609 -0.9451 -0.3269
  217SOL    HW2  651   2.655   1.142   1.550 -2.5305  1.1618 -1.3570
  218SOL     OW  652   0.742   2.275   1.926 -0.4187  0.4997  0.2257
  218SOL    HW1  653   0.822   2.336   1.901 -0.2226  1.6090  1.0717
  218SOL    HW2  654   0.764   2.218   2.011  1.5740 -1.1003  4.3741
  219SOL     OW  655   2.084   1.505   0.371 -0.2963  0.1399  0.2921
  219SOL    HW1  656   2.150   1.538   0.300 -1.8573  2.1887 -0.2219
  219SOL    HW2  657   2.097   1.550   0.461 -0.1387 -1.2874  0.9197
  220SOL     OW  658   2.000   0.767   0.510  0.0002 -0.2162  0.1616
  220SOL    HW1  659   1.971   0.757   0.414  1.4712 -0.0969  1.1770
  220SOL    HW2  660   1.923   0.804   0.569 -1.8781 -2.2289 -3.2397
  221SOL     OW  661   2.642   0.421   0.190  0.2750  0.3373  0.3742
  221SOL    HW1  662   2.622   0.441   0.284  0.8738 -1.6137 -3.7712
  221SOL    HW2  663   2.741   0.387   0.187  1.5933 -2.2095 -0.7187
  222SOL     OW  664   1.459   1.376   0.645  0.2219  0.3862 -0.2775
  222SOL    HW1  665   1.458   1.277   0.667  1.3197  0.2972  0.3540
  222SOL    HW2  666   1.366   1.411   0.646  1.9366  0.7793  0.4190
  223SOL     OW  667   1.009   3.076   2.900 -0.4264  0.5375  0.5233
  223SOL    HW1  668   1.074   0.006   2.838 -0.4561 -1.2769  0.3463
  223SOL    HW2  669   1.008   2.974   2.882 -2.3232 -0.4044  1.8039
  224SOL     OW  670   1.107   2.816   1.430  0.5633 -0.4260  0.2280
  224SOL    HW1  671   1.072   2.882   1.365  0.3120  1.3102  2.5879
  224SOL    HW2  672   1.116   2.861   1.520  2.5133  1.1258 -1.2938
  225SOL     OW  673   0.385   2.643   1.886 -0.2928 -0.4790 -0.5272
  225SOL    HW1  674   0.341   2.704   1.955  0.3432  0.9617  0.9428
  225SOL    HW2  675   0.442   2.571   1.939  0.1535  2.3789  0.1508
  226SOL     OW  676   1.543   1.323   0.275 -0.1520  0.1188  0.0125
  226SOL    HW1  677   1.553   1.403   0.336 -2.8078  1.3027 -0.2451
  226SOL    HW2  678   1.466   1.328   0.213  0.1004  2.1876 -1.1287
  227SOL     OW  679   0.508   1.427   0.795 -0.7301  1.1054  0.8175
  227SOL    HW1  680   0.491   1.499   0.724  0.5254 -0.9471  0.6120
  227SOL    HW2  681   0.481   1.335   0.767 -1.0876 -1.8591  2.3505
  228SOL     OW  682   0.121   1.735   0.799  0.1243 -0.0064  0.2389
  228SOL    HW1  683   0.052   1.739   0.876 -0.0878 -0.9286  0.1436
  228SOL    HW2  684   0.103   1.806   0.733 -0.6327  0.1257  2.1186
  229SOL     OW  685   2.721   0.308   2.966  0.2732 -0.1325 -0.0653
  229SOL    HW1  686   2.688   0.233   3.026  0.7196  0.5208  0.6681
  229SOL    HW2  687   2.800   0.272   2.906 -1.7624 -0.5642 -0.7811
  230SOL     OW  688   2.240   1.013   0.884 -0.2100 -0.2813  0.3125
  230SOL    HW1  689   2.286   1.091   0.927 -3.3043 -0.5722  1.1932
  230SOL    HW2  690   2.181   0.968   0.956 -2.8520 -1.1200  0.9741
  231SOL     OW  691   1.604   1.390   2.921  0.2025  0.6091 -0.2199
  231SOL    HW1  692   1.585   1.488   2.925  1.9772 -1.4149  2.3487
  231SOL    HW2  693   1.675   1.373   2.996 -0.0050 -0.1808 -0.3213
  232SOL     OW  694   2.239   1.988   0.786  0.3129 -0.7590 -0.1690
  232SOL    HW1  695   2.324   1.952   0.745 -1.4368  0.8238  2.0422
  232SOL    HW2  696   2.256   2.083   0.824 -0.2746  0.1281 -1.0930
  233SOL     OW  697   0.508   2.877   0.974  0.3893 -0.2765 -0.3088
  233SOL    HW1  698   0.515   2.909   1.074  0.7770  0.4171  1.1084
  233SOL    HW2  699   0.511   2.953   0.903  0.8614 -0.9200  2.7031
  234SOL     OW  700   0.845   0.198   2.709  0.5270 -0.3086 -0.5681
  234SOL    HW1  701   0.920   0.205   2.646 -2.9342 -0.5525 -0.4873
  234SOL    HW2  702   0.867   0.242   2.796 -0.1396 -2.3456 -0.9627
  235SOL     OW  703   2.869   1.085   2.190  0.3050  0.2597  0.3668
  235SOL    HW1  704   2.876   0.983   2.198 -2.6307 -0.6541  1.3542
  235SOL    HW2  705   2.928   1.120   2.112  1.4933 -0.4261 -3.0026
  236SOL     OW  706   1.481   2.872   1.655 -0.2186  0.2337 -0.0726
  236SOL    HW1  707   1.387   2.844   1.683  1.1951 -1.5447 -0.4666
  236SOL    HW2  708   1.518   2.812   1.586 -1.6735  2.2970  1.5779
  237SOL     OW  709   0.859   1.332   2.518  0.7120  0.3640 -0.0349
  237SOL    HW1  710   0.811   1.416   2.483 -0.2218 -3.6620 -0.7413
  237SOL    HW2  711   0.958   1.349   2.538  0.3618  0.2288 -1.2738
  238SOL     OW  712   1.004   0.565   2.357 -0.1571  0.1584 -0.4851
  238SOL    HW1  713   0.956   0.656   2.369  1.2942 -1.9818  1.1466
  238SOL    HW2  714   0.939   0.486   2.370 -1.8018 -0.9171 -0.8785
  239SOL     OW  715   0.185   2.286   2.031  0.2540 -0.2810  0.7932
  239SOL    HW1  716   0.193   2.188   2.013 -0.1780  1.3852  0.6384
  239SOL    HW2  717   0.276   2.329   2.057 -2.8978 -2.0950 -0.3955
  240SOL     OW  718   2.327   3.058   0.646  0.7513  0.3689  0.0579
  240SOL    HW1  719   2.287   3.041   0.734  2.1617 -0.0648 -2.1366
  240SOL    HW2  720   2.275   3.009   0.573  0.0189  3.7610  0.2017
  241SOL     OW  721   2.930   0.927   0.291 -0.2715  0.0396 -0.1092
  241SOL    HW1  722   2.975   0.846   0.257  0.9847  2.6007  0.3459
  241SOL    HW2  723   2.935   0.996   0.215 -0.9919 -1.5253  1.5058
  242SOL     OW  724   1.807   2.519   1.774  0.0604  0.3969 -0.2278
  242SOL    HW1  725   1.877   2.449   1.779 -0.9552  2.7440  1.0472
  242SOL    HW2  726   1.789   2.548   1.868 -1.1979 -0.6343 -1.4544
  243SOL     OW  727   0.531   2.428   1.992  0.1713 -0.2067  0.2004
  243SOL    HW1  728   0.625   2.392   1.981 -0.4740 -0.8118  0.4735
  243SOL    HW2  729   0.480   2.397   2.075 -1.2200 -1.4427 -0.9678
  244SOL     OW  730   2.494   0.444   2.355  1.0244 -0.1914 -0.1227
  244SOL    HW1  731   2.499   0.400   2.446 -0.2914  0.4426  0.0485
  244SOL    HW2  732   2.396   0.451   2.319 -1.4601 -1.5103 -2.0520
  245SOL     OW  733   1.245   3.061   1.088  0.4388  0.0721  0.0904
  245SOL    HW1  734   1.234   0.006   1.168 -0.1505 -3.7053  1.3078
  245SOL    HW2  735   1.264   0.004   1.006  0.4013 -0.4836 -0.1555
  246SOL     OW  736   1.673   2.878   0.495  0.5392 -0.0066 -0.4833
  246SOL    HW1  737   1.701   2.778   0.486 -1.9684 -0.6283 -0.8928
  246SOL    HW2  738   1.597   2.889   0.568 -1.7690 -0.2336  1.6778
  247SOL     OW  739   1.618   0.645   1.897 -0.9442  0.2813  0.3058
  247SOL    HW1  740   1.549   0.606   1.958  0.0641  0.2626 -2.9285
  247SOL    HW2  741   1.714   0.641   1.938  2.6020  1.0765  2.5893
  248SOL     OW  742   3.063   2.141   1.714  0.0397  0.0459 -0.7590
  248SOL    HW1  743   0.022   2.077   1.706 -0.9907 -1.8085  2.3673
  248SOL    HW2  744   2.984   2.097   1.760 -0.9981  0.3116 -0.5475
  249SOL     OW  745   2.907   0.357   0.204  0.2013  0.4855 -0.3465
  249SOL    HW1  746   2.959   0.416   0.272 -1.1265  1.2597  0.0124
  249SOL    HW2  747   2.976   0.295   0.154  0.9418  2.3571 -1.5076
  250SOL     OW  748   2.702   0.121   2.622 -0.2026  0.3868  0.7040
  250SOL    HW1  749   2.797   0.087   2.624  1.5077  1.2415  0.6996
  250SOL    HW2  750   2.646   0.100   2.704 -1.9592 -0.5942 -0.0007
  251SOL     OW  751   1.404   0.609   0.180  0.0006 -0.4089  0.4568
  251SOL    HW1  752   1.435   0.687   0.120  3.5291 -2.1371 -1.8550
  251SOL    HW2  753   1.471   0.603   0.257  1.3308 -0.5820 -1.3529
  252SOL     OW  754   1.427   2.380   1.981 -0.4625 -0.2217 -0.0127
  252SOL    HW1  755   1.366   2.314   1.945  2.1996  2.4182 -0.4663
  252SOL    HW2  756   1.412   2.402   2.078  0.7814 -2.7785  0.5113
  253SOL     OW  757   2.427   2.615   1.076  0.3004 -0.3074 -0.1440
  253SOL    HW1  758   2.488   2.537   1.049  0.6741  0.7481  1.1452
  253SOL    HW2  759   2.460   2.701   1.032 -0.9251 -0.8992 -3.2515
  254SOL     OW  760   2.356   1.259   0.932  0.4454  0.3380 -0.1904
  254SOL    HW1  761   2.358   1.308   0.844 -0.2488 -2.6505  1.2849
  254SOL    HW2  762   2.444   1.256   0.982 -2.7110 -0.5286  0.7715
  255SOL     OW  763   0.769   2.775   1.280 -0.1523 -0.5728 -0.1852
  255SOL    HW1  764   0.860   2.819   1.261  0.1158 -1.6820 -0.7390
  255SOL    HW2  765   0.782   2.676   1.284 -2.8541  2.2773 -0.9477
  256SOL     OW  766   1.899   2.193   1.590 -0.3114 -0.1010  0.1447
  256SOL    HW1  767   1.949   2.114   1.543  0.3022 -3.7816 -3.1941
  256SOL    HW2  768   1.795   2.188   1.575 -3.4729  1.1008 -2.0849
  257SOL     OW  769   0.534   2.457   2.407  0.2589 -0.5391 -0.3378
  257SOL    HW1  770   0.490   2.485   2.494 -0.3827  1.8135 -4.7333
  257SOL    HW2  771   0.599   2.529   2.370  0.6996  0.4643 -3.1931
  258SOL     OW  772   0.879   2.604   0.788  0.2552  0.3512  0.1545
  258SOL    HW1  773   0.923   2.684   0.833 -1.9493 -3.2395  0.7999
  258SOL    HW2  774   0.779   2.604   0.813  0.6356 -1.2324  2.0872
  259SOL     OW  775   1.525   0.623   2.973 -0.2148  0.1746 -0.3830
  259SOL    HW1  776   1.541   0.525   3.003  1.7942 -0.1270  0.4722
  259SOL    HW2  777   1.435   0.636   2.935  1.8657 -0.7621  2.3493
  260SOL     OW  778   2.949   1.047   1.163  0.4041 -0.9629  0.3175
  260SOL    HW1  779   2.991   1.123   1.211 -2.0672  1.8968  1.4307
  260SOL    HW2  780   3.006   0.963   1.158  0.5739 -0.2086 -0.7390
  261SOL     OW  781   0.832   0.356   2.464 -0.2384  0.5623  0.2912
  261SOL    HW1  782   0.915   0.309   2.504  1.3664 -0.5169  0.7396
  261SOL    HW2  783   0.757   0.290   2.436 -2.1021  0.2259  0.3684
  262SOL     OW  784   1.105   2.295   2.219  0.0414  0.0632 -0.0069
  262SOL    HW1  785   1.034   2.362   2.194  0.7690 -1.5875 -1.3518
  262SOL    HW2  786   1.147   2.257   2.133  0.1055  3.1282  3.2501
  263SOL     OW  787   0.565   2.282   3.049  0.0328  0.0014 -0.2417
  263SOL    HW1  788   0.615   2.326   0.005  2.7568  1.0764  0.2067
  263SOL    HW2  789   0.561   2.184   3.079 -0.1001  2.3802 -0.9707
  264SOL     OW  790   1.050   1.365   1.143  0.1785 -0.0374 -0.4116
  264SOL    HW1  791   1.085   1.350   1.052 -1.5563  0.6857 -1.6124
  264SOL    HW2  792   1.125   1.357   1.209 -3.3993  3.6285 -2.4303
  265SOL     OW  793   1.017   2.362   0.476  0.2328 -0.1344 -0.3298
  265SOL    HW1  794   0.995   2.266   0.463  0.1744  5.3155 -0.4643
  265SOL    HW2  795   1.036   2.379   0.574  0.3664 -0.6798 -1.7353
  266SOL     OW  796   2.493   0.668   1.018  0.1351  0.2372 -0.2572
  266SOL    HW1  797   2.591   0.651   0.994  3.2745 -0.4069 -1.0371
  266SOL    HW2  798   2.456   0.715   0.938  1.8697 -2.5746  1.1633
  267SOL     OW  799   2.952   1.423   2.846  0.1579 -0.1901 -0.2738
  267SOL    HW1  800   3.003   1.393   2.931  0.5994 -0.0093 -0.0225
  267SOL    HW2  801   2.981   1.370   2.760  1.0068 -0.1551 -0.4439
  268SOL     OW  802   1.581   0.075   0.199  0.0758 -0.1405  0.2293
  268SOL    HW1  803   1.614   0.036   0.284  1.1108  2.3338  1.0257
  268SOL    HW2  804   1.628   0.161   0.174  0.3887 -1.8288  0.3755
  269SOL     OW  805   3.061   0.831   2.451 -0.0136 -0.2449 -0.2774
  269SOL    HW1  806   3.008   0.826   2.365 -0.2446  0.4763  1.0769
  269SOL    HW2  807   3.088   0.929   2.461 -0.3015  1.2312 -1.7886
  270SOL     OW  808   3.046   1.352   3.082 -0.1956  0.1379  0.5911
  270SOL    HW1  809   2.969   1.313   0.017 -0.8920  1.0048  2.8218
  270SOL    HW2  810   3.113   1.282   3.058  2.5346 -1.1468  0.1750
  271SOL     OW  811   2.599   1.632   2.534  0.2288 -0.3951  0.5078
  271SOL    HW1  812   2.602   1.561   2.613 -0.4669 -0.1443  1.7550
  271SOL    HW2  813   2.582   1.576   2.451 -2.5821 -0.6010  1.5005
  272SOL     OW  814   2.516   2.323   1.807  0.1243  0.4821 -0.4545
  272SOL    HW1  815   2.454   2.404   1.805  2.5634 -1.5463 -0.2310
  272SOL    HW2  816   2.584   2.319   1.733 -1.1165  0.0036  1.0980
  273SOL     OW  817   0.249   2.589   0.053 -0.4560  0.7378 -0.1105
  273SOL    HW1  818   0.258   2.691   0.037  1.1538 -1.3311 -0.3913
  273SOL    HW2  819   0.158   2.570   0.095  2.4591  0.7902  0.7020
  274SOL     OW  820   1.033   2.366   0.771  0.0596 -0.4323 -0.2462
  274SOL    HW1  821   1.005   2.462   0.799 -2.6691  1.4193  1.5166
  274SOL    HW2  822   1.110   2.333   0.833  0.1334  2.2683 -2.5716
  275SOL     OW  823   2.259   1.571   0.154 -0.1280 -0.1470  0.1192
  275SOL    HW1  824   2.229   1.668   0.132  1.7023  1.8514  1.8134
  275SOL    HW2  825   2.288   1.515   0.078 -1.6665  1.8452 -0.1688
  276SOL     OW  826   2.599   1.625   1.341 -0.2998 -0.3678  0.9076
  276SOL    HW1  827   2.654   1.541   1.318  1.8817 -0.4547 -0.6273
  276SOL    HW2  828   2.656   1.716   1.340  4.1178 -0.0374  0.0930
  277SOL     OW  829   2.276   0.321   0.943  0.8905 -0.2425  0.1487
  277SOL    HW1  830   2.193   0.361   0.910  1.5071 -3.0911 -1.2682
  277SOL    HW2  831   2.257   0.230   0.981  0.3725 -0.3420 -0.7980
  278SOL     OW  832   1.705   0.501   2.515  0.0663 -0.1234 -0.0550
  278SOL    HW1  833   1.720   0.567   2.595  1.8177  0.8936 -1.3735
  278SOL    HW2  834   1.671   0.415   2.552  1.9780  0.4315  0.3890
  279SOL     OW  835   1.357   2.722   1.350  0.0141  0.1422  0.2249
  279SOL    HW1  836   1.366   2.745   1.249  1.7139  0.5445 -0.4405
  279SOL    HW2  837   1.272   2.768   1.384  1.4716 -0.4477  0.3237
  280SOL     OW  838   1.107   0.857   0.433  0.0351 -0.5899 -0.3143
  280SOL    HW1  839   1.003   0.872   0.431 -1.9640 -0.5806  1.7447
  280SOL    HW2  840   1.151   0.906   0.510  1.3394  1.2532  1.2942
  281SOL     OW  841   2.422   1.648   2.841  0.3261 -0.2013 -0.3054
  281SOL    HW1  842   2.499   1.715   2.860 -0.1486 -0.9345  0.5068
  281SOL    HW2  843   2.333   1.691   2.861  0.2316 -0.3851 -1.3097
  282SOL     OW  844   2.796   1.439   0.158 -0.1040  0.1664  0.1490
  282SOL    HW1  845   2.733   1.377   0.211  1.4861 -3.3596 -1.6312
  282SOL    HW2  846   2.885   1.452   0.205  2.3219 -3.4613 -1.1109
  283SOL     OW  847   1.648   2.884   2.715  0.0591 -0.4893 -0.1195
  283SOL    HW1  848   1.580   2.855   2.647  1.5017 -1.1462  0.9802
  283SOL    HW2  849   1.598   2.900   2.803 -0.6263  2.7523 -0.2607
  284SOL     OW  850   0.738   0.044   2.938 -0.7177 -0.1947  0.1836
  284SOL    HW1  851   0.758   0.143   2.955 -1.3762  0.9409 -0.9746
  284SOL    HW2  852   0.827   3.108   2.923  0.4355  2.0657 -0.5552
  285SOL     OW  853   1.915   2.060   2.520  0.6405  0.0999  0.2987
  285SOL    HW1  854   1.933   2.087   2.422  0.1037 -1.8351 -0.2407
  285SOL    HW2  855   1.920   2.138   2.587 -0.4198 -2.3310 -0.7025
  286SOL     OW  856   1.280   1.783   0.688  0.0545  0.1876  0.5963
  286SOL    HW1  857   1.297   1.874   0.723  1.7347 -1.9706 -0.6630
  286SOL    HW2  858   1.283   1.717   0.768 -0.2741 -1.8359  2.2748
  287SOL     OW  859   1.712   0.286   1.511  0.6927  0.2453 -0.2930
  287SOL    HW1  860   1.679   0.239   1.598 -1.8533  0.0478 -0.7639
  287SOL    HW2  861   1.705   0.389   1.526 -1.2173  1.4121  0.7291
  288SOL     OW  862   0.710   2.612   2.284 -0.3041  0.0790 -0.0730
  288SOL    HW1  863   0.716   2.691   2.351  1.9734  0.9823  0.0252
  288SOL    HW2  864   0.677   2.648   2.195 -0.6244  2.2582  0.8035
  289SOL     OW  865   0.266   1.205   0.932  0.1271  0.2928 -0.1280
  289SOL    HW1  866   0.180   1.173   0.887 -0.2060 -0.9268  1.2349
  289SOL    HW2  867   0.241   1.245   1.021 -0.2737 -0.2243 -3.9024
  290SOL     OW  868   1.117   2.157   1.499 -0.4461 -0.2779 -0.7742
  290SOL    HW1  869   1.155   2.124   1.590  0.8306  0.1674 -1.8535
  290SOL    HW2  870   1.110   2.077   1.441  4.0149  0.0323  0.0306
  291SOL     OW  871   1.941   2.884   0.574  0.0604 -0.7424 -0.1969
  291SOL    HW1  872   1.929   2.893   0.673  1.9840 -0.7340 -4.5584
  291SOL    HW2  873   1.849   2.885   0.529  0.5931 -0.1564  1.4179
  292SOL     OW  874   0.362   0.394   1.542  0.4365 -0.0105 -0.5354
  292SOL    HW1  875   0.324   0.429   1.453  0.6310 -1.3225  0.8114
  292SOL    HW2  876   0.328   0.458   1.612  1.2433 -0.7170 -3.1146
  293SOL     OW  877   2.348   1.568   0.971 -0.2504 -0.1148 -0.6480
  293SOL    HW1  878   2.426   1.622   0.940 -0.7423 -1.5388 -0.8731
  293SOL    HW2  879   2.287   1.566   0.890  2.7176 -1.2234 -0.3015
  294SOL     OW  880   0.626   0.352   2.184 -0.1751  0.4920 -0.2282
  294SOL    HW1  881   0.699   0.357   2.113 -1.4845  4.3124  2.2113
  294SOL    HW2  882   0.650   0.269   2.238  0.6459  0.4695  0.2354
  295SOL     OW  883   0.876   1.284   0.518 -0.4807 -0.0861 -0.5416
  295SOL    HW1  884   0.797   1.258   0.459  2.7240 -0.2061  0.0574
  295SOL    HW2  885   0.840   1.296   0.611  3.2369  0.6943 -0.6072
  296SOL     OW  886   2.193   1.886   1.068 -0.6706 -0.0469  0.3029
  296SOL    HW1  887   2.145   1.797   1.063  3.6416 -0.0073 -2.2874
  296SOL    HW2  888   2.210   1.913   0.971 -0.7827  0.2010  0.3146
  297SOL     OW  889   1.972   0.386   2.816 -0.1683  0.5628  0.1431
  297SOL    HW1  890   2.016   0.391   2.725  0.3467  0.2776  2.3145
  297SOL    HW2  891   2.001   0.469   2.871 -1.8538 -2.2396 -1.8102
  298SOL     OW  892   1.209   0.056   2.728  0.2091 -0.1692 -0.1984
  298SOL    HW1  893   1.258   3.089   2.716  1.0413  1.3952 -0.2896
  298SOL    HW2  894   1.270   0.133   2.760  0.1423  2.5989  0.4658
  299SOL     OW  895   1.014   0.240   2.227 -0.1382 -0.1445  0.6584
  299SOL    HW1  896   1.069   0.289   2.291 -2.0373 -1.5436  1.0192
  299SOL    HW2  897   0.996   0.145   2.259 -0.3579  0.6259  1.2701
  300SOL     OW  898   2.515   0.041   1.690  0.0280  0.1518 -0.0217
  300SOL    HW1  899   2.613   0.039   1.660  3.5792 -0.4210 -0.0037
  300SOL    HW2  900   2.489   0.139   1.703  0.2638 -0.1088 -1.0050
  301SOL     OW  901   2.476   0.311   1.646 -0.3309  0.5387  0.0874
  301SOL    HW1  902   2.566   0.353   1.641 -3.0984  0.0420 -0.9797
  301SOL    HW2  903   2.399   0.378   1.628  1.0701 -2.6855 -0.8290
  302SOL     OW  904   0.744   2.684   0.330  0.4902 -0.8287  0.4136
  302SOL    HW1  905   0.815   2.724   0.390 -1.4585 -0.7862  0.0567
  302SOL    HW2  906   0.753   2.730   0.238  1.2694  1.9100  0.0625
  303SOL     OW  907   1.746   1.926   1.734 -0.3124  0.1861  0.4420
  303SOL    HW1  908   1.689   1.839   1.739 -2.2269 -3.5976 -2.1067
  303SOL    HW2  909   1.811   1.926   1.657 -1.0335  0.9185 -0.1138
  304SOL     OW  910   0.664   0.412   0.994  0.3855 -0.4441  0.1571
  304SOL    HW1  911   0.613   0.423   1.086 -1.3692 -0.8346  2.5055
  304SOL    HW2  912   0.719   0.494   0.966 -0.8019 -1.7818 -1.5410
  305SOL     OW  913   0.815   0.672   0.681 -0.0881  0.9892  0.3991
  305SOL    HW1  914   0.748   0.619   0.626  1.8349 -0.4524  1.5029
  305SOL    HW2  915   0.869   0.615   0.742  2.1869  0.9063 -0.6080
  306SOL     OW  916   0.566   1.284   2.908  0.0605 -0.5539 -0.3739
  306SOL    HW1  917   0.661   1.274   2.884 -2.1630 -3.1434  0.7866
  306SOL    HW2  918   0.549   1.316   3.003 -0.0918  0.4630  2.3947
  307SOL     OW  919   0.847   0.364   2.012 -0.0578 -0.4940 -0.1963
  307SOL    HW1  920   0.898   0.385   1.924 -2.6123  0.9845 -0.9885
  307SOL    HW2  921   0.905   0.315   2.083  0.2725 -2.5518  2.5207
  308SOL     OW  922   0.836   0.195   0.866 -0.3234 -0.2783 -0.2520
  308SOL    HW1  923   0.777   0.274   0.898  0.8276  0.4079  1.2288
  308SOL    HW2  924   0.829   0.185   0.768 -0.9076  1.8700  1.3382
  309SOL     OW  925   2.307   1.022   0.403 -0.0195 -0.3337  0.5757
  309SOL    HW1  926   2.277   1.082   0.477 -1.1819 -0.5037  0.7755
  309SOL    HW2  927   2.369   0.942   0.431  0.9239  0.1147 -2.6177
  310SOL     OW  928   0.999   1.406   2.922 -0.2442  0.6142 -0.5944
  310SOL    HW1  929   1.087   1.451   2.889  2.0352  1.4022  1.0972
  310SOL    HW2  930   0.995   1.404   3.027 -0.3452 -1.6158  1.1992
  311SOL     OW  931   1.874   2.614   2.083  0.0472 -0.0756  0.7227
  311SOL    HW1  932   1.929   2.651   2.006  0.3901  1.6749 -2.6794
  311SOL    HW2  933   1.932   2.627   2.166 -0.0912 -0.6433  0.4367
  312SOL     OW  934   2.168   2.572   2.968 -0.7403  0.5273 -0.6012
  312SOL    HW1  935   2.143   2.488   3.019  0.6967  3.1059 -0.9294
  312SOL    HW2  936   2.091   2.627   2.937  2.5681 -0.9050  1.6967
  313SOL     OW  937   0.413   0.130   3.042 -0.4467  0.5111 -0.7135
  313SOL    HW1  938   0.451   0.222   3.062 -0.1818  0.1502 -0.2062
  313SOL    HW2  939   0.394   0.118   2.945 -2.4495  0.1962 -1.1750
  314SOL     OW  940   2.624   1.468   2.744  0.4734 -0.3634 -0.1435
  314SOL    HW1  941   2.681   1.469   2.832  0.9868 -0.4215  1.0890
  314SOL    HW2  942   2.535   1.508   2.775  0.9789  0.5724 -1.2940
  315SOL     OW  943   1.922   0.550   2.351  0.3741  0.0037 -0.0884
  315SOL    HW1  944   1.846   0.545   2.417  2.6033  0.7217 -0.8612
  315SOL    HW2  945   2.007   0.586   2.387 -3.3115  0.8337 -3.0090
  316SOL     OW  946   3.068   1.073   0.488  0.1845 -0.3971 -0.3701
  316SOL    HW1  947   3.043   1.049   0.581  1.6599  0.5661 -0.9317
  316SOL    HW2  948   3.027   1.008   0.416  1.8112  0.3386 -1.3404
  317SOL     OW  949   0.757   2.919   0.174 -0.0575  0.3767 -0.7661
  317SOL    HW1  950   0.700   2.938   0.258 -1.2703  4.0454  1.1826
  317SOL    HW2  951   0.708   2.943   0.086  1.9919  0.9372  0.0926
  318SOL     OW  952   2.069   2.493   1.364 -0.6100 -0.8066  0.3660
  318SOL    HW1  953   2.086   2.526   1.462  0.9888  2.1154  0.6884
  318SOL    HW2  954   2.126   2.552   1.300  0.5843  0.6827 -0.6908
  319SOL     OW  955   1.320   1.457   0.162  0.1074 -0.5544 -0.4526
  319SOL    HW1  956   1.350   1.502   0.249  0.7794  2.7565 -0.6459
  319SOL    HW2  957   1.219   1.426   0.166 -2.1410 -2.8077  0.9563
  320SOL     OW  958   0.657   1.772   0.799 -0.0810 -0.4825 -0.4011
  320SOL    HW1  959   0.720   1.835   0.852  1.6813 -0.8930 -0.1322
  320SOL    HW2  960   0.623   1.700   0.860 -0.0806  0.6923  0.7949
  321SOL     OW  961   2.035   2.728   1.876  0.7089  0.3454  0.2589
  321SOL    HW1  962   2.133   2.701   1.887 -0.2888 -1.4445 -1.2549
  321SOL    HW2  963   2.021   2.827   1.878  0.6979 -1.9615 -0.6340
  322SOL     OW  964   2.068   2.203   2.275  0.5940 -0.5761  0.2504
  322SOL    HW1  965   2.014   2.281   2.307 -0.5342  0.1678  0.1709
  322SOL    HW2  966   2.041   2.187   2.178  0.8159  0.6687  2.0194
  323SOL     OW  967   2.525   0.300   0.783  0.5957  0.0400 -0.4031
  323SOL    HW1  968   2.429   0.314   0.810  0.4142 -2.2042 -0.4670
  323SOL    HW2  969   2.543   0.349   0.694  0.2294 -1.3017 -0.3152
  324SOL     OW  970   2.572   2.483   2.271 -0.0954  0.4960  0.4237
  324SOL    HW1  971   2.601   2.389   2.279  1.0534  0.8301 -0.7760
  324SOL    HW2  972   2.624   2.538   2.334 -0.2631 -2.6417 -0.9052
  325SOL     OW  973   1.350   0.645   2.588  0.1227  0.2848  0.7591
  325SOL    HW1  974   1.262   0.679   2.542  1.6049 -2.0217  0.8481
  325SOL    HW2  975   1.341   0.664   2.686  0.4311  0.6939  1.0822
  326SOL     OW  976   2.612   2.415   1.006  0.9051 -0.4751  0.6280
  326SOL    HW1  977   2.569   2.384   0.920 -0.3672  2.2549 -1.3031
  326SOL    HW2  978   2.587   2.350   1.085  1.8401 -3.2913  2.4732
  327SOL     OW  979   2.529   2.931   0.250  0.0329 -0.2176 -0.2602
  327SOL    HW1  980   2.568   2.889   0.163 -0.7121 -1.3543 -1.5682
  327SOL    HW2  981   2.523   3.032   0.252  0.4231 -2.4897 -2.7318
  328SOL     OW  982   0.645   0.741   1.132 -0.1203 -0.1048  0.3391
  328SOL    HW1  983   0.641   0.707   1.228  0.9497 -0.3281  1.3492
  328SOL    HW2  984   0.738   0.765   1.093 -0.6670  0.5595 -0.1816
  329SOL     OW  985   1.999   0.426   1.410  0.1779 -0.6044 -0.9368
  329SOL    HW1  986   1.993   0.497   1.485 -2.1151 -0.1778  0.5191
  329SOL    HW2  987   2.097   0.418   1.382  1.9783 -0.0102  0.4172
  330SOL     OW  988   0.603   0.553   0.557  0.1822 -0.2220 -0.3275
  330SOL    HW1  989   0.578   0.629   0.492  1.6103 -0.4825  0.5770
  330SOL    HW2  990   0.642   0.472   0.512 -0.8785  0.4845  1.5487
  331SOL     OW  991   0.744   1.994   1.800 -0.5328  0.4377 -0.4555
  331SOL    HW1  992   0.737   2.076   1.744 -5.1620 -0.4913  3.1927
  331SOL    HW2  993   0.707   1.908   1.749  0.0684 -0.9896 -1.8159
  332SOL     OW  994   2.344   2.511   1.934  0.2658 -0.2259 -0.0484
  332SOL    HW1  995   2.338   2.493   2.036  0.2604 -1.2427  1.3792
  332SOL    HW2  996   2.328   2.609   1.911 -2.1595  1.8990 -0.5223
  333SOL     OW  997   0.007   0.011   0.926 -0.2748 -0.6136 -0.0422
  333SOL    HW1  998   0.080   0.064   0.971  1.9283  0.1739 -4.1186
  333SOL    HW2  999   3.051   3.118   0.988  1.6966 -0.1037 -0.7309
  334SOL     OW 1000   3.075   1.353   0.707  0.2893  0.6076 -0.2669
  334SOL    HW1 1001   3.015   1.413   0.761 -0.7930  3.3492  2.3939
  334SOL    HW2 1002   0.029   1.411   0.666  1.9116  0.5320 -2.4859
  335SOL     OW 1003   0.421   2.497   2.667 -0.3910  0.2756  0.0555
  335SOL    HW1 1004   0.397   2.489   2.767 -0.7892  0.6458  0.1548
  335SOL    HW2 1005   0.341   2.533   2.617 -0.1672 -1.0773 -0.8676
  336SOL     OW 1006   2.907   2.719   2.387 -0.6522  0.1618 -0.1966
  336SOL    HW1 1007   2.976   2.754   2.452 -1.6042 -0.2143 -3.2573
  336SOL    HW2 1008   2.847   2.796   2.359  2.1099 -0.6993  1.3166
  337SOL     OW 1009   1.232   2.016   1.728 -0.5773  0.3104  0.6099
  337SOL    HW1 1010   1.138   2.028   1.766  0.0398 -3.1422 -4.6440
  337SOL    HW2 1011   1.307   2.003   1.797  2.4348 -1.1336 -1.5121
  338SOL     OW 1012   1.049   0.191   2.524 -0.1899  0.3687  0.2337
  338SOL    HW1 1013   1.033   0.114   2.456  1.8221 -1.4365  0.6869
  338SOL    HW2 1014   1.120   0.163   2.592  0.3623 -0.5485 -0.4420
  339SOL     OW 1015   0.275   0.841   2.549  0.5925  0.5253 -0.1774
  339SOL    HW1 1016   0.252   0.924   2.490  0.0300  1.3226  0.2155
  339SOL    HW2 1017   0.258   0.853   2.646  0.6480  0.2151  0.4378
  340SOL     OW 1018   2.247   0.368   1.326 -0.3366  0.1459  0.2627
  340SOL    HW1 1019   2.301   0.409   1.247 -0.3859  0.0090  2.4270
  340SOL    HW2 1020   2.210   0.276   1.301  0.7041  1.6609  1.6675
  341SOL     OW 1021   2.573   1.374   1.066 -0.2115 -0.7589  0.7722
  341SOL    HW1 1022   2.510   1.453   1.047 -0.6295  1.5856 -0.7766
  341SOL    HW2 1023   2.553   1.329   1.155  0.1678  2.4397 -1.4415
  342SOL     OW 1024   1.982   2.734   2.907  0.7703  0.1867  0.8967
  342SOL    HW1 1025   1.942   2.816   2.960 -0.8383  2.2846  4.4212
  342SOL    HW2 1026   1.918   2.697   2.830 -1.7160 -0.5021 -4.4267
  343SOL     OW 1027   0.095   2.360   1.091 -0.1281  0.0995 -0.1047
  343SOL    HW1 1028   0.112   2.289   1.168 -1.7917 -0.4845  1.2443
  343SOL    HW2 1029   0.184   2.395   1.053  1.9658 -0.6472  1.6043
  344SOL     OW 1030   2.591   2.933   1.365  0.0317  0.3386 -0.0548
  344SOL    HW1 1031   2.564   2.840   1.399  0.2926  0.0136  1.1554
  344SOL    HW2 1032   2.512   2.993   1.382  1.6850 -2.6463 -0.5245
  345SOL     OW 1033   2.331   2.177   0.383  0.2665  0.1905  0.0279
  345SOL    HW1 1034   2.433   2.186   0.393 -0.4983  0.0537  0.8979
  345SOL    HW2 1035   2.290   2.265   0.405 -0.2940 -1.6999 -1.0724
  346SOL     OW 1036   1.634   2.202   1.599  0.2334  0.1427  0.3072
  346SOL    HW1 1037   1.585   2.119   1.611  1.3921  0.8167 -0.5103
  346SOL    HW2 1038   1.582   2.279   1.635  1.2086  1.0489  0.4165
  347SOL     OW 1039   1.100   1.920   1.344 -0.0067 -0.2346  0.2607
  347SOL    HW1 1040   1.154   1.841   1.379 -0.4591  0.9725  0.3968
  347SOL    HW2 1041   1.137   1.944   1.249 -0.4541 -0.4073 -0.2476
  348SOL     OW 1042   0.214   2.018   1.982  0.5365 -0.0820 -0.0162
  348SOL    HW1 1043   0.312   1.992   1.982 -2.7991 -0.0630 -0.2056
  348SOL    HW2 1044   0.175   1.999   1.888  0.0639  0.1033  0.8447
  349SOL     OW 1045   1.461   1.728   1.586  0.3589 -0.0405 -0.0195
  349SOL    HW1 1046   1.475   1.708   1.686  0.5329  0.0286  0.3303
  349SOL    HW2 1047   1.468   1.828   1.571  0.5708 -4.5631  0.1780
  350SOL     OW 1048   2.056   2.535   0.488 -0.0106 -0.1637 -0.0455
  350SOL    HW1 1049   2.033   2.574   0.400  2.2019 -0.7455  3.0455
  350SOL    HW2 1050   2.151   2.498   0.477 -2.2969  0.8195  1.3003
  351SOL     OW 1051   0.481   3.078   1.723  0.1018 -0.1526  0.3805
  351SOL    HW1 1052   0.420   0.012   1.668  3.8425 -3.5820  0.7856
  351SOL    HW2 1053   0.473   2.985   1.694  0.5211  3.8571  1.5992
  352SOL     OW 1054   0.595   0.862   0.724  0.8956  0.1419  0.5214
  352SOL    HW1 1055   0.625   0.957   0.737 -1.3082 -1.8120 -0.9064
  352SOL    HW2 1056   0.675   0.799   0.724  1.9924  1.2473 -0.5783
  353SOL     OW 1057   1.291   1.944   2.667 -0.2137 -0.1351 -0.0221
  353SOL    HW1 1058   1.294   2.011   2.589  0.0783  2.9549 -0.7122
  353SOL    HW2 1059   1.196   1.934   2.696  0.4074 -1.0511  0.7915
  354SOL     OW 1060   1.613   2.723   2.087  0.6120  0.0393 -0.6314
  354SOL    HW1 1061   1.703   2.674   2.101  1.2113 -2.1355  2.7055
  354SOL    HW2 1062   1.619   2.797   2.016  2.6357 -1.9690  0.9740
  355SOL     OW 1063   2.021   1.214   0.235 -0.2835 -0.1902  0.1000
  355SOL    HW1 1064   2.030   1.285   0.305  0.1974 -2.8549 -0.5666
  355SOL    HW2 1065   2.006   1.254   0.139 -1.5726 -0.1344 -1.5334
  356SOL     OW 1066   0.445   1.854   1.068  0.6125 -0.5174 -0.6358
  356SOL    HW1 1067   0.415   1.780   1.009  2.7301  2.7931  2.2823
  356SOL    HW2 1068   0.359   1.903   1.103 -1.4312  1.1649 -2.7523
  357SOL     OW 1069   0.142   2.961   1.262  0.0566  0.0915 -0.1341
  357SOL    HW1 1070   0.079   3.046   1.257 -1.0703  1.4144 -0.5497
  357SOL    HW2 1071   0.207   2.957   1.185  1.7589 -0.8254  0.9059
  358SOL     OW 1072   2.219   1.816   1.454  0.1958  0.1505  0.0888
  358SOL    HW1 1073   2.297   1.868   1.494 -1.5145 -3.9333 -0.6613
  358SOL    HW2 1074   2.248   1.762   1.369  0.1125  0.8867  0.1566
  359SOL     OW 1075   2.208   2.866   2.854  0.1935  0.4876  0.1076
  359SOL    HW1 1076   2.150   2.793   2.897 -0.0732 -1.5767 -0.0167
  359SOL    HW2 1077   2.280   2.827   2.797  2.9424 -1.7270 -1.8712
  360SOL     OW 1078   1.034   2.811   0.881 -1.1731  0.3788 -0.4965
  360SOL    HW1 1079   1.137   2.788   0.876  1.7983  0.6297 -1.4269
  360SOL    HW2 1080   1.008   2.847   0.978 -3.5518  0.7363  3.4903
  361SOL     OW 1081   1.916   0.397   0.534  0.0736  0.0447 -0.6400
  361SOL    HW1 1082   1.959   0.435   0.447  0.6605 -2.1219 -3.3951
  361SOL    HW2 1083   1.935   0.459   0.620 -1.3733  1.2924 -1.0602
  362SOL     OW 1084   1.502   0.867   1.172 -0.0422 -0.4261  0.1589
  362SOL    HW1 1085   1.540   0.777   1.169  4.7337  1.3986  0.5967
  362SOL    HW2 1086   1.401   0.865   1.174 -1.2752 -1.2130 -0.5424
  363SOL     OW 1087   2.374   1.533   2.201 -0.0694 -0.5037 -0.2928
  363SOL    HW1 1088   2.308   1.525   2.277  2.2811  1.6130 -0.6269
  363SOL    HW2 1089   2.334   1.524   2.109  2.2956  0.9144  0.3941
  364SOL     OW 1090   0.420   0.776   1.370 -0.3204  0.6478 -0.1568
  364SOL    HW1 1091   0.438   0.867   1.324  1.6387  1.3652 -0.3206
  364SOL    HW2 1092   0.513   0.729   1.381  0.3437  1.6367  0.9263
  365SOL     OW 1093   0.621   0.153   2.406 -0.1022  0.0135  0.7761
  365SOL    HW1 1094   0.603   0.133   2.502  0.4753  0.9293  1.2955
  365SOL    HW2 1095   0.619   0.069   2.348 -1.0300 -0.6440  0.0212
  366SOL     OW 1096   2.333   2.166   2.348 -0.4888  0.9935 -0.4489
  366SOL    HW1 1097   2.247   2.179   2.298  2.3391  0.6478 -0.1330
  366SOL    HW2 1098   2.306   2.137   2.440  0.9007  0.2201 -1.6892
  367SOL     OW 1099   2.790   2.537   0.114  0.0288 -0.0031  0.4343
  367SOL    HW1 1100   2.782   2.582   0.204 -0.6665 -1.5914  0.6183
  367SOL    HW2 1101   2.834   2.592   0.041 -0.8155 -1.2799 -2.7342
  368SOL     OW 1102   2.789   1.400   0.904 -0.1074  0.4563  0.3983
  368SOL    HW1 1103   2.710   1.405   0.973  0.4339  0.1034  0.4395
  368SOL    HW2 1104   2.753   1.439   0.816 -0.3300  3.2337 -0.2594
  369SOL     OW 1105   0.812   2.787   2.446 -0.1364  0.1378  0.7676
  369SOL    HW1 1106   0.852   2.713   2.508 -1.5128 -0.4969  0.8820
  369SOL    HW2 1107   0.846   2.879   2.472  1.3296  2.6864  0.5619
  370SOL     OW 1108   2.633   0.173   0.499 -0.2439 -0.1416 -0.5166
  370SOL    HW1 1109   2.611   0.271   0.516  0.5777 -0.9894 -2.0852
  370SOL    HW2 1110   2.595   0.117   0.572  1.0115  1.4447 -3.0035
  371SOL     OW 1111   1.402   2.056   1.280 -0.4661  0.0330  0.4689
  371SOL    HW1 1112   1.464   2.139   1.274  0.5032 -1.5931 -0.4308
  371SOL    HW2 1113   1.311   2.075   1.241 -1.9333 -1.8694  0.9789
  372SOL     OW 1114   0.189   0.612   2.436  0.4651 -0.0429  0.0861
  372SOL    HW1 1115   0.221   0.537   2.494 -1.2740 -0.5099 -1.5706
  372SOL    HW2 1116   0.195   0.700   2.484  0.5662 -1.3513  1.1002
  373SOL     OW 1117   0.014   2.052   0.919 -0.7099  0.4195 -0.3593
  373SOL    HW1 1118   0.032   2.060   0.820 -3.5817 -0.7054  1.9051
  373SOL    HW2 1119   3.071   2.131   0.946 -3.6564  1.9143  3.2324
  374SOL     OW 1120   0.482   2.890   2.423  0.0953 -0.2962  1.0386
  374SOL    HW1 1121   0.545   2.880   2.500 -1.5311  0.8520 -0.6807
  374SOL    HW2 1122   0.527   2.961   2.360 -0.9804 -0.6799  0.7023
  375SOL     OW 1123   0.582   0.108   2.681  0.0054  0.1660 -0.0395
  375SOL    HW1 1124   0.590   0.007   2.696  0.7093  0.5359 -0.2306
  375SOL    HW2 1125   0.667   0.157   2.719  0.5286 -1.3007  0.6579
  376SOL     OW 1126   2.807   2.048   1.766  0.4952  0.4932 -0.2834
  376SOL    HW1 1127   2.816   1.946   1.759  0.8712 -0.0940  1.4028
  376SOL    HW2 1128   2.726   2.074   1.820  0.5749  0.6180 -1.2552
  377SOL     OW 1129   1.694   2.585   2.991  0.3446 -0.0721 -0.6530
  377SOL    HW1 1130   1.722   2.674   3.031 -1.0999 -0.4343 -2.3727
  377SOL    HW2 1131   1.642   2.600   2.905 -0.4751  0.7878  2.0726
  378SOL     OW 1132   0.132   0.310   2.298 -0.3824 -0.1019  0.2335
  378SOL    HW1 1133   0.206   0.289   2.366 -2.1325 -0.4522 -1.4295
  378SOL    HW2 1134   0.061   0.370   2.340  0.1727  1.3712  1.0574
  379SOL     OW 1135   0.351   1.019   0.285  0.2113 -0.4063 -0.1493
  379SOL    HW1 1136   0.408   1.052   0.362  0.3555 -0.2318  0.5404
  379SOL    HW2 1137   0.285   0.953   0.323 -0.5438 -0.1026 -2.8888
  380SOL     OW 1138   0.241   1.562   1.907 -0.4129 -0.6306  0.2951
  380SOL    HW1 1139   0.319   1.508   1.864  0.4831 -1.3420 -1.2420
  380SOL    HW2 1140   0.265   1.646   1.962 -1.0418 -1.1413  1.3735
  381SOL     OW 1141   0.578   1.087   2.150  0.0937  0.3512  0.1609
  381SOL    HW1 1142   0.560   0.996   2.195 -0.7675  0.0799 -0.5889
  381SOL    HW2 1143   0.608   1.082   2.054 -1.0305  2.9291  0.6013
  382SOL     OW 1144   2.256   1.906   0.381 -0.0175  0.1411  0.4199
  382SOL    HW1 1145   2.293   1.998   0.369 -0.0230  0.1573 -1.9848
  382SOL    HW2 1146   2.180   1.912   0.450 -2.2245  0.9405 -0.9276
  383SOL     OW 1147   0.526   2.010   3.101 -0.5548 -0.1042  0.1232
  383SOL    HW1 1148   0.552   1.984   0.076  1.5825  2.1056 -0.8533
  383SOL    HW2 1149   0.570   1.950   3.028 -0.9286  0.4600 -1.3390
  384SOL     OW 1150   0.828   2.257   2.686  0.2019 -0.6102 -0.2797
  384SOL    HW1 1151   0.794   2.167   2.668 -1.5109  4.4922 -0.3153
  384SOL    HW2 1152   0.748   2.300   2.733 -0.6591 -0.1502 -1.9342
  385SOL     OW 1153   2.066   1.938   0.585 -0.3140 -0.1884 -0.8321
  385SOL    HW1 1154   2.108   1.965   0.679  0.0456  0.1614  3.9449
  385SOL    HW2 1155   2.009   2.012   0.544  1.3709  3.1842 -1.0796
  386SOL     OW 1156   2.248   0.797   1.499 -0.8892  0.4471 -0.2064
  386SOL    HW1 1157   2.309   0.787   1.415  1.8646  0.6171 -2.2843
  386SOL    HW2 1158   2.245   0.891   1.536  1.7727 -2.4301  1.4502
  387SOL     OW 1159   2.808   1.369   2.037  0.2392  0.3285  0.1601
  387SOL    HW1 1160   2.842   1.406   2.126 -1.7782 -0.1862  2.3087
  387SOL    HW2 1161   2.883   1.318   1.987 -1.4433 -3.6734  0.8823
  388SOL     OW 1162   0.365   1.681   2.169 -0.4579 -0.1033  0.3471
  388SOL    HW1 1163   0.450   1.691   2.115  0.1599 -1.3764  2.4035
  388SOL    HW2 1164   0.339   1.763   2.218 -1.0538 -1.0956 -2.0619
  389SOL     OW 1165   1.215   1.106   1.903 -0.3675 -0.1166 -0.7291
  389SOL    HW1 1166   1.183   1.011   1.881  0.2075 -0.4672  0.6426
  389SOL    HW2 1167   1.286   1.093   1.976  1.2075 -0.6151  0.1689
  390SOL     OW 1168   2.268   0.032   1.049 -0.4785 -0.4830  0.1054
  390SOL    HW1 1169   2.356   3.107   1.072 -1.0413  1.9870 -0.8231
  390SOL    HW2 1170   2.212   0.038   1.132  1.2293 -0.6476  0.9452
  391SOL     OW 1171   1.871   1.487   1.329 -0.0084  0.1428 -0.0637
  391SOL    HW1 1172   1.973   1.477   1.342  3.1683 -0.0165  0.9038
  391SOL    HW2 1173   1.831   1.417   1.385  1.5305 -0.6759 -1.8295
  392SOL     OW 1174   2.666   2.901   0.486  0.0720 -0.0408  0.1613
  392SOL    HW1 1175   2.600   2.906   0.401 -3.4013  1.5826 -0.4775
  392SOL    HW2 1176   2.730   2.980   0.492  0.7458  3.0245  0.5235
  393SOL     OW 1177   1.968   2.260   2.735 -0.2959 -0.2760  0.4300
  393SOL    HW1 1178   1.916   2.290   2.818 -0.7833  3.3560  2.3610
  393SOL    HW2 1179   2.070   2.273   2.741  0.2804  0.5736 -1.2668
  394SOL     OW 1180   0.164   2.607   2.581 -0.7877 -0.1510 -0.1592
  394SOL    HW1 1181   0.155   2.622   2.682  1.2237  1.8153  1.7569
  394SOL    HW2 1182   0.128   2.510   2.565  1.5848  0.3684  2.2235
  395SOL     OW 1183   0.492   0.229   0.798 -0.7753  0.5974  0.2578
  395SOL    HW1 1184   0.435   0.269   0.727  0.5753 -0.7899 -1.6293
  395SOL    HW2 1185   0.521   0.297   0.861 -0.7454 -0.0382 -0.5939
  396SOL     OW 1186   1.810   0.820   0.669  0.4498  0.0164  0.5469
  396SOL    HW1 1187   1.819   0.863   0.762  0.5205 -1.2823  2.0058
  396SOL    HW2 1188   1.713   0.849   0.637 -0.3034 -0.0388 -0.6214
  397SOL     OW 1189   0.504   0.582   2.202 -0.2133 -0.1220 -0.5011
  397SOL    HW1 1190   0.588   0.526   2.199 -0.6540 -0.2182 -2.3123
  397SOL    HW2 1191   0.425   0.541   2.155 -0.1588 -0.7043 -2.2038
  398SOL     OW 1192   0.781   3.118   0.623 -0.0816  0.2262  0.5418
  398SOL    HW1 1193   0.791   0.100   0.589 -0.3829 -0.6145  1.7813
  398SOL    HW2 1194   0.871   3.067   0.635  0.6518  0.4756 -0.0319
  399SOL     OW 1195   2.263   3.059   1.793 -0.1495  0.2135 -0.2039
  399SOL    HW1 1196   2.345   3.071   1.732 -2.7950 -1.1884 -0.8827
  399SOL    HW2 1197   2.286   3.050   1.892 -0.9696  1.4820  0.2576
  400SOL     OW 1198   0.928   1.946   2.476 -0.2489  0.3912 -0.0864
  400SOL    HW1 1199   0.842   1.982   2.523 -0.3589  0.4353 -0.0017
  400SOL    HW2 1200   0.907   1.916   2.383 -0.1869 -0.6833  0.6531
  401SOL     OW 1201   0.566   0.928   2.742 -0.4531 -0.6202 -0.1639
  401SOL    HW1 1202   0.578   0.915   2.640 -2.5648  1.1098 -2.1526
  401SOL    HW2 1203   0.523   1.020   2.754 -1.0241  0.8590  1.7657
  402SOL     OW 1204   0.083   2.330   0.618 -0.2871 -0.1068  0.1547
  402SOL    HW1 1205   0.049   2.242   0.577 -0.1279 -1.4027  3.1312
  402SOL    HW2 1206   0.161   2.368   0.564 -1.8360  1.8542 -0.3039
  403SOL     OW 1207   3.027   1.200   1.996  0.4610 -0.3052 -0.5625
  403SOL    HW1 1208   3.113   1.258   1.994 -2.7115  1.8511  1.1064
  403SOL    HW2 1209   3.015   1.147   1.910 -0.5591  0.1897  3.4029
  404SOL     OW 1210   2.687   2.621   2.473  0.0851  0.0511 -0.0140
  404SOL    HW1 1211   2.692   2.555   2.551  0.0610 -0.9863  4.3741
  404SOL    HW2 1212   2.780   2.649   2.449 -0.2175 -2.7877  0.0781
  405SOL     OW 1213   0.290   0.319   1.832  0.0271 -0.3996 -0.3470
  405SOL    HW1 1214   0.365   0.250   1.839 -1.5215 -2.9640  3.3133
  405SOL    HW2 1215   0.202   0.266   1.846 -1.9996 -2.0192 -1.2460
  406SOL     OW 1216   1.605   1.631   2.530 -0.1123 -0.1856 -0.1484
  406SOL    HW1 1217   1.535   1.672   2.593  0.7237  1.2650  0.1406
  406SOL    HW2 1218   1.604   1.671   2.438 -0.2771 -0.0611  0.6550
  407SOL     OW 1219   1.703   0.932   2.717 -0.6332  0.3573 -0.1107
  407SOL    HW1 1220   1.735   1.025   2.743  1.8167  0.5015  0.7801
  407SOL    HW2 1221   1.703   0.927   2.619 -0.4880  0.2044  1.2428
  408SOL     OW 1222   0.589   3.066   2.240  0.3656  0.5645  0.2394
  408SOL    HW1 1223   0.679   3.037   2.202 -0.8118 -1.3619  0.1960
  408SOL    HW2 1224   0.522   3.033   2.173 -0.4027  0.1262 -0.4666
  409SOL     OW 1225   0.183   1.964   1.112 -0.4400  0.1729 -0.0347
  409SOL    HW1 1226   0.126   1.972   1.030 -0.8121  2.0842  0.1504
  409SOL    HW2 1227   0.173   2.043   1.173 -1.5118 -1.3970 -0.8787
  410SOL     OW 1228   2.427   1.483   0.346  0.3950  0.1773  0.4405
  410SOL    HW1 1229   2.362   1.524   0.274 -0.9377 -0.2536  1.5274
  410SOL    HW2 1230   2.487   1.409   0.312  1.6257  0.3981 -0.3910
  411SOL     OW 1231   0.225   0.129   1.049  0.0766  0.1093  0.0863
  411SOL    HW1 1232   0.279   0.097   1.130 -0.6537 -1.2498 -0.7342
  411SOL    HW2 1233   0.221   0.225   1.053  0.3983 -3.6765  0.1101
  412SOL     OW 1234   1.714   0.543   1.580  0.1348 -0.3396 -0.1284
  412SOL    HW1 1235   1.657   0.570   1.658 -1.0761 -1.0458 -3.0760
  412SOL    HW2 1236   1.742   0.625   1.524 -2.0818 -2.2705  3.3749
  413SOL     OW 1237   0.632   0.444   1.855 -0.1834 -0.0024 -0.6462
  413SOL    HW1 1238   0.567   0.365   1.884  1.1923  0.0458  0.7714
  413SOL    HW2 1239   0.724   0.425   1.899 -2.8435 -0.5698  0.6892
  414SOL     OW 1240   2.897   1.629   2.687  0.3035 -0.2071  0.1750
  414SOL    HW1 1241   2.912   1.551   2.748 -2.2297  3.3848 -1.3980
  414SOL    HW2 1242   2.811   1.622   2.639  2.1422 -0.6863  3.3164
  415SOL     OW 1243   1.007   2.469   0.161 -0.2889 -0.2002  0.1578
  415SOL    HW1 1244   1.063   2.490   0.078  0.1441  0.4269 -2.0673
  415SOL    HW2 1245   1.027   2.540   0.228 -0.1171  1.8492  1.3110
  416SOL     OW 1246   1.753   0.232   2.866 -0.5576 -0.1175  0.4946
  416SOL    HW1 1247   1.772   0.141   2.828  0.8373  2.8732  1.1112
  416SOL    HW2 1248   1.840   0.287   2.864  1.8740 -0.0817 -1.9976
  417SOL     OW 1249   0.266   0.302   0.655  0.3731 -0.1210 -0.5617
  417SOL    HW1 1250   0.293   0.385   0.705  1.1555  0.9113  0.8675
  417SOL    HW2 1251   0.172   0.309   0.609 -1.5898 -0.3068 -0.7655
  418SOL     OW 1252   2.581   0.023   0.722 -0.1621 -0.0820  0.0449
  418SOL    HW1 1253   2.482   3.110   0.706 -1.6949  1.0172  0.7727
  418SOL    HW2 1254   2.585   0.109   0.781 -1.0300  2.1039 -0.0286
  419SOL     OW 1255   3.091   2.792   0.568  0.3282  0.3044 -0.1895
  419SOL    HW1 1256   0.071   2.824   0.577  4.2990  1.4419  2.0974
  419SOL    HW2 1257   3.063   2.773   0.664  2.7832  0.4845  1.6066
  420SOL     OW 1258   0.123   1.344   2.023  0.3992 -0.3738  0.0982
  420SOL    HW1 1259   0.145   1.430   1.969  0.0742  0.6943 -1.2266
  420SOL    HW2 1260   0.213   1.303   2.048 -1.1873 -1.3762 -2.4803
  421SOL     OW 1261   1.558   2.521   0.985 -0.1341  0.4494 -0.2056
  421SOL    HW1 1262   1.560   2.598   1.048  0.6493 -0.0467 -0.6933
  421SOL    HW2 1263   1.623   2.445   1.010  2.5211 -1.1518 -2.6151
  422SOL     OW 1264   0.626   0.378   1.600 -0.3572  0.3025 -0.5157
  422SOL    HW1 1265   0.637   0.409   1.697  2.2510 -1.7234  1.1622
  422SOL    HW2 1266   0.537   0.357   1.563  0.7356  0.0226  0.7987
  423SOL     OW 1267   0.900   1.463   1.866  0.0954 -0.7162  0.1642
  423SOL    HW1 1268   0.980   1.498   1.918 -1.6451  1.8410 -0.9132
  423SOL    HW2 1269   0.929   1.386   1.809  0.0317  0.8858  2.3528
  424SOL     OW 1270   1.858   2.279   0.129  0.0337 -0.0868 -0.0659
  424SOL    HW1 1271   1.886   2.371   0.156 -0.6891 -1.9799 -2.7727
  424SOL    HW2 1272   1.753   2.273   0.128 -1.4548 -0.3042 -0.2054
  425SOL     OW 1273   2.799   0.011   1.886 -0.0150 -0.4371 -0.2777
  425SOL    HW1 1274   2.876   0.056   1.934  0.8511  0.3375 -1.6720
  425SOL    HW2 1275   2.807   0.007   1.783  0.9710 -1.9435 -0.7175
  426SOL     OW 1276   0.117   2.612   2.848  0.3467 -0.0982  0.0817
  426SOL    HW1 1277   0.209   2.656   2.870 -0.5538  2.2922  0.3777
  426SOL    HW2 1278   0.076   2.559   2.925 -1.6651  0.3622 -0.0508
  427SOL     OW 1279   1.202   0.535   3.039  0.4301  0.2841  0.1608
  427SOL    HW1 1280   1.200   0.532   0.021  0.2197 -3.3240  1.5445
  427SOL    HW2 1281   1.172   0.451   2.995  2.6171  1.2102  1.2258
  428SOL     OW 1282   2.767   0.642   1.358 -0.4788 -0.4706  0.1868
  428SOL    HW1 1283   2.823   0.569   1.315  0.9415 -2.8060 -1.6706
  428SOL    HW2 1284   2.693   0.606   1.418  0.4974  0.6164  1.8861
  429SOL     OW 1285   2.169   2.903   1.237 -0.0852  0.7064  0.1145
  429SOL    HW1 1286   2.079   2.899   1.285 -1.9935  0.6928  4.0384
  429SOL    HW2 1287   2.197   2.810   1.198 -0.8240 -0.7044  0.2475
  430SOL     OW 1288   1.200   1.560   2.331 -0.2220  0.2673 -0.1843
  430SOL    HW1 1289   1.159   1.548   2.424  0.8150 -0.2180 -2.9522
  430SOL    HW2 1290   1.267   1.490   2.311 -0.6443  0.2927  0.1736
  431SOL     OW 1291   2.679   1.888   1.298  0.4884 -0.2258  0.1949
  431SOL    HW1 1292   2.750   1.926   1.233  0.5800  0.1879 -2.7440
  431SOL    HW2 1293   2.682   1.937   1.383  0.8951 -2.0792 -0.9940
  432SOL     OW 1294   1.216   3.030   2.403 -0.2808  0.0403 -0.2948
  432SOL    HW1 1295   1.251   2.986   2.495  0.3349 -4.5642  1.2719
  432SOL    HW2 1296   1.275   3.110   2.381 -1.5548 -0.2072 -0.5299
  433SOL     OW 1297   1.913   0.329   2.196  0.2927 -0.1521  0.2025
  433SOL    HW1 1298   1.986   0.274   2.236 -1.7561 -0.2864 -2.2929
  433SOL    HW2 1299   1.904   0.412   2.252  0.5750 -3.2043 -1.3305
  434SOL     OW 1300   0.388   2.329   2.205 -0.0469  0.1222 -0.2969
  434SOL    HW1 1301   0.438   2.372   2.280 -2.1920 -1.9340 -1.8640
  434SOL    HW2 1302   0.397   2.226   2.229 -1.2149 -1.4273  0.5756
  435SOL     OW 1303   0.139   2.980   0.327  0.0830 -0.4692 -0.3550
  435SOL    HW1 1304   0.182   3.071   0.309  1.2148  2.5012 -0.4844
  435SOL    HW2 1305   0.216   2.912   0.346 -0.7188 -0.7463 -2.1136
  436SOL     OW 1306   0.503   0.844   2.206  0.3132  0.3050 -0.0537
  436SOL    HW1 1307   0.411   0.852   2.169  0.0883 -1.2655  0.5326
  436SOL    HW2 1308   0.534   0.750   2.185 -0.2848  0.8414 -0.5475
  437SOL     OW 1309   0.651   2.407   2.806  0.2106 -0.4505  0.0256
  437SOL    HW1 1310   0.579   2.440   2.742 -0.6545  1.8030  1.8616
  437SOL    HW2 1311   0.613   2.379   2.898 -2.1491 -0.6986 -0.3450
  438SOL     OW 1312   0.951   0.984   0.929  0.0007  0.1882 -0.5049
  438SOL    HW1 1313   0.882   1.035   0.877  0.9886 -2.8960  2.4413
  438SOL    HW2 1314   1.030   1.046   0.958 -0.9416  0.8454  2.2731
  439SOL     OW 1315   2.591   1.421   2.361  0.3777 -0.1557 -0.0106
  439SOL    HW1 1316   2.594   1.321   2.377 -2.6283  3.0623 -0.4841
  439SOL    HW2 1317   2.524   1.451   2.290  1.4597 -0.0941 -0.9059
  440SOL     OW 1318   3.005   0.501   3.029  0.5028  0.9448 -0.0190
  440SOL    HW1 1319   2.982   0.525   2.934 -0.6413 -0.4681  0.6243
  440SOL    HW2 1320   3.001   0.400   3.056 -2.0436 -0.6763 -0.9668
  441SOL     OW 1321   0.824   1.919   1.440 -0.2583 -0.2568 -0.1132
  441SOL    HW1 1322   0.834   2.010   1.489  0.5144  1.0009 -1.7651
  441SOL    HW2 1323   0.913   1.894   1.394  2.3023  3.8495  2.6360
  442SOL     OW 1324   1.660   1.504   0.814  0.6580 -0.3073 -0.0836
  442SOL    HW1 1325   1.668   1.442   0.895 -2.5546 -0.0667 -2.8368
  442SOL    HW2 1326   1.604   1.455   0.748  0.7241  0.0167  1.4410
  443SOL     OW 1327   2.328   2.042   2.620 -0.2981  0.1770  0.3944
  443SOL    HW1 1328   2.426   2.028   2.611 -0.3651 -0.9811  3.7192
  443SOL    HW2 1329   2.308   2.103   2.700  2.3224 -1.3537 -2.7097
  444SOL     OW 1330   1.928   1.649   2.840 -0.0805 -0.4366  0.6771
  444SOL    HW1 1331   1.858   1.689   2.903  0.1000  1.2383 -0.6323
  444SOL    HW2 1332   1.970   1.722   2.784 -2.0282 -0.4032  0.3893
  445SOL     OW 1333   2.869   2.638   1.945 -0.3121  0.2942 -0.4084
  445SOL    HW1 1334   2.925   2.629   2.027 -2.2200 -0.2317  0.0626
  445SOL    HW2 1335   2.770   2.615   1.959 -0.4826 -1.2938  0.0808
  446SOL     OW 1336   1.161   0.876   1.791  0.4417 -0.0701  0.4857
  446SOL    HW1 1337   1.197   0.828   1.871  0.4316  1.0032  1.6352
  446SOL    HW2 1338   1.091   0.816   1.746  1.1700  0.2673  1.1894
  447SOL     OW 1339   0.898   0.771   1.049 -0.2453 -0.0716 -0.2325
  447SOL    HW1 1340   0.915   0.679   1.002  0.4503  0.4021  1.3563
  447SOL    HW2 1341   0.932   0.859   1.005  1.3370 -0.5457 -0.8876
  448SOL     OW 1342   1.184   1.223   2.499  0.1279 -0.8069  0.6407
  448SOL    HW1 1343   1.137   1.208   2.412  0.1451 -2.2030 -2.6943
  448SOL    HW2 1344   1.183   1.322   2.524  0.1451 -0.5085  0.9608
  449SOL     OW 1345   3.070   2.155   2.446 -0.3134 -0.5233 -0.8296
  449SOL    HW1 1346   0.008   2.068   2.464  0.3300 -0.6298 -0.9084
  449SOL    HW2 1347   3.068   2.176   2.349 -0.2056 -0.1384  0.3716
  450SOL     OW 1348   2.164   1.779   1.918  0.1600  0.2453 -0.6405
  450SOL    HW1 1349   2.249   1.834   1.926 -2.1268  2.6899  0.3449
  450SOL    HW2 1350   2.080   1.839   1.943 -4.7933  0.7275  0.4670
  451SOL     OW 1351   2.810   1.429   1.298  0.1326 -0.1831 -0.0548
  451SOL    HW1 1352   2.878   1.452   1.222  1.5355  0.6774 -0.4345
  451SOL    HW2 1353   2.780   1.334   1.300 -1.4345  0.9102  2.0854
  452SOL     OW 1354   0.654   0.985   1.632  0.4262  0.4041  0.1443
  452SOL    HW1 1355   0.563   0.945   1.638  0.6624  0.5830  2.5774
  452SOL    HW2 1356   0.692   0.981   1.535  1.8982 -0.4939 -2.0594
  453SOL     OW 1357   0.379   1.202   0.682  0.3959 -0.0384 -0.4334
  453SOL    HW1 1358   0.306   1.188   0.606 -1.0945 -1.0375 -0.9043
  453SOL    HW2 1359   0.332   1.188   0.771 -0.9807  1.6397 -0.7411
  454SOL     OW 1360   0.920   1.648   0.197 -0.1481 -0.0045 -0.3614
  454SOL    HW1 1361   0.880   1.709   0.130  0.5715  0.4953  3.1071
  454SOL    HW2 1362   0.844   1.612   0.257 -2.9669 -0.8841 -1.1310
  455SOL     OW 1363   1.612   0.601   1.261  0.9232  0.0397  0.1420
  455SOL    HW1 1364   1.638   0.636   1.353  2.1466 -1.2274 -2.6174
  455SOL    HW2 1365   1.696   0.561   1.222 -1.5163  2.5965  0.3359
  456SOL     OW 1366   1.914   2.823   1.088 -0.2557 -0.2860  0.0173
  456SOL    HW1 1367   1.975   2.742   1.078 -0.8958  0.3366  1.3644
  456SOL    HW2 1368   1.903   2.853   1.184  0.9774 -1.3402 -2.5539
  457SOL     OW 1369   2.112   0.400   2.589 -0.5603  0.4895  0.1149
  457SOL    HW1 1370   2.125   0.479   2.524  1.4784 -1.3761  0.7274
  457SOL    HW2 1371   2.089   0.320   2.531 -0.2058  2.7279  1.2376
  458SOL     OW 1372   2.590   0.797   2.601  0.8746  0.3718 -0.2506
  458SOL    HW1 1373   2.553   0.884   2.563  1.0181  0.5880  0.2970
  458SOL    HW2 1374   2.690   0.789   2.580  0.0942 -1.9224 -2.5935
  459SOL     OW 1375   2.858   1.679   1.991  0.3197  0.0433 -0.3166
  459SOL    HW1 1376   2.928   1.652   2.061  0.2707  2.3936 -1.1816
  459SOL    HW2 1377   2.766   1.685   2.032  1.9299  1.7555 -5.2656
  460SOL     OW 1378   0.498   0.843   2.991  0.2633 -0.1874 -0.3316
  460SOL    HW1 1379   0.521   0.870   2.896 -0.2389  1.1956  2.0580
  460SOL    HW2 1380   0.418   0.777   2.981 -0.6045 -1.1140 -1.2402
  461SOL     OW 1381   3.071   2.325   0.343 -0.3120  0.1688  0.0798
  461SOL    HW1 1382   3.029   2.341   0.433 -2.2656 -1.2894 -0.8930
  461SOL    HW2 1383   3.017   2.255   0.295  0.6905  1.8975  3.3106
  462SOL     OW 1384   0.253   2.583   1.378  0.0112 -0.5086  0.3378
  462SOL    HW1 1385   0.176   2.600   1.441 -2.6919  0.2478  0.3917
  462SOL    HW2 1386   0.342   2.590   1.427 -1.1860 -1.8157  0.8890
  463SOL     OW 1387   1.683   2.148   1.883  0.3123 -0.2464 -0.2577
  463SOL    HW1 1388   1.738   2.080   1.825  1.7484 -5.2326 -0.3827
  463SOL    HW2 1389   1.737   2.230   1.906  2.0175 -1.8594 -0.4053
  464SOL     OW 1390   2.834   2.766   0.847  0.2017  0.4745 -0.0657
  464SOL    HW1 1391   2.835   2.860   0.807  0.1661  2.3655  0.2295
  464SOL    HW2 1392   2.921   2.747   0.898 -1.4853 -2.9984  1.5734
  465SOL     OW 1393   0.289   0.108   1.565  0.1813  1.0288 -0.0508
  465SOL    HW1 1394   0.216   0.097   1.634 -1.0107 -0.1678 -0.2546
  465SOL    HW2 1395   0.300   0.207   1.544 -1.6223 -1.7357  0.7474
  466SOL     OW 1396   1.168   2.434   2.448  0.0032  0.4316 -0.5099
  466SOL    HW1 1397   1.158   2.385   2.366 -1.0131  1.8797  3.2335
  466SOL    HW2 1398   1.074   2.437   2.491 -1.1797 -1.5442 -1.6626
  467SOL     OW 1399   2.976   1.698   0.901  0.3208  0.0154  0.0539
  467SOL    HW1 1400   2.985   1.756   0.987  0.2697  1.7750  1.4723
  467SOL    HW2 1401   2.923   1.757   0.836  4.3815 -0.9848 -0.6757
  468SOL     OW 1402   2.067   1.859   2.696  0.0611 -0.4202 -0.0052
  468SOL    HW1 1403   1.980   1.891   2.653 -0.1128 -1.1049 -1.1287
  468SOL    HW2 1404   2.147   1.905   2.651 -0.0526  1.1230 -3.3237
  469SOL     OW 1405   1.277   2.080   0.480  0.3917 -0.3189 -0.2659
  469SOL    HW1 1406   1.340   2.147   0.522 -1.7968  0.1682  0.1601
  469SOL    HW2 1407   1.330   2.002   0.437 -0.4918  1.5440  0.8851
  470SOL     OW 1408   1.763   1.305   1.515 -0.0091 -0.1361  0.4121
  470SOL    HW1 1409   1.732   1.264   1.603  3.5462 -2.0901  1.2136
  470SOL    HW2 1410   1.819   1.233   1.467  1.0579 -3.5142 -0.9936
  471SOL     OW 1411   0.334   2.372   0.199 -0.4299 -0.4520 -0.0609
  471SOL    HW1 1412   0.304   2.463   0.156  0.7994  1.7395  0.2727
  471SOL    HW2 1413   0.430   2.376   0.237  0.8788 -0.4314  1.5546
  472SOL     OW 1414   2.445   1.895   2.221  0.3904  0.1135 -0.0919
  472SOL    HW1 1415   2.458   1.979   2.280 -0.7302  1.8484 -0.6593
  472SOL    HW2 1416   2.425   1.812   2.274  1.7774 -0.5004 -0.2892
  473SOL     OW 1417   1.106   2.061   0.726 -0.4267  0.3934 -0.0422
  473SOL    HW1 1418   1.192   2.094   0.683 -0.2406  1.7790  2.0241
  473SOL    HW2 1419   1.050   2.139   0.757  0.8025 -3.4387  0.5298
  474SOL     OW 1420   3.034   0.457   1.260 -0.0009  0.4648  0.0869
  474SOL    HW1 1421   3.021   0.462   1.359 -0.3778  3.5694 -0.8065
  474SOL    HW2 1422   2.976   0.382   1.219 -1.5104  1.4371 -0.6758
  475SOL     OW 1423   2.329   2.775   1.923 -0.1498 -0.4623  0.1281
  475SOL    HW1 1424   2.334   2.841   1.999  2.7035  0.1076  2.6603
  475SOL    HW2 1425   2.386   2.800   1.844 -0.2797 -2.0931 -0.2693
  476SOL     OW 1426   0.396   0.530   0.736  0.1712  0.6438 -0.4598
  476SOL    HW1 1427   0.461   0.553   0.665  1.2215 -2.4736 -1.8164
  476SOL    HW2 1428   0.415   0.574   0.828 -1.5662  1.7047  0.4837
  477SOL     OW 1429   0.889   1.894   0.880  0.0547  0.0122 -0.0269
  477SOL    HW1 1430   0.958   1.828   0.921  0.3347 -0.7964 -2.2586
  477SOL    HW2 1431   0.934   1.940   0.800  0.8942 -0.1749 -0.1154
  478SOL     OW 1432   1.053   2.383   2.802  0.1386 -0.3562  0.0405
  478SOL    HW1 1433   0.968   2.345   2.763  0.7123  0.0128  0.8800
  478SOL    HW2 1434   1.133   2.324   2.767  0.2175 -2.3578  0.1064
  479SOL     OW 1435   2.959   1.051   1.777  0.0976 -0.2311 -0.2348
  479SOL    HW1 1436   2.869   1.009   1.774  2.0780  3.5317 -1.9396
  479SOL    HW2 1437   2.971   1.097   1.684  0.1685  0.6031  1.5352
  480SOL     OW 1438   3.095   2.469   3.026 -0.4767  0.2574 -0.6228
  480SOL    HW1 1439   3.095   2.484   0.006  2.1832 -1.4317 -0.1866
  480SOL    HW2 1440   3.048   2.384   3.002 -1.8563 -2.1653  1.0201
  481SOL     OW 1441   1.604   0.067   2.285 -0.3529  0.4122 -0.4776
  481SOL    HW1 1442   1.682   0.039   2.347 -3.2848  1.3911  0.1707
  481SOL    HW2 1443   1.641   0.148   2.234  1.9799 -0.0307 -0.3211
  482SOL     OW 1444   1.730   2.064   2.845 -0.1658 -0.3648  0.4054
  482SOL    HW1 1445   1.755   2.161   2.869  0.3272 -0.1932  0.7209
  482SOL    HW2 1446   1.706   2.055   2.750 -0.7520  1.1650  1.9215
  483SOL     OW 1447   0.911   2.654   2.652  0.8482  0.0989  0.4117
  483SOL    HW1 1448   0.902   2.637   2.753  0.7443  1.2498  1.1562
  483SOL    HW2 1449   0.894   2.569   2.602 -2.2461  0.5611  3.6745
  484SOL     OW 1450   0.407   2.638   1.149 -0.2358 -0.0939 -0.0305
  484SOL    HW1 1451   0.339   2.634   1.219  0.6768 -0.4644 -4.4430
  484SOL    HW2 1452   0.428   2.731   1.112 -1.0756  2.6175 -2.3190
  485SOL     OW 1453   2.208   0.656   0.627  0.3403  0.2122 -0.0343
  485SOL    HW1 1454   2.121   0.695   0.589  0.6249 -0.2470  0.8553
  485SOL    HW2 1455   2.291   0.696   0.580  0.2925 -0.5239  0.3484
  486SOL     OW 1456   2.055   2.776   2.542  0.3008 -0.3207 -0.2377
  486SOL    HW1 1457   2.065   2.878   2.558  0.2539  2.3494 -1.0239
  486SOL    HW2 1458   2.147   2.729   2.535 -0.9418 -1.7185 -0.2204
  487SOL     OW 1459   1.091   1.263   0.681 -0.3237  0.8433  0.4562
  487SOL    HW1 1460   1.018   1.235   0.616  0.0433 -2.2703 -1.1077
  487SOL    HW2 1461   1.129   1.356   0.649 -0.6970  1.4041  0.0105
  488SOL     OW 1462   2.546   0.060   2.831 -0.1002 -0.0138 -0.1135
  488SOL    HW1 1463   2.448   0.081   2.812 -0.4972 -0.4269  2.3464
  488SOL    HW2 1464   2.564   0.056   2.934  0.6377  0.6228  1.6363
  489SOL     OW 1465   1.919   0.111   0.508 -0.6104 -0.3528  0.5103
  489SOL    HW1 1466   2.017   0.081   0.497 -1.7834 -1.9830  0.9848
  489SOL    HW2 1467   1.915   0.208   0.544 -0.0203 -1.4915  1.1942
  490SOL     OW 1468   1.579   0.354   3.041  0.0218  0.6125  0.3690
  490SOL    HW1 1469   1.627   0.349   0.013  1.2249 -1.1046  0.3397
  490SOL    HW2 1470   1.633   0.298   2.976  1.7100  0.5333 -0.2229
  491SOL     OW 1471   0.623   0.116   1.321  0.1439 -1.0016 -0.3353
  491SOL    HW1 1472   0.660   0.085   1.410  0.2831  1.6502  0.6029
  491SOL    HW2 1473   0.691   0.115   1.245 -3.9426  0.0281  0.6506
  492SOL     OW 1474   1.669   0.020   0.480 -0.1967 -0.2966 -0.0491
  492SOL    HW1 1475   1.763   0.055   0.509 -0.6748 -0.7193 -0.8857
  492SOL    HW2 1476   1.672   3.038   0.479  1.1383  1.1168 -3.5050
  493SOL     OW 1477   1.248   2.100   2.952  0.3109 -0.2699 -0.0057
  493SOL    HW1 1478   1.169   2.048   2.915 -0.4698  1.0040  0.8147
  493SOL    HW2 1479   1.297   2.152   2.876  0.9043 -1.4994 -1.3302
  494SOL     OW 1480   0.537   0.977   1.187  0.0462 -0.1305  0.7080
  494SOL    HW1 1481   0.532   1.051   1.112 -0.6362  0.8465 -0.6385
  494SOL    HW2 1482   0.571   0.885   1.155  1.6659 -2.9548 -1.1440
  495SOL     OW 1483   3.020   0.439   1.530 -0.0075  0.6053 -0.0473
  495SOL    HW1 1484   3.076   0.485   1.604 -1.9040 -0.7797  2.5434
  495SOL    HW2 1485   2.918   0.436   1.550 -1.3958 -1.1308  1.1798
  496SOL     OW 1486   2.305   2.417   2.205  0.3605  0.0478 -0.2112
  496SOL    HW1 1487   2.234   2.354   2.244 -0.1625  1.3803  1.6297
  496SOL    HW2 1488   2.404   2.388   2.232  0.0790 -5.4950  0.7311
  497SOL     OW 1489   1.767   1.190   2.784  0.5342  0.3160  1.0099
  497SOL    HW1 1490   1.860   1.227   2.755  0.2703  2.6083 -2.3052
  497SOL    HW2 1491   1.700   1.268   2.791  0.2439 -0.1363  1.0038
  498SOL     OW 1492   0.960   2.100   0.474 -0.0640 -0.4297 -0.2478
  498SOL    HW1 1493   1.039   2.065   0.527 -0.3617  0.2561 -0.9635
  498SOL    HW2 1494   0.869   2.094   0.526 -5.0788 -0.2883 -0.9377
  499SOL     OW 1495   0.338   1.620   0.942 -0.5731 -0.2897 -0.5244
  499SOL    HW1 1496   0.264   1.652   0.887  2.9321 -0.3613  0.4459
  499SOL    HW2 1497   0.377   1.534   0.908 -0.1796 -0.6371 -0.1286
  500SOL     OW 1498   1.370   2.694   0.484  0.0136  0.0692  0.2230
  500SOL    HW1 1499   1.318   2.769   0.445  0.1286 -0.0878  1.6061
  500SOL    HW2 1500   1.401   2.707   0.577  2.7038 -1.1071  1.0643
  501SOL     OW 1501   2.005   2.597   0.908 -0.8119 -0.2964 -0.8058
  501SOL    HW1 1502   2.057   2.629   0.824  1.3117 -0.0834 -2.2819
  501SOL    HW2 1503   1.920   2.554   0.884  2.3571 -1.7400  0.2325
  502SOL     OW 1504   0.308   0.528   1.304  0.5804 -0.7020  0.5206
  502SOL    HW1 1505   0.259   0.499   1.224 -0.3515  0.8197  1.1027
  502SOL    HW2 1506   0.289   0.628   1.319 -0.3551 -0.9057 -0.8314
  503SOL     OW 1507   2.009   0.048   1.720  0.1441 -0.3951 -0.4100
  503SOL    HW1 1508   1.990   0.088   1.628 -0.0913 -2.6281 -0.0689
  503SOL    HW2 1509   2.107   0.027   1.726 -1.1561 -2.2575  0.6620
  504SOL     OW 1510   2.290   0.837   1.901 -0.3014  0.2022 -0.4308
  504SOL    HW1 1511   2.188   0.824   1.878 -2.7017 -3.2701 -0.2634
  504SOL    HW2 1512   2.348   0.819   1.821  1.8351 -0.5258 -0.3322
  505SOL     OW 1513   1.349   0.144   2.341  0.4260 -0.1119  0.3163
  505SOL    HW1 1514   1.357   0.226   2.402 -0.0959  0.0328  0.3125
  505SOL    HW2 1515   1.439   0.101   2.330 -1.8632  1.3631  4.6356
  506SOL     OW 1516   0.509   0.695   1.848  0.4086  0.3807  0.1885
  506SOL    HW1 1517   0.545   0.602   1.845  1.1716  0.6676 -0.3544
  506SOL    HW2 1518   0.584   0.749   1.889 -2.5506  1.1841 -2.0346
  507SOL     OW 1519   1.706   0.326   0.179  0.1349 -0.2092  0.5090
  507SOL    HW1 1520   1.675   0.344   0.276  0.6352  2.5834 -1.9276
  507SOL    HW2 1521   1.811   0.327   0.169  1.8853 -1.7746 -0.1432
  508SOL     OW 1522   2.144   0.500   1.963  0.3047 -0.6824  0.0059
  508SOL    HW1 1523   2.190   0.591   1.983  1.4236  1.4192  1.3123
  508SOL    HW2 1524   2.071   0.515   1.890  0.7111  1.4403  0.5166
  509SOL     OW 1525   0.749   1.608   2.463  0.6034 -0.2159 -0.2916
  509SOL    HW1 1526   0.648   1.601   2.487 -3.5461  1.1356 -0.5411
  509SOL    HW2 1527   0.768   1.612   2.360  0.4056  0.5214 -0.3563
  510SOL     OW 1528   2.778   0.621   0.583  0.8362 -0.8608 -0.3640
  510SOL    HW1 1529   2.756   0.683   0.510  1.0710  1.4202 -0.1286
  510SOL    HW2 1530   2.862   0.645   0.633  0.2969 -0.0774 -0.8344
  511SOL     OW 1531   1.562   1.489   1.459  0.0571 -0.2944 -0.2163
  511SOL    HW1 1532   1.586   1.583   1.490  0.2115  1.9255 -1.4752
  511SOL    HW2 1533   1.638   1.431   1.474  0.1952  2.1893 -1.6043
  512SOL     OW 1534   0.448   1.611   0.593  0.6565  1.0132  0.3464
  512SOL    HW1 1535   0.467   1.608   0.496  0.0373  1.1377  3.7950
  512SOL    HW2 1536   0.455   1.711   0.619 -1.3402  0.4376  0.2613
  513SOL     OW 1537   0.607   2.389   0.919  0.1564 -0.7794  0.0292
  513SOL    HW1 1538   0.664   2.362   0.837 -1.2247 -0.6707  1.1303
  513SOL    HW2 1539   0.655   2.359   1.004  0.4649  0.2377  0.9166
  514SOL     OW 1540   0.483   2.111   0.421 -0.1937 -0.3732  0.6550
  514SOL    HW1 1541   0.397   2.124   0.472  1.3732  2.5721 -0.9204
  514SOL    HW2 1542   0.525   2.200   0.389  0.2193 -1.3007  1.1885
  515SOL     OW 1543   0.267   2.861   0.053 -0.1058 -0.1492  0.1108
  515SOL    HW1 1544   0.343   2.861   0.121  0.6494 -0.0554 -1.5061
  515SOL    HW2 1545   0.203   2.937   0.081  1.0438  0.6435  0.6026
  516SOL     OW 1546   2.158   0.050   1.285  0.8044  0.1549  0.1287
  516SOL    HW1 1547   2.085   0.072   1.350  0.7378  0.7662 -1.5276
  516SOL    HW2 1548   2.156   3.068   1.263  0.2793 -0.6758  1.0657
  517SOL     OW 1549   1.597   1.511   0.470 -0.1499 -0.3075 -0.0927
  517SOL    HW1 1550   1.521   1.576   0.437 -0.0293  3.1791 -0.4294
  517SOL    HW2 1551   1.549   1.440   0.529 -0.7226 -2.5271  0.2270
  518SOL     OW 1552   1.318   0.107   0.858  0.0490  0.0927  0.0677
  518SOL    HW1 1553   1.238   0.151   0.900 -0.1900  0.2041 -0.6242
  518SOL    HW2 1554   1.313   0.119   0.756 -3.0487 -1.2939 -1.7103
  519SOL     OW 1555   2.886   2.439   0.519  0.5994 -0.0584  0.0354
  519SOL    HW1 1556   2.925   2.459   0.610 -0.0967  2.1427 -0.5604
  519SOL    HW2 1557   2.832   2.517   0.484 -1.3137  0.9415 -0.8364
  520SOL     OW 1558   1.764   2.352   2.057  0.1638  0.0476  0.0119
  520SOL    HW1 1559   1.812   2.438   2.064 -0.0988 -0.6761  1.2262
  520SOL    HW2 1560   1.674   2.352   2.106  1.3693 -1.8927 -1.0493
  521SOL     OW 1561   1.459   3.027   2.091 -0.2471 -0.5220 -0.1479
  521SOL    HW1 1562   1.439   2.937   2.137  0.6354  0.7031 -2.1340
  521SOL    HW2 1563   1.506   3.096   2.148  1.1506 -2.0663 -1.4421
  522SOL     OW 1564   3.100   2.815   1.969  0.8458 -0.1787  0.7983
  522SOL    HW1 1565   3.009   2.798   1.918 -0.7190  1.0833  1.9451
  522SOL    HW2 1566   3.090   2.773   2.060  0.3719 -2.7555 -2.1446
  523SOL     OW 1567   0.849   2.159   1.578  0.0063  0.0862  0.0612
  523SOL    HW1 1568   0.804   2.250   1.575 -1.3783  1.1123 -1.4801
  523SOL    HW2 1569   0.949   2.166   1.556  2.1203 -1.2012 -3.2812
  524SOL     OW 1570   2.244   2.154   0.123 -0.7811 -0.1414 -0.1943
  524SOL    HW1 1571   2.183   2.075   0.146 -0.4892  1.0861  1.3253
  524SOL    HW2 1572   2.299   2.173   0.207  1.0682  2.1235  0.2133
  525SOL     OW 1573   2.775   0.615   0.068 -0.4015  0.2560  0.5208
  525SOL    HW1 1574   2.721   0.540   0.112 -0.6052 -1.1442  1.5590
  525SOL    HW2 1575   2.868   0.580   0.045 -1.4034 -0.5427  0.7402
  526SOL     OW 1576   0.562   2.843   0.657 -0.1461  0.2494 -0.7343
  526SOL    HW1 1577   0.597   2.774   0.726  0.9113 -1.5321  0.9445
  526SOL    HW2 1578   0.550   2.935   0.703 -0.6946  0.0907 -0.2403
  527SOL     OW 1579   2.888   1.293   0.485  0.3265  0.4637  0.0672
  527SOL    HW1 1580   2.970   1.252   0.526  1.4641  1.6888  0.2882
  527SOL    HW2 1581   2.803   1.245   0.515 -1.3110  0.2681 -0.7346
  528SOL     OW 1582   0.905   0.842   2.410 -0.1502  0.3378 -0.1441
  528SOL    HW1 1583   0.864   0.802   2.492 -0.3095 -0.3601  0.0831
  528SOL    HW2 1584   0.867   0.931   2.387  1.6634 -1.7152 -1.5383
  529SOL     OW 1585   0.578   1.585   0.020  0.2460 -0.2387  0.1557
  529SOL    HW1 1586   0.583   1.632   0.109  1.8584 -0.5365  0.5561
  529SOL    HW2 1587   0.492   1.614   3.095  2.5146  0.6964 -0.0454
  530SOL     OW 1588   1.414   1.025   2.090 -0.0306  0.0591  0.0501
  530SOL    HW1 1589   1.512   1.056   2.107 -0.8278 -1.0749  0.5161
  530SOL    HW2 1590   1.387   0.951   2.161  0.7535 -0.6275  0.4428
  531SOL     OW 1591   1.266   2.332   3.107  0.0464  0.1142  0.1639
  531SOL    HW1 1592   1.260   2.253   3.043  1.4213 -0.1807  1.2831
  531SOL    HW2 1593   1.243   2.303   0.083  0.1228 -0.6107  0.1263
  532SOL     OW 1594   2.298   1.111   2.551 -0.4068  0.3465 -0.2161
  532SOL    HW1 1595   2.206   1.067   2.573  1.8423 -2.1162  0.5167
  532SOL    HW2 1596   2.302   1.202   2.598  0.9850 -0.3194  1.5585
  533SOL     OW 1597   0.056   0.209   1.875 -0.1495  0.2721  0.1122
  533SOL    HW1 1598   0.035   0.110   1.893 -1.3413  2.0178 -4.5431
  533SOL    HW2 1599   3.100   0.274   1.897  0.0118 -0.4029  0.9733
  534SOL     OW 1600   2.140   3.083   0.248  0.0348  0.4131  0.6226
  534SOL    HW1 1601   2.146   0.004   0.152 -0.0338  2.4487 -0.9675
  534SOL    HW2 1602   2.155   0.043   0.313  0.1574  4.0220 -2.2148
  535SOL     OW 1603   0.564   3.016   3.082  0.0014 -0.3434 -0.0579
  535SOL    HW1 1604   0.624   3.066   3.016  0.2020 -2.0905 -1.1374
  535SOL    HW2 1605   0.490   3.081   3.109 -2.4291  1.1422 -1.9643
  536SOL     OW 1606   0.662   1.803   1.634  0.3494 -0.2184 -0.0146
  536SOL    HW1 1607   0.571   1.764   1.602 -0.8031 -0.9685  1.5235
  536SOL    HW2 1608   0.723   1.831   1.556  0.8161 -1.8760  1.8699
  537SOL     OW 1609   0.010   2.664   1.534  0.0715  0.0647  0.3831
  537SOL    HW1 1610   3.054   2.703   1.476 -0.3578  0.5202 -0.2900
  537SOL    HW2 1611   3.083   2.636   1.623 -0.6525  1.5331  0.5419
  538SOL     OW 1612   2.913   1.965   0.388  0.4956  0.7311  0.2611
  538SOL    HW1 1613   2.821   1.966   0.345  2.7060 -0.2244  0.1203
  538SOL    HW2 1614   2.968   1.887   0.361 -3.8745 -0.2548  0.7506
  539SOL     OW 1615   2.510   1.003   2.433 -0.0234  0.6744 -0.3343
  539SOL    HW1 1616   2.428   1.050   2.477  1.3450  1.8016  0.8916
  539SOL    HW2 1617   2.550   1.060   2.365 -0.3689 -1.0466 -0.2213
  540SOL     OW 1618   1.897   1.052   3.009 -0.4766 -0.8574 -0.4367
  540SOL    HW1 1619   1.847   1.065   2.919  0.1381  1.0758 -0.5724
  540SOL    HW2 1620   1.938   1.142   3.033 -2.2317 -0.4453  0.6587
  541SOL     OW 1621   0.746   0.573   2.604  0.1822  0.0133  0.0917
  541SOL    HW1 1622   0.778   0.485   2.569 -2.5705 -0.8223  3.0671
  541SOL    HW2 1623   0.658   0.606   2.570  1.3868  2.6250  3.7791
  542SOL     OW 1624   1.395   2.579   2.220  0.1636  0.2391  0.2538
  542SOL    HW1 1625   1.313   2.641   2.215 -0.6416  1.6832  0.8310
  542SOL    HW2 1626   1.474   2.626   2.174 -0.2966  0.4676 -2.1049
  543SOL     OW 1627   0.934   2.738   0.547  0.2908 -0.3500 -0.4270
  543SOL    HW1 1628   1.009   2.694   0.501 -2.4706 -1.3456  2.6065
  543SOL    HW2 1629   0.906   2.688   0.630 -0.6787  1.4179 -1.9263
  544SOL     OW 1630   2.781   1.820   2.429  0.8528  0.1549 -0.4076
  544SOL    HW1 1631   2.713   1.755   2.461  3.3012 -0.4644 -0.1100
  544SOL    HW2 1632   2.841   1.773   2.365 -0.8597 -2.2548  1.5744
  545SOL     OW 1633   1.444   1.990   1.554 -0.3183  0.2690  0.0815
  545SOL    HW1 1634   1.355   1.996   1.603  1.2964 -1.1010 -0.6701
  545SOL    HW2 1635   1.429   1.999   1.454  0.3446 -0.8217 -0.9165
  546SOL     OW 1636   0.338   0.185   2.438  0.2481  0.0054 -0.1068
  546SOL    HW1 1637   0.441   0.188   2.452  1.2722  2.8194  0.8118
  546SOL    HW2 1638   0.304   0.094   2.471  1.8236 -0.8424  2.3545
  547SOL     OW 1639   0.862   0.278   0.526 -0.6819  0.8402 -0.4501
  547SOL    HW1 1640   0.826   0.344   0.459 -0.3685  1.2365 -1.0334
  547SOL    HW2 1641   0.961   0.301   0.545  0.6207  0.5078 -1.2068
  548SOL     OW 1642   1.535   2.053   3.056  0.4074  0.7940 -0.8473
  548SOL    HW1 1643   1.444   2.072   3.013 -0.3076 -0.1989 -2.7493
  548SOL    HW2 1644   1.602   2.021   2.984 -1.1020  1.0757  0.1119
  549SOL     OW 1645   2.141   0.965   0.199 -0.1881 -0.0484  0.1262
  549SOL    HW1 1646   2.078   1.041   0.176 -2.1354 -1.1229  1.9810
  549SOL    HW2 1647   2.200   0.992   0.276  0.5608  1.1501  0.6656
  550SOL     OW 1648   2.604   2.116   0.647 -0.2421  0.1409  0.2351
  550SOL    HW1 1649   2.591   2.098   0.545  0.1459 -1.0734  0.7453
  550SOL    HW2 1650   2.701   2.117   0.673  2.2307 -0.5568  0.7853
  551SOL     OW 1651   1.102   0.296   1.537 -0.3802 -0.0698 -0.3004
  551SOL    HW1 1652   1.193   0.274   1.568 -3.9766 -0.9147  1.1331
  551SOL    HW2 1653   1.049   0.211   1.508  1.6986 -1.0996  0.2948
  552SOL     OW 1654   2.924   1.870   2.826 -0.0617 -0.1490 -0.0920
  552SOL    HW1 1655   2.940   1.791   2.768 -1.2539  0.5123  0.5610
  552SOL    HW2 1656   2.965   1.855   2.913 -3.1675  1.4188 -0.1582
  553SOL     OW 1657   2.597   2.776   0.723 -0.2807  0.2104  0.3031
  553SOL    HW1 1658   2.601   2.799   0.623 -0.4018 -1.0377  0.0959
  553SOL    HW2 1659   2.688   2.758   0.763 -0.1127 -2.4497  2.0844
  554SOL     OW 1660   1.983   1.125   1.681  0.8869 -0.0959  0.0632
  554SOL    HW1 1661   2.018   1.093   1.591 -0.0133 -0.2831 -1.8052
  554SOL    HW2 1662   2.007   1.222   1.696 -1.0031 -2.3115  1.7032
  555SOL     OW 1663   1.181   2.238   1.967 -0.1151 -0.1977 -0.0335
  555SOL    HW1 1664   1.126   2.316   1.934  3.1640  0.1434 -3.4981
  555SOL    HW2 1665   1.147   2.143   1.946  1.0575 -0.1381  1.3457
  556SOL     OW 1666   1.254   1.619   1.876  0.0406 -0.3083 -0.1778
  556SOL    HW1 1667   1.347   1.657   1.895 -1.0131  1.4381 -0.7099
  556SOL    HW2 1668   1.266   1.524   1.838 -0.6632  0.9028 -1.2320
  557SOL     OW 1669   1.672   3.062   1.573 -0.2202  0.1700 -0.0124
  557SOL    HW1 1670   1.607   2.997   1.615 -1.4008 -0.4135  0.0537
  557SOL    HW2 1671   1.691   3.035   1.476  2.6632  1.8038 -1.4312
  558SOL     OW 1672   0.839   2.981   2.141  0.3246 -0.1267 -0.2484
  558SOL    HW1 1673   0.820   2.884   2.136 -1.0551  1.8627  1.1354
  558SOL    HW2 1674   0.846   3.029   2.052  0.2506 -1.9369  0.5661
  559SOL     OW 1675   1.716   2.622   0.343  0.0996  0.2190 -0.0428
  559SOL    HW1 1676   1.626   2.657   0.298 -2.4097 -1.8825 -0.4796
  559SOL    HW2 1677   1.687   2.569   0.428 -0.1859 -0.2065  0.7827
  560SOL     OW 1678   1.565   2.125   0.360  0.2970  0.0373  0.0893
  560SOL    HW1 1679   1.557   2.026   0.349 -0.1655  1.3329 -2.1190
  560SOL    HW2 1680   1.572   2.167   0.266 -1.4553  0.9412 -1.5776
  561SOL     OW 1681   1.502   0.192   0.612 -0.0222 -0.3531  0.2202
  561SOL    HW1 1682   1.570   0.132   0.567 -0.2159 -1.4254  0.6132
  561SOL    HW2 1683   1.418   0.192   0.553  0.7683 -0.7588 -1.9785
  562SOL     OW 1684   0.402   1.298   2.039  0.3071 -0.3023 -0.0968
  562SOL    HW1 1685   0.418   1.354   1.953 -1.2468  0.7467 -2.1492
  562SOL    HW2 1686   0.488   1.247   2.073  4.3144 -0.2805 -0.1896
  563SOL     OW 1687   1.260   2.258   2.700 -0.1223  1.0175  0.0938
  563SOL    HW1 1688   1.235   2.228   2.606 -0.6724 -1.1053 -1.8324
  563SOL    HW2 1689   1.346   2.318   2.704  2.8247  1.6249  1.9606
  564SOL     OW 1690   2.976   0.842   0.716 -0.0571 -0.0582  0.1618
  564SOL    HW1 1691   3.064   0.895   0.715 -1.7710 -0.5869  0.9450
  564SOL    HW2 1692   2.991   0.744   0.714  0.1458 -0.9708 -1.1269
  565SOL     OW 1693   0.736   1.347   0.003 -0.4200  0.3797 -0.0877
  565SOL    HW1 1694   0.691   1.422   0.058  1.3769  0.5906  2.5057
  565SOL    HW2 1695   0.832   1.365   3.102  2.4595 -1.5133 -0.6997
  566SOL     OW 1696   2.424   2.559   2.888  0.1491  0.7336 -0.0795
  566SOL    HW1 1697   2.494   2.539   2.963 -0.1995 -1.4223  0.9414
  566SOL    HW2 1698   2.325   2.578   2.930 -4.1164 -0.6307  2.0242
  567SOL     OW 1699   1.297   1.428   1.590 -0.1543 -0.4564 -0.1742
  567SOL    HW1 1700   1.391   1.441   1.550  0.3325  1.2500  2.1079
  567SOL    HW2 1701   1.305   1.402   1.688  0.3280 -2.3845 -2.0472
  568SOL     OW 1702   1.425   1.305   2.754 -0.0312 -0.0396 -0.2551
  568SOL    HW1 1703   1.430   1.204   2.767  1.2607  1.7001 -1.4723
  568SOL    HW2 1704   1.503   1.350   2.807  2.2671 -1.8664  0.4523
  569SOL     OW 1705   2.042   1.637   0.592 -0.6025 -0.4991 -0.0975
  569SOL    HW1 1706   2.037   1.739   0.567 -1.2228  1.6124  2.3386
  569SOL    HW2 1707   1.964   1.623   0.655 -0.8986 -0.1046 -2.4466
  570SOL     OW 1708   2.786   2.090   2.448 -0.3831 -0.3927  0.0509
  570SOL    HW1 1709   2.875   2.137   2.457 -1.5527 -2.8836  2.1997
  570SOL    HW2 1710   2.785   1.989   2.457 -0.4780  0.5222  1.1998
  571SOL     OW 1711   2.859   1.771   1.726 -0.1362 -0.0096  0.3009
  571SOL    HW1 1712   2.818   1.701   1.660 -3.2271 -0.8496 -0.2992
  571SOL    HW2 1713   2.889   1.726   1.810  0.3343  1.4540 -1.5742
  572SOL     OW 1714   1.489   2.703   0.232 -0.3958  0.2716 -0.0438
  572SOL    HW1 1715   1.460   2.712   0.331 -0.0473 -1.3612  2.0885
  572SOL    HW2 1716   1.483   2.609   0.199  0.5724  0.7379  2.2260
  573SOL     OW 1717   1.482   1.855   0.513  0.2993  0.2136  0.4856
  573SOL    HW1 1718   1.574   1.873   0.552  2.7359  0.1563 -1.2177
  573SOL    HW2 1719   1.416   1.821   0.583  0.7847 -3.5997  2.4050
  574SOL     OW 1720   1.139   2.966   1.654  0.2029  0.0632  0.2026
  574SOL    HW1 1721   1.170   3.049   1.706 -0.9487 -1.1199  0.9262
  574SOL    HW2 1722   1.101   2.891   1.718  1.1911 -1.3955  1.4600
  575SOL     OW 1723   1.039   0.700   1.274  0.0031  0.4802 -0.0845
  575SOL    HW1 1724   0.981   0.725   1.191 -1.0445  0.4015 -4.0288
  575SOL    HW2 1725   1.012   0.750   1.360 -2.5182 -1.8612  0.6734
  576SOL     OW 1726   2.865   0.272   1.126  0.0309  0.1704  0.0624
  576SOL    HW1 1727   2.846   0.312   1.034  1.3826 -1.5101 -0.5925
  576SOL    HW2 1728   2.769   0.246   1.164 -0.2166  1.8509  0.8174
  577SOL     OW 1729   2.304   0.770   2.596  0.3037  0.2010 -0.0362
  577SOL    HW1 1730   2.253   0.814   2.674 -0.3703 -1.1947  0.6555
  577SOL    HW2 1731   2.401   0.764   2.622  0.0595 -0.9648  1.7835
  578SOL     OW 1732   1.967   1.627   2.345 -0.2622 -0.5017  0.1031
  578SOL    HW1 1733   1.936   1.583   2.432  0.3703  2.7863  1.0422
  578SOL    HW2 1734   1.927   1.719   2.337 -4.3198  0.5630  3.1101
  579SOL     OW 1735   0.680   1.422   1.011 -0.3717  0.7677  0.0818
  579SOL    HW1 1736   0.675   1.513   1.058  1.3559  0.4803 -1.1942
  579SOL    HW2 1737   0.614   1.412   0.936 -0.6864 -0.0286  2.0840
  580SOL     OW 1738   1.512   2.473   0.052 -0.3710  0.3532 -0.1560
  580SOL    HW1 1739   1.423   2.435   0.017  2.1790  0.6086  0.8593
  580SOL    HW2 1740   1.565   2.533   3.105  0.7216 -0.4393 -2.1580
  581SOL     OW 1741   1.022   0.887   2.098 -0.7517 -0.0665 -0.0675
  581SOL    HW1 1742   0.984   0.861   2.186 -1.5177 -0.3711 -0.5285
  581SOL    HW2 1743   1.107   0.833   2.072 -2.4083  0.5084  0.7537
  582SOL     OW 1744   0.538   1.186   0.990  0.1084  0.4179 -0.0390
  582SOL    HW1 1745   0.442   1.200   0.966  1.3990 -1.3737  1.5641
  582SOL    HW2 1746   0.577   1.260   1.046  1.7879  1.0902 -3.0571
  583SOL     OW 1747   1.074   1.564   2.088 -0.0479 -0.1226  0.2370
  583SOL    HW1 1748   1.120   1.559   2.182 -1.1801  0.9276  1.8481
  583SOL    HW2 1749   1.147   1.597   2.025  2.3440  0.4289 -1.6709
  584SOL     OW 1750   2.308   2.755   0.310 -0.1432  0.6395  0.0076
  584SOL    HW1 1751   2.393   2.800   0.277  1.2610  2.3289  2.8196
  584SOL    HW2 1752   2.279   2.814   0.386 -0.5110  3.6760 -0.7115
  585SOL     OW 1753   1.912   0.787   3.092  0.0524 -0.3072 -0.3298
  585SOL    HW1 1754   1.888   0.887   3.065 -1.1696  2.1490  2.0392
  585SOL    HW2 1755   1.849   0.767   0.050 -0.8752  1.6617 -0.1093
  586SOL     OW 1756   0.206   1.875   0.578 -0.2329 -0.2812  0.1291
  586SOL    HW1 1757   0.179   1.800   0.515 -1.4079 -3.6882  0.9110
  586SOL    HW2 1758   0.307   1.879   0.581 -0.7523  0.7651 -0.2245
  587SOL     OW 1759   1.808   2.088   0.860  0.5257 -0.4859  0.1783
  587SOL    HW1 1760   1.886   2.153   0.874 -0.2112  0.5844  1.2080
  587SOL    HW2 1761   1.809   2.012   0.930 -1.1314  0.2453  1.0776
  588SOL     OW 1762   0.495   0.717   0.921 -0.0830 -0.4219  0.9038
  588SOL    HW1 1763   0.547   0.728   1.010  0.0592 -0.5197 -1.3743
  588SOL    HW2 1764   0.534   0.770   0.841  0.7840  2.8042 -1.9276
  589SOL     OW 1765   1.086   0.213   0.972 -0.1876  0.3466  0.4672
  589SOL    HW1 1766   0.998   0.169   0.953 -0.5191  0.7209  1.1851
  589SOL    HW2 1767   1.087   0.259   1.064  0.9136  1.6212  1.9732
  590SOL     OW 1768   1.384   0.847   0.402  0.3912 -0.1443 -0.1807
  590SOL    HW1 1769   1.285   0.837   0.386 -0.1579  0.3409  0.1328
  590SOL    HW2 1770   1.432   0.759   0.406 -0.4143  1.4999  0.7651
  591SOL     OW 1771   2.628   2.524   1.998 -0.3794 -0.2628  0.3711
  591SOL    HW1 1772   2.577   2.458   1.945  0.9418  0.8915 -0.2193
  591SOL    HW2 1773   2.590   2.525   2.091 -0.4766  1.2696  0.8461
  592SOL     OW 1774   1.610   1.866   1.221  0.4283  0.0539  0.0446
  592SOL    HW1 1775   1.691   1.886   1.167  0.1317  2.2390  1.4142
  592SOL    HW2 1776   1.554   1.953   1.222  0.5579 -1.0109  1.8125
  593SOL     OW 1777   1.017   2.976   0.662 -0.1998 -0.0273  0.1493
  593SOL    HW1 1778   1.037   2.933   0.755  0.8090  0.2791 -1.2647
  593SOL    HW2 1779   0.983   2.896   0.609  2.0386 -1.4624 -1.8331
  594SOL     OW 1780   0.297   0.989   1.889 -0.2126 -0.1795  0.0492
  594SOL    HW1 1781   0.345   0.966   1.808 -0.7353 -0.9916 -1.7039
  594SOL    HW2 1782   0.350   1.055   1.947  1.3630 -0.6768 -1.4240
  595SOL     OW 1783   0.004   2.709   0.840  0.6607  0.5424 -0.2213
  595SOL    HW1 1784   0.075   2.659   0.789 -1.3003 -0.6095  2.8705
  595SOL    HW2 1785   0.056   2.791   0.882  1.1783  4.4303 -0.6883
  596SOL     OW 1786   3.073   0.592   1.764 -0.4368 -0.0735 -0.3555
  596SOL    HW1 1787   0.052   0.568   1.756 -2.2267  3.4710 -1.4633
  596SOL    HW2 1788   3.065   0.682   1.806  0.0649 -0.0362 -1.9180
  597SOL     OW 1789   1.965   1.347   0.917  0.2048 -0.2408 -0.2507
  597SOL    HW1 1790   1.920   1.279   0.856 -0.4054 -1.8125 -0.4928
  597SOL    HW2 1791   2.026   1.307   0.990 -1.3025  3.4943 -1.0209
  598SOL     OW 1792   0.666   2.740   2.032  0.9134  0.4530 -0.4055
  598SOL    HW1 1793   0.713   2.704   1.948 -0.4832  1.4112  0.1116
  598SOL    HW2 1794   0.591   2.793   2.001  0.4657 -1.3205 -2.3079
  599SOL     OW 1795   2.603   1.980   3.068 -0.1315 -0.1808 -0.4565
  599SOL    HW1 1796   2.625   1.944   2.977  0.4310  2.6650  1.2063
  599SOL    HW2 1797   2.582   1.909   0.013  1.7743  2.6064 -0.5714
  600SOL     OW 1798   0.882   0.975   0.066 -0.2522 -0.2109 -0.1843
  600SOL    HW1 1799   0.893   0.974   3.080 -0.7903  0.0809 -1.9640
  600SOL    HW2 1800   0.787   1.010   0.087  1.3428  1.9708  0.7884
  601SOL     OW 1801   1.085   1.148   0.222 -0.7102 -0.4355 -0.2626
  601SOL    HW1 1802   1.027   1.085   0.164  1.5938 -0.1835 -1.2376
  601SOL    HW2 1803   1.167   1.094   0.251 -0.7753 -0.1641 -0.9893
  602SOL     OW 1804   1.347   2.797   1.077  0.0228 -0.0360  0.2352
  602SOL    HW1 1805   1.443   2.803   1.041 -0.5639  1.8088 -2.4778
  602SOL    HW2 1806   1.307   2.892   1.086  0.2198  0.6420  0.0120
  603SOL     OW 1807   0.968   3.113   2.358  0.6724 -0.0228  0.2796
  603SOL    HW1 1808   0.908   3.062   2.293 -2.2417  0.4941  2.0875
  603SOL    HW2 1809   1.049   3.059   2.384 -2.4373  1.7468 -0.2227
  604SOL     OW 1810   3.119   0.054   2.229  0.0267  0.0221 -0.0208
  604SOL    HW1 1811   0.013   0.034   2.328  2.2824  0.6459 -0.1831
  604SOL    HW2 1812   0.017   0.156   2.223 -1.1517  0.1348 -0.9945
  605SOL     OW 1813   2.649   2.300   1.389  0.5990  0.2114 -0.0528
  605SOL    HW1 1814   2.607   2.363   1.323  1.3296  0.2952 -0.1462
  605SOL    HW2 1815   2.678   2.349   1.471 -0.0904 -0.9842  0.0879
  606SOL     OW 1816   0.335   1.652   3.020 -0.2299 -0.2527 -0.4692
  606SOL    HW1 1817   0.257   1.599   3.053 -0.8967  1.4019 -1.3951
  606SOL    HW2 1818   0.317   1.749   3.047 -0.0478  1.0607 -0.1562
  607SOL     OW 1819   0.996   0.617   0.315  0.0693 -0.7188 -0.1362
  607SOL    HW1 1820   1.046   0.537   0.278 -2.0049  1.9504 -0.8747
  607SOL    HW2 1821   1.064   0.692   0.346 -0.6790  2.2190  0.4807
  608SOL     OW 1822   1.986   1.309   2.418  0.8262 -0.5831 -0.2061
  608SOL    HW1 1823   1.910   1.246   2.425 -1.1524  2.0721 -1.2566
  608SOL    HW2 1824   1.973   1.390   2.483 -0.2971 -1.3524 -1.6439
  609SOL     OW 1825   3.072   0.350   0.852 -0.1452 -0.0183 -0.5767
  609SOL    HW1 1826   3.099   0.294   0.930  0.5453 -2.0686 -0.1956
  609SOL    HW2 1827   2.970   0.364   0.846  0.7901  1.5662 -1.5192
  610SOL     OW 1828   0.312   2.383   2.992  0.0131  0.6090  0.6478
  610SOL    HW1 1829   0.410   2.363   3.019  1.2366  1.2214  1.4541
  610SOL    HW2 1830   0.284   2.470   3.037  2.4497  0.5054 -4.9821
  611SOL     OW 1831   1.760   1.163   0.378 -0.1286 -0.0805 -0.2444
  611SOL    HW1 1832   1.839   1.169   0.310  1.1028  0.2426  1.1069
  611SOL    HW2 1833   1.680   1.213   0.339 -2.2411  0.4444  0.2823
  612SOL     OW 1834   0.885   2.425   2.494  0.1524 -0.1495  0.2658
  612SOL    HW1 1835   0.869   2.354   2.565 -0.6277 -1.8267 -0.0628
  612SOL    HW2 1836   0.818   2.423   2.411 -0.9630  1.5203  0.8727
  613SOL     OW 1837   1.106   1.835   3.005 -0.1785 -0.5444 -0.5801
  613SOL    HW1 1838   1.184   1.769   3.020  0.0745 -1.5235 -4.4070
  613SOL    HW2 1839   1.092   1.843   2.905 -0.7347  0.5349 -0.7528
  614SOL     OW 1840   2.762   2.785   1.629  0.4377 -0.0650  0.4641
  614SOL    HW1 1841   2.826   2.717   1.682  1.9247 -0.2659  0.3678
  614SOL    HW2 1842   2.740   2.745   1.533  0.8896  0.5310 -0.6271
  615SOL     OW 1843   2.364   1.448   3.046 -0.0073 -0.3689 -0.2451
  615SOL    HW1 1844   2.288   1.476   2.979  0.1822 -2.6631 -0.2941
  615SOL    HW2 1845   2.461   1.446   3.010  2.1125 -1.1531  0.3877
  616SOL     OW 1846   1.646   2.971   0.831  0.3504  0.0419  0.2239
  616SOL    HW1 1847   1.622   3.071   0.846 -0.9169  1.2318  0.1929
  616SOL    HW2 1848   1.751   2.965   0.821  0.4633 -1.0064  0.6253
  617SOL     OW 1849   0.898   0.985   2.894 -0.2446 -0.0728 -0.0606
  617SOL    HW1 1850   0.849   0.902   2.862  1.7355  0.1922  0.6923
  617SOL    HW2 1851   0.878   1.064   2.831 -0.9494 -1.1873  3.1081
  618SOL     OW 1852   0.769   0.840   1.885  0.3683 -0.6511 -0.4705
  618SOL    HW1 1853   0.735   0.897   1.807  1.1045 -0.9145 -3.0006
  618SOL    HW2 1854   0.795   0.895   1.964 -0.0157  1.2576  3.1729
  619SOL     OW 1855   0.182   1.030   1.358  0.2739 -0.2139 -0.1317
  619SOL    HW1 1856   0.108   0.998   1.422  0.0134  2.2310  1.5398
  619SOL    HW2 1857   0.177   0.981   1.271 -0.9224  1.3766  1.7585
  620SOL     OW 1858   1.975   1.319   3.108 -0.0331 -0.0270 -0.3308
  620SOL    HW1 1859   1.897   1.372   0.022 -1.5367  1.5543 -0.4714
  620SOL    HW2 1860   2.039   1.379   3.048  2.7078 -1.1119 -0.6130
  621SOL     OW 1861   2.535   3.074   1.108 -0.7319 -0.0816 -0.6762
  621SOL    HW1 1862   2.570   0.053   1.115 -1.2162  1.5036 -0.7010
  621SOL    HW2 1863   2.563   3.033   1.195 -1.4609  1.5102 -0.3771
  622SOL     OW 1864   1.732   0.909   2.437  0.7044 -0.2876 -1.6904
  622SOL    HW1 1865   1.830   0.872   2.417  1.4488 -0.9957 -2.1993
  622SOL    HW2 1866   1.661   0.832   2.427 -0.9654 -2.0511  0.2703
  623SOL     OW 1867   0.856   0.300   2.970 -0.1976  0.5761 -0.0229
  623SOL    HW1 1868   0.956   0.299   2.951 -0.7553 -0.9437  0.4144
  623SOL    HW2 1869   0.832   0.394   2.991  1.0644 -1.7647 -1.0989
  624SOL     OW 1870   1.657   0.403   0.439 -0.3918 -0.2104 -0.4824
  624SOL    HW1 1871   1.587   0.370   0.504  1.0934 -1.4878  1.9735
  624SOL    HW2 1872   1.755   0.386   0.471  1.4734 -0.1574  2.9772
  625SOL     OW 1873   0.723   1.106   0.782 -0.3681 -0.6522  0.5043
  625SOL    HW1 1874   0.779   1.192   0.782  0.6316  1.7317  1.5252
  625SOL    HW2 1875   0.654   1.123   0.855  1.2815 -0.0540  2.3757
  626SOL     OW 1876   1.401   1.085   0.258 -0.3298  0.2072  0.4666
  626SOL    HW1 1877   1.455   1.168   0.273 -0.3973  0.4386 -1.9697
  626SOL    HW2 1878   1.409   1.007   0.324  2.0979 -1.6089 -2.7157
  627SOL     OW 1879   0.930   0.009   1.870 -0.5874 -0.1303  0.0685
  627SOL    HW1 1880   1.009   0.061   1.899 -0.0176  0.7346  0.1655
  627SOL    HW2 1881   0.864   0.064   1.816 -1.1445 -2.2689 -1.6016
  628SOL     OW 1882   2.689   0.290   2.215  0.4350  0.4972  0.1832
  628SOL    HW1 1883   2.771   0.348   2.200 -0.9676 -1.2904  1.2093
  628SOL    HW2 1884   2.607   0.347   2.231 -0.6103 -1.6620  1.1815
  629SOL     OW 1885   0.816   1.271   2.788 -0.3315 -0.3447  0.4430
  629SOL    HW1 1886   0.892   1.307   2.846  1.5647  1.2260 -1.2600
  629SOL    HW2 1887   0.833   1.286   2.691 -2.8445  2.7673  2.2572
  630SOL     OW 1888   1.262   0.483   2.243  0.0391  0.3816 -0.5896
  630SOL    HW1 1889   1.173   0.524   2.253  1.2232  1.5371  1.1803
  630SOL    HW2 1890   1.283   0.415   2.314  0.4600 -1.1450 -0.7569
  631SOL     OW 1891   2.738   0.960   0.764 -0.2525 -0.1693  0.0374
  631SOL    HW1 1892   2.764   1.032   0.832  1.2624 -2.2603 -1.5535
  631SOL    HW2 1893   2.819   0.904   0.741  1.2270  2.2529 -0.0544
  632SOL     OW 1894   2.311   1.042   1.307 -0.2699 -0.1479 -0.0059
  632SOL    HW1 1895   2.361   0.966   1.261 -0.4585 -1.6332  0.7437
  632SOL    HW2 1896   2.363   1.128   1.292  0.0420  0.5503 -1.4316
  633SOL     OW 1897   1.610   1.093   0.998  0.6789 -0.0977  0.0642
  633SOL    HW1 1898   1.701   1.052   0.982 -3.4671 -0.2856  2.5072
  633SOL    HW2 1899   1.562   1.047   1.073 -0.6255  1.4579 -0.8032
  634SOL     OW 1900   1.902   2.955   0.845  0.2614  0.2190 -0.1407
  634SOL    HW1 1901   1.911   2.905   0.937  0.3174  0.0707  0.6115
  634SOL    HW2 1902   1.975   3.028   0.828 -2.1693  1.7214 -0.8326
  635SOL     OW 1903   1.741   0.803   1.469 -0.1837  0.0354  0.0814
  635SOL    HW1 1904   1.813   0.853   1.519  2.0772 -0.4474  0.1995
  635SOL    HW2 1905   1.650   0.817   1.519  0.5137  2.5852  3.2600
  636SOL     OW 1906   0.840   0.887   0.461  0.5368  0.1901  0.8370
  636SOL    HW1 1907   0.763   0.866   0.394 -2.3212 -0.1360 -1.6234
  636SOL    HW2 1908   0.833   0.820   0.541 -1.0342 -1.2783  0.0705
  637SOL     OW 1909   1.598   2.234   0.131 -0.8996 -0.3631 -0.9409
  637SOL    HW1 1910   1.587   2.332   0.095 -1.4845  1.8880 -1.1341
  637SOL    HW2 1911   1.557   2.174   0.058 -2.5531  0.5430  1.5795
  638SOL     OW 1912   1.297   2.783   2.941 -0.3597  0.3137  0.3159
  638SOL    HW1 1913   1.256   2.780   3.037 -1.4733 -1.2572 -0.3231
  638SOL    HW2 1914   1.364   2.862   2.928  2.1779 -0.7936 -0.0251
  639SOL     OW 1915   0.832   2.093   1.086  0.4290  0.4717  0.0587
  639SOL    HW1 1916   0.856   2.039   1.003 -0.8209  0.3147  2.2840
  639SOL    HW2 1917   0.741   2.065   1.127  1.6232  2.6102 -0.2223
  640SOL     OW 1918   0.401   2.877   0.285  0.5700 -0.0600  0.2564
  640SOL    HW1 1919   0.403   2.796   0.344  1.5041  1.7561 -1.0746
  640SOL    HW2 1920   0.474   2.941   0.320 -3.5354 -0.0030  1.6370
  641SOL     OW 1921   0.190   0.108   0.077  0.0123  0.4811 -0.5502
  641SOL    HW1 1922   0.213   0.145   0.172 -1.4077  0.1291  4.0406
  641SOL    HW2 1923   0.272   0.100   0.019 -1.8451  0.8626  0.8326
  642SOL     OW 1924   0.125   1.586   1.132  0.7264  0.0677 -0.2560
  642SOL    HW1 1925   0.211   1.596   1.084 -0.8057  2.0933  4.3785
  642SOL    HW2 1926   0.114   1.647   1.216 -3.4714 -1.7992  2.9538
  643SOL     OW 1927   0.835   1.661   2.203 -0.4879 -0.2194  0.1650
  643SOL    HW1 1928   0.909   1.618   2.144  0.5649 -0.1443 -1.0849
  643SOL    HW2 1929   0.846   1.765   2.193 -1.3696  0.9666  0.9111
  644SOL     OW 1930   1.640   2.489   0.554  0.0419 -0.1374  0.1914
  644SOL    HW1 1931   1.705   2.419   0.588  0.1188  0.5490 -1.4891
  644SOL    HW2 1932   1.568   2.509   0.626 -2.2255 -0.7064  0.1911
  645SOL     OW 1933   1.738   2.420   1.426  0.8347 -0.0868 -0.1348
  645SOL    HW1 1934   1.830   2.455   1.440  2.4077  0.3667 -0.5191
  645SOL    HW2 1935   1.694   2.386   1.512 -0.4662 -0.7151 -2.3161
  646SOL     OW 1936   1.198   2.874   0.382 -0.4043  0.1752  0.0538
  646SOL    HW1 1937   1.125   2.912   0.323 -0.0844 -0.7249  2.2306
  646SOL    HW2 1938   1.234   2.944   0.450 -0.4901  0.3167  0.5043
  647SOL     OW 1939   0.482   2.983   2.003  0.4353  0.7473 -0.1971
  647SOL    HW1 1940   0.382   2.956   1.992 -3.0180 -1.7350 -1.9748
  647SOL    HW2 1941   0.519   3.018   1.914  0.8449 -1.4165  0.9813
  648SOL     OW 1942   2.458   0.855   0.768  0.6038 -0.0597 -0.0401
  648SOL    HW1 1943   2.373   0.906   0.801  1.1116  1.2205  1.2474
  648SOL    HW2 1944   2.540   0.914   0.771  0.8454  0.6950  0.7144
  649SOL     OW 1945   1.808   2.316   2.968  0.5851 -0.0313 -0.5649
  649SOL    HW1 1946   1.860   2.285   3.043 -1.1260 -0.4222 -1.7867
  649SOL    HW2 1947   1.785   2.413   2.973  2.2421 -0.4821  0.8118
  650SOL     OW 1948   2.468   1.696   1.610 -0.1921  0.0600  0.4442
  650SOL    HW1 1949   2.486   1.797   1.624 -1.1162  2.5114  0.1478
  650SOL    HW2 1950   2.499   1.663   1.517 -1.5375 -0.0857 -0.6559
  651SOL     OW 1951   1.552   1.666   2.931 -0.5606 -0.1493  0.1250
  651SOL    HW1 1952   1.630   1.730   2.945  0.0435  0.6344  2.4316
  651SOL    HW2 1953   1.499   1.683   2.847 -0.8755  2.0248 -1.6239
  652SOL     OW 1954   0.852   3.036   2.655  0.0470  0.2392 -0.0938
  652SOL    HW1 1955   0.941   3.022   2.709  1.9736 -1.5876  0.5129
  652SOL    HW2 1956   0.822   0.012   2.664 -0.3620 -1.7096 -0.7776
  653SOL     OW 1957   2.013   2.271   0.901  0.2975 -0.0457 -0.1570
  653SOL    HW1 1958   1.977   2.289   0.994  1.1327 -2.0499  2.7925
  653SOL    HW2 1959   2.110   2.241   0.907 -0.0379  0.9798 -1.6248
  654SOL     OW 1960   2.744   2.934   2.302  0.2577  0.3147 -0.0023
  654SOL    HW1 1961   2.705   3.017   2.338  2.1808  0.1119 -1.7924
  654SOL    HW2 1962   2.786   2.946   2.206  1.1528 -1.2171 -0.0198
  655SOL     OW 1963   2.825   2.158   1.178  0.1053 -0.7773  0.1518
  655SOL    HW1 1964   2.873   2.213   1.103  2.6740  0.7953 -1.3273
  655SOL    HW2 1965   2.773   2.213   1.246  0.1380  0.6071  0.5947
  656SOL     OW 1966   2.896   2.131   2.693 -0.1738  0.1493 -0.1288
  656SOL    HW1 1967   2.956   2.161   2.618 -1.4542  0.2088 -1.6528
  656SOL    HW2 1968   2.912   2.035   2.721  1.4968 -0.0988 -2.6185
  657SOL     OW 1969   2.698   0.788   0.351  0.1061  0.2290 -0.6239
  657SOL    HW1 1970   2.658   0.779   0.261  2.0391 -1.2222  2.0565
  657SOL    HW2 1971   2.776   0.854   0.352  1.2326  0.1066 -1.4234
  658SOL     OW 1972   1.357   1.719   1.175 -0.1148 -0.0202 -0.0699
  658SOL    HW1 1973   1.309   1.681   1.259  0.6036 -4.0368  0.1926
  658SOL    HW2 1974   1.442   1.770   1.194  2.1056  0.3150 -1.9492
  659SOL     OW 1975   1.190   0.094   1.289 -0.0710 -0.0470 -0.3720
  659SOL    HW1 1976   1.273   0.144   1.322 -0.2722  0.9409  1.7774
  659SOL    HW2 1977   1.126   0.069   1.366  0.3690  0.1754 -1.4628
  660SOL     OW 1978   2.160   1.262   1.126  1.1639  0.1380  0.1453
  660SOL    HW1 1979   2.252   1.272   1.076  1.2705 -0.7047  2.5200
  660SOL    HW2 1980   2.147   1.331   1.199 -0.3504 -2.1681 -1.5412
  661SOL     OW 1981   0.295   1.549   0.246  0.0727  0.3413 -0.3955
  661SOL    HW1 1982   0.232   1.615   0.291 -0.9096  0.9291  2.0684
  661SOL    HW2 1983   0.393   1.578   0.248  2.2403  3.6987 -2.3984
  662SOL     OW 1984   2.758   0.870   1.837 -0.3762  0.3005  0.2626
  662SOL    HW1 1985   2.680   0.879   1.898 -0.1333  0.4697 -0.4097
  662SOL    HW2 1986   2.818   0.792   1.855 -2.2990  1.7435 -0.5160
  663SOL     OW 1987   2.159   1.444   1.337 -0.7853 -0.0032 -0.0720
  663SOL    HW1 1988   2.206   1.533   1.322 -0.0817  0.8623  0.0020
  663SOL    HW2 1989   2.208   1.397   1.417 -0.4319 -1.0725  2.8600
  664SOL     OW 1990   0.356   0.084   1.296  0.4284  0.0623  0.0567
  664SOL    HW1 1991   0.296   0.038   1.369 -0.2730 -0.7323  0.2446
  664SOL    HW2 1992   0.450   0.106   1.325  1.2364  0.4051 -2.2744
  665SOL     OW 1993   1.351   0.237   2.914  0.1755  0.5380  0.0013
  665SOL    HW1 1994   1.416   0.306   2.939 -0.4854 -1.6977  1.3222
  665SOL    HW2 1995   1.366   0.153   2.978 -0.4836  0.7694  1.4760
  666SOL     OW 1996   0.394   0.199   2.129  0.2657 -0.3519  0.7604
  666SOL    HW1 1997   0.362   0.162   2.217  2.1862  3.6445 -3.2131
  666SOL    HW2 1998   0.459   0.277   2.139 -0.9828 -1.7671  3.5350
  667SOL     OW 1999   1.752   1.494   1.893 -0.2546 -0.1979 -0.0365
  667SOL    HW1 2000   1.772   1.560   1.819 -1.5991  1.3721  1.5833
  667SOL    HW2 2001   1.816   1.500   1.977 -1.2971 -0.9477 -2.1500
  668SOL     OW 2002   0.008   1.691   2.552 -0.3516 -0.5219 -0.7889
  668SOL    HW1 2003   3.039   1.657   2.597  2.1966 -0.3326  1.8482
  668SOL    HW2 2004   0.081   1.617   2.560  1.0574  0.7302  1.2627
  669SOL     OW 2005   2.226   0.137   2.543  0.0253 -0.4721  0.4484
  669SOL    HW1 2006   2.299   0.070   2.539 -0.1201 -0.7462  1.1386
  669SOL    HW2 2007   2.239   0.201   2.618 -3.1573 -0.7014  0.6841
  670SOL     OW 2008   2.617   1.149   2.231  0.1048 -0.3749  0.0461
  670SOL    HW1 2009   2.711   1.115   2.206  1.9392 -0.1194  2.0400
  670SOL    HW2 2010   2.576   1.199   2.155  0.5616  0.8086  0.3314
  671SOL     OW 2011   2.678   1.894   0.276  0.0529  0.3305 -0.4974
  671SOL    HW1 2012   2.724   1.839   0.206 -0.6489  0.8941  0.1457
  671SOL    HW2 2013   2.599   1.847   0.312  1.8356  0.6775 -2.5064
  672SOL     OW 2014   1.902   1.490   2.105 -0.4518 -0.3148  0.1458
  672SOL    HW1 2015   1.969   1.413   2.096  0.3755  2.2240 -0.1881
  672SOL    HW2 2016   1.913   1.541   2.195 -0.5705  2.5565 -1.9280
  673SOL     OW 2017   3.006   1.853   1.115 -0.7053  0.8512  0.7161
  673SOL    HW1 2018   3.075   1.923   1.092 -3.3207 -2.2253 -1.9355
  673SOL    HW2 2019   3.008   1.826   1.217  1.7081  0.8553  4.4247
  674SOL     OW 2020   1.014   2.033   1.900 -0.1162  0.3979 -0.3501
  674SOL    HW1 2021   1.038   1.988   1.989 -1.8300 -2.3534 -2.8764
  674SOL    HW2 2022   0.919   2.017   1.870 -0.9262  0.7862  2.5400
  675SOL     OW 2023   3.044   0.592   0.695 -0.1046  0.2674  0.3913
  675SOL    HW1 2024   0.015   0.637   0.687 -0.4015  0.5319 -1.6891
  675SOL    HW2 2025   3.051   0.504   0.750  0.8480 -1.3439 -1.9973
  676SOL     OW 2026   0.008   1.126   0.841  0.3127 -0.0533 -0.8851
  676SOL    HW1 2027   3.115   1.218   0.794 -1.4062  0.4291 -0.6380
  676SOL    HW2 2028   3.057   1.112   0.914  0.9445 -1.3282 -1.0480
  677SOL     OW 2029   1.657   1.754   2.271  0.0541  0.4094 -0.2658
  677SOL    HW1 2030   1.617   1.688   2.206  1.3886 -3.0052  0.3238
  677SOL    HW2 2031   1.705   1.829   2.219  0.9385 -2.4724 -0.3294
  678SOL     OW 2032   2.652   1.562   0.715 -0.5722  0.1965 -0.3882
  678SOL    HW1 2033   2.623   1.634   0.778  0.6245 -2.4188  0.1229
  678SOL    HW2 2034   2.568   1.515   0.674 -0.1766 -0.3633  0.6669
  679SOL     OW 2035   0.753   2.341   0.703  0.4375 -0.4480 -0.3377
  679SOL    HW1 2036   0.760   2.396   0.621 -0.2202 -2.7191  2.3660
  679SOL    HW2 2037   0.839   2.301   0.732 -1.0275  1.9032  0.2928
  680SOL     OW 2038   0.194   1.777   1.323  0.5620 -0.2767 -0.2381
  680SOL    HW1 2039   0.206   1.847   1.248 -1.1229 -0.6027 -1.3840
  680SOL    HW2 2040   0.103   1.790   1.362  2.8870 -1.3036 -0.4260
  681SOL     OW 2041   0.977   0.414   1.158  0.2204 -0.7212  0.0120
  681SOL    HW1 2042   0.912   0.372   1.229  0.6172 -1.3784 -1.5334
  681SOL    HW2 2043   1.025   0.489   1.204 -0.1873 -1.3088 -0.1322
  682SOL     OW 2044   1.918   2.916   1.358  0.1431 -0.0322  0.0595
  682SOL    HW1 2045   1.916   2.871   1.453  1.4235 -1.1108  1.3264
  682SOL    HW2 2046   1.844   2.981   1.357  2.0128 -2.4542  1.1424
  683SOL     OW 2047   2.321   1.353   1.529  0.1171 -0.2216  0.0840
  683SOL    HW1 2048   2.366   1.407   1.603  0.9085  2.1282  1.8239
  683SOL    HW2 2049   2.338   1.252   1.545  1.8306 -2.1376 -0.3810
  684SOL     OW 2050   0.164   1.669   1.676  0.4108  0.1458 -0.1350
  684SOL    HW1 2051   0.158   1.592   1.608 -0.2276 -1.4773 -0.7360
  684SOL    HW2 2052   0.183   1.637   1.767 -0.1741 -0.3878 -1.4437
  685SOL     OW 2053   1.958   2.004   0.152  0.2794  0.3761 -0.0438
  685SOL    HW1 2054   1.929   2.099   0.138 -1.7477  2.6941  0.3032
  685SOL    HW2 2055   1.877   1.939   0.158  1.3470 -2.3817  0.4164
  686SOL     OW 2056   2.802   0.396   0.861 -0.2322  0.0150  0.3200
  686SOL    HW1 2057   2.814   0.498   0.860 -0.9601  0.2327 -0.0226
  686SOL    HW2 2058   2.713   0.361   0.839 -0.8333  1.4692  0.3995
  687SOL     OW 2059   1.602   0.256   2.575 -0.7916 -0.4468  0.4489
  687SOL    HW1 2060   1.636   0.170   2.532  1.0828  0.0663  0.4062
  687SOL    HW2 2061   1.636   0.278   2.669 -0.2215  0.0522 -0.3557
  688SOL     OW 2062   1.173   2.138   2.478  0.1449 -0.7813 -0.8275
  688SOL    HW1 2063   1.186   2.219   2.413  0.9316  2.6541 -0.8059
  688SOL    HW2 2064   1.111   2.069   2.439  1.4449  2.8079  2.9642
  689SOL     OW 2065   2.477   1.466   1.733  0.0498 -0.2057  0.1901
  689SOL    HW1 2066   2.466   1.563   1.697 -0.3746  1.7031  0.2109
  689SOL    HW2 2067   2.570   1.452   1.769 -0.5114  1.7262  0.5845
  690SOL     OW 2068   1.793   1.747   1.432  0.3757  0.5933  0.5451
  690SOL    HW1 2069   1.721   1.795   1.383  2.7239 -0.9791  2.3685
  690SOL    HW2 2070   1.823   1.668   1.372  2.8591  2.2213 -0.3181
  691SOL     OW 2071   0.174   1.505   0.663 -0.1517 -0.0676 -0.2701
  691SOL    HW1 2072   0.171   1.593   0.718  0.4019 -2.1369  1.4742
  691SOL    HW2 2073   0.268   1.478   0.629  0.5696  1.0282  0.4071
  692SOL     OW 2074   2.300   2.625   2.444  0.3648 -0.5964  0.0043
  692SOL    HW1 2075   2.282   2.558   2.371 -1.4685  0.0877  1.4974
  692SOL    HW2 2076   2.371   2.695   2.416 -0.8760 -1.1375  1.8950
  693SOL     OW 2077   2.865   1.500   2.265 -0.0051  0.2068 -0.0735
  693SOL    HW1 2078   2.770   1.512   2.294 -1.5428 -0.5775 -3.4975
  693SOL    HW2 2079   2.920   1.578   2.289 -0.0178 -1.4535  1.0913
  694SOL     OW 2080   2.213   0.233   1.964  0.3249 -0.2757  0.0978
  694SOL    HW1 2081   2.247   0.242   1.868 -0.9381  1.7378  0.6424
  694SOL    HW2 2082   2.201   0.325   2.005 -0.1736 -0.7118 -1.6695
  695SOL     OW 2083   1.155   0.831   2.508  0.2099  0.3122  0.2375
  695SOL    HW1 2084   1.055   0.824   2.482 -0.7353  2.1515  1.3132
  695SOL    HW2 2085   1.171   0.919   2.559  0.6749 -1.6026 -1.3848
  696SOL     OW 2086   1.667   0.154   1.750  0.5191  0.0088  0.2635
  696SOL    HW1 2087   1.752   0.171   1.799  0.1453 -1.4276  0.4856
  696SOL    HW2 2088   1.672   0.076   1.678 -0.2313 -0.8695 -0.0459
  697SOL     OW 2089   1.665   0.286   2.107 -0.1758 -0.7888 -0.1088
  697SOL    HW1 2090   1.759   0.312   2.132 -0.3732 -0.3192  2.9301
  697SOL    HW2 2091   1.670   0.235   2.020 -2.0528 -0.0430  2.9666
  698SOL     OW 2092   1.725   1.991   2.147  0.7781 -0.3572 -0.2911
  698SOL    HW1 2093   1.811   1.974   2.103 -4.4809  2.5766  0.8607
  698SOL    HW2 2094   1.671   2.047   2.080 -1.9142  2.5100  1.8482
  699SOL     OW 2095   1.962   0.753   0.254 -0.3748 -0.0512  0.5477
  699SOL    HW1 2096   1.861   0.778   0.243  2.5645 -2.8473 -0.9648
  699SOL    HW2 2097   2.028   0.816   0.208  1.5807  2.0360 -0.9401
  700SOL     OW 2098   1.268   0.197   0.488  0.5395 -0.6614  0.1447
  700SOL    HW1 2099   1.208   0.278   0.519 -2.4002  3.2455 -2.0234
  700SOL    HW2 2100   1.268   0.190   0.388  0.3631  0.6671 -0.2956
  701SOL     OW 2101   0.237   0.784   0.915  0.6896  0.1010 -0.2854
  701SOL    HW1 2102   0.335   0.778   0.935 -0.2574 -1.1857  0.4364
  701SOL    HW2 2103   0.214   0.774   0.816  1.0172  0.7300  0.6967
  702SOL     OW 2104   1.972   0.156   1.473  0.4201 -0.0369  0.3608
  702SOL    HW1 2105   1.978   0.255   1.498 -2.2354  0.1672 -1.0465
  702SOL    HW2 2106   1.877   0.144   1.434 -2.2611  0.3776 -0.0556
  703SOL     OW 2107   2.733   0.917   1.309 -0.3803  0.1261  0.5343
  703SOL    HW1 2108   2.798   0.958   1.244  0.6876  0.7984 -0.6768
  703SOL    HW2 2109   2.752   0.819   1.321  1.2539  3.6375  0.5249
  704SOL     OW 2110   0.957   2.539   1.232 -0.1446  0.2767  0.3310
  704SOL    HW1 2111   1.024   2.579   1.168  1.5950  0.5800 -2.2548
  704SOL    HW2 2112   1.008   2.493   1.313  0.9262 -1.5027  1.8937
  705SOL     OW 2113   0.166   1.479   2.582 -0.2884 -0.3328 -0.4907
  705SOL    HW1 2114   0.219   1.433   2.505  3.0619  0.5383 -0.0866
  705SOL    HW2 2115   0.229   1.488   2.668  2.4016  0.5687  1.8846
  706SOL     OW 2116   2.935   3.103   0.012 -0.0501  0.2114  0.1041
  706SOL    HW1 2117   2.836   3.087   0.000  0.2127 -2.2397 -0.7006
  706SOL    HW2 2118   2.957   3.066   0.102 -1.1579  0.7110  1.0354
  707SOL     OW 2119   1.481   2.777   2.525  0.1954  0.2176  0.0251
  707SOL    HW1 2120   1.513   2.785   2.427  1.8130 -0.5147 -2.0247
  707SOL    HW2 2121   1.455   2.681   2.543 -0.7403  0.8893  1.3043
  708SOL     OW 2122   0.413   2.814   1.657  0.2278 -0.2113 -0.3491
  708SOL    HW1 2123   0.405   2.743   1.735  0.4536  0.0398  0.6387
  708SOL    HW2 2124   0.325   2.849   1.620  1.9007  1.9652  0.5766
  709SOL     OW 2125   3.052   0.732   2.018  0.3264  0.3069 -0.1272
  709SOL    HW1 2126   3.092   0.791   1.942  0.1145  2.2009 -0.4750
  709SOL    HW2 2127   0.007   0.694   2.073 -1.9857  0.6488 -1.3345
  710SOL     OW 2128   0.106   0.880   1.128 -0.4115 -0.0883 -0.1359
  710SOL    HW1 2129   0.166   0.847   1.055 -1.0242  0.3616  0.8130
  710SOL    HW2 2130   0.106   0.818   1.210 -2.3731  0.4491  1.5721
  711SOL     OW 2131   2.838   2.956   1.265 -0.0210 -0.1802  0.0634
  711SOL    HW1 2132   2.908   2.878   1.271  0.1224 -2.1366  1.9461
  711SOL    HW2 2133   2.746   2.927   1.295  1.8028 -0.3486 -0.6863
  712SOL     OW 2134   0.298   3.059   2.552 -0.3653 -0.4228  0.9099
  712SOL    HW1 2135   0.305   3.053   2.655 -1.5881  0.7589  0.0384
  712SOL    HW2 2136   0.325   2.968   2.510 -0.9510 -3.1109 -2.9060
  713SOL     OW 2137   2.195   0.151   0.469 -0.4990  0.3960  0.4243
  713SOL    HW1 2138   2.212   0.246   0.491 -0.1666 -2.7111  1.4079
  713SOL    HW2 2139   2.258   0.089   0.525 -0.4110  0.2503  0.2215
  714SOL     OW 2140   1.761   1.826   0.186  0.3261 -0.6185  0.3006
  714SOL    HW1 2141   1.661   1.843   0.188  0.6911  1.5490 -1.0413
  714SOL    HW2 2142   1.791   1.746   0.246  0.5677 -3.9813 -1.0028
  715SOL     OW 2143   3.111   0.304   0.576 -0.0979 -0.3648  0.2735
  715SOL    HW1 2144   3.117   0.205   0.561 -0.7854  0.0648  0.3712
  715SOL    HW2 2145   3.092   0.325   0.677  0.6931  0.6770  0.9592
  716SOL     OW 2146   0.943   0.687   1.735  0.4880  0.0227 -0.1328
  716SOL    HW1 2147   0.971   0.594   1.772 -0.0099 -1.9117  1.5903
  716SOL    HW2 2148   0.877   0.733   1.799  0.5617 -0.2729 -0.1271
  717SOL     OW 2149   0.526   0.416   3.045  0.0647 -0.1523 -0.4441
  717SOL    HW1 2150   0.457   0.457   2.980  1.3353  2.7387  1.8322
  717SOL    HW2 2151   0.611   0.473   3.040 -0.8318 -1.2877 -1.5901
  718SOL     OW 2152   1.206   0.450   0.216 -0.6741 -0.4022  0.4825
  718SOL    HW1 2153   1.293   0.505   0.205 -1.7156 -1.9256  1.1883
  718SOL    HW2 2154   1.229   0.352   0.200 -3.5097  0.0227 -2.9342
  719SOL     OW 2155   2.529   2.300   2.823 -0.0567  0.1564 -0.3322
  719SOL    HW1 2156   2.524   2.297   2.923  0.3956  2.0482 -0.5106
  719SOL    HW2 2157   2.491   2.389   2.792  0.4730 -2.7278 -0.1748
  720SOL     OW 2158   1.213   0.539   1.398  0.0315 -0.0560  0.0587
  720SOL    HW1 2159   1.129   0.594   1.376 -3.0184  0.1954 -0.6562
  720SOL    HW2 2160   1.180   0.452   1.439  1.0916 -0.4086 -2.2998
  721SOL     OW 2161   2.890   0.004   1.058 -0.2305  0.7030 -0.9720
  721SOL    HW1 2162   2.876   0.098   1.086 -1.6250 -2.8217 -1.4322
  721SOL    HW2 2163   2.868   3.053   1.131 -2.0323  0.3863 -1.8041
  722SOL     OW 2164   1.093   1.467   2.582 -0.2287 -0.2343  0.1965
  722SOL    HW1 2165   1.012   1.530   2.603  1.5309 -0.3770 -1.8707
  722SOL    HW2 2166   1.149   1.471   2.662  2.0134  0.6918 -2.4136
  723SOL     OW 2167   2.430   0.422   1.124  0.3649  0.1753  0.4208
  723SOL    HW1 2168   2.394   0.365   1.049  0.1151 -0.5001 -0.4826
  723SOL    HW2 2169   2.435   0.519   1.094  0.0302 -0.3558 -0.1127
  724SOL     OW 2170   0.822   2.285   0.130 -0.5863 -0.0582 -0.2237
  724SOL    HW1 2171   0.867   2.194   0.146  2.4250 -0.9207 -2.9642
  724SOL    HW2 2172   0.897   2.358   0.131  1.8557  3.4964  3.3992
  725SOL     OW 2173   0.337   1.274   1.427  0.3901 -0.3269 -0.0841
  725SOL    HW1 2174   0.293   1.186   1.394  1.6339 -3.4533 -0.9583
  725SOL    HW2 2175   0.411   1.258   1.490 -1.5650  0.7627 -3.3058
  726SOL     OW 2176   2.390   0.744   0.160  0.4326  0.1409 -0.1487
  726SOL    HW1 2177   2.315   0.811   0.185  0.7899 -0.7260 -0.7438
  726SOL    HW2 2178   2.479   0.785   0.128  1.0365  1.7605  0.4195
  727SOL     OW 2179   2.048   1.272   2.718  0.2688 -0.4623 -0.2664
  727SOL    HW1 2180   2.132   1.320   2.675  2.6948  0.5956 -1.2986
  727SOL    HW2 2181   2.028   1.182   2.675 -2.9242 -0.3255  0.4249
  728SOL     OW 2182   1.837   2.731   1.611 -0.1048  0.3996  0.5203
  728SOL    HW1 2183   1.838   2.671   1.693  2.6391  1.1310 -3.4916
  728SOL    HW2 2184   1.751   2.734   1.563 -2.2011  1.3029  1.8690
  729SOL     OW 2185   2.322   0.662   2.113 -0.1663 -0.3999 -0.4394
  729SOL    HW1 2186   2.362   0.695   2.201  0.4329 -3.5147  1.8432
  729SOL    HW2 2187   2.288   0.743   2.059  3.0595  0.9521 -1.5463
  730SOL     OW 2188   1.240   0.892   1.199  0.2004  0.2565 -0.2714
  730SOL    HW1 2189   1.178   0.809   1.198 -2.8564 -1.3890 -0.2461
  730SOL    HW2 2190   1.210   0.958   1.267 -0.0682 -0.3874  0.0638
  731SOL     OW 2191   0.536   0.725   0.120  0.2838  0.2517 -0.4578
  731SOL    HW1 2192   0.632   0.696   0.131  1.4722  0.3675 -0.6915
  731SOL    HW2 2193   0.520   0.770   0.032 -1.0022  1.2368 -0.8206
  732SOL     OW 2194   0.315   0.617   0.230 -0.5134 -0.0747  0.7977
  732SOL    HW1 2195   0.247   0.566   0.173 -0.6561  1.6631 -1.4024
  732SOL    HW2 2196   0.391   0.653   0.167  0.3243 -0.0855 -0.8651
  733SOL     OW 2197   1.880   1.518   2.582  0.2573  0.3886 -0.4088
  733SOL    HW1 2198   1.786   1.544   2.559  0.9058  1.7319  1.4601
  733SOL    HW2 2199   1.887   1.497   2.684 -0.5791 -1.7678 -0.9907
  734SOL     OW 2200   0.255   1.996   2.801  0.7291  0.8529  0.3484
  734SOL    HW1 2201   0.253   1.954   2.894  2.5439  0.2037  0.4111
  734SOL    HW2 2202   0.209   2.086   2.803  0.9931 -0.8392 -1.2605
  735SOL     OW 2203   2.051   0.635   1.085 -0.5949  0.2311 -0.0011
  735SOL    HW1 2204   2.069   0.596   0.994 -1.1805  1.4669  0.8958
  735SOL    HW2 2205   2.124   0.696   1.116  0.5141  4.0275  1.8780
  736SOL     OW 2206   1.778   1.822   3.017 -0.5274 -0.0322 -0.5292
  736SOL    HW1 2207   1.763   1.805   3.118 -0.6576 -0.3205  2.3902
  736SOL    HW2 2208   1.755   1.917   2.991 -2.2030 -2.8605 -0.0731
  737SOL     OW 2209   3.018   0.509   0.412 -0.0988 -0.0970 -0.0050
  737SOL    HW1 2210   2.948   0.549   0.474 -0.5749  0.0330 -1.0229
  737SOL    HW2 2211   3.065   0.434   0.459 -2.2419  1.2248 -2.0703
  738SOL     OW 2212   0.501   2.219   1.758  0.0340 -0.0501  0.2417
  738SOL    HW1 2213   0.590   2.229   1.807 -0.1114  1.5262 -0.0918
  738SOL    HW2 2214   0.477   2.309   1.723  0.8466 -3.6332 -2.0693
  739SOL     OW 2215   1.232   2.833   2.200  0.2924 -0.1275 -0.1457
  739SOL    HW1 2216   1.154   2.798   2.149  5.0319  0.6162  1.1698
  739SOL    HW2 2217   1.208   2.890   2.283  0.3492 -0.1258  2.5793
  740SOL     OW 2218   2.252   2.303   1.356  0.0322 -0.0502 -0.0355
  740SOL    HW1 2219   2.204   2.217   1.318  0.6775  1.1760 -1.9590
  740SOL    HW2 2220   2.187   2.379   1.355  0.6819 -4.2180 -1.4493
  741SOL     OW 2221   2.020   0.506   0.315 -0.4999 -0.8327  0.2592
  741SOL    HW1 2222   2.031   0.456   0.227  1.5115  0.4973  0.4724
  741SOL    HW2 2223   1.998   0.604   0.290 -0.3529  0.7316 -0.6166
  742SOL     OW 2224   1.081   2.559   2.992  0.1096 -0.0338  0.4028
  742SOL    HW1 2225   1.066   2.491   2.920  0.1584 -1.8603  1.0237
  742SOL    HW2 2226   1.177   2.553   3.032 -2.0806  1.0352  2.3370
  743SOL     OW 2227   2.409   1.110   1.903  0.1668 -0.2646 -0.8137
  743SOL    HW1 2228   2.439   1.188   1.965  2.0043  1.1559 -0.6835
  743SOL    HW2 2229   2.348   1.049   1.954  4.2581  1.5845  0.0462
  744SOL     OW 2230   2.579   0.428   0.546  0.1020 -0.1129 -0.1224
  744SOL    HW1 2231   2.527   0.459   0.465  2.5886  0.2276  0.8923
  744SOL    HW2 2232   2.649   0.496   0.567  1.2203 -2.3279 -2.0173
  745SOL     OW 2233   2.652   1.156   1.716  0.7893  0.5703 -0.4313
  745SOL    HW1 2234   2.577   1.131   1.784 -1.4027  0.7108  1.7929
  745SOL    HW2 2235   2.689   1.246   1.746  0.7486 -3.9446 -0.4967
  746SOL     OW 2236   1.149   1.366   0.909 -0.2140 -0.1915  0.5712
  746SOL    HW1 2237   1.203   1.452   0.891  1.3941  1.5586  0.6993
  746SOL    HW2 2238   1.119   1.317   0.821 -0.0554 -4.0196 -0.1721
  747SOL     OW 2239   1.104   1.757   1.696  0.5837 -0.0690  0.0928
  747SOL    HW1 2240   1.143   1.851   1.702  0.4115  1.8552  3.1401
  747SOL    HW2 2241   1.129   1.708   1.779  0.5132 -0.2093  1.0627
  748SOL     OW 2242   0.363   2.747   2.919  0.5272 -0.0090  0.0025
  748SOL    HW1 2243   0.468   2.742   2.911  3.4016 -1.7262 -3.0061
  748SOL    HW2 2244   0.350   2.797   3.010 -0.3320 -1.2826 -0.0869
  749SOL     OW 2245   0.463   1.218   2.446  0.5806  0.2380  0.4830
  749SOL    HW1 2246   0.376   1.176   2.400 -3.2120 -0.1649 -4.7322
  749SOL    HW2 2247   0.469   1.315   2.417 -0.5702 -0.4036  1.0576
  750SOL     OW 2248   1.918   1.126   1.960 -0.5638 -0.0012 -0.0347
  750SOL    HW1 2249   1.927   1.086   1.870  1.2734 -0.6332  2.4617
  750SOL    HW2 2250   1.973   1.217   1.960 -0.9001 -0.3901 -1.6281
  751SOL     OW 2251   2.432   0.525   0.343 -0.1742 -0.4071  0.3948
  751SOL    HW1 2252   2.356   0.476   0.379  0.0836  1.5991 -2.1672
  751SOL    HW2 2253   2.400   0.608   0.296  0.0187  1.1076  0.4216
  752SOL     OW 2254   0.350   2.457   0.960  0.3329  0.7825 -0.5039
  752SOL    HW1 2255   0.355   2.535   1.027  0.1649  1.1012  4.3309
  752SOL    HW2 2256   0.445   2.415   0.950 -0.7631  1.2544  0.4329
  753SOL     OW 2257   0.766   2.359   1.142 -0.1138 -0.2923  0.0284
  753SOL    HW1 2258   0.837   2.430   1.165  2.1386  1.0176  0.4203
  753SOL    HW2 2259   0.811   2.266   1.135  0.2074  0.2257  2.9193
  754SOL     OW 2260   0.253   2.826   2.029  0.0268 -0.0182 -0.3715
  754SOL    HW1 2261   0.162   2.832   1.984  2.0311 -4.1354 -0.3217
  754SOL    HW2 2262   0.246   2.801   2.131  1.0352 -2.5331  3.0592
  755SOL     OW 2263   2.197   0.418   0.492  0.2590  0.1613 -0.1972
  755SOL    HW1 2264   2.143   0.446   0.407 -1.2679 -1.2405 -1.8367
  755SOL    HW2 2265   2.197   0.491   0.560  1.9870 -2.5775 -2.0080
  756SOL     OW 2266   2.228   2.303   2.785 -0.4209  0.2971  0.7269
  756SOL    HW1 2267   2.258   2.337   2.876 -2.4020 -2.0699 -0.1436
  756SOL    HW2 2268   2.295   2.328   2.712 -2.4943 -0.9841 -1.0580
  757SOL     OW 2269   2.095   0.542   0.842  0.6235 -0.1551 -0.3278
  757SOL    HW1 2270   2.142   0.582   0.763 -1.5102 -2.9653 -2.0822
  757SOL    HW2 2271   1.996   0.518   0.828  0.0128 -0.6361 -0.1287
  758SOL     OW 2272   2.069   0.619   1.599 -0.0736  0.5094  0.1382
  758SOL    HW1 2273   2.124   0.701   1.564  2.1980  1.2084  0.2046
  758SOL    HW2 2274   2.030   0.641   1.690 -1.0901  1.5437 -2.3403
  759SOL     OW 2275   2.783   0.678   0.901 -0.3833  0.2934 -0.2285
  759SOL    HW1 2276   2.871   0.676   0.952 -1.9981 -0.8902  0.8190
  759SOL    HW2 2277   2.773   0.761   0.849 -0.4953  0.4127  1.0965
  760SOL     OW 2278   2.477   1.288   1.296 -0.2744 -0.2387 -0.4343
  760SOL    HW1 2279   2.419   1.352   1.356 -0.2770  1.6496  0.4674
  760SOL    HW2 2280   2.540   1.233   1.353  0.6632 -1.1005 -1.2271
  761SOL     OW 2281   0.568   0.768   0.402 -0.0976 -0.3203  0.4215
  761SOL    HW1 2282   0.524   0.747   0.317  1.7772 -0.3509  2.3116
  761SOL    HW2 2283   0.504   0.826   0.455  2.4172  0.0599 -0.1729
  762SOL     OW 2284   0.823   1.658   0.610 -0.6480  0.0790  0.1292
  762SOL    HW1 2285   0.914   1.710   0.600  1.4855 -0.4155  2.9921
  762SOL    HW2 2286   0.765   1.707   0.678  1.5478  2.8595  1.1584
  763SOL     OW 2287   1.320   1.040   1.655  0.5612  0.7147 -0.1122
  763SOL    HW1 2288   1.274   1.122   1.684 -0.9623 -0.4656 -2.3094
  763SOL    HW2 2289   1.284   0.964   1.708  3.6328  0.7568 -1.9906
  764SOL     OW 2290   0.499   1.873   2.653 -0.2898 -0.1173 -0.0869
  764SOL    HW1 2291   0.505   1.774   2.637 -1.3510  1.3315  0.6649
  764SOL    HW2 2292   0.409   1.911   2.687 -2.5967 -3.1037  1.7974
  765SOL     OW 2293   0.771   2.713   1.760 -0.2108  0.1239  0.6085
  765SOL    HW1 2294   0.813   2.636   1.709  0.4873  1.8765 -1.1288
  765SOL    HW2 2295   0.740   2.777   1.688  1.8267 -0.2795  0.1056
  766SOL     OW 2296   2.607   2.193   2.261  0.0053  0.0533  0.3683
  766SOL    HW1 2297   2.684   2.162   2.321  1.9113  0.8461  1.8650
  766SOL    HW2 2298   2.524   2.165   2.303  2.2780  1.4662 -1.7799
  767SOL     OW 2299   1.711   1.189   2.388 -0.5434  0.0719  0.1491
  767SOL    HW1 2300   1.747   1.099   2.412 -0.4596 -0.9653 -0.9917
  767SOL    HW2 2301   1.654   1.234   2.460  0.9676  3.0241 -0.0923
  768SOL     OW 2302   1.499   1.899   0.181  0.0902  0.0079  0.4568
  768SOL    HW1 2303   1.400   1.877   0.190  1.2987 -1.0093 -0.5494
  768SOL    HW2 2304   1.514   1.952   0.098 -0.4987  0.4089  0.5549
  769SOL     OW 2305   0.582   1.285   1.593  0.6480  0.2804 -0.2834
  769SOL    HW1 2306   0.640   1.366   1.570  0.8420  0.8225 -0.2798
  769SOL    HW2 2307   0.633   1.199   1.593  0.3628 -1.1233 -0.4230
  770SOL     OW 2308   1.448   1.024   2.826 -0.0548 -0.3650 -0.0596
  770SOL    HW1 2309   1.453   1.044   2.927  0.0501 -0.2865  0.4586
  770SOL    HW2 2310   1.523   0.962   2.797  0.1099 -1.6000 -0.3820
  771SOL     OW 2311   0.040   3.070   2.479 -0.1518 -0.0375  0.2969
  771SOL    HW1 2312   0.034   2.979   2.434 -2.2752  0.1761 -2.5483
  771SOL    HW2 2313   0.132   3.096   2.511  0.6049 -0.2659 -2.4109
  772SOL     OW 2314   1.934   1.908   1.960 -0.3015 -0.1995  0.7015
  772SOL    HW1 2315   1.946   2.005   1.986  1.1712  1.2244 -0.9797
  772SOL    HW2 2316   1.877   1.896   1.874  1.3522  0.6214  0.0677
  773SOL     OW 2317   0.451   1.431   1.814 -0.6571  0.2944  0.3349
  773SOL    HW1 2318   0.538   1.484   1.814 -0.9781 -0.1733  1.6987
  773SOL    HW2 2319   0.445   1.374   1.730  1.2548  1.7192  2.0970
  774SOL     OW 2320   1.296   0.710   2.858  0.0130  0.4457  0.3878
  774SOL    HW1 2321   1.267   0.806   2.880  1.1523 -1.2266  0.0586
  774SOL    HW2 2322   1.240   0.641   2.910  0.1922 -1.9971 -1.2038
  775SOL     OW 2323   1.943   2.890   0.130 -0.0473 -0.1939  0.0529
  775SOL    HW1 2324   1.989   2.960   0.191 -1.0154 -2.3686 -1.1233
  775SOL    HW2 2325   2.007   2.806   0.129  3.0000 -2.2888  0.9114
  776SOL     OW 2326   0.228   0.565   1.748  0.5372  0.2970 -0.5744
  776SOL    HW1 2327   0.232   0.469   1.781 -1.1897 -2.0787 -0.0461
  776SOL    HW2 2328   0.279   0.629   1.807 -1.9171 -0.9381 -2.0807
  777SOL     OW 2329   2.368   1.962   1.980  0.2841  0.4046 -0.6888
  777SOL    HW1 2330   2.401   1.934   2.068 -0.6544  0.9720 -2.5605
  777SOL    HW2 2331   2.336   2.062   1.977  0.2378  1.5159 -1.6438
  778SOL     OW 2332   2.064   0.982   2.148  0.1851  0.0597  0.1977
  778SOL    HW1 2333   2.022   1.029   2.070  0.2974  0.2173  0.3303
  778SOL    HW2 2334   2.122   1.051   2.195 -2.7840  0.2312  0.3761
  779SOL     OW 2335   2.895   1.149   0.140 -0.0204  0.4692 -0.5478
  779SOL    HW1 2336   2.853   1.183   0.223 -0.0362 -1.2131  0.9635
  779SOL    HW2 2337   2.822   1.148   0.067 -1.1253 -0.2497 -1.9588
  780SOL     OW 2338   2.552   0.343   2.607 -0.2253 -0.1638 -0.2759
  780SOL    HW1 2339   2.593   0.412   2.666 -4.5019 -0.8428 -0.3366
  780SOL    HW2 2340   2.608   0.260   2.591  0.9352  3.7138 -2.2124
  781SOL     OW 2341   0.145   1.950   1.719 -0.3251 -0.2749 -0.0166
  781SOL    HW1 2342   0.227   1.969   1.659  1.7594  0.0999  1.1739
  781SOL    HW2 2343   0.116   1.858   1.697  0.1134  2.3197 -2.9873
  782SOL     OW 2344   2.487   2.207   3.085  0.0092 -0.4056  0.4238
  782SOL    HW1 2345   2.396   2.180   0.004  1.1807 -2.2292  1.4230
  782SOL    HW2 2346   2.528   2.121   3.045 -0.0065  0.4020 -0.9235
  783SOL     OW 2347   0.790   1.401   1.484 -0.1880 -0.2512 -0.3029
  783SOL    HW1 2348   0.877   1.437   1.524  2.6319  1.3410 -0.9543
  783SOL    HW2 2349   0.804   1.369   1.387 -0.2641 -0.3719 -0.1679
  784SOL     OW 2350   2.117   0.855   2.815 -0.0441 -0.0777  0.3136
  784SOL    HW1 2351   2.171   0.888   2.895  0.5490  1.8103 -0.0715
  784SOL    HW2 2352   2.045   0.796   2.848 -2.0282 -0.6005 -1.2900
  785SOL     OW 2353   2.407   2.564   0.685 -0.0087 -0.1943 -0.3091
  785SOL    HW1 2354   2.476   2.633   0.709  0.8768 -1.5287 -1.7492
  785SOL    HW2 2355   2.312   2.599   0.698 -0.4835 -0.5990  1.5396
  786SOL     OW 2356   0.601   2.174   2.398 -0.0282  0.0030 -0.1530
  786SOL    HW1 2357   0.552   2.122   2.325  3.4229 -0.5652  2.5260
  786SOL    HW2 2358   0.558   2.264   2.411  0.7158 -0.1917 -2.5524
  787SOL     OW 2359   1.379   0.518   1.178  0.1936 -0.5175 -0.4895
  787SOL    HW1 2360   1.308   0.542   1.250 -1.5870  0.2625  0.4666
  787SOL    HW2 2361   1.475   0.531   1.213  2.6000  2.7493  1.3230
  788SOL     OW 2362   0.174   0.794   0.391 -0.0979  0.2911 -0.2220
  788SOL    HW1 2363   0.226   0.722   0.342  0.6977 -0.4112 -0.1456
  788SOL    HW2 2364   0.085   0.817   0.342  1.8637  0.6208 -0.3512
  789SOL     OW 2365   2.954   2.014   1.390 -0.5453  0.2859  0.2113
  789SOL    HW1 2366   2.985   2.065   1.473 -0.8112 -1.3498  1.2408
  789SOL    HW2 2367   2.909   2.073   1.319  0.8775 -0.5901 -2.1074
  790SOL     OW 2368   1.579   0.908   1.848 -0.2797  0.4768 -0.2187
  790SOL    HW1 2369   1.598   0.810   1.880 -1.8392 -2.2857 -1.9964
  790SOL    HW2 2370   1.528   0.959   1.921  1.3524  0.2970  1.3632
  791SOL     OW 2371   1.573   0.411   0.755 -0.1833  0.2627  0.7253
  791SOL    HW1 2372   1.542   0.326   0.706  0.5643  2.1655 -0.7189
  791SOL    HW2 2373   1.534   0.395   0.849  1.1843 -0.1781  2.1669
  792SOL     OW 2374   1.615   2.924   1.886  0.2225 -0.3082  0.6692
  792SOL    HW1 2375   1.567   2.973   1.957 -1.7079 -1.3736 -0.7360
  792SOL    HW2 2376   1.555   2.927   1.805  0.4543 -0.8124  2.3586
  793SOL     OW 2377   0.578   3.071   0.792 -0.0353  0.1667  0.0318
  793SOL    HW1 2378   0.664   3.096   0.736 -0.3303  0.9599 -4.4266
  793SOL    HW2 2379   0.521   0.036   0.808 -2.5819  1.1346 -0.6902
  794SOL     OW 2380   0.594   0.943   2.489 -0.3888  0.2650 -0.0335
  794SOL    HW1 2381   0.652   1.025   2.472 -1.6037 -1.6628 -1.7378
  794SOL    HW2 2382   0.546   0.925   2.403 -1.8108 -2.1891 -1.7078
  795SOL     OW 2383   0.245   1.908   2.334  0.3488 -0.0794 -0.3118
  795SOL    HW1 2384   0.155   1.932   2.288  0.7365 -0.4731 -0.1216
  795SOL    HW2 2385   0.232   1.911   2.434  0.0488 -0.1980  1.1325
  796SOL     OW 2386   2.536   1.301   2.041  0.1442  0.1426 -0.7972
  796SOL    HW1 2387   2.637   1.318   2.044 -0.8755  1.3650 -1.3867
  796SOL    HW2 2388   2.483   1.389   2.038  2.4344 -1.5644 -0.1910
  797SOL     OW 2389   3.033   2.823   2.817  0.4332  0.4209 -0.3195
  797SOL    HW1 2390   3.099   2.742   2.814  1.1025 -1.1952  1.2737
  797SOL    HW2 2391   2.939   2.788   2.807 -0.9770 -0.4461 -0.8156
  798SOL     OW 2392   3.099   2.204   2.188 -0.3536 -0.3604 -1.1505
  798SOL    HW1 2393   3.015   2.251   2.149  1.1963 -0.7081  0.6310
  798SOL    HW2 2394   0.069   2.236   2.143  2.6259  0.8870  0.5223
  799SOL     OW 2395   2.968   2.215   2.954 -0.0278 -0.0016 -0.0123
  799SOL    HW1 2396   2.945   2.168   3.046  0.9096  2.2799  1.5305
  799SOL    HW2 2397   2.919   2.184   2.869 -1.2824  2.7580 -2.0964
  800SOL     OW 2398   1.384   1.642   0.374 -0.8446 -0.3374 -0.2054
  800SOL    HW1 2399   1.289   1.677   0.349 -1.0229  2.7102 -0.3173
  800SOL    HW2 2400   1.425   1.729   0.411 -1.2736  2.0088 -0.3329
  801SOL     OW 2401   2.081   0.974   1.101 -0.7377  0.0688  0.1522
  801SOL    HW1 2402   2.099   1.071   1.125 -0.8602 -0.6083  0.8205
  801SOL    HW2 2403   2.058   0.922   1.188 -0.9234 -0.3462  0.1264
  802SOL     OW 2404   3.045   1.420   0.287 -0.4402  0.3137  0.3074
  802SOL    HW1 2405   2.982   1.376   0.353 -1.1176  0.1350 -3.4562
  802SOL    HW2 2406   0.004   1.359   0.250 -2.4276 -1.0846  1.3678
  803SOL     OW 2407   1.410   1.704   2.693  0.0788 -0.1227  0.0510
  803SOL    HW1 2408   1.374   1.803   2.688 -1.7838 -0.3235 -1.4528
  803SOL    HW2 2409   1.340   1.645   2.737 -3.2283  0.3480 -0.2801
  804SOL     OW 2410   1.815   1.601   0.350  0.3775 -0.0613 -0.3322
  804SOL    HW1 2411   1.744   1.562   0.415 -1.2740  1.9529  2.0282
  804SOL    HW2 2412   1.904   1.564   0.358 -0.9226  1.6937  0.3242
  805SOL     OW 2413   2.352   1.766   2.500  0.1132  0.4728 -0.5513
  805SOL    HW1 2414   2.436   1.715   2.531  3.7189 -1.6230 -0.5266
  805SOL    HW2 2415   2.359   1.860   2.534 -2.8736 -0.6728 -3.7423
  806SOL     OW 2416   0.611   3.034   0.389 -0.1776  0.1930 -0.0114
  806SOL    HW1 2417   0.609   0.007   0.347 -2.5099  0.2864  1.2661
  806SOL    HW2 2418   0.635   3.035   0.487 -2.6388  0.5187 -1.6363
  807SOL     OW 2419   2.123   1.473   2.912 -0.4446  0.3899  0.4217
  807SOL    HW1 2420   2.058   1.549   2.891 -0.6779 -1.8603  1.8758
  807SOL    HW2 2421   2.112   1.392   2.848 -0.5689  1.6354  0.0256
  808SOL     OW 2422   0.134   1.671   0.430 -0.0162 -0.2764  0.4941
  808SOL    HW1 2423   0.151   1.595   0.497  2.7264 -0.1344 -1.4056
  808SOL    HW2 2424   0.037   1.680   0.409 -0.0158 -0.3775  0.8760
  809SOL     OW 2425   2.417   1.166   0.027  0.0027  0.3553  0.1702
  809SOL    HW1 2426   2.351   1.099   3.105 -0.9988 -0.7421  0.0838
  809SOL    HW2 2427   2.403   1.259   3.116 -0.3285 -3.1559  0.3541
  810SOL     OW 2428   0.665   1.116   0.111 -0.8339  0.3261  0.3519
  810SOL    HW1 2429   0.687   1.199   0.052  1.6913  1.8866 -0.7401
  810SOL    HW2 2430   0.570   1.089   0.090 -1.1875 -1.2087  0.1465
  811SOL     OW 2431   1.328   2.592   1.625 -0.4424 -0.0253  0.7101
  811SOL    HW1 2432   1.343   2.616   1.524 -1.5369 -0.6386  1.2918
  811SOL    HW2 2433   1.415   2.545   1.662  1.0990 -1.5996  0.9172
  812SOL     OW 2434   0.864   2.516   1.603 -0.2318  0.2854  0.0646
  812SOL    HW1 2435   0.948   2.496   1.548  1.0809 -1.1046  0.0313
  812SOL    HW2 2436   0.778   2.488   1.549 -2.2751  1.5364 -0.9703
  813SOL     OW 2437   1.476   0.505   2.071  0.2979  0.2336  0.6366
  813SOL    HW1 2438   1.547   0.441   2.098 -0.0400  2.0965 -1.4712
  813SOL    HW2 2439   1.396   0.500   2.134 -1.8435  0.7177 -0.3187
  814SOL     OW 2440   1.464   2.579   2.839  0.5339 -0.2326 -0.4248
  814SOL    HW1 2441   1.385   2.634   2.875 -3.0193  2.0400 -0.1879
  814SOL    HW2 2442   1.439   2.547   2.748  1.7811  1.4184 -0.6416
  815SOL     OW 2443   0.527   0.193   1.905  0.4378 -0.0971 -0.0079
  815SOL    HW1 2444   0.485   0.188   1.998  0.4530 -1.4554 -1.7545
  815SOL    HW2 2445   0.537   0.102   1.868 -0.5252 -2.0064  2.2299
  816SOL     OW 2446   2.045   0.565   3.018 -0.2497  0.4317  0.3174
  816SOL    HW1 2447   2.139   0.552   3.059  0.6383  0.8293 -0.4220
  816SOL    HW2 2448   1.992   0.634   3.065 -0.9022 -0.1155 -1.6278
  817SOL     OW 2449   2.253   0.443   2.263  0.1176  0.5718 -0.5491
  817SOL    HW1 2450   2.250   0.485   2.172  0.5977 -0.2826  0.3841
  817SOL    HW2 2451   2.196   0.362   2.271  2.4411  0.6930 -0.0853
  818SOL     OW 2452   1.966   0.372   0.095 -0.2056 -0.3649  0.3424
  818SOL    HW1 2453   2.036   0.297   0.076  1.4100  0.8134  0.4890
  818SOL    HW2 2454   1.959   0.433   0.017 -3.1775 -1.1015 -2.5605
  819SOL     OW 2455   2.210   1.789   2.926 -0.1667  0.2097  0.1878
  819SOL    HW1 2456   2.145   1.807   2.854  0.7517 -2.6590  0.6331
  819SOL    HW2 2457   2.166   1.819   3.012 -1.3856  0.7135 -0.8082
  820SOL     OW 2458   3.106   2.020   0.038  0.4476 -0.5689  0.2032
  820SOL    HW1 2459   3.008   2.050   0.059 -3.0973 -3.0101 -0.1550
  820SOL    HW2 2460   0.057   2.095   0.061  1.6183  1.1800  1.1331
  821SOL     OW 2461   0.234   2.580   0.732  0.0313  0.1071 -0.1942
  821SOL    HW1 2462   0.295   2.557   0.807 -1.3607  1.2098 -1.3391
  821SOL    HW2 2463   0.256   2.536   0.645 -1.5691 -0.6375 -2.7217
  822SOL     OW 2464   2.883   2.670   3.037 -0.4098  0.0010  0.1070
  822SOL    HW1 2465   2.847   2.648   2.944  0.7836 -0.9541  0.1767
  822SOL    HW2 2466   2.972   2.622   3.041 -2.1410  3.2103  2.3356
  823SOL     OW 2467   1.366   0.384   2.495  0.2039  0.7206  0.3803
  823SOL    HW1 2468   1.432   0.326   2.542 -0.0070  0.3726  1.9058
  823SOL    HW2 2469   1.382   0.483   2.525  1.2887  1.4964 -1.3025
  824SOL     OW 2470   2.696   2.041   1.521 -0.0777 -0.5343 -0.1315
  824SOL    HW1 2471   2.744   2.029   1.613  0.8213 -0.2754 -0.5171
  824SOL    HW2 2472   2.705   2.131   1.484  1.7337 -1.6861  1.1462
  825SOL     OW 2473   2.588   2.082   2.650 -0.0088  0.3351  0.8296
  825SOL    HW1 2474   2.590   2.169   2.708 -0.4050 -1.5441  1.7099
  825SOL    HW2 2475   2.666   2.081   2.586  0.0948  1.1842 -2.5289
  826SOL     OW 2476   2.610   1.687   2.103  0.4030  0.0031  0.1450
  826SOL    HW1 2477   2.528   1.626   2.114 -4.1577  1.2870  1.5431
  826SOL    HW2 2478   2.584   1.782   2.133  0.1261  1.2809  0.2479
  827SOL     OW 2479   2.398   2.263   1.144 -0.3572  0.1201 -0.0550
  827SOL    HW1 2480   2.336   2.277   1.220 -2.4606  1.0553  0.7840
  827SOL    HW2 2481   2.427   2.166   1.144 -1.2254  1.1168 -1.8234
  828SOL     OW 2482   3.068   0.009   1.326  0.0098 -0.4142  0.4415
  828SOL    HW1 2483   2.977   3.092   1.296  1.2990 -0.1374 -1.2408
  828SOL    HW2 2484   3.056   0.038   1.423  2.0336  2.0991 -2.7035
  829SOL     OW 2485   1.557   2.292   2.548  0.0080 -0.0320 -0.0233
  829SOL    HW1 2486   1.567   2.190   2.563  2.2158  0.2268 -0.9017
  829SOL    HW2 2487   1.650   2.330   2.560  0.5442 -0.0351 -0.2402
  830SOL     OW 2488   1.191   0.536   0.796  0.3487  0.2691  0.3610
  830SOL    HW1 2489   1.194   0.639   0.804  0.8988  1.6261  0.6487
  830SOL    HW2 2490   1.262   0.495   0.857  1.0307  1.8796  2.4207
  831SOL     OW 2491   2.742   1.448   2.991 -0.1018 -0.2163  0.3098
  831SOL    HW1 2492   2.765   1.456   3.086 -1.6943 -0.8600  0.1278
  831SOL    HW2 2493   2.818   1.423   2.927  1.5434  1.8596  1.8472
  832SOL     OW 2494   1.464   2.016   1.934 -0.1997 -0.3890  0.2046
  832SOL    HW1 2495   1.442   2.040   2.032 -0.0027  0.6245  1.0931
  832SOL    HW2 2496   1.536   2.082   1.893  1.8468  3.2216 -1.6430
  833SOL     OW 2497   0.044   3.083   1.965 -0.0237 -0.8009 -0.1767
  833SOL    HW1 2498   0.013   2.987   1.960  0.0056  2.1306  0.0795
  833SOL    HW2 2499   0.034   3.111   2.060 -1.4664 -2.7987 -1.6264
  834SOL     OW 2500   1.033   1.277   1.719 -0.3300 -0.8463 -0.4172
  834SOL    HW1 2501   1.013   1.219   1.637 -1.7694 -1.9536  0.2167
  834SOL    HW2 2502   1.059   1.218   1.796 -1.3152  1.3849  0.2475
  835SOL     OW 2503   2.835   0.993   2.816  0.2409  0.0077  0.0838
  835SOL    HW1 2504   2.757   1.040   2.857 -0.1512  0.0425  0.4237
  835SOL    HW2 2505   2.804   0.930   2.746  1.3079  1.2299  0.2679
  836SOL     OW 2506   1.042   1.793   0.583 -0.7084  0.0912  0.4278
  836SOL    HW1 2507   1.126   1.821   0.632  0.1022 -1.2660  0.5803
  836SOL    HW2 2508   1.065   1.769   0.488 -3.0036 -1.7484 -1.5716
  837SOL     OW 2509   1.463   1.418   1.212  0.2501  0.1397 -0.1958
  837SOL    HW1 2510   1.509   1.456   1.298 -0.1647  0.3848  3.0358
  837SOL    HW2 2511   1.540   1.402   1.139  1.7403 -1.4988 -2.1540
  838SOL     OW 2512   1.180   1.818   2.376 -0.1108  0.3558 -0.0810
  838SOL    HW1 2513   1.194   1.720   2.356  1.0003 -0.7888 -0.2162
  838SOL    HW2 2514   1.094   1.836   2.430  0.5220 -1.2590 -0.1627
  839SOL     OW 2515   0.697   2.035   2.607 -0.0786  0.2732 -0.5002
  839SOL    HW1 2516   0.620   1.973   2.636  0.1251  3.5850 -1.0743
  839SOL    HW2 2517   0.669   2.080   2.519  0.8199 -0.3333  0.4173
  840SOL     OW 2518   0.595   2.319   0.281 -0.2331 -0.5588 -0.2803
  840SOL    HW1 2519   0.653   2.370   0.349  2.1641 -0.6152 -0.0478
  840SOL    HW2 2520   0.651   2.279   0.208  0.1904  1.1705 -2.0271
  841SOL     OW 2521   1.933   2.517   0.217  0.0703 -0.8493 -0.1329
  841SOL    HW1 2522   1.854   2.561   0.263 -0.0165 -1.3887  0.2418
  841SOL    HW2 2523   2.007   2.577   0.175  0.2631 -0.9330  1.4774
  842SOL     OW 2524   0.777   0.572   3.005 -0.1878  0.5632 -0.1748
  842SOL    HW1 2525   0.793   0.629   2.920 -1.3920  2.6646  1.8533
  842SOL    HW2 2526   0.790   0.633   3.088 -0.4079 -0.2912  0.6659
  843SOL     OW 2527   1.273   3.053   0.579 -0.4517 -0.0007 -0.2485
  843SOL    HW1 2528   1.281   0.032   0.556  2.2124  3.8232  0.6302
  843SOL    HW2 2529   1.182   3.042   0.619  2.3056  0.5301 -1.9957
  844SOL     OW 2530   2.440   3.085   2.493 -0.0578  0.4358  0.4016
  844SOL    HW1 2531   2.510   0.026   2.444  2.2714 -2.9233  2.3881
  844SOL    HW2 2532   2.434   2.991   2.460 -1.4420  2.6966 -1.2286
  845SOL     OW 2533   2.797   2.508   1.202 -0.3773 -0.1265 -0.2126
  845SOL    HW1 2534   2.890   2.536   1.171 -0.5864  0.1747  1.0540
  845SOL    HW2 2535   2.735   2.482   1.125 -0.4266 -0.9993 -0.0767
  846SOL     OW 2536   0.077   1.954   2.592  0.2198  0.2768  0.1822
  846SOL    HW1 2537   0.063   1.854   2.583 -2.4350  1.2596 -0.5822
  846SOL    HW2 2538   0.126   1.974   2.681 -0.7713 -0.0874  3.5097
  847SOL     OW 2539   1.500   0.833   1.594  0.1710 -0.2504 -0.2741
  847SOL    HW1 2540   1.435   0.909   1.582 -2.4286  1.6089 -1.9946
  847SOL    HW2 2541   1.534   0.837   1.689  0.5379 -0.6125 -0.0511
  848SOL     OW 2542   2.615   0.090   3.087  0.0271  0.1445 -0.2649
  848SOL    HW1 2543   2.602   0.110   0.066  0.6108 -1.0047  0.6495
  848SOL    HW2 2544   2.643   3.107   3.076 -1.1178 -5.0045 -1.8032
  849SOL     OW 2545   0.605   2.947   2.722 -0.8699  0.2201 -0.6526
  849SOL    HW1 2546   0.586   2.861   2.773  0.6501  2.1315 -1.6807
  849SOL    HW2 2547   0.700   2.950   2.686  0.8748 -0.6594 -0.2973
  850SOL     OW 2548   1.176   2.577   1.036 -0.6000 -0.0817 -0.0969
  850SOL    HW1 2549   1.242   2.501   1.020 -0.6687  1.3266 -1.1835
  850SOL    HW2 2550   1.229   2.661   1.060 -1.9445 -1.2664 -0.6231
  851SOL     OW 2551   2.902   0.452   2.205  0.4918 -0.3191  0.6314
  851SOL    HW1 2552   2.974   0.481   2.272  3.1743 -2.0569 -1.3155
  851SOL    HW2 2553   2.954   0.419   2.122  1.2398  0.5851  2.2275
  852SOL     OW 2554   2.188   1.188   2.288 -0.0723 -0.6883  0.0962
  852SOL    HW1 2555   2.107   1.226   2.328  0.8227  1.5928 -2.3709
  852SOL    HW2 2556   2.256   1.176   2.359 -0.5961  0.5552  1.5655
  853SOL     OW 2557   2.855   3.118   0.516  0.6504 -0.4235  0.1901
  853SOL    HW1 2558   2.805   0.089   0.501  0.0055  0.0184 -1.1137
  853SOL    HW2 2559   2.830   3.081   0.607  0.8072  1.6789 -1.0631
  854SOL     OW 2560   2.327   1.079   1.640  0.1730 -0.4900 -0.2788
  854SOL    HW1 2561   2.344   1.086   1.744 -0.1146  0.3557  0.7095
  854SOL    HW2 2562   2.232   1.112   1.615 -0.6296  1.5069  1.3488
  855SOL     OW 2563   1.449   2.274   0.552 -0.2587 -0.0652  0.4142
  855SOL    HW1 2564   1.486   2.365   0.565 -1.8574 -0.9656  0.6790
  855SOL    HW2 2565   1.493   2.221   0.471  1.3876 -2.7153  0.2923
  856SOL     OW 2566   2.971   0.262   2.852  0.3406 -0.1523  0.1642
  856SOL    HW1 2567   3.019   0.213   2.773  1.4276 -0.4585 -0.5907
  856SOL    HW2 2568   3.025   0.233   2.933  0.9277  0.6342 -0.6661
  857SOL     OW 2569   1.237   0.093   1.761 -0.1344 -0.2913 -0.2519
  857SOL    HW1 2570   1.314   0.155   1.743 -0.1654 -2.5819  0.9906
  857SOL    HW2 2571   1.205   0.104   1.861 -1.9368  1.4078  3.3665
  858SOL     OW 2572   2.260   2.181   1.624  0.9107  0.2582 -0.4568
  858SOL    HW1 2573   2.312   2.095   1.598  1.6235 -1.4312 -0.9054
  858SOL    HW2 2574   2.266   2.256   1.558 -3.1165 -0.3471 -1.1063
  859SOL     OW 2575   1.225   2.258   0.926 -0.1131 -0.4975 -0.1515
  859SOL    HW1 2576   1.303   2.202   0.893  1.1489 -0.9790  4.0226
  859SOL    HW2 2577   1.182   2.220   1.007  3.1042  0.4943  0.9650
  860SOL     OW 2578   2.576   2.474   3.109  0.2863 -0.2146  0.5556
  860SOL    HW1 2579   2.674   2.491   0.030  1.0491  0.9918  1.2105
  860SOL    HW2 2580   2.552   2.375   3.103 -1.3998 -3.0339 -0.9638
  861SOL     OW 2581   2.198   2.957   0.882  0.4175 -0.1316 -0.4176
  861SOL    HW1 2582   2.207   3.038   0.940  0.3159  0.2220 -0.1220
  861SOL    HW2 2583   2.270   2.894   0.920  1.5818  2.0775 -2.2003
  862SOL     OW 2584   2.024   2.710   2.285  0.1633  0.2413 -0.0580
  862SOL    HW1 2585   2.042   2.729   2.381 -1.2053 -0.9724 -2.1839
  862SOL    HW2 2586   2.013   2.793   2.227 -0.9946 -4.1879  1.4334
  863SOL     OW 2587   0.184   0.705   0.654  0.4320 -0.1144 -0.3264
  863SOL    HW1 2588   0.260   0.639   0.654  0.0170  1.1296  1.7396
  863SOL    HW2 2589   0.177   0.754   0.563  1.2618  0.7871 -5.3331
  864SOL     OW 2590   3.038   2.618   2.179 -0.1957 -0.3109 -0.2445
  864SOL    HW1 2591   3.116   2.566   2.213  3.7488 -0.0525  0.2958
  864SOL    HW2 2592   2.980   2.623   2.264 -0.4613 -0.8535  0.4035
  865SOL     OW 2593   0.378   1.491   2.773 -0.1240  0.0222  0.2507
  865SOL    HW1 2594   0.363   1.561   2.846  1.4722  0.9028 -2.5895
  865SOL    HW2 2595   0.435   1.414   2.811 -1.7266  1.3365 -1.0927
  866SOL     OW 2596   2.854   0.779   2.621 -0.2799 -0.2950  0.2060
  866SOL    HW1 2597   2.920   0.810   2.552  0.7086 -0.1258 -0.0341
  866SOL    HW2 2598   2.900   0.698   2.659  0.3192 -1.9332 -0.0248
  867SOL     OW 2599   0.220   3.002   2.823  0.3904 -0.4069 -0.1294
  867SOL    HW1 2600   0.261   2.922   2.868  0.1601  2.3013  0.7468
  867SOL    HW2 2601   0.131   3.029   2.859  2.1623 -3.0732  0.9117
  868SOL     OW 2602   1.632   2.826   1.045 -0.3002 -0.2787 -0.6946
  868SOL    HW1 2603   1.637   2.888   0.962 -0.4659 -0.2489  0.4595
  868SOL    HW2 2604   1.722   2.803   1.079 -0.4517  0.7146  2.1601
  869SOL     OW 2605   1.407   1.648   0.887 -0.4446 -0.0184 -0.7287
  869SOL    HW1 2606   1.488   1.601   0.850 -0.0981 -1.5160  0.6157
  869SOL    HW2 2607   1.403   1.643   0.993 -2.5263  0.8873  1.5030
  870SOL     OW 2608   2.046   2.049   1.231 -0.2981  0.3578  0.0021
  870SOL    HW1 2609   2.111   1.991   1.175 -1.3216 -0.0430  0.5879
  870SOL    HW2 2610   2.049   2.010   1.325  0.2626  0.6884 -0.6519
  871SOL     OW 2611   0.673   1.589   1.793 -0.2068  0.0541  0.2823
  871SOL    HW1 2612   0.694   1.668   1.729 -0.2164 -1.2137 -1.0422
  871SOL    HW2 2613   0.759   1.539   1.815  0.7920  0.4153  1.3965
  872SOL     OW 2614   1.238   1.363   1.348  0.0215  0.3078  0.1577
  872SOL    HW1 2615   1.321   1.391   1.296  1.4553  0.8282  0.1266
  872SOL    HW2 2616   1.230   1.414   1.435 -1.9015 -0.6741 -0.5678
  873SOL     OW 2617   1.242   1.039   2.667  0.0560 -0.3063 -0.0818
  873SOL    HW1 2618   1.231   1.110   2.596 -0.2163  1.2862  1.5061
  873SOL    HW2 2619   1.325   1.044   2.720  0.1854 -2.8332 -4.8196
  874SOL     OW 2620   0.221   1.519   1.452 -0.0901  0.2341 -0.1792
  874SOL    HW1 2621   0.252   1.598   1.397  3.8079  1.5631  0.0329
  874SOL    HW2 2622   0.280   1.440   1.439  1.4637  1.8547  1.4485
  875SOL     OW 2623   2.819   3.040   0.798 -0.5325  0.1502 -0.3526
  875SOL    HW1 2624   2.842   3.075   0.890 -1.9374  2.5018 -1.3201
  875SOL    HW2 2625   2.723   3.050   0.781  0.5984  1.0762 -1.9060
  876SOL     OW 2626   1.052   0.481   2.652 -0.9676  0.3432  0.4741
  876SOL    HW1 2627   1.067   0.490   2.556 -1.5249  1.3289 -0.1901
  876SOL    HW2 2628   0.959   0.520   2.669 -0.0128  0.0032 -0.6988
  877SOL     OW 2629   0.132   0.405   1.100  0.1630  0.4946  0.1196
  877SOL    HW1 2630   0.056   0.413   1.163  0.2820  1.1478 -1.0779
  877SOL    HW2 2631   0.138   0.482   1.034 -1.3994  1.0071  0.8032
  878SOL     OW 2632   1.663   2.825   0.049  0.1137  0.7822  0.4298
  878SOL    HW1 2633   1.742   2.845   0.107 -1.0072 -0.4411 -2.5222
  878SOL    HW2 2634   1.590   2.795   0.110  0.6723  0.3564  0.4720
  879SOL     OW 2635   2.104   1.689   1.673 -0.5465 -0.0937 -0.3563
  879SOL    HW1 2636   2.152   1.727   1.590  0.9103 -1.0805 -4.4550
  879SOL    HW2 2637   2.128   1.738   1.760 -1.3343 -1.7674 -0.1982
  880SOL     OW 2638   0.899   0.807   1.496  0.1906  0.3999  0.2504
  880SOL    HW1 2639   0.894   0.743   1.573 -1.3618  3.2242  0.4031
  880SOL    HW2 2640   0.914   0.905   1.527  2.0760  1.2669  0.0596
  881SOL     OW 2641   0.867   1.840   0.013  0.0738  0.4712  0.3350
  881SOL    HW1 2642   0.784   1.839   3.073 -0.8664  1.0423 -0.4491
  881SOL    HW2 2643   0.955   1.834   3.075  0.5404  0.1739  1.0232
  882SOL     OW 2644   1.898   0.822   1.239 -0.2600 -0.0229 -0.3369
  882SOL    HW1 2645   1.812   0.787   1.287  0.3454  1.6483 -0.5352
  882SOL    HW2 2646   1.933   0.757   1.163  0.5863  2.7919  1.4913
  883SOL     OW 2647   1.862   0.610   2.054  0.0424  0.5254  0.0901
  883SOL    HW1 2648   1.884   0.586   2.149 -0.8093 -1.7138 -0.4590
  883SOL    HW2 2649   1.867   0.527   1.992  0.3138 -1.8321  0.6083
  884SOL     OW 2650   2.408   0.286   0.120 -0.6700 -0.0787  0.1051
  884SOL    HW1 2651   2.347   0.367   0.104 -0.9775 -2.0453  0.4393
  884SOL    HW2 2652   2.501   0.319   0.120 -1.5971 -3.6175 -1.2818
  885SOL     OW 2653   0.458   1.881   0.611  0.0682 -0.3027  0.1501
  885SOL    HW1 2654   0.514   1.932   0.539  0.1303  1.9178 -3.7757
  885SOL    HW2 2655   0.472   1.923   0.702  0.9147  2.7807  0.0947
  886SOL     OW 2656   1.769   1.475   0.072 -0.6147 -0.1412  0.3702
  886SOL    HW1 2657   1.697   1.425   0.123 -2.1338 -0.4082 -0.3221
  886SOL    HW2 2658   1.798   1.562   0.118  2.2187  2.3631  1.7113
  887SOL     OW 2659   1.410   0.583   1.611 -0.4322  0.1033  0.4543
  887SOL    HW1 2660   1.342   0.560   1.538 -3.4448  3.1041 -0.0740
  887SOL    HW2 2661   1.444   0.678   1.597 -0.8107 -2.7986  0.5901
  888SOL     OW 2662   2.958   1.134   1.511 -0.3380 -0.1348  0.4397
  888SOL    HW1 2663   3.003   1.196   1.443 -2.0686 -1.0029  1.8613
  888SOL    HW2 2664   2.855   1.144   1.507  0.6713  0.2240  1.0953
  889SOL     OW 2665   3.051   2.588   1.100 -0.2456  0.1219 -0.4597
  889SOL    HW1 2666   3.068   2.611   1.002 -0.5545  0.8069 -2.1669
  889SOL    HW2 2667   3.116   2.516   1.131  1.5893  0.5211  0.8912
  890SOL     OW 2668   0.129   2.472   2.280 -0.1391  0.6529  0.0135
  890SOL    HW1 2669   0.119   2.406   2.365 -0.1594 -2.6279 -0.0034
  890SOL    HW2 2670   0.215   2.460   2.230 -1.2078  0.3200  0.4857
  891SOL     OW 2671   0.558   1.697   0.267  0.5508  0.2195 -0.1156
  891SOL    HW1 2672   0.581   1.798   0.274  2.5745  1.3216 -3.3626
  891SOL    HW2 2673   0.617   1.637   0.323 -0.8346  0.7405 -1.7781
  892SOL     OW 2674   0.064   2.329   1.506 -0.1087  0.2722 -0.6067
  892SOL    HW1 2675   0.014   2.265   1.567 -0.6954  2.6650 -0.8030
  892SOL    HW2 2676   0.036   2.424   1.523  2.9361 -0.2533  2.7847
  893SOL     OW 2677   0.063   3.070   1.686  0.1665  0.1025  0.1462
  893SOL    HW1 2678   0.066   3.064   1.788  1.8124 -0.7686  0.5162
  893SOL    HW2 2679   0.123   3.004   1.640 -0.9914  2.0322 -0.0217
  894SOL     OW 2680   2.542   1.753   0.892 -1.1051  0.1596  0.3900
  894SOL    HW1 2681   2.575   1.819   0.964 -1.0345  2.8171 -0.4399
  894SOL    HW2 2682   2.486   1.800   0.820  1.2945  1.3024  1.0818
  895SOL     OW 2683   2.296   2.764   1.557  0.5411 -0.2183  0.0875
  895SOL    HW1 2684   2.225   2.690   1.572  1.7669 -1.5055 -0.9469
  895SOL    HW2 2685   2.363   2.757   1.638  1.0886 -1.1029  0.2048
  896SOL     OW 2686   0.724   3.097   1.545  0.5288 -0.2021  0.2202
  896SOL    HW1 2687   0.684   0.014   1.629  0.8032 -1.7447 -1.0355
  896SOL    HW2 2688   0.706   2.997   1.533  0.7001  0.0305 -0.2043
  897SOL     OW 2689   0.799   1.311   1.208 -0.0823 -0.0970 -0.2060
  897SOL    HW1 2690   0.899   1.306   1.185 -0.4026  0.1585 -0.3419
  897SOL    HW2 2691   0.751   1.347   1.124 -0.1923  1.5491  1.6644
  898SOL     OW 2692   1.604   2.680   1.461  0.4143 -0.4652  0.3789
  898SOL    HW1 2693   1.651   2.593   1.434  2.5585  0.4991 -2.4531
  898SOL    HW2 2694   1.515   2.701   1.410  0.1796 -0.3696  1.6499
  899SOL     OW 2695   1.097   0.331   2.886 -0.2445  0.1117  0.3436
  899SOL    HW1 2696   1.187   0.290   2.881 -3.5986 -0.6064 -1.6069
  899SOL    HW2 2697   1.081   0.383   2.798 -0.3222 -3.1671  1.4118
  900SOL     OW 2698   1.065   2.697   2.023  0.3707  0.1000 -0.4355
  900SOL    HW1 2699   1.137   2.638   1.980 -0.5627  0.6691  2.0697
  900SOL    HW2 2700   1.027   2.763   1.951  0.7235  0.1482 -1.5608
  901SOL     OW 2701   0.890   2.029   0.212 -0.4630  0.1222 -0.0988
  901SOL    HW1 2702   0.935   2.032   0.305  1.0987 -0.9190 -2.0513
  901SOL    HW2 2703   0.904   1.939   0.168  0.1461 -0.8426 -0.3759
  902SOL     OW 2704   1.555   1.096   1.295 -0.4614 -0.0361  0.2022
  902SOL    HW1 2705   1.519   1.003   1.274 -0.5266 -0.6027 -1.2390
  902SOL    HW2 2706   1.489   1.168   1.264 -4.1105 -0.1638 -4.0258
  903SOL     OW 2707   2.686   1.172   3.096  0.0101  0.0491 -0.2459
  903SOL    HW1 2708   2.712   1.256   3.044 -0.0505 -0.8398 -0.5525
  903SOL    HW2 2709   2.583   1.154   3.096  0.8885  0.2236 -2.0237
  904SOL     OW 2710   0.997   1.415   0.085 -0.2801 -0.3571 -0.3520
  904SOL    HW1 2711   0.980   1.491   0.155 -0.2856 -0.4605  2.2767
  904SOL    HW2 2712   1.008   1.325   0.132 -0.2133  2.8849  1.9036
  905SOL     OW 2713   1.651   3.011   1.298 -0.0418 -0.6068  0.2583
  905SOL    HW1 2714   1.656   3.115   1.301  2.4799  2.4413  0.6750
  905SOL    HW2 2715   1.570   2.975   1.251  1.6803 -0.9152 -2.0524
  906SOL     OW 2716   2.450   2.870   0.940  0.0476 -0.0599  0.1568
  906SOL    HW1 2717   2.489   2.837   0.852  1.4871 -1.6541 -0.1523
  906SOL    HW2 2718   2.512   2.936   0.993  0.8745  2.5317  0.4875
  907SOL     OW 2719   1.469   0.679   0.690 -0.4949 -0.3100  0.0461
  907SOL    HW1 2720   1.483   0.585   0.730  1.8572  0.7717 -1.4737
  907SOL    HW2 2721   1.375   0.718   0.698  2.7147 -1.4925 -0.4353
  908SOL     OW 2722   1.662   0.183   1.273 -0.8718  0.4085 -1.2621
  908SOL    HW1 2723   1.700   0.241   1.205 -0.4693 -1.0599  2.5719
  908SOL    HW2 2724   1.666   0.232   1.364 -1.1172 -0.9679 -0.7572
  909SOL     OW 2725   1.851   0.478   1.197 -0.1046  0.3306  0.5395
  909SOL    HW1 2726   1.924   0.543   1.157 -1.8322  1.5165 -0.4836
  909SOL    HW2 2727   1.875   0.450   1.288  2.2309 -0.4227 -2.8069
  910SOL     OW 2728   2.558   0.625   1.947 -0.5777 -0.3411  0.5182
  910SOL    HW1 2729   2.605   0.710   1.988  0.7696  1.5568  0.7434
  910SOL    HW2 2730   2.458   0.629   1.976  1.3739  0.1409 -1.2679
  911SOL     OW 2731   2.672   0.566   2.753 -0.4426 -0.7417 -0.1259
  911SOL    HW1 2732   2.644   0.649   2.699  1.9164  0.4985  0.0776
  911SOL    HW2 2733   2.650   0.568   2.849  1.2794 -2.0062 -0.6036
  912SOL     OW 2734   0.616   1.091   1.885 -0.4000 -0.4635  0.8440
  912SOL    HW1 2735   0.713   1.117   1.918  0.9100  0.5738  0.4931
  912SOL    HW2 2736   0.615   1.083   1.781  0.0755  0.4688 -1.4563
  913SOL     OW 2737   2.771   2.308   1.657 -0.4403  0.3799  0.1073
  913SOL    HW1 2738   2.796   2.218   1.699 -1.3994  0.5948  0.4469
  913SOL    HW2 2739   2.840   2.379   1.688  0.2686 -0.7084  1.6988
  914SOL     OW 2740   1.837   0.894   1.710 -0.9609 -0.0647  0.4683
  914SOL    HW1 2741   1.892   0.980   1.688  0.6703  3.0614 -0.9761
  914SOL    HW2 2742   1.742   0.914   1.740  0.4124 -0.6061  1.1030
  915SOL     OW 2743   2.873   1.153   0.923  0.3280 -0.0466 -0.3026
  915SOL    HW1 2744   2.899   1.122   1.021  0.0287 -0.1895 -0.5522
  915SOL    HW2 2745   2.838   1.250   0.921  0.8637 -1.6808 -1.5217
  916SOL     OW 2746   1.939   2.294   1.182 -0.5066 -0.3838 -0.9366
  916SOL    HW1 2747   1.984   2.364   1.244  0.3184 -0.0324  0.3718
  916SOL    HW2 2748   1.973   2.199   1.194  0.3859  0.0522  0.1759
  917SOL     OW 2749   1.958   2.434   2.358  0.0236 -0.3733 -0.3834
  917SOL    HW1 2750   1.883   2.415   2.429 -2.8974 -0.9894  0.7159
  917SOL    HW2 2751   1.982   2.534   2.345  2.4549  2.4868 -1.1548
  918SOL     OW 2752   1.846   2.680   2.678  0.9660 -0.7567 -0.5950
  918SOL    HW1 2753   1.771   2.747   2.662 -1.0431  2.3267  1.3242
  918SOL    HW2 2754   1.931   2.716   2.637 -0.2572 -1.6663 -1.2683
  919SOL     OW 2755   1.001   0.038   1.506 -0.4552 -0.2576  0.1954
  919SOL    HW1 2756   0.900   0.024   1.504  0.2441  2.1621 -2.3323
  919SOL    HW2 2757   1.054   3.080   1.554  1.4099 -2.5396 -1.2183
  920SOL     OW 2758   3.061   0.508   2.456 -0.0823 -0.5925  0.0331
  920SOL    HW1 2759   3.016   0.520   2.546 -1.5392 -5.0589  3.4413
  920SOL    HW2 2760   0.029   0.558   2.442  1.6425  0.5230 -0.2032
  921SOL     OW 2761   0.049   0.893   1.805  0.8941 -0.1002  0.2833
  921SOL    HW1 2762   0.143   0.933   1.819 -0.7749 -2.3012 -0.5903
  921SOL    HW2 2763   3.091   0.961   1.802  0.0988 -1.8907  2.4189
  922SOL     OW 2764   2.316   2.438   0.447  0.1560 -0.6698  0.6080
  922SOL    HW1 2765   2.351   2.447   0.543  2.1735 -0.2281 -0.2910
  922SOL    HW2 2766   2.377   2.484   0.381  1.9853  2.7848  1.0393
  923SOL     OW 2767   0.751   2.073   0.665 -0.2184  0.1095  0.1515
  923SOL    HW1 2768   0.736   2.172   0.672 -1.9756  1.3576 -0.6356
  923SOL    HW2 2769   0.671   2.023   0.711 -0.2918 -1.6114 -0.9168
  924SOL     OW 2770   1.154   0.949   2.908  0.5554  0.1686 -0.2691
  924SOL    HW1 2771   1.183   0.968   2.812  1.9853 -1.4526  2.7949
  924SOL    HW2 2772   1.053   0.950   2.916 -1.8910  1.2082 -0.5159
  925SOL     OW 2773   2.618   1.195   0.552 -0.9746  0.4112  0.3917
  925SOL    HW1 2774   2.637   1.123   0.625  1.4466 -0.4578  1.7800
  925SOL    HW2 2775   2.556   1.269   0.584  0.3662  0.5017 -1.7996
  926SOL     OW 2776   0.555   0.416   1.256  0.3079  0.0095 -0.2045
  926SOL    HW1 2777   0.540   0.312   1.262 -0.4565 -0.8255  0.5409
  926SOL    HW2 2778   0.470   0.469   1.268  0.2164  0.7950  1.2576
  927SOL     OW 2779   0.473   1.608   2.551 -0.3972  0.0216  0.8191
  927SOL    HW1 2780   0.450   1.557   2.635 -1.0523  3.2650 -1.3070
  927SOL    HW2 2781   0.432   1.566   2.469  3.9813 -0.6968  0.3029
  928SOL     OW 2782   0.285   0.466   2.069 -0.2019  0.7095  0.4868
  928SOL    HW1 2783   0.260   0.395   2.138 -0.5887 -0.5546 -1.5759
  928SOL    HW2 2784   0.278   0.437   1.971  0.6641  1.4789  0.5053
  929SOL     OW 2785   3.041   2.780   1.288 -0.2786 -0.6033 -0.2875
  929SOL    HW1 2786   3.047   2.708   1.220  1.5436 -0.1802  3.9254
  929SOL    HW2 2787   0.017   2.822   1.288 -1.8613 -1.9306  0.7023
  930SOL     OW 2788   1.904   0.200   1.921 -0.0153 -0.6387  0.2823
  930SOL    HW1 2789   1.954   0.152   1.852 -0.3052  1.2935 -0.7291
  930SOL    HW2 2790   1.962   0.227   2.000  0.1915 -0.2392  0.8047
  931SOL     OW 2791   2.194   1.014   3.031  0.2999  0.0740 -0.2922
  931SOL    HW1 2792   2.200   0.969   3.118 -1.4960  0.8033 -3.0057
  931SOL    HW2 2793   2.096   1.014   3.005 -0.0970 -1.5250 -0.4206
  932SOL     OW 2794   1.892   1.169   0.715 -0.4608  0.0548 -0.0946
  932SOL    HW1 2795   1.972   1.158   0.655 -2.1317  0.0548  2.4796
  932SOL    HW2 2796   1.805   1.174   0.666  2.0597  1.0623 -0.7804
  933SOL     OW 2797   1.966   1.704   0.969  0.2937  0.9410 -0.7487
  933SOL    HW1 2798   1.907   1.722   0.885  0.2796  1.3958 -1.2028
  933SOL    HW2 2799   1.940   1.615   1.010  0.8891 -2.9499 -1.7077
  934SOL     OW 2800   2.057   1.018   2.596  0.2318  0.0746 -0.0031
  934SOL    HW1 2801   2.075   0.955   2.676  1.6102  0.4842 -0.0881
  934SOL    HW2 2802   2.017   0.957   2.525 -2.8139 -0.2957  2.8587
  935SOL     OW 2803   0.197   1.189   0.482 -0.2702  0.1427 -0.0132
  935SOL    HW1 2804   0.187   1.227   0.387  2.0839 -0.2729  0.6365
  935SOL    HW2 2805   0.113   1.142   0.518  0.3090  0.0974  2.2667
  936SOL     OW 2806   0.233   2.906   0.698 -0.0299  0.1979  0.6107
  936SOL    HW1 2807   0.277   2.985   0.643  1.4610  2.5990 -0.3487
  936SOL    HW2 2808   0.296   2.830   0.706 -0.8947  1.2681  0.1449
  937SOL     OW 2809   3.002   2.559   1.725  0.4290 -0.3059 -0.1282
  937SOL    HW1 2810   2.946   2.586   1.813 -3.7140  0.2461  2.6063
  937SOL    HW2 2811   3.065   2.491   1.756 -3.2411  0.3377 -1.1018
  938SOL     OW 2812   2.785   2.295   0.265 -0.1475  0.4103  0.3749
  938SOL    HW1 2813   2.782   2.369   0.196  1.6478 -0.2155  0.3154
  938SOL    HW2 2814   2.812   2.332   0.355 -1.3035 -0.8314 -1.4456
  939SOL     OW 2815   1.195   1.077   1.391 -0.2966 -0.1824 -0.4341
  939SOL    HW1 2816   1.185   1.178   1.375 -0.2431 -0.3835 -2.0239
  939SOL    HW2 2817   1.258   1.053   1.470  0.9075 -2.0477  1.3061
  940SOL     OW 2818   2.944   0.504   2.722  0.2765 -0.0967 -0.0979
  940SOL    HW1 2819   2.845   0.520   2.742  3.4903 -2.9571 -0.5241
  940SOL    HW2 2820   2.974   0.416   2.764 -1.1826  1.9277 -0.3299
  941SOL     OW 2821   2.803   2.670   2.773 -0.2396 -0.0130  0.0849
  941SOL    HW1 2822   2.738   2.746   2.756  1.3855  0.0365 -0.8600
  941SOL    HW2 2823   2.778   2.581   2.728  0.1598 -4.2023 -0.1507
  942SOL     OW 2824   1.397   0.224   1.388  0.2510  0.7273  0.0748
  942SOL    HW1 2825   1.405   0.216   1.493 -0.2324  0.4886  0.4833
  942SOL    HW2 2826   1.483   0.198   1.336  1.3183  0.2473 -0.7758
  943SOL     OW 2827   1.097   1.192   2.229  0.4784 -0.1273 -0.2736
  943SOL    HW1 2828   1.128   1.117   2.171 -3.1793  1.0018  2.0083
  943SOL    HW2 2829   1.017   1.245   2.193  2.1280 -1.6469  0.2511
  944SOL     OW 2830   2.097   1.107   1.443 -0.7376  0.6528  0.6660
  944SOL    HW1 2831   2.016   1.104   1.388  2.8606  1.5153  1.0207
  944SOL    HW2 2832   2.185   1.088   1.393  0.5086  3.1764  2.8911
  945SOL     OW 2833   3.092   3.061   2.909 -0.1974  0.2389  0.0432
  945SOL    HW1 2834   3.068   2.963   2.890  0.7311 -0.8141 -1.2971
  945SOL    HW2 2835   3.073   3.087   3.009  3.3209  1.1892 -0.0873
  946SOL     OW 2836   0.007   1.416   1.579  0.1650  0.1590 -0.1763
  946SOL    HW1 2837   0.052   1.459   1.500 -0.4368 -1.7353 -1.9701
  946SOL    HW2 2838   0.062   1.335   1.604  1.9525 -0.9666  1.3037
  947SOL     OW 2839   0.988   3.036   0.227 -0.1342 -0.0288  0.3305
  947SOL    HW1 2840   0.975   3.113   0.290 -1.3661  0.2501  0.6444
  947SOL    HW2 2841   0.903   2.988   0.205  3.5649 -0.0567  2.3600
  948SOL     OW 2842   2.335   1.628   1.256  0.3999  0.8770  0.5420
  948SOL    HW1 2843   2.435   1.628   1.283 -2.9837  0.9719 -1.9331
  948SOL    HW2 2844   2.329   1.617   1.155  0.5651  1.0827 -0.5793
  949SOL     OW 2845   0.240   0.950   2.815 -0.3987 -0.2611 -0.0742
  949SOL    HW1 2846   0.159   1.004   2.825 -0.3906 -1.9427 -0.2970
  949SOL    HW2 2847   0.324   1.009   2.821 -0.1835 -0.7734  2.7029
  950SOL     OW 2848   0.505   2.409   1.234  0.0747 -0.5199  0.1298
  950SOL    HW1 2849   0.475   2.497   1.191  2.2314  2.0751 -0.5770
  950SOL    HW2 2850   0.598   2.378   1.203  0.8145 -1.3090 -0.8987
  951SOL     OW 2851   0.895   1.607   2.689 -0.3441  0.1595  0.0297
  951SOL    HW1 2852   0.854   1.589   2.784  0.1633  0.3924  0.8942
  951SOL    HW2 2853   0.822   1.630   2.621 -0.8308  1.4988 -0.6727
  952SOL     OW 2854   0.547   1.076   0.518  0.3690  0.2682 -0.7920
  952SOL    HW1 2855   0.602   1.000   0.557 -1.7623 -0.5466  1.3538
  952SOL    HW2 2856   0.494   1.122   0.593  1.3666  1.5611  0.1115
  953SOL     OW 2857   2.404   2.731   2.686 -0.3841  0.3915 -0.5160
  953SOL    HW1 2858   2.352   2.704   2.601  1.0232 -1.0627  0.7600
  953SOL    HW2 2859   2.408   2.660   2.761  1.7644  0.6700 -3.4939
  954SOL     OW 2860   1.851   0.983   0.913 -0.0932 -0.3265  0.7552
  954SOL    HW1 2861   1.916   0.966   0.991  4.1780  0.3148 -1.3609
  954SOL    HW2 2862   1.892   1.038   0.840 -4.0834  0.1616 -1.8684
  955SOL     OW 2863   0.608   1.981   0.239  0.4698 -0.1309  0.0109
  955SOL    HW1 2864   0.697   2.018   0.223  0.0904  1.4905  0.0976
  955SOL    HW2 2865   0.557   2.021   0.323 -0.6627  2.2610 -1.1252
  956SOL     OW 2866   2.663   0.401   1.861 -0.0407  0.7366  0.3833
  956SOL    HW1 2867   2.615   0.485   1.894  2.3392 -0.7905 -1.8126
  956SOL    HW2 2868   2.629   0.309   1.896 -2.5252 -1.3073  0.5221
  957SOL     OW 2869   2.032   2.360   1.745  0.5472  0.1678 -0.2573
  957SOL    HW1 2870   2.118   2.314   1.776  2.2260 -0.3029  2.0910
  957SOL    HW2 2871   1.977   2.291   1.692  1.1007  0.7033  2.2140
  958SOL     OW 2872   1.594   1.173   1.690  0.2851  0.5737  0.5042
  958SOL    HW1 2873   1.517   1.137   1.624  0.5105 -3.1300 -1.4783
  958SOL    HW2 2874   1.566   1.190   1.787  1.3443  1.4805  2.2064
  959SOL     OW 2875   1.399   2.099   2.184  0.6004 -0.4379  0.0929
  959SOL    HW1 2876   1.424   2.194   2.200 -0.4912 -0.8941  1.6229
  959SOL    HW2 2877   1.451   2.037   2.249  0.4688 -1.0547 -1.7835
  960SOL     OW 2878   0.784   0.757   2.795 -0.0399  0.3405  0.0765
  960SOL    HW1 2879   0.716   0.826   2.773  3.6671 -1.2286  0.4130
  960SOL    HW2 2880   0.761   0.673   2.734  0.4322 -4.4001 -1.8891
  961SOL     OW 2881   3.097   1.094   2.856  0.0831  0.1124 -0.3302
  961SOL    HW1 2882   3.004   1.050   2.867  0.4464 -0.5705 -1.1934
  961SOL    HW2 2883   3.100   1.165   2.776  1.0663  0.5103 -1.7205
  962SOL     OW 2884   1.029   1.857   2.710 -0.1229  0.0027  0.0832
  962SOL    HW1 2885   0.989   1.765   2.723  3.8617 -0.9010  1.1928
  962SOL    HW2 2886   0.982   1.920   2.641  0.2150 -0.5665  2.9021
  963SOL     OW 2887   2.834   2.101   0.057  0.0110 -0.0611 -0.1333
  963SOL    HW1 2888   2.742   2.061   0.031 -0.2434 -0.3593 -0.7787
  963SOL    HW2 2889   2.823   2.168   0.131  0.9663 -1.6095 -0.8024
  964SOL     OW 2890   0.803   2.209   2.204 -0.2453  0.5274 -0.2269
  964SOL    HW1 2891   0.731   2.213   2.279  0.6177 -0.3565 -0.2093
  964SOL    HW2 2892   0.869   2.288   2.204 -0.1491 -0.5918  1.1506
  965SOL     OW 2893   1.839   1.923   1.093 -0.3253 -0.1612 -0.4309
  965SOL    HW1 2894   1.895   1.972   1.163  0.2864  1.2852 -0.0270
  965SOL    HW2 2895   1.886   1.838   1.056 -1.2205  1.2889 -0.5856
  966SOL     OW 2896   3.063   1.769   3.054  0.3892 -0.1189  0.4442
  966SOL    HW1 2897   3.086   1.850   3.110 -2.7679  3.0940 -0.1353
  966SOL    HW2 2898   3.118   1.686   3.072 -0.9996  2.2133  1.7982
  967SOL     OW 2899   1.997   2.963   2.147  0.0481  0.7036  0.1996
  967SOL    HW1 2900   2.081   3.023   2.144  0.6727  1.1857 -3.4584
  967SOL    HW2 2901   1.952   2.967   2.057  0.3650  2.2550 -0.6458
  968SOL     OW 2902   0.821   0.724   0.139 -0.0779  0.6687  0.4962
  968SOL    HW1 2903   0.858   0.818   0.113  0.5665  0.5341 -0.0720
  968SOL    HW2 2904   0.870   0.677   0.217 -1.1110 -1.0590 -0.2241
  969SOL     OW 2905   0.640   1.345   2.222  0.1423 -0.5367 -0.5637
  969SOL    HW1 2906   0.562   1.409   2.211 -1.1404 -1.0544 -1.8324
  969SOL    HW2 2907   0.607   1.250   2.237  0.3294  0.7626  0.4854
  970SOL     OW 2908   2.160   2.632   1.130  0.1903  0.0711 -0.3054
  970SOL    HW1 2909   2.105   2.613   1.050  0.9457  0.8344  0.5370
  970SOL    HW2 2910   2.260   2.636   1.106  0.4364  0.4277  0.6790
  971SOL     OW 2911   1.879   2.396   0.654 -0.1169 -0.1523  0.2256
  971SOL    HW1 2912   1.941   2.379   0.739  1.4034 -0.8233  1.8075
  971SOL    HW2 2913   1.921   2.459   0.586 -0.3943 -1.7879 -0.2841
  972SOL     OW 2914   3.061   1.273   2.648  0.4324 -0.1087 -0.3577
  972SOL    HW1 2915   3.006   1.233   2.572  1.3359 -1.0863  2.3342
  972SOL    HW2 2916   0.028   1.325   2.628 -1.3746 -3.6789 -2.7023
  973SOL     OW 2917   0.584   0.140   0.235  0.1545 -0.1979 -0.4435
  973SOL    HW1 2918   0.613   0.239   0.243  3.0304 -1.0420  0.0845
  973SOL    HW2 2919   0.586   0.106   0.139  0.2649  0.8524  0.4888
  974SOL     OW 2920   2.596   0.925   2.038  0.6050  0.3860  0.1911
  974SOL    HW1 2921   2.582   0.903   2.138  0.5330 -3.0196  4.1595
  974SOL    HW2 2922   2.528   0.986   1.994 -1.9413 -2.3592  0.7136
  975SOL     OW 2923   3.112   0.027   0.621 -0.2392 -0.1989  0.0850
  975SOL    HW1 2924   3.111   0.014   0.724  1.4448  0.8041  1.7258
  975SOL    HW2 2925   3.031   3.111   0.578  4.0048  1.9921  2.0472
  976SOL     OW 2926   0.589   1.584   1.380 -0.5011 -0.2527 -0.1959
  976SOL    HW1 2927   0.513   1.641   1.417  0.6577  0.2293 -0.3941
  976SOL    HW2 2928   0.647   1.543   1.452 -1.0164 -1.9648 -1.2176
  977SOL     OW 2929   1.214   1.954   0.155 -0.2827  0.6639  0.0696
  977SOL    HW1 2930   1.177   1.944   0.059  0.6076  2.5009  0.0655
  977SOL    HW2 2931   1.211   2.054   0.174 -2.8308 -0.7798 -0.2994
  978SOL     OW 2932   3.086   0.707   0.224 -0.3976 -0.2078  0.2153
  978SOL    HW1 2933   3.053   0.624   0.273 -2.4365  1.2213 -1.8882
  978SOL    HW2 2934   0.057   0.688   0.174  1.1678 -0.7351  2.1249
  979SOL     OW 2935   1.806   1.715   0.748  0.0314 -0.0453 -0.0623
  979SOL    HW1 2936   1.736   1.637   0.746 -0.0310 -3.9260  0.9010
  979SOL    HW2 2937   1.770   1.794   0.689  2.6634  0.4466 -0.8604
  980SOL     OW 2938   0.495   1.966   1.960  0.6660 -0.3083  0.2657
  980SOL    HW1 2939   0.583   1.918   1.944 -3.8415  2.3246 -1.3224
  980SOL    HW2 2940   0.492   2.039   1.885 -1.5827 -0.1274 -0.2464
  981SOL     OW 2941   2.293   1.377   2.620 -0.3067  0.1059 -0.0369
  981SOL    HW1 2942   2.360   1.405   2.689 -0.2812  1.6100 -1.0148
  981SOL    HW2 2943   2.281   1.453   2.547  1.1428  0.9745 -0.1229
  982SOL     OW 2944   0.043   2.378   1.827  0.1156 -0.4891 -0.4072
  982SOL    HW1 2945   0.002   2.288   1.799 -0.6659 -0.7001  1.1281
  982SOL    HW2 2946   0.106   2.363   1.911  0.2083  1.8622 -0.4840
  983SOL     OW 2947   1.435   0.272   1.665 -0.3118  0.0458 -0.0988
  983SOL    HW1 2948   1.460   0.367   1.653  0.8453 -0.7963 -0.7859
  983SOL    HW2 2949   1.509   0.227   1.715  1.3444  0.7651 -2.6723
  984SOL     OW 2950   2.675   2.933   3.080  0.1323 -0.1437 -0.0084
  984SOL    HW1 2951   2.757   2.874   3.072 -1.2575  1.2347  3.2981
  984SOL    HW2 2952   2.620   2.925   2.990 -2.3688 -0.6326  1.1401
  985SOL     OW 2953   1.572   1.294   1.963 -0.6466  0.1907 -0.1697
  985SOL    HW1 2954   1.645   1.356   1.924 -0.9596  1.4747  1.6566
  985SOL    HW2 2955   1.610   1.216   2.021 -0.1516 -2.1851  2.3497
  986SOL     OW 2956   2.026   3.054   2.557 -0.0133 -0.4985  0.1072
  986SOL    HW1 2957   2.112   3.113   2.561  0.0394 -0.8771 -2.0400
  986SOL    HW2 2958   1.964   3.072   2.629  3.9658 -0.9038 -0.2745
  987SOL     OW 2959   2.659   1.884   2.835  0.9983  0.2461  0.4813
  987SOL    HW1 2960   2.760   1.872   2.824 -1.5480 -0.3393  3.0717
  987SOL    HW2 2961   2.618   1.954   2.772 -0.3501 -3.0191 -1.6333
  988SOL     OW 2962   0.071   0.696   1.332  0.5495 -0.0068  0.1921
  988SOL    HW1 2963   0.025   0.611   1.369  0.4526 -0.4315  0.2097
  988SOL    HW2 2964   0.059   0.765   1.403  1.6879 -0.2690 -3.0111
  989SOL     OW 2965   1.819   1.094   1.335  0.4025  0.7586 -0.3723
  989SOL    HW1 2966   1.846   1.000   1.300  1.0035 -1.2795 -1.2297
  989SOL    HW2 2967   1.721   1.107   1.316 -0.7257  3.4048  0.9396
  990SOL     OW 2968   2.563   0.540   3.020  0.6466  0.5899 -0.1499
  990SOL    HW1 2969   2.592   0.586   3.102  0.4787 -1.3051 -3.6357
  990SOL    HW2 2970   2.609   0.448   3.003 -0.0203 -5.4668 -2.0244
  991SOL     OW 2971   0.089   1.548   0.021 -0.6197  0.1887  0.2439
  991SOL    HW1 2972   0.030   1.466   0.006  0.0214  0.4157 -0.7334
  991SOL    HW2 2973   0.113   1.560   0.118  2.4661  1.3526 -0.1434
  992SOL     OW 2974   2.296   1.500   1.931  0.0617  0.2226  0.0523
  992SOL    HW1 2975   2.230   1.575   1.907  1.6746  0.9011  0.6998
  992SOL    HW2 2976   2.360   1.479   1.853  2.8391 -0.9994 -0.7357
  993SOL     OW 2977   0.479   2.667   0.458 -0.5381 -0.1226 -0.1247
  993SOL    HW1 2978   0.569   2.659   0.402  3.7112 -0.4688 -1.4359
  993SOL    HW2 2979   0.505   2.728   0.533 -0.9768 -1.4173  0.8308
  994SOL     OW 2980   3.040   1.754   1.375  0.1216  0.0032 -0.5051
  994SOL    HW1 2981   2.992   1.698   1.445 -1.2904  0.1121  0.8609
  994SOL    HW2 2982   3.021   1.853   1.395  0.0572 -0.7062 -0.4406
  995SOL     OW 2983   1.628   2.029   2.588  0.5890 -0.0974 -0.0586
  995SOL    HW1 2984   1.715   2.013   2.539  0.7328 -2.2503  0.0675
  995SOL    HW2 2985   1.556   1.963   2.549  0.9510  0.1419 -1.1710
  996SOL     OW 2986   2.174   1.825   0.123 -0.2290  0.5409 -0.1480
  996SOL    HW1 2987   2.092   1.882   0.109 -0.5215  0.1262 -1.3747
  996SOL    HW2 2988   2.206   1.830   0.223 -0.6574  0.1332  0.9586
  997SOL     OW 2989   1.570   1.347   2.550 -0.2363 -0.0099  0.3916
  997SOL    HW1 2990   1.492   1.334   2.614  0.6089 -0.3648 -2.4626
  997SOL    HW2 2991   1.583   1.446   2.529  0.4360  0.6208  0.5072
  998SOL     OW 2992   2.963   2.294   0.966  0.4314  0.1070 -0.3761
  998SOL    HW1 2993   2.950   2.358   0.884 -0.9939  1.2770 -0.4395
  998SOL    HW2 2994   3.047   2.318   1.013  1.1913 -2.4731  0.0634
  999SOL     OW 2995   0.289   2.416   0.469  0.4476  0.5909  0.1285
  999SOL    HW1 2996   0.273   2.371   0.377  0.2023  0.4996  0.5870
  999SOL    HW2 2997   0.359   2.483   0.453 -5.9129 -0.3008  0.8326
 1000SOL     OW 2998   1.140   3.090   0.022  0.0165  0.3811  0.3752
 1000SOL    HW1 2999   1.085   3.083   0.110  0.7677 -1.2149  1.8569
 1000SOL    HW2 3000   1.086   3.086   3.054  0.8687 -0.9987 -0.1892
   3.11892   3.11892   3.11892
