1000 SPC/Fw water molecules t= 197.00000 step= 197000
 3000
    1SOL     OW    1   2.963   3.069   0.988  0.0780 -0.2580  0.2959
    1SOL    HW1    2   2.878   0.010   0.958  0.4178 -0.2671 -1.5701
    1SOL    HW2    3   3.047   0.021   0.965 -0.2138  1.7901 -1.1180
    2SOL     OW    4   2.050   1.636   1.973  0.2283 -0.6685  0.1981
    2SOL    HW1    5   2.057   1.574   2.055  3.3006 -2.5461 -0.3714
    2SOL    HW2    6   1.969   1.609   1.915 -1.8015  2.4821 -1.8468
    3SOL     OW    7   1.946   2.426   2.048  0.3160  0.2264 -0.5860
    3SOL    HW1    8   1.956   2.524   2.060  2.7700  2.3814 -1.3136
    3SOL    HW2    9   1.940   2.376   2.137  0.6993 -1.4912  0.2846
    4SOL     OW   10   1.859   2.065   2.278 -0.0812 -0.0817  0.5617
    4SOL    HW1   11   1.933   2.000   2.259  1.5000 -1.2436 -0.7001
    4SOL    HW2   12   1.788   2.066   2.203 -0.1765  0.1359 -0.0247
    5SOL     OW   13   1.349   0.709   1.787 -0.8512 -0.2933 -0.0000
    5SOL    HW1   14   1.266   0.733   1.731 -0.3965 -0.5687 -1.3700
    5SOL    HW2   15   1.436   0.714   1.737 -2.2700 -1.9318  1.0435
    6SOL     OW   16   2.924   0.649   2.891 -0.9713  0.0794  0.1848
    6SOL    HW1   17   2.946   0.633   2.991 -2.0370  1.3481 -2.1832
    6SOL    HW2   18   2.875   0.571   2.849 -1.4888  2.9601 -0.1192
    7SOL     OW   19   1.038   1.046   1.302  0.0572 -0.1282  0.9862
    7SOL    HW1   20   1.138   1.025   1.292  1.2062 -1.0590  0.6436
    7SOL    HW2   21   1.009   1.132   1.254  0.2997  2.0125  0.6850
    8SOL     OW   22   1.230   0.429   0.634  0.0307  0.7055 -0.4901
    8SOL    HW1   23   1.291   0.394   0.712 -1.5769  0.7185 -0.3880
    8SOL    HW2   24   1.287   0.484   0.570  0.6695  0.3266 -2.0377
    9SOL     OW   25   0.986   0.776   2.733 -0.1750  0.2396 -0.4102
    9SOL    HW1   26   0.927   0.849   2.770  0.2738 -2.3159 -2.0526
    9SOL    HW2   27   1.071   0.813   2.693  2.2702  1.8859  1.1426
   10SOL     OW   28   0.156   2.564   0.390 -0.1093  0.1164 -0.0127
   10SOL    HW1   29   0.227   2.491   0.401  0.9165  2.3074 -0.8562
   10SOL    HW2   30   0.189   2.645   0.329  1.5031  0.5852 -1.0436
   11SOL     OW   31   0.512   1.585   0.005 -0.6268  0.1456 -0.0667
   11SOL    HW1   32   0.546   1.523   3.031  1.3128 -1.5877 -0.7401
   11SOL    HW2   33   0.417   1.608   3.088  4.5101 -0.2395  2.2008
   12SOL     OW   34   0.496   0.117   1.380  0.8567 -0.3953 -0.0611
   12SOL    HW1   35   0.579   0.064   1.410 -2.0770 -0.4762 -2.1353
   12SOL    HW2   36   0.415   0.115   1.443  1.5871 -0.6036 -1.9393
   13SOL     OW   37   0.888   2.989   0.347 -0.4665 -0.7498 -0.0471
   13SOL    HW1   38   0.966   3.057   0.330  1.4313 -0.2977  0.7090
   13SOL    HW2   39   0.853   2.949   0.261 -0.9178 -0.5852 -2.5654
   14SOL     OW   40   1.232   2.176   1.309 -0.0026  0.5083 -0.4366
   14SOL    HW1   41   1.208   2.232   1.226  2.3242 -2.7377 -0.3850
   14SOL    HW2   42   1.152   2.125   1.342 -0.3661  0.7941  0.9930
   15SOL     OW   43   2.643   0.655   1.947 -0.1347 -0.2604  0.3573
   15SOL    HW1   44   2.716   0.689   1.888  0.7057 -0.4459 -0.8087
   15SOL    HW2   45   2.570   0.613   1.889  1.9953  1.4517  0.6097
   16SOL     OW   46   1.156   2.673   3.059  0.1716 -0.3012  0.0474
   16SOL    HW1   47   1.149   2.763   0.007 -0.6716  1.2694 -0.1286
   16SOL    HW2   48   1.070   2.621   3.069  0.2655  1.5765  2.6572
   17SOL     OW   49   0.957   0.086   1.421 -0.2097  0.3879 -0.2641
   17SOL    HW1   50   0.926   0.135   1.506 -0.0104  0.8942  0.9710
   17SOL    HW2   51   0.967   0.153   1.346 -0.8400 -0.5282  0.6271
   18SOL     OW   52   1.250   0.925   0.165 -0.1000  0.0075 -0.4984
   18SOL    HW1   53   1.185   0.865   0.111 -1.6170  0.0333  0.6171
   18SOL    HW2   54   1.322   0.870   0.205  0.8966  1.4456 -1.7601
   19SOL     OW   55   1.990   1.417   0.003  0.3440  0.4386  0.8765
   19SOL    HW1   56   2.046   1.471   3.039 -1.2032  2.1339  0.4258
   19SOL    HW2   57   1.989   1.318   3.077  0.5729  0.8016 -0.5271
   20SOL     OW   58   1.821   1.555   1.649  0.2377  0.4622 -0.0707
   20SOL    HW1   59   1.756   1.573   1.724 -0.0996  0.6981 -1.0221
   20SOL    HW2   60   1.774   1.498   1.576 -1.8142 -1.1061 -0.8117
   21SOL     OW   61   0.678   1.432   0.159 -0.3495  0.1365  0.2753
   21SOL    HW1   62   0.766   1.481   0.168 -1.9951  2.1728  1.3622
   21SOL    HW2   63   0.611   1.487   0.103 -2.9783  3.4566  2.9185
   22SOL     OW   64   2.284   0.102   1.248 -0.0175 -0.1234 -0.4065
   22SOL    HW1   65   2.316   0.120   1.342 -1.1422 -0.9637 -0.8926
   22SOL    HW2   66   2.200   0.154   1.225  1.6852 -2.5096  0.0766
   23SOL     OW   67   0.096   1.069   1.620  0.0455  0.1140  0.2960
   23SOL    HW1   68   0.140   0.987   1.582 -1.0621  1.6652 -0.5159
   23SOL    HW2   69   0.064   1.136   1.543 -3.7012 -1.4941 -0.8773
   24SOL     OW   70   2.362   2.560   1.278  0.3102 -0.1981  0.2958
   24SOL    HW1   71   2.333   2.577   1.179 -3.0197  1.6173 -1.1908
   24SOL    HW2   72   2.455   2.525   1.279 -2.1072  1.1123 -0.0720
   25SOL     OW   73   2.007   2.634   2.554  0.2020 -0.1681  0.7150
   25SOL    HW1   74   2.045   2.541   2.561  0.0610  1.6087 -0.1660
   25SOL    HW2   75   1.923   2.635   2.494  0.3539 -1.7251 -1.8636
   26SOL     OW   76   0.910   2.508   3.050 -0.2602  0.3937 -0.3171
   26SOL    HW1   77   0.834   2.452   3.011  1.7459  0.7364  0.5881
   26SOL    HW2   78   0.955   2.446   0.023  1.1326 -2.1941  1.5851
   27SOL     OW   79   0.346   2.030   2.586  0.3171 -0.3248  0.0825
   27SOL    HW1   80   0.359   1.929   2.592 -2.3282  1.4693  1.9521
   27SOL    HW2   81   0.242   2.054   2.591 -0.6854  0.0112 -2.7547
   28SOL     OW   82   0.081   1.484   1.568  0.1084  0.2055  0.2660
   28SOL    HW1   83   3.093   1.526   1.574  2.7662 -0.8332  0.8166
   28SOL    HW2   84   0.158   1.537   1.608  1.5006 -2.0667  0.6771
   29SOL     OW   85   2.648   2.057   2.246  0.2625  0.3964 -0.2875
   29SOL    HW1   86   2.680   1.972   2.284 -1.6968  1.0369 -0.2189
   29SOL    HW2   87   2.716   2.100   2.189 -1.3574 -0.5623  1.7075
   30SOL     OW   88   1.293   2.967   0.704 -0.1720 -0.1243  0.0831
   30SOL    HW1   89   1.296   2.866   0.736  1.3083 -0.2161 -0.7923
   30SOL    HW2   90   1.219   3.023   0.750  1.8836  1.1566  0.5061
   31SOL     OW   91   2.932   2.413   1.956  0.0271  0.3917  0.6979
   31SOL    HW1   92   3.024   2.381   1.984 -2.1388  1.3566 -0.7645
   31SOL    HW2   93   2.935   2.424   1.854  2.5201  1.2772  0.6505
   32SOL     OW   94   1.096   0.998   1.736  0.0387  0.6542  0.4353
   32SOL    HW1   95   1.180   1.034   1.692 -1.1677 -3.0731 -1.1935
   32SOL    HW2   96   1.057   0.916   1.687 -0.4945 -1.1593 -3.0962
   33SOL     OW   97   0.230   2.695   2.581  0.2499 -0.1545 -0.0690
   33SOL    HW1   98   0.184   2.629   2.642 -0.6450 -0.4672 -3.4843
   33SOL    HW2   99   0.309   2.663   2.523  2.7675  0.6104 -0.2705
   34SOL     OW  100   2.012   0.131   0.842  0.2735 -0.9807  0.2048
   34SOL    HW1  101   2.060   0.173   0.925  4.4277  0.1471  1.5162
   34SOL    HW2  102   1.961   0.046   0.865  0.8572  0.5604 -1.2786
   35SOL     OW  103   2.544   0.294   0.880  0.2399  0.4318  0.1295
   35SOL    HW1  104   2.537   0.252   0.789  1.2213  0.0299  1.0854
   35SOL    HW2  105   2.560   0.393   0.863 -0.8084 -3.0537 -1.3661
   36SOL     OW  106   2.245   2.723   2.208 -0.4808  0.3514  0.1749
   36SOL    HW1  107   2.272   2.630   2.236 -0.4396 -1.2940  2.7813
   36SOL    HW2  108   2.149   2.721   2.177  1.1409  1.4171  0.3973
   37SOL     OW  109   0.935   2.683   2.126  0.0507  0.4118 -0.4136
   37SOL    HW1  110   0.999   2.677   2.045  0.9389 -0.2142  0.0380
   37SOL    HW2  111   0.963   2.628   2.209  2.5733 -0.7294 -1.3219
   38SOL     OW  112   2.813   0.394   2.856  0.4923  0.6959  0.3741
   38SOL    HW1  113   2.894   0.358   2.906 -1.0871 -0.5608  0.5991
   38SOL    HW2  114   2.731   0.397   2.918 -0.9754 -2.2669 -0.2560
   39SOL     OW  115   2.301   1.743   1.931 -0.2336  0.0023 -0.0500
   39SOL    HW1  116   2.212   1.700   1.939 -0.2765 -0.2028 -0.7788
   39SOL    HW2  117   2.298   1.812   1.857  1.1511 -1.7084 -0.7222
   40SOL     OW  118   0.208   3.044   2.899 -0.0846  0.2491 -0.1045
   40SOL    HW1  119   0.115   3.050   2.855  0.5416 -1.5227 -2.3926
   40SOL    HW2  120   0.286   3.028   2.835  1.8770 -0.5344  1.7386
   41SOL     OW  121   2.000   0.459   1.068 -0.3635  0.3976  0.2457
   41SOL    HW1  122   2.015   0.542   1.130  1.6883 -1.4773  1.4888
   41SOL    HW2  123   2.051   0.466   0.979  2.3911 -0.6340  0.6374
   42SOL     OW  124   0.630   0.360   1.340 -0.4784  0.1864 -0.3355
   42SOL    HW1  125   0.670   0.379   1.433 -0.7465 -0.7291  1.5804
   42SOL    HW2  126   0.559   0.289   1.348 -2.0943 -1.0825  0.3117
   43SOL     OW  127   2.540   1.043   2.214 -0.5475 -0.1290 -0.2950
   43SOL    HW1  128   2.496   1.071   2.124  0.7172 -1.6128 -0.1985
   43SOL    HW2  129   2.606   0.967   2.194  1.7308 -0.8563  2.8425
   44SOL     OW  130   3.002   2.890   0.450 -0.0112 -0.3328 -0.3114
   44SOL    HW1  131   2.967   2.986   0.426  2.1610  1.8218 -2.5601
   44SOL    HW2  132   3.094   2.899   0.495  0.2272  0.9601 -0.1120
   45SOL     OW  133   2.993   2.750   1.910  0.2940  0.5235  0.0635
   45SOL    HW1  134   2.907   2.782   1.874  2.1498 -0.4940 -1.1625
   45SOL    HW2  135   3.067   2.813   1.880 -3.1060  1.5328 -0.2245
   46SOL     OW  136   2.219   2.393   1.992  0.2224 -0.3333 -0.0013
   46SOL    HW1  137   2.121   2.415   1.982 -1.6164  2.1084  1.4472
   46SOL    HW2  138   2.285   2.439   1.930  0.6449 -0.5861  0.0480
   47SOL     OW  139   1.735   2.348   1.291  0.5078  0.2796  0.5194
   47SOL    HW1  140   1.698   2.349   1.197 -1.8642 -1.9572 -1.5755
   47SOL    HW2  141   1.804   2.278   1.304 -0.3435  0.3901  0.2328
   48SOL     OW  142   0.539   1.878   0.395 -0.2161 -0.2587 -0.1845
   48SOL    HW1  143   0.587   1.859   0.305 -0.7878  1.9443 -1.2928
   48SOL    HW2  144   0.594   1.836   0.472  1.3447  1.2562  0.7330
   49SOL     OW  145   2.719   0.314   2.608 -0.3378 -0.1471  0.2613
   49SOL    HW1  146   2.776   0.338   2.690  1.2164  0.2208  1.2599
   49SOL    HW2  147   2.643   0.378   2.600  0.8173  0.1184  1.0230
   50SOL     OW  148   2.210   0.694   0.357  0.2706 -0.3418 -0.4295
   50SOL    HW1  149   2.277   0.685   0.437 -0.1903 -0.1487  1.2156
   50SOL    HW2  150   2.255   0.686   0.270 -3.9464 -0.3690  2.2562
   51SOL     OW  151   1.726   0.431   1.123 -0.1077  0.0273 -0.3165
   51SOL    HW1  152   1.715   0.333   1.151  0.5316 -0.9901 -1.8689
   51SOL    HW2  153   1.815   0.436   1.071 -0.2266 -1.1516 -1.1293
   52SOL     OW  154   0.969   1.305   3.003  0.8449  0.3600 -0.5843
   52SOL    HW1  155   0.988   1.340   3.097 -2.9270 -0.5591  2.8857
   52SOL    HW2  156   1.054   1.264   2.963  1.2166 -0.8918 -1.1360
   53SOL     OW  157   0.760   1.439   2.443  0.6356  0.1594  0.1469
   53SOL    HW1  158   0.752   1.522   2.497  0.0327 -2.0084 -3.9999
   53SOL    HW2  159   0.720   1.456   2.350 -0.2082 -0.8987 -3.3727
   54SOL     OW  160   2.043   0.201   1.109 -0.1938 -0.1254  0.3664
   54SOL    HW1  161   1.981   0.158   1.176 -0.3494 -0.7424  0.3934
   54SOL    HW2  162   2.017   0.295   1.096 -0.9647 -3.8299  1.1298
   55SOL     OW  163   2.694   3.003   0.712 -0.2895 -0.1088 -0.6475
   55SOL    HW1  164   2.762   2.932   0.682  0.5589 -0.6477  3.8036
   55SOL    HW2  165   2.640   3.040   0.635  1.3518 -0.0741  0.8278
   56SOL     OW  166   0.666   2.852   1.694 -0.0544 -0.1591  0.4550
   56SOL    HW1  167   0.735   2.902   1.635  4.0224  3.0455 -0.0265
   56SOL    HW2  168   0.695   2.857   1.790 -0.5968 -1.0025 -0.6239
   57SOL     OW  169   1.615   1.306   0.474  0.0178  0.1322 -0.3688
   57SOL    HW1  170   1.558   1.253   0.542  0.0027 -0.7627 -1.3977
   57SOL    HW2  171   1.590   1.404   0.463 -0.1628 -1.8538  0.7180
   58SOL     OW  172   0.128   0.714   2.472 -0.8749 -0.6137 -0.4523
   58SOL    HW1  173   0.075   0.787   2.415 -2.2198  2.3004 -1.3043
   58SOL    HW2  174   0.079   0.689   2.556  0.2974  0.5608  0.7426
   59SOL     OW  175   0.957   2.735   2.473 -0.1947 -0.3628  0.0177
   59SOL    HW1  176   1.028   2.686   2.532  0.4571  1.0312  1.4438
   59SOL    HW2  177   0.872   2.750   2.526  2.1231 -2.2892  0.2772
   60SOL     OW  178   2.335   2.826   0.780  0.4288  0.0642  0.1269
   60SOL    HW1  179   2.331   2.913   0.728 -0.1409  1.7105 -2.3318
   60SOL    HW2  180   2.431   2.822   0.817 -0.4910  2.8657  0.2179
   61SOL     OW  181   1.013   2.373   0.680 -0.0139  0.2541  0.2835
   61SOL    HW1  182   0.935   2.409   0.626 -0.5822  0.9761  0.9015
   61SOL    HW2  183   1.036   2.444   0.751  0.1620  1.2603  0.0346
   62SOL     OW  184   2.235   2.175   2.608  0.2394 -0.1119  0.2083
   62SOL    HW1  185   2.295   2.133   2.538  0.6844  4.4461 -0.3437
   62SOL    HW2  186   2.265   2.151   2.701  0.9084  2.3890  0.0188
   63SOL     OW  187   2.182   0.788   2.788  0.7147  0.1928  0.1230
   63SOL    HW1  188   2.194   0.701   2.734  0.9123 -0.2754 -1.3043
   63SOL    HW2  189   2.087   0.836   2.779  0.6364  0.5938  0.0872
   64SOL     OW  190   1.080   0.753   0.013  0.2433 -0.2403  0.1016
   64SOL    HW1  191   1.064   0.656   3.094  2.1023 -0.6790  0.1896
   64SOL    HW2  192   1.036   0.814   3.047 -0.7589 -2.8487  1.8727
   65SOL     OW  193   0.968   2.201   0.435 -0.3758 -0.7594  0.4827
   65SOL    HW1  194   1.029   2.260   0.496  0.3161 -2.0071  1.4348
   65SOL    HW2  195   1.009   2.123   0.385 -0.5256  1.0898  0.3811
   66SOL     OW  196   0.389   1.295   1.890  0.1751  0.3182 -0.2840
   66SOL    HW1  197   0.385   1.331   1.984  0.1811 -3.1777  1.5780
   66SOL    HW2  198   0.452   1.214   1.886  2.2554  0.6499 -0.3122
   67SOL     OW  199   2.277   2.732   2.490 -0.2994 -0.4605 -0.0030
   67SOL    HW1  200   2.201   2.674   2.522  2.8578 -0.8620  2.2653
   67SOL    HW2  201   2.265   2.766   2.389 -0.8608  3.1077 -2.9576
   68SOL     OW  202   0.561   1.749   1.384  0.3535 -0.0656  0.1885
   68SOL    HW1  203   0.605   1.662   1.347 -0.4438 -2.4020 -0.1700
   68SOL    HW2  204   0.633   1.795   1.441  4.3985  1.8800 -1.4254
   69SOL     OW  205   1.054   2.377   0.143 -0.4994  0.4545 -0.6082
   69SOL    HW1  206   1.018   2.429   0.224 -1.5068  0.6236 -0.1706
   69SOL    HW2  207   1.156   2.367   0.146  0.4739  0.7242  0.0416
   70SOL     OW  208   3.050   1.089   2.937  0.2240  0.3518  0.0440
   70SOL    HW1  209   0.010   1.142   2.998  0.3159  0.2995 -2.8634
   70SOL    HW2  210   3.088   1.082   2.842  0.4370  0.5953 -0.0436
   71SOL     OW  211   2.883   1.340   2.934  0.0219 -0.2764  0.2680
   71SOL    HW1  212   2.928   1.249   2.927 -1.8113  1.6430 -0.2174
   71SOL    HW2  213   2.914   1.394   2.851  3.3555 -0.1431 -1.6729
   72SOL     OW  214   2.819   2.203   0.280  0.2600  0.7473  0.1128
   72SOL    HW1  215   2.800   2.198   0.379  2.8956 -1.0445 -1.0585
   72SOL    HW2  216   2.917   2.176   0.264  2.1682  0.1702 -1.3055
   73SOL     OW  217   0.909   1.597   0.220  0.4222 -0.1265 -0.1087
   73SOL    HW1  218   0.959   1.505   0.213  1.2431 -0.9813 -0.2805
   73SOL    HW2  219   0.967   1.661   0.168 -1.2144  0.3866 -2.4194
   74SOL     OW  220   0.042   0.911   0.119  0.2949  0.3138 -0.2190
   74SOL    HW1  221   3.094   0.985   0.077  1.4614  0.9580  4.3445
   74SOL    HW2  222   0.072   0.854   0.040  1.2181  0.0424 -0.6386
   75SOL     OW  223   2.034   1.390   1.680 -0.7604  1.0435 -0.0599
   75SOL    HW1  224   2.111   1.426   1.624  0.4846  1.8684  0.9913
   75SOL    HW2  225   1.963   1.463   1.694 -0.2375 -1.6299 -1.1596
   76SOL     OW  226   2.072   2.470   1.671  0.9307  0.7913 -0.1784
   76SOL    HW1  227   2.059   2.374   1.696  1.1658  0.5512  0.2109
   76SOL    HW2  228   1.990   2.498   1.622  0.2263  1.3878  2.3840
   77SOL     OW  229   2.654   0.535   1.121  0.0565  0.1423  0.6917
   77SOL    HW1  230   2.672   0.557   1.221  1.7726  1.3882  0.6952
   77SOL    HW2  231   2.582   0.470   1.110  3.3336  1.7642  0.1852
   78SOL     OW  232   1.598   1.135   0.131 -0.4250  0.4094  0.4635
   78SOL    HW1  233   1.625   1.228   0.093  0.0321 -0.2897 -1.5249
   78SOL    HW2  234   1.648   1.113   0.220 -0.5909 -0.1585  0.2903
   79SOL     OW  235   0.474   1.787   1.809 -0.3018 -0.2114  0.0757
   79SOL    HW1  236   0.545   1.860   1.811  3.0099  2.6842 -2.0220
   79SOL    HW2  237   0.421   1.807   1.723  0.3775  0.3898 -1.5450
   80SOL     OW  238   1.641   1.034   1.285  0.3377 -1.2461 -0.0371
   80SOL    HW1  239   1.632   0.957   1.352  0.8862  1.4736 -0.8942
   80SOL    HW2  240   1.621   1.005   1.192  2.1171 -0.8505  1.2175
   81SOL     OW  241   0.728   3.066   1.040  0.0591 -0.6420 -0.3857
   81SOL    HW1  242   0.680   3.019   0.966  0.6931  1.6036  3.1140
   81SOL    HW2  243   0.704   0.065   1.036 -0.1157  0.5859 -0.9943
   82SOL     OW  244   1.843   2.677   1.739 -0.6724 -0.1102  0.4192
   82SOL    HW1  245   1.789   2.745   1.791  1.1322 -0.0500 -2.7567
   82SOL    HW2  246   1.789   2.599   1.710  1.4909  3.1322 -0.5425
   83SOL     OW  247   0.763   2.636   1.165  0.1898 -0.0762  0.5316
   83SOL    HW1  248   0.665   2.636   1.190 -0.1118 -2.1639 -1.2864
   83SOL    HW2  249   0.805   2.542   1.166 -2.5037  1.9107 -0.0901
   84SOL     OW  250   0.491   1.128   2.675  0.0344  0.7699  0.4485
   84SOL    HW1  251   0.452   1.220   2.659  2.4567  0.6582 -0.9043
   84SOL    HW2  252   0.505   1.075   2.589  0.4158  1.0394  0.9823
   85SOL     OW  253   3.010   2.331   1.207  0.2000 -0.4921 -0.0217
   85SOL    HW1  254   2.978   2.401   1.276 -2.1760  0.3275  2.3357
   85SOL    HW2  255   3.100   2.364   1.170  1.8271  2.9020 -0.3387
   86SOL     OW  256   2.697   2.374   1.507 -0.1333 -0.2187  0.3375
   86SOL    HW1  257   2.690   2.455   1.448 -0.4899  0.3416  0.6702
   86SOL    HW2  258   2.645   2.296   1.469  0.0028  1.7082  0.5638
   87SOL     OW  259   2.584   2.043   2.958 -0.2855  0.2968 -0.1124
   87SOL    HW1  260   2.610   2.145   2.957  1.3688 -0.8556 -2.3230
   87SOL    HW2  261   2.513   2.034   3.029  0.3411  0.9797 -0.5207
   88SOL     OW  262   0.384   1.868   1.195  0.0998 -0.4395 -0.0254
   88SOL    HW1  263   0.306   1.903   1.254  2.0034 -0.2482 -1.4969
   88SOL    HW2  264   0.455   1.821   1.256 -0.0454 -1.4267  3.2749
   89SOL     OW  265   1.123   0.114   1.815  0.2802 -0.1149 -0.2812
   89SOL    HW1  266   1.179   0.139   1.735  0.0093 -1.5388 -1.4082
   89SOL    HW2  267   1.167   0.122   1.906 -0.8372 -0.2180  0.6929
   90SOL     OW  268   3.015   1.870   1.677 -0.3123 -0.3414 -0.1370
   90SOL    HW1  269   2.934   1.898   1.622 -1.7645 -1.8563 -2.2222
   90SOL    HW2  270   3.063   1.956   1.703 -1.9176 -0.8509  1.5722
   91SOL     OW  271   1.170   1.671   0.692 -0.4843  0.0649 -0.3922
   91SOL    HW1  272   1.180   1.666   0.592  1.2745  3.0435 -2.2067
   91SOL    HW2  273   1.153   1.768   0.727 -0.7298 -2.5921 -0.9368
   92SOL     OW  274   2.360   3.101   1.004  0.4632  0.7754  0.0169
   92SOL    HW1  275   2.320   0.034   1.088 -1.1717 -1.6886 -0.5788
   92SOL    HW2  276   2.463   0.018   1.006 -0.1632 -1.0040  0.1819
   93SOL     OW  277   2.561   1.253   2.941 -0.4197  0.3145 -0.0513
   93SOL    HW1  278   2.583   1.248   3.038 -0.1960  0.7498 -1.9731
   93SOL    HW2  279   2.649   1.251   2.888  1.8811 -0.7315 -1.6262
   94SOL     OW  280   2.696   2.497   2.599  0.1494  0.4595 -0.2476
   94SOL    HW1  281   2.651   2.407   2.585 -1.1922  2.0894  0.1421
   94SOL    HW2  282   2.626   2.569   2.629 -0.8719 -5.1176  2.8047
   95SOL     OW  283   1.720   0.343   1.500 -0.3362 -0.2497  0.1899
   95SOL    HW1  284   1.797   0.405   1.467 -1.8916  2.0397  2.4964
   95SOL    HW2  285   1.731   0.246   1.469 -0.9478  2.0980 -2.6116
   96SOL     OW  286   2.841   0.029   1.716  0.0686 -0.4535 -0.2060
   96SOL    HW1  287   2.857   3.058   1.647 -0.9754 -0.9543  3.5450
   96SOL    HW2  288   2.924   0.053   1.770  1.3082  0.9719 -0.9362
   97SOL     OW  289   2.393   0.118   1.507 -0.9370 -0.3051 -0.2170
   97SOL    HW1  290   2.478   0.173   1.476  1.9340  0.0981 -0.8165
   97SOL    HW2  291   2.348   0.172   1.581 -0.1935 -1.3191 -1.2405
   98SOL     OW  292   1.301   2.293   1.539 -0.1952  0.1109  0.3312
   98SOL    HW1  293   1.391   2.341   1.526  0.7652 -0.3271 -0.1932
   98SOL    HW2  294   1.270   2.255   1.449  1.0325  1.7535 -1.2096
   99SOL     OW  295   0.064   2.965   1.836  0.0482  0.2421  0.5813
   99SOL    HW1  296   0.159   2.957   1.877 -1.8295 -0.9493 -1.0021
   99SOL    HW2  297   0.022   3.048   1.873  2.8612  1.3355  3.1371
  100SOL     OW  298   0.199   1.073   2.308 -0.2905 -0.2687  0.1496
  100SOL    HW1  299   0.210   1.068   2.206  0.8735  1.3812  0.2104
  100SOL    HW2  300   0.265   1.146   2.349 -0.6975  2.2952  0.1477
  101SOL     OW  301   1.981   0.657   0.498 -0.3154 -0.1975 -1.2730
  101SOL    HW1  302   2.065   0.687   0.451 -2.0473 -0.5452  0.1788
  101SOL    HW2  303   1.915   0.730   0.523  1.4577 -2.4875 -0.5708
  102SOL     OW  304   0.326   0.668   1.083 -0.0761 -0.0193  0.7588
  102SOL    HW1  305   0.330   0.602   1.009  1.3327  0.9202 -0.5505
  102SOL    HW2  306   0.261   0.744   1.062  0.0692 -1.7463 -0.8247
  103SOL     OW  307   2.648   0.828   2.597 -0.1434  0.4759 -0.3952
  103SOL    HW1  308   2.623   0.819   2.699 -0.7371 -2.1351  1.1658
  103SOL    HW2  309   2.607   0.912   2.556  1.4488 -1.0486  1.4944
  104SOL     OW  310   0.370   0.382   2.569 -0.5772 -0.1682 -0.0743
  104SOL    HW1  311   0.434   0.302   2.586 -1.7472  1.0612 -0.9732
  104SOL    HW2  312   0.367   0.443   2.651  0.8243 -2.3996  1.8888
  105SOL     OW  313   2.026   0.928   1.639  0.3152  0.2892 -0.1348
  105SOL    HW1  314   2.073   0.893   1.559 -0.6968  1.5679  3.0680
  105SOL    HW2  315   1.974   1.012   1.619  0.7224  1.1727 -0.0788
  106SOL     OW  316   1.216   2.742   0.378  0.2237  0.3024  0.0458
  106SOL    HW1  317   1.292   2.807   0.412  2.0197  1.0028  0.8983
  106SOL    HW2  318   1.248   2.643   0.383  3.1909 -0.9269  1.0670
  107SOL     OW  319   0.364   1.845   1.556 -0.2266 -0.2416 -0.0761
  107SOL    HW1  320   0.265   1.838   1.520 -0.5869 -2.4638 -0.2373
  107SOL    HW2  321   0.425   1.801   1.491 -1.6935  1.2902  2.1397
  108SOL     OW  322   0.314   0.032   2.466 -0.3098  0.1085 -0.4463
  108SOL    HW1  323   0.306   3.057   2.540 -1.7907 -1.1103  1.7971
  108SOL    HW2  324   0.405   0.084   2.483 -2.4465  1.7589 -1.4671
  109SOL     OW  325   2.203   0.090   0.413 -0.2461 -0.2768  0.0064
  109SOL    HW1  326   2.240   0.099   0.322  1.2577  0.8134  3.2681
  109SOL    HW2  327   2.211   0.178   0.464  0.1382  2.9076 -1.2115
  110SOL     OW  328   0.275   2.233   2.374 -0.2231 -0.4835 -0.4014
  110SOL    HW1  329   0.282   2.331   2.338  1.9746  3.3297 -0.7952
  110SOL    HW2  330   0.349   2.216   2.442  3.5486 -0.9391 -2.0607
  111SOL     OW  331   1.778   2.842   2.224 -0.1177  0.3047  0.6718
  111SOL    HW1  332   1.686   2.879   2.197  2.3095 -2.2987 -1.3045
  111SOL    HW2  333   1.839   2.919   2.249 -0.2705  1.9278 -0.6361
  112SOL     OW  334   1.911   2.163   2.635 -0.1769 -0.0585 -0.3933
  112SOL    HW1  335   1.836   2.201   2.574  2.9228 -1.1543 -0.7136
  112SOL    HW2  336   1.917   2.060   2.636  4.8357 -0.8011 -0.4484
  113SOL     OW  337   2.451   2.484   1.889  0.6740 -0.1536  0.2876
  113SOL    HW1  338   2.507   2.534   1.955  0.3305 -2.8482  0.6126
  113SOL    HW2  339   2.500   2.403   1.858  1.2323 -0.0714 -0.6442
  114SOL     OW  340   2.537   0.897   0.836 -0.1444 -0.5290  0.4570
  114SOL    HW1  341   2.596   0.844   0.776 -1.5290  1.6795  1.2281
  114SOL    HW2  342   2.535   0.998   0.807  0.5790  2.6004 -0.6042
  115SOL     OW  343   0.300   1.602   2.816 -0.2516  0.2093  0.4009
  115SOL    HW1  344   0.285   1.600   2.916 -1.8251  2.5786 -2.2036
  115SOL    HW2  345   0.250   1.676   2.764  1.2850 -0.0678 -1.2561
  116SOL     OW  346   0.312   1.411   2.126 -0.5844 -0.2142  0.2042
  116SOL    HW1  347   0.317   1.505   2.091  2.6020 -1.8241  0.2667
  116SOL    HW2  348   0.217   1.395   2.154  2.7079 -0.3714 -0.4747
  117SOL     OW  349   2.840   0.368   0.752 -0.0250 -0.1135  0.3976
  117SOL    HW1  350   2.857   0.380   0.851 -0.3298  0.4541 -1.2683
  117SOL    HW2  351   2.746   0.329   0.734 -2.3636  2.5614 -1.2004
  118SOL     OW  352   1.047   2.028   1.855  0.7467 -0.3743 -0.1465
  118SOL    HW1  353   1.018   2.108   1.794 -0.7164 -1.7191 -0.8685
  118SOL    HW2  354   1.145   2.045   1.883 -0.0647 -0.4877 -0.7432
  119SOL     OW  355   1.356   2.079   0.006  0.3515 -1.0064  0.3247
  119SOL    HW1  356   1.334   2.035   3.019 -0.6076  2.3938  2.0947
  119SOL    HW2  357   1.268   2.115   0.046  0.2989 -0.5011  2.2901
  120SOL     OW  358   0.328   1.378   2.421  0.2493 -0.0706 -0.5217
  120SOL    HW1  359   0.265   1.454   2.451 -0.1264  1.3334  2.1544
  120SOL    HW2  360   0.387   1.399   2.344 -0.6434  1.2271  2.9369
  121SOL     OW  361   1.981   2.567   1.020  0.4850  0.2318  0.1097
  121SOL    HW1  362   2.043   2.599   0.943 -1.5126 -1.4040 -0.1753
  121SOL    HW2  363   1.882   2.561   0.988 -0.3794 -2.5336  2.9436
  122SOL     OW  364   2.152   2.101   2.027 -0.5735  0.3398 -0.0590
  122SOL    HW1  365   2.246   2.067   2.043 -3.0180 -2.0365 -0.7371
  122SOL    HW2  366   2.157   2.197   1.997  1.3311  0.2893 -2.7797
  123SOL     OW  367   0.041   0.166   0.909 -0.1937  0.4149 -0.2902
  123SOL    HW1  368   0.005   0.167   0.810  0.3340  0.5790 -0.5293
  123SOL    HW2  369   0.136   0.127   0.908 -1.8187 -0.2943  0.3432
  124SOL     OW  370   1.898   0.491   2.481 -0.0626  0.6858  0.1665
  124SOL    HW1  371   1.806   0.455   2.509 -2.0218  2.4417  0.7135
  124SOL    HW2  372   1.920   0.451   2.389 -0.1078 -2.3879 -2.1416
  125SOL     OW  373   0.444   1.498   0.681  0.1352  0.5135  0.0609
  125SOL    HW1  374   0.511   1.535   0.746 -0.7193  2.0457  2.8825
  125SOL    HW2  375   0.477   1.474   0.584 -0.3994  1.5720  0.3640
  126SOL     OW  376   2.554   1.652   0.523 -0.2310 -0.3322 -0.3882
  126SOL    HW1  377   2.626   1.692   0.460 -1.7753  2.7890 -3.1911
  126SOL    HW2  378   2.506   1.723   0.577 -2.0858 -0.4609  1.6711
  127SOL     OW  379   0.124   1.789   1.462  0.1944 -0.4301 -0.6173
  127SOL    HW1  380   0.058   1.822   1.532 -0.8025 -0.8871  1.1618
  127SOL    HW2  381   0.085   1.818   1.371  0.6392  1.4966 -1.8337
  128SOL     OW  382   0.878   0.536   2.840 -0.4718  0.3920  0.1358
  128SOL    HW1  383   0.924   0.512   2.927 -0.1894 -2.7163  1.4809
  128SOL    HW2  384   0.931   0.607   2.795  2.2449 -0.7663 -0.1258
  129SOL     OW  385   2.030   1.566   0.991 -0.1360  0.0920 -0.6256
  129SOL    HW1  386   2.014   1.524   1.086 -1.2263  0.5905  1.2331
  129SOL    HW2  387   1.945   1.619   0.963  0.7335  1.0348 -1.6568
  130SOL     OW  388   2.180   1.488   1.449  0.0772 -0.7264  0.6742
  130SOL    HW1  389   2.169   1.445   1.355 -0.5682 -1.7818 -3.1463
  130SOL    HW2  390   2.274   1.466   1.483  0.3142 -0.4930 -2.7771
  131SOL     OW  391   2.833   0.920   2.933 -0.0418 -0.3227  0.4416
  131SOL    HW1  392   2.919   0.977   2.955  2.0275  2.0928  2.4589
  131SOL    HW2  393   2.846   0.823   2.913  0.6493  0.6544  0.1811
  132SOL     OW  394   2.604   2.285   1.749  0.3453  0.3529 -0.4818
  132SOL    HW1  395   2.658   2.335   1.675  0.8002  1.7412 -0.5136
  132SOL    HW2  396   2.669   2.225   1.804  0.3782  2.4546  0.0566
  133SOL     OW  397   0.653   0.963   0.990 -0.3000 -0.5555  0.0803
  133SOL    HW1  398   0.723   1.039   0.977  2.3408  1.5364  1.1742
  133SOL    HW2  399   0.703   0.884   1.035  3.6730 -1.5035  0.3255
  134SOL     OW  400   0.268   0.961   0.304 -0.7467  0.0520  0.3858
  134SOL    HW1  401   0.267   0.892   0.379 -0.5693  1.6698 -2.9378
  134SOL    HW2  402   0.201   0.938   0.235  3.8301  1.2985  0.6063
  135SOL     OW  403   2.019   1.413   1.218  0.2222 -0.0094 -0.3960
  135SOL    HW1  404   2.047   1.344   1.149 -1.9221  1.0487  0.0873
  135SOL    HW2  405   1.941   1.379   1.269  3.0095 -0.3899  0.1062
  136SOL     OW  406   2.101   0.961   0.674 -0.1423  0.7802 -0.0376
  136SOL    HW1  407   2.182   0.903   0.701 -1.9366  2.6470 -2.7131
  136SOL    HW2  408   2.104   0.974   0.569 -4.9716 -0.7800 -0.9055
  137SOL     OW  409   2.490   1.830   0.743  0.4208  0.0942 -0.0969
  137SOL    HW1  410   2.424   1.785   0.808 -0.5348  2.1382 -2.5495
  137SOL    HW2  411   2.563   1.873   0.799 -0.7944 -1.6960  2.4449
  138SOL     OW  412   1.723   0.737   1.991  0.1741  0.3812 -0.3021
  138SOL    HW1  413   1.624   0.730   2.018 -0.5421 -2.6026  0.1922
  138SOL    HW2  414   1.731   0.756   1.891 -0.0111 -0.5203  0.6694
  139SOL     OW  415   2.389   3.008   3.017  0.1309  0.4346  0.0580
  139SOL    HW1  416   2.402   2.909   3.020 -1.9781 -0.0113 -0.6276
  139SOL    HW2  417   2.371   3.033   2.920 -2.0434 -0.4676  1.5941
  140SOL     OW  418   1.584   2.109   2.138  0.1269  0.5483  0.4092
  140SOL    HW1  419   1.606   2.177   2.206  2.2761 -0.9564  0.9967
  140SOL    HW2  420   1.541   2.022   2.174 -1.2115 -2.0078 -2.3147
  141SOL     OW  421   1.797   1.676   1.273 -0.4852  0.0699  0.7845
  141SOL    HW1  422   1.865   1.663   1.347  0.7209 -1.2184 -2.8869
  141SOL    HW2  423   1.702   1.662   1.306 -0.5054  0.2575  1.3460
  142SOL     OW  424   0.082   0.250   0.064 -0.0871 -0.4931  0.4061
  142SOL    HW1  425   0.053   0.175   0.128  0.7107  1.2456 -1.1344
  142SOL    HW2  426   0.021   0.244   3.080 -2.7793  0.1810 -2.5145
  143SOL     OW  427   0.151   2.174   2.844  0.7029  0.0456 -0.7020
  143SOL    HW1  428   0.208   2.112   2.905 -1.4075 -2.5236  0.0204
  143SOL    HW2  429   0.209   2.239   2.792  3.0210 -1.8304  0.8703
  144SOL     OW  430   0.770   2.848   1.945  0.4926 -0.0133  0.0161
  144SOL    HW1  431   0.699   2.793   1.993 -0.3326 -1.0965  1.6321
  144SOL    HW2  432   0.852   2.790   1.943  0.5094  2.1751 -0.1635
  145SOL     OW  433   1.968   1.220   0.312  0.4725 -0.2333  0.1255
  145SOL    HW1  434   1.982   1.306   0.371  0.5446  0.9099  2.0628
  145SOL    HW2  435   1.997   1.235   0.215 -0.5729 -1.8808 -1.4990
  146SOL     OW  436   2.732   2.804   2.867  0.2974 -0.2313 -0.0561
  146SOL    HW1  437   2.685   2.854   2.791 -2.5023 -2.3938  1.0873
  146SOL    HW2  438   2.819   2.848   2.895  1.1535 -0.5791 -0.2664
  147SOL     OW  439   2.857   2.428   1.012 -0.0301 -0.2155  0.3479
  147SOL    HW1  440   2.916   2.401   1.088 -4.6171  2.7436 -2.7943
  147SOL    HW2  441   2.768   2.380   1.015  1.1713  2.2478 -1.9833
  148SOL     OW  442   1.984   3.007   2.864  0.1048  0.2932 -0.5701
  148SOL    HW1  443   2.041   2.976   2.939 -1.3677 -0.4319 -2.1018
  148SOL    HW2  444   2.009   2.958   2.778  0.0795  1.8052 -0.1211
  149SOL     OW  445   1.236   0.386   2.702 -0.4358 -0.0390  0.6197
  149SOL    HW1  446   1.260   0.466   2.759  0.9703  0.0291 -0.0681
  149SOL    HW2  447   1.139   0.368   2.692 -0.9483 -1.0236  0.9463
  150SOL     OW  448   0.824   2.503   0.549  0.3135  0.3119  0.0662
  150SOL    HW1  449   0.749   2.448   0.507 -0.4393 -0.4492  1.1110
  150SOL    HW2  450   0.795   2.560   0.629 -1.6764  0.3316  1.0650
  151SOL     OW  451   2.944   1.641   0.199 -0.1420 -0.3425  0.2823
  151SOL    HW1  452   2.900   1.595   0.118  0.4212 -0.7491  0.4101
  151SOL    HW2  453   2.988   1.731   0.176  3.8357  0.1119 -0.5940
  152SOL     OW  454   0.046   1.297   0.916  0.2700 -0.1629  0.7784
  152SOL    HW1  455   0.118   1.368   0.906  3.7192 -0.6994  2.4342
  152SOL    HW2  456   0.049   1.256   1.007  0.6419  0.4624 -0.7371
  153SOL     OW  457   2.402   2.746   0.339  0.0735  0.4562  0.0698
  153SOL    HW1  458   2.432   2.695   0.420  0.2714  2.5259 -1.4849
  153SOL    HW2  459   2.339   2.826   0.368 -3.9506 -0.4594  1.2831
  154SOL     OW  460   0.866   0.610   1.526  0.4795 -0.1437  0.0714
  154SOL    HW1  461   0.804   0.531   1.537  1.1179 -2.0017 -3.5289
  154SOL    HW2  462   0.841   0.687   1.588  0.9321 -0.9847  0.0070
  155SOL     OW  463   3.053   1.857   1.248 -0.2372  0.0495 -0.6284
  155SOL    HW1  464   2.983   1.787   1.263  1.1614  1.8790 -0.9876
  155SOL    HW2  465   3.025   1.944   1.291 -0.2433 -0.3399 -0.3625
  156SOL     OW  466   2.106   1.971   2.956 -0.5395  0.3609  0.3506
  156SOL    HW1  467   2.130   1.906   3.028 -0.8956 -1.5759 -0.3567
  156SOL    HW2  468   2.121   2.068   2.971 -0.2493 -1.1612 -0.8164
  157SOL     OW  469   0.899   2.743   0.974 -0.2321 -0.5744 -0.1036
  157SOL    HW1  470   0.849   2.719   1.057  0.9773 -1.0715  0.5627
  157SOL    HW2  471   0.932   2.843   0.969  1.0204  4.9994  1.9915
  158SOL     OW  472   2.540   0.520   2.611 -0.1854  0.0088  0.2213
  158SOL    HW1  473   2.447   0.490   2.642  1.7261 -1.4874 -1.6478
  158SOL    HW2  474   2.553   0.619   2.636  0.1198 -1.0323  2.4848
  159SOL     OW  475   0.750   0.220   2.980 -0.0852  0.0515 -0.2229
  159SOL    HW1  476   0.819   0.255   2.914 -0.3578  1.1286 -2.3454
  159SOL    HW2  477   0.671   0.289   2.990 -2.1586  0.6624 -1.6006
  160SOL     OW  478   0.820   2.121   3.005  0.3126  0.3113  0.5055
  160SOL    HW1  479   0.794   2.219   2.984 -2.3204  1.4507  0.1077
  160SOL    HW2  480   0.857   2.081   2.919 -2.1148 -1.8470  0.4934
  161SOL     OW  481   3.007   2.136   3.014  0.1872 -0.4917 -0.1368
  161SOL    HW1  482   3.088   2.139   2.951  0.9939  0.6885 -1.6627
  161SOL    HW2  483   2.977   2.234   3.035 -1.0895 -0.2301 -1.3667
  162SOL     OW  484   0.488   2.593   1.222  0.3725 -0.1335 -0.2025
  162SOL    HW1  485   0.482   2.545   1.131  0.4422  0.6393  2.6842
  162SOL    HW2  486   0.415   2.664   1.241 -0.5624 -0.1403  0.7791
  163SOL     OW  487   2.555   0.781   2.859 -0.2224  0.0025 -0.3756
  163SOL    HW1  488   2.502   0.863   2.882 -0.2819  0.6419 -2.4199
  163SOL    HW2  489   2.572   0.722   2.943  0.4666  0.8255  1.1487
  164SOL     OW  490   2.973   2.307   0.777  0.4388  0.2418 -0.1854
  164SOL    HW1  491   2.937   2.218   0.746 -0.1583  0.3827 -0.1379
  164SOL    HW2  492   2.939   2.332   0.871  1.3462  1.3793  0.3092
  165SOL     OW  493   2.832   0.218   1.412  0.1547 -0.4112 -0.2939
  165SOL    HW1  494   2.875   0.213   1.501 -0.2438 -1.2132 -3.6134
  165SOL    HW2  495   2.847   0.130   1.362 -1.6642 -0.8290 -0.0337
  166SOL     OW  496   2.271   0.247   0.646  0.1787  0.3703  0.2017
  166SOL    HW1  497   2.342   0.299   0.590  0.1782  1.6727 -0.3996
  166SOL    HW2  498   2.243   0.310   0.723 -1.2664 -0.0183 -2.3244
  167SOL     OW  499   0.426   0.137   1.087  0.5841  0.1647 -0.1001
  167SOL    HW1  500   0.449   0.147   1.185  1.4873  0.0828 -0.2968
  167SOL    HW2  501   0.501   0.168   1.030 -0.5150  0.6409  1.5644
  168SOL     OW  502   2.605   2.816   2.376 -0.0837  0.1114 -0.1759
  168SOL    HW1  503   2.690   2.814   2.436  3.1482 -0.2930  1.9156
  168SOL    HW2  504   2.525   2.782   2.426 -0.6950 -0.6134  2.0756
  169SOL     OW  505   3.063   1.590   0.750  0.2544 -0.0259 -0.2165
  169SOL    HW1  506   0.038   1.565   0.690 -1.9925  0.6044  1.0240
  169SOL    HW2  507   0.011   1.643   0.820  0.9686  0.0226 -0.3532
  170SOL     OW  508   2.540   1.068   1.139  0.0779 -0.3539  0.5115
  170SOL    HW1  509   2.588   0.982   1.113  1.2079 -1.3277  0.4979
  170SOL    HW2  510   2.520   1.078   1.238 -0.2140 -1.3388 -0.7616
  171SOL     OW  511   1.129   2.497   1.663  0.2539  0.4868  0.5658
  171SOL    HW1  512   1.196   2.428   1.617  1.4078 -1.1959  0.3569
  171SOL    HW2  513   1.131   2.591   1.620 -2.0145  1.4483  1.5599
  172SOL     OW  514   0.472   2.448   1.456 -0.1122  0.4550 -0.0504
  172SOL    HW1  515   0.458   2.347   1.431 -1.1388  0.3221  1.8329
  172SOL    HW2  516   0.464   2.501   1.371 -0.2064 -1.2763 -0.8516
  173SOL     OW  517   1.411   2.936   0.051  0.3343 -0.1446 -0.6827
  173SOL    HW1  518   1.480   2.865   0.074 -1.2589 -1.4421  1.5839
  173SOL    HW2  519   1.443   3.031   0.053 -3.7077 -2.3294 -0.3822
  174SOL     OW  520   1.204   2.651   2.539 -0.4482  0.3908 -0.2421
  174SOL    HW1  521   1.232   2.728   2.598  0.4732 -1.5605  1.9590
  174SOL    HW2  522   1.219   2.558   2.583  2.0785 -2.7254  1.0958
  175SOL     OW  523   1.901   0.138   0.148 -0.0604 -0.0038 -0.1011
  175SOL    HW1  524   1.871   0.220   0.097  0.4656 -1.5055  2.3457
  175SOL    HW2  525   1.885   0.140   0.247  1.2856 -1.0453 -0.1014
  176SOL     OW  526   1.546   0.089   0.054 -0.9564 -0.2686  0.1814
  176SOL    HW1  527   1.601   0.065   3.071  2.3834 -0.2575 -1.4089
  176SOL    HW2  528   1.607   0.127   0.128 -0.2922  0.4588  0.8113
  177SOL     OW  529   1.005   1.444   0.566 -0.1808  0.1601  0.1020
  177SOL    HW1  530   0.934   1.473   0.630  1.3547  2.7104 -3.3187
  177SOL    HW2  531   1.066   1.521   0.529  0.7297  0.1207 -1.3846
  178SOL     OW  532   2.321   1.758   2.212  0.0566  0.2971 -0.5481
  178SOL    HW1  533   2.320   1.726   2.115  0.5728  0.4991  0.7617
  178SOL    HW2  534   2.371   1.692   2.275  0.3203  0.7466 -0.0266
  179SOL     OW  535   0.453   2.602   2.823 -0.0745  0.0072  0.1894
  179SOL    HW1  536   0.485   2.696   2.819  0.9114 -1.8064  1.5533
  179SOL    HW2  537   0.484   2.553   2.738  1.5790  1.0952 -1.0847
  180SOL     OW  538   1.733   1.952   1.765  0.1219 -0.4467 -0.4472
  180SOL    HW1  539   1.834   1.937   1.791  0.2512 -0.4115  0.5721
  180SOL    HW2  540   1.688   2.030   1.814 -2.3608  1.4457 -2.6738
  181SOL     OW  541   1.408   1.209   2.524  0.4938 -0.7265 -0.0536
  181SOL    HW1  542   1.359   1.296   2.552  1.4715  0.2492 -0.9404
  181SOL    HW2  543   1.343   1.132   2.521  0.5291 -2.9560 -1.7643
  182SOL     OW  544   0.084   0.397   2.759 -0.1827  0.4433 -0.2523
  182SOL    HW1  545   0.082   0.349   2.667 -2.6475 -1.5424  2.5997
  182SOL    HW2  546   0.179   0.408   2.790  0.8414 -2.8610  1.5962
  183SOL     OW  547   1.199   0.196   2.948  0.3808  0.4205  0.1356
  183SOL    HW1  548   1.122   0.224   2.884  0.5876 -0.9678 -0.3049
  183SOL    HW2  549   1.275   0.159   2.889  3.6545  2.1711 -3.1160
  184SOL     OW  550   1.337   1.042   1.300 -0.0385 -0.1437  0.6056
  184SOL    HW1  551   1.336   1.140   1.278  2.2832  1.0725 -0.6773
  184SOL    HW2  552   1.413   0.995   1.252  1.3622 -0.5198 -2.7812
  185SOL     OW  553   0.020   1.250   1.445  0.4050 -0.1401  0.0329
  185SOL    HW1  554   0.044   1.329   1.508  3.0429  4.4421 -0.1843
  185SOL    HW2  555   3.021   1.240   1.430 -1.4843  0.8985 -0.0796
  186SOL     OW  556   0.467   1.759   2.660  0.0369  0.2456  0.0422
  186SOL    HW1  557   0.563   1.732   2.644  0.1020 -1.4431  0.4558
  186SOL    HW2  558   0.418   1.683   2.702 -2.4130 -0.4449  0.5673
  187SOL     OW  559   2.661   1.303   0.374  0.0537 -0.2158  0.2464
  187SOL    HW1  560   2.695   1.267   0.283 -0.9720  0.5745 -0.0628
  187SOL    HW2  561   2.718   1.373   0.413 -2.8737 -1.5798  0.9745
  188SOL     OW  562   0.123   2.250   0.689  0.4055  0.0809 -0.3612
  188SOL    HW1  563   0.111   2.208   0.595  0.3624  1.7956  0.9370
  188SOL    HW2  564   0.036   2.288   0.729  0.7284  1.3145 -0.4132
  189SOL     OW  565   2.626   0.974   0.010 -0.0924  0.6062 -0.1785
  189SOL    HW1  566   2.678   0.957   3.024  1.4152 -0.6591 -1.3898
  189SOL    HW2  567   2.616   0.879   0.052  0.2371 -2.0103  0.8837
  190SOL     OW  568   1.234   1.428   2.231  0.3290  0.3218 -0.1841
  190SOL    HW1  569   1.204   1.329   2.234 -1.1685 -1.2541 -0.1248
  190SOL    HW2  570   1.184   1.478   2.302  0.5514  2.4563 -0.3818
  191SOL     OW  571   2.426   0.473   1.868 -0.6939  0.5820  0.1613
  191SOL    HW1  572   2.422   0.369   1.862 -0.4928  0.6361 -0.5433
  191SOL    HW2  573   2.418   0.500   1.965  0.1537  0.0910  0.7807
  192SOL     OW  574   2.157   0.310   1.679  0.0278  0.0185 -0.1898
  192SOL    HW1  575   2.191   0.253   1.759 -0.5670 -1.4034  1.0560
  192SOL    HW2  576   2.158   0.407   1.708  2.3905 -0.2764  0.2738
  193SOL     OW  577   1.032   0.557   0.330 -0.5788  0.2800 -0.2337
  193SOL    HW1  578   1.028   0.544   0.428 -0.0091  3.1011 -5.9565
  193SOL    HW2  579   0.938   0.570   0.295  1.2611 -0.8898 -1.2781
  194SOL     OW  580   1.206   2.937   1.139  0.6308 -0.3170 -0.0897
  194SOL    HW1  581   1.281   2.943   1.076 -2.6597  0.9140  1.9795
  194SOL    HW2  582   1.122   2.976   1.095 -0.6782  0.4394  3.2992
  195SOL     OW  583   2.437   0.681   0.575 -0.3568 -0.1864  0.1988
  195SOL    HW1  584   2.496   0.756   0.543 -1.0201 -0.7501 -0.3853
  195SOL    HW2  585   2.373   0.713   0.650 -2.7322  0.2176 -0.6077
  196SOL     OW  586   1.546   1.823   1.927 -0.3253  0.0721 -0.2017
  196SOL    HW1  587   1.623   1.863   1.866 -0.9008  1.8346 -1.9330
  196SOL    HW2  588   1.456   1.873   1.922 -0.6744 -1.5226 -0.2194
  197SOL     OW  589   0.173   2.937   0.508  0.4405 -0.1606  0.3276
  197SOL    HW1  590   0.174   3.030   0.557 -1.1320  1.0383 -2.1852
  197SOL    HW2  591   0.197   2.865   0.576  0.7367  1.7411 -1.0153
  198SOL     OW  592   1.030   1.239   0.406 -0.5608 -1.1415  0.2064
  198SOL    HW1  593   1.014   1.309   0.480 -0.7496  1.3258 -1.1202
  198SOL    HW2  594   0.970   1.159   0.432 -1.7176 -1.1281  0.9256
  199SOL     OW  595   2.907   0.719   1.865 -0.1211  0.2506 -0.7541
  199SOL    HW1  596   2.968   0.743   1.948  4.6731 -0.0178  3.2160
  199SOL    HW2  597   2.915   0.787   1.789  1.9629  1.6071  2.1533
  200SOL     OW  598   2.344   1.821   2.606 -0.9574  0.1999 -0.1532
  200SOL    HW1  599   2.374   1.883   2.531 -0.5634 -0.8331  1.2490
  200SOL    HW2  600   2.411   1.816   2.685 -0.1111 -1.4858 -1.0127
  201SOL     OW  601   2.274   3.083   0.709 -0.2501 -0.2937  0.2955
  201SOL    HW1  602   2.287   3.079   0.809  0.5905  2.3028 -1.6766
  201SOL    HW2  603   2.258   0.077   0.672 -0.1809  2.4820 -3.0058
  202SOL     OW  604   2.624   0.701   0.082 -0.2147  0.1133  0.1481
  202SOL    HW1  605   2.644   0.611   0.040  0.6227 -1.2414  2.4553
  202SOL    HW2  606   2.660   0.694   0.178  0.9524 -0.0889  0.7082
  203SOL     OW  607   1.529   1.832   2.201  0.7316 -0.0689  0.2339
  203SOL    HW1  608   1.538   1.824   2.097 -0.6800  0.2172  1.1079
  203SOL    HW2  609   1.582   1.754   2.241  0.1223  0.3487 -0.5275
  204SOL     OW  610   0.868   1.836   2.304  0.1699  0.7256  0.7878
  204SOL    HW1  611   0.886   1.885   2.218 -1.1270 -4.0762  0.8659
  204SOL    HW2  612   0.935   1.758   2.311  2.5412  0.5644 -0.7673
  205SOL     OW  613   1.258   1.854   1.604 -0.3509  0.5079  0.2043
  205SOL    HW1  614   1.355   1.872   1.610 -1.2641  1.5104  1.3621
  205SOL    HW2  615   1.222   1.826   1.695 -0.7658 -2.8664 -3.0602
  206SOL     OW  616   0.092   0.811   2.944 -0.0635 -0.2143  0.2017
  206SOL    HW1  617   0.044   0.727   2.901 -0.2137 -1.9909 -1.1726
  206SOL    HW2  618   0.082   0.888   2.878 -0.6306 -0.5435  0.1582
  207SOL     OW  619   1.778   2.643   2.408  0.3914  0.9286 -0.3433
  207SOL    HW1  620   1.681   2.655   2.435  1.7935  0.6782  0.3956
  207SOL    HW2  621   1.801   2.704   2.329  2.7826  0.0372 -0.6475
  208SOL     OW  622   0.412   2.284   1.779  0.4093  0.2117  0.2164
  208SOL    HW1  623   0.375   2.198   1.733 -0.8641  1.5709 -1.4945
  208SOL    HW2  624   0.375   2.366   1.731  2.4838  1.0559 -1.9902
  209SOL     OW  625   1.512   0.723   2.743 -0.4408  0.4809 -0.4505
  209SOL    HW1  626   1.559   0.808   2.780 -0.5112  0.0169  2.0808
  209SOL    HW2  627   1.563   0.676   2.670  2.0523  0.3804  0.2444
  210SOL     OW  628   2.293   0.813   0.789 -0.0330 -0.5087  0.2084
  210SOL    HW1  629   2.255   0.750   0.858 -1.0010 -2.1710 -2.2873
  210SOL    HW2  630   2.378   0.854   0.818 -1.6638 -0.2948 -3.2096
  211SOL     OW  631   1.012   0.620   0.633 -0.2974 -0.1256  0.0928
  211SOL    HW1  632   0.952   0.640   0.714 -1.2668  0.5973  0.6780
  211SOL    HW2  633   1.071   0.541   0.654  1.5351  0.4455  1.4288
  212SOL     OW  634   1.289   1.521   0.216 -0.1943 -0.1121 -0.0918
  212SOL    HW1  635   1.317   1.434   0.177  1.1649  0.9205  0.0853
  212SOL    HW2  636   1.298   1.590   0.144 -1.1960  1.2625  0.5776
  213SOL     OW  637   1.480   0.076   2.245 -0.5720  0.0554 -0.2667
  213SOL    HW1  638   1.410   0.137   2.289  0.7898  2.0609  1.5910
  213SOL    HW2  639   1.552   0.049   2.316  0.7005  0.3829 -0.0817
  214SOL     OW  640   1.697   1.194   2.454 -0.1280 -0.2177 -0.4285
  214SOL    HW1  641   1.752   1.276   2.461  0.5253 -0.7528  0.8465
  214SOL    HW2  642   1.598   1.209   2.476 -1.4103  0.1090  1.8346
  215SOL     OW  643   0.619   1.612   0.888 -0.3322  0.6296  0.3350
  215SOL    HW1  644   0.699   1.630   0.955  0.1271 -0.0599  4.2904
  215SOL    HW2  645   0.535   1.653   0.928  1.0813 -0.9183  0.2881
  216SOL     OW  646   0.512   2.823   2.246  0.0871 -0.6211  0.1319
  216SOL    HW1  647   0.440   2.898   2.242 -1.5775 -0.3855  0.1900
  216SOL    HW2  648   0.594   2.861   2.297  0.3900  2.0034 -2.0968
  217SOL     OW  649   2.346   0.718   0.117 -0.0114 -0.1635  0.6132
  217SOL    HW1  650   2.442   0.701   0.080  0.3804 -3.5211 -0.6839
  217SOL    HW2  651   2.319   0.817   0.093 -0.5853  1.2260  0.4564
  218SOL     OW  652   2.087   1.909   2.211 -0.3739  0.1510 -0.4240
  218SOL    HW1  653   2.159   1.842   2.221 -0.7161  0.7155 -1.1698
  218SOL    HW2  654   2.110   1.973   2.135  1.2845 -1.1165 -0.6110
  219SOL     OW  655   1.780   1.588   0.064 -0.1221 -0.3552  0.2825
  219SOL    HW1  656   1.806   1.676   0.110 -1.9605  2.1832 -3.6924
  219SOL    HW2  657   1.856   1.520   0.053  1.5363 -0.7709 -2.9224
  220SOL     OW  658   1.494   1.711   1.112  0.1321 -0.2026 -0.2498
  220SOL    HW1  659   1.495   1.782   1.186  6.0585 -0.7036 -1.3587
  220SOL    HW2  660   1.516   1.742   1.018 -0.9588 -1.7528 -0.9743
  221SOL     OW  661   0.448   0.728   2.765  0.5224 -0.5667 -0.4147
  221SOL    HW1  662   0.454   0.802   2.837 -2.0886 -0.5820  1.4197
  221SOL    HW2  663   0.540   0.688   2.749 -1.6989  2.1692  0.5134
  222SOL     OW  664   1.027   1.948   1.516 -0.0422  0.1936 -0.0866
  222SOL    HW1  665   1.009   2.036   1.570  0.8437  1.1816  0.9957
  222SOL    HW2  666   1.120   1.918   1.542  2.5256 -1.9922  1.0401
  223SOL     OW  667   1.267   3.085   2.657 -0.7307 -0.7529  0.2002
  223SOL    HW1  668   1.338   0.010   2.727  0.3889  1.4712  1.0553
  223SOL    HW2  669   1.208   3.002   2.683 -0.4139 -1.8546  2.0239
  224SOL     OW  670   2.750   1.213   0.760 -0.0981 -0.2064  0.1393
  224SOL    HW1  671   2.707   1.306   0.747  1.4043 -1.6276  0.5438
  224SOL    HW2  672   2.744   1.162   0.673  2.0999 -2.4146 -1.0201
  225SOL     OW  673   1.317   1.004   1.558  0.3545  0.1846  0.6319
  225SOL    HW1  674   1.404   0.969   1.596 -0.4655  1.6996 -1.1770
  225SOL    HW2  675   1.321   1.031   1.459  1.9378  1.0499  1.6889
  226SOL     OW  676   1.358   2.209   2.630 -0.0076 -0.0877  0.0147
  226SOL    HW1  677   1.333   2.297   2.677  1.4804  2.2273  1.3986
  226SOL    HW2  678   1.454   2.207   2.588 -0.3841 -0.0173 -0.7361
  227SOL     OW  679   1.220   1.927   1.113 -0.1137  0.1013 -0.3838
  227SOL    HW1  680   1.314   1.970   1.131 -0.9582  0.8196 -3.2606
  227SOL    HW2  681   1.148   1.990   1.157  1.4790  0.2394 -0.6194
  228SOL     OW  682   0.606   2.046   1.144 -0.0946  0.2119  0.2088
  228SOL    HW1  683   0.536   1.976   1.135 -1.4648 -1.0117 -1.5925
  228SOL    HW2  684   0.697   2.007   1.156 -1.1959 -1.6090 -1.6917
  229SOL     OW  685   2.038   0.632   3.029 -0.0184 -0.2017 -0.0763
  229SOL    HW1  686   1.953   0.630   2.977  2.5994 -1.1848  2.5739
  229SOL    HW2  687   2.126   0.641   2.973  0.8542 -1.1511  1.7952
  230SOL     OW  688   0.974   0.743   2.082 -0.3811  0.0347  0.3286
  230SOL    HW1  689   0.975   0.642   2.069 -2.1597  1.5895  0.9645
  230SOL    HW2  690   1.063   0.774   2.139  2.6589  0.5817  0.5690
  231SOL     OW  691   1.247   1.833   2.205  0.3373 -0.2928  0.1597
  231SOL    HW1  692   1.179   1.764   2.235 -0.3080 -1.5654 -0.1485
  231SOL    HW2  693   1.339   1.793   2.219 -1.5609  1.6631 -0.5877
  232SOL     OW  694   2.075   2.076   1.074  0.3240 -0.2564 -0.0128
  232SOL    HW1  695   1.986   2.062   1.017 -0.2880 -1.1302 -0.7974
  232SOL    HW2  696   2.105   2.175   1.089  3.2717 -1.0892 -1.3964
  233SOL     OW  697   1.946   2.375   2.792 -0.4865  0.2143 -0.0140
  233SOL    HW1  698   1.952   2.297   2.724 -1.5656 -2.9508 -3.0730
  233SOL    HW2  699   2.033   2.428   2.798 -0.7816  1.8832  1.0069
  234SOL     OW  700   1.164   2.824   2.768 -0.5103  0.0047  0.1221
  234SOL    HW1  701   1.179   2.750   2.836 -1.1567  3.1800  1.3823
  234SOL    HW2  702   1.117   2.902   2.808  0.6343  1.1586 -0.7613
  235SOL     OW  703   2.580   2.975   0.263 -0.3301  0.2442 -0.2101
  235SOL    HW1  704   2.581   2.872   0.256  0.9453 -3.3804 -1.9101
  235SOL    HW2  705   2.592   3.013   0.167  2.3783 -0.5868 -1.9041
  236SOL     OW  706   2.509   2.297   2.343  0.2613 -0.1941 -0.0807
  236SOL    HW1  707   2.543   2.246   2.262 -0.8044  0.4860  0.0204
  236SOL    HW2  708   2.539   2.253   2.427 -0.9448  2.9407 -1.6640
  237SOL     OW  709   1.394   1.328   1.800  0.0384  0.6409 -0.2510
  237SOL    HW1  710   1.486   1.293   1.770  3.7044  0.4419 -0.4362
  237SOL    HW2  711   1.332   1.347   1.718 -0.5616 -0.7115  1.2068
  238SOL     OW  712   2.196   0.237   2.462 -0.3173  0.1714  0.3665
  238SOL    HW1  713   2.219   0.323   2.409 -1.7038  1.1571  2.1416
  238SOL    HW2  714   2.132   0.259   2.539  0.6777 -1.0100  0.4481
  239SOL     OW  715   0.324   1.718   2.276  0.0217 -0.3245  0.0487
  239SOL    HW1  716   0.405   1.771   2.311  0.7003 -0.2372  1.0057
  239SOL    HW2  717   0.333   1.701   2.177 -1.5165 -1.3217 -0.2558
  240SOL     OW  718   2.591   2.828   0.883  0.5262  0.4972 -0.2870
  240SOL    HW1  719   2.673   2.782   0.925 -0.4243  0.5319  0.1589
  240SOL    HW2  720   2.628   2.903   0.824  2.1846 -2.6699  1.1806
  241SOL     OW  721   1.932   2.159   0.571 -0.3064 -0.2099 -0.4801
  241SOL    HW1  722   1.844   2.117   0.598 -0.5457  1.9517  0.0550
  241SOL    HW2  723   1.930   2.174   0.471 -0.4127  0.0273 -2.3596
  242SOL     OW  724   1.281   1.695   2.519  0.0866 -0.2475 -0.0499
  242SOL    HW1  725   1.324   1.782   2.547  0.0951 -0.1313  1.4747
  242SOL    HW2  726   1.197   1.715   2.471  1.9751  3.6542  2.2145
  243SOL     OW  727   0.662   2.648   2.097  0.2744  0.4238 -0.1108
  243SOL    HW1  728   0.605   2.714   2.143  1.7686 -3.9756 -0.7379
  243SOL    HW2  729   0.761   2.653   2.131  0.0443 -0.4454 -0.3683
  244SOL     OW  730   2.321   3.024   2.715 -0.0469 -0.5894  0.0813
  244SOL    HW1  731   2.362   3.076   2.638  2.8947 -1.5831 -1.3356
  244SOL    HW2  732   2.226   2.989   2.698 -0.8232  3.1686  0.7779
  245SOL     OW  733   1.356   2.506   0.363  0.3052  0.0717 -0.1371
  245SOL    HW1  734   1.334   2.405   0.346 -0.6567 -0.4506  1.0981
  245SOL    HW2  735   1.401   2.543   0.275  1.0156 -0.7174 -2.2935
  246SOL     OW  736   0.940   2.956   0.037  0.6229  0.0361  0.2336
  246SOL    HW1  737   0.884   3.036   0.078 -1.6417  4.0546  3.0840
  246SOL    HW2  738   1.029   2.937   0.086  0.4755  3.0625  0.8565
  247SOL     OW  739   0.345   0.842   1.916 -1.0135  0.0754 -0.5528
  247SOL    HW1  740   0.390   0.888   1.839 -2.7243 -1.5527  1.4355
  247SOL    HW2  741   0.407   0.790   1.980  2.0867 -0.6016 -1.6091
  248SOL     OW  742   1.105   1.191   2.186 -0.4118 -0.3406 -0.1751
  248SOL    HW1  743   1.007   1.192   2.217  0.9248  3.1348 -1.1063
  248SOL    HW2  744   1.119   1.121   2.107 -0.3243 -1.9362  0.4765
  249SOL     OW  745   2.320   0.419   0.149 -0.0647 -0.2409  0.0444
  249SOL    HW1  746   2.252   0.361   0.098  2.3867  2.5161 -0.5242
  249SOL    HW2  747   2.333   0.509   0.101 -1.9188  2.1295  0.3695
  250SOL     OW  748   0.856   3.080   0.648 -0.0105  0.0932  0.2792
  250SOL    HW1  749   0.773   3.077   0.713 -1.0439 -1.9565  2.0210
  250SOL    HW2  750   0.823   3.056   0.556 -1.7029  2.9131  1.5196
  251SOL     OW  751   1.703   2.906   2.675 -0.0435  0.2065  0.2928
  251SOL    HW1  752   1.805   2.892   2.690 -0.9329  0.8405  0.9370
  251SOL    HW2  753   1.651   2.876   2.757  1.4639 -2.1086  0.7522
  252SOL     OW  754   1.680   1.421   2.137 -0.2760  0.6150 -0.1876
  252SOL    HW1  755   1.633   1.453   2.220  1.6132 -1.3711 -1.7387
  252SOL    HW2  756   1.753   1.357   2.168 -1.2556 -0.5742  0.6358
  253SOL     OW  757   2.367   2.848   1.981 -0.8907 -0.1646  0.4857
  253SOL    HW1  758   2.466   2.864   2.003 -0.5868  0.7477 -2.7370
  253SOL    HW2  759   2.320   2.786   2.049 -1.0305 -1.7692  1.9277
  254SOL     OW  760   0.802   1.641   1.088  0.3132 -0.2550 -0.1757
  254SOL    HW1  761   0.873   1.594   1.033 -1.2036  2.0427 -1.2156
  254SOL    HW2  762   0.791   1.596   1.178  1.8891  2.3440 -0.9631
  255SOL     OW  763   1.256   0.848   0.976  0.2102 -0.2027 -0.2614
  255SOL    HW1  764   1.171   0.863   0.920  1.8576 -0.9634  0.9977
  255SOL    HW2  765   1.234   0.792   1.058  1.7387  2.3757 -3.4963
  256SOL     OW  766   1.854   2.267   1.847  0.6729 -0.3097 -0.4808
  256SOL    HW1  767   1.891   2.324   1.924 -2.9416  1.2180  1.5133
  256SOL    HW2  768   1.933   2.235   1.788  0.7837 -1.0067  1.3605
  257SOL     OW  769   0.162   2.820   3.072 -0.5278 -0.5964  0.1299
  257SOL    HW1  770   0.189   2.912   3.031 -0.5755 -0.5032 -0.6241
  257SOL    HW2  771   0.166   2.745   3.000 -1.8142 -1.1645 -2.9955
  258SOL     OW  772   0.770   0.015   1.944  0.0858 -0.7669  0.4708
  258SOL    HW1  773   0.824   0.060   2.019 -0.8594 -1.0781 -1.9047
  258SOL    HW2  774   0.786   3.017   1.955 -1.8620  0.8291  3.2653
  259SOL     OW  775   0.939   0.071   2.137 -0.1215  0.3478 -0.6038
  259SOL    HW1  776   1.036   0.080   2.107 -1.4169  1.1898  0.8337
  259SOL    HW2  777   0.931   3.091   2.199 -1.8329 -1.3763  2.1245
  260SOL     OW  778   1.542   0.538   0.762  0.7469  0.1576  0.5015
  260SOL    HW1  779   1.504   0.444   0.770  3.0114 -0.6983  0.7030
  260SOL    HW2  780   1.638   0.550   0.776 -0.4506  1.2998  2.4057
  261SOL     OW  781   0.351   0.488   2.833  0.7382 -0.0448 -0.3080
  261SOL    HW1  782   0.423   0.450   2.888  1.5531  0.7343 -0.1989
  261SOL    HW2  783   0.361   0.589   2.822 -0.2674  0.6626 -2.4048
  262SOL     OW  784   2.711   2.596   1.981  0.4840 -0.0115 -0.3035
  262SOL    HW1  785   2.794   2.532   1.987 -1.3073 -3.3420  2.0593
  262SOL    HW2  786   2.719   2.662   1.905  0.4368  0.7973  0.5998
  263SOL     OW  787   2.717   1.769   2.119 -0.0629  0.2238 -0.3377
  263SOL    HW1  788   2.814   1.738   2.108  1.7713 -0.2887  0.0235
  263SOL    HW2  789   2.693   1.776   2.218  0.6697 -1.0440 -2.2266
  264SOL     OW  790   0.853   1.153   0.947  0.3524 -0.2916 -0.3745
  264SOL    HW1  791   0.827   1.234   0.891 -0.5899 -0.1093  1.0746
  264SOL    HW2  792   0.885   1.181   1.044  0.0586 -2.6366  3.2442
  265SOL     OW  793   0.439   2.110   0.148  0.6457  0.3954  0.0938
  265SOL    HW1  794   0.538   2.105   0.117  0.2123 -0.8396 -0.4095
  265SOL    HW2  795   0.396   2.200   0.120 -1.3602  0.5787 -0.4860
  266SOL     OW  796   1.329   0.941   0.553 -0.3440  0.3742 -0.1560
  266SOL    HW1  797   1.348   0.916   0.456 -0.4130  2.8468  0.0712
  266SOL    HW2  798   1.228   0.941   0.563 -2.2468 -0.4772  1.6455
  267SOL     OW  799   3.007   1.188   0.186  0.4297  0.5841  0.0970
  267SOL    HW1  800   3.023   1.233   0.280  3.8071  3.8938  1.6611
  267SOL    HW2  801   3.085   1.208   0.125 -1.4570  0.8354 -0.4770
  268SOL     OW  802   2.333   0.243   3.019 -0.2496  0.1796 -0.0464
  268SOL    HW1  803   2.404   0.197   2.961  0.4827  1.6833 -0.1058
  268SOL    HW2  804   2.291   0.175   3.083 -0.2055 -2.0457 -2.6936
  269SOL     OW  805   1.686   0.437   2.690  0.0103 -0.0537  0.1773
  269SOL    HW1  806   1.681   0.333   2.683 -2.6196 -2.7398 -2.4857
  269SOL    HW2  807   1.626   0.476   2.618 -1.5781 -3.2392 -0.2838
  270SOL     OW  808   0.721   0.839   2.971  0.6762  0.4942  0.1750
  270SOL    HW1  809   0.766   0.888   3.046 -1.4060  1.5253 -0.2711
  270SOL    HW2  810   0.734   0.888   2.884 -0.6148 -2.2918  1.4563
  271SOL     OW  811   2.953   0.989   0.366 -0.5534  0.3960  0.0534
  271SOL    HW1  812   2.966   0.897   0.333  0.3374  2.5937 -1.4076
  271SOL    HW2  813   2.961   1.046   0.280  0.2191  1.5878 -2.8825
  272SOL     OW  814   0.040   1.749   2.956 -0.5072  0.2170 -0.2153
  272SOL    HW1  815   3.060   1.711   2.913  0.0876  1.0117  2.3951
  272SOL    HW2  816   0.082   1.817   2.894  2.0984  0.2601 -1.7961
  273SOL     OW  817   2.497   3.033   0.545  0.0557 -0.1654  0.2114
  273SOL    HW1  818   2.403   3.070   0.556  2.7981 -0.1027  0.2901
  273SOL    HW2  819   2.531   3.019   0.449 -1.1936 -0.8522 -1.6354
  274SOL     OW  820   0.462   2.461   0.996 -0.3897 -0.3143  0.2458
  274SOL    HW1  821   0.539   2.393   1.009  0.2262  0.5003  0.8320
  274SOL    HW2  822   0.423   2.457   0.903  1.3793 -1.9644 -0.7271
  275SOL     OW  823   2.402   1.261   0.387 -0.3334 -0.0396  0.0886
  275SOL    HW1  824   2.503   1.277   0.381  0.4095 -2.7022 -1.4516
  275SOL    HW2  825   2.381   1.191   0.454 -0.7467  2.3448  1.9293
  276SOL     OW  826   3.018   1.170   2.296  0.3000  0.0645 -0.5030
  276SOL    HW1  827   0.018   1.145   2.314 -0.2162  1.1472  0.0716
  276SOL    HW2  828   2.951   1.115   2.353 -1.2034  0.1086 -0.1260
  277SOL     OW  829   1.944   2.699   1.271  0.0154  0.2742  0.2364
  277SOL    HW1  830   2.027   2.747   1.297 -1.3629 -0.7260 -0.7236
  277SOL    HW2  831   1.954   2.655   1.182 -4.2949  3.3788  3.1248
  278SOL     OW  832   1.228   0.110   2.057 -0.1371 -0.4764 -0.1188
  278SOL    HW1  833   1.294   0.042   2.009 -0.9226 -2.0621  0.0937
  278SOL    HW2  834   1.285   0.190   2.092  2.6664  0.5255 -2.1601
  279SOL     OW  835   1.596   1.804   0.381 -0.2289  0.1286  0.5698
  279SOL    HW1  836   1.689   1.767   0.395 -2.3142 -1.2026 -0.2102
  279SOL    HW2  837   1.597   1.898   0.350 -0.4340 -2.0261  0.8147
  280SOL     OW  838   3.081   1.944   0.994  0.3336 -0.5077  0.8752
  280SOL    HW1  839   0.028   1.878   0.933 -0.1528 -1.6324 -2.8679
  280SOL    HW2  840   3.085   1.908   1.088  0.5523  0.8176 -0.1269
  281SOL     OW  841   2.945   0.457   2.446 -0.3758 -0.0514  0.1221
  281SOL    HW1  842   3.040   0.428   2.452 -0.9858  0.3471 -0.5049
  281SOL    HW2  843   2.893   0.396   2.505  0.7800  3.1398 -0.2562
  282SOL     OW  844   0.711   0.831   0.602 -0.3211 -0.0757  0.0137
  282SOL    HW1  845   0.629   0.891   0.600  1.4822 -0.4715  1.0615
  282SOL    HW2  846   0.798   0.873   0.576 -1.7156 -2.5137 -1.5791
  283SOL     OW  847   1.638   1.863   2.870  0.4622 -0.0231 -0.7128
  283SOL    HW1  848   1.616   1.962   2.855  0.1037 -0.9775 -0.8670
  283SOL    HW2  849   1.708   1.838   2.803 -3.1996 -1.5355  1.9130
  284SOL     OW  850   1.449   0.822   0.347  0.4504  0.1702 -0.0547
  284SOL    HW1  851   1.544   0.840   0.314  0.1888 -0.7640 -0.7062
  284SOL    HW2  852   1.435   0.732   0.391 -0.1830 -0.5584 -0.4701
  285SOL     OW  853   1.912   0.852   2.753 -0.3543 -0.2933 -0.6072
  285SOL    HW1  854   1.875   0.894   2.671 -1.0889 -0.8061 -0.0893
  285SOL    HW2  855   1.858   0.772   2.784 -1.1860 -1.8092 -2.3878
  286SOL     OW  856   1.458   2.674   1.542  0.5765  0.0660 -0.0282
  286SOL    HW1  857   1.464   2.569   1.531 -0.0753 -2.8405 -1.7564
  286SOL    HW2  858   1.545   2.717   1.508  1.0846 -0.1617  0.3868
  287SOL     OW  859   1.071   1.054   0.808  0.3784 -0.0757 -0.2060
  287SOL    HW1  860   0.982   1.083   0.857 -2.1418 -0.6393 -2.4404
  287SOL    HW2  861   1.056   0.999   0.724 -0.0540 -0.4040  1.6882
  288SOL     OW  862   0.980   2.605   0.340  0.2962 -0.4871  0.5293
  288SOL    HW1  863   1.049   2.681   0.340 -1.1217  0.5143 -1.1946
  288SOL    HW2  864   0.942   2.589   0.432  0.8877 -0.1140 -0.8341
  289SOL     OW  865   0.429   1.499   1.689 -0.5244 -0.4666 -0.4972
  289SOL    HW1  866   0.479   1.580   1.729 -1.2237 -0.9355  0.0085
  289SOL    HW2  867   0.396   1.441   1.766  0.3106  5.4326 -0.4790
  290SOL     OW  868   1.718   2.188   0.845 -0.0612  0.8128 -0.0509
  290SOL    HW1  869   1.767   2.101   0.860  1.8841  1.4919 -0.1332
  290SOL    HW2  870   1.675   2.218   0.935 -1.7242  1.4802 -0.7424
  291SOL     OW  871   1.823   2.650   3.073  0.8751 -0.1109  1.0771
  291SOL    HW1  872   1.828   2.644   2.967 -1.4508 -0.9156 -2.4313
  291SOL    HW2  873   1.779   2.561   3.098 -0.5241  0.2200 -0.6226
  292SOL     OW  874   1.190   0.489   1.888  0.0743 -0.3439  0.1699
  292SOL    HW1  875   1.214   0.572   1.835  0.9572  1.2828 -0.6758
  292SOL    HW2  876   1.097   0.493   1.922 -4.2403 -0.1628  0.7149
  293SOL     OW  877   1.851   2.415   0.717  0.0456 -0.2142 -0.3979
  293SOL    HW1  878   1.821   2.327   0.753 -0.2940  0.7626  1.7129
  293SOL    HW2  879   1.829   2.495   0.778  0.3248 -0.4375  0.6784
  294SOL     OW  880   0.466   0.560   2.387  0.2281 -0.2923 -0.7856
  294SOL    HW1  881   0.467   0.657   2.416 -0.2580 -0.5611 -1.2156
  294SOL    HW2  882   0.435   0.494   2.460  0.6776 -1.1107 -0.7725
  295SOL     OW  883   1.537   1.805   0.826  0.6582 -0.2130  1.2224
  295SOL    HW1  884   1.512   1.712   0.790  0.0032 -0.5509  1.3962
  295SOL    HW2  885   1.492   1.881   0.773 -0.4764  3.6331 -2.1598
  296SOL     OW  886   2.104   1.823   0.108 -0.2527 -0.2681 -0.2209
  296SOL    HW1  887   2.144   1.879   0.184  0.7774  3.3997  0.6213
  296SOL    HW2  888   2.100   1.720   0.134 -0.4178 -4.4222  1.0230
  297SOL     OW  889   2.255   0.052   0.098  0.1061 -0.5666  0.3198
  297SOL    HW1  890   2.165   0.002   0.107  1.2555 -1.7658 -0.9855
  297SOL    HW2  891   2.310   3.096   0.030  1.9478  1.0353 -1.7709
  298SOL     OW  892   1.031   2.497   2.321  0.8090  0.6025 -0.7430
  298SOL    HW1  893   1.018   2.569   2.396 -1.9611  2.2100  1.0281
  298SOL    HW2  894   1.126   2.471   2.312 -2.7607 -0.3810 -1.1376
  299SOL     OW  895   1.317   2.885   2.234  0.2065  0.0540 -0.7308
  299SOL    HW1  896   1.216   2.881   2.231 -1.3972  1.0034  1.5744
  299SOL    HW2  897   1.347   2.892   2.329  0.8330  0.0927 -0.5972
  300SOL     OW  898   2.559   0.141   2.831 -0.2587 -0.0200  0.1689
  300SOL    HW1  899   2.473   0.161   2.779 -1.6091 -0.4472 -1.5089
  300SOL    HW2  900   2.638   0.176   2.774 -1.2268  3.2770  0.3416
  301SOL     OW  901   1.710   0.796   2.329 -0.1160  0.2431 -0.4077
  301SOL    HW1  902   1.683   0.888   2.285 -1.4406  0.1548  0.0506
  301SOL    HW2  903   1.779   0.753   2.272 -0.6753  1.8555  0.2011
  302SOL     OW  904   2.427   2.378   0.217 -0.2584 -0.3644  0.1908
  302SOL    HW1  905   2.455   2.294   0.272  1.7168 -2.9010  0.4769
  302SOL    HW2  906   2.504   2.442   0.193  0.6361 -2.1341  0.3417
  303SOL     OW  907   2.842   2.689   2.475 -0.4698 -0.4574 -0.4322
  303SOL    HW1  908   2.877   2.678   2.381 -0.9675  1.3170 -0.0636
  303SOL    HW2  909   2.809   2.602   2.515  0.2556  0.5032 -0.3575
  304SOL     OW  910   2.748   0.564   1.631 -0.5736 -0.0581 -0.3118
  304SOL    HW1  911   2.838   0.597   1.661 -2.3604  0.1326 -2.5905
  304SOL    HW2  912   2.747   0.467   1.651 -0.2717 -0.7132  1.2580
  305SOL     OW  913   0.733   2.235   1.724  0.2940  0.3379  0.8063
  305SOL    HW1  914   0.709   2.266   1.630 -0.8623 -1.5291  0.8759
  305SOL    HW2  915   0.697   2.302   1.795 -0.9211  0.3285  0.1047
  306SOL     OW  916   2.936   0.932   1.693 -0.3467 -0.2790 -0.2713
  306SOL    HW1  917   2.871   1.006   1.661 -0.4632  1.4771  1.1013
  306SOL    HW2  918   3.028   0.965   1.710  0.1351 -1.6955 -0.7912
  307SOL     OW  919   1.458   0.755   2.022  0.3287  0.8071  0.5196
  307SOL    HW1  920   1.395   0.768   2.101 -0.5748  1.1483  0.3934
  307SOL    HW2  921   1.412   0.717   1.938  0.1812  1.3222 -1.5552
  308SOL     OW  922   2.840   1.472   1.106 -0.0372 -0.4592 -0.0396
  308SOL    HW1  923   2.848   1.530   1.026  0.7658 -3.1870  4.7663
  308SOL    HW2  924   2.829   1.376   1.079 -0.1676  1.3761 -1.1760
  309SOL     OW  925   2.382   1.423   0.861  0.4085 -0.0190  0.9270
  309SOL    HW1  926   2.285   1.427   0.825  1.0749  1.3339 -1.0772
  309SOL    HW2  927   2.402   1.480   0.941  0.4092 -1.1526 -3.0479
  310SOL     OW  928   2.864   1.694   2.849 -0.1679  0.1327  0.0316
  310SOL    HW1  929   2.881   1.796   2.856 -0.7326 -1.8507 -1.1006
  310SOL    HW2  930   2.796   1.672   2.921  1.0193  3.2100 -2.7504
  311SOL     OW  931   3.081   2.740   2.771  0.4058 -0.4921  0.6100
  311SOL    HW1  932   3.011   2.669   2.784  1.1015 -1.5318  0.5046
  311SOL    HW2  933   0.066   2.711   2.818 -0.0158 -1.4195 -0.4195
  312SOL     OW  934   2.109   1.824   0.637 -0.8216  1.2059 -0.2134
  312SOL    HW1  935   2.095   1.859   0.544  1.0027  1.5151  1.2023
  312SOL    HW2  936   2.021   1.787   0.673  0.7073  1.2498  1.9458
  313SOL     OW  937   2.673   0.018   0.941  0.5020 -0.1199 -0.0194
  313SOL    HW1  938   2.680   3.071   0.848 -1.3528  0.6700 -1.9497
  313SOL    HW2  939   2.625   0.108   0.927 -2.1566 -1.1269  0.5192
  314SOL     OW  940   1.355   1.320   0.065  0.1954  0.9556  0.5954
  314SOL    HW1  941   1.328   1.242   0.125 -2.3295 -2.8227  0.3537
  314SOL    HW2  942   1.458   1.347   0.058  1.1354 -0.4280  0.3455
  315SOL     OW  943   1.394   2.685   2.087 -0.0086  0.1164 -0.2379
  315SOL    HW1  944   1.343   2.749   2.145  0.8114 -1.0546 -1.6102
  315SOL    HW2  945   1.363   2.699   1.988 -1.1330  1.7084 -1.0841
  316SOL     OW  946   0.008   0.946   0.595  0.5053 -0.1423  0.3078
  316SOL    HW1  947   3.052   0.936   0.506  0.4039 -3.4602 -2.6307
  316SOL    HW2  948   3.051   0.986   0.667 -0.2027  0.1005  0.5281
  317SOL     OW  949   0.475   3.093   0.417 -0.2333  0.0083 -0.4601
  317SOL    HW1  950   0.395   3.098   0.479  3.1003  1.0801  2.9364
  317SOL    HW2  951   0.525   3.008   0.435 -2.2248  1.7815 -0.9069
  318SOL     OW  952   2.248   2.319   0.407 -0.3297  0.6006 -0.9850
  318SOL    HW1  953   2.217   2.232   0.364 -0.2384  0.3286  0.0281
  318SOL    HW2  954   2.314   2.364   0.346  0.6006  0.1059  1.3062
  319SOL     OW  955   0.979   1.389   2.628 -0.3875 -0.3866  0.0718
  319SOL    HW1  956   0.922   1.392   2.712 -1.7338 -0.2189 -4.4441
  319SOL    HW2  957   0.918   1.386   2.544  2.2198 -2.3252  1.6386
  320SOL     OW  958   0.132   2.612   2.010 -0.4950 -0.4841  0.1287
  320SOL    HW1  959   0.225   2.618   1.965 -0.2183  0.2736 -2.4671
  320SOL    HW2  960   0.057   2.636   1.940 -3.0142  0.1179 -3.4046
  321SOL     OW  961   1.488   2.627   2.767  0.2825  0.8593  0.0825
  321SOL    HW1  962   1.573   2.569   2.776 -0.4948  2.4021  1.4676
  321SOL    HW2  963   1.406   2.570   2.789 -0.9435  0.7676 -0.2583
  322SOL     OW  964   3.033   1.424   2.221 -0.0818  0.5503  0.3482
  322SOL    HW1  965   3.022   1.324   2.256 -0.3860 -0.1494  0.5703
  322SOL    HW2  966   3.050   1.434   2.119  0.8657 -0.8260 -0.8819
  323SOL     OW  967   2.358   1.014   0.511 -0.5708  0.6063  0.0303
  323SOL    HW1  968   2.275   1.008   0.451 -1.9048 -0.2451 -0.9588
  323SOL    HW2  969   2.440   0.958   0.475  0.8797 -1.0251  2.7966
  324SOL     OW  970   2.895   2.985   2.989  0.3282  0.1123 -0.7516
  324SOL    HW1  971   2.813   3.028   3.025 -1.7295 -1.3362  0.8425
  324SOL    HW2  972   2.928   2.930   3.068  0.7888  1.0501 -0.0019
  325SOL     OW  973   1.354   0.207   2.507 -0.0025  0.5856  0.4595
  325SOL    HW1  974   1.317   0.112   2.530  0.2387 -3.8163 -1.8260
  325SOL    HW2  975   1.334   0.277   2.579  3.2871 -0.0281 -1.0538
  326SOL     OW  976   2.206   2.973   1.480 -0.0916 -0.5625 -0.0477
  326SOL    HW1  977   2.258   3.058   1.466  1.1298  2.5081 -0.1945
  326SOL    HW2  978   2.236   2.913   1.558 -1.2062 -1.8898  1.5601
  327SOL     OW  979   1.917   0.177   2.822  0.2903 -0.3970  0.2853
  327SOL    HW1  980   1.944   0.078   2.823  1.4483 -1.8706  0.5486
  327SOL    HW2  981   1.865   0.201   2.907  0.0996 -0.1704 -0.8720
  328SOL     OW  982   0.011   0.887   2.321  0.0698  0.1068 -0.0748
  328SOL    HW1  983   0.090   0.950   2.305 -0.9329 -1.9451  1.7826
  328SOL    HW2  984   3.040   0.920   2.387  0.6735  0.0540 -2.5825
  329SOL     OW  985   1.881   0.020   1.871 -0.4002 -0.4193 -0.0843
  329SOL    HW1  986   1.957   0.036   1.806  0.9335  3.4474 -0.1175
  329SOL    HW2  987   1.884   0.082   1.953  0.4843  0.3038  0.1865
  330SOL     OW  988   2.884   1.660   1.313  0.7158  0.2646  0.4261
  330SOL    HW1  989   2.902   1.584   1.248 -0.5035  2.4464  1.2863
  330SOL    HW2  990   2.887   1.630   1.410  0.5151  0.3776 -2.6452
  331SOL     OW  991   0.604   1.790   2.228  0.0907 -0.1642  0.2168
  331SOL    HW1  992   0.697   1.811   2.270  3.1100 -0.3315  2.3986
  331SOL    HW2  993   0.599   1.690   2.201  4.0177 -1.4406 -2.3055
  332SOL     OW  994   0.012   2.857   1.584  0.2033 -0.0229 -0.0877
  332SOL    HW1  995   0.037   2.913   1.666 -0.6744  1.7245  0.0513
  332SOL    HW2  996   0.058   2.896   1.506 -1.1565  1.9302  3.1674
  333SOL     OW  997   2.216   2.796   1.267 -0.0464  0.7257 -0.3375
  333SOL    HW1  998   2.213   2.859   1.346  1.9117 -2.1463 -2.4418
  333SOL    HW2  999   2.260   2.708   1.294 -0.6508 -3.3528  0.1717
  334SOL     OW 1000   0.847   1.912   1.050  0.2202 -0.2664 -0.1694
  334SOL    HW1 1001   0.822   1.817   1.080 -1.8364  1.9287 -1.7615
  334SOL    HW2 1002   0.872   1.918   0.953 -0.4217  1.8500  0.4426
  335SOL     OW 1003   0.134   2.391   3.060 -0.3836 -0.1230 -0.2513
  335SOL    HW1 1004   0.121   2.329   2.981  1.1011 -0.7622  2.1166
  335SOL    HW2 1005   0.042   2.409   0.002 -1.1821 -0.4263  2.1942
  336SOL     OW 1006   0.278   2.984   2.237  0.3776  0.1249  0.2264
  336SOL    HW1 1007   0.282   3.053   2.311 -0.2206 -0.4461  0.8297
  336SOL    HW2 1008   0.228   2.897   2.269 -0.1068 -0.2808 -0.5771
  337SOL     OW 1009   2.494   1.815   2.818  0.4325  0.2701 -0.0589
  337SOL    HW1 1010   2.420   1.770   2.876 -2.2700 -0.3739 -1.0166
  337SOL    HW2 1011   2.526   1.902   2.864  1.2453  0.2680 -1.4786
  338SOL     OW 1012   1.160   1.659   1.154  0.1483  0.4052  0.1281
  338SOL    HW1 1013   1.188   1.752   1.124 -1.6875  1.0979  1.5359
  338SOL    HW2 1014   1.207   1.584   1.100  3.3448  1.0375 -3.3076
  339SOL     OW 1015   0.017   0.660   1.616 -0.0622  0.3021  0.2007
  339SOL    HW1 1016   3.092   0.564   1.614  2.3265  2.9884 -1.1763
  339SOL    HW2 1017   0.057   0.684   1.707  1.3012  1.4324  0.2727
  340SOL     OW 1018   1.372   2.584   0.102  0.1380 -0.0756 -0.1476
  340SOL    HW1 1019   1.396   2.509   0.047  2.6947  1.9599  1.0944
  340SOL    HW2 1020   1.313   2.643   0.041 -0.8153  0.2205 -0.5172
  341SOL     OW 1021   1.762   1.663   0.991 -0.5003 -0.4959 -0.4299
  341SOL    HW1 1022   1.776   1.685   1.089  0.6464  0.2972 -1.5119
  341SOL    HW2 1023   1.701   1.585   0.984 -0.5818 -1.9794  1.2899
  342SOL     OW 1024   2.835   2.499   0.605  0.1835  0.5819  0.0194
  342SOL    HW1 1025   2.803   2.405   0.637 -1.5644 -0.2564  0.9813
  342SOL    HW2 1026   2.906   2.486   0.533  1.5037 -0.6516  0.9704
  343SOL     OW 1027   1.587   2.244   1.083  0.1673 -0.5459 -0.3130
  343SOL    HW1 1028   1.532   2.323   1.119  1.6917 -1.5345 -0.9644
  343SOL    HW2 1029   1.563   2.155   1.128  0.4549  1.1200 -1.3760
  344SOL     OW 1030   2.122   2.665   0.813  0.2489  0.6267  0.7394
  344SOL    HW1 1031   2.055   2.695   0.738  1.8419  0.6458 -1.3943
  344SOL    HW2 1032   2.210   2.714   0.794 -0.2443 -0.2928 -0.8957
  345SOL     OW 1033   2.845   1.965   2.887 -0.4081  0.5565  0.4974
  345SOL    HW1 1034   2.750   1.988   2.916  2.1143 -2.8616 -3.0926
  345SOL    HW2 1035   2.915   2.025   2.927  0.5992  0.1561 -1.6854
  346SOL     OW 1036   2.683   1.841   0.922 -0.1461  0.0872 -0.0118
  346SOL    HW1 1037   2.649   1.822   1.015 -0.5248 -2.0252  0.1421
  346SOL    HW2 1038   2.729   1.759   0.884 -2.2816  1.7155  2.3461
  347SOL     OW 1039   2.184   2.398   1.396  0.3624 -0.2341  0.4471
  347SOL    HW1 1040   2.141   2.429   1.481 -0.6646  2.6830  0.5239
  347SOL    HW2 1041   2.248   2.472   1.371  1.3799  2.7289 -0.5318
  348SOL     OW 1042   0.710   1.672   2.614  0.2596 -0.5985  0.5424
  348SOL    HW1 1043   0.740   1.766   2.598  1.7482  0.6738 -1.8262
  348SOL    HW2 1044   0.753   1.627   2.692  0.3927  2.5163 -1.0851
  349SOL     OW 1045   2.255   1.263   1.898 -0.6934 -0.4575 -0.1987
  349SOL    HW1 1046   2.168   1.305   1.923  3.1962 -0.7001 -1.0333
  349SOL    HW2 1047   2.325   1.337   1.867  1.1452  1.1552 -1.2316
  350SOL     OW 1048   0.166   2.375   1.118  0.3527 -0.3095  0.7238
  350SOL    HW1 1049   0.251   2.414   1.084 -0.4019 -1.2430 -0.4266
  350SOL    HW2 1050   0.157   2.278   1.088 -1.4064  0.3227 -1.9284
  351SOL     OW 1051   0.241   0.552   2.232  0.2030  0.4613 -0.2758
  351SOL    HW1 1052   0.164   0.610   2.264  3.9793 -0.3082 -3.4120
  351SOL    HW2 1053   0.301   0.541   2.311 -5.4293  2.1635  0.6085
  352SOL     OW 1054   0.738   2.348   1.463 -0.2172 -1.0598 -0.0973
  352SOL    HW1 1055   0.808   2.428   1.473 -1.0524  2.0954 -0.2770
  352SOL    HW2 1056   0.644   2.383   1.458  0.0138 -3.6128 -0.3513
  353SOL     OW 1057   1.467   1.533   2.321 -0.2247  0.5575 -0.1055
  353SOL    HW1 1058   1.397   1.490   2.266  3.7264  2.7088  0.7216
  353SOL    HW2 1059   1.420   1.593   2.390 -2.3084  1.7412  1.2418
  354SOL     OW 1060   1.546   0.782   0.662 -0.2026  0.2261  0.4111
  354SOL    HW1 1061   1.516   0.692   0.695  1.3745 -0.1812 -3.0889
  354SOL    HW2 1062   1.473   0.831   0.617 -1.4495  0.3414  0.1909
  355SOL     OW 1063   2.579   0.876   0.445 -0.4862  0.3784 -0.6953
  355SOL    HW1 1064   2.628   0.810   0.383 -0.2377 -1.9315 -0.0410
  355SOL    HW2 1065   2.652   0.933   0.486  1.5575  0.0932 -2.7084
  356SOL     OW 1066   2.714   1.118   2.758 -0.1841 -0.3532  0.0615
  356SOL    HW1 1067   2.763   1.044   2.810  1.3584 -0.4165 -0.7762
  356SOL    HW2 1068   2.621   1.093   2.742  0.8612  0.7427  1.5776
  357SOL     OW 1069   0.884   2.558   1.481 -0.0882 -0.1846 -0.5174
  357SOL    HW1 1070   0.904   2.628   1.412 -1.3595  0.1727  1.2442
  357SOL    HW2 1071   0.947   2.555   1.561 -2.0724 -0.4242  0.0580
  358SOL     OW 1072   2.426   1.055   1.975  0.3141 -0.0824  0.0787
  358SOL    HW1 1073   2.349   1.112   1.942  0.1973 -1.6992 -1.6453
  358SOL    HW2 1074   2.388   0.966   2.005 -1.0855  1.0291 -1.6964
  359SOL     OW 1075   2.092   2.269   2.996 -0.7945 -0.8496  0.1157
  359SOL    HW1 1076   2.123   2.315   3.083 -1.3654 -0.0379  2.5455
  359SOL    HW2 1077   2.016   2.319   2.957  0.9001  1.2529  1.0097
  360SOL     OW 1078   2.215   0.435   0.832  0.1527  0.1131  0.5983
  360SOL    HW1 1079   2.274   0.478   0.903  2.0101  1.4705  3.4307
  360SOL    HW2 1080   2.129   0.478   0.809  3.6450  1.9287  1.6570
  361SOL     OW 1081   1.919   2.965   0.888 -0.3134  0.4039 -0.1306
  361SOL    HW1 1082   2.001   2.928   0.936 -2.7066  1.2796 -4.3497
  361SOL    HW2 1083   1.905   2.910   0.805  0.5381 -0.5011  0.8970
  362SOL     OW 1084   1.411   1.202   0.667  0.2919 -0.5972 -0.6398
  362SOL    HW1 1085   1.373   1.126   0.608 -0.4987 -1.9086  3.2566
  362SOL    HW2 1086   1.355   1.205   0.754  0.0621  1.1816  0.3632
  363SOL     OW 1087   2.476   1.578   2.367  0.4531  0.4639  0.5879
  363SOL    HW1 1088   2.511   1.566   2.464  1.0317 -1.6056 -2.6540
  363SOL    HW2 1089   2.542   1.532   2.308  0.9859 -0.1773  0.6037
  364SOL     OW 1090   1.440   0.572   1.323 -0.3367 -0.2869  0.2596
  364SOL    HW1 1091   1.466   0.557   1.222  1.7602  1.9661 -0.6566
  364SOL    HW2 1092   1.404   0.482   1.359 -1.9811  0.1882  2.3545
  365SOL     OW 1093   0.194   2.891   0.884  0.2549 -0.1021 -0.4539
  365SOL    HW1 1094   0.258   2.832   0.934  2.0177 -2.4621 -0.0745
  365SOL    HW2 1095   0.101   2.849   0.888 -0.6876 -2.7853 -1.0128
  366SOL     OW 1096   2.857   1.480   0.503 -0.4798 -0.0504 -0.0973
  366SOL    HW1 1097   2.898   1.487   0.596  0.3142 -0.8902  2.5871
  366SOL    HW2 1098   2.822   1.570   0.465 -0.8535  1.9222 -0.4195
  367SOL     OW 1099   2.959   2.398   3.006  0.6426 -0.0823 -0.0188
  367SOL    HW1 1100   2.931   2.463   2.929  0.3019  0.5580  2.4591
  367SOL    HW2 1101   2.883   2.403   3.078  0.3347  2.1127  2.6916
  368SOL     OW 1102   0.179   2.119   1.011 -0.6396  0.2091 -0.0216
  368SOL    HW1 1103   0.243   2.100   0.937  1.1418 -0.9367  1.2988
  368SOL    HW2 1104   0.088   2.069   0.988 -0.0813 -0.6192 -2.2577
  369SOL     OW 1105   0.546   0.243   0.365  0.0692 -1.1141 -0.4628
  369SOL    HW1 1106   0.529   0.145   0.381 -1.1188 -0.5904 -1.2663
  369SOL    HW2 1107   0.640   0.273   0.337  1.3170  2.6369  0.0159
  370SOL     OW 1108   0.384   1.146   1.318 -0.5486  0.2064 -0.4297
  370SOL    HW1 1109   0.286   1.141   1.311 -0.3174  0.4667  3.2427
  370SOL    HW2 1110   0.415   1.177   1.409 -0.6053  0.4951  4.4135
  371SOL     OW 1111   2.030   2.486   0.496  0.2294 -0.3100 -0.1577
  371SOL    HW1 1112   2.116   2.438   0.474  0.7286  1.4667 -0.9287
  371SOL    HW2 1113   1.977   2.438   0.569 -0.7885  4.0416  2.1233
  372SOL     OW 1114   0.354   1.023   2.888  0.2856  0.0395 -0.5980
  372SOL    HW1 1115   0.408   1.059   2.812 -1.8512 -1.7585  0.1796
  372SOL    HW2 1116   0.364   1.081   2.975  0.0922  0.0701  4.5563
  373SOL     OW 1117   2.654   1.451   0.727  0.1413 -0.7653 -0.1394
  373SOL    HW1 1118   2.630   1.500   0.643 -0.1510 -1.6927  1.2224
  373SOL    HW2 1119   2.570   1.452   0.785 -1.9097 -0.9086 -0.4012
  374SOL     OW 1120   0.356   2.335   0.399  0.4768 -0.6723  0.0078
  374SOL    HW1 1121   0.365   2.239   0.429 -0.7395  3.3844  0.5694
  374SOL    HW2 1122   0.375   2.343   0.301  0.4892 -0.3851  1.3933
  375SOL     OW 1123   0.781   0.286   0.238  0.0061 -0.1788  0.4330
  375SOL    HW1 1124   0.875   0.264   0.266 -0.3577  4.2813 -1.0044
  375SOL    HW2 1125   0.785   0.380   0.205  1.0709 -0.2574  2.2071
  376SOL     OW 1126   0.291   2.984   1.955  0.5152  0.1787  0.2455
  376SOL    HW1 1127   0.369   3.046   1.952 -3.4547 -1.0107  0.9590
  376SOL    HW2 1128   0.263   2.978   2.054 -1.4125  2.4324  2.4231
  377SOL     OW 1129   0.907   2.262   2.237  0.0528 -0.0964  0.3756
  377SOL    HW1 1130   0.974   2.190   2.260  0.3396 -1.6374 -0.3326
  377SOL    HW2 1131   0.949   2.353   2.235  0.9002  1.9118 -1.9826
  378SOL     OW 1132   1.057   0.909   0.557  0.8696  0.1046  0.1423
  378SOL    HW1 1133   0.990   0.945   0.489 -0.0536 -1.0725 -0.3918
  378SOL    HW2 1134   1.038   0.810   0.571  1.9946  2.6465 -3.6449
  379SOL     OW 1135   0.806   1.773   2.908 -0.1672 -0.4999  0.2932
  379SOL    HW1 1136   0.796   1.676   2.904  1.6985  0.9051 -0.5445
  379SOL    HW2 1137   0.903   1.802   2.923  0.4801 -0.8141  0.4804
  380SOL     OW 1138   2.718   2.034   1.826 -0.0976 -0.0519 -0.3053
  380SOL    HW1 1139   2.652   1.954   1.826  0.7999  1.1999 -0.5151
  380SOL    HW2 1140   2.763   2.056   1.914  1.3330  2.3100  0.9683
  381SOL     OW 1141   0.133   1.231   1.849  0.1226 -0.3241 -0.1321
  381SOL    HW1 1142   0.228   1.267   1.854 -0.3680  1.2109  0.9885
  381SOL    HW2 1143   0.113   1.188   1.758 -2.1002  0.3895 -0.7486
  382SOL     OW 1144   2.600   2.315   2.981 -0.3071  0.1764 -0.1924
  382SOL    HW1 1145   2.578   2.405   2.940  2.6161  1.1546  1.1400
  382SOL    HW2 1146   2.644   2.318   3.068 -2.8195  1.2469 -1.3069
  383SOL     OW 1147   2.385   2.013   2.150 -0.7083  0.2954  0.0780
  383SOL    HW1 1148   2.369   1.913   2.152  0.8359 -2.5013 -0.8291
  383SOL    HW2 1149   2.481   2.031   2.182  1.9130 -1.3518  0.4671
  384SOL     OW 1150   0.679   2.229   2.090  0.3537  0.7429 -0.6960
  384SOL    HW1 1151   0.765   2.235   2.147  1.5892 -1.2033  1.5477
  384SOL    HW2 1152   0.666   2.306   2.029  3.6701 -0.5081  3.3236
  385SOL     OW 1153   2.549   2.052   1.117 -0.0266  0.1569  0.8384
  385SOL    HW1 1154   2.453   2.019   1.097 -1.4259 -1.5953  2.3329
  385SOL    HW2 1155   2.600   1.968   1.145 -0.2970 -2.4143  1.4253
  386SOL     OW 1156   1.826   0.549   0.099 -0.0686 -0.1458  0.0931
  386SOL    HW1 1157   1.913   0.592   0.076 -1.1374 -1.4037  1.7723
  386SOL    HW2 1158   1.807   0.547   0.199  1.0773 -0.1499 -0.9313
  387SOL     OW 1159   0.681   0.634   1.879  0.2639 -0.0353  0.2878
  387SOL    HW1 1160   0.652   0.650   1.780  1.5708 -1.4144  0.8711
  387SOL    HW2 1161   0.600   0.622   1.937  0.8096  1.4364 -0.6552
  388SOL     OW 1162   2.844   1.064   2.087 -0.2356 -0.1976 -0.6676
  388SOL    HW1 1163   2.917   1.111   2.143  1.6372  2.6323  0.6738
  388SOL    HW2 1164   2.818   0.971   2.133  0.4276 -1.5533  1.8242
  389SOL     OW 1165   1.600   0.622   2.492 -0.6119 -0.0543 -0.5550
  389SOL    HW1 1166   1.667   0.684   2.443  0.1456  2.6243  2.2285
  389SOL    HW2 1167   1.550   0.557   2.436 -1.8949  0.5343  3.1022
  390SOL     OW 1168   1.714   2.393   0.035  0.3216  0.1111 -0.0981
  390SOL    HW1 1169   1.735   2.300   3.089  2.9044  0.0047 -0.1687
  390SOL    HW2 1170   1.738   2.394   0.131  1.1053  2.2603 -1.9240
  391SOL     OW 1171   1.902   2.504   1.475 -0.1554  0.3998 -0.4714
  391SOL    HW1 1172   1.817   2.451   1.457  1.9588  0.9293  1.6861
  391SOL    HW2 1173   1.917   2.575   1.404  0.9628 -1.2965  2.3930
  392SOL     OW 1174   2.654   2.517   1.246  0.3087 -0.0811 -0.0517
  392SOL    HW1 1175   2.752   2.541   1.266  0.0904  0.5985  0.0107
  392SOL    HW2 1176   2.627   2.547   1.152  1.2883  2.6877 -0.0142
  393SOL     OW 1177   1.830   1.770   2.713 -0.8109 -0.7799 -0.4104
  393SOL    HW1 1178   1.909   1.830   2.694  0.5834  2.7194  0.2918
  393SOL    HW2 1179   1.869   1.679   2.747  0.9240 -1.8090  1.9592
  394SOL     OW 1180   0.198   2.778   0.252 -0.2178 -0.3834  0.0119
  394SOL    HW1 1181   0.217   2.800   0.158 -0.0782 -0.8529  3.0427
  394SOL    HW2 1182   0.187   2.863   0.310  0.1222  2.6041  1.7203
  395SOL     OW 1183   1.246   1.328   1.310 -0.3691  0.0663  0.5398
  395SOL    HW1 1184   1.331   1.377   1.276 -1.3646  0.9729  1.2780
  395SOL    HW2 1185   1.158   1.359   1.272 -1.7666  0.7269 -1.2938
  396SOL     OW 1186   1.792   0.616   2.860  0.1830 -0.8114  0.3553
  396SOL    HW1 1187   1.750   0.548   2.801  1.6403  0.9013  3.5545
  396SOL    HW2 1188   1.726   0.649   2.933 -2.9722 -1.3662  2.8650
  397SOL     OW 1189   0.115   0.995   2.724  0.1359  0.5515 -0.5732
  397SOL    HW1 1190   0.138   0.966   2.629 -0.1793 -1.3501 -1.7008
  397SOL    HW2 1191   0.201   1.013   2.779  2.2876  1.1473 -1.1399
  398SOL     OW 1192   1.284   0.119   0.087  0.4368 -0.1622 -0.4737
  398SOL    HW1 1193   1.386   0.108   0.077 -0.2108  0.9386 -0.2108
  398SOL    HW2 1194   1.253   0.154   3.096 -0.3690 -0.6618 -0.6945
  399SOL     OW 1195   2.197   3.055   1.935 -0.5499 -0.2527 -0.3266
  399SOL    HW1 1196   2.271   3.003   1.981 -1.8674 -1.7896 -1.0675
  399SOL    HW2 1197   2.118   2.999   1.923  2.9556  0.6869 -0.2392
  400SOL     OW 1198   3.030   1.600   2.484  0.1390 -0.4836 -0.2470
  400SOL    HW1 1199   2.982   1.553   2.410  1.0010  1.4081 -0.0101
  400SOL    HW2 1200   2.997   1.563   2.574 -0.3791  1.3915 -2.9838
  401SOL     OW 1201   0.756   0.056   0.070  0.4703 -0.3188 -0.1851
  401SOL    HW1 1202   0.774   0.111   0.151  0.7927 -0.5000 -4.2544
  401SOL    HW2 1203   0.760   0.120   3.088  2.3413  2.8578 -2.5835
  402SOL     OW 1204   0.231   2.492   1.611  0.4453 -0.3589 -0.0834
  402SOL    HW1 1205   0.299   2.457   1.537  2.1138 -2.6035 -0.6948
  402SOL    HW2 1206   0.276   2.568   1.663  0.9681  0.9587  1.4044
  403SOL     OW 1207   0.681   1.512   1.340 -0.5089  0.2141  0.1787
  403SOL    HW1 1208   0.683   1.410   1.329  1.3347  1.4311  2.8838
  403SOL    HW2 1209   0.721   1.535   1.433 -1.2570 -1.3691  1.8527
  404SOL     OW 1210   2.742   2.816   1.801 -0.4703 -0.3056  0.7149
  404SOL    HW1 1211   2.697   2.763   1.728 -0.1175  2.9950  0.4356
  404SOL    HW2 1212   2.702   2.909   1.794  1.9314  0.0132 -0.3184
  405SOL     OW 1213   2.958   0.518   2.172 -0.2331  0.7003 -0.0392
  405SOL    HW1 1214   2.891   0.449   2.144  1.7752 -3.0443  2.5407
  405SOL    HW2 1215   2.956   0.521   2.273  0.4351 -1.7547 -0.8839
  406SOL     OW 1216   1.677   2.430   2.819 -0.1073  0.0823  0.3822
  406SOL    HW1 1217   1.651   2.438   2.915 -1.5578 -1.3700 -3.5750
  406SOL    HW2 1218   1.774   2.400   2.804 -1.2901 -1.2557  2.1682
  407SOL     OW 1219   1.848   1.970   0.959 -0.2802  0.4219 -0.1593
  407SOL    HW1 1220   1.799   1.949   1.045  2.3889 -1.5910 -1.5823
  407SOL    HW2 1221   1.871   1.885   0.917  0.6320  3.1811  3.0859
  408SOL     OW 1222   0.575   0.319   2.080 -0.2830  0.3416  0.5089
  408SOL    HW1 1223   0.519   0.360   2.153  2.1935  1.5781 -0.1831
  408SOL    HW2 1224   0.663   0.286   2.120  1.7021 -0.7460 -1.2738
  409SOL     OW 1225   2.516   2.184   0.393  0.2243  0.7247 -0.1286
  409SOL    HW1 1226   2.463   2.116   0.457 -1.7860 -2.0454  1.4621
  409SOL    HW2 1227   2.614   2.175   0.414 -1.8122 -1.3762 -0.9299
  410SOL     OW 1228   2.345   1.526   0.416 -0.0500 -0.4920 -0.5029
  410SOL    HW1 1229   2.383   1.432   0.419  1.8653 -0.0267  2.2258
  410SOL    HW2 1230   2.401   1.578   0.483  1.7125  0.5888 -0.9657
  411SOL     OW 1231   0.210   0.778   0.532  0.1663 -0.0303  0.2039
  411SOL    HW1 1232   0.278   0.778   0.608 -1.0547 -0.8546  1.3019
  411SOL    HW2 1233   0.136   0.843   0.554 -0.8145 -0.0512  0.6475
  412SOL     OW 1234   1.756   0.598   0.372  0.0268  0.5294  0.2794
  412SOL    HW1 1235   1.706   0.534   0.435  0.6905 -0.2803 -0.4672
  412SOL    HW2 1236   1.848   0.607   0.406 -0.7639 -1.7469  0.6742
  413SOL     OW 1237   0.974   0.764   1.295  0.1150 -0.0385  0.1836
  413SOL    HW1 1238   0.922   0.721   1.375 -0.5569  2.1440 -0.6413
  413SOL    HW2 1239   0.975   0.865   1.290 -1.4661  0.8642 -0.4410
  414SOL     OW 1240   0.228   1.590   3.076 -0.6654  0.6054  0.0449
  414SOL    HW1 1241   0.184   1.560   0.062  0.8324  0.0311 -1.7878
  414SOL    HW2 1242   0.167   1.655   3.025  0.3291  1.2180 -0.4604
  415SOL     OW 1243   0.286   1.892   0.183 -0.4410  0.2112 -0.2962
  415SOL    HW1 1244   0.339   1.976   0.181  0.5011 -2.8614  1.1328
  415SOL    HW2 1245   0.341   1.815   0.151 -1.7370  1.0646  2.3699
  416SOL     OW 1246   1.749   0.851   0.258 -0.6795  0.2335 -0.2409
  416SOL    HW1 1247   1.774   0.926   0.318 -2.5804 -1.3734 -0.7065
  416SOL    HW2 1248   1.770   0.757   0.292 -1.8712  1.5865  3.0378
  417SOL     OW 1249   0.412   0.936   0.878  0.1767 -0.7052  0.4065
  417SOL    HW1 1250   0.340   0.974   0.938  2.1495  0.8925  1.2314
  417SOL    HW2 1251   0.502   0.951   0.920 -1.7711  3.1735 -1.6307
  418SOL     OW 1252   2.347   1.161   2.699 -0.0489  0.3340  0.5776
  418SOL    HW1 1253   2.254   1.165   2.659 -2.5724  0.2365 -0.9624
  418SOL    HW2 1254   2.346   1.081   2.764 -1.4963 -1.7256  1.4205
  419SOL     OW 1255   0.359   0.449   0.348 -0.4709 -0.0106 -0.1922
  419SOL    HW1 1256   0.391   0.508   0.425 -1.7577  1.7253 -0.1907
  419SOL    HW2 1257   0.406   0.361   0.329 -0.1384  0.3312  0.2027
  420SOL     OW 1258   0.158   1.782   0.854 -0.0990  0.6754  0.1692
  420SOL    HW1 1259   0.233   1.741   0.908  0.2619  0.3473  0.8957
  420SOL    HW2 1260   0.206   1.798   0.767  0.0312 -1.7030  1.1178
  421SOL     OW 1261   0.365   2.071   0.473  0.5129  0.2455  0.5301
  421SOL    HW1 1262   0.423   2.118   0.542 -1.8705 -1.7673  0.8409
  421SOL    HW2 1263   0.420   1.995   0.438 -0.7230  2.2039  1.0756
  422SOL     OW 1264   2.764   0.624   1.338 -0.2740  0.1568  0.4193
  422SOL    HW1 1265   2.863   0.636   1.327  1.7391 -1.8485 -4.2998
  422SOL    HW2 1266   2.747   0.597   1.433  2.2637  1.0499  2.7305
  423SOL     OW 1267   1.840   1.745   0.759 -0.0695 -0.0960 -0.0561
  423SOL    HW1 1268   1.809   1.720   0.849  1.4869 -1.1461 -1.9228
  423SOL    HW2 1269   1.794   1.681   0.696  1.1322 -0.1380 -1.7910
  424SOL     OW 1270   1.774   1.089   0.426 -0.1700 -0.1133  0.2848
  424SOL    HW1 1271   1.849   1.137   0.373  2.5619 -0.1015 -0.3368
  424SOL    HW2 1272   1.699   1.155   0.442  1.9306  0.1644  0.0032
  425SOL     OW 1273   3.024   0.074   1.912 -0.3165 -0.4924  0.4448
  425SOL    HW1 1274   3.051   0.174   1.941  1.4686  3.7263 -2.2602
  425SOL    HW2 1275   2.950   0.038   1.973  2.0280  0.9447 -2.6211
  426SOL     OW 1276   2.525   2.762   3.051 -0.8701  0.4797 -0.1548
  426SOL    HW1 1277   2.568   2.730   0.036 -1.3254 -0.3950  1.2872
  426SOL    HW2 1278   2.593   2.784   2.978  1.1494 -0.5119  0.0014
  427SOL     OW 1279   0.760   0.753   2.290  0.2326  0.1799  0.1188
  427SOL    HW1 1280   0.830   0.707   2.349  1.6156  0.3979  2.2735
  427SOL    HW2 1281   0.793   0.775   2.197  0.0663  1.1292  0.1227
  428SOL     OW 1282   2.114   0.699   2.471  0.2198 -0.0224  0.9499
  428SOL    HW1 1283   2.131   0.791   2.439 -0.3879 -0.4662  1.9899
  428SOL    HW2 1284   2.012   0.677   2.478  0.8909 -1.9951 -2.2483
  429SOL     OW 1285   2.618   0.258   0.582  0.6312  0.1064  0.1805
  429SOL    HW1 1286   2.659   0.193   0.512 -3.0751 -1.2572 -0.4974
  429SOL    HW2 1287   2.543   0.315   0.538 -2.7634  2.0445 -0.7689
  430SOL     OW 1288   1.880   1.233   2.188 -0.2427 -0.6221 -0.0087
  430SOL    HW1 1289   1.960   1.210   2.241 -2.2937  2.4613 -2.3232
  430SOL    HW2 1290   1.870   1.165   2.108  0.0761 -2.3702  0.3401
  431SOL     OW 1291   3.013   2.092   1.360 -0.3448 -0.2634  0.3840
  431SOL    HW1 1292   2.989   2.179   1.311 -1.8790  0.0976  0.5931
  431SOL    HW2 1293   2.946   2.066   1.433 -3.5350 -0.7410 -1.3665
  432SOL     OW 1294   1.496   2.941   2.489  0.4705 -0.2204  0.2772
  432SOL    HW1 1295   1.410   2.987   2.518 -0.1988 -1.6673 -1.0650
  432SOL    HW2 1296   1.554   2.928   2.569 -1.6112 -1.8576 -1.2789
  433SOL     OW 1297   1.641   2.951   1.603 -0.2989  0.2009  0.0783
  433SOL    HW1 1298   1.689   2.889   1.537  1.0522 -0.6704 -0.0940
  433SOL    HW2 1299   1.673   2.932   1.697 -0.9937 -0.3465  0.6900
  434SOL     OW 1300   2.969   2.656   2.200  0.0378  0.1693 -0.7298
  434SOL    HW1 1301   3.062   2.654   2.153  0.3060 -1.3689 -1.6013
  434SOL    HW2 1302   2.902   2.695   2.136 -0.9619 -1.1368 -0.5820
  435SOL     OW 1303   3.092   1.852   0.408  0.0680 -0.2330 -0.5169
  435SOL    HW1 1304   0.076   1.808   0.451  2.1805 -1.7706 -1.0360
  435SOL    HW2 1305   3.090   1.860   0.310  0.5277  0.5031  2.0012
  436SOL     OW 1306   0.938   1.170   1.566  0.4467  0.2796  0.6511
  436SOL    HW1 1307   0.980   1.154   1.477 -2.4218  3.7844 -0.3915
  436SOL    HW2 1308   0.984   1.116   1.645  1.4021 -1.5107  0.1532
  437SOL     OW 1309   0.538   0.370   3.009 -0.7901  0.8504 -0.8015
  437SOL    HW1 1310   0.536   0.469   3.029 -1.6387  2.3952  0.7844
  437SOL    HW2 1311   0.459   0.316   3.035  1.9374  3.9491 -1.6778
  438SOL     OW 1312   0.662   1.971   1.774  0.2656 -0.6419 -0.1527
  438SOL    HW1 1313   0.671   2.073   1.785 -0.7485  1.3430  2.2461
  438SOL    HW2 1314   0.698   1.947   1.677  1.5278 -0.4826 -1.4135
  439SOL     OW 1315   2.011   1.140   2.797 -0.0133 -0.5701  0.0763
  439SOL    HW1 1316   2.035   1.154   2.895  0.5615  1.5574  0.0075
  439SOL    HW2 1317   1.986   1.045   2.779  3.0692  0.6260  1.2237
  440SOL     OW 1318   0.878   1.025   0.049  0.5226 -0.5928 -0.0620
  440SOL    HW1 1319   0.958   1.013   0.109  0.1388  2.2068 -0.2817
  440SOL    HW2 1320   0.800   1.059   0.100 -0.3524 -1.0582 -1.1285
  441SOL     OW 1321   0.427   2.995   1.688 -0.5709  0.2823 -0.6182
  441SOL    HW1 1322   0.512   2.944   1.685  0.3262 -0.1573 -1.9598
  441SOL    HW2 1323   0.400   3.023   1.783  0.6959  1.4439  1.6047
  442SOL     OW 1324   2.254   2.438   0.866 -0.2710  0.0436 -0.4497
  442SOL    HW1 1325   2.214   2.389   0.946 -0.3471 -0.6734 -1.9829
  442SOL    HW2 1326   2.201   2.524   0.840 -0.7052 -1.9795  1.2296
  443SOL     OW 1327   2.787   1.301   2.553 -0.3661  0.4901  0.7272
  443SOL    HW1 1328   2.756   1.226   2.616 -1.2951 -2.7770  0.2825
  443SOL    HW2 1329   2.756   1.285   2.456 -0.1221  0.0843 -2.1272
  444SOL     OW 1330   1.269   0.783   2.598  0.3119 -0.3234 -0.4018
  444SOL    HW1 1331   1.352   0.765   2.654  2.2466  0.7401 -1.0063
  444SOL    HW2 1332   1.265   0.882   2.578 -0.2607  0.4885  0.7463
  445SOL     OW 1333   2.299   2.843   1.695  0.4718 -0.2170 -0.0641
  445SOL    HW1 1334   2.319   2.867   1.793 -0.3947 -0.0166 -1.8801
  445SOL    HW2 1335   2.299   2.736   1.682  0.6320 -2.3030  0.1998
  446SOL     OW 1336   2.776   1.737   0.394  0.5402  0.2526  0.1123
  446SOL    HW1 1337   2.832   1.719   0.311 -1.1071 -1.2538 -0.1925
  446SOL    HW2 1338   2.824   1.798   0.462 -0.5697  0.8614  0.3457
  447SOL     OW 1339   1.159   2.738   1.507  0.4681 -0.0628 -0.1133
  447SOL    HW1 1340   1.258   2.736   1.508 -3.3502  1.6146 -0.7767
  447SOL    HW2 1341   1.128   2.811   1.572  0.0894  0.8447  0.7965
  448SOL     OW 1342   1.700   1.549   1.897  0.7155 -0.4701  0.0186
  448SOL    HW1 1343   1.646   1.636   1.904 -1.3933  2.8582  0.1707
  448SOL    HW2 1344   1.707   1.518   1.990 -1.7665  2.6341 -1.9626
  449SOL     OW 1345   0.172   1.956   2.276 -0.3731 -0.6921  0.4177
  449SOL    HW1 1346   0.213   2.041   2.310  0.4503 -0.1961  2.0229
  449SOL    HW2 1347   0.247   1.891   2.255 -2.4143 -0.5131  3.6763
  450SOL     OW 1348   2.931   1.487   2.713  0.7027 -0.5270 -0.4776
  450SOL    HW1 1349   2.857   1.459   2.650  3.7262 -0.4509 -0.9401
  450SOL    HW2 1350   2.907   1.573   2.765 -1.8922 -1.4211 -0.0874
  451SOL     OW 1351   2.397   0.802   1.300 -0.6136 -0.0891 -0.6012
  451SOL    HW1 1352   2.405   0.709   1.337  1.1676  0.1201 -1.3537
  451SOL    HW2 1353   2.465   0.818   1.223  0.9883 -0.6741  1.0292
  452SOL     OW 1354   0.999   2.032   1.245  0.1805  0.2260 -0.0182
  452SOL    HW1 1355   0.991   1.977   1.329 -0.0679 -2.0245 -0.7550
  452SOL    HW2 1356   0.930   2.002   1.175  0.6993 -0.8927  0.6132
  453SOL     OW 1357   1.240   2.170   0.733  0.4638  0.6761 -0.4352
  453SOL    HW1 1358   1.327   2.220   0.747 -1.9197 -0.2837  0.7667
  453SOL    HW2 1359   1.170   2.240   0.718  2.2061 -0.9221  0.0293
  454SOL     OW 1360   0.117   1.225   0.590 -0.6049 -0.0087 -0.1654
  454SOL    HW1 1361   0.108   1.273   0.680  1.2422 -2.5068 -0.5453
  454SOL    HW2 1362   0.062   1.140   0.595  1.8054 -2.3328  0.6287
  455SOL     OW 1363   0.839   1.055   0.449 -0.1954 -0.9377  0.0955
  455SOL    HW1 1364   0.792   1.041   0.360  0.2445  3.1563  1.7068
  455SOL    HW2 1365   0.780   1.108   0.511  0.8320 -1.4508  0.0288
  456SOL     OW 1366   2.133   2.352   1.138  0.3139 -0.0329 -0.6023
  456SOL    HW1 1367   2.153   2.374   1.238 -2.8664  1.3577  0.4875
  456SOL    HW2 1368   2.081   2.429   1.097 -1.8066  1.1619  0.3077
  457SOL     OW 1369   1.538   2.867   2.891  0.1367  0.6251  0.0793
  457SOL    HW1 1370   1.519   2.772   2.857 -0.1393  0.9699 -0.9225
  457SOL    HW2 1371   1.477   2.896   2.966  1.2470 -1.5197  0.1425
  458SOL     OW 1372   2.658   3.089   3.076  0.5138 -0.3769  0.2187
  458SOL    HW1 1373   2.565   3.060   3.042  1.7672 -1.9358 -0.0667
  458SOL    HW2 1374   2.666   0.089   3.071 -0.0435  1.5063  2.2026
  459SOL     OW 1375   2.331   0.337   2.148 -0.0295 -0.3415  0.4804
  459SOL    HW1 1376   2.298   0.411   2.210  1.6183 -0.4003 -0.8421
  459SOL    HW2 1377   2.416   0.304   2.187 -1.0973 -2.4438  1.8458
  460SOL     OW 1378   0.021   0.661   2.711  0.0248 -0.0084  0.1704
  460SOL    HW1 1379   0.063   0.566   2.732 -0.3915  0.1869 -1.9784
  460SOL    HW2 1380   3.038   0.663   2.770 -0.5710 -0.2590  2.4783
  461SOL     OW 1381   2.893   2.033   0.822 -0.9152 -0.7810  0.2668
  461SOL    HW1 1382   2.980   2.004   0.865  4.6034  1.9114  1.4560
  461SOL    HW2 1383   2.816   1.980   0.863 -0.5108  1.4824  1.1469
  462SOL     OW 1384   0.131   0.411   0.841  0.1617  0.2279 -0.3081
  462SOL    HW1 1385   0.102   0.322   0.877 -0.1068 -0.3571  0.9547
  462SOL    HW2 1386   0.055   0.478   0.842  1.3127  0.1850 -0.1412
  463SOL     OW 1387   2.226   1.203   0.148  0.3150 -0.3046  0.1143
  463SOL    HW1 1388   2.267   1.221   0.238 -1.1222  3.2403 -1.2218
  463SOL    HW2 1389   2.266   1.268   0.085 -1.4479 -2.8181  2.3484
  464SOL     OW 1390   0.826   2.953   1.491 -0.0040 -0.1880 -0.1504
  464SOL    HW1 1391   0.850   3.041   1.449 -0.4490  1.4577  0.6948
  464SOL    HW2 1392   0.770   2.903   1.423  1.6160  1.8785  0.5966
  465SOL     OW 1393   1.286   0.355   1.321 -0.3315 -0.0059  0.0319
  465SOL    HW1 1394   1.322   0.276   1.379 -0.7992 -1.7360 -1.5639
  465SOL    HW2 1395   1.214   0.408   1.370  0.8701  0.9120  1.5431
  466SOL     OW 1396   1.619   2.559   2.000  0.0971  0.2803  0.2795
  466SOL    HW1 1397   1.695   2.568   2.058 -2.4981 -2.0492 -0.8340
  466SOL    HW2 1398   1.543   2.616   2.034  0.4374  1.2162 -0.2777
  467SOL     OW 1399   0.539   2.608   1.682  0.2914 -0.0593 -0.2756
  467SOL    HW1 1400   0.513   2.551   1.604 -2.2738  2.1405  2.9498
  467SOL    HW2 1401   0.602   2.683   1.654 -1.1543  1.0803 -1.1621
  468SOL     OW 1402   2.980   1.692   2.134 -0.4401 -0.5631 -0.3673
  468SOL    HW1 1403   2.977   1.599   2.172  0.8594  2.4396 -5.3803
  468SOL    HW2 1404   3.022   1.759   2.200 -0.0994 -0.9178  0.9436
  469SOL     OW 1405   0.894   1.924   0.725  0.1047  0.3095  0.5073
  469SOL    HW1 1406   0.849   2.012   0.724  2.3634  0.4443 -2.6143
  469SOL    HW2 1407   0.999   1.941   0.753  2.5273 -0.7259  2.4948
  470SOL     OW 1408   2.107   1.140   2.324  0.0913  0.0142  0.0900
  470SOL    HW1 1409   2.176   1.067   2.308 -3.3543  2.2153 -0.2490
  470SOL    HW2 1410   2.119   1.189   2.410  0.4738 -0.1139 -0.6255
  471SOL     OW 1411   0.360   2.355   0.088 -0.2338 -0.2314  0.2762
  471SOL    HW1 1412   0.272   2.368   0.037 -0.9719 -1.8326  0.6277
  471SOL    HW2 1413   0.430   2.422   0.054 -1.1861  2.0582 -0.6420
  472SOL     OW 1414   0.131   2.794   2.346  0.2020  0.2431  0.2401
  472SOL    HW1 1415   0.163   2.745   2.428  1.3122  0.4721 -0.4782
  472SOL    HW2 1416   0.033   2.776   2.321  0.2906  0.4494 -2.8099
  473SOL     OW 1417   0.613   2.772   0.067 -0.1893  0.1078 -0.0445
  473SOL    HW1 1418   0.569   2.860   0.047 -0.3693  0.0514  0.2598
  473SOL    HW2 1419   0.693   2.766   0.002  0.1475  1.4441 -1.2991
  474SOL     OW 1420   1.638   3.021   0.858 -0.6080 -0.7400 -0.4704
  474SOL    HW1 1421   1.630   2.956   0.785  1.4775  1.5034  3.7285
  474SOL    HW2 1422   1.737   3.039   0.870  2.3963 -1.0764 -1.3047
  475SOL     OW 1423   1.471   0.120   1.400 -0.0578  0.4973 -0.0017
  475SOL    HW1 1424   1.390   0.058   1.414  1.2131  1.0599 -0.3476
  475SOL    HW2 1425   1.558   0.088   1.437  0.2834  0.2162  4.3990
  476SOL     OW 1426   0.539   1.190   1.092 -0.0341 -0.1235  0.6899
  476SOL    HW1 1427   0.458   1.178   1.159 -2.1745  1.6313  0.7518
  476SOL    HW2 1428   0.570   1.098   1.057  0.9975  1.8406  1.3722
  477SOL     OW 1429   0.390   1.834   0.702  0.4730  0.0753  0.3983
  477SOL    HW1 1430   0.492   1.839   0.694  1.3330  3.5543  2.3187
  477SOL    HW2 1431   0.341   1.923   0.718  0.7982  2.7795 -2.0079
  478SOL     OW 1432   0.064   2.450   2.562 -0.2105 -0.3162 -0.2667
  478SOL    HW1 1433   3.089   2.493   2.615 -2.5650 -0.6284  4.6027
  478SOL    HW2 1434   0.036   2.426   2.467  2.5313  0.2646  0.0817
  479SOL     OW 1435   3.042   0.674   1.354  0.6142 -0.0651  0.4221
  479SOL    HW1 1436   3.080   0.758   1.306 -3.1433  0.3120  1.4004
  479SOL    HW2 1437   3.065   0.677   1.455  0.9007 -2.3330  2.3287
  480SOL     OW 1438   2.764   2.392   0.092  0.2912 -0.4133 -0.1679
  480SOL    HW1 1439   2.781   2.335   0.170  1.7377  3.1492 -1.2283
  480SOL    HW2 1440   2.732   2.487   0.126  0.7469  4.0605 -0.0249
  481SOL     OW 1441   2.314   1.886   1.691  0.3983 -0.1068  0.4555
  481SOL    HW1 1442   2.398   1.835   1.665 -1.3373  1.8202  1.9770
  481SOL    HW2 1443   2.331   1.973   1.735  1.9142 -1.6316 -0.2303
  482SOL     OW 1444   1.988   1.747   2.407  0.1177  0.0030 -0.0594
  482SOL    HW1 1445   2.002   1.827   2.341  2.0879 -2.6971 -1.9439
  482SOL    HW2 1446   1.972   1.786   2.503  0.0232  2.4405  2.8712
  483SOL     OW 1447   0.952   1.309   1.956  0.0506 -0.1247 -0.1247
  483SOL    HW1 1448   1.014   1.239   1.927 -0.1283  1.7432  0.2204
  483SOL    HW2 1449   1.001   1.381   2.006 -2.8148 -1.5011  1.0570
  484SOL     OW 1450   0.350   0.640   1.345 -0.2563  0.0430 -0.0407
  484SOL    HW1 1451   0.290   0.566   1.385 -0.5241  1.1885  0.9788
  484SOL    HW2 1452   0.340   0.651   1.246 -0.3320  1.3785 -1.8212
  485SOL     OW 1453   2.365   0.982   0.065 -0.2086  0.2459 -0.6499
  485SOL    HW1 1454   2.465   1.012   0.076 -0.6965 -1.4208  0.0171
  485SOL    HW2 1455   2.307   1.067   0.082  0.9436 -1.2619 -0.2521
  486SOL     OW 1456   1.559   0.298   1.959  0.2580 -0.5297  0.0632
  486SOL    HW1 1457   1.557   0.309   1.857 -1.6189  1.7381 -1.3528
  486SOL    HW2 1458   1.544   0.199   1.981 -0.0130 -0.4657 -0.0901
  487SOL     OW 1459   1.010   2.244   1.674 -0.0971 -0.0360 -0.1093
  487SOL    HW1 1460   0.914   2.254   1.699  2.8205 -1.0114  0.4266
  487SOL    HW2 1461   1.050   2.335   1.677  0.3739  1.0947 -0.1054
  488SOL     OW 1462   2.324   1.336   3.051 -0.2266 -0.3400  0.2992
  488SOL    HW1 1463   2.390   1.298   2.984 -2.7838 -0.1450  1.5753
  488SOL    HW2 1464   2.272   1.407   2.998 -0.5718  0.4844  0.8502
  489SOL     OW 1465   1.972   2.742   0.492 -0.2273 -0.2845  0.0791
  489SOL    HW1 1466   1.988   2.643   0.475 -0.9336  2.6806 -0.3654
  489SOL    HW2 1467   2.042   2.797   0.444 -1.7568 -0.7079  0.3565
  490SOL     OW 1468   0.702   2.360   2.946  0.3438  0.0444 -0.5273
  490SOL    HW1 1469   0.647   2.293   2.890  0.6079  0.5200  0.6498
  490SOL    HW2 1470   0.637   2.415   3.003  0.3714 -0.6650 -1.3857
  491SOL     OW 1471   0.999   1.478   1.279 -0.5763  0.0334  0.5303
  491SOL    HW1 1472   1.052   1.547   1.224  3.5659  0.3248 -2.6886
  491SOL    HW2 1473   1.013   1.486   1.378  0.1846 -3.4318  3.2451
  492SOL     OW 1474   1.105   0.406   2.233  0.2005  0.4659 -0.0407
  492SOL    HW1 1475   1.141   0.476   2.304  0.6551  4.5818  0.3428
  492SOL    HW2 1476   1.182   0.352   2.186  1.5826 -0.0148 -1.0211
  493SOL     OW 1477   2.023   1.910   0.371  0.0096  0.8419  0.6244
  493SOL    HW1 1478   1.958   1.829   0.377  0.6866 -2.8308 -0.9214
  493SOL    HW2 1479   1.966   1.988   0.342  0.5805 -3.1859  0.3952
  494SOL     OW 1480   0.796   1.377   0.799  0.0520 -0.2960 -0.0885
  494SOL    HW1 1481   0.763   1.308   0.730 -1.9762  0.1433  0.8645
  494SOL    HW2 1482   0.722   1.433   0.831  1.9253 -2.4353  1.5300
  495SOL     OW 1483   2.409   2.356   0.651 -0.6015  0.0739 -0.0214
  495SOL    HW1 1484   2.362   2.331   0.564  0.5646 -0.5879 -0.8109
  495SOL    HW2 1485   2.341   2.397   0.717  0.4307 -0.1581 -3.7188
  496SOL     OW 1486   2.575   0.306   1.404 -0.1137 -0.2540  0.0904
  496SOL    HW1 1487   2.677   0.283   1.394 -2.0700 -2.5402 -1.9281
  496SOL    HW2 1488   2.530   0.307   1.306 -1.3253 -0.9179 -0.0925
  497SOL     OW 1489   2.499   1.022   2.501  0.3035 -0.1632  0.0976
  497SOL    HW1 1490   2.520   1.066   2.410 -0.7626 -0.2299  1.5558
  497SOL    HW2 1491   2.436   1.078   2.559 -0.6258 -2.1173 -0.6029
  498SOL     OW 1492   0.450   2.198   1.356 -0.1685  0.0746  0.4641
  498SOL    HW1 1493   0.369   2.145   1.326 -0.3757 -0.1575 -0.8729
  498SOL    HW2 1494   0.526   2.161   1.299  1.5379 -2.2608  2.1022
  499SOL     OW 1495   1.326   2.724   1.822  0.0736  0.2620  0.2889
  499SOL    HW1 1496   1.341   2.821   1.788 -0.7323  1.8801 -1.3249
  499SOL    HW2 1497   1.359   2.666   1.742  1.7839  1.5331 -3.0238
  500SOL     OW 1498   0.713   2.076   0.126 -0.0928 -0.1611 -0.1420
  500SOL    HW1 1499   0.769   2.096   0.042 -1.4427 -0.7241  2.7554
  500SOL    HW2 1500   0.690   1.976   0.135 -1.6096  1.0659 -0.7571
  501SOL     OW 1501   1.811   3.022   1.156  0.2046  0.4588 -0.0581
  501SOL    HW1 1502   1.880   2.990   1.089 -0.5885 -0.3569  0.0362
  501SOL    HW2 1503   1.730   2.956   1.153  0.3109 -2.5570 -2.0975
  502SOL     OW 1504   2.745   0.292   1.731  0.4717 -0.3070  0.9022
  502SOL    HW1 1505   2.769   0.200   1.695  1.3951 -1.0207 -1.7549
  502SOL    HW2 1506   2.813   0.326   1.797 -3.2523 -1.7307  0.5654
  503SOL     OW 1507   2.681   1.143   1.897  0.8471  0.3020  0.5951
  503SOL    HW1 1508   2.591   1.108   1.921  2.7061 -0.0180  1.0145
  503SOL    HW2 1509   2.745   1.100   1.963 -2.1857  0.5278 -0.3995
  504SOL     OW 1510   1.549   0.987   1.908  0.1814  0.3796 -0.1419
  504SOL    HW1 1511   1.499   0.920   1.969  0.3934 -1.0208 -0.1488
  504SOL    HW2 1512   1.525   1.085   1.928  1.6779  2.0319 -1.0080
  505SOL     OW 1513   0.885   0.171   1.718  0.3300 -0.3075  0.6368
  505SOL    HW1 1514   0.829   0.115   1.783 -1.8439  0.1942 -3.2345
  505SOL    HW2 1515   0.981   0.162   1.751  2.4044  3.3438 -1.1053
  506SOL     OW 1516   0.191   0.326   0.552 -0.0975  0.3055 -0.6946
  506SOL    HW1 1517   0.241   0.360   0.473 -0.8211 -0.9776  0.0965
  506SOL    HW2 1518   0.210   0.376   0.635  1.4049 -4.3062  0.0011
  507SOL     OW 1519   2.604   0.433   3.050  0.3574 -0.0491 -0.1580
  507SOL    HW1 1520   2.616   0.380   0.033  0.3961  0.0193 -0.9049
  507SOL    HW2 1521   2.507   0.431   3.012  1.3310 -0.4650 -0.9445
  508SOL     OW 1522   1.799   0.402   1.998 -0.2141 -0.9640  0.1162
  508SOL    HW1 1523   1.702   0.373   1.997  3.6670 -1.0290 -0.5950
  508SOL    HW2 1524   1.828   0.441   1.904  1.8361  1.6914 -1.6842
  509SOL     OW 1525   1.558   1.655   1.397 -0.0103  0.4068 -0.0644
  509SOL    HW1 1526   1.605   1.563   1.414  1.8059 -1.0096 -1.6306
  509SOL    HW2 1527   1.455   1.642   1.397 -1.6724 -0.4623  0.5288
  510SOL     OW 1528   2.624   1.389   1.389  0.5250  0.1792  0.2371
  510SOL    HW1 1529   2.549   1.354   1.328  1.7475 -0.3668  0.1632
  510SOL    HW2 1530   2.651   1.478   1.347  0.3819  0.3418  0.5305
  511SOL     OW 1531   1.706   1.957   1.252 -0.3244  0.1083 -0.1635
  511SOL    HW1 1532   1.740   1.867   1.269 -1.3227  3.5677  1.7088
  511SOL    HW2 1533   1.779   2.027   1.273  0.7746  0.3133 -2.2185
  512SOL     OW 1534   0.180   1.531   0.613 -0.4213 -0.0185  0.5514
  512SOL    HW1 1535   0.267   1.482   0.629 -1.3689 -1.2719  0.4074
  512SOL    HW2 1536   0.197   1.615   0.555  2.8432  0.1990 -1.5495
  513SOL     OW 1537   3.095   1.873   0.127 -0.5101 -0.2159  0.4319
  513SOL    HW1 1538   3.094   1.885   0.023  0.5944  1.6184 -1.4393
  513SOL    HW2 1539   0.086   1.885   0.168  0.0057 -0.4861  1.2205
  514SOL     OW 1540   2.692   1.833   2.405 -0.2369  0.1895 -0.6232
  514SOL    HW1 1541   2.760   1.894   2.458  0.1666  1.1658  1.8938
  514SOL    HW2 1542   2.653   1.758   2.469 -2.7455 -2.1778  2.8246
  515SOL     OW 1543   1.930   1.207   0.776 -0.1085  0.9742  0.2362
  515SOL    HW1 1544   1.830   1.219   0.749  3.6716  0.0054 -0.6927
  515SOL    HW2 1545   1.973   1.118   0.741  0.1322  1.5660 -1.1916
  516SOL     OW 1546   1.924   2.799   0.171 -0.1477 -0.1819 -0.4508
  516SOL    HW1 1547   1.869   2.748   0.100  0.2108 -0.9918 -1.4398
  516SOL    HW2 1548   1.881   2.792   0.265  0.2474 -0.4544  0.9317
  517SOL     OW 1549   0.746   1.936   2.552  0.0786 -0.0759 -0.0663
  517SOL    HW1 1550   0.803   1.927   2.468  1.3033 -0.7515 -0.7647
  517SOL    HW2 1551   0.670   2.001   2.548  0.3959  0.9166 -0.4763
  518SOL     OW 1552   0.454   0.320   1.831  0.4474  0.7276  0.1228
  518SOL    HW1 1553   0.367   0.350   1.870  1.9434 -0.8492 -0.0973
  518SOL    HW2 1554   0.532   0.335   1.899  2.6630 -1.1662  0.3891
  519SOL     OW 1555   0.347   1.197   0.455 -0.0670 -0.1408 -0.0570
  519SOL    HW1 1556   0.326   1.118   0.394  0.4301 -1.0030  2.2220
  519SOL    HW2 1557   0.271   1.199   0.521  0.5022  1.9513 -1.6758
  520SOL     OW 1558   2.556   1.767   1.576 -0.3984  0.0183  0.2669
  520SOL    HW1 1559   2.622   1.711   1.629  0.5282 -1.6397  1.2424
  520SOL    HW2 1560   2.602   1.839   1.520 -0.3293 -1.2447 -1.1630
  521SOL     OW 1561   0.517   2.464   2.574 -0.0081 -0.1777 -0.2807
  521SOL    HW1 1562   0.599   2.420   2.539 -3.1811  2.5005  0.2199
  521SOL    HW2 1563   0.481   2.529   2.506  2.0411 -2.4560  0.1055
  522SOL     OW 1564   1.968   0.211   2.103  0.2381  0.3223 -0.0849
  522SOL    HW1 1565   2.042   0.213   2.030  1.1182  2.2935 -1.0994
  522SOL    HW2 1566   1.909   0.289   2.079 -2.1725 -0.4206  0.4152
  523SOL     OW 1567   1.974   1.933   1.885  0.1914 -0.1076  0.5795
  523SOL    HW1 1568   2.046   2.001   1.915 -1.4018 -0.3690  0.2856
  523SOL    HW2 1569   2.001   1.842   1.923 -0.8966 -0.1238  2.0959
  524SOL     OW 1570   0.668   2.856   0.444 -0.2301 -0.0468  0.1767
  524SOL    HW1 1571   0.660   2.757   0.409  0.3648 -1.1816 -0.9026
  524SOL    HW2 1572   0.758   2.893   0.413  0.1468  3.2603  1.1260
  525SOL     OW 1573   0.084   0.598   0.386 -0.1043  0.1860 -0.3598
  525SOL    HW1 1574   0.132   0.676   0.439 -0.8394  0.2140  0.4096
  525SOL    HW2 1575   0.155   0.543   0.337  1.1132  2.4940  3.6057
  526SOL     OW 1576   0.742   2.657   0.739 -0.3578  0.3025  0.8761
  526SOL    HW1 1577   0.793   2.687   0.821  1.9759 -0.0931 -1.7537
  526SOL    HW2 1578   0.661   2.711   0.713 -0.7759 -0.4900 -0.0581
  527SOL     OW 1579   2.214   1.737   0.882  0.0829  0.3699 -0.3511
  527SOL    HW1 1580   2.199   1.767   0.787 -0.4447 -0.6875  1.5277
  527SOL    HW2 1581   2.167   1.652   0.907 -1.2126  3.0972 -0.7075
  528SOL     OW 1582   3.022   2.903   2.576  0.2143 -0.0605  0.1420
  528SOL    HW1 1583   2.960   2.839   2.526  0.6803  0.5123  0.0366
  528SOL    HW2 1584   3.066   2.853   2.651 -0.7572  0.2470  2.6988
  529SOL     OW 1585   1.031   1.624   2.307  0.1974  0.0792 -0.2963
  529SOL    HW1 1586   1.020   1.606   2.204  0.1863  2.0150 -1.4125
  529SOL    HW2 1587   0.971   1.558   2.358 -0.3453 -3.1067 -1.6854
  530SOL     OW 1588   1.745   1.278   2.893  0.2355  0.1022  0.1130
  530SOL    HW1 1589   1.650   1.246   2.872  0.3886 -1.4196 -2.2210
  530SOL    HW2 1590   1.819   1.220   2.857 -0.4746  0.3264  3.3642
  531SOL     OW 1591   0.582   1.396   2.896  0.5660  0.1670  0.2052
  531SOL    HW1 1592   0.513   1.357   2.829  0.4413  1.2593  0.1822
  531SOL    HW2 1593   0.633   1.317   2.943 -0.2072 -1.0021 -0.9217
  532SOL     OW 1594   1.503   1.541   0.432 -0.6985  0.6991  0.2049
  532SOL    HW1 1595   1.429   1.535   0.365 -1.2378  1.5037  0.6784
  532SOL    HW2 1596   1.545   1.633   0.435 -0.6080  0.4184 -1.5530
  533SOL     OW 1597   0.533   0.173   2.543  0.8335  0.7675 -0.5292
  533SOL    HW1 1598   0.583   0.236   2.483 -1.1325  0.8499  0.6494
  533SOL    HW2 1599   0.596   0.139   2.616 -1.0359  1.4552 -0.3647
  534SOL     OW 1600   0.532   2.524   3.082  0.0763 -0.2551  0.0628
  534SOL    HW1 1601   0.496   2.551   2.987 -0.8254 -0.6606 -0.1773
  534SOL    HW2 1602   0.558   2.610   0.029 -0.6241 -1.1387 -2.1954
  535SOL     OW 1603   0.259   0.070   0.602 -0.5408  0.5507  0.1230
  535SOL    HW1 1604   0.267   0.060   0.705  0.1405 -0.9680  0.3232
  535SOL    HW2 1605   0.232   0.166   0.583  1.3238 -2.5630 -0.6127
  536SOL     OW 1606   0.191   1.059   2.043  0.3983 -0.4209  0.3658
  536SOL    HW1 1607   0.167   1.132   1.975 -0.7250 -1.0461  2.6988
  536SOL    HW2 1608   0.244   0.978   2.002  1.0204 -1.8152 -1.0403
  537SOL     OW 1609   1.220   3.070   1.394 -0.1979 -0.1502 -0.2863
  537SOL    HW1 1610   1.128   0.009   1.407  1.7416 -0.5858 -1.9315
  537SOL    HW2 1611   1.222   3.003   1.317 -0.1130 -3.7253 -0.2863
  538SOL     OW 1612   2.895   1.904   0.559  0.5924  0.6835 -0.7272
  538SOL    HW1 1613   2.987   1.891   0.515 -1.7033 -1.2126  3.2057
  538SOL    HW2 1614   2.914   1.940   0.649  3.5427 -0.7100 -4.4275
  539SOL     OW 1615   2.740   0.836   2.170  0.0070  0.0873  0.1373
  539SOL    HW1 1616   2.791   0.791   2.248 -1.7262  0.2511 -1.0081
  539SOL    HW2 1617   2.721   0.775   2.091  1.6672 -0.3620  0.7631
  540SOL     OW 1618   1.639   1.034   2.234  0.3069 -0.0070 -0.5135
  540SOL    HW1 1619   1.680   1.083   2.316 -2.6741 -0.3105 -0.9779
  540SOL    HW2 1620   1.610   1.105   2.167  2.7373 -1.4607  0.0445
  541SOL     OW 1621   0.818   0.868   1.917  0.2076 -0.3173  0.5142
  541SOL    HW1 1622   0.872   0.819   1.993  0.6484  0.3757 -3.3191
  541SOL    HW2 1623   0.748   0.799   1.890  2.0729  0.3144  1.7550
  542SOL     OW 1624   2.075   2.908   2.611  0.1701 -0.2513 -0.2997
  542SOL    HW1 1625   2.067   2.809   2.592 -0.3295  2.6284 -1.6585
  542SOL    HW2 1626   2.093   2.964   2.528 -2.3829 -0.7288 -1.8563
  543SOL     OW 1627   1.057   0.084   0.272  0.0502  0.1495  0.2405
  543SOL    HW1 1628   1.088   0.145   0.344  0.5183  2.4658  2.0817
  543SOL    HW2 1629   1.120   0.102   0.195 -1.2382  0.5806  0.7020
  544SOL     OW 1630   2.713   1.580   1.765  0.0469 -0.2856  0.2799
  544SOL    HW1 1631   2.734   1.508   1.836  0.8620 -1.5484  0.5789
  544SOL    HW2 1632   2.670   1.659   1.805 -0.9489  3.4384 -0.6643
  545SOL     OW 1633   2.088   2.204   1.742  0.6381 -0.1043 -0.2820
  545SOL    HW1 1634   2.187   2.216   1.745 -0.5861 -2.1475  0.2582
  545SOL    HW2 1635   2.066   2.125   1.679 -1.2374  0.0076 -1.7375
  546SOL     OW 1636   0.332   0.154   3.055  0.2223 -0.2082 -0.4005
  546SOL    HW1 1637   0.304   0.114   2.965 -2.6293  1.6174 -1.6904
  546SOL    HW2 1638   0.253   0.196   3.098  0.4243 -1.4108  0.3693
  547SOL     OW 1639   1.801   0.849   0.548  0.5092 -0.1195  0.0726
  547SOL    HW1 1640   1.709   0.827   0.590 -1.5672  0.3782 -1.4609
  547SOL    HW2 1641   1.813   0.947   0.515 -0.2523  2.2633  0.4064
  548SOL     OW 1642   2.062   1.446   2.172  0.4108  0.0993 -0.8497
  548SOL    HW1 1643   1.976   1.397   2.157 -2.5171  1.5018  2.0728
  548SOL    HW2 1644   2.117   1.395   2.244  1.0049  1.0990  2.1450
  549SOL     OW 1645   1.972   0.033   0.570  0.3389  0.7225  0.6241
  549SOL    HW1 1646   2.060   0.052   0.524 -4.0958  0.8177  1.1864
  549SOL    HW2 1647   1.973   0.062   0.668 -0.2924  0.0021 -0.6864
  550SOL     OW 1648   2.158   2.125   0.674  0.1313  0.4032 -0.1123
  550SOL    HW1 1649   2.066   2.149   0.640 -0.5188  0.4712 -0.4982
  550SOL    HW2 1650   2.146   2.082   0.760 -0.8281  3.4093 -2.5814
  551SOL     OW 1651   1.041   2.948   1.670 -0.1764 -0.3922 -0.3787
  551SOL    HW1 1652   0.970   2.958   1.598  1.2241  2.1011 -0.2598
  551SOL    HW2 1653   1.036   3.033   1.723 -1.3191 -0.7646  2.6416
  552SOL     OW 1654   2.776   2.045   2.625  0.4223 -0.1905 -0.4055
  552SOL    HW1 1655   2.817   2.015   2.713 -0.1001 -0.5775  0.2266
  552SOL    HW2 1656   2.845   2.099   2.573 -1.6018  1.5360  0.3498
  553SOL     OW 1657   0.309   0.032   0.863  0.3484 -0.4960  0.0121
  553SOL    HW1 1658   0.353   0.061   0.953 -0.4126 -1.0109  1.3865
  553SOL    HW2 1659   0.272   3.038   0.877  0.9391  1.8368 -1.3478
  554SOL     OW 1660   2.355   2.179   1.699  0.1594  0.4347 -0.1117
  554SOL    HW1 1661   2.340   2.173   1.600 -3.4034 -0.6030  1.8046
  554SOL    HW2 1662   2.450   2.213   1.716  0.3450 -1.0548  1.5475
  555SOL     OW 1663   1.193   2.379   1.983  0.3517  0.3414  0.2770
  555SOL    HW1 1664   1.244   2.323   1.918  1.1361 -1.0071  0.3060
  555SOL    HW2 1665   1.135   2.448   1.937  1.1132  0.1269  1.3286
  556SOL     OW 1666   1.155   1.759   1.830  0.1151 -0.7061  0.2246
  556SOL    HW1 1667   1.099   1.837   1.859 -0.8488 -1.0367  0.6383
  556SOL    HW2 1668   1.219   1.739   1.904  1.1816 -0.8090  1.3018
  557SOL     OW 1669   1.909   2.332   2.316  0.1227 -0.6177 -0.0159
  557SOL    HW1 1670   1.908   2.229   2.316 -0.3003  3.0901 -0.3707
  557SOL    HW2 1671   1.973   2.363   2.389 -0.8094  1.4290 -3.4571
  558SOL     OW 1672   0.352   2.660   1.876  0.4285  0.2039 -0.6467
  558SOL    HW1 1673   0.332   2.756   1.879 -1.0065 -0.1922 -1.6500
  558SOL    HW2 1674   0.431   2.631   1.818 -2.2568 -1.6027  0.4405
  559SOL     OW 1675   2.138   2.894   1.034  0.6357 -0.3460 -0.4186
  559SOL    HW1 1676   2.216   2.944   0.998 -0.5068 -0.7670  3.1054
  559SOL    HW2 1677   2.169   2.844   1.117  0.4463  1.0882  1.1918
  560SOL     OW 1678   1.310   2.238   0.335 -0.3441  0.1958  0.4716
  560SOL    HW1 1679   1.228   2.175   0.339 -1.3599  2.2560  0.2840
  560SOL    HW2 1680   1.386   2.206   0.400  0.9366  1.3432  0.7464
  561SOL     OW 1681   1.035   0.475   3.055 -0.9019  0.8717 -0.0844
  561SOL    HW1 1682   1.132   0.438   3.066  3.2435  0.7095  1.3140
  561SOL    HW2 1683   0.978   0.453   0.035  0.1475 -1.4319  0.4576
  562SOL     OW 1684   0.690   0.089   2.745 -0.2945 -0.1798  0.1101
  562SOL    HW1 1685   0.700   0.118   2.846 -4.1998 -1.3720  1.0889
  562SOL    HW2 1686   0.747   0.004   2.729  1.4311  0.8425 -1.1239
  563SOL     OW 1687   1.331   1.900   2.879  0.0505  0.7750 -0.0002
  563SOL    HW1 1688   1.388   1.838   2.938 -2.1563 -0.0499  1.4102
  563SOL    HW2 1689   1.370   1.911   2.783 -1.3048  0.2993 -0.8997
  564SOL     OW 1690   2.278   1.081   1.038 -0.2734  0.0198  0.3322
  564SOL    HW1 1691   2.365   1.060   1.085 -0.3497 -0.5132 -0.9612
  564SOL    HW2 1692   2.302   1.134   0.955 -1.6667  0.6286 -0.1769
  565SOL     OW 1693   1.062   3.028   2.892 -0.0558 -0.4502 -1.1705
  565SOL    HW1 1694   0.994   3.009   2.964  2.3924 -2.3718 -1.7492
  565SOL    HW2 1695   1.103   0.024   2.904 -1.0973  1.3448  2.0668
  566SOL     OW 1696   1.697   0.028   2.426 -0.0707  0.8411 -0.3965
  566SOL    HW1 1697   1.786   0.001   2.387 -0.3504 -1.8136 -0.7396
  566SOL    HW2 1698   1.640   3.047   2.442 -1.6523  0.2081 -0.4486
  567SOL     OW 1699   2.070   1.440   0.495 -0.2422  0.0430  0.1020
  567SOL    HW1 1700   2.087   1.413   0.589 -2.4947  1.0835 -1.0015
  567SOL    HW2 1701   2.149   1.491   0.457  0.7397 -0.9820  2.4011
  568SOL     OW 1702   1.825   1.880   0.102 -0.7025 -0.3509 -0.2617
  568SOL    HW1 1703   1.923   1.853   0.107  1.2432  1.4116  0.4299
  568SOL    HW2 1704   1.799   1.911   0.007 -2.0727  2.3994 -2.8684
  569SOL     OW 1705   2.032   1.150   3.078  0.3828 -0.1607 -1.0345
  569SOL    HW1 1706   1.996   1.064   0.022  0.3801  1.2047 -0.9912
  569SOL    HW2 1707   2.109   1.189   0.037  3.4369  2.1154  1.7127
  570SOL     OW 1708   3.089   2.575   1.588 -0.1301  0.5829  0.7396
  570SOL    HW1 1709   3.100   2.673   1.612 -2.4020  0.0699  0.1275
  570SOL    HW2 1710   0.079   2.526   1.595 -0.3532 -0.6804 -1.5480
  571SOL     OW 1711   0.147   0.687   1.871 -0.2146 -0.0400  0.0318
  571SOL    HW1 1712   0.222   0.759   1.882  0.0446 -1.2716 -0.7391
  571SOL    HW2 1713   0.075   0.702   1.946 -1.7529 -0.1062  0.7056
  572SOL     OW 1714   0.998   1.541   0.900  0.6330  0.2932  0.1954
  572SOL    HW1 1715   0.939   1.469   0.854 -0.3847  0.0659 -2.7854
  572SOL    HW2 1716   1.045   1.595   0.830  2.4021 -1.3363  1.5558
  573SOL     OW 1717   1.048   1.896   2.920 -0.0433  0.2500  0.3512
  573SOL    HW1 1718   1.009   1.971   2.861  0.0099 -1.6155  1.6365
  573SOL    HW2 1719   1.150   1.887   2.905 -1.8828  1.3058  1.6950
  574SOL     OW 1720   1.100   0.017   0.779  0.1311  0.2137 -0.2971
  574SOL    HW1 1721   1.013   3.098   0.729  1.1704  2.2473 -1.4051
  574SOL    HW2 1722   1.112   0.120   0.778 -1.0413 -1.7165 -1.4909
  575SOL     OW 1723   0.399   0.998   1.679 -0.4394  0.6140  0.2544
  575SOL    HW1 1724   0.409   1.090   1.638  0.5625 -1.7154  2.1630
  575SOL    HW2 1725   0.333   0.941   1.625  0.6171  2.0550  0.2571
  576SOL     OW 1726   2.000   0.007   1.372  0.0678  0.1896 -0.3660
  576SOL    HW1 1727   2.074   3.058   1.429  1.4913 -0.3222  1.3722
  576SOL    HW2 1728   1.970   3.048   1.299  2.1500  1.9865  1.3786
  577SOL     OW 1729   0.642   1.106   1.889 -0.4319  0.5429  0.4785
  577SOL    HW1 1730   0.673   1.173   1.817 -0.9383  2.1302 -0.6047
  577SOL    HW2 1731   0.708   1.029   1.887 -1.5747 -2.4060 -1.6421
  578SOL     OW 1732   2.259   0.543   2.654  0.0395  0.2446 -0.1320
  578SOL    HW1 1733   2.196   0.464   2.664  0.6063  1.1068 -0.5907
  578SOL    HW2 1734   2.237   0.600   2.572 -0.5690 -1.5553  0.9240
  579SOL     OW 1735   2.309   2.577   1.686 -0.6690  0.0375  0.2786
  579SOL    HW1 1736   2.371   2.538   1.755  0.4749  1.1577 -2.6816
  579SOL    HW2 1737   2.217   2.537   1.688  2.7625  1.5440 -2.0233
  580SOL     OW 1738   2.111   1.237   2.563 -0.3251 -0.2604 -0.3359
  580SOL    HW1 1739   2.092   1.335   2.555  1.1828  0.6739 -0.4720
  580SOL    HW2 1740   2.064   1.198   2.647 -0.4236 -1.1000  3.1967
  581SOL     OW 1741   1.227   1.203   2.929 -0.3312 -0.6267  0.0888
  581SOL    HW1 1742   1.269   1.245   3.015 -0.8055  1.0665  2.2096
  581SOL    HW2 1743   1.244   1.099   2.922 -0.1057 -1.3401  0.6101
  582SOL     OW 1744   1.029   1.537   1.672 -0.3588  0.5523 -0.2604
  582SOL    HW1 1745   1.103   1.464   1.665  1.0612 -3.9841 -0.8127
  582SOL    HW2 1746   1.059   1.612   1.735 -0.2822  0.4635  2.0549
  583SOL     OW 1747   1.803   1.247   1.290 -0.0432  0.0442 -0.5287
  583SOL    HW1 1748   1.736   1.171   1.297  3.5552  1.5879 -1.0595
  583SOL    HW2 1749   1.861   1.231   1.206 -1.1736 -0.2888 -2.1170
  584SOL     OW 1750   1.657   2.539   0.459  0.5912 -0.5190  0.1486
  584SOL    HW1 1751   1.557   2.557   0.457  0.3202 -0.9564 -2.1175
  584SOL    HW2 1752   1.692   2.500   0.544  0.7728  1.9501 -1.0304
  585SOL     OW 1753   1.909   2.667   2.809  0.4113 -0.0043  0.0863
  585SOL    HW1 1754   1.918   2.654   2.709 -2.1486 -0.0699 -3.6209
  585SOL    HW2 1755   2.003   2.674   2.854  1.7055 -1.9606  3.6206
  586SOL     OW 1756   2.600   2.304   0.999  0.0375  0.1782  0.3958
  586SOL    HW1 1757   2.532   2.372   1.033 -4.4044 -0.5292 -0.5232
  586SOL    HW2 1758   2.573   2.210   1.030  0.3146 -1.4215  2.4759
  587SOL     OW 1759   1.057   1.747   0.045  0.0682 -0.0558  0.4055
  587SOL    HW1 1760   1.015   1.819   3.086  0.4741  3.4870  0.0716
  587SOL    HW2 1761   1.147   1.718   0.006 -1.3286  0.8700  1.2516
  588SOL     OW 1762   0.661   0.220   0.969  0.0110 -0.1301 -0.1009
  588SOL    HW1 1763   0.731   0.286   1.005 -2.6324 -1.9424 -0.7892
  588SOL    HW2 1764   0.662   0.214   0.868 -0.3087  0.5331 -3.7018
  589SOL     OW 1765   1.258   0.487   0.232  0.3970  0.3945  0.3573
  589SOL    HW1 1766   1.179   0.543   0.257  1.1285 -0.0961  0.6451
  589SOL    HW2 1767   1.292   0.509   0.141 -2.3031  1.5739  2.0237
  590SOL     OW 1768   1.429   0.122   2.812 -0.3601 -0.8186 -0.2372
  590SOL    HW1 1769   1.456   0.200   2.755 -0.2597 -1.0354  1.0215
  590SOL    HW2 1770   1.517   0.071   2.831  1.7619 -0.8332 -3.5959
  591SOL     OW 1771   3.053   2.413   2.291  0.1347 -0.1489 -0.0282
  591SOL    HW1 1772   0.005   2.363   2.220  3.5374 -1.7938  2.9970
  591SOL    HW2 1773   3.021   2.507   2.265  2.1452 -1.1372  2.2250
  592SOL     OW 1774   2.650   1.497   2.150  0.5596 -0.0220  0.2361
  592SOL    HW1 1775   2.712   1.452   2.082  2.6966 -1.1039  0.3269
  592SOL    HW2 1776   2.677   1.598   2.151  2.8782  0.9676 -1.4469
  593SOL     OW 1777   1.669   1.407   1.466 -0.0731  0.0220 -0.2670
  593SOL    HW1 1778   1.716   1.344   1.397 -2.9455  0.6196 -0.0992
  593SOL    HW2 1779   1.636   1.350   1.545 -1.4993 -0.4596 -1.8036
  594SOL     OW 1780   2.729   1.214   0.091  0.0177 -1.0968  0.1113
  594SOL    HW1 1781   2.828   1.206   0.114 -1.2953  0.7199 -0.9649
  594SOL    HW2 1782   2.686   1.123   0.077 -2.6283  0.0968 -0.0400
  595SOL     OW 1783   0.681   0.637   0.392 -0.7883 -0.4040 -0.0176
  595SOL    HW1 1784   0.632   0.577   0.454  0.3303  0.4806 -1.8943
  595SOL    HW2 1785   0.719   0.718   0.445  1.7188  2.0989  1.2589
  596SOL     OW 1786   0.438   1.234   1.555 -0.5224  0.2232 -0.4667
  596SOL    HW1 1787   0.525   1.260   1.596  1.2861 -1.3538  0.1221
  596SOL    HW2 1788   0.383   1.319   1.532 -0.4358  1.7714 -1.7193
  597SOL     OW 1789   1.158   1.914   0.822 -0.5487 -0.0665 -0.1503
  597SOL    HW1 1790   1.176   1.913   0.924 -0.4945  0.2629 -0.7865
  597SOL    HW2 1791   1.185   1.997   0.776 -0.1151  0.8698  1.0558
  598SOL     OW 1792   0.039   0.087   1.630  0.0995 -0.0301 -0.7126
  598SOL    HW1 1793   3.090   0.032   1.703  0.2419  0.1560  1.5945
  598SOL    HW2 1794   0.065   0.031   1.548  0.2789 -3.3962 -0.7555
  599SOL     OW 1795   0.379   1.377   2.696  0.1796 -0.1714 -0.0148
  599SOL    HW1 1796   0.332   1.458   2.744 -1.8334  0.8652  0.7178
  599SOL    HW2 1797   0.352   1.370   2.598 -0.0249  0.5555 -1.3656
  600SOL     OW 1798   0.670   0.600   2.660  0.2249 -0.0317  0.0882
  600SOL    HW1 1799   0.739   0.593   2.591 -1.3652  0.0575  1.5459
  600SOL    HW2 1800   0.708   0.564   2.744 -1.2989  2.4083 -0.0772
  601SOL     OW 1801   0.662   1.020   1.571 -0.0470  0.1195  0.3351
  601SOL    HW1 1802   0.642   0.959   1.493  1.1430  1.0953  1.5508
  601SOL    HW2 1803   0.586   1.038   1.633  2.6109 -1.0941 -2.3824
  602SOL     OW 1804   0.518   3.037   3.077 -0.2508 -0.3390 -0.4265
  602SOL    HW1 1805   0.604   3.079   0.017 -0.2370  1.7038 -0.2681
  602SOL    HW2 1806   0.439   0.004   3.078 -4.9974  2.0379  0.7080
  603SOL     OW 1807   1.531   2.668   2.494  0.1654  0.0827  0.2251
  603SOL    HW1 1808   1.508   2.625   2.587  0.6049  1.8809 -0.2555
  603SOL    HW2 1809   1.524   2.767   2.505 -1.9504  0.0645 -1.2836
  604SOL     OW 1810   0.192   2.630   2.888  0.3961 -0.1489  0.0397
  604SOL    HW1 1811   0.168   2.554   2.951 -2.7288  2.9985 -1.2530
  604SOL    HW2 1812   0.288   2.611   2.854 -0.4422 -0.6845 -0.7741
  605SOL     OW 1813   2.384   1.079   1.672 -0.4935 -0.2418 -0.4479
  605SOL    HW1 1814   2.299   1.131   1.674  4.0312 -1.3899  1.5707
  605SOL    HW2 1815   2.419   1.047   1.763  1.6541 -2.0053 -0.9535
  606SOL     OW 1816   0.996   1.055   2.796  0.6381  0.7116 -0.5141
  606SOL    HW1 1817   1.053   1.095   2.865 -1.5834  0.8439  0.6938
  606SOL    HW2 1818   0.907   1.104   2.792  0.3912 -0.9304 -2.0975
  607SOL     OW 1819   0.857   0.418   1.031  0.0289  0.4920  0.4578
  607SOL    HW1 1820   0.807   0.496   0.993  2.2104 -0.4375 -2.6518
  607SOL    HW2 1821   0.958   0.446   1.021  1.3320  1.1703 -0.3648
  608SOL     OW 1822   2.900   1.513   1.559 -0.4175 -0.3207  0.5775
  608SOL    HW1 1823   2.825   1.548   1.621 -3.0405  0.6045 -1.3759
  608SOL    HW2 1824   2.879   1.419   1.539 -0.6380  2.9241 -0.6410
  609SOL     OW 1825   2.435   0.420   0.480  0.2648 -0.1696 -0.1103
  609SOL    HW1 1826   2.403   0.430   0.389  0.5332  1.1028  1.6361
  609SOL    HW2 1827   2.430   0.512   0.519 -1.1389 -0.4727 -0.9932
  610SOL     OW 1828   0.315   2.806   1.192  0.0974  0.0801 -0.2311
  610SOL    HW1 1829   0.331   2.857   1.279  1.3435 -1.2694  1.3634
  610SOL    HW2 1830   0.215   2.779   1.193  0.0617 -0.4916 -1.2958
  611SOL     OW 1831   1.588   2.020   0.179 -0.3001 -0.0280 -0.2531
  611SOL    HW1 1832   1.656   1.948   0.146 -0.0810 -3.6432 -2.4494
  611SOL    HW2 1833   1.514   2.026   0.112  1.1551 -0.0070  1.4813
  612SOL     OW 1834   0.474   0.067   1.938  0.1722  0.2814 -0.0792
  612SOL    HW1 1835   0.574   0.066   1.941  1.6438  1.3280  0.2186
  612SOL    HW2 1836   0.439   0.154   1.895  0.4024 -0.9897 -2.0911
  613SOL     OW 1837   0.314   2.090   0.783 -0.4091  0.2252 -0.3907
  613SOL    HW1 1838   0.228   2.135   0.750 -0.3992 -1.3025 -0.5432
  613SOL    HW2 1839   0.399   2.130   0.741  0.7156 -0.5388 -0.2184
  614SOL     OW 1840   2.184   0.217   1.949  0.8912  0.1398  0.0115
  614SOL    HW1 1841   2.244   0.257   2.023  1.3361 -1.3091 -0.9267
  614SOL    HW2 1842   2.186   0.115   1.953 -0.1197  0.1573 -1.3719
  615SOL     OW 1843   1.419   1.559   0.714 -0.5127 -0.7599  0.1025
  615SOL    HW1 1844   1.453   1.519   0.627 -0.0129  1.1442  0.1195
  615SOL    HW2 1845   1.323   1.591   0.706 -2.5987 -1.9005  1.0962
  616SOL     OW 1846   1.814   1.487   0.610  0.4957  0.2771 -0.6925
  616SOL    HW1 1847   1.901   1.473   0.556 -1.4304  0.4885 -1.6392
  616SOL    HW2 1848   1.783   1.397   0.651  2.1608 -0.4659  3.0152
  617SOL     OW 1849   1.600   0.616   3.082 -0.0892 -0.2308  0.3830
  617SOL    HW1 1850   1.606   0.717   0.003 -1.0818 -1.4010 -2.8426
  617SOL    HW2 1851   1.678   0.565   0.017 -0.7346 -0.0280  0.2125
  618SOL     OW 1852   0.905   0.490   1.924 -0.3842  0.0998  0.3867
  618SOL    HW1 1853   0.873   0.393   1.938  1.9214 -0.7328 -1.0736
  618SOL    HW2 1854   0.832   0.553   1.902  4.1402 -0.1962  1.4851
  619SOL     OW 1855   0.338   1.483   1.429  0.0289 -0.1362  0.5156
  619SOL    HW1 1856   0.253   1.537   1.423 -0.7950  1.6384 -0.8517
  619SOL    HW2 1857   0.379   1.492   1.524  0.9311 -0.3849  0.9662
  620SOL     OW 1858   2.587   2.960   2.665  0.8426 -0.3672  0.1388
  620SOL    HW1 1859   2.612   3.016   2.584  3.0438 -0.6573 -1.5695
  620SOL    HW2 1860   2.498   3.000   2.705  2.0478  2.1440 -1.9617
  621SOL     OW 1861   2.382   1.709   3.046 -0.2145 -0.2532  0.3473
  621SOL    HW1 1862   2.447   1.685   0.018  0.0168  0.8730 -2.2028
  621SOL    HW2 1863   2.347   1.803   3.069  2.3898  0.8320  2.9594
  622SOL     OW 1864   1.311   0.602   2.856  0.6497 -0.7480  0.1248
  622SOL    HW1 1865   1.339   0.578   2.953 -0.7866 -1.4474  0.4325
  622SOL    HW2 1866   1.395   0.629   2.808  2.2092  1.7931 -2.0700
  623SOL     OW 1867   0.775   1.563   1.598 -0.1697  0.1231 -0.0621
  623SOL    HW1 1868   0.875   1.547   1.622 -0.4256  0.0571  0.6754
  623SOL    HW2 1869   0.725   1.483   1.631  2.7784  0.1909 -1.5468
  624SOL     OW 1870   2.984   0.059   0.397 -0.4105 -0.2855  0.3541
  624SOL    HW1 1871   3.043   0.029   0.319  0.8796 -1.2003  0.9822
  624SOL    HW2 1872   3.028   0.126   0.459 -0.9117 -0.5781 -0.6379
  625SOL     OW 1873   0.798   2.181   0.749  0.4822  0.1928 -0.1809
  625SOL    HW1 1874   0.708   2.193   0.701  0.8180  1.6953  1.4315
  625SOL    HW2 1875   0.871   2.234   0.701  0.3226  0.0117  1.0346
  626SOL     OW 1876   2.827   0.708   2.396 -0.0869 -0.0120 -0.2695
  626SOL    HW1 1877   2.873   0.617   2.425  3.1476  0.5642 -0.7751
  626SOL    HW2 1878   2.744   0.729   2.454 -2.3253 -2.1856 -1.8643
  627SOL     OW 1879   0.954   2.052   2.744 -0.2465  0.2006  0.2772
  627SOL    HW1 1880   1.022   2.092   2.679  1.7868  0.7891 -0.4241
  627SOL    HW2 1881   0.871   2.014   2.691 -1.0561  0.2181  0.6369
  628SOL     OW 1882   2.848   2.554   2.822  0.2820 -0.4734  0.2846
  628SOL    HW1 1883   2.823   2.514   2.734 -0.4779 -0.7517  0.2583
  628SOL    HW2 1884   2.781   2.630   2.848 -4.0773 -1.1264  0.7886
  629SOL     OW 1885   0.815   2.944   2.701 -0.0356  0.0247  0.0344
  629SOL    HW1 1886   0.814   2.843   2.682 -0.5290 -1.0021 -0.2542
  629SOL    HW2 1887   0.896   3.003   2.681  2.6838  2.3269  3.3307
  630SOL     OW 1888   0.833   0.313   2.179  0.2501  0.0597  0.0982
  630SOL    HW1 1889   0.909   0.383   2.176  1.0370 -0.8784 -1.5650
  630SOL    HW2 1890   0.874   0.216   2.173  0.8160 -2.4670 -2.7333
  631SOL     OW 1891   2.134   0.991   0.377 -0.1377 -0.1887 -0.1090
  631SOL    HW1 1892   2.151   0.890   0.362  2.3361 -0.8158  1.2272
  631SOL    HW2 1893   2.073   1.047   0.319 -1.4733  0.2788  1.1005
  632SOL     OW 1894   2.483   0.195   1.788 -0.2239  0.2373 -0.5018
  632SOL    HW1 1895   2.483   0.093   1.770  3.2315  0.4610  0.3279
  632SOL    HW2 1896   2.573   0.232   1.762 -1.5295  0.6441  1.9404
  633SOL     OW 1897   1.255   1.171   0.267  0.1190 -0.0654  0.5065
  633SOL    HW1 1898   1.179   1.186   0.330 -0.4770 -0.6459 -1.5171
  633SOL    HW2 1899   1.255   1.076   0.230 -0.6469 -4.1241 -3.3022
  634SOL     OW 1900   2.621   2.828   2.097 -0.1741 -0.2878  0.7423
  634SOL    HW1 1901   2.638   2.735   2.054  0.5542 -1.1698  1.3851
  634SOL    HW2 1902   2.608   2.824   2.195 -1.4701 -1.1649 -0.1133
  635SOL     OW 1903   1.653   0.376   0.522  0.3803 -0.0575  0.4103
  635SOL    HW1 1904   1.612   0.286   0.494  0.3910  1.7707  0.6627
  635SOL    HW2 1905   1.668   0.370   0.623 -1.7052  1.9616 -3.5211
  636SOL     OW 1906   0.674   1.210   0.609  0.0928  0.0697  0.3817
  636SOL    HW1 1907   0.631   1.278   0.551  1.9766 -1.3655  1.4037
  636SOL    HW2 1908   0.608   1.144   0.643  3.2362  3.2221  1.1226
  637SOL     OW 1909   2.422   1.986   0.077  0.2763  0.3299  0.1779
  637SOL    HW1 1910   2.514   1.977   0.113 -0.6831 -0.0673  1.1418
  637SOL    HW2 1911   2.352   1.995   0.147  0.3663 -1.8713  0.9116
  638SOL     OW 1912   1.464   2.516   2.287 -0.1942  0.3984 -0.1073
  638SOL    HW1 1913   1.433   2.557   2.198 -0.9817 -1.7483  0.0949
  638SOL    HW2 1914   1.495   2.584   2.361  0.2596  1.2356  1.1998
  639SOL     OW 1915   1.407   1.963   0.622 -0.2036  0.3411 -0.1692
  639SOL    HW1 1916   1.375   1.945   0.526  0.3144 -2.7824 -1.4326
  639SOL    HW2 1917   1.357   2.046   0.657 -1.0363 -1.3746 -1.2970
  640SOL     OW 1918   2.152   2.899   0.382  0.0706  0.3211  0.1197
  640SOL    HW1 1919   2.124   2.874   0.287 -0.6602 -1.0261 -0.9684
  640SOL    HW2 1920   2.156   3.001   0.395  1.8352  1.0934 -0.6502
  641SOL     OW 1921   3.020   0.614   0.031  0.1399 -0.0542 -0.0582
  641SOL    HW1 1922   2.965   0.574   0.103  1.5401  1.2361 -0.3043
  641SOL    HW2 1923   0.018   0.584   0.038  2.1814 -0.3760 -0.4897
  642SOL     OW 1924   0.611   0.585   1.134 -0.1283  0.0021 -0.0159
  642SOL    HW1 1925   0.523   0.596   1.085  0.0981 -2.1503  2.3367
  642SOL    HW2 1926   0.591   0.504   1.194 -1.6681  1.0565 -1.6307
  643SOL     OW 1927   0.825   1.176   2.347  0.5505 -0.1853 -0.0320
  643SOL    HW1 1928   0.759   1.164   2.268 -4.5662  1.7536 -0.7623
  643SOL    HW2 1929   0.808   1.264   2.392  0.3720 -2.7920  1.1668
  644SOL     OW 1930   1.572   2.159   0.405  0.1691  0.1320  0.5255
  644SOL    HW1 1931   1.573   2.127   0.304 -1.9228 -2.6907 -1.0570
  644SOL    HW2 1932   1.634   2.101   0.465  1.1615 -0.2223  0.7989
  645SOL     OW 1933   1.134   2.023   0.326 -0.3170 -0.5515  0.1189
  645SOL    HW1 1934   1.103   2.034   0.228  0.6840  2.9001 -1.4286
  645SOL    HW2 1935   1.208   1.951   0.340  0.1265 -0.8863  2.1982
  646SOL     OW 1936   0.150   1.808   2.686 -0.5740 -0.4128  0.3389
  646SOL    HW1 1937   0.160   1.740   2.614  1.3722  1.0215  2.0172
  646SOL    HW2 1938   0.131   1.902   2.646  1.1585  0.6578  0.0371
  647SOL     OW 1939   1.170   0.439   1.008  0.1151 -0.3996 -0.0940
  647SOL    HW1 1940   1.240   0.374   1.034  2.4419  0.7480  0.6919
  647SOL    HW2 1941   1.204   0.530   1.035  0.1083 -0.2195 -2.8155
  648SOL     OW 1942   1.387   0.319   0.821 -0.3483 -0.1186  0.1841
  648SOL    HW1 1943   1.376   0.292   0.916  1.4731 -0.9095 -0.0612
  648SOL    HW2 1944   1.437   0.249   0.764 -1.4213 -0.6689 -0.8426
  649SOL     OW 1945   1.151   1.604   0.418  0.4126  0.1377  0.5741
  649SOL    HW1 1946   1.063   1.626   0.372 -1.5344 -0.7924 -3.0976
  649SOL    HW2 1947   1.211   1.551   0.349  0.7081 -0.9852 -0.0211
  650SOL     OW 1948   2.429   1.473   1.833 -0.3205 -0.4472 -0.2905
  650SOL    HW1 1949   2.531   1.494   1.821  1.9381 -0.1430 -1.6152
  650SOL    HW2 1950   2.377   1.547   1.881  0.9647  0.2073 -0.1539
  651SOL     OW 1951   1.580   2.133   2.833 -0.5095  0.3136  0.0221
  651SOL    HW1 1952   1.510   2.197   2.872  0.5942  1.1187 -0.5149
  651SOL    HW2 1953   1.603   2.170   2.737 -0.5696  0.6417  0.0054
  652SOL     OW 1954   2.553   1.693   0.156  0.4766  0.0144  0.4108
  652SOL    HW1 1955   2.615   1.769   0.189  2.8601  0.7487  0.6016
  652SOL    HW2 1956   2.526   1.630   0.229 -1.1811 -0.2308 -1.0538
  653SOL     OW 1957   0.388   0.475   0.895 -0.7083  0.5717  0.6102
  653SOL    HW1 1958   0.453   0.399   0.913 -1.6978 -1.4317  2.1978
  653SOL    HW2 1959   0.300   0.441   0.863  3.7575 -0.1023  2.5804
  654SOL     OW 1960   2.967   0.142   2.244  0.1564  0.3248 -0.2125
  654SOL    HW1 1961   2.932   0.065   2.188 -2.3432 -0.5863  1.3083
  654SOL    HW2 1962   3.029   0.110   2.324  2.2919 -2.1291  0.1372
  655SOL     OW 1963   0.340   2.428   0.744 -0.5856 -0.2086  0.0735
  655SOL    HW1 1964   0.312   2.525   0.711  0.1240  1.8603  2.1765
  655SOL    HW2 1965   0.266   2.361   0.719  0.3353  0.9625 -2.7692
  656SOL     OW 1966   3.069   3.082   2.785 -0.3021  0.3165 -1.0988
  656SOL    HW1 1967   3.046   3.056   2.691  0.5944  2.8515  1.0001
  656SOL    HW2 1968   3.002   3.044   2.850  1.7201  3.0160  0.6062
  657SOL     OW 1969   0.089   1.255   3.083 -0.1154  0.2226 -0.2734
  657SOL    HW1 1970   0.071   1.355   3.075  1.5720  1.5704 -2.1643
  657SOL    HW2 1971   0.192   1.240   3.072  3.1708  1.2623  0.8869
  658SOL     OW 1972   2.386   1.721   1.304  0.1910 -0.2361  0.0961
  658SOL    HW1 1973   2.326   1.794   1.271  1.4740 -0.4321 -0.8165
  658SOL    HW2 1974   2.369   1.699   1.405  0.1743  0.0536  0.0386
  659SOL     OW 1975   1.605   2.764   0.102 -0.5481 -0.0142 -0.2297
  659SOL    HW1 1976   1.548   2.681   0.122  5.6652  1.4856 -2.9630
  659SOL    HW2 1977   1.672   2.742   0.028 -2.1987  0.8379  3.3321
  660SOL     OW 1978   1.639   0.959   2.803 -0.4842 -0.3258 -0.4686
  660SOL    HW1 1979   1.671   0.949   2.707  0.1905  0.1447  1.7343
  660SOL    HW2 1980   1.596   1.048   2.821  0.2553 -0.9617  1.3989
  661SOL     OW 1981   0.198   2.085   1.299  0.5094  0.1443 -0.5915
  661SOL    HW1 1982   0.211   2.081   1.198  1.9790  1.6256  0.2601
  661SOL    HW2 1983   0.094   2.081   1.320  0.5880  0.4008  0.4006
  662SOL     OW 1984   0.309   0.726   3.069 -0.3198  0.3330  0.2348
  662SOL    HW1 1985   0.236   0.751   3.003 -2.3500 -0.8803 -0.9936
  662SOL    HW2 1986   0.283   0.642   0.016 -2.1564  1.5912 -0.8733
  663SOL     OW 1987   2.144   1.916   1.436 -0.9249  0.0007  0.2065
  663SOL    HW1 1988   2.083   1.838   1.417 -0.3811 -0.8613  0.6762
  663SOL    HW2 1989   2.206   1.887   1.510 -3.1004 -1.6200 -2.1672
  664SOL     OW 1990   0.884   1.256   1.189 -0.3046  0.2649 -0.4723
  664SOL    HW1 1991   0.800   1.233   1.245 -1.9908  0.8843  1.8754
  664SOL    HW2 1992   0.921   1.346   1.226 -2.6116  0.0280  2.0184
  665SOL     OW 1993   1.948   2.696   2.048 -0.5774  0.9050  0.1665
  665SOL    HW1 1994   1.887   2.761   2.099  0.4996 -0.0428  0.3276
  665SOL    HW2 1995   1.974   2.738   1.961 -0.6261  0.6685  0.0222
  666SOL     OW 1996   2.908   2.688   0.307  0.5281 -0.0579  0.0868
  666SOL    HW1 1997   2.942   2.595   0.346  0.7314 -1.4946  1.9785
  666SOL    HW2 1998   2.957   2.769   0.353 -2.6117  0.3351 -1.6273
  667SOL     OW 1999   2.701   1.113   1.612 -0.2237 -0.3241 -0.1880
  667SOL    HW1 2000   2.622   1.080   1.555  1.1778 -1.5162 -2.1648
  667SOL    HW2 2001   2.674   1.114   1.711  0.3162 -1.3251  0.8124
  668SOL     OW 2002   0.367   0.787   2.505 -0.2654  0.2762 -0.1733
  668SOL    HW1 2003   0.392   0.749   2.596 -0.4792  0.6767 -1.2975
  668SOL    HW2 2004   0.278   0.754   2.475 -0.0541  2.5894  0.5334
  669SOL     OW 2005   2.388   2.013   2.413  0.5354 -0.0411 -0.2576
  669SOL    HW1 2006   2.341   1.983   2.328  0.6520  0.2461 -1.9764
  669SOL    HW2 2007   2.475   2.053   2.383 -0.3455  0.5656 -0.3902
  670SOL     OW 2008   2.793   1.387   1.932  0.1347 -0.2570 -0.2357
  670SOL    HW1 2009   2.752   1.294   1.907  0.9098  1.3047  0.9237
  670SOL    HW2 2010   2.894   1.386   1.943  0.2101  0.6265 -1.5718
  671SOL     OW 2011   2.820   1.625   0.861 -0.4776  0.1740 -0.4921
  671SOL    HW1 2012   2.908   1.605   0.812 -1.3911 -0.8675  0.4291
  671SOL    HW2 2013   2.745   1.569   0.821  2.1501 -1.8284 -0.6369
  672SOL     OW 2014   2.453   0.642   2.140 -0.0156  0.1200 -0.7166
  672SOL    HW1 2015   2.371   0.699   2.121 -0.8073 -1.5716  0.5103
  672SOL    HW2 2016   2.525   0.649   2.070 -0.9481  1.9528  2.2000
  673SOL     OW 2017   2.448   3.085   2.321 -0.0659 -0.3279 -0.1022
  673SOL    HW1 2018   2.452   0.049   2.242  1.7809 -0.3577  2.2501
  673SOL    HW2 2019   2.518   3.015   2.310 -0.2700  2.1073  0.4662
  674SOL     OW 2020   1.549   2.421   1.504 -0.2867 -0.2035  0.6405
  674SOL    HW1 2021   1.597   2.390   1.593  2.6849 -1.5107  1.1021
  674SOL    HW2 2022   1.596   2.387   1.419  3.6127 -1.9801 -0.1335
  675SOL     OW 2023   0.825   0.697   0.831  0.3565  0.1368 -0.0890
  675SOL    HW1 2024   0.818   0.732   0.926  0.7295 -0.4811 -1.7451
  675SOL    HW2 2025   0.743   0.729   0.781 -0.4239  0.5550  0.4786
  676SOL     OW 2026   1.656   0.949   0.842  0.0431 -0.2350  0.2678
  676SOL    HW1 2027   1.661   1.028   0.781  0.8707  1.6009 -4.8659
  676SOL    HW2 2028   1.613   0.870   0.792  0.3130  1.4367 -1.8296
  677SOL     OW 2029   2.663   1.282   2.314 -0.4907  0.5353 -0.1430
  677SOL    HW1 2030   2.611   1.209   2.270 -0.0001  2.8198 -0.0090
  677SOL    HW2 2031   2.662   1.360   2.250  0.4888  0.1961  2.4755
  678SOL     OW 2032   2.645   1.805   1.203  0.6535 -0.4124 -0.1305
  678SOL    HW1 2033   2.727   1.754   1.235 -0.6062  0.3772 -0.1207
  678SOL    HW2 2034   2.555   1.775   1.252 -4.8675 -0.7801  0.9616
  679SOL     OW 2035   2.220   2.691   0.111 -0.1915  0.3398 -0.1341
  679SOL    HW1 2036   2.286   2.707   0.190 -0.4042  0.5357  0.1541
  679SOL    HW2 2037   2.124   2.704   0.142 -1.6216 -1.7447  1.7310
  680SOL     OW 2038   0.066   2.301   2.035  0.1451 -0.2536  0.2496
  680SOL    HW1 2039   0.161   2.333   2.033 -4.0710 -0.8150 -0.4119
  680SOL    HW2 2040   0.071   2.199   2.040 -0.3683 -1.3871 -0.5249
  681SOL     OW 2041   0.699   1.301   1.707  0.1336 -0.9170  0.1454
  681SOL    HW1 2042   0.777   1.237   1.689  0.2966  0.9586  0.3364
  681SOL    HW2 2043   0.726   1.362   1.784  0.4795  0.9522  0.4066
  682SOL     OW 2044   1.285   2.697   0.781  0.0042  0.2548 -0.4716
  682SOL    HW1 2045   1.341   2.641   0.719 -5.4617  4.3273  2.5552
  682SOL    HW2 2046   1.216   2.637   0.821  2.6727  0.6374  0.6830
  683SOL     OW 2047   2.116   1.405   0.791 -0.5211  0.1697  0.2409
  683SOL    HW1 2048   2.083   1.476   0.855 -1.9477 -1.2228 -0.5694
  683SOL    HW2 2049   2.056   1.324   0.788  1.1508  1.3248 -0.7358
  684SOL     OW 2050   0.339   2.312   2.054  0.4977 -0.3216 -0.2207
  684SOL    HW1 2051   0.371   2.225   2.098 -0.1361  2.2341  1.4969
  684SOL    HW2 2052   0.354   2.316   1.952  1.5050  3.3673 -2.0105
  685SOL     OW 2053   1.569   1.709   3.060  0.0440 -0.3790 -0.2428
  685SOL    HW1 2054   1.603   1.781   2.994 -0.4870  2.1183  1.5276
  685SOL    HW2 2055   1.642   1.650   3.097 -0.0755 -2.0324  1.1223
  686SOL     OW 2056   0.032   0.911   1.266  0.6593 -0.7001  0.2356
  686SOL    HW1 2057   3.048   0.966   1.254 -1.2111  1.5056 -1.8201
  686SOL    HW2 2058   0.098   0.968   1.313  2.1460 -3.0378 -1.9636
  687SOL     OW 2059   0.797   2.481   2.695  0.1681  0.1031 -0.1972
  687SOL    HW1 2060   0.778   2.436   2.786  2.3960 -1.3929 -0.6362
  687SOL    HW2 2061   0.793   2.413   2.619 -2.8483  0.1297  0.3849
  688SOL     OW 2062   2.563   1.805   1.893  0.3338 -0.3028  0.6341
  688SOL    HW1 2063   2.470   1.777   1.906 -0.5406 -0.5081 -2.0167
  688SOL    HW2 2064   2.617   1.787   1.978  0.2753 -0.7952  0.8086
  689SOL     OW 2065   2.040   0.704   1.977 -0.1126  0.2159 -0.5590
  689SOL    HW1 2066   2.071   0.641   1.902 -0.5786  1.5255  1.7345
  689SOL    HW2 2067   1.939   0.722   1.976  1.7719 -4.1363  0.3450
  690SOL     OW 2068   2.034   0.943   1.081 -0.1917 -0.2720 -0.3911
  690SOL    HW1 2069   2.135   0.965   1.064  0.3398 -0.4367 -2.8169
  690SOL    HW2 2070   1.979   0.945   0.992  0.3634 -1.4350 -0.7194
  691SOL     OW 2071   0.841   1.761   1.899 -0.4362 -0.0519 -0.6424
  691SOL    HW1 2072   0.854   1.823   1.980  1.4549 -0.2189  1.6527
  691SOL    HW2 2073   0.791   1.814   1.828  0.2255 -1.7638 -0.2446
  692SOL     OW 2074   2.085   0.299   1.402  0.4596  0.3341 -0.4065
  692SOL    HW1 2075   2.116   0.295   1.501  0.5895 -0.0094  0.5259
  692SOL    HW2 2076   2.042   0.206   1.383 -0.1229  4.0701 -0.0780
  693SOL     OW 2077   0.622   1.151   2.187  0.1353 -0.2740 -0.1825
  693SOL    HW1 2078   0.566   1.084   2.241  1.1567  0.6299  1.4894
  693SOL    HW2 2079   0.623   1.125   2.091  1.1623  0.3886  2.6231
  694SOL     OW 2080   1.697   2.786   1.399 -0.2857  0.4807 -0.2407
  694SOL    HW1 2081   1.632   2.822   1.325 -1.8128 -0.3429 -1.2757
  694SOL    HW2 2082   1.789   2.770   1.361 -1.3608  0.8216  2.3570
  695SOL     OW 2083   1.528   1.231   1.994  0.2460  0.0822  0.2414
  695SOL    HW1 2084   1.456   1.284   1.945  0.0067 -0.3687 -1.2960
  695SOL    HW2 2085   1.602   1.296   2.019  1.2312  0.6948 -0.8901
  696SOL     OW 2086   1.335   0.015   0.460 -0.2792 -0.0103 -0.0882
  696SOL    HW1 2087   1.284   0.095   0.431  0.3822  0.3541 -2.3729
  696SOL    HW2 2088   1.281   3.071   0.534 -1.2748 -0.4995 -2.2431
  697SOL     OW 2089   1.190   0.251   0.419  0.5435  0.4161  0.6531
  697SOL    HW1 2090   1.201   0.292   0.514 -0.4345  0.6765  2.2047
  697SOL    HW2 2091   1.216   0.323   0.351  1.3392  0.7008  0.0098
  698SOL     OW 2092   1.495   1.194   2.769  0.2464  0.3020  0.4670
  698SOL    HW1 2093   1.472   1.193   2.670 -0.0252  0.1150  2.3733
  698SOL    HW2 2094   1.409   1.215   2.821  1.5671  0.5987  0.3005
  699SOL     OW 2095   1.448   1.455   1.155  0.0900  0.1910 -0.0687
  699SOL    HW1 2096   1.488   1.550   1.143 -0.0788 -1.7135 -0.9556
  699SOL    HW2 2097   1.366   1.442   1.094  0.8335 -1.4203  0.1828
  700SOL     OW 2098   1.566   0.159   0.375 -0.0048  0.2291  0.7609
  700SOL    HW1 2099   1.471   0.130   0.374  2.1217 -1.0082 -0.0802
  700SOL    HW2 2100   1.622   0.071   0.390  1.8272 -3.1121 -1.8102
  701SOL     OW 2101   3.086   0.289   2.040 -0.2891  0.3825 -0.0401
  701SOL    HW1 2102   0.069   0.344   2.059 -3.4686 -3.0990 -1.1261
  701SOL    HW2 2103   3.052   0.247   2.127  0.2698 -1.6760 -2.5059
  702SOL     OW 2104   1.175   2.884   0.140 -0.1562 -0.0010 -0.0851
  702SOL    HW1 2105   1.268   2.907   0.099 -1.0199 -2.4883 -1.3142
  702SOL    HW2 2106   1.188   2.860   0.238  1.6778  0.7483 -0.1698
  703SOL     OW 2107   2.508   2.695   2.657  0.0410  0.1565 -0.3478
  703SOL    HW1 2108   2.416   2.685   2.605 -0.5736 -4.2865 -0.8646
  703SOL    HW2 2109   2.551   2.790   2.662  3.4428  3.0925  1.5841
  704SOL     OW 2110   0.668   2.274   1.008  0.3933  0.0026  0.3523
  704SOL    HW1 2111   0.687   2.259   0.905  2.8490  0.0217 -1.8788
  704SOL    HW2 2112   0.625   2.187   1.044 -0.8408 -2.0932  3.0403
  705SOL     OW 2113   2.960   0.438   1.832  0.0841 -0.1454 -0.0316
  705SOL    HW1 2114   3.007   0.399   1.915 -0.6938 -1.2789 -1.3696
  705SOL    HW2 2115   2.939   0.534   1.854 -2.4224  0.5818 -0.0382
  706SOL     OW 2116   1.745   3.064   0.444 -0.1500  0.1212  0.0273
  706SOL    HW1 2117   1.742   2.967   0.410 -0.8046  0.4177 -1.4371
  706SOL    HW2 2118   1.835   3.089   0.487  0.3778  0.3942 -1.5054
  707SOL     OW 2119   1.313   1.982   1.974  0.4588 -0.4721 -0.3110
  707SOL    HW1 2120   1.262   1.997   2.059 -0.0150  1.3118 -1.8548
  707SOL    HW2 2121   1.327   2.071   1.933 -1.6215 -1.9377  2.6681
  708SOL     OW 2122   2.917   2.364   1.667  0.3910  0.5327 -0.0348
  708SOL    HW1 2123   2.841   2.353   1.600 -1.8995  0.2011  1.0202
  708SOL    HW2 2124   2.964   2.449   1.645 -1.4941 -3.1140  1.4149
  709SOL     OW 2125   1.873   0.493   1.752  0.7603 -0.0049 -0.0223
  709SOL    HW1 2126   1.957   0.487   1.690  0.6251 -1.0723 -1.3612
  709SOL    HW2 2127   1.794   0.458   1.697  1.5180 -0.4835  1.2699
  710SOL     OW 2128   2.398   0.531   1.422 -0.4538  0.4712 -0.0908
  710SOL    HW1 2129   2.308   0.490   1.402 -0.2783 -0.6881 -0.2618
  710SOL    HW2 2130   2.473   0.461   1.433  0.1897  1.2721 -0.8751
  711SOL     OW 2131   0.097   2.102   0.461 -0.1584  0.3374  0.3533
  711SOL    HW1 2132   0.197   2.092   0.446 -2.0286  0.4829  1.2355
  711SOL    HW2 2133   0.048   2.015   0.440 -0.6149  0.9364  1.8765
  712SOL     OW 2134   0.408   2.631   2.393 -0.2700  0.1792 -0.4500
  712SOL    HW1 2135   0.345   2.578   2.335 -1.2176  0.4227 -0.9385
  712SOL    HW2 2136   0.446   2.708   2.342 -1.6337 -0.8806  2.0287
  713SOL     OW 2137   1.980   0.896   0.106  0.6459 -0.2315  0.1683
  713SOL    HW1 2138   2.043   0.818   0.101  1.7604  1.0016 -0.6748
  713SOL    HW2 2139   1.891   0.870   0.134  2.8205 -0.0113  0.0982
  714SOL     OW 2140   0.654   1.798   0.657 -0.2139 -0.2832  0.7094
  714SOL    HW1 2141   0.744   1.826   0.694 -0.2494  0.7428 -2.7359
  714SOL    HW2 2142   0.641   1.698   0.677 -2.6447 -3.5152 -0.6850
  715SOL     OW 2143   2.035   3.015   0.088 -0.0769 -0.4353  0.1140
  715SOL    HW1 2144   1.993   2.923   0.110  0.2937 -3.0166 -0.0812
  715SOL    HW2 2145   1.978   3.092   0.124 -0.2816 -1.6038 -2.6858
  716SOL     OW 2146   0.440   0.461   1.610 -0.2074 -0.2258  0.3603
  716SOL    HW1 2147   0.423   0.409   1.692  1.5234 -1.6278 -1.2734
  716SOL    HW2 2148   0.379   0.451   1.529  0.7663  3.0976 -0.2876
  717SOL     OW 2149   2.977   0.725   0.268 -0.2235 -0.4780 -0.3452
  717SOL    HW1 2150   3.002   0.757   0.172  1.4414 -2.3175 -1.0461
  717SOL    HW2 2151   3.047   0.666   0.305 -1.2311  3.7080  0.0466
  718SOL     OW 2152   1.276   0.926   2.964 -0.0102 -0.2142 -0.3221
  718SOL    HW1 2153   1.333   0.926   3.050 -1.8657 -0.1175  1.5269
  718SOL    HW2 2154   1.244   0.831   2.945  3.7551 -0.9889 -0.6226
  719SOL     OW 2155   2.782   1.537   3.083 -0.8972  0.5429 -0.5791
  719SOL    HW1 2156   2.692   1.531   0.020  0.0281  2.2244 -2.5066
  719SOL    HW2 2157   2.811   1.456   3.029 -0.8994  0.3994 -1.8311
  720SOL     OW 2158   1.486   0.984   1.059  0.2580 -0.3605 -0.0441
  720SOL    HW1 2159   1.562   0.986   0.990 -1.2755 -0.0241 -1.3590
  720SOL    HW2 2160   1.402   0.927   1.033 -0.2882 -2.5855  0.5392
  721SOL     OW 2161   2.720   0.698   0.325  0.1110 -0.1676  0.0150
  721SOL    HW1 2162   2.808   0.707   0.281 -1.1535 -0.7111  4.9048
  721SOL    HW2 2163   2.708   0.612   0.375 -1.1599 -0.2531 -1.1149
  722SOL     OW 2164   0.715   1.188   2.986 -0.2012  0.2115  0.0742
  722SOL    HW1 2165   0.689   1.114   2.921  1.3611 -0.1763  3.6125
  722SOL    HW2 2166   0.800   1.155   3.033  0.9778 -0.7859  1.2779
  723SOL     OW 2167   0.484   1.023   0.639 -0.4056  0.6419  0.2193
  723SOL    HW1 2168   0.445   0.984   0.724 -1.5249 -0.4146 -0.2711
  723SOL    HW2 2169   0.410   1.060   0.579  0.9180  0.9942 -1.3999
  724SOL     OW 2170   1.061   2.650   1.904 -0.3283  0.0008  0.1190
  724SOL    HW1 2171   1.037   2.598   1.817 -0.0220 -1.0287  0.1061
  724SOL    HW2 2172   1.152   2.688   1.888 -0.9108  1.5393 -0.1192
  725SOL     OW 2173   2.476   1.042   1.393 -0.4516  0.2545  0.3045
  725SOL    HW1 2174   2.429   1.071   1.479  2.3048  1.2151 -0.3626
  725SOL    HW2 2175   2.456   0.949   1.359 -1.0413  0.2050 -0.3172
  726SOL     OW 2176   1.706   2.792   0.346 -0.5968 -0.2256 -0.3728
  726SOL    HW1 2177   1.688   2.709   0.397  0.6807 -1.2399 -1.1918
  726SOL    HW2 2178   1.670   2.794   0.254  0.3575 -2.6258  0.2586
  727SOL     OW 2179   1.343   0.994   2.276  0.0161 -0.2417  0.4534
  727SOL    HW1 2180   1.285   1.075   2.244  0.6649 -0.7870 -1.0879
  727SOL    HW2 2181   1.443   1.006   2.274  0.4185 -2.3904 -0.1299
  728SOL     OW 2182   1.411   2.452   1.170  0.5498 -0.2869 -0.3884
  728SOL    HW1 2183   1.330   2.418   1.119 -2.8193 -0.5595 -1.7696
  728SOL    HW2 2184   1.377   2.493   1.258  2.0372 -1.0558  0.6147
  729SOL     OW 2185   1.782   0.642   1.292 -0.6156  0.1016 -0.0393
  729SOL    HW1 2186   1.730   0.571   1.238  1.4323 -1.4152 -1.6604
  729SOL    HW2 2187   1.715   0.710   1.332 -0.4418  4.6858  0.3070
  730SOL     OW 2188   0.500   2.061   2.180  0.1736 -0.2505 -0.0243
  730SOL    HW1 2189   0.571   2.120   2.139 -2.4000 -2.5856  1.0180
  730SOL    HW2 2190   0.516   1.964   2.168  0.9431 -0.3732  3.7095
  731SOL     OW 2191   0.542   0.279   0.641  0.1983 -0.1853  0.3039
  731SOL    HW1 2192   0.645   0.294   0.648  3.3710  1.5391 -0.0362
  731SOL    HW2 2193   0.514   0.267   0.542  1.0788  1.1962  0.3842
  732SOL     OW 2194   0.563   0.644   3.059  0.4447  0.7937 -0.2341
  732SOL    HW1 2195   0.625   0.725   3.050 -1.7400 -0.6922  2.8849
  732SOL    HW2 2196   0.465   0.673   3.074 -0.0416  0.5456  0.7137
  733SOL     OW 2197   1.123   2.405   1.142  0.2947  0.0568  0.5956
  733SOL    HW1 2198   1.031   2.361   1.151  1.2362 -2.6341  1.6967
  733SOL    HW2 2199   1.138   2.482   1.205 -0.2572 -0.4220 -1.1027
  734SOL     OW 2200   0.085   2.050   2.596 -0.1174  0.1802  0.2230
  734SOL    HW1 2201   0.024   2.085   2.519 -3.3353  3.6125 -4.6666
  734SOL    HW2 2202   0.070   2.103   2.683 -0.9768  0.9630 -0.5189
  735SOL     OW 2203   0.994   3.028   1.007  0.0234  0.0144 -0.1982
  735SOL    HW1 2204   0.900   3.060   1.021 -0.5670  0.0253 -0.9651
  735SOL    HW2 2205   1.034   3.064   0.919 -1.3112 -0.0335 -0.7153
  736SOL     OW 2206   1.795   0.350   3.040 -0.1782  0.0126  0.2290
  736SOL    HW1 2207   1.789   0.388   2.948  2.3007 -1.2269  0.1504
  736SOL    HW2 2208   1.799   0.426   0.010  0.4826 -1.5579 -1.0379
  737SOL     OW 2209   3.052   0.223   0.621 -0.1929 -0.4877 -0.4796
  737SOL    HW1 2210   0.041   0.266   0.591 -0.8960  0.7944 -0.1046
  737SOL    HW2 2211   2.978   0.292   0.621  0.6357  0.3632  1.3824
  738SOL     OW 2212   2.566   2.967   1.180  0.2849 -0.1490 -0.0111
  738SOL    HW1 2213   2.598   3.008   1.092  1.8760 -0.9628 -0.6474
  738SOL    HW2 2214   2.478   2.911   1.164  1.2171  0.3157 -0.7235
  739SOL     OW 2215   1.441   2.341   3.097 -0.5072 -0.3112 -0.0757
  739SOL    HW1 2216   1.539   2.364   0.019  1.9892 -2.5192  1.0515
  739SOL    HW2 2217   1.426   2.240   0.005  0.1491  1.9463  1.4310
  740SOL     OW 2218   1.580   2.865   1.170 -0.1226  0.0250 -0.1956
  740SOL    HW1 2219   1.512   2.937   1.149 -0.2900  1.6901  0.7749
  740SOL    HW2 2220   1.589   2.806   1.089  0.8550  5.0267  1.0904
  741SOL     OW 2221   1.990   0.589   0.768  0.0221 -0.0421 -0.2470
  741SOL    HW1 2222   1.997   0.616   0.669  2.2398 -0.4282  1.9250
  741SOL    HW2 2223   1.972   0.679   0.819 -0.9110  0.1019 -1.2248
  742SOL     OW 2224   1.264   2.317   2.251 -0.0506 -0.5564 -0.4724
  742SOL    HW1 2225   1.344   2.358   2.283 -1.1151 -3.1878 -4.1800
  742SOL    HW2 2226   1.242   2.358   2.159 -2.7129  0.0311  0.5816
  743SOL     OW 2227   2.185   0.574   1.771  0.1598 -0.0107  0.6250
  743SOL    HW1 2228   2.206   0.661   1.719 -1.5131  3.2635  0.5830
  743SOL    HW2 2229   2.262   0.542   1.823 -1.4019  1.4094 -0.3970
  744SOL     OW 2230   2.461   0.327   1.124  0.1712 -0.3589 -0.2339
  744SOL    HW1 2231   2.489   0.316   1.026  1.4612  0.1861 -0.8567
  744SOL    HW2 2232   2.379   0.272   1.135  0.9344 -0.4365  0.9623
  745SOL     OW 2233   1.909   1.177   1.555  0.0315  0.3253 -0.0703
  745SOL    HW1 2234   1.961   1.247   1.613  2.1003  4.1006  1.2767
  745SOL    HW2 2235   1.849   1.225   1.490 -0.7721 -2.4224 -0.5494
  746SOL     OW 2236   1.218   1.417   1.014  0.5297 -0.2780 -0.1845
  746SOL    HW1 2237   1.128   1.445   0.975  0.5342  1.5254 -1.1583
  746SOL    HW2 2238   1.242   1.324   0.982 -3.3075 -0.5007  0.1553
  747SOL     OW 2239   1.956   1.213   1.055 -0.3487  0.5396 -0.0882
  747SOL    HW1 2240   1.996   1.121   1.054 -1.0242  0.6113 -0.5458
  747SOL    HW2 2241   1.934   1.243   0.964  1.5393  2.1211  1.2448
  748SOL     OW 2242   3.084   2.599   0.733 -0.2794  0.0100  0.1613
  748SOL    HW1 2243   3.014   2.528   0.717 -0.5047  3.8245 -2.0980
  748SOL    HW2 2244   3.058   2.671   0.802 -1.6887 -0.2573  0.9603
  749SOL     OW 2245   0.026   0.013   2.456  0.3229 -0.3507  0.3179
  749SOL    HW1 2246   3.093   3.030   2.498 -0.0831  0.5051  1.3379
  749SOL    HW2 2247   0.129   0.007   2.447 -1.4287 -0.5894  0.3501
  750SOL     OW 2248   2.299   0.655   1.051 -0.0331 -0.2664 -0.3211
  750SOL    HW1 2249   2.211   0.664   1.110 -1.9150 -2.2834 -0.6573
  750SOL    HW2 2250   2.371   0.721   1.079  0.4335  1.7286  0.1448
  751SOL     OW 2251   2.955   0.613   0.603 -0.2922  0.5971  0.3032
  751SOL    HW1 2252   2.983   0.588   0.699  0.8985  2.0943 -0.5721
  751SOL    HW2 2253   3.041   0.608   0.548  1.6783  1.2366 -0.4314
  752SOL     OW 2254   0.068   2.628   1.119 -0.8525  0.4524  0.2991
  752SOL    HW1 2255   0.048   2.675   1.032 -0.8198  0.3456  2.6154
  752SOL    HW2 2256   0.089   2.531   1.109 -0.7932  3.4311 -0.0537
  753SOL     OW 2257   1.348   0.373   2.104 -0.0281  0.1056 -0.1300
  753SOL    HW1 2258   1.284   0.404   2.032 -0.2852  0.6147  0.6517
  753SOL    HW2 2259   1.444   0.367   2.070  2.5264 -0.1320  0.7906
  754SOL     OW 2260   1.628   2.407   1.775  0.0826  0.1117 -0.8308
  754SOL    HW1 2261   1.719   2.372   1.808  1.2321  1.6502 -0.9407
  754SOL    HW2 2262   1.584   2.470   1.849  1.0043  2.4142  1.8571
  755SOL     OW 2263   2.747   1.078   0.519  0.2512 -0.2496 -0.6925
  755SOL    HW1 2264   2.673   1.141   0.495 -1.3059  1.5511  0.0561
  755SOL    HW2 2265   2.820   1.081   0.450 -1.0912 -0.0704  0.0827
  756SOL     OW 2266   1.737   1.668   2.287  0.3528  0.3541 -0.1598
  756SOL    HW1 2267   1.838   1.659   2.297 -2.4538  1.7082 -0.8076
  756SOL    HW2 2268   1.694   1.595   2.343  2.9568 -1.6090  0.4049
  757SOL     OW 2269   1.545   2.894   0.609 -0.3384  0.1800  0.5945
  757SOL    HW1 2270   1.453   2.933   0.639 -2.2734  1.5026  1.0842
  757SOL    HW2 2271   1.600   2.954   0.541  1.1216  4.0937 -1.2245
  758SOL     OW 2272   0.661   2.918   1.259  0.3117  0.1619 -0.3951
  758SOL    HW1 2273   0.672   2.826   1.222 -2.0292  1.4589  0.5571
  758SOL    HW2 2274   0.696   2.982   1.188  1.2635 -0.8758  1.1931
  759SOL     OW 2275   0.183   0.978   1.069  0.0391 -0.2785  0.1840
  759SOL    HW1 2276   0.107   0.950   1.133  2.7119  1.3657 -2.3736
  759SOL    HW2 2277   0.188   1.076   1.070 -1.0033 -1.1357 -3.6431
  760SOL     OW 2278   2.290   1.295   1.219  0.0435  0.0006 -0.4813
  760SOL    HW1 2279   2.248   1.261   1.304  2.2882 -0.8051  0.8309
  760SOL    HW2 2280   2.295   1.220   1.152  2.3632 -1.5364 -3.1615
  761SOL     OW 2281   1.285   1.177   0.906 -0.0851  0.0745  0.2818
  761SOL    HW1 2282   1.351   1.109   0.949  3.0927  1.4686  0.4411
  761SOL    HW2 2283   1.204   1.130   0.862 -1.5908 -0.0740  1.2646
  762SOL     OW 2284   2.308   2.168   1.435  0.0465  0.0755  0.4810
  762SOL    HW1 2285   2.249   2.086   1.420 -0.1038 -1.7215  1.8665
  762SOL    HW2 2286   2.252   2.254   1.431  2.0347 -1.4174  1.1719
  763SOL     OW 2287   1.213   1.460   1.956  0.2357  0.5552 -0.1832
  763SOL    HW1 2288   1.265   1.456   2.042  0.8257 -0.1678 -1.9140
  763SOL    HW2 2289   1.274   1.437   1.878 -3.3057  2.2666  0.5424
  764SOL     OW 2290   3.025   1.872   2.363 -0.5084  0.4056 -0.6474
  764SOL    HW1 2291   0.023   1.892   2.344 -1.5092 -0.4175  0.2402
  764SOL    HW2 2292   3.017   1.797   2.427 -1.8883  2.5142  0.9418
  765SOL     OW 2293   1.181   2.670   1.230  0.1237  0.3583 -0.0816
  765SOL    HW1 2294   1.156   2.662   1.326  0.3406 -1.6863 -1.8644
  765SOL    HW2 2295   1.186   2.767   1.197 -0.1644  0.8987 -0.4068
  766SOL     OW 2296   0.753   2.311   2.481 -0.6758 -0.4720 -0.0179
  766SOL    HW1 2297   0.817   2.280   2.406  0.1250 -0.2143 -2.2373
  766SOL    HW2 2298   0.688   2.239   2.499 -0.3823  0.8122 -0.9244
  767SOL     OW 2299   1.695   0.191   2.643  0.4403  0.7670 -0.5203
  767SOL    HW1 2300   1.696   0.145   2.552  0.4007  3.5426  1.9069
  767SOL    HW2 2301   1.771   0.157   2.700 -0.1984 -0.4653 -0.5243
  768SOL     OW 2302   1.300   2.450   2.846  0.1444  0.1727  0.5323
  768SOL    HW1 2303   1.201   2.461   2.812 -0.2894 -3.1178 -1.9589
  768SOL    HW2 2304   1.307   2.414   2.940  1.3543  2.3307 -2.2823
  769SOL     OW 2305   2.932   2.584   1.336 -0.0336 -0.2725 -0.4558
  769SOL    HW1 2306   2.974   2.586   1.432 -1.0533 -0.5593  1.2356
  769SOL    HW2 2307   2.978   2.644   1.272  1.9167 -1.8304  0.1625
  770SOL     OW 2308   0.545   2.879   2.840 -0.1621 -0.0507 -0.3477
  770SOL    HW1 2309   0.544   2.937   2.926 -1.4216  0.4216  2.6728
  770SOL    HW2 2310   0.632   2.889   2.790  0.3069  0.6060 -2.4458
  771SOL     OW 2311   0.725   2.715   2.617  0.0380 -0.4273 -0.1752
  771SOL    HW1 2312   0.746   2.635   2.677 -1.4082  0.2735  0.7052
  771SOL    HW2 2313   0.667   2.697   2.537  1.2725  1.9108  0.2614
  772SOL     OW 2314   2.593   0.095   2.078 -0.0365  0.2665 -0.0060
  772SOL    HW1 2315   2.635   0.191   2.089 -0.7982  3.3077 -3.3930
  772SOL    HW2 2316   2.564   0.081   1.984 -0.5068 -0.0277  0.5624
  773SOL     OW 2317   0.823   2.532   1.785  0.4053 -0.0493  0.1723
  773SOL    HW1 2318   0.773   2.587   1.715 -2.9859  0.0114 -1.9575
  773SOL    HW2 2319   0.764   2.490   1.861 -0.4469 -2.1967 -2.6681
  774SOL     OW 2320   1.453   0.448   2.359  0.2684 -0.3474 -0.4053
  774SOL    HW1 2321   1.448   0.353   2.401  0.5513  1.4623  1.4748
  774SOL    HW2 2322   1.411   0.445   2.265  1.2900  0.9238 -1.5544
  775SOL     OW 2323   2.150   2.675   2.923  0.0169 -0.2248  0.3294
  775SOL    HW1 2324   2.204   2.683   3.006  0.0465  2.2794  1.1342
  775SOL    HW2 2325   2.174   2.594   2.873 -2.5548  1.9510 -1.2685
  776SOL     OW 2326   2.269   0.836   2.029 -0.3696  0.2977  0.6897
  776SOL    HW1 2327   2.171   0.823   2.050  0.2540  0.4581  0.0175
  776SOL    HW2 2328   2.281   0.805   1.935 -1.5554 -0.2619 -0.5411
  777SOL     OW 2329   2.890   1.000   2.454  0.0655 -0.1358 -0.7484
  777SOL    HW1 2330   2.843   0.914   2.436 -0.7027  1.3360  1.0182
  777SOL    HW2 2331   2.872   1.035   2.550 -3.2743  0.6688  1.2852
  778SOL     OW 2332   2.187   0.523   2.286  0.4241 -0.2115 -0.0504
  778SOL    HW1 2333   2.172   0.594   2.358  1.1723 -1.6143  1.6690
  778SOL    HW2 2334   2.093   0.502   2.245 -4.3452 -0.1532 -1.1438
  779SOL     OW 2335   0.024   3.095   0.175  0.1140  0.6292  0.5766
  779SOL    HW1 2336   3.076   3.021   0.121  0.4031 -0.2161  0.1028
  779SOL    HW2 2337   0.121   3.066   0.184 -1.4857 -0.8005 -0.6888
  780SOL     OW 2338   2.443   0.133   2.558  0.6480  0.0813 -0.1422
  780SOL    HW1 2339   2.351   0.167   2.529  2.1279  0.2916 -0.2584
  780SOL    HW2 2340   2.488   0.086   2.476 -0.9643 -1.0751 -0.9332
  781SOL     OW 2341   0.324   0.134   1.594 -0.2291  0.3488 -0.3455
  781SOL    HW1 2342   0.340   0.033   1.618  0.0928  0.9185  1.1136
  781SOL    HW2 2343   0.229   0.165   1.618 -1.5450  0.8039 -0.1471
  782SOL     OW 2344   1.788   2.166   3.020  0.9545  0.1046  0.7595
  782SOL    HW1 2345   1.883   2.146   2.991 -1.7934 -0.2341 -1.1163
  782SOL    HW2 2346   1.719   2.149   2.947 -0.1644  1.6568  1.7504
  783SOL     OW 2347   0.772   1.830   1.568 -0.2229 -0.3274 -0.4258
  783SOL    HW1 2348   0.865   1.866   1.544  0.2939 -0.4759  2.2331
  783SOL    HW2 2349   0.771   1.734   1.592  1.2604  1.7535  1.6004
  784SOL     OW 2350   1.934   0.545   2.186 -0.1318  0.0514 -0.0887
  784SOL    HW1 2351   1.862   0.501   2.132  0.0335 -0.1162  1.1377
  784SOL    HW2 2352   1.989   0.605   2.123 -1.9508  0.3112  1.0666
  785SOL     OW 2353   3.041   0.594   0.865  0.7177 -0.0612 -0.1064
  785SOL    HW1 2354   3.044   0.692   0.893  1.7175 -0.1525 -1.0221
  785SOL    HW2 2355   2.985   0.535   0.927 -0.7293  0.8385  1.6915
  786SOL     OW 2356   1.810   2.813   0.681 -0.3260  0.0223  0.7225
  786SOL    HW1 2357   1.725   2.856   0.643  1.2262 -1.9501  1.5619
  786SOL    HW2 2358   1.869   2.783   0.605  1.5459  0.0183  1.0492
  787SOL     OW 2359   1.065   0.293   0.809 -0.0761  0.1440 -0.2430
  787SOL    HW1 2360   1.082   0.349   0.726  0.0633  0.4692  0.6446
  787SOL    HW2 2361   1.113   0.334   0.889 -2.0932 -0.7481 -1.0198
  788SOL     OW 2362   0.114   1.234   1.192  0.0347 -0.0181 -0.0048
  788SOL    HW1 2363   0.072   1.233   1.282 -2.7283 -1.1941 -2.0350
  788SOL    HW2 2364   0.175   1.311   1.178 -2.2681 -2.7051  0.3366
  789SOL     OW 2365   3.061   0.726   2.070  0.2226 -0.6002 -0.5958
  789SOL    HW1 2366   3.029   0.641   2.118 -0.4872  1.2376 -0.7323
  789SOL    HW2 2367   3.084   0.798   2.140 -0.2962 -1.7385  0.6056
  790SOL     OW 2368   0.966   0.268   2.794 -0.1875  0.0594  0.8775
  790SOL    HW1 2369   0.933   0.365   2.780 -1.6713  0.4807  0.0263
  790SOL    HW2 2370   0.929   0.214   2.714 -0.5687  1.8298 -1.0364
  791SOL     OW 2371   2.566   0.276   0.162  0.6134 -0.1303  0.7153
  791SOL    HW1 2372   2.466   0.301   0.151 -3.7346  1.9177  0.6630
  791SOL    HW2 2373   2.595   0.237   0.252  1.8900  0.9171 -0.3439
  792SOL     OW 2374   1.480   0.552   1.059  0.0021 -0.3022  0.0768
  792SOL    HW1 2375   1.487   0.604   0.971  0.4873  2.4235 -0.0579
  792SOL    HW2 2376   1.568   0.502   1.073 -0.3233  2.1486 -2.1495
  793SOL     OW 2377   0.151   3.064   1.400  0.1894  0.3012  0.0579
  793SOL    HW1 2378   0.239   3.019   1.422  1.0692  0.4003  0.5208
  793SOL    HW2 2379   0.160   0.037   1.333 -1.5722 -1.9705  2.7402
  794SOL     OW 2380   0.266   0.467   1.988  0.5187 -0.1329 -0.1290
  794SOL    HW1 2381   0.222   0.531   1.921  0.5603  0.1369  2.9848
  794SOL    HW2 2382   0.242   0.503   2.078  0.9710 -0.1571 -2.9781
  795SOL     OW 2383   0.301   2.349   2.658  0.5934 -0.2250  0.1437
  795SOL    HW1 2384   0.380   2.400   2.626 -1.2937 -0.5204  2.7068
  795SOL    HW2 2385   0.213   2.385   2.614 -0.8883 -2.5285  2.2468
  796SOL     OW 2386   2.059   0.361   2.661  0.1436 -0.5280  0.0519
  796SOL    HW1 2387   1.993   0.410   2.602 -2.5860 -3.1621  0.1044
  796SOL    HW2 2388   2.009   0.289   2.713  0.4091  1.5076 -1.3577
  797SOL     OW 2389   2.345   2.245   2.856  0.0474 -0.0284  0.3145
  797SOL    HW1 2390   2.443   2.263   2.904  3.0194 -0.5673 -2.3456
  797SOL    HW2 2391   2.279   2.222   2.922  2.7837  1.4514 -1.5814
  798SOL     OW 2392   0.222   0.827   1.514  0.0043 -0.7471  0.0610
  798SOL    HW1 2393   0.264   0.764   1.447 -3.5996  0.0938  0.6275
  798SOL    HW2 2394   0.141   0.777   1.553 -2.7548  0.7115  2.1389
  799SOL     OW 2395   0.729   0.376   1.579  0.2166 -0.4803  0.2089
  799SOL    HW1 2396   0.634   0.402   1.594 -1.2338 -0.2607  0.3372
  799SOL    HW2 2397   0.762   0.318   1.659 -2.1430 -0.7910  2.7068
  800SOL     OW 2398   3.010   2.463   0.389 -0.3594 -0.0883  0.0525
  800SOL    HW1 2399   3.017   2.379   0.333 -0.9083 -1.4897 -0.8545
  800SOL    HW2 2400   0.002   2.497   0.404 -0.5366 -0.8193 -0.8841
  801SOL     OW 2401   1.690   2.015   0.593 -0.3586 -0.2653 -0.0483
  801SOL    HW1 2402   1.737   1.933   0.631  0.1850  0.8241 -0.5054
  801SOL    HW2 2403   1.605   2.027   0.645  3.3296 -2.0117 -1.9243
  802SOL     OW 2404   0.779   0.536   0.162  0.1474 -0.3897 -0.3369
  802SOL    HW1 2405   0.738   0.587   0.239  1.5567  1.2577 -1.0067
  802SOL    HW2 2406   0.725   0.558   0.077 -1.1509 -1.8450 -1.1383
  803SOL     OW 2407   1.080   0.973   2.002  0.1455 -0.9237  0.1400
  803SOL    HW1 2408   1.081   0.992   1.902  0.8394 -0.2986  3.4016
  803SOL    HW2 2409   1.032   0.889   2.024  2.7175  1.2585  1.8019
  804SOL     OW 2410   1.900   2.149   1.323  0.0375 -0.9134  0.2711
  804SOL    HW1 2411   1.919   2.125   1.426  1.4987 -0.8775 -2.3682
  804SOL    HW2 2412   1.984   2.115   1.272  0.4416 -2.7815 -0.2492
  805SOL     OW 2413   3.000   2.154   2.426  0.1661 -0.6931  0.2154
  805SOL    HW1 2414   2.974   2.071   2.371  0.0793 -1.4587 -0.7415
  805SOL    HW2 2415   2.969   2.244   2.388  1.6786 -0.3823  0.3899
  806SOL     OW 2416   0.458   2.577   0.480 -0.4999  0.8017  0.4776
  806SOL    HW1 2417   0.531   2.609   0.416 -0.2064 -0.2591 -1.8880
  806SOL    HW2 2418   0.425   2.480   0.457 -3.1386  1.6865 -1.7411
  807SOL     OW 2419   2.338   0.978   2.888 -0.1570 -0.2642  0.1068
  807SOL    HW1 2420   2.355   0.967   2.988 -0.6268 -2.1045  0.9840
  807SOL    HW2 2421   2.270   0.906   2.854 -2.3157 -0.0472  1.0803
  808SOL     OW 2422   1.508   2.275   0.662 -0.1002 -0.2227  0.0343
  808SOL    HW1 2423   1.522   2.216   0.574 -0.8731 -1.0546 -1.9954
  808SOL    HW2 2424   1.602   2.282   0.711  2.4300 -1.5822  1.3199
  809SOL     OW 2425   0.348   0.698   0.748 -0.2054 -0.4573 -0.3594
  809SOL    HW1 2426   0.380   0.782   0.806 -0.3116  4.3879  0.4962
  809SOL    HW2 2427   0.352   0.614   0.809 -0.2275 -1.7927  1.1352
  810SOL     OW 2428   1.313   1.666   3.088  0.1366  0.1407  0.3482
  810SOL    HW1 2429   1.302   1.595   3.013 -1.1062 -2.2493  0.1033
  810SOL    HW2 2430   1.414   1.694   3.101  0.0193  1.2887 -0.3114
  811SOL     OW 2431   1.374   2.956   1.665  0.0770  0.6253  0.1175
  811SOL    HW1 2432   1.474   2.955   1.636  0.7409 -1.9826 -1.5171
  811SOL    HW2 2433   1.307   2.985   1.596 -0.0883 -3.3708  2.8525
  812SOL     OW 2434   1.502   0.155   0.653 -0.4072 -0.3194  0.3221
  812SOL    HW1 2435   1.494   0.137   0.553 -3.3399  1.1606  1.1934
  812SOL    HW2 2436   1.526   0.071   0.701  0.4569  1.1652 -0.1533
  813SOL     OW 2437   1.561   2.940   2.130  0.1505  0.9356 -0.2066
  813SOL    HW1 2438   1.475   2.891   2.107  2.2165 -0.0297  0.2226
  813SOL    HW2 2439   1.536   3.028   2.164  0.1906 -1.3393 -1.7318
  814SOL     OW 2440   1.422   3.095   1.899 -0.2043  0.1185  0.6141
  814SOL    HW1 2441   1.501   3.043   1.940 -1.5486 -3.0331  0.7655
  814SOL    HW2 2442   1.407   3.073   1.798 -0.1953 -4.2801 -2.1028
  815SOL     OW 2443   0.300   3.069   0.195  0.5734 -0.9794  0.5878
  815SOL    HW1 2444   0.358   3.062   0.277  0.2408  3.0921 -1.1443
  815SOL    HW2 2445   0.344   0.016   0.117  2.3871  0.6465  0.6833
  816SOL     OW 2446   2.463   1.410   2.713 -0.1672 -1.2115 -0.4674
  816SOL    HW1 2447   2.465   1.306   2.712 -0.8357  0.0022  2.1158
  816SOL    HW2 2448   2.553   1.445   2.745 -0.5730 -1.0750  0.3994
  817SOL     OW 2449   2.555   2.221   2.631  0.0367  0.5722 -0.2546
  817SOL    HW1 2450   2.501   2.218   2.720 -0.0467 -1.8908  1.3734
  817SOL    HW2 2451   2.632   2.149   2.635  2.3771  0.6743  0.0917
  818SOL     OW 2452   1.049   1.374   0.166 -0.3289  0.0343 -0.0145
  818SOL    HW1 2453   1.049   1.308   0.239  0.8493  1.1167 -1.8529
  818SOL    HW2 2454   1.138   1.425   0.163  0.5911 -0.4355 -2.5521
  819SOL     OW 2455   1.616   1.383   0.016 -0.2624 -0.3287 -0.5819
  819SOL    HW1 2456   1.689   1.346   3.057 -0.4855  0.7124  2.8044
  819SOL    HW2 2457   1.651   1.471   0.051 -0.6301 -2.1547  1.0028
  820SOL     OW 2458   0.294   1.403   0.888 -0.9762 -0.0816  0.1883
  820SOL    HW1 2459   0.315   1.432   0.982 -0.1836  1.9507  0.6772
  820SOL    HW2 2460   0.354   1.429   0.812 -0.3163 -2.4880  2.2753
  821SOL     OW 2461   0.417   2.915   1.427  0.2243 -0.0711 -0.1211
  821SOL    HW1 2462   0.512   2.902   1.387 -1.2150  0.4279  0.3145
  821SOL    HW2 2463   0.421   2.956   1.520 -1.8341  0.0265  0.3476
  822SOL     OW 2464   2.074   1.909   2.700  0.1041  0.6071  0.4899
  822SOL    HW1 2465   2.089   1.923   2.802 -0.6469 -0.7700  1.5014
  822SOL    HW2 2466   2.160   1.896   2.653 -3.8116  1.0958 -1.6899
  823SOL     OW 2467   0.661   0.360   2.391 -0.1491  0.1042  0.0185
  823SOL    HW1 2468   0.710   0.351   2.302 -1.2248  0.3686  0.9074
  823SOL    HW2 2469   0.608   0.447   2.398  0.1549 -0.7422  3.0391
  824SOL     OW 2470   2.529   2.998   1.459 -0.0263  0.1881  0.0926
  824SOL    HW1 2471   2.471   3.079   1.471  2.8106 -1.2140 -0.8809
  824SOL    HW2 2472   2.556   2.983   1.359  0.7616  1.1246  0.0032
  825SOL     OW 2473   0.194   1.615   2.484 -0.4955  0.8225 -0.1261
  825SOL    HW1 2474   0.238   1.648   2.396  5.0807  3.3763 -0.3872
  825SOL    HW2 2475   0.092   1.612   2.487 -1.9342  0.2247 -1.6780
  826SOL     OW 2476   1.686   0.011   2.946 -0.6113  0.1322  0.5913
  826SOL    HW1 2477   1.783   3.091   2.930 -0.3052  0.1538  1.2531
  826SOL    HW2 2478   1.630   3.029   2.953  0.6125  2.2235  0.7221
  827SOL     OW 2479   0.016   2.026   2.087  0.1257 -0.3084 -0.4820
  827SOL    HW1 2480   0.010   1.946   2.027 -1.9811 -0.2135 -0.5822
  827SOL    HW2 2481   0.069   1.999   2.169 -1.6445  0.2133  0.1003
  828SOL     OW 2482   0.166   0.156   1.208  0.1450  0.4819 -0.6504
  828SOL    HW1 2483   0.243   0.113   1.155 -1.0583 -1.9970  1.2295
  828SOL    HW2 2484   0.094   0.197   1.147  1.7161 -0.2391  1.2688
  829SOL     OW 2485   1.004   1.588   2.046 -0.1406 -0.7311 -0.2098
  829SOL    HW1 2486   1.093   1.561   2.004  1.1036 -0.5798 -1.1293
  829SOL    HW2 2487   0.939   1.629   1.973 -1.8339  1.6245 -4.0207
  830SOL     OW 2488   0.870   0.854   1.640 -0.4034  0.4848  0.0165
  830SOL    HW1 2489   0.810   0.918   1.587  0.0601  0.1012 -0.3978
  830SOL    HW2 2490   0.860   0.871   1.740 -0.2056  1.7865 -2.2261
  831SOL     OW 2491   2.685   2.014   0.146 -0.8263 -0.1119 -0.4806
  831SOL    HW1 2492   2.785   1.994   0.125  4.4262 -2.4683  1.5590
  831SOL    HW2 2493   2.674   2.107   0.188 -1.1639  3.2181  0.4368
  832SOL     OW 2494   1.080   2.422   2.690 -0.5262 -0.1580  0.0204
  832SOL    HW1 2495   1.077   2.343   2.627  1.5514  1.3681  0.0802
  832SOL    HW2 2496   0.983   2.461   2.686 -3.8678  0.3798 -2.0214
  833SOL     OW 2497   0.228   0.407   1.411 -0.0603 -0.3394  0.1853
  833SOL    HW1 2498   0.145   0.409   1.470 -1.1699 -0.4054 -1.1471
  833SOL    HW2 2499   0.229   0.324   1.352  1.9524  0.0483  2.0339
  834SOL     OW 2500   2.917   0.849   0.894 -0.4497  0.0607 -0.5097
  834SOL    HW1 2501   2.870   0.881   0.977 -2.0819 -0.4126 -0.4743
  834SOL    HW2 2502   2.970   0.928   0.859 -1.6420  0.2923  0.7268
  835SOL     OW 2503   2.786   0.468   0.474  0.9213 -0.0503  0.0944
  835SOL    HW1 2504   2.844   0.513   0.544  0.5569 -0.3741  1.8310
  835SOL    HW2 2505   2.736   0.391   0.527  0.8800  0.1456  2.8139
  836SOL     OW 2506   0.530   2.183   2.829 -0.3788  0.5377 -0.2144
  836SOL    HW1 2507   0.535   2.084   2.865  0.7454 -0.6332  1.7801
  836SOL    HW2 2508   0.439   2.197   2.781 -0.1064 -2.3854 -0.7905
  837SOL     OW 2509   1.324   1.844   0.356 -0.6999  0.0281 -0.0275
  837SOL    HW1 2510   1.422   1.830   0.326  2.3616 -0.7607  1.0948
  837SOL    HW2 2511   1.265   1.760   0.356  1.1049 -0.0606 -2.5601
  838SOL     OW 2512   2.272   0.921   2.334 -0.0397 -0.7143 -0.5330
  838SOL    HW1 2513   2.359   0.944   2.380 -0.0016  1.9385  1.4278
  838SOL    HW2 2514   2.292   0.878   2.244 -0.0172  1.3575  1.0779
  839SOL     OW 2515   1.157   1.058   2.559 -0.1427 -0.0500 -0.2968
  839SOL    HW1 2516   1.096   1.071   2.641 -1.8940  3.2844 -0.8494
  839SOL    HW2 2517   1.110   1.104   2.481  0.5449 -0.5069  2.9725
  840SOL     OW 2518   0.685   1.085   0.215 -0.3031  0.7653 -0.1565
  840SOL    HW1 2519   0.593   1.039   0.194 -2.0411 -0.1986 -0.2546
  840SOL    HW2 2520   0.675   1.183   0.195 -1.3926 -0.5113 -0.3756
  841SOL     OW 2521   1.078   2.124   0.092  0.4701  1.0312  0.0178
  841SOL    HW1 2522   1.051   2.217   0.122 -3.0096  0.7951  0.6809
  841SOL    HW2 2523   1.012   2.090   0.019 -0.9296  1.4830 -1.0920
  842SOL     OW 2524   0.489   0.537   0.570  0.0881  0.3622  0.2912
  842SOL    HW1 2525   0.442   0.593   0.641  0.6726  0.3408 -1.0477
  842SOL    HW2 2526   0.510   0.444   0.605  1.5277 -0.0401 -0.8165
  843SOL     OW 2527   0.595   0.845   1.382  0.1192 -0.2036  0.1658
  843SOL    HW1 2528   0.511   0.786   1.377  0.9616 -2.9646 -1.2305
  843SOL    HW2 2529   0.668   0.823   1.311 -1.2787 -1.4932  1.4765
  844SOL     OW 2530   2.210   2.460   2.757  0.1537  0.0363 -0.1365
  844SOL    HW1 2531   2.259   2.386   2.807 -2.6838 -0.0221  0.0153
  844SOL    HW2 2532   2.197   2.442   2.659  2.1558  0.8123  1.2580
  845SOL     OW 2533   2.575   3.057   1.724  0.0761  0.1291  0.0412
  845SOL    HW1 2534   2.665   3.100   1.735 -2.4831 -1.8875  2.3728
  845SOL    HW2 2535   2.554   3.021   1.630 -2.8607 -2.3048 -2.0605
  846SOL     OW 2536   1.767   0.959   2.558  0.1980 -0.1187 -0.2366
  846SOL    HW1 2537   1.747   0.885   2.486  0.0023 -0.7168 -2.4201
  846SOL    HW2 2538   1.755   1.051   2.515 -0.6753 -1.7014  1.4505
  847SOL     OW 2539   0.006   0.375   1.612 -0.3754  0.0915 -0.2539
  847SOL    HW1 2540   3.047   0.406   1.695  0.5415 -0.3586 -1.6290
  847SOL    HW2 2541   0.032   0.273   1.619  0.7562  1.2846  1.3226
  848SOL     OW 2542   2.648   2.627   0.203  0.4018  0.4165  0.6295
  848SOL    HW1 2543   2.726   2.669   0.256  0.0277 -1.3001  0.4104
  848SOL    HW2 2544   2.553   2.649   0.234  1.6555 -2.5989 -4.2194
  849SOL     OW 2545   0.625   3.040   0.795 -0.5030  0.5255 -0.5386
  849SOL    HW1 2546   0.583   2.959   0.755  0.4877 -0.8363  0.5747
  849SOL    HW2 2547   0.555   0.011   0.804 -1.3979 -1.5211 -0.9262
  850SOL     OW 2548   0.536   2.252   0.642 -0.0733  0.3476 -0.6818
  850SOL    HW1 2549   0.472   2.332   0.663 -0.1479 -2.3609  0.0052
  850SOL    HW2 2550   0.588   2.270   0.557  2.4250  1.9116 -0.8580
  851SOL     OW 2551   2.342   0.511   2.937 -0.1502 -0.1739 -0.1446
  851SOL    HW1 2552   2.326   0.531   2.837 -0.6229 -2.3656 -0.9921
  851SOL    HW2 2553   2.323   0.415   2.960  0.2568 -0.3140  1.6321
  852SOL     OW 2554   1.623   2.137   2.549 -0.4968  0.0467 -0.4845
  852SOL    HW1 2555   1.636   2.037   2.543 -1.2016 -1.8555 -0.0002
  852SOL    HW2 2556   1.626   2.190   2.463 -0.3475  0.8098  1.5725
  853SOL     OW 2557   0.021   2.258   0.236 -0.2955  0.1874  0.0856
  853SOL    HW1 2558   0.094   2.253   0.159  1.2646 -0.3787 -2.1642
  853SOL    HW2 2559   0.060   2.208   0.317  0.9155  3.4327 -0.4284
  854SOL     OW 2560   1.182   0.782   2.254  0.3382 -0.2814  0.0431
  854SOL    HW1 2561   1.209   0.721   2.331  1.6073 -0.3026  1.0939
  854SOL    HW2 2562   1.225   0.878   2.259  1.6083  1.8885  0.7434
  855SOL     OW 2563   0.245   2.669   0.642 -0.1163 -0.0628  0.7696
  855SOL    HW1 2564   0.151   2.651   0.674  1.7763 -3.0337 -1.6610
  855SOL    HW2 2565   0.243   2.660   0.539  0.6131  0.1159 -0.1103
  856SOL     OW 2566   0.339   2.946   2.662  0.3955  0.0569 -0.1684
  856SOL    HW1 2567   0.282   2.859   2.650  0.3759 -2.2178 -1.5306
  856SOL    HW2 2568   0.419   2.921   2.713 -1.4165 -0.8115 -1.3806
  857SOL     OW 2569   1.234   0.325   1.634  0.1378 -0.0803 -0.3707
  857SOL    HW1 2570   1.202   0.357   1.727  3.1607 -0.3282 -0.3931
  857SOL    HW2 2571   1.156   0.330   1.566  1.2546 -0.2652  0.8477
  858SOL     OW 2572   0.037   2.104   1.733 -0.3480  0.2592 -0.0114
  858SOL    HW1 2573   3.085   2.191   1.754  1.7152  0.4133  2.8747
  858SOL    HW2 2574   0.131   2.121   1.705 -1.0848  2.0647  3.1922
  859SOL     OW 2575   2.040   2.828   1.821  0.0200 -0.2654 -0.2081
  859SOL    HW1 2576   2.136   2.819   1.777  0.7358 -0.2334 -4.1794
  859SOL    HW2 2577   1.974   2.766   1.773  0.0005  2.1489 -1.2679
  860SOL     OW 2578   1.792   0.380   0.778 -0.7650 -0.4184 -0.0441
  860SOL    HW1 2579   1.838   0.296   0.808 -1.5478  0.9455  0.4338
  860SOL    HW2 2580   1.868   0.447   0.752 -2.2537 -1.4388 -2.3897
  861SOL     OW 2581   2.741   0.781   0.710 -0.3693 -0.0945 -0.3513
  861SOL    HW1 2582   2.801   0.819   0.781 -1.1812 -0.7839 -2.1464
  861SOL    HW2 2583   2.801   0.721   0.654 -0.2003 -0.9621  1.2223
  862SOL     OW 2584   1.828   0.776   1.715 -0.7845 -0.0242 -0.0966
  862SOL    HW1 2585   1.855   0.681   1.741 -0.1677  2.5253  1.3472
  862SOL    HW2 2586   1.915   0.825   1.692 -1.4799 -2.8939  0.6761
  863SOL     OW 2587   0.787   0.767   1.094  0.1189  0.0834 -0.1427
  863SOL    HW1 2588   0.718   0.693   1.108  1.2118  1.1567  1.2708
  863SOL    HW2 2589   0.862   0.753   1.160 -1.6258  0.6441 -3.0100
  864SOL     OW 2590   2.839   3.058   2.074 -0.4870 -0.0819  0.4323
  864SOL    HW1 2591   2.827   2.961   2.043 -1.8027  0.3937 -0.6470
  864SOL    HW2 2592   2.746   3.097   2.074 -0.6102 -2.8441 -1.2714
  865SOL     OW 2593   1.203   0.575   2.427 -0.2392  0.0528  0.1874
  865SOL    HW1 2594   1.225   0.645   2.496 -2.1899 -1.7539 -1.5847
  865SOL    HW2 2595   1.289   0.526   2.405  1.2667 -1.0152  1.2463
  866SOL     OW 2596   2.558   2.545   0.515  0.0068  0.0262  0.3416
  866SOL    HW1 2597   2.652   2.545   0.548  0.7676  0.0456 -1.5482
  866SOL    HW2 2598   2.499   2.467   0.546  1.1080  1.9237  1.9263
  867SOL     OW 2599   2.802   2.768   0.605 -0.1179 -0.0305  0.5833
  867SOL    HW1 2600   2.809   2.665   0.594 -2.9001  0.1504  0.3076
  867SOL    HW2 2601   2.838   2.814   0.522  1.6396  0.8437 -2.2618
  868SOL     OW 2602   1.551   0.881   3.083 -0.1114 -0.1295  0.1292
  868SOL    HW1 2603   1.591   0.915   2.993  3.2147 -1.2174 -3.4163
  868SOL    HW2 2604   1.546   0.967   0.039  0.5166  0.9965 -0.4595
  869SOL     OW 2605   2.656   2.279   0.736 -0.2825  0.4136  0.7396
  869SOL    HW1 2606   2.655   2.301   0.835 -2.6466  1.9210  1.2185
  869SOL    HW2 2607   2.561   2.279   0.693  2.2419 -0.1604  0.9754
  870SOL     OW 2608   2.253   2.038   0.328 -0.1715 -0.4788  0.0492
  870SOL    HW1 2609   2.178   1.968   0.346 -0.1751 -2.3061  0.8419
  870SOL    HW2 2610   2.320   2.031   0.404  1.6693 -1.2379  1.4070
  871SOL     OW 2611   0.687   1.190   1.356 -0.7623  0.4741  0.2781
  871SOL    HW1 2612   0.616   1.128   1.317  0.3929 -1.7812 -0.4755
  871SOL    HW2 2613   0.691   1.186   1.454  1.3979 -1.0167 -0.9327
  872SOL     OW 2614   1.159   2.068   2.315 -0.4911  0.3229  0.5095
  872SOL    HW1 2615   1.207   2.160   2.298  3.6514  1.6970 -1.2598
  872SOL    HW2 2616   1.188   2.002   2.244 -0.5821 -1.3815  1.3723
  873SOL     OW 2617   0.617   2.437   1.931  0.1771 -0.1656 -0.8796
  873SOL    HW1 2618   0.605   2.515   1.999 -0.9445 -0.4497  0.7084
  873SOL    HW2 2619   0.527   2.415   1.893  1.0966  3.0483  0.0725
  874SOL     OW 2620   0.898   0.292   1.266  0.3103 -0.2353  0.0496
  874SOL    HW1 2621   0.909   0.329   1.167  1.6349  2.1805 -2.5813
  874SOL    HW2 2622   0.800   0.289   1.289  1.5525 -0.3683  2.5844
  875SOL     OW 2623   3.028   0.393   1.267 -0.0823  0.0882  0.1166
  875SOL    HW1 2624   3.027   0.494   1.284 -0.9289  1.7044 -2.0200
  875SOL    HW2 2625   2.979   0.342   1.340  0.0621 -2.2557 -0.1496
  876SOL     OW 2626   0.469   0.946   0.108 -0.3946  0.1155  0.1397
  876SOL    HW1 2627   0.442   0.889   0.030 -1.0628 -0.8036  4.4379
  876SOL    HW2 2628   0.390   0.938   0.173  0.9614 -0.5599 -2.5804
  877SOL     OW 2629   1.126   0.699   1.630 -0.6003  0.2493  0.2993
  877SOL    HW1 2630   1.143   0.642   1.545 -1.1619 -1.1176  2.1231
  877SOL    HW2 2631   1.030   0.730   1.631  0.6948 -0.8853 -0.5090
  878SOL     OW 2632   1.840   2.401   0.284  0.0732  0.3805  0.0608
  878SOL    HW1 2633   1.768   2.432   0.350  0.5051  2.1724 -0.8048
  878SOL    HW2 2634   1.926   2.444   0.311 -1.5042 -2.4109 -0.9386
  879SOL     OW 2635   2.845   1.224   1.425 -0.4353 -0.4567  0.0295
  879SOL    HW1 2636   2.767   1.276   1.387  0.1030 -3.0317  1.9168
  879SOL    HW2 2637   2.811   1.175   1.508 -2.4732  2.1107 -3.1112
  880SOL     OW 2638   1.396   2.509   0.632  0.2079  0.2302 -0.2432
  880SOL    HW1 2639   1.425   2.415   0.656  0.3276  2.5208 -0.3767
  880SOL    HW2 2640   1.357   2.513   0.537  1.5977 -1.5798 -1.7058
  881SOL     OW 2641   0.698   2.215   0.395 -0.2591  0.3001  0.1665
  881SOL    HW1 2642   0.797   2.189   0.394 -1.3038  0.4907 -1.0423
  881SOL    HW2 2643   0.659   2.199   0.301  0.9703 -2.2296 -1.8500
  882SOL     OW 2644   2.028   0.698   1.189  0.9836 -0.2762 -0.0500
  882SOL    HW1 2645   2.020   0.779   1.130  1.2287 -1.4483 -0.7535
  882SOL    HW2 2646   1.932   0.670   1.217  1.4692 -2.1612  1.7556
  883SOL     OW 2647   1.580   0.869   1.671  0.1790 -0.4530 -0.1208
  883SOL    HW1 2648   1.675   0.830   1.684  0.6902 -2.1887  0.3613
  883SOL    HW2 2649   1.541   0.921   1.752  1.0021  0.2469 -0.2948
  884SOL     OW 2650   2.881   0.455   0.190 -0.1084 -0.1988  0.6303
  884SOL    HW1 2651   2.860   0.454   0.292 -0.1098  0.1735  1.3433
  884SOL    HW2 2652   2.827   0.384   0.142  0.5350  0.2679 -0.9429
  885SOL     OW 2653   1.263   1.422   2.601  0.4795  0.8860 -0.6487
  885SOL    HW1 2654   1.286   1.521   2.609  2.3032 -0.3551  2.3959
  885SOL    HW2 2655   1.169   1.404   2.638 -0.2883  0.2613  0.7431
  886SOL     OW 2656   1.380   1.938   2.600 -0.0988  0.4497 -0.2199
  886SOL    HW1 2657   1.351   2.039   2.608 -1.1819  3.2605  0.6564
  886SOL    HW2 2658   1.476   1.936   2.562  0.7498 -2.4543 -0.1514
  887SOL     OW 2659   1.346   0.232   1.070 -0.0463 -0.2503  0.0872
  887SOL    HW1 2660   1.358   0.133   1.086  1.1726 -1.4180  0.6953
  887SOL    HW2 2661   1.366   0.278   1.162 -3.0917  3.1900  3.4073
  888SOL     OW 2662   2.500   0.697   1.615  0.0216 -0.8200  0.0251
  888SOL    HW1 2663   2.591   0.665   1.643  0.9071 -0.7186 -2.9376
  888SOL    HW2 2664   2.452   0.626   1.559 -3.5850 -2.5765  0.7994
  889SOL     OW 2665   2.811   2.682   0.913  0.2972 -0.4643 -0.4857
  889SOL    HW1 2666   2.774   2.664   0.817 -0.1880  0.5217 -3.4937
  889SOL    HW2 2667   2.818   2.593   0.957  1.0768 -0.7705 -0.0650
  890SOL     OW 2668   1.887   2.131   0.297 -0.0291 -0.4240 -0.1547
  890SOL    HW1 2669   1.878   2.233   0.298 -0.4559  0.4585  1.9237
  890SOL    HW2 2670   1.863   2.094   0.206  0.1730  0.2882  1.7725
  891SOL     OW 2671   0.714   1.036   2.762 -0.0566 -0.3835 -0.3741
  891SOL    HW1 2672   0.639   1.097   2.727  2.9383 -0.3266 -2.7145
  891SOL    HW2 2673   0.743   0.982   2.678  0.9838 -0.8063 -1.6400
  892SOL     OW 2674   2.853   2.928   1.542  0.1036  0.0815 -0.2175
  892SOL    HW1 2675   2.939   2.880   1.535 -1.5407  1.2827 -0.1473
  892SOL    HW2 2676   2.788   2.870   1.485  0.3094 -4.0163 -1.8990
  893SOL     OW 2677   1.405   3.000   0.969 -0.0159 -0.4267 -0.9195
  893SOL    HW1 2678   1.501   3.022   0.957 -1.4953  0.8501  0.8367
  893SOL    HW2 2679   1.355   3.001   0.883  0.2548  0.1537  2.9619
  894SOL     OW 2680   2.587   0.535   0.768 -0.4527  0.0809  0.3988
  894SOL    HW1 2681   2.678   0.574   0.788 -0.5577 -4.2993  1.0513
  894SOL    HW2 2682   2.541   0.583   0.690  2.8403  0.0830 -0.3674
  895SOL     OW 2683   1.846   1.428   2.512  0.4419 -0.4999  0.5787
  895SOL    HW1 2684   1.838   1.466   2.609 -0.3263  1.4662  3.3877
  895SOL    HW2 2685   1.944   1.443   2.482 -0.7832 -0.6612 -1.1143
  896SOL     OW 2686   1.520   0.324   1.679  0.0013  0.4603 -0.6506
  896SOL    HW1 2687   1.424   0.350   1.671  3.8380 -1.5652 -1.0602
  896SOL    HW2 2688   1.567   0.334   1.590  0.9649  3.0503 -2.7747
  897SOL     OW 2689   0.747   1.500   1.899 -0.2801 -0.1044  0.0704
  897SOL    HW1 2690   0.826   1.440   1.911 -2.6476  3.2528  0.5122
  897SOL    HW2 2691   0.771   1.597   1.886  0.3557 -1.2564  1.0595
  898SOL     OW 2692   2.282   2.446   2.273  0.9196 -0.2168  0.3081
  898SOL    HW1 2693   2.268   2.416   2.174 -2.4095  0.3928 -1.4326
  898SOL    HW2 2694   2.367   2.401   2.309  0.4638  1.7258 -0.5768
  899SOL     OW 2695   1.247   1.402   1.595 -0.6176  0.2008  0.1017
  899SOL    HW1 2696   1.238   1.338   1.513  0.7627 -0.5611  2.1598
  899SOL    HW2 2697   1.297   1.485   1.566 -0.5752  0.9366 -1.3421
  900SOL     OW 2698   1.092   2.182   2.551 -0.0636 -0.1524 -0.0444
  900SOL    HW1 2699   1.189   2.184   2.583  0.5408  2.1105  0.9378
  900SOL    HW2 2700   1.077   2.131   2.462 -2.1584 -0.0741  0.2479
  901SOL     OW 2701   0.555   2.119   2.466  0.6182  0.6025  0.1860
  901SOL    HW1 2702   0.524   2.129   2.367  0.4453  0.3111 -4.2182
  901SOL    HW2 2703   0.472   2.089   2.521  2.1459 -0.5541 -2.0150
  902SOL     OW 2704   2.132   1.579   0.230  0.0663 -0.4266 -0.2283
  902SOL    HW1 2705   2.104   1.508   0.161 -0.8125 -0.7573 -2.3588
  902SOL    HW2 2706   2.209   1.557   0.283 -5.6779  2.1092 -1.5992
  903SOL     OW 2707   1.889   1.653   0.393  0.0240  0.4611  0.2903
  903SOL    HW1 2708   1.859   1.579   0.458  0.9133 -2.3740  0.4714
  903SOL    HW2 2709   1.988   1.639   0.364 -1.1213 -0.2831  0.3720
  904SOL     OW 2710   0.914   0.631   2.480  0.1121  0.5030  0.0565
  904SOL    HW1 2711   0.982   0.568   2.442  2.8124 -0.6366 -0.5190
  904SOL    HW2 2712   0.953   0.680   2.563 -1.9652 -0.4972 -1.7306
  905SOL     OW 2713   2.884   0.450   1.024  0.4314 -0.7244  0.0939
  905SOL    HW1 2714   2.787   0.480   1.054 -1.4745 -0.1763  2.2570
  905SOL    HW2 2715   2.944   0.432   1.107 -0.0883 -0.1736 -0.0655
  906SOL     OW 2716   2.750   2.129   0.530 -0.0480 -0.0725  0.6133
  906SOL    HW1 2717   2.803   2.041   0.539 -0.7976  1.7180  1.9618
  906SOL    HW2 2718   2.707   2.161   0.617  0.4598 -0.6414 -0.7970
  907SOL     OW 2719   1.410   0.539   0.467  0.5815 -0.0068 -0.5086
  907SOL    HW1 2720   1.503   0.512   0.495 -0.2736 -0.1674  2.9570
  907SOL    HW2 2721   1.387   0.517   0.372 -0.2751  1.6925  2.2544
  908SOL     OW 2722   1.749   0.060   1.461  0.3034 -0.0555 -0.3721
  908SOL    HW1 2723   1.839   0.031   1.425  0.5979  2.3749  0.4353
  908SOL    HW2 2724   1.703   3.092   1.520 -2.0802  0.4843  2.7257
  909SOL     OW 2725   2.553   0.783   1.081  0.0670 -0.0215 -0.0696
  909SOL    HW1 2726   2.606   0.696   1.106  2.0994 -1.5200  0.6677
  909SOL    HW2 2727   2.554   0.819   0.985  1.8733  1.4839 -1.5601
  910SOL     OW 2728   1.020   2.903   2.281 -0.1602  0.0916 -0.1316
  910SOL    HW1 2729   1.019   2.836   2.361  0.7209 -0.1916  3.2312
  910SOL    HW2 2730   0.961   2.871   2.205 -0.8177  2.3572  0.4066
  911SOL     OW 2731   2.296   0.829   1.743 -0.4677  0.7316 -0.2319
  911SOL    HW1 2732   2.381   0.794   1.701 -1.7369 -0.4342 -1.4401
  911SOL    HW2 2733   2.260   0.900   1.677  0.3414 -0.3630  0.6280
  912SOL     OW 2734   2.811   2.050   1.532 -0.0652  0.0955  0.2691
  912SOL    HW1 2735   2.736   2.068   1.469  1.2452 -0.9840  1.6419
  912SOL    HW2 2736   2.790   2.078   1.629 -1.5990  0.8067  0.5247
  913SOL     OW 2737   2.593   2.165   1.395  0.1134  0.3347  0.4305
  913SOL    HW1 2738   2.492   2.164   1.410  3.0482  0.6393 -2.1212
  913SOL    HW2 2739   2.611   2.151   1.296 -0.6392 -1.6041 -1.1646
  914SOL     OW 2740   1.998   1.675   1.464  0.0811  0.0841 -0.1296
  914SOL    HW1 2741   2.069   1.596   1.464 -1.1861 -1.1698 -0.3603
  914SOL    HW2 2742   1.943   1.663   1.545  5.3501 -2.8434 -0.2046
  915SOL     OW 2743   1.295   1.670   1.407  0.5532 -0.0518 -0.3691
  915SOL    HW1 2744   1.265   1.746   1.472  0.5272 -0.0782 -0.2874
  915SOL    HW2 2745   1.254   1.672   1.315 -0.9153 -3.7198  0.1871
  916SOL     OW 2746   2.567   2.738   1.574 -0.3737 -0.3436 -0.6322
  916SOL    HW1 2747   2.557   2.819   1.512 -1.2132  0.1782 -0.3741
  916SOL    HW2 2748   2.473   2.705   1.603  1.3108 -0.7960  2.6484
  917SOL     OW 2749   2.669   1.679   2.640  0.3536  0.8334  0.2495
  917SOL    HW1 2750   2.762   1.658   2.672 -4.0370  1.1603 -1.9544
  917SOL    HW2 2751   2.610   1.720   2.713 -1.8502 -2.3402  3.2935
  918SOL     OW 2752   1.633   2.296   2.319 -0.0957  0.2328  0.2141
  918SOL    HW1 2753   1.578   2.381   2.300 -1.5851 -0.2049  0.5911
  918SOL    HW2 2754   1.732   2.319   2.315 -0.3943  1.5203  1.4062
  919SOL     OW 2755   1.328   2.226   1.808  0.0483  0.1290  0.1750
  919SOL    HW1 2756   1.425   2.191   1.823 -0.4346 -0.4125  0.2315
  919SOL    HW2 2757   1.298   2.232   1.709 -0.2838 -2.4116 -0.8127
  920SOL     OW 2758   3.044   0.246   2.930  0.1053 -0.0061  0.4187
  920SOL    HW1 2759   3.091   0.319   2.876  2.2599  3.2648 -3.8960
  920SOL    HW2 2760   3.058   0.151   2.897 -0.6708 -1.3941  0.4756
  921SOL     OW 2761   2.725   0.068   2.432 -0.4107 -0.0243 -0.2060
  921SOL    HW1 2762   2.726   0.141   2.499 -0.1086 -1.1016 -2.6350
  921SOL    HW2 2763   2.803   0.007   2.452 -1.8743 -0.9805  1.0782
  922SOL     OW 2764   2.398   2.021   0.559 -0.3474  0.2015  0.2030
  922SOL    HW1 2765   2.323   2.065   0.598  3.7047 -1.7139 -1.6277
  922SOL    HW2 2766   2.435   1.953   0.629 -0.0004 -1.9910 -0.6637
  923SOL     OW 2767   0.246   1.795   0.463  0.6511  0.0549 -0.4527
  923SOL    HW1 2768   0.282   1.840   0.380  0.7742  0.5232 -1.9727
  923SOL    HW2 2769   0.325   1.802   0.529 -0.8884 -1.9387 -1.2023
  924SOL     OW 2770   1.375   0.465   3.095  0.3247 -0.2409  0.8082
  924SOL    HW1 2771   1.467   0.502   3.090 -1.3405 -0.4415  1.7281
  924SOL    HW2 2772   1.389   0.366   3.101 -0.3095  0.4165  2.2030
  925SOL     OW 2773   2.404   1.150   0.775  0.2231 -0.0533  0.6324
  925SOL    HW1 2774   2.385   1.244   0.811  0.8601  0.1390  1.6522
  925SOL    HW2 2775   2.376   1.138   0.678  0.1857  2.2656 -3.5604
  926SOL     OW 2776   2.753   1.214   1.017 -0.1802 -0.1321 -0.2952
  926SOL    HW1 2777   2.659   1.176   1.033 -1.0126 -2.9483  2.2151
  926SOL    HW2 2778   2.771   1.222   0.919  0.3966 -0.5622  0.0419
  927SOL     OW 2779   0.578   1.408   0.435 -0.3550  0.2677  0.3259
  927SOL    HW1 2780   0.525   1.336   0.396  0.5199  0.7330  0.7999
  927SOL    HW2 2781   0.630   1.449   0.354  2.0095  0.6567 -1.5688
  928SOL     OW 2782   0.101   0.301   2.488 -0.2397  0.2003 -0.2893
  928SOL    HW1 2783   0.098   0.201   2.497 -0.7415 -1.9595  2.3664
  928SOL    HW2 2784   0.196   0.337   2.473  1.9070  0.1647 -2.7647
  929SOL     OW 2785   2.846   0.008   1.232  0.4953 -0.0724 -0.4605
  929SOL    HW1 2786   2.908   3.075   1.160 -2.4332  0.0811  2.6829
  929SOL    HW2 2787   2.756   3.071   1.207  2.6326  0.7029 -1.2054
  930SOL     OW 2788   1.949   2.059   1.562 -0.2243  0.0068  0.1388
  930SOL    HW1 2789   1.884   2.015   1.625 -1.4568  0.9719  0.9447
  930SOL    HW2 2790   2.022   2.002   1.512  4.9214 -0.4897 -2.5328
  931SOL     OW 2791   1.594   1.473   0.921  0.4154  0.9192 -0.2324
  931SOL    HW1 2792   1.549   1.443   1.007 -0.6814 -1.3987  0.5393
  931SOL    HW2 2793   1.524   1.495   0.852  0.7299 -2.2178  0.2597
  932SOL     OW 2794   2.928   1.063   1.209 -0.6133 -0.7067  0.2836
  932SOL    HW1 2795   2.890   1.093   1.298 -0.1078 -1.4157  0.1209
  932SOL    HW2 2796   2.893   1.118   1.133  3.4395 -0.4086  2.2484
  933SOL     OW 2797   2.416   1.446   1.541  0.0164  0.0461 -0.0613
  933SOL    HW1 2798   2.439   1.439   1.639 -0.3562  0.0199  1.8329
  933SOL    HW2 2799   2.503   1.412   1.493  0.5922 -3.6890 -1.9201
  934SOL     OW 2800   1.687   0.169   1.193 -0.5035 -0.2841  0.0165
  934SOL    HW1 2801   1.644   0.164   1.282 -0.0522  0.1621 -1.3565
  934SOL    HW2 2802   1.726   0.077   1.163  0.1324  2.9451  1.3722
  935SOL     OW 2803   0.365   1.671   1.003 -0.3793 -0.1170 -0.2479
  935SOL    HW1 2804   0.356   1.579   1.049  1.0397 -2.4603  0.4827
  935SOL    HW2 2805   0.373   1.749   1.074 -1.3115  4.8963  2.2101
  936SOL     OW 2806   3.003   1.108   0.805 -0.4544  0.2662  0.7874
  936SOL    HW1 2807   2.911   1.148   0.779  0.5816  2.6598 -1.7820
  936SOL    HW2 2808   3.054   1.186   0.841 -2.7336  0.3170 -0.1496
  937SOL     OW 2809   1.761   2.613   0.874 -0.1212 -0.1916  0.1320
  937SOL    HW1 2810   1.660   2.618   0.894 -1.7765 -1.8762 -0.0871
  937SOL    HW2 2811   1.792   2.682   0.804  0.6101  1.3919  0.3045
  938SOL     OW 2812   2.465   2.587   0.973 -0.1952 -0.1894  0.1558
  938SOL    HW1 2813   2.506   2.665   0.923 -0.4736  1.5453 -0.7196
  938SOL    HW2 2814   2.404   2.534   0.913  1.8023 -0.3750  1.4163
  939SOL     OW 2815   0.348   2.019   2.993  0.0811  0.0959  0.1845
  939SOL    HW1 2816   0.410   1.947   2.953  0.1138 -0.0934  1.1718
  939SOL    HW2 2817   0.379   2.038   3.087 -0.0821 -1.1587 -0.0075
  940SOL     OW 2818   2.996   2.832   0.092 -0.5325  0.7504 -0.2381
  940SOL    HW1 2819   2.965   2.770   0.165  1.8662 -2.4849  0.4717
  940SOL    HW2 2820   3.094   2.815   0.062 -0.4383 -0.4896  1.4317
  941SOL     OW 2821   0.815   2.754   3.007 -0.6230  0.4019  0.2096
  941SOL    HW1 2822   0.859   2.660   3.005  0.1822 -2.7908 -2.6359
  941SOL    HW2 2823   0.862   2.823   3.068 -0.6873  0.9077 -1.0013
  942SOL     OW 2824   1.536   1.846   1.591  0.0330  0.0509 -0.1163
  942SOL    HW1 2825   1.603   1.859   1.664 -2.4702  0.9820  2.2167
  942SOL    HW2 2826   1.549   1.766   1.527 -2.6350  0.8119 -0.3579
  943SOL     OW 2827   2.147   1.134   1.418 -0.1821 -0.0915  0.4283
  943SOL    HW1 2828   2.055   1.153   1.457  1.3306  1.4670 -2.8651
  943SOL    HW2 2829   2.166   1.035   1.400 -0.8461 -0.7864 -1.9309
  944SOL     OW 2830   2.148   0.862   1.401  0.9799 -0.6249  0.2368
  944SOL    HW1 2831   2.088   0.806   1.337  2.4867 -1.6860 -0.0955
  944SOL    HW2 2832   2.246   0.838   1.384 -1.8271 -4.1018 -1.0417
  945SOL     OW 2833   3.036   2.816   0.920  0.8036 -0.0555 -0.1251
  945SOL    HW1 2834   2.943   2.774   0.906 -3.5371 -1.0664  2.1327
  945SOL    HW2 2835   3.025   2.915   0.948 -1.1023  0.6628 -0.5787
  946SOL     OW 2836   0.550   0.706   1.665  0.3880 -0.7414 -0.3355
  946SOL    HW1 2837   0.526   0.787   1.605 -0.3967  0.5064 -0.1943
  946SOL    HW2 2838   0.511   0.611   1.641 -3.0674 -0.0371  1.6024
  947SOL     OW 2839   0.485   2.814   0.682  0.1844  0.2269 -0.1732
  947SOL    HW1 2840   0.509   2.829   0.583  0.5663  2.1933 -1.3164
  947SOL    HW2 2841   0.400   2.753   0.692 -0.2750 -2.4236  0.9204
  948SOL     OW 2842   3.085   1.432   1.950  0.1934  0.0907 -0.1724
  948SOL    HW1 2843   0.013   1.527   1.918  0.6855  2.4905 -1.4412
  948SOL    HW2 2844   0.034   1.359   1.897 -1.3747 -1.2169 -0.3038
  949SOL     OW 2845   0.509   1.004   2.411 -0.7147 -0.2310 -0.1328
  949SOL    HW1 2846   0.601   0.981   2.447 -0.3015  3.3002 -0.4747
  949SOL    HW2 2847   0.450   0.926   2.422  0.8796  0.4388 -2.4525
  950SOL     OW 2848   1.216   0.699   1.187  0.1275  0.5141  0.0160
  950SOL    HW1 2849   1.127   0.726   1.233  0.5965  0.1376 -0.4147
  950SOL    HW2 2850   1.282   0.664   1.260  1.1984 -1.3614 -0.1079
  951SOL     OW 2851   0.862   1.981   2.067 -0.6463  0.1566  0.1698
  951SOL    HW1 2852   0.930   2.030   2.007  0.8555  1.1588  0.4960
  951SOL    HW2 2853   0.780   2.038   2.088  0.9945 -0.4755  2.9458
  952SOL     OW 2854   0.552   1.884   2.897  0.0760 -0.3743  0.2221
  952SOL    HW1 2855   0.646   1.865   2.923 -1.4357  0.5162 -0.9772
  952SOL    HW2 2856   0.539   1.851   2.800  0.1888  0.4099 -0.9360
  953SOL     OW 2857   1.927   3.098   2.294 -0.1747 -0.8051  0.7175
  953SOL    HW1 2858   2.020   3.091   2.327 -1.2260 -0.2723 -1.9512
  953SOL    HW2 2859   1.918   0.072   2.224  0.7721 -1.2683 -1.4191
  954SOL     OW 2860   1.642   1.249   0.784 -0.1770 -0.2971  0.0582
  954SOL    HW1 2861   1.558   1.228   0.730 -0.1775  1.2284 -3.7779
  954SOL    HW2 2862   1.631   1.325   0.852  0.3987 -0.6291 -2.5458
  955SOL     OW 2863   0.252   2.478   2.243  0.3217  0.0689 -0.0084
  955SOL    HW1 2864   0.310   2.426   2.176  1.1019  0.5173 -0.1281
  955SOL    HW2 2865   0.188   2.538   2.191 -0.9526 -0.8800  0.6031
  956SOL     OW 2866   1.580   0.794   1.410  0.3789  0.1561  0.1595
  956SOL    HW1 2867   1.522   0.716   1.385 -1.4582 -0.6932  1.4401
  956SOL    HW2 2868   1.582   0.809   1.513 -0.0995 -1.5528 -1.1966
  957SOL     OW 2869   2.083   1.495   2.464 -0.1533 -0.3125 -0.4323
  957SOL    HW1 2870   2.158   1.513   2.534 -0.7597  1.1539 -0.8035
  957SOL    HW2 2871   2.053   1.587   2.431  2.1027  0.6372  1.1205
  958SOL     OW 2872   1.098   2.550   0.896 -0.0702 -0.1715 -0.0037
  958SOL    HW1 2873   1.037   2.634   0.914 -2.6296 -0.0481  1.9925
  958SOL    HW2 2874   1.097   2.493   0.983 -0.0245 -1.7932 -2.3695
  959SOL     OW 2875   1.657   1.876   2.490  0.4028 -0.1535  0.1114
  959SOL    HW1 2876   1.661   1.831   2.397 -2.1223  0.1143  0.5869
  959SOL    HW2 2877   1.707   1.822   2.562  0.6867  0.2104 -0.5951
  960SOL     OW 2878   0.215   0.509   0.129 -0.7242 -0.2723  0.9636
  960SOL    HW1 2879   0.160   0.420   0.128 -1.9762 -2.8819 -0.9750
  960SOL    HW2 2880   0.303   0.501   0.176  0.3206  2.4522 -0.7501
  961SOL     OW 2881   0.483   0.614   2.076 -0.6753 -0.6130  0.9133
  961SOL    HW1 2882   0.459   0.597   2.172 -0.9412 -0.4808 -3.0387
  961SOL    HW2 2883   0.419   0.567   2.014  4.0805  1.3551  1.8436
  962SOL     OW 2884   0.838   1.484   2.848 -0.4079  0.1134 -0.6588
  962SOL    HW1 2885   0.885   1.413   2.902  0.9858 -0.8128 -0.6800
  962SOL    HW2 2886   0.738   1.475   2.857  1.3716 -0.2423  0.2355
  963SOL     OW 2887   2.169   1.548   2.946 -0.8222  0.0265  0.2158
  963SOL    HW1 2888   2.197   1.536   2.850 -0.1104 -2.6402 -0.7940
  963SOL    HW2 2889   2.235   1.611   2.997  2.0902  4.1683  4.2747
  964SOL     OW 2890   1.496   2.650   0.993  0.2278 -0.4090  0.0243
  964SOL    HW1 2891   1.408   2.672   0.953  0.6760  1.8789  0.4105
  964SOL    HW2 2892   1.491   2.562   1.042 -0.8103  1.0594 -1.1047
  965SOL     OW 2893   0.856   2.337   1.178 -0.1189 -0.1647 -0.1477
  965SOL    HW1 2894   0.834   2.300   1.270 -0.2506 -0.6767 -1.3037
  965SOL    HW2 2895   0.781   2.315   1.115 -3.1310 -0.0703  0.0267
  966SOL     OW 2896   0.076   1.512   0.209  0.3586 -0.0891 -0.4365
  966SOL    HW1 2897   3.089   1.565   0.199  0.5638  0.0722 -2.5956
  966SOL    HW2 2898   0.066   1.436   0.279  0.2183 -2.0197  1.8471
  967SOL     OW 2899   1.708   2.893   1.875  0.1588 -0.3830 -0.0080
  967SOL    HW1 2900   1.687   2.887   1.970  0.0451  0.4232  0.2703
  967SOL    HW2 2901   1.767   2.975   1.860  1.1447  1.7322 -1.1171
  968SOL     OW 2902   1.908   0.850   0.835 -0.7712  0.1056  0.4635
  968SOL    HW1 2903   1.976   0.893   0.771 -0.5410 -0.2277  0.5799
  968SOL    HW2 2904   1.815   0.885   0.830 -1.0189 -0.4493  1.8573
  969SOL     OW 2905   0.316   1.669   1.994 -0.0969 -0.2012  0.4182
  969SOL    HW1 2906   0.378   1.729   1.939 -0.2777  2.9797  2.6811
  969SOL    HW2 2907   0.217   1.686   1.965 -0.6164  1.5683 -1.8394
  970SOL     OW 2908   2.447   1.519   1.106 -0.4196  0.3994 -0.3080
  970SOL    HW1 2909   2.408   1.432   1.148 -2.2456 -2.7204 -0.1051
  970SOL    HW2 2910   2.423   1.598   1.164 -0.8240 -0.2972 -1.7746
  971SOL     OW 2911   1.050   0.435   1.434  0.6843 -0.2557  0.3512
  971SOL    HW1 2912   1.004   0.385   1.358 -0.2458 -0.5916 -0.9811
  971SOL    HW2 2913   0.987   0.506   1.466  1.7163 -1.5699 -2.1732
  972SOL     OW 2914   0.955   0.266   2.457 -0.6413  0.4107  0.3406
  972SOL    HW1 2915   1.002   0.305   2.372  1.2254 -0.7127  0.2012
  972SOL    HW2 2916   0.866   0.308   2.471  1.7788  1.0350 -0.1917
  973SOL     OW 2917   0.371   1.431   1.147 -0.2378  0.0187 -0.1988
  973SOL    HW1 2918   0.391   1.474   1.232 -0.8975  0.3709  1.5769
  973SOL    HW2 2919   0.435   1.350   1.140  1.4629  0.0184  0.8882
  974SOL     OW 2920   1.806   1.097   1.921  0.6903 -0.0906  0.0401
  974SOL    HW1 2921   1.874   1.035   1.880  0.1719  2.8395 -2.6823
  974SOL    HW2 2922   1.731   1.038   1.950  0.1336  1.4211  0.3748
  975SOL     OW 2923   2.715   0.113   0.367 -0.0183  0.3258 -0.2711
  975SOL    HW1 2924   2.671   0.031   0.328  2.6923  0.1306  1.4022
  975SOL    HW2 2925   2.815   0.101   0.374 -0.7673  0.5425 -3.5383
  976SOL     OW 2926   0.045   1.752   1.924  0.0321 -0.1417  0.5296
  976SOL    HW1 2927   3.080   1.725   1.994 -0.0502 -1.6285  1.9447
  976SOL    HW2 2928   0.006   1.783   1.834  1.3597  0.8137 -0.8843
  977SOL     OW 2929   0.664   2.633   0.281  0.5021 -0.5297 -0.0172
  977SOL    HW1 2930   0.619   2.697   0.212 -2.3309 -0.3436  0.6409
  977SOL    HW2 2931   0.753   2.602   0.243 -1.4396  1.3300  0.8516
  978SOL     OW 2932   0.687   1.782   0.164  0.3871  0.2628  0.3381
  978SOL    HW1 2933   0.633   1.735   0.095 -0.3997  3.5803  1.8178
  978SOL    HW2 2934   0.749   1.722   0.213 -1.9867  2.0150  2.0688
  979SOL     OW 2935   1.451   2.044   1.186  0.2749  0.0219 -0.2349
  979SOL    HW1 2936   1.381   2.080   1.255 -3.0336 -0.0428  0.4924
  979SOL    HW2 2937   1.537   2.001   1.226 -0.0841 -0.6953 -1.0648
  980SOL     OW 2938   0.603   1.546   2.151  0.5571 -0.0055 -0.1216
  980SOL    HW1 2939   0.654   1.531   2.066  1.0781 -0.8847  2.0361
  980SOL    HW2 2940   0.531   1.477   2.169 -2.0533 -2.5467 -0.0630
  981SOL     OW 2941   3.060   1.323   0.406  0.1873  0.3944 -0.4114
  981SOL    HW1 2942   0.025   1.285   0.476 -1.0193 -2.8503  1.8717
  981SOL    HW2 2943   3.015   1.408   0.438  2.1992 -1.6523  0.4340
  982SOL     OW 2944   2.505   2.545   2.875 -0.4705 -0.1850 -0.4204
  982SOL    HW1 2945   2.494   2.585   2.782  1.9540 -2.1379 -2.5690
  982SOL    HW2 2946   2.509   2.614   2.948 -1.6008 -2.5421 -0.2827
  983SOL     OW 2947   1.962   0.518   1.486  0.4967  0.1096 -0.2589
  983SOL    HW1 2948   1.920   0.584   1.422 -1.5989 -3.5617  0.0219
  983SOL    HW2 2949   1.995   0.436   1.446  1.1901  1.2877  2.6154
  984SOL     OW 2950   0.989   0.029   2.600  0.1533 -0.0659  0.1867
  984SOL    HW1 2951   0.990   0.108   2.534 -2.6640 -1.9290  1.6341
  984SOL    HW2 2952   1.078   0.030   2.644 -1.2045 -0.7248 -1.0342
  985SOL     OW 2953   1.582   2.154   1.866  0.1637 -0.5057 -0.3921
  985SOL    HW1 2954   1.599   2.155   1.968 -0.0871  0.7094  0.3102
  985SOL    HW2 2955   1.620   2.236   1.822  0.6813 -4.1910  1.0086
  986SOL     OW 2956   2.179   3.061   2.388  0.3929 -0.9142  0.4593
  986SOL    HW1 2957   2.268   3.015   2.364 -1.7224  0.4688 -0.9112
  986SOL    HW2 2958   2.197   0.053   2.421  0.8790 -1.9773  2.0804
  987SOL     OW 2959   2.740   0.307   2.154  0.0719 -0.5179  0.0216
  987SOL    HW1 2960   2.806   0.264   2.220  0.9941 -0.2435 -0.8201
  987SOL    HW2 2961   2.674   0.370   2.204 -0.5938 -3.1492  1.7865
  988SOL     OW 2962   2.569   0.458   2.304 -0.0976 -0.0211  0.3355
  988SOL    HW1 2963   2.562   0.498   2.394  0.8999  1.5980  3.8295
  988SOL    HW2 2964   2.519   0.516   2.235 -1.7218  0.6890 -1.4213
  989SOL     OW 2965   2.112   2.392   2.477  0.5117 -0.1008 -0.2290
  989SOL    HW1 2966   2.184   2.416   2.409  1.5577 -0.9315  0.2725
  989SOL    HW2 2967   2.144   2.301   2.516 -0.2731 -1.2370  0.7528
  990SOL     OW 2968   0.351   1.205   0.000  0.1590 -0.2235  0.1623
  990SOL    HW1 2969   0.392   1.116   0.047  0.3015 -1.6796  2.9618
  990SOL    HW2 2970   0.416   1.285   0.016 -3.4415 -0.5717  1.0266
  991SOL     OW 2971   0.767   0.950   2.487 -0.1211 -0.1958  0.3108
  991SOL    HW1 2972   0.761   0.868   2.429  1.5903  1.5415  0.6944
  991SOL    HW2 2973   0.782   1.037   2.431 -0.4581 -0.5829 -1.3806
  992SOL     OW 2974   2.856   2.167   2.090  0.4949 -0.6596 -0.2316
  992SOL    HW1 2975   2.859   2.257   2.041 -1.8436 -0.3738  2.1661
  992SOL    HW2 2976   2.952   2.139   2.112  1.5314  2.5090 -3.0749
  993SOL     OW 2977   0.793   0.250   0.743  0.3083 -0.5242 -0.1884
  993SOL    HW1 2978   0.870   0.293   0.791 -1.4091  2.4860 -1.5044
  993SOL    HW2 2979   0.811   0.150   0.729  1.3504 -2.7411 -0.7765
  994SOL     OW 2980   0.290   2.095   1.610  0.1344 -0.0260  0.1080
  994SOL    HW1 2981   0.342   2.007   1.611 -0.3146 -0.6986 -0.0145
  994SOL    HW2 2982   0.260   2.110   1.509  0.9573  1.6994 -0.4558
  995SOL     OW 2983   2.233   1.578   2.661 -0.7616  0.4178 -0.0091
  995SOL    HW1 2984   2.315   1.524   2.674 -1.5303  2.8065 -1.9269
  995SOL    HW2 2985   2.251   1.672   2.616  0.9713  2.3791 -3.7928
  996SOL     OW 2986   1.905   1.511   2.767 -0.1007  0.0661  0.2424
  996SOL    HW1 2987   1.977   1.501   2.840 -2.3173 -1.6725  2.3242
  996SOL    HW2 2988   1.838   1.438   2.782  0.9394  1.1575 -2.0826
  997SOL     OW 2989   1.651   1.256   1.688  0.4387  0.6930  0.3485
  997SOL    HW1 2990   1.669   1.157   1.703 -0.2588  0.4665  0.4599
  997SOL    HW2 2991   1.718   1.311   1.739  0.1230  1.0691 -1.8246
  998SOL     OW 2992   2.312   1.913   1.087  0.6585  0.2566 -0.6163
  998SOL    HW1 2993   2.231   1.959   1.049 -0.8881 -0.3336 -0.6836
  998SOL    HW2 2994   2.320   1.818   1.049  1.0989  0.3331  0.1114
  999SOL     OW 2995   2.194   2.419   0.096  0.0710 -0.3458 -0.3616
  999SOL    HW1 2996   2.191   2.521   0.103 -1.6168  0.1883 -2.9337
  999SOL    HW2 2997   2.285   2.382   0.131  0.3460 -0.4456  1.3308
 1000SOL     OW 2998   0.697   2.934   2.410  0.3610 -0.2493 -0.1727
 1000SOL    HW1 2999   0.683   2.971   2.505 -0.7109 -0.7070  2.7201
 1000SOL    HW2 3000   0.795   2.905   2.407 -0.8746 -2.6222  0.6895
   3.10128   3.10128   3.10128
