1000 SPC/Fw water molecules t= 484.00000 step= 484000
 3000
    1SOL     OW    1   2.827   2.979   1.273  0.4171 -0.0019  0.1314
    1SOL    HW1    2   2.825   3.081   1.271  2.7255 -2.5740  3.1164
    1SOL    HW2    3   2.738   2.931   1.287 -1.2372 -0.1159 -0.9429
    2SOL     OW    4   3.091   2.788   2.997 -0.0024  0.2418 -1.0166
    2SOL    HW1    5   3.066   2.770   2.897 -0.3236 -2.8708 -1.6147
    2SOL    HW2    6   3.057   2.708   3.055 -0.3762 -3.4688  1.2136
    3SOL     OW    7   1.084   2.042   0.181  0.3752  0.2411  0.0017
    3SOL    HW1    8   1.083   2.024   0.080 -2.0022  2.0747 -3.0519
    3SOL    HW2    9   1.057   2.136   0.202  1.0531 -0.2693  0.6644
    4SOL     OW   10   1.339   2.820   2.277  0.0021 -0.1445 -0.0164
    4SOL    HW1   11   1.285   2.775   2.200 -1.1306 -0.6829  0.1178
    4SOL    HW2   12   1.276   2.850   2.352  2.7090  0.0928 -0.1918
    5SOL     OW   13   2.053   0.250   3.079 -0.7162 -0.1577  0.1879
    5SOL    HW1   14   1.982   0.195   3.039 -0.3971 -0.0992 -1.7999
    5SOL    HW2   15   2.024   0.275   0.050 -1.1269 -0.2855 -0.7940
    6SOL     OW   16   0.211   1.508   1.069 -0.2158  0.4786 -0.3378
    6SOL    HW1   17   0.195   1.609   1.079  2.2410 -3.3418 -1.5238
    6SOL    HW2   18   0.258   1.483   0.980  1.4398 -3.4777  2.3590
    7SOL     OW   19   1.267   1.890   0.528  0.2042  0.0441  0.9661
    7SOL    HW1   20   1.224   1.798   0.539  0.1998 -1.5799 -0.2581
    7SOL    HW2   21   1.347   1.911   0.589 -1.7801 -3.8077  1.9587
    8SOL     OW   22   0.563   0.460   0.479  0.6439  0.2513 -0.1649
    8SOL    HW1   23   0.667   0.452   0.496  0.3167  0.6870 -0.5433
    8SOL    HW2   24   0.528   0.556   0.480  0.9758 -2.0578  1.0364
    9SOL     OW   25   0.206   2.560   1.806 -0.4961 -0.8972 -0.0176
    9SOL    HW1   26   0.252   2.637   1.855 -0.0095  1.7452 -0.3634
    9SOL    HW2   27   0.232   2.566   1.706  0.3005  0.8581  2.3605
   10SOL     OW   28   1.316   1.654   0.142  0.8887  0.0793  0.1091
   10SOL    HW1   29   1.332   1.753   0.106  0.3146  0.1359 -1.0987
   10SOL    HW2   30   1.379   1.596   0.089 -0.2485  3.3843 -0.9429
   11SOL     OW   31   1.905   0.622   1.766  0.0499 -0.2075 -0.2919
   11SOL    HW1   32   1.960   0.635   1.854  1.2543  0.4127  1.8002
   11SOL    HW2   33   1.814   0.585   1.781  0.6364 -1.3681 -0.9028
   12SOL     OW   34   0.346   0.812   2.146 -0.5006  0.4582  0.7859
   12SOL    HW1   35   0.425   0.874   2.172  0.8644  0.9085 -0.2631
   12SOL    HW2   36   0.367   0.715   2.164 -1.6534 -1.5564 -0.2164
   13SOL     OW   37   2.131   0.170   0.381  0.2371 -0.6090  0.6144
   13SOL    HW1   38   2.097   0.076   0.346 -1.6764 -1.0465 -0.0723
   13SOL    HW2   39   2.117   0.185   0.483 -1.2286  0.2535 -0.9115
   14SOL     OW   40   2.547   2.208   0.177  0.2059 -0.0157  0.2434
   14SOL    HW1   41   2.459   2.240   0.215 -0.2719 -0.9636  2.3824
   14SOL    HW2   42   2.540   2.180   0.083 -0.0685  1.5951  3.3233
   15SOL     OW   43   2.849   3.124   2.974 -0.1044 -0.1281 -0.4418
   15SOL    HW1   44   2.783   3.073   2.912 -1.8685  0.0665 -1.9357
   15SOL    HW2   45   2.804   0.060   3.039  1.0397  1.3099 -0.8484
   16SOL     OW   46   3.005   0.769   1.145  0.0652 -0.5427  0.1595
   16SOL    HW1   47   3.080   0.701   1.126 -0.3128 -0.1720 -2.6400
   16SOL    HW2   48   2.954   0.801   1.058 -1.7443 -0.1305 -1.6946
   17SOL     OW   49   0.487   0.268   1.163  0.4674  0.3450 -0.1877
   17SOL    HW1   50   0.576   0.258   1.113  0.4006  1.3007  0.1663
   17SOL    HW2   51   0.489   0.345   1.227  0.6743 -3.3921  0.8430
   18SOL     OW   52   2.958   0.218   0.631  0.0134 -0.1776  0.4626
   18SOL    HW1   53   2.857   0.212   0.647 -0.8666  1.7526  0.5389
   18SOL    HW2   54   3.006   0.213   0.717 -0.3803 -1.8013 -1.3904
   19SOL     OW   55   2.099   1.915   1.053 -0.1533 -0.2987  0.7571
   19SOL    HW1   56   2.200   1.903   1.035 -2.2830 -0.0306 -0.2913
   19SOL    HW2   57   2.067   2.004   1.011 -2.6201  0.8958 -1.1413
   20SOL     OW   58   2.061   1.700   2.475 -0.0418  0.3286 -0.0227
   20SOL    HW1   59   1.959   1.690   2.468  1.0210  2.0900 -0.0004
   20SOL    HW2   60   2.091   1.751   2.556 -1.7017 -1.7412 -0.8497
   21SOL     OW   61   1.257   0.275   0.176 -0.0588  0.0395 -0.3111
   21SOL    HW1   62   1.190   0.201   0.199 -2.1597  1.0334  0.3435
   21SOL    HW2   63   1.333   0.239   0.116 -0.8300  1.3854 -0.2609
   22SOL     OW   64   2.513   1.064   0.024 -0.4628 -0.2382 -0.0836
   22SOL    HW1   65   2.609   1.096   0.039  1.5304  1.2496  0.3841
   22SOL    HW2   66   2.500   1.022   3.057 -0.6662 -0.9644 -1.6512
   23SOL     OW   67   0.480   0.275   2.388 -0.1016  0.3445 -0.3927
   23SOL    HW1   68   0.454   0.183   2.349 -0.2686 -2.0127 -0.2537
   23SOL    HW2   69   0.577   0.269   2.423 -0.6665 -0.5271 -1.0090
   24SOL     OW   70   2.129   2.404   0.734  0.4924 -0.4531 -0.2239
   24SOL    HW1   71   2.155   2.499   0.758 -0.8973 -0.3205  0.3863
   24SOL    HW2   72   2.032   2.379   0.765 -1.0430  0.9397 -0.1897
   25SOL     OW   73   1.539   0.478   0.137  0.3461  0.0734  0.0142
   25SOL    HW1   74   1.508   0.396   0.089  1.0477  0.6683 -0.3255
   25SOL    HW2   75   1.631   0.501   0.102  0.7804 -1.8622  0.7496
   26SOL     OW   76   1.158   2.758   2.869 -0.0219  0.2842 -0.0468
   26SOL    HW1   77   1.088   2.824   2.905 -0.6216 -1.6060  1.2602
   26SOL    HW2   78   1.174   2.680   2.933  1.6201 -1.0884 -1.1973
   27SOL     OW   79   0.978   0.680   1.353  0.1341 -0.0010 -0.4350
   27SOL    HW1   80   0.971   0.706   1.256  1.5000  1.9422 -1.5766
   27SOL    HW2   81   1.055   0.612   1.358  0.2736  0.4278  0.6238
   28SOL     OW   82   0.780   2.054   1.257  0.6474 -0.0444  0.4403
   28SOL    HW1   83   0.812   1.983   1.195 -0.3780  0.4446  1.3897
   28SOL    HW2   84   0.756   2.010   1.344 -0.9561 -2.7740 -2.3605
   29SOL     OW   85   2.786   0.575   0.904  0.3600  0.4290 -0.1524
   29SOL    HW1   86   2.680   0.577   0.908  0.4583 -0.1106 -0.8714
   29SOL    HW2   87   2.827   0.664   0.900 -2.2096 -4.6054  1.1308
   30SOL     OW   88   1.566   0.166   1.721 -0.7585 -0.2424 -0.0847
   30SOL    HW1   89   1.585   0.125   1.633 -1.4689  0.3992  1.5462
   30SOL    HW2   90   1.482   0.129   1.763 -1.8588 -0.4000 -0.0758
   31SOL     OW   91   1.230   0.050   1.244  0.5104  0.3254  0.1667
   31SOL    HW1   92   1.272   0.078   1.329 -2.9206 -0.4364 -2.1964
   31SOL    HW2   93   1.136   0.014   1.269  0.4997 -0.5313  0.6116
   32SOL     OW   94   2.434   1.223   2.231 -0.2245 -0.4607  0.3253
   32SOL    HW1   95   2.500   1.298   2.217  0.3164 -0.7244  0.5636
   32SOL    HW2   96   2.361   1.222   2.152 -2.1376  0.9385 -3.8304
   33SOL     OW   97   2.475   2.894   2.549  0.5696  0.2758  0.9992
   33SOL    HW1   98   2.455   2.827   2.475  0.5759 -1.8504 -0.9472
   33SOL    HW2   99   2.567   2.935   2.539 -2.9144  1.3872 -0.4146
   34SOL     OW  100   1.929   0.934   2.992 -0.4358 -0.6467  0.2757
   34SOL    HW1  101   1.996   0.887   3.055 -2.9735 -1.1030  1.2717
   34SOL    HW2  102   1.830   0.911   3.020 -2.3334 -0.9658  0.5345
   35SOL     OW  103   3.036   1.169   1.300  0.1385  0.0974  0.2729
   35SOL    HW1  104   3.101   1.213   1.237 -3.2472  1.0008  0.9727
   35SOL    HW2  105   2.994   1.085   1.261 -1.2159 -1.8062  0.7765
   36SOL     OW  106   2.240   2.394   2.652  0.5150  0.3130  0.0473
   36SOL    HW1  107   2.340   2.385   2.653 -2.4641 -2.0462 -2.0612
   36SOL    HW2  108   2.214   2.492   2.662 -0.1072  1.8104  0.4587
   37SOL     OW  109   1.575   0.136   2.089 -0.2796 -0.3895 -0.4371
   37SOL    HW1  110   1.501   0.192   2.046  0.7580 -0.5526 -0.0601
   37SOL    HW2  111   1.647   0.118   2.015  1.0285  0.7431 -4.2655
   38SOL     OW  112   1.045   1.443   2.237 -0.1578  0.2091  0.0365
   38SOL    HW1  113   1.088   1.517   2.177  2.5712  0.7204 -3.5226
   38SOL    HW2  114   1.078   1.354   2.207  0.3576  1.5546 -0.2372
   39SOL     OW  115   1.649   0.439   1.717  0.4159  0.4107  0.7826
   39SOL    HW1  116   1.600   0.499   1.643 -2.6217  2.9279 -4.1471
   39SOL    HW2  117   1.619   0.341   1.708 -1.2163 -1.9664 -0.8688
   40SOL     OW  118   1.077   2.501   0.735 -0.6265  0.2209  0.0462
   40SOL    HW1  119   1.130   2.439   0.675  0.0232 -0.9120  0.2541
   40SOL    HW2  120   1.124   2.593   0.744  3.2052 -0.6994 -0.6648
   41SOL     OW  121   2.384   2.144   1.203 -0.7022 -0.1417 -0.4788
   41SOL    HW1  122   2.357   2.233   1.167 -0.8909 -1.3086  0.1889
   41SOL    HW2  123   2.485   2.154   1.221  0.5939  1.6066 -1.3924
   42SOL     OW  124   2.660   3.095   0.367  0.2723  0.7148 -0.6160
   42SOL    HW1  125   2.733   3.038   0.319  2.9311 -1.0903  0.5874
   42SOL    HW2  126   2.666   3.069   0.468  0.1689  2.3956 -2.8329
   43SOL     OW  127   0.949   1.683   2.006 -0.4326 -0.1111  0.1070
   43SOL    HW1  128   0.904   1.590   2.016 -0.7607 -0.8374  0.2574
   43SOL    HW2  129   1.031   1.676   2.069  1.1443  1.8388 -4.1050
   44SOL     OW  130   1.931   2.977   1.183 -0.2668 -0.1846  0.0366
   44SOL    HW1  131   1.971   3.071   1.165 -1.8150 -0.6330 -1.7582
   44SOL    HW2  132   1.993   2.901   1.145  1.0113  0.0942  1.5259
   45SOL     OW  133   0.200   2.293   2.449  0.3175 -0.1483 -0.1592
   45SOL    HW1  134   0.186   2.192   2.457 -2.4083 -2.9607 -0.9142
   45SOL    HW2  135   0.235   2.338   2.538 -1.4406 -2.1521  0.6649
   46SOL     OW  136   0.698   2.555   1.949  0.6170 -0.0765  0.3097
   46SOL    HW1  137   0.603   2.518   1.973 -3.5931  1.6280  1.7882
   46SOL    HW2  138   0.771   2.494   1.980 -2.4799 -0.8553  0.7747
   47SOL     OW  139   0.365   1.848   0.546 -0.5520 -0.1864 -0.3234
   47SOL    HW1  140   0.440   1.917   0.523 -2.6453 -0.9663  1.9238
   47SOL    HW2  141   0.350   1.795   0.462 -0.3657  0.7277  0.3638
   48SOL     OW  142   0.684   2.824   1.465 -0.0058 -0.6555  0.1768
   48SOL    HW1  143   0.615   2.760   1.438  3.6333  1.1919 -0.3825
   48SOL    HW2  144   0.649   2.909   1.507  1.6061  1.9689  0.1429
   49SOL     OW  145   0.266   2.816   0.306  0.2770 -0.3663  0.1785
   49SOL    HW1  146   0.291   2.898   0.254 -0.4069  0.8799 -1.4041
   49SOL    HW2  147   0.167   2.818   0.328  0.2000  0.8782  0.1549
   50SOL     OW  148   1.716   0.841   0.535  0.5880 -0.1972  0.5924
   50SOL    HW1  149   1.677   0.871   0.629 -2.1799  0.0854  0.5669
   50SOL    HW2  150   1.751   0.920   0.479  0.1478 -1.2453  1.4652
   51SOL     OW  151   1.902   3.009   0.759  0.0051 -0.0382 -0.1734
   51SOL    HW1  152   1.900   2.908   0.759 -1.4926 -3.0600 -1.0989
   51SOL    HW2  153   1.833   3.051   0.819 -0.1469  1.4364  1.9194
   52SOL     OW  154   0.527   1.838   0.941  0.7121 -0.1313 -1.1449
   52SOL    HW1  155   0.571   1.769   1.000  1.9778  3.9602 -1.8942
   52SOL    HW2  156   0.463   1.892   1.001 -0.0243 -4.0732 -0.2107
   53SOL     OW  157   0.299   1.122   2.674  0.0454  1.2097 -0.5203
   53SOL    HW1  158   0.366   1.142   2.749 -0.0266  1.3387 -1.1827
   53SOL    HW2  159   0.227   1.051   2.694 -0.0180  0.9806 -0.3231
   54SOL     OW  160   2.231   2.001   2.716  0.5311  0.4905  0.4580
   54SOL    HW1  161   2.130   2.018   2.719 -0.4850  1.7648 -1.8614
   54SOL    HW2  162   2.273   2.012   2.808  1.8439  1.1558 -1.0469
   55SOL     OW  163   2.655   2.174   1.249  0.2140  0.0996  0.1816
   55SOL    HW1  164   2.718   2.240   1.200  0.1025  1.0636 -0.6442
   55SOL    HW2  165   2.678   2.192   1.349 -0.5597 -1.6443  2.1084
   56SOL     OW  166   1.383   1.063   1.460 -0.2136  0.3494  0.6793
   56SOL    HW1  167   1.457   1.116   1.506 -0.1840 -0.8367  0.4860
   56SOL    HW2  168   1.427   1.027   1.371  2.2402 -1.2372 -0.3439
   57SOL     OW  169   2.123   2.113   0.773 -0.0141  0.1321  0.1088
   57SOL    HW1  170   2.105   2.192   0.834  2.2243 -0.6903  0.1070
   57SOL    HW2  171   2.219   2.084   0.780 -0.4764  0.3994 -0.2038
   58SOL     OW  172   1.973   0.314   2.350  0.3661 -0.2305  0.4375
   58SOL    HW1  173   1.999   0.315   2.450  0.2907  1.2217  0.2575
   58SOL    HW2  174   1.961   0.404   2.307  0.2157  0.7890 -0.9190
   59SOL     OW  175   1.380   0.134   2.681 -0.0328  0.0614  0.0913
   59SOL    HW1  176   1.479   0.143   2.708  1.3435 -2.7309 -0.5324
   59SOL    HW2  177   1.369   0.044   2.636 -1.1201  1.1087  0.6126
   60SOL     OW  178   1.880   1.821   2.934  0.3546 -0.0621  0.1441
   60SOL    HW1  179   1.801   1.867   2.986  0.5317  0.5548 -0.1077
   60SOL    HW2  180   1.870   1.836   2.832 -0.5290  0.5632 -1.0284
   61SOL     OW  181   0.460   2.274   2.987 -0.2714  0.3680  0.0663
   61SOL    HW1  182   0.370   2.223   2.995 -0.0765  0.9324 -0.3742
   61SOL    HW2  183   0.481   2.274   2.886 -0.9663  0.5287 -0.7536
   62SOL     OW  184   1.472   2.352   1.246 -0.4439 -0.0261  0.3389
   62SOL    HW1  185   1.379   2.312   1.253 -0.2292  2.3805  0.1543
   62SOL    HW2  186   1.514   2.364   1.334 -1.7458 -2.5836 -1.6825
   63SOL     OW  187   1.065   2.085   0.606  0.2946  0.7683 -0.0750
   63SOL    HW1  188   0.971   2.078   0.564  0.3253 -1.5798 -1.6277
   63SOL    HW2  189   1.121   2.008   0.569  1.2513  1.5938  0.7004
   64SOL     OW  190   1.788   1.692   2.463  0.0854  0.5220  0.6132
   64SOL    HW1  191   1.727   1.615   2.428  3.0126 -1.6664  0.4871
   64SOL    HW2  192   1.785   1.774   2.399 -0.1624  0.5158 -0.2669
   65SOL     OW  193   1.900   1.988   1.335 -0.3241 -0.2202 -0.1320
   65SOL    HW1  194   1.996   2.023   1.321  0.8878  2.1880 -1.9607
   65SOL    HW2  195   1.877   1.914   1.272  1.6901 -0.7424  2.3331
   66SOL     OW  196   2.917   0.551   0.661  0.1812  0.0339  0.4540
   66SOL    HW1  197   3.002   0.505   0.686 -2.8724 -1.2082  2.0668
   66SOL    HW2  198   2.847   0.545   0.736 -0.4263  0.4569 -0.1302
   67SOL     OW  199   2.094   2.558   1.047 -0.3927 -0.0783 -0.0658
   67SOL    HW1  200   2.005   2.606   1.049 -0.0371 -1.1713 -0.2397
   67SOL    HW2  201   2.150   2.575   0.963  0.5704 -0.6170 -0.0581
   68SOL     OW  202   2.590   2.498   1.572 -0.2347  0.4469  0.3380
   68SOL    HW1  203   2.512   2.522   1.509 -1.0958 -0.3009 -1.3215
   68SOL    HW2  204   2.583   2.525   1.670 -0.4047 -1.5516  0.3382
   69SOL     OW  205   2.678   2.990   2.814  0.2354  0.2568  0.7707
   69SOL    HW1  206   2.659   3.012   2.715  0.2802 -0.2904 -2.1202
   69SOL    HW2  207   2.592   2.955   2.853  0.9013  1.4878 -0.6587
   70SOL     OW  208   1.177   1.664   2.133 -0.5174  0.2691  0.4150
   70SOL    HW1  209   1.253   1.622   2.076  0.0360 -1.8858  1.3092
   70SOL    HW2  210   1.208   1.741   2.190  1.0785 -1.5360  1.6736
   71SOL     OW  211   1.013   1.917   1.861  0.3899  0.3540  0.3717
   71SOL    HW1  212   0.996   1.833   1.920 -0.1135 -1.3510  0.5391
   71SOL    HW2  213   0.980   1.896   1.763 -2.3194 -0.8357 -3.3562
   72SOL     OW  214   2.616   1.134   1.482 -0.3555  0.3676 -0.1069
   72SOL    HW1  215   2.650   1.140   1.578  2.7193 -2.7817  0.3317
   72SOL    HW2  216   2.576   1.223   1.458  1.9678  1.3845  0.4437
   73SOL     OW  217   0.730   2.226   2.649 -0.2297 -0.0840  0.0052
   73SOL    HW1  218   0.763   2.203   2.559 -0.7837 -0.0016  0.0306
   73SOL    HW2  219   0.798   2.281   2.701 -0.4266  1.4246  1.0714
   74SOL     OW  220   0.726   0.260   2.486 -0.2040 -0.1711 -0.4220
   74SOL    HW1  221   0.791   0.204   2.426  2.2342 -0.2400 -0.8426
   74SOL    HW2  222   0.753   0.355   2.496  0.2470 -1.4197  1.2070
   75SOL     OW  223   0.866   3.092   0.760  0.1855 -0.2708  0.4548
   75SOL    HW1  224   0.863   2.991   0.754  0.1370 -0.7497  0.6718
   75SOL    HW2  225   0.942   0.008   0.706 -2.2762  1.0282  0.4771
   76SOL     OW  226   0.493   1.081   2.487 -0.2014 -0.4835  0.3283
   76SOL    HW1  227   0.409   1.086   2.539 -1.3962 -1.4061  0.6755
   76SOL    HW2  228   0.494   1.011   2.410 -0.2828 -0.2728 -0.0330
   77SOL     OW  229   0.590   2.910   0.748 -0.5802 -0.0980 -0.2234
   77SOL    HW1  230   0.548   2.870   0.664  1.3861  0.5164  1.1942
   77SOL    HW2  231   0.684   2.867   0.760 -1.1428  0.2741 -0.7679
   78SOL     OW  232   2.627   1.163   2.725  0.2016  0.2595 -0.8363
   78SOL    HW1  233   2.610   1.257   2.696  0.5777  1.5673  0.9349
   78SOL    HW2  234   2.675   1.114   2.656  0.7038 -1.9020  2.5220
   79SOL     OW  235   1.080   1.396   2.500  0.4879 -0.1987 -0.2761
   79SOL    HW1  236   1.076   1.403   2.398  2.3380 -1.1878  1.4735
   79SOL    HW2  237   1.014   1.461   2.543 -1.6291 -0.6827  0.8196
   80SOL     OW  238   2.156   0.908   1.553  0.3048 -0.3093 -0.2788
   80SOL    HW1  239   2.093   0.976   1.502 -3.4525 -1.9772  1.9381
   80SOL    HW2  240   2.223   0.960   1.609  0.1632  1.9853 -1.4040
   81SOL     OW  241   2.440   0.971   2.863 -0.3144  0.4587 -0.0433
   81SOL    HW1  242   2.340   0.971   2.831 -1.0895 -0.5110  1.9206
   81SOL    HW2  243   2.493   1.046   2.819 -0.6527  0.4572  1.8525
   82SOL     OW  244   2.418   2.046   1.533 -0.1464 -0.1113 -0.4741
   82SOL    HW1  245   2.396   1.997   1.448  2.8888 -0.5894  1.2935
   82SOL    HW2  246   2.434   1.975   1.609  0.7409 -0.3225 -0.8054
   83SOL     OW  247   1.894   2.841   0.212 -0.1523 -0.1782  0.4773
   83SOL    HW1  248   1.812   2.878   0.262  2.4900 -1.2921  1.6791
   83SOL    HW2  249   1.892   2.870   0.116  0.2256 -2.4837  3.4853
   84SOL     OW  250   0.942   0.748   0.703  0.1085 -0.3392  0.4168
   84SOL    HW1  251   0.998   0.667   0.727 -0.9803 -0.0093  2.4118
   84SOL    HW2  252   0.851   0.741   0.749 -3.5338  1.9448 -2.0897
   85SOL     OW  253   2.027   1.493   1.261 -0.3249 -0.5569 -0.4034
   85SOL    HW1  254   2.095   1.413   1.255  1.7706 -0.8878  0.9773
   85SOL    HW2  255   2.068   1.582   1.232  0.7530  2.3492  1.8073
   86SOL     OW  256   0.502   0.730   1.266  0.3663 -0.0377 -0.4441
   86SOL    HW1  257   0.421   0.776   1.228 -0.6447  1.1036  0.8930
   86SOL    HW2  258   0.550   0.797   1.333 -0.8771  1.2168 -0.0296
   87SOL     OW  259   3.060   2.373   2.375  0.3053  0.1943  0.0022
   87SOL    HW1  260   3.077   2.427   2.288  0.1040  3.4105 -0.8021
   87SOL    HW2  261   0.026   2.358   2.421  0.1041 -0.1791  5.0310
   88SOL     OW  262   0.369   3.047   0.162 -0.3632  0.0429 -0.0321
   88SOL    HW1  263   0.462   3.006   0.150 -0.4006 -0.7440  1.0053
   88SOL    HW2  264   0.381   0.024   0.160 -0.1531  3.3962 -0.6224
   89SOL     OW  265   1.399   0.436   1.348  0.4731  0.6869  0.1994
   89SOL    HW1  266   1.410   0.340   1.393  0.7158 -3.0765 -1.5514
   89SOL    HW2  267   1.405   0.507   1.419 -0.8213 -3.6355 -0.0054
   90SOL     OW  268   3.017   1.222   1.989  0.4509  0.2716  0.2497
   90SOL    HW1  269   3.037   1.301   2.050  1.6284 -0.9655  1.2503
   90SOL    HW2  270   3.089   1.207   1.923 -0.9570 -0.5659  1.4766
   91SOL     OW  271   1.832   2.707   0.746 -0.2939  0.3118  0.4143
   91SOL    HW1  272   1.896   2.647   0.695  2.9463  1.5041  1.3874
   91SOL    HW2  273   1.828   2.682   0.844  1.8663 -0.5914 -0.6486
   92SOL     OW  274   1.964   1.934   0.612 -0.4882  0.8756 -0.6065
   92SOL    HW1  275   2.038   1.989   0.663  0.6779  0.2674 -0.8394
   92SOL    HW2  276   1.876   1.981   0.605  1.4231 -1.8603  3.3244
   93SOL     OW  277   0.478   1.536   0.446  0.3987 -0.0429 -0.1952
   93SOL    HW1  278   0.550   1.600   0.490  0.4127  1.8696  1.4505
   93SOL    HW2  279   0.412   1.505   0.522 -0.6220  1.0478 -0.9604
   94SOL     OW  280   0.690   2.335   0.892 -0.4703  0.2353  0.5670
   94SOL    HW1  281   0.791   2.317   0.894  0.4356 -1.1182  1.9312
   94SOL    HW2  282   0.649   2.286   0.974  1.1415 -1.3882  1.6924
   95SOL     OW  283   0.476   0.712   0.472  0.0933 -0.2403 -0.3838
   95SOL    HW1  284   0.430   0.783   0.527  0.3286  0.3478 -2.2627
   95SOL    HW2  285   0.536   0.760   0.404  2.4914 -1.0379  2.9761
   96SOL     OW  286   0.914   2.382   2.007  0.2270  0.7469 -0.1667
   96SOL    HW1  287   1.014   2.396   1.979 -0.1158  1.0975  2.3244
   96SOL    HW2  288   0.879   2.288   1.983  0.5439 -2.9888  0.1345
   97SOL     OW  289   2.382   0.860   0.444 -0.2463 -0.2086 -0.1549
   97SOL    HW1  290   2.417   0.831   0.532  0.9964  0.4036  0.5708
   97SOL    HW2  291   2.417   0.948   0.407 -2.3335 -0.1006 -0.4961
   98SOL     OW  292   0.214   1.876   2.001 -0.1850  0.1732  0.1669
   98SOL    HW1  293   0.262   1.879   1.910  0.3960 -0.0745  0.1668
   98SOL    HW2  294   0.131   1.937   2.003 -1.7188 -1.5447  0.3602
   99SOL     OW  295   0.131   0.514   1.989 -0.8059 -0.2235  0.0947
   99SOL    HW1  296   0.218   0.566   1.966  1.5638 -0.9264 -3.0027
   99SOL    HW2  297   0.158   0.424   2.020 -0.2431  1.3649  1.1913
  100SOL     OW  298   2.058   0.738   2.513 -0.3533  0.1220  0.1975
  100SOL    HW1  299   2.120   0.661   2.544  1.9827 -1.5352 -0.4715
  100SOL    HW2  300   2.001   0.773   2.590  0.6018  1.0015 -2.1063
  101SOL     OW  301   1.151   0.275   1.802 -0.2444  0.3634  0.4204
  101SOL    HW1  302   1.139   0.254   1.702 -0.0480 -0.4979  2.3372
  101SOL    HW2  303   1.070   0.251   1.858 -0.9238 -0.8099  3.6246
  102SOL     OW  304   0.453   0.655   1.686 -0.0920  0.1794  0.1610
  102SOL    HW1  305   0.393   0.702   1.621 -0.9043 -0.0629 -1.8568
  102SOL    HW2  306   0.402   0.661   1.776 -2.5152  0.2210 -1.1389
  103SOL     OW  307   0.441   0.619   2.985 -0.1617  0.1473  0.0103
  103SOL    HW1  308   0.456   0.602   3.085  1.6385 -2.7912  1.9561
  103SOL    HW2  309   0.480   0.709   2.958  0.0667 -0.3408  1.2474
  104SOL     OW  310   0.340   2.716   2.014 -0.1844 -0.0780  0.4309
  104SOL    HW1  311   0.387   2.625   2.018  1.4632  0.8524  3.6146
  104SOL    HW2  312   0.308   2.741   2.103  1.1937  2.0934 -1.3987
  105SOL     OW  313   2.470   2.770   2.047 -0.4510  0.6491 -0.3038
  105SOL    HW1  314   2.489   2.845   1.974 -0.4716  2.3668  1.1074
  105SOL    HW2  315   2.437   2.821   2.125  0.7217  1.3329 -1.6240
  106SOL     OW  316   0.455   3.064   0.918 -0.6485 -0.1955  0.0528
  106SOL    HW1  317   0.507   0.023   0.934 -1.3089  1.5120  1.1417
  106SOL    HW2  318   0.517   2.991   0.878  2.7307  0.1193  1.5671
  107SOL     OW  319   3.075   1.511   1.211  0.1775 -0.0843 -0.5510
  107SOL    HW1  320   3.112   1.588   1.263 -0.9682  3.4751  2.4064
  107SOL    HW2  321   2.994   1.472   1.265 -1.5774 -1.2521 -0.7424
  108SOL     OW  322   0.388   2.234   0.999 -0.2810  0.6672  0.2763
  108SOL    HW1  323   0.334   2.319   1.011 -0.3013  0.8723  2.4144
  108SOL    HW2  324   0.479   2.237   1.044 -0.5135  0.5049 -0.4196
  109SOL     OW  325   1.359   2.994   0.492 -0.5034 -0.0679 -0.4382
  109SOL    HW1  326   1.429   2.994   0.568 -1.0761 -0.9242  0.5250
  109SOL    HW2  327   1.399   3.038   0.408  1.4975 -1.9733 -1.8673
  110SOL     OW  328   1.646   1.892   0.382 -0.0876  0.4216  0.1369
  110SOL    HW1  329   1.732   1.920   0.338  2.0341 -0.5787  1.7643
  110SOL    HW2  330   1.645   1.875   0.481  1.5858  1.5253 -1.0477
  111SOL     OW  331   1.786   2.872   2.106  0.1156  0.3572 -0.3835
  111SOL    HW1  332   1.694   2.835   2.130 -0.7642 -0.8625 -3.2525
  111SOL    HW2  333   1.793   2.960   2.152 -3.5711  0.7468 -0.0452
  112SOL     OW  334   1.916   2.653   2.788  0.2145 -0.7497 -0.4813
  112SOL    HW1  335   1.996   2.648   2.725  0.3273  1.0070  0.1370
  112SOL    HW2  336   1.939   2.692   2.879 -0.7888  1.8140  0.9750
  113SOL     OW  337   2.290   2.168   2.063  0.3737 -0.1434  0.1007
  113SOL    HW1  338   2.344   2.201   2.141  0.5231  2.3828 -2.0347
  113SOL    HW2  339   2.300   2.236   1.984  1.3721  3.3365 -1.3658
  114SOL     OW  340   0.064   1.223   1.787  0.3456 -0.2448 -0.0881
  114SOL    HW1  341   0.130   1.143   1.778  0.2405 -2.0078 -0.7505
  114SOL    HW2  342   0.109   1.306   1.753  1.0795 -1.4955 -0.0739
  115SOL     OW  343   3.087   0.625   3.056  0.4868  0.0908  0.2851
  115SOL    HW1  344   0.019   0.702   3.073  1.5763 -0.6894 -0.1433
  115SOL    HW2  345   2.991   0.658   3.042  0.1910 -0.7462 -0.4552
  116SOL     OW  346   3.018   0.390   0.089 -0.5069 -0.3348  0.0321
  116SOL    HW1  347   3.057   0.481   0.071 -1.2182  1.6157 -0.8214
  116SOL    HW2  348   3.089   0.318   0.081  0.4683 -0.6407 -0.8035
  117SOL     OW  349   2.837   2.851   0.765  0.2325 -0.3413  0.4202
  117SOL    HW1  350   2.816   2.767   0.717  0.6568 -0.7462  3.3880
  117SOL    HW2  351   2.839   2.825   0.865 -0.6174 -1.7190  0.7339
  118SOL     OW  352   1.070   2.137   2.022  0.0249  0.0314  0.3737
  118SOL    HW1  353   1.070   2.044   1.986  1.4548  1.4722  0.6536
  118SOL    HW2  354   0.991   2.145   2.084  0.4320 -0.2814  0.1932
  119SOL     OW  355   0.738   2.498   0.093  0.3725  0.0397  0.0812
  119SOL    HW1  356   0.643   2.510   0.058  2.3856 -0.7676  1.8861
  119SOL    HW2  357   0.746   2.520   0.195  1.5062  1.4450 -0.5376
  120SOL     OW  358   1.497   0.917   0.171  0.4296 -0.5350 -0.4052
  120SOL    HW1  359   1.478   0.852   0.248 -0.7064 -2.2232 -0.6414
  120SOL    HW2  360   1.423   0.912   0.104  0.8519 -0.7489  0.6193
  121SOL     OW  361   1.488   1.001   1.234 -0.3183 -0.0169  0.5084
  121SOL    HW1  362   1.558   0.925   1.246  0.9737  2.4015  1.0787
  121SOL    HW2  363   1.526   1.081   1.181 -0.0118 -1.1378 -1.9858
  122SOL     OW  364   1.993   1.442   2.210  0.3446  0.6757  0.0537
  122SOL    HW1  365   1.911   1.404   2.251  0.7857  1.8409  0.0549
  122SOL    HW2  366   2.082   1.408   2.242  1.1477 -0.0892  1.3807
  123SOL     OW  367   0.358   0.943   0.565  0.2121  0.1269 -0.3138
  123SOL    HW1  368   0.314   1.025   0.526  0.5637 -1.6492  2.6499
  123SOL    HW2  369   0.284   0.891   0.616 -2.8051  3.4154  0.1797
  124SOL     OW  370   0.732   0.100   2.881 -0.9136 -0.4039 -0.0966
  124SOL    HW1  371   0.708   0.187   2.837  1.6698  0.2985  1.9638
  124SOL    HW2  372   0.692   0.020   2.834  2.5815  0.2137 -3.4592
  125SOL     OW  373   0.697   2.879   2.919  0.7095  0.2506 -0.3917
  125SOL    HW1  374   0.699   2.788   2.868  0.9633 -2.3470 -1.4332
  125SOL    HW2  375   0.647   2.951   2.872  1.7536 -3.1016  1.8620
  126SOL     OW  376   0.765   1.409   2.705  0.3325 -0.5059 -0.7339
  126SOL    HW1  377   0.795   1.482   2.636  1.4478 -0.8442 -1.3320
  126SOL    HW2  378   0.809   1.418   2.800  2.1846  2.6148  0.8217
  127SOL     OW  379   1.127   2.979   0.858  0.1074  0.5408 -0.1689
  127SOL    HW1  380   1.038   3.034   0.859 -0.0347 -2.7015  1.4591
  127SOL    HW2  381   1.206   3.042   0.840  0.2883  0.6337  2.1850
  128SOL     OW  382   1.655   2.205   0.081  0.5751  0.2632  0.2251
  128SOL    HW1  383   1.579   2.174   0.149 -0.0567 -0.9074  0.3897
  128SOL    HW2  384   1.689   2.118   0.031  1.3243 -0.6304 -1.2301
  129SOL     OW  385   1.772   1.608   1.336  0.5393  0.8320  0.1151
  129SOL    HW1  386   1.851   1.543   1.329  0.9035 -0.6233 -1.6969
  129SOL    HW2  387   1.780   1.683   1.270  0.3905 -3.7840 -1.0350
  130SOL     OW  388   1.980   1.822   1.537 -0.3007 -0.1914 -0.6942
  130SOL    HW1  389   1.931   1.902   1.496  3.4040 -0.7209 -1.2902
  130SOL    HW2  390   2.013   1.762   1.466 -0.6441  3.1502 -0.3935
  131SOL     OW  391   0.781   2.816   1.878  0.1799  0.4918  0.7021
  131SOL    HW1  392   0.747   2.726   1.921  1.6783  1.5983  0.5240
  131SOL    HW2  393   0.710   2.889   1.894 -0.1009 -0.1539  0.8624
  132SOL     OW  394   2.578   1.398   0.751  0.1357 -0.7878  0.2053
  132SOL    HW1  395   2.564   1.504   0.739  0.5208  4.7383  0.7272
  132SOL    HW2  396   2.540   1.346   0.672  0.9884  0.2022 -1.6173
  133SOL     OW  397   0.608   1.591   1.732  0.4472 -0.2075 -0.2120
  133SOL    HW1  398   0.621   1.495   1.748  0.2313  1.2199  1.5199
  133SOL    HW2  399   0.562   1.628   1.816 -0.2530 -0.5670  2.6095
  134SOL     OW  400   0.070   1.070   0.900 -0.0245 -0.0818 -0.0902
  134SOL    HW1  401   0.029   1.145   0.846 -0.0464 -0.3223 -2.4262
  134SOL    HW2  402   0.116   1.006   0.837  0.0996 -2.0524  0.1934
  135SOL     OW  403   2.111   1.871   3.062 -0.3115 -0.2414 -0.0929
  135SOL    HW1  404   2.124   1.804   0.015 -3.1434 -0.5603  0.6496
  135SOL    HW2  405   2.040   1.838   2.999  1.0819 -1.5284 -0.5292
  136SOL     OW  406   2.837   1.487   1.344 -0.2695 -0.0824 -0.0501
  136SOL    HW1  407   2.857   1.406   1.402  0.4021 -1.5315 -0.7015
  136SOL    HW2  408   2.795   1.557   1.404  2.6438 -0.5736  2.2944
  137SOL     OW  409   2.787   1.320   2.919 -0.0850  0.3065  0.4560
  137SOL    HW1  410   2.739   1.247   2.868  1.6395  0.7417  0.2050
  137SOL    HW2  411   2.733   1.356   3.000  1.0695  0.8888  0.3421
  138SOL     OW  412   2.933   0.406   1.055 -0.1263 -0.0316  0.5743
  138SOL    HW1  413   2.891   0.314   1.054 -2.0089  2.2290  0.8304
  138SOL    HW2  414   2.891   0.470   0.989 -0.0600 -0.1024 -2.5077
  139SOL     OW  415   1.982   2.225   2.900  0.2937 -0.7654 -0.8718
  139SOL    HW1  416   1.899   2.289   2.899  0.5773  1.5041 -0.2353
  139SOL    HW2  417   1.966   2.154   2.822 -0.8511 -1.1457 -1.4730
  140SOL     OW  418   0.947   1.695   0.744 -0.2116  0.0359  0.4980
  140SOL    HW1  419   0.871   1.764   0.735  2.7716 -0.1783 -2.5704
  140SOL    HW2  420   0.982   1.662   0.654  2.5727  0.6775  2.5314
  141SOL     OW  421   1.458   1.658   1.014 -0.5807  0.1982  0.6284
  141SOL    HW1  422   1.374   1.647   0.959 -2.1766  0.7583 -3.6686
  141SOL    HW2  423   1.541   1.628   0.957 -1.0543 -0.1616  0.8461
  142SOL     OW  424   1.090   0.834   0.977  0.1482 -0.3255 -0.0659
  142SOL    HW1  425   1.033   0.909   1.007 -0.6177 -0.3391  1.2456
  142SOL    HW2  426   1.055   0.745   1.021  2.4494  0.7167  0.6456
  143SOL     OW  427   0.391   0.122   2.957  0.0665 -0.1806  0.1322
  143SOL    HW1  428   0.400   0.210   2.904 -1.5027  2.2376 -0.4897
  143SOL    HW2  429   0.408   0.147   3.053  1.3813 -0.3235 -0.2737
  144SOL     OW  430   2.381   0.233   0.282 -0.0854 -0.0767 -0.5322
  144SOL    HW1  431   2.470   0.250   0.334 -1.4898 -0.8760 -0.5610
  144SOL    HW2  432   2.306   0.217   0.350  0.8279 -0.9013 -0.2638
  145SOL     OW  433   2.019   3.032   2.824 -0.3406  0.3761  0.5126
  145SOL    HW1  434   2.071   3.097   2.765  0.8029 -0.3962 -0.0414
  145SOL    HW2  435   2.090   2.984   2.880  1.5480  1.8032 -1.3359
  146SOL     OW  436   2.933   2.752   0.375 -0.0874 -0.3143  0.4805
  146SOL    HW1  437   2.915   2.850   0.342  0.5191 -0.2596 -0.8663
  146SOL    HW2  438   2.882   2.680   0.318 -1.3411 -1.2356 -1.9657
  147SOL     OW  439   1.721   1.099   0.129  0.3770 -0.3838 -0.1440
  147SOL    HW1  440   1.649   1.033   0.157 -0.5574  0.0419 -2.4699
  147SOL    HW2  441   1.691   1.147   0.047  1.4146 -1.6870  0.6201
  148SOL     OW  442   1.074   0.079   0.189 -0.6783  0.3927 -0.0935
  148SOL    HW1  443   0.977   0.105   0.190  1.6421  2.8280 -1.7898
  148SOL    HW2  444   1.115   0.076   0.282 -0.4600 -2.6073 -1.7828
  149SOL     OW  445   1.326   0.676   2.628 -0.2619  0.1423  0.3507
  149SOL    HW1  446   1.264   0.664   2.543  0.5145 -1.4606 -1.7424
  149SOL    HW2  447   1.334   0.584   2.673  1.6361 -0.9943 -2.6078
  150SOL     OW  448   1.460   2.818   2.739 -0.1083 -0.3190 -0.5041
  150SOL    HW1  449   1.465   2.896   2.806 -2.8186  1.8414  0.6858
  150SOL    HW2  450   1.371   2.762   2.751 -1.7987  2.1085  1.0614
  151SOL     OW  451   0.270   1.035   3.043 -0.2175 -0.2818 -0.4943
  151SOL    HW1  452   0.275   1.119   2.990 -1.5210 -0.4322 -0.3106
  151SOL    HW2  453   0.348   1.031   3.108 -1.2373  0.2109 -0.7224
  152SOL     OW  454   0.615   0.204   1.600  0.1536 -0.2595  0.0265
  152SOL    HW1  455   0.548   0.276   1.625  0.1879 -1.1153  4.0211
  152SOL    HW2  456   0.673   0.235   1.521  0.0571 -0.5578  0.7179
  153SOL     OW  457   2.500   2.962   1.418 -0.5141 -0.2511  0.5815
  153SOL    HW1  458   2.501   3.051   1.470  0.8398  0.9298 -1.2921
  153SOL    HW2  459   2.442   2.890   1.464  1.3826  0.9919  1.2038
  154SOL     OW  460   2.285   0.457   1.887  0.2215  0.1457  0.0448
  154SOL    HW1  461   2.257   0.368   1.849  0.5950  0.9454  1.1032
  154SOL    HW2  462   2.226   0.475   1.970 -1.0147  1.8967  2.5862
  155SOL     OW  463   0.380   1.017   0.194  0.1106 -0.3914  0.0218
  155SOL    HW1  464   0.474   0.980   0.227  2.2592 -0.2614  0.9306
  155SOL    HW2  465   0.351   1.093   0.250 -0.7058 -0.1202  0.2003
  156SOL     OW  466   1.911   1.282   0.227  0.1878  0.2797  0.0139
  156SOL    HW1  467   1.998   1.253   0.274 -0.1404 -1.5501  2.7665
  156SOL    HW2  468   1.851   1.200   0.221  1.0202  1.7607  0.4412
  157SOL     OW  469   1.115   2.060   3.036 -0.5305 -0.0939 -0.1417
  157SOL    HW1  470   1.174   2.137   3.015 -1.3973 -4.2862 -1.0082
  157SOL    HW2  471   1.017   2.077   3.028  2.1592 -0.0400  1.8701
  158SOL     OW  472   1.723   0.847   1.895  0.3380 -0.1925  0.0640
  158SOL    HW1  473   1.711   0.755   1.941 -0.8993  1.8510 -1.0344
  158SOL    HW2  474   1.641   0.905   1.916 -2.5612 -1.9844  1.1350
  159SOL     OW  475   0.150   0.219   0.648 -0.1183 -0.3305 -0.5292
  159SOL    HW1  476   0.215   0.158   0.698 -0.6388 -0.8249  1.8160
  159SOL    HW2  477   0.128   0.181   0.557  0.8110 -1.6296  2.0007
  160SOL     OW  478   2.509   1.615   1.790 -0.2058  0.1801 -0.5972
  160SOL    HW1  479   2.599   1.584   1.833 -0.6171  2.6108  2.2353
  160SOL    HW2  480   2.435   1.608   1.862 -2.0387  0.7975 -0.2843
  161SOL     OW  481   0.173   0.008   0.412 -0.8048  0.1178  0.1281
  161SOL    HW1  482   0.150   3.044   0.457  1.9903 -1.2697 -0.0228
  161SOL    HW2  483   0.265   0.001   0.365  1.7575 -4.1075  0.7397
  162SOL     OW  484   0.282   0.469   2.420 -0.0011  0.0297 -0.2050
  162SOL    HW1  485   0.223   0.450   2.496  3.1735 -0.2516 -4.1512
  162SOL    HW2  486   0.351   0.393   2.404 -0.2752 -0.8482  1.6194
  163SOL     OW  487   3.103   2.956   2.440  0.1794 -0.4689  0.2406
  163SOL    HW1  488   3.100   3.056   2.445 -0.5708 -0.0536 -0.8212
  163SOL    HW2  489   3.004   2.922   2.438 -1.1631 -0.5378  0.8425
  164SOL     OW  490   2.414   1.949   0.366  0.2098  0.3587 -0.4011
  164SOL    HW1  491   2.456   2.027   0.311 -0.7702  1.0501 -1.8747
  164SOL    HW2  492   2.318   1.965   0.376  2.1672  0.5960  1.7111
  165SOL     OW  493   0.955   0.523   1.569  0.6406  0.2815 -1.3431
  165SOL    HW1  494   0.929   0.563   1.477 -0.8637  0.1332 -1.1094
  165SOL    HW2  495   0.871   0.539   1.629 -3.0560  4.4193 -2.0362
  166SOL     OW  496   3.043   0.095   0.383 -0.1173 -0.4257 -0.2262
  166SOL    HW1  497   0.007   0.043   0.379 -0.1682  0.4769  1.0019
  166SOL    HW2  498   3.044   0.164   0.461  0.7695  3.5101  2.3706
  167SOL     OW  499   2.182   0.628   0.897  0.1532 -0.3269  0.5589
  167SOL    HW1  500   2.239   0.678   0.962 -1.5866  0.6806 -2.3326
  167SOL    HW2  501   2.108   0.569   0.935  0.0217  0.4403  0.2348
  168SOL     OW  502   1.042   0.409   2.362 -0.0619 -0.3701  0.4868
  168SOL    HW1  503   1.132   0.363   2.335  0.9854 -1.9318 -0.9667
  168SOL    HW2  504   1.038   0.394   2.461  1.8310 -0.5732 -1.8094
  169SOL     OW  505   1.101   1.977   1.331 -0.0318 -0.3683 -0.1061
  169SOL    HW1  506   1.101   1.990   1.232 -0.5596 -0.2356  1.7028
  169SOL    HW2  507   1.061   2.057   1.379 -3.4656 -3.5144  1.3429
  170SOL     OW  508   2.983   3.002   1.564  0.4708 -0.1139  0.2744
  170SOL    HW1  509   2.988   2.901   1.575  0.4475 -1.3325 -0.0695
  170SOL    HW2  510   3.047   3.024   1.485  1.2227 -1.9517  0.3647
  171SOL     OW  511   2.657   0.517   2.356  0.3061 -0.7049 -0.5475
  171SOL    HW1  512   2.632   0.431   2.302 -2.8500 -0.9842  0.8544
  171SOL    HW2  513   2.605   0.599   2.330  0.6541  0.9826 -0.2943
  172SOL     OW  514   1.307   2.743   1.429  0.2934  0.0679  0.1473
  172SOL    HW1  515   1.220   2.735   1.378 -0.2587  3.1388 -1.3781
  172SOL    HW2  516   1.388   2.709   1.379  1.1256  0.4627  1.9445
  173SOL     OW  517   2.672   2.519   2.898 -0.2913 -0.2526 -0.5557
  173SOL    HW1  518   2.587   2.471   2.881  0.0390 -0.0905  0.6649
  173SOL    HW2  519   2.692   2.597   2.832  0.1913  1.8979 -0.6934
  174SOL     OW  520   1.864   1.003   0.343  0.0092  0.1027 -0.3017
  174SOL    HW1  521   1.947   0.941   0.347 -0.4329  1.1536 -0.5806
  174SOL    HW2  522   1.832   1.022   0.247 -1.1053  1.8561 -1.9944
  175SOL     OW  523   0.797   1.596   1.332  0.0268 -0.2306  0.1188
  175SOL    HW1  524   0.750   1.540   1.407  0.1167 -1.1134  0.3522
  175SOL    HW2  525   0.867   1.656   1.381  2.3448 -0.4129 -1.1614
  176SOL     OW  526   0.278   0.001   0.731 -0.1034 -0.1302 -0.3889
  176SOL    HW1  527   0.346   3.095   0.799  0.0423 -1.3685 -3.1632
  176SOL    HW2  528   0.216   3.055   0.701  0.6521  1.7686  0.2069
  177SOL     OW  529   2.616   1.295   0.311 -0.0905 -0.0852 -0.1447
  177SOL    HW1  530   2.712   1.283   0.339  0.0359 -0.3794  0.1010
  177SOL    HW2  531   2.590   1.394   0.313  0.5622  2.4361 -0.1628
  178SOL     OW  532   2.677   2.566   2.171  0.0620  0.5705 -0.2523
  178SOL    HW1  533   2.646   2.656   2.134  2.4127  2.4413  0.8877
  178SOL    HW2  534   2.741   2.572   2.254  0.1964  1.0385  1.7466
  179SOL     OW  535   2.408   3.065   0.311 -0.2903  0.7157 -0.3223
  179SOL    HW1  536   2.505   3.070   0.344  0.4011  4.3833 -1.1342
  179SOL    HW2  537   2.374   0.032   0.297  0.5088 -0.5020  3.1303
  180SOL     OW  538   2.239   0.423   0.700 -0.5765  0.1761  0.0848
  180SOL    HW1  539   2.236   0.484   0.782  1.9533  0.7913  0.1218
  180SOL    HW2  540   2.211   0.477   0.616 -0.5409  1.4652 -2.3760
  181SOL     OW  541   2.930   0.283   2.726 -0.5500  0.2616  0.4361
  181SOL    HW1  542   2.971   0.187   2.720  1.1243 -2.1218 -0.5120
  181SOL    HW2  543   2.888   0.304   2.637 -0.4329 -1.6762 -2.7013
  182SOL     OW  544   2.645   2.112   2.568 -0.3772 -0.1136  0.2080
  182SOL    HW1  545   2.557   2.066   2.545 -0.5099 -1.4300 -1.3737
  182SOL    HW2  546   2.702   2.139   2.484 -1.0438 -0.2730 -3.9717
  183SOL     OW  547   0.310   1.071   1.754  0.4252 -0.5706  0.2400
  183SOL    HW1  548   0.340   1.109   1.662 -1.7891 -1.3255 -0.9612
  183SOL    HW2  549   0.368   1.002   1.795 -0.7839  1.3253 -0.1496
  184SOL     OW  550   0.359   1.221   1.250 -0.6608 -0.3116  0.6974
  184SOL    HW1  551   0.266   1.226   1.210  0.7066  0.5118  0.0837
  184SOL    HW2  552   0.431   1.217   1.177  0.8781 -0.8666 -2.0190
  185SOL     OW  553   3.035   2.593   1.218  0.1408  0.0386  0.1933
  185SOL    HW1  554   3.042   2.547   1.125 -0.4130 -0.6603  1.0645
  185SOL    HW2  555   3.058   2.690   1.196 -0.2315  1.2534  1.4044
  186SOL     OW  556   1.693   2.723   2.603 -0.8552 -0.2590  0.8211
  186SOL    HW1  557   1.757   2.694   2.677  0.8637 -3.4054 -0.3061
  186SOL    HW2  558   1.602   2.755   2.634  0.0655  0.8326 -1.8029
  187SOL     OW  559   0.205   1.334   0.630  0.8876  0.4702 -0.3875
  187SOL    HW1  560   0.115   1.285   0.641  1.0184 -0.1551 -0.1122
  187SOL    HW2  561   0.246   1.378   0.714 -1.2023 -0.5520 -0.2924
  188SOL     OW  562   1.852   1.951   0.219  0.0972 -0.3870 -0.5856
  188SOL    HW1  563   1.924   1.923   0.289  0.6135 -0.0786  0.7635
  188SOL    HW2  564   1.896   2.003   0.144  2.2611  1.5729 -1.2958
  189SOL     OW  565   0.029   1.777   2.944 -0.3326  0.2167  0.0649
  189SOL    HW1  566   0.036   1.750   3.042 -0.4355  0.5341  0.7332
  189SOL    HW2  567   0.075   1.865   2.925 -0.3779 -2.6903 -1.4728
  190SOL     OW  568   2.411   0.811   2.141  1.1018 -0.6156  0.1394
  190SOL    HW1  569   2.463   0.899   2.123  0.2662 -0.4473 -1.4805
  190SOL    HW2  570   2.452   0.757   2.214 -0.9644  1.5333 -2.0948
  191SOL     OW  571   0.706   1.284   2.179 -0.1447  0.3827  0.3969
  191SOL    HW1  572   0.606   1.279   2.151 -0.6318  0.2574  2.7456
  191SOL    HW2  573   0.716   1.283   2.282 -0.3236 -1.3494  1.4162
  192SOL     OW  574   1.990   1.345   1.951 -0.3550 -0.0219  0.5410
  192SOL    HW1  575   1.987   1.388   2.041 -0.5232  0.1622  0.7843
  192SOL    HW2  576   2.080   1.365   1.906  0.7821  0.5951 -0.0013
  193SOL     OW  577   0.696   0.120   0.918  0.2591 -0.4506 -0.1988
  193SOL    HW1  578   0.651   0.167   0.845  0.6403  0.9309  1.6041
  193SOL    HW2  579   0.743   0.038   0.879 -0.1582  0.5407  0.4240
  194SOL     OW  580   1.586   1.480   1.195  0.1530 -0.4358  0.0763
  194SOL    HW1  581   1.663   1.519   1.250  0.7816  0.1158  0.2126
  194SOL    HW2  582   1.532   1.543   1.139 -1.5220 -1.7068  1.4628
  195SOL     OW  583   1.992   0.425   0.886 -0.1523 -0.5669  0.5507
  195SOL    HW1  584   2.014   0.331   0.911 -0.0571  2.2413  1.8657
  195SOL    HW2  585   1.925   0.434   0.814 -2.6191 -0.0800  0.9468
  196SOL     OW  586   1.292   1.590   1.719  0.2785  0.2375  0.7621
  196SOL    HW1  587   1.343   1.581   1.809  1.2602 -2.2511  0.6757
  196SOL    HW2  588   1.186   1.587   1.735 -3.8575  3.2604  1.6786
  197SOL     OW  589   0.267   3.091   2.576  0.1828  0.0630 -0.4098
  197SOL    HW1  590   0.237   3.015   2.640  0.3944 -0.2760  1.9602
  197SOL    HW2  591   0.358   3.064   2.539 -0.4384  0.4665  1.7321
  198SOL     OW  592   0.168   0.822   0.734 -0.1938  0.0158 -0.2138
  198SOL    HW1  593   0.181   0.737   0.792  0.1997 -1.3666 -0.5441
  198SOL    HW2  594   0.078   0.820   0.684 -0.3669  0.7985  0.1198
  199SOL     OW  595   0.355   1.982   1.102  0.1227 -0.0200  0.4850
  199SOL    HW1  596   0.352   2.068   1.045 -0.8722  0.7907 -0.4254
  199SOL    HW2  597   0.340   2.007   1.200 -0.8957  0.3601  1.0273
  200SOL     OW  598   2.488   1.735   3.033  0.3891  0.4351 -0.4072
  200SOL    HW1  599   2.573   1.727   3.089  0.8001 -0.6202  1.2559
  200SOL    HW2  600   2.490   1.663   2.959  0.4502  0.2867  0.1294
  201SOL     OW  601   1.077   2.619   1.320  0.3096  0.8243  0.3543
  201SOL    HW1  602   1.051   2.566   1.235  0.5285  0.4860  1.3374
  201SOL    HW2  603   1.047   2.571   1.406  1.4724 -0.6738  0.8332
  202SOL     OW  604   1.022   2.607   0.189 -0.2538  0.2908  0.5865
  202SOL    HW1  605   0.980   2.514   0.185  0.1868 -0.6271  0.8847
  202SOL    HW2  606   0.956   2.677   0.215  0.0463  2.7322 -2.0735
  203SOL     OW  607   1.474   3.084   2.913 -0.1208 -0.0109 -0.1852
  203SOL    HW1  608   1.525   0.036   2.871 -4.8761  0.3053 -1.1336
  203SOL    HW2  609   1.371   3.082   2.894 -0.6453  0.9491 -1.7352
  204SOL     OW  610   0.417   1.645   1.435  0.2063  0.1656  0.5394
  204SOL    HW1  611   0.346   1.572   1.412 -0.3187  0.9307 -1.2358
  204SOL    HW2  612   0.512   1.608   1.442 -0.6051 -0.2544  0.5873
  205SOL     OW  613   1.814   1.240   2.350 -0.0152  0.0142 -0.6183
  205SOL    HW1  614   1.861   1.157   2.382 -0.5451  1.1069 -0.1550
  205SOL    HW2  615   1.744   1.224   2.273  0.2571 -1.3308 -2.4792
  206SOL     OW  616   0.202   2.142   3.056  0.6467 -0.0229 -0.4051
  206SOL    HW1  617   0.206   2.101   2.964 -1.2256  0.4828  0.1393
  206SOL    HW2  618   0.110   2.126   3.100 -3.2174 -0.0274  2.1108
  207SOL     OW  619   0.368   2.075   2.114  0.2400 -0.3418 -0.5596
  207SOL    HW1  620   0.464   2.045   2.093 -0.0287  1.5110  1.2007
  207SOL    HW2  621   0.301   2.010   2.073  1.2721  0.9706  0.0478
  208SOL     OW  622   0.231   2.463   1.080  0.3342  0.2074 -1.0052
  208SOL    HW1  623   0.293   2.539   1.117 -1.7519  0.8173 -0.3661
  208SOL    HW2  624   0.154   2.501   1.028  0.5998  1.5422 -1.3008
  209SOL     OW  625   1.148   2.679   2.141  0.2266  0.0820 -0.1669
  209SOL    HW1  626   1.069   2.742   2.134  0.9876 -1.7970  1.0381
  209SOL    HW2  627   1.146   2.632   2.228  0.4638  4.4983  1.4498
  210SOL     OW  628   2.700   1.237   1.743 -0.2992 -0.3138 -0.8263
  210SOL    HW1  629   2.785   1.184   1.751 -0.4313 -1.7988 -0.6562
  210SOL    HW2  630   2.625   1.189   1.789  2.2002  0.6537 -1.6203
  211SOL     OW  631   0.962   2.863   2.076 -0.0770 -0.4519 -0.3808
  211SOL    HW1  632   0.915   2.830   1.989 -1.5982 -1.9536 -0.4008
  211SOL    HW2  633   0.898   2.852   2.157 -1.6370  1.3104 -1.2669
  212SOL     OW  634   2.021   2.757   2.067 -0.0053  0.5393 -0.0832
  212SOL    HW1  635   1.932   2.809   2.069  0.8413  1.2313 -2.7866
  212SOL    HW2  636   2.056   2.740   2.162  0.5403  0.0889 -2.7141
  213SOL     OW  637   2.790   0.132   1.863 -0.3452  0.4468 -0.3566
  213SOL    HW1  638   2.823   0.198   1.790 -1.0151 -0.0922  0.6329
  213SOL    HW2  639   2.859   0.123   1.936 -3.0124  1.6691  0.4273
  214SOL     OW  640   0.956   2.310   0.885 -0.4944 -0.0150  0.0676
  214SOL    HW1  641   1.039   2.254   0.919  5.9854 -1.3024  1.8061
  214SOL    HW2  642   0.988   2.394   0.835  0.5653  3.1406  1.2883
  215SOL     OW  643   2.550   1.907   0.583  0.1785  0.1316 -0.2556
  215SOL    HW1  644   2.649   1.882   0.568  0.0917 -1.4697 -1.6879
  215SOL    HW2  645   2.511   1.933   0.493 -2.1233  1.1061 -0.1628
  216SOL     OW  646   2.894   0.877   1.865  0.4832 -0.1331 -0.0806
  216SOL    HW1  647   2.904   0.956   1.800 -0.4941  3.0068 -4.8718
  216SOL    HW2  648   2.958   0.797   1.860  1.3296 -0.3211  1.6903
  217SOL     OW  649   2.494   0.090   1.521 -0.2728 -0.3842  0.5688
  217SOL    HW1  650   2.397   0.109   1.502  2.1768 -0.0843  1.6575
  217SOL    HW2  651   2.552   0.149   1.465  0.2532 -0.0016  0.0452
  218SOL     OW  652   1.926   2.689   1.496 -0.5233 -0.5080  0.0123
  218SOL    HW1  653   1.833   2.719   1.468 -0.8710  1.4174 -3.0082
  218SOL    HW2  654   1.932   2.679   1.595 -0.4958  0.3144 -0.1761
  219SOL     OW  655   2.348   2.532   0.233  0.1653  0.4282 -0.1399
  219SOL    HW1  656   2.315   2.552   0.137 -1.4191 -0.3361 -0.9598
  219SOL    HW2  657   2.399   2.608   0.274 -2.1971 -1.7235  0.9314
  220SOL     OW  658   1.457   3.105   0.264 -0.6370 -0.0155 -0.5212
  220SOL    HW1  659   1.482   0.071   0.238 -0.8842 -2.0672  4.2082
  220SOL    HW2  660   1.432   3.046   0.185 -2.4879  0.6227 -1.4610
  221SOL     OW  661   3.070   1.992   1.518  0.4806  0.7450 -1.2412
  221SOL    HW1  662   0.001   2.073   1.528 -1.8613  0.4676 -2.0453
  221SOL    HW2  663   2.976   2.013   1.559 -1.1831 -1.2227  0.0852
  222SOL     OW  664   1.796   2.625   1.012  0.7635  0.4767  0.2237
  222SOL    HW1  665   1.733   2.689   1.068 -3.4459  1.3658  0.3543
  222SOL    HW2  666   1.793   2.528   1.043 -1.4380 -0.0291 -1.0824
  223SOL     OW  667   1.376   0.170   1.457 -0.1122  1.0372  0.3721
  223SOL    HW1  668   1.297   0.194   1.515  2.7250 -0.3532 -0.1067
  223SOL    HW2  669   1.447   0.109   1.500  1.5324  0.2878  1.1460
  224SOL     OW  670   3.115   2.485   1.457 -0.0478 -0.3575 -0.3684
  224SOL    HW1  671   3.102   2.519   1.360  0.2643  1.2922 -1.9512
  224SOL    HW2  672   3.025   2.474   1.501  1.3329 -0.2806  0.0253
  225SOL     OW  673   2.359   1.931   1.023  0.1291 -0.2181  0.0742
  225SOL    HW1  674   2.353   1.997   1.099 -3.1575 -2.5369  0.0426
  225SOL    HW2  675   2.402   1.976   0.943 -0.4740 -0.4511  3.0192
  226SOL     OW  676   1.403   2.209   0.228  0.2346 -0.3845 -0.0451
  226SOL    HW1  677   1.387   2.117   0.265 -0.9739  2.0770 -0.5498
  226SOL    HW2  678   1.376   2.283   0.295  3.3411  0.2548  2.6748
  227SOL     OW  679   2.056   1.064   0.750 -0.6078 -0.1720 -0.4021
  227SOL    HW1  680   2.003   1.115   0.823 -0.6666  2.2037 -0.6220
  227SOL    HW2  681   2.042   0.965   0.756 -1.5597  0.0003 -1.5508
  228SOL     OW  682   1.501   0.739   0.383  0.8510  0.1690 -0.3796
  228SOL    HW1  683   1.519   0.639   0.378  1.8094 -0.6165  0.3142
  228SOL    HW2  684   1.570   0.792   0.437  2.1509  1.8861  0.3327
  229SOL     OW  685   2.716   0.951   2.175 -0.2386 -0.1119 -0.9485
  229SOL    HW1  686   2.720   0.908   2.081 -1.3429  0.2679 -1.1339
  229SOL    HW2  687   2.701   1.051   2.167  1.6294 -0.3745  0.6532
  230SOL     OW  688   0.536   1.219   1.023  0.3064 -0.3255 -0.7641
  230SOL    HW1  689   0.618   1.249   1.078 -0.9534  0.1569 -0.9895
  230SOL    HW2  690   0.547   1.247   0.928  0.7027 -1.2878  0.0274
  231SOL     OW  691   2.337   0.541   2.838 -0.2281 -0.0435  0.1368
  231SOL    HW1  692   2.273   0.532   2.917  0.5583 -1.2249 -1.5147
  231SOL    HW2  693   2.431   0.531   2.865 -2.2570  3.2359 -1.5472
  232SOL     OW  694   2.981   1.785   1.085 -0.5584  0.0508  0.1362
  232SOL    HW1  695   3.001   1.685   1.097 -0.3512  0.1636 -2.5965
  232SOL    HW2  696   3.036   1.841   1.148  0.3499 -2.9117  1.0579
  233SOL     OW  697   1.754   3.038   2.740 -0.0077  0.0602  0.1798
  233SOL    HW1  698   1.855   3.043   2.756  1.1762 -0.7310 -1.1202
  233SOL    HW2  699   1.717   2.975   2.808 -0.5291 -0.0330  0.3250
  234SOL     OW  700   1.473   2.625   1.216  0.0387 -0.0136 -0.3380
  234SOL    HW1  701   1.555   2.670   1.254 -1.4964  2.0635 -4.6216
  234SOL    HW2  702   1.475   2.520   1.225 -0.0145 -0.9178  1.5931
  235SOL     OW  703   0.830   1.774   1.671 -0.4600 -0.0003 -0.5218
  235SOL    HW1  704   0.745   1.741   1.709  1.6893  1.6955  0.1227
  235SOL    HW2  705   0.893   1.697   1.648 -0.9331  2.5701  0.3111
  236SOL     OW  706   0.685   2.631   2.807  0.2345  0.1080  0.0437
  236SOL    HW1  707   0.755   2.594   2.868 -2.7499  2.2471 -0.9173
  236SOL    HW2  708   0.588   2.601   2.820 -0.0013 -0.1155 -1.3349
  237SOL     OW  709   0.630   3.056   1.644  0.3059 -0.0583 -0.0581
  237SOL    HW1  710   0.613   3.017   1.734 -0.0120  0.6462 -1.9254
  237SOL    HW2  711   0.635   0.035   1.646 -2.0904  4.1717  0.5726
  238SOL     OW  712   0.993   0.792   0.428 -0.1680  0.5169 -0.3328
  238SOL    HW1  713   1.082   0.749   0.409  2.8995 -1.0801  1.3453
  238SOL    HW2  714   0.980   0.793   0.529  0.8783 -1.3356 -1.1440
  239SOL     OW  715   2.596   0.761   2.998 -0.2263 -0.0966 -0.5250
  239SOL    HW1  716   2.526   0.827   2.964  1.6530  0.3144  1.4119
  239SOL    HW2  717   2.685   0.812   3.011  1.6705  2.3926 -0.5761
  240SOL     OW  718   2.855   2.092   0.836  0.5613 -0.8030  0.1665
  240SOL    HW1  719   2.799   2.013   0.873  2.0466 -0.7601 -0.4189
  240SOL    HW2  720   2.848   2.093   0.733 -0.0078 -0.9271 -1.1185
  241SOL     OW  721   1.217   1.682   0.854 -0.4904 -0.1051  0.3709
  241SOL    HW1  722   1.282   1.661   0.779 -1.0136  1.3696 -2.4158
  241SOL    HW2  723   1.122   1.693   0.820  1.3385  0.0891 -0.0497
  242SOL     OW  724   0.710   0.378   1.010  0.0242 -0.5185  0.2783
  242SOL    HW1  725   0.665   0.473   1.004 -2.4482  2.2848  1.4508
  242SOL    HW2  726   0.735   0.336   0.921 -0.0044 -0.4911  2.8714
  243SOL     OW  727   0.183   0.551   1.384  0.7383 -0.0478 -0.2081
  243SOL    HW1  728   0.109   0.518   1.321  2.6885  1.9481 -0.1344
  243SOL    HW2  729   0.276   0.507   1.373  1.5601  2.3739 -0.1715
  244SOL     OW  730   0.730   0.032   0.494 -0.0353  0.3548 -0.1598
  244SOL    HW1  731   0.630   0.033   0.517 -1.4984  0.9735 -2.0679
  244SOL    HW2  732   0.793   0.001   0.572  1.8752  0.8527 -0.5296
  245SOL     OW  733   2.119   0.956   0.316 -0.4517  0.3642  0.3181
  245SOL    HW1  734   2.144   0.912   0.404  0.7104 -0.7088  0.7109
  245SOL    HW2  735   2.137   1.055   0.325  1.1558  1.2084 -2.1713
  246SOL     OW  736   0.201   0.077   1.905 -0.4447 -0.5605  0.1916
  246SOL    HW1  737   0.208   3.103   1.879  0.0173 -0.6243  1.0967
  246SOL    HW2  738   0.111   0.113   1.883  0.0931  1.9798  0.2878
  247SOL     OW  739   0.884   0.232   1.906  0.2598  0.1592 -0.0773
  247SOL    HW1  740   0.839   0.322   1.889 -0.2645  2.4534  0.8592
  247SOL    HW2  741   0.882   0.176   1.824 -0.1404 -1.4476  1.1763
  248SOL     OW  742   0.449   1.692   2.161 -0.5237  0.1435 -0.1388
  248SOL    HW1  743   0.414   1.707   2.256 -1.4778  0.3496 -0.8496
  248SOL    HW2  744   0.411   1.761   2.096 -1.7565 -1.8062  2.2775
  249SOL     OW  745   1.000   2.311   0.272  0.2370 -0.2583 -0.0644
  249SOL    HW1  746   1.079   2.338   0.330  1.0848  0.8749  0.0628
  249SOL    HW2  747   0.913   2.320   0.322  1.2968  1.0489 -1.0276
  250SOL     OW  748   0.619   3.089   2.168 -0.1114 -0.3130  0.4816
  250SOL    HW1  749   0.525   3.094   2.210 -0.8625  1.8162  1.8090
  250SOL    HW2  750   0.655   0.055   2.148  3.3195 -2.1253  1.2383
  251SOL     OW  751   2.805   1.983   1.566 -0.1182 -0.3026  0.0360
  251SOL    HW1  752   2.770   1.961   1.660 -0.4651 -1.6430 -2.6918
  251SOL    HW2  753   2.771   2.079   1.541 -0.6834  0.2037 -1.7355
  252SOL     OW  754   1.342   0.289   1.999 -0.0255  0.5073 -0.1906
  252SOL    HW1  755   1.298   0.281   2.091  0.8051 -0.8640 -2.5994
  252SOL    HW2  756   1.280   0.266   1.920  0.0245  1.0154  1.1649
  253SOL     OW  757   2.408   1.813   2.419  0.0778  0.3071  0.1669
  253SOL    HW1  758   2.471   1.869   2.357  2.0774  2.6819  1.6317
  253SOL    HW2  759   2.320   1.856   2.433  1.0001 -0.5106  0.7209
  254SOL     OW  760   0.806   1.497   0.902  0.0901 -0.3377  0.2938
  254SOL    HW1  761   0.848   1.455   0.985  0.1271  0.8876  1.4109
  254SOL    HW2  762   0.863   1.553   0.838 -2.3636  1.6707 -2.9933
  255SOL     OW  763   3.081   2.609   1.884  0.0941 -0.2946 -0.4292
  255SOL    HW1  764   3.036   2.616   1.790 -0.3446  1.5498 -1.5631
  255SOL    HW2  765   0.047   2.573   1.872 -2.2028  0.8441  0.2753
  256SOL     OW  766   0.504   2.873   0.480 -0.5617  0.4238 -0.0441
  256SOL    HW1  767   0.598   2.857   0.442  1.1514  1.1843  0.9518
  256SOL    HW2  768   0.436   2.832   0.420  1.4864 -0.1002  2.7424
  257SOL     OW  769   1.130   2.493   2.414  0.1096 -0.1718 -0.5201
  257SOL    HW1  770   1.123   2.563   2.490 -1.6375 -0.7843  2.0164
  257SOL    HW2  771   1.230   2.477   2.387  1.5184  3.9987  2.4251
  258SOL     OW  772   1.585   2.256   2.031 -0.4824  0.5346  0.2811
  258SOL    HW1  773   1.495   2.265   1.992 -2.0201 -0.9321  0.9765
  258SOL    HW2  774   1.661   2.256   1.958  3.4962 -2.8507 -0.2637
  259SOL     OW  775   0.671   0.670   2.252 -0.0545 -0.4438 -0.0319
  259SOL    HW1  776   0.595   0.603   2.241 -0.6680 -0.4069  1.1057
  259SOL    HW2  777   0.645   0.770   2.246 -1.3646  0.1663  0.5460
  260SOL     OW  778   2.821   0.904   3.001 -0.1253  0.2660  0.0220
  260SOL    HW1  779   2.908   0.949   3.036 -1.2256 -0.4164  1.4346
  260SOL    HW2  780   2.826   0.879   2.906 -2.0190  0.1952  3.2891
  261SOL     OW  781   0.968   1.218   0.827  0.3832  0.0563  0.2915
  261SOL    HW1  782   1.045   1.268   0.875 -0.8872  0.9187  0.2482
  261SOL    HW2  783   0.925   1.281   0.761  1.8977 -0.3959  1.5395
  262SOL     OW  784   2.049   2.233   2.494  0.4255 -0.2149  0.0234
  262SOL    HW1  785   1.970   2.285   2.446 -2.4264  1.6700 -1.9042
  262SOL    HW2  786   2.114   2.289   2.547  1.5270  2.6629 -0.7924
  263SOL     OW  787   0.838   2.722   1.042  0.0752 -0.2716  0.0751
  263SOL    HW1  788   0.901   2.643   1.058  1.1701 -0.9064  1.0527
  263SOL    HW2  789   0.855   2.784   1.118 -0.2590 -2.0355 -4.3624
  264SOL     OW  790   2.814   1.841   0.558  0.2359  0.5453  0.1817
  264SOL    HW1  791   2.893   1.826   0.621  0.6337 -1.3149  2.7561
  264SOL    HW2  792   2.833   1.924   0.501 -2.6351 -2.0487  4.2948
  265SOL     OW  793   1.924   1.224   2.628 -0.0377  0.0026  0.5086
  265SOL    HW1  794   1.994   1.177   2.566  0.4631 -1.3516 -0.0179
  265SOL    HW2  795   1.950   1.320   2.649 -0.8493  3.0558  0.9577
  266SOL     OW  796   1.499   1.758   2.073  0.0397 -0.8808  0.5783
  266SOL    HW1  797   1.584   1.700   2.092 -1.4459 -0.0743  1.0419
  266SOL    HW2  798   1.475   1.813   2.160 -1.3341  3.2611 -0.0281
  267SOL     OW  799   2.457   0.710   2.397  0.3612  0.1583  0.0897
  267SOL    HW1  800   2.501   0.785   2.450  0.9514 -1.5912  0.2011
  267SOL    HW2  801   2.388   0.659   2.451  1.2445 -2.4104 -0.7665
  268SOL     OW  802   0.933   1.142   3.007  0.3537  0.2488  0.0434
  268SOL    HW1  803   0.896   1.231   2.974  2.5715  1.8968 -1.6027
  268SOL    HW2  804   0.920   1.077   2.932  1.6217  0.0192  0.8124
  269SOL     OW  805   3.107   2.011   2.066  0.1573 -0.6942 -0.1696
  269SOL    HW1  806   3.092   2.010   2.165  1.4082  1.8427  2.3298
  269SOL    HW2  807   3.047   1.948   2.013 -0.3393  0.2110 -1.1013
  270SOL     OW  808   0.056   1.745   0.101  0.3106 -0.5300 -0.2817
  270SOL    HW1  809   0.082   1.814   0.170 -1.2945 -3.1011  0.5418
  270SOL    HW2  810   0.025   1.661   0.149 -0.7580 -0.2375  1.1788
  271SOL     OW  811   0.434   0.240   0.377  0.2274  0.6814  0.5242
  271SOL    HW1  812   0.469   0.159   0.433  1.7301 -0.4397 -0.6230
  271SOL    HW2  813   0.487   0.323   0.405  1.7819  1.2785 -0.0920
  272SOL     OW  814   0.022   2.884   0.452  0.4538  0.2012  0.8706
  272SOL    HW1  815   3.097   2.954   0.506 -0.2021 -2.2515 -0.1204
  272SOL    HW2  816   3.085   2.811   0.409 -4.4146 -0.0642 -0.8084
  273SOL     OW  817   0.016   2.980   2.077  0.0367 -0.0147 -0.6173
  273SOL    HW1  818   0.111   2.975   2.110 -0.2707 -0.7328  0.2059
  273SOL    HW2  819   3.104   2.894   2.048 -1.8519 -0.1419  0.3169
  274SOL     OW  820   0.394   0.402   1.599  0.1735 -0.0388  0.1425
  274SOL    HW1  821   0.301   0.367   1.612  1.6565  1.1758  0.6783
  274SOL    HW2  822   0.411   0.491   1.647  2.7494 -1.3665 -0.2187
  275SOL     OW  823   1.125   1.924   1.040  0.2801  0.2113  0.1586
  275SOL    HW1  824   1.028   1.887   1.032 -0.6061 -0.8275  1.4064
  275SOL    HW2  825   1.190   1.858   0.999 -1.1346 -0.0104  1.0220
  276SOL     OW  826   0.289   1.524   1.937 -0.2460  0.6595  0.4557
  276SOL    HW1  827   0.361   1.570   1.989  1.3988 -0.3823 -0.0078
  276SOL    HW2  828   0.252   1.442   1.986 -0.2877 -1.2669 -1.6119
  277SOL     OW  829   1.328   2.300   1.960 -0.2115  0.1244  0.0309
  277SOL    HW1  830   1.302   2.397   1.980 -0.6256  2.1753  1.3921
  277SOL    HW2  831   1.253   2.243   1.995  1.4961  0.5705 -0.8125
  278SOL     OW  832   1.983   0.023   2.354 -0.2690 -0.2558  0.3814
  278SOL    HW1  833   1.903   3.112   2.305  1.1763  0.3237  0.5105
  278SOL    HW2  834   1.993   0.124   2.347  2.0357  2.3297  0.8284
  279SOL     OW  835   1.491   1.556   3.074 -0.0157 -0.1852  0.0124
  279SOL    HW1  836   1.539   1.515   0.027  0.2667 -0.2556  0.9125
  279SOL    HW2  837   1.565   1.576   3.004  0.2953 -2.3238 -1.9352
  280SOL     OW  838   1.276   0.568   0.726 -0.0871 -0.2940  0.2484
  280SOL    HW1  839   1.283   0.662   0.767 -2.7579  1.5276 -0.2735
  280SOL    HW2  840   1.199   0.512   0.767  0.0405  0.9554  0.9519
  281SOL     OW  841   0.019   0.556   2.270  0.1457  0.4163 -0.5486
  281SOL    HW1  842   0.038   0.543   2.166 -1.1521  0.8576 -1.3871
  281SOL    HW2  843   0.104   0.524   2.324  0.1573 -0.4286 -0.8882
  282SOL     OW  844   0.223   2.881   0.629 -0.2419 -0.3705 -0.1934
  282SOL    HW1  845   0.155   2.852   0.558  1.3555  0.1799  0.8405
  282SOL    HW2  846   0.324   2.870   0.604  1.4968  0.2236  2.2561
  283SOL     OW  847   1.230   2.463   1.548 -0.3062 -0.3323 -0.1606
  283SOL    HW1  848   1.257   2.499   1.454  1.5499  0.0566 -0.0182
  283SOL    HW2  849   1.274   2.373   1.560 -3.7181  3.4795 -1.0002
  284SOL     OW  850   2.130   2.829   1.378 -0.4315 -0.2699 -1.2831
  284SOL    HW1  851   2.205   2.820   1.447 -3.0925  1.7090  0.1535
  284SOL    HW2  852   2.054   2.768   1.407 -0.3948 -0.9188 -0.0597
  285SOL     OW  853   0.856   1.861   1.055 -0.0022 -0.0078 -0.1156
  285SOL    HW1  854   0.811   1.900   0.971 -2.4309  2.9097  0.9305
  285SOL    HW2  855   0.811   1.774   1.084 -0.2150 -0.3495 -2.3446
  286SOL     OW  856   2.898   2.810   1.949  0.0227 -0.1896 -0.0384
  286SOL    HW1  857   2.828   2.798   1.877  0.1314 -0.1552  1.9901
  286SOL    HW2  858   2.969   2.737   1.934 -1.9410 -2.0234 -0.9632
  287SOL     OW  859   0.593   1.375   0.781 -0.5203  0.2978 -0.1023
  287SOL    HW1  860   0.668   1.427   0.827 -0.2864 -0.2027  0.3839
  287SOL    HW2  861   0.631   1.323   0.702 -0.5063 -0.2054  0.3487
  288SOL     OW  862   1.370   2.179   2.663  0.1163  0.2474 -0.3404
  288SOL    HW1  863   1.272   2.212   2.661 -1.5960 -0.3640 -0.3828
  288SOL    HW2  864   1.383   2.111   2.738 -0.0605 -2.7781  2.2956
  289SOL     OW  865   2.348   1.247   2.605  0.6163 -0.5361  0.0208
  289SOL    HW1  866   2.279   1.244   2.683 -1.0848 -1.0903 -0.8310
  289SOL    HW2  867   2.374   1.340   2.584  1.1844  1.8593 -1.8014
  290SOL     OW  868   1.858   1.751   0.764  0.1945 -0.0024 -0.3259
  290SOL    HW1  869   1.936   1.698   0.805 -0.2200 -1.7976 -0.2206
  290SOL    HW2  870   1.903   1.821   0.703  0.3926  1.8094  2.5489
  291SOL     OW  871   1.268   0.893   3.118 -0.6479  0.1311 -0.2267
  291SOL    HW1  872   1.252   0.932   3.024  2.3087  0.9368  1.3121
  291SOL    HW2  873   1.259   0.789   0.011  1.9320  1.3597  2.3287
  292SOL     OW  874   2.081   1.563   0.825  0.3438 -0.2673 -0.7069
  292SOL    HW1  875   2.013   1.528   0.757  0.6149 -2.3709 -1.1102
  292SOL    HW2  876   2.170   1.586   0.781  0.7894  3.4381  1.1776
  293SOL     OW  877   1.929   0.137   1.170  0.1623 -0.2275 -0.5254
  293SOL    HW1  878   1.902   0.113   1.266  0.7932  0.2050  2.2772
  293SOL    HW2  879   1.908   0.233   1.152  0.9428 -1.0886 -2.1748
  294SOL     OW  880   2.420   1.107   0.287 -0.4142 -0.5480 -0.1192
  294SOL    HW1  881   2.431   1.068   0.188  0.5088 -1.0680 -1.0393
  294SOL    HW2  882   2.489   1.178   0.312 -1.7078  1.2347 -0.7478
  295SOL     OW  883   2.273   1.743   2.689  0.2487  0.0107 -0.3503
  295SOL    HW1  884   2.239   1.838   2.697 -0.5786  0.7576 -2.3615
  295SOL    HW2  885   2.294   1.703   2.778 -1.7030  2.7997 -3.0325
  296SOL     OW  886   1.511   1.896   1.146  0.2085  0.2977 -0.2010
  296SOL    HW1  887   1.476   1.801   1.118  1.9300  0.2472  0.0772
  296SOL    HW2  888   1.443   1.929   1.216  0.5316  0.1851 -0.5122
  297SOL     OW  889   0.429   0.728   2.677 -0.5673  0.0934 -0.0342
  297SOL    HW1  890   0.339   0.685   2.679  2.1149  4.7448 -0.1102
  297SOL    HW2  891   0.428   0.824   2.711  0.4536  1.0193  0.0826
  298SOL     OW  892   1.571   2.885   1.616 -0.1620  0.0327  0.1732
  298SOL    HW1  893   1.640   2.876   1.691  1.2215 -1.1109  0.8710
  298SOL    HW2  894   1.475   2.888   1.652 -1.0591 -1.0960  1.7317
  299SOL     OW  895   1.042   0.382   2.642 -1.0595  0.2686  0.3663
  299SOL    HW1  896   0.966   0.436   2.688 -1.6764 -0.4601  1.3305
  299SOL    HW2  897   1.041   0.286   2.682  1.0269 -0.7318 -2.7411
  300SOL     OW  898   1.973   1.401   3.105 -0.0320  0.7201 -0.1659
  300SOL    HW1  899   1.961   1.356   0.071  0.2801 -2.5535 -1.8279
  300SOL    HW2  900   1.998   1.330   3.039 -2.8424 -0.2680 -2.9162
  301SOL     OW  901   2.272   0.539   2.561  0.1271 -0.2371 -0.2252
  301SOL    HW1  902   2.303   0.455   2.515 -3.8611 -3.0411 -0.2460
  301SOL    HW2  903   2.299   0.537   2.658  0.3666  0.9787 -0.2538
  302SOL     OW  904   2.602   1.743   2.609  0.4259 -0.2633  0.0522
  302SOL    HW1  905   2.679   1.739   2.537  1.5540  0.5025 -2.6234
  302SOL    HW2  906   2.514   1.770   2.567  0.5446 -0.7472 -0.8677
  303SOL     OW  907   0.168   2.627   2.274 -0.4536 -0.1738 -0.5222
  303SOL    HW1  908   0.149   2.550   2.213  3.4283  2.3989  2.9981
  303SOL    HW2  909   0.123   2.622   2.363  2.1494 -0.4643 -2.7406
  304SOL     OW  910   0.091   1.240   1.114 -0.3619  0.4580 -0.3130
  304SOL    HW1  911   0.100   1.343   1.112 -0.2168  0.4986  0.8161
  304SOL    HW2  912   0.077   1.193   1.025  1.9346 -1.1731  2.9208
  305SOL     OW  913   3.059   0.279   2.176  0.1406 -0.2388 -0.6419
  305SOL    HW1  914   3.010   0.372   2.193  1.5020  6.1431 -1.1445
  305SOL    HW2  915   3.050   0.210   2.252 -1.8394  1.4246 -1.3440
  306SOL     OW  916   1.392   1.597   0.653  0.6900  0.4270  0.0043
  306SOL    HW1  917   1.494   1.590   0.642  0.0498  0.8223 -1.8182
  306SOL    HW2  918   1.357   1.596   0.557  1.4833 -0.6285  0.5435
  307SOL     OW  919   3.077   2.873   1.215  0.5159 -0.6949  0.0905
  307SOL    HW1  920   0.027   2.916   1.267 -1.7456  0.1811  0.0815
  307SOL    HW2  921   2.984   2.903   1.256 -3.0624 -1.0837  1.3089
  308SOL     OW  922   2.842   1.976   2.738 -0.4822 -0.3310  0.0958
  308SOL    HW1  923   2.824   1.877   2.757 -1.7223 -2.5771 -0.7740
  308SOL    HW2  924   2.781   2.010   2.667  1.8482 -0.3763 -0.2654
  309SOL     OW  925   0.190   2.028   2.810 -0.3126 -0.3142  0.0742
  309SOL    HW1  926   0.246   1.944   2.787  4.1328 -0.0857 -2.1971
  309SOL    HW2  927   0.138   2.068   2.730  0.3309  2.0925 -1.5208
  310SOL     OW  928   2.328   0.416   0.099 -0.4591  0.3117  0.2881
  310SOL    HW1  929   2.416   0.450   0.063 -1.7539  0.3599  0.4612
  310SOL    HW2  930   2.340   0.339   0.164  1.1956 -1.3375  1.3618
  311SOL     OW  931   1.980   1.189   2.914 -0.0245 -0.6161 -0.0266
  311SOL    HW1  932   1.971   1.186   2.813 -2.5656 -2.7813 -1.2410
  311SOL    HW2  933   1.973   1.093   2.944  2.4675  1.3218 -1.4921
  312SOL     OW  934   1.104   1.229   2.076  0.3000  0.2938  0.0504
  312SOL    HW1  935   1.036   1.242   2.002 -0.9222 -0.9273 -1.4394
  312SOL    HW2  936   1.083   1.145   2.129 -0.1881  2.8707 -0.5160
  313SOL     OW  937   0.426   0.207   0.102  0.9495 -0.0894 -0.0700
  313SOL    HW1  938   0.363   0.278   0.060 -0.1211  0.9743  1.3903
  313SOL    HW2  939   0.448   0.238   0.196  0.0059 -1.9521 -0.7686
  314SOL     OW  940   0.442   1.881   1.511 -0.2231 -0.1300  0.0626
  314SOL    HW1  941   0.422   1.787   1.477  0.4092 -0.2135  0.4012
  314SOL    HW2  942   0.541   1.903   1.488 -0.4069  0.4794 -1.9454
  315SOL     OW  943   1.362   1.959   1.389 -0.2978 -0.4769  0.5153
  315SOL    HW1  944   1.389   1.864   1.415 -0.5233  0.1537  0.4644
  315SOL    HW2  945   1.261   1.964   1.377 -1.1378  1.4003  0.1878
  316SOL     OW  946   0.520   2.322   0.583  0.2236  0.0153 -0.1580
  316SOL    HW1  947   0.469   2.390   0.637 -2.3686 -0.1940 -1.5530
  316SOL    HW2  948   0.597   2.360   0.529  1.5577  0.6946  2.3307
  317SOL     OW  949   2.773   0.172   1.042  0.3231 -0.8965  0.4711
  317SOL    HW1  950   2.791   0.154   1.138 -0.4829 -0.7069 -0.0979
  317SOL    HW2  951   2.736   0.087   0.996 -0.6313 -2.0454 -1.4900
  318SOL     OW  952   1.232   2.618   0.339  0.0402  0.1645 -0.0768
  318SOL    HW1  953   1.225   2.670   0.424 -0.1212 -1.4773  0.0573
  318SOL    HW2  954   1.146   2.621   0.279 -2.0637 -1.7255 -0.7448
  319SOL     OW  955   1.084   0.165   2.797  0.2121  0.1092  0.0595
  319SOL    HW1  956   1.178   0.126   2.787 -1.0305  1.1551  0.5429
  319SOL    HW2  957   1.092   0.229   2.877  0.3866  2.8059  0.6528
  320SOL     OW  958   2.398   1.863   1.759 -0.0806  0.0702  0.5587
  320SOL    HW1  959   2.301   1.831   1.754  0.1085 -1.4043  0.9208
  320SOL    HW2  960   2.459   1.785   1.733  0.3719 -1.1746  0.5928
  321SOL     OW  961   0.216   2.643   2.947  0.0761  0.2359 -0.0276
  321SOL    HW1  962   0.118   2.671   2.953 -4.3905 -0.0324  0.7632
  321SOL    HW2  963   0.252   2.573   3.007 -0.8323 -1.0440 -1.2316
  322SOL     OW  964   2.472   0.759   1.302  0.1853  0.0493  0.4716
  322SOL    HW1  965   2.394   0.825   1.288 -3.6979  0.1259  0.0176
  322SOL    HW2  966   2.554   0.812   1.332 -1.3102  1.7301 -0.5687
  323SOL     OW  967   1.925   1.517   0.338  0.1522  0.2361  0.8013
  323SOL    HW1  968   1.828   1.555   0.334  0.0558 -0.9034 -2.1387
  323SOL    HW2  969   1.928   1.428   0.277 -0.2847 -1.7881 -1.0837
  324SOL     OW  970   0.110   0.255   1.577  0.2521  0.2713 -0.2812
  324SOL    HW1  971   0.090   0.354   1.603  1.8848  0.7881 -0.2673
  324SOL    HW2  972   0.054   0.190   1.625  4.7517 -1.3042  1.0359
  325SOL     OW  973   2.790   2.830   1.031 -0.4299  0.0676 -0.1060
  325SOL    HW1  974   2.740   2.751   1.066  1.4554 -3.3562  1.1885
  325SOL    HW2  975   2.822   2.882   1.112 -1.2868 -0.8411 -0.5915
  326SOL     OW  976   1.698   2.945   0.362 -0.0082 -0.1014  0.0334
  326SOL    HW1  977   1.624   2.997   0.320  4.3174 -4.0938  0.3007
  326SOL    HW2  978   1.674   2.900   0.454 -1.6942  0.7882  2.5413
  327SOL     OW  979   2.295   2.253   0.264 -0.3939 -0.4655 -0.7218
  327SOL    HW1  980   2.202   2.218   0.290  3.2001  1.1667  2.7398
  327SOL    HW2  981   2.295   2.356   0.270 -0.9813  0.3265 -2.4398
  328SOL     OW  982   2.652   2.311   1.885  0.3635 -0.2826  0.1555
  328SOL    HW1  983   2.735   2.289   1.829  2.7355 -1.0079  0.3098
  328SOL    HW2  984   2.661   2.253   1.972  1.3408  1.7615  0.9467
  329SOL     OW  985   0.148   2.168   0.803 -0.3751  0.0170 -0.6689
  329SOL    HW1  986   0.085   2.145   0.880 -0.1533 -0.0782 -0.5414
  329SOL    HW2  987   0.241   2.135   0.829  0.6336 -1.7065 -0.6393
  330SOL     OW  988   2.303   1.148   1.976  0.4016  0.4989 -0.1476
  330SOL    HW1  989   2.297   1.234   1.922 -1.2572 -0.2108  1.0473
  330SOL    HW2  990   2.210   1.112   1.987 -3.3086  0.0591 -0.1899
  331SOL     OW  991   2.294   1.572   0.681 -0.3115  0.2700 -0.2191
  331SOL    HW1  992   2.387   1.608   0.701  0.7950  2.3747  0.2307
  331SOL    HW2  993   2.299   1.518   0.591  0.3923  0.2457 -0.2447
  332SOL     OW  994   0.148   2.856   1.664  0.5150  0.0014  0.2335
  332SOL    HW1  995   0.065   2.801   1.686  0.4513 -1.2811  0.8393
  332SOL    HW2  996   0.149   2.898   1.575 -1.8382 -0.0135 -0.6082
  333SOL     OW  997   0.015   1.647   1.893 -0.9356  0.5144  0.0881
  333SOL    HW1  998   0.113   1.638   1.918  2.5020 -0.7875 -1.4214
  333SOL    HW2  999   0.015   1.708   1.811 -0.4469 -0.7311  0.3061
  334SOL     OW 1000   0.254   0.776   1.518 -0.4906  0.2130 -0.1260
  334SOL    HW1 1001   0.223   0.868   1.484  0.1835  1.0450 -0.7849
  334SOL    HW2 1002   0.217   0.695   1.469  0.1905  0.3249  2.2120
  335SOL     OW 1003   2.927   1.820   1.953  0.2094 -0.1242  0.3482
  335SOL    HW1 1004   3.009   1.773   1.927 -2.6471 -0.8352  3.8170
  335SOL    HW2 1005   2.881   1.758   2.023 -1.2936  0.3442 -1.5648
  336SOL     OW 1006   1.862   0.020   3.036 -0.0972  0.0986  0.0536
  336SOL    HW1 1007   1.808   3.061   3.056  0.7579 -0.9012  2.5083
  336SOL    HW2 1008   1.936   3.122   2.970 -1.0787  2.7606  0.7587
  337SOL     OW 1009   0.491   0.463   1.338  0.1584 -0.0275 -0.2020
  337SOL    HW1 1010   0.494   0.564   1.307  0.2128  0.6955 -2.8573
  337SOL    HW2 1011   0.493   0.453   1.443  0.9357  0.8155 -0.9001
  338SOL     OW 1012   1.568   2.469   0.777  0.0646 -0.3436  0.6950
  338SOL    HW1 1013   1.544   2.521   0.688  0.9404  2.5011 -0.2721
  338SOL    HW2 1014   1.672   2.450   0.784  1.7910  0.3444  2.2209
  339SOL     OW 1015   0.193   1.752   1.139 -0.4429 -0.2989  0.1762
  339SOL    HW1 1016   0.138   1.792   1.219  0.2861  2.0437  4.7059
  339SOL    HW2 1017   0.264   1.821   1.124 -2.2822 -1.0549  1.4925
  340SOL     OW 1018   0.370   0.065   2.233 -0.2202 -0.5432 -0.4939
  340SOL    HW1 1019   0.317   0.138   2.192  3.0126 -1.8917  2.7212
  340SOL    HW2 1020   0.315   3.114   2.267  2.5497 -1.0878 -2.3104
  341SOL     OW 1021   2.299   1.382   0.903 -0.3654  0.2563  0.5849
  341SOL    HW1 1022   2.218   1.432   0.880  1.9921 -0.5073 -2.2738
  341SOL    HW2 1023   2.374   1.400   0.834 -0.5255  0.5654  0.0948
  342SOL     OW 1024   1.748   2.082   0.594  0.2266 -0.3637 -0.3418
  342SOL    HW1 1025   1.654   2.055   0.618  0.2700  0.4219  2.7439
  342SOL    HW2 1026   1.749   2.149   0.520  0.4179 -2.4118  0.6703
  343SOL     OW 1027   2.027   0.159   0.899 -0.2131  0.2416  0.2254
  343SOL    HW1 1028   1.928   0.134   0.876 -1.6963 -2.1820  0.1475
  343SOL    HW2 1029   2.073   0.081   0.947 -0.2168 -1.2357 -2.7478
  344SOL     OW 1030   2.701   0.285   2.899  0.5439 -0.0470 -0.0615
  344SOL    HW1 1031   2.645   0.369   2.896  0.5195  0.9779  1.0955
  344SOL    HW2 1032   2.795   0.307   2.870  1.0233 -1.1054 -1.0358
  345SOL     OW 1033   1.521   3.067   1.104 -0.0662  0.2670  0.2361
  345SOL    HW1 1034   1.510   0.013   1.173 -0.5193 -2.8867  0.3828
  345SOL    HW2 1035   1.435   3.055   1.042 -3.1166  0.1498  0.0320
  346SOL     OW 1036   2.275   2.277   1.554 -0.2762  0.6031  0.0204
  346SOL    HW1 1037   2.175   2.278   1.540  2.0883 -0.1757  1.9164
  346SOL    HW2 1038   2.313   2.184   1.545 -0.5848  2.1137  0.4443
  347SOL     OW 1039   2.652   2.972   0.607  0.1073  0.0411 -0.2317
  347SOL    HW1 1040   2.720   2.944   0.679 -1.5456  2.9740  0.9251
  347SOL    HW2 1041   2.569   3.015   0.642  1.0299 -1.4444 -2.0007
  348SOL     OW 1042   0.768   1.242   1.189  0.5018 -0.4324 -0.0628
  348SOL    HW1 1043   0.819   1.322   1.147  1.6289  2.7087  2.7720
  348SOL    HW2 1044   0.754   1.251   1.289  0.2833 -0.2528  1.4229
  349SOL     OW 1045   2.261   0.093   0.048  0.5391  0.4820 -0.5806
  349SOL    HW1 1046   2.182   0.137   3.121 -1.0923 -2.1895  1.6085
  349SOL    HW2 1047   2.307   0.155   0.117 -2.6273  0.3527  0.9676
  350SOL     OW 1048   2.540   2.136   3.033 -0.2960 -0.1372 -0.6652
  350SOL    HW1 1049   2.491   2.053   3.004 -0.7971 -1.0196 -0.8824
  350SOL    HW2 1050   2.517   2.217   2.983  1.0018  1.4171  2.6874
  351SOL     OW 1051   1.066   0.395   0.842 -0.1145  0.1823 -0.0588
  351SOL    HW1 1052   1.097   0.336   0.918 -2.6337  1.1508 -0.8447
  351SOL    HW2 1053   0.967   0.388   0.821  2.9305  0.6118 -1.2078
  352SOL     OW 1054   2.153   2.663   2.632  0.0951 -0.1791 -0.0387
  352SOL    HW1 1055   2.228   2.702   2.692  1.9195  0.0356 -0.6702
  352SOL    HW2 1056   2.157   2.713   2.544  0.7326  0.1729  0.9817
  353SOL     OW 1057   0.637   0.527   0.113  0.5653  0.4405 -0.4398
  353SOL    HW1 1058   0.692   0.582   0.184  1.6649  2.1108  1.7956
  353SOL    HW2 1059   0.541   0.519   0.147 -1.3301  1.0268 -3.3712
  354SOL     OW 1060   1.003   1.776   2.946 -0.4427 -0.3533  0.3855
  354SOL    HW1 1061   0.997   1.873   2.922  0.8359  0.0694  2.0640
  354SOL    HW2 1062   1.101   1.760   2.969 -1.4854  0.5671  0.3373
  355SOL     OW 1063   2.769   2.738   1.720  0.0854  0.4167  0.2751
  355SOL    HW1 1064   2.694   2.672   1.738 -0.1105  3.0470 -0.1592
  355SOL    HW2 1065   2.732   2.830   1.699 -1.5552  0.1688  0.2419
  356SOL     OW 1066   3.039   0.821   0.644  0.0875 -1.2138  0.3536
  356SOL    HW1 1067   3.040   0.912   0.591 -0.7879  0.5246 -1.9665
  356SOL    HW2 1068   2.975   0.751   0.601 -2.1966 -1.2144 -1.5921
  357SOL     OW 1069   2.535   0.303   1.054 -0.1781 -0.2327  0.1809
  357SOL    HW1 1070   2.539   0.395   1.105  1.2155  3.6872 -0.4589
  357SOL    HW2 1071   2.631   0.276   1.043 -0.2120  0.0152  2.5971
  358SOL     OW 1072   1.031   2.531   1.058  0.2789  0.2065 -0.7420
  358SOL    HW1 1073   1.021   2.437   1.019 -1.3962  0.4844 -0.2706
  358SOL    HW2 1074   1.101   2.585   1.012  0.0049 -0.4729  1.5171
  359SOL     OW 1075   3.095   2.380   2.712 -0.3210 -0.1151  0.2759
  359SOL    HW1 1076   3.090   2.311   2.638  1.9279  1.7123  0.4322
  359SOL    HW2 1077   3.031   2.364   2.786  1.4414 -0.6006 -1.3724
  360SOL     OW 1078   0.528   0.911   1.855  0.3056  0.2523  0.1039
  360SOL    HW1 1079   0.616   0.941   1.899  0.8278 -1.6171  1.2589
  360SOL    HW2 1080   0.503   0.821   1.890  0.2177  0.7870  0.6193
  361SOL     OW 1081   2.464   2.739   0.624  0.3165  0.1975 -0.3571
  361SOL    HW1 1082   2.376   2.742   0.574  0.6392  0.2867 -0.1995
  361SOL    HW2 1083   2.519   2.821   0.596  1.4436  0.9317  0.3961
  362SOL     OW 1084   3.037   2.982   0.971  0.4924 -0.2916 -0.3877
  362SOL    HW1 1085   3.099   2.919   0.920  2.1811 -2.1226  0.6646
  362SOL    HW2 1086   2.987   2.936   1.045 -0.9179  0.2062  1.1188
  363SOL     OW 1087   0.847   1.467   0.584  0.8280  0.7763 -0.3878
  363SOL    HW1 1088   0.817   1.369   0.573  0.5021 -0.1486 -0.5997
  363SOL    HW2 1089   0.775   1.538   0.558  1.2936  1.8779 -1.6923
  364SOL     OW 1090   0.614   1.447   1.488  0.0982  0.0338  0.4618
  364SOL    HW1 1091   0.622   1.346   1.486 -1.2711  1.4117 -2.9737
  364SOL    HW2 1092   0.590   1.477   1.578  0.8584 -1.7874 -0.2142
  365SOL     OW 1093   2.356   1.385   0.495 -0.1195 -0.2355  0.3596
  365SOL    HW1 1094   2.396   1.302   0.536  1.3657  0.9101 -0.4970
  365SOL    HW2 1095   2.412   1.426   0.420  1.7707  0.9476 -0.1125
  366SOL     OW 1096   2.710   1.565   1.081 -0.6581  0.1455 -0.2209
  366SOL    HW1 1097   2.759   1.567   1.170  0.4961 -0.6839  3.4102
  366SOL    HW2 1098   2.619   1.606   1.087  0.9585 -1.8620 -1.0857
  367SOL     OW 1099   2.037   2.002   1.945  0.6378  0.4950  0.3016
  367SOL    HW1 1100   1.967   1.949   2.001 -0.9115 -0.9592  0.4522
  367SOL    HW2 1101   2.115   2.038   2.000  1.1898  0.5059  0.9360
  368SOL     OW 1102   2.668   0.888   1.384  0.0119  0.5904  0.1405
  368SOL    HW1 1103   2.660   0.976   1.430 -2.4259  0.6289  0.3842
  368SOL    HW2 1104   2.764   0.849   1.375 -1.1177  2.7312 -1.2245
  369SOL     OW 1105   2.484   2.784   0.231 -0.3044  0.5273  0.3603
  369SOL    HW1 1106   2.490   2.886   0.221  1.0211 -1.2554  0.9389
  369SOL    HW2 1107   2.526   2.745   0.146 -0.1527 -1.5912 -1.6611
  370SOL     OW 1108   3.016   2.732   1.629 -0.4922 -0.1278  0.0298
  370SOL    HW1 1109   2.922   2.754   1.666  0.1821 -1.8150  2.7873
  370SOL    HW2 1110   3.011   2.661   1.560 -3.4022  0.9814  0.9229
  371SOL     OW 1111   0.796   1.609   2.524  0.1677 -0.4167  0.2962
  371SOL    HW1 1112   0.744   1.695   2.545  0.1077  1.0182 -0.2391
  371SOL    HW2 1113   0.776   1.582   2.424 -0.4112  3.8399 -0.1647
  372SOL     OW 1114   0.737   1.209   0.584 -0.3544  0.1358 -0.0747
  372SOL    HW1 1115   0.678   1.144   0.642 -1.1945 -1.4207  0.9047
  372SOL    HW2 1116   0.793   1.158   0.509  0.9936 -1.0348 -5.2387
  373SOL     OW 1117   1.589   2.698   3.041 -0.3137 -0.1476 -0.6114
  373SOL    HW1 1118   1.546   2.685   0.005  0.6377 -2.6045 -0.8899
  373SOL    HW2 1119   1.577   2.614   2.984  0.2210 -0.6818  0.7238
  374SOL     OW 1120   0.353   1.667   0.043 -0.4335  0.4852 -0.9257
  374SOL    HW1 1121   0.258   1.677   0.025  2.5790  1.4029  1.6657
  374SOL    HW2 1122   0.379   1.582   0.097 -1.2605 -2.3485 -0.2661
  375SOL     OW 1123   1.029   1.555   1.711  0.5152  0.3033 -0.7057
  375SOL    HW1 1124   0.990   1.600   1.798 -1.1855  2.1569  3.7432
  375SOL    HW2 1125   0.974   1.474   1.682  0.6081  0.2561 -0.3965
  376SOL     OW 1126   0.530   2.348   1.683 -0.4154 -0.1053  0.1141
  376SOL    HW1 1127   0.464   2.307   1.747  1.1119  1.8849 -1.5888
  376SOL    HW2 1128   0.546   2.449   1.692 -1.4888  0.6387 -1.6113
  377SOL     OW 1129   2.526   1.626   2.181 -0.0133 -0.4856 -0.6093
  377SOL    HW1 1130   2.451   1.663   2.240 -0.9092  0.1174  1.0216
  377SOL    HW2 1131   2.564   1.535   2.216  1.2317 -0.3274 -2.2985
  378SOL     OW 1132   0.952   2.950   2.950 -0.6074 -0.0959 -0.3934
  378SOL    HW1 1133   0.862   2.917   2.984  0.2790  1.7638 -0.7484
  378SOL    HW2 1134   1.014   2.976   3.027 -0.8568 -0.9949 -0.7725
  379SOL     OW 1135   1.751   0.466   0.707  0.3240  0.0762 -0.7598
  379SOL    HW1 1136   1.675   0.514   0.758  0.5477  1.7522  0.3353
  379SOL    HW2 1137   1.772   0.525   0.625 -1.3819  1.7542 -0.5851
  380SOL     OW 1138   2.775   1.736   1.415 -0.7083 -0.2291 -0.0296
  380SOL    HW1 1139   2.777   1.821   1.474 -0.4810  2.9962 -0.2467
  380SOL    HW2 1140   2.766   1.761   1.314  1.3015  0.5647 -3.2394
  381SOL     OW 1141   1.730   1.835   1.783  0.4309  0.5789 -0.0473
  381SOL    HW1 1142   1.651   1.871   1.836 -0.9714 -0.8810  1.7181
  381SOL    HW2 1143   1.732   1.879   1.689 -0.1341 -1.6823  2.4003
  382SOL     OW 1144   0.024   0.369   2.926 -0.0020  0.3692 -0.6674
  382SOL    HW1 1145   3.102   0.273   2.919 -1.4624 -2.7500  0.4298
  382SOL    HW2 1146   3.083   0.439   2.958 -2.9473  1.3053 -0.9261
  383SOL     OW 1147   1.650   1.146   2.709 -1.1481 -0.0793 -0.5669
  383SOL    HW1 1148   1.582   1.221   2.723 -1.5254  1.5221  0.0174
  383SOL    HW2 1149   1.739   1.179   2.666  0.5480 -2.0676  1.2014
  384SOL     OW 1150   1.240   2.248   1.242 -0.1095  0.0189  0.3954
  384SOL    HW1 1151   1.194   2.229   1.157  1.5331 -1.7124  0.6731
  384SOL    HW2 1152   1.169   2.261   1.310  1.4298  0.2360 -0.1885
  385SOL     OW 1153   1.838   2.338   0.759 -0.6298 -0.1947  0.3499
  385SOL    HW1 1154   1.833   2.291   0.669 -1.5784  3.9465  1.2949
  385SOL    HW2 1155   1.817   2.278   0.835 -0.7253  2.3367 -0.7078
  386SOL     OW 1156   2.061   2.215   1.046  0.3852  0.2895  0.4135
  386SOL    HW1 1157   2.122   2.294   1.053 -1.4514 -0.7417 -0.8648
  386SOL    HW2 1158   2.045   2.166   1.135 -0.2722  0.7849 -1.5094
  387SOL     OW 1159   0.349   2.093   1.354 -0.2156 -0.1190 -0.1503
  387SOL    HW1 1160   0.384   2.172   1.407  0.8989  0.9436 -3.1622
  387SOL    HW2 1161   0.367   2.003   1.403 -1.3314 -0.2100 -0.0376
  388SOL     OW 1162   3.012   0.636   1.929  0.1392  0.0814  0.0298
  388SOL    HW1 1163   2.930   0.581   1.940  1.2714  0.4146 -3.3166
  388SOL    HW2 1164   3.094   0.578   1.949  2.6945 -2.2586  2.2019
  389SOL     OW 1165   1.906   1.188   0.938 -0.2087  0.1987  0.6534
  389SOL    HW1 1166   1.907   1.284   0.968  0.0687 -2.1022 -1.2860
  389SOL    HW2 1167   1.808   1.162   0.929 -0.4256 -1.9266 -1.6719
  390SOL     OW 1168   0.863   2.091   2.196 -0.1276  0.5502  0.6919
  390SOL    HW1 1169   0.802   2.135   2.267  2.5477 -2.7198  2.2231
  390SOL    HW2 1170   0.856   1.987   2.199 -1.4781  0.8701  1.1510
  391SOL     OW 1171   1.116   1.997   2.621  0.8518  0.3097  0.5716
  391SOL    HW1 1172   1.112   2.099   2.635  2.9939  4.1302  1.2919
  391SOL    HW2 1173   1.118   1.986   2.517  1.3072  0.5204 -1.2329
  392SOL     OW 1174   2.835   2.951   2.153  0.2986  0.2147  0.7544
  392SOL    HW1 1175   2.870   3.047   2.144 -2.9225 -0.0261  0.4292
  392SOL    HW2 1176   2.858   2.893   2.074  1.1152  0.8686 -0.4961
  393SOL     OW 1177   2.044   2.653   0.321 -0.1851 -0.0922  0.0360
  393SOL    HW1 1178   1.995   2.723   0.267  1.2532  1.4807  0.2954
  393SOL    HW2 1179   2.096   2.585   0.259 -0.1011 -1.8351 -0.9823
  394SOL     OW 1180   0.653   0.628   2.572  0.3405  0.3973  0.2412
  394SOL    HW1 1181   0.568   0.666   2.627  0.9200  1.2099 -0.2064
  394SOL    HW2 1182   0.629   0.613   2.475  0.2037 -0.2957  0.4824
  395SOL     OW 1183   0.734   1.192   1.478 -0.4101 -0.3311  0.1218
  395SOL    HW1 1184   0.680   1.111   1.512 -3.0922 -1.1209  1.1567
  395SOL    HW2 1185   0.829   1.177   1.500 -2.2458  1.8859 -1.3582
  396SOL     OW 1186   1.711   1.575   2.123  0.5802  0.6263  0.3301
  396SOL    HW1 1187   1.671   1.508   2.058 -2.4097 -0.7816 -1.1822
  396SOL    HW2 1188   1.695   1.549   2.222  2.4806  0.0576  0.5581
  397SOL     OW 1189   0.857   0.524   2.766  0.2565 -0.6336 -0.2070
  397SOL    HW1 1190   0.847   0.577   2.855 -1.6844  1.3933 -0.2202
  397SOL    HW2 1191   0.807   0.573   2.694 -0.5487  1.3491  0.7177
  398SOL     OW 1192   0.433   1.970   2.576  0.1540 -0.3030 -0.6435
  398SOL    HW1 1193   0.455   2.048   2.642 -1.4398  0.8526  0.3876
  398SOL    HW2 1194   0.374   1.999   2.493 -0.3443  0.1820 -0.7354
  399SOL     OW 1195   0.083   1.769   2.246 -0.1394  0.1092 -0.2325
  399SOL    HW1 1196   0.083   1.677   2.296  2.1587 -1.3107 -0.5872
  399SOL    HW2 1197   0.152   1.765   2.170  1.8016  0.0383  2.6667
  400SOL     OW 1198   2.787   0.388   1.710 -0.1319  0.4731 -0.1931
  400SOL    HW1 1199   2.716   0.365   1.644  2.7980 -0.1496  1.5792
  400SOL    HW2 1200   2.754   0.405   1.803 -0.4220  0.4748  2.1348
  401SOL     OW 1201   0.835   1.756   0.313 -0.0116 -0.2292 -0.3953
  401SOL    HW1 1202   0.757   1.750   0.246  0.9198  0.4454  0.0529
  401SOL    HW2 1203   0.929   1.751   0.267  1.8627  1.1029 -4.1806
  402SOL     OW 1204   3.120   2.451   2.116  0.2135  0.0151  0.0962
  402SOL    HW1 1205   3.110   2.542   2.070  1.7184  0.3492  3.4555
  402SOL    HW2 1206   3.108   2.378   2.048  1.6114  1.1864  3.2313
  403SOL     OW 1207   0.305   1.291   2.120 -0.6381 -0.2452 -0.0100
  403SOL    HW1 1208   0.239   1.239   2.182  1.8657  0.3834  1.1607
  403SOL    HW2 1209   0.380   1.334   2.180  1.5858 -2.3459  0.8875
  404SOL     OW 1210   1.721   1.946   1.546 -0.0620  0.0840  0.1658
  404SOL    HW1 1211   1.620   1.944   1.529 -0.0707 -0.1187 -1.4794
  404SOL    HW2 1212   1.761   1.974   1.453  0.8061 -1.9590 -0.8858
  405SOL     OW 1213   2.759   2.730   2.740  0.2876 -0.4651  0.7905
  405SOL    HW1 1214   2.734   2.825   2.767 -0.9423  0.7930  0.1250
  405SOL    HW2 1215   2.857   2.706   2.746 -1.4239 -1.5744  2.8194
  406SOL     OW 1216   0.535   1.289   2.804  0.4165  0.0050  0.6311
  406SOL    HW1 1217   0.562   1.187   2.796 -1.5317 -3.2510 -1.2462
  406SOL    HW2 1218   0.601   1.346   2.755  0.7074  0.1728  1.7340
  407SOL     OW 1219   2.359   2.778   2.753 -0.7269  0.3464 -0.0735
  407SOL    HW1 1220   2.389   2.826   2.670 -3.0436 -2.4203 -1.9534
  407SOL    HW2 1221   2.377   2.834   2.835 -1.8736  1.0900 -0.0291
  408SOL     OW 1222   2.610   2.668   0.012 -0.4289 -0.4961 -0.1410
  408SOL    HW1 1223   2.686   2.668   0.085 -0.4213 -0.5003 -0.1584
  408SOL    HW2 1224   2.628   2.613   3.058 -0.4855  1.5023  1.8679
  409SOL     OW 1225   2.307   1.122   0.839 -0.6433 -0.6469 -0.2749
  409SOL    HW1 1226   2.307   1.216   0.881 -0.2347 -0.5278 -0.8663
  409SOL    HW2 1227   2.223   1.096   0.790  2.5466  0.6216  0.2384
  410SOL     OW 1228   2.977   1.513   0.682  0.4820  0.6077  0.2085
  410SOL    HW1 1229   2.955   1.500   0.780 -0.6426  0.6022 -0.8065
  410SOL    HW2 1230   3.049   1.587   0.670  3.1710  0.5791 -0.0257
  411SOL     OW 1231   0.332   1.455   0.831 -0.1714  0.3576 -0.0683
  411SOL    HW1 1232   0.327   1.556   0.812 -0.8104  1.7575 -1.4013
  411SOL    HW2 1233   0.427   1.430   0.826 -3.4538  0.7961 -0.2479
  412SOL     OW 1234   2.342   2.294   0.638 -0.1750  0.4770  0.4386
  412SOL    HW1 1235   2.377   2.351   0.562 -3.3533 -1.4961  0.1512
  412SOL    HW2 1236   2.256   2.330   0.679  0.0144 -1.4212 -0.4657
  413SOL     OW 1237   1.603   1.102   2.212  0.1517  0.3016 -0.3169
  413SOL    HW1 1238   1.598   1.034   2.137  1.3476  2.6040  1.4147
  413SOL    HW2 1239   1.515   1.161   2.219 -2.4570 -0.4196 -3.0565
  414SOL     OW 1240   2.916   3.008   0.281 -0.2022 -0.5045  0.0141
  414SOL    HW1 1241   2.953   3.005   0.186  0.2558 -0.2231 -0.7022
  414SOL    HW2 1242   2.943   3.097   0.326 -0.3867  2.4031  0.0473
  415SOL     OW 1243   1.003   2.205   1.425 -0.0205  0.3256  0.3424
  415SOL    HW1 1244   1.020   2.259   1.512 -3.4952 -1.7766  0.2870
  415SOL    HW2 1245   0.903   2.211   1.403 -0.4709  2.2740  1.2588
  416SOL     OW 1246   3.034   2.661   2.731  0.0754  0.3342 -0.1404
  416SOL    HW1 1247   3.094   2.678   2.649  0.0650  0.5125  1.0954
  416SOL    HW2 1248   3.028   2.561   2.751 -2.2524 -0.5984  1.5707
  417SOL     OW 1249   2.828   0.469   1.302 -0.3728  0.1058  0.1846
  417SOL    HW1 1250   2.874   0.436   1.215 -0.9461  1.1250  1.2492
  417SOL    HW2 1251   2.895   0.501   1.372  0.5106  0.4530 -0.1335
  418SOL     OW 1252   0.011   0.141   0.139  0.2267  0.1166  0.0599
  418SOL    HW1 1253   3.080   0.152   0.222 -1.4065 -0.2880 -2.5905
  418SOL    HW2 1254   3.113   0.054   0.094 -1.5479 -3.0131 -0.3171
  419SOL     OW 1255   0.033   1.525   1.521 -0.4406 -0.3028  0.2462
  419SOL    HW1 1256   3.084   1.462   1.511  0.3580 -0.6694 -2.5960
  419SOL    HW2 1257   0.103   1.513   1.450 -0.1960 -0.6852  1.3259
  420SOL     OW 1258   0.213   1.373   0.096  0.3221 -0.1207 -0.6977
  420SOL    HW1 1259   0.299   1.415   0.135  0.8888 -0.7039 -0.5133
  420SOL    HW2 1260   0.217   1.362   3.119  0.2445  1.0450 -2.7598
  421SOL     OW 1261   2.134   2.741   2.364 -0.4572  0.4630 -0.4719
  421SOL    HW1 1262   2.033   2.741   2.380 -2.0618  3.0397  0.3786
  421SOL    HW2 1263   2.171   2.646   2.350 -2.8762 -0.9809  0.6519
  422SOL     OW 1264   0.107   0.883   2.558 -0.0504 -0.4600  0.6673
  422SOL    HW1 1265   0.076   0.855   2.465  2.2799  0.0253 -1.7393
  422SOL    HW2 1266   0.123   0.805   2.625  0.6708  1.5302 -0.2194
  423SOL     OW 1267   1.234   2.323   0.631  0.3008 -0.0296  0.6701
  423SOL    HW1 1268   1.297   2.319   0.708 -1.7454 -1.4270 -1.7045
  423SOL    HW2 1269   1.177   2.236   0.631  0.2147  0.2608 -1.1103
  424SOL     OW 1270   0.698   1.982   1.501 -0.1800 -0.0632  0.0223
  424SOL    HW1 1271   0.723   2.071   1.546 -3.3630  1.9717 -1.1076
  424SOL    HW2 1272   0.747   1.907   1.548 -1.5651  0.6774 -1.1187
  425SOL     OW 1273   2.625   2.569   2.541  0.0027 -0.5272 -0.3381
  425SOL    HW1 1274   2.561   2.608   2.478 -0.1838  0.7464  0.0679
  425SOL    HW2 1275   2.654   2.637   2.617  2.1617  1.8839  0.5153
  426SOL     OW 1276   1.533   0.594   0.862  0.2578 -0.3328  0.0012
  426SOL    HW1 1277   1.507   0.531   0.939 -1.7596 -1.7426 -4.3332
  426SOL    HW2 1278   1.462   0.608   0.792  1.0411  0.9918  1.9088
  427SOL     OW 1279   0.127   1.486   2.882 -0.7320 -0.5209  0.1128
  427SOL    HW1 1280   0.118   1.583   2.913  1.3012  3.2165 -0.8808
  427SOL    HW2 1281   0.045   1.427   2.871  1.7210  1.6704  0.0963
  428SOL     OW 1282   1.167   1.328   0.077  0.0931 -0.1782  0.2836
  428SOL    HW1 1283   1.165   1.303   0.175  0.4992 -1.4640 -0.3449
  428SOL    HW2 1284   1.116   1.254   0.031  1.0884  1.0267 -2.3531
  429SOL     OW 1285   2.853   2.613   0.604 -0.1550 -0.0041 -0.1111
  429SOL    HW1 1286   2.796   2.533   0.580  2.2302  0.3494 -0.9401
  429SOL    HW2 1287   2.871   2.667   0.518 -1.5062 -0.5963 -1.0226
  430SOL     OW 1288   0.366   2.341   2.245  0.1986 -0.0157  0.0346
  430SOL    HW1 1289   0.308   2.338   2.327 -1.2095 -0.7176  0.1440
  430SOL    HW2 1290   0.367   2.251   2.195  1.0625 -2.4869  0.9168
  431SOL     OW 1291   2.954   1.264   0.371  0.4551 -0.0347 -0.2634
  431SOL    HW1 1292   2.956   1.366   0.377  0.2598  1.7800  0.6360
  431SOL    HW2 1293   3.028   1.234   0.304  2.3568 -1.8971 -1.3186
  432SOL     OW 1294   1.841   2.710   2.340 -0.0495 -0.0273  0.2362
  432SOL    HW1 1295   1.825   2.743   2.248  2.5046 -1.9897  2.0612
  432SOL    HW2 1296   1.770   2.746   2.402  0.8900  0.7310 -0.2044
  433SOL     OW 1297   1.188   2.796   0.601  0.2824 -0.2368  0.1856
  433SOL    HW1 1298   1.272   2.835   0.565 -2.9239  0.5027 -0.2310
  433SOL    HW2 1299   1.167   2.851   0.686 -0.9933 -0.2375  1.9131
  434SOL     OW 1300   1.370   1.840   2.314 -0.5544  0.0934 -0.7508
  434SOL    HW1 1301   1.370   1.931   2.347 -0.9731 -2.0002 -0.4544
  434SOL    HW2 1302   1.345   1.771   2.387 -1.2777 -2.4325 -0.6023
  435SOL     OW 1303   2.557   0.561   0.070  0.1232 -0.1310  0.7635
  435SOL    HW1 1304   2.556   0.646   0.012 -2.6352 -1.6826  1.0750
  435SOL    HW2 1305   2.535   0.588   0.166 -1.3026  3.4532 -0.5766
  436SOL     OW 1306   0.422   2.710   2.287 -0.4333  0.2797  0.5158
  436SOL    HW1 1307   0.329   2.664   2.279  0.1403  0.0214 -0.6239
  436SOL    HW2 1308   0.497   2.641   2.307 -1.9240  0.3761  1.7489
  437SOL     OW 1309   2.087   3.083   1.509 -0.0607  0.1233  0.1029
  437SOL    HW1 1310   2.079   3.000   1.450  0.3892  1.9440 -0.0242
  437SOL    HW2 1311   2.156   0.023   1.472  1.0652 -0.1233  2.2564
  438SOL     OW 1312   0.064   1.704   0.695 -0.5729  0.0581 -0.4113
  438SOL    HW1 1313   0.008   1.778   0.727  2.0826 -0.7210 -0.7037
  438SOL    HW2 1314   0.160   1.710   0.734  3.5700  0.7526  2.8296
  439SOL     OW 1315   0.075   0.015   1.102 -0.2574 -0.0739 -0.7006
  439SOL    HW1 1316   0.077   0.100   1.045 -1.5293 -0.3909 -1.5956
  439SOL    HW2 1317   0.012   3.075   1.054  1.8406 -0.8175 -0.7740
  440SOL     OW 1318   2.880   2.834   2.389  0.1646  0.0903 -0.0611
  440SOL    HW1 1319   2.865   2.730   2.401 -1.9660 -2.7363  1.9065
  440SOL    HW2 1320   2.847   2.859   2.295  0.0941  0.2163 -0.5980
  441SOL     OW 1321   0.209   0.698   0.305 -0.2242 -0.3038  0.3281
  441SOL    HW1 1322   0.306   0.699   0.329 -2.9328  1.5581 -1.3466
  441SOL    HW2 1323   0.157   0.664   0.384  1.0250  0.2388 -0.0478
  442SOL     OW 1324   1.644   2.463   2.207  0.0874 -0.6818  1.0520
  442SOL    HW1 1325   1.632   2.391   2.135  1.9440 -0.0786 -0.4055
  442SOL    HW2 1326   1.735   2.447   2.250  2.5284 -1.9281  0.4571
  443SOL     OW 1327   0.712   2.922   0.063  0.5022 -0.7268 -0.0787
  443SOL    HW1 1328   0.686   2.894   3.094  0.1416 -1.4681 -1.5202
  443SOL    HW2 1329   0.711   3.023   0.077  2.3396  0.2740  2.7027
  444SOL     OW 1330   1.496   1.789   2.682 -0.0113 -0.1741 -0.2569
  444SOL    HW1 1331   1.426   1.846   2.729 -1.2885  0.7736  1.1658
  444SOL    HW2 1332   1.460   1.742   2.600  3.3120 -1.5693  0.7735
  445SOL     OW 1333   0.358   0.347   0.941  0.3798  0.1967 -0.0453
  445SOL    HW1 1334   0.261   0.318   0.944  1.5955 -1.0765 -0.3270
  445SOL    HW2 1335   0.410   0.319   1.025  1.8809 -0.7413  1.3288
  446SOL     OW 1336   1.787   0.744   0.887 -0.0397  0.1659  0.1748
  446SOL    HW1 1337   1.718   0.675   0.886  3.2247  4.8332  0.0329
  446SOL    HW2 1338   1.857   0.737   0.966  2.6134  3.1702 -0.5232
  447SOL     OW 1339   3.020   0.977   0.037  0.3851  0.5699 -0.6919
  447SOL    HW1 1340   2.985   0.894   0.089  0.1221  0.4107  0.1313
  447SOL    HW2 1341   3.120   0.987   0.033 -0.0278  1.9935  2.3327
  448SOL     OW 1342   2.163   1.726   1.244  0.4638 -0.0068 -0.3534
  448SOL    HW1 1343   2.254   1.749   1.285  2.6732  2.9953  0.6341
  448SOL    HW2 1344   2.141   1.803   1.180  3.5013  3.1168 -1.3306
  449SOL     OW 1345   0.921   1.419   2.928 -0.0227  0.0946 -0.2408
  449SOL    HW1 1346   1.017   1.435   2.899  0.8192 -0.1027 -0.8385
  449SOL    HW2 1347   0.911   1.440   3.028  0.4872  0.2362 -0.0217
  450SOL     OW 1348   2.206   3.024   2.429 -0.1966 -0.0165 -0.2149
  450SOL    HW1 1349   2.181   2.928   2.426  2.1914  0.4088 -0.3581
  450SOL    HW2 1350   2.122   3.073   2.393  1.2798  0.8986  1.7064
  451SOL     OW 1351   2.633   0.888   2.540  0.1081 -0.0033  0.0302
  451SOL    HW1 1352   2.609   0.818   2.611  1.3915  1.1095 -0.4356
  451SOL    HW2 1353   2.559   0.953   2.523  0.9051 -1.2215 -1.3104
  452SOL     OW 1354   1.771   1.140   1.332  0.1806 -0.0059  0.1722
  452SOL    HW1 1355   1.728   1.166   1.243  0.8930  2.7853  0.3241
  452SOL    HW2 1356   1.717   1.181   1.411 -0.5532  1.0930 -0.1956
  453SOL     OW 1357   1.669   0.581   1.978  0.0518  0.6488  0.0143
  453SOL    HW1 1358   1.675   0.520   1.899 -2.8552 -2.2731  0.5680
  453SOL    HW2 1359   1.570   0.590   2.004 -2.6539 -1.2154  1.8678
  454SOL     OW 1360   0.187   0.789   2.979  0.0908 -0.5540 -0.9404
  454SOL    HW1 1361   0.249   0.707   2.989 -0.6342 -2.7683 -0.5442
  454SOL    HW2 1362   0.226   0.883   3.008 -0.1731  4.6281  2.4194
  455SOL     OW 1363   2.562   1.595   1.506  0.1957  0.3628  0.6679
  455SOL    HW1 1364   2.555   1.586   1.608  0.0011  0.1751  0.6799
  455SOL    HW2 1365   2.647   1.648   1.490 -4.1957 -1.6259  1.7056
  456SOL     OW 1366   1.769   2.888   1.818 -0.0518 -0.2124 -0.5671
  456SOL    HW1 1367   1.715   2.847   1.896  0.5919 -2.0043 -1.4233
  456SOL    HW2 1368   1.774   2.993   1.832  1.1661  2.1797 -1.6648
  457SOL     OW 1369   1.529   2.889   0.847  0.1027  0.6311  0.1036
  457SOL    HW1 1370   1.591   2.877   0.769  0.4913  0.6387  1.7894
  457SOL    HW2 1371   1.504   2.791   0.877  1.4701 -0.2601  0.9136
  458SOL     OW 1372   3.024   3.023   0.646  0.1268 -0.0634 -0.5716
  458SOL    HW1 1373   2.977   2.942   0.687  1.6828  0.3513  0.7298
  458SOL    HW2 1374   2.965   3.101   0.641 -0.8404 -0.3551  3.3327
  459SOL     OW 1375   1.848   1.165   0.581 -0.6073  0.2016 -0.5098
  459SOL    HW1 1376   1.864   1.139   0.484  1.2881  0.9987  0.7288
  459SOL    HW2 1377   1.899   1.112   0.655 -0.2640 -0.5399 -0.1167
  460SOL     OW 1378   0.876   2.454   2.269  0.0159  0.1358 -0.4191
  460SOL    HW1 1379   0.899   2.438   2.172  0.8338  0.1690  0.0719
  460SOL    HW2 1380   0.964   2.443   2.320 -0.2290 -1.2061  3.1008
  461SOL     OW 1381   0.606   1.760   0.143 -0.1819  0.2958 -0.5749
  461SOL    HW1 1382   0.505   1.780   0.124  0.0892 -0.4268  0.1434
  461SOL    HW2 1383   0.639   1.677   0.096 -2.3136 -1.1183 -2.2691
  462SOL     OW 1384   2.021   2.196   0.289 -0.0934  0.0762  0.1387
  462SOL    HW1 1385   2.040   2.102   0.320 -0.5887 -0.1744 -0.1948
  462SOL    HW2 1386   2.005   2.191   0.187  1.3764  0.4604 -1.5942
  463SOL     OW 1387   2.885   0.567   0.397 -0.4208 -0.1276 -0.3353
  463SOL    HW1 1388   2.875   0.543   0.498 -3.6146 -0.8591  1.1308
  463SOL    HW2 1389   2.826   0.505   0.344  0.5104  1.1338  0.7126
  464SOL     OW 1390   0.605   2.064   0.175  0.2587 -0.3731 -0.0377
  464SOL    HW1 1391   0.627   1.967   0.178  2.4025  1.0388  0.5650
  464SOL    HW2 1392   0.689   2.116   0.138  1.1435 -1.4356 -0.9004
  465SOL     OW 1393   2.257   0.164   1.407 -0.2495 -0.4981 -0.2339
  465SOL    HW1 1394   2.282   0.145   1.308 -2.0915  0.0721  1.0310
  465SOL    HW2 1395   2.227   0.261   1.415 -0.4072 -0.6233 -2.2781
  466SOL     OW 1396   2.415   3.119   0.649  0.2700  0.1573  0.3395
  466SOL    HW1 1397   2.352   3.045   0.620 -2.1655 -0.2028  1.0663
  466SOL    HW2 1398   2.375   0.086   0.662  2.4662  0.8591 -0.7149
  467SOL     OW 1399   0.416   0.553   2.193 -0.2576  0.5176  0.1775
  467SOL    HW1 1400   0.379   0.528   2.283 -0.4840 -0.8835 -0.2678
  467SOL    HW2 1401   0.447   0.466   2.145  0.3823 -1.7638  0.6605
  468SOL     OW 1402   2.586   3.084   2.219  0.0245  0.4079 -0.1413
  468SOL    HW1 1403   2.586   0.032   2.153  1.3579 -2.7398  2.8923
  468SOL    HW2 1404   2.671   3.023   2.217  0.7523 -1.1335  1.2087
  469SOL     OW 1405   0.896   2.853   1.631 -0.5143 -0.4780  0.0832
  469SOL    HW1 1406   0.833   2.871   1.550  0.7839  3.0651 -3.2151
  469SOL    HW2 1407   0.851   2.831   1.719  2.5372 -2.6905  1.0611
  470SOL     OW 1408   2.526   1.069   1.866  0.2544  0.2753 -0.1193
  470SOL    HW1 1409   2.563   0.982   1.910  0.5769 -0.6269  0.4639
  470SOL    HW2 1410   2.438   1.089   1.916 -0.3519 -0.6306 -0.1544
  471SOL     OW 1411   2.862   1.715   2.882  0.4548  0.0967  0.2349
  471SOL    HW1 1412   2.957   1.739   2.896 -1.0459 -0.6107 -0.2316
  471SOL    HW2 1413   2.809   1.697   2.969 -0.9583 -1.4461  1.6132
  472SOL     OW 1414   0.791   2.265   0.460 -0.7444  0.3187 -0.2866
  472SOL    HW1 1415   0.808   2.182   0.404  0.8233  0.2363 -1.2126
  472SOL    HW2 1416   0.775   2.242   0.558  0.4561 -0.3114  1.9019
  473SOL     OW 1417   1.378   2.434   2.328 -0.1966  0.1223 -0.2978
  473SOL    HW1 1418   1.369   2.332   2.329 -0.7942 -1.4758  3.1622
  473SOL    HW2 1419   1.472   2.463   2.307  0.5213 -1.0570 -0.5768
  474SOL     OW 1420   0.739   2.842   2.602  0.5169 -0.0328  0.2190
  474SOL    HW1 1421   0.734   2.768   2.665  2.0145  0.5092 -1.9472
  474SOL    HW2 1422   0.792   2.919   2.637  0.7291  0.6239 -0.3646
  475SOL     OW 1423   0.730   1.804   2.841  0.2630 -0.2262 -0.8792
  475SOL    HW1 1424   0.811   1.759   2.886  1.8899  0.3204 -0.7071
  475SOL    HW2 1425   0.643   1.786   2.894  1.0685 -0.0373 -0.9094
  476SOL     OW 1426   0.627   0.633   1.022 -0.5343 -0.5883 -0.1225
  476SOL    HW1 1427   0.567   0.692   1.079 -1.2774  1.7067  0.6421
  476SOL    HW2 1428   0.642   0.679   0.932  1.1297  1.3812  1.1245
  477SOL     OW 1429   2.124   2.119   1.288 -0.0178 -0.7238  0.3300
  477SOL    HW1 1430   2.224   2.127   1.266  1.7861 -2.0222 -2.2746
  477SOL    HW2 1431   2.111   2.168   1.378  1.9788 -0.2699  2.2684
  478SOL     OW 1432   0.240   0.354   3.088  0.6799  0.1175  0.1442
  478SOL    HW1 1433   0.143   0.343   3.048 -0.5644  1.1473  0.1884
  478SOL    HW2 1434   0.309   0.350   3.014  0.1053  0.9025  2.8113
  479SOL     OW 1435   1.137   0.230   1.549 -0.0511 -0.5892  0.0557
  479SOL    HW1 1436   1.108   0.310   1.491 -1.0922  1.2152 -1.6280
  479SOL    HW2 1437   1.066   0.154   1.561 -2.2437  0.7398 -0.7802
  480SOL     OW 1438   2.777   2.320   0.277 -0.0220  0.0266 -0.0088
  480SOL    HW1 1439   2.690   2.278   0.244 -0.0521  0.6735  0.4596
  480SOL    HW2 1440   2.856   2.254   0.259 -1.3429 -0.0825  0.2912
  481SOL     OW 1441   0.081   0.784   1.776  0.6502  0.5059 -0.1746
  481SOL    HW1 1442   0.038   0.845   1.702 -2.1623  2.1163 -0.1129
  481SOL    HW2 1443   0.024   0.771   1.862 -0.6842  0.5053  1.7337
  482SOL     OW 1444   0.965   3.115   1.313 -0.3506 -0.0225  0.1253
  482SOL    HW1 1445   0.900   0.034   1.249 -0.1085  1.2917  3.2844
  482SOL    HW2 1446   0.960   3.015   1.315  0.4462  1.7090  1.3427
  483SOL     OW 1447   3.041   1.377   2.562  0.7408  0.2297 -0.4311
  483SOL    HW1 1448   3.062   1.318   2.644 -0.1654 -1.0792 -0.7950
  483SOL    HW2 1449   2.965   1.438   2.590  3.4248 -1.5552 -1.0909
  484SOL     OW 1450   1.826   1.812   2.019  0.5507 -0.0742  0.4569
  484SOL    HW1 1451   1.808   1.718   2.055 -0.1848 -2.3072 -2.7982
  484SOL    HW2 1452   1.798   1.812   1.921 -1.6503  0.0490  0.4517
  485SOL     OW 1453   0.256   2.941   2.266 -0.3305  0.2017 -0.1019
  485SOL    HW1 1454   0.182   2.914   2.329  0.7581  0.9092 -1.6943
  485SOL    HW2 1455   0.331   2.873   2.273  1.4095 -0.9345  0.5822
  486SOL     OW 1456   1.124   0.150   0.649 -0.0945  0.0077 -0.2874
  486SOL    HW1 1457   1.221   0.153   0.679  0.0743 -2.2326 -0.4886
  486SOL    HW2 1458   1.075   0.238   0.668 -1.4427  0.2333 -0.5063
  487SOL     OW 1459   1.459   0.230   0.896 -0.4078 -0.2352  0.4948
  487SOL    HW1 1460   1.510   0.242   0.805  1.3834  1.2970 -0.6444
  487SOL    HW2 1461   1.491   0.305   0.960 -0.8585 -0.2939  2.1928
  488SOL     OW 1462   2.372   0.908   0.990  1.0212 -0.3561  0.4061
  488SOL    HW1 1463   2.321   0.975   0.934  0.3281  0.0280 -0.0999
  488SOL    HW2 1464   2.421   0.964   1.059 -1.5118 -0.9326  0.1645
  489SOL     OW 1465   1.127   0.462   1.334 -0.1177 -0.1527  0.3670
  489SOL    HW1 1466   1.068   0.410   1.269  0.1877 -2.8093 -2.7538
  489SOL    HW2 1467   1.225   0.442   1.317 -2.8635 -1.3837  0.1820
  490SOL     OW 1468   0.803   0.641   3.016 -0.3846  0.3380 -0.0654
  490SOL    HW1 1469   0.880   0.649   3.086  1.4321  2.7089  0.9859
  490SOL    HW2 1470   0.724   0.594   3.058  0.7378 -0.5422 -0.0206
  491SOL     OW 1471   0.992   2.849   0.377 -0.3432 -0.1566  0.2928
  491SOL    HW1 1472   1.033   2.944   0.374  0.2506  0.1298 -1.8853
  491SOL    HW2 1473   1.024   2.805   0.463  1.0224 -0.1924 -0.3065
  492SOL     OW 1474   1.393   1.720   1.515 -0.4673 -0.7079  0.3109
  492SOL    HW1 1475   1.367   1.689   1.609 -0.5483  0.0837 -2.4649
  492SOL    HW2 1476   1.411   1.643   1.453  0.6829  0.5055  0.6730
  493SOL     OW 1477   0.446   1.471   0.184 -0.7041 -0.4139 -0.2568
  493SOL    HW1 1478   0.536   1.446   0.143 -1.3946 -0.6298  2.7160
  493SOL    HW2 1479   0.455   1.502   0.282 -0.6948  0.2500 -0.8462
  494SOL     OW 1480   1.770   2.284   0.425  0.4102 -0.2696  0.2150
  494SOL    HW1 1481   1.855   2.259   0.378  1.0705  2.7854  2.6600
  494SOL    HW2 1482   1.740   2.378   0.399 -0.8449 -1.2252  1.7005
  495SOL     OW 1483   0.404   1.680   2.444  0.1020 -0.3149 -0.4141
  495SOL    HW1 1484   0.483   1.726   2.492  1.5925  0.9853  2.2364
  495SOL    HW2 1485   0.344   1.629   2.507  1.3562 -0.2980 -0.8810
  496SOL     OW 1486   0.356   2.729   2.583  0.7783  0.5088 -0.2288
  496SOL    HW1 1487   0.365   2.815   2.634  0.1808 -2.0658  2.5337
  496SOL    HW2 1488   0.413   2.727   2.500 -3.2840 -0.1190 -0.2814
  497SOL     OW 1489   1.596   1.252   0.634  0.3154  0.4886  0.4199
  497SOL    HW1 1490   1.548   1.228   0.552  0.4176 -0.1305  1.0235
  497SOL    HW2 1491   1.685   1.217   0.623 -4.6052 -1.2506 -1.2761
  498SOL     OW 1492   2.822   2.583   0.187  0.0056  0.1761 -0.6230
  498SOL    HW1 1493   2.887   2.567   0.115 -0.7280  1.3207 -1.0796
  498SOL    HW2 1494   2.785   2.498   0.229 -0.9132 -0.4531 -2.2670
  499SOL     OW 1495   1.988   2.587   0.577 -0.8249  0.3855  0.4888
  499SOL    HW1 1496   2.035   2.494   0.595 -1.1976 -1.2713 -0.9541
  499SOL    HW2 1497   2.016   2.625   0.484  0.0109 -1.2084 -2.7536
  500SOL     OW 1498   0.418   0.381   2.863  0.4765 -0.1433 -0.2688
  500SOL    HW1 1499   0.406   0.480   2.891 -1.7025 -0.2289  1.9950
  500SOL    HW2 1500   0.513   0.368   2.826  1.6581  1.4728 -1.6251
  501SOL     OW 1501   1.935   2.674   1.759 -0.5986  0.1219  0.2052
  501SOL    HW1 1502   2.023   2.676   1.811  1.4624 -2.2940 -0.0649
  501SOL    HW2 1503   1.871   2.746   1.790 -2.9691  0.2956  1.4803
  502SOL     OW 1504   0.043   0.110   2.583  0.0662 -0.2553 -0.1045
  502SOL    HW1 1505   0.020   0.084   2.676  2.8373 -0.3361 -5.4199
  502SOL    HW2 1506   0.130   0.060   2.561  0.5147  0.1027  0.4215
  503SOL     OW 1507   1.886   2.426   2.361 -0.1707 -0.1803 -0.1819
  503SOL    HW1 1508   1.929   2.398   2.270 -1.4932 -0.4566 -0.6913
  503SOL    HW2 1509   1.896   2.527   2.367  2.9098  1.9619 -1.3880
  504SOL     OW 1510   2.214   0.231   1.758  0.5912 -0.1839 -0.0524
  504SOL    HW1 1511   2.140   0.164   1.777  0.7404  0.7882  1.2002
  504SOL    HW2 1512   2.209   0.275   1.669 -1.5888  0.4416  0.1522
  505SOL     OW 1513   2.498   1.356   1.387 -0.7099 -0.1744  0.0778
  505SOL    HW1 1514   2.533   1.439   1.437 -1.3624  0.6675  0.1090
  505SOL    HW2 1515   2.502   1.374   1.286 -1.8108  0.3051  0.2344
  506SOL     OW 1516   0.033   1.777   1.661 -0.3934  1.2108 -0.3908
  506SOL    HW1 1517   0.039   1.693   1.600  0.8999 -0.1777  0.6767
  506SOL    HW2 1518   3.120   1.858   1.607  0.7821  1.9136 -1.6962
  507SOL     OW 1519   0.431   2.373   1.439  0.5973  0.4611 -0.6702
  507SOL    HW1 1520   0.479   2.372   1.530  0.4156 -1.1424  1.2086
  507SOL    HW2 1521   0.337   2.413   1.433 -1.7970 -1.2517 -2.9526
  508SOL     OW 1522   0.726   0.579   1.718 -0.1233 -0.0774 -0.0174
  508SOL    HW1 1523   0.738   0.552   1.819 -0.0661 -0.4109  0.5817
  508SOL    HW2 1524   0.630   0.590   1.688  1.5426 -0.2406 -1.6224
  509SOL     OW 1525   1.700   2.526   1.735  0.1160 -0.3983 -0.6010
  509SOL    HW1 1526   1.629   2.584   1.785 -1.2826  0.3379 -1.5618
  509SOL    HW2 1527   1.791   2.575   1.737 -1.0248 -1.3032  0.3148
  510SOL     OW 1528   2.658   1.395   2.565  0.1773 -0.0694 -0.3314
  510SOL    HW1 1529   2.585   1.466   2.552  1.4468 -0.3973  1.0215
  510SOL    HW2 1530   2.729   1.443   2.624  1.2216 -0.4627  2.5298
  511SOL     OW 1531   0.911   1.463   1.132 -0.1300 -0.4683  0.5152
  511SOL    HW1 1532   1.008   1.488   1.143 -1.8371 -1.1731 -0.9617
  511SOL    HW2 1533   0.864   1.512   1.209  0.7647  0.1527  1.0465
  512SOL     OW 1534   2.777   1.579   0.501  0.6358  0.3249 -0.4598
  512SOL    HW1 1535   2.822   1.514   0.563 -1.1688  0.0946 -2.3121
  512SOL    HW2 1536   2.782   1.676   0.536  0.4190  0.6084  4.1111
  513SOL     OW 1537   1.101   2.055   2.349  0.1552  0.3286 -0.2042
  513SOL    HW1 1538   1.040   2.104   2.283 -1.1544  3.8640 -3.2815
  513SOL    HW2 1539   1.198   2.082   2.338  0.4164 -0.2868 -0.0066
  514SOL     OW 1540   0.174   2.221   1.201 -0.0272 -0.1909 -0.7488
  514SOL    HW1 1541   0.214   2.312   1.180 -0.8779 -0.6988  1.8523
  514SOL    HW2 1542   0.246   2.155   1.234 -0.9383 -0.7996 -1.3422
  515SOL     OW 1543   2.014   0.912   1.844  0.2307 -0.1018  0.4981
  515SOL    HW1 1544   1.913   0.908   1.852  4.0774  2.0793 -1.0864
  515SOL    HW2 1545   2.045   0.894   1.749  0.7141 -0.9550 -1.4434
  516SOL     OW 1546   2.713   0.162   0.010  0.4009 -0.3533 -0.3041
  516SOL    HW1 1547   2.715   0.212   3.048  2.4689 -1.2926  0.1026
  516SOL    HW2 1548   2.735   0.236   0.081 -0.8982  1.4770  0.8940
  517SOL     OW 1549   1.260   1.699   2.950 -0.3709  0.1433  0.1094
  517SOL    HW1 1550   1.346   1.681   3.001 -3.1161 -1.2026  0.2558
  517SOL    HW2 1551   1.246   1.635   2.869  0.9831 -1.2582 -3.0078
  518SOL     OW 1552   1.630   0.012   1.488  0.4193 -0.2873  0.0990
  518SOL    HW1 1553   1.632   3.037   1.482  0.6619  1.4074  0.1637
  518SOL    HW2 1554   1.710   0.052   1.443  0.0124 -0.9168  0.9356
  519SOL     OW 1555   2.231   2.644   0.804  0.2607 -0.2086  0.0564
  519SOL    HW1 1556   2.318   2.600   0.844 -0.4506 -0.7819  0.6131
  519SOL    HW2 1557   2.246   2.735   0.766 -1.2594  1.0664  0.6248
  520SOL     OW 1558   2.744   2.010   1.884  0.2200 -0.0517 -0.2389
  520SOL    HW1 1559   2.805   1.936   1.921 -1.2060 -1.0019  0.1446
  520SOL    HW2 1560   2.647   2.000   1.920  2.3743  1.8083 -0.8803
  521SOL     OW 1561   2.962   0.751   0.170  0.3597 -0.3149 -0.5297
  521SOL    HW1 1562   2.885   0.705   0.216  1.1581  1.6962 -0.1962
  521SOL    HW2 1563   3.044   0.734   0.222  0.2901 -0.5773 -1.7814
  522SOL     OW 1564   0.855   0.809   2.591  0.1326 -0.5077 -0.6378
  522SOL    HW1 1565   0.772   0.746   2.602 -1.2925 -2.1961 -0.7517
  522SOL    HW2 1566   0.846   0.883   2.521  0.2546 -1.3146 -1.3182
  523SOL     OW 1567   0.018   2.214   0.561  0.7715 -0.5247 -0.1975
  523SOL    HW1 1568   0.052   2.192   0.656  1.0241  1.1676  2.8055
  523SOL    HW2 1569   0.087   2.255   0.501  2.9268  1.1612  2.2555
  524SOL     OW 1570   2.029   2.733   3.019 -0.5879 -0.0566 -0.1713
  524SOL    HW1 1571   2.115   2.792   3.019 -0.0916  2.8876 -2.3751
  524SOL    HW2 1572   2.039   2.656   3.087 -0.2458  2.1469 -0.4435
  525SOL     OW 1573   2.640   0.338   1.462 -0.5543 -0.1179 -0.5502
  525SOL    HW1 1574   2.712   0.388   1.416 -0.5976 -1.8693 -1.7696
  525SOL    HW2 1575   2.552   0.390   1.447 -0.5929  3.1889  0.6162
  526SOL     OW 1576   1.120   3.101   0.446  0.4622  0.6545 -0.5330
  526SOL    HW1 1577   1.113   0.032   0.530  1.5415 -1.2757  0.3342
  526SOL    HW2 1578   1.210   3.053   0.446  2.4098  1.0322  3.0789
  527SOL     OW 1579   2.249   2.821   0.421 -0.0876  0.2544  0.0688
  527SOL    HW1 1580   2.194   2.751   0.374  1.4571 -1.6087 -2.0058
  527SOL    HW2 1581   2.307   2.875   0.356  0.7300 -1.1070 -0.3141
  528SOL     OW 1582   1.914   0.840   2.733 -0.0779  0.7577 -0.3242
  528SOL    HW1 1583   1.924   0.875   2.829  1.4984 -0.0008 -0.4002
  528SOL    HW2 1584   1.840   0.888   2.689  3.1679 -2.5162  2.1284
  529SOL     OW 1585   1.643   1.470   2.366  0.6685 -0.3236 -0.0482
  529SOL    HW1 1586   1.567   1.443   2.427 -2.4657  1.4489  0.2010
  529SOL    HW2 1587   1.712   1.399   2.372  1.2754  1.8099 -0.7471
  530SOL     OW 1588   2.502   2.876   2.997  0.0342  0.0363  0.3268
  530SOL    HW1 1589   2.511   2.965   3.047  1.8697 -1.1188 -2.2210
  530SOL    HW2 1590   2.544   2.801   3.052  1.2326 -0.9001  1.4178
  531SOL     OW 1591   1.918   1.558   2.905 -0.3963 -0.2580 -0.2594
  531SOL    HW1 1592   1.919   1.486   2.975  0.0564  2.9912 -0.0799
  531SOL    HW2 1593   1.920   1.652   2.941 -0.9346  0.1419  1.0825
  532SOL     OW 1594   1.538   0.443   1.100  0.1033  0.6463  0.2944
  532SOL    HW1 1595   1.484   0.449   1.185 -0.5573  4.0033  1.4948
  532SOL    HW2 1596   1.634   0.436   1.122  0.1864 -0.3337 -0.2429
  533SOL     OW 1597   0.595   0.841   2.954  0.3539  0.2878  0.1091
  533SOL    HW1 1598   0.684   0.792   2.959 -0.6931  0.5873 -0.5915
  533SOL    HW2 1599   0.608   0.936   2.923  1.8172 -2.6862  2.1098
  534SOL     OW 1600   1.298   0.621   0.005 -0.4645 -0.7440 -0.1762
  534SOL    HW1 1601   1.323   0.567   3.049 -2.9707 -2.2950  0.5081
  534SOL    HW2 1602   1.327   0.590   0.095 -1.2464  0.4067 -2.0073
  535SOL     OW 1603   0.850   2.069   2.926  0.0751 -0.8009 -0.2532
  535SOL    HW1 1604   0.781   2.111   2.986  5.0538 -1.4965 -2.6456
  535SOL    HW2 1605   0.817   1.973   2.900 -1.8799  0.7110 -2.9015
  536SOL     OW 1606   0.736   2.827   0.338  0.1728  0.5912  0.5057
  536SOL    HW1 1607   0.712   2.846   0.242  2.9809 -0.0791 -2.1361
  536SOL    HW2 1608   0.831   2.860   0.357  2.2538  0.7293  1.9171
  537SOL     OW 1609   2.010   0.338   0.211 -0.6447 -0.2847  0.3768
  537SOL    HW1 1610   2.048   0.269   0.274 -1.3464  4.4957 -0.2726
  537SOL    HW2 1611   2.063   0.428   0.212  1.1169  2.8673 -2.2109
  538SOL     OW 1612   2.437   2.355   2.876  0.2950  0.0492 -0.3237
  538SOL    HW1 1613   2.440   2.330   2.781 -0.5261 -1.3530  0.6125
  538SOL    HW2 1614   2.345   2.380   2.913 -0.2376  0.7903 -0.3690
  539SOL     OW 1615   2.621   1.397   0.015  0.2469  0.5249  0.2811
  539SOL    HW1 1616   2.519   1.405   0.028  0.7466  1.4438 -3.4847
  539SOL    HW2 1617   2.653   1.337   0.089 -0.0625 -3.0510  3.0983
  540SOL     OW 1618   0.569   3.001   1.898  0.3364  0.1144  0.5184
  540SOL    HW1 1619   0.470   2.984   1.896  1.9720 -1.7534 -0.8043
  540SOL    HW2 1620   0.593   3.040   1.989 -1.0574 -1.6672 -0.3603
  541SOL     OW 1621   2.356   0.112   2.578 -0.5661 -0.2511  0.0802
  541SOL    HW1 1622   2.392   0.109   2.676  0.3898 -1.8285 -1.8871
  541SOL    HW2 1623   2.342   0.020   2.538 -1.3915 -0.5635 -0.1466
  542SOL     OW 1624   0.364   0.542   0.129  0.1725 -0.5996  0.1970
  542SOL    HW1 1625   0.317   0.500   0.050  2.0530  0.5794 -2.3993
  542SOL    HW2 1626   0.306   0.604   0.177  1.4350  0.0639  0.4176
  543SOL     OW 1627   0.514   0.944   0.975  0.3393 -0.2211  0.1156
  543SOL    HW1 1628   0.448   0.886   1.021  0.2828  1.6447 -0.1758
  543SOL    HW2 1629   0.515   1.040   1.010  0.8567  0.5712  2.7120
  544SOL     OW 1630   2.551   0.565   1.145 -0.0564 -0.4009 -0.4334
  544SOL    HW1 1631   2.650   0.550   1.165 -0.5075 -0.9164 -1.6719
  544SOL    HW2 1632   2.512   0.643   1.203 -3.5293  0.3065  1.4852
  545SOL     OW 1633   1.090   1.779   0.239 -0.2016 -0.1160 -0.0799
  545SOL    HW1 1634   1.093   1.883   0.228  1.2918 -0.0124 -0.8905
  545SOL    HW2 1635   1.172   1.729   0.202 -1.3450  1.1433  1.7886
  546SOL     OW 1636   2.382   2.477   1.384  0.2137 -0.5588  0.0003
  546SOL    HW1 1637   2.339   2.411   1.452 -0.9753 -2.0288 -0.2876
  546SOL    HW2 1638   2.364   2.439   1.291 -0.8758 -1.1469  0.4111
  547SOL     OW 1639   1.140   2.515   1.917  0.7200  0.4795  0.6698
  547SOL    HW1 1640   1.141   2.576   2.004  0.7321  0.8668  3.3598
  547SOL    HW2 1641   1.174   2.568   1.839 -0.1504 -3.5487  3.2268
  548SOL     OW 1642   1.533   0.692   2.847  0.0690 -0.1245 -0.3167
  548SOL    HW1 1643   1.577   0.667   2.760  1.8329 -2.5505  0.1153
  548SOL    HW2 1644   1.451   0.636   2.860  1.2915  1.6545 -0.0795
  549SOL     OW 1645   2.437   0.626   0.326  0.7749 -0.5093 -0.4374
  549SOL    HW1 1646   2.472   0.561   0.396 -0.0866 -0.2802  1.3614
  549SOL    HW2 1647   2.408   0.717   0.365  1.2763 -3.3253  0.2227
  550SOL     OW 1648   2.168   1.231   0.318 -0.2562  0.2342  0.5192
  550SOL    HW1 1649   2.183   1.292   0.399 -0.5706 -0.0035  1.3130
  550SOL    HW2 1650   2.258   1.206   0.272  2.2852  0.4507 -1.5411
  551SOL     OW 1651   1.867   0.372   1.530  0.2945  0.0693  0.1135
  551SOL    HW1 1652   1.825   0.404   1.614 -0.1540 -0.3175 -1.4346
  551SOL    HW2 1653   1.830   0.426   1.449 -3.2006 -2.8193 -1.8313
  552SOL     OW 1654   1.628   0.149   2.788  0.4620 -0.0344 -0.3719
  552SOL    HW1 1655   1.676   0.223   2.841  1.5048  0.3642  0.1517
  552SOL    HW2 1656   1.684   0.075   2.749  0.4220  1.6993  0.5948
  553SOL     OW 1657   0.453   2.472   2.030  0.6260  0.3438 -0.0870
  553SOL    HW1 1658   0.434   2.433   2.121  0.7796  0.6965  1.5819
  553SOL    HW2 1659   0.407   2.414   1.958  0.4443  0.7110 -0.8321
  554SOL     OW 1660   0.123   2.979   1.412 -0.3701  0.4691  0.3873
  554SOL    HW1 1661   0.084   3.067   1.383 -1.3757 -4.4977  0.2642
  554SOL    HW2 1662   0.226   2.966   1.385  2.8123 -0.0382 -1.4378
  555SOL     OW 1663   2.575   1.893   2.225  0.2064  0.3039  0.0325
  555SOL    HW1 1664   2.575   1.965   2.149  1.5929  2.0394  1.8739
  555SOL    HW2 1665   2.557   1.803   2.185  1.7929  1.6340 -0.1296
  556SOL     OW 1666   0.998   0.627   0.094 -0.1899  0.5839  0.5573
  556SOL    HW1 1667   1.094   0.627   0.057  2.5430  0.9434 -0.6271
  556SOL    HW2 1668   0.989   0.536   0.137  2.4595  0.1810 -0.8151
  557SOL     OW 1669   0.252   2.034   2.381 -0.0607  0.5277  0.2232
  557SOL    HW1 1670   0.302   2.067   2.299  1.6100  0.1380  0.2389
  557SOL    HW2 1671   0.208   1.946   2.364  2.4652  0.5525  1.8793
  558SOL     OW 1672   1.899   0.626   2.959  0.4079 -0.0033 -0.0287
  558SOL    HW1 1673   1.988   0.589   2.988  1.9022 -0.7551  0.1089
  558SOL    HW2 1674   1.900   0.658   2.862  0.7348 -0.5294  1.0683
  559SOL     OW 1675   2.117   1.797   1.766 -0.1298  0.3856 -0.2038
  559SOL    HW1 1676   2.059   1.810   1.682 -0.3799 -2.6350  0.2739
  559SOL    HW2 1677   2.094   1.860   1.845 -1.9686 -0.0916  2.4524
  560SOL     OW 1678   2.047   1.090   2.074  0.1225 -0.2446  0.0423
  560SOL    HW1 1679   2.031   1.028   1.995  0.9302 -2.2896  1.7134
  560SOL    HW2 1680   2.021   1.188   2.057 -0.3514  2.3589 -1.5037
  561SOL     OW 1681   3.095   0.067   2.843  0.2560 -0.2326 -0.0184
  561SOL    HW1 1682   3.005   0.032   2.883 -0.3868  1.5026  1.0792
  561SOL    HW2 1683   0.040   0.010   2.882 -2.6873  1.9333  0.6842
  562SOL     OW 1684   1.039   1.708   1.434  0.0170 -0.4095  0.1546
  562SOL    HW1 1685   1.118   1.656   1.476  0.9414 -1.3900  1.2797
  562SOL    HW2 1686   1.075   1.801   1.399 -0.7902  3.8527 -0.9986
  563SOL     OW 1687   0.890   0.373   0.095  0.5343 -0.9410  0.4511
  563SOL    HW1 1688   0.855   0.339   0.186 -0.2421 -1.4222  0.8316
  563SOL    HW2 1689   0.809   0.421   0.049 -0.6829 -1.2753 -1.9163
  564SOL     OW 1690   3.042   2.444   0.712  0.0440 -0.0719  0.1055
  564SOL    HW1 1691   3.090   2.383   0.639  0.8689 -2.8210 -0.1595
  564SOL    HW2 1692   2.998   2.528   0.671  0.3104 -0.9267 -2.2125
  565SOL     OW 1693   0.617   2.239   1.153 -0.1437  0.4788 -0.2926
  565SOL    HW1 1694   0.692   2.165   1.155  0.0339 -2.9975  1.4441
  565SOL    HW2 1695   0.589   2.259   1.246  0.1724 -0.8718 -0.6297
  566SOL     OW 1696   1.079   2.960   2.508 -0.2902  0.1139 -0.0525
  566SOL    HW1 1697   1.007   3.001   2.571 -2.9299 -1.3122 -0.2247
  566SOL    HW2 1698   1.079   2.993   2.411 -0.2734 -1.1954 -1.0493
  567SOL     OW 1699   2.208   3.057   0.984  0.8867  0.2471  1.0024
  567SOL    HW1 1700   2.194   2.969   1.035 -1.1052  0.4475  1.3781
  567SOL    HW2 1701   2.249   3.036   0.897 -4.0610  0.2466  2.0405
  568SOL     OW 1702   1.666   1.650   0.618 -0.1323  0.8691  0.2987
  568SOL    HW1 1703   1.736   1.696   0.676 -0.9264 -1.3809 -1.0463
  568SOL    HW2 1704   1.700   1.626   0.523 -2.5192  1.1546  0.0587
  569SOL     OW 1705   2.116   1.084   2.476 -0.0390 -0.4257 -0.5802
  569SOL    HW1 1706   2.048   1.032   2.426  3.7550  0.6768 -0.7452
  569SOL    HW2 1707   2.210   1.065   2.448 -0.6230 -0.9603 -2.6083
  570SOL     OW 1708   3.030   0.086   2.001 -0.2790 -0.3237 -0.4858
  570SOL    HW1 1709   3.040   0.163   2.071  3.8624  0.5299 -0.3882
  570SOL    HW2 1710   3.076   0.003   2.039  1.2206  2.7842  0.6761
  571SOL     OW 1711   0.306   2.930   1.860 -0.2718  0.5907  0.5397
  571SOL    HW1 1712   0.312   2.849   1.920 -0.2791  2.6776  1.9563
  571SOL    HW2 1713   0.248   2.906   1.779 -1.1100  0.8295  0.4149
  572SOL     OW 1714   0.076   2.232   1.489  0.2120  0.1981  0.2906
  572SOL    HW1 1715   0.036   2.328   1.495 -2.0002 -0.0542  1.3189
  572SOL    HW2 1716   0.097   2.205   1.393  2.3165 -1.6522 -2.8063
  573SOL     OW 1717   1.217   1.043   2.904 -0.4215 -0.4511 -0.2670
  573SOL    HW1 1718   1.283   1.047   2.818 -0.5839  1.9441 -1.6785
  573SOL    HW2 1719   1.126   1.079   2.884  0.9930  1.4616 -2.9441
  574SOL     OW 1720   2.446   2.673   2.360 -0.2490 -0.5170 -0.1943
  574SOL    HW1 1721   2.505   2.638   2.287  2.7321  2.1444 -1.5845
  574SOL    HW2 1722   2.353   2.637   2.347  0.4738  0.2882  1.5728
  575SOL     OW 1723   1.361   3.114   0.835 -0.5516  0.3976 -0.0505
  575SOL    HW1 1724   1.398   0.084   0.844  0.1889 -1.1743  0.7597
  575SOL    HW2 1725   1.432   3.047   0.860 -2.1210  2.7406 -1.4165
  576SOL     OW 1726   0.953   0.371   1.128 -0.8379  0.4247 -0.2917
  576SOL    HW1 1727   0.853   0.360   1.114  3.4198  1.8748 -2.7652
  576SOL    HW2 1728   1.005   0.286   1.101 -1.1844 -0.1404  2.3401
  577SOL     OW 1729   2.075   1.719   0.224  0.3974  0.0885  0.3667
  577SOL    HW1 1730   2.167   1.670   0.230  1.1830 -0.6472 -0.1853
  577SOL    HW2 1731   2.005   1.648   0.241 -0.3722 -1.4269 -1.0367
  578SOL     OW 1732   2.149   0.580   1.274 -0.3807  0.3622  0.5596
  578SOL    HW1 1733   2.103   0.603   1.359  0.2075  1.1099 -0.1249
  578SOL    HW2 1734   2.204   0.498   1.291 -1.6906  1.9195  0.7190
  579SOL     OW 1735   1.720   0.930   2.544  0.4750 -0.1759  0.9476
  579SOL    HW1 1736   1.777   0.947   2.459  1.9183 -0.2101  2.2830
  579SOL    HW2 1737   1.698   1.016   2.594 -1.7768 -2.8006  3.8096
  580SOL     OW 1738   1.348   1.183   1.896 -0.3690 -0.5287  0.4989
  580SOL    HW1 1739   1.345   1.178   1.793  0.7827  2.9523 -1.9671
  580SOL    HW2 1740   1.261   1.164   1.939  2.1308  0.0514  0.0165
  581SOL     OW 1741   0.313   0.807   1.090 -0.0497 -0.4950  0.1555
  581SOL    HW1 1742   0.233   0.870   1.104  0.0119  0.4487 -0.3684
  581SOL    HW2 1743   0.291   0.728   1.033 -1.2076  0.0905  2.3394
  582SOL     OW 1744   2.753   0.444   1.973  0.1487 -0.6301 -0.1499
  582SOL    HW1 1745   2.658   0.481   1.969 -1.4621  0.9729 -2.1343
  582SOL    HW2 1746   2.796   0.442   2.065  1.6805 -1.2958 -0.6619
  583SOL     OW 1747   0.133   0.366   2.648 -0.1631 -0.4260 -0.2251
  583SOL    HW1 1748   0.127   0.372   2.750  0.6517 -0.4110  0.9263
  583SOL    HW2 1749   0.121   0.268   2.625 -1.6055 -0.5432 -0.0885
  584SOL     OW 1750   2.049   2.498   0.096 -0.1988  0.4668 -0.5750
  584SOL    HW1 1751   2.102   2.447   0.028  2.5544 -0.9417 -0.2260
  584SOL    HW2 1752   1.954   2.467   0.085 -0.6477  1.0568 -2.4137
  585SOL     OW 1753   0.126   2.417   0.012 -0.0439  0.0202 -0.3461
  585SOL    HW1 1754   0.142   2.320   3.114  1.9256  0.6912 -0.0350
  585SOL    HW2 1755   0.182   2.445   0.095 -1.4803  0.2319  0.6510
  586SOL     OW 1756   1.835   1.941   2.280 -0.2494 -0.0561  0.1797
  586SOL    HW1 1757   1.817   1.884   2.202 -0.1803 -1.1020 -0.2439
  586SOL    HW2 1758   1.924   1.993   2.264  0.6641  1.6454 -2.0174
  587SOL     OW 1759   2.537   1.580   2.818 -0.2162 -0.3046  0.0000
  587SOL    HW1 1760   2.553   1.648   2.745  0.1244 -1.5237 -0.5358
  587SOL    HW2 1761   2.459   1.517   2.799 -1.1342 -1.5618  1.2541
  588SOL     OW 1762   0.003   0.085   1.357 -0.2980  0.5783  0.1485
  588SOL    HW1 1763   0.038   0.049   1.264  0.6488 -1.8462 -0.7019
  588SOL    HW2 1764   0.066   0.151   1.405  0.0711  1.6562  0.2899
  589SOL     OW 1765   0.812   0.364   0.740  0.1615 -0.0072  1.1358
  589SOL    HW1 1766   0.835   0.353   0.642  0.3941 -0.7107 -1.8317
  589SOL    HW2 1767   0.712   0.384   0.733  0.8140 -2.0417  0.0463
  590SOL     OW 1768   2.405   2.073   0.771  0.1094 -0.2945  0.2419
  590SOL    HW1 1769   2.372   2.157   0.721  1.8920 -0.0209 -3.0517
  590SOL    HW2 1770   2.468   2.022   0.708 -1.9278 -0.4089  0.6150
  591SOL     OW 1771   0.616   2.590   0.916 -0.6632 -0.3107 -0.5604
  591SOL    HW1 1772   0.628   2.495   0.938 -1.2179  3.6808  0.6482
  591SOL    HW2 1773   0.686   2.651   0.960 -0.0771  0.1523 -0.5253
  592SOL     OW 1774   1.255   1.035   1.087  0.1380 -0.6515 -0.0364
  592SOL    HW1 1775   1.322   1.016   1.162 -1.7818  1.3789 -0.3711
  592SOL    HW2 1776   1.221   0.952   1.032  0.8863 -1.4589 -1.6315
  593SOL     OW 1777   0.942   2.442   1.600 -0.0414  0.0763  0.3448
  593SOL    HW1 1778   0.898   2.486   1.682 -0.7164  0.7460 -4.3010
  593SOL    HW2 1779   1.044   2.442   1.595  1.6634  0.9356 -0.6830
  594SOL     OW 1780   0.939   1.525   0.060  0.5121 -0.3547  0.2718
  594SOL    HW1 1781   1.024   1.478   0.092 -0.3568  0.0365  0.3125
  594SOL    HW2 1782   0.958   1.626   0.060 -0.3296 -0.5254  0.4337
  595SOL     OW 1783   1.626   1.212   1.558  0.1577  0.1186  0.3792
  595SOL    HW1 1784   1.700   1.243   1.622  0.9771 -2.1720  0.0278
  595SOL    HW2 1785   1.550   1.280   1.571 -0.3648 -0.1576 -3.3595
  596SOL     OW 1786   2.787   1.233   2.153  0.0758  0.3272  0.3479
  596SOL    HW1 1787   2.861   1.222   2.227  0.6764 -1.7796  0.5497
  596SOL    HW2 1788   2.823   1.228   2.060 -0.9401 -1.8658  1.0713
  597SOL     OW 1789   1.507   2.661   1.895 -0.5026  0.2127 -0.0838
  597SOL    HW1 1790   1.412   2.683   1.861 -0.5739  0.3823  0.0054
  597SOL    HW2 1791   1.524   2.687   1.990  0.0386 -0.6788 -0.2455
  598SOL     OW 1792   2.289   1.304   1.577  0.1458 -0.4230  0.2642
  598SOL    HW1 1793   2.354   1.332   1.501  1.7280 -0.4973 -1.9451
  598SOL    HW2 1794   2.198   1.354   1.566  0.2035 -2.0514 -0.1022
  599SOL     OW 1795   0.871   2.535   2.994  0.2782 -0.0161 -0.1369
  599SOL    HW1 1796   0.962   2.573   3.009 -0.8762 -0.4417 -1.6043
  599SOL    HW2 1797   0.820   2.536   3.084  1.3168 -0.1063 -0.1007
  600SOL     OW 1798   2.952   2.125   0.248 -0.9503 -0.7187 -0.0844
  600SOL    HW1 1799   2.893   2.044   0.241  0.3523  1.1813  0.3491
  600SOL    HW2 1800   3.041   2.100   0.293  0.1209 -0.0161  0.4892
  601SOL     OW 1801   0.628   0.997   1.599  0.0136 -0.2070 -0.2749
  601SOL    HW1 1802   0.696   0.924   1.573  0.9304  3.3126 -0.7894
  601SOL    HW2 1803   0.565   0.970   1.670  1.3234  1.8999  1.2967
  602SOL     OW 1804   0.489   0.075   1.356  0.0797  0.3801  0.6001
  602SOL    HW1 1805   0.530   0.135   1.430 -0.6969  2.4668  1.5374
  602SOL    HW2 1806   0.430   0.130   1.291 -2.6860 -0.6206 -0.4766
  603SOL     OW 1807   0.522   3.066   2.804  0.2861  0.7538 -0.3572
  603SOL    HW1 1808   0.462   3.124   2.866 -0.1483 -0.5537  0.2182
  603SOL    HW2 1809   0.489   3.092   2.711  1.4539  2.0374  1.1347
  604SOL     OW 1810   1.258   2.952   1.578 -0.2976  0.1497 -0.0060
  604SOL    HW1 1811   1.287   2.879   1.514 -2.0416  1.6237  1.4325
  604SOL    HW2 1812   1.169   2.986   1.549  0.6637 -0.6553 -1.2957
  605SOL     OW 1813   1.572   1.370   1.917 -0.0131 -1.0210 -0.6371
  605SOL    HW1 1814   1.649   1.333   1.861 -1.2636 -0.7387  1.2480
  605SOL    HW2 1815   1.497   1.302   1.922 -0.1963 -0.9901  2.2429
  606SOL     OW 1816   2.222   2.950   3.048  0.1535 -0.0381  0.0589
  606SOL    HW1 1817   2.217   3.050   3.078  1.1537  1.5447  0.4997
  606SOL    HW2 1818   2.320   2.928   3.026  1.3739 -0.6370  1.2822
  607SOL     OW 1819   0.755   0.187   2.136 -0.4923  0.3160 -0.2191
  607SOL    HW1 1820   0.826   0.162   2.205 -1.4133 -1.0237  0.6791
  607SOL    HW2 1821   0.804   0.225   2.059 -1.9829 -2.6131  1.4208
  608SOL     OW 1822   3.121   2.236   1.924 -0.0333  0.2437  0.7118
  608SOL    HW1 1823   3.117   2.146   1.972  1.7843  1.2684 -0.5953
  608SOL    HW2 1824   0.066   2.225   1.850  3.0018  0.1454 -1.2103
  609SOL     OW 1825   1.133   1.197   0.318 -0.1678  0.0539 -0.5206
  609SOL    HW1 1826   1.166   1.168   0.410 -2.6309  0.1812 -2.4038
  609SOL    HW2 1827   1.136   1.125   0.243  0.7541  0.8660 -2.5415
  610SOL     OW 1828   0.298   2.889   1.085 -0.5806 -0.5502 -0.1692
  610SOL    HW1 1829   0.324   2.960   1.019 -1.6178 -1.9413 -1.1740
  610SOL    HW2 1830   0.314   2.923   1.181 -1.1720 -0.4406  2.6370
  611SOL     OW 1831   1.080   1.700   0.505 -0.6640  0.0603 -0.0443
  611SOL    HW1 1832   1.050   1.604   0.486 -1.0705  0.9471  1.9336
  611SOL    HW2 1833   1.091   1.747   0.410 -0.3481  1.7362 -4.0432
  612SOL     OW 1834   2.077   1.940   0.368 -0.1661  0.1123 -0.2667
  612SOL    HW1 1835   2.098   1.852   0.326  0.1577  0.8471  1.1175
  612SOL    HW2 1836   2.033   1.924   0.457 -1.1775  1.6684 -1.4512
  613SOL     OW 1837   1.683   1.622   0.333  0.2763  0.1585 -0.8671
  613SOL    HW1 1838   1.666   1.722   0.340  0.6532  0.4663  1.9417
  613SOL    HW2 1839   1.631   1.576   0.257  2.3115  1.6682  1.7256
  614SOL     OW 1840   2.698   0.641   2.639  0.0573 -0.0916 -0.4869
  614SOL    HW1 1841   2.667   0.622   2.542 -0.6193 -0.1218  0.3094
  614SOL    HW2 1842   2.796   0.664   2.658  2.3623  1.1248 -0.2517
  615SOL     OW 1843   0.676   1.677   0.537 -0.0204  0.2536 -0.0808
  615SOL    HW1 1844   0.737   1.708   0.460 -0.8969 -2.6876  0.8255
  615SOL    HW2 1845   0.673   1.749   0.607  1.3365  0.8688 -0.0495
  616SOL     OW 1846   1.398   0.999   2.699 -0.3413  0.1022  0.2343
  616SOL    HW1 1847   1.495   1.029   2.707  1.6404 -0.1625 -1.1654
  616SOL    HW2 1848   1.390   0.902   2.707  1.7066  1.3438  1.8401
  617SOL     OW 1849   1.834   0.619   0.471  0.4338 -0.1543 -0.2134
  617SOL    HW1 1850   1.798   0.712   0.492 -0.6833  1.1138  0.4623
  617SOL    HW2 1851   1.780   0.572   0.399  2.2740 -1.1432  0.1151
  618SOL     OW 1852   2.997   1.927   2.343 -0.0656 -0.5723 -0.2423
  618SOL    HW1 1853   3.071   1.865   2.318 -0.6987  1.7715 -0.9471
  618SOL    HW2 1854   2.917   1.874   2.377  1.7102 -1.4856 -0.8996
  619SOL     OW 1855   2.522   1.672   0.747  0.0618  0.1935 -0.0659
  619SOL    HW1 1856   2.485   1.692   0.840 -2.0034 -0.0268  0.5310
  619SOL    HW2 1857   2.533   1.761   0.703 -0.8119 -2.7912  3.3760
  620SOL     OW 1858   2.474   3.019   1.156  0.4060 -0.6045 -0.1695
  620SOL    HW1 1859   2.479   2.989   1.254 -0.1233 -3.0054  2.0971
  620SOL    HW2 1860   2.436   3.117   1.152 -1.0438  2.0265  1.2909
  621SOL     OW 1861   3.059   1.891   0.816  0.0298  0.0817 -0.2383
  621SOL    HW1 1862   3.040   1.873   0.915 -1.6616 -3.1688 -2.3280
  621SOL    HW2 1863   3.069   1.987   0.790  2.3037 -0.6432 -0.0201
  622SOL     OW 1864   0.515   1.799   1.878 -0.0646  0.0021  0.4753
  622SOL    HW1 1865   0.484   1.831   1.785  1.0392  0.9990 -1.5915
  622SOL    HW2 1866   0.564   1.872   1.924  0.3878 -5.3609  0.7596
  623SOL     OW 1867   2.335   2.999   2.171  0.6013  1.0214 -0.2967
  623SOL    HW1 1868   2.266   2.996   2.243  2.1235 -0.2581  0.8697
  623SOL    HW2 1869   2.432   3.031   2.197  0.0302 -1.6721 -0.6164
  624SOL     OW 1870   0.867   2.008   0.370 -0.0284 -0.1339 -0.2194
  624SOL    HW1 1871   0.828   1.918   0.356 -1.2294  3.9260  1.0141
  624SOL    HW2 1872   0.963   2.019   0.339 -1.6644 -1.0550  3.3209
  625SOL     OW 1873   0.784   1.821   2.192 -0.2914 -0.4516 -0.4725
  625SOL    HW1 1874   0.827   1.779   2.108  0.0255  1.0701 -0.0377
  625SOL    HW2 1875   0.741   1.742   2.242 -1.7708  1.9806 -0.1402
  626SOL     OW 1876   0.281   2.289   0.416  0.2843 -0.0598 -0.3358
  626SOL    HW1 1877   0.346   2.302   0.494  1.3001  1.3733  2.7099
  626SOL    HW2 1878   0.318   2.223   0.346 -0.0180 -0.8141 -1.6089
  627SOL     OW 1879   1.307   1.681   2.518 -0.8625  0.4867 -0.7162
  627SOL    HW1 1880   1.338   1.587   2.511 -0.9975  0.6514  3.1465
  627SOL    HW2 1881   1.209   1.676   2.539  1.3580 -0.1777  0.4703
  628SOL     OW 1882   1.398   1.942   0.288 -0.3990  0.0409  0.2178
  628SOL    HW1 1883   1.341   1.929   0.367  1.5275 -2.6696 -1.1377
  628SOL    HW2 1884   1.494   1.920   0.314 -0.0088  2.1283 -4.7780
  629SOL     OW 1885   0.913   0.555   2.172  0.1970 -0.6319 -0.1824
  629SOL    HW1 1886   0.838   0.616   2.211  0.4649 -2.0875 -2.2114
  629SOL    HW2 1887   0.953   0.492   2.238  0.8282  2.5709 -0.0141
  630SOL     OW 1888   2.348   2.744   1.528 -0.1178  0.1167 -0.3970
  630SOL    HW1 1889   2.312   2.760   1.625 -0.9103  1.1613  3.4509
  630SOL    HW2 1890   2.345   2.649   1.493  0.1940  0.0233 -2.0861
  631SOL     OW 1891   1.580   0.889   0.753  0.5314 -0.0460  0.4140
  631SOL    HW1 1892   1.487   0.852   0.776  1.1921 -0.6022 -2.3905
  631SOL    HW2 1893   1.655   0.847   0.809  0.7227 -1.5700  0.5773
  632SOL     OW 1894   2.261   0.482   2.165  0.0641  0.0254 -0.2185
  632SOL    HW1 1895   2.269   0.424   2.250  2.5469  2.6739 -0.3420
  632SOL    HW2 1896   2.214   0.569   2.188 -0.9061  0.2847 -1.1823
  633SOL     OW 1897   1.673   1.245   3.023  0.4854 -0.2090 -0.1461
  633SOL    HW1 1898   1.580   1.219   2.987  1.6931 -0.6266  0.4745
  633SOL    HW2 1899   1.742   1.212   2.958 -1.5082  1.3735 -1.2843
  634SOL     OW 1900   0.346   2.139   0.164  0.9230 -0.5821  1.4937
  634SOL    HW1 1901   0.445   2.119   0.147  1.2533  0.7405  0.4760
  634SOL    HW2 1902   0.290   2.131   0.077 -1.1748 -2.8724 -3.2963
  635SOL     OW 1903   2.833   1.637   2.136  0.4077  0.2406  0.2709
  635SOL    HW1 1904   2.911   1.568   2.138  2.2904 -2.1660 -0.4352
  635SOL    HW2 1905   2.745   1.594   2.158 -0.5732 -0.0411  1.5222
  636SOL     OW 1906   0.318   1.768   2.729  0.7697  0.2807  0.3489
  636SOL    HW1 1907   0.313   1.671   2.698 -2.0115 -2.8202 -1.2609
  636SOL    HW2 1908   0.371   1.820   2.658 -2.0018 -0.5188 -0.7136
  637SOL     OW 1909   0.096   1.984   0.308 -0.1337 -0.4903  0.6551
  637SOL    HW1 1910   0.164   2.041   0.254  4.1718  1.0978 -0.4992
  637SOL    HW2 1911   0.131   1.976   0.405  1.8022  2.0230  1.2572
  638SOL     OW 1912   2.452   2.482   0.486 -0.7763  0.3226  0.2673
  638SOL    HW1 1913   2.488   2.574   0.519  0.8175 -0.0135  2.3759
  638SOL    HW2 1914   2.379   2.490   0.418  0.9458 -1.1184  2.0298
  639SOL     OW 1915   0.820   0.714   0.260 -0.3253  0.3635  0.2393
  639SOL    HW1 1916   0.890   0.700   0.189  1.6572  2.1098 -0.3982
  639SOL    HW2 1917   0.866   0.746   0.344 -1.8801 -3.4851  0.1087
  640SOL     OW 1918   2.361   2.290   1.837 -0.8888 -0.2268 -0.0621
  640SOL    HW1 1919   2.462   2.286   1.844 -1.4070  1.7281 -0.5943
  640SOL    HW2 1920   2.327   2.311   1.740 -1.4023  1.1109 -0.0523
  641SOL     OW 1921   2.394   2.692   1.169 -0.2758 -0.7173 -0.0590
  641SOL    HW1 1922   2.408   2.793   1.160  0.3723  2.1570  0.3879
  641SOL    HW2 1923   2.385   2.664   1.264  0.7037 -0.7486  0.7804
  642SOL     OW 1924   0.968   1.070   1.589  0.3548  0.1115  0.0827
  642SOL    HW1 1925   0.890   1.007   1.572  0.2231  1.5892  1.3956
  642SOL    HW2 1926   1.030   1.083   1.511  1.5791 -0.1299  2.6731
  643SOL     OW 1927   0.853   1.414   1.999 -0.2850 -0.5361  0.3031
  643SOL    HW1 1928   0.788   1.370   2.065 -1.0597  0.8747 -0.5195
  643SOL    HW2 1929   0.844   1.370   1.909 -0.2546 -0.6611 -1.0206
  644SOL     OW 1930   0.928   0.163   2.341  0.4288 -0.4680 -0.3779
  644SOL    HW1 1931   0.955   0.261   2.335 -1.1273 -0.4567  3.4017
  644SOL    HW2 1932   1.008   0.096   2.327  1.8415 -1.4514  1.0856
  645SOL     OW 1933   2.022   1.142   1.441  0.3385 -0.1134 -0.7323
  645SOL    HW1 1934   1.946   1.118   1.374  1.9996 -1.4985  0.1160
  645SOL    HW2 1935   2.017   1.238   1.476  1.2667 -0.0677  2.0070
  646SOL     OW 1936   1.794   2.434   0.042 -0.3108  0.1872 -0.8184
  646SOL    HW1 1937   1.792   2.462   3.068  1.3258  0.4666 -1.3670
  646SOL    HW2 1938   1.747   2.341   0.052  1.8108 -0.5241  0.9434
  647SOL     OW 1939   1.647   2.800   0.594  0.2627 -0.2431  0.3012
  647SOL    HW1 1940   1.735   2.781   0.645  1.9107 -1.3637  0.8941
  647SOL    HW2 1941   1.601   2.710   0.574  0.9463 -0.4738  1.8671
  648SOL     OW 1942   0.241   2.590   1.525  0.4093  0.0437  0.2619
  648SOL    HW1 1943   0.230   2.690   1.547 -1.0948  1.0885 -0.1870
  648SOL    HW2 1944   0.154   2.559   1.489  0.0284 -1.7983 -1.9641
  649SOL     OW 1945   1.155   2.574   3.069 -0.2512  0.0988  0.2017
  649SOL    HW1 1946   1.208   2.492   3.095 -0.7051 -1.6434 -0.9144
  649SOL    HW2 1947   1.115   2.625   0.018  0.1599  1.1052 -1.1948
  650SOL     OW 1948   2.738   1.660   0.004  0.5215 -0.1972 -0.2424
  650SOL    HW1 1949   2.714   1.566   3.107 -0.6581  1.0854  4.0574
  650SOL    HW2 1950   2.789   1.655   0.093 -1.7206  0.4550  1.2337
  651SOL     OW 1951   2.411   2.274   2.287  0.2639 -0.0596 -0.0796
  651SOL    HW1 1952   2.510   2.268   2.255 -0.0236 -2.5369  0.8110
  651SOL    HW2 1953   2.401   2.212   2.370  2.3277 -1.3088  5.0909
  652SOL     OW 1954   2.711   2.410   0.509  0.4894  0.4918  0.0768
  652SOL    HW1 1955   2.615   2.436   0.489  2.0483  0.2607 -2.3859
  652SOL    HW2 1956   2.745   2.375   0.422 -0.9093 -1.4650  2.8606
  653SOL     OW 1957   2.423   1.829   1.361  0.0625  0.2547  0.4172
  653SOL    HW1 1958   2.494   1.850   1.288  0.1238 -0.0107 -1.3195
  653SOL    HW2 1959   2.434   1.740   1.409 -0.2189  1.4864 -2.5434
  654SOL     OW 1960   0.847   1.043   0.408  0.0228 -0.1490  0.8140
  654SOL    HW1 1961   0.907   0.980   0.464  1.1766  0.1258 -0.0939
  654SOL    HW2 1962   0.899   1.087   0.331 -0.2874  0.0516 -0.4241
  655SOL     OW 1963   1.350   1.320   0.713 -0.1785  0.1339 -0.0844
  655SOL    HW1 1964   1.440   1.288   0.687  0.5579  1.5167  0.6274
  655SOL    HW2 1965   1.358   1.419   0.719 -0.8238  0.8008  1.2966
  656SOL     OW 1966   1.569   2.719   2.149 -0.1403  0.1671 -0.2534
  656SOL    HW1 1967   1.493   2.751   2.207  2.1352  0.2071 -1.5727
  656SOL    HW2 1968   1.610   2.624   2.167 -0.2055  0.2363  1.9143
  657SOL     OW 1969   1.914   1.461   0.616 -0.3179 -0.1026  0.3556
  657SOL    HW1 1970   1.897   1.361   0.624  1.1863 -0.1525 -3.6072
  657SOL    HW2 1971   1.916   1.490   0.517  1.2783  1.5155  0.7293
  658SOL     OW 1972   2.034   0.032   1.750  0.4032  0.1121 -0.0559
  658SOL    HW1 1973   2.071   3.093   1.817  0.5665 -0.9262 -2.5399
  658SOL    HW2 1974   2.051   3.118   1.659  0.6201  1.4180  4.0854
  659SOL     OW 1975   2.874   1.637   0.235  0.3866 -0.2365 -0.2880
  659SOL    HW1 1976   2.946   1.567   0.224 -0.8023  0.9327 -1.3273
  659SOL    HW2 1977   2.828   1.627   0.324 -1.7254  0.6816 -1.2518
  660SOL     OW 1978   1.192   0.209   1.027  0.0662  0.3284  0.4297
  660SOL    HW1 1979   1.202   0.147   1.106  1.4250 -1.0597 -0.7830
  660SOL    HW2 1980   1.283   0.213   0.976 -1.2885  1.7938 -0.1179
  661SOL     OW 1981   1.796   0.510   0.049  0.1804  0.4081  0.1818
  661SOL    HW1 1982   1.865   0.503   0.123 -0.6617 -0.6961 -2.1120
  661SOL    HW2 1983   1.828   0.568   3.096 -1.8486  0.5558 -2.3219
  662SOL     OW 1984   0.474   0.006   0.524 -0.1795  0.5103 -0.2124
  662SOL    HW1 1985   0.406   0.017   0.602 -1.5351 -0.4137  2.4759
  662SOL    HW2 1986   0.500   3.032   0.516 -0.1723 -0.1598 -0.1551
  663SOL     OW 1987   1.442   2.498   2.890 -0.6436 -0.3245 -0.2632
  663SOL    HW1 1988   1.345   2.503   2.866  1.0755  0.5986  1.8841
  663SOL    HW2 1989   1.496   2.452   2.814  1.9733 -0.3614  2.4127
  664SOL     OW 1990   0.466   2.691   1.380  0.0654  0.2248  0.0147
  664SOL    HW1 1991   0.435   2.612   1.437 -1.7501  0.2068 -0.2357
  664SOL    HW2 1992   0.451   2.667   1.284  3.5680  1.0954  3.3104
  665SOL     OW 1993   1.692   2.880   1.186 -1.2349  0.0749  0.5375
  665SOL    HW1 1994   1.625   2.952   1.149 -0.4363 -1.0479  1.4421
  665SOL    HW2 1995   1.786   2.921   1.194  1.8813 -2.7001  0.4585
  666SOL     OW 1996   0.931   2.312   2.819  0.1332  0.0385  0.4574
  666SOL    HW1 1997   0.913   2.393   2.879 -0.2895  2.1449  0.2683
  666SOL    HW2 1998   0.886   2.229   2.854  0.2296  1.0231 -0.4000
  667SOL     OW 1999   2.963   0.530   1.525  0.1893  0.1537  0.1737
  667SOL    HW1 2000   2.890   0.499   1.593 -0.5724 -0.1480  0.9103
  667SOL    HW2 2001   3.060   0.533   1.561 -1.3729 -0.0306  0.3160
  668SOL     OW 2002   1.216   0.485   1.644  0.4570 -0.3207  0.5807
  668SOL    HW1 2003   1.118   0.511   1.613 -2.7953  1.8716  1.1051
  668SOL    HW2 2004   1.220   0.401   1.704 -0.5263 -0.9133 -0.4584
  669SOL     OW 2005   1.669   2.746   1.412 -0.3171  0.6558  0.5120
  669SOL    HW1 2006   1.642   2.792   1.498 -0.6972  1.8692 -1.2787
  669SOL    HW2 2007   1.684   2.815   1.338  2.0109  1.6975 -1.8090
  670SOL     OW 2008   1.781   2.425   2.867 -0.5055  0.0615  0.1988
  670SOL    HW1 2009   1.700   2.401   2.807 -0.0616  0.0380  0.4948
  670SOL    HW2 2010   1.841   2.503   2.831  0.3076  1.9230 -1.6550
  671SOL     OW 2011   0.303   1.288   2.930  0.1634  0.2718 -0.8387
  671SOL    HW1 2012   0.246   1.374   2.919  0.8650  0.4744  0.2907
  671SOL    HW2 2013   0.393   1.302   2.880  0.5974  1.7437 -1.6987
  672SOL     OW 2014   2.603   0.532   2.875 -0.1881  0.1590  0.3111
  672SOL    HW1 2015   2.626   0.612   2.933 -0.5143  1.6916 -0.0484
  672SOL    HW2 2016   2.614   0.558   2.775 -1.0162 -0.6208  0.9105
  673SOL     OW 2017   0.005   1.944   1.249 -0.2000  0.7102 -0.1107
  673SOL    HW1 2018   3.091   1.952   1.345 -0.6598 -1.0506  2.5800
  673SOL    HW2 2019   3.107   2.021   1.185 -1.2349 -0.5724  1.3387
  674SOL     OW 2020   1.360   2.219   1.560 -0.0559 -0.5474 -0.0381
  674SOL    HW1 2021   1.364   2.181   1.653  0.4379  2.2511 -1.4216
  674SOL    HW2 2022   1.376   2.148   1.489 -0.8777  0.5929  0.1297
  675SOL     OW 2023   1.187   1.535   1.103 -0.0454  0.6610  0.7139
  675SOL    HW1 2024   1.192   1.606   1.028  2.6404 -0.0795 -1.0846
  675SOL    HW2 2025   1.207   1.448   1.057  1.4425  0.1890  0.8434
  676SOL     OW 2026   2.492   0.672   0.911  0.0102 -0.2092 -0.4201
  676SOL    HW1 2027   2.441   0.756   0.941  0.9260  2.3413  3.8137
  676SOL    HW2 2028   2.518   0.623   0.997  1.5400  1.9806  0.3369
  677SOL     OW 2029   2.642   0.273   0.357  0.3983 -0.2206  0.7741
  677SOL    HW1 2030   2.663   0.173   0.352  0.3859 -0.0083  1.7208
  677SOL    HW2 2031   2.681   0.324   0.279  1.7538  1.4883  0.8913
  678SOL     OW 2032   2.529   1.108   1.193  0.0240 -0.2797  0.2154
  678SOL    HW1 2033   2.518   1.207   1.165 -2.4195  1.6710 -1.6569
  678SOL    HW2 2034   2.609   1.109   1.257  1.7842 -1.3020 -0.7722
  679SOL     OW 2035   2.755   0.413   0.158 -0.3258  0.5695 -0.6716
  679SOL    HW1 2036   2.702   0.475   0.104 -0.3561 -4.0615  0.8443
  679SOL    HW2 2037   2.850   0.415   0.138 -3.5713 -0.9715  1.5706
  680SOL     OW 2038   0.697   1.576   2.262 -0.1810  0.4350 -0.3690
  680SOL    HW1 2039   0.624   1.616   2.203 -0.1350 -0.2955 -2.9539
  680SOL    HW2 2040   0.749   1.502   2.221 -0.1553  2.2702  0.1770
  681SOL     OW 2041   2.646   2.205   1.520  0.2358 -0.6523  0.3697
  681SOL    HW1 2042   2.657   2.303   1.547  0.0425 -2.0225  0.7635
  681SOL    HW2 2043   2.551   2.173   1.536  3.0419 -0.8516 -0.3337
  682SOL     OW 2044   0.644   1.804   2.583  0.0035 -0.8608  0.2918
  682SOL    HW1 2045   0.687   1.806   2.674  0.2333 -0.6848 -1.9635
  682SOL    HW2 2046   0.597   1.897   2.563 -0.0582  0.5489 -0.0044
  683SOL     OW 2047   2.628   1.923   1.182  0.5199 -0.2439 -0.0334
  683SOL    HW1 2048   2.642   1.919   1.079  1.7247 -1.0137 -0.5212
  683SOL    HW2 2049   2.637   2.022   1.215 -3.3464  1.9578  1.3574
  684SOL     OW 2050   2.791   1.506   1.710  0.4348 -0.0323 -0.1733
  684SOL    HW1 2051   2.886   1.510   1.738 -0.8782  0.1864 -1.2483
  684SOL    HW2 2052   2.750   1.413   1.718  1.8780  2.6756  0.1642
  685SOL     OW 2053   0.941   1.073   1.059  0.7471  0.1553  0.4325
  685SOL    HW1 2054   0.946   1.121   0.966  1.5400  0.3747 -3.1558
  685SOL    HW2 2055   0.867   1.113   1.116  0.4375  0.3576  0.2426
  686SOL     OW 2056   0.938   3.056   2.703  0.2958 -0.3186 -0.1942
  686SOL    HW1 2057   0.959   3.033   2.798 -2.6082 -1.4348  2.4295
  686SOL    HW2 2058   0.943   0.033   2.687  0.9458 -0.8804 -1.2852
  687SOL     OW 2059   0.620   2.003   2.027 -0.2598  0.1930  0.1701
  687SOL    HW1 2060   0.664   2.058   1.954  1.4184 -0.2567  1.3830
  687SOL    HW2 2061   0.683   1.970   2.103 -0.8122  0.1636  0.0861
  688SOL     OW 2062   2.141   0.394   1.512 -0.4041 -0.1274  0.2733
  688SOL    HW1 2063   2.045   0.397   1.519  2.8807 -1.3539  0.1111
  688SOL    HW2 2064   2.186   0.468   1.570  1.3022  1.0446  0.7805
  689SOL     OW 2065   2.035   0.790   0.746 -0.1495 -0.6299  0.3216
  689SOL    HW1 2066   1.939   0.759   0.765  0.3186 -0.3825  2.6708
  689SOL    HW2 2067   2.104   0.739   0.800 -0.0967  1.7544  1.5730
  690SOL     OW 2068   2.928   0.788   1.404  0.3135  0.1423 -0.3658
  690SOL    HW1 2069   2.972   0.785   1.316 -3.7508 -1.4998  1.1648
  690SOL    HW2 2070   2.900   0.693   1.434 -0.7633  0.8704  2.3870
  691SOL     OW 2071   3.032   0.968   2.094 -0.0749 -0.2735  0.2103
  691SOL    HW1 2072   3.038   1.068   2.068  1.2819 -0.1421  2.2113
  691SOL    HW2 2073   2.987   0.909   2.024  0.7138  0.6703 -0.9851
  692SOL     OW 2074   0.741   1.022   2.024 -0.1525  0.1002 -0.0097
  692SOL    HW1 2075   0.762   1.115   2.061 -0.3019  2.5409 -0.8222
  692SOL    HW2 2076   0.813   1.009   1.949  1.4939  2.1829 -0.7851
  693SOL     OW 2077   0.492   1.175   1.947 -0.3801  0.8299  0.3440
  693SOL    HW1 2078   0.494   1.075   1.942 -1.1180 -2.0580 -0.2099
  693SOL    HW2 2079   0.415   1.205   1.999 -0.0665 -2.7210 -0.6274
  694SOL     OW 2080   1.525   1.923   0.650  0.0353  0.0075  0.1682
  694SOL    HW1 2081   1.558   1.827   0.641 -0.2210  1.9058 -0.2769
  694SOL    HW2 2082   1.528   1.954   0.747 -1.7278 -0.0736  0.7256
  695SOL     OW 2083   0.096   0.956   1.156 -0.1402  0.5363 -0.0620
  695SOL    HW1 2084   0.086   1.008   1.066  1.8912  1.5237 -1.7798
  695SOL    HW2 2085   0.010   0.902   1.160 -0.2725 -2.6984 -0.5290
  696SOL     OW 2086   0.792   2.547   0.673 -0.5337 -0.4332  0.2732
  696SOL    HW1 2087   0.723   2.490   0.715  0.0987  0.5768  1.6454
  696SOL    HW2 2088   0.891   2.518   0.682  0.9237  0.8401  0.0827
  697SOL     OW 2089   1.298   0.843   1.578 -0.3358  0.0872  0.2809
  697SOL    HW1 2090   1.312   0.933   1.537  1.5180  0.0129  1.2705
  697SOL    HW2 2091   1.225   0.792   1.539  2.1161  1.8095  0.3418
  698SOL     OW 2092   1.827   1.574   1.625 -0.0702 -0.3969 -0.0498
  698SOL    HW1 2093   1.805   1.657   1.680  0.3825 -0.0449  0.7581
  698SOL    HW2 2094   1.809   1.604   1.525  0.9146  0.0160 -3.0188
  699SOL     OW 2095   0.161   0.660   2.709 -0.4252  0.5789  0.1809
  699SOL    HW1 2096   0.137   0.566   2.679  0.0381  0.2113  0.1132
  699SOL    HW2 2097   0.151   0.671   2.812 -1.3476  2.1753 -1.7825
  700SOL     OW 2098   1.557   2.563   0.502 -0.0084  0.3424  0.3894
  700SOL    HW1 2099   1.620   2.558   0.423  0.1232 -1.6808 -1.0751
  700SOL    HW2 2100   1.476   2.505   0.483  1.8269 -1.0875 -0.5269
  701SOL     OW 2101   0.073   1.502   2.376 -0.0903 -0.2845  0.7142
  701SOL    HW1 2102   0.043   1.488   2.470  1.1736  0.0353 -0.0212
  701SOL    HW2 2103   0.175   1.483   2.366  1.1511  0.1640 -0.8625
  702SOL     OW 2104   0.687   0.058   0.037 -0.1012 -0.1715 -0.7355
  702SOL    HW1 2105   0.707   0.083   3.065 -0.1484 -2.4263 -2.0424
  702SOL    HW2 2106   0.610   0.119   0.060 -0.3700 -0.2370  0.0660
  703SOL     OW 2107   1.406   0.435   2.953  0.0836 -0.0242 -0.6761
  703SOL    HW1 2108   1.494   0.406   2.982 -1.0431 -0.4078  1.8468
  703SOL    HW2 2109   1.398   0.407   2.856  1.8481 -1.4087  1.3625
  704SOL     OW 2110   2.941   1.474   0.972  0.0361  0.1516 -0.1305
  704SOL    HW1 2111   2.861   1.532   0.999  0.1689 -2.6342  2.8519
  704SOL    HW2 2112   3.014   1.486   1.040 -0.6401 -0.3504 -2.7720
  705SOL     OW 2113   2.505   2.012   1.967 -0.1214  0.0771 -0.2622
  705SOL    HW1 2114   2.435   2.077   2.005  1.5575  0.4798  1.3708
  705SOL    HW2 2115   2.470   1.956   1.890  0.3587  2.5697 -0.3327
  706SOL     OW 2116   0.039   2.563   0.917 -0.5086 -0.0546  0.4115
  706SOL    HW1 2117   0.069   2.657   0.891  0.9243  2.4075 -0.9571
  706SOL    HW2 2118   3.108   2.518   0.841 -0.8169 -0.2303 -1.1916
  707SOL     OW 2119   1.137   3.010   0.005  0.4452  0.3718 -0.4925
  707SOL    HW1 2120   1.231   2.979   0.024 -3.5708 -0.2713 -0.3157
  707SOL    HW2 2121   1.103   3.068   0.082 -1.4977 -0.5059 -1.1497
  708SOL     OW 2122   0.763   2.228   1.606 -0.3991 -0.1502 -0.6415
  708SOL    HW1 2123   0.807   2.323   1.611  1.6972  1.1867  1.7705
  708SOL    HW2 2124   0.665   2.245   1.589 -0.9837  0.3724  1.4437
  709SOL     OW 2125   2.021   0.379   2.615  0.3537  0.1950  0.0045
  709SOL    HW1 2126   1.923   0.391   2.642  0.6305  2.2700 -0.1094
  709SOL    HW2 2127   2.073   0.464   2.625 -1.1019  0.1919  0.3574
  710SOL     OW 2128   1.060   2.683   2.593 -0.1408  0.1549  0.2183
  710SOL    HW1 2129   1.028   2.765   2.536 -1.3704 -1.5775 -1.7717
  710SOL    HW2 2130   1.084   2.719   2.685  0.4200  2.0371  0.7961
  711SOL     OW 2131   1.107   2.279   2.616 -0.2989 -0.4806 -0.4567
  711SOL    HW1 2132   1.094   2.348   2.543  1.7236 -0.9158  2.2901
  711SOL    HW2 2133   1.047   2.287   2.695  1.9865  0.4254 -2.5292
  712SOL     OW 2134   1.321   1.954   2.820  0.3288 -0.0046  0.5336
  712SOL    HW1 2135   1.233   1.978   2.771 -1.4548  0.4013  2.1800
  712SOL    HW2 2136   1.305   1.876   2.887  1.5349  0.1527 -0.6354
  713SOL     OW 2137   0.922   0.982   1.839  0.1569  0.4463 -0.3086
  713SOL    HW1 2138   0.956   1.016   1.749 -1.1263 -2.0993  2.8209
  713SOL    HW2 2139   0.983   0.909   1.877  2.3609 -2.7196  0.6047
  714SOL     OW 2140   1.554   2.041   0.911 -0.1287 -0.2081 -0.2919
  714SOL    HW1 2141   1.646   2.075   0.932  0.3078  3.3241 -1.0533
  714SOL    HW2 2142   1.517   1.981   0.986 -0.9835  2.1305  0.5010
  715SOL     OW 2143   0.129   0.509   0.706 -0.3922 -0.3717  0.1985
  715SOL    HW1 2144   0.108   0.409   0.704  0.5589  1.1137 -1.0315
  715SOL    HW2 2145   0.103   0.547   0.614  1.1323 -0.5875 -0.9590
  716SOL     OW 2146   0.781   2.557   0.334 -0.0269 -0.1805  0.4321
  716SOL    HW1 2147   0.765   2.657   0.357 -2.8349  1.0908 -1.3681
  716SOL    HW2 2148   0.790   2.512   0.423  1.2287  0.2023 -1.0422
  717SOL     OW 2149   0.140   0.312   0.349  1.1673  0.4175 -0.1094
  717SOL    HW1 2150   0.103   0.258   0.269 -1.0855  0.2191  0.8339
  717SOL    HW2 2151   0.236   0.294   0.371 -3.6583  1.4956  0.6968
  718SOL     OW 2152   1.739   2.375   1.160 -0.5955  0.3026  0.1911
  718SOL    HW1 2153   1.637   2.373   1.172  1.4810  0.0046  0.7676
  718SOL    HW2 2154   1.779   2.371   1.250 -3.1987  0.7849 -2.6783
  719SOL     OW 2155   2.911   2.332   0.947  0.1382 -0.0236 -0.5108
  719SOL    HW1 2156   2.883   2.242   0.910 -1.9515  0.5654  1.4800
  719SOL    HW2 2157   2.958   2.383   0.874 -1.6579 -1.1146  0.5769
  720SOL     OW 2158   1.222   1.308   0.957 -0.8420 -0.2041  0.3325
  720SOL    HW1 2159   1.283   1.322   0.877  0.5361 -0.6568  0.6117
  720SOL    HW2 2160   1.255   1.220   1.003  3.1314 -1.6043 -0.2364
  721SOL     OW 2161   0.929   0.630   1.084  0.1590 -0.1683  0.1088
  721SOL    HW1 2162   0.825   0.634   1.077 -2.5052 -0.0157 -2.0173
  721SOL    HW2 2163   0.963   0.533   1.093 -1.8603  2.1181  1.7175
  722SOL     OW 2164   1.098   1.089   1.344 -0.0993 -0.3636 -0.1952
  722SOL    HW1 2165   1.193   1.113   1.378  1.1776  0.2975 -2.1113
  722SOL    HW2 2166   1.100   1.070   1.244  0.3054  1.2295 -1.1948
  723SOL     OW 2167   0.953   0.010   1.601  0.4185  0.3022  0.1246
  723SOL    HW1 2168   0.940   0.001   1.498  0.2982 -1.3273 -1.7218
  723SOL    HW2 2169   0.913   3.055   1.644  0.1140 -0.3428 -0.8210
  724SOL     OW 2170   1.914   2.134   1.738  0.1752 -0.1194  0.6134
  724SOL    HW1 2171   1.978   2.117   1.813  0.4741 -2.2061  1.2728
  724SOL    HW2 2172   1.874   2.045   1.700 -0.2439 -0.5719  1.2430
  725SOL     OW 2173   0.912   2.822   1.292  0.1832 -0.2740  0.9973
  725SOL    HW1 2174   0.982   2.752   1.311  1.7433 -0.4924 -1.2740
  725SOL    HW2 2175   0.819   2.802   1.333  0.1235  0.3237  2.4696
  726SOL     OW 2176   1.552   0.477   0.431  0.2687 -0.4132 -0.7000
  726SOL    HW1 2177   1.504   0.408   0.489 -0.0042 -0.5064 -3.5247
  726SOL    HW2 2178   1.562   0.447   0.337  1.2381 -0.0915  3.9588
  727SOL     OW 2179   1.395   2.274   0.853 -0.6277  0.1115  0.2404
  727SOL    HW1 2180   1.457   2.353   0.841  1.2375 -1.4978 -0.8996
  727SOL    HW2 2181   1.444   2.191   0.882 -1.5244  0.0226 -0.7709
  728SOL     OW 2182   1.682   0.295   2.392  0.2856 -0.5106 -0.1011
  728SOL    HW1 2183   1.652   0.202   2.420  0.3618  0.2368  0.4912
  728SOL    HW2 2184   1.753   0.293   2.323 -1.7312  2.5031  1.2688
  729SOL     OW 2185   2.529   1.372   1.116 -0.2829 -0.2737 -0.1101
  729SOL    HW1 2186   2.467   1.381   1.036 -3.0564 -0.2922  0.6296
  729SOL    HW2 2187   2.610   1.422   1.087 -0.5746 -1.6319  0.0395
  730SOL     OW 2188   2.195   0.976   2.739  0.0655 -0.0111 -0.0163
  730SOL    HW1 2189   2.164   1.009   2.652 -0.9054  0.6716  0.8562
  730SOL    HW2 2190   2.139   0.893   2.764 -1.4721 -3.7621  1.7897
  731SOL     OW 2191   0.442   0.181   1.861  0.3237 -0.0773 -0.2784
  731SOL    HW1 2192   0.501   0.122   1.806  0.4524  2.1743  1.8343
  731SOL    HW2 2193   0.346   0.149   1.861  2.6636 -1.5278  2.4829
  732SOL     OW 2194   1.864   0.399   1.145 -0.0493  0.5172  0.3470
  732SOL    HW1 2195   1.858   0.474   1.216 -1.3412 -2.0363  0.3911
  732SOL    HW2 2196   1.912   0.420   1.057 -0.7746  0.0062 -0.5975
  733SOL     OW 2197   0.818   1.307   1.761 -0.6168 -0.0725  0.3320
  733SOL    HW1 2198   0.722   1.300   1.724 -1.2727 -1.0989 -0.8418
  733SOL    HW2 2199   0.871   1.224   1.739 -0.3150 -0.6030 -1.0006
  734SOL     OW 2200   2.502   1.556   0.318 -0.0510  0.3441 -0.1744
  734SOL    HW1 2201   2.442   1.600   0.250 -0.2222 -1.0586 -1.1346
  734SOL    HW2 2202   2.573   1.623   0.356 -2.0015  2.5996  1.3057
  735SOL     OW 2203   0.608   0.919   0.298  0.1508  0.1325  0.2079
  735SOL    HW1 2204   0.655   0.993   0.346  2.2134 -1.4367  1.8140
  735SOL    HW2 2205   0.676   0.848   0.280 -0.9265  1.0036  0.6430
  736SOL     OW 2206   1.790   2.886   3.073  0.7027  0.1378 -0.3320
  736SOL    HW1 2207   1.869   2.838   3.035 -2.8060  0.0647 -3.0844
  736SOL    HW2 2208   1.705   2.825   3.069 -3.0972  0.6888  0.1901
  737SOL     OW 2209   1.160   2.189   0.993 -0.5757 -0.6917 -0.4055
  737SOL    HW1 2210   1.141   2.087   1.004 -1.1603  0.5406  0.3670
  737SOL    HW2 2211   1.255   2.197   0.956 -0.0777 -1.1403  0.5432
  738SOL     OW 2212   2.111   0.123   2.688 -0.1089 -0.5694  0.1927
  738SOL    HW1 2213   2.176   0.116   2.611  0.8083 -0.5751 -2.7627
  738SOL    HW2 2214   2.067   0.213   2.680 -0.1396 -1.4827 -3.3461
  739SOL     OW 2215   1.679   2.266   2.483  0.0859 -0.1394  0.4471
  739SOL    HW1 2216   1.648   2.195   2.417 -1.1370  0.7230  1.2031
  739SOL    HW2 2217   1.757   2.320   2.443  1.1299 -1.1014 -3.2912
  740SOL     OW 2218   1.792   2.324   1.878  0.4168 -0.2777 -0.7252
  740SOL    HW1 2219   1.762   2.393   1.811 -1.5705 -3.7821  0.0993
  740SOL    HW2 2220   1.813   2.239   1.834 -0.3147 -0.4985  1.0474
  741SOL     OW 2221   2.354   2.116   2.519 -0.5095 -0.6499  0.0160
  741SOL    HW1 2222   2.309   2.052   2.579 -0.2886 -0.0988 -0.8079
  741SOL    HW2 2223   2.360   2.211   2.556  0.1902  0.2823  4.9476
  742SOL     OW 2224   1.163   1.508   2.782  0.7105 -0.0222  0.4459
  742SOL    HW1 2225   1.203   1.429   2.732 -1.6730 -1.3569 -1.6971
  742SOL    HW2 2226   1.114   1.565   2.716 -0.3008 -0.8023 -2.7257
  743SOL     OW 2227   1.487   1.349   2.775  0.0138  0.3525  0.1805
  743SOL    HW1 2228   1.444   1.321   2.866  2.7261 -0.8664 -0.7098
  743SOL    HW2 2229   1.541   1.434   2.787 -2.2137 -0.0152 -1.7169
  744SOL     OW 2230   2.138   2.829   1.115  0.0084  0.1516  0.1948
  744SOL    HW1 2231   2.142   2.827   1.215 -1.5255 -0.8956 -3.7297
  744SOL    HW2 2232   2.191   2.751   1.078  3.4034  0.7152  2.4397
  745SOL     OW 2233   2.684   1.029   0.960 -0.6607 -0.0600 -0.1956
  745SOL    HW1 2234   2.636   1.038   1.048  0.3254  3.2960 -0.7882
  745SOL    HW2 2235   2.732   1.118   0.940  1.0289  0.6350 -0.6957
  746SOL     OW 2236   2.439   1.682   1.000 -0.0606  0.7739  0.1242
  746SOL    HW1 2237   2.349   1.644   0.978  0.7272 -0.0171  0.3476
  746SOL    HW2 2238   2.418   1.779   1.022  2.7129  1.5063  2.4569
  747SOL     OW 2239   1.737   0.185   0.118 -0.1950  0.2631 -0.2906
  747SOL    HW1 2240   1.809   0.229   0.177  0.1435  1.1026 -0.1978
  747SOL    HW2 2241   1.792   0.145   0.041  3.2015  0.3540 -0.9467
  748SOL     OW 2242   0.684   1.529   0.029 -0.2420 -0.2721  0.4892
  748SOL    HW1 2243   0.659   1.500   3.062  1.7779 -1.1995  0.0123
  748SOL    HW2 2244   0.784   1.523   0.040 -2.1016  1.1912 -0.8377
  749SOL     OW 2245   2.899   0.487   2.211 -0.3150 -0.4729  0.3154
  749SOL    HW1 2246   2.823   0.525   2.266  1.6050  0.3989 -2.1550
  749SOL    HW2 2247   2.991   0.532   2.244  0.2456 -2.6130  1.0386
  750SOL     OW 2248   1.076   0.790   1.979  0.1670 -0.0562  0.7045
  750SOL    HW1 2249   1.049   0.709   2.033 -0.8118  0.1576 -0.1792
  750SOL    HW2 2250   1.156   0.777   1.918  0.1876 -0.3665  2.7039
  751SOL     OW 2251   2.283   2.541   2.024  0.0084 -0.4890  0.9605
  751SOL    HW1 2252   2.299   2.474   1.946 -0.0433  0.8273 -2.7239
  751SOL    HW2 2253   2.345   2.627   2.029 -1.6380  3.0317 -0.7360
  752SOL     OW 2254   1.917   1.471   1.017  0.2910  0.5935  0.1155
  752SOL    HW1 2255   1.957   1.438   1.106  1.2533 -0.4550 -1.8662
  752SOL    HW2 2256   1.978   1.538   0.972  0.3622  1.9508 -2.6683
  753SOL     OW 2257   1.059   0.993   2.190 -0.7200  0.1400 -0.1966
  753SOL    HW1 2258   1.048   0.940   2.101  0.3368 -0.3504  1.4598
  753SOL    HW2 2259   1.119   0.937   2.251 -3.5048 -1.1916 -1.2890
  754SOL     OW 2260   0.396   2.511   0.745  0.3470  0.7269  0.0146
  754SOL    HW1 2261   0.476   2.563   0.781 -0.5863  0.4978  0.6621
  754SOL    HW2 2262   0.317   2.544   0.804  0.1527  1.2653  0.3448
  755SOL     OW 2263   2.663   3.057   0.937 -0.1632 -0.3011  0.1663
  755SOL    HW1 2264   2.723   2.977   0.923  1.4686  0.0425  2.3732
  755SOL    HW2 2265   2.601   3.054   1.013 -2.1326  1.1818  2.1142
  756SOL     OW 2266   2.074   2.072   2.263 -0.0285  0.1281  0.3605
  756SOL    HW1 2267   2.066   2.132   2.341  1.3589  2.3177 -0.4106
  756SOL    HW2 2268   2.156   2.101   2.213  1.4181  1.6536 -1.1626
  757SOL     OW 2269   2.760   3.015   1.744  0.0424  0.5150 -0.2877
  757SOL    HW1 2270   2.830   3.028   1.674  0.1575  0.8838  1.2189
  757SOL    HW2 2271   2.753   3.097   1.800 -1.4343 -1.8284 -3.2509
  758SOL     OW 2272   0.429   2.657   1.111  0.3392  0.6103  0.7490
  758SOL    HW1 2273   0.481   2.621   1.028 -0.6455  1.9224  0.6300
  758SOL    HW2 2274   0.374   2.738   1.083 -4.0417  0.7542  1.8423
  759SOL     OW 2275   2.036   0.988   1.133  0.1295 -0.1579 -0.6064
  759SOL    HW1 2276   2.007   1.055   1.065 -0.6751  0.1073  0.8487
  759SOL    HW2 2277   2.108   1.016   1.198 -2.3497  1.8822 -0.3520
  760SOL     OW 2278   1.443   0.597   1.571 -0.4035 -0.3912 -0.1960
  760SOL    HW1 2279   1.348   0.575   1.590  3.4705 -0.0886  1.8109
  760SOL    HW2 2280   1.470   0.693   1.581  0.0554  0.9745  0.2996
  761SOL     OW 2281   2.344   0.126   1.162 -0.1909 -0.1526 -0.4852
  761SOL    HW1 2282   2.393   0.204   1.113 -0.3622 -1.2960 -1.0359
  761SOL    HW2 2283   2.285   0.083   1.089  1.5063 -1.3466 -1.0672
  762SOL     OW 2284   1.721   0.040   0.588 -0.2906 -0.5581  0.2755
  762SOL    HW1 2285   1.782   3.110   0.645  0.3452  0.7063  0.1123
  762SOL    HW2 2286   1.760   0.040   0.495  2.1314 -1.8659  1.6355
  763SOL     OW 2287   0.754   0.297   1.385 -0.5925 -0.3844 -0.2743
  763SOL    HW1 2288   0.785   0.381   1.335  0.8364 -2.3992 -0.2408
  763SOL    HW2 2289   0.747   0.219   1.323 -0.0771 -0.6183 -1.6886
  764SOL     OW 2290   2.251   2.499   2.287 -0.4345  0.5796 -0.8281
  764SOL    HW1 2291   2.297   2.407   2.293 -0.6229  0.0291  0.4109
  764SOL    HW2 2292   2.240   2.509   2.187  2.4951 -0.1345  2.4882
  765SOL     OW 2293   2.958   1.218   2.361 -0.1298  0.0794 -0.1735
  765SOL    HW1 2294   2.896   1.147   2.406 -0.4469 -0.8495 -0.9415
  765SOL    HW2 2295   2.998   1.279   2.433 -0.8619 -1.0334 -3.1289
  766SOL     OW 2296   2.892   0.872   2.739  0.0191 -0.4971  0.6057
  766SOL    HW1 2297   2.947   0.789   2.729 -0.3646  0.3230  1.8013
  766SOL    HW2 2298   2.878   0.904   2.644 -0.8216 -2.1548  0.2494
  767SOL     OW 2299   0.358   2.258   1.899 -0.0489 -0.3231  0.2431
  767SOL    HW1 2300   0.377   2.198   1.981 -0.3891  1.4237 -1.3583
  767SOL    HW2 2301   0.289   2.213   1.837  0.2609  0.1128 -2.2333
  768SOL     OW 2302   1.081   1.030   0.106  0.4795 -0.3104 -0.3603
  768SOL    HW1 2303   1.150   0.971   0.056  1.0464  0.4935 -2.1159
  768SOL    HW2 2304   1.009   1.062   0.043 -0.3145 -0.0518 -0.0298
  769SOL     OW 2305   1.471   2.685   0.195 -0.5918 -0.6957 -0.0033
  769SOL    HW1 2306   1.383   2.650   0.229  0.2921 -0.6496  0.5183
  769SOL    HW2 2307   1.537   2.701   0.267 -1.1671  1.0798 -1.4563
  770SOL     OW 2308   1.093   3.061   2.245 -0.2732 -0.0140 -0.4292
  770SOL    HW1 2309   1.173   3.082   2.184 -0.3359  2.1720 -0.0154
  770SOL    HW2 2310   1.023   3.008   2.195  0.0847 -0.2242  0.7355
  771SOL     OW 2311   0.832   2.799   0.781 -0.2071 -0.5167  0.0520
  771SOL    HW1 2312   0.808   2.710   0.739 -0.3260  0.1005  1.6497
  771SOL    HW2 2313   0.852   2.772   0.876  1.8881 -0.6025 -0.7545
  772SOL     OW 2314   2.766   1.134   0.105  0.5140 -0.6646  0.1086
  772SOL    HW1 2315   2.829   1.131   0.183 -1.3121 -0.6836 -0.3474
  772SOL    HW2 2316   2.812   1.086   0.027 -1.7225  1.5339  2.0409
  773SOL     OW 2317   2.059   0.685   1.994 -0.5939 -0.9387 -0.0401
  773SOL    HW1 2318   2.087   0.709   2.088  2.1649 -0.1257 -2.2107
  773SOL    HW2 2319   2.064   0.771   1.937  3.1377  0.5184  0.4424
  774SOL     OW 2320   0.534   0.318   0.738 -0.1176  0.0700  0.2808
  774SOL    HW1 2321   0.465   0.316   0.817 -1.5195 -0.0488  3.0580
  774SOL    HW2 2322   0.509   0.381   0.661 -1.1964  1.8420 -0.7451
  775SOL     OW 2323   1.590   0.263   0.663  0.0135  0.1808 -0.4976
  775SOL    HW1 2324   1.667   0.327   0.668  2.6210 -2.5977 -3.1308
  775SOL    HW2 2325   1.627   0.175   0.623  0.9516  0.0351  3.3944
  776SOL     OW 2326   2.380   0.336   2.406 -0.0513 -0.5166 -0.5808
  776SOL    HW1 2327   2.449   0.303   2.344 -1.0464  2.3689  2.7823
  776SOL    HW2 2328   2.352   0.265   2.472  3.3734  0.3613  1.7586
  777SOL     OW 2329   1.389   1.546   0.381 -0.4647  0.1522 -0.4179
  777SOL    HW1 2330   1.366   1.586   0.292  1.9329 -0.4323  0.0252
  777SOL    HW2 2331   1.398   1.443   0.377  2.8011 -0.2203 -0.5645
  778SOL     OW 2332   0.271   2.520   0.239 -0.1934  0.5853 -0.3978
  778SOL    HW1 2333   0.273   2.441   0.304 -0.3783 -3.1441 -0.6819
  778SOL    HW2 2334   0.265   2.609   0.287 -1.3087 -1.4476 -1.3136
  779SOL     OW 2335   0.003   1.495   0.245  0.0228 -0.0544  0.0795
  779SOL    HW1 2336   0.056   1.423   0.198  0.4695  1.0541  0.5234
  779SOL    HW2 2337   0.054   1.520   0.329  2.5407  0.4078 -1.6382
  780SOL     OW 2338   1.431   0.421   2.339  0.6998  0.3408 -0.0055
  780SOL    HW1 2339   1.436   0.517   2.313 -2.3895 -2.3473  0.6171
  780SOL    HW2 2340   1.525   0.375   2.348  0.6172 -2.8051  0.4148
  781SOL     OW 2341   1.779   1.827   1.154 -0.3752  0.1348  0.6891
  781SOL    HW1 2342   1.679   1.856   1.156 -1.9990  0.5036  2.1857
  781SOL    HW2 2343   1.827   1.852   1.066  0.2253  0.3269  0.5803
  782SOL     OW 2344   1.963   2.394   2.083  0.3653  0.7889 -0.3452
  782SOL    HW1 2345   1.940   2.352   1.995  0.4114 -1.9170  0.5361
  782SOL    HW2 2346   2.025   2.475   2.062  1.4225  1.7959 -1.2562
  783SOL     OW 2347   1.411   0.571   2.011  0.1977  0.0840 -0.0814
  783SOL    HW1 2348   1.391   0.588   2.108  1.0402 -0.8222 -0.6308
  783SOL    HW2 2349   1.401   0.470   1.981  1.5668 -0.1978 -2.2179
  784SOL     OW 2350   1.492   0.970   1.956  0.0838 -0.1150  0.3831
  784SOL    HW1 2351   1.435   1.052   1.945  0.4553 -0.9494 -0.6492
  784SOL    HW2 2352   1.442   0.886   1.927  2.5966  0.5646  0.1099
  785SOL     OW 2353   2.094   0.608   0.546 -0.2179 -0.1136 -0.3642
  785SOL    HW1 2354   2.093   0.681   0.619  2.9554 -0.3007 -0.0404
  785SOL    HW2 2355   2.000   0.601   0.509  1.1183  1.5989 -0.1440
  786SOL     OW 2356   3.066   1.255   0.702  0.5623 -0.0357 -0.2086
  786SOL    HW1 2357   3.008   1.186   0.653 -0.4596  1.2158 -2.6312
  786SOL    HW2 2358   3.013   1.343   0.705 -2.3976  0.0792  2.7054
  787SOL     OW 2359   1.690   1.916   3.105  0.0458  0.1815 -0.1239
  787SOL    HW1 2360   1.732   1.904   0.073  0.3552 -1.4958  0.2629
  787SOL    HW2 2361   1.585   1.912   3.104 -0.9524  1.9711 -0.7554
  788SOL     OW 2362   2.294   1.031   1.303 -0.7004 -0.3101  0.3146
  788SOL    HW1 2363   2.302   0.994   1.400 -0.7951  1.3207  1.0016
  788SOL    HW2 2364   2.387   1.056   1.268  2.0149 -1.6852  0.0408
  789SOL     OW 2365   2.784   1.772   2.377 -0.0946 -0.0190  0.4544
  789SOL    HW1 2366   2.704   1.831   2.356  0.0258  0.5154 -0.7413
  789SOL    HW2 2367   2.810   1.716   2.298 -0.8834 -0.0045  0.9299
  790SOL     OW 2368   0.527   3.003   2.524 -0.4100 -0.2534 -0.1797
  790SOL    HW1 2369   0.609   2.951   2.553 -0.4105  0.7651 -0.8983
  790SOL    HW2 2370   0.540   3.045   2.433 -3.2684 -0.4849 -0.2744
  791SOL     OW 2371   0.415   2.573   2.799  0.3772  0.4766 -0.6244
  791SOL    HW1 2372   0.414   2.620   2.712  0.0614 -0.3501 -0.0913
  791SOL    HW2 2373   0.352   2.608   2.869 -2.2757 -0.8866 -2.3161
  792SOL     OW 2374   1.234   0.223   2.323  0.0599  0.1546 -0.5168
  792SOL    HW1 2375   1.317   0.265   2.357  0.3381 -2.5515 -0.5419
  792SOL    HW2 2376   1.239   0.124   2.318 -1.9824  3.2288 -0.9953
  793SOL     OW 2377   2.611   0.131   2.451 -0.8886  0.2391 -0.4451
  793SOL    HW1 2378   2.518   0.121   2.485  1.9335  0.2888 -0.7170
  793SOL    HW2 2379   2.633   0.063   2.375  1.1700 -3.5505 -0.7373
  794SOL     OW 2380   0.550   0.348   2.069 -0.3008  0.2573  0.0902
  794SOL    HW1 2381   0.507   0.295   1.993 -0.7280  3.3739 -1.8209
  794SOL    HW2 2382   0.609   0.284   2.127 -1.1005  0.4501  1.5646
  795SOL     OW 2383   2.914   1.060   0.557 -0.2601 -0.0691 -0.1584
  795SOL    HW1 2384   2.903   1.131   0.487  0.3030  2.5695 -0.9047
  795SOL    HW2 2385   2.828   1.023   0.596  2.3284 -0.7693 -1.3887
  796SOL     OW 2386   2.657   2.272   2.176 -0.1514  0.1071 -0.1227
  796SOL    HW1 2387   2.738   2.240   2.233  0.9475  0.2355 -0.9297
  796SOL    HW2 2388   2.672   2.372   2.161  1.3413  1.2416 -2.6109
  797SOL     OW 2389   3.056   2.098   3.126  0.1258 -0.2110 -0.2065
  797SOL    HW1 2390   2.977   2.058   3.075 -1.1910  0.3409  0.7051
  797SOL    HW2 2391   3.024   2.125   0.093  0.3079  0.0755 -2.3215
  798SOL     OW 2392   0.303   0.732   1.903 -0.1542  0.1769  0.3761
  798SOL    HW1 2393   0.310   0.782   1.996 -3.4131  1.0481 -0.9787
  798SOL    HW2 2394   0.228   0.768   1.848 -2.1004  0.3351  1.1638
  799SOL     OW 2395   2.854   0.934   2.397  0.2347  0.2585  0.0141
  799SOL    HW1 2396   2.767   0.920   2.448 -0.4383  2.1248  1.5240
  799SOL    HW2 2397   2.824   0.949   2.302  0.5769  1.4187 -1.5443
  800SOL     OW 2398   2.869   2.133   0.559 -0.6451  0.1605 -0.0361
  800SOL    HW1 2399   2.968   2.158   0.541 -0.3092  1.2323 -0.2535
  800SOL    HW2 2400   2.822   2.219   0.566  5.3398 -2.6201 -2.0938
  801SOL     OW 2401   1.271   0.826   0.778 -0.3641 -0.4901  0.8980
  801SOL    HW1 2402   1.211   0.827   0.862 -1.5411  0.8200  0.7208
  801SOL    HW2 2403   1.239   0.888   0.705 -0.2594  1.1354 -0.6749
  802SOL     OW 2404   1.787   2.180   0.983 -0.0673 -0.2329 -0.1655
  802SOL    HW1 2405   1.756   2.262   1.036  0.6159 -0.1616  0.6592
  802SOL    HW2 2406   1.885   2.171   1.001 -1.1904 -2.0048  1.0468
  803SOL     OW 2407   0.142   1.574   0.461  0.2137  0.2872  0.4050
  803SOL    HW1 2408   0.171   1.502   0.530 -1.7128 -0.8113  2.5045
  803SOL    HW2 2409   0.112   1.653   0.517 -0.6731  1.9472 -0.0057
  804SOL     OW 2410   1.376   2.396   0.410  0.2867 -0.0625  0.3054
  804SOL    HW1 2411   1.333   2.372   0.500  0.6392  0.1401  1.2634
  804SOL    HW2 2412   1.317   2.462   0.366  1.8601  1.7112  0.5265
  805SOL     OW 2413   1.376   2.113   2.380  0.2021  0.3621  0.0097
  805SOL    HW1 2414   1.371   2.145   2.480  2.2769 -0.3685  2.2823
  805SOL    HW2 2415   1.473   2.113   2.348 -1.6034 -0.4427 -1.3241
  806SOL     OW 2416   1.887   0.104   1.435  0.2885  0.3179  0.5763
  806SOL    HW1 2417   1.951   0.043   1.484 -1.9242 -1.1700  1.2420
  806SOL    HW2 2418   1.877   0.198   1.473 -0.7131 -0.8807  0.8919
  807SOL     OW 2419   2.091   3.048   0.248  0.0902 -0.1225 -0.0710
  807SOL    HW1 2420   2.058   2.955   0.275 -0.7956 -2.5302 -0.8904
  807SOL    HW2 2421   2.165   3.047   0.178  3.0036 -0.8748 -1.3959
  808SOL     OW 2422   0.488   1.745   2.957  0.5523  0.2867 -0.1389
  808SOL    HW1 2423   0.412   1.759   2.885 -2.2035  0.4190 -0.0428
  808SOL    HW2 2424   0.443   1.694   3.034 -0.5143 -3.6445  0.6571
  809SOL     OW 2425   3.122   1.050   2.739  0.4674 -0.2321 -0.3451
  809SOL    HW1 2426   0.034   0.993   2.663  0.2481 -3.3991 -0.1183
  809SOL    HW2 2427   3.043   1.001   2.787 -2.4406  1.1846  1.5947
  810SOL     OW 2428   2.969   0.607   2.695  0.1117  0.0519  0.7408
  810SOL    HW1 2429   2.973   0.505   2.698  2.1463 -0.4861 -1.2255
  810SOL    HW2 2430   3.008   0.637   2.609  1.6264 -1.9632 -1.2004
  811SOL     OW 2431   2.013   2.252   1.509 -0.1184  0.1833  0.2843
  811SOL    HW1 2432   1.939   2.299   1.458  0.4442 -3.2627  0.0531
  811SOL    HW2 2433   1.966   2.209   1.594 -4.7238 -2.2173  1.6446
  812SOL     OW 2434   1.083   0.449   0.366  0.6874 -0.1724 -0.0315
  812SOL    HW1 2435   1.121   0.535   0.403  1.0341 -0.5998 -1.9110
  812SOL    HW2 2436   1.149   0.391   0.322  0.2048  1.7815 -0.0255
  813SOL     OW 2437   1.902   0.508   2.141  0.4733  0.2420 -0.0859
  813SOL    HW1 2438   1.826   0.477   2.078 -0.4581  1.1119 -0.5069
  813SOL    HW2 2439   1.960   0.564   2.084 -1.8991 -0.9518 -1.5284
  814SOL     OW 2440   1.973   0.721   1.108  0.0282 -0.6117  0.0630
  814SOL    HW1 2441   2.045   0.674   1.166 -1.0392 -1.5603 -0.3353
  814SOL    HW2 2442   1.990   0.823   1.111  0.2095 -0.9001 -2.3957
  815SOL     OW 2443   0.564   1.026   0.716  0.0422 -0.0971 -0.1141
  815SOL    HW1 2444   0.539   0.998   0.811  1.1721 -1.6437  0.3282
  815SOL    HW2 2445   0.484   1.013   0.653  0.3573 -0.0185 -0.4524
  816SOL     OW 2446   2.194   2.357   3.038 -0.2889 -0.3629  0.3596
  816SOL    HW1 2447   2.124   2.297   2.990  0.4134  0.8746 -2.5127
  816SOL    HW2 2448   2.279   2.304   3.061 -0.6153 -1.0793 -1.3807
  817SOL     OW 2449   2.826   2.421   1.193 -0.0337  0.0181  0.8901
  817SOL    HW1 2450   2.844   2.403   1.091  0.2036 -0.8428  0.2187
  817SOL    HW2 2451   2.895   2.490   1.232  1.3589  0.9472 -0.8799
  818SOL     OW 2452   1.669   0.869   3.085 -0.1837  0.5807 -0.4267
  818SOL    HW1 2453   1.618   0.890   0.046  0.7175  2.9122 -1.8523
  818SOL    HW2 2454   1.630   0.803   3.020  0.7553  2.7245  1.0805
  819SOL     OW 2455   0.673   0.767   0.796 -0.0599 -0.0281  0.4291
  819SOL    HW1 2456   0.693   0.855   0.842  1.0988 -0.2777  1.9991
  819SOL    HW2 2457   0.602   0.782   0.726 -0.6981 -2.5613  3.9687
  820SOL     OW 2458   2.002   0.665   1.500  0.3887  0.1953  0.2086
  820SOL    HW1 2459   2.047   0.754   1.505  0.6510 -2.5351  1.8745
  820SOL    HW2 2460   1.948   0.642   1.580  2.5772  0.8846 -2.8561
  821SOL     OW 2461   2.996   0.132   0.904  0.0168  0.2342  0.3205
  821SOL    HW1 2462   2.909   0.146   0.954  0.1859 -1.6641 -0.1514
  821SOL    HW2 2463   2.995   0.035   0.866  1.4166  0.7676 -2.0259
  822SOL     OW 2464   0.693   2.260   2.359 -0.1646 -0.4656 -0.5310
  822SOL    HW1 2465   0.744   2.347   2.338 -0.6089  1.1641 -2.1105
  822SOL    HW2 2466   0.601   2.265   2.313  1.3836  0.5058  1.7535
  823SOL     OW 2467   2.930   1.112   1.719 -0.2458  0.1955 -0.1881
  823SOL    HW1 2468   2.976   1.038   1.663 -0.9812 -1.0374 -0.3366
  823SOL    HW2 2469   3.000   1.180   1.752  1.9744 -1.5420  1.0999
  824SOL     OW 2470   0.708   2.635   2.391 -0.4160  0.4192 -0.0850
  824SOL    HW1 2471   0.747   2.641   2.482 -0.5168  0.1814  0.7702
  824SOL    HW2 2472   0.761   2.570   2.337  0.7247  1.5235  0.1470
  825SOL     OW 2473   1.637   1.590   2.816  0.2515  0.3385  0.3823
  825SOL    HW1 2474   1.581   1.669   2.791 -0.0050 -0.5732  1.8973
  825SOL    HW2 2475   1.737   1.596   2.791  1.5663 -2.2995  0.0309
  826SOL     OW 2476   1.337   2.381   0.017 -0.2934  0.0203  0.3508
  826SOL    HW1 2477   1.388   2.316   0.077  1.8241 -2.5564  2.3773
  826SOL    HW2 2478   1.398   2.423   3.069  0.1246  1.2714 -2.7734
  827SOL     OW 2479   0.266   1.396   1.680 -0.1367  0.1019  0.4865
  827SOL    HW1 2480   0.204   1.460   1.628 -1.8785  1.5925 -2.0423
  827SOL    HW2 2481   0.296   1.443   1.763 -0.9479  0.3962 -3.1408
  828SOL     OW 2482   0.247   1.451   1.353  0.5067 -0.6290 -0.9975
  828SOL    HW1 2483   0.294   1.365   1.333 -1.1926 -0.7687  0.7908
  828SOL    HW2 2484   0.229   1.498   1.263 -0.7115  1.7751  1.9241
  829SOL     OW 2485   3.026   2.534   3.102  0.2628 -0.1946 -0.4183
  829SOL    HW1 2486   3.110   2.480   3.117 -1.4581  1.0865 -0.2833
  829SOL    HW2 2487   2.963   2.488   3.037  1.3315  0.5334 -0.8049
  830SOL     OW 2488   1.222   0.659   0.451  0.4456  0.3989 -0.2487
  830SOL    HW1 2489   1.311   0.690   0.412  1.0599 -0.0338 -2.4054
  830SOL    HW2 2490   1.239   0.613   0.541  1.0460  1.7283 -1.3718
  831SOL     OW 2491   2.904   2.365   2.915  0.0456  0.1271  0.0430
  831SOL    HW1 2492   2.911   2.274   2.960  1.4866  3.1945 -2.1069
  831SOL    HW2 2493   2.812   2.384   2.881 -0.2823 -0.4993  1.5767
  832SOL     OW 2494   1.760   2.529   0.310 -0.0927  0.9335  0.1208
  832SOL    HW1 2495   1.772   2.509   0.208 -0.5263 -2.6348  1.8593
  832SOL    HW2 2496   1.845   2.557   0.349 -1.7058 -1.4031 -1.7033
  833SOL     OW 2497   0.457   1.367   2.324  0.1925  0.2388  0.6459
  833SOL    HW1 2498   0.531   1.425   2.361 -0.8407 -1.1316  0.5375
  833SOL    HW2 2499   0.409   1.316   2.398 -0.0878  2.3805  1.5053
  834SOL     OW 2500   2.544   0.472   0.534  0.1141  0.4959 -0.1477
  834SOL    HW1 2501   2.536   0.427   0.624  0.1313  1.8228 -0.7730
  834SOL    HW2 2502   2.592   0.404   0.479 -2.2837  2.4954  2.3875
  835SOL     OW 2503   2.151   0.747   2.239 -0.1461 -0.3693  0.1566
  835SOL    HW1 2504   2.238   0.792   2.218 -3.1078 -1.3532 -0.0318
  835SOL    HW2 2505   2.122   0.763   2.337 -1.3633 -0.2799 -0.9007
  836SOL     OW 2506   0.765   2.150   0.721 -0.0666  0.3400 -0.0362
  836SOL    HW1 2507   0.695   2.211   0.761  0.8548 -0.0487  0.0892
  836SOL    HW2 2508   0.859   2.162   0.763  0.9650  1.9429  2.8543
  837SOL     OW 2509   2.239   1.398   1.857 -0.1132 -0.1399 -0.5736
  837SOL    HW1 2510   2.257   1.379   1.762  1.7044 -0.9360  1.6461
  837SOL    HW2 2511   2.234   1.501   1.877 -0.6845  4.3689 -0.2261
  838SOL     OW 2512   0.090   1.172   2.305 -0.0257  0.2333 -0.5218
  838SOL    HW1 2513   0.103   1.070   2.314 -1.2537  0.0654  2.5599
  838SOL    HW2 2514   3.116   1.196   2.301 -0.1213 -1.8090  1.5254
  839SOL     OW 2515   0.224   2.897   2.759 -0.4898  0.3655 -0.1857
  839SOL    HW1 2516   0.249   2.806   2.786 -1.3620  2.9379  0.1605
  839SOL    HW2 2517   0.188   2.949   2.839  0.9455 -0.3430 -1.1449
  840SOL     OW 2518   3.044   1.288   2.851 -0.3789 -0.2602  0.2038
  840SOL    HW1 2519   3.064   1.191   2.838 -1.4417  2.9055  2.3541
  840SOL    HW2 2520   2.950   1.298   2.891  1.0385 -2.2386 -0.1142
  841SOL     OW 2521   0.452   2.203   2.717  0.3596 -0.5153 -0.2109
  841SOL    HW1 2522   0.373   2.266   2.698  0.9812 -0.0570 -1.1569
  841SOL    HW2 2523   0.543   2.225   2.676  0.6953 -2.4526 -1.1473
  842SOL     OW 2524   0.740   0.094   1.192  0.1946  0.9364  0.6276
  842SOL    HW1 2525   0.652   0.060   1.236 -2.5647 -1.8171 -0.0405
  842SOL    HW2 2526   0.729   0.107   1.091 -0.8141 -2.8659  0.6115
  843SOL     OW 2527   3.051   1.471   2.109  0.4303 -0.0004 -0.0554
  843SOL    HW1 2528   3.086   1.521   2.032 -4.2640 -0.6731  4.3272
  843SOL    HW2 2529   3.107   1.480   2.195 -0.1409  0.6747  0.3778
  844SOL     OW 2530   1.611   2.124   2.260  0.5946  0.2691  0.3436
  844SOL    HW1 2531   1.594   2.167   2.168  0.0631 -0.0499 -2.3051
  844SOL    HW2 2532   1.681   2.050   2.251  0.3563  0.6422 -2.2426
  845SOL     OW 2533   1.632   3.111   2.507 -0.0615  0.1992  0.1501
  845SOL    HW1 2534   1.537   3.074   2.516 -0.0955 -1.6303  1.4411
  845SOL    HW2 2535   1.694   3.078   2.579 -0.5735  2.6818 -1.5797
  846SOL     OW 2536   2.331   1.661   0.125  0.2672  1.0414  0.1158
  846SOL    HW1 2537   2.262   1.625   0.057  0.9847  0.6630 -0.3447
  846SOL    HW2 2538   2.398   1.703   0.069 -1.0672  0.5072  0.1338
  847SOL     OW 2539   2.462   0.144   2.827 -0.0093  0.1189  0.1712
  847SOL    HW1 2540   2.407   0.204   2.883  2.9646 -0.9341  0.6488
  847SOL    HW2 2541   2.563   0.167   2.837  0.6618 -1.2138 -0.6002
  848SOL     OW 2542   2.134   0.568   0.264  0.1501  0.2062  0.2327
  848SOL    HW1 2543   2.135   0.594   0.363  1.4905 -0.7875 -2.5254
  848SOL    HW2 2544   2.228   0.538   0.237  0.5790 -2.2153 -0.1384
  849SOL     OW 2545   1.225   3.013   2.854 -0.7855 -0.1308 -0.1420
  849SOL    HW1 2546   1.199   2.917   2.829 -2.8344 -1.4637  2.5512
  849SOL    HW2 2547   1.180   3.037   2.941  0.4347  0.6147  0.1455
  850SOL     OW 2548   0.053   0.540   0.458 -0.3697  0.4382 -0.6079
  850SOL    HW1 2549   0.078   0.456   0.403 -0.0927  2.8625  0.1386
  850SOL    HW2 2550   3.081   0.564   0.432 -3.0790 -2.3599 -1.0417
  851SOL     OW 2551   0.326   1.206   1.511 -0.3496  0.3768 -0.1812
  851SOL    HW1 2552   0.371   1.226   1.419 -1.3952  1.0279 -0.6184
  851SOL    HW2 2553   0.307   1.293   1.563  0.0746  1.5764 -2.3988
  852SOL     OW 2554   1.274   0.831   2.337 -0.4708 -0.5798 -0.4156
  852SOL    HW1 2555   1.365   0.788   2.315  0.4963 -0.1537 -0.5678
  852SOL    HW2 2556   1.211   0.761   2.378  0.6616 -0.8782  1.1839
  853SOL     OW 2557   2.260   1.485   2.824  0.0977 -0.3910  0.1714
  853SOL    HW1 2558   2.271   1.412   2.892 -0.9917  1.3666 -0.3127
  853SOL    HW2 2559   2.184   1.463   2.759  0.0529 -0.8544 -0.0663
  854SOL     OW 2560   1.384   1.377   1.577 -0.2698  0.3258  0.1506
  854SOL    HW1 2561   1.366   1.393   1.474  0.0161 -0.3308 -2.4141
  854SOL    HW2 2562   1.383   1.462   1.632  0.0593  2.3620 -1.2493
  855SOL     OW 2563   0.166   2.157   1.738 -0.3729  0.0914 -0.4326
  855SOL    HW1 2564   0.140   2.202   1.648 -0.4616  1.1650  2.0910
  855SOL    HW2 2565   0.216   2.070   1.722  2.1792 -1.5903 -0.4144
  856SOL     OW 2566   1.076   1.129   2.632  0.6738  0.1177 -0.2203
  856SOL    HW1 2567   1.131   1.082   2.561  1.8897 -0.9629 -1.0167
  856SOL    HW2 2568   1.068   1.232   2.611  0.0499  1.4925 -0.6616
  857SOL     OW 2569   0.902   0.983   2.787 -0.4368  0.2036 -0.3007
  857SOL    HW1 2570   0.957   1.050   2.732 -1.3855 -2.3266 -1.3822
  857SOL    HW2 2571   0.906   0.901   2.731  0.8927  1.6725  0.2066
  858SOL     OW 2572   0.200   0.234   2.127 -0.1417  0.3370  0.4317
  858SOL    HW1 2573   0.193   0.174   2.040 -0.2608  0.0823 -1.4122
  858SOL    HW2 2574   0.106   0.244   2.164  1.8790 -0.0646  0.1586
  859SOL     OW 2575   2.482   0.319   0.755  0.1959 -0.2437  0.4105
  859SOL    HW1 2576   2.388   0.352   0.721 -2.0377  0.2240 -1.3365
  859SOL    HW2 2577   2.480   0.295   0.856 -0.0154  1.3877  0.9268
  860SOL     OW 2578   0.816   0.804   1.574 -0.4268 -0.4578  0.3407
  860SOL    HW1 2579   0.784   0.726   1.624 -1.4156  0.4782 -1.6745
  860SOL    HW2 2580   0.884   0.769   1.506 -0.9347  1.3474  0.1604
  861SOL     OW 2581   1.793   0.853   1.305  0.0585  0.6544  0.2274
  861SOL    HW1 2582   1.876   0.813   1.266 -0.5609  0.0419  0.2835
  861SOL    HW2 2583   1.794   0.955   1.295  1.0866  0.6496 -0.0624
  862SOL     OW 2584   0.767   2.904   2.292 -0.0235 -0.3993 -0.3625
  862SOL    HW1 2585   0.716   2.820   2.319  0.5170 -0.2403  2.2280
  862SOL    HW2 2586   0.707   2.971   2.252  0.9554  0.0381 -2.4287
  863SOL     OW 2587   2.834   0.145   1.317  0.4700  0.3417 -0.1250
  863SOL    HW1 2588   2.775   0.185   1.391  0.4506 -0.1218 -2.2139
  863SOL    HW2 2589   2.932   0.154   1.334 -2.1362 -0.5775  2.3807
  864SOL     OW 2590   2.727   3.021   2.540  0.1643 -0.4031  0.4949
  864SOL    HW1 2591   2.790   2.960   2.483  3.8103  2.1361  2.4719
  864SOL    HW2 2592   2.759   3.115   2.541  0.5378 -1.0386  3.4931
  865SOL     OW 2593   1.365   1.273   2.280  0.1885  0.1332  0.4219
  865SOL    HW1 2594   1.342   1.206   2.352  0.8829 -1.6439  1.2466
  865SOL    HW2 2595   1.302   1.271   2.201  0.2085  0.3037  1.1637
  866SOL     OW 2596   2.503   2.441   0.913  0.6761 -0.0699 -0.0539
  866SOL    HW1 2597   2.560   2.522   0.903 -2.9449 -0.8494  0.5105
  866SOL    HW2 2598   2.528   2.371   0.848 -0.8148 -1.3239  1.9543
  867SOL     OW 2599   2.661   2.604   1.103 -0.4443 -0.0766 -0.1786
  867SOL    HW1 2600   2.564   2.607   1.127 -0.5351 -0.6080  0.1506
  867SOL    HW2 2601   2.712   2.531   1.157  1.3255  0.6401  0.3869
  868SOL     OW 2602   2.976   1.319   1.496 -0.2314  0.1012  0.0489
  868SOL    HW1 2603   2.951   1.266   1.580  1.7926  2.2405 -0.8086
  868SOL    HW2 2604   3.009   1.256   1.420  1.6728 -0.4491  0.5732
  869SOL     OW 2605   2.182   1.684   2.182 -0.1285 -0.4997 -0.7436
  869SOL    HW1 2606   2.184   1.758   2.251 -0.0353  0.7201  0.6194
  869SOL    HW2 2607   2.103   1.618   2.196 -1.3630  1.9604  2.3800
  870SOL     OW 2608   1.617   1.138   0.874 -0.2692 -0.6241 -0.5382
  870SOL    HW1 2609   1.592   1.049   0.827 -3.0959 -1.8984  0.3201
  870SOL    HW2 2610   1.598   1.211   0.808  2.4836  0.5006  1.0705
  871SOL     OW 2611   2.254   1.654   1.936 -0.0190 -0.6936  0.0239
  871SOL    HW1 2612   2.191   1.710   1.875 -0.9177 -1.0362 -2.5694
  871SOL    HW2 2613   2.223   1.664   2.037 -0.3978  1.2013 -0.9577
  872SOL     OW 2614   1.403   1.434   2.516  0.7032 -0.2009  0.3021
  872SOL    HW1 2615   1.439   1.395   2.601  0.1448 -0.2811 -0.1740
  872SOL    HW2 2616   1.361   1.362   2.458  1.4297 -1.5201  0.5289
  873SOL     OW 2617   1.332   1.444   1.329 -0.0567  0.1661 -0.6215
  873SOL    HW1 2618   1.254   1.492   1.277 -1.8159  1.3541 -0.1477
  873SOL    HW2 2619   1.417   1.469   1.282 -1.8557  2.1851  0.6405
  874SOL     OW 2620   1.607   1.218   1.129 -0.0402 -0.4219  0.5895
  874SOL    HW1 2621   1.606   1.323   1.144 -0.3170  0.6911 -0.5024
  874SOL    HW2 2622   1.596   1.199   1.030  1.9345  0.3285  2.0250
  875SOL     OW 2623   2.802   0.317   2.481  0.0648  0.0210  0.0307
  875SOL    HW1 2624   2.765   0.406   2.452  1.3489  0.9473  0.2636
  875SOL    HW2 2625   2.732   0.244   2.498  0.6063 -0.9409 -1.3352
  876SOL     OW 2626   1.050   1.005   0.673 -0.1908  0.2892 -0.3979
  876SOL    HW1 2627   1.019   0.913   0.707 -0.1943 -0.3874  0.2626
  876SOL    HW2 2628   1.021   1.075   0.735  0.2605  0.5728 -0.9148
  877SOL     OW 2629   2.183   2.922   0.681 -0.2308  0.3950  0.1355
  877SOL    HW1 2630   2.164   2.865   0.597 -1.2637  1.4592 -0.3011
  877SOL    HW2 2631   2.092   2.961   0.708 -0.0829  0.7725 -0.0792
  878SOL     OW 2632   2.785   1.929   0.223 -0.0742 -0.3942  0.3455
  878SOL    HW1 2633   2.803   1.836   0.185 -0.0799 -0.5421 -2.0856
  878SOL    HW2 2634   2.684   1.945   0.230 -1.3791  0.2576  0.5078
  879SOL     OW 2635   2.872   2.222   1.768 -1.0036 -0.6144 -0.0122
  879SOL    HW1 2636   2.834   2.133   1.785 -1.1880  1.9226  0.0538
  879SOL    HW2 2637   2.964   2.226   1.813 -0.0837 -1.2971 -2.4663
  880SOL     OW 2638   0.354   1.722   0.775 -0.3700  0.3077 -0.3956
  880SOL    HW1 2639   0.338   1.762   0.684  3.4937 -1.3267  0.5295
  880SOL    HW2 2640   0.427   1.766   0.834  0.6364 -1.2817 -0.6686
  881SOL     OW 2641   1.329   0.400   2.685  0.0466 -0.0108  0.1459
  881SOL    HW1 2642   1.362   0.301   2.668  0.8351 -1.3364  2.3370
  881SOL    HW2 2643   1.234   0.409   2.644 -0.2036 -0.6991  0.6221
  882SOL     OW 2644   2.638   0.976   0.675  0.8658 -0.1587 -0.3516
  882SOL    HW1 2645   2.633   1.004   0.776 -0.0719  0.2523  3.0511
  882SOL    HW2 2646   2.618   0.875   0.662 -0.7289 -4.3028  0.3593
  883SOL     OW 2647   1.584   0.678   2.568  0.2323 -0.1056  0.3343
  883SOL    HW1 2648   1.482   0.686   2.576 -3.7463  0.9320  0.1073
  883SOL    HW2 2649   1.625   0.765   2.554 -0.0729 -0.9960 -1.2723
  884SOL     OW 2650   3.077   0.063   1.729  0.7129 -0.6727 -0.2213
  884SOL    HW1 2651   3.049   3.103   1.676 -0.6538  1.5936 -1.0864
  884SOL    HW2 2652   3.044   0.060   1.824 -1.8099 -0.0824 -0.5994
  885SOL     OW 2653   1.934   0.965   2.322 -0.0943  0.1016 -0.0022
  885SOL    HW1 2654   1.943   0.997   2.228  0.0379 -1.1173  1.6718
  885SOL    HW2 2655   1.908   0.864   2.320  1.1081 -2.6416  0.1482
  886SOL     OW 2656   1.710   0.391   2.935  0.3015 -0.0148 -0.3076
  886SOL    HW1 2657   1.717   0.474   2.873  1.0773 -0.0256 -4.6813
  886SOL    HW2 2658   1.744   0.419   3.032 -0.3173 -0.3300  2.6679
  887SOL     OW 2659   1.320   0.055   1.758  0.1664  0.4228  0.0309
  887SOL    HW1 2660   1.244   0.112   1.793  1.9633  0.4214  0.0392
  887SOL    HW2 2661   1.284   3.090   1.721 -1.8066  1.3139  0.7207
  888SOL     OW 2662   2.441   0.526   1.423 -0.0636  0.6939  0.0734
  888SOL    HW1 2663   2.368   0.547   1.495  0.3864 -0.4375  2.4073
  888SOL    HW2 2664   2.464   0.606   1.367  0.8669 -0.7648  0.0350
  889SOL     OW 2665   1.771   0.035   0.961 -0.0333 -0.1647 -0.5625
  889SOL    HW1 2666   1.672   0.012   0.988  0.4240 -0.1198  2.0714
  889SOL    HW2 2667   1.823   0.071   1.045  0.9146  1.3929  3.7443
  890SOL     OW 2668   1.181   2.720   0.918 -0.2944  0.5181 -0.6113
  890SOL    HW1 2669   1.283   2.710   0.934  0.2427 -0.9968 -0.2495
  890SOL    HW2 2670   1.156   2.818   0.895 -1.2993  5.2482  0.4707
  891SOL     OW 2671   0.045   1.170   0.231  0.0808 -0.1497 -0.1908
  891SOL    HW1 2672   0.022   1.072   0.215  2.2518  1.5620 -1.0249
  891SOL    HW2 2673   0.122   1.198   0.170  0.1148 -1.2286 -0.0091
  892SOL     OW 2674   2.358   1.515   2.540 -0.3272 -0.8815 -0.6020
  892SOL    HW1 2675   2.311   1.489   2.455  0.5526  1.3157  2.6882
  892SOL    HW2 2676   2.327   1.605   2.578 -1.6159  0.0239  1.4444
  893SOL     OW 2677   2.318   2.381   1.111  0.0813  0.2720  0.6696
  893SOL    HW1 2678   2.233   2.432   1.087  0.8901 -0.3865 -0.3783
  893SOL    HW2 2679   2.384   2.396   1.032  0.7718  1.3284 -3.5657
  894SOL     OW 2680   0.258   0.599   0.917 -0.0546 -0.9358  0.1010
  894SOL    HW1 2681   0.333   0.536   0.930 -0.8621  3.0112  2.5032
  894SOL    HW2 2682   0.202   0.566   0.840  1.7100  0.7538  0.2629
  895SOL     OW 2683   2.858   2.195   2.356 -0.1779  0.3438  0.2854
  895SOL    HW1 2684   2.939   2.252   2.376  1.9174 -1.8082 -1.8173
  895SOL    HW2 2685   2.885   2.095   2.353 -0.1122 -1.1075 -0.7516
  896SOL     OW 2686   1.372   3.020   2.554  0.3809  0.5299 -0.0794
  896SOL    HW1 2687   1.421   2.951   2.612  2.2635 -0.3108 -1.3215
  896SOL    HW2 2688   1.269   3.003   2.550 -5.3107 -1.1426  0.8320
  897SOL     OW 2689   0.284   1.907   1.728 -0.4413  0.1512  0.1170
  897SOL    HW1 2690   0.185   1.882   1.711 -1.8088  1.3160 -2.1255
  897SOL    HW2 2691   0.342   1.910   1.644  1.8189 -0.5050  0.9816
  898SOL     OW 2692   0.816   2.131   1.878 -0.2705 -0.4109  0.2060
  898SOL    HW1 2693   0.799   2.162   1.782 -0.7055 -0.2076 -1.6734
  898SOL    HW2 2694   0.904   2.074   1.881  1.9031 -1.0111  1.2111
  899SOL     OW 2695   1.734   0.024   1.862 -0.8185  0.3486  0.0597
  899SOL    HW1 2696   1.822   0.073   1.848  1.0188 -0.5878  0.8247
  899SOL    HW2 2697   1.667   0.072   1.800 -0.8609  2.1511 -0.1947
  900SOL     OW 2698   1.458   1.224   0.375 -0.1445  0.2078  0.1243
  900SOL    HW1 2699   1.481   1.228   0.277 -2.6312  1.5118  2.5674
  900SOL    HW2 2700   1.374   1.175   0.391  0.6597  1.0566  0.3755
  901SOL     OW 2701   1.322   1.085   2.452  0.3082 -0.1745  0.5362
  901SOL    HW1 2702   1.350   1.072   2.547 -0.4514  0.4979 -1.6080
  901SOL    HW2 2703   1.302   0.993   2.405  0.8884 -3.4199 -0.2212
  902SOL     OW 2704   3.111   2.159   1.013 -0.0299  0.2166 -0.3635
  902SOL    HW1 2705   3.054   2.242   1.005 -0.4329 -0.1879 -0.5068
  902SOL    HW2 2706   0.070   2.172   1.070 -1.2900 -0.7027 -0.1716
  903SOL     OW 2707   2.641   1.413   2.294 -0.1330 -0.5864 -0.1255
  903SOL    HW1 2708   2.694   1.349   2.236 -1.1875  2.0889 -1.1092
  903SOL    HW2 2709   2.655   1.396   2.393 -2.4922  0.9423 -0.4248
  904SOL     OW 2710   1.380   1.895   0.026  0.0784  0.1096  0.0516
  904SOL    HW1 2711   1.310   1.944   3.097  1.6421  0.0056 -0.1693
  904SOL    HW2 2712   1.391   1.938   0.120  2.7588  0.1982  3.8570
  905SOL     OW 2713   2.152   2.976   1.959  0.3264 -0.1314 -0.1497
  905SOL    HW1 2714   2.091   2.902   1.999  0.7064  3.1628 -2.3266
  905SOL    HW2 2715   2.228   2.995   2.025  0.9981  1.7005  0.2466
  906SOL     OW 2716   1.383   2.930   0.072  0.2643  0.7560 -0.4922
  906SOL    HW1 2717   1.439   2.936   3.112  1.1946  1.5285 -1.2760
  906SOL    HW2 2718   1.414   2.847   0.120 -1.4682  0.8611 -0.0505
  907SOL     OW 2719   0.139   2.808   0.879  0.1882 -0.2022  0.0508
  907SOL    HW1 2720   0.206   2.856   0.942  0.9771 -3.2097  0.8866
  907SOL    HW2 2721   0.173   2.819   0.784  1.1123  0.7256  0.3813
  908SOL     OW 2722   0.588   2.604   1.700  0.0331 -0.1510 -0.6671
  908SOL    HW1 2723   0.642   2.684   1.656 -1.0345  1.3249 -1.7105
  908SOL    HW2 2724   0.630   2.591   1.791  0.4703  0.3151  0.6501
  909SOL     OW 2725   1.791   0.573   1.363  0.2937 -0.6147 -0.0217
  909SOL    HW1 2726   1.747   0.659   1.336 -0.6794  0.5363 -1.4281
  909SOL    HW2 2727   1.860   0.600   1.429 -0.1906 -2.1418 -1.0796
  910SOL     OW 2728   0.841   0.350   0.457  0.5497 -0.6049  0.1952
  910SOL    HW1 2729   0.820   0.272   0.392  0.3836  0.4851 -1.4560
  910SOL    HW2 2730   0.928   0.398   0.420 -0.9472  0.7868  0.2596
  911SOL     OW 2731   0.194   3.068   3.000  0.1525  0.4376 -0.4513
  911SOL    HW1 2732   0.246   0.032   2.995  0.8563  1.2564 -0.5580
  911SOL    HW2 2733   0.222   3.018   3.083  0.2907  0.7638  0.5882
  912SOL     OW 2734   3.063   2.114   2.576 -0.4379 -0.3801 -0.3264
  912SOL    HW1 2735   2.987   2.063   2.622 -0.1401 -0.5604  1.7159
  912SOL    HW2 2736   3.076   2.080   2.484  0.8675  1.9843  2.0490
  913SOL     OW 2737   2.531   3.083   0.052 -0.2746  0.0749  0.4839
  913SOL    HW1 2738   2.472   3.121   0.128 -1.1897 -0.7332  0.3059
  913SOL    HW2 2739   2.609   0.016   0.030 -0.0680 -1.6523  0.7506
  914SOL     OW 2740   1.373   1.552   1.953  0.3242  0.5315 -0.1369
  914SOL    HW1 2741   1.448   1.485   1.949 -1.1851  2.2530 -2.3685
  914SOL    HW2 2742   1.397   1.647   1.976 -0.4574 -0.3258  1.5896
  915SOL     OW 2743   2.859   2.558   2.391  0.3753 -0.3824  0.3379
  915SOL    HW1 2744   2.929   2.486   2.380 -0.4013  0.6320 -0.5954
  915SOL    HW2 2745   2.800   2.543   2.472  0.1402  0.6886  1.6720
  916SOL     OW 2746   3.012   0.715   2.458 -0.4374 -0.0412 -0.0687
  916SOL    HW1 2747   3.057   0.659   2.387  1.1294 -0.0645 -2.1326
  916SOL    HW2 2748   2.962   0.798   2.417  0.0274  1.3654 -1.2348
  917SOL     OW 2749   1.483   0.209   0.047  0.5332 -0.2782  0.2272
  917SOL    HW1 2750   1.580   0.215   0.075 -3.0925  0.1006  0.8617
  917SOL    HW2 2751   1.475   0.130   3.107 -1.4374 -0.5368 -2.1614
  918SOL     OW 2752   1.732   3.099   2.263 -0.1576 -0.1885 -0.1123
  918SOL    HW1 2753   1.686   3.095   2.356 -0.5190 -0.0417 -1.5972
  918SOL    HW2 2754   1.682   0.037   2.197 -0.3698  0.6194 -2.0798
  919SOL     OW 2755   1.561   2.407   1.509 -0.0169 -0.2802  0.1856
  919SOL    HW1 2756   1.574   2.491   1.568 -0.1035  0.0640 -0.4459
  919SOL    HW2 2757   1.492   2.348   1.551 -0.5555 -0.4962 -0.2972
  920SOL     OW 2758   0.141   0.907   0.155 -0.1436 -0.3071 -0.0755
  920SOL    HW1 2759   0.223   0.956   0.117 -2.4471  1.6302 -0.0372
  920SOL    HW2 2760   0.168   0.823   0.201 -2.7125  1.1725 -0.2323
  921SOL     OW 2761   2.407   1.045   2.438 -0.1696 -0.1289  0.3391
  921SOL    HW1 2762   2.440   1.084   2.352  0.2533 -0.7764 -0.7053
  921SOL    HW2 2763   2.383   1.115   2.508 -1.0004 -4.1694 -0.4851
  922SOL     OW 2764   1.059   1.684   2.607  0.1912  0.4203 -0.1254
  922SOL    HW1 2765   1.055   1.785   2.628 -0.2420 -0.2362 -0.8691
  922SOL    HW2 2766   0.980   1.660   2.547  1.1270 -1.3323 -3.3198
  923SOL     OW 2767   0.711   1.264   2.449  0.3064 -0.5195  0.7638
  923SOL    HW1 2768   0.628   1.210   2.463 -2.8346  1.7254 -1.2189
  923SOL    HW2 2769   0.731   1.323   2.527 -1.7617  1.5769  1.7065
  924SOL     OW 2770   0.240   2.391   2.689 -0.0887 -0.4006  0.0282
  924SOL    HW1 2771   0.145   2.415   2.718 -0.2697  0.6315  1.7159
  924SOL    HW2 2772   0.306   2.448   2.741  3.0092  0.3088 -0.5671
  925SOL     OW 2773   1.672   1.500   0.880  0.1562 -0.3347  0.0074
  925SOL    HW1 2774   1.763   1.510   0.927  2.4220  1.3536  2.6338
  925SOL    HW2 2775   1.682   1.522   0.778 -1.5120 -0.1905 -2.1758
  926SOL     OW 2776   1.748   0.469   2.636  0.5136  0.1754 -0.7007
  926SOL    HW1 2777   1.744   0.392   2.572 -1.2984 -1.2822  1.9491
  926SOL    HW2 2778   1.689   0.547   2.608  2.3750 -1.7427 -0.3864
  927SOL     OW 2779   2.586   2.577   1.844  0.4650  0.0633 -0.4646
  927SOL    HW1 2780   2.601   2.483   1.876 -0.4488  2.6124  1.9530
  927SOL    HW2 2781   2.559   2.640   1.920 -0.7035 -1.8808  3.4675
  928SOL     OW 2782   0.629   1.037   2.740  0.0046 -0.1339  0.4514
  928SOL    HW1 2783   0.588   1.031   2.647  0.7701  0.9710  0.0776
  928SOL    HW2 2784   0.726   1.011   2.745  0.9421  0.9192 -0.7978
  929SOL     OW 2785   0.107   0.248   0.926  0.2633 -0.1477 -0.3193
  929SOL    HW1 2786   0.113   0.254   0.826  0.1890 -0.5213  1.1823
  929SOL    HW2 2787   0.010   0.215   0.941  1.4621 -0.3417 -2.4820
  930SOL     OW 2788   2.571   0.130   2.009 -0.1508  0.2731  0.4746
  930SOL    HW1 2789   2.496   0.103   1.944  1.0796  1.8082  4.3445
  930SOL    HW2 2790   2.661   0.134   1.961 -0.2771 -3.2038  0.5617
  931SOL     OW 2791   2.309   1.265   2.964 -0.1226  0.0869 -0.3639
  931SOL    HW1 2792   2.226   1.207   2.959  2.4866  1.9253  0.4298
  931SOL    HW2 2793   2.368   1.238   3.044  1.7524  0.1895  0.1899
  932SOL     OW 2794   2.785   1.278   0.866 -0.1134 -0.7876 -0.0723
  932SOL    HW1 2795   2.855   1.350   0.895  2.7497  1.0741  0.6285
  932SOL    HW2 2796   2.716   1.320   0.808  3.5331 -1.0826 -0.5624
  933SOL     OW 2797   2.872   2.448   1.578 -0.0168  0.5688  0.5215
  933SOL    HW1 2798   2.874   2.358   1.623 -0.6373 -0.0796  1.7637
  933SOL    HW2 2799   2.778   2.485   1.577  1.0481 -1.5356 -1.4865
  934SOL     OW 2800   0.375   2.953   1.357  0.0408 -0.1169  0.0175
  934SOL    HW1 2801   0.430   2.874   1.390 -2.0893 -2.9236  1.9878
  934SOL    HW2 2802   0.413   3.049   1.361  0.2361 -0.5918 -1.2694
  935SOL     OW 2803   2.538   0.350   2.171 -0.3623 -0.4505  0.5117
  935SOL    HW1 2804   2.461   0.408   2.136 -0.9312 -0.7327  0.7123
  935SOL    HW2 2805   2.552   0.268   2.113 -0.2898  0.9638 -2.0261
  936SOL     OW 2806   2.642   0.836   1.943  0.1147 -0.3326  0.1414
  936SOL    HW1 2807   2.735   0.822   1.907 -4.3261  3.4898  0.1174
  936SOL    HW2 2808   2.583   0.751   1.937 -2.0090 -2.1090 -1.0679
  937SOL     OW 2809   1.779   1.314   1.768 -0.2547 -0.3635  0.4693
  937SOL    HW1 2810   1.781   1.406   1.732  2.1998  0.7250 -0.8151
  937SOL    HW2 2811   1.868   1.291   1.814 -0.5460 -1.0332  1.6018
  938SOL     OW 2812   0.709   2.237   3.085  0.1033  0.0554 -0.3916
  938SOL    HW1 2813   0.749   2.314   0.018  1.1226  1.5956  1.1508
  938SOL    HW2 2814   0.613   2.261   3.064  1.0807  4.0339  1.2477
  939SOL     OW 2815   2.144   0.499   3.041  0.4230  0.2862 -0.0730
  939SOL    HW1 2816   2.208   0.508   3.123  0.2663  0.0195  4.4662
  939SOL    HW2 2817   2.106   0.404   3.038 -1.2685 -0.1680  2.3076
  940SOL     OW 2818   1.448   2.665   0.965  0.2207 -0.7023  0.6086
  940SOL    HW1 2819   1.497   2.586   0.922  0.3502 -2.8140 -0.7671
  940SOL    HW2 2820   1.464   2.665   1.070 -0.5823  0.7906  0.0507
  941SOL     OW 2821   1.285   2.088   1.802 -0.1384  0.8235 -0.5504
  941SOL    HW1 2822   1.267   2.178   1.840 -0.0029  0.2903  1.3493
  941SOL    HW2 2823   1.206   2.027   1.803  3.4289  0.0609 -0.5039
  942SOL     OW 2824   2.811   2.099   2.970  0.2396  0.0847  0.4375
  942SOL    HW1 2825   2.821   2.047   2.879 -0.4195 -0.5053  0.1922
  942SOL    HW2 2826   2.713   2.112   3.002 -1.9279 -2.2213  0.3043
  943SOL     OW 2827   2.297   2.806   1.786  0.0820  0.4001 -0.6287
  943SOL    HW1 2828   2.232   2.842   1.858 -1.7439 -0.5008 -2.6266
  943SOL    HW2 2829   2.394   2.841   1.804  0.1957  0.4921 -0.9772
  944SOL     OW 2830   1.973   2.043   2.687 -0.2925  0.0532  0.3850
  944SOL    HW1 2831   1.894   1.982   2.661 -1.1624 -2.1677  0.2749
  944SOL    HW2 2832   1.979   2.121   2.615 -0.9223  2.5018 -0.6660
  945SOL     OW 2833   2.756   1.832   0.927 -0.4678  0.4896  0.1855
  945SOL    HW1 2834   2.826   1.811   1.005  0.3086  2.5070  2.1240
  945SOL    HW2 2835   2.713   1.747   0.891  1.7385  0.9517 -0.0368
  946SOL     OW 2836   1.401   1.238   2.994 -0.2235  0.5682 -0.0405
  946SOL    HW1 2837   1.326   1.168   2.990  1.3796  2.0710 -1.2972
  946SOL    HW2 2838   1.376   1.311   3.060  3.0638 -2.2782 -1.5590
  947SOL     OW 2839   0.095   0.886   2.272 -0.7944  0.7413  0.1251
  947SOL    HW1 2840   0.014   0.894   2.207 -0.7810 -2.1651  2.6033
  947SOL    HW2 2841   0.173   0.837   2.228  1.7709  1.3353 -0.2599
  948SOL     OW 2842   0.228   1.157   0.417  0.3332 -0.4687  0.1721
  948SOL    HW1 2843   0.231   1.238   0.479  0.1455 -1.4084  0.6219
  948SOL    HW2 2844   0.136   1.149   0.370 -1.0102 -0.8924 -1.2175
  949SOL     OW 2845   0.658   0.336   2.739 -0.3115  0.9540 -0.1407
  949SOL    HW1 2846   0.731   0.401   2.767 -1.0338 -2.8630  2.3894
  949SOL    HW2 2847   0.674   0.289   2.648  1.6578 -1.2408 -1.8031
  950SOL     OW 2848   0.085   0.529   1.642 -0.3372  0.0695 -0.1536
  950SOL    HW1 2849   0.103   0.612   1.699  0.5825  0.3279 -0.0325
  950SOL    HW2 2850   0.130   0.536   1.548  0.9497 -0.3679  2.2322
  951SOL     OW 2851   0.250   1.322   2.479 -0.1278  0.1408 -0.1121
  951SOL    HW1 2852   0.188   1.302   2.404 -0.4110 -0.6725  0.2252
  951SOL    HW2 2853   0.234   1.261   2.561  0.5004 -0.1917  2.3523
  952SOL     OW 2854   1.815   2.429   1.408  0.4057  0.0143  0.5849
  952SOL    HW1 2855   1.722   2.423   1.445  0.4353  0.8140  4.0295
  952SOL    HW2 2856   1.868   2.506   1.446 -1.9859  2.8956 -1.0763
  953SOL     OW 2857   0.486   2.504   0.017 -0.1017  0.0140 -0.1788
  953SOL    HW1 2858   0.419   2.517   0.094  0.6876 -0.9077  2.8760
  953SOL    HW2 2859   0.463   2.432   3.074 -0.0350  1.3565  0.3482
  954SOL     OW 2860   2.878   0.833   0.908  0.2572 -0.4845 -0.0204
  954SOL    HW1 2861   2.810   0.908   0.934 -1.2776  1.3195 -2.4755
  954SOL    HW2 2862   2.901   0.846   0.808  0.7313  1.9472 -1.2545
  955SOL     OW 2863   1.622   1.401   0.145  0.3225  0.3389  0.3169
  955SOL    HW1 2864   1.644   1.346   0.060  0.7805  1.3240  0.8672
  955SOL    HW2 2865   1.698   1.390   0.210 -0.3107 -0.6515 -1.4331
  956SOL     OW 2866   1.086   0.675   2.441  0.3987 -0.2535 -0.4667
  956SOL    HW1 2867   1.060   0.701   2.537 -2.2585 -1.7628  2.0422
  956SOL    HW2 2868   1.040   0.589   2.409  0.1696  2.2454 -1.7816
  957SOL     OW 2869   0.765   0.486   1.961  0.1642  0.1178  0.0310
  957SOL    HW1 2870   0.683   0.435   1.999 -3.5043 -1.4533 -1.3180
  957SOL    HW2 2871   0.825   0.525   2.037  0.9213 -0.5603  0.3866
  958SOL     OW 2872   0.498   2.058   0.436 -0.3793 -0.6161  0.6140
  958SOL    HW1 2873   0.509   2.140   0.499  2.2556  2.1269 -0.1470
  958SOL    HW2 2874   0.528   2.082   0.339  0.7146  2.9743  0.0690
  959SOL     OW 2875   2.259   0.591   1.667  0.2120  0.2252  0.3920
  959SOL    HW1 2876   2.200   0.674   1.673  0.9533 -3.9091 -1.2089
  959SOL    HW2 2877   2.288   0.553   1.759  0.6691  0.7859  2.4094
  960SOL     OW 2878   0.250   1.526   2.660  0.3253 -0.2521 -0.0971
  960SOL    HW1 2879   0.243   1.438   2.603  2.2151 -0.6624  3.1230
  960SOL    HW2 2880   0.200   1.506   2.748 -0.8239 -0.2981 -0.1681
  961SOL     OW 2881   0.712   1.866   0.756  0.5053 -0.2911 -0.0610
  961SOL    HW1 2882   0.693   1.955   0.710 -2.1032  1.9142 -0.0803
  961SOL    HW2 2883   0.630   1.848   0.815 -0.9660 -1.6180  1.9877
  962SOL     OW 2884   0.652   1.657   1.116  0.2736  0.0328  0.2304
  962SOL    HW1 2885   0.668   1.578   1.054  2.3717  1.5684 -1.6721
  962SOL    HW2 2886   0.694   1.646   1.209 -0.5893 -1.5619  0.3048
  963SOL     OW 2887   1.567   2.378   2.696 -0.6511  0.4381  0.5329
  963SOL    HW1 2888   1.494   2.315   2.674  1.4140  0.6783 -1.1675
  963SOL    HW2 2889   1.634   2.372   2.614  0.9526  1.4770 -1.3731
  964SOL     OW 2890   0.090   2.709   2.527 -0.4347 -0.4426  0.7073
  964SOL    HW1 2891   0.189   2.719   2.562  0.1872  0.3284  1.7268
  964SOL    HW2 2892   0.050   2.803   2.509 -1.7492 -0.3466  1.4203
  965SOL     OW 2893   2.505   2.342   2.615 -0.0638  0.0629  0.1476
  965SOL    HW1 2894   2.572   2.263   2.612  1.0859 -2.0679  3.8454
  965SOL    HW2 2895   2.553   2.424   2.578 -0.8999 -1.3267  3.7551
  966SOL     OW 2896   2.847   1.499   2.727 -0.2131  0.0152 -0.4907
  966SOL    HW1 2897   2.864   1.587   2.776  0.9116  1.0685 -0.5524
  966SOL    HW2 2898   2.832   1.419   2.788 -0.9719  1.1031  0.1430
  967SOL     OW 2899   2.160   0.172   0.652  0.3802  0.3774 -0.0691
  967SOL    HW1 2900   2.095   0.139   0.725 -3.0034 -1.6079 -0.5258
  967SOL    HW2 2901   2.183   0.268   0.677 -1.1745 -0.4620 -0.2206
  968SOL     OW 2902   2.692   0.146   0.725  0.5053 -0.2975  0.4968
  968SOL    HW1 2903   2.602   0.199   0.733  0.6348 -0.5646  3.4842
  968SOL    HW2 2904   2.693   0.077   0.795  1.4754 -0.7157 -1.6076
  969SOL     OW 2905   0.618   0.939   2.250  0.1779 -0.1033 -0.3186
  969SOL    HW1 2906   0.660   0.958   2.158  0.5149  1.1797  0.6119
  969SOL    HW2 2907   0.684   0.973   2.322 -1.2937 -0.0696 -1.0083
  970SOL     OW 2908   2.023   1.454   2.675 -0.2268 -0.1035  0.5222
  970SOL    HW1 2909   1.973   1.511   2.738 -0.9741  0.2905 -1.6933
  970SOL    HW2 2910   2.019   1.489   2.579  0.2400  0.3389 -0.7097
  971SOL     OW 2911   2.414   0.061   1.797 -0.3607 -0.8287 -0.1630
  971SOL    HW1 2912   2.339   0.133   1.791 -3.7604  0.0757 -1.4522
  971SOL    HW2 2913   2.474   0.067   1.716  1.2332 -0.7383 -0.5421
  972SOL     OW 2914   0.068   0.597   1.118 -0.6311 -0.5343  0.5301
  972SOL    HW1 2915   0.010   0.515   1.098 -0.1386 -1.8447  0.6066
  972SOL    HW2 2916   0.135   0.607   1.041 -1.2151 -0.1338 -1.8691
  973SOL     OW 2917   2.978   0.121   2.392  0.7183 -0.7586 -0.2789
  973SOL    HW1 2918   3.051   0.124   2.463 -0.6823 -1.0149 -1.3043
  973SOL    HW2 2919   2.896   0.181   2.412 -1.3681  1.6759 -2.5005
  974SOL     OW 2920   3.079   0.941   1.575  0.4853  0.0649 -0.5731
  974SOL    HW1 2921   0.031   0.977   1.523 -0.4754 -2.5986  2.3278
  974SOL    HW2 2922   3.026   0.875   1.520  2.1400  1.1923 -0.0542
  975SOL     OW 2923   1.368   3.121   2.203  0.1146  0.3093 -0.1683
  975SOL    HW1 2924   1.379   3.020   2.222 -0.2379  1.9093 -2.1063
  975SOL    HW2 2925   1.445   0.043   2.164 -3.6047 -3.1344 -1.0320
  976SOL     OW 2926   2.075   1.452   1.542 -0.4156  0.3597 -0.1725
  976SOL    HW1 2927   2.056   1.477   1.443 -0.9493  1.0602 -1.5909
  976SOL    HW2 2928   2.000   1.483   1.609 -0.2527  0.5134  3.4453
  977SOL     OW 2929   3.044   3.028   0.016 -0.2178 -0.1972  0.0493
  977SOL    HW1 2930   3.083   2.941   3.105  0.3185  0.9497  0.5980
  977SOL    HW2 2931   2.976   3.065   3.074 -0.0953  0.3261  2.1403
  978SOL     OW 2932   2.194   1.318   2.330  0.3768 -0.6460 -0.3256
  978SOL    HW1 2933   2.284   1.282   2.300  0.6799  0.9227  1.5147
  978SOL    HW2 2934   2.134   1.242   2.365 -0.8623  0.6118 -0.4795
  979SOL     OW 2935   0.843   1.007   2.401 -0.0162 -0.0274  0.1083
  979SOL    HW1 2936   0.919   1.019   2.330  1.8008  1.1454 -1.1230
  979SOL    HW2 2937   0.800   1.101   2.416 -4.0455 -0.3471 -2.4626
  980SOL     OW 2938   1.791   1.827   2.679  0.0910 -0.0342 -0.1937
  980SOL    HW1 2939   1.691   1.856   2.674 -2.8325  2.6938 -0.5327
  980SOL    HW2 2940   1.807   1.751   2.609 -0.9550 -2.5610 -1.2336
  981SOL     OW 2941   1.323   0.785   1.842  0.0608  0.1379 -0.0590
  981SOL    HW1 2942   1.314   0.799   1.739  0.5663  0.9930  0.5310
  981SOL    HW2 2943   1.336   0.688   1.865 -1.5241 -1.5396  1.3134
  982SOL     OW 2944   0.794   0.139   0.272 -0.1714 -0.1796  0.1468
  982SOL    HW1 2945   0.763   0.102   0.359  0.8879 -0.5160 -3.0892
  982SOL    HW2 2946   0.749   0.101   0.188  1.9405  1.7576 -0.9208
  983SOL     OW 2947   2.050   0.827   0.095  0.2882 -0.0169  0.3027
  983SOL    HW1 2948   2.079   0.730   0.112  1.0077 -1.5950 -0.2278
  983SOL    HW2 2949   2.078   0.882   0.176 -2.1105  2.2666  1.4696
  984SOL     OW 2950   1.148   0.309   3.026 -0.3793  0.0323 -0.6913
  984SOL    HW1 2951   1.109   0.331   3.114  1.1448  0.7661 -0.9641
  984SOL    HW2 2952   1.248   0.331   3.024  2.1441 -0.6718 -0.3502
  985SOL     OW 2953   1.234   2.675   1.723  0.2421 -0.8760  0.2498
  985SOL    HW1 2954   1.233   2.764   1.675  0.2156  0.5057 -0.9232
  985SOL    HW2 2955   1.233   2.595   1.658  1.9701  0.1139  4.0954
  986SOL     OW 2956   2.518   2.947   1.865 -0.0629  0.0972 -0.3134
  986SOL    HW1 2957   2.476   3.040   1.842 -0.8832  0.6640  0.7274
  986SOL    HW2 2958   2.613   2.947   1.826  2.0033  0.1143 -3.8249
  987SOL     OW 2959   2.197   1.298   1.211 -0.5258  0.2716  0.0298
  987SOL    HW1 2960   2.234   1.309   1.115  0.8090 -1.1630 -1.3052
  987SOL    HW2 2961   2.230   1.207   1.242 -0.1912  1.6580 -2.0756
  988SOL     OW 2962   2.349   1.063   1.659 -0.5450  0.1222  0.1231
  988SOL    HW1 2963   2.426   1.065   1.729 -2.1386  1.5015 -2.4749
  988SOL    HW2 2964   2.327   1.158   1.619 -1.3883 -0.7424 -3.1518
  989SOL     OW 2965   1.980   2.100   0.016 -0.1465  0.1640  0.1111
  989SOL    HW1 2966   1.943   2.155   3.072  3.1901 -3.7315  2.4755
  989SOL    HW2 2967   2.041   2.028   3.104 -0.5847  1.6752 -2.0944
  990SOL     OW 2968   1.507   0.680   2.303 -0.8843  0.4843  0.2833
  990SOL    HW1 2969   1.542   0.638   2.392 -1.2691  0.5063  1.0310
  990SOL    HW2 2970   1.592   0.696   2.249 -0.4213 -0.1034 -2.8458
  991SOL     OW 2971   1.240   1.140   0.548 -0.5855 -0.3485  0.7305
  991SOL    HW1 2972   1.161   1.083   0.582 -0.9731 -0.3215 -0.3725
  991SOL    HW2 2973   1.283   1.204   0.613  3.1243  0.4929 -1.5416
  992SOL     OW 2974   0.154   1.026   1.431 -0.0994  0.2300  0.1871
  992SOL    HW1 2975   0.223   1.098   1.457 -0.1333 -0.3222  0.6007
  992SOL    HW2 2976   0.145   1.008   1.332  1.0809 -3.9409  0.9687
  993SOL     OW 2977   2.482   0.616   1.964  0.0249  0.2205 -0.5887
  993SOL    HW1 2978   2.447   0.688   2.026 -0.1882  2.3287 -0.1932
  993SOL    HW2 2979   2.407   0.558   1.926  0.8141  0.0700 -3.0471
  994SOL     OW 2980   1.519   1.972   1.904 -0.8972 -0.5582  0.0932
  994SOL    HW1 2981   1.484   1.900   1.964  0.4753  1.4439 -0.9970
  994SOL    HW2 2982   1.444   2.016   1.849  0.8656 -0.4803 -0.5818
  995SOL     OW 2983   2.350   1.951   2.953  0.1531 -0.1890 -0.0995
  995SOL    HW1 2984   2.263   1.942   3.002  2.4452 -0.4388 -0.3571
  995SOL    HW2 2985   2.406   1.868   2.964 -3.9591  2.7467  1.7622
  996SOL     OW 2986   2.184   1.570   3.076  0.0369  0.1583 -0.2972
  996SOL    HW1 2987   2.102   1.513   3.079  1.7431  1.8222  2.6749
  996SOL    HW2 2988   2.219   1.572   2.982  0.4545 -1.5500 -0.1617
  997SOL     OW 2989   1.810   0.696   2.297 -0.5887  0.3460  0.1416
  997SOL    HW1 2990   1.849   0.629   2.231 -0.7889  2.6391 -0.9542
  997SOL    HW2 2991   1.859   0.689   2.381 -5.7913 -0.9521 -1.4277
  998SOL     OW 2992   2.530   0.729   0.657  0.1192  0.3486 -0.0967
  998SOL    HW1 2993   2.506   0.697   0.749 -0.3694  1.2172  0.6388
  998SOL    HW2 2994   2.537   0.651   0.587  1.2900 -1.9708 -1.9315
  999SOL     OW 2995   2.470   1.182   0.627  0.1706 -0.1755  0.0451
  999SOL    HW1 2996   2.526   1.101   0.599 -2.5330 -0.1921  0.2981
  999SOL    HW2 2997   2.419   1.160   0.710  1.7204 -0.8292  0.3951
 1000SOL     OW 2998   0.547   1.328   1.748  0.4510  0.2668 -0.0115
 1000SOL    HW1 2999   0.535   1.272   1.834 -1.2674  0.5360 -4.4046
 1000SOL    HW2 3000   0.463   1.345   1.696  2.2948  2.5159  3.4193
   3.12575   3.12575   3.12575
