1000 SPC/Fw water molecules t= 382.00000 step= 382000
 3000
    1SOL     OW    1   2.611   2.856   1.555 -0.4698  0.0727 -0.3947
    1SOL    HW1    2   2.606   2.948   1.597  3.3223  1.4561  0.1363
    1SOL    HW2    3   2.536   2.798   1.599  2.8216 -2.5326  1.6276
    2SOL     OW    4   2.276   2.450   0.532  0.1520  0.1270 -0.5705
    2SOL    HW1    5   2.200   2.412   0.592  0.5368 -0.0409  1.0453
    2SOL    HW2    6   2.232   2.498   0.455  1.0607 -0.0069  1.3017
    3SOL     OW    7   1.335   0.001   0.232  0.0545  0.7209 -0.4224
    3SOL    HW1    8   1.250   0.050   0.231  4.5735 -1.6274  2.6829
    3SOL    HW2    9   1.395   0.032   0.154  1.2796 -0.3265 -0.6701
    4SOL     OW   10   1.131   0.075   2.195  0.0980  0.4225  0.6377
    4SOL    HW1   11   1.120   0.013   2.272  0.4215  2.6824  0.3964
    4SOL    HW2   12   1.143   0.016   2.113 -1.6193 -2.3878  0.9560
    5SOL     OW   13   2.239   0.305   1.460  0.5293  0.2216 -0.6145
    5SOL    HW1   14   2.248   0.315   1.360  3.0723 -1.0856 -0.0855
    5SOL    HW2   15   2.152   0.269   1.493 -1.3984  1.2033  0.3127
    6SOL     OW   16   2.150   1.873   0.488 -0.0735  0.1319  0.2676
    6SOL    HW1   17   2.168   1.825   0.403  1.6432 -1.8186 -1.1325
    6SOL    HW2   18   2.098   1.957   0.470 -0.4600  4.4275  0.7429
    7SOL     OW   19   2.103   1.004   0.885  0.0691 -0.2100 -0.1670
    7SOL    HW1   20   2.098   1.071   0.959 -0.3983 -1.8497 -2.6417
    7SOL    HW2   21   2.068   0.916   0.924  0.0186  1.0136 -2.1258
    8SOL     OW   22   0.751   1.358   1.130 -0.0565 -0.2463 -0.3675
    8SOL    HW1   23   0.810   1.440   1.116 -2.4722 -2.2051  0.2409
    8SOL    HW2   24   0.716   1.354   1.227 -1.3540 -1.6798  2.2068
    9SOL     OW   25   0.694   2.649   1.671  0.3931  0.6139  0.8790
    9SOL    HW1   26   0.627   2.706   1.620  2.7679  1.0048  0.1036
    9SOL    HW2   27   0.673   2.545   1.658 -0.6600 -1.9880 -0.8317
   10SOL     OW   28   1.171   2.425   0.525  0.0969 -0.3841  0.1057
   10SOL    HW1   29   1.252   2.472   0.480  1.3019  0.6905 -0.1427
   10SOL    HW2   30   1.206   2.337   0.560  1.2242 -1.0860 -0.6812
   11SOL     OW   31   1.717   1.629   1.364 -0.7973  0.0169  0.0334
   11SOL    HW1   32   1.691   1.730   1.365  1.2725  1.0408 -0.8345
   11SOL    HW2   33   1.762   1.606   1.273  2.5166 -1.3661  0.4812
   12SOL     OW   34   2.809   0.449   1.863 -0.3719 -0.0016 -0.7032
   12SOL    HW1   35   2.898   0.417   1.900 -0.6341 -1.5285 -1.9642
   12SOL    HW2   36   2.767   0.530   1.916 -1.3990 -0.7366  0.4528
   13SOL     OW   37   2.616   0.261   0.486 -0.1445  0.0836  0.5328
   13SOL    HW1   38   2.538   0.201   0.466 -0.1339 -0.4967 -0.5644
   13SOL    HW2   39   2.664   0.229   0.571  1.0510 -0.8042  0.6068
   14SOL     OW   40   1.775   1.298   3.056 -1.0028  0.3053 -0.1464
   14SOL    HW1   41   1.813   1.223   2.998 -1.2059 -1.7075  1.4176
   14SOL    HW2   42   1.695   1.347   3.016 -0.2235 -0.2384  1.6380
   15SOL     OW   43   2.518   2.427   1.581  0.1433 -0.1875  0.1559
   15SOL    HW1   44   2.467   2.474   1.510 -0.5892 -0.6938  0.7504
   15SOL    HW2   45   2.478   2.436   1.671  0.5967 -0.4863 -3.6437
   16SOL     OW   46   2.341   2.926   1.178 -0.9409 -0.0484 -0.2003
   16SOL    HW1   47   2.442   2.936   1.199 -1.5510  1.3509  1.5493
   16SOL    HW2   48   2.301   3.021   1.174 -3.7615  1.7260  1.3600
   17SOL     OW   49   0.974   0.292   1.427 -0.1330 -0.1953  0.2198
   17SOL    HW1   50   0.913   0.222   1.382 -1.0110  0.3777  0.7345
   17SOL    HW2   51   0.938   0.331   1.517 -0.7731  0.0704  0.9069
   18SOL     OW   52   1.620   0.475   0.844 -0.1095  0.7370 -0.0682
   18SOL    HW1   53   1.562   0.551   0.875  0.7514 -2.1430 -3.0612
   18SOL    HW2   54   1.596   0.389   0.896  0.1746  1.7488  3.4565
   19SOL     OW   55   2.160   1.320   0.300  0.2842  0.0949 -0.9030
   19SOL    HW1   56   2.107   1.369   0.227 -0.9210  1.2784 -0.8568
   19SOL    HW2   57   2.104   1.323   0.381  2.6924 -1.8633 -1.6098
   20SOL     OW   58   2.083   1.488   2.208 -0.0674 -0.4782  0.4168
   20SOL    HW1   59   2.160   1.446   2.155 -2.3297  1.8538 -3.9544
   20SOL    HW2   60   2.020   1.414   2.231  0.5269  0.9522  2.5069
   21SOL     OW   61   1.234   0.270   0.691  0.1890 -0.2188  0.1919
   21SOL    HW1   62   1.260   0.278   0.598 -1.2194 -0.1581  0.4147
   21SOL    HW2   63   1.141   0.224   0.697 -2.0154 -1.2005  0.0049
   22SOL     OW   64   2.595   0.725   0.951 -0.2284  0.1111  0.1273
   22SOL    HW1   65   2.551   0.810   0.916  2.0225  0.5835 -1.0352
   22SOL    HW2   66   2.644   0.746   1.042 -2.3482 -4.2097  1.2395
   23SOL     OW   67   0.248   0.047   1.811 -0.0048  0.0294 -0.0280
   23SOL    HW1   68   0.308   0.129   1.792  0.9053 -0.7849  0.3927
   23SOL    HW2   69   0.311   3.053   1.854  0.0199  0.0207  0.8761
   24SOL     OW   70   2.431   2.719   0.298  0.5592 -0.5779 -0.1824
   24SOL    HW1   71   2.355   2.735   0.233 -0.7044 -0.0548 -1.5734
   24SOL    HW2   72   2.416   2.743   0.394 -0.6596  0.5685  0.4617
   25SOL     OW   73   1.643   0.080   2.762 -0.3180 -0.5267  0.1924
   25SOL    HW1   74   1.675   3.062   2.758  0.8648  2.2930 -1.8387
   25SOL    HW2   75   1.678   0.123   2.851  0.8738 -0.0384  0.9908
   26SOL     OW   76   1.640   2.450   0.151 -0.2073  0.0311  0.1297
   26SOL    HW1   77   1.626   2.553   0.153  0.4259  1.7334  2.0811
   26SOL    HW2   78   1.641   2.421   0.252 -0.4770  0.9750  0.3353
   27SOL     OW   79   1.214   0.690   1.172  0.0950 -0.1203  0.2053
   27SOL    HW1   80   1.193   0.697   1.074  0.2779  1.1845  0.3723
   27SOL    HW2   81   1.145   0.630   1.214 -0.2394 -2.4094 -0.6352
   28SOL     OW   82   1.282   1.449   0.855 -0.1767 -0.1101 -0.2294
   28SOL    HW1   83   1.196   1.504   0.862  0.9742  1.1973  0.0350
   28SOL    HW2   84   1.352   1.495   0.803  0.1119 -0.3067  2.5677
   29SOL     OW   85   2.906   0.134   1.731  0.8690  0.2028 -0.4019
   29SOL    HW1   86   2.937   0.054   1.680 -1.0211  1.0069  0.9920
   29SOL    HW2   87   2.884   0.211   1.669 -0.0871 -1.4386 -1.6566
   30SOL     OW   88   1.038   2.979   1.327  0.4073 -0.2972 -0.1731
   30SOL    HW1   89   1.033   2.997   1.426 -0.3618  1.2534  0.2783
   30SOL    HW2   90   1.136   2.997   1.299 -0.0652  1.8834  1.2281
   31SOL     OW   91   1.963   3.062   1.682 -0.5146 -0.1104 -0.4042
   31SOL    HW1   92   1.918   3.034   1.770 -2.3371  0.2580  0.0797
   31SOL    HW2   93   1.925   3.006   1.607  3.2379  0.7294  1.2554
   32SOL     OW   94   1.196   1.811   0.098  0.0289  0.3817 -0.0319
   32SOL    HW1   95   1.245   1.885   0.047  0.8807 -0.1900  0.3492
   32SOL    HW2   96   1.134   1.766   0.031  0.9670  0.7087  0.1127
   33SOL     OW   97   2.825   0.732   2.205 -0.4875  0.0509  0.1251
   33SOL    HW1   98   2.784   0.809   2.157  1.7004 -0.5633 -0.3377
   33SOL    HW2   99   2.878   0.670   2.144 -2.2831 -0.0247  1.0107
   34SOL     OW  100   2.227   0.216   0.361  0.6538  0.0473 -0.0078
   34SOL    HW1  101   2.167   0.282   0.406  2.7944 -0.7194 -1.4517
   34SOL    HW2  102   2.172   0.151   0.305  0.3137 -0.3945 -0.7490
   35SOL     OW  103   2.380   2.452   1.828 -0.4544 -0.0957 -0.0453
   35SOL    HW1  104   2.445   2.412   1.894  0.6274  1.9546 -2.6422
   35SOL    HW2  105   2.281   2.426   1.846 -0.9737 -0.0628 -0.5572
   36SOL     OW  106   2.059   1.852   2.911 -0.6791  0.0727  0.2688
   36SOL    HW1  107   2.081   1.841   2.813 -0.9460 -0.3181 -2.3467
   36SOL    HW2  108   2.056   1.760   2.958  0.3010 -1.6266 -2.8271
   37SOL     OW  109   1.943   0.223   1.566 -0.5334 -0.2398  0.0727
   37SOL    HW1  110   1.986   0.300   1.626 -1.5985  3.4502  1.2069
   37SOL    HW2  111   1.959   0.131   1.610 -1.6480 -1.1058 -0.9380
   38SOL     OW  112   0.231   0.249   2.922 -0.5969 -0.0914  0.6894
   38SOL    HW1  113   0.211   0.286   3.014 -2.5867  2.1941 -1.3738
   38SOL    HW2  114   0.252   0.149   2.915  0.9137 -3.3671 -0.1932
   39SOL     OW  115   1.739   1.286   2.029 -0.2347  0.3527  0.1266
   39SOL    HW1  116   1.770   1.301   2.123  1.1640 -1.6049 -1.1877
   39SOL    HW2  117   1.801   1.349   1.972  2.1191 -0.3018 -0.8338
   40SOL     OW  118   1.291   1.954   0.835 -0.2437  0.3005 -0.0046
   40SOL    HW1  119   1.365   1.885   0.821 -0.8788  1.1299 -0.3669
   40SOL    HW2  120   1.292   2.032   0.769 -3.0691 -3.5300  0.1318
   41SOL     OW  121   1.960   1.803   0.880  0.5779  0.3038 -0.0306
   41SOL    HW1  122   2.037   1.864   0.844  2.2323  0.9931 -1.3717
   41SOL    HW2  123   1.959   1.707   0.845 -0.0930 -0.8484 -0.1352
   42SOL     OW  124   0.131   0.778   1.405 -0.4102  0.1764 -0.5361
   42SOL    HW1  125   0.084   0.721   1.479 -2.4926 -3.0532  3.2031
   42SOL    HW2  126   0.219   0.818   1.442  2.7248  0.5033 -1.5895
   43SOL     OW  127   0.216   1.641   2.914 -0.2091 -0.2070  0.2542
   43SOL    HW1  128   0.218   1.741   2.938 -0.9477  1.8817 -2.8482
   43SOL    HW2  129   0.289   1.585   2.944 -2.5502  5.3650  0.0118
   44SOL     OW  130   1.496   2.718   1.311 -0.4355 -0.0317  0.2271
   44SOL    HW1  131   1.423   2.726   1.381 -1.7321  0.6704 -1.5433
   44SOL    HW2  132   1.565   2.795   1.315 -0.7903 -0.3348 -1.1526
   45SOL     OW  133   1.094   2.960   2.387 -1.1283  0.1590  0.1309
   45SOL    HW1  134   1.054   2.870   2.351 -0.3672 -4.0481 -2.2050
   45SOL    HW2  135   1.032   3.014   2.442  1.7201  0.0733 -1.0065
   46SOL     OW  136   0.692   2.601   2.414 -0.2595  0.6543  0.0719
   46SOL    HW1  137   0.697   2.655   2.325 -1.0075  0.1699  0.5539
   46SOL    HW2  138   0.746   2.657   2.481  1.7049 -0.4474 -0.6583
   47SOL     OW  139   1.000   2.298   0.871  0.0639 -0.0649  0.1740
   47SOL    HW1  140   0.946   2.377   0.831 -1.1696  2.4557 -0.8421
   47SOL    HW2  141   0.954   2.250   0.950  0.4458  2.9976  0.6603
   48SOL     OW  142   0.826   2.141   1.052 -0.3904 -0.3411 -0.0256
   48SOL    HW1  143   0.767   2.221   1.087 -0.0426 -0.1110  0.7598
   48SOL    HW2  144   0.778   2.053   1.070 -3.2514 -0.1048 -0.9127
   49SOL     OW  145   2.474   0.418   2.901  0.7475 -0.4707  0.4919
   49SOL    HW1  146   2.426   0.491   2.959 -0.6880  1.6164  2.2030
   49SOL    HW2  147   2.470   0.436   2.801  0.5445  1.6576 -1.4377
   50SOL     OW  148   1.834   0.347   0.145  0.0417 -0.2235 -0.1845
   50SOL    HW1  149   1.925   0.312   0.132  1.0092  0.7150  1.5731
   50SOL    HW2  150   1.833   0.448   0.164  0.5014  0.0098 -0.7647
   51SOL     OW  151   1.914   0.684   1.383  0.2317 -0.0035  0.5594
   51SOL    HW1  152   1.997   0.634   1.353  1.6544 -0.1688 -0.9688
   51SOL    HW2  153   1.922   0.783   1.375 -1.1084 -0.0078 -0.3891
   52SOL     OW  154   0.489   1.686   0.212  0.0692 -0.4915  0.1614
   52SOL    HW1  155   0.501   1.605   0.150  0.1476 -0.8154  1.5039
   52SOL    HW2  156   0.459   1.768   0.157 -0.5924 -0.0867 -1.3117
   53SOL     OW  157   0.202   1.223   2.978  0.7273 -0.2594 -0.3146
   53SOL    HW1  158   0.215   1.196   0.005  3.4960 -1.7076  4.8599
   53SOL    HW2  159   0.265   1.297   2.949  0.2631 -0.0137  1.3393
   54SOL     OW  160   2.600   1.453   1.941  0.0140 -0.1407  0.2706
   54SOL    HW1  161   2.569   1.546   1.977  0.2942  1.7390  0.0774
   54SOL    HW2  162   2.649   1.397   2.016 -0.4849 -2.2165 -0.8602
   55SOL     OW  163   2.475   1.825   0.444 -0.3176 -0.0863  0.0245
   55SOL    HW1  164   2.385   1.784   0.419 -0.3890 -2.3134 -3.7784
   55SOL    HW2  165   2.493   1.837   0.542  0.5809 -2.1200  0.5046
   56SOL     OW  166   1.873   0.065   1.349  0.2614 -0.0465 -0.5815
   56SOL    HW1  167   1.887   0.113   1.262 -0.6781  0.7351  0.3472
   56SOL    HW2  168   1.908   0.120   1.432  1.4808 -0.5816  0.4367
   57SOL     OW  169   1.414   1.259   0.095  0.2122 -0.5071 -0.1230
   57SOL    HW1  170   1.441   1.220   0.007 -1.2495  0.0642  2.1743
   57SOL    HW2  171   1.436   1.201   0.180  2.3301  1.2684  2.0785
   58SOL     OW  172   2.474   0.447   1.511 -0.2729 -0.2809 -0.6021
   58SOL    HW1  173   2.498   0.496   1.595 -2.5992 -0.7728  1.1615
   58SOL    HW2  174   2.379   0.420   1.515  1.1225  2.3106 -0.7328
   59SOL     OW  175   1.265   2.658   2.999 -0.5476  0.1365 -0.8173
   59SOL    HW1  176   1.324   2.691   2.921  0.1367  0.0575  0.4504
   59SOL    HW2  177   1.234   2.734   3.059 -1.8664  0.7858 -0.8237
   60SOL     OW  178   3.071   2.226   2.927 -0.1602  0.4485 -0.0080
   60SOL    HW1  179   2.976   2.216   2.955  3.5406  1.0116 -0.2623
   60SOL    HW2  180   0.053   2.146   2.957 -0.3173  0.9763  0.2076
   61SOL     OW  181   0.641   2.345   1.077 -0.3998 -0.4099  0.0939
   61SOL    HW1  182   0.694   2.435   1.074  2.9682 -0.8066 -1.8076
   61SOL    HW2  183   0.572   2.345   1.000  2.1643  0.8454 -1.9477
   62SOL     OW  184   1.933   1.851   2.458 -0.3866 -0.0524 -1.3386
   62SOL    HW1  185   1.881   1.895   2.383 -1.3105  0.4948 -0.4379
   62SOL    HW2  186   1.870   1.808   2.525 -0.8530  0.8747  1.3120
   63SOL     OW  187   1.788   1.712   0.103  0.0512 -0.4295  0.2012
   63SOL    HW1  188   1.786   1.624   0.151  0.8544  2.0868 -3.3025
   63SOL    HW2  189   1.852   1.706   0.021 -1.8321  1.6927  0.7291
   64SOL     OW  190   2.065   0.987   0.147  0.2140  0.8798 -0.6395
   64SOL    HW1  191   2.137   1.059   0.127  0.2006 -1.5055  0.2806
   64SOL    HW2  192   2.011   1.016   0.227 -1.2153  1.3694  0.3039
   65SOL     OW  193   2.108   2.195   1.852 -0.0068 -0.5144  0.9657
   65SOL    HW1  194   2.145   2.107   1.879 -1.1019  2.5667 -2.5393
   65SOL    HW2  195   2.126   2.266   1.920 -0.2300 -0.9273  0.7553
   66SOL     OW  196   0.359   0.899   1.472  0.1244  0.2503 -0.4869
   66SOL    HW1  197   0.393   0.911   1.377  1.6138 -0.6554  1.7053
   66SOL    HW2  198   0.394   0.970   1.536  2.3224 -0.4473 -3.4992
   67SOL     OW  199   2.343   3.012   3.074 -0.2530 -0.4389  0.1730
   67SOL    HW1  200   2.276   3.039   0.069 -0.1093  1.8311  1.8504
   67SOL    HW2  201   2.342   0.013   3.005  0.9483  1.1809 -0.1976
   68SOL     OW  202   1.639   1.900   1.323 -0.0917 -0.1395  0.4635
   68SOL    HW1  203   1.708   1.969   1.295  0.0796 -1.5840 -1.8932
   68SOL    HW2  204   1.597   1.853   1.242 -0.5175  0.9491 -1.9059
   69SOL     OW  205   3.028   2.592   3.059 -0.3445  0.2801  0.1174
   69SOL    HW1  206   0.013   2.559   2.982  4.1856  0.0430 -0.3110
   69SOL    HW2  207   2.999   2.510   0.038  2.3422  2.5897 -0.0241
   70SOL     OW  208   3.050   0.702   1.867 -0.6185  0.2316  0.2176
   70SOL    HW1  209   3.034   0.668   1.774 -1.4773  2.4098  2.0587
   70SOL    HW2  210   3.062   0.805   1.859  0.8546  1.5295  0.6903
   71SOL     OW  211   0.801   1.075   2.742  0.2993  0.0536  0.2221
   71SOL    HW1  212   0.861   1.092   2.818 -2.1883 -1.4500 -2.3239
   71SOL    HW2  213   0.816   0.984   2.694  1.2173  2.0486  0.7287
   72SOL     OW  214   2.878   1.668   2.146 -0.0618 -0.1506  0.2205
   72SOL    HW1  215   2.842   1.722   2.065 -0.1803 -0.3780  0.1827
   72SOL    HW2  216   2.907   1.579   2.109 -0.2293  1.6536  0.2741
   73SOL     OW  217   1.071   1.590   0.297  0.1218 -0.3181  0.1644
   73SOL    HW1  218   1.041   1.632   0.210  0.6633  1.6428  1.9221
   73SOL    HW2  219   1.162   1.554   0.288 -2.9139  0.6166  0.1418
   74SOL     OW  220   2.267   2.949   2.790 -0.7585 -0.5711  0.0981
   74SOL    HW1  221   2.314   2.980   2.705  0.3372  1.6440 -1.6268
   74SOL    HW2  222   2.332   2.903   2.852 -0.2867 -1.1047  1.9350
   75SOL     OW  223   1.561   2.317   0.754  0.0917 -0.0303 -0.0155
   75SOL    HW1  224   1.462   2.326   0.782 -6.1530 -0.6675 -0.7957
   75SOL    HW2  225   1.577   2.221   0.740  1.4728 -0.2614  0.3780
   76SOL     OW  226   2.566   2.024   2.230 -0.2397  0.5865 -0.0154
   76SOL    HW1  227   2.472   2.020   2.186  2.3437  1.2860 -1.7189
   76SOL    HW2  228   2.618   1.936   2.225 -0.2579 -3.1148  0.8960
   77SOL     OW  229   0.204   2.542   1.654  0.3601 -0.4879 -0.2660
   77SOL    HW1  230   0.139   2.553   1.736 -2.7156 -3.0678  1.2383
   77SOL    HW2  231   0.250   2.453   1.664 -0.2608  2.9472  2.0528
   78SOL     OW  232   2.245   0.782   0.273 -0.5081  0.6247 -0.8155
   78SOL    HW1  233   2.177   0.707   0.256 -0.3988 -1.1787 -0.6841
   78SOL    HW2  234   2.208   0.870   0.261  1.1387 -3.0381 -0.2600
   79SOL     OW  235   0.063   1.449   2.461 -0.0087  0.3554 -0.1614
   79SOL    HW1  236   0.104   1.506   2.534 -1.5872 -1.3552 -0.3171
   79SOL    HW2  237   0.104   1.356   2.462  0.3614  0.0197  1.5153
   80SOL     OW  238   1.864   1.448   1.882 -0.7791  0.4325  0.3926
   80SOL    HW1  239   1.790   1.501   1.833 -0.2696 -0.0466 -1.2296
   80SOL    HW2  240   1.956   1.463   1.845 -2.0286  0.2944 -0.7571
   81SOL     OW  241   1.946   1.251   2.225  0.0862 -0.1158  0.6572
   81SOL    HW1  242   1.935   1.180   2.154  0.0960  1.5343  0.9865
   81SOL    HW2  243   1.917   1.217   2.316  1.5457 -1.3771  1.8489
   82SOL     OW  244   1.463   1.699   1.882 -0.2756  0.3122 -0.0767
   82SOL    HW1  245   1.362   1.695   1.874 -0.6317  1.6417 -3.3046
   82SOL    HW2  246   1.506   1.610   1.881 -0.9496  1.2039  4.2820
   83SOL     OW  247   0.430   0.495   0.509 -0.1123  0.1055  0.6659
   83SOL    HW1  248   0.361   0.448   0.568 -1.6537  1.7363 -1.1763
   83SOL    HW2  249   0.413   0.471   0.414  0.3028 -0.3619  3.3722
   84SOL     OW  250   0.047   0.382   0.384  0.5038 -0.1670 -0.1175
   84SOL    HW1  251   3.075   0.292   0.398 -0.8293  0.8525 -0.4323
   84SOL    HW2  252   0.036   0.413   0.291 -2.0715 -0.4891  1.3790
   85SOL     OW  253   2.220   2.323   1.197  0.1001  0.2362  0.0704
   85SOL    HW1  254   2.161   2.338   1.276  2.1531  0.0440 -0.3045
   85SOL    HW2  255   2.212   2.402   1.129  2.2622  0.8641 -2.3494
   86SOL     OW  256   0.357   0.416   1.458 -0.0112 -0.0293 -0.1768
   86SOL    HW1  257   0.279   0.398   1.396  0.3022 -1.8335  3.3966
   86SOL    HW2  258   0.422   0.337   1.468 -2.4793  1.2256 -0.7383
   87SOL     OW  259   2.958   2.384   1.901 -0.1961  0.5752  1.5756
   87SOL    HW1  260   3.020   2.314   1.862  0.5606 -1.6694  1.4236
   87SOL    HW2  261   2.965   2.377   2.003 -3.5702  0.7338  1.2297
   88SOL     OW  262   0.135   1.987   3.012  0.4609 -0.6203  0.5686
   88SOL    HW1  263   0.059   1.919   2.983  0.6892 -1.5313  0.1493
   88SOL    HW2  264   0.149   1.977   0.037  2.3710  1.0674  0.5437
   89SOL     OW  265   1.193   0.853   0.505  0.2399 -0.4576 -0.1235
   89SOL    HW1  266   1.091   0.856   0.493  1.4725  0.4313 -1.0297
   89SOL    HW2  267   1.221   0.755   0.494  0.7651 -2.0226 -0.0351
   90SOL     OW  268   0.177   1.487   2.190 -0.3401  0.3314 -0.3317
   90SOL    HW1  269   0.153   1.541   2.108  2.5028 -1.0045 -1.7691
   90SOL    HW2  270   0.130   1.506   2.276 -1.8769  0.2583  1.8768
   91SOL     OW  271   1.663   0.780   0.790  0.1616 -0.0178 -0.5941
   91SOL    HW1  272   1.559   0.755   0.794 -3.0802 -1.0269  0.0802
   91SOL    HW2  273   1.696   0.798   0.882 -0.0681 -1.7342 -3.7749
   92SOL     OW  274   2.444   1.362   0.814  0.2729 -0.0120 -0.2551
   92SOL    HW1  275   2.497   1.420   0.878  0.4237 -1.0906 -1.2953
   92SOL    HW2  276   2.497   1.286   0.782 -3.3207  0.8227  2.3900
   93SOL     OW  277   0.200   1.102   2.728 -0.0469  0.2158 -0.2628
   93SOL    HW1  278   0.204   1.149   2.822  1.3385  0.7889  0.3579
   93SOL    HW2  279   0.212   1.172   2.654 -0.8702  0.3535 -0.9057
   94SOL     OW  280   1.815   2.344   2.458  0.1443  0.0903 -0.0524
   94SOL    HW1  281   1.721   2.325   2.424 -0.2294 -2.5612  2.1612
   94SOL    HW2  282   1.876   2.322   2.379 -1.1724 -0.0767  0.5867
   95SOL     OW  283   0.199   0.373   1.247  1.0170  0.3544  0.2310
   95SOL    HW1  284   0.144   0.456   1.209 -3.9368  1.6610 -1.2601
   95SOL    HW2  285   0.284   0.357   1.190  0.9563  1.2959  0.7549
   96SOL     OW  286   3.062   2.833   1.182  0.3319  0.4114 -0.5877
   96SOL    HW1  287   2.990   2.857   1.115  3.2525 -1.3171 -1.8628
   96SOL    HW2  288   3.022   2.813   1.273 -0.7911  1.2205  0.3168
   97SOL     OW  289   2.387   0.749   1.377 -0.1363 -0.0306  0.3052
   97SOL    HW1  290   2.408   0.843   1.406  0.8577  0.3282 -1.9444
   97SOL    HW2  291   2.295   0.718   1.416  2.3294  2.0839  0.3026
   98SOL     OW  292   1.804   2.583   1.628  0.1504 -0.3108  0.1125
   98SOL    HW1  293   1.829   2.546   1.535  2.5021  1.9595  0.0926
   98SOL    HW2  294   1.707   2.606   1.637  0.0417 -0.7210  0.1408
   99SOL     OW  295   0.326   3.027   1.344 -0.0194  0.0642  0.1365
   99SOL    HW1  296   0.255   2.989   1.409 -1.7176  0.7910 -1.5235
   99SOL    HW2  297   0.419   2.985   1.357 -1.1493 -0.3176 -1.2425
  100SOL     OW  298   1.631   0.435   2.661  0.2911 -0.5238 -0.2876
  100SOL    HW1  299   1.590   0.520   2.634  0.1407 -1.2309  0.3690
  100SOL    HW2  300   1.582   0.360   2.621  0.0123  1.7203  0.1488
  101SOL     OW  301   3.037   0.197   2.304 -0.5781  0.1686  0.0201
  101SOL    HW1  302   0.019   0.129   2.261 -4.3768 -0.6347 -0.0458
  101SOL    HW2  303   3.071   0.294   2.294  0.7881  0.6508 -0.8621
  102SOL     OW  304   0.471   0.631   1.603  0.2391 -0.1099  0.0772
  102SOL    HW1  305   0.421   0.548   1.587  2.0302  4.6743  0.7455
  102SOL    HW2  306   0.483   0.673   1.509 -1.0377  0.5597 -0.0225
  103SOL     OW  307   0.830   0.448   2.818  0.9009  0.0659  0.2313
  103SOL    HW1  308   0.876   0.448   2.728 -0.3799 -3.1696 -0.2854
  103SOL    HW2  309   0.842   0.543   2.854 -0.3581 -0.5291 -1.3930
  104SOL     OW  310   0.404   0.537   2.003  0.0890 -0.0489  0.1856
  104SOL    HW1  311   0.386   0.635   1.974  1.6776  0.3794  2.1281
  104SOL    HW2  312   0.427   0.540   2.101  0.1094 -0.1442 -0.9406
  105SOL     OW  313   2.498   1.961   1.354 -0.1191  0.2424 -0.0004
  105SOL    HW1  314   2.496   2.026   1.435  0.4818  3.4329 -0.7430
  105SOL    HW2  315   2.434   1.990   1.283  1.2103  0.0575  0.1953
  106SOL     OW  316   1.492   0.238   0.415 -0.0098  0.2738 -0.2950
  106SOL    HW1  317   1.501   0.237   0.316  0.2417  1.4592  1.5974
  106SOL    HW2  318   1.408   0.289   0.443 -0.0154  1.2846  0.2494
  107SOL     OW  319   2.001   2.245   0.937  0.0954 -0.2562  0.0001
  107SOL    HW1  320   1.954   2.156   0.954 -0.2543  0.4570 -1.2646
  107SOL    HW2  321   1.966   2.317   0.999 -0.3715  0.1768 -1.8744
  108SOL     OW  322   0.064   2.259   1.305 -0.0315  0.3312  0.1108
  108SOL    HW1  323   3.045   2.224   1.294 -1.0908 -0.7572 -1.2082
  108SOL    HW2  324   0.092   2.297   1.216  1.0656 -1.5950 -0.7475
  109SOL     OW  325   2.102   2.660   0.914 -0.0134  0.1682  0.3094
  109SOL    HW1  326   2.053   2.688   0.828 -2.0169 -1.8952 -0.3709
  109SOL    HW2  327   2.031   2.636   0.985 -1.5298 -2.1537  0.9629
  110SOL     OW  328   1.180   1.747   1.859 -0.2880  0.6893  0.5032
  110SOL    HW1  329   1.134   1.686   1.792  1.4894  0.0279 -0.4771
  110SOL    HW2  330   1.191   1.839   1.821 -0.7447 -1.9497  0.5942
  111SOL     OW  331   1.734   2.393   2.016  0.5923  0.1204  0.0719
  111SOL    HW1  332   1.754   2.329   1.940  2.0674 -1.2298  0.2243
  111SOL    HW2  333   1.812   2.404   2.078  0.5778  0.0421 -0.8716
  112SOL     OW  334   1.561   1.928   0.070  0.5711 -0.1633 -0.5946
  112SOL    HW1  335   1.518   1.957   0.161 -0.8997  1.1986  1.9482
  112SOL    HW2  336   1.641   1.869   0.090 -1.2209  1.0929 -3.2713
  113SOL     OW  337   1.788   1.877   1.652  0.6077  0.1315 -0.2727
  113SOL    HW1  338   1.792   1.785   1.610  1.1186  3.7599 -2.1076
  113SOL    HW2  339   1.695   1.907   1.683  1.0128 -2.1308 -0.2811
  114SOL     OW  340   0.215   1.212   1.475  0.3135  0.2155  0.5064
  114SOL    HW1  341   0.209   1.157   1.389 -1.0222 -1.7380 -0.1938
  114SOL    HW2  342   0.124   1.256   1.491 -1.7041 -0.1464 -1.5399
  115SOL     OW  343   0.703   0.788   0.326  0.8875 -0.3047  0.2528
  115SOL    HW1  344   0.708   0.697   0.363 -0.3498  2.2945 -0.1981
  115SOL    HW2  345   0.704   0.786   0.226  0.5414 -0.2201 -1.6731
  116SOL     OW  346   2.507   1.506   2.225  0.3229  0.2227  0.9734
  116SOL    HW1  347   2.445   1.443   2.176  2.2636  1.4362  2.8169
  116SOL    HW2  348   2.571   1.446   2.282 -0.0344  1.5606 -0.4044
  117SOL     OW  349   2.798   2.461   0.350  0.0006  0.3031 -0.5313
  117SOL    HW1  350   2.850   2.539   0.386  0.3169 -0.5492  2.3946
  117SOL    HW2  351   2.782   2.398   0.426  0.5463  1.5772  0.5046
  118SOL     OW  352   0.713   2.006   2.546 -0.0730 -0.2154  0.0021
  118SOL    HW1  353   0.753   2.039   2.633 -0.5176 -1.1859  1.0710
  118SOL    HW2  354   0.715   2.077   2.474  0.0113  0.5581  0.5336
  119SOL     OW  355   0.748   2.375   0.565 -0.4814  0.0940  0.2539
  119SOL    HW1  356   0.668   2.317   0.577  0.7442  0.3016  0.1829
  119SOL    HW2  357   0.818   2.320   0.516  1.5871 -0.8498  0.9072
  120SOL     OW  358   1.366   0.487   0.150 -0.5659  0.3712 -0.5190
  120SOL    HW1  359   1.441   0.416   0.164  1.0442  0.2377 -0.6459
  120SOL    HW2  360   1.298   0.449   0.084  0.5003 -1.2297 -1.7506
  121SOL     OW  361   1.267   2.293   0.808  0.5481 -0.2090 -0.1955
  121SOL    HW1  362   1.169   2.305   0.831 -1.0856 -1.2320  0.5892
  121SOL    HW2  363   1.277   2.232   0.725  1.9749 -0.9863 -1.0209
  122SOL     OW  364   2.655   2.107   1.915 -0.2416 -0.1278 -0.4309
  122SOL    HW1  365   2.621   2.201   1.940  3.8864 -2.8152  0.6978
  122SOL    HW2  366   2.749   2.095   1.957  0.1080 -1.4404 -0.1754
  123SOL     OW  367   1.110   1.648   0.797 -0.8377 -0.4031  0.0629
  123SOL    HW1  368   1.104   1.724   0.868  2.6353 -0.7809 -0.2178
  123SOL    HW2  369   1.097   1.677   0.700 -1.2784  0.3092  4.5706
  124SOL     OW  370   2.980   0.695   0.299  0.0669 -0.2476 -0.2980
  124SOL    HW1  371   2.917   0.773   0.270 -0.9178 -1.5632 -1.3933
  124SOL    HW2  372   2.938   0.611   0.270  2.2012  1.9931 -1.8280
  125SOL     OW  373   0.203   0.267   0.120 -0.2249 -0.8883  0.4470
  125SOL    HW1  374   0.111   0.310   0.131  1.9196  1.4044 -0.0284
  125SOL    HW2  375   0.266   0.321   0.180  1.5733  0.4506 -1.7123
  126SOL     OW  376   3.058   1.781   0.605 -0.4284 -0.1223 -0.3217
  126SOL    HW1  377   0.019   1.878   0.611 -0.6151  2.0931 -1.0501
  126SOL    HW2  378   2.955   1.784   0.617  0.3356  0.6286  0.9928
  127SOL     OW  379   1.188   2.471   1.502  0.3537 -0.7285  0.2159
  127SOL    HW1  380   1.158   2.392   1.559 -0.2194 -3.5287  1.6054
  127SOL    HW2  381   1.178   2.450   1.405 -2.0058  2.0457 -0.7855
  128SOL     OW  382   1.268   1.493   0.137 -0.8843  0.2955  0.5584
  128SOL    HW1  383   1.315   1.564   0.086 -2.6916 -3.3867  0.3374
  128SOL    HW2  384   1.324   1.405   0.128 -1.1982 -0.8615  1.1393
  129SOL     OW  385   1.844   2.065   1.288 -0.5351  0.1645  0.0056
  129SOL    HW1  386   1.873   2.054   1.194 -2.7549  0.0932  1.6403
  129SOL    HW2  387   1.804   2.161   1.298  1.8525 -1.9524  0.1449
  130SOL     OW  388   1.998   1.960   1.496  0.1157 -0.0673  0.6006
  130SOL    HW1  389   1.916   1.929   1.550  0.5452 -0.2733 -0.2430
  130SOL    HW2  390   1.965   2.017   1.416 -1.6184  2.1605 -2.3299
  131SOL     OW  391   2.797   2.674   2.469 -0.1602  0.4941  0.2014
  131SOL    HW1  392   2.710   2.699   2.527 -2.6295 -0.7352 -0.2692
  131SOL    HW2  393   2.887   2.695   2.516 -1.5409  0.0627 -0.6844
  132SOL     OW  394   2.930   2.153   0.497 -0.0713 -0.3497 -0.2011
  132SOL    HW1  395   3.005   2.139   0.563 -2.0419 -3.1964  1.2053
  132SOL    HW2  396   2.852   2.214   0.531  2.1139 -0.9172 -0.9362
  133SOL     OW  397   0.426   0.246   1.762  0.4812 -0.2561 -0.6400
  133SOL    HW1  398   0.478   0.277   1.843  1.8908 -1.5394 -3.5923
  133SOL    HW2  399   0.482   0.247   1.678 -2.1594 -0.7927  1.1675
  134SOL     OW  400   2.708   2.037   0.065  0.0063 -0.3224  0.2262
  134SOL    HW1  401   2.794   2.032   0.117  0.2316 -2.1793 -2.6228
  134SOL    HW2  402   2.643   2.108   0.097 -2.2291 -2.5063  0.1776
  135SOL     OW  403   1.545   1.113   2.552  0.2196  0.2122 -0.1432
  135SOL    HW1  404   1.448   1.088   2.520 -0.6324 -0.0744 -3.2804
  135SOL    HW2  405   1.554   1.217   2.572 -0.7855  4.5383  0.2179
  136SOL     OW  406   2.392   1.604   1.054  0.2562 -0.4937  0.4014
  136SOL    HW1  407   2.347   1.651   0.979  2.4484 -0.7391 -0.0086
  136SOL    HW2  408   2.493   1.611   1.037  2.1584  1.2226 -1.1057
  137SOL     OW  409   2.802   1.562   0.748 -0.4667 -0.7289 -0.2071
  137SOL    HW1  410   2.801   1.494   0.670  0.9187 -1.4218 -1.3913
  137SOL    HW2  411   2.821   1.656   0.714  1.9833  0.3456  2.4816
  138SOL     OW  412   2.769   0.251   0.781  0.2931 -0.5523 -0.2516
  138SOL    HW1  413   2.689   0.193   0.795 -0.3315 -1.6155  1.1475
  138SOL    HW2  414   2.749   0.347   0.817 -2.5509  0.2513  3.1058
  139SOL     OW  415   0.142   2.559   2.873 -0.2009 -0.1123  0.0778
  139SOL    HW1  416   0.230   2.506   2.882 -2.9525 -0.9027 -1.5923
  139SOL    HW2  417   0.158   2.653   2.833  0.6672  0.4290 -1.1594
  140SOL     OW  418   0.868   2.057   1.906  0.2665  0.5008  0.7100
  140SOL    HW1  419   0.943   2.112   1.941 -0.2219  1.3567 -1.4885
  140SOL    HW2  420   0.849   1.982   1.977  2.3705 -1.6420  2.0741
  141SOL     OW  421   1.480   1.786   0.810  0.1177 -0.3163  0.3081
  141SOL    HW1  422   1.459   1.701   0.751  0.9214  0.3567 -2.0112
  141SOL    HW2  423   1.476   1.770   0.910  0.8569  1.2196  0.8164
  142SOL     OW  424   1.169   0.702   0.903 -0.6787 -0.3124  0.7323
  142SOL    HW1  425   1.122   0.613   0.881 -2.8388  1.6129  1.4005
  142SOL    HW2  426   1.137   0.770   0.834  2.7780 -3.0870 -2.3064
  143SOL     OW  427   0.766   1.343   2.799  0.2688 -0.0264 -0.3378
  143SOL    HW1  428   0.768   1.246   2.765  0.8201 -1.1071 -0.6121
  143SOL    HW2  429   0.685   1.395   2.763  0.1953  1.9517 -0.1943
  144SOL     OW  430   2.170   0.069   1.164 -0.1838  0.0565 -0.2059
  144SOL    HW1  431   2.169   0.082   1.066  0.6196 -0.0088  0.2363
  144SOL    HW2  432   2.108   3.065   1.184 -1.4969 -0.8248  0.7622
  145SOL     OW  433   2.181   0.533   2.685  0.3047 -0.6192 -0.2646
  145SOL    HW1  434   2.163   0.520   2.788 -3.0740  0.0306  2.1471
  145SOL    HW2  435   2.283   0.520   2.669 -2.2635 -1.6025 -1.5098
  146SOL     OW  436   2.986   2.672   0.787  0.7719  0.2255 -0.2959
  146SOL    HW1  437   2.912   2.621   0.734 -1.2906 -0.7223 -1.8938
  146SOL    HW2  438   3.029   2.739   0.725 -1.1735 -0.4738 -0.8228
  147SOL     OW  439   1.286   1.003   2.507 -0.1504 -0.6660 -0.0626
  147SOL    HW1  440   1.197   1.050   2.485 -2.3379 -0.3789 -0.0006
  147SOL    HW2  441   1.335   0.975   2.420  0.6617  0.8404 -0.8885
  148SOL     OW  442   1.141   0.542   2.422 -0.6380  0.4068 -0.7667
  148SOL    HW1  443   1.168   0.610   2.350  1.2456  0.1578  0.0228
  148SOL    HW2  444   1.205   0.461   2.424 -0.7853 -2.5331 -0.3459
  149SOL     OW  445   2.008   0.141   2.054  0.2821  0.0163 -0.5690
  149SOL    HW1  446   2.088   0.084   2.075 -0.5310 -1.1261 -1.2527
  149SOL    HW2  447   1.934   0.077   2.024  0.7082  0.7655  1.4096
  150SOL     OW  448   2.366   2.673   2.999  0.1879 -0.4056 -0.1036
  150SOL    HW1  449   2.389   2.768   3.029 -2.0611 -0.5684  1.7128
  150SOL    HW2  450   2.446   2.607   3.015  2.4985 -1.2252  2.9954
  151SOL     OW  451   0.415   1.434   2.932  0.4293  0.0412  0.2093
  151SOL    HW1  452   0.472   1.445   3.015 -0.1182  2.7132  2.9333
  151SOL    HW2  453   0.472   1.448   2.843  1.2851 -0.0391  0.2702
  152SOL     OW  454   0.059   0.151   1.338 -0.7385 -0.0328  0.3960
  152SOL    HW1  455   0.095   0.138   1.431 -1.6514 -1.0775 -1.1760
  152SOL    HW2  456   0.110   0.227   1.289 -0.9172  1.6881 -0.5955
  153SOL     OW  457   2.219   3.052   1.770 -0.9060 -0.7143  0.2840
  153SOL    HW1  458   2.117   3.052   1.750 -2.2873 -1.8032  1.0675
  153SOL    HW2  459   2.271   3.066   1.684  0.6356 -0.9063  2.3770
  154SOL     OW  460   1.806   0.387   2.296  0.6557 -1.0867  0.3766
  154SOL    HW1  461   1.821   0.442   2.382  1.4326  1.7632  3.2777
  154SOL    HW2  462   1.784   0.448   2.217  0.5058 -0.5430  0.6894
  155SOL     OW  463   0.090   1.595   0.464 -0.2304 -0.1485  0.1391
  155SOL    HW1  464   0.182   1.623   0.437 -1.6931  0.7055  0.0840
  155SOL    HW2  465   0.045   1.674   0.511 -2.9433 -0.0934  0.2081
  156SOL     OW  466   2.816   1.524   0.003  0.1045 -0.3808  0.1127
  156SOL    HW1  467   2.813   1.590   3.001  1.8103 -0.5631 -2.3083
  156SOL    HW2  468   2.833   1.568   0.089 -0.4198  0.9011 -0.4798
  157SOL     OW  469   0.582   0.456   0.771  0.2844  0.4346 -0.8432
  157SOL    HW1  470   0.518   0.386   0.726 -2.3095 -0.6329 -0.7236
  157SOL    HW2  471   0.654   0.416   0.826 -3.5280  2.4971 -0.5928
  158SOL     OW  472   2.008   0.947   1.270  0.3145 -0.1422  0.7166
  158SOL    HW1  473   2.074   0.980   1.342  0.5757  0.2557  1.4964
  158SOL    HW2  474   1.988   1.026   1.204  1.0166 -0.3068 -0.4801
  159SOL     OW  475   0.231   0.305   0.571  0.7530 -0.2719 -0.1602
  159SOL    HW1  476   0.188   0.250   0.648 -0.5426  2.5146 -0.7279
  159SOL    HW2  477   0.161   0.308   0.498 -1.9052 -0.6652 -2.1133
  160SOL     OW  478   2.197   2.137   1.594 -0.0241 -0.0300 -0.4849
  160SOL    HW1  479   2.166   2.159   1.690  1.0681  0.2965 -0.9711
  160SOL    HW2  480   2.126   2.088   1.547  2.3225  3.5461  0.2118
  161SOL     OW  481   0.190   0.754   2.516 -0.3123 -0.2077 -0.6037
  161SOL    HW1  482   0.212   0.655   2.524  0.6693 -0.1916  1.2717
  161SOL    HW2  483   0.133   0.789   2.595  1.7154 -3.0477 -0.0563
  162SOL     OW  484   0.511   2.826   1.545 -0.0548 -0.6156 -0.1019
  162SOL    HW1  485   0.422   2.844   1.591  0.4498 -1.8393 -0.7572
  162SOL    HW2  486   0.573   2.905   1.519  2.2052  2.8032  1.8516
  163SOL     OW  487   2.780   0.115   2.269 -0.5058 -0.4559 -0.4860
  163SOL    HW1  488   2.808   0.016   2.276  0.9114  2.1008  0.4424
  163SOL    HW2  489   2.868   0.165   2.278  1.9548 -0.9385 -4.0528
  164SOL     OW  490   2.228   1.818   0.233  0.3721  0.0094 -0.3021
  164SOL    HW1  491   2.133   1.828   0.192 -0.8141  1.4926 -0.4872
  164SOL    HW2  492   2.296   1.846   0.165 -1.9074  1.8234 -0.1764
  165SOL     OW  493   0.049   0.353   1.542  0.5622  0.1943 -0.0359
  165SOL    HW1  494   0.102   0.318   1.461  1.5981 -2.6154  0.2489
  165SOL    HW2  495   3.025   0.342   1.530 -1.1317 -1.7062  1.7460
  166SOL     OW  496   1.947   0.786   0.398 -0.7474 -0.3928  0.6070
  166SOL    HW1  497   1.951   0.888   0.384  0.5010 -0.2606  0.4761
  166SOL    HW2  498   1.891   0.757   0.479 -1.6694  0.4626 -0.6806
  167SOL     OW  499   2.444   0.801   2.769  0.2415  0.3433 -0.4189
  167SOL    HW1  500   2.346   0.825   2.765  2.2706 -1.1373 -0.0554
  167SOL    HW2  501   2.471   0.777   2.865 -2.9486 -1.0463  0.0325
  168SOL     OW  502   1.742   0.245   2.971  0.5484 -0.3757  0.4615
  168SOL    HW1  503   1.782   0.289   3.049  0.6677  1.6022 -2.1480
  168SOL    HW2  504   1.756   0.301   2.888 -3.6819  1.3716  0.5142
  169SOL     OW  505   0.249   1.672   0.943  0.1035 -0.1730 -0.2606
  169SOL    HW1  506   0.201   1.679   1.032 -3.8476 -3.2608 -1.8615
  169SOL    HW2  507   0.187   1.632   0.872 -1.2334 -1.0851  0.8642
  170SOL     OW  508   2.932   1.202   0.872 -0.2405 -0.5731  0.7462
  170SOL    HW1  509   2.835   1.198   0.846  0.9712  1.3242  1.4883
  170SOL    HW2  510   2.980   1.167   0.787 -0.9275  1.6663 -1.8334
  171SOL     OW  511   2.476   1.685   1.994 -0.4015  0.4027  0.3738
  171SOL    HW1  512   2.409   1.694   1.914 -0.8255  1.1040 -0.6053
  171SOL    HW2  513   2.433   1.661   2.083 -2.9207  3.6641 -2.4183
  172SOL     OW  514   0.457   1.979   1.569 -0.5835  0.5833  0.2613
  172SOL    HW1  515   0.425   1.982   1.475  1.3315 -0.8459  0.7615
  172SOL    HW2  516   0.530   1.908   1.575  1.3844 -1.4477  3.5789
  173SOL     OW  517   1.645   1.507   2.872  0.5571 -0.2004 -0.2444
  173SOL    HW1  518   1.627   1.453   2.794 -1.6135  2.5820 -0.2952
  173SOL    HW2  519   1.656   1.603   2.851 -2.1129 -3.5776  2.4967
  174SOL     OW  520   1.233   0.644   2.844  0.3177 -0.1944  0.6640
  174SOL    HW1  521   1.314   0.596   2.882  2.1231  3.8845 -0.5347
  174SOL    HW2  522   1.253   0.663   2.747  0.3531  0.9491  1.9795
  175SOL     OW  523   1.305   1.397   1.341 -0.4040 -0.0334  0.2215
  175SOL    HW1  524   1.269   1.470   1.406 -0.6984 -0.3749  0.0936
  175SOL    HW2  525   1.230   1.377   1.275  1.5365  0.1817 -1.8295
  176SOL     OW  526   1.242   0.327   0.406 -0.5085 -0.1503  0.0578
  176SOL    HW1  527   1.249   0.253   0.335 -1.4804  0.9065 -3.0222
  176SOL    HW2  528   1.149   0.371   0.396 -1.6203  1.1387  0.7331
  177SOL     OW  529   0.498   1.059   0.269  0.0930 -0.1074  0.8584
  177SOL    HW1  530   0.455   0.996   0.333  1.4125  2.7764 -2.4205
  177SOL    HW2  531   0.593   1.029   0.250 -0.8995  2.8246 -0.4385
  178SOL     OW  532   2.588   2.291   2.271 -0.7553 -0.2232 -0.4306
  178SOL    HW1  533   2.668   2.317   2.331  1.8929  0.3309  0.5634
  178SOL    HW2  534   2.594   2.192   2.244  1.2426  0.6309  1.9000
  179SOL     OW  535   2.867   2.993   2.515  0.4418  0.2862  0.6110
  179SOL    HW1  536   2.832   2.944   2.595  0.4022 -0.1718  0.7346
  179SOL    HW2  537   2.787   2.998   2.445  0.3087 -1.5325 -2.3271
  180SOL     OW  538   2.133   0.528   1.248 -0.3913 -0.4223  0.0998
  180SOL    HW1  539   2.196   0.453   1.219  0.0048  1.2352  0.4075
  180SOL    HW2  540   2.158   0.604   1.182  1.4386  0.4243 -2.6862
  181SOL     OW  541   2.127   0.812   2.505  0.3335 -0.1072  0.7538
  181SOL    HW1  542   2.130   0.709   2.506 -2.9448  0.7713  0.1118
  181SOL    HW2  543   2.157   0.845   2.596 -1.4278  1.2562 -2.4534
  182SOL     OW  544   2.584   2.375   1.995 -0.1547  0.4499  0.0865
  182SOL    HW1  545   2.634   2.451   1.942  0.0351  4.1606  0.7782
  182SOL    HW2  546   2.593   2.394   2.093 -1.2323  0.7006 -2.4316
  183SOL     OW  547   1.861   0.622   1.639 -0.1929  0.9344 -0.0975
  183SOL    HW1  548   1.924   0.541   1.660  1.8223 -1.6107  1.2287
  183SOL    HW2  549   1.881   0.662   1.547  0.1740  0.0354  0.6258
  184SOL     OW  550   0.161   1.629   1.195 -0.6266  0.3526 -0.2173
  184SOL    HW1  551   0.185   1.530   1.178 -3.0678  0.2512  1.3967
  184SOL    HW2  552   0.072   1.636   1.243  0.3707 -2.5694  0.3736
  185SOL     OW  553   2.527   0.109   0.854 -0.3110  0.1160 -0.0136
  185SOL    HW1  554   2.530   0.148   0.946 -0.3466 -0.6545 -1.1594
  185SOL    HW2  555   2.513   0.010   0.859 -0.3089  0.2823  1.2761
  186SOL     OW  556   2.250   2.546   2.608 -0.2718 -0.2497  0.5608
  186SOL    HW1  557   2.344   2.571   2.575 -0.6504 -1.1228 -0.1401
  186SOL    HW2  558   2.257   2.464   2.666 -0.0658 -1.7026  0.7808
  187SOL     OW  559   0.463   1.511   0.582 -0.1310 -0.1532 -0.3210
  187SOL    HW1  560   0.404   1.429   0.593  3.2352  0.6701  1.9623
  187SOL    HW2  561   0.474   1.560   0.672 -2.5640  0.1118  1.5213
  188SOL     OW  562   2.038   1.176   1.063 -0.0929  0.2320  0.3600
  188SOL    HW1  563   2.100   1.256   1.061 -0.0609 -1.0996  1.2329
  188SOL    HW2  564   1.969   1.188   1.137  0.2704  2.8184  2.0310
  189SOL     OW  565   0.213   0.858   2.265 -0.4110  1.0827  0.0740
  189SOL    HW1  566   0.314   0.869   2.244  0.7190 -1.2542 -2.4466
  189SOL    HW2  567   0.198   0.823   2.361 -0.5400 -1.2569 -0.5947
  190SOL     OW  568   1.946   0.776   1.863  0.0102  0.3123 -0.3261
  190SOL    HW1  569   1.893   0.861   1.852  0.9677 -3.0312  1.7269
  190SOL    HW2  570   1.940   0.713   1.784  1.4659  1.6351 -0.0756
  191SOL     OW  571   0.924   0.261   2.152 -0.2981 -0.4226  0.2499
  191SOL    HW1  572   0.867   0.272   2.233 -1.7518  1.2016 -2.1163
  191SOL    HW2  573   0.997   0.187   2.168  1.1280 -2.8218 -1.4959
  192SOL     OW  574   1.138   2.010   1.703 -0.1360  0.4251  0.3692
  192SOL    HW1  575   1.195   1.995   1.615  1.0148 -0.0586 -0.4913
  192SOL    HW2  576   1.183   2.067   1.767 -0.8003 -1.1344  0.1012
  193SOL     OW  577   1.304   0.098   0.941  0.1279 -0.1956 -0.7678
  193SOL    HW1  578   1.288   3.072   0.935  1.9973 -1.2650 -0.8077
  193SOL    HW2  579   1.228   0.149   0.895  2.3683 -0.9532 -0.6826
  194SOL     OW  580   1.036   2.273   1.593 -0.3068 -0.6222  0.8708
  194SOL    HW1  581   0.955   2.274   1.530  3.5002 -0.4947  2.9291
  194SOL    HW2  582   1.057   2.181   1.628 -1.9309 -1.3402 -1.1663
  195SOL     OW  583   1.572   0.460   0.569 -0.7321  0.0609  0.0690
  195SOL    HW1  584   1.568   0.361   0.536  1.0252 -1.9757 -0.1074
  195SOL    HW2  585   1.587   0.466   0.671 -0.6936 -0.3644  0.5723
  196SOL     OW  586   0.785   1.405   2.254 -0.1654  0.3368 -0.0628
  196SOL    HW1  587   0.880   1.439   2.250 -3.5379 -1.2726 -0.8941
  196SOL    HW2  588   0.763   1.366   2.163  1.1697 -0.9075 -0.6292
  197SOL     OW  589   0.710   0.568   1.768 -0.4042 -0.1426  0.7399
  197SOL    HW1  590   0.762   0.648   1.728 -0.9721  2.2158 -0.5150
  197SOL    HW2  591   0.616   0.562   1.726 -1.7041  3.3281  1.9582
  198SOL     OW  592   0.789   0.792   0.892 -0.4793  0.2933 -0.0192
  198SOL    HW1  593   0.879   0.825   0.860 -0.0357  0.5124 -0.1852
  198SOL    HW2  594   0.730   0.768   0.812 -0.5768  1.4856 -1.2356
  199SOL     OW  595   0.588   2.388   1.663 -0.0989 -0.3776 -0.2313
  199SOL    HW1  596   0.629   2.342   1.740 -0.9457  1.5963 -0.6323
  199SOL    HW2  597   0.493   2.350   1.644  0.0544 -1.6218 -0.6553
  200SOL     OW  598   1.604   1.237   2.308 -1.0668  0.1255 -0.1988
  200SOL    HW1  599   1.573   1.172   2.237  0.5147  0.8713 -0.4521
  200SOL    HW2  600   1.585   1.197   2.399 -2.3243  0.9150 -1.3319
  201SOL     OW  601   0.665   2.236   1.903  0.5385 -0.3303  0.5508
  201SOL    HW1  602   0.754   2.180   1.900  3.0680  2.8190  1.2859
  201SOL    HW2  603   0.587   2.173   1.892 -1.4300 -0.6539 -0.8785
  202SOL     OW  604   1.199   2.849   0.114  0.2934  0.5065 -0.1058
  202SOL    HW1  605   1.273   2.889   0.175  0.5996 -1.5989 -0.2729
  202SOL    HW2  606   1.147   2.767   0.155 -2.2426 -0.6234 -4.6035
  203SOL     OW  607   1.361   0.188   2.222 -0.3703  0.9120  0.2016
  203SOL    HW1  608   1.268   0.151   2.205 -0.8091 -2.1097 -0.0437
  203SOL    HW2  609   1.427   0.118   2.261  1.2814 -0.9698 -0.8980
  204SOL     OW  610   0.700   1.575   1.978 -0.3866 -0.3088 -0.3437
  204SOL    HW1  611   0.793   1.543   1.954  0.5163  1.3102  1.9562
  204SOL    HW2  612   0.622   1.510   1.980 -2.6517  0.6686 -0.2881
  205SOL     OW  613   2.143   1.160   2.696 -0.0846  0.5385  0.4099
  205SOL    HW1  614   2.069   1.165   2.622 -1.2480 -3.4922  1.2283
  205SOL    HW2  615   2.232   1.169   2.648 -2.2813  1.9878 -1.6504
  206SOL     OW  616   0.176   1.625   2.647  0.2851 -0.2308  0.6241
  206SOL    HW1  617   0.167   1.730   2.630 -2.8776  0.8706 -0.7376
  206SOL    HW2  618   0.206   1.612   2.742  3.5338  0.5156  0.0689
  207SOL     OW  619   1.108   2.832   1.643  0.1182  0.0695 -0.0981
  207SOL    HW1  620   1.091   2.819   1.743 -0.7206 -1.7214  2.1904
  207SOL    HW2  621   1.133   2.924   1.611  2.6092  1.5539 -1.0276
  208SOL     OW  622   0.500   2.337   1.349  0.0112 -0.7751 -0.1952
  208SOL    HW1  623   0.492   2.437   1.370  0.0636 -1.4124 -0.2972
  208SOL    HW2  624   0.574   2.329   1.281  0.7094  1.4393 -1.0289
  209SOL     OW  625   1.346   2.870   0.405 -0.5090 -0.4496  0.1010
  209SOL    HW1  626   1.279   2.886   0.483  0.7500 -2.3910  1.4578
  209SOL    HW2  627   1.338   2.949   0.343 -0.4572  1.5890  1.9337
  210SOL     OW  628   2.858   1.498   1.151 -0.1948  0.1861 -0.1999
  210SOL    HW1  629   2.794   1.557   1.095 -0.0048  0.7550  0.5287
  210SOL    HW2  630   2.943   1.482   1.097  1.5614 -0.4114 -1.0287
  211SOL     OW  631   0.777   0.796   1.979  0.3613  0.3586 -0.3160
  211SOL    HW1  632   0.726   0.769   1.892 -1.4136 -1.5461 -7.7541
  211SOL    HW2  633   0.815   0.714   2.026  0.1621 -1.7377  1.8361
  212SOL     OW  634   1.418   2.289   1.520 -0.4401  0.3119  0.1448
  212SOL    HW1  635   1.409   2.320   1.424 -0.6888  1.1946  2.0956
  212SOL    HW2  636   1.438   2.189   1.518  1.5884  2.1054  0.8454
  213SOL     OW  637   2.857   0.308   1.517  0.0637  0.1067 -0.3849
  213SOL    HW1  638   2.838   0.406   1.538  1.0080 -3.5417 -0.2499
  213SOL    HW2  639   2.771   0.274   1.476 -1.0948 -0.3767 -0.2452
  214SOL     OW  640   0.896   2.652   1.846 -0.2845  0.0879  0.5607
  214SOL    HW1  641   0.942   2.558   1.842 -0.3663 -0.8807  0.7238
  214SOL    HW2  642   0.820   2.664   1.775 -1.9734  1.4096 -1.1756
  215SOL     OW  643   2.707   1.800   1.329  0.2340 -0.4760 -0.2477
  215SOL    HW1  644   2.623   1.844   1.368 -0.7993 -1.8417  1.1758
  215SOL    HW2  645   2.711   1.708   1.375 -2.2290  1.7222  0.6066
  216SOL     OW  646   0.223   0.999   1.791  0.4582 -0.2492  0.3454
  216SOL    HW1  647   0.280   0.919   1.817  0.2221  2.2832 -1.7366
  216SOL    HW2  648   0.148   0.963   1.726 -0.3808 -2.7199 -0.0014
  217SOL     OW  649   2.758   0.338   1.202  0.7179  0.0199  0.0839
  217SOL    HW1  650   2.805   0.253   1.234  0.9298  2.2203 -0.0202
  217SOL    HW2  651   2.808   0.400   1.142  0.2437  0.8105  2.3657
  218SOL     OW  652   1.345   2.202   1.058  0.3921  0.7287  0.0734
  218SOL    HW1  653   1.326   2.240   0.967  0.3719  1.6346 -0.0351
  218SOL    HW2  654   1.263   2.165   1.105 -2.2952 -0.0703  0.7743
  219SOL     OW  655   1.543   2.412   0.396  0.3219 -0.1772  0.1413
  219SOL    HW1  656   1.489   2.488   0.439  0.5388 -1.2068  0.4785
  219SOL    HW2  657   1.488   2.329   0.370  0.6511 -2.3428  1.7833
  220SOL     OW  658   1.918   2.308   0.356 -0.3321  0.3506 -0.2180
  220SOL    HW1  659   1.913   2.370   0.436 -0.8166  1.4616 -0.9102
  220SOL    HW2  660   1.916   2.352   0.261 -1.1301  1.1765 -0.8472
  221SOL     OW  661   2.578   2.064   0.999 -0.1371 -0.4303 -0.1324
  221SOL    HW1  662   2.488   2.040   0.963  0.7551  3.1966 -0.6327
  221SOL    HW2  663   2.603   2.160   0.974 -0.2552  2.4992 -1.0062
  222SOL     OW  664   0.906   2.096   0.731 -0.0068  0.2561 -0.8907
  222SOL    HW1  665   0.962   2.157   0.792  3.4160  0.3887  1.6004
  222SOL    HW2  666   0.805   2.108   0.745 -1.6957  0.8588 -0.8518
  223SOL     OW  667   1.173   2.645   2.415  0.2569  0.3787 -0.4188
  223SOL    HW1  668   1.276   2.650   2.414  1.9615  0.9776  0.5021
  223SOL    HW2  669   1.135   2.662   2.326 -0.8300  1.1316  1.1343
  224SOL     OW  670   2.566   1.091   0.999 -0.2822  0.3127  0.4644
  224SOL    HW1  671   2.614   1.106   0.910 -1.7976 -0.9006 -1.4318
  224SOL    HW2  672   2.486   1.030   0.970 -0.3734 -1.6065  1.6912
  225SOL     OW  673   2.650   1.587   0.952  0.1379  0.1224 -0.0279
  225SOL    HW1  674   2.709   1.564   0.871  2.4600  1.1348  2.5345
  225SOL    HW2  675   2.682   1.676   0.985 -0.4516 -1.8842  1.2747
  226SOL     OW  676   1.176   2.608   0.794  0.2961  0.0748  0.3582
  226SOL    HW1  677   1.143   2.546   0.719  0.0732  0.1396  1.1573
  226SOL    HW2  678   1.279   2.608   0.809  2.6315 -1.2438 -0.9889
  227SOL     OW  679   1.087   1.333   1.215  0.1369 -0.0293  0.1433
  227SOL    HW1  680   1.084   1.265   1.292  2.8798  1.9072  2.0917
  227SOL    HW2  681   1.047   1.300   1.129  2.7464  1.4099  1.0057
  228SOL     OW  682   1.422   0.418   2.115 -0.2590 -0.0906  0.1102
  228SOL    HW1  683   1.397   0.329   2.159  0.1930 -1.5750  2.7736
  228SOL    HW2  684   1.347   0.453   2.049 -0.2359 -2.2617 -1.4199
  229SOL     OW  685   2.935   0.768   2.448 -0.2095  0.2887  0.1120
  229SOL    HW1  686   2.892   0.772   2.355 -0.6514  0.6991  1.4341
  229SOL    HW2  687   3.001   0.839   2.467 -1.8304 -0.8302 -0.4498
  230SOL     OW  688   0.545   1.364   0.932  0.1784  0.2316  0.8450
  230SOL    HW1  689   0.590   1.378   1.022 -1.6266 -0.1600 -2.5061
  230SOL    HW2  690   0.524   1.457   0.893 -1.7459  2.7065 -0.4642
  231SOL     OW  691   2.408   3.036   2.574 -0.5719 -0.0700  0.2375
  231SOL    HW1  692   2.430   2.967   2.503  0.3029  0.4349  0.4318
  231SOL    HW2  693   2.366   0.047   2.533 -0.5549  2.5202 -1.2591
  232SOL     OW  694   0.493   1.878   0.038 -0.1140  0.4680 -0.3208
  232SOL    HW1  695   0.560   1.811   3.068  1.5633 -1.1105  0.4952
  232SOL    HW2  696   0.456   1.946   3.046  1.1710  0.1841  0.3011
  233SOL     OW  697   1.469   2.547   2.692 -0.4987  0.3539 -0.2949
  233SOL    HW1  698   1.526   2.466   2.728  0.0372 -1.8998 -0.7858
  233SOL    HW2  699   1.447   2.622   2.759  0.6870 -0.3779 -1.0284
  234SOL     OW  700   1.031   1.430   2.000  0.1527  0.0508  0.0803
  234SOL    HW1  701   1.094   1.451   2.079 -0.6932 -1.0165  0.9238
  234SOL    HW2  702   1.050   1.345   1.953  2.4915 -0.8731  1.3632
  235SOL     OW  703   0.457   2.053   1.871 -0.1518 -0.2727  0.1951
  235SOL    HW1  704   0.459   2.066   1.770  0.3453  1.6711 -0.8672
  235SOL    HW2  705   0.455   1.949   1.893 -3.5259 -0.1514 -0.3742
  236SOL     OW  706   1.805   1.949   2.907  0.1848  0.2390  0.1648
  236SOL    HW1  707   1.820   2.019   2.982 -0.1980  2.4407  2.6093
  236SOL    HW2  708   1.894   1.899   2.893 -1.1573  0.7005  1.7363
  237SOL     OW  709   1.546   0.274   1.029  0.3261  0.2081  0.0057
  237SOL    HW1  710   1.515   0.329   1.105  0.9081  0.0239 -0.2465
  237SOL    HW2  711   1.464   0.228   0.987 -0.6608  0.1569  1.2466
  238SOL     OW  712   0.903   0.468   2.548 -0.7500 -0.5803 -0.2915
  238SOL    HW1  713   0.867   0.385   2.497 -1.8086  0.4325 -3.6569
  238SOL    HW2  714   0.996   0.491   2.512  1.5254  0.6367  0.9352
  239SOL     OW  715   0.699   2.888   1.900 -0.4407 -0.1486  0.7528
  239SOL    HW1  716   0.741   2.797   1.895 -0.2571  0.4389 -1.3438
  239SOL    HW2  717   0.765   2.970   1.888 -1.0351  1.1762 -0.7590
  240SOL     OW  718   2.478   2.617   0.652  0.9495  0.5951 -0.2529
  240SOL    HW1  719   2.466   2.714   0.629  0.0815 -3.6053 -1.3461
  240SOL    HW2  720   2.405   2.560   0.608  0.5726  0.8068 -1.0710
  241SOL     OW  721   1.021   1.505   1.742 -0.7361 -0.5254 -0.5513
  241SOL    HW1  722   0.929   1.500   1.699  2.2978 -0.6444 -1.7094
  241SOL    HW2  723   1.023   1.499   1.848  0.4911 -2.3270  1.6319
  242SOL     OW  724   2.855   0.534   0.558  0.3043  0.3088  0.1257
  242SOL    HW1  725   2.924   0.605   0.541  0.8731 -0.6542  2.3931
  242SOL    HW2  726   2.834   0.478   0.473 -0.9109  0.6736  0.5719
  243SOL     OW  727   0.730   0.721   1.400  0.4516 -0.1950  0.2786
  243SOL    HW1  728   0.772   0.801   1.348  1.4803 -0.1005  0.8237
  243SOL    HW2  729   0.754   0.737   1.495 -0.4937  0.5879 -1.2891
  244SOL     OW  730   1.169   0.340   3.049 -0.1723 -0.3731 -0.1067
  244SOL    HW1  731   1.218   0.305   2.967  1.8756 -0.1349  1.4074
  244SOL    HW2  732   1.071   0.362   3.031  2.2788 -1.4339  0.0433
  245SOL     OW  733   2.104   0.307   0.076  0.1160 -0.0781 -0.1990
  245SOL    HW1  734   2.173   0.248   0.120 -1.3430 -0.8171  0.3461
  245SOL    HW2  735   2.118   0.340   3.060 -1.9919 -0.9063  1.1875
  246SOL     OW  736   0.843   0.760   1.652  0.1742  0.0600  0.1018
  246SOL    HW1  737   0.856   0.854   1.674  1.4930 -3.0489 -3.1340
  246SOL    HW2  738   0.922   0.726   1.598 -2.5258  1.8975 -0.1535
  247SOL     OW  739   0.795   3.033   2.167  0.1230 -0.1092 -0.1465
  247SOL    HW1  740   0.714   0.015   2.149 -2.8863 -0.0035  0.7780
  247SOL    HW2  741   0.876   3.068   2.117 -0.9420  1.9690 -1.5906
  248SOL     OW  742   0.130   1.632   1.971  0.2847  0.7820 -0.0446
  248SOL    HW1  743   0.063   1.627   1.895  1.5952  0.8600  0.3524
  248SOL    HW2  744   0.147   1.726   2.006 -1.1651 -2.1405 -2.9508
  249SOL     OW  745   0.019   3.005   2.856 -0.4031  0.2771 -0.2811
  249SOL    HW1  746   0.114   3.046   2.868 -0.0333 -0.1644  0.8639
  249SOL    HW2  747   0.041   2.927   2.801 -0.0210 -0.0629  1.4800
  250SOL     OW  748   2.863   0.199   0.118 -0.2946  0.7732 -0.1690
  250SOL    HW1  749   2.769   0.201   0.072 -2.7642  0.6489  1.9528
  250SOL    HW2  750   2.925   0.132   0.074 -1.1621 -0.4584  0.2728
  251SOL     OW  751   0.410   1.469   1.325  0.2620 -0.1150 -0.1794
  251SOL    HW1  752   0.346   1.439   1.252 -0.2441  1.1188 -1.0020
  251SOL    HW2  753   0.366   1.463   1.418 -0.6354 -0.3058  0.1474
  252SOL     OW  754   1.579   2.999   1.639  0.5084 -0.0181 -0.3863
  252SOL    HW1  755   1.618   2.908   1.667  1.4915 -0.0683 -0.5806
  252SOL    HW2  756   1.621   3.074   1.695 -0.0608  0.2149  0.7886
  253SOL     OW  757   2.116   1.881   2.650 -0.0759  0.2055 -0.4111
  253SOL    HW1  758   2.160   1.969   2.674 -0.0149  0.2283  2.5136
  253SOL    HW2  759   2.070   1.875   2.558  0.4559  1.8814  0.9894
  254SOL     OW  760   0.470   1.790   1.920 -0.2428  0.8551 -0.5911
  254SOL    HW1  761   0.401   1.766   1.849 -2.1286 -0.3745  0.5206
  254SOL    HW2  762   0.543   1.714   1.922  1.3468 -0.7452 -1.5966
  255SOL     OW  763   1.076   0.022   1.575 -0.2844 -0.2636 -0.5621
  255SOL    HW1  764   1.172   0.058   1.567  1.3188  1.4965  0.1281
  255SOL    HW2  765   1.016   0.091   1.621  0.1258  2.5070  0.9057
  256SOL     OW  766   2.272   2.226   0.897  0.7954 -0.2575 -0.6806
  256SOL    HW1  767   2.177   2.240   0.937 -1.4605  0.5510  0.1008
  256SOL    HW2  768   2.326   2.309   0.901 -0.4966 -1.4294 -1.2515
  257SOL     OW  769   0.364   2.225   0.174 -0.6249  0.0342  0.4187
  257SOL    HW1  770   0.400   2.315   0.150  0.0215 -0.2686 -2.9000
  257SOL    HW2  771   0.425   2.187   0.248  0.2058 -0.2654  2.9424
  258SOL     OW  772   0.904   2.412   2.352  0.5928 -0.0886  0.4405
  258SOL    HW1  773   0.825   2.463   2.395 -0.7511  0.7250 -2.4118
  258SOL    HW2  774   0.992   2.444   2.398 -0.8808  1.1451 -1.4230
  259SOL     OW  775   1.055   1.683   2.994  0.0167  0.5813  0.5088
  259SOL    HW1  776   1.139   1.642   2.957 -0.1106  0.4072 -0.0729
  259SOL    HW2  777   0.969   1.637   2.967 -0.6776  1.0496  1.2001
  260SOL     OW  778   2.471   1.054   2.082  0.0052  0.7296 -0.0797
  260SOL    HW1  779   2.439   1.116   2.010  1.4636  1.9585  2.4325
  260SOL    HW2  780   2.454   1.092   2.178  0.4336  2.7207  2.5536
  261SOL     OW  781   1.446   0.677   0.929 -0.4882 -0.6156  0.1221
  261SOL    HW1  782   1.459   0.642   1.024 -0.5247 -0.3213 -0.2801
  261SOL    HW2  783   1.344   0.674   0.913 -1.4724  0.1655  0.2474
  262SOL     OW  784   1.621   2.127   2.419 -0.4324 -0.1536 -0.0168
  262SOL    HW1  785   1.672   2.066   2.357 -1.6877  2.1202  0.0074
  262SOL    HW2  786   1.641   2.096   2.512 -0.0470 -1.5528 -1.0577
  263SOL     OW  787   0.004   1.657   0.156 -0.1713 -0.4963  0.3084
  263SOL    HW1  788   2.998   1.627   0.205 -0.9732  0.3339  0.8125
  263SOL    HW2  789   0.087   1.601   0.179 -0.4227 -0.5093 -0.2549
  264SOL     OW  790   0.642   2.069   0.761  0.5665 -0.3471 -0.5745
  264SOL    HW1  791   0.589   2.100   0.687 -0.8024 -4.8593  2.9648
  264SOL    HW2  792   0.574   2.029   0.829 -1.5090  0.7578  2.1973
  265SOL     OW  793   0.575   1.386   0.352 -0.2556 -0.1574  0.3993
  265SOL    HW1  794   0.543   1.350   0.441  0.0955 -1.9757  1.5705
  265SOL    HW2  795   0.599   1.488   0.356  2.1788  1.0676 -1.0728
  266SOL     OW  796   1.293   1.650   2.868 -0.3135 -0.2398  0.2332
  266SOL    HW1  797   1.376   1.630   2.925  1.7331  3.3814 -3.4318
  266SOL    HW2  798   1.315   1.640   2.768 -0.7725  0.1325 -2.9889
  267SOL     OW  799   0.839   0.708   2.376  0.3036 -0.1805 -0.4147
  267SOL    HW1  800   0.735   0.703   2.360 -0.1950 -0.0085 -3.4241
  267SOL    HW2  801   0.866   0.645   2.452  1.1692 -2.9360 -0.3766
  268SOL     OW  802   0.444   0.538   2.674 -0.4199  0.4415  0.3187
  268SOL    HW1  803   0.510   0.612   2.672 -1.5488 -1.6293  3.5125
  268SOL    HW2  804   0.375   0.545   2.744  0.9645 -1.7209 -2.1107
  269SOL     OW  805   1.925   3.050   2.487 -0.0906  0.5816 -0.3893
  269SOL    HW1  806   1.955   0.036   2.562 -1.3088 -0.8342 -1.2163
  269SOL    HW2  807   1.898   0.027   2.402  0.1661  1.7072 -1.5824
  270SOL     OW  808   1.079   1.479   2.419 -0.0078  0.1224 -0.1437
  270SOL    HW1  809   1.082   1.583   2.423 -0.1421  1.1192 -0.6086
  270SOL    HW2  810   1.050   1.435   2.507 -1.2719 -1.8040 -0.8210
  271SOL     OW  811   0.271   3.068   2.909  0.1246  0.1215 -0.1131
  271SOL    HW1  812   0.361   3.048   2.866 -1.2727  2.8045  0.4252
  271SOL    HW2  813   0.265   3.068   3.006  0.0941 -1.2061 -1.2190
  272SOL     OW  814   2.445   0.599   0.264 -0.2056 -0.1556 -0.5373
  272SOL    HW1  815   2.480   0.570   0.358 -0.1609  1.9087 -1.4194
  272SOL    HW2  816   2.393   0.690   0.268  0.3407  1.6996  1.8018
  273SOL     OW  817   0.432   2.913   1.847 -1.1240  0.4221  0.4300
  273SOL    HW1  818   0.394   2.816   1.850 -0.2288 -1.2239 -2.0376
  273SOL    HW2  819   0.533   2.900   1.840 -2.0598  0.4180 -0.7598
  274SOL     OW  820   3.053   0.367   1.934  0.1005 -0.0872 -0.2594
  274SOL    HW1  821   0.040   0.421   1.879 -0.4878 -1.2269  2.9305
  274SOL    HW2  822   0.012   0.271   1.942  2.6093 -3.2631 -0.8006
  275SOL     OW  823   1.440   1.566   0.635  0.0974  0.3341  0.6523
  275SOL    HW1  824   1.529   1.520   0.625  1.0543 -1.4562 -1.9795
  275SOL    HW2  825   1.382   1.519   0.573  3.9099  1.4105  0.3389
  276SOL     OW  826   0.855   1.031   2.103 -0.8469 -0.2194 -0.1464
  276SOL    HW1  827   0.847   0.946   2.042  1.4907 -1.5559 -0.0934
  276SOL    HW2  828   0.869   1.002   2.200  0.4567  3.5274  0.9610
  277SOL     OW  829   1.504   2.510   1.897 -0.0303  0.4256 -0.1433
  277SOL    HW1  830   1.437   2.440   1.867  3.0077  0.6674  0.6622
  277SOL    HW2  831   1.587   2.470   1.948  2.7717  1.8223 -1.5134
  278SOL     OW  832   1.909   2.978   1.941  0.1281 -0.8432 -0.1723
  278SOL    HW1  833   1.854   2.914   2.004 -3.5591 -3.6854  0.2421
  278SOL    HW2  834   1.994   2.940   1.911  3.4161 -0.9426  0.0723
  279SOL     OW  835   1.775   1.215   0.236  0.4649 -0.2351  0.3061
  279SOL    HW1  836   1.780   1.242   0.137 -0.6326  0.7247 -2.3766
  279SOL    HW2  837   1.688   1.173   0.266  0.0149 -1.6425  0.1471
  280SOL     OW  838   0.585   1.472   0.063  0.0561 -0.2338 -0.8367
  280SOL    HW1  839   0.591   1.421   0.153 -0.0118  0.8081  2.2415
  280SOL    HW2  840   0.679   1.499   0.038  3.7674  3.3447 -0.3833
  281SOL     OW  841   0.192   2.944   1.577  0.2461  0.4038 -0.0046
  281SOL    HW1  842   0.101   2.900   1.590  1.9720 -1.1244  0.3611
  281SOL    HW2  843   0.224   2.979   1.668  0.6929 -2.9622  1.4046
  282SOL     OW  844   0.022   2.404   0.797 -0.2542 -0.4986 -0.1266
  282SOL    HW1  845   3.066   2.499   0.821  0.8049  0.2841  1.6810
  282SOL    HW2  846   0.027   2.405   0.694  1.1961 -0.1483 -0.1821
  283SOL     OW  847   1.347   2.054   2.440  0.1708  0.2073 -0.0899
  283SOL    HW1  848   1.448   2.067   2.446 -0.0758  0.3198 -0.8037
  283SOL    HW2  849   1.324   1.976   2.502 -0.1558  0.5647 -1.1467
  284SOL     OW  850   1.901   0.137   0.819 -0.5558 -0.1381 -0.2502
  284SOL    HW1  851   1.894   0.232   0.786 -0.6235 -2.8062  1.5836
  284SOL    HW2  852   1.810   0.097   0.850 -2.8165 -1.5970  0.2851
  285SOL     OW  853   0.036   2.565   2.366  0.4158 -0.2852 -0.0055
  285SOL    HW1  854   0.041   2.666   2.377  1.7751  0.6407  0.6924
  285SOL    HW2  855   0.055   2.530   2.459  1.9978  1.4125  1.9654
  286SOL     OW  856   2.778   2.572   1.212 -0.2978  0.2535  0.7807
  286SOL    HW1  857   2.792   2.604   1.306 -0.5290  0.3766 -1.6541
  286SOL    HW2  858   2.866   2.538   1.175  1.0310 -2.2985 -0.4344
  287SOL     OW  859   0.503   1.640   0.819  0.5741  0.1776  0.2335
  287SOL    HW1  860   0.423   1.691   0.866 -3.4770  0.4497  2.7630
  287SOL    HW2  861   0.593   1.667   0.858 -1.2003  1.5007  2.3150
  288SOL     OW  862   2.233   2.128   2.681 -0.3960 -0.2694 -0.1187
  288SOL    HW1  863   2.334   2.110   2.712  2.7020  0.3897  1.8097
  288SOL    HW2  864   2.189   2.201   2.742 -0.0698  2.5189  1.0843
  289SOL     OW  865   3.025   1.793   2.995 -0.2469  0.1167 -0.0433
  289SOL    HW1  866   2.942   1.752   2.953  0.0072 -0.4760 -1.4733
  289SOL    HW2  867   3.046   1.744   0.010  0.6369 -2.9018  3.8141
  290SOL     OW  868   1.092   1.738   1.133 -0.4455  0.0538 -0.2904
  290SOL    HW1  869   1.176   1.683   1.133 -0.5656 -3.4302  0.3038
  290SOL    HW2  870   1.086   1.802   1.054  3.9573  0.9130  0.6883
  291SOL     OW  871   1.542   1.025   2.927 -0.4678  0.0171  0.3457
  291SOL    HW1  872   1.494   0.976   2.852 -2.1624 -1.0371  1.0023
  291SOL    HW2  873   1.539   0.985   3.019 -0.4613 -0.2309 -0.2134
  292SOL     OW  874   1.293   1.403   0.427 -0.7156  0.5631  0.2591
  292SOL    HW1  875   1.236   1.369   0.505  0.4960  1.1824  0.5733
  292SOL    HW2  876   1.307   1.325   0.362 -1.3442 -0.8724  0.2115
  293SOL     OW  877   1.096   2.641   1.057 -0.6361 -0.3017  0.2662
  293SOL    HW1  878   1.170   2.705   1.081 -2.2196 -0.8732  2.4629
  293SOL    HW2  879   1.099   2.621   0.956 -0.5543  1.5908  0.9418
  294SOL     OW  880   2.429   1.207   2.984 -0.1723  0.4357  0.2701
  294SOL    HW1  881   2.467   1.139   2.919  1.3922 -0.3339  0.3575
  294SOL    HW2  882   2.490   1.288   2.984  0.2754 -1.3031  1.5431
  295SOL     OW  883   1.626   1.767   2.839  0.1891 -0.4292 -0.4176
  295SOL    HW1  884   1.700   1.828   2.879 -0.8084  0.4246 -0.7451
  295SOL    HW2  885   1.533   1.811   2.843 -0.9166  0.9599 -4.5574
  296SOL     OW  886   1.587   0.551   1.654 -0.2340 -1.1586  0.1563
  296SOL    HW1  887   1.680   0.598   1.658  0.7814  1.6919  2.1928
  296SOL    HW2  888   1.596   0.454   1.620  1.0185  1.4160  0.5762
  297SOL     OW  889   0.099   0.646   2.124 -0.5940  0.2969  0.1512
  297SOL    HW1  890   0.123   0.732   2.169  1.5422 -2.7941  1.4019
  297SOL    HW2  891   0.067   0.651   2.027 -1.2145 -0.8978 -0.3467
  298SOL     OW  892   0.994   2.402   1.841  0.3959  0.6110 -0.0691
  298SOL    HW1  893   0.995   2.341   1.756  0.4179  1.7697 -1.9349
  298SOL    HW2  894   1.021   2.355   1.929  0.8153  0.1640  1.7987
  299SOL     OW  895   1.324   2.952   2.551 -0.0630  0.3506  0.4406
  299SOL    HW1  896   1.396   2.930   2.483 -0.1824 -0.9495 -1.5933
  299SOL    HW2  897   1.237   2.960   2.504  2.1768 -0.5435  0.4933
  300SOL     OW  898   0.073   0.863   2.734  0.2451  0.0713 -0.5983
  300SOL    HW1  899   0.070   0.850   2.833  0.3745  3.4426  0.4682
  300SOL    HW2  900   0.121   0.949   2.707  0.3964 -1.5121 -0.2356
  301SOL     OW  901   1.811   1.042   1.862 -0.2079  0.3126  0.0970
  301SOL    HW1  902   1.733   1.079   1.917 -0.1623  0.2933 -0.6122
  301SOL    HW2  903   1.897   1.076   1.905 -0.2306  0.4334 -0.2005
  302SOL     OW  904   2.502   1.796   2.532 -0.1503  0.6622  0.0830
  302SOL    HW1  905   2.515   1.742   2.443 -0.0371 -1.0269 -1.0488
  302SOL    HW2  906   2.472   1.887   2.514  1.3789 -2.8949 -1.1664
  303SOL     OW  907   0.260   2.260   2.493  0.1961  0.0185  0.2407
  303SOL    HW1  908   0.172   2.217   2.476  1.2114  0.8051  1.3590
  303SOL    HW2  909   0.278   2.294   2.587  0.4511  0.7761  0.3558
  304SOL     OW  910   3.003   0.862   1.269  0.4497 -0.8877 -0.2214
  304SOL    HW1  911   3.019   0.954   1.221 -2.5775  0.6389  1.3613
  304SOL    HW2  912   0.008   0.829   1.323 -1.1195 -1.2268  1.0581
  305SOL     OW  913   2.784   0.967   1.778 -0.3310 -0.2731  0.3285
  305SOL    HW1  914   2.834   0.945   1.691 -0.0034  0.1708  0.3960
  305SOL    HW2  915   2.765   1.070   1.785 -0.1621  1.0762  0.5180
  306SOL     OW  916   2.387   1.247   1.493  0.5228 -0.1003  0.7721
  306SOL    HW1  917   2.293   1.267   1.520 -0.5778  1.0723  0.5294
  306SOL    HW2  918   2.453   1.302   1.542 -0.9440 -2.3830  1.3036
  307SOL     OW  919   2.557   2.911   0.845  0.1366 -0.1606 -0.1713
  307SOL    HW1  920   2.487   2.902   0.775  2.7205 -0.8101  1.3280
  307SOL    HW2  921   2.535   2.849   0.925 -0.0300 -1.4298  1.6539
  308SOL     OW  922   0.098   1.918   1.911 -0.3479 -0.0169  0.0383
  308SOL    HW1  923   0.160   1.918   1.993 -0.1904 -2.5451  0.5748
  308SOL    HW2  924   0.149   1.895   1.824 -0.7904 -0.7309 -2.3344
  309SOL     OW  925   2.467   2.147   1.539  0.5460 -0.0353  0.1802
  309SOL    HW1  926   2.514   2.238   1.554  1.8139 -1.4001  0.2528
  309SOL    HW2  927   2.367   2.152   1.551  1.9521 -3.2904  1.4997
  310SOL     OW  928   2.184   1.300   2.917 -0.5878  0.1928  0.4717
  310SOL    HW1  929   2.160   1.242   2.841  1.8802  2.0082  1.1433
  310SOL    HW2  930   2.277   1.266   2.942  0.9330 -0.1781 -3.0861
  311SOL     OW  931   1.780   1.107   2.823 -0.1754  0.7810 -0.1088
  311SOL    HW1  932   1.697   1.081   2.877  0.4372  1.8502  1.2672
  311SOL    HW2  933   1.823   1.028   2.773  1.0046 -1.7973  0.7799
  312SOL     OW  934   1.007   2.258   2.089 -0.5002 -0.3857  0.0971
  312SOL    HW1  935   1.051   2.180   2.134  1.0582  0.0399  1.6663
  312SOL    HW2  936   0.966   2.317   2.162  0.6020 -2.5217 -0.5216
  313SOL     OW  937   0.081   0.357   0.886 -0.5595 -0.1201  0.4168
  313SOL    HW1  938   0.019   0.326   0.810  0.3219  1.8557 -0.3669
  313SOL    HW2  939   0.105   0.286   0.957  0.1595 -1.9011  0.6821
  314SOL     OW  940   0.457   2.017   0.992  0.4953 -0.1011  0.0491
  314SOL    HW1  941   0.434   2.119   0.990  1.7364  4.9444 -0.2274
  314SOL    HW2  942   0.400   1.961   1.050  1.3092  2.0280 -2.7989
  315SOL     OW  943   0.382   2.125   2.242  0.1058 -0.1644 -0.2439
  315SOL    HW1  944   0.333   2.161   2.161 -1.4426 -0.3675  0.0246
  315SOL    HW2  945   0.331   2.159   2.325 -1.7992 -0.4838  2.5265
  316SOL     OW  946   0.192   2.208   0.889  0.4474 -0.6003  0.2706
  316SOL    HW1  947   0.176   2.107   0.902  1.8284 -2.1871  1.2273
  316SOL    HW2  948   0.112   2.260   0.847  1.5228  1.8178 -1.6845
  317SOL     OW  949   1.902   0.436   0.787  0.1222 -0.2838  0.2969
  317SOL    HW1  950   1.972   0.465   0.849 -1.9588 -1.1821 -2.4774
  317SOL    HW2  951   1.812   0.441   0.827  0.3311  0.1943 -2.0670
  318SOL     OW  952   2.199   2.299   0.181  0.4189 -0.4627  0.1288
  318SOL    HW1  953   2.150   2.226   0.233 -0.4502 -0.1386 -0.0959
  318SOL    HW2  954   2.240   2.261   0.100 -2.3856  2.7393  0.8355
  319SOL     OW  955   1.493   1.652   0.002 -0.2724  0.2755 -0.5236
  319SOL    HW1  956   1.578   1.629   3.022  4.1404 -1.0508 -0.4843
  319SOL    HW2  957   1.485   1.749   0.038 -3.1380  1.3973 -0.5756
  320SOL     OW  958   0.425   2.718   2.727  0.1955  0.2291  0.3826
  320SOL    HW1  959   0.425   2.626   2.770  1.6066  0.3180 -0.5618
  320SOL    HW2  960   0.442   2.716   2.623  1.6554 -1.6282  1.8667
  321SOL     OW  961   1.142   2.718   2.690 -0.2507  0.5619 -0.4455
  321SOL    HW1  962   1.157   2.639   2.756  2.6884 -0.6930 -0.0942
  321SOL    HW2  963   1.184   2.697   2.601  1.6427  0.2045 -1.0817
  322SOL     OW  964   2.171   0.612   2.224  0.4170  0.4141 -0.1619
  322SOL    HW1  965   2.149   0.517   2.213 -1.3884  0.7846  1.1598
  322SOL    HW2  966   2.265   0.627   2.265  2.2564 -0.7803 -1.2343
  323SOL     OW  967   0.013   1.104   0.653 -0.5912 -0.5906  0.0479
  323SOL    HW1  968   0.035   1.013   0.696  0.3321 -1.5563 -0.5486
  323SOL    HW2  969   0.010   1.108   0.549 -0.4532  2.2750 -0.1234
  324SOL     OW  970   0.338   0.735   1.840  0.5540 -0.0259 -0.9883
  324SOL    HW1  971   0.250   0.683   1.839 -0.8484  0.8197 -0.4687
  324SOL    HW2  972   0.391   0.707   1.758 -1.2463  0.4402  1.1684
  325SOL     OW  973   0.593   0.120   2.148  0.0975  0.2222 -0.2360
  325SOL    HW1  974   0.591   0.175   2.061 -0.6271 -0.3514 -1.0365
  325SOL    HW2  975   0.598   0.183   2.226 -0.1249 -2.1156  0.7140
  326SOL     OW  976   2.157   2.547   0.309  0.0710  0.7250 -0.4136
  326SOL    HW1  977   2.184   2.628   0.254 -1.8926  2.2386  0.4704
  326SOL    HW2  978   2.162   2.462   0.252  2.0133  0.2795  0.7128
  327SOL     OW  979   2.439   1.288   0.480  0.3398  0.2225  0.2083
  327SOL    HW1  980   2.390   1.198   0.490  2.3833 -1.0462 -0.2025
  327SOL    HW2  981   2.379   1.361   0.525 -1.2575  2.1644  0.3473
  328SOL     OW  982   3.057   1.723   2.342 -0.0264  0.8483  0.2315
  328SOL    HW1  983   3.002   1.693   2.262  1.0586  1.7419 -3.7536
  328SOL    HW2  984   0.082   1.698   2.330  0.7099  2.1050 -0.8382
  329SOL     OW  985   0.353   2.300   1.596 -0.1459 -0.3255 -0.3038
  329SOL    HW1  986   0.271   2.239   1.602 -0.4074 -1.5113 -1.4196
  329SOL    HW2  987   0.393   2.290   1.502  0.1291 -0.0435 -0.9730
  330SOL     OW  988   2.409   1.389   2.596  0.1702 -0.4202 -0.2716
  330SOL    HW1  989   2.481   1.419   2.664  0.5536  0.4650  1.4121
  330SOL    HW2  990   2.335   1.455   2.582  0.3828 -1.6497  2.6720
  331SOL     OW  991   2.711   2.513   0.745 -0.6256 -0.2811 -0.1851
  331SOL    HW1  992   2.687   2.451   0.823 -0.4226 -2.2199 -1.0421
  331SOL    HW2  993   2.632   2.567   0.714  1.9535 -0.8011 -0.7133
  332SOL     OW  994   0.418   3.036   0.714  0.1580 -0.3467 -0.2304
  332SOL    HW1  995   0.356   2.986   0.780 -1.9824  1.2629  1.2956
  332SOL    HW2  996   0.464   2.966   0.649  1.1482 -0.7789  1.1621
  333SOL     OW  997   2.135   2.490   2.379 -0.4118  0.0794  0.0721
  333SOL    HW1  998   2.205   2.431   2.332 -1.0971  0.2544  0.0529
  333SOL    HW2  999   2.182   2.523   2.465 -1.1562  1.1499  2.1495
  334SOL     OW 1000   0.780   1.185   0.340 -0.3907  0.4514 -0.5975
  334SOL    HW1 1001   0.776   1.156   0.439 -1.6117 -1.3969 -0.5469
  334SOL    HW2 1002   0.710   1.258   0.329 -1.5299  0.4164  0.0969
  335SOL     OW 1003   2.750   1.785   1.943  0.3130 -0.0014  0.1355
  335SOL    HW1 1004   2.742   1.811   1.839 -0.7861 -0.1456 -3.0549
  335SOL    HW2 1005   2.657   1.773   1.979 -0.0864  0.5205  2.0568
  336SOL     OW 1006   2.724   2.917   2.295  0.1593 -0.6157  0.3020
  336SOL    HW1 1007   2.625   2.911   2.276 -0.1248  0.0222 -1.7207
  336SOL    HW2 1008   2.761   2.824   2.303 -0.8544  2.8041 -2.6860
  337SOL     OW 1009   0.943   1.243   0.977  0.4212  0.2489 -0.8017
  337SOL    HW1 1010   0.931   1.310   0.902  0.7378  2.3478 -0.6723
  337SOL    HW2 1011   0.859   1.258   1.042 -2.1535 -0.7866  2.4184
  338SOL     OW 1012   1.048   1.895   0.937 -0.3496  0.5435  0.2087
  338SOL    HW1 1013   1.138   1.918   0.900  0.3868  2.1075  2.3524
  338SOL    HW2 1014   0.982   1.943   0.877  0.1060  3.1980  2.3563
  339SOL     OW 1015   0.291   1.461   1.544  0.0004  0.3622  0.0845
  339SOL    HW1 1016   0.257   1.365   1.529 -0.9358  0.1393  1.9660
  339SOL    HW2 1017   0.212   1.530   1.538 -2.1280  1.8019  0.5186
  340SOL     OW 1018   1.651   2.805   1.874 -0.6026  0.1900 -0.2744
  340SOL    HW1 1019   1.667   2.823   1.972 -1.5130 -0.4023  3.0463
  340SOL    HW2 1020   1.645   2.700   1.872  1.2515 -2.3108 -0.9330
  341SOL     OW 1021   1.787   1.562   1.112 -0.4082 -0.2795 -0.4215
  341SOL    HW1 1022   1.761   1.510   1.031 -0.1344  0.2656 -0.2660
  341SOL    HW2 1023   1.890   1.576   1.124 -0.6539 -0.1535 -0.6885
  342SOL     OW 1024   3.069   1.430   0.981 -0.3123 -0.5782  0.1583
  342SOL    HW1 1025   3.013   1.345   0.947 -2.9015 -3.9746  0.3984
  342SOL    HW2 1026   0.008   1.494   0.905  2.2077  1.8033  1.5015
  343SOL     OW 1027   2.808   0.565   1.595 -0.7501 -0.0117 -0.4955
  343SOL    HW1 1028   2.769   0.555   1.687  2.1917 -0.3973  0.1885
  343SOL    HW2 1029   2.746   0.617   1.533 -2.7644  0.5956  0.6012
  344SOL     OW 1030   1.674   0.030   1.078 -0.5803 -0.1402 -0.4150
  344SOL    HW1 1031   1.610   3.052   1.135 -2.1758 -0.7051  1.6593
  344SOL    HW2 1032   1.637   0.124   1.066  1.4706  0.9326 -1.5942
  345SOL     OW 1033   0.719   2.916   2.422  0.3554 -0.0831 -0.2662
  345SOL    HW1 1034   0.680   2.976   2.495  2.6697 -3.2168  1.8882
  345SOL    HW2 1035   0.741   2.964   2.336  1.3834 -1.1426  0.3824
  346SOL     OW 1036   2.544   1.838   0.717  0.1766  0.4751  0.3521
  346SOL    HW1 1037   2.517   1.934   0.735 -1.8872  1.5473  1.0724
  346SOL    HW2 1038   2.489   1.779   0.773  1.1182  1.4787  0.0492
  347SOL     OW 1039   2.276   0.212   1.915 -0.9208  0.0757 -0.6330
  347SOL    HW1 1040   2.252   0.123   1.871 -3.1693 -2.6917  0.2041
  347SOL    HW2 1041   2.245   0.213   2.012 -1.1847 -2.5207  0.2360
  348SOL     OW 1042   1.066   1.048   1.607 -0.3281 -0.1900  0.1797
  348SOL    HW1 1043   0.973   1.037   1.657 -1.2872 -3.0447 -0.3486
  348SOL    HW2 1044   1.126   0.985   1.658  0.6050 -0.2410 -2.3255
  349SOL     OW 1045   2.520   0.927   1.724 -0.2758 -0.0075  0.0925
  349SOL    HW1 1046   2.613   0.965   1.747 -2.6218  0.6494  0.5089
  349SOL    HW2 1047   2.470   0.902   1.809  0.7055 -2.5499 -0.2623
  350SOL     OW 1048   2.082   2.111   0.335  0.2414 -0.2898 -0.0554
  350SOL    HW1 1049   2.007   2.180   0.356 -2.4025  1.8778  0.9128
  350SOL    HW2 1050   2.046   2.045   0.268  2.3322 -0.2302  2.4521
  351SOL     OW 1051   0.682   0.487   2.190 -0.3964  0.2349 -0.1297
  351SOL    HW1 1052   0.780   0.469   2.193  1.6991  0.7591 -0.2137
  351SOL    HW2 1053   0.643   0.413   2.129 -0.6578 -1.9982 -0.9722
  352SOL     OW 1054   2.043   2.539   1.761  0.3292  0.5298  0.0143
  352SOL    HW1 1055   2.032   2.577   1.855  0.4919  1.0727 -0.7781
  352SOL    HW2 1056   1.952   2.539   1.715  0.6077  0.0103  1.6445
  353SOL     OW 1057   0.600   0.755   2.630 -0.6234 -0.1672  0.3875
  353SOL    HW1 1058   0.700   0.775   2.634  1.7933 -0.3530 -0.6016
  353SOL    HW2 1059   0.581   0.714   2.536 -1.0466 -2.3298 -0.6074
  354SOL     OW 1060   0.528   2.172   2.849 -0.2702 -0.0500 -0.3990
  354SOL    HW1 1061   0.591   2.092   2.853 -1.2761 -0.3864  0.9334
  354SOL    HW2 1062   0.579   2.245   2.797  0.5170 -0.7517  0.1935
  355SOL     OW 1063   1.664   2.694   1.033 -0.6825  0.0300  0.1730
  355SOL    HW1 1064   1.737   2.761   1.005  0.7186 -1.5780 -0.3185
  355SOL    HW2 1065   1.603   2.736   1.105 -0.1307 -1.4779  0.5715
  356SOL     OW 1066   2.499   0.929   0.168  0.5013 -0.0302 -0.0382
  356SOL    HW1 1067   2.408   0.973   0.150  1.2139 -1.2593  1.8198
  356SOL    HW2 1068   2.505   0.892   0.265 -2.3666 -1.5282  2.1915
  357SOL     OW 1069   0.015   0.065   1.933  0.0221  0.2585  0.6707
  357SOL    HW1 1070   0.107   0.071   1.882 -1.0952 -0.7311 -0.0247
  357SOL    HW2 1071   3.007   0.090   1.876  0.6997  0.1724  0.6572
  358SOL     OW 1072   0.099   1.599   0.764  0.1918 -0.1978 -0.1446
  358SOL    HW1 1073   0.136   1.524   0.706 -0.7075 -0.9960  1.4703
  358SOL    HW2 1074   0.053   1.667   0.705  1.2600 -0.9748  1.8906
  359SOL     OW 1075   2.725   0.560   2.806 -0.1088 -0.5507 -0.2388
  359SOL    HW1 1076   2.719   0.639   2.744  1.8502 -3.2490 -1.5777
  359SOL    HW2 1077   2.753   0.480   2.751  0.6966 -0.7866  2.2646
  360SOL     OW 1078   1.145   1.052   0.977 -0.1362 -0.2245  0.8435
  360SOL    HW1 1079   1.158   1.025   1.077  0.8286 -2.4452  3.0116
  360SOL    HW2 1080   1.061   1.111   0.969 -1.1980 -0.8871 -1.6112
  361SOL     OW 1081   2.596   2.705   1.029 -0.0584  0.2275  0.1059
  361SOL    HW1 1082   2.662   2.639   1.072  2.9412 -2.7052 -1.3876
  361SOL    HW2 1083   2.500   2.660   1.030 -2.3489 -3.1994  1.9758
  362SOL     OW 1084   1.108   0.329   1.021 -0.2596 -0.1061  0.8330
  362SOL    HW1 1085   1.081   0.394   1.095  1.5024  0.5491 -0.6908
  362SOL    HW2 1086   1.061   0.346   0.933 -0.6153  0.9512 -0.4911
  363SOL     OW 1087   1.938   1.546   0.780 -0.2220 -0.3140 -0.5576
  363SOL    HW1 1088   2.018   1.478   0.778  1.5879 -2.1001 -1.8385
  363SOL    HW2 1089   1.852   1.501   0.813  2.4121  0.6492  1.8522
  364SOL     OW 1090   0.734   0.433   1.437  0.4027  0.5583 -0.4906
  364SOL    HW1 1091   0.706   0.395   1.347  1.6009  1.3583 -0.2563
  364SOL    HW2 1092   0.731   0.535   1.438 -0.5591 -0.3189  1.4504
  365SOL     OW 1093   0.157   0.135   1.057 -0.2899 -0.2659 -0.0947
  365SOL    HW1 1094   0.252   0.136   1.088 -4.1701 -1.8271 -1.5953
  365SOL    HW2 1095   0.098   0.094   1.125  0.0889  0.7770 -0.7187
  366SOL     OW 1096   2.918   1.071   3.059 -0.6252  0.6240  0.5773
  366SOL    HW1 1097   2.831   1.080   0.035 -3.5365  1.7984  0.5893
  366SOL    HW2 1098   2.969   1.164   3.049  0.0328  0.4630 -0.6981
  367SOL     OW 1099   2.221   2.110   2.396 -0.1392 -0.1759 -0.6420
  367SOL    HW1 1100   2.242   2.121   2.497 -0.3899 -1.2945 -0.4319
  367SOL    HW2 1101   2.125   2.131   2.375 -0.4144 -0.0237  0.2388
  368SOL     OW 1102   2.304   1.709   0.847 -0.0237 -0.0275  0.0425
  368SOL    HW1 1103   2.244   1.786   0.814 -1.3913  0.1643  0.3308
  368SOL    HW2 1104   2.276   1.628   0.791  0.0540 -2.6709 -0.8107
  369SOL     OW 1105   1.891   0.459   2.839  0.3986  0.0179  0.3386
  369SOL    HW1 1106   1.982   0.487   2.864 -0.0661 -0.2717 -1.3621
  369SOL    HW2 1107   1.839   0.543   2.837 -0.1226  0.3687  0.8793
  370SOL     OW 1108   0.430   0.446   1.055  0.0235  0.3715 -0.5029
  370SOL    HW1 1109   0.511   0.406   1.102 -1.0187  0.2425  0.1351
  370SOL    HW2 1110   0.433   0.416   0.960 -0.7935  1.0796  1.0414
  371SOL     OW 1111   3.055   1.312   0.037 -0.0670  0.2000 -0.2297
  371SOL    HW1 1112   0.047   1.324   3.042 -0.0453  0.5650  1.6179
  371SOL    HW2 1113   2.997   1.398   0.038 -2.6430  0.6755 -0.2376
  372SOL     OW 1114   0.581   0.671   2.350 -0.0692  0.1592  0.2136
  372SOL    HW1 1115   0.604   0.584   2.301  0.1836 -0.1113  0.4369
  372SOL    HW2 1116   0.521   0.728   2.286 -3.2647 -3.3763  0.6070
  373SOL     OW 1117   0.681   2.969   2.985  0.4452 -0.2006 -1.0566
  373SOL    HW1 1118   0.632   2.972   0.002 -1.2405 -0.1481  1.6989
  373SOL    HW2 1119   0.783   2.970   3.008 -0.1319 -1.6198 -1.0291
  374SOL     OW 1120   0.835   1.510   3.012  0.1423  0.3030  0.0601
  374SOL    HW1 1121   0.915   1.475   3.068  0.4474  0.6160  2.2862
  374SOL    HW2 1122   0.806   1.447   2.937 -0.7799 -3.3845 -0.2000
  375SOL     OW 1123   0.967   0.436   1.952 -0.3576  0.1602  0.2693
  375SOL    HW1 1124   0.943   0.529   1.988 -1.7872  4.4376  1.2396
  375SOL    HW2 1125   0.962   0.362   2.027  0.2290 -0.1711 -0.7540
  376SOL     OW 1126   0.070   2.594   1.891  0.6363 -0.2349 -0.3902
  376SOL    HW1 1127   0.112   2.639   1.972  0.7389 -0.1343  3.3983
  376SOL    HW2 1128   0.004   2.522   1.910  1.7251 -0.3489 -0.8746
  377SOL     OW 1129   2.485   2.075   2.795 -0.5224  0.5230 -0.1233
  377SOL    HW1 1130   2.531   2.089   2.707  0.6203 -1.7556  4.6065
  377SOL    HW2 1131   2.539   1.997   2.843  0.6089 -2.0058  0.7530
  378SOL     OW 1132   2.138   0.023   0.167 -0.3737 -0.1957  0.3899
  378SOL    HW1 1133   2.122   3.055   0.260  0.9469  0.1171 -0.2927
  378SOL    HW2 1134   2.051   0.015   0.115  1.7108 -0.9358  0.4675
  379SOL     OW 1135   1.810   0.692   0.597 -0.1438 -0.6844  0.1019
  379SOL    HW1 1136   1.876   0.623   0.633 -2.0951 -0.8869  0.6973
  379SOL    HW2 1137   1.728   0.693   0.660  1.8792 -1.7745 -2.1432
  380SOL     OW 1138   2.535   1.987   1.724  0.3723 -0.0366 -0.3587
  380SOL    HW1 1139   2.502   2.044   1.641 -1.5235  1.3272 -1.3189
  380SOL    HW2 1140   2.570   2.048   1.798 -1.0694  1.4325 -1.4353
  381SOL     OW 1141   2.324   1.343   2.104  0.8153  0.3278  0.5248
  381SOL    HW1 1142   2.349   1.299   2.016 -2.8390  1.0064  0.5108
  381SOL    HW2 1143   2.308   1.273   2.180  0.4128 -3.0282 -1.4584
  382SOL     OW 1144   3.031   2.656   2.682  0.1512  0.2530  0.0024
  382SOL    HW1 1145   0.047   2.702   2.684  0.4664  0.6615 -0.5405
  382SOL    HW2 1146   3.044   2.556   2.708  0.0931  0.9797  4.2891
  383SOL     OW 1147   0.993   1.101   2.930 -0.4904 -0.0278 -0.2791
  383SOL    HW1 1148   0.982   1.083   3.030  3.0667  1.0450 -3.4782
  383SOL    HW2 1149   1.040   1.188   2.906  1.8250  1.3588 -1.6467
  384SOL     OW 1150   1.752   1.950   2.264 -0.0598 -0.4335 -0.5291
  384SOL    HW1 1151   1.702   1.859   2.252  2.4857 -1.4279 -0.5229
  384SOL    HW2 1152   1.808   1.965   2.178 -3.3497 -2.2910  1.7515
  385SOL     OW 1153   1.923   2.780   0.694 -0.3533 -0.3320 -0.6153
  385SOL    HW1 1154   1.822   2.786   0.724 -2.5163  0.6381  2.8373
  385SOL    HW2 1155   1.931   2.736   0.603  2.0445 -0.4010  0.3411
  386SOL     OW 1156   2.003   1.303   0.537 -0.0889  0.1774  0.2469
  386SOL    HW1 1157   1.925   1.348   0.485  0.2723 -0.6323  0.2694
  386SOL    HW2 1158   1.963   1.258   0.622 -2.1407 -2.3270 -2.1989
  387SOL     OW 1159   2.810   1.996   1.650  0.2182  0.2958 -0.0159
  387SOL    HW1 1160   2.706   1.986   1.671 -3.0015  1.1116  0.6843
  387SOL    HW2 1161   2.822   2.077   1.586 -0.5619  1.4845 -0.3992
  388SOL     OW 1162   0.419   1.132   1.636 -0.2312 -0.7793 -0.2510
  388SOL    HW1 1163   0.338   1.171   1.590  0.5878  2.8812  1.9772
  388SOL    HW2 1164   0.388   1.085   1.723 -0.7857 -2.6988  0.7967
  389SOL     OW 1165   2.125   0.539   2.961  0.1599  0.0351 -0.1236
  389SOL    HW1 1166   2.215   0.561   3.004 -0.2435  0.3398 -0.9413
  389SOL    HW2 1167   2.071   0.622   2.991  0.5310 -0.6043  1.5875
  390SOL     OW 1168   0.644   1.716   2.952 -0.1443  0.8976  0.3388
  390SOL    HW1 1169   0.714   1.643   2.976  0.9295  0.3003  1.3900
  390SOL    HW2 1170   0.621   1.717   2.850 -0.4705 -0.2451 -4.0386
  391SOL     OW 1171   0.926   1.989   0.188 -0.2306 -0.1565  0.0856
  391SOL    HW1 1172   1.023   1.963   0.201 -0.8691  3.9234  0.6810
  391SOL    HW2 1173   0.859   1.918   0.206 -2.3335  1.7269 -0.4439
  392SOL     OW 1174   2.987   2.424   2.169 -0.2411  0.7510  0.0694
  392SOL    HW1 1175   2.899   2.464   2.194  0.4042 -0.0041  0.2502
  392SOL    HW2 1176   3.056   2.459   2.233  0.4263 -2.4099 -1.7219
  393SOL     OW 1177   1.427   2.107   0.390  0.1328  0.3977  0.2748
  393SOL    HW1 1178   1.530   2.118   0.400 -0.7307 -0.9794 -2.4067
  393SOL    HW2 1179   1.405   2.016   0.356 -0.1982  0.1463 -1.1944
  394SOL     OW 1180   0.555   0.277   2.374 -0.0079  0.1484 -1.1734
  394SOL    HW1 1181   0.470   0.222   2.380 -0.3553 -0.4675  0.2084
  394SOL    HW2 1182   0.533   0.368   2.340 -2.8909 -2.9372  0.7695
  395SOL     OW 1183   0.643   1.361   1.385 -0.4144  0.5099 -0.1152
  395SOL    HW1 1184   0.698   1.427   1.451 -1.1469  2.2914  1.6045
  395SOL    HW2 1185   0.549   1.399   1.371 -3.7686 -0.6835 -0.5815
  396SOL     OW 1186   1.815   1.301   2.629  0.1644 -0.5914  0.2502
  396SOL    HW1 1187   1.874   1.252   2.561  1.1220  3.6916 -0.4301
  396SOL    HW2 1188   1.799   1.242   2.709  0.4907 -0.4768 -2.6754
  397SOL     OW 1189   0.382   0.453   0.251  0.4144  0.2801 -0.2269
  397SOL    HW1 1190   0.450   0.470   0.177  2.0928 -1.5919 -0.3678
  397SOL    HW2 1191   0.326   0.539   0.271 -3.1077 -0.4357 -1.4420
  398SOL     OW 1192   0.932   2.583   3.000  0.3762 -0.5263  0.4272
  398SOL    HW1 1193   0.876   2.652   2.949 -0.1599  0.8583  0.9640
  398SOL    HW2 1194   1.027   2.580   2.966 -0.7383  0.4940 -1.4214
  399SOL     OW 1195   1.947   2.253   2.209  0.3585  0.1498 -0.5224
  399SOL    HW1 1196   1.909   2.162   2.169 -3.6681 -2.7258 -2.2619
  399SOL    HW2 1197   2.025   2.286   2.156 -1.3489  0.0680  1.4426
  400SOL     OW 1198   2.463   1.269   1.203  0.8187  0.6473  0.2124
  400SOL    HW1 1199   2.445   1.227   1.295 -2.1363 -1.3890 -2.2778
  400SOL    HW2 1200   2.495   1.202   1.131  0.5393  0.7255 -0.2704
  401SOL     OW 1201   1.403   1.008   0.966  0.3855 -0.2630  0.0822
  401SOL    HW1 1202   1.437   0.972   1.056  2.1648 -0.7214  0.7748
  401SOL    HW2 1203   1.306   1.024   0.971  3.4693 -0.4296  0.5385
  402SOL     OW 1204   0.271   2.998   2.521  0.4776 -0.0776 -0.1954
  402SOL    HW1 1205   0.295   0.015   2.493  0.5527 -3.6294  1.8810
  402SOL    HW2 1206   0.344   2.931   2.496 -0.5417 -2.5059  1.6622
  403SOL     OW 1207   2.819   1.727   1.656  0.0777  0.6746  0.2423
  403SOL    HW1 1208   2.769   1.683   1.582  1.3205 -0.6686  0.6060
  403SOL    HW2 1209   2.827   1.828   1.643  0.7827 -1.6151 -1.5100
  404SOL     OW 1210   2.291   1.591   1.541  0.0303 -0.6335 -0.4443
  404SOL    HW1 1211   2.216   1.658   1.522  0.4245 -1.8157  0.9643
  404SOL    HW2 1212   2.349   1.576   1.459  0.0103 -1.2588 -0.8052
  405SOL     OW 1213   2.286   0.186   2.464  0.2963  0.4719 -0.2883
  405SOL    HW1 1214   2.198   0.236   2.445 -1.2298  1.7553 -1.3930
  405SOL    HW2 1215   2.349   0.215   2.390 -2.2643  0.9851  0.0516
  406SOL     OW 1216   1.002   1.350   2.628  0.3755 -0.3269  0.6790
  406SOL    HW1 1217   0.924   1.392   2.673 -0.0033 -1.1456 -3.5024
  406SOL    HW2 1218   1.056   1.322   2.710 -0.9111 -0.3916  4.8132
  407SOL     OW 1219   2.080   2.307   0.665  0.1687 -0.4471 -0.2353
  407SOL    HW1 1220   2.060   2.299   0.770 -1.3288 -1.7045  1.8067
  407SOL    HW2 1221   2.050   2.227   0.609  4.1622  2.7526 -0.0048
  408SOL     OW 1222   0.233   2.907   0.884 -0.1100  0.1989 -0.0505
  408SOL    HW1 1223   0.225   2.878   0.979  1.2016  3.5159 -1.6755
  408SOL    HW2 1224   0.153   2.966   0.860 -0.7037 -1.1053 -0.4309
  409SOL     OW 1225   2.198   1.439   0.707 -0.1085 -0.0823 -0.2575
  409SOL    HW1 1226   2.278   1.393   0.747 -0.5014  1.3952 -0.7090
  409SOL    HW2 1227   2.134   1.377   0.655 -1.9921 -0.9391 -0.8280
  410SOL     OW 1228   2.118   2.560   2.951  0.3315 -0.6385  0.0235
  410SOL    HW1 1229   2.064   2.610   2.880 -2.5366  2.5277  0.5487
  410SOL    HW2 1230   2.210   2.600   2.974 -1.3846  3.1932  1.1530
  411SOL     OW 1231   0.004   2.859   0.611 -0.3434  0.4106 -0.0513
  411SOL    HW1 1232   0.039   2.917   0.688 -4.2099 -0.4505  2.2950
  411SOL    HW2 1233   3.016   2.909   0.547  0.3341 -0.8659 -0.2316
  412SOL     OW 1234   1.383   2.609   0.472  0.2003 -0.0117  0.2222
  412SOL    HW1 1235   1.368   2.705   0.440 -0.6777  1.3520 -0.7098
  412SOL    HW2 1236   1.401   2.617   0.571 -0.4134  0.4185  0.4360
  413SOL     OW 1237   1.805   0.100   2.286  0.2348  0.0435 -0.5085
  413SOL    HW1 1238   1.734   0.059   2.227 -1.5740  1.6532 -0.4101
  413SOL    HW2 1239   1.790   0.197   2.297  4.2153 -1.0660 -1.1798
  414SOL     OW 1240   0.379   0.800   0.672 -0.2101 -1.0133 -0.1841
  414SOL    HW1 1241   0.471   0.777   0.705  0.4996 -1.6953 -0.0736
  414SOL    HW2 1242   0.318   0.727   0.696  1.8034 -0.1450 -2.4239
  415SOL     OW 1243   0.201   1.080   1.253  0.0857  0.0036  0.3073
  415SOL    HW1 1244   0.127   1.053   1.181 -1.1619 -0.4892 -3.6523
  415SOL    HW2 1245   0.287   1.026   1.246 -0.5130  0.0247  1.8075
  416SOL     OW 1246   0.259   0.006   0.129  0.1674  0.7563  0.3947
  416SOL    HW1 1247   0.228   0.101   0.141  0.5411 -0.0447 -1.7244
  416SOL    HW2 1248   0.324   3.052   0.204  2.8935 -3.8046 -0.5853
  417SOL     OW 1249   2.118   0.376   0.604  0.6624 -0.2055  0.3505
  417SOL    HW1 1250   2.196   0.338   0.652 -1.8679  1.7882  0.8262
  417SOL    HW2 1251   2.038   0.376   0.669 -0.5539  1.3122  1.4880
  418SOL     OW 1252   0.633   0.299   2.691 -0.1362  0.1056 -0.3557
  418SOL    HW1 1253   0.721   0.351   2.718  1.3353  2.2093  0.9025
  418SOL    HW2 1254   0.568   0.368   2.652 -0.2902  0.4399 -1.4100
  419SOL     OW 1255   0.451   1.057   0.681  0.0901  0.7285  0.3903
  419SOL    HW1 1256   0.430   0.956   0.658 -1.3355 -2.3130  3.2126
  419SOL    HW2 1257   0.434   1.074   0.783  0.6629 -2.2679  1.1906
  420SOL     OW 1258   2.237   1.791   1.173  0.3984  0.0747 -0.0507
  420SOL    HW1 1259   2.271   1.886   1.151 -1.0091 -0.4863  0.2071
  420SOL    HW2 1260   2.280   1.720   1.117 -1.0799 -0.1548  1.2295
  421SOL     OW 1261   1.395   1.928   2.807 -0.3629 -0.2694  0.0715
  421SOL    HW1 1262   1.459   2.002   2.777  0.3219 -0.4725  0.5749
  421SOL    HW2 1263   1.338   1.890   2.730  0.0235  2.6518 -0.3880
  422SOL     OW 1264   2.814   0.688   3.021 -0.0482 -0.2473  0.1657
  422SOL    HW1 1265   2.782   0.633   2.942  3.4201 -2.0768 -0.3654
  422SOL    HW2 1266   2.773   0.665   0.034 -4.4864 -0.1124 -1.1053
  423SOL     OW 1267   1.805   1.875   0.493 -0.0449 -0.1902  0.6715
  423SOL    HW1 1268   1.871   1.801   0.525  0.8319  1.8743 -0.1904
  423SOL    HW2 1269   1.708   1.844   0.499  1.0243  1.7281  1.1850
  424SOL     OW 1270   0.462   1.608   1.709  0.1850  0.3553  0.1193
  424SOL    HW1 1271   0.544   1.652   1.670  3.2348 -1.4599  2.5965
  424SOL    HW2 1272   0.404   1.561   1.642  2.9497  3.3428  1.8472
  425SOL     OW 1273   2.463   2.694   1.749  0.1433 -0.0963 -0.3828
  425SOL    HW1 1274   2.559   2.679   1.758  0.5164 -0.5474 -1.7526
  425SOL    HW2 1275   2.415   2.608   1.790  1.1142 -1.1958  0.1211
  426SOL     OW 1276   1.772   2.450   0.557  0.0723  0.2241 -0.1530
  426SOL    HW1 1277   1.705   2.441   0.482 -1.3862  0.6447 -1.9043
  426SOL    HW2 1278   1.736   2.410   0.642 -0.8600  2.3167  1.9126
  427SOL     OW 1279   0.234   0.480   2.515  0.0358 -0.4030 -0.2273
  427SOL    HW1 1280   0.324   0.505   2.565  1.5675  1.5654  0.4019
  427SOL    HW2 1281   0.175   0.417   2.573 -0.1081 -0.1788 -0.2025
  428SOL     OW 1282   2.182   0.889   2.764 -0.5781  0.2500 -0.3904
  428SOL    HW1 1283   2.192   0.990   2.749 -0.1592 -1.0913 -1.5868
  428SOL    HW2 1284   2.084   0.858   2.773 -2.0947  0.3961 -0.8897
  429SOL     OW 1285   3.016   0.246   0.685  0.6355 -0.0797 -0.3457
  429SOL    HW1 1286   3.034   0.310   0.605  2.8677 -0.4766  2.2757
  429SOL    HW2 1287   2.922   0.261   0.729 -0.7783 -3.3407  1.9554
  430SOL     OW 1288   1.136   2.785   1.932 -0.4317 -0.2208  0.6762
  430SOL    HW1 1289   1.051   2.731   1.914 -1.0484  0.1341  0.8340
  430SOL    HW2 1290   1.188   2.729   1.998  0.4350 -0.4645 -1.2988
  431SOL     OW 1291   2.932   2.100   1.206  0.2767 -0.4163  0.5915
  431SOL    HW1 1292   2.835   2.135   1.215  2.1428 -2.1940  1.5005
  431SOL    HW2 1293   2.965   2.057   1.292 -0.1431  0.1346  1.9876
  432SOL     OW 1294   2.227   2.846   1.958 -0.1985 -0.0016 -0.2543
  432SOL    HW1 1295   2.226   2.909   1.876  0.0767 -0.3589  1.1794
  432SOL    HW2 1296   2.250   2.899   2.043 -1.0906 -2.0107 -1.2595
  433SOL     OW 1297   1.221   2.137   0.188 -0.3639  0.2869  0.0119
  433SOL    HW1 1298   1.285   2.149   0.267 -1.3834 -1.9754  0.6665
  433SOL    HW2 1299   1.259   2.071   0.124 -2.0288 -0.2924  1.2022
  434SOL     OW 1300   3.056   2.372   2.673 -0.2105  0.5546 -0.3491
  434SOL    HW1 1301   3.052   2.306   2.596  2.6530  0.6523  0.3982
  434SOL    HW2 1302   3.051   2.323   2.765 -2.1779 -2.6239  3.0841
  435SOL     OW 1303   0.337   0.854   0.417 -0.1983  1.0072  0.0849
  435SOL    HW1 1304   0.314   0.769   0.362 -1.3651 -0.9852  0.9728
  435SOL    HW2 1305   0.327   0.843   0.518 -3.7077 -0.5858  0.8642
  436SOL     OW 1306   0.435   2.451   2.057  0.2898 -0.0516 -0.0754
  436SOL    HW1 1307   0.383   2.372   2.028  0.3402  1.2009  1.0281
  436SOL    HW2 1308   0.539   2.434   2.045  1.1155 -1.1309  1.0987
  437SOL     OW 1309   1.218   2.008   1.429  0.2707  0.2864  0.3277
  437SOL    HW1 1310   1.196   2.041   1.331 -1.7378  0.6901 -2.5762
  437SOL    HW2 1311   1.318   1.990   1.433  1.3148 -2.8589 -1.6727
  438SOL     OW 1312   0.055   2.292   0.329 -0.3559 -0.0244 -0.2729
  438SOL    HW1 1313   0.118   2.230   0.269  3.0068 -2.7422  1.9486
  438SOL    HW2 1314   3.061   2.236   0.372 -1.1643 -1.3613  1.6577
  439SOL     OW 1315   0.423   0.132   1.177 -0.0930  1.0159 -0.0286
  439SOL    HW1 1316   0.473   0.072   1.109 -0.7442 -1.5064 -0.6285
  439SOL    HW2 1317   0.398   0.085   1.268  2.0616 -1.2811  1.9913
  440SOL     OW 1318   2.773   2.583   2.202  0.2049 -0.0861  0.8720
  440SOL    HW1 1319   2.796   2.617   2.291  0.9379 -0.2880 -2.6318
  440SOL    HW2 1320   2.750   2.656   2.138  1.1904 -3.4680  1.2110
  441SOL     OW 1321   0.008   0.631   1.617 -0.0406 -0.0231 -0.1526
  441SOL    HW1 1322   0.081   0.568   1.653  3.6685  1.6275 -0.8103
  441SOL    HW2 1323   3.003   0.579   1.579  0.2969  0.8702  0.6933
  442SOL     OW 1324   1.903   2.398   0.077 -0.1570  0.3073  0.5152
  442SOL    HW1 1325   1.961   2.477   0.047  0.9950  1.1193 -0.6820
  442SOL    HW2 1326   1.805   2.423   0.094 -1.8121 -0.0991  2.3950
  443SOL     OW 1327   0.266   0.553   2.878  0.3240 -0.5193  0.4171
  443SOL    HW1 1328   0.174   0.510   2.874  0.4411 -0.7793 -0.9242
  443SOL    HW2 1329   0.269   0.623   2.951 -0.1678  1.3519 -0.3670
  444SOL     OW 1330   1.494   1.485   2.261  0.6164  0.7491  0.4649
  444SOL    HW1 1331   1.546   1.399   2.284  0.0095 -1.9014  1.3152
  444SOL    HW2 1332   1.547   1.562   2.219 -0.0626 -0.2771  0.7213
  445SOL     OW 1333   0.203   2.385   1.098 -0.1421 -0.2354  0.0304
  445SOL    HW1 1334   0.268   2.470   1.096  0.8154  2.6660 -2.7491
  445SOL    HW2 1335   0.222   2.319   1.020 -1.4873  1.3356  1.5919
  446SOL     OW 1336   2.673   1.570   1.489 -0.1019 -0.1630  0.7356
  446SOL    HW1 1337   2.741   1.502   1.464  0.9560 -0.3682  2.0257
  446SOL    HW2 1338   2.592   1.551   1.431  1.8815  1.7033 -0.1658
  447SOL     OW 1339   0.213   0.664   0.243  0.0692 -0.2443 -0.1270
  447SOL    HW1 1340   0.227   0.684   0.143 -0.8133  0.2526  0.1870
  447SOL    HW2 1341   0.114   0.675   0.261  1.5776 -1.9183  1.2092
  448SOL     OW 1342   1.290   2.116   1.917 -0.5923 -0.1192 -0.6342
  448SOL    HW1 1343   1.293   2.216   1.903  1.1268 -0.4784  3.6989
  448SOL    HW2 1344   1.293   2.098   2.018 -0.5296  1.9625  0.2930
  449SOL     OW 1345   1.032   1.398   0.054 -0.1802  0.1523  0.3995
  449SOL    HW1 1346   0.998   1.330   0.119  1.0482 -1.2266 -2.0029
  449SOL    HW2 1347   1.124   1.428   0.086 -0.5824  3.3686 -0.2100
  450SOL     OW 1348   2.929   1.988   1.995 -0.6354 -0.4532  0.1983
  450SOL    HW1 1349   3.021   1.972   1.967 -1.1780  3.5050  2.7719
  450SOL    HW2 1350   2.872   1.910   1.965  2.3403  3.6002  0.0455
  451SOL     OW 1351   2.546   0.861   2.480  0.2473 -0.0865 -0.0213
  451SOL    HW1 1352   2.465   0.901   2.527 -1.0450 -1.7422  1.8318
  451SOL    HW2 1353   2.614   0.820   2.546  0.5733 -1.2052  0.3629
  452SOL     OW 1354   1.426   0.526   1.165 -0.0916 -0.0937 -0.1037
  452SOL    HW1 1355   1.334   0.570   1.174 -0.1456 -0.8926  0.2013
  452SOL    HW2 1356   1.482   0.571   1.238  2.7846 -0.1992 -0.8373
  453SOL     OW 1357   1.527   0.969   1.222  0.2176  0.0683 -0.0494
  453SOL    HW1 1358   1.458   0.941   1.294 -2.3679  1.7615  1.0937
  453SOL    HW2 1359   1.530   1.073   1.225  0.7607  1.1618 -2.2776
  454SOL     OW 1360   0.095   1.007   0.353  0.1754 -0.2023  0.0868
  454SOL    HW1 1361   0.160   0.931   0.376  0.2061 -0.5270 -1.2569
  454SOL    HW2 1362   0.013   0.959   0.324  0.4437 -0.1945  0.4161
  455SOL     OW 1363   2.356   2.554   1.414  0.0929 -0.4597 -0.3231
  455SOL    HW1 1364   2.301   2.606   1.483 -0.2449  0.9197 -0.5113
  455SOL    HW2 1365   2.341   2.591   1.322 -0.3989 -1.2891  0.2800
  456SOL     OW 1366   0.390   2.600   1.093  0.6760  0.4048  0.1940
  456SOL    HW1 1367   0.420   2.588   1.190  2.3251 -0.1662  1.3359
  456SOL    HW2 1368   0.330   2.683   1.086 -1.3158 -2.1340 -1.8261
  457SOL     OW 1369   1.522   3.073   0.550  0.2965  0.0834 -0.8987
  457SOL    HW1 1370   1.443   3.010   0.542  2.0817  2.0630  4.4333
  457SOL    HW2 1371   1.503   0.089   0.508  2.0438  0.2763  0.3664
  458SOL     OW 1372   2.619   2.984   1.170  0.5918 -0.1070  0.4178
  458SOL    HW1 1373   2.688   2.933   1.228  3.4138 -0.1664  0.0587
  458SOL    HW2 1374   2.618   2.957   1.070  2.5077 -2.8123 -0.1194
  459SOL     OW 1375   2.449   0.528   2.652  0.1146 -0.0011 -0.1470
  459SOL    HW1 1376   2.487   0.618   2.683 -2.0477  3.7438  0.1649
  459SOL    HW2 1377   2.498   0.498   2.563  0.4439 -0.2193 -4.1317
  460SOL     OW 1378   2.721   2.558   2.788  0.7954  0.1448 -0.3006
  460SOL    HW1 1379   2.672   2.583   2.880 -2.0498 -2.2439  4.5042
  460SOL    HW2 1380   2.812   2.526   2.814 -1.9625  1.1609 -2.1678
  461SOL     OW 1381   0.725   1.782   0.323 -0.4303 -0.1730  0.1442
  461SOL    HW1 1382   0.788   1.700   0.333  0.1899  2.2167 -0.3676
  461SOL    HW2 1383   0.634   1.757   0.281 -1.0311  1.8103  1.3769
  462SOL     OW 1384   2.188   1.929   0.747 -0.3805 -0.0238  0.5891
  462SOL    HW1 1385   2.168   1.908   0.648  0.9922 -1.9602 -2.9829
  462SOL    HW2 1386   2.261   2.003   0.756 -0.3227  1.4229  1.0030
  463SOL     OW 1387   2.809   0.929   0.640 -0.0985 -0.1196 -0.1551
  463SOL    HW1 1388   2.909   0.898   0.650  1.0671  0.9002 -0.9617
  463SOL    HW2 1389   2.798   0.982   0.559  0.3143  1.0185  0.8013
  464SOL     OW 1390   1.164   2.875   0.609  0.1493  0.1609 -0.1648
  464SOL    HW1 1391   1.092   2.939   0.578  1.6842 -0.2080  1.4219
  464SOL    HW2 1392   1.124   2.779   0.614 -0.5804  0.6240 -0.2683
  465SOL     OW 1393   2.259   1.094   0.427 -0.0268 -1.1365 -0.3329
  465SOL    HW1 1394   2.176   1.066   0.477  1.1054  0.2528 -1.1530
  465SOL    HW2 1395   2.236   1.172   0.369 -0.1915 -1.4436  2.8477
  466SOL     OW 1396   2.378   0.145   2.878 -0.3725 -0.3465  0.3497
  466SOL    HW1 1397   2.357   0.133   2.780 -2.4603 -0.3193  0.9776
  466SOL    HW2 1398   2.413   0.240   2.899 -0.4422 -0.7085  2.5685
  467SOL     OW 1399   1.018   1.094   1.356 -0.4377 -0.6655 -0.0707
  467SOL    HW1 1400   1.017   1.084   1.458  0.6128 -0.8447 -0.3354
  467SOL    HW2 1401   1.089   1.044   1.302 -0.4252 -1.3313 -0.3120
  468SOL     OW 1402   0.482   0.878   2.215 -0.5955  0.7336  0.3417
  468SOL    HW1 1403   0.475   0.926   2.128  0.0963 -1.2158  1.4013
  468SOL    HW2 1404   0.524   0.941   2.286  2.9984  3.3441 -2.4774
  469SOL     OW 1405   0.500   2.593   0.350 -0.4573 -0.1743 -0.2003
  469SOL    HW1 1406   0.498   2.534   0.265  3.0374 -1.1329  0.9321
  469SOL    HW2 1407   0.594   2.618   0.375 -2.0384  0.1118 -0.3560
  470SOL     OW 1408   2.549   1.053   2.789  0.0093 -1.2275  0.0378
  470SOL    HW1 1409   2.542   0.953   2.798  2.2589  2.1749  2.1084
  470SOL    HW2 1410   2.647   1.081   2.775 -0.7159 -1.6203 -1.5281
  471SOL     OW 1411   2.676   1.109   2.474 -0.6722 -0.6120 -0.0159
  471SOL    HW1 1412   2.765   1.089   2.520 -0.9122 -0.6361 -3.2374
  471SOL    HW2 1413   2.632   1.024   2.447 -1.6768  0.8327 -0.9967
  472SOL     OW 1414   0.342   2.492   0.534 -0.2725 -0.2202 -0.2117
  472SOL    HW1 1415   0.252   2.487   0.484 -0.7761 -2.8001 -2.3205
  472SOL    HW2 1416   0.406   2.551   0.478 -0.1467  1.4778 -0.2208
  473SOL     OW 1417   0.525   0.232   2.942  0.2269 -0.2576 -0.2550
  473SOL    HW1 1418   0.424   0.242   2.923 -0.6632 -0.0709  0.4673
  473SOL    HW2 1419   0.581   0.254   2.863 -1.0395 -3.6942 -0.2899
  474SOL     OW 1420   1.634   0.392   1.952  0.3054  0.4347 -0.6173
  474SOL    HW1 1421   1.645   0.488   1.917 -0.1862  1.7928  0.4660
  474SOL    HW2 1422   1.551   0.382   2.014  2.2859 -0.0373  1.0435
  475SOL     OW 1423   1.012   2.640   0.184 -0.6824 -0.1858  0.1704
  475SOL    HW1 1424   1.058   2.552   0.208 -0.1600 -0.8857  0.8326
  475SOL    HW2 1425   0.988   2.638   0.084  2.9606  0.4907 -0.8294
  476SOL     OW 1426   0.407   1.111   0.948 -0.1157  0.2657 -0.2000
  476SOL    HW1 1427   0.467   1.062   1.013  1.6382  1.1984  0.6470
  476SOL    HW2 1428   0.437   1.208   0.940 -0.2483 -0.4511  0.7459
  477SOL     OW 1429   1.699   2.302   1.268  0.1679 -0.1856 -0.1168
  477SOL    HW1 1430   1.603   2.321   1.291 -3.2241  1.1418  1.3095
  477SOL    HW2 1431   1.714   2.319   1.169  0.5186 -0.2980 -1.0834
  478SOL     OW 1432   0.576   1.308   2.423  0.0550  0.0041 -0.2724
  478SOL    HW1 1433   0.665   1.338   2.386 -0.5226  0.7193  1.2459
  478SOL    HW2 1434   0.569   1.352   2.516 -0.0439 -0.3684  0.2160
  479SOL     OW 1435   0.241   2.841   1.146  0.1247 -0.2580 -0.0584
  479SOL    HW1 1436   0.140   2.829   1.162  1.6312  0.2623  1.4934
  479SOL    HW2 1437   0.272   2.909   1.209 -2.3784 -0.2037 -0.1405
  480SOL     OW 1438   2.690   2.905   0.248 -0.0201  0.5466 -0.0207
  480SOL    HW1 1439   2.653   2.996   0.224  2.8927 -2.5322 -0.3773
  480SOL    HW2 1440   2.617   2.833   0.251 -0.5711 -2.2952  0.4003
  481SOL     OW 1441   2.860   2.811   0.995 -0.5810  0.1247 -0.1785
  481SOL    HW1 1442   2.905   2.758   0.920  0.9106  0.9655  2.3469
  481SOL    HW2 1443   2.763   2.781   1.009  0.9054 -1.9297 -2.0825
  482SOL     OW 1444   1.494   2.275   2.167 -0.0047 -0.1043 -0.4981
  482SOL    HW1 1445   1.489   2.211   2.245  0.8478 -1.1299  1.8035
  482SOL    HW2 1446   1.579   2.267   2.114 -0.4675 -0.8478  1.1108
  483SOL     OW 1447   0.573   1.508   2.696 -0.2248 -0.2829 -0.3588
  483SOL    HW1 1448   0.664   1.541   2.661  0.8309  0.5357 -0.3361
  483SOL    HW2 1449   0.522   1.589   2.728  0.6702 -2.6730 -1.1065
  484SOL     OW 1450   1.050   1.136   2.429  0.3000 -0.1127  0.3067
  484SOL    HW1 1451   0.990   1.064   2.393 -0.4024  4.2455  1.6525
  484SOL    HW2 1452   1.002   1.195   2.496  0.2225 -0.5257 -1.1127
  485SOL     OW 1453   2.767   0.402   0.303  0.4038  0.1682  0.9517
  485SOL    HW1 1454   2.718   0.358   0.377  1.8036  1.6201 -2.3492
  485SOL    HW2 1455   2.778   0.336   0.229 -0.9600  0.6387  1.8588
  486SOL     OW 1456   1.664   2.778   0.772 -0.4672 -0.1338 -0.1658
  486SOL    HW1 1457   1.639   2.733   0.860  0.1500  0.2486 -1.7862
  486SOL    HW2 1458   1.674   2.879   0.776 -0.5061 -1.0605  0.8181
  487SOL     OW 1459   0.784   2.552   1.031  0.2033 -0.1156 -0.2600
  487SOL    HW1 1460   0.692   2.599   1.014 -0.1567 -0.2657 -2.0808
  487SOL    HW2 1461   0.818   2.514   0.943 -1.0651 -0.9897  2.5508
  488SOL     OW 1462   2.281   1.148   0.121  0.0967  0.0485 -0.9393
  488SOL    HW1 1463   2.258   1.232   0.168 -0.1004 -0.5188 -1.5565
  488SOL    HW2 1464   2.326   1.161   0.031 -0.3692  0.6955  1.4953
  489SOL     OW 1465   1.357   2.763   1.092  0.3990 -0.2576 -0.6414
  489SOL    HW1 1466   1.314   2.857   1.110  1.4227 -0.5229  2.9365
  489SOL    HW2 1467   1.416   2.739   1.169  0.8182 -0.7000 -1.4299
  490SOL     OW 1468   0.929   1.071   0.128  0.3830 -0.0267 -0.3447
  490SOL    HW1 1469   1.021   1.051   0.172  0.9211  0.1437 -0.1949
  490SOL    HW2 1470   0.881   1.123   0.199 -0.2797 -1.2766 -1.3018
  491SOL     OW 1471   1.003   3.049   0.903 -0.7094  0.8770 -0.1621
  491SOL    HW1 1472   1.092   2.997   0.894  0.6487 -0.5676 -4.0587
  491SOL    HW2 1473   0.925   2.998   0.863 -0.7758  0.9718 -1.1084
  492SOL     OW 1474   1.232   1.413   2.210 -0.4969  0.1376 -0.4254
  492SOL    HW1 1475   1.197   1.458   2.295 -0.1791  2.0898 -0.1969
  492SOL    HW2 1476   1.333   1.427   2.209 -1.0215 -3.3074  1.7622
  493SOL     OW 1477   0.047   2.501   0.498  0.4158  0.4358 -0.1714
  493SOL    HW1 1478   0.042   2.424   0.429 -0.7847  1.7483  0.3651
  493SOL    HW2 1479   0.001   2.579   0.454  2.6443  1.2310 -1.3517
  494SOL     OW 1480   2.331   1.813   3.025 -0.1530 -0.1478  0.9152
  494SOL    HW1 1481   2.241   1.846   3.004 -1.8564 -1.0690 -1.0872
  494SOL    HW2 1482   2.330   1.714   3.031 -1.5342 -1.6286  2.5833
  495SOL     OW 1483   2.616   1.430   2.963  0.4690 -0.4201  0.0128
  495SOL    HW1 1484   2.644   1.368   2.890 -0.5052  0.2074 -0.6613
  495SOL    HW2 1485   2.694   1.446   3.026  0.4599 -1.8147  0.5263
  496SOL     OW 1486   2.584   0.151   1.432  0.2189 -0.1498 -0.4431
  496SOL    HW1 1487   2.584   0.144   1.531 -1.1215  0.7775 -0.5785
  496SOL    HW2 1488   2.530   0.226   1.389 -0.6777  1.5331 -0.0405
  497SOL     OW 1489   2.731   1.112   0.402 -0.4876 -0.0362 -0.3599
  497SOL    HW1 1490   2.644   1.058   0.394  2.9316 -1.0131 -0.7606
  497SOL    HW2 1491   2.730   1.196   0.339  1.5607 -1.3018 -0.1229
  498SOL     OW 1492   2.985   2.194   2.463 -0.1060 -0.6396 -0.3942
  498SOL    HW1 1493   2.934   2.112   2.491  2.6883  0.1310  2.6447
  498SOL    HW2 1494   3.001   2.196   2.359  0.1163 -1.6845 -2.8142
  499SOL     OW 1495   0.955   2.241   0.432 -0.5644 -0.0308 -0.0990
  499SOL    HW1 1496   0.985   2.143   0.444  1.6148 -0.0056  1.6019
  499SOL    HW2 1497   1.034   2.304   0.433 -0.6598 -0.2422  0.2985
  500SOL     OW 1498   0.920   0.028   2.531 -0.4775 -0.1269  0.0870
  500SOL    HW1 1499   0.983   0.067   2.605 -1.0150  0.4867  0.7757
  500SOL    HW2 1500   0.829   0.006   2.568  4.5329 -0.5741  1.2593
  501SOL     OW 1501   1.309   2.996   1.212 -0.1447 -0.1694 -0.0092
  501SOL    HW1 1502   1.387   2.994   1.273 -2.2811 -0.3415 -0.1512
  501SOL    HW2 1503   1.287   0.011   1.176 -0.2508 -0.6261  0.2192
  502SOL     OW 1504   0.150   0.017   2.190 -0.1005 -0.0762 -0.1076
  502SOL    HW1 1505   0.238   3.054   2.158  0.7387  1.8209  0.7968
  502SOL    HW2 1506   0.084   0.017   2.114  1.3035 -1.6364  2.4917
  503SOL     OW 1507   2.268   1.942   2.205  0.3980  0.4969 -0.1835
  503SOL    HW1 1508   2.214   1.858   2.213  1.0763  0.6953  0.5625
  503SOL    HW2 1509   2.265   1.999   2.288 -0.6001  1.6523 -2.2575
  504SOL     OW 1510   1.364   0.680   1.845  0.0582  0.1089 -0.4424
  504SOL    HW1 1511   1.318   0.591   1.864  1.7802  1.5461  1.7410
  504SOL    HW2 1512   1.456   0.656   1.808  1.1499 -1.4897 -2.1024
  505SOL     OW 1513   2.902   1.030   1.505 -0.1084  0.2252  1.3060
  505SOL    HW1 1514   2.913   1.132   1.489 -0.0305  1.1971  0.7817
  505SOL    HW2 1515   2.919   0.976   1.418  2.1915 -1.8887  0.5199
  506SOL     OW 1516   0.588   1.026   2.400  0.4070  0.4890  0.7056
  506SOL    HW1 1517   0.552   0.984   2.483  0.2921  0.1822 -2.6948
  506SOL    HW2 1518   0.580   1.125   2.398  2.0924 -1.7178 -0.1711
  507SOL     OW 1519   0.458   2.787   2.459 -0.0194  0.0204 -0.2523
  507SOL    HW1 1520   0.550   2.823   2.440 -2.3938 -1.5862 -1.9691
  507SOL    HW2 1521   0.429   2.713   2.393  1.4617  0.2307 -0.0759
  508SOL     OW 1522   1.202   0.946   1.222 -0.6820  0.1380 -0.6455
  508SOL    HW1 1523   1.245   0.975   1.308 -0.7925 -1.5065 -1.6910
  508SOL    HW2 1524   1.213   0.844   1.210 -0.0569  0.5215 -2.2200
  509SOL     OW 1525   0.871   1.949   1.641  0.6589  0.0295  0.7663
  509SOL    HW1 1526   0.836   1.977   1.731  2.6893 -3.5097  0.1109
  509SOL    HW2 1527   0.969   1.933   1.648 -1.6835  0.5051  0.0458
  510SOL     OW 1528   2.428   0.657   2.296  0.1902 -0.6833 -0.3152
  510SOL    HW1 1529   2.482   0.575   2.324 -0.0423  0.5912  2.1078
  510SOL    HW2 1530   2.465   0.733   2.352 -1.6310 -1.6202 -0.1733
  511SOL     OW 1531   0.532   1.740   1.328 -0.8292  0.1656 -0.1240
  511SOL    HW1 1532   0.463   1.786   1.267 -1.5374  0.2376 -0.9086
  511SOL    HW2 1533   0.507   1.643   1.333  0.4869 -0.3747 -0.0499
  512SOL     OW 1534   2.425   2.079   0.745 -0.2803  0.3794  0.1425
  512SOL    HW1 1535   2.480   2.123   0.675 -0.1783 -1.0188  0.6365
  512SOL    HW2 1536   2.364   2.149   0.784  0.1027 -1.7448 -0.5910
  513SOL     OW 1537   2.697   1.331   2.702 -0.1314 -0.1976 -0.0409
  513SOL    HW1 1538   2.651   1.258   2.645 -0.8883 -2.4169  1.2335
  513SOL    HW2 1539   2.759   1.385   2.648 -1.7406 -1.0499 -0.8003
  514SOL     OW 1540   0.332   1.999   2.841  0.3969 -0.6632  0.3857
  514SOL    HW1 1541   0.250   1.994   2.903 -0.7212 -2.6070 -0.3103
  514SOL    HW2 1542   0.395   2.073   2.862 -1.7995 -1.9307 -2.0725
  515SOL     OW 1543   1.887   1.644   2.078  0.2225 -0.7920 -0.1224
  515SOL    HW1 1544   1.866   1.578   2.007  0.8419  5.3922  3.1531
  515SOL    HW2 1545   1.960   1.605   2.131 -0.5213 -0.7707  1.0591
  516SOL     OW 1546   2.157   2.309   2.876 -0.9096  0.8973  0.0166
  516SOL    HW1 1547   2.129   2.403   2.900  1.4877 -2.9074 -0.2963
  516SOL    HW2 1548   2.250   2.298   2.917  0.9102  1.2517 -3.2024
  517SOL     OW 1549   1.540   1.146   0.322 -0.2110 -0.3073 -0.3141
  517SOL    HW1 1550   1.521   1.201   0.405  0.8824 -0.4546 -3.2053
  517SOL    HW2 1551   1.553   1.048   0.345 -0.8893 -1.6514  2.1385
  518SOL     OW 1552   2.518   2.918   1.959 -0.1456  0.5116 -0.2076
  518SOL    HW1 1553   2.514   2.994   2.029 -0.3813  1.3831  1.0923
  518SOL    HW2 1554   2.432   2.859   1.964  0.1912 -0.9116  0.3937
  519SOL     OW 1555   1.827   2.183   1.830  0.1561  0.4124 -0.1332
  519SOL    HW1 1556   1.779   2.228   1.752  0.6129  1.1204 -0.7515
  519SOL    HW2 1557   1.923   2.179   1.812 -2.4513 -2.2891  0.3519
  520SOL     OW 1558   2.592   2.829   2.615  0.0037 -0.8961  0.0282
  520SOL    HW1 1559   2.542   2.915   2.602 -2.0680  2.0626 -0.1646
  520SOL    HW2 1560   2.667   2.834   2.687 -1.2014 -0.1952 -0.4862
  521SOL     OW 1561   0.379   1.293   2.198  0.3068  0.2453  1.0785
  521SOL    HW1 1562   0.328   1.379   2.175  1.3699 -1.5646 -0.6099
  521SOL    HW2 1563   0.459   1.309   2.261  1.4513 -0.2938  0.0153
  522SOL     OW 1564   0.808   0.088   1.636  0.9738  0.4835 -0.0581
  522SOL    HW1 1565   0.799   0.188   1.633 -1.8874 -2.4285 -0.8071
  522SOL    HW2 1566   0.778   0.037   1.549 -0.0867  0.0845 -2.2214
  523SOL     OW 1567   0.447   2.296   0.884 -0.2184  0.1267  0.6912
  523SOL    HW1 1568   0.479   2.302   0.786  0.3979  0.4816 -0.3032
  523SOL    HW2 1569   0.345   2.279   0.884 -1.9900  0.2307  0.8883
  524SOL     OW 1570   1.448   2.622   0.749 -0.0598 -0.0760  0.2196
  524SOL    HW1 1571   1.522   2.694   0.742  1.5790 -2.1218  1.5006
  524SOL    HW2 1572   1.495   2.530   0.735  0.3141 -1.9930 -3.4632
  525SOL     OW 1573   2.286   0.721   1.133 -0.1356 -0.1652 -0.2811
  525SOL    HW1 1574   2.341   0.749   1.214  0.1651  1.2603 -2.6366
  525SOL    HW2 1575   2.312   0.777   1.050 -1.6037 -0.8818 -0.4526
  526SOL     OW 1576   0.888   2.514   0.756  0.4850 -0.1497  0.4440
  526SOL    HW1 1577   0.833   2.496   0.673  1.1624  0.0083 -0.2840
  526SOL    HW2 1578   0.916   2.609   0.755 -0.4291 -2.9001  0.1551
  527SOL     OW 1579   2.378   2.073   0.334  0.6863  0.0269 -0.0368
  527SOL    HW1 1580   2.413   1.981   0.348  0.5149 -0.1160  0.0658
  527SOL    HW2 1581   2.279   2.080   0.310  0.3478 -0.5432  1.8218
  528SOL     OW 1582   2.123   0.674   0.568 -0.0130  0.0210 -0.2452
  528SOL    HW1 1583   2.111   0.573   0.574  1.9226  0.4031  0.7056
  528SOL    HW2 1584   2.067   0.705   0.485 -2.8137  1.1411  1.1455
  529SOL     OW 1585   1.257   1.152   2.254 -0.4723  0.0357 -0.1180
  529SOL    HW1 1586   1.186   1.135   2.328 -0.7089 -0.1351  1.6843
  529SOL    HW2 1587   1.273   1.249   2.246 -1.3043 -3.3901 -0.7639
  530SOL     OW 1588   2.564   0.794   3.019  0.3567  0.0036  0.0959
  530SOL    HW1 1589   2.665   0.793   3.003 -2.7948  1.1282 -0.5039
  530SOL    HW2 1590   2.550   0.853   0.028  2.4434  0.0353  3.1504
  531SOL     OW 1591   1.176   0.983   0.230  0.0671  0.0697  0.5918
  531SOL    HW1 1592   1.191   0.914   0.157  1.7062  0.3701 -1.0162
  531SOL    HW2 1593   1.186   0.932   0.314 -1.2470 -0.8484 -1.6015
  532SOL     OW 1594   2.139   0.074   0.900 -0.3248 -0.2595 -0.2398
  532SOL    HW1 1595   2.042   0.084   0.865  1.2377 -0.3608 -0.7212
  532SOL    HW2 1596   2.188   0.164   0.877  2.3360  0.9824 -0.7288
  533SOL     OW 1597   1.410   0.908   2.269 -0.3573  0.4993  0.3933
  533SOL    HW1 1598   1.409   0.989   2.210  0.1499 -1.0440 -0.3181
  533SOL    HW2 1599   1.459   0.830   2.216  0.6146  1.5654  1.6660
  534SOL     OW 1600   1.801   2.937   2.816 -0.2897 -0.1408  0.0481
  534SOL    HW1 1601   1.884   2.974   2.860 -0.2677  3.0153  1.7389
  534SOL    HW2 1602   1.811   2.838   2.813  1.3770  1.9938 -1.6996
  535SOL     OW 1603   0.432   3.024   0.358 -0.1233 -0.2988 -0.0428
  535SOL    HW1 1604   0.496   0.004   0.409  0.3616 -0.7315 -1.6427
  535SOL    HW2 1605   0.373   2.977   0.430  2.0287  0.7571 -1.3276
  536SOL     OW 1606   0.746   2.865   0.944  0.0196  0.3717 -0.1266
  536SOL    HW1 1607   0.666   2.803   0.931  0.9758 -0.6227  0.8813
  536SOL    HW2 1608   0.797   2.831   1.025 -0.7963  1.8349 -2.4679
  537SOL     OW 1609   1.724   0.802   1.063 -0.3124  0.4823  0.1560
  537SOL    HW1 1610   1.696   0.723   1.122  1.4787 -0.5159  2.0576
  537SOL    HW2 1611   1.658   0.881   1.078 -0.9894  3.1199 -0.3962
  538SOL     OW 1612   2.566   2.480   0.211 -0.2460  0.2563 -0.3874
  538SOL    HW1 1613   2.652   2.489   0.266  0.3150 -0.9536  1.1575
  538SOL    HW2 1614   2.503   2.551   0.252  0.3312  0.7532  3.0109
  539SOL     OW 1615   2.779   1.720   2.613 -0.6501  0.0141 -0.8613
  539SOL    HW1 1616   2.691   1.761   2.594  3.3465 -0.3429  1.3107
  539SOL    HW2 1617   2.857   1.779   2.579 -1.4852 -1.2821 -1.6187
  540SOL     OW 1618   3.049   2.753   1.471 -0.6701 -0.2179 -0.1592
  540SOL    HW1 1619   0.047   2.689   1.444 -0.5755  1.1629  0.6483
  540SOL    HW2 1620   2.957   2.713   1.482 -0.1735  3.2629 -0.2723
  541SOL     OW 1621   2.567   3.058   1.722  0.0565 -0.2222  0.1469
  541SOL    HW1 1622   2.586   0.071   1.759 -0.5157 -1.0751  1.5934
  541SOL    HW2 1623   2.533   3.003   1.799  0.6816  0.7400 -1.1866
  542SOL     OW 1624   2.955   0.489   2.176  0.3848 -0.3538 -0.1550
  542SOL    HW1 1625   2.943   0.419   2.106  0.2860 -0.0519  3.4630
  542SOL    HW2 1626   3.040   0.547   2.163  1.2788 -1.6668 -0.5903
  543SOL     OW 1627   1.078   0.476   0.778  0.3794 -0.3090  0.4552
  543SOL    HW1 1628   1.038   0.521   0.697  0.1268  0.8040  1.8652
  543SOL    HW2 1629   1.159   0.423   0.750  1.4202  3.0390  1.2620
  544SOL     OW 1630   2.640   2.340   0.952  0.9863 -0.4053 -0.1403
  544SOL    HW1 1631   2.743   2.328   0.956  2.1336 -0.5931 -0.3668
  544SOL    HW2 1632   2.602   2.383   1.035 -1.6849  0.3393 -1.0525
  545SOL     OW 1633   0.829   1.503   0.323 -0.3913 -0.4754  0.0027
  545SOL    HW1 1634   0.929   1.531   0.307  1.4816  0.3250 -1.8536
  545SOL    HW2 1635   0.814   1.466   0.418 -0.5565 -2.9674  0.0071
  546SOL     OW 1636   2.286   0.440   1.762  0.1418 -0.3339 -0.1959
  546SOL    HW1 1637   2.308   0.371   1.832  0.0449  0.4736 -0.9471
  546SOL    HW2 1638   2.368   0.496   1.744 -1.4861  0.1920  1.0223
  547SOL     OW 1639   0.301   0.162   2.356  0.2774 -0.1170  0.1015
  547SOL    HW1 1640   0.261   0.083   2.311 -0.1569  2.2539 -1.6851
  547SOL    HW2 1641   0.267   0.243   2.303 -1.4464  0.3942  1.0585
  548SOL     OW 1642   2.100   1.741   2.295 -0.2815  0.3390 -0.0305
  548SOL    HW1 1643   2.089   1.636   2.278  1.4330 -4.0361 -1.3528
  548SOL    HW2 1644   2.038   1.776   2.367  0.1776  1.0310 -0.3053
  549SOL     OW 1645   0.010   0.859   0.755  0.4907  0.0650  0.4507
  549SOL    HW1 1646   0.032   0.778   0.695  0.4589 -1.9555 -0.4726
  549SOL    HW2 1647   0.078   0.861   0.828 -2.2340 -2.0636 -1.6172
  550SOL     OW 1648   1.660   1.411   0.590 -0.0002  0.5491 -0.5488
  550SOL    HW1 1649   1.605   1.328   0.602  1.1491  1.0298 -0.3517
  550SOL    HW2 1650   1.715   1.400   0.505 -0.0305 -1.5117  1.5743
  551SOL     OW 1651   0.864   0.094   1.237  1.0293  0.1451  0.0182
  551SOL    HW1 1652   0.842   0.105   1.136  1.0555  2.2062  0.7027
  551SOL    HW2 1653   0.933   0.020   1.258  0.0573 -0.8667  1.5773
  552SOL     OW 1654   2.170   2.369   2.041  0.0363  0.0580  0.2946
  552SOL    HW1 1655   2.136   2.468   2.029  2.4164  1.8456 -1.1470
  552SOL    HW2 1656   2.240   2.367   2.115 -0.2776  2.8798 -1.8306
  553SOL     OW 1657   3.076   0.037   0.034  0.5797 -0.4873  0.3344
  553SOL    HW1 1658   0.081   0.012   0.098  0.1009 -0.2097  4.5196
  553SOL    HW2 1659   0.010   0.006   3.017  2.5987  0.9390  1.5082
  554SOL     OW 1660   1.304   2.715   1.498 -0.1226 -0.4950 -0.1261
  554SOL    HW1 1661   1.283   2.617   1.500  2.0103  1.1319 -1.2764
  554SOL    HW2 1662   1.225   2.769   1.539 -1.7151  2.5193  0.4286
  555SOL     OW 1663   2.233   2.666   1.612 -0.2967  0.3360 -0.1501
  555SOL    HW1 1664   2.159   2.643   1.676  2.4004  0.4703  1.2683
  555SOL    HW2 1665   2.315   2.696   1.660 -0.2079 -0.9345 -1.1371
  556SOL     OW 1666   1.074   2.937   2.850  0.4872  0.2423  0.1798
  556SOL    HW1 1667   1.088   2.844   2.808 -1.4088 -2.2786  1.2199
  556SOL    HW2 1668   1.005   2.933   2.922  0.6285 -1.0983 -3.4685
  557SOL     OW 1669   0.147   2.031   2.374 -0.0589  0.4195 -0.2599
  557SOL    HW1 1670   0.209   1.985   2.309 -3.4970  1.8447  1.4112
  557SOL    HW2 1671   0.057   2.042   2.325 -0.1210 -1.1184 -0.1432
  558SOL     OW 1672   2.377   1.131   2.582  0.2095  0.2455  0.0150
  558SOL    HW1 1673   2.443   1.096   2.649  2.9873 -1.2185  0.7589
  558SOL    HW2 1674   2.388   1.235   2.580 -0.2250  0.1192  1.5040
  559SOL     OW 1675   2.338   2.345   2.263  0.3205  0.3645  0.7872
  559SOL    HW1 1676   2.442   2.337   2.253  2.7232 -2.1646 -0.4954
  559SOL    HW2 1677   2.302   2.256   2.294  1.8953  1.0041 -2.0143
  560SOL     OW 1678   0.191   0.415   2.252 -0.2690 -0.2284  0.2428
  560SOL    HW1 1679   0.184   0.489   2.177 -0.0671  1.6649 -0.9028
  560SOL    HW2 1680   0.192   0.460   2.343 -2.4229  1.1564 -1.9998
  561SOL     OW 1681   0.698   0.527   0.439 -0.1223 -0.2219 -0.1690
  561SOL    HW1 1682   0.703   0.455   0.366 -1.0767  1.9419 -0.5475
  561SOL    HW2 1683   0.602   0.538   0.480 -1.3609 -3.5671  1.2250
  562SOL     OW 1684   0.755   1.471   1.603 -0.2875 -0.4410  0.1152
  562SOL    HW1 1685   0.750   1.571   1.591 -1.0224  0.2227 -2.9874
  562SOL    HW2 1686   0.693   1.428   1.669 -0.3918 -1.9231 -3.6370
  563SOL     OW 1687   1.549   2.725   0.189 -0.1175  0.2607 -0.2852
  563SOL    HW1 1688   1.505   2.732   0.279  4.2198  0.5975  1.7712
  563SOL    HW2 1689   1.604   2.809   0.167  1.9886  2.2853  0.6702
  564SOL     OW 1690   0.089   2.039   0.599  0.1048  0.2077 -0.0175
  564SOL    HW1 1691   0.161   2.018   0.527  1.9138  0.4266  0.7376
  564SOL    HW2 1692   0.100   1.992   0.691  0.5642 -0.3965 -0.4776
  565SOL     OW 1693   0.542   2.377   2.437 -0.1782 -0.4576 -0.6966
  565SOL    HW1 1694   0.578   2.464   2.402 -2.5698 -3.5740 -0.5328
  565SOL    HW2 1695   0.440   2.365   2.430 -0.6650 -0.6608 -0.1650
  566SOL     OW 1696   1.428   2.626   2.372 -0.3355 -0.0228  0.5985
  566SOL    HW1 1697   1.491   2.600   2.449 -1.0498 -0.3853  2.5350
  566SOL    HW2 1698   1.438   2.568   2.288  1.2877  2.3122  1.3637
  567SOL     OW 1699   1.888   2.009   1.022  0.9150  0.4559  0.0852
  567SOL    HW1 1700   1.789   2.034   1.029 -1.9446  0.8463 -0.5671
  567SOL    HW2 1701   1.905   1.925   0.971 -1.2648  1.6388  0.9748
  568SOL     OW 1702   2.079   0.569   0.228  0.8092 -0.2034  0.3612
  568SOL    HW1 1703   2.103   0.480   0.196 -1.3424  3.8442 -1.6364
  568SOL    HW2 1704   2.013   0.616   0.167  4.0606 -0.7349  2.2808
  569SOL     OW 1705   2.679   1.349   2.360 -0.2757 -0.1128  0.0751
  569SOL    HW1 1706   2.760   1.398   2.400 -1.0205  0.6095  0.2137
  569SOL    HW2 1707   2.667   1.271   2.423  0.7753  0.6077 -1.6547
  570SOL     OW 1708   2.806   2.688   1.475  0.6769  0.5815 -0.4858
  570SOL    HW1 1709   2.729   2.752   1.510 -1.2782  0.5779  3.0735
  570SOL    HW2 1710   2.810   2.606   1.534 -0.7838 -0.1399 -2.2511
  571SOL     OW 1711   0.193   0.454   1.741 -0.0557  1.0035  0.0693
  571SOL    HW1 1712   0.147   0.409   1.664 -3.3664 -0.9067  1.3756
  571SOL    HW2 1713   0.270   0.394   1.772  1.1427 -1.3590  1.9578
  572SOL     OW 1714   2.904   2.306   1.006 -0.0877  0.1940  0.4074
  572SOL    HW1 1715   2.989   2.350   0.974 -1.0446  1.5781 -1.2302
  572SOL    HW2 1716   2.931   2.229   1.068 -2.1874 -1.2233  3.1719
  573SOL     OW 1717   0.878   0.816   0.039  0.1524  0.7073 -0.3532
  573SOL    HW1 1718   0.886   0.913   0.066 -0.3980  0.4300  1.7024
  573SOL    HW2 1719   0.779   0.790   0.024  1.5101  2.5093  0.3269
  574SOL     OW 1720   2.617   2.538   3.039 -0.3254 -0.6858 -0.5689
  574SOL    HW1 1721   2.689   2.605   3.055 -1.5174 -2.1155  0.9643
  574SOL    HW2 1722   2.589   2.501   0.054  0.2178 -0.1577 -1.3820
  575SOL     OW 1723   1.047   1.781   1.397  0.4673 -0.2531  0.2233
  575SOL    HW1 1724   1.041   1.774   1.292  0.1605 -0.8759 -1.1954
  575SOL    HW2 1725   1.090   1.866   1.434 -1.3146  0.3794 -2.4878
  576SOL     OW 1726   2.806   2.970   1.398  0.2065 -0.4869  0.3274
  576SOL    HW1 1727   2.773   3.019   1.479  1.4868  0.2974 -1.4697
  576SOL    HW2 1728   2.796   2.872   1.419 -0.2952  1.9929 -1.1829
  577SOL     OW 1729   2.082   1.289   1.621 -0.1818 -0.1985 -0.2072
  577SOL    HW1 1730   2.146   1.350   1.673 -0.2491 -0.8864 -0.9241
  577SOL    HW2 1731   2.000   1.348   1.598 -2.0410  0.0185 -0.5110
  578SOL     OW 1732   1.430   0.081   3.072 -0.0064 -0.0575  0.1048
  578SOL    HW1 1733   1.482   3.075   3.037  1.3498 -3.6429 -0.4794
  578SOL    HW2 1734   1.343   0.094   3.020 -0.7937  0.2485 -2.4539
  579SOL     OW 1735   2.628   1.746   2.263  0.2196 -0.2114 -0.0264
  579SOL    HW1 1736   2.593   1.657   2.238  0.4969 -0.1063 -0.7405
  579SOL    HW2 1737   2.730   1.743   2.256  2.0157  0.5154  0.1525
  580SOL     OW 1738   1.327   0.887   1.449 -0.1376  0.1082 -0.3225
  580SOL    HW1 1739   1.305   0.898   1.546 -2.3721 -1.1204 -3.6170
  580SOL    HW2 1740   1.337   0.786   1.431  3.3503  3.6497 -2.4562
  581SOL     OW 1741   0.694   1.745   1.580 -0.2383 -0.2895  0.0215
  581SOL    HW1 1742   0.653   1.780   1.488 -2.7524  1.5250  2.2135
  581SOL    HW2 1743   0.759   1.818   1.613 -2.8608 -1.1730 -0.1661
  582SOL     OW 1744   2.758   2.768   2.000 -0.1854  0.8263 -0.3842
  582SOL    HW1 1745   2.845   2.807   1.971 -1.0344 -4.4081  3.4630
  582SOL    HW2 1746   2.682   2.824   1.978  2.3448 -1.3218  2.0223
  583SOL     OW 1747   2.111   1.056   1.495  0.3952 -0.2127 -0.1514
  583SOL    HW1 1748   2.178   0.985   1.535  1.2743 -0.9646 -0.8730
  583SOL    HW2 1749   2.106   1.148   1.544  0.0258 -1.0539 -0.2964
  584SOL     OW 1750   1.275   2.002   3.022  0.5123  0.3985 -0.8527
  584SOL    HW1 1751   1.331   1.971   2.938  1.8407  0.9221 -0.3875
  584SOL    HW2 1752   1.190   2.049   2.993  0.9830  0.8667 -0.7229
  585SOL     OW 1753   0.295   2.801   0.477 -0.1567 -0.1210 -0.6059
  585SOL    HW1 1754   0.212   2.777   0.532 -1.0465  0.6224 -1.3818
  585SOL    HW2 1755   0.291   2.760   0.383 -0.8262  2.6182  0.7457
  586SOL     OW 1756   1.867   2.398   2.749 -0.2075  0.6470  0.0524
  586SOL    HW1 1757   1.931   2.336   2.796  0.2505  3.0953  1.6478
  586SOL    HW2 1758   1.861   2.372   2.652 -0.4795  0.8974  1.2043
  587SOL     OW 1759   2.723   1.803   0.373  0.3534 -0.0135 -0.5049
  587SOL    HW1 1760   2.755   1.891   0.323  1.5967  1.4523 -2.6626
  587SOL    HW2 1761   2.623   1.817   0.398 -0.8734 -0.5658  0.5365
  588SOL     OW 1762   1.892   0.356   1.182  0.1571  0.0037 -0.6052
  588SOL    HW1 1763   1.942   0.308   1.108  0.4805 -2.8478 -2.3714
  588SOL    HW2 1764   1.945   0.438   1.220 -0.0593  0.7481 -1.2834
  589SOL     OW 1765   0.922   0.583   0.577 -0.4340 -0.5735 -0.4628
  589SOL    HW1 1766   0.932   0.684   0.578  0.2929  0.6900  2.9865
  589SOL    HW2 1767   0.839   0.547   0.528 -0.1189 -1.8204  1.6869
  590SOL     OW 1768   2.395   2.253   2.977  0.0711 -0.5093 -0.0193
  590SOL    HW1 1769   2.445   2.214   2.897 -1.1601 -2.1653  0.1768
  590SOL    HW2 1770   2.450   2.237   3.061 -0.5726  1.6198  1.5468
  591SOL     OW 1771   0.144   2.561   1.384  0.4532  0.1359 -0.1048
  591SOL    HW1 1772   0.098   2.497   1.320  2.7949 -0.0852  1.1002
  591SOL    HW2 1773   0.143   2.524   1.479  1.5153  1.2505 -1.4111
  592SOL     OW 1774   0.766   0.963   1.301  0.2341 -0.3174 -0.1328
  592SOL    HW1 1775   0.713   1.026   1.368  0.8910  0.9902 -1.1573
  592SOL    HW2 1776   0.864   0.991   1.293  0.4886  0.5946 -0.6334
  593SOL     OW 1777   0.837   1.616   1.173  0.1573  0.0347 -0.1930
  593SOL    HW1 1778   0.932   1.659   1.165  0.7689  1.4380  1.1199
  593SOL    HW2 1779   0.784   1.667   1.248 -0.3969  2.8348  4.2485
  594SOL     OW 1780   0.520   1.785   2.726  0.1126 -0.2844 -0.5683
  594SOL    HW1 1781   0.503   1.782   2.628  1.3962 -1.4940  2.3617
  594SOL    HW2 1782   0.453   1.846   2.766  1.0265 -2.8325 -0.5955
  595SOL     OW 1783   1.200   0.208   1.254 -0.0524  0.0488 -0.4640
  595SOL    HW1 1784   1.185   0.258   1.164 -0.6333  2.4553 -0.2761
  595SOL    HW2 1785   1.126   0.238   1.318 -0.3216  1.1386 -0.8277
  596SOL     OW 1786   0.195   1.357   0.667 -0.2124 -0.7078  0.4415
  596SOL    HW1 1787   0.140   1.306   0.734  3.0093  0.9584  0.9941
  596SOL    HW2 1788   0.231   1.306   0.590 -2.9406  2.3974  0.6632
  597SOL     OW 1789   0.250   2.337   2.988 -1.1530  0.3915 -0.7579
  597SOL    HW1 1790   0.157   2.305   2.969 -0.5457 -0.2092 -0.8872
  597SOL    HW2 1791   0.309   2.272   3.048  1.2323 -0.4284  0.4012
  598SOL     OW 1792   2.188   1.951   1.930  0.9299  0.0696  0.1676
  598SOL    HW1 1793   2.225   1.962   2.025  2.5347 -2.9299  2.9826
  598SOL    HW2 1794   2.253   1.903   1.867 -0.3589  0.0350  1.1963
  599SOL     OW 1795   1.021   0.476   0.349 -0.3963 -0.0459 -0.0173
  599SOL    HW1 1796   1.045   0.531   0.269  1.8225  0.6181  1.4184
  599SOL    HW2 1797   0.992   0.533   0.425  1.8624  0.3311 -3.5470
  600SOL     OW 1798   0.534   2.816   0.593 -0.2447  0.0191  0.6343
  600SOL    HW1 1799   0.442   2.799   0.548 -2.1302  2.0117 -0.5435
  600SOL    HW2 1800   0.600   2.741   0.565  1.0842 -0.8865 -0.8459
  601SOL     OW 1801   0.419   0.908   1.198  0.0319  0.1404 -0.1856
  601SOL    HW1 1802   0.508   0.930   1.156 -3.2632  0.7805  0.4171
  601SOL    HW2 1803   0.382   0.820   1.162 -0.0276  1.3197 -1.6693
  602SOL     OW 1804   0.564   2.680   0.906 -0.0545 -0.0133 -0.6359
  602SOL    HW1 1805   0.495   2.637   0.966 -0.0581 -0.9837 -2.1953
  602SOL    HW2 1806   0.539   2.679   0.812  1.7439  3.7542  3.6905
  603SOL     OW 1807   1.024   2.713   2.198 -0.4193 -0.1675 -0.3121
  603SOL    HW1 1808   0.923   2.705   2.190  1.1772 -0.2271  1.9051
  603SOL    HW2 1809   1.057   2.776   2.124  0.3508  2.1780  1.0509
  604SOL     OW 1810   0.872   2.740   2.569 -1.2923  0.1279  0.3173
  604SOL    HW1 1811   0.974   2.743   2.571 -0.8986  0.7461 -2.3757
  604SOL    HW2 1812   0.826   2.821   2.523 -0.6725 -1.0032  0.5093
  605SOL     OW 1813   1.525   0.740   2.076  0.2208  0.1126 -0.0224
  605SOL    HW1 1814   1.462   0.722   1.995  0.3628 -1.2700  0.9736
  605SOL    HW2 1815   1.613   0.694   2.060 -1.6974  1.9740  1.2165
  606SOL     OW 1816   2.064   0.241   2.729  0.0990 -0.0086  0.3737
  606SOL    HW1 1817   2.009   0.321   2.758 -1.6879  2.9876 -1.2652
  606SOL    HW2 1818   2.153   0.276   2.693  1.0407  0.3234  1.6388
  607SOL     OW 1819   0.782   0.615   1.126  0.0708  0.1125  0.5273
  607SOL    HW1 1820   0.769   0.681   1.050  2.0540 -1.2284  0.5210
  607SOL    HW2 1821   0.715   0.635   1.202 -0.0063 -0.0089  1.0134
  608SOL     OW 1822   3.026   2.151   2.212  0.3231 -0.4595 -0.1158
  608SOL    HW1 1823   3.040   2.242   2.164  1.1693  1.9019 -0.2912
  608SOL    HW2 1824   2.983   2.081   2.150 -0.2154 -1.7207 -1.0410
  609SOL     OW 1825   1.702   0.717   0.021  0.0379  0.5468 -0.2285
  609SOL    HW1 1826   1.719   0.679   0.115  0.7183 -0.8516 -0.7422
  609SOL    HW2 1827   1.637   0.794   0.026 -2.2623  0.7511 -2.8785
  610SOL     OW 1828   0.682   0.002   1.410  0.0500  0.2523  0.2018
  610SOL    HW1 1829   0.639   3.010   1.350 -0.4393 -2.5285  0.1907
  610SOL    HW2 1830   0.756   0.045   1.354  0.7172 -0.6521 -1.4586
  611SOL     OW 1831   1.531   0.617   0.343 -0.0017  0.1577  0.1521
  611SOL    HW1 1832   1.551   0.568   0.433  0.1849  0.6936  2.5014
  611SOL    HW2 1833   1.456   0.568   0.296  0.5454 -0.2595  0.9656
  612SOL     OW 1834   1.744   0.683   2.810 -0.4649 -0.0794  0.0875
  612SOL    HW1 1835   1.689   0.667   2.726 -2.0433 -0.0604 -0.5346
  612SOL    HW2 1836   1.687   0.659   2.893  1.8845  0.4319  1.6522
  613SOL     OW 1837   2.419   0.762   0.645 -0.3308 -0.1557  0.4348
  613SOL    HW1 1838   2.325   0.737   0.606  1.1042 -3.1053  1.8585
  613SOL    HW2 1839   2.496   0.693   0.610  0.3349 -1.6520  1.1012
  614SOL     OW 1840   2.529   0.064   2.108 -0.3726  0.4270  0.2811
  614SOL    HW1 1841   2.561   0.110   2.024  2.8155 -1.3060  2.1091
  614SOL    HW2 1842   2.607   0.080   2.169 -1.3793  0.9006 -0.6827
  615SOL     OW 1843   0.702   1.922   1.119 -0.2244  0.5158 -0.0069
  615SOL    HW1 1844   0.730   1.925   1.216  1.0399 -1.2371 -0.6948
  615SOL    HW2 1845   0.619   1.973   1.102  0.0636 -0.7355 -3.2644
  616SOL     OW 1846   1.561   1.386   2.639  0.3592  0.0280  0.4004
  616SOL    HW1 1847   1.528   1.474   2.598 -0.5433  0.1549  1.5414
  616SOL    HW2 1848   1.662   1.375   2.620 -0.8414 -2.1406 -5.6444
  617SOL     OW 1849   1.702   2.944   0.154  0.1175 -0.7038 -0.7776
  617SOL    HW1 1850   1.709   2.932   0.259  1.6923 -2.9015  0.1212
  617SOL    HW2 1851   1.780   2.992   0.109 -0.9605  1.1881  0.3701
  618SOL     OW 1852   1.279   1.803   2.560  0.3824 -0.0940  0.3001
  618SOL    HW1 1853   1.355   1.746   2.519 -1.2709  1.0516  0.2337
  618SOL    HW2 1854   1.206   1.795   2.494  0.5900 -3.0450  2.3198
  619SOL     OW 1855   2.683   1.144   0.761  0.2375  0.2923  0.4516
  619SOL    HW1 1856   2.685   1.219   0.689  0.5289  1.0014 -0.3295
  619SOL    HW2 1857   2.729   1.069   0.718 -0.3776  1.2467  1.1963
  620SOL     OW 1858   2.127   2.928   2.321 -0.3736  0.1525  0.4022
  620SOL    HW1 1859   2.068   2.857   2.283  1.8817 -0.8429 -1.6612
  620SOL    HW2 1860   2.083   2.984   2.392  0.9663  1.9593 -2.3899
  621SOL     OW 1861   2.935   1.434   0.441 -0.1054 -0.0853  0.2458
  621SOL    HW1 1862   2.975   1.365   0.375  0.6327 -0.0361  0.5514
  621SOL    HW2 1863   3.014   1.489   0.471  2.4979 -0.2299 -1.7667
  622SOL     OW 1864   1.188   2.184   2.638 -0.3159 -0.0126  0.4673
  622SOL    HW1 1865   1.092   2.171   2.607 -0.3509  1.7216 -2.2221
  622SOL    HW2 1866   1.259   2.163   2.565  1.1427 -2.2418 -3.9579
  623SOL     OW 1867   0.459   2.482   2.845  0.5805 -0.4822 -0.1785
  623SOL    HW1 1868   0.557   2.478   2.815  0.3133 -0.8813  0.0748
  623SOL    HW2 1869   0.444   2.411   2.917  0.7002  0.4781  2.6679
  624SOL     OW 1870   0.754   2.726   2.833 -0.2684  0.3043  0.0936
  624SOL    HW1 1871   0.797   2.726   2.739 -1.5371 -2.5619 -1.7125
  624SOL    HW2 1872   0.664   2.769   2.833  2.3253 -0.8942 -0.6376
  625SOL     OW 1873   0.930   2.199   2.611  0.0519  0.1361  0.3583
  625SOL    HW1 1874   0.888   2.256   2.685  0.3275 -0.2704  0.2804
  625SOL    HW2 1875   0.866   2.178   2.536  0.7835  1.3518  1.4143
  626SOL     OW 1876   3.047   0.407   0.123  0.4226  0.6258 -0.2771
  626SOL    HW1 1877   2.966   0.345   0.107 -2.7001  1.7472  0.0086
  626SOL    HW2 1878   3.054   0.474   0.048 -1.4153 -3.0659 -2.4083
  627SOL     OW 1879   1.961   1.617   3.015  0.8580  0.2948  0.1382
  627SOL    HW1 1880   1.943   1.592   2.918 -2.2348 -0.0132  2.2160
  627SOL    HW2 1881   1.992   1.530   3.063  0.3341  0.8684  1.1630
  628SOL     OW 1882   1.386   1.267   2.837  0.2804  0.0894  0.3940
  628SOL    HW1 1883   1.423   1.171   2.843  1.8307 -0.8119 -0.7554
  628SOL    HW2 1884   1.437   1.326   2.768  0.2497  2.5048  0.3826
  629SOL     OW 1885   0.389   3.008   2.097 -0.3280 -0.4056  0.7074
  629SOL    HW1 1886   0.418   2.958   2.013 -0.6276  0.4284  0.3963
  629SOL    HW2 1887   0.474   3.053   2.133  2.6781  1.1606  2.7059
  630SOL     OW 1888   2.352   0.854   1.930  0.7369 -0.3122  0.1086
  630SOL    HW1 1889   2.379   0.922   2.000 -0.6075 -2.8737  0.4374
  630SOL    HW2 1890   2.257   0.817   1.952  1.2139 -0.6079 -0.2107
  631SOL     OW 1891   1.613   0.065   0.792  0.2851 -0.1772 -0.0628
  631SOL    HW1 1892   1.542   0.053   0.864  2.0746  0.6138  2.5102
  631SOL    HW2 1893   1.582   0.038   0.699  0.6564  0.2973  0.7919
  632SOL     OW 1894   0.024   0.910   1.648 -0.0049  0.3051 -0.2251
  632SOL    HW1 1895   3.040   0.953   1.577 -0.7768 -1.2236  0.3530
  632SOL    HW2 1896   0.018   0.806   1.629  0.3416 -2.1067 -1.9141
  633SOL     OW 1897   0.895   0.371   3.061 -0.0140 -0.0987 -0.2311
  633SOL    HW1 1898   0.878   0.279   0.026  1.9809 -1.1986 -0.0763
  633SOL    HW2 1899   0.854   0.386   2.967 -0.0569 -0.4891  0.7070
  634SOL     OW 1900   0.490   2.475   0.112  0.1200 -0.2259 -0.3628
  634SOL    HW1 1901   0.450   2.540   0.048 -0.7177  2.0539 -0.3040
  634SOL    HW2 1902   0.581   2.451   0.077 -2.1769  0.8003  2.2653
  635SOL     OW 1903   0.021   1.059   1.066  0.1365 -0.4639  0.3908
  635SOL    HW1 1904   3.036   1.102   0.997  0.8019 -0.5322 -0.5605
  635SOL    HW2 1905   0.091   1.008   1.012 -1.6096  2.4351 -1.0223
  636SOL     OW 1906   0.197   1.471   0.222 -0.1842 -0.2965 -0.4080
  636SOL    HW1 1907   0.261   1.416   0.173 -2.4350  0.1758  1.1227
  636SOL    HW2 1908   0.180   1.433   0.316 -3.0850  0.4075  0.3116
  637SOL     OW 1909   2.961   2.687   0.376 -0.1930 -0.4312 -0.2993
  637SOL    HW1 1910   2.978   2.722   0.282  0.2031 -0.3355 -2.1907
  637SOL    HW2 1911   2.923   2.760   0.434 -0.4368 -2.2884 -5.0404
  638SOL     OW 1912   2.745   2.321   0.576 -0.3742  0.2417  0.3432
  638SOL    HW1 1913   2.739   2.399   0.639 -0.3727  1.6780 -0.5538
  638SOL    HW2 1914   2.650   2.288   0.553  2.3901  2.0983 -0.6706
  639SOL     OW 1915   1.506   0.899   0.102  0.0234 -0.3787 -0.3479
  639SOL    HW1 1916   1.419   0.847   0.093  2.2101 -0.3758 -2.3549
  639SOL    HW2 1917   1.541   0.895   0.201  2.0144  1.7091  1.4899
  640SOL     OW 1918   1.685   2.331   1.635 -0.2195 -0.1299 -0.0514
  640SOL    HW1 1919   1.732   2.422   1.651  1.0809 -0.7193  1.4592
  640SOL    HW2 1920   1.599   2.343   1.581 -0.5456  1.4367  1.9713
  641SOL     OW 1921   0.038   3.061   0.775  0.1890  0.7018 -0.5106
  641SOL    HW1 1922   0.021   0.073   0.732  0.6854 -4.1792  3.1004
  641SOL    HW2 1923   3.052   3.058   0.862  0.2936  1.5125  2.5730
  642SOL     OW 1924   1.245   0.881   1.713  0.2670 -0.4273  0.7063
  642SOL    HW1 1925   1.303   0.805   1.735  0.4448  0.4821  0.0030
  642SOL    HW2 1926   1.278   0.960   1.769  1.8735 -2.5606 -2.1445
  643SOL     OW 1927   0.916   2.464   2.711 -0.4139 -0.1325 -0.4889
  643SOL    HW1 1928   1.017   2.454   2.715 -0.1351 -0.2596  0.3833
  643SOL    HW2 1929   0.891   2.560   2.700  0.5121 -0.2377  2.6462
  644SOL     OW 1930   1.296   2.370   3.023 -0.0426  0.3169 -0.1207
  644SOL    HW1 1931   1.302   2.469   3.002 -2.2715  2.1107 -1.1710
  644SOL    HW2 1932   1.389   2.329   3.020 -0.6946 -0.3818  5.0532
  645SOL     OW 1933   1.546   1.423   1.887 -0.3813  0.0372  0.0154
  645SOL    HW1 1934   1.612   1.354   1.925 -3.6782  0.7089  0.2196
  645SOL    HW2 1935   1.521   1.391   1.792  0.0177 -1.0235  0.9180
  646SOL     OW 1936   0.618   0.126   0.102 -0.3897 -0.9749 -0.1470
  646SOL    HW1 1937   0.554   0.121   0.178 -1.1049  1.4586 -1.7899
  646SOL    HW2 1938   0.576   0.156   0.011  0.4197 -1.0516 -2.1319
  647SOL     OW 1939   0.991   0.159   0.687 -0.3016  0.5457  0.2338
  647SOL    HW1 1940   0.989   0.080   0.621  0.3962 -1.6010 -1.0229
  647SOL    HW2 1941   0.991   0.124   0.783  0.7647 -1.2947 -0.7402
  648SOL     OW 1942   2.297   2.636   1.172 -0.0664 -0.3941 -0.0282
  648SOL    HW1 1943   2.293   2.738   1.178 -0.5554  1.5377 -3.1640
  648SOL    HW2 1944   2.266   2.601   1.081  0.2576 -0.4568  0.7964
  649SOL     OW 1945   0.739   2.001   2.850  0.4542 -0.2959  0.2330
  649SOL    HW1 1946   0.809   2.041   2.912  0.8774  2.0284 -0.8583
  649SOL    HW2 1947   0.723   1.898   2.854 -1.4594 -3.3082 -2.2795
  650SOL     OW 1948   2.118   1.607   1.904  0.2766 -0.3301  0.4423
  650SOL    HW1 1949   2.051   1.613   1.980  1.1155 -1.2130  1.9248
  650SOL    HW2 1950   2.154   1.701   1.880  2.4611  3.4688  0.7337
  651SOL     OW 1951   0.031   2.858   2.424 -0.2816 -0.0842 -0.3026
  651SOL    HW1 1952   0.110   2.921   2.419  0.5141  0.1758 -1.8994
  651SOL    HW2 1953   3.024   2.900   2.461  2.9074 -1.5016  2.1953
  652SOL     OW 1954   2.793   1.811   0.635  0.2126  0.3284 -0.8139
  652SOL    HW1 1955   2.708   1.845   0.679 -1.5637 -1.6075 -1.1845
  652SOL    HW2 1956   2.791   1.821   0.532 -0.6935  1.0730 -0.3363
  653SOL     OW 1957   2.652   0.669   1.389  0.4993 -0.2045  0.6680
  653SOL    HW1 1958   2.551   0.692   1.385 -1.2712 -1.7940  1.2496
  653SOL    HW2 1959   2.682   0.663   1.292 -0.2647  2.4975 -0.1950
  654SOL     OW 1960   0.886   0.138   0.128  0.2424 -0.7803 -0.2124
  654SOL    HW1 1961   0.927   0.054   0.088  0.3401  5.1746 -2.0943
  654SOL    HW2 1962   0.788   0.120   0.138 -3.4874 -0.6903 -2.4357
  655SOL     OW 1963   0.568   2.891   1.256 -0.0020  0.1984  0.1913
  655SOL    HW1 1964   0.529   2.920   1.170  1.3557 -3.5235  0.8816
  655SOL    HW2 1965   0.641   2.824   1.244 -0.5217 -0.3739  0.0366
  656SOL     OW 1966   0.196   2.774   2.062  0.2177 -0.3529  0.3597
  656SOL    HW1 1967   0.273   2.725   2.021  2.4349 -1.7370  2.7250
  656SOL    HW2 1968   0.217   2.870   2.065 -1.8388 -2.3916 -0.0773
  657SOL     OW 1969   2.360   0.620   3.052  0.5644  0.4783  0.5299
  657SOL    HW1 1970   2.330   0.643   0.071  1.7740  0.6874 -0.8759
  657SOL    HW2 1971   2.441   0.677   3.033 -1.3332 -4.6453  2.0963
  658SOL     OW 1972   2.054   1.511   1.184  0.0681  0.1582 -0.3389
  658SOL    HW1 1973   2.144   1.470   1.157 -0.9380 -1.3340 -1.0442
  658SOL    HW2 1974   2.069   1.591   1.246  0.5997  1.9389  0.2996
  659SOL     OW 1975   2.605   2.290   2.631  0.3200 -0.3927  0.2198
  659SOL    HW1 1976   2.625   2.311   2.730  0.8917  0.1732 -0.0419
  659SOL    HW2 1977   2.678   2.319   2.565  1.8619  3.7150 -1.7235
  660SOL     OW 1978   1.137   0.178   0.200  0.1590  0.1894 -0.2815
  660SOL    HW1 1979   1.170   0.249   0.136  1.5590 -0.9506 -0.2364
  660SOL    HW2 1980   1.038   0.162   0.186  0.4249  0.9430 -2.7971
  661SOL     OW 1981   2.433   0.040   0.433 -0.0947  0.5811 -0.4668
  661SOL    HW1 1982   2.343   0.085   0.428 -0.1538 -2.4135 -0.9404
  661SOL    HW2 1983   2.483   0.038   0.344 -0.6618  0.9245 -0.1003
  662SOL     OW 1984   0.636   0.319   1.180  0.2756 -0.0912 -0.5297
  662SOL    HW1 1985   0.695   0.275   1.112  1.2064  0.9311 -4.0014
  662SOL    HW2 1986   0.568   0.253   1.223 -0.4011 -0.8310  0.4656
  663SOL     OW 1987   1.489   2.877   2.351  0.4135 -0.7951 -0.2958
  663SOL    HW1 1988   1.463   2.783   2.320 -0.3800  0.3058 -0.3139
  663SOL    HW2 1989   1.589   2.882   2.377 -0.6079  3.5611 -2.0349
  664SOL     OW 1990   0.805   2.310   1.458  0.3207 -0.4291 -0.0923
  664SOL    HW1 1991   0.717   2.321   1.504  0.2239 -0.1772  0.8036
  664SOL    HW2 1992   0.822   2.396   1.407  0.7917  0.4674  2.4049
  665SOL     OW 1993   0.709   2.473   1.994 -0.1258 -0.2533  0.5641
  665SOL    HW1 1994   0.685   2.382   1.954  0.1145  1.6976 -0.5986
  665SOL    HW2 1995   0.762   2.528   1.923 -0.3939 -2.4498  0.5819
  666SOL     OW 1996   0.172   2.799   2.735 -0.1276 -0.5060  0.1637
  666SOL    HW1 1997   0.154   2.866   2.656 -1.1258 -0.1699  0.7410
  666SOL    HW2 1998   0.271   2.777   2.742 -0.6275  1.4816  1.1528
  667SOL     OW 1999   1.477   1.599   1.542  0.3112  0.2761 -0.2061
  667SOL    HW1 2000   1.376   1.608   1.521  0.0308 -0.2710 -0.4844
  667SOL    HW2 2001   1.541   1.617   1.464  1.1808  1.0242 -0.0599
  668SOL     OW 2002   1.245   0.461   1.933  0.0378  0.4390  0.0834
  668SOL    HW1 2003   1.243   0.374   1.879  0.2406 -1.3417 -2.0292
  668SOL    HW2 2004   1.148   0.480   1.964 -3.1956 -0.9126 -0.1888
  669SOL     OW 2005   2.512   2.389   1.203 -0.3657 -0.6370 -0.2451
  669SOL    HW1 2006   2.417   2.354   1.200  1.2486  2.0252  1.2106
  669SOL    HW2 2007   2.523   2.466   1.266  2.2810 -4.9025  0.2261
  670SOL     OW 2008   1.565   2.234   3.056 -0.3054 -0.0233 -0.1207
  670SOL    HW1 2009   1.548   2.140   0.016 -1.4422  1.1682 -0.3980
  670SOL    HW2 2010   1.605   2.300   0.050  0.9558 -1.2050 -0.1097
  671SOL     OW 2011   1.302   1.073   0.679 -0.1761  0.4366  0.3520
  671SOL    HW1 2012   1.322   1.059   0.775 -0.1738 -0.1471 -1.5834
  671SOL    HW2 2013   1.254   0.995   0.630 -0.9402 -1.1744 -1.1533
  672SOL     OW 2014   3.032   1.214   2.752 -0.7062 -0.1871  0.1523
  672SOL    HW1 2015   3.030   1.301   2.805  3.1085  0.9417  0.9806
  672SOL    HW2 2016   0.051   1.182   2.749 -1.7548  2.5568 -2.9019
  673SOL     OW 2017   3.040   1.993   1.446  0.3777  0.1198 -0.0951
  673SOL    HW1 2018   2.997   1.988   1.540 -0.2797 -1.7727  0.3318
  673SOL    HW2 2019   0.063   2.005   1.467  0.5756 -0.8154  0.0862
  674SOL     OW 2020   0.395   2.620   2.258  0.1910  0.2549 -0.1560
  674SOL    HW1 2021   0.292   2.625   2.253  2.4347 -0.1709  0.4180
  674SOL    HW2 2022   0.430   2.566   2.181 -3.2536  1.4896 -1.5030
  675SOL     OW 2023   0.814   1.035   1.691 -0.1389  0.1825  0.5394
  675SOL    HW1 2024   0.754   1.059   1.608 -0.7384  0.0389 -1.8383
  675SOL    HW2 2025   0.753   1.039   1.773 -0.3947  0.1134 -0.3203
  676SOL     OW 2026   2.399   0.495   0.982  0.6239  0.6059 -0.5402
  676SOL    HW1 2027   2.436   0.585   0.950 -1.4505 -0.9128 -0.2618
  676SOL    HW2 2028   2.456   0.462   1.063  0.4861 -2.1854  1.3477
  677SOL     OW 2029   2.308   1.540   2.984  0.4035  0.2600  0.3116
  677SOL    HW1 2030   2.261   1.461   2.937  0.0274 -1.5704  0.7119
  677SOL    HW2 2031   2.408   1.531   2.982 -0.5622  2.6597 -0.0610
  678SOL     OW 2032   2.773   0.708   1.151 -0.0311 -0.0876 -0.1390
  678SOL    HW1 2033   2.832   0.636   1.099  3.7569  0.0795 -0.8105
  678SOL    HW2 2034   2.834   0.782   1.182 -1.0411 -0.5444  1.7668
  679SOL     OW 2035   2.433   0.325   0.223 -0.1161  0.4697 -0.1169
  679SOL    HW1 2036   2.440   0.425   0.245 -2.2744  2.2278  0.9278
  679SOL    HW2 2037   2.377   0.279   0.292  1.2837 -1.1528  1.6475
  680SOL     OW 2038   0.272   1.844   2.118 -0.2486 -0.7793  0.2395
  680SOL    HW1 2039   0.352   1.807   2.061 -0.2039 -1.7127 -1.2692
  680SOL    HW2 2040   0.262   1.796   2.208 -0.8728  0.6721  1.4801
  681SOL     OW 2041   2.310   2.079   1.152 -0.3017  0.0075  0.0516
  681SOL    HW1 2042   2.276   2.170   1.192 -1.2199  3.5270  1.0485
  681SOL    HW2 2043   2.304   2.068   1.051 -1.6173  0.0631  0.1717
  682SOL     OW 2044   2.987   1.874   2.540  0.3705  0.3894  0.1509
  682SOL    HW1 2045   3.023   1.810   2.465 -1.5550  1.0325 -0.8029
  682SOL    HW2 2046   3.059   1.894   2.612  0.0939 -0.2710  0.3907
  683SOL     OW 2047   0.065   2.248   1.575 -0.0660  0.0752  0.5187
  683SOL    HW1 2048   0.085   2.256   1.474 -1.0268  0.6467 -0.7211
  683SOL    HW2 2049   3.044   2.231   1.586  3.6105  0.4921 -1.6925
  684SOL     OW 2050   2.979   1.076   2.508  0.0889  0.3385  0.0570
  684SOL    HW1 2051   3.030   1.101   2.421  2.2634  0.8919 -2.0513
  684SOL    HW2 2052   3.006   1.143   2.586 -0.4817 -1.4759  0.9930
  685SOL     OW 2053   1.525   1.177   0.589 -0.1558 -0.1624 -0.2135
  685SOL    HW1 2054   1.437   1.140   0.629 -0.4207  1.1459 -3.9211
  685SOL    HW2 2055   1.609   1.118   0.614  0.8476 -2.1897  2.7334
  686SOL     OW 2056   0.465   0.226   0.672  0.4438  0.0183 -0.4114
  686SOL    HW1 2057   0.467   0.131   0.708  1.8765  1.5170  1.8359
  686SOL    HW2 2058   0.381   0.255   0.614 -0.5087  0.5965  0.8425
  687SOL     OW 2059   1.516   1.651   2.494 -0.4163  0.4441  0.4036
  687SOL    HW1 2060   1.606   1.667   2.540 -0.1041 -0.8691 -0.8482
  687SOL    HW2 2061   1.518   1.610   2.397  0.3519 -2.2327  0.3127
  688SOL     OW 2062   1.474   1.328   1.638  0.0890 -0.5734  0.1184
  688SOL    HW1 2063   1.465   1.423   1.598 -2.2994  0.8354 -0.6828
  688SOL    HW2 2064   1.378   1.294   1.650  1.4460 -1.0554  0.0549
  689SOL     OW 2065   2.259   0.304   1.200  0.2084 -0.1105 -0.5014
  689SOL    HW1 2066   2.220   0.207   1.190 -0.9138 -0.6810  0.6081
  689SOL    HW2 2067   2.360   0.304   1.180 -1.4782  2.4804  1.3669
  690SOL     OW 2068   0.259   1.346   1.135  0.2336 -0.3832  0.0086
  690SOL    HW1 2069   0.207   1.356   1.049  0.4959 -1.4724  2.0322
  690SOL    HW2 2070   0.259   1.248   1.167 -3.5833 -1.9340 -1.1313
  691SOL     OW 2071   0.298   2.104   1.363 -0.2512  0.0909 -0.6175
  691SOL    HW1 2072   0.225   2.172   1.351 -1.2161  0.8058  3.0810
  691SOL    HW2 2073   0.384   2.153   1.327 -1.5613  1.2056  0.0846
  692SOL     OW 2074   2.193   0.621   1.528  0.0916 -0.0608  0.0084
  692SOL    HW1 2075   2.199   0.551   1.455 -1.8976  2.1264  0.8998
  692SOL    HW2 2076   2.165   0.579   1.620  1.2834 -0.8831  1.6314
  693SOL     OW 2077   0.606   1.624   2.299  0.1935  0.6964  0.3100
  693SOL    HW1 2078   0.556   1.562   2.366 -3.5550 -0.4883 -0.1122
  693SOL    HW2 2079   0.663   1.569   2.237  0.0381 -2.1757  1.2577
  694SOL     OW 2080   1.512   1.233   1.261  0.2856 -1.2562  0.3745
  694SOL    HW1 2081   1.586   1.251   1.332  3.3268 -0.2321 -0.3040
  694SOL    HW2 2082   1.431   1.285   1.295  1.4471 -1.0884 -2.1304
  695SOL     OW 2083   0.940   1.426   0.765 -0.2961  0.2644  0.1249
  695SOL    HW1 2084   1.012   1.498   0.779 -0.4021 -3.0389 -0.0120
  695SOL    HW2 2085   0.876   1.463   0.701  3.3680 -2.0754  2.8527
  696SOL     OW 2086   0.819   2.851   0.219  0.2556 -0.2152  0.0477
  696SOL    HW1 2087   0.849   2.756   0.206 -1.2204 -0.4088  0.8601
  696SOL    HW2 2088   0.716   2.854   0.232 -0.4648 -2.4379 -0.3552
  697SOL     OW 2089   1.407   0.630   1.456 -0.3010 -1.2801  0.4760
  697SOL    HW1 2090   1.463   0.618   1.539 -1.0405  0.3788  1.9470
  697SOL    HW2 2091   1.331   0.560   1.454  1.2440 -2.1844  1.9270
  698SOL     OW 2092   1.620   1.691   2.132 -0.0548  0.5188 -0.3329
  698SOL    HW1 2093   1.715   1.682   2.088  1.8885  0.6154 -1.1629
  698SOL    HW2 2094   1.542   1.705   2.065 -1.4459  2.4930 -0.0972
  699SOL     OW 2095   2.521   0.595   1.781 -0.4411 -0.1920  0.0478
  699SOL    HW1 2096   2.519   0.685   1.733 -0.7345  2.7071  0.6119
  699SOL    HW2 2097   2.562   0.603   1.873 -1.1106 -0.4262 -1.9528
  700SOL     OW 2098   1.248   2.158   0.577  0.0817 -0.1911 -0.0657
  700SOL    HW1 2099   1.321   2.130   0.511  0.2747  2.1269  0.3590
  700SOL    HW2 2100   1.170   2.092   0.576  0.2300  1.6764  0.8574
  701SOL     OW 2101   2.384   2.874   2.313 -0.2301  0.1793 -0.2773
  701SOL    HW1 2102   2.413   2.775   2.304 -1.8183 -0.4495 -3.0930
  701SOL    HW2 2103   2.286   2.881   2.318  0.8791 -1.6883 -1.3757
  702SOL     OW 2104   0.980   3.005   0.493 -0.0546  0.1875 -0.0103
  702SOL    HW1 2105   0.890   3.005   0.540 -0.1966  1.7738  2.6272
  702SOL    HW2 2106   0.971   2.994   0.395 -1.4167  0.8730  5.3664
  703SOL     OW 2107   2.259   3.060   2.113  0.3315 -0.8532  0.2091
  703SOL    HW1 2108   2.221   3.032   2.205 -0.0399  0.4092  1.9120
  703SOL    HW2 2109   2.359   0.012   2.117  0.1990  2.9954 -1.4561
  704SOL     OW 2110   2.532   2.225   0.157  0.1992 -0.0855 -0.4614
  704SOL    HW1 2111   2.473   2.173   0.222 -0.0576  0.1621 -0.4487
  704SOL    HW2 2112   2.529   2.327   0.175  0.1782 -1.6186 -0.2459
  705SOL     OW 2113   2.430   2.610   2.333  0.0173  0.3413 -0.2226
  705SOL    HW1 2114   2.493   2.598   2.413  1.8175  4.1974 -0.2316
  705SOL    HW2 2115   2.399   2.521   2.296  0.6500  0.1322  1.9654
  706SOL     OW 2116   2.519   0.172   1.163 -0.0835  0.0524 -0.1320
  706SOL    HW1 2117   2.596   0.237   1.162 -1.6053  0.1679  0.5137
  706SOL    HW2 2118   2.541   0.083   1.201 -1.7449  0.8225 -0.4369
  707SOL     OW 2119   0.813   0.272   2.400  0.1048  0.4529  0.1963
  707SOL    HW1 2120   0.857   0.188   2.442  2.2051 -3.6744 -2.5880
  707SOL    HW2 2121   0.711   0.275   2.418 -2.1362  1.6092  0.3891
  708SOL     OW 2122   0.055   2.192   1.828  0.4477 -0.6663  0.3323
  708SOL    HW1 2123   0.079   2.209   1.729 -1.2049  1.0059 -1.7391
  708SOL    HW2 2124   0.066   2.092   1.840  1.6953 -0.0427 -0.8383
  709SOL     OW 2125   1.334   0.092   1.572 -0.2803  0.0754 -0.6452
  709SOL    HW1 2126   1.367   0.154   1.497  0.8608  1.2132 -0.4133
  709SOL    HW2 2127   1.414   0.045   1.624  0.9960  0.2093  2.5374
  710SOL     OW 2128   1.421   2.779   2.813 -0.0434  0.5321  0.0898
  710SOL    HW1 2129   1.477   2.847   2.867 -1.5416 -0.0068  1.0561
  710SOL    HW2 2130   1.379   2.811   2.725 -1.5814  0.0975  1.4972
  711SOL     OW 2131   1.113   2.187   2.892  0.2094 -0.0857 -0.0132
  711SOL    HW1 2132   1.158   2.269   2.931 -4.7892  1.0563 -0.8569
  711SOL    HW2 2133   1.135   2.180   2.795 -2.3334  1.0786  0.8970
  712SOL     OW 2134   0.861   2.163   0.001  0.8773 -1.1203  0.0693
  712SOL    HW1 2135   0.941   2.177   3.015 -1.4596 -0.4162  2.7712
  712SOL    HW2 2136   0.892   2.099   0.079  1.0729 -2.8308  1.1065
  713SOL     OW 2137   2.034   1.103   1.990  0.1914  0.5694  0.0610
  713SOL    HW1 2138   2.107   1.172   1.994 -2.5004  1.8864 -1.2781
  713SOL    HW2 2139   2.072   1.007   1.999  1.5920 -1.3816 -0.8011
  714SOL     OW 2140   0.737   1.266   2.039  0.0192  0.2180 -0.5854
  714SOL    HW1 2141   0.679   1.259   1.953  0.5093  0.5223 -1.4641
  714SOL    HW2 2142   0.762   1.171   2.077 -0.7288 -2.5604 -1.9227
  715SOL     OW 2143   2.713   0.635   0.179  0.1932  0.3354 -0.2467
  715SOL    HW1 2144   2.747   0.547   0.220  0.8031 -0.6468  0.4035
  715SOL    HW2 2145   2.617   0.645   0.204 -1.0906  0.1891 -0.7409
  716SOL     OW 2146   2.791   2.440   1.603  0.5588 -0.0786 -0.0234
  716SOL    HW1 2147   2.692   2.428   1.586  1.8724  0.1965  0.0274
  716SOL    HW2 2148   2.808   2.466   1.702  2.7449  1.4224  2.5443
  717SOL     OW 2149   2.353   0.876   0.900 -0.7289  0.6844 -0.3721
  717SOL    HW1 2150   2.267   0.925   0.920  1.7525 -0.7608 -1.1386
  717SOL    HW2 2151   2.362   0.847   0.800 -0.1022  0.4999  1.0671
  718SOL     OW 2152   1.179   1.566   1.500  0.2946  0.3461  0.1598
  718SOL    HW1 2153   1.125   1.531   1.582 -2.7678  0.4499 -0.6167
  718SOL    HW2 2154   1.123   1.642   1.462  4.2556  0.2926  2.1884
  719SOL     OW 2155   3.023   0.103   2.659  0.2856  0.1571 -1.1370
  719SOL    HW1 2156   2.991   0.052   2.575 -0.1784  0.7689 -1.5056
  719SOL    HW2 2157   3.036   0.037   2.736 -1.5062 -1.0337 -0.2974
  720SOL     OW 2158   0.849   0.413   0.894 -0.4884  0.1482 -0.6593
  720SOL    HW1 2159   0.931   0.437   0.838  1.6492  0.8023  1.3602
  720SOL    HW2 2160   0.839   0.489   0.967  1.5109 -1.1812  1.3415
  721SOL     OW 2161   2.925   0.955   0.246  0.7622 -0.0880 -0.0772
  721SOL    HW1 2162   2.912   0.939   0.149  1.2886  1.6883 -0.1962
  721SOL    HW2 2163   2.863   1.029   0.274  3.0571 -2.6641 -1.8074
  722SOL     OW 2164   0.722   2.182   2.354 -0.1165 -0.0137  0.6063
  722SOL    HW1 2165   0.799   2.242   2.321  0.3614  1.8646 -0.1982
  722SOL    HW2 2166   0.651   2.246   2.397 -0.5358 -0.1069  1.9244
  723SOL     OW 2167   1.821   2.898   1.010  0.7013  0.6009  0.0435
  723SOL    HW1 2168   1.772   2.988   1.011 -1.6570  0.1023 -1.7736
  723SOL    HW2 2169   1.908   2.899   1.058 -3.9603  1.7663 -1.1186
  724SOL     OW 2170   1.462   1.958   1.752 -0.2574  0.2056 -0.3096
  724SOL    HW1 2171   1.422   2.028   1.810 -0.7185 -3.4846  0.5317
  724SOL    HW2 2172   1.481   1.873   1.804  0.0283  1.9908 -0.7069
  725SOL     OW 2173   1.082   2.445   1.238 -0.0846  0.3724  0.1549
  725SOL    HW1 2174   0.992   2.472   1.276 -1.6927  0.1282  1.8879
  725SOL    HW2 2175   1.098   2.501   1.154 -0.1481  1.9985  1.6502
  726SOL     OW 2176   1.958   2.803   0.219 -0.4717  0.4617 -0.7229
  726SOL    HW1 2177   1.903   2.778   0.139  0.2056 -1.3173  0.8483
  726SOL    HW2 2178   1.939   2.743   0.296  0.8194 -1.3365 -0.9490
  727SOL     OW 2179   1.546   1.731   1.116  0.3702  0.4232 -0.2808
  727SOL    HW1 2180   1.624   1.667   1.098  0.2134 -1.0998 -0.6126
  727SOL    HW2 2181   1.457   1.677   1.124 -0.8403 -0.4593 -0.5810
  728SOL     OW 2182   2.087   2.621   2.023  0.6197  0.4788 -0.3348
  728SOL    HW1 2183   2.038   2.630   2.111  0.7220  0.5864 -1.7377
  728SOL    HW2 2184   2.149   2.697   2.001  3.1340 -1.7287  1.1795
  729SOL     OW 2185   1.879   2.482   1.395  0.4243 -0.2057 -0.6005
  729SOL    HW1 2186   1.809   2.415   1.364 -2.2279  2.6294 -0.6714
  729SOL    HW2 2187   1.966   2.434   1.417  1.9779 -2.2154 -0.5757
  730SOL     OW 2188   1.760   0.960   2.505 -0.3502  0.2333  0.0102
  730SOL    HW1 2189   1.730   0.868   2.478 -0.9145 -1.7710 -0.5587
  730SOL    HW2 2190   1.684   1.026   2.513 -0.9078  0.9286  0.8331
  731SOL     OW 2191   0.897   2.818   1.147  0.6279  0.2054  0.1072
  731SOL    HW1 2192   0.942   2.880   1.211 -0.4211 -2.1760 -2.5437
  731SOL    HW2 2193   0.974   2.767   1.099  0.3260  1.1311 -0.4375
  732SOL     OW 2194   1.270   2.920   0.864  0.6896  0.0958 -0.0157
  732SOL    HW1 2195   1.249   2.898   0.769  2.3927 -1.3778  0.9709
  732SOL    HW2 2196   1.306   2.837   0.906 -0.9074 -0.2047  0.7784
  733SOL     OW 2197   1.132   1.275   0.636  0.3811  0.1170 -0.1676
  733SOL    HW1 2198   1.078   1.317   0.710  1.8380 -1.5479 -2.4787
  733SOL    HW2 2199   1.206   1.216   0.667 -1.2406  1.7408 -1.6118
  734SOL     OW 2200   2.504   2.071   2.493  0.2654 -0.4672  0.2579
  734SOL    HW1 2201   2.507   2.166   2.529  1.0969 -1.6849 -0.8546
  734SOL    HW2 2202   2.529   2.064   2.391  0.1655 -1.0342 -1.5011
  735SOL     OW 2203   0.816   0.165   0.984  0.2983  0.4144 -0.0829
  735SOL    HW1 2204   0.901   0.111   0.974  1.0432  0.8982 -1.8252
  735SOL    HW2 2205   0.817   0.250   0.931 -2.0868 -1.4928  0.6988
  736SOL     OW 2206   1.587   2.080   2.732 -0.7083  0.7424  0.4410
  736SOL    HW1 2207   1.587   2.181   2.720 -0.8238 -2.5120 -0.9773
  736SOL    HW2 2208   1.648   2.044   2.803 -0.0682 -1.5977  0.1136
  737SOL     OW 2209   0.851   2.540   1.304 -0.0652  0.7932 -0.1764
  737SOL    HW1 2210   0.857   2.598   1.220 -2.5863 -1.7708 -1.2758
  737SOL    HW2 2211   0.867   2.601   1.384 -1.8313 -1.5599 -1.5083
  738SOL     OW 2212   1.759   2.847   2.417  0.3454 -0.5268 -0.3623
  738SOL    HW1 2213   1.817   2.916   2.468  0.9757  0.2506  2.1975
  738SOL    HW2 2214   1.743   2.764   2.468  0.5742 -1.0216 -0.9788
  739SOL     OW 2215   1.257   2.398   2.148  0.1592  0.4649  0.0433
  739SOL    HW1 2216   1.176   2.339   2.151 -0.9324  0.2399  2.8450
  739SOL    HW2 2217   1.346   2.343   2.147  1.4276 -0.8159 -0.0901
  740SOL     OW 2218   1.432   2.368   1.258 -0.4886  0.4764  0.6260
  740SOL    HW1 2219   1.400   2.296   1.196 -0.3772  0.2551  0.9697
  740SOL    HW2 2220   1.406   2.463   1.229 -0.5482  0.1161  1.6864
  741SOL     OW 2221   2.686   1.116   0.100  0.0778  0.3226  0.1211
  741SOL    HW1 2222   2.646   1.189   0.162 -2.9193  0.5835  1.6684
  741SOL    HW2 2223   2.628   1.032   0.109  1.4287  2.3549 -1.5312
  742SOL     OW 2224   0.506   1.813   2.455 -0.6010 -0.2737 -0.0746
  742SOL    HW1 2225   0.547   1.906   2.445  1.0931  0.2312 -0.3372
  742SOL    HW2 2226   0.547   1.749   2.386  0.8037  1.0008  0.9139
  743SOL     OW 2227   0.366   0.966   2.517  0.2582 -0.3631  0.4934
  743SOL    HW1 2228   0.344   0.987   2.612  2.3774 -0.5769  2.0120
  743SOL    HW2 2229   0.309   0.890   2.481 -0.6451  0.6556 -1.2441
  744SOL     OW 2230   2.356   2.533   0.919  0.4097  0.0527  0.1903
  744SOL    HW1 2231   2.406   2.526   0.826  0.2387 -1.0756 -1.2127
  744SOL    HW2 2232   2.262   2.572   0.910  1.2885 -0.2035 -0.6901
  745SOL     OW 2233   2.093   1.720   1.394 -0.0503 -0.1502  0.0752
  745SOL    HW1 2234   2.142   1.751   1.309 -1.6542 -0.7295  0.4115
  745SOL    HW2 2235   2.061   1.804   1.447  0.6146  0.2391 -0.0193
  746SOL     OW 2236   2.088   0.953   0.625  0.3294 -0.2419 -0.5222
  746SOL    HW1 2237   2.117   0.853   0.629  0.9177 -2.2938 -0.1042
  746SOL    HW2 2238   2.117   1.008   0.708 -0.3491  0.8661  2.0484
  747SOL     OW 2239   1.628   2.033   0.753  0.0040  0.1736 -0.6160
  747SOL    HW1 2240   1.590   1.937   0.759 -2.8348  0.5558 -1.7559
  747SOL    HW2 2241   1.702   2.036   0.682 -0.2520 -0.8231  1.6585
  748SOL     OW 2242   0.763   1.829   0.598  0.8105 -0.1779  0.2213
  748SOL    HW1 2243   0.741   1.865   0.504  0.4460 -1.3067 -2.0748
  748SOL    HW2 2244   0.736   1.894   0.670  0.4282  0.0769  0.5959
  749SOL     OW 2245   2.995   2.840   1.926 -0.1729  0.5507  0.7733
  749SOL    HW1 2246   3.036   2.926   1.965  3.0793  1.8616 -1.4067
  749SOL    HW2 2247   3.064   2.766   1.918  2.4205 -0.6327 -0.4074
  750SOL     OW 2248   1.656   0.383   1.303 -0.0117 -0.0206 -0.1398
  750SOL    HW1 2249   1.746   0.348   1.268 -2.2454 -0.8581 -0.4565
  750SOL    HW2 2250   1.647   0.483   1.287  0.8939 -0.8211  2.3240
  751SOL     OW 2251   1.809   2.700   0.015 -0.0234 -0.0273 -0.0341
  751SOL    HW1 2252   1.707   2.718   0.007 -1.3137  2.5999 -2.0362
  751SOL    HW2 2253   1.834   2.661   3.003  0.6615 -2.0967 -0.5240
  752SOL     OW 2254   1.970   1.918   0.152  0.4779 -0.2085  0.0980
  752SOL    HW1 2255   1.897   1.842   0.161 -0.8594 -2.0035 -0.1373
  752SOL    HW2 2256   1.955   1.969   0.062 -0.6715  1.0123 -2.6714
  753SOL     OW 2257   1.958   1.139   2.484  0.4343  0.8386 -0.2608
  753SOL    HW1 2258   1.883   1.070   2.499 -0.0409  1.8544 -1.6678
  753SOL    HW2 2259   2.016   1.106   2.410 -3.0577  2.4848  0.2490
  754SOL     OW 2260   3.042   2.545   1.138 -0.1460 -0.0685  0.1850
  754SOL    HW1 2261   0.042   2.486   1.118 -0.4998 -0.3845 -1.0408
  754SOL    HW2 2262   3.062   2.642   1.126 -0.2707 -0.9780  0.0633
  755SOL     OW 2263   2.086   0.560   0.947  0.0333 -0.7505 -0.1429
  755SOL    HW1 2264   2.186   0.559   0.962 -0.8511 -0.4289  0.7873
  755SOL    HW2 2265   2.043   0.648   0.975 -0.3688  0.4897 -0.0870
  756SOL     OW 2266   1.133   1.351   2.891 -0.4791  0.1820  0.3090
  756SOL    HW1 2267   1.114   1.359   2.992  2.3444 -1.1356 -1.7149
  756SOL    HW2 2268   1.234   1.332   2.880 -1.7037  2.8145  0.6003
  757SOL     OW 2269   2.126   2.854   1.457 -0.1855  0.5841  0.4097
  757SOL    HW1 2270   2.167   2.779   1.506  1.3231  2.3120  1.9910
  757SOL    HW2 2271   2.181   2.934   1.475 -0.4095 -1.5322  0.5732
  758SOL     OW 2272   0.852   2.756   1.474 -0.4384 -0.0938  0.1938
  758SOL    HW1 2273   0.830   2.693   1.556 -0.2018 -2.8541  2.4523
  758SOL    HW2 2274   0.936   2.813   1.479  0.0601  1.2815  0.5723
  759SOL     OW 2275   2.260   1.351   1.038 -0.3762  0.4011  0.2894
  759SOL    HW1 2276   2.284   1.447   1.030  0.0124 -0.4012  0.9940
  759SOL    HW2 2277   2.337   1.304   1.084  0.0060 -1.4817  0.0567
  760SOL     OW 2278   1.854   1.030   1.605 -0.2509 -0.5272 -0.4109
  760SOL    HW1 2279   1.849   1.032   1.711  1.5737 -0.7052  0.8727
  760SOL    HW2 2280   1.945   1.002   1.563 -1.3161 -1.5781 -0.4026
  761SOL     OW 2281   2.075   3.033   0.446 -0.1169 -0.0815 -0.2248
  761SOL    HW1 2282   2.105   3.005   0.542 -0.1466 -1.1367  0.5956
  761SOL    HW2 2283   2.027   2.954   0.402 -0.1173 -2.0907 -1.4469
  762SOL     OW 2284   1.931   2.136   3.058 -0.7062 -0.3909  0.5966
  762SOL    HW1 2285   2.017   2.131   3.004 -0.1747  1.5287  0.3013
  762SOL    HW2 2286   1.925   2.231   0.019 -0.7888 -0.9809  0.9823
  763SOL     OW 2287   0.634   0.957   1.070  0.0885 -0.0054 -0.1986
  763SOL    HW1 2288   0.663   0.905   0.990 -0.5310  0.6367  0.7248
  763SOL    HW2 2289   0.698   0.933   1.144  2.7160  0.1767 -4.3571
  764SOL     OW 2290   2.833   2.255   3.013  0.5979 -0.2273  0.6832
  764SOL    HW1 2291   2.857   2.318   0.013  0.1550 -1.2408 -0.2836
  764SOL    HW2 2292   2.799   2.171   3.056  0.4087 -0.7741 -0.5879
  765SOL     OW 2293   0.885   0.041   1.881 -0.3791 -0.0799 -0.5878
  765SOL    HW1 2294   0.968   0.092   1.904 -1.3881  0.5394 -1.1270
  765SOL    HW2 2295   0.847   0.065   1.789 -1.3470  0.8636  0.9066
  766SOL     OW 2296   2.868   1.458   2.524  0.4983 -0.1297 -0.2491
  766SOL    HW1 2297   2.839   1.553   2.546 -0.0761  0.6863 -1.3244
  766SOL    HW2 2298   2.970   1.451   2.511 -1.4570 -0.5110  1.3426
  767SOL     OW 2299   0.096   1.648   1.543 -0.0796  0.2766 -0.4224
  767SOL    HW1 2300   0.037   1.633   1.629 -1.4663  0.6934  1.7645
  767SOL    HW2 2301   0.032   1.652   1.464 -1.4410 -0.1244 -0.0055
  768SOL     OW 2302   0.964   0.684   2.877  0.3665  0.3564 -0.2207
  768SOL    HW1 2303   0.927   0.745   2.953 -0.1735  1.0177  1.8097
  768SOL    HW2 2304   1.071   0.688   2.875  2.2188  2.2109 -1.4716
  769SOL     OW 2305   1.940   2.653   0.454  0.2054 -0.1107 -0.0186
  769SOL    HW1 2306   1.858   2.599   0.491 -1.3541  1.9172  1.0490
  769SOL    HW2 2307   2.027   2.604   0.441 -3.0656  0.4646  0.7311
  770SOL     OW 2308   2.828   0.328   2.646  0.3926 -0.4896  0.2418
  770SOL    HW1 2309   2.847   0.400   2.572  0.0242  1.4660 -4.4330
  770SOL    HW2 2310   2.894   0.246   2.649 -0.5395 -1.7951 -1.0524
  771SOL     OW 2311   1.330   2.350   1.773  0.0826 -0.1332 -0.0864
  771SOL    HW1 2312   1.250   2.403   1.747 -0.2333 -0.4672 -2.2819
  771SOL    HW2 2313   1.360   2.315   1.685 -3.0497 -0.9005  0.4056
  772SOL     OW 2314   0.488   0.472   3.074 -0.0862 -1.0051 -0.1895
  772SOL    HW1 2315   0.537   0.386   3.048  1.1724  2.2101  1.0505
  772SOL    HW2 2316   0.408   0.482   3.016  2.8204 -0.5523  0.8177
  773SOL     OW 2317   3.028   1.329   1.491 -0.2037  0.1059  0.2606
  773SOL    HW1 2318   2.953   1.322   1.419 -0.7669 -0.6756 -2.1742
  773SOL    HW2 2319   2.984   1.323   1.584  4.1300 -0.7956  0.5829
  774SOL     OW 2320   1.611   0.898   0.375 -0.3792  0.3571  0.0749
  774SOL    HW1 2321   1.604   0.798   0.353 -1.9167 -1.1578  1.3065
  774SOL    HW2 2322   1.665   0.923   0.462  1.3522 -1.7831  1.5109
  775SOL     OW 2323   2.218   2.745   0.149 -0.3416  0.0801  0.1959
  775SOL    HW1 2324   2.247   2.746   0.052 -0.5949 -3.6618  0.1368
  775SOL    HW2 2325   2.128   2.787   0.165  2.3019  1.9207 -2.4870
  776SOL     OW 2326   2.624   0.616   2.043  0.1187  0.2215  1.1381
  776SOL    HW1 2327   2.641   0.710   2.080  1.6048 -1.5374  0.5386
  776SOL    HW2 2328   2.559   0.565   2.098  1.9181 -0.6936 -2.1981
  777SOL     OW 2329   0.234   1.228   2.488  0.0097 -0.4099 -0.4935
  777SOL    HW1 2330   0.322   1.178   2.484 -0.1378 -1.9653 -1.5769
  777SOL    HW2 2331   0.166   1.190   2.422  0.0714 -0.1671  1.7925
  778SOL     OW 2332   0.873   0.256   0.426 -0.4511 -0.1690 -0.0815
  778SOL    HW1 2333   0.932   0.221   0.501 -0.8480  0.1080  0.9963
  778SOL    HW2 2334   0.908   0.341   0.385  0.9241 -2.6595 -3.0672
  779SOL     OW 2335   0.534   0.993   2.778  0.6625  0.2679 -0.2129
  779SOL    HW1 2336   0.616   1.042   2.792 -1.8850  0.0257 -1.9400
  779SOL    HW2 2337   0.550   0.904   2.732  0.0620 -0.5126  1.5153
  780SOL     OW 2338   2.103   0.990   2.297  0.0746  0.0262  0.0871
  780SOL    HW1 2339   2.110   0.920   2.374  0.1637  1.0802 -0.6546
  780SOL    HW2 2340   2.114   0.934   2.212 -1.7210  2.0570  1.4758
  781SOL     OW 2341   2.965   1.310   1.742  0.0760 -0.2404  0.0767
  781SOL    HW1 2342   3.051   1.278   1.784 -1.3895 -2.4140  1.2765
  781SOL    HW2 2343   2.878   1.269   1.782 -1.2856 -0.9287 -1.6390
  782SOL     OW 2344   0.855   1.765   2.435  0.2871 -0.7593  0.0838
  782SOL    HW1 2345   0.792   1.755   2.357 -1.5421 -2.1101  0.2029
  782SOL    HW2 2346   0.823   1.836   2.501  0.3238 -1.9644 -0.6408
  783SOL     OW 2347   0.444   2.602   1.377  0.4905 -0.3468 -0.3281
  783SOL    HW1 2348   0.341   2.590   1.373 -1.1684  0.1134 -2.8983
  783SOL    HW2 2349   0.477   2.684   1.426 -1.2985 -0.6851 -0.4451
  784SOL     OW 2350   1.460   0.513   2.944 -0.0607 -0.6425  0.2219
  784SOL    HW1 2351   1.543   0.484   2.898 -0.5457  1.3618  0.1998
  784SOL    HW2 2352   1.462   0.536   3.043 -0.9628  1.5907 -0.3721
  785SOL     OW 2353   1.305   0.323   2.812 -0.0633 -0.4758  0.0173
  785SOL    HW1 2354   1.347   0.412   2.846 -0.6412  2.0929  0.4225
  785SOL    HW2 2355   1.355   0.286   2.735 -1.3395  0.5037 -1.7637
  786SOL     OW 2356   0.359   1.704   0.436  0.0831  0.1510  0.9369
  786SOL    HW1 2357   0.401   1.640   0.496 -0.0883  2.7272 -1.4418
  786SOL    HW2 2358   0.394   1.686   0.343  0.3718 -3.0432  0.0533
  787SOL     OW 2359   1.831   1.461   0.397  0.0089 -0.1873  0.2415
  787SOL    HW1 2360   1.851   1.550   0.444 -1.3980  0.6067 -0.8220
  787SOL    HW2 2361   1.776   1.482   0.317  3.7272  0.7639  1.1295
  788SOL     OW 2362   1.916   1.498   1.511  0.3145 -0.3455  0.2630
  788SOL    HW1 2363   1.833   1.499   1.453 -0.1895 -0.1892  0.9551
  788SOL    HW2 2364   1.998   1.546   1.472 -0.2845  3.6759  0.4594
  789SOL     OW 2365   0.323   1.460   1.882  0.1306  0.3129 -0.1204
  789SOL    HW1 2366   0.256   1.519   1.930 -0.5540  0.9973  0.9406
  789SOL    HW2 2367   0.371   1.513   1.806 -0.0400 -1.3857  2.1983
  790SOL     OW 2368   0.552   2.874   0.149 -0.5556 -0.2447  0.0492
  790SOL    HW1 2369   0.496   2.812   0.094  0.6932  2.7118  0.2630
  790SOL    HW2 2370   0.492   2.921   0.210  2.7814 -2.8354 -3.8402
  791SOL     OW 2371   0.646   0.033   2.586  0.4603 -0.1015 -0.4826
  791SOL    HW1 2372   0.633   0.135   2.602 -0.8666 -1.2566  1.1589
  791SOL    HW2 2373   0.604   3.057   2.660 -0.1812 -0.8625 -0.1177
  792SOL     OW 2374   1.874   0.514   2.543 -0.1772  0.0445  0.6322
  792SOL    HW1 2375   1.798   0.483   2.605  1.2080  2.5813  0.5201
  792SOL    HW2 2376   1.964   0.497   2.584 -1.2615 -0.2360  1.9161
  793SOL     OW 2377   0.319   0.692   1.070 -0.1123 -0.4741  0.0742
  793SOL    HW1 2378   0.368   0.599   1.077  1.8744 -2.9280 -2.1869
  793SOL    HW2 2379   0.238   0.685   1.133 -0.5027 -3.6413 -0.8958
  794SOL     OW 2380   0.603   0.347   1.970  0.1063 -0.0914  0.3559
  794SOL    HW1 2381   0.685   0.372   1.912  3.5919 -0.5691  0.1229
  794SOL    HW2 2382   0.532   0.424   1.963 -1.0234  0.8798  0.0308
  795SOL     OW 2383   3.045   1.237   0.295  0.6633 -1.2158  0.0925
  795SOL    HW1 2384   0.025   1.157   0.306 -1.3198  1.0047  1.9430
  795SOL    HW2 2385   3.039   1.270   0.195 -0.0873  0.4974 -2.5775
  796SOL     OW 2386   3.020   2.813   0.145 -0.3742 -0.1785  0.2275
  796SOL    HW1 2387   3.063   2.893   0.103 -0.0104 -0.8175 -1.6331
  796SOL    HW2 2388   3.045   2.726   0.095  1.5267  3.5226  0.6086
  797SOL     OW 2389   1.724   2.599   2.519  0.1917 -0.3389 -0.1284
  797SOL    HW1 2390   1.794   2.521   2.509  0.6207 -0.8113 -1.1441
  797SOL    HW2 2391   1.662   2.573   2.596  3.7712  0.1064 -2.9877
  798SOL     OW 2392   0.024   0.671   0.572 -0.3891  0.6244 -0.2454
  798SOL    HW1 2393   0.004   0.681   0.472  0.3558  1.5581 -0.5900
  798SOL    HW2 2394   0.078   0.585   0.592 -5.1011 -0.6090 -1.1587
  799SOL     OW 2395   2.582   0.460   2.431 -0.0565  0.3707 -0.0252
  799SOL    HW1 2396   2.569   0.361   2.403  1.8342 -0.1547  1.6310
  799SOL    HW2 2397   2.685   0.484   2.417  3.1572  1.0147 -1.1250
  800SOL     OW 2398   2.918   2.018   0.248  0.1588 -0.1746  0.4743
  800SOL    HW1 2399   2.951   2.055   0.337 -1.1662  5.9313  3.5161
  800SOL    HW2 2400   2.990   1.958   0.208 -2.6127  1.7242 -0.4770
  801SOL     OW 2401   1.344   1.564   1.123  0.1264 -0.3342 -0.4998
  801SOL    HW1 2402   1.331   1.499   1.205  2.9185 -1.0715 -2.3217
  801SOL    HW2 2403   1.332   1.505   1.041  0.6169  0.3508  1.4580
  802SOL     OW 2404   1.073   1.817   2.108 -0.7449 -0.3585  0.5184
  802SOL    HW1 2405   0.970   1.811   2.099 -0.1501 -2.5164  0.0101
  802SOL    HW2 2406   1.119   1.772   2.023  1.9815 -3.7337 -4.6296
  803SOL     OW 2407   0.147   1.928   0.853  0.2459 -0.3950  0.3037
  803SOL    HW1 2408   0.060   1.908   0.900 -0.4610 -0.8965 -0.0529
  803SOL    HW2 2409   0.207   1.850   0.872 -0.6909  4.6602  1.8752
  804SOL     OW 2410   1.112   2.130   1.196 -0.2502 -0.1360 -0.6164
  804SOL    HW1 2411   1.109   2.234   1.204  0.5478 -1.3510  0.7477
  804SOL    HW2 2412   1.027   2.091   1.157 -1.5869 -2.8309 -0.3703
  805SOL     OW 2413   2.054   1.377   0.056  0.1974 -0.6317  0.1780
  805SOL    HW1 2414   2.108   1.353   3.046 -0.2499 -1.0042 -0.5854
  805SOL    HW2 2415   1.956   1.336   0.043 -0.7155 -1.0698  1.5298
  806SOL     OW 2416   1.932   2.438   1.129 -0.0112 -0.0666  0.1419
  806SOL    HW1 2417   1.932   2.475   1.218 -0.2025 -0.9616 -1.6238
  806SOL    HW2 2418   1.838   2.451   1.085 -3.6180  2.3198  0.0984
  807SOL     OW 2419   2.744   0.802   2.664 -0.2226  0.2990  0.3563
  807SOL    HW1 2420   2.757   0.891   2.707 -0.0855  1.9057 -0.3133
  807SOL    HW2 2421   2.819   0.793   2.593 -0.2464 -1.0640  1.2563
  808SOL     OW 2422   0.377   1.236   0.495  0.4513  0.6285  0.0123
  808SOL    HW1 2423   0.393   1.173   0.575 -0.0822 -0.6142 -0.6183
  808SOL    HW2 2424   0.411   1.195   0.410  0.4961 -0.4964 -0.9191
  809SOL     OW 2425   2.691   0.907   2.033 -0.3115  0.4145  0.8198
  809SOL    HW1 2426   2.615   0.968   2.055  1.4646 -1.8823  0.4593
  809SOL    HW2 2427   2.719   0.920   1.930  0.9297 -0.3357 -6.0527
  810SOL     OW 2428   1.220   0.437   1.428  0.5218 -0.4123  0.7676
  810SOL    HW1 2429   1.130   0.387   1.428 -0.0585 -2.4707 -1.4953
  810SOL    HW2 2430   1.297   0.370   1.405 -4.4213  1.5628  0.8413
  811SOL     OW 2431   1.885   2.838   1.577  0.0699  0.6974  0.4753
  811SOL    HW1 2432   1.966   2.826   1.513  0.3493  0.9204 -3.2642
  811SOL    HW2 2433   1.851   2.751   1.609  1.5564  0.2778  2.5547
  812SOL     OW 2434   1.609   2.340   2.797  0.2205  0.5338 -0.4346
  812SOL    HW1 2435   1.585   2.308   2.890 -1.0341 -1.9357 -2.3486
  812SOL    HW2 2436   1.704   2.376   2.795  1.9227  2.2463  2.0378
  813SOL     OW 2437   1.533   1.098   2.044 -0.1288  0.5687 -1.0476
  813SOL    HW1 2438   1.474   1.081   1.962 -0.5947  0.2653  1.3177
  813SOL    HW2 2439   1.597   1.175   2.022 -2.8953 -0.2080  0.7668
  814SOL     OW 2440   0.914   0.347   1.703  0.0477 -0.2508  0.1795
  814SOL    HW1 2441   0.834   0.407   1.728 -0.9972  2.2853  0.7283
  814SOL    HW2 2442   0.977   0.359   1.781  0.0885 -0.9125 -1.7215
  815SOL     OW 2443   0.929   0.886   0.470  0.6365  0.0108  0.2501
  815SOL    HW1 2444   0.904   0.981   0.504  0.2534  0.0415 -1.9762
  815SOL    HW2 2445   0.861   0.856   0.399 -2.6099 -0.8578 -0.0225
  816SOL     OW 2446   2.217   1.601   2.681  0.4436 -0.2133 -0.1364
  816SOL    HW1 2447   2.183   1.692   2.658  0.7583  1.0925  0.8081
  816SOL    HW2 2448   2.305   1.606   2.736  0.3990  2.0254 -1.4337
  817SOL     OW 2449   0.734   2.631   0.502  0.0094 -0.2923  0.2971
  817SOL    HW1 2450   0.828   2.648   0.469 -2.2169  0.7158  4.3569
  817SOL    HW2 2451   0.721   2.531   0.509  0.2564  0.7317 -0.2066
  818SOL     OW 2452   1.895   0.017   0.034 -0.0162 -0.1190  0.1132
  818SOL    HW1 2453   1.819   0.079   0.010  3.3925 -2.3233  0.6065
  818SOL    HW2 2454   1.956   0.001   3.033 -0.0180  0.4099 -1.7154
  819SOL     OW 2455   1.548   0.267   0.164 -0.3624 -0.3317 -0.5259
  819SOL    HW1 2456   1.518   0.204   0.091  0.6097 -0.5693  0.5748
  819SOL    HW2 2457   1.648   0.295   0.160 -0.0199  1.0494  0.4734
  820SOL     OW 2458   1.799   0.621   0.247 -0.4007  0.9210  0.3809
  820SOL    HW1 2459   1.722   0.606   0.307  2.4062  0.0580 -1.8362
  820SOL    HW2 2460   1.885   0.650   0.293 -2.0371  0.1899  0.4348
  821SOL     OW 2461   2.613   0.281   0.026  0.0789  0.2584 -0.1904
  821SOL    HW1 2462   2.547   0.306   0.100  0.5034  3.8175 -2.6613
  821SOL    HW2 2463   2.584   0.328   3.018  0.1599 -3.2215  1.5731
  822SOL     OW 2464   0.369   2.657   1.887 -0.3156 -0.0972  0.0935
  822SOL    HW1 2465   0.389   2.585   1.955  0.2246  2.9781 -1.4952
  822SOL    HW2 2466   0.335   2.611   1.803  1.2950  0.9592 -0.5222
  823SOL     OW 2467   2.997   1.674   1.324  0.3685 -0.2054  0.5472
  823SOL    HW1 2468   2.987   1.769   1.283  1.0257 -1.6391  2.8403
  823SOL    HW2 2469   2.941   1.606   1.275  2.2186  0.3257  0.5812
  824SOL     OW 2470   1.587   3.063   2.175 -0.3885  0.5422  0.1479
  824SOL    HW1 2471   1.535   3.017   2.251 -1.6356 -0.4283  1.6595
  824SOL    HW2 2472   1.549   3.070   2.082  2.5596  0.3717  1.7765
  825SOL     OW 2473   1.933   1.190   0.753 -0.1043  0.2411 -0.8267
  825SOL    HW1 2474   2.015   1.151   0.799  0.9151 -3.2068 -0.3233
  825SOL    HW2 2475   1.852   1.173   0.812  1.6466  1.4732  1.5201
  826SOL     OW 2476   1.990   0.749   0.008  0.2329  0.2747  0.1300
  826SOL    HW1 2477   2.010   0.834   0.063 -2.0268 -1.5899  2.7530
  826SOL    HW2 2478   1.891   0.733   3.066 -1.1992 -0.8855  2.1326
  827SOL     OW 2479   0.645   1.114   1.476 -0.3747 -0.3313  0.2943
  827SOL    HW1 2480   0.560   1.113   1.531  0.6322  0.0195  3.1008
  827SOL    HW2 2481   0.653   1.217   1.443 -0.2822  2.1630 -0.6683
  828SOL     OW 2482   2.369   1.188   1.867  0.1662  0.1475 -0.2646
  828SOL    HW1 2483   2.397   1.120   1.800 -1.4731  1.9327 -0.9049
  828SOL    HW2 2484   2.320   1.267   1.823 -0.8361 -1.6579 -2.8014
  829SOL     OW 2485   0.106   1.903   0.194 -0.0787 -0.2847 -0.2874
  829SOL    HW1 2486   0.088   1.806   0.175  1.6818  0.6340  0.9065
  829SOL    HW2 2487   0.155   1.913   0.280 -4.2925 -0.6780 -2.2744
  830SOL     OW 2488   1.732   1.007   0.626  0.1755 -0.0488  0.2020
  830SOL    HW1 2489   1.831   1.031   0.627  2.3040 -1.3805 -0.7393
  830SOL    HW2 2490   1.709   0.926   0.684 -0.2250 -0.2421  1.5464
  831SOL     OW 2491   2.587   1.861   2.979 -0.1237 -0.3903  0.1241
  831SOL    HW1 2492   2.489   1.845   2.994 -0.6244 -0.5258  0.8591
  831SOL    HW2 2493   2.628   1.909   3.058  0.0743 -1.8498 -1.5420
  832SOL     OW 2494   0.944   2.977   0.018  0.4357  0.3922 -0.7038
  832SOL    HW1 2495   0.886   2.936   0.098 -0.2588 -1.5474  0.6295
  832SOL    HW2 2496   1.045   2.957   0.025  2.6162  3.4974 -0.1330
  833SOL     OW 2497   1.257   0.686   2.242 -0.7527 -0.5703  0.1194
  833SOL    HW1 2498   1.273   0.786   2.263 -0.1848 -2.6832  0.2333
  833SOL    HW2 2499   1.301   0.659   2.154 -1.5620 -1.5686  1.9352
  834SOL     OW 2500   0.073   0.605   1.183  0.0183  0.1565  0.4042
  834SOL    HW1 2501   0.069   0.700   1.205  0.0953 -2.5401 -1.5511
  834SOL    HW2 2502   3.058   0.576   1.153  0.0030 -1.4523  1.4065
  835SOL     OW 2503   2.919   3.071   0.955  0.9363  0.4186 -0.1953
  835SOL    HW1 2504   2.896   2.971   0.968  1.2517 -2.1479  0.2146
  835SOL    HW2 2505   2.911   0.044   1.042  0.8294  0.6562  1.1063
  836SOL     OW 2506   0.547   2.057   0.389  0.3148 -0.0962  0.0329
  836SOL    HW1 2507   0.589   1.971   0.362  0.3912 -1.5934 -0.4914
  836SOL    HW2 2508   0.610   2.128   0.351  0.8575  0.5292 -0.2734
  837SOL     OW 2509   1.760   1.685   2.616  0.5065  0.3294 -0.2656
  837SOL    HW1 2510   1.712   1.726   2.696 -0.3365  0.1412 -2.4972
  837SOL    HW2 2511   1.843   1.633   2.641  2.0129  2.5675  0.5925
  838SOL     OW 2512   0.403   1.073   2.025 -0.1285 -0.1861  0.0729
  838SOL    HW1 2513   0.399   1.151   2.091  0.6969 -1.9893 -4.5627
  838SOL    HW2 2514   0.307   1.053   1.998  1.5569 -0.8557 -2.3141
  839SOL     OW 2515   0.215   0.574   0.791  0.3197 -0.0892 -0.1167
  839SOL    HW1 2516   0.175   0.487   0.828 -1.8224 -1.7180  2.0005
  839SOL    HW2 2517   0.218   0.645   0.866 -1.0604  2.5028  1.5184
  840SOL     OW 2518   2.565   0.199   2.412  0.6303  0.3120  0.1528
  840SOL    HW1 2519   2.573   0.169   2.510 -2.0738  0.0680  0.8882
  840SOL    HW2 2520   2.650   0.177   2.361  0.1438 -3.1274 -0.0349
  841SOL     OW 2521   0.739   2.390   0.051  0.0750 -0.3518 -0.1300
  841SOL    HW1 2522   0.793   2.463   0.004  1.1346 -0.4188  0.9894
  841SOL    HW2 2523   0.775   2.301   0.014  0.8735 -1.2280  1.5537
  842SOL     OW 2524   0.526   3.034   1.001  0.1286  0.5858  0.3964
  842SOL    HW1 2525   0.623   3.006   0.995 -1.6763  0.9861  4.0655
  842SOL    HW2 2526   0.480   3.024   0.913  3.4428  0.1583 -0.3350
  843SOL     OW 2527   0.241   0.757   3.061 -0.2724  0.5863 -0.4761
  843SOL    HW1 2528   0.147   0.770   3.023  0.3941  1.1045 -0.7058
  843SOL    HW2 2529   0.299   0.841   3.074 -0.5369  0.9226  1.2647
  844SOL     OW 2530   1.209   2.455   2.723 -0.1203  0.6005  0.1575
  844SOL    HW1 2531   1.216   2.363   2.686  0.3390  1.9054  1.6055
  844SOL    HW2 2532   1.300   2.499   2.704 -0.7968  2.2003  0.6526
  845SOL     OW 2533   2.620   0.149   2.670  0.0121 -0.0521 -0.6365
  845SOL    HW1 2534   2.693   0.218   2.659 -1.2976 -2.3075 -1.5528
  845SOL    HW2 2535   2.585   0.135   2.768 -2.0762 -1.3626  2.5639
  846SOL     OW 2536   1.962   1.538   2.744 -0.0131  0.9487  0.2267
  846SOL    HW1 2537   2.061   1.575   2.725  2.0729 -0.1208  1.0406
  846SOL    HW2 2538   1.959   1.439   2.723  1.2067 -0.9488  1.6169
  847SOL     OW 2539   2.544   0.039   0.148  0.1217 -0.6672 -0.0889
  847SOL    HW1 2540   2.466   3.069   0.100  1.4012 -1.5983 -0.2972
  847SOL    HW2 2541   2.564   0.129   0.104 -2.3073 -1.4987  1.8085
  848SOL     OW 2542   0.621   0.713   0.700 -0.2804  0.0787  0.7832
  848SOL    HW1 2543   0.609   0.611   0.722  3.4568 -0.9495 -1.5764
  848SOL    HW2 2544   0.629   0.719   0.597  1.1040  0.0125 -4.1926
  849SOL     OW 2545   1.484   3.054   1.919 -0.4167 -0.7019  0.2858
  849SOL    HW1 2546   1.516   2.979   1.858  0.0204 -0.5491 -2.4543
  849SOL    HW2 2547   1.501   0.070   1.879  0.9818 -0.5693  1.5538
  850SOL     OW 2548   0.698   1.255   0.679  0.1516 -0.1177 -0.2901
  850SOL    HW1 2549   0.718   1.348   0.722 -0.0834 -0.2130  2.2359
  850SOL    HW2 2550   0.607   1.225   0.718 -1.3102 -2.2843 -0.0328
  851SOL     OW 2551   0.266   1.167   0.156  0.4547  0.3365  0.3721
  851SOL    HW1 2552   0.365   1.143   0.186 -0.3216  0.1819  1.6683
  851SOL    HW2 2553   0.199   1.118   0.216 -1.2486 -1.4323  0.2425
  852SOL     OW 2554   1.224   0.201   1.817  0.0188 -0.3802 -0.0882
  852SOL    HW1 2555   1.252   0.120   1.874 -0.7109 -0.6168  1.8003
  852SOL    HW2 2556   1.246   0.187   1.720  0.9285 -3.2873 -0.1391
  853SOL     OW 2557   2.628   1.348   0.256  0.8783  0.0375 -0.2765
  853SOL    HW1 2558   2.651   1.444   0.236 -0.7184 -0.5013 -0.3840
  853SOL    HW2 2559   2.559   1.339   0.332 -2.3427 -0.5351  0.8888
  854SOL     OW 2560   1.123   1.063   2.050 -0.0321  0.1508  0.1112
  854SOL    HW1 2561   1.025   1.079   2.063 -0.1085  0.5888 -0.9152
  854SOL    HW2 2562   1.174   1.105   2.129 -0.6665  0.1265  2.0115
  855SOL     OW 2563   0.343   2.723   0.052  0.0390  0.3902  0.1465
  855SOL    HW1 2564   0.298   2.672   0.127 -0.7160 -0.5933  0.3676
  855SOL    HW2 2565   0.280   2.789   0.011  1.9306  1.4561  0.5641
  856SOL     OW 2566   0.938   0.646   2.134 -0.4995 -0.1017  0.4878
  856SOL    HW1 2567   1.014   0.697   2.087 -0.4889 -0.4142 -0.0427
  856SOL    HW2 2568   0.944   0.661   2.235  1.2328  0.9863 -0.6805
  857SOL     OW 2569   1.152   0.766   2.581  0.4441  0.4020  0.1675
  857SOL    HW1 2570   1.227   0.821   2.542  2.1033  1.2827 -1.3384
  857SOL    HW2 2571   1.144   0.670   2.539 -0.6326 -1.9327 -1.1104
  858SOL     OW 2572   0.010   1.300   2.117 -0.2075  0.1411  0.1856
  858SOL    HW1 2573   0.082   1.366   2.143  0.7092 -3.3120 -2.2604
  858SOL    HW2 2574   0.016   1.267   2.023 -1.4015 -0.4284 -0.1797
  859SOL     OW 2575   2.300   0.271   0.840  0.2220 -0.5198 -0.3684
  859SOL    HW1 2576   2.396   0.237   0.826  1.8030 -0.5015 -0.4785
  859SOL    HW2 2577   2.305   0.367   0.881  0.2098 -1.4174  0.9996
  860SOL     OW 2578   1.773   2.965   0.414  0.0867 -0.2993 -0.1324
  860SOL    HW1 2579   1.863   2.991   0.455  1.7669 -1.8660  0.1927
  860SOL    HW2 2580   1.702   3.021   0.464 -1.5987 -0.9057  2.0242
  861SOL     OW 2581   1.019   0.499   1.224  0.3303  0.2037 -0.1484
  861SOL    HW1 2582   1.000   0.462   1.321 -0.5974  0.9103  3.4808
  861SOL    HW2 2583   0.940   0.548   1.185 -0.6932  1.8679  0.3617
  862SOL     OW 2584   1.428   0.131   2.606 -0.1184  1.0661 -0.1030
  862SOL    HW1 2585   1.503   0.117   2.672 -0.0681  0.1293 -1.8701
  862SOL    HW2 2586   1.373   0.045   2.591  0.2013  0.1271 -1.0300
  863SOL     OW 2587   2.481   2.268   0.539  0.6192  0.1219 -0.0922
  863SOL    HW1 2588   2.419   2.349   0.533  0.7413  1.1812 -2.0737
  863SOL    HW2 2589   2.468   2.201   0.461  1.4245 -1.1971 -0.6621
  864SOL     OW 2590   2.673   0.181   1.876  0.2400  0.3560  0.2238
  864SOL    HW1 2591   2.663   0.284   1.888  1.5728 -0.0094 -0.0748
  864SOL    HW2 2592   2.766   0.157   1.833 -1.5560  0.6190  2.1028
  865SOL     OW 2593   1.308   1.091   1.853 -0.3505 -0.3255 -0.5848
  865SOL    HW1 2594   1.243   1.088   1.932 -2.8745  2.0705  0.7905
  865SOL    HW2 2595   1.292   1.174   1.797 -0.9645 -2.4604  0.8527
  866SOL     OW 2596   1.692   2.423   1.022  0.1706  0.3960 -0.2604
  866SOL    HW1 2597   1.637   2.376   0.951  0.3533  0.9943 -2.4461
  866SOL    HW2 2598   1.673   2.526   1.024 -0.2640 -0.3540 -1.6611
  867SOL     OW 2599   2.406   2.898   0.625 -0.0693 -0.3716 -0.6875
  867SOL    HW1 2600   2.310   2.880   0.653  4.0337 -0.2326  0.7717
  867SOL    HW2 2601   2.409   2.982   0.565  1.1078 -1.8220 -0.3653
  868SOL     OW 2602   0.276   2.227   2.013  0.3188  0.5694  0.0961
  868SOL    HW1 2603   0.338   2.174   1.954 -0.4268  1.3749  2.5661
  868SOL    HW2 2604   0.179   2.228   1.977 -0.8081  0.8026 -0.8631
  869SOL     OW 2605   1.948   2.635   2.259  0.0628 -0.0556  0.3556
  869SOL    HW1 2606   1.857   2.651   2.298 -2.6146  0.8288  0.4403
  869SOL    HW2 2607   2.015   2.584   2.319  1.1444 -0.4476  1.1383
  870SOL     OW 2608   1.681   1.460   0.866  0.0326 -0.4854  0.0283
  870SOL    HW1 2609   1.656   1.447   0.767 -0.8966  0.3290  1.1336
  870SOL    HW2 2610   1.660   1.377   0.917  0.2468 -1.9067 -0.6296
  871SOL     OW 2611   0.317   1.857   1.172 -0.0849 -0.6629  0.2328
  871SOL    HW1 2612   0.277   1.764   1.187  0.4408  2.7043 -0.5943
  871SOL    HW2 2613   0.254   1.927   1.209 -0.6085  0.7266  0.8640
  872SOL     OW 2614   0.789   1.528   2.536  0.1247 -0.4604 -0.0581
  872SOL    HW1 2615   0.836   1.456   2.486 -0.2458  3.6386 -1.2487
  872SOL    HW2 2616   0.805   1.619   2.490  0.0666 -0.5733  1.4018
  873SOL     OW 2617   0.804   1.793   2.101 -0.0712  0.0169 -0.2649
  873SOL    HW1 2618   0.730   1.852   2.142  0.3860  0.0384 -0.1475
  873SOL    HW2 2619   0.759   1.716   2.055 -0.4151  1.1903  2.7608
  874SOL     OW 2620   1.123   0.794   2.018  0.0927  0.2312 -0.7025
  874SOL    HW1 2621   1.182   0.778   1.938  1.1695 -3.3125 -1.3796
  874SOL    HW2 2622   1.123   0.895   2.033  1.8941  1.4482  0.0310
  875SOL     OW 2623   2.965   0.142   0.373  0.2223  0.4220 -0.4937
  875SOL    HW1 2624   2.921   0.171   0.282  0.3828  0.5058  1.1510
  875SOL    HW2 2625   2.951   0.046   0.402 -0.0818  0.8517  0.9618
  876SOL     OW 2626   0.752   1.541   0.606 -0.2468 -0.3134 -0.0394
  876SOL    HW1 2627   0.653   1.522   0.610 -0.8249 -0.5654 -0.0605
  876SOL    HW2 2628   0.765   1.645   0.617 -0.9166  1.4411  1.0692
  877SOL     OW 2629   2.756   3.045   0.655 -0.9354 -0.6661 -0.0442
  877SOL    HW1 2630   2.811   0.028   0.718 -1.6480  0.1874  0.2793
  877SOL    HW2 2631   2.703   2.975   0.704 -2.2548  1.4809  1.5331
  878SOL     OW 2632   1.956   1.661   0.542  0.1675 -0.1416  0.1614
  878SOL    HW1 2633   2.042   1.717   0.518  3.4800 -1.4573  1.0629
  878SOL    HW2 2634   1.955   1.639   0.642 -1.1761 -2.0109 -1.0691
  879SOL     OW 2635   2.478   1.519   1.328 -0.0359  0.0459  0.0031
  879SOL    HW1 2636   2.467   1.422   1.297 -0.1287 -0.6761  1.3142
  879SOL    HW2 2637   2.442   1.574   1.255 -2.9992 -0.9505  0.3886
  880SOL     OW 2638   0.489   2.274   0.592  0.1157 -0.2023 -0.1828
  880SOL    HW1 2639   0.475   2.212   0.514  1.5723  3.0845 -1.2599
  880SOL    HW2 2640   0.420   2.351   0.595  0.2339 -1.3048  1.3827
  881SOL     OW 2641   1.030   0.903   0.776  0.3271  0.4663 -0.0115
  881SOL    HW1 2642   0.978   0.951   0.700 -2.9948 -0.9162 -1.7062
  881SOL    HW2 2643   1.085   0.960   0.833 -1.3175 -1.5511  1.2207
  882SOL     OW 2644   2.498   0.964   0.428  0.8123  0.5037  0.5228
  882SOL    HW1 2645   2.407   1.012   0.436 -1.5945  3.2967 -1.6162
  882SOL    HW2 2646   2.519   0.898   0.506  1.4322 -2.9816  1.3323
  883SOL     OW 2647   1.680   0.320   1.568  0.5809 -0.2457  0.3065
  883SOL    HW1 2648   1.776   0.290   1.581 -1.3364 -0.9893  3.2596
  883SOL    HW2 2649   1.660   0.327   1.468  0.4894 -1.7418 -0.1712
  884SOL     OW 2650   2.896   0.077   1.215 -0.3012  0.3089 -0.1414
  884SOL    HW1 2651   2.976   0.107   1.272  0.7052 -0.4996 -1.0576
  884SOL    HW2 2652   2.849   0.009   1.273 -0.4441 -0.5256 -1.5468
  885SOL     OW 2653   1.431   0.905   2.713  0.1141 -0.5405 -0.2759
  885SOL    HW1 2654   1.428   0.963   2.631  1.7914  1.2685  0.6028
  885SOL    HW2 2655   1.340   0.906   2.767 -0.6842  1.2074  0.4250
  886SOL     OW 2656   1.727   0.702   2.379 -0.4744  0.7263 -0.5515
  886SOL    HW1 2657   1.794   0.646   2.432 -1.0464  2.0205  0.7682
  886SOL    HW2 2658   1.632   0.661   2.379 -0.6775  1.9798  0.0435
  887SOL     OW 2659   1.431   0.273   1.380 -0.9223 -0.2457 -0.1951
  887SOL    HW1 2660   1.372   0.228   1.310 -0.9914 -2.9109  3.4579
  887SOL    HW2 2661   1.519   0.311   1.345 -2.7574 -0.2957  2.4270
  888SOL     OW 2662   2.272   1.413   1.774  0.1664  0.6713 -0.2112
  888SOL    HW1 2663   2.328   1.453   1.695  2.4147  1.8498  0.2118
  888SOL    HW2 2664   2.232   1.486   1.825  3.1948 -2.2985  0.6012
  889SOL     OW 2665   1.690   2.138   0.405  0.0336  0.5088  0.3974
  889SOL    HW1 2666   1.725   2.046   0.437 -1.2077 -0.9472 -0.9434
  889SOL    HW2 2667   1.772   2.192   0.378  1.6989  0.6181  2.6986
  890SOL     OW 2668   1.020   1.985   0.519  0.1279 -0.5633 -0.1489
  890SOL    HW1 2669   1.022   1.884   0.514  1.1756 -0.1084  0.8797
  890SOL    HW2 2670   0.958   2.021   0.597  1.0400 -0.7370  0.5592
  891SOL     OW 2671   2.828   1.039   2.814 -0.4039  0.5265  0.2563
  891SOL    HW1 2672   2.890   1.103   2.769 -0.3419 -2.4192  1.0670
  891SOL    HW2 2673   2.864   1.035   2.909 -2.8297  1.1707 -0.6167
  892SOL     OW 2674   1.482   0.579   2.384  0.1944 -0.5370 -0.4038
  892SOL    HW1 2675   1.443   0.490   2.417 -1.2022  3.1711 -0.6236
  892SOL    HW2 2676   1.427   0.615   2.313  2.7698 -1.9267  4.9624
  893SOL     OW 2677   1.570   2.998   1.361  0.1791  0.3383 -0.0346
  893SOL    HW1 2678   1.655   3.038   1.329 -1.8973 -0.1144  3.8563
  893SOL    HW2 2679   1.572   2.998   1.461  0.8116  2.2149  0.1026
  894SOL     OW 2680   2.878   2.946   0.421  0.1604 -0.3421 -0.0179
  894SOL    HW1 2681   2.802   2.928   0.348 -2.6134  1.4302  0.0540
  894SOL    HW2 2682   2.834   2.991   0.500  0.2826 -0.0687 -1.6878
  895SOL     OW 2683   1.861   2.675   2.825 -0.1845  0.8628 -0.2024
  895SOL    HW1 2684   1.833   2.580   2.799  3.2534  0.1517 -0.5229
  895SOL    HW2 2685   1.939   2.701   2.771  2.3227  0.5631  1.5129
  896SOL     OW 2686   2.090   0.319   2.279  0.5916 -0.2068  0.2613
  896SOL    HW1 2687   2.087   0.266   2.193 -4.3139 -1.3315 -3.6574
  896SOL    HW2 2688   1.995   0.348   2.300  1.1861 -1.2255  1.2411
  897SOL     OW 2689   0.256   1.842   1.691 -0.6209 -0.3388  0.4754
  897SOL    HW1 2690   0.222   1.756   1.646 -1.3204  0.2838  0.4229
  897SOL    HW2 2691   0.331   1.895   1.647 -1.1722  1.5623  1.6434
  898SOL     OW 2692   2.341   1.760   1.763 -0.5494 -0.4074  0.6598
  898SOL    HW1 2693   2.325   1.706   1.677 -0.7611 -0.4309  0.2961
  898SOL    HW2 2694   2.419   1.826   1.750 -1.9927  1.2908  0.1876
  899SOL     OW 2695   1.614   2.077   1.037 -0.0514 -1.0006 -0.0978
  899SOL    HW1 2696   1.518   2.110   1.068 -2.1685  0.3809  1.6353
  899SOL    HW2 2697   1.615   2.056   0.933 -0.7705 -0.7649 -0.8269
  900SOL     OW 2698   1.113   0.103   2.686  0.4226 -0.0791  0.5884
  900SOL    HW1 2699   1.114   0.026   2.750 -0.8936 -0.7665  1.2496
  900SOL    HW2 2700   1.148   0.191   2.726 -2.2499 -2.0384 -0.6038
  901SOL     OW 2701   1.109   1.761   2.369  0.3898  0.5102  0.2298
  901SOL    HW1 2702   1.109   1.759   2.268  1.7222 -0.4713 -0.0726
  901SOL    HW2 2703   1.014   1.770   2.405 -2.2729 -1.2936  0.6670
  902SOL     OW 2704   2.783   2.754   0.038 -0.0176 -0.2971  0.0803
  902SOL    HW1 2705   2.734   2.819   0.108 -0.7523  2.3897  0.1289
  902SOL    HW2 2706   2.879   2.741   0.060  2.8436  3.4816  1.6131
  903SOL     OW 2707   2.108   0.838   2.068 -0.0663  0.3358 -0.4597
  903SOL    HW1 2708   2.055   0.797   1.990 -1.5473 -1.6260 -1.6163
  903SOL    HW2 2709   2.118   0.766   2.138  0.3707  1.3204 -2.5696
  904SOL     OW 2710   1.366   0.341   2.461  0.1428  0.5423 -0.1597
  904SOL    HW1 2711   1.394   0.269   2.530  1.1269  3.0499 -1.9416
  904SOL    HW2 2712   1.377   0.301   2.368  0.8134  1.4422 -0.3110
  905SOL     OW 2713   2.118   2.352   1.464 -0.1364 -0.4952  0.1964
  905SOL    HW1 2714   2.138   2.261   1.505 -0.8503 -2.4687  0.5645
  905SOL    HW2 2715   2.202   2.404   1.453  1.5761 -0.9822  1.1435
  906SOL     OW 2716   1.392   1.877   0.279 -0.2114 -0.7930  0.0968
  906SOL    HW1 2717   1.307   1.844   0.234 -0.8150  0.0663 -1.8954
  906SOL    HW2 2718   1.439   1.813   0.339 -1.3664  0.2062 -1.1324
  907SOL     OW 2719   0.784   2.966   0.686  0.4218 -0.2086 -0.0484
  907SOL    HW1 2720   0.782   2.944   0.785 -0.0347  3.3612  2.9379
  907SOL    HW2 2721   0.696   2.942   0.646 -1.9534 -0.3147  1.5003
  908SOL     OW 2722   1.328   2.658   2.069  0.6065  0.2811 -0.1763
  908SOL    HW1 2723   1.376   2.613   1.992  0.7050 -0.4309  2.3159
  908SOL    HW2 2724   1.283   2.581   2.116  1.7332 -0.3260  1.1021
  909SOL     OW 2725   2.031   0.432   1.730  0.3939 -0.0807  0.4742
  909SOL    HW1 2726   2.130   0.439   1.743 -3.2613 -0.8886 -2.1749
  909SOL    HW2 2727   1.985   0.419   1.820  0.4755  1.3663  0.4957
  910SOL     OW 2728   1.281   0.784   0.040  0.1126 -0.0466  0.3442
  910SOL    HW1 2729   1.275   0.781   3.013  0.4321 -0.8148 -0.7741
  910SOL    HW2 2730   1.222   0.716   0.084 -1.0342  1.8132 -0.2351
  911SOL     OW 2731   3.059   0.839   2.995 -0.3096 -0.2265  0.3133
  911SOL    HW1 2732   2.983   0.771   2.982 -0.3661  0.6948 -1.6627
  911SOL    HW2 2733   3.022   0.935   2.996 -1.9534 -0.3556 -1.5967
  912SOL     OW 2734   0.173   2.591   0.220 -0.3659  0.3541  0.2033
  912SOL    HW1 2735   0.198   2.502   0.261 -1.3977  0.5231  1.3521
  912SOL    HW2 2736   0.075   2.612   0.229 -1.9085 -1.6757 -0.6141
  913SOL     OW 2737   2.791   2.377   2.446 -0.1162  0.5550  0.0310
  913SOL    HW1 2738   2.882   2.331   2.449  2.7684 -0.4354  0.8207
  913SOL    HW2 2739   2.790   2.472   2.482 -0.1132  2.7084 -3.0751
  914SOL     OW 2740   1.476   2.030   1.491 -0.2667  0.0547  0.6191
  914SOL    HW1 2741   1.534   1.977   1.420  0.9744  2.0244 -2.4252
  914SOL    HW2 2742   1.481   1.992   1.583  0.3414 -0.3725 -2.1394
  915SOL     OW 2743   0.749   2.694   2.137  0.0432  0.0003 -0.5644
  915SOL    HW1 2744   0.717   2.605   2.101 -0.4049  2.7447  2.6121
  915SOL    HW2 2745   0.692   2.771   2.099  0.5977 -1.8135 -0.4009
  916SOL     OW 2746   0.621   1.010   1.880  0.5769  0.4495  0.0127
  916SOL    HW1 2747   0.530   1.020   1.920  0.3148 -0.5557  1.1619
  916SOL    HW2 2748   0.668   0.926   1.921 -0.3752 -1.9647 -1.0895
  917SOL     OW 2749   2.543   0.546   0.497 -0.0571  0.1559  0.9376
  917SOL    HW1 2750   2.519   0.446   0.497  0.3925  0.2370 -0.5410
  917SOL    HW2 2751   2.638   0.553   0.529 -0.2547 -0.9743  0.9159
  918SOL     OW 2752   1.774   2.866   2.139  0.0364  0.1834 -0.5564
  918SOL    HW1 2753   1.785   2.827   2.233 -2.8921  0.8369  1.2644
  918SOL    HW2 2754   1.733   2.963   2.139 -2.8638  0.4893 -0.1848
  919SOL     OW 2755   1.529   2.624   1.632 -1.0009  0.2393  0.3276
  919SOL    HW1 2756   1.458   2.680   1.587  2.2878 -1.1355  0.6447
  919SOL    HW2 2757   1.493   2.560   1.697 -0.1993  2.7451  1.4724
  920SOL     OW 2758   0.625   0.775   0.036  0.8407  0.2152 -0.1339
  920SOL    HW1 2759   0.560   0.848   3.067 -1.2009  2.2475 -3.7298
  920SOL    HW2 2760   0.571   0.688   0.028 -1.7264 -1.0186  0.0906
  921SOL     OW 2761   3.048   0.525   2.938  0.7067  0.2206 -0.5973
  921SOL    HW1 2762   2.951   0.553   2.937  0.0247  1.5701 -3.0474
  921SOL    HW2 2763   3.071   0.477   2.849  2.4703  1.6564 -3.5648
  922SOL     OW 2764   0.744   1.710   0.928  0.5275  0.3614  0.0177
  922SOL    HW1 2765   0.777   1.664   1.010  0.2336  0.2788  1.6645
  922SOL    HW2 2766   0.728   1.805   0.957 -1.1292  0.5882  0.8462
  923SOL     OW 2767   0.586   1.318   1.795  0.3673  0.4956  0.5079
  923SOL    HW1 2768   0.501   1.329   1.849 -0.5848 -2.4642 -1.9200
  923SOL    HW2 2769   0.568   1.238   1.733 -0.8599  0.8543  0.0067
  924SOL     OW 2770   1.571   2.951   2.963  0.0680 -0.3924 -0.4425
  924SOL    HW1 2771   1.611   2.934   3.056  1.1624 -0.4447  0.2569
  924SOL    HW2 2772   1.647   2.961   2.895  1.2730 -0.9028 -1.6998
  925SOL     OW 2773   2.834   1.277   1.308 -0.5205  0.0212 -0.3391
  925SOL    HW1 2774   2.808   1.345   1.239 -0.0727  0.0547 -2.1026
  925SOL    HW2 2775   2.796   1.187   1.282  2.8282  0.5169  0.2080
  926SOL     OW 2776   1.652   0.658   1.290 -0.3503 -0.7097  0.2656
  926SOL    HW1 2777   1.754   0.655   1.307 -0.9458 -0.1750  1.7716
  926SOL    HW2 2778   1.620   0.737   1.345 -0.8464  0.3626  1.5690
  927SOL     OW 2779   1.985   2.932   1.234 -0.0755 -0.0107 -0.2833
  927SOL    HW1 2780   2.038   2.869   1.296  1.0376 -1.2046 -1.8692
  927SOL    HW2 2781   1.937   3.006   1.282  1.7921 -1.6413  3.6655
  928SOL     OW 2782   0.080   1.109   2.313 -0.2620 -0.3709 -0.4828
  928SOL    HW1 2783   0.053   1.162   2.230 -2.0539 -2.1473  1.2630
  928SOL    HW2 2784   0.128   1.022   2.281 -0.0580 -3.4850  1.0617
  929SOL     OW 2785   2.774   0.538   0.819 -0.1325 -0.4112 -0.1223
  929SOL    HW1 2786   2.829   0.555   0.736 -1.2031  0.5399 -0.8114
  929SOL    HW2 2787   2.703   0.611   0.835 -2.2369  2.8668 -1.9030
  930SOL     OW 2788   2.735   2.545   1.866 -0.3796  0.4174  0.1376
  930SOL    HW1 2789   2.746   2.639   1.911  2.1830  1.3483  1.7647
  930SOL    HW2 2790   2.812   2.484   1.889  2.0007 -3.7159 -0.6865
  931SOL     OW 2791   1.985   0.818   1.035 -0.6312  0.0722 -0.3649
  931SOL    HW1 2792   1.883   0.810   1.028  1.9416  2.3289 -1.2142
  931SOL    HW2 2793   2.019   0.850   1.126  4.0305  0.3633  2.0122
  932SOL     OW 2794   0.120   1.236   1.859  0.1895  0.4912 -0.5683
  932SOL    HW1 2795   0.146   1.139   1.835  0.2749  0.4496 -1.2321
  932SOL    HW2 2796   0.199   1.296   1.858 -1.1489 -1.6438 -1.4169
  933SOL     OW 2797   2.861   2.210   1.475 -0.3707  0.2891  0.1154
  933SOL    HW1 2798   2.848   2.304   1.516  0.8576 -0.8750  1.0164
  933SOL    HW2 2799   2.804   2.203   1.393  0.3264  0.6720  1.0869
  934SOL     OW 2800   0.786   2.041   1.389 -0.2978  0.1815  0.0924
  934SOL    HW1 2801   0.834   1.998   1.470  2.1709  0.8203  1.0076
  934SOL    HW2 2802   0.789   2.143   1.395 -1.8049  0.3194 -0.6864
  935SOL     OW 2803   2.996   1.592   1.793 -0.2567  0.0535  0.4746
  935SOL    HW1 2804   2.980   1.499   1.761  1.7221  2.0520 -1.4303
  935SOL    HW2 2805   2.930   1.659   1.750  0.6136 -0.9883 -0.7978
  936SOL     OW 2806   2.562   1.375   1.666 -0.1762  0.3019 -0.4103
  936SOL    HW1 2807   2.623   1.433   1.605  1.8901  2.4758 -1.7339
  936SOL    HW2 2808   2.570   1.407   1.766  1.3962 -2.7991 -0.4566
  937SOL     OW 2809   1.673   0.882   1.466  0.4552  0.9322 -0.0109
  937SOL    HW1 2810   1.616   0.932   1.404  1.6650 -0.1145  1.6942
  937SOL    HW2 2811   1.730   0.941   1.523  0.4578 -1.3697  1.5628
  938SOL     OW 2812   0.661   2.364   2.683 -0.0455 -0.1669 -0.3801
  938SOL    HW1 2813   0.614   2.372   2.594 -0.5372 -1.9783  0.9921
  938SOL    HW2 2814   0.753   2.415   2.689  3.8501  1.4314 -1.0492
  939SOL     OW 2815   2.491   1.603   2.757  0.4190  0.4262 -0.1130
  939SOL    HW1 2816   2.579   1.591   2.812  1.4608 -1.5902  1.4991
  939SOL    HW2 2817   2.488   1.694   2.718 -0.3579 -0.5990  0.7156
  940SOL     OW 2818   1.568   1.731   0.450  0.1098  0.3207 -0.0477
  940SOL    HW1 2819   1.510   1.698   0.527 -1.8740 -1.4580  1.0038
  940SOL    HW2 2820   1.587   1.652   0.389  1.9169 -2.0569  0.8603
  941SOL     OW 2821   2.091   2.725   2.716 -0.2888 -0.0323 -0.8368
  941SOL    HW1 2822   2.143   2.662   2.652  0.5929 -3.2415 -1.6453
  941SOL    HW2 2823   2.133   2.820   2.711 -2.6171 -2.8723  1.1320
  942SOL     OW 2824   0.996   2.639   0.484 -0.0451  0.0564 -0.7817
  942SOL    HW1 2825   1.037   2.546   0.498  0.4338  0.5765 -1.7882
  942SOL    HW2 2826   1.020   2.669   0.391 -0.9356  1.6769  0.1734
  943SOL     OW 2827   2.251   0.876   1.615 -0.0614  0.8769  0.3234
  943SOL    HW1 2828   2.340   0.875   1.659 -3.4321  2.3455 -0.4228
  943SOL    HW2 2829   2.211   0.780   1.581  0.4627 -1.7134 -2.7632
  944SOL     OW 2830   1.173   0.937   2.808  0.0808 -0.1532 -0.0311
  944SOL    HW1 2831   1.136   0.877   2.737  2.2036  0.0755  0.7056
  944SOL    HW2 2832   1.098   0.980   2.858 -0.1787  0.1683 -1.6669
  945SOL     OW 2833   2.695   2.201   1.253  0.0737  0.8051 -0.2690
  945SOL    HW1 2834   2.641   2.115   1.237  1.2247 -0.8927  1.9806
  945SOL    HW2 2835   2.649   2.287   1.231 -0.6324 -1.1820 -3.3997
  946SOL     OW 2836   0.428   0.952   3.022  0.0821 -0.4067 -0.1836
  946SOL    HW1 2837   0.370   1.032   3.051  1.7263  0.1246  1.2491
  946SOL    HW2 2838   0.462   0.968   2.928  0.8865 -1.3685  1.2965
  947SOL     OW 2839   1.895   0.384   1.954 -0.0577  0.3321  0.0422
  947SOL    HW1 2840   1.794   0.378   1.960 -0.3022 -0.7168  0.4446
  947SOL    HW2 2841   1.936   0.299   1.994 -1.1475 -2.3613 -0.1382
  948SOL     OW 2842   3.023   1.916   1.052  0.1961  0.3906 -0.3328
  948SOL    HW1 2843   3.010   1.998   1.108  3.1521  1.8057 -2.8462
  948SOL    HW2 2844   2.935   1.872   1.024  1.5568  1.6547 -2.1367
  949SOL     OW 2845   1.210   1.274   1.687  0.1290  0.0847  0.3166
  949SOL    HW1 2846   1.166   1.186   1.653 -0.8095  0.3126  0.8985
  949SOL    HW2 2847   1.154   1.351   1.652 -0.1808 -0.3796  0.0542
  950SOL     OW 2848   0.204   0.919   0.955 -0.2275  0.6123 -0.2411
  950SOL    HW1 2849   0.260   0.838   0.990 -1.0346 -1.1523 -1.3909
  950SOL    HW2 2850   0.266   0.990   0.910 -0.3501  1.1962  0.0637
  951SOL     OW 2851   0.259   1.709   2.367  0.1219 -0.6206  0.5406
  951SOL    HW1 2852   0.225   1.654   2.446  0.3322  1.7852  1.0284
  951SOL    HW2 2853   0.349   1.750   2.391 -1.5774  1.7036  0.9466
  952SOL     OW 2854   1.611   1.501   0.209  0.1324 -0.1417 -0.7170
  952SOL    HW1 2855   1.572   1.408   0.204  0.7265 -0.7695  0.7586
  952SOL    HW2 2856   1.580   1.559   0.136  2.7692 -0.9140  0.9432
  953SOL     OW 2857   1.057   0.617   0.130  0.4206  0.3365  0.0066
  953SOL    HW1 2858   1.029   0.528   0.085 -1.7018 -1.6662 -0.2916
  953SOL    HW2 2859   0.996   0.695   0.099 -3.2285  0.4915  1.2105
  954SOL     OW 2860   1.953   1.079   0.368 -0.0568 -0.1516  0.4032
  954SOL    HW1 2861   1.995   1.138   0.441  2.6488  0.2913  2.2418
  954SOL    HW2 2862   1.891   1.140   0.314  0.5811  0.0018 -1.6187
  955SOL     OW 2863   2.529   2.575   2.592 -0.4894 -0.2816  0.5254
  955SOL    HW1 2864   2.536   2.676   2.597 -0.0768 -1.1429  0.3275
  955SOL    HW2 2865   2.608   2.533   2.642  0.0735 -1.8584 -0.7938
  956SOL     OW 2866   1.084   0.694   1.531 -0.1775 -0.2311 -0.0491
  956SOL    HW1 2867   1.137   0.609   1.510 -2.4922  2.7027  1.7091
  956SOL    HW2 2868   1.131   0.779   1.506 -1.7050 -2.0594  0.9627
  957SOL     OW 2869   1.675   1.218   1.462 -0.5242 -0.0630 -0.3248
  957SOL    HW1 2870   1.726   1.149   1.516 -1.1560  0.1753 -0.2722
  957SOL    HW2 2871   1.609   1.276   1.519 -1.7988 -2.1255 -0.4836
  958SOL     OW 2872   0.267   1.947   0.416  0.2103 -0.1233  0.2113
  958SOL    HW1 2873   0.286   1.847   0.453  0.3721 -2.7455  3.4147
  958SOL    HW2 2874   0.351   2.007   0.413  1.7817  2.2402 -2.6550
  959SOL     OW 2875   1.883   1.229   1.274  0.4305 -0.4567  0.3850
  959SOL    HW1 2876   1.815   1.232   1.352  1.2165  2.4086  1.4199
  959SOL    HW2 2877   1.950   1.302   1.297 -0.2067  2.3839 -0.9644
  960SOL     OW 2878   0.014   1.460   2.887  0.3883 -0.0731  0.3499
  960SOL    HW1 2879   0.085   1.533   2.908  2.1992 -0.1508  2.0748
  960SOL    HW2 2880   3.013   1.499   2.843  1.6654 -0.6384 -0.1410
  961SOL     OW 2881   1.008   1.701   0.540  0.1619 -0.4374 -0.6077
  961SOL    HW1 2882   0.907   1.712   0.527 -1.6231  0.2562  1.2987
  961SOL    HW2 2883   1.049   1.653   0.457  1.1075  0.1902 -3.6537
  962SOL     OW 2884   0.903   1.097   0.624 -0.2717 -0.0683 -0.4203
  962SOL    HW1 2885   0.977   1.168   0.624 -2.4938 -1.7572  2.2630
  962SOL    HW2 2886   0.818   1.141   0.643  4.0591 -0.9953 -1.3404
  963SOL     OW 2887   1.191   2.067   2.181  0.5168  0.2759 -0.1244
  963SOL    HW1 2888   1.256   2.073   2.258  2.5344  1.4461 -0.0260
  963SOL    HW2 2889   1.167   1.972   2.162  0.2695  0.1532 -2.3622
  964SOL     OW 2890   2.827   2.829   2.770  0.0490  0.0313 -0.0592
  964SOL    HW1 2891   2.822   2.836   2.869  0.7222  0.1740  0.8432
  964SOL    HW2 2892   2.885   2.745   2.745  1.5339 -3.3003 -2.0387
  965SOL     OW 2893   0.724   2.220   0.288 -0.1256  1.0142 -0.2450
  965SOL    HW1 2894   0.722   2.255   0.193  2.2097 -0.0838  4.0417
  965SOL    HW2 2895   0.814   2.219   0.329 -3.6921 -1.6241  0.0593
  966SOL     OW 2896   2.799   1.697   2.877 -0.2241 -0.1014  0.0580
  966SOL    HW1 2897   2.712   1.741   2.908 -1.0476 -1.6216  1.1362
  966SOL    HW2 2898   2.808   1.710   2.777 -3.1806  1.0823  2.4945
  967SOL     OW 2899   2.027   3.059   2.874  0.0222 -0.4609 -0.0911
  967SOL    HW1 2900   2.027   0.075   2.828 -1.5350  0.7396 -0.7629
  967SOL    HW2 2901   2.103   2.999   2.835  1.3779  0.7188 -2.1175
  968SOL     OW 2902   2.139   2.950   0.712 -0.2995  0.1241  0.2496
  968SOL    HW1 2903   2.047   2.911   0.727  3.5137 -0.9842 -0.9499
  968SOL    HW2 2904   2.148   3.034   0.773 -1.8667  0.5037  1.2065
  969SOL     OW 2905   0.842   0.962   2.364  0.2896 -0.1957  0.1581
  969SOL    HW1 2906   0.836   0.860   2.366 -1.2181  0.0250  0.1838
  969SOL    HW2 2907   0.747   1.006   2.381 -2.8531 -0.8521  0.5601
  970SOL     OW 2908   1.582   1.246   0.990  0.1381 -0.2580  0.0708
  970SOL    HW1 2909   1.506   1.189   0.956  2.0757 -0.8286  1.8470
  970SOL    HW2 2910   1.584   1.244   1.088 -0.0202 -0.0445 -0.6282
  971SOL     OW 2911   2.303   0.006   1.484 -0.2804 -0.3649 -0.4035
  971SOL    HW1 2912   2.268   0.066   1.410  2.8103  1.8402  0.9863
  971SOL    HW2 2913   2.402   0.024   1.493  0.6465 -1.5519 -0.2276
  972SOL     OW 2914   2.974   2.961   1.645 -0.0643 -0.3071 -0.5536
  972SOL    HW1 2915   2.964   2.933   1.741 -0.6285  1.1620  0.3852
  972SOL    HW2 2916   2.974   2.884   1.576  1.6522 -1.0272 -0.1548
  973SOL     OW 2917   0.105   0.325   2.692  0.5087 -0.1909 -0.6183
  973SOL    HW1 2918   0.176   0.296   2.760  1.4012  0.4028  0.2322
  973SOL    HW2 2919   0.053   0.244   2.665  0.9138 -2.0745  0.4209
  974SOL     OW 2920   2.326   1.142   2.306 -0.2944 -0.1826  0.2987
  974SOL    HW1 2921   2.367   1.143   2.399 -2.1720 -2.4990  1.7542
  974SOL    HW2 2922   2.241   1.088   2.311  1.1357 -0.6426  0.9475
  975SOL     OW 2923   0.562   0.237   1.527 -0.2608  0.3768 -0.0748
  975SOL    HW1 2924   0.588   0.141   1.507  0.9015  0.7875  1.2854
  975SOL    HW2 2925   0.637   0.305   1.515 -2.5018  2.1213 -1.6246
  976SOL     OW 2926   0.625   1.975   2.204  0.8165  0.0326  0.0933
  976SOL    HW1 2927   0.533   1.998   2.171  0.6655 -1.3765 -1.0053
  976SOL    HW2 2928   0.671   2.051   2.248 -0.3558 -3.3121  0.0532
  977SOL     OW 2929   0.623   0.138   0.472 -0.2912  0.0002 -0.1409
  977SOL    HW1 2930   0.700   0.202   0.458 -0.3240  2.3671  1.3846
  977SOL    HW2 2931   0.559   0.170   0.550 -3.2194  1.0541  0.1747
  978SOL     OW 2932   2.776   1.272   2.082 -0.2403  0.9081 -0.3755
  978SOL    HW1 2933   2.870   1.299   2.072 -4.4481 -1.2383 -0.4517
  978SOL    HW2 2934   2.749   1.282   2.183  1.1862  0.2093  1.0900
  979SOL     OW 2935   1.573   0.192   1.767  0.0779  0.5204 -0.3960
  979SOL    HW1 2936   1.600   0.227   1.672  0.3937 -1.6776  1.9232
  979SOL    HW2 2937   1.589   0.264   1.832  0.9782 -0.8046 -2.5094
  980SOL     OW 2938   1.707   1.584   1.687  0.2517  0.2321  0.4125
  980SOL    HW1 2939   1.777   1.524   1.645 -0.3108  1.5707  3.5162
  980SOL    HW2 2940   1.624   1.603   1.629  0.1332  0.4903  1.1472
  981SOL     OW 2941   2.519   1.017   1.441  0.3432  0.1810  0.4580
  981SOL    HW1 2942   2.461   1.102   1.451  1.5886  1.3748  0.5137
  981SOL    HW2 2943   2.537   0.977   1.532 -1.8717  1.4952 -0.0001
  982SOL     OW 2944   0.501   2.971   2.777  0.3930  0.0436  0.3090
  982SOL    HW1 2945   0.565   2.974   2.857 -2.2455 -1.2041  0.9138
  982SOL    HW2 2946   0.472   2.876   2.754  1.6680  1.5748 -0.9509
  983SOL     OW 2947   2.863   0.507   2.451  0.1204  0.1712 -0.1532
  983SOL    HW1 2948   2.885   0.608   2.460  1.2929  2.7196  0.7522
  983SOL    HW2 2949   2.887   0.485   2.354  0.9535  1.1128 -2.4929
  984SOL     OW 2950   1.227   3.020   1.989 -0.1144 -0.7006 -0.2061
  984SOL    HW1 2951   1.326   3.031   1.960 -0.4002 -0.5904 -1.2090
  984SOL    HW2 2952   1.185   2.937   1.952  0.6927  1.0682 -1.0558
  985SOL     OW 2953   1.909   2.008   2.056 -0.0560 -0.2051  0.1098
  985SOL    HW1 2954   1.877   2.034   1.961  0.0584  2.1145  0.1500
  985SOL    HW2 2955   1.975   1.934   2.047 -4.3845  2.5928  0.4918
  986SOL     OW 2956   2.520   0.439   1.245  0.4183 -0.0671  0.0351
  986SOL    HW1 2957   2.477   0.460   1.336 -0.0031 -0.0470 -1.3532
  986SOL    HW2 2958   2.616   0.417   1.256  0.0940  3.2715  0.7072
  987SOL     OW 2959   2.708   1.061   1.247  0.0801  0.1065 -0.6240
  987SOL    HW1 2960   2.643   1.031   1.321 -0.1034 -0.7416 -2.0029
  987SOL    HW2 2961   2.658   1.055   1.160  3.9682  1.8179  1.6647
  988SOL     OW 2962   2.721   1.216   1.813 -0.3444  0.3208 -0.3862
  988SOL    HW1 2963   2.715   1.215   1.915 -1.0066  1.9729 -1.4310
  988SOL    HW2 2964   2.636   1.260   1.765  1.8304  1.5027  2.5469
  989SOL     OW 2965   1.091   2.385   0.143  0.2243  0.1165  0.1011
  989SOL    HW1 2966   1.143   2.390   0.057 -0.3388 -0.0554 -0.4857
  989SOL    HW2 2967   1.106   2.286   0.173 -0.6947  0.8385  0.3036
  990SOL     OW 2968   1.535   0.678   2.628  0.2000  0.1083  0.9071
  990SOL    HW1 2969   1.502   0.648   2.535  0.5530  2.3270 -0.7055
  990SOL    HW2 2970   1.489   0.764   2.650  0.3882 -0.3536  1.0376
  991SOL     OW 2971   1.255   0.581   0.531  0.1644  0.4667  0.1711
  991SOL    HW1 2972   1.335   0.547   0.574 -3.0759  2.9031 -0.8970
  991SOL    HW2 2973   1.224   0.528   0.446 -1.3099 -0.6226  2.5319
  992SOL     OW 2974   2.763   1.826   1.072 -0.0824 -0.0028  0.4817
  992SOL    HW1 2975   2.733   1.917   1.044  0.5728 -3.2880  2.4564
  992SOL    HW2 2976   2.739   1.810   1.172 -0.3805 -0.8369  0.3338
  993SOL     OW 2977   2.928   0.504   1.026 -0.2258 -0.1939 -0.4288
  993SOL    HW1 2978   2.875   0.520   0.939  0.2673 -0.9894 -0.5764
  993SOL    HW2 2979   3.011   0.459   0.999  0.9841  1.9863  2.0013
  994SOL     OW 2980   0.149   1.907   2.643 -0.6044  0.0942  1.3357
  994SOL    HW1 2981   0.215   1.945   2.708  1.7462  0.3473  0.8813
  994SOL    HW2 2982   0.155   1.965   2.557 -2.1463  2.1615  2.0168
  995SOL     OW 2983   1.892   0.889   2.740  0.3992  0.4396  0.0272
  995SOL    HW1 2984   1.843   0.805   2.773  2.2204 -0.4839 -2.1145
  995SOL    HW2 2985   1.871   0.902   2.640 -1.3473  0.6339 -2.1770
  996SOL     OW 2986   2.716   1.345   0.590 -0.0225 -0.2977  0.3451
  996SOL    HW1 2987   2.626   1.337   0.544 -1.5467 -1.5439 -0.1690
  996SOL    HW2 2988   2.792   1.358   0.528 -2.9173  1.6498 -0.5904
  997SOL     OW 2989   1.788   0.658   2.092  0.1219 -0.1590  0.4359
  997SOL    HW1 2990   1.808   0.696   2.185  1.3009 -1.0165 -1.2901
  997SOL    HW2 2991   1.871   0.672   2.034 -1.8009 -2.1689 -0.2726
  998SOL     OW 2992   2.840   1.594   0.257  0.2727  0.2221  0.1411
  998SOL    HW1 2993   2.777   1.662   0.290 -0.1798  0.9364  0.2025
  998SOL    HW2 2994   2.860   1.523   0.328  0.5482  2.0877 -0.2956
  999SOL     OW 2995   2.964   2.390   0.144  0.2218 -0.0888 -0.3436
  999SOL    HW1 2996   3.042   2.338   0.182 -1.7025  2.7885  2.2293
  999SOL    HW2 2997   2.889   2.400   0.217 -2.8667  0.5018  2.5895
 1000SOL     OW 2998   0.857   0.812   2.649 -0.2669  0.2646 -0.8254
 1000SOL    HW1 2999   0.888   0.781   2.743 -0.0827  2.7813 -1.1354
 1000SOL    HW2 3000   0.919   0.801   2.570  1.1606  0.1571  0.1579
   3.07629   3.07629   3.07629
