1000 SPC/Fw water molecules t= 305.00000 step= 305000
 3000
    1SOL     OW    1   2.704   0.098   0.927 -0.0533 -0.5044  0.0150
    1SOL    HW1    2   2.760   0.098   0.841  0.9809 -4.0926 -0.2959
    1SOL    HW2    3   2.730   0.026   0.988  2.2498  1.4079  0.9248
    2SOL     OW    4   0.100   2.299   0.795  0.2715  0.1830  0.1679
    2SOL    HW1    5   0.110   2.284   0.893 -1.6042 -2.1760 -2.0635
    2SOL    HW2    6   0.147   2.222   0.751  0.6201 -0.0400  1.2457
    3SOL     OW    7   0.707   2.796   2.915  0.4792 -0.2853  0.0512
    3SOL    HW1    8   0.662   2.710   2.951 -0.6361 -2.4973 -0.5073
    3SOL    HW2    9   0.682   2.816   2.816  1.9543 -0.2015 -1.0802
    4SOL     OW   10   1.971   2.327   1.802 -0.6047  0.3808 -0.8923
    4SOL    HW1   11   1.877   2.295   1.822  1.8782  1.2576 -1.3396
    4SOL    HW2   12   2.033   2.249   1.781 -0.5269  0.5999 -0.7949
    5SOL     OW   13   1.700   0.817   1.245 -0.1052  0.3486 -0.1972
    5SOL    HW1   14   1.643   0.847   1.168  1.0067  2.5693 -1.2789
    5SOL    HW2   15   1.658   0.760   1.313 -0.8401  1.2926 -0.4111
    6SOL     OW   16   2.047   2.696   0.199  0.3025  0.1492  0.0874
    6SOL    HW1   17   2.056   2.791   0.238  0.1875  0.7342  0.9897
    6SOL    HW2   18   1.953   2.689   0.161 -0.5583 -0.6956  1.4613
    7SOL     OW   19   2.820   1.367   1.145  0.1221  0.4149  0.1507
    7SOL    HW1   20   2.838   1.448   1.201  1.3942 -1.8165  2.0438
    7SOL    HW2   21   2.744   1.313   1.186 -0.8523 -2.6689 -0.3646
    8SOL     OW   22   1.416   2.526   1.391  0.0068 -0.1337 -0.0008
    8SOL    HW1   23   1.416   2.511   1.494  1.3434 -2.4687  0.2733
    8SOL    HW2   24   1.413   2.441   1.335 -1.4331  1.1020  1.0707
    9SOL     OW   25   1.358   2.980   2.329 -0.5785  0.4221 -0.7397
    9SOL    HW1   26   1.359   2.926   2.417 -0.9460  0.0901 -2.1389
    9SOL    HW2   27   1.343   2.920   2.247  0.6834  2.8388  2.4479
   10SOL     OW   28   0.784   2.042   1.276  0.2097 -0.3451 -0.0547
   10SOL    HW1   29   0.871   2.001   1.244 -1.7084 -3.2654  4.0920
   10SOL    HW2   30   0.767   2.139   1.239 -0.0436  1.7524  0.0494
   11SOL     OW   31   2.061   1.594   1.114 -0.3306  0.1423 -0.1863
   11SOL    HW1   32   2.070   1.660   1.193 -0.2983  1.2930  0.9794
   11SOL    HW2   33   2.080   1.647   1.030  0.8871 -0.0432  0.2266
   12SOL     OW   34   2.472   2.708   1.655  0.2045  0.0324  0.0963
   12SOL    HW1   35   2.505   2.626   1.698 -1.3691  1.7299 -0.3415
   12SOL    HW2   36   2.402   2.754   1.718 -1.4690  1.3162  0.8733
   13SOL     OW   37   2.475   3.052   0.328 -0.5161  0.1180  0.1935
   13SOL    HW1   38   2.496   2.982   0.401 -0.7982 -1.7677 -0.0093
   13SOL    HW2   39   2.516   3.019   0.237  0.0357 -0.5713 -0.8543
   14SOL     OW   40   1.683   2.389   0.737 -0.1428 -0.2145 -0.3859
   14SOL    HW1   41   1.593   2.371   0.700  1.1020 -1.2475  0.3601
   14SOL    HW2   42   1.747   2.309   0.728  1.3966  0.6426 -0.0190
   15SOL     OW   43   2.959   1.782   1.992  0.7037 -0.6359  0.5395
   15SOL    HW1   44   3.028   1.843   1.946  0.2787 -0.8349  0.4274
   15SOL    HW2   45   2.992   1.763   2.086  0.0014  0.4536  2.9109
   16SOL     OW   46   2.037   2.728   0.638  0.0113  0.2939  0.0004
   16SOL    HW1   47   1.955   2.764   0.582  0.5597 -1.0673 -3.6603
   16SOL    HW2   48   2.021   2.724   0.741  0.3711 -0.9988  1.7084
   17SOL     OW   49   0.626   0.216   1.214 -0.5502 -0.0184  0.0053
   17SOL    HW1   50   0.670   0.283   1.280  1.3428  0.2975  1.0641
   17SOL    HW2   51   0.661   0.233   1.120 -0.6303  1.5849 -0.8290
   18SOL     OW   52   1.741   1.147   0.023  0.0857 -0.5802  0.2039
   18SOL    HW1   53   1.741   1.152   0.125 -0.1124  1.6104 -0.7397
   18SOL    HW2   54   1.672   1.080   3.083  0.8362  1.6573 -0.6328
   19SOL     OW   55   1.739   2.066   0.487  0.0110  0.2279  0.3129
   19SOL    HW1   56   1.786   2.104   0.572  0.4381 -0.0569  1.2111
   19SOL    HW2   57   1.796   2.099   0.412 -0.5496  1.0493  4.0510
   20SOL     OW   58   2.432   1.656   2.176  0.3719  0.1286  0.3739
   20SOL    HW1   59   2.478   1.673   2.265 -0.5010  0.0132 -2.0472
   20SOL    HW2   60   2.457   1.729   2.111 -0.8164 -0.9811  0.6993
   21SOL     OW   61   1.819   0.815   0.689 -0.0096 -0.1424 -0.4086
   21SOL    HW1   62   1.737   0.831   0.635 -0.6877 -0.3694  0.2292
   21SOL    HW2   63   1.867   0.724   0.679  1.2788  1.7523  0.6158
   22SOL     OW   64   2.125   3.057   1.482 -0.4789 -0.3667  0.1834
   22SOL    HW1   65   2.126   3.004   1.565 -1.4629  1.6611 -5.2487
   22SOL    HW2   66   2.057   0.034   1.483 -0.5440  0.2041  0.8152
   23SOL     OW   67   2.985   0.438   2.018  0.2491  0.0636 -0.2085
   23SOL    HW1   68   2.899   0.380   2.021 -2.9317 -0.1723  2.0078
   23SOL    HW2   69   2.987   0.497   1.935  0.4508  1.9609  1.1548
   24SOL     OW   70   2.562   2.864   0.493 -0.0404 -0.7121  0.6806
   24SOL    HW1   71   2.538   2.820   0.582 -0.9162 -0.2524  0.4396
   24SOL    HW2   72   2.658   2.895   0.485 -1.1571 -1.8793  1.3983
   25SOL     OW   73   1.377   0.067   2.072  0.0882 -0.7883  0.0241
   25SOL    HW1   74   1.373   0.060   2.174 -1.6880  3.2440 -1.6835
   25SOL    HW2   75   1.465   0.024   2.038  0.0449 -0.3359 -0.0031
   26SOL     OW   76   1.354   2.489   0.355 -0.5488  0.5256  0.4711
   26SOL    HW1   77   1.346   2.409   0.418  0.1085 -0.9207  0.6752
   26SOL    HW2   78   1.412   2.460   0.278 -2.1497  3.0587 -1.9142
   27SOL     OW   79   2.376   1.611   0.256  0.0417  0.1193  0.0669
   27SOL    HW1   80   2.304   1.679   0.271  3.4265  1.4329 -0.3165
   27SOL    HW2   81   2.400   1.599   0.155 -1.6945 -3.3821  2.1951
   28SOL     OW   82   0.673   1.568   1.603  0.0551  0.2554 -0.5836
   28SOL    HW1   83   0.699   1.473   1.638 -1.4605 -2.1738 -0.3650
   28SOL    HW2   84   0.715   1.582   1.513 -2.6742 -0.7656 -0.2332
   29SOL     OW   85   2.275   2.343   1.617 -0.4705  0.8215  0.1891
   29SOL    HW1   86   2.178   2.339   1.594  3.0255  0.1843 -0.4429
   29SOL    HW2   87   2.315   2.389   1.537 -1.8445 -1.5062 -0.8046
   30SOL     OW   88   1.457   0.430   1.045 -0.6960 -0.6589  0.4042
   30SOL    HW1   89   1.403   0.502   1.002  2.6397 -0.5214 -0.7340
   30SOL    HW2   90   1.549   0.417   0.994  2.2094 -1.3063 -1.7567
   31SOL     OW   91   1.896   2.719   1.822 -0.1770 -0.5448 -0.0962
   31SOL    HW1   92   1.901   2.814   1.860  2.5374  0.5207 -3.2894
   31SOL    HW2   93   1.953   2.650   1.873  3.0499  0.6062 -0.7371
   32SOL     OW   94   1.097   1.623   0.720  0.5303  0.3681  0.3839
   32SOL    HW1   95   1.044   1.533   0.735  0.4760 -1.2325 -3.1484
   32SOL    HW2   96   1.058   1.675   0.644 -1.1046  1.1085  0.4099
   33SOL     OW   97   0.309   0.441   2.586 -0.1408 -0.2333  0.2960
   33SOL    HW1   98   0.364   0.357   2.570  1.1230  0.3447 -2.2417
   33SOL    HW2   99   0.236   0.457   2.517 -3.1341  1.1089 -0.8761
   34SOL     OW  100   1.869   0.020   0.581 -0.7926 -0.3477  0.6035
   34SOL    HW1  101   1.845   0.019   0.680 -2.8558 -0.9422 -0.9781
   34SOL    HW2  102   1.968   0.002   0.569 -1.9089 -0.1271 -0.2379
   35SOL     OW  103   2.105   2.536   1.245 -0.2425  0.3136  0.0364
   35SOL    HW1  104   2.106   2.633   1.285  0.7367  0.4361 -0.5699
   35SOL    HW2  105   2.020   2.521   1.194  2.7985  1.0154  0.8056
   36SOL     OW  106   1.841   2.489   2.799  0.4830 -0.1550  0.0370
   36SOL    HW1  107   1.816   2.391   2.802 -0.4997  3.0333  0.0998
   36SOL    HW2  108   1.905   2.500   2.723  1.3739  0.3615  1.2113
   37SOL     OW  109   0.953   0.041   1.974  0.3835 -0.1023 -0.3706
   37SOL    HW1  110   0.963   0.092   2.063  0.8312  0.5217  1.1890
   37SOL    HW2  111   1.040   0.055   1.920 -2.4832  1.8382 -1.0835
   38SOL     OW  112   0.182   0.108   2.503  0.2643 -0.3349  0.3318
   38SOL    HW1  113   0.163   0.055   2.418  4.3485  1.0933 -0.8198
   38SOL    HW2  114   0.276   0.154   2.493  2.2063  0.7163 -0.2022
   39SOL     OW  115   2.379   1.073   1.646  0.2039  0.2103  0.0037
   39SOL    HW1  116   2.368   1.093   1.747 -1.9520 -0.7453  1.9029
   39SOL    HW2  117   2.347   1.161   1.593  0.0965  4.2433 -3.3320
   40SOL     OW  118   1.205   2.989   0.263  0.3504  0.3764  1.2107
   40SOL    HW1  119   1.249   3.078   0.295 -0.3560  0.3146  1.8839
   40SOL    HW2  120   1.107   2.987   0.299  0.0956  2.6543  1.6311
   41SOL     OW  121   2.494   1.514   0.997  0.1643 -0.5005 -0.2152
   41SOL    HW1  122   2.474   1.478   1.087 -1.2238  1.2089  1.3059
   41SOL    HW2  123   2.550   1.455   0.937 -0.0963  0.8742 -0.3371
   42SOL     OW  124   0.939   0.404   1.179 -0.3799  0.3783 -0.5815
   42SOL    HW1  125   0.863   0.414   1.245  2.4203 -2.0042  1.7881
   42SOL    HW2  126   0.924   0.453   1.092 -1.2140  2.1051  0.9805
   43SOL     OW  127   2.958   1.372   2.500  0.1891 -0.5438 -0.0701
   43SOL    HW1  128   2.869   1.344   2.541  1.5816  5.0032 -0.7430
   43SOL    HW2  129   2.999   1.442   2.563 -1.5698 -1.3116  0.4643
   44SOL     OW  130   2.328   0.036   1.797 -0.0677  0.1808 -0.0929
   44SOL    HW1  131   2.411   0.013   1.738  0.6025 -2.9729 -2.0668
   44SOL    HW2  132   2.360   0.060   1.888  1.3992  0.5131 -1.1463
   45SOL     OW  133   0.729   3.009   1.988  0.2913 -0.0711 -0.3891
   45SOL    HW1  134   0.671   3.097   1.975 -0.0648  2.3884 -1.7648
   45SOL    HW2  135   0.831   3.029   1.974  2.3296 -0.7230 -1.0510
   46SOL     OW  136   1.322   2.872   2.611 -0.1188  0.2465 -0.7381
   46SOL    HW1  137   1.405   2.811   2.607  1.8084  0.5690 -1.1293
   46SOL    HW2  138   1.247   2.824   2.666  0.6276  0.6082 -1.0284
   47SOL     OW  139   1.760   1.796   0.474 -0.5158 -0.0682  0.4517
   47SOL    HW1  140   1.761   1.898   0.489  0.2234  0.4010  0.0734
   47SOL    HW2  141   1.669   1.758   0.441 -1.4905 -2.2916 -0.6199
   48SOL     OW  142   1.140   2.186   0.490  0.0365  0.2647  0.6944
   48SOL    HW1  143   1.041   2.201   0.451 -0.0358  1.5745 -0.7139
   48SOL    HW2  144   1.178   2.104   0.444 -2.1260  1.2005 -0.6520
   49SOL     OW  145   2.340   2.727   2.569  0.1777 -0.1353  0.2441
   49SOL    HW1  146   2.374   2.762   2.473  0.0679 -0.5864 -2.5770
   49SOL    HW2  147   2.348   2.793   2.648  1.6366  0.2784  0.1354
   50SOL     OW  148   1.619   0.151   0.152  0.2761 -0.5122  0.0575
   50SOL    HW1  149   1.666   0.147   0.243  2.7323 -3.3024  1.4350
   50SOL    HW2  150   1.559   0.234   0.149  0.7476 -0.6440  1.5796
   51SOL     OW  151   2.257   0.930   0.737  0.3328 -0.2242  0.5585
   51SOL    HW1  152   2.212   0.933   0.829  0.9757 -2.2686 -1.9777
   51SOL    HW2  153   2.307   0.841   0.730 -3.0257  0.7796  0.7266
   52SOL     OW  154   1.367   1.564   1.082 -0.3174 -0.9421 -0.0241
   52SOL    HW1  155   1.459   1.557   1.126  1.1244 -0.9391 -3.8865
   52SOL    HW2  156   1.293   1.566   1.153 -1.6703  0.3263  0.3175
   53SOL     OW  157   0.943   1.670   2.530 -0.4301  0.7819  0.0284
   53SOL    HW1  158   0.876   1.745   2.519  0.4326 -0.9649  1.6509
   53SOL    HW2  159   1.031   1.694   2.576 -2.0263 -0.5941  2.3361
   54SOL     OW  160   2.637   0.647   1.476 -0.1871 -0.0758 -0.0108
   54SOL    HW1  161   2.598   0.727   1.533 -1.1635  1.9884  2.8166
   54SOL    HW2  162   2.563   0.578   1.457  0.3038  2.9804  2.3146
   55SOL     OW  163   2.673   2.002   0.664 -0.2060 -0.2124 -0.1419
   55SOL    HW1  164   2.727   1.922   0.627  2.2690 -1.3826  1.1549
   55SOL    HW2  165   2.733   2.083   0.648  0.2476  1.0304 -1.4586
   56SOL     OW  166   1.025   0.431   2.068  1.4891 -0.9276 -0.5291
   56SOL    HW1  167   1.114   0.382   2.056  1.1018  0.7465 -1.3861
   56SOL    HW2  168   0.990   0.464   1.977 -3.0891 -0.4856  0.3154
   57SOL     OW  169   1.259   1.301   3.030 -0.2140  0.4283 -0.4711
   57SOL    HW1  170   1.283   1.390   2.980  0.7253 -0.0312 -1.2727
   57SOL    HW2  171   1.239   1.225   2.963 -0.6242  2.9119 -0.8989
   58SOL     OW  172   3.011   0.596   1.807  0.6583  0.2375 -0.1767
   58SOL    HW1  173   3.000   0.695   1.788  0.1401 -2.3437  0.9128
   58SOL    HW2  174   3.047   0.547   1.725 -1.7883  1.5526 -0.7951
   59SOL     OW  175   1.607   3.004   0.052  0.0606  0.1489  0.0891
   59SOL    HW1  176   1.682   2.986   3.083 -2.8393 -3.2018  0.0764
   59SOL    HW2  177   1.606   0.002   0.092  1.9674 -1.9905  2.5330
   60SOL     OW  178   3.020   1.885   0.179 -0.2726 -0.0396  0.3792
   60SOL    HW1  179   2.998   1.956   0.251 -1.7630 -0.6142 -1.1648
   60SOL    HW2  180   2.954   1.808   0.173  0.1251  2.4975  0.3595
   61SOL     OW  181   1.009   3.013   0.838  0.5544 -0.0452 -0.4552
   61SOL    HW1  182   1.106   2.985   0.822 -0.0386 -0.2002  3.5672
   61SOL    HW2  183   0.954   2.930   0.860  1.0057 -1.5055  1.0966
   62SOL     OW  184   2.033   2.106   2.713  0.0038  0.1925 -0.5539
   62SOL    HW1  185   1.951   2.162   2.737 -1.2233  0.2219  0.9958
   62SOL    HW2  186   2.021   2.063   2.625  0.1529  0.1697  0.4243
   63SOL     OW  187   2.439   2.495   0.708  0.0427 -0.0892  0.2503
   63SOL    HW1  188   2.382   2.580   0.703  1.3964  2.6475 -1.2974
   63SOL    HW2  189   2.521   2.497   0.648  2.6537 -1.7235 -0.7797
   64SOL     OW  190   1.352   0.884   2.413 -0.1439 -0.2583  0.4232
   64SOL    HW1  191   1.262   0.905   2.459 -1.0265  1.5687  2.7628
   64SOL    HW2  192   1.364   0.781   2.404  2.3747 -0.7753  0.5980
   65SOL     OW  193   1.872   1.678   2.496  0.3599 -0.3476 -0.1504
   65SOL    HW1  194   1.797   1.632   2.545 -0.1198 -0.0767  1.9275
   65SOL    HW2  195   1.838   1.732   2.423  1.9281 -3.2068  1.1317
   66SOL     OW  196   0.208   0.816   1.760  0.2649 -0.3988  0.0934
   66SOL    HW1  197   0.199   0.898   1.818  0.0182  0.9958  0.2987
   66SOL    HW2  198   0.304   0.780   1.757 -0.9307 -1.3334 -0.8421
   67SOL     OW  199   2.374   2.946   2.749 -0.0926 -0.0336  0.2810
   67SOL    HW1  200   2.365   2.927   2.853  0.4925 -0.2665  2.3237
   67SOL    HW2  201   2.445   3.011   2.726 -2.0173 -1.9814 -0.2160
   68SOL     OW  202   1.212   2.886   1.206  0.0480 -1.0526 -0.0751
   68SOL    HW1  203   1.133   2.907   1.273  0.0484 -0.4799  0.4034
   68SOL    HW2  204   1.201   2.795   1.167  2.9981 -0.3699 -1.0983
   69SOL     OW  205   0.523   2.607   0.145 -0.4779  0.2724  0.0753
   69SOL    HW1  206   0.590   2.558   0.084 -1.9843 -1.5625  0.9398
   69SOL    HW2  207   0.532   2.586   0.245 -2.6437  2.0732  1.6386
   70SOL     OW  208   2.421   0.017   2.363 -0.2534 -0.2398 -0.0685
   70SOL    HW1  209   2.400   0.060   2.450 -2.1319 -2.6002 -0.8575
   70SOL    HW2  210   2.402   3.014   2.366  0.3875 -0.8579 -1.7060
   71SOL     OW  211   0.466   1.118   2.606 -0.1766 -0.2345 -0.0268
   71SOL    HW1  212   0.386   1.121   2.671 -1.1001 -0.0938 -0.1337
   71SOL    HW2  213   0.546   1.174   2.640  0.5043  0.4603  2.1080
   72SOL     OW  214   2.952   2.204   3.051 -0.1128  0.3302 -0.0540
   72SOL    HW1  215   2.878   2.272   3.029  0.6379  0.8619 -0.7538
   72SOL    HW2  216   2.947   2.120   2.992 -0.8679 -0.4442 -0.5512
   73SOL     OW  217   1.485   1.140   0.583 -0.4800  0.6036  0.2583
   73SOL    HW1  218   1.555   1.216   0.585  1.1629  0.5562  1.5384
   73SOL    HW2  219   1.415   1.164   0.512  1.1745 -1.6619 -0.7547
   74SOL     OW  220   2.309   2.563   2.882 -0.3958  0.0595  0.3695
   74SOL    HW1  221   2.266   2.473   2.872 -4.0044  1.2078  0.1192
   74SOL    HW2  222   2.294   2.600   2.974 -0.4953  2.0311 -0.3814
   75SOL     OW  223   2.258   1.879   0.748 -0.3019  0.6615  0.3761
   75SOL    HW1  224   2.287   1.965   0.783 -0.6806 -2.7831  1.9580
   75SOL    HW2  225   2.324   1.802   0.770 -3.1301 -3.4054  3.3744
   76SOL     OW  226   2.029   2.323   1.463  0.1413 -0.1063 -0.7310
   76SOL    HW1  227   2.049   2.403   1.405 -1.0717  0.4570  0.5416
   76SOL    HW2  228   1.951   2.334   1.528 -0.6205  0.4496  1.2335
   77SOL     OW  229   2.266   2.984   2.127  0.0545  0.6159 -0.0884
   77SOL    HW1  230   2.310   3.075   2.124 -0.1510  0.8069  0.2107
   77SOL    HW2  231   2.302   2.921   2.051  2.1596  2.0129  0.5882
   78SOL     OW  232   1.596   0.960   3.023 -0.0065 -0.1652 -0.3945
   78SOL    HW1  233   1.496   0.935   3.024 -1.5022  0.8795 -1.2264
   78SOL    HW2  234   1.651   0.886   2.981  2.2535 -0.7854 -1.2075
   79SOL     OW  235   2.250   1.341   2.476  0.3835 -0.5424  0.0672
   79SOL    HW1  236   2.345   1.363   2.453 -3.1044  1.8764 -1.7986
   79SOL    HW2  237   2.184   1.422   2.486  1.2672  2.0866  0.7718
   80SOL     OW  238   2.084   1.571   1.526  0.6367 -0.0275  0.0504
   80SOL    HW1  239   2.128   1.496   1.473 -1.7846  0.8030 -1.8822
   80SOL    HW2  240   2.126   1.572   1.621 -0.8207  0.8926 -0.1162
   81SOL     OW  241   1.586   0.472   1.407  0.3933 -0.2480 -0.3723
   81SOL    HW1  242   1.549   0.565   1.422  0.2715  0.2824 -0.6588
   81SOL    HW2  243   1.519   0.401   1.393  3.5951  4.1605 -0.4774
   82SOL     OW  244   1.771   2.385   1.580 -0.0614  0.1499 -0.0508
   82SOL    HW1  245   1.723   2.298   1.605 -1.8039 -0.9766  2.6173
   82SOL    HW2  246   1.824   2.420   1.662  1.4152 -0.1011  0.5897
   83SOL     OW  247   0.169   0.123   0.413 -0.4942  0.1119 -0.1555
   83SOL    HW1  248   0.271   0.140   0.403  1.7653  0.0483  1.7665
   83SOL    HW2  249   0.116   0.207   0.395  0.8188  0.6853  3.1562
   84SOL     OW  250   0.523   0.936   0.203  0.1574  0.5376  0.6193
   84SOL    HW1  251   0.620   0.968   0.197 -2.4508  0.5075  0.2662
   84SOL    HW2  252   0.515   0.835   0.185 -1.8432 -1.6961 -1.0952
   85SOL     OW  253   2.740   2.085   1.716  0.2927 -0.2895 -0.1781
   85SOL    HW1  254   2.840   2.107   1.714 -0.2292 -2.4615 -1.3265
   85SOL    HW2  255   2.725   1.989   1.740 -1.5811 -0.4507 -0.7987
   86SOL     OW  256   0.096   2.721   1.263 -0.0900 -0.3916 -0.1083
   86SOL    HW1  257   0.115   2.621   1.266  0.4050  0.9833 -0.3034
   86SOL    HW2  258   0.156   2.767   1.332 -0.0975  2.3820 -1.5432
   87SOL     OW  259   0.544   0.148   2.232  0.0283 -0.7384 -0.1550
   87SOL    HW1  260   0.584   0.230   2.279 -2.6309 -0.9828  1.2401
   87SOL    HW2  261   0.551   0.070   2.294  0.6857  4.2148 -2.4824
   88SOL     OW  262   0.418   2.094   0.950 -0.2393  0.4818  0.2591
   88SOL    HW1  263   0.454   2.185   0.971 -0.5585 -0.2584 -1.1544
   88SOL    HW2  264   0.483   2.041   0.890  0.4018 -2.0801  0.8516
   89SOL     OW  265   0.880   0.718   1.595  0.1704  0.6018 -0.0344
   89SOL    HW1  266   0.980   0.727   1.591 -3.5739 -2.2643 -0.7248
   89SOL    HW2  267   0.855   0.620   1.608  0.0595  1.2769  1.4230
   90SOL     OW  268   2.814   0.957   1.677 -0.7053  0.1144  0.0512
   90SOL    HW1  269   2.915   0.929   1.654  1.0899  0.3896  1.4324
   90SOL    HW2  270   2.796   0.982   1.773 -0.1406  2.4315 -0.3758
   91SOL     OW  271   1.450   1.142   1.140  0.4362  0.0822  0.0404
   91SOL    HW1  272   1.428   1.097   1.050 -2.4561 -2.5294 -2.0199
   91SOL    HW2  273   1.549   1.169   1.146 -0.6539  0.5098  1.4587
   92SOL     OW  274   2.583   1.165   1.041  0.0646 -0.1429  0.3180
   92SOL    HW1  275   2.575   1.234   0.970  0.9340 -1.4244  0.8842
   92SOL    HW2  276   2.498   1.109   1.037 -1.1093 -1.3565 -2.0520
   93SOL     OW  277   2.497   0.694   2.502  0.6871 -0.6338 -0.1163
   93SOL    HW1  278   2.485   0.594   2.468 -0.2604 -1.2860 -0.6966
   93SOL    HW2  279   2.415   0.754   2.492 -0.6345 -2.7483  0.8702
   94SOL     OW  280   2.309   1.791   2.458 -0.0316 -0.1565 -0.5620
   94SOL    HW1  281   2.249   1.825   2.381  0.7100  1.4611 -1.5806
   94SOL    HW2  282   2.327   1.872   2.520  2.0857  2.3844 -0.6392
   95SOL     OW  283   2.274   0.660   1.016 -0.2783 -0.4175 -0.0458
   95SOL    HW1  284   2.262   0.580   1.076  1.7169 -0.9455  3.5797
   95SOL    HW2  285   2.350   0.721   1.051 -0.1982 -0.0229  1.9740
   96SOL     OW  286   2.581   2.900   1.884 -0.0303  0.5051  0.2848
   96SOL    HW1  287   2.484   2.883   1.882  1.2945 -1.4525  0.7127
   96SOL    HW2  288   2.610   2.946   1.795 -3.5150  0.5845 -0.3910
   97SOL     OW  289   2.572   0.906   1.327  0.4052 -0.1793 -0.0954
   97SOL    HW1  290   2.637   0.980   1.299 -3.2042 -0.0267 -1.4412
   97SOL    HW2  291   2.579   0.877   1.421  3.2669  2.7767 -0.7093
   98SOL     OW  292   1.530   2.193   1.698 -0.4373 -0.3293  0.2398
   98SOL    HW1  293   1.476   2.165   1.615  2.9890  0.6970 -0.2162
   98SOL    HW2  294   1.506   2.289   1.722  0.1868 -1.1521 -0.5367
   99SOL     OW  295   2.480   2.269   1.795 -1.0283  0.1246 -0.1556
   99SOL    HW1  296   2.554   2.211   1.750  1.6340  1.5683 -1.3631
   99SOL    HW2  297   2.413   2.295   1.728  0.9176 -0.9172  1.8532
  100SOL     OW  298   0.958   0.790   2.832 -0.3954 -0.3573 -0.5087
  100SOL    HW1  299   0.967   0.752   2.926 -1.9794 -1.5563 -0.3886
  100SOL    HW2  300   0.959   0.887   2.828  2.6610 -4.9397  0.0181
  101SOL     OW  301   2.200   0.352   2.812  0.0697 -0.1798  0.8560
  101SOL    HW1  302   2.130   0.280   2.792  1.0314  0.0465  0.3579
  101SOL    HW2  303   2.184   0.387   2.906  0.9099  0.1412 -3.4181
  102SOL     OW  304   0.551   0.559   1.680  0.4502  0.4029 -0.0151
  102SOL    HW1  305   0.576   0.655   1.659 -0.9328  0.1197 -0.3271
  102SOL    HW2  306   0.493   0.554   1.764 -1.2714 -1.0317 -0.6876
  103SOL     OW  307   0.475   0.354   2.952 -0.3977  0.1609  0.3893
  103SOL    HW1  308   0.571   0.367   2.915  0.0685 -1.9474 -0.4049
  103SOL    HW2  309   0.415   0.430   2.928  3.9046  0.0407  0.9437
  104SOL     OW  310   0.887   0.279   2.509 -0.1174 -0.0377  0.3408
  104SOL    HW1  311   0.942   0.321   2.589  0.9262  5.0156 -0.5010
  104SOL    HW2  312   0.854   0.185   2.531  1.8785  1.7100 -2.5118
  105SOL     OW  313   2.309   1.907   1.728  0.0298  0.3443  0.3023
  105SOL    HW1  314   2.267   1.819   1.703 -1.3808 -0.2934 -0.6191
  105SOL    HW2  315   2.360   1.896   1.813 -2.8372 -0.6058 -3.1054
  106SOL     OW  316   1.813   0.624   0.409  0.5678 -0.6521  0.1589
  106SOL    HW1  317   1.779   0.528   0.428 -4.3149  3.0488 -1.8161
  106SOL    HW2  318   1.901   0.647   0.452 -2.3289 -1.5903 -2.1034
  107SOL     OW  319   2.928   2.000   0.849  0.2331  0.3251 -0.1030
  107SOL    HW1  320   2.927   2.075   0.777  1.1612 -0.0230 -1.2896
  107SOL    HW2  321   2.994   1.926   0.817  1.8150  1.4510 -1.4692
  108SOL     OW  322   2.582   2.512   1.818  0.5960 -0.2451  0.0502
  108SOL    HW1  323   2.599   2.540   1.915 -1.3499 -1.9474  1.3082
  108SOL    HW2  324   2.562   2.413   1.807  0.6725 -0.7298  0.9513
  109SOL     OW  325   2.023   2.712   0.912 -0.6763 -0.1873 -0.2031
  109SOL    HW1  326   1.949   2.640   0.910  1.1094  1.0410  0.0998
  109SOL    HW2  327   1.991   2.793   0.964 -1.1495  2.7876  1.0401
  110SOL     OW  328   0.762   1.868   2.531 -0.6406 -0.4519 -0.2729
  110SOL    HW1  329   0.673   1.848   2.575 -1.9144  1.9406  0.4696
  110SOL    HW2  330   0.772   1.970   2.520  1.3228  3.9399  0.1274
  111SOL     OW  331   1.732   2.200   1.908  0.5806  0.0843 -0.5049
  111SOL    HW1  332   1.638   2.176   1.877 -0.5491  0.7496  0.5029
  111SOL    HW2  333   1.794   2.119   1.900 -1.0654 -1.8789  3.1974
  112SOL     OW  334   1.979   1.897   0.010 -0.2751  0.3218 -0.1389
  112SOL    HW1  335   2.042   1.909   0.090  1.4071  2.1936  0.0017
  112SOL    HW2  336   1.954   1.990   3.070  1.2330 -1.2636  0.9408
  113SOL     OW  337   1.740   2.078   1.332 -0.2857 -0.6309 -0.1360
  113SOL    HW1  338   1.749   1.992   1.283  1.2516  0.8467  1.8128
  113SOL    HW2  339   1.767   2.075   1.434  0.3752  0.7846  2.5042
  114SOL     OW  340   2.908   1.197   0.685 -0.1258  0.0044 -0.0710
  114SOL    HW1  341   2.888   1.277   0.743  2.6420 -1.2948 -1.9021
  114SOL    HW2  342   2.869   1.208   0.588 -0.8761 -0.3348 -1.3246
  115SOL     OW  343   0.805   0.584   0.179  0.0861  0.1931  0.1122
  115SOL    HW1  344   0.717   0.628   0.188  0.0164 -1.9979 -0.1976
  115SOL    HW2  345   0.780   0.484   0.185 -1.4664 -1.3116 -0.7777
  116SOL     OW  346   2.508   1.388   2.434  0.0401  0.2578 -0.2044
  116SOL    HW1  347   2.566   1.351   2.508 -0.5138 -0.8840 -0.2493
  116SOL    HW2  348   2.527   1.490   2.422  1.3308 -0.8047 -1.4282
  117SOL     OW  349   0.166   0.091   0.707 -0.1733  0.6545  0.4158
  117SOL    HW1  350   0.149   0.118   0.609  2.1795  0.1519 -1.4306
  117SOL    HW2  351   0.147   3.090   0.724 -0.0157  0.4302  1.1863
  118SOL     OW  352   1.098   1.881   2.730  0.5329 -0.2433 -0.3610
  118SOL    HW1  353   1.132   1.804   2.784 -0.5648  0.5238  1.4614
  118SOL    HW2  354   1.013   1.921   2.768 -0.3152  1.0890 -1.9781
  119SOL     OW  355   0.427   2.307   0.378  0.1476 -0.2797  0.1198
  119SOL    HW1  356   0.507   2.340   0.434 -1.3494 -0.7347 -0.4493
  119SOL    HW2  357   0.373   2.388   0.350  0.7251 -0.9691 -1.9668
  120SOL     OW  358   1.347   0.893   3.007 -0.3433 -0.1219 -0.7657
  120SOL    HW1  359   1.322   0.850   2.915  0.2638  0.3139 -4.0389
  120SOL    HW2  360   1.260   0.897   3.063 -0.6237 -0.6751  1.3195
  121SOL     OW  361   1.369   2.696   0.823  0.4770  0.2581 -0.0513
  121SOL    HW1  362   1.373   2.591   0.804 -0.6290 -1.3974  1.9311
  121SOL    HW2  363   1.466   2.733   0.832  3.5739 -0.2268 -1.7079
  122SOL     OW  364   2.336   2.484   1.387 -0.0497 -0.3243 -0.0921
  122SOL    HW1  365   2.360   2.564   1.447 -0.7966  2.8348 -2.8380
  122SOL    HW2  366   2.262   2.512   1.318 -0.1426  2.3646 -0.3052
  123SOL     OW  367   0.608   2.066   0.490 -0.2484 -0.0883  0.5525
  123SOL    HW1  368   0.579   2.161   0.490 -0.7713 -2.9588 -0.4091
  123SOL    HW2  369   0.544   2.008   0.434  2.1257  0.4422 -0.4032
  124SOL     OW  370   2.511   0.699   0.113  0.3203 -0.6873 -0.1865
  124SOL    HW1  371   2.436   0.628   0.109 -1.3188 -1.7925 -1.2507
  124SOL    HW2  372   2.597   0.673   0.062 -1.5211  1.4714 -1.0881
  125SOL     OW  373   0.429   0.971   0.461 -0.2202  0.0365  0.2846
  125SOL    HW1  374   0.486   0.912   0.520  1.9027  0.9348  0.4931
  125SOL    HW2  375   0.436   0.939   0.367  3.4386  1.9065  2.6695
  126SOL     OW  376   0.156   1.841   1.042  0.4576 -0.1605 -0.3551
  126SOL    HW1  377   0.232   1.775   1.024 -2.5391  1.3172 -0.7072
  126SOL    HW2  378   0.201   1.930   1.074  2.6580 -0.4532  0.0279
  127SOL     OW  379   0.957   2.063   2.124  0.4898  0.0123  0.0437
  127SOL    HW1  380   0.916   1.970   2.126  2.4215  1.5138  3.3451
  127SOL    HW2  381   0.996   2.085   2.034  3.3516 -0.4236 -1.3344
  128SOL     OW  382   1.060   1.119   0.230  0.0626  0.3374  0.3562
  128SOL    HW1  383   1.059   1.204   0.170  2.5278  1.9907 -0.1578
  128SOL    HW2  384   1.141   1.114   0.287 -1.0262  0.3624 -1.7228
  129SOL     OW  385   2.247   1.189   0.651 -0.1747 -0.0602 -0.0902
  129SOL    HW1  386   2.271   1.247   0.726 -1.8466 -2.9650  1.4065
  129SOL    HW2  387   2.270   1.093   0.675 -0.1673 -0.1227 -0.0045
  130SOL     OW  388   2.586   1.596   1.408  0.6416  0.4974  0.5005
  130SOL    HW1  389   2.679   1.622   1.372 -0.7994 -0.9595  1.8188
  130SOL    HW2  390   2.543   1.520   1.351 -1.1934  0.7770  1.5048
  131SOL     OW  391   0.040   2.985   2.944  0.3860  0.9046  0.3080
  131SOL    HW1  392   3.077   3.059   2.980  1.0399  0.2820  0.9774
  131SOL    HW2  393   0.098   3.018   2.874  0.4203 -1.0889  3.5346
  132SOL     OW  394   0.278   1.484   0.747  0.5097  0.0993  0.2308
  132SOL    HW1  395   0.322   1.397   0.763 -0.3365  1.2039 -1.6796
  132SOL    HW2  396   0.190   1.463   0.701 -1.9052  1.1843  1.9181
  133SOL     OW  397   0.792   0.437   1.591  0.5206  0.1938 -0.0318
  133SOL    HW1  398   0.695   0.464   1.616 -1.2108  2.0776 -1.8948
  133SOL    HW2  399   0.835   0.371   1.660  2.2129  2.4711  2.7956
  134SOL     OW  400   0.157   1.762   2.826 -0.1710  0.2734 -0.2801
  134SOL    HW1  401   0.096   1.776   2.906  2.1573 -1.3539  0.5602
  134SOL    HW2  402   0.220   1.841   2.811  1.8466 -0.2812 -0.9413
  135SOL     OW  403   1.549   0.319   1.669 -0.4151  0.9879 -0.1026
  135SOL    HW1  404   1.606   0.388   1.627 -3.7444  0.7503  3.1248
  135SOL    HW2  405   1.545   0.339   1.767  0.3153 -1.1061 -1.1755
  136SOL     OW  406   0.027   1.186   0.236  0.2589 -0.1157  0.3121
  136SOL    HW1  407   0.083   1.151   0.314 -0.9693 -1.8620  0.1372
  136SOL    HW2  408   3.036   1.136   0.228 -3.2678  1.0359  0.2684
  137SOL     OW  409   0.152   1.198   0.989  0.0732  0.2548  0.0678
  137SOL    HW1  410   0.189   1.187   0.892  1.0789 -1.7802 -2.5796
  137SOL    HW2  411   0.125   1.292   1.012 -0.4219 -0.3152 -0.2840
  138SOL     OW  412   2.005   0.680   1.082 -0.0781 -0.2323  0.2506
  138SOL    HW1  413   2.096   0.688   1.031  1.9020 -0.7110 -2.9200
  138SOL    HW2  414   1.916   0.678   1.025 -0.7675 -0.0291  0.3329
  139SOL     OW  415   1.487   2.764   0.454  0.3010  0.0853 -0.9277
  139SOL    HW1  416   1.489   2.681   0.509 -0.7072 -1.0609 -0.7106
  139SOL    HW2  417   1.422   2.758   0.372 -2.3039  1.3367 -2.6442
  140SOL     OW  418   1.429   1.549   1.779 -0.0404 -0.0312  0.1423
  140SOL    HW1  419   1.424   1.644   1.823  3.1559  0.6743 -0.3396
  140SOL    HW2  420   1.336   1.505   1.765  1.1929 -2.1155  1.3895
  141SOL     OW  421   1.493   2.111   0.414 -0.0808  0.3857 -0.1620
  141SOL    HW1  422   1.589   2.089   0.439  2.1477  0.3182 -1.4817
  141SOL    HW2  423   1.430   2.035   0.440 -0.8925 -0.0395 -0.6236
  142SOL     OW  424   1.135   0.519   0.195 -0.2671 -0.1316  0.1617
  142SOL    HW1  425   1.139   0.502   0.092  1.4529 -0.3248 -2.4017
  142SOL    HW2  426   1.057   0.583   0.221  1.5421  2.7931  0.0404
  143SOL     OW  427   0.294   1.997   2.811 -0.0610  0.2382 -0.1847
  143SOL    HW1  428   0.248   2.024   2.900  1.3658  1.8604 -2.0088
  143SOL    HW2  429   0.267   2.053   2.734  0.2361 -1.7629  1.6510
  144SOL     OW  430   1.594   2.960   1.500  0.4959  0.1656  0.0375
  144SOL    HW1  431   1.666   2.894   1.469  0.9474 -1.6935 -1.7225
  144SOL    HW2  432   1.506   2.922   1.458  0.2185  1.2352  1.0848
  145SOL     OW  433   1.855   1.054   2.700 -0.4627 -0.4100 -0.2489
  145SOL    HW1  434   1.877   1.057   2.801 -2.3045  1.0832 -0.9472
  145SOL    HW2  435   1.759   1.080   2.685 -0.5170  3.0663 -1.9574
  146SOL     OW  436   0.222   2.554   0.903 -0.8512 -0.4904  0.4818
  146SOL    HW1  437   0.169   2.640   0.902  0.5373  0.0554 -1.8796
  146SOL    HW2  438   0.157   2.476   0.901  0.3424 -0.2186  2.9689
  147SOL     OW  439   2.133   2.946   1.729  0.4969 -0.3173 -0.1297
  147SOL    HW1  440   2.055   2.930   1.796 -0.2734 -0.0569 -1.7257
  147SOL    HW2  441   2.204   3.021   1.750  0.6556  1.7653  0.4360
  148SOL     OW  442   0.667   2.748   2.076 -0.0996  0.2781  0.5447
  148SOL    HW1  443   0.699   2.843   2.052 -0.3451 -1.5949  0.9015
  148SOL    HW2  444   0.589   2.717   2.015  3.6640  1.3220  0.2039
  149SOL     OW  445   1.886   0.239   2.540  0.6560  0.0536 -0.8247
  149SOL    HW1  446   1.786   0.254   2.526 -2.0730  3.1036 -0.9053
  149SOL    HW2  447   1.921   0.196   2.458  0.3034  0.7903  2.1920
  150SOL     OW  448   3.011   0.114   0.232  0.5501  0.7151 -0.4540
  150SOL    HW1  449   2.922   0.074   0.217  2.5185  0.9505 -1.5366
  150SOL    HW2  450   3.017   0.188   0.301  0.6168 -1.7848 -0.5280
  151SOL     OW  451   0.416   1.949   0.339 -0.4459 -0.1334  0.2204
  151SOL    HW1  452   0.318   1.916   0.358 -5.1066 -2.3123  2.3374
  151SOL    HW2  453   0.444   1.919   0.243  0.2849 -0.3450 -1.7807
  152SOL     OW  454   2.995   0.344   0.657 -0.0322 -0.2670  0.1588
  152SOL    HW1  455   3.057   0.380   0.729 -0.3857 -1.2770  1.0251
  152SOL    HW2  456   2.942   0.418   0.604 -1.2976  3.2310 -0.2371
  153SOL     OW  457   2.527   0.529   1.127  0.2545  0.1795 -0.0932
  153SOL    HW1  458   2.488   0.521   1.221 -0.0143  2.4165 -3.8926
  153SOL    HW2  459   2.586   0.451   1.099  2.8620 -0.8797 -0.7381
  154SOL     OW  460   0.928   0.216   2.208 -0.0134 -0.8663  0.1868
  154SOL    HW1  461   0.831   0.215   2.237  1.9494  0.0859 -1.8771
  154SOL    HW2  462   0.949   0.299   2.152  2.9085 -1.9652 -0.7618
  155SOL     OW  463   0.622   1.816   0.997 -0.4425  0.1809  0.4765
  155SOL    HW1  464   0.586   1.856   0.909 -0.2515 -1.2116  1.3933
  155SOL    HW2  465   0.575   1.857   1.074  0.5827 -1.6983 -1.3922
  156SOL     OW  466   2.399   2.037   0.224 -0.0320 -0.2385 -0.1989
  156SOL    HW1  467   2.316   2.084   0.183 -1.2040  0.6897  1.1588
  156SOL    HW2  468   2.406   2.063   0.323  0.5976  0.4660 -1.5029
  157SOL     OW  469   0.990   0.703   0.342 -0.1980 -0.3669 -0.5394
  157SOL    HW1  470   0.962   0.716   0.438 -2.0391  0.1092 -1.6688
  157SOL    HW2  471   0.905   0.672   0.293 -1.4607 -2.5501 -0.9526
  158SOL     OW  472   2.561   0.044   2.647  0.1393 -0.1170  1.4318
  158SOL    HW1  473   2.627   0.090   2.584  0.5690 -0.2465 -0.6348
  158SOL    HW2  474   2.514   0.117   2.700 -1.1163 -0.5026 -0.7185
  159SOL     OW  475   0.304   0.397   0.795  0.7044 -0.0411 -0.1797
  159SOL    HW1  476   0.334   0.387   0.701 -0.7856  2.6561  1.9812
  159SOL    HW2  477   0.298   0.305   0.844 -0.2419  0.0209  4.0337
  160SOL     OW  478   1.451   1.779   2.450 -0.0151 -0.4682  0.3933
  160SOL    HW1  479   1.456   1.741   2.549 -2.9012  0.6739  0.1133
  160SOL    HW2  480   1.377   1.850   2.444 -1.9833 -1.3820 -0.1461
  161SOL     OW  481   2.953   0.979   2.637  0.1799 -0.3274 -0.5294
  161SOL    HW1  482   2.858   0.944   2.622  0.3958 -1.3071  0.8687
  161SOL    HW2  483   2.958   1.028   2.729 -0.4353 -1.0408  1.0278
  162SOL     OW  484   0.588   2.293   1.392 -0.0999  0.3450  0.1561
  162SOL    HW1  485   0.635   2.228   1.460  0.3655 -2.5694  1.8538
  162SOL    HW2  486   0.624   2.279   1.298  1.6538 -1.6936  2.1248
  163SOL     OW  487   2.012   0.150   2.311 -0.0092  0.1690  0.7502
  163SOL    HW1  488   2.042   0.054   2.326  2.7086 -0.0636 -1.3268
  163SOL    HW2  489   2.004   0.175   2.211 -0.8419  0.9552  1.8994
  164SOL     OW  490   1.967   1.691   0.347  0.2603 -0.8934  0.5665
  164SOL    HW1  491   1.893   1.748   0.392  1.4122  1.8810 -0.2712
  164SOL    HW2  492   1.917   1.623   0.290 -0.0130 -4.2579  1.2214
  165SOL     OW  493   2.836   0.074   1.546  0.2945  0.3635 -0.4604
  165SOL    HW1  494   2.920   0.016   1.541  2.0975  1.9641  0.3770
  165SOL    HW2  495   2.802   0.090   1.449  0.3249  2.1537  0.4754
  166SOL     OW  496   1.955   1.061   2.969  0.2969 -0.3541  0.0491
  166SOL    HW1  497   2.007   1.030   3.049 -0.0997  0.0691 -0.3523
  166SOL    HW2  498   1.883   1.119   3.009  4.0540  0.3388  1.9310
  167SOL     OW  499   2.997   0.815   0.099 -0.5386  0.3986  0.7471
  167SOL    HW1  500   2.975   0.712   0.094  2.5876 -4.1568 -2.4106
  167SOL    HW2  501   3.083   0.835   0.043 -1.1192 -0.4498 -0.9111
  168SOL     OW  502   1.694   2.833   2.647 -0.7850 -0.2909 -0.7968
  168SOL    HW1  503   1.673   2.934   2.663 -0.6613  1.2778 -0.6834
  168SOL    HW2  504   1.688   2.780   2.733  0.0137 -2.4395  0.3267
  169SOL     OW  505   0.201   1.583   0.226  0.4706  0.2422 -0.3181
  169SOL    HW1  506   0.256   1.599   0.144  2.9324 -0.2001 -0.3361
  169SOL    HW2  507   0.258   1.532   0.300 -0.8780 -0.5441 -1.0617
  170SOL     OW  508   0.372   0.376   1.242  0.1085 -0.1042  0.5139
  170SOL    HW1  509   0.375   0.397   1.341  0.6173  1.2694 -0.1199
  170SOL    HW2  510   0.455   0.320   1.210  0.7123 -1.4965  0.3189
  171SOL     OW  511   1.251   2.199   2.856  0.2459 -0.5528 -0.0258
  171SOL    HW1  512   1.273   2.144   2.772 -1.8741 -1.1300 -1.3590
  171SOL    HW2  513   1.273   2.299   2.835  0.2264 -0.8515  0.6896
  172SOL     OW  514   2.950   2.798   1.340  0.5147  0.4776  0.4170
  172SOL    HW1  515   2.891   2.721   1.310 -0.5478  0.0576  2.7918
  172SOL    HW2  516   3.043   2.787   1.306 -3.3751  0.4740  0.0756
  173SOL     OW  517   1.521   0.735   2.702 -0.1300  0.1629  0.3086
  173SOL    HW1  518   1.570   0.745   2.793 -0.1022  1.1146 -1.6376
  173SOL    HW2  519   1.557   0.656   2.646 -1.1589 -0.7581 -0.3130
  174SOL     OW  520   1.282   0.098   2.919 -0.1258  0.0626  0.0697
  174SOL    HW1  521   1.244   0.031   2.983  0.0391  0.6259  1.6462
  174SOL    HW2  522   1.368   0.146   2.958 -1.0166  0.6268  1.1081
  175SOL     OW  523   2.187   2.022   0.495  0.1680 -0.2868 -0.4442
  175SOL    HW1  524   2.142   2.105   0.537  1.6607  1.7490  0.6109
  175SOL    HW2  525   2.187   1.949   0.570 -1.1026  0.6013  1.0869
  176SOL     OW  526   1.542   0.174   2.964  0.2351 -0.2712 -0.4196
  176SOL    HW1  527   1.553   0.181   3.066 -0.0770  2.0334 -1.6444
  176SOL    HW2  528   1.625   0.141   2.925  0.4296  1.2810  2.2296
  177SOL     OW  529   1.168   1.542   0.273 -0.3373 -0.1427  0.2710
  177SOL    HW1  530   1.128   1.631   0.241 -1.2266  0.5212  2.7676
  177SOL    HW2  531   1.144   1.462   0.208  0.5696 -0.7574 -3.7471
  178SOL     OW  532   2.474   2.387   3.078  0.0934  0.2987 -0.2151
  178SOL    HW1  533   2.427   2.478   3.094 -2.4378  2.9789 -3.4126
  178SOL    HW2  534   2.437   2.306   0.028 -1.6356  2.2250  1.9497
  179SOL     OW  535   2.710   2.899   2.911  0.0477  0.6828 -0.3252
  179SOL    HW1  536   2.804   2.855   2.937  0.6755 -1.3466  3.4035
  179SOL    HW2  537   2.717   2.998   2.905 -0.0989  0.4632  2.3385
  180SOL     OW  538   1.739   1.597   0.872  0.7487  0.3696  0.1446
  180SOL    HW1  539   1.812   1.533   0.861 -1.1978  2.8637  0.0102
  180SOL    HW2  540   1.656   1.551   0.835 -0.2671 -4.0528  0.6270
  181SOL     OW  541   1.798   0.692   2.434  0.2226  0.1987  0.2514
  181SOL    HW1  542   1.809   0.794   2.407 -0.4230 -2.6417  0.7663
  181SOL    HW2  543   1.742   0.642   2.365 -0.4634  0.2490  0.0346
  182SOL     OW  544   2.687   2.936   2.532 -0.4079 -0.0553  0.2866
  182SOL    HW1  545   2.666   2.855   2.580  1.5731  1.7364 -2.3219
  182SOL    HW2  546   2.650   3.019   2.570 -0.7368 -3.0769  0.1146
  183SOL     OW  547   1.638   0.551   2.224 -0.6391  0.2443 -0.1683
  183SOL    HW1  548   1.575   0.576   2.147  1.2450 -0.2904  2.7863
  183SOL    HW2  549   1.657   0.450   2.229 -0.9658 -0.3741  1.5045
  184SOL     OW  550   0.172   1.201   1.290 -0.2071  0.0424 -0.0686
  184SOL    HW1  551   0.162   1.199   1.192 -0.6496 -2.2693  0.5817
  184SOL    HW2  552   0.189   1.104   1.323  0.8283 -0.5885 -0.2294
  185SOL     OW  553   2.138   0.539   0.594 -0.4103  0.8291 -0.5208
  185SOL    HW1  554   2.209   0.569   0.669  0.8643  3.0589  1.9301
  185SOL    HW2  555   2.044   0.543   0.637 -2.3860  0.8408  2.1206
  186SOL     OW  556   0.342   2.706   3.045  0.1597  0.3841  0.5727
  186SOL    HW1  557   0.407   2.660   0.008 -0.5567 -0.6580 -0.5041
  186SOL    HW2  558   0.376   2.803   3.026 -1.2993  0.5900 -0.9769
  187SOL     OW  559   2.282   0.922   2.887  0.6897  0.5299  0.2531
  187SOL    HW1  560   2.301   0.987   2.815 -3.5107 -1.8560  1.1783
  187SOL    HW2  561   2.375   0.893   2.922 -0.2429 -0.6265 -2.5361
  188SOL     OW  562   0.057   1.533   1.307 -0.2517  0.1066 -0.6842
  188SOL    HW1  563   0.052   1.454   1.368  1.5765  0.4158  2.0468
  188SOL    HW2  564   0.098   1.614   1.358  1.6013  0.9618  0.9082
  189SOL     OW  565   2.616   0.383   0.098 -0.0066  0.2869  0.2809
  189SOL    HW1  566   2.565   0.432   0.172 -0.9314 -0.8746  0.0140
  189SOL    HW2  567   2.716   0.384   0.119  0.2526  0.1578  0.1211
  190SOL     OW  568   1.341   1.116   1.913 -0.4077  0.3962 -0.1059
  190SOL    HW1  569   1.359   1.063   1.999  0.6249  3.2832  0.0527
  190SOL    HW2  570   1.409   1.198   1.914 -1.5925 -0.6090 -2.4581
  191SOL     OW  571   0.165   0.316   1.928 -0.1709  0.7094  0.2118
  191SOL    HW1  572   0.134   0.235   1.870 -1.7178 -0.2676 -1.7509
  191SOL    HW2  573   0.085   0.375   1.954  2.1457 -1.4972 -1.8092
  192SOL     OW  574   2.061   1.331   1.168 -0.4724 -0.1178  0.1657
  192SOL    HW1  575   2.034   1.278   1.084  0.6105  0.2437 -1.0067
  192SOL    HW2  576   2.057   1.433   1.145 -2.4640  1.9176 -1.8941
  193SOL     OW  577   1.542   0.874   1.030  0.4036 -0.0601 -0.2107
  193SOL    HW1  578   1.529   0.928   0.945  0.2729 -1.6108  1.8844
  193SOL    HW2  579   1.459   0.829   1.064  2.7526 -0.2184 -1.9452
  194SOL     OW  580   0.954   2.356   1.871  0.8939 -0.0968  0.3320
  194SOL    HW1  581   1.026   2.421   1.850 -4.5967  0.2474 -1.1858
  194SOL    HW2  582   0.868   2.400   1.835  0.1220 -1.4949 -0.0597
  195SOL     OW  583   1.852   0.134   2.979 -0.0434 -0.5002 -0.1862
  195SOL    HW1  584   1.900   0.139   2.889  0.6862  0.0836  1.8567
  195SOL    HW2  585   1.828   0.043   3.008  0.1929  0.6018  1.1931
  196SOL     OW  586   0.823   1.960   1.715  0.6960 -0.5346  0.0328
  196SOL    HW1  587   0.810   1.860   1.734 -0.5762  0.7780  0.4699
  196SOL    HW2  588   0.896   1.997   1.775  2.0992  0.1848 -4.0561
  197SOL     OW  589   1.043   0.147   1.235 -0.3805 -0.3931  0.0538
  197SOL    HW1  590   1.112   0.113   1.163 -1.0990 -2.1918  0.5455
  197SOL    HW2  591   1.014   0.245   1.223  1.4133  2.1451  1.6329
  198SOL     OW  592   0.982   0.985   0.922  0.1884  0.3031  0.3798
  198SOL    HW1  593   0.988   0.980   1.025 -2.3195  0.3403  0.7460
  198SOL    HW2  594   0.894   0.939   0.898 -1.2173  0.5321  0.6380
  199SOL     OW  595   0.105   2.565   1.623 -0.1949 -0.1788 -0.4705
  199SOL    HW1  596   0.137   2.578   1.722  2.2927 -0.3801  2.2512
  199SOL    HW2  597   0.032   2.633   1.601 -1.0965 -0.9238 -1.1051
  200SOL     OW  598   2.012   2.069   2.055  0.3574  0.1605 -0.5438
  200SOL    HW1  599   2.008   2.070   1.955  0.4932 -1.0477 -1.4609
  200SOL    HW2  600   2.100   2.099   2.091  0.8978  1.2291  0.8124
  201SOL     OW  601   0.229   1.522   1.983 -0.0412  0.1939  0.6270
  201SOL    HW1  602   0.154   1.489   1.925 -1.6532 -0.5416  3.7293
  201SOL    HW2  603   0.281   1.445   2.018 -0.8887  1.4585 -0.2028
  202SOL     OW  604   2.250   0.581   0.346 -0.2971  0.8601  0.6679
  202SOL    HW1  605   2.223   0.497   0.293  0.3277 -1.8531  0.4674
  202SOL    HW2  606   2.205   0.587   0.438 -3.8672 -0.1950  0.9391
  203SOL     OW  607   1.020   2.397   2.147 -0.3208  0.0227  0.2907
  203SOL    HW1  608   0.984   2.490   2.159  0.5720  2.8284 -0.1326
  203SOL    HW2  609   0.977   2.355   2.063 -2.0579 -0.8967 -1.0420
  204SOL     OW  610   1.069   2.109   1.878  0.0971 -0.1650  0.2641
  204SOL    HW1  611   1.103   2.064   1.788 -1.1973 -1.4904  0.2870
  204SOL    HW2  612   1.035   2.208   1.861 -0.4711  0.0843  0.4160
  205SOL     OW  613   1.516   1.805   2.147  0.4102 -0.1187 -0.2455
  205SOL    HW1  614   1.444   1.782   2.083 -0.9623 -1.2828  1.2050
  205SOL    HW2  615   1.498   1.761   2.239 -1.9380  2.3994  1.5154
  206SOL     OW  616   0.380   0.668   2.412  0.2396  0.0381  0.0278
  206SOL    HW1  617   0.350   0.618   2.493  0.6719 -0.4845  0.3158
  206SOL    HW2  618   0.449   0.730   2.450 -1.2698  0.7340  2.5645
  207SOL     OW  619   0.877   2.780   1.777 -0.1062  0.5780 -0.3269
  207SOL    HW1  620   0.792   2.831   1.770  1.0617 -1.9107  0.5403
  207SOL    HW2  621   0.937   2.815   1.702 -0.5671 -0.6617 -0.9644
  208SOL     OW  622   0.454   2.721   1.910  0.0410  0.0070 -0.7378
  208SOL    HW1  623   0.385   2.653   1.891  0.4929  2.5767 -0.8516
  208SOL    HW2  624   0.457   2.790   1.838  1.3029  0.8914  0.6968
  209SOL     OW  625   1.464   0.488   2.979 -0.5646 -0.4485  0.6480
  209SOL    HW1  626   1.559   0.473   3.007 -0.7924  1.2135 -0.1778
  209SOL    HW2  627   1.453   0.480   2.879 -0.5259 -2.4680 -0.9987
  210SOL     OW  628   2.884   0.553   0.546 -0.0022 -0.1728  0.2325
  210SOL    HW1  629   2.816   0.598   0.613 -1.0668 -0.6057 -1.1694
  210SOL    HW2  630   2.935   0.633   0.499  2.1725  1.9609  0.0528
  211SOL     OW  631   0.712   0.445   1.346 -0.6737 -0.0495 -0.2292
  211SOL    HW1  632   0.710   0.541   1.303  0.8596  0.0435  0.3247
  211SOL    HW2  633   0.743   0.443   1.443 -0.6213 -1.1458 -0.2600
  212SOL     OW  634   1.406   1.909   1.209  0.1000 -0.4025 -0.2707
  212SOL    HW1  635   1.480   1.877   1.143  0.0809  0.1584 -0.3728
  212SOL    HW2  636   1.426   1.867   1.299  0.6099  2.7178 -0.8608
  213SOL     OW  637   2.150   0.233   1.819 -0.2501  0.1327 -0.3940
  213SOL    HW1  638   2.210   0.155   1.797 -3.2490  1.2097 -2.2827
  213SOL    HW2  639   2.185   0.285   1.899  0.7737  1.2412  0.9447
  214SOL     OW  640   0.939   2.380   2.672 -0.9384 -0.4230  0.9715
  214SOL    HW1  641   0.979   2.351   2.760 -1.2793  3.2304  5.2746
  214SOL    HW2  642   0.841   2.360   2.680  2.8325  0.6340  1.1416
  215SOL     OW  643   2.837   1.405   1.557 -0.1478 -0.5993 -0.1482
  215SOL    HW1  644   2.822   1.317   1.512 -1.6056  1.6773  1.5761
  215SOL    HW2  645   2.849   1.481   1.491 -3.5765 -1.7415  3.3865
  216SOL     OW  646   0.535   1.027   1.454 -0.0146  0.3766  0.3792
  216SOL    HW1  647   0.544   1.128   1.481 -1.2680  1.5224  0.7005
  216SOL    HW2  648   0.499   1.026   1.359  1.0522 -1.5894  0.8965
  217SOL     OW  649   2.776   0.214   0.406 -0.0511 -0.1067 -0.2531
  217SOL    HW1  650   2.801   0.189   0.504  1.0882  1.0358  1.2751
  217SOL    HW2  651   2.794   0.315   0.389  0.4646  1.4467  2.6197
  218SOL     OW  652   1.586   1.830   0.974  0.5606  0.4386  0.0794
  218SOL    HW1  653   1.630   1.918   0.978 -1.8182 -4.2015 -1.6250
  218SOL    HW2  654   1.647   1.756   0.942  0.8339  2.0140 -0.1034
  219SOL     OW  655   1.675   0.120   0.423 -0.3501  0.2972 -0.1617
  219SOL    HW1  656   1.612   0.050   0.452 -0.2526  3.6451 -1.9003
  219SOL    HW2  657   1.772   0.099   0.449 -3.1054 -0.0746  2.1348
  220SOL     OW  658   1.370   2.081   0.993 -0.7078  0.9255  0.4484
  220SOL    HW1  659   1.418   2.021   0.920  1.7924  1.1218  0.2399
  220SOL    HW2  660   1.354   2.028   1.081  0.1601 -2.5406  2.1665
  221SOL     OW  661   2.908   1.048   0.199  0.0510  0.4767 -0.0400
  221SOL    HW1  662   2.856   1.108   0.137 -1.3370 -1.0623  0.9197
  221SOL    HW2  663   2.931   0.956   0.154  0.9434 -2.6615  1.2422
  222SOL     OW  664   0.866   2.543   1.483 -0.0534  0.3757 -0.4358
  222SOL    HW1  665   0.779   2.530   1.534 -0.2073 -0.0081 -2.5281
  222SOL    HW2  666   0.856   2.632   1.433  0.6193  0.3000 -4.7082
  223SOL     OW  667   1.447   0.339   0.120  0.0574 -0.1260  0.1957
  223SOL    HW1  668   1.418   0.404   0.188  1.1340 -1.5855  1.3373
  223SOL    HW2  669   1.436   0.375   0.022 -2.9316 -4.7529 -4.0509
  224SOL     OW  670   2.869   0.766   1.002 -0.0840 -0.0298  0.2258
  224SOL    HW1  671   2.829   0.847   0.956  2.0742 -0.2070  0.3984
  224SOL    HW2  672   2.887   0.792   1.100 -2.0672 -0.9401  0.4184
  225SOL     OW  673   0.779   1.568   1.356 -0.5224  0.2651 -0.1835
  225SOL    HW1  674   0.871   1.561   1.303  1.6262 -1.5766 -3.0947
  225SOL    HW2  675   0.749   1.470   1.377  1.7478  0.1301  0.9859
  226SOL     OW  676   0.666   2.757   0.685  0.0797 -0.5194 -0.3077
  226SOL    HW1  677   0.691   2.855   0.694 -0.0500 -1.4676  0.8139
  226SOL    HW2  678   0.748   2.697   0.680 -1.7218 -0.9390  0.4068
  227SOL     OW  679   1.040   1.854   1.511  0.5460 -0.1343 -0.3583
  227SOL    HW1  680   0.978   1.816   1.584 -1.4686  0.0051 -1.6110
  227SOL    HW2  681   1.067   1.949   1.534 -0.3734  0.2741 -0.5572
  228SOL     OW  682   0.826   0.211   1.760  0.4035  0.1087 -0.7736
  228SOL    HW1  683   0.728   0.227   1.787 -3.3459  1.5687  1.6218
  228SOL    HW2  684   0.876   0.155   1.828  0.3060  0.1185  0.0175
  229SOL     OW  685   2.736   0.635   3.070 -0.3546 -0.3906 -0.0607
  229SOL    HW1  686   2.748   0.719   3.014  0.6289 -2.9639  0.4332
  229SOL    HW2  687   2.817   0.620   0.032  0.4766  0.2788 -1.1510
  230SOL     OW  688   0.135   0.661   1.328 -0.2115 -0.0488 -0.6139
  230SOL    HW1  689   0.218   0.674   1.270 -0.7755 -0.6432  0.2981
  230SOL    HW2  690   0.152   0.620   1.422  1.8467  0.0789  0.6861
  231SOL     OW  691   0.987   2.990   1.322  0.1860  0.2307 -0.1687
  231SOL    HW1  692   0.888   2.999   1.296 -0.2605 -0.0146  1.3587
  231SOL    HW2  693   1.029   3.084   1.313 -0.1326 -0.6585 -0.8871
  232SOL     OW  694   3.031   2.349   0.444  0.5630  0.4427 -0.5784
  232SOL    HW1  695   0.024   2.320   0.410 -0.4671 -0.9988  0.9930
  232SOL    HW2  696   2.969   2.407   0.384 -1.6547 -0.7866 -1.8587
  233SOL     OW  697   1.276   2.489   3.073  0.0180  0.0563 -0.3854
  233SOL    HW1  698   1.279   2.480   2.972  2.1587  0.9580 -0.4288
  233SOL    HW2  699   1.365   2.534   0.009  0.0390 -1.8327 -0.4969
  234SOL     OW  700   0.726   1.243   1.888  0.1133 -0.0576 -0.1996
  234SOL    HW1  701   0.626   1.224   1.879 -1.4960 -1.0532 -2.3519
  234SOL    HW2  702   0.754   1.228   1.983  1.6650 -0.4882  1.3313
  235SOL     OW  703   3.068   2.328   2.777 -0.4848  0.3496 -0.0513
  235SOL    HW1  704   3.086   2.364   2.684  1.3092 -0.8534 -0.0351
  235SOL    HW2  705   3.011   2.399   2.831 -0.7960  1.4802  1.9017
  236SOL     OW  706   1.796   2.239   2.702  0.1021  0.5052  0.2333
  236SOL    HW1  707   1.719   2.172   2.697 -0.0207  0.9767 -0.1862
  236SOL    HW2  708   1.773   2.321   2.644 -0.4068  2.3128 -0.2599
  237SOL     OW  709   2.091   0.953   0.941  0.1183 -0.1313 -0.0895
  237SOL    HW1  710   2.047   0.900   1.016  0.2553 -0.1799  2.1897
  237SOL    HW2  711   2.027   0.996   0.874  0.4699  0.1277 -2.3123
  238SOL     OW  712   1.084   2.734   1.955  0.3735 -0.2943 -0.4603
  238SOL    HW1  713   1.040   2.685   2.036 -0.9898 -1.6702  1.0049
  238SOL    HW2  714   1.004   2.762   1.896 -0.9767 -1.0179  0.5751
  239SOL     OW  715   0.546   2.383   1.920 -0.6180  0.1678 -0.2751
  239SOL    HW1  716   0.571   2.291   1.879 -0.1988  1.0517 -1.3442
  239SOL    HW2  717   0.609   2.459   1.893 -0.2623  0.5777  0.4032
  240SOL     OW  718   2.849   0.099   0.658  0.0678 -0.1354  0.0918
  240SOL    HW1  719   2.883   3.098   0.651  0.2477 -3.0917 -0.4718
  240SOL    HW2  720   2.919   0.171   0.670 -1.3069 -0.8462 -1.6190
  241SOL     OW  721   1.166   1.691   2.937  0.5188 -0.4220  0.0625
  241SOL    HW1  722   1.089   1.730   2.992  2.3740 -1.1179 -1.2726
  241SOL    HW2  723   1.250   1.704   2.989 -1.1061  0.4447  2.0016
  242SOL     OW  724   2.512   0.893   3.010 -0.3784 -0.0724  0.4071
  242SOL    HW1  725   2.530   0.841   3.091  0.3032  4.1270 -2.3561
  242SOL    HW2  726   2.588   0.889   2.940 -0.9738 -1.0769 -0.9384
  243SOL     OW  727   0.804   0.542   1.893  0.1972  0.5437 -1.1647
  243SOL    HW1  728   0.775   0.640   1.870 -0.4183  2.7992  0.2461
  243SOL    HW2  729   0.877   0.508   1.833 -0.1252 -0.4291 -0.7788
  244SOL     OW  730   1.509   2.587   0.059 -0.1165 -0.1440  0.6555
  244SOL    HW1  731   1.467   2.668   0.112 -1.0537  0.5979 -0.8026
  244SOL    HW2  732   1.603   2.567   0.092 -1.2013  0.1238  0.9900
  245SOL     OW  733   1.780   2.484   0.088 -0.8670 -0.3763 -0.3199
  245SOL    HW1  734   1.742   2.404   0.037 -0.3785  0.4582  1.9153
  245SOL    HW2  735   1.823   2.452   0.173 -1.3499  1.0136 -2.2035
  246SOL     OW  736   0.939   0.892   2.405 -0.7602  1.0107 -0.0762
  246SOL    HW1  737   1.008   0.885   2.332  0.3507 -1.1051 -3.9588
  246SOL    HW2  738   0.855   0.943   2.377 -0.8677 -0.1629 -0.5202
  247SOL     OW  739   0.173   0.784   2.862  0.0917  0.0395 -0.4565
  247SOL    HW1  740   0.160   0.813   2.764  2.2071 -1.4489 -0.6477
  247SOL    HW2  741   0.218   0.694   2.868 -0.6984  1.0491  2.6804
  248SOL     OW  742   0.113   1.035   1.915 -0.0930 -0.1888  0.0579
  248SOL    HW1  743   0.015   1.025   1.949 -1.9426  0.6550 -0.5941
  248SOL    HW2  744   0.173   1.031   1.998 -0.5253  0.5267  1.0421
  249SOL     OW  745   3.083   0.356   0.355 -0.4662 -0.1286  0.5540
  249SOL    HW1  746   0.031   0.399   0.274 -0.3381 -1.0842  2.8451
  249SOL    HW2  747   0.010   0.410   0.439  2.5230  0.4732  1.1871
  250SOL     OW  748   3.000   0.138   3.059  0.5013 -0.0881  0.1448
  250SOL    HW1  749   3.035   0.226   3.022 -0.2955 -1.2516 -2.8169
  250SOL    HW2  750   3.013   0.129   0.066  0.9821  0.2924  3.2968
  251SOL     OW  751   1.140   1.667   2.046 -0.4347  0.1489  0.2186
  251SOL    HW1  752   1.166   1.627   2.135 -0.3378  1.8604 -2.6691
  251SOL    HW2  753   1.073   1.612   1.995 -2.9282  1.7272  1.1613
  252SOL     OW  754   2.137   1.742   1.318 -0.2335  0.0544  0.1020
  252SOL    HW1  755   2.220   1.803   1.308 -0.8586 -1.4909 -1.5973
  252SOL    HW2  756   2.125   1.707   1.412 -1.3302 -1.1295 -2.6347
  253SOL     OW  757   1.791   2.387   2.172  0.1319 -0.0135 -0.5176
  253SOL    HW1  758   1.757   2.318   2.106 -0.5296 -0.4546  2.3778
  253SOL    HW2  759   1.842   2.336   2.247  0.6106  0.8678 -0.7395
  254SOL     OW  760   0.583   2.200   2.257 -0.3896 -0.2729 -0.1696
  254SOL    HW1  761   0.593   2.303   2.244  0.2838  4.4364 -1.1888
  254SOL    HW2  762   0.606   2.152   2.168  0.3822 -0.5309  1.9408
  255SOL     OW  763   1.664   0.425   0.897 -0.3136  0.1242 -0.0696
  255SOL    HW1  764   1.605   0.421   0.817  3.0791  0.2683  1.8180
  255SOL    HW2  765   1.688   0.530   0.914 -1.2033  3.5758 -2.7856
  256SOL     OW  766   2.155   2.083   1.401 -0.1392  0.3885  0.0559
  256SOL    HW1  767   2.114   2.172   1.423  0.3934  0.4926 -2.8337
  256SOL    HW2  768   2.161   2.064   1.298  0.2146  5.6673 -0.6538
  257SOL     OW  769   0.281   2.596   2.813  0.1207 -0.4585  0.3443
  257SOL    HW1  770   0.256   2.497   2.816  0.7825 -0.4113 -0.9047
  257SOL    HW2  771   0.296   2.634   2.908  1.6470 -2.6213  3.9209
  258SOL     OW  772   0.493   0.917   1.988  0.3149  0.0557  0.1721
  258SOL    HW1  773   0.551   0.898   2.071 -0.5706  1.6143 -0.0118
  258SOL    HW2  774   0.538   0.890   1.900  1.5208  0.4691 -0.3326
  259SOL     OW  775   1.147   0.997   2.559  0.5319  0.1455  0.2880
  259SOL    HW1  776   1.168   1.096   2.543  1.7534 -2.8139 -0.8651
  259SOL    HW2  777   1.053   0.977   2.520  1.7011  2.0809  0.3856
  260SOL     OW  778   2.051   0.867   0.529  0.6753 -0.5556 -0.0284
  260SOL    HW1  779   2.102   0.887   0.613 -1.7884 -2.7829  0.7798
  260SOL    HW2  780   2.110   0.853   0.446 -0.4995  0.3415  1.1984
  261SOL     OW  781   1.013   0.371   0.555  0.1139  0.4949  0.8915
  261SOL    HW1  782   1.038   0.338   0.456 -0.6469 -1.0064 -4.6364
  261SOL    HW2  783   1.087   0.430   0.597  0.3740  2.1401  0.1837
  262SOL     OW  784   2.079   2.611   2.639 -0.2768 -0.1640 -0.2754
  262SOL    HW1  785   2.169   2.632   2.682 -0.2751 -2.0398  0.5832
  262SOL    HW2  786   2.017   2.689   2.619  1.0147  0.0021  0.4964
  263SOL     OW  787   0.341   1.522   2.816  0.1869 -0.6322  0.5942
  263SOL    HW1  788   0.415   1.536   2.747 -1.8179  0.4128  1.6315
  263SOL    HW2  789   0.276   1.602   2.815  1.0191  0.4643 -3.3596
  264SOL     OW  790   0.464   1.924   1.483  0.0344  0.3397  0.5222
  264SOL    HW1  791   0.375   1.971   1.460 -2.9610  0.3530  1.1425
  264SOL    HW2  792   0.496   1.862   1.405 -0.3830 -0.5661 -2.7084
  265SOL     OW  793   1.208   0.997   0.535  0.5889  0.2033  0.0502
  265SOL    HW1  794   1.266   1.012   0.449  2.1474 -2.5196  0.2957
  265SOL    HW2  795   1.137   0.929   0.517 -3.0739  0.4541 -0.8097
  266SOL     OW  796   1.417   1.714   0.039 -0.4636 -0.4717 -0.0678
  266SOL    HW1  797   1.446   1.811   0.021  0.4643  0.3599  0.1777
  266SOL    HW2  798   1.419   1.698   0.139  1.1914 -0.2117 -1.7151
  267SOL     OW  799   0.110   0.326   2.976  0.1397 -0.2252 -0.2224
  267SOL    HW1  800   0.079   0.292   2.885  0.0043  0.5134 -2.0042
  267SOL    HW2  801   0.164   0.247   3.016  1.5824 -1.3277  3.5052
  268SOL     OW  802   1.046   0.355   2.713 -0.4305 -0.1040  0.1270
  268SOL    HW1  803   1.038   0.389   2.808  2.6054 -1.3828 -0.4780
  268SOL    HW2  804   1.086   0.260   2.710  2.3180  1.2340 -0.5671
  269SOL     OW  805   1.610   0.219   2.515 -0.4013 -0.0757 -0.0581
  269SOL    HW1  806   1.600   0.140   2.450  0.6186 -0.7213  0.2873
  269SOL    HW2  807   1.516   0.246   2.533  1.1570  1.0715 -1.6221
  270SOL     OW  808   0.663   0.573   2.659  0.6543 -0.5056 -0.2853
  270SOL    HW1  809   0.606   0.523   2.596  1.1387  2.2565  2.7855
  270SOL    HW2  810   0.757   0.596   2.622  1.0486 -0.5589  2.0060
  271SOL     OW  811   0.262   0.951   0.174  0.3807  0.0292 -0.2257
  271SOL    HW1  812   0.366   0.950   0.192 -0.0531  1.8487 -0.6490
  271SOL    HW2  813   0.206   0.990   0.251  0.1191  0.8248  1.0478
  272SOL     OW  814   2.125   1.245   2.822 -0.4589  0.0317  0.3635
  272SOL    HW1  815   2.199   1.203   2.768 -1.1201 -1.8416 -0.5481
  272SOL    HW2  816   2.075   1.176   2.877  3.0291  2.8283 -0.2035
  273SOL     OW  817   2.977   0.273   2.460 -0.3604 -0.1145 -0.1891
  273SOL    HW1  818   3.069   0.303   2.486  1.5237 -1.3309 -0.4641
  273SOL    HW2  819   2.923   0.236   2.540 -0.6321 -0.3818  2.7488
  274SOL     OW  820   2.580   3.051   1.666  0.5307 -0.3570 -0.2156
  274SOL    HW1  821   2.534   3.048   1.575  0.1281  1.0662 -2.0689
  274SOL    HW2  822   2.672   3.083   1.648 -0.4541  0.6229 -0.8535
  275SOL     OW  823   1.833   1.493   0.174 -0.7853  0.5437 -0.1844
  275SOL    HW1  824   1.791   1.550   0.105  2.3246 -1.8410 -1.4005
  275SOL    HW2  825   1.776   1.412   0.204 -1.4061  0.6488  0.0203
  276SOL     OW  826   0.252   1.060   2.812 -0.1716 -0.1498 -0.4232
  276SOL    HW1  827   0.188   1.085   2.889 -0.6682 -1.2399  0.8669
  276SOL    HW2  828   0.204   1.004   2.744 -1.0234  2.1595 -0.1906
  277SOL     OW  829   1.584   2.542   2.045  0.4197 -0.2648  0.2783
  277SOL    HW1  830   1.660   2.511   2.104 -1.4063 -0.5137  1.5098
  277SOL    HW2  831   1.511   2.466   2.028 -0.6389  0.2355  0.0636
  278SOL     OW  832   1.930   3.009   1.274 -0.6978  0.7429 -0.8446
  278SOL    HW1  833   1.869   2.941   1.319 -1.6270 -1.8738  2.4699
  278SOL    HW2  834   1.959   3.083   1.339  1.4097  1.9831  0.5442
  279SOL     OW  835   0.981   1.487   2.793  0.9193 -0.3389  0.8262
  279SOL    HW1  836   0.975   1.544   2.874  1.5193  3.0306 -1.0613
  279SOL    HW2  837   0.967   1.539   2.712  1.4048 -0.4660 -0.5285
  280SOL     OW  838   0.636   1.580   0.358 -0.5309 -0.1572  0.0820
  280SOL    HW1  839   0.645   1.616   0.454  0.8908 -1.6717  0.5811
  280SOL    HW2  840   0.591   1.636   0.287  0.6532 -0.8397  0.4653
  281SOL     OW  841   3.063   2.777   2.112  0.0603  0.1189  0.0679
  281SOL    HW1  842   3.022   2.808   2.023  0.3900 -0.3000 -0.6825
  281SOL    HW2  843   0.032   2.695   2.106  2.2301 -0.7425  3.0582
  282SOL     OW  844   0.246   2.145   1.168  0.3186 -0.0565 -0.1925
  282SOL    HW1  845   0.315   2.120   1.099  0.7543  0.1091 -0.0312
  282SOL    HW2  846   0.168   2.198   1.124 -1.1919 -1.2346  2.3347
  283SOL     OW  847   1.390   2.377   2.333 -0.5277  0.2847  0.1993
  283SOL    HW1  848   1.300   2.329   2.335  0.7769 -1.7014  1.4742
  283SOL    HW2  849   1.458   2.310   2.299  2.8636 -1.6184  0.0775
  284SOL     OW  850   2.170   0.975   0.049  0.5231  0.5696 -0.7392
  284SOL    HW1  851   2.240   1.044   0.071  2.8716  2.8266 -0.0117
  284SOL    HW2  852   2.187   0.934   3.057  0.4452  2.3740  0.3049
  285SOL     OW  853   2.704   2.716   2.702  0.2493  0.3689 -0.4824
  285SOL    HW1  854   2.714   2.779   2.785  0.8891 -2.5573  1.5772
  285SOL    HW2  855   2.623   2.655   2.710 -0.6533 -0.4083  1.5136
  286SOL     OW  856   1.815   2.492   1.155  0.2333  0.3872  0.3520
  286SOL    HW1  857   1.762   2.533   1.228  1.8184 -2.7218 -2.2550
  286SOL    HW2  858   1.800   2.391   1.159  1.9575  0.5336 -1.3434
  287SOL     OW  859   0.799   1.185   1.156 -0.4220 -0.8692 -0.5984
  287SOL    HW1  860   0.830   1.274   1.107  2.4976  3.6008 -1.5445
  287SOL    HW2  861   0.875   1.129   1.183 -2.0557  1.4402  0.9606
  288SOL     OW  862   1.122   2.341   0.228  0.1407 -0.0363  0.1166
  288SOL    HW1  863   1.123   2.405   0.308  1.6772  1.5619 -0.5998
  288SOL    HW2  864   1.177   2.384   0.149  0.4711  2.0176 -2.4158
  289SOL     OW  865   3.092   1.933   2.548  0.0135  0.1860  0.1293
  289SOL    HW1  866   0.033   1.840   2.545 -0.8137 -0.2348 -1.2501
  289SOL    HW2  867   0.058   2.005   2.574 -3.1718 -1.3206  1.3616
  290SOL     OW  868   1.003   2.194   0.728 -0.3316  0.3251  0.4389
  290SOL    HW1  869   1.067   2.219   0.647  0.1341 -1.0602 -0.2322
  290SOL    HW2  870   1.024   2.101   0.764 -0.5273  2.4012  1.2496
  291SOL     OW  871   1.865   1.502   2.866 -0.5042 -0.0846 -0.1093
  291SOL    HW1  872   1.965   1.495   2.846  1.0984 -1.1926  0.5580
  291SOL    HW2  873   1.845   1.577   2.934 -1.3680  1.0616  0.0065
  292SOL     OW  874   1.226   1.347   1.768  0.2860 -0.5717  0.5232
  292SOL    HW1  875   1.154   1.412   1.795  5.2068 -1.3268  1.0084
  292SOL    HW2  876   1.228   1.253   1.813  0.7169  1.7368 -0.2396
  293SOL     OW  877   1.791   2.574   0.898  0.6226  0.1696 -0.3295
  293SOL    HW1  878   1.784   2.547   0.997 -1.4903 -3.5831  0.7330
  293SOL    HW2  879   1.747   2.509   0.836 -0.0728  0.6901 -1.2112
  294SOL     OW  880   0.153   1.376   2.434  0.1258 -0.3589  0.1504
  294SOL    HW1  881   0.065   1.396   2.477  1.0791 -1.3215 -2.9297
  294SOL    HW2  882   0.134   1.328   2.344 -0.2196  0.4514 -2.4886
  295SOL     OW  883   0.825   2.007   3.070 -0.5306 -0.6983 -0.3173
  295SOL    HW1  884   0.879   2.085   3.036 -0.9408 -0.3839  3.2259
  295SOL    HW2  885   0.864   1.915   3.039 -1.1623 -0.4317  2.6219
  296SOL     OW  886   1.853   1.775   2.240 -0.8514 -0.1165  0.2290
  296SOL    HW1  887   1.933   1.769   2.177  1.0930 -0.0777  0.5722
  296SOL    HW2  888   1.822   1.872   2.251 -2.2675  0.1803 -0.0438
  297SOL     OW  889   2.748   0.810   2.553 -0.1514  0.4580  0.2470
  297SOL    HW1  890   2.833   0.746   2.568  1.4164 -1.2383 -1.8676
  297SOL    HW2  891   2.671   0.756   2.511 -0.2890 -0.0918  0.1363
  298SOL     OW  892   0.762   2.123   2.486  0.1319  0.3071  0.2117
  298SOL    HW1  893   0.752   2.184   2.568  0.9605 -1.9113 -0.9708
  298SOL    HW2  894   0.701   2.159   2.408 -2.2555  0.9407  1.2166
  299SOL     OW  895   0.941   2.651   2.576  0.0412 -0.2917 -0.1090
  299SOL    HW1  896   0.859   2.660   2.517  2.1829 -1.3758  0.9746
  299SOL    HW2  897   0.957   2.558   2.604 -0.5777  3.7404 -0.5591
  300SOL     OW  898   2.926   0.559   0.138 -0.0575 -0.1245 -0.3476
  300SOL    HW1  899   2.852   0.511   0.198  0.7010  1.5061  1.8792
  300SOL    HW2  900   3.011   0.504   0.145  0.7434 -0.9472  0.6386
  301SOL     OW  901   1.236   0.825   1.069  0.1347  0.0075  0.5254
  301SOL    HW1  902   1.215   0.748   1.131  3.2040  1.8868  2.2792
  301SOL    HW2  903   1.210   0.918   1.108 -0.3124  2.5050 -0.3251
  302SOL     OW  904   2.806   1.814   2.876 -0.0792 -0.4199  0.0698
  302SOL    HW1  905   2.867   1.899   2.870  0.8318  2.2141 -0.9207
  302SOL    HW2  906   2.733   1.814   2.952 -1.0317 -2.9043  2.3036
  303SOL     OW  907   2.956   2.885   2.551  0.5685  0.2563  0.2212
  303SOL    HW1  908   2.991   2.924   2.462  0.0412  1.3451  0.3561
  303SOL    HW2  909   2.856   2.890   2.557 -1.7354 -0.9981 -0.6051
  304SOL     OW  910   2.887   0.238   1.761 -0.0197 -0.2627 -0.2198
  304SOL    HW1  911   2.836   0.188   1.688  3.5811  2.8242 -0.6195
  304SOL    HW2  912   2.885   0.198   1.856  1.3837  0.4466  1.8949
  305SOL     OW  913   3.046   2.990   2.316 -0.0457  0.4364  0.0751
  305SOL    HW1  914   3.071   2.926   2.243 -0.3448  0.2037  0.1250
  305SOL    HW2  915   3.022   3.078   2.264 -0.9710 -1.5854 -1.0308
  306SOL     OW  916   2.635   1.209   1.316 -0.0606 -0.2277  0.1677
  306SOL    HW1  917   2.719   1.180   1.366  0.5719  0.3852  1.8974
  306SOL    HW2  918   2.632   1.185   1.214  0.8851 -0.4827 -3.7220
  307SOL     OW  919   2.024   0.309   1.239 -0.7488  0.6737  0.3504
  307SOL    HW1  920   2.001   0.230   1.299 -0.9165 -0.5339 -2.2357
  307SOL    HW2  921   1.952   0.377   1.236  0.1457 -1.7613  0.2662
  308SOL     OW  922   0.225   2.040   1.406  0.2496 -0.1202 -0.1525
  308SOL    HW1  923   0.232   2.081   1.315  1.3595  0.9997  3.9869
  308SOL    HW2  924   0.139   1.987   1.416  0.6508  0.5183 -0.2866
  309SOL     OW  925   2.446   1.811   1.321  0.7900  0.6613 -0.1831
  309SOL    HW1  926   2.489   1.733   1.370  0.5369 -0.6610  1.0722
  309SOL    HW2  927   2.438   1.890   1.384 -0.9450  2.9412 -1.4752
  310SOL     OW  928   2.651   1.816   0.023 -0.9603 -0.3272  0.7988
  310SOL    HW1  929   2.615   1.900   0.073 -0.6731  1.2314  2.7021
  310SOL    HW2  930   2.723   1.765   0.079 -0.3976  1.2229  0.0630
  311SOL     OW  931   2.123   1.599   2.519 -0.2923 -0.0115 -0.0022
  311SOL    HW1  932   2.026   1.631   2.503 -0.3487  2.8449 -0.5197
  311SOL    HW2  933   2.182   1.670   2.478 -0.3105 -1.1492  1.6139
  312SOL     OW  934   2.352   2.287   0.825  0.1926  0.4626  0.3704
  312SOL    HW1  935   2.427   2.218   0.812  0.5779  2.1952  1.3664
  312SOL    HW2  936   2.396   2.378   0.799 -2.2680 -0.3980  0.0352
  313SOL     OW  937   2.844   2.589   1.197 -0.3334 -0.0884  0.0196
  313SOL    HW1  938   2.805   2.512   1.250  0.2829  2.0102 -0.3643
  313SOL    HW2  939   2.930   2.562   1.152 -0.6458 -2.1075 -1.6465
  314SOL     OW  940   1.154   2.183   1.306 -0.1673  0.3363 -1.3558
  314SOL    HW1  941   1.094   2.207   1.381  3.5383 -0.1951 -0.1147
  314SOL    HW2  942   1.117   2.138   1.227  3.1069  0.9517  0.8301
  315SOL     OW  943   0.277   2.760   2.323  0.0791 -0.3347  0.4783
  315SOL    HW1  944   0.231   2.748   2.413  0.1963  0.2505  1.0226
  315SOL    HW2  945   0.265   2.857   2.287  0.7502  0.2423 -3.3118
  316SOL     OW  946   0.040   1.804   0.799 -0.5514  0.1413  0.2270
  316SOL    HW1  947   0.087   1.828   0.888 -0.8498  1.6227  1.6485
  316SOL    HW2  948   0.095   1.806   0.713  0.9998  0.8212 -1.4087
  317SOL     OW  949   2.098   0.335   0.444  0.5320  0.1591  0.0672
  317SOL    HW1  950   2.138   0.410   0.496 -1.8589 -1.8408 -0.6017
  317SOL    HW2  951   2.083   0.254   0.505  2.0252  1.1316 -1.8643
  318SOL     OW  952   2.829   2.888   0.415  0.0871  0.0899 -0.2385
  318SOL    HW1  953   2.900   2.838   0.360  1.8511 -1.4467  0.4559
  318SOL    HW2  954   2.792   2.963   0.361  1.2895 -2.2559 -1.2157
  319SOL     OW  955   1.035   1.354   0.105  0.0043 -0.0735  0.1635
  319SOL    HW1  956   1.106   1.337   0.040 -2.7182  0.5687  2.7582
  319SOL    HW2  957   0.941   1.359   0.069 -0.1893 -0.2594  1.0112
  320SOL     OW  958   0.642   2.856   2.662 -0.1875  0.2261 -0.4132
  320SOL    HW1  959   0.700   2.835   2.581  0.5791 -0.8123  0.6990
  320SOL    HW2  960   0.546   2.822   2.645 -0.9040 -1.0585 -1.0842
  321SOL     OW  961   1.158   3.005   3.055 -0.1645  0.0322  0.1327
  321SOL    HW1  962   1.209   2.971   0.036  1.2928 -0.6267 -1.3829
  321SOL    HW2  963   1.085   2.937   3.030  0.2983  1.4610 -1.8551
  322SOL     OW  964   2.342   1.151   1.898  0.3819  0.3800 -0.3271
  322SOL    HW1  965   2.288   1.168   1.981  0.2715 -0.1697  1.4903
  322SOL    HW2  966   2.438   1.182   1.906 -1.0065 -1.9729 -0.9927
  323SOL     OW  967   2.450   0.880   0.318 -0.2125 -0.3078  0.0722
  323SOL    HW1  968   2.345   0.873   0.323 -1.3935 -1.6459  1.7088
  323SOL    HW2  969   2.478   0.829   0.234 -0.4662  0.8683  1.3630
  324SOL     OW  970   0.268   0.513   2.841 -0.5589  0.0633  0.1470
  324SOL    HW1  971   0.213   0.454   2.901  1.9848  1.0008  0.9070
  324SOL    HW2  972   0.248   0.490   2.746  0.0442  1.9517  3.6424
  325SOL     OW  973   1.278   2.857   2.086  0.5358  0.1711 -0.0838
  325SOL    HW1  974   1.336   2.851   2.005 -2.8737 -1.1722  0.7869
  325SOL    HW2  975   1.194   2.802   2.060  0.9133 -1.8725  0.5647
  326SOL     OW  976   2.402   0.012   1.444 -0.8870  0.0673 -0.3573
  326SOL    HW1  977   2.305   3.093   1.465  0.2809 -0.2823  1.7187
  326SOL    HW2  978   2.412   0.110   1.415 -0.2364 -0.1014  2.5700
  327SOL     OW  979   1.738   0.727   2.912 -0.8064  0.6319 -0.0189
  327SOL    HW1  980   1.733   0.633   2.945  0.0701  2.7811  1.9464
  327SOL    HW2  981   1.827   0.753   2.873  0.4005  0.1805 -1.0779
  328SOL     OW  982   2.951   1.349   2.231 -0.2381  0.2689 -0.0006
  328SOL    HW1  983   3.028   1.293   2.200 -1.8444 -2.2539 -1.7285
  328SOL    HW2  984   2.949   1.352   2.333 -0.6045 -1.1945  0.3477
  329SOL     OW  985   1.461   2.497   1.657  0.4500 -0.6179  0.0061
  329SOL    HW1  986   1.369   2.495   1.699  2.0168  1.0144  2.4969
  329SOL    HW2  987   1.527   2.561   1.707  0.7383  0.4010 -1.0711
  330SOL     OW  988   2.714   1.442   1.781  0.0030  0.7394  0.2648
  330SOL    HW1  989   2.763   1.425   1.691  1.0222  3.7825  0.5252
  330SOL    HW2  990   2.778   1.471   1.851  1.3614 -2.0771  0.3212
  331SOL     OW  991   0.177   2.092   0.628  0.5305  0.2596  0.0894
  331SOL    HW1  992   0.168   1.990   0.635  2.5907 -1.4379 -0.6082
  331SOL    HW2  993   0.189   2.120   0.531 -0.1132  0.9818  0.4493
  332SOL     OW  994   0.869   0.490   0.918 -0.1016  0.2874  0.2887
  332SOL    HW1  995   0.805   0.550   0.861 -1.6332  1.2571  2.8633
  332SOL    HW2  996   0.966   0.493   0.879  4.3182  0.2780  0.2254
  333SOL     OW  997   2.083   2.700   2.319 -0.1532  0.3128  0.2703
  333SOL    HW1  998   2.022   2.723   2.399  2.0525  1.3861  1.4898
  333SOL    HW2  999   2.152   2.626   2.348  0.1961  0.4465 -2.8944
  334SOL     OW 1000   1.203   1.237   1.202 -0.5337 -0.0918  0.5897
  334SOL    HW1 1001   1.296   1.198   1.191  0.7530  1.0610  2.8653
  334SOL    HW2 1002   1.209   1.329   1.252 -0.5327 -1.3775 -1.7182
  335SOL     OW 1003   0.090   2.687   2.538  0.2783 -0.6224 -0.4059
  335SOL    HW1 1004   0.003   2.738   2.542  0.6373 -1.3463 -0.9650
  335SOL    HW2 1005   0.109   2.643   2.631 -0.6158 -1.0230 -0.5703
  336SOL     OW 1006   2.583   2.293   2.050 -0.2634 -0.0064 -0.0159
  336SOL    HW1 1007   2.686   2.293   2.055  2.1744 -1.3175 -0.2595
  336SOL    HW2 1008   2.549   2.259   1.961  1.2379 -1.1384 -1.9216
  337SOL     OW 1009   2.100   1.554   0.553 -0.9237  0.2970 -0.2103
  337SOL    HW1 1010   2.204   1.569   0.558  0.9751 -0.1111  1.5677
  337SOL    HW2 1011   2.064   1.618   0.482  1.1730  2.8258  0.0585
  338SOL     OW 1012   1.183   1.772   1.269 -0.2980 -0.3600 -0.3272
  338SOL    HW1 1013   1.144   1.782   1.361 -2.0099 -1.9014 -1.0112
  338SOL    HW2 1014   1.258   1.841   1.249  1.7350  4.7702 -0.5799
  339SOL     OW 1015   3.078   0.510   1.126  0.2409 -0.1251  0.0303
  339SOL    HW1 1016   0.038   0.550   1.194  0.3085  0.8341  0.6960
  339SOL    HW2 1017   2.980   0.515   1.156 -3.0386  1.0811 -1.7194
  340SOL     OW 1018   1.635   2.653   1.800 -0.3610 -0.1968 -0.5764
  340SOL    HW1 1019   1.727   2.704   1.803  2.1921  3.2079  0.0304
  340SOL    HW2 1020   1.623   2.596   1.887  1.5099  0.5058 -0.3330
  341SOL     OW 1021   2.272   1.365   0.934  0.0008  0.3006 -0.1041
  341SOL    HW1 1022   2.343   1.424   0.974  0.4422  0.1090  1.8282
  341SOL    HW2 1023   2.204   1.422   0.881  0.9134  3.0963 -4.0752
  342SOL     OW 1024   0.435   1.699   0.674  0.1136  0.4738  0.4063
  342SOL    HW1 1025   0.514   1.658   0.624 -0.2119 -1.2444 -1.3002
  342SOL    HW2 1026   0.384   1.620   0.718 -0.8245 -4.0214 -0.3277
  343SOL     OW 1027   2.550   0.878   1.601  0.0186 -0.2232  0.2674
  343SOL    HW1 1028   2.480   0.950   1.612  0.6839 -2.5356  0.9157
  343SOL    HW2 1029   2.626   0.900   1.664 -0.4802  0.5674 -0.0635
  344SOL     OW 1030   2.438   0.244   0.847  0.3522 -0.0656  0.2393
  344SOL    HW1 1031   2.460   0.338   0.817 -1.6096  0.3653 -1.8798
  344SOL    HW2 1032   2.503   0.175   0.801  1.7940 -3.2071 -1.6314
  345SOL     OW 1033   2.808   2.600   2.453 -0.1022  0.0841 -0.4505
  345SOL    HW1 1034   2.766   2.619   2.541  2.0002  2.0261 -0.5538
  345SOL    HW2 1035   2.757   2.652   2.379 -0.3342 -2.0181  1.6338
  346SOL     OW 1036   0.066   1.345   0.561  0.0720 -0.6120 -0.3771
  346SOL    HW1 1037   0.056   1.272   0.633  0.1147 -3.7657  1.2758
  346SOL    HW2 1038   3.078   1.391   0.534 -0.3864  1.2674 -0.0011
  347SOL     OW 1039   1.787   2.792   1.402 -0.0667  0.6909 -0.2894
  347SOL    HW1 1040   1.848   2.774   1.480  0.1122 -0.8051 -2.2138
  347SOL    HW2 1041   1.733   2.708   1.395 -0.5451 -0.2023  0.3860
  348SOL     OW 1042   1.130   1.004   1.797  0.7133 -0.4029 -0.6498
  348SOL    HW1 1043   1.215   1.052   1.826 -0.7480  2.2265 -0.8800
  348SOL    HW2 1044   1.066   0.995   1.878  2.4696  1.1204  1.3800
  349SOL     OW 1045   2.282   1.459   2.031  0.4999  0.0919 -0.3420
  349SOL    HW1 1046   2.316   1.367   2.060  3.0174 -1.3990 -1.8189
  349SOL    HW2 1047   2.341   1.534   2.074 -0.4972  3.5560  0.4379
  350SOL     OW 1048   2.873   2.197   0.643  0.0654  0.2817 -0.2815
  350SOL    HW1 1049   2.871   2.269   0.717 -1.6407 -1.9726 -1.4779
  350SOL    HW2 1050   2.929   2.233   0.572 -0.8778 -0.9139  1.9868
  351SOL     OW 1051   0.150   0.592   1.594  0.1142 -0.4088 -0.2007
  351SOL    HW1 1052   0.149   0.673   1.657 -1.2670 -0.9797  1.2653
  351SOL    HW2 1053   0.094   0.509   1.629 -2.0722 -1.5753  1.4969
  352SOL     OW 1054   1.014   2.920   1.569 -0.0363  0.1314  0.2814
  352SOL    HW1 1055   0.994   2.935   1.473  0.3200  2.3924  2.7877
  352SOL    HW2 1056   1.112   2.896   1.580  1.3471 -2.0648  0.6490
  353SOL     OW 1057   0.713   1.226   2.660  0.1374 -0.0471  0.0726
  353SOL    HW1 1058   0.787   1.222   2.730 -0.8199 -0.9815 -0.9605
  353SOL    HW2 1059   0.718   1.314   2.606  0.5092 -0.3867  0.4270
  354SOL     OW 1060   1.377   1.700   0.357  0.7204 -0.4271  0.0362
  354SOL    HW1 1061   1.282   1.661   0.359 -1.3629 -2.8550  2.3657
  354SOL    HW2 1062   1.448   1.636   0.387 -2.4646 -0.4841  2.6121
  355SOL     OW 1063   2.173   0.197   0.795 -0.2615  0.1508 -0.1422
  355SOL    HW1 1064   2.125   0.271   0.844  1.6833 -1.4437  1.8057
  355SOL    HW2 1065   2.276   0.213   0.803 -0.5426 -2.3216  0.4698
  356SOL     OW 1066   0.187   1.292   0.060  0.1267 -0.0006  0.1711
  356SOL    HW1 1067   0.288   1.284   0.072  1.5025 -0.7476  0.0210
  356SOL    HW2 1068   0.131   1.251   0.132  1.9458  0.6364  1.2784
  357SOL     OW 1069   0.075   0.089   1.798 -0.5279 -0.1224  0.2304
  357SOL    HW1 1070   0.101   3.091   1.815 -0.4369  1.0350 -0.9283
  357SOL    HW2 1071   3.078   0.119   1.827  0.0629 -0.8269  0.9342
  358SOL     OW 1072   0.491   1.129   2.973 -0.1550  0.1823  0.4700
  358SOL    HW1 1073   0.429   1.158   2.896 -0.3203 -0.4324 -1.0011
  358SOL    HW2 1074   0.481   1.184   3.057  0.2834 -1.0573  0.7634
  359SOL     OW 1075   2.494   2.535   2.693  0.0883  0.0598 -0.3215
  359SOL    HW1 1076   2.432   2.517   2.770 -1.8319 -1.4421  0.4358
  359SOL    HW2 1077   2.443   2.597   2.632 -0.8130  0.8934 -0.7863
  360SOL     OW 1078   1.615   1.318   0.855  0.1067  0.0468  0.2423
  360SOL    HW1 1079   1.514   1.314   0.886 -1.1986  1.5179  1.0718
  360SOL    HW2 1080   1.673   1.280   0.931  2.2700 -1.5975  0.1873
  361SOL     OW 1081   1.881   2.212   1.139  0.2687  0.0704  0.6449
  361SOL    HW1 1082   1.982   2.203   1.146  0.2099 -1.0997 -0.5301
  361SOL    HW2 1083   1.847   2.170   1.228  2.6278 -0.0362 -0.6264
  362SOL     OW 1084   2.023   1.494   0.813  0.1142 -0.5029  0.1564
  362SOL    HW1 1085   2.067   1.482   0.721  1.0440  0.4270  2.0165
  362SOL    HW2 1086   2.039   1.592   0.846 -0.9492  1.3534 -1.8910
  363SOL     OW 1087   2.583   2.306   0.416  0.1463  0.1937 -0.2034
  363SOL    HW1 1088   2.547   2.230   0.470  2.5003  1.9573  0.0055
  363SOL    HW2 1089   2.645   2.266   0.351  2.2800  1.3993  2.2271
  364SOL     OW 1090   2.475   0.217   1.293  0.3639  0.6997 -0.3377
  364SOL    HW1 1091   2.433   0.162   1.223  2.1845  0.4078  1.3882
  364SOL    HW2 1092   2.573   0.206   1.305  0.4060 -2.8165 -0.0040
  365SOL     OW 1093   0.599   2.817   1.138 -0.7090 -0.4173 -0.2126
  365SOL    HW1 1094   0.548   2.840   1.051  1.4810 -0.7210 -0.8500
  365SOL    HW2 1095   0.542   2.765   1.206  0.7565 -1.5713  1.7256
  366SOL     OW 1096   2.921   1.441   0.410  0.2213  0.2334  0.1413
  366SOL    HW1 1097   2.836   1.406   0.371  1.1770  0.2886  1.1834
  366SOL    HW2 1098   2.988   1.457   0.335 -0.4331 -0.3479  3.2805
  367SOL     OW 1099   2.228   2.323   2.776  0.4562  0.4919 -0.3433
  367SOL    HW1 1100   2.156   2.308   2.702 -0.2697 -1.6038 -3.1838
  367SOL    HW2 1101   2.315   2.291   2.741  0.3387  0.7985  0.9595
  368SOL     OW 1102   2.514   2.064   0.879  0.4181 -0.0623 -0.1274
  368SOL    HW1 1103   2.579   2.020   0.812 -0.3102  0.9020  1.4191
  368SOL    HW2 1104   2.496   2.005   0.962  0.3856 -3.7717  0.7393
  369SOL     OW 1105   0.882   0.986   0.661  0.2823 -0.2706  0.0408
  369SOL    HW1 1106   0.926   1.022   0.745 -1.3871 -1.0036  0.5772
  369SOL    HW2 1107   0.896   1.050   0.585  0.9935 -1.8048  1.3079
  370SOL     OW 1108   0.724   0.266   0.964  0.2001  0.0633  0.2885
  370SOL    HW1 1109   0.772   0.358   0.948 -1.3437  2.3862 -1.2833
  370SOL    HW2 1110   0.788   0.194   0.981 -0.1441  1.4831 -2.6002
  371SOL     OW 1111   2.514   1.253   2.797 -0.2755 -0.2461  0.0177
  371SOL    HW1 1112   2.513   1.250   2.898  1.2523 -0.1103  0.7427
  371SOL    HW2 1113   2.438   1.199   2.756 -0.9995 -2.0725 -1.8386
  372SOL     OW 1114   0.677   0.348   2.373  1.2325  0.1789 -0.1702
  372SOL    HW1 1115   0.720   0.409   2.303 -1.8215 -0.3931  3.1813
  372SOL    HW2 1116   0.755   0.331   2.440  3.5658 -0.3885  0.6866
  373SOL     OW 1117   0.762   0.450   2.915 -0.0728  0.6315  0.1397
  373SOL    HW1 1118   0.757   0.518   2.838 -0.7389 -1.1378 -0.3613
  373SOL    HW2 1119   0.849   0.452   2.961 -0.0863  1.1862  2.6089
  374SOL     OW 1120   0.915   2.374   0.038 -0.6790 -0.0713  0.4530
  374SOL    HW1 1121   0.945   2.471   0.035  0.1935 -1.2525  1.6999
  374SOL    HW2 1122   0.948   2.333   0.126  0.9224 -2.9328 -0.7371
  375SOL     OW 1123   0.907   0.051   0.612  0.5842 -0.1608 -0.2629
  375SOL    HW1 1124   0.950   0.017   0.695 -0.6973 -1.6126  2.4450
  375SOL    HW2 1125   0.939   0.148   0.602 -2.0575  0.0577  2.7157
  376SOL     OW 1126   3.084   2.314   2.010  0.1856 -0.3624 -0.0430
  376SOL    HW1 1127   2.997   2.365   2.008 -0.6713 -1.0943  0.0905
  376SOL    HW2 1128   0.035   2.325   1.924  0.7196  2.6873 -1.2433
  377SOL     OW 1129   2.628   2.082   0.103  0.2584 -0.3844 -0.8378
  377SOL    HW1 1130   2.539   2.072   0.157 -2.1413  0.4270  3.0408
  377SOL    HW2 1131   2.602   2.084   0.004 -0.8474  0.4466  0.2674
  378SOL     OW 1132   1.856   0.532   0.688 -0.0064 -0.0972  0.0345
  378SOL    HW1 1133   1.793   0.474   0.630  1.2036  2.3559  0.7666
  378SOL    HW2 1134   1.889   0.474   0.763 -0.7257 -0.1434 -1.0168
  379SOL     OW 1135   1.464   1.007   0.806  0.3252 -0.5586  0.2833
  379SOL    HW1 1136   1.366   0.970   0.811  0.1558 -1.2143 -0.3832
  379SOL    HW2 1137   1.476   1.065   0.722  2.3719  1.0131 -0.2338
  380SOL     OW 1138   2.473   1.880   1.962  0.1645  0.3916  0.0387
  380SOL    HW1 1139   2.568   1.859   1.927  0.4257  0.0696  0.4004
  380SOL    HW2 1140   2.485   1.956   2.031 -1.7894 -1.0187 -0.9719
  381SOL     OW 1141   0.092   1.188   2.230 -0.0628 -0.1535 -0.2944
  381SOL    HW1 1142   0.022   1.144   2.286  1.8662 -0.0102 -0.5819
  381SOL    HW2 1143   0.165   1.122   2.204  1.4829  2.6929 -2.4107
  382SOL     OW 1144   2.919   2.476   0.240 -0.5127  0.0217 -0.0322
  382SOL    HW1 1145   2.860   2.388   0.240  1.0409  0.3748  0.7691
  382SOL    HW2 1146   2.859   2.560   0.250  0.9921  0.3272  1.7032
  383SOL     OW 1147   1.359   0.971   2.152 -0.2740 -0.2584 -0.2668
  383SOL    HW1 1148   1.449   1.018   2.139 -0.9048  0.2411 -1.0734
  383SOL    HW2 1149   1.352   0.955   2.253 -4.3515  0.7481  0.8314
  384SOL     OW 1150   1.036   2.097   2.502  0.5936  0.1155  0.4971
  384SOL    HW1 1151   1.040   2.085   2.602  1.8315 -2.7326  1.5544
  384SOL    HW2 1152   0.941   2.118   2.475 -1.0295 -0.9917  1.1184
  385SOL     OW 1153   2.257   2.257   0.156  0.0523  0.0245 -0.2523
  385SOL    HW1 1154   2.190   2.297   0.096  0.6786 -2.1374  5.4178
  385SOL    HW2 1155   2.306   2.334   0.202 -0.3158 -2.1471 -0.3757
  386SOL     OW 1156   1.622   1.340   0.278 -0.5411 -0.0910  0.3947
  386SOL    HW1 1157   1.603   1.422   0.333  0.6341  0.7406 -0.6586
  386SOL    HW2 1158   1.681   1.268   0.321 -0.3095 -0.8528  0.4758
  387SOL     OW 1159   2.876   1.127   1.469  0.3214  0.2955  0.1797
  387SOL    HW1 1160   2.949   1.190   1.499  0.9588 -1.1723 -1.6531
  387SOL    HW2 1161   2.860   1.057   1.542  0.3162  1.5361  0.6708
  388SOL     OW 1162   0.515   0.846   1.135  0.0596  0.0067 -0.6020
  388SOL    HW1 1163   0.477   0.927   1.084 -1.9660  0.0551 -0.9548
  388SOL    HW2 1164   0.450   0.765   1.132  1.6220  0.7571  0.0283
  389SOL     OW 1165   2.211   1.184   2.126 -0.3145  0.4485 -0.2269
  389SOL    HW1 1166   2.239   1.174   2.226  0.4533  0.7088  2.5386
  389SOL    HW2 1167   2.109   1.181   2.123  1.3820 -0.9100 -1.2615
  390SOL     OW 1168   1.297   1.932   0.512  0.2866 -0.6955  0.6145
  390SOL    HW1 1169   1.335   1.864   0.446  1.4265  0.6090  0.6235
  390SOL    HW2 1170   1.349   1.927   0.600  1.6096 -0.9454  1.5482
  391SOL     OW 1171   1.077   1.954   0.879  0.0636  0.0222  0.0352
  391SOL    HW1 1172   1.179   1.936   0.871  0.2725 -0.5421 -0.0079
  391SOL    HW2 1173   1.023   1.868   0.866 -3.5962 -1.4982  0.0960
  392SOL     OW 1174   2.488   2.529   2.109 -0.0022  0.4606  0.0711
  392SOL    HW1 1175   2.408   2.553   2.046 -0.1788  0.1925  2.6229
  392SOL    HW2 1176   2.519   2.428   2.106 -1.0610 -1.7695  0.2804
  393SOL     OW 1177   1.316   2.118   0.026 -0.0791 -0.0867 -0.5934
  393SOL    HW1 1178   1.264   2.142   3.039 -0.3186  0.3288  0.0837
  393SOL    HW2 1179   1.396   2.057   0.011 -1.7066 -0.4748  2.0644
  394SOL     OW 1180   0.120   0.418   2.393 -0.1250  0.2400  0.0505
  394SOL    HW1 1181   0.080   0.494   2.338 -3.0722 -2.8347  1.0046
  394SOL    HW2 1182   0.153   0.340   2.334  3.0420 -0.2704 -1.2374
  395SOL     OW 1183   0.422   0.957   0.844  0.1744  0.3442  0.7336
  395SOL    HW1 1184   0.478   1.018   0.906 -2.7999 -0.0012 -1.1505
  395SOL    HW2 1185   0.473   0.896   0.781 -2.0227 -1.9797 -0.8699
  396SOL     OW 1186   2.351   1.078   2.654  0.5434  0.1348 -0.1497
  396SOL    HW1 1187   2.309   0.991   2.630  1.4475 -0.5272  0.2220
  396SOL    HW2 1188   2.447   1.075   2.616 -0.0538 -0.3749  0.6367
  397SOL     OW 1189   0.573   0.645   3.022 -0.4269  0.4449 -0.5909
  397SOL    HW1 1190   0.523   0.725   2.982 -0.3926  1.4719 -2.6115
  397SOL    HW2 1191   0.625   0.594   2.952 -1.1567  3.1639  1.6444
  398SOL     OW 1192   1.067   2.797   0.586  0.0121  0.0263 -0.3325
  398SOL    HW1 1193   1.137   2.856   0.638 -0.6005  3.2091  1.3290
  398SOL    HW2 1194   1.017   2.849   0.511 -2.1146  3.4602 -2.4818
  399SOL     OW 1195   1.972   2.509   1.985  0.0789  0.1800 -0.3237
  399SOL    HW1 1196   1.910   2.464   2.059  0.8839  2.8208  0.7279
  399SOL    HW2 1197   1.988   2.436   1.910  0.7260 -0.6821  0.5660
  400SOL     OW 1198   0.153   1.207   1.726  0.0716  0.4116  0.2689
  400SOL    HW1 1199   0.136   1.124   1.787 -1.7788  1.5087  1.2287
  400SOL    HW2 1200   0.107   1.291   1.759  0.0327 -0.1427  1.3784
  401SOL     OW 1201   0.612   0.855   0.625 -0.2228  0.0171  0.2419
  401SOL    HW1 1202   0.634   0.777   0.561  0.5493  0.9570  0.0944
  401SOL    HW2 1203   0.699   0.884   0.659 -0.8456 -1.6520 -1.5939
  402SOL     OW 1204   0.775   2.988   2.282 -0.3503 -0.0932 -0.5482
  402SOL    HW1 1205   0.868   2.985   2.325  0.9512  1.5648 -2.1064
  402SOL    HW2 1206   0.784   2.995   2.181 -1.7646 -0.7396  3.0399
  403SOL     OW 1207   2.716   1.823   1.847 -0.1048  0.2492 -0.2609
  403SOL    HW1 1208   2.800   1.821   1.901 -0.6157 -2.0412 -0.5397
  403SOL    HW2 1209   2.710   1.735   1.801 -3.0181  2.9486  2.1792
  404SOL     OW 1210   2.504   2.068   2.146  0.3428 -0.5127  0.4640
  404SOL    HW1 1211   2.541   2.050   2.239 -0.8399  2.0399 -0.9972
  404SOL    HW2 1212   2.542   2.160   2.111  1.6153  2.5942 -1.0973
  405SOL     OW 1213   2.017   0.145   2.773  0.3361  0.0732 -0.4533
  405SOL    HW1 1214   2.053   0.050   2.782  2.4262  1.5320  1.2810
  405SOL    HW2 1215   1.974   0.166   2.684  1.8482 -0.9337  1.8397
  406SOL     OW 1216   1.043   1.820   0.243 -0.0202  0.7828  0.1710
  406SOL    HW1 1217   1.062   1.917   0.220  0.6402 -0.9009 -1.7360
  406SOL    HW2 1218   1.054   1.793   0.340  0.7795  1.6712  0.5382
  407SOL     OW 1219   1.400   1.260   0.175  0.4564  0.3420 -0.1089
  407SOL    HW1 1220   1.372   1.271   0.077 -2.2678  1.1389  0.9258
  407SOL    HW2 1221   1.495   1.302   0.192 -2.2517  0.6680 -0.4768
  408SOL     OW 1222   0.393   0.446   1.501 -0.2987 -0.0226 -0.3820
  408SOL    HW1 1223   0.308   0.496   1.526 -1.2977 -0.9206 -1.8021
  408SOL    HW2 1224   0.469   0.465   1.569  1.2827 -2.1504  3.0274
  409SOL     OW 1225   2.849   1.566   2.798 -0.2355 -0.1908 -0.4392
  409SOL    HW1 1226   2.753   1.531   2.795 -0.2811 -0.1475  0.6666
  409SOL    HW2 1227   2.853   1.669   2.822  1.4694  1.5868 -0.1508
  410SOL     OW 1228   2.774   2.765   0.788 -0.3950  0.0286  0.5594
  410SOL    HW1 1229   2.736   2.809   0.873  2.3307 -0.3321  1.3483
  410SOL    HW2 1230   2.743   2.670   0.778  1.1506  2.3275 -1.2134
  411SOL     OW 1231   0.082   0.648   0.569  0.4082  0.4363  1.0006
  411SOL    HW1 1232   0.066   0.657   0.670  1.5772  0.2943  1.1834
  411SOL    HW2 1233   0.008   0.695   0.518 -2.8705  0.0379 -2.2991
  412SOL     OW 1234   1.484   3.038   0.448 -0.3685 -0.1476 -0.0901
  412SOL    HW1 1235   1.403   3.087   0.413  0.7292  2.2579 -0.4314
  412SOL    HW2 1236   1.486   2.934   0.436 -0.3140 -1.2407 -2.5213
  413SOL     OW 1237   1.601   0.392   1.937  0.5031  0.0246  0.4763
  413SOL    HW1 1238   1.625   0.324   2.007 -0.2368  0.9665  1.1388
  413SOL    HW2 1239   1.548   0.471   1.981 -0.5985  2.6416  0.6258
  414SOL     OW 1240   0.182   1.069   0.416 -0.4019 -0.2093  0.0864
  414SOL    HW1 1241   0.121   1.027   0.484 -0.2660 -1.9860 -0.4968
  414SOL    HW2 1242   0.280   1.052   0.439  0.1763 -2.9988 -0.4859
  415SOL     OW 1243   2.700   1.350   0.271  0.4883 -0.0340 -0.0883
  415SOL    HW1 1244   2.749   1.324   0.186 -1.0150  1.7288 -1.7398
  415SOL    HW2 1245   2.603   1.319   0.276 -0.6412  1.5550  2.0306
  416SOL     OW 1246   2.567   0.509   2.896 -0.5785 -0.3084  0.0501
  416SOL    HW1 1247   2.491   0.569   2.868 -0.6838 -1.4413  2.9901
  416SOL    HW2 1248   2.629   0.556   2.962  1.2268  0.9393 -1.1656
  417SOL     OW 1249   2.560   0.111   0.649  0.0044  0.1973 -0.0302
  417SOL    HW1 1250   2.660   0.099   0.632  2.5240  1.6638 -1.7116
  417SOL    HW2 1251   2.512   0.154   0.566 -2.1349  0.5402 -0.9767
  418SOL     OW 1252   0.484   0.250   0.101 -0.2726 -0.0254 -0.2204
  418SOL    HW1 1253   0.561   0.287   0.152  1.7920 -0.1711 -0.2334
  418SOL    HW2 1254   0.488   0.286   0.003  0.9817  0.1635  0.1888
  419SOL     OW 1255   0.723   0.879   0.933 -0.6231  0.2865  0.6686
  419SOL    HW1 1256   0.692   0.850   1.023  0.8415  1.1019 -2.3675
  419SOL    HW2 1257   0.746   0.801   0.872 -0.4964 -0.3079 -0.7879
  420SOL     OW 1258   0.187   0.876   0.973  0.2948 -0.1643 -0.3572
  420SOL    HW1 1259   0.254   0.937   0.929  0.2482 -1.4560 -0.8393
  420SOL    HW2 1260   0.168   0.909   1.067  0.2261  0.8568  0.1012
  421SOL     OW 1261   0.562   1.974   0.095 -0.1920 -0.1485 -0.0844
  421SOL    HW1 1262   0.513   2.066   0.120 -1.3063  5.5319 -0.2167
  421SOL    HW2 1263   0.636   1.991   0.029 -1.4788 -1.6838  1.6138
  422SOL     OW 1264   2.402   0.144   2.048  0.1700  0.6375 -0.3072
  422SOL    HW1 1265   2.482   0.139   2.113 -0.2645 -0.2852 -1.8933
  422SOL    HW2 1266   2.365   0.237   2.043 -0.6734 -0.3597 -1.2073
  423SOL     OW 1267   1.796   1.708   3.051 -0.2535 -0.4541  0.2931
  423SOL    HW1 1268   1.876   1.759   3.095  0.9336  1.6988  0.0773
  423SOL    HW2 1269   1.753   1.767   2.979  1.2249 -1.8839 -0.5823
  424SOL     OW 1270   1.563   1.377   2.208 -0.7982  0.3930  0.1534
  424SOL    HW1 1271   1.648   1.430   2.222 -2.5690 -1.8750  2.9454
  424SOL    HW2 1272   1.583   1.277   2.240  0.9262 -6.3923  0.0228
  425SOL     OW 1273   2.985   2.510   2.271 -0.3204 -0.2900 -0.4601
  425SOL    HW1 1274   3.078   2.531   2.243  2.3095  0.0684 -2.0873
  425SOL    HW2 1275   2.960   2.573   2.350 -1.1895  0.2924  1.9781
  426SOL     OW 1276   2.332   2.762   0.721 -0.4123  0.3196 -0.0628
  426SOL    HW1 1277   2.255   2.772   0.660  1.6222 -2.6703 -0.1952
  426SOL    HW2 1278   2.376   2.851   0.749  1.6065  1.4869  0.0671
  427SOL     OW 1279   0.508   0.792   2.625  0.0664  0.5543 -0.6903
  427SOL    HW1 1280   0.498   0.864   2.698  1.9635  0.9834  0.4131
  427SOL    HW2 1281   0.559   0.709   2.660 -0.2226 -0.1924 -0.2244
  428SOL     OW 1282   2.726   1.287   2.598  0.8030 -0.0783  0.4300
  428SOL    HW1 1283   2.703   1.190   2.578 -1.4362  0.0680  0.0579
  428SOL    HW2 1284   2.676   1.326   2.678 -0.3636 -2.0119 -0.4920
  429SOL     OW 1285   2.490   0.442   0.346  0.0221  0.1455 -0.1492
  429SOL    HW1 1286   2.409   0.505   0.356 -0.2366  2.0053  0.3732
  429SOL    HW2 1287   2.459   0.347   0.365  3.1775  0.6412  0.1351
  430SOL     OW 1288   1.681   1.951   2.471  0.5550  0.2258  0.3091
  430SOL    HW1 1289   1.710   1.998   2.384 -1.7191  1.2208  2.2979
  430SOL    HW2 1290   1.619   1.870   2.451 -1.7283 -0.6782 -0.4909
  431SOL     OW 1291   0.135   1.894   1.764  0.0259 -0.5212 -0.0151
  431SOL    HW1 1292   0.128   1.922   1.861  1.0121 -0.0021 -1.3855
  431SOL    HW2 1293   0.195   1.812   1.768  1.1562 -1.1070 -0.8096
  432SOL     OW 1294   1.212   1.953   2.347 -0.5277  0.0158  0.6248
  432SOL    HW1 1295   1.218   1.989   2.253 -0.2010 -0.9519 -1.8011
  432SOL    HW2 1296   1.134   1.991   2.391  3.7934 -1.4887 -1.0118
  433SOL     OW 1297   0.880   2.247   0.429  0.1115 -0.2875  0.4343
  433SOL    HW1 1298   0.796   2.291   0.470  0.7498  0.6051  0.6703
  433SOL    HW2 1299   0.859   2.212   0.336  2.6926 -0.6958 -1.0844
  434SOL     OW 1300   0.218   2.135   2.579  0.3680 -0.0769 -0.5628
  434SOL    HW1 1301   0.196   2.232   2.582  0.5830 -1.4120 -0.8337
  434SOL    HW2 1302   0.263   2.112   2.493  0.3559  0.1675  0.8104
  435SOL     OW 1303   0.310   1.401   0.413  0.0662  0.1847 -0.3336
  435SOL    HW1 1304   0.232   1.341   0.421  5.0156  0.2205 -1.8803
  435SOL    HW2 1305   0.395   1.359   0.450  2.5406  0.2145  0.1823
  436SOL     OW 1306   0.127   2.312   1.744  0.2526  0.0720  0.5071
  436SOL    HW1 1307   0.096   2.384   1.677  1.3162 -0.9872  0.3883
  436SOL    HW2 1308   0.188   2.240   1.706  1.2602 -0.1104 -2.7191
  437SOL     OW 1309   1.084   0.291   0.318  0.4497 -0.1697 -0.4416
  437SOL    HW1 1310   1.109   0.375   0.269 -3.1418  1.2152 -0.5380
  437SOL    HW2 1311   1.063   0.222   0.244 -2.3543 -2.4601 -0.9642
  438SOL     OW 1312   0.614   2.410   0.520  0.4904 -0.8303  0.2168
  438SOL    HW1 1313   0.687   2.460   0.473 -1.3349 -1.9299  2.9313
  438SOL    HW2 1314   0.575   2.471   0.598  1.0338  1.1376 -0.3084
  439SOL     OW 1315   0.596   2.497   1.601  0.1659 -0.0320 -0.4244
  439SOL    HW1 1316   0.576   2.423   1.528 -2.1700  0.2025 -0.7823
  439SOL    HW2 1317   0.521   2.561   1.602  1.6625 -2.9590 -1.9892
  440SOL     OW 1318   1.467   2.888   1.858 -0.2826  0.7227  0.0695
  440SOL    HW1 1319   1.507   2.966   1.908  0.7262  0.4810  0.3177
  440SOL    HW2 1320   1.533   2.809   1.849  3.5002  0.3295 -1.9441
  441SOL     OW 1321   3.098   0.389   1.635 -0.6033 -0.6858 -0.2213
  441SOL    HW1 1322   3.089   0.333   1.550 -0.0322  0.8529 -0.6978
  441SOL    HW2 1323   3.027   0.354   1.699  1.1931  0.7976 -1.0233
  442SOL     OW 1324   1.851   2.156   0.720 -0.1610  0.1589 -0.4317
  442SOL    HW1 1325   1.833   2.077   0.782  2.4014 -0.9566 -2.3895
  442SOL    HW2 1326   1.950   2.167   0.704  1.1620 -1.2499 -4.1798
  443SOL     OW 1327   2.747   0.301   2.340 -0.1172 -0.2491  0.0753
  443SOL    HW1 1328   2.849   0.297   2.364  3.6941  0.2611 -1.4845
  443SOL    HW2 1329   2.726   0.209   2.296 -0.6168  2.0719  1.8002
  444SOL     OW 1330   2.107   0.926   1.815 -0.6261  0.1505 -0.3483
  444SOL    HW1 1331   2.192   0.958   1.868 -2.0671  0.7277  0.2811
  444SOL    HW2 1332   2.063   0.846   1.856  1.1009 -0.8571  0.6989
  445SOL     OW 1333   2.727   2.345   1.329  0.4279  0.2133 -0.3540
  445SOL    HW1 1334   2.689   2.263   1.378 -0.6547 -3.1361 -0.6205
  445SOL    HW2 1335   2.665   2.398   1.272  2.6227 -1.5369  0.5634
  446SOL     OW 1336   2.995   1.669   0.550  0.2966 -0.0213 -0.1856
  446SOL    HW1 1337   2.962   1.577   0.526  0.2050 -0.5946  0.4174
  446SOL    HW2 1338   3.096   1.668   0.558  2.1375  0.4240 -1.3522
  447SOL     OW 1339   0.623   1.392   0.722 -0.7178 -0.0425 -0.1869
  447SOL    HW1 1340   0.716   1.368   0.747 -3.2857 -0.5157 -0.9482
  447SOL    HW2 1341   0.618   1.494   0.706 -0.2688 -1.4482  2.2305
  448SOL     OW 1342   1.508   1.558   1.419 -0.3498 -0.1334  0.4407
  448SOL    HW1 1343   1.562   1.506   1.492  0.1216 -2.0336  0.2227
  448SOL    HW2 1344   1.555   1.544   1.328 -0.6158 -2.5846 -3.6097
  449SOL     OW 1345   0.767   1.367   0.070  0.5480 -0.3980  0.4763
  449SOL    HW1 1346   0.761   1.328   0.164 -0.0200 -3.2305  1.4661
  449SOL    HW2 1347   0.723   1.296   0.008 -0.0030 -2.1942 -4.2272
  450SOL     OW 1348   2.243   2.152   2.178 -0.0127  0.1811 -0.0832
  450SOL    HW1 1349   2.232   2.241   2.229  1.0534 -2.8375  1.6669
  450SOL    HW2 1350   2.342   2.121   2.159 -1.4280 -2.4000 -0.4994
  451SOL     OW 1351   1.766   2.936   2.328 -0.0228 -0.1816 -0.2028
  451SOL    HW1 1352   1.863   2.949   2.298  0.0729 -2.2344  1.5973
  451SOL    HW2 1353   1.757   2.851   2.382  1.1082 -0.3165  1.4150
  452SOL     OW 1354   1.231   0.147   1.528  0.3868 -0.4357 -0.3246
  452SOL    HW1 1355   1.144   0.141   1.474 -1.1471 -1.8306  2.1609
  452SOL    HW2 1356   1.246   0.063   1.579  1.5435 -2.7820  0.8167
  453SOL     OW 1357   1.847   1.060   0.810  0.3489 -0.0245 -0.3193
  453SOL    HW1 1358   1.752   1.089   0.825  0.5158 -0.4608  0.7865
  453SOL    HW2 1359   1.849   0.981   0.749 -0.7032 -1.2717  0.0831
  454SOL     OW 1360   0.364   1.630   0.988  0.4987 -0.1456 -0.3355
  454SOL    HW1 1361   0.312   1.583   0.918 -2.3133  1.7152  2.4877
  454SOL    HW2 1362   0.458   1.596   0.986 -1.1252  0.0702  1.0376
  455SOL     OW 1363   2.775   3.094   0.250 -0.1002 -0.2674  0.2161
  455SOL    HW1 1364   2.700   3.083   0.183 -3.1345  0.2518  2.8003
  455SOL    HW2 1365   2.759   0.081   0.301  2.5629 -2.5491 -1.8218
  456SOL     OW 1366   2.526   2.460   1.156 -0.5554 -0.1675 -0.3704
  456SOL    HW1 1367   2.467   2.520   1.099 -0.2368  0.0216  2.6394
  456SOL    HW2 1368   2.482   2.451   1.245 -0.6839 -0.6194 -1.1107
  457SOL     OW 1369   1.329   0.142   0.312  0.3686 -0.1902 -0.2750
  457SOL    HW1 1370   1.367   0.176   0.225 -0.8288 -1.7075  0.9291
  457SOL    HW2 1371   1.263   0.213   0.345  0.3203  2.4412  0.3557
  458SOL     OW 1372   2.753   0.477   0.333  0.4285  0.7044  0.4821
  458SOL    HW1 1373   2.795   0.530   0.411 -2.1245 -0.5551  3.3852
  458SOL    HW2 1374   2.652   0.471   0.339  1.5456 -0.2516  0.3941
  459SOL     OW 1375   2.107   0.434   2.565  0.1007 -0.1397 -0.6203
  459SOL    HW1 1376   2.029   0.365   2.576 -1.0494 -0.4490 -0.5439
  459SOL    HW2 1377   2.151   0.443   2.656 -0.6113  1.0186 -0.3273
  460SOL     OW 1378   2.701   0.442   2.663 -0.2946  0.4246  0.3293
  460SOL    HW1 1379   2.676   0.494   2.748  0.2759  1.0855  2.5992
  460SOL    HW2 1380   2.621   0.448   2.598 -0.3943  0.3835  1.6179
  461SOL     OW 1381   1.292   1.777   0.856  0.4154  0.2401  0.6140
  461SOL    HW1 1382   1.347   1.716   0.917  3.7656  1.1517  1.5868
  461SOL    HW2 1383   1.221   1.726   0.807  0.9826  0.7048  0.5464
  462SOL     OW 1384   2.449   2.821   1.399 -0.3043  0.0835 -0.0323
  462SOL    HW1 1385   2.437   2.921   1.391 -3.2527 -1.4483  2.7528
  462SOL    HW2 1386   2.476   2.795   1.494  2.4845 -0.3191  0.8578
  463SOL     OW 1387   2.824   0.995   0.448 -0.0538  0.3928 -0.3391
  463SOL    HW1 1388   2.856   1.028   0.358 -1.9262 -0.0154  2.4667
  463SOL    HW2 1389   2.729   1.010   0.469  2.1576  0.3129 -0.9188
  464SOL     OW 1390   0.347   2.475   1.123  0.2506 -0.1328 -0.3518
  464SOL    HW1 1391   0.310   2.503   1.034  2.5534 -1.8804 -1.6466
  464SOL    HW2 1392   0.283   2.414   1.175 -1.5316  0.5590  0.0514
  465SOL     OW 1393   3.057   1.495   0.110  0.4139  0.2938  0.0825
  465SOL    HW1 1394   3.098   1.404   0.094  1.1099  0.6411  0.8473
  465SOL    HW2 1395   0.029   1.554   0.156 -0.2872  1.9808 -0.6504
  466SOL     OW 1396   1.310   0.493   2.654 -0.5050 -0.1647 -0.6762
  466SOL    HW1 1397   1.214   0.475   2.636  4.5614  1.2250 -1.5482
  466SOL    HW2 1398   1.314   0.587   2.691  3.0905  1.9209 -0.5614
  467SOL     OW 1399   0.747   0.561   2.168 -0.4739 -0.0162  0.9953
  467SOL    HW1 1400   0.793   0.541   2.081  0.1813  0.1435  0.1844
  467SOL    HW2 1401   0.813   0.562   2.242  0.9758  1.2396  1.6396
  468SOL     OW 1402   0.618   0.862   2.214  0.7397  0.4820  0.2635
  468SOL    HW1 1403   0.670   0.775   2.214 -2.8860  0.7093 -0.7475
  468SOL    HW2 1404   0.656   0.932   2.277 -1.6089  1.1668 -0.7507
  469SOL     OW 1405   0.093   2.292   0.003  0.1846 -0.2335 -0.1402
  469SOL    HW1 1406   3.094   2.262   3.075 -0.9004  1.6485 -1.5761
  469SOL    HW2 1407   0.084   2.382   0.055  0.5556 -1.2891  0.6569
  470SOL     OW 1408   2.464   1.972   2.966  0.4503  0.3202  0.2016
  470SOL    HW1 1409   2.364   1.980   2.978 -0.7785 -0.1349 -0.5451
  470SOL    HW2 1410   2.498   1.874   2.969 -0.5671 -0.9848 -0.2390
  471SOL     OW 1411   2.155   0.646   2.149 -0.1402  0.4127  0.4078
  471SOL    HW1 1412   2.204   0.735   2.139  0.4657  0.5776  1.4518
  471SOL    HW2 1413   2.138   0.632   2.249 -0.0877  0.5973  1.4294
  472SOL     OW 1414   0.429   2.654   1.300  0.3147 -0.7391  0.1617
  472SOL    HW1 1415   0.403   2.619   1.392 -1.7164 -0.7870  2.7536
  472SOL    HW2 1416   0.410   2.590   1.218  0.1378 -1.3832 -0.3197
  473SOL     OW 1417   0.284   3.024   2.277  0.1794 -0.1755  0.4846
  473SOL    HW1 1418   0.368   3.030   2.334 -0.7429 -1.0098 -0.9418
  473SOL    HW2 1419   0.311   2.997   2.182 -0.6341 -0.2532  0.7273
  474SOL     OW 1420   1.631   3.058   2.001  0.5871 -0.3275  0.1947
  474SOL    HW1 1421   1.699   0.013   1.947  1.9777  3.7320  0.0548
  474SOL    HW2 1422   1.660   2.965   2.034  1.6037 -2.1350 -0.5398
  475SOL     OW 1423   1.630   2.788   0.829 -0.0937  0.1963 -0.3549
  475SOL    HW1 1424   1.677   2.824   0.746  0.8680 -1.0408 -1.3509
  475SOL    HW2 1425   1.674   2.703   0.874  1.5844 -0.7769  0.9172
  476SOL     OW 1426   0.385   0.628   0.916 -0.1471 -0.4893  0.4115
  476SOL    HW1 1427   0.320   0.705   0.907  3.1792 -2.5599  0.3586
  476SOL    HW2 1428   0.349   0.546   0.869  1.0496 -0.7251  1.6088
  477SOL     OW 1429   1.368   2.296   0.569  0.7502 -0.0464  0.2277
  477SOL    HW1 1430   1.436   2.231   0.536 -0.8723  1.4631  0.9191
  477SOL    HW2 1431   1.275   2.252   0.553 -1.3879 -0.8432 -1.4965
  478SOL     OW 1432   0.039   2.400   2.525 -0.0790  0.0243 -0.5797
  478SOL    HW1 1433   0.069   2.496   2.511  1.9645 -0.2605  1.1403
  478SOL    HW2 1434   0.021   2.357   2.436 -3.1489  0.7383  2.8037
  479SOL     OW 1435   2.719   0.327   1.086  0.2840  0.0567 -0.2256
  479SOL    HW1 1436   2.788   0.371   1.023  0.8442 -0.7732 -0.9263
  479SOL    HW2 1437   2.686   0.253   1.027  1.8678  0.0628 -1.6989
  480SOL     OW 1438   0.126   2.952   0.384  0.1325 -0.1547 -0.2216
  480SOL    HW1 1439   0.156   3.054   0.386 -0.9978  0.2526  2.7318
  480SOL    HW2 1440   0.051   2.932   0.321  0.3617  0.3203 -0.8251
  481SOL     OW 1441   2.636   2.129   1.457 -0.2463  0.5765  0.3388
  481SOL    HW1 1442   2.542   2.080   1.450 -6.4179 -2.1705 -1.3463
  481SOL    HW2 1443   2.679   2.112   1.548 -0.4763 -0.2204  0.7233
  482SOL     OW 1444   1.270   2.467   2.758 -0.3733 -0.8009 -0.2865
  482SOL    HW1 1445   1.356   2.516   2.731  1.1922 -2.2628 -0.5120
  482SOL    HW2 1446   1.208   2.473   2.682  1.7667 -2.3985  3.6157
  483SOL     OW 1447   0.508   2.629   2.420  0.5322 -0.1859 -0.1497
  483SOL    HW1 1448   0.422   2.687   2.422 -1.0886 -0.6729  0.1933
  483SOL    HW2 1449   0.515   2.573   2.337 -0.7558  3.2063 -0.7718
  484SOL     OW 1450   1.132   0.794   1.643  0.0221  0.0473 -0.1036
  484SOL    HW1 1451   1.215   0.738   1.664 -1.1254 -0.3581  0.8324
  484SOL    HW2 1452   1.122   0.874   1.705  1.2169 -1.5646  1.4055
  485SOL     OW 1453   2.273   0.855   2.527 -0.5737  0.2315 -0.1890
  485SOL    HW1 1454   2.203   0.785   2.506 -3.4267 -0.3530  0.7539
  485SOL    HW2 1455   2.284   0.924   2.456 -0.3638 -2.3777 -1.4581
  486SOL     OW 1456   2.257   2.969   0.963  0.0639  0.4996 -0.3735
  486SOL    HW1 1457   2.277   2.883   1.014 -1.0605 -0.0352  0.7855
  486SOL    HW2 1458   2.327   2.992   0.888  2.4986 -0.5783  0.2267
  487SOL     OW 1459   0.670   2.093   1.559  0.0837  0.1293 -0.5147
  487SOL    HW1 1460   0.600   2.024   1.533  0.9357 -2.9984 -0.3196
  487SOL    HW2 1461   0.734   2.042   1.619 -1.6301  0.6586 -0.8893
  488SOL     OW 1462   2.576   1.519   2.798 -0.0215 -0.4406 -0.4837
  488SOL    HW1 1463   2.503   1.593   2.796 -2.3644  0.1012  0.2786
  488SOL    HW2 1464   2.541   1.424   2.803  1.9444  0.3810  0.7295
  489SOL     OW 1465   1.821   0.068   0.866 -0.4538  0.5856  0.1288
  489SOL    HW1 1466   1.897   0.029   0.923 -0.6113 -0.9838 -1.7515
  489SOL    HW2 1467   1.853   0.150   0.814 -1.5091 -1.3996 -0.7577
  490SOL     OW 1468   0.899   1.242   0.523  0.1658 -0.4970 -0.0004
  490SOL    HW1 1469   0.994   1.278   0.500 -1.2143  2.4822 -0.3637
  490SOL    HW2 1470   0.843   1.228   0.440  1.0410 -0.9175  0.4744
  491SOL     OW 1471   0.543   2.351   0.955  0.1597 -0.0697  0.8044
  491SOL    HW1 1472   0.534   2.399   0.868 -2.0466  0.7322  1.0202
  491SOL    HW2 1473   0.493   2.387   1.038 -1.2732 -0.3956  1.0526
  492SOL     OW 1474   1.326   1.805   1.910  0.1273 -0.2514 -0.1656
  492SOL    HW1 1475   1.308   1.890   1.858  1.1294 -1.2928  1.6222
  492SOL    HW2 1476   1.234   1.769   1.935 -3.5371 -1.3520 -0.0749
  493SOL     OW 1477   2.845   2.432   0.804 -0.0347  0.1170  0.3726
  493SOL    HW1 1478   2.923   2.484   0.834 -1.2713 -2.3571  1.6288
  493SOL    HW2 1479   2.789   2.394   0.880 -0.3898 -2.1301 -0.3685
  494SOL     OW 1480   2.792   2.241   0.253  0.3151 -0.5977  0.3571
  494SOL    HW1 1481   2.726   2.198   0.186  1.2081 -1.7411  2.6750
  494SOL    HW2 1482   2.854   2.174   0.294 -1.3447  4.2209 -1.7114
  495SOL     OW 1483   2.856   2.706   3.098 -0.0637 -0.3639  0.0294
  495SOL    HW1 1484   2.914   2.665   3.021  1.7841 -2.3430 -3.3321
  495SOL    HW2 1485   2.759   2.672   3.091  0.4270 -2.3456 -0.8349
  496SOL     OW 1486   2.433   0.494   1.373 -0.0078  0.1467  0.2967
  496SOL    HW1 1487   2.346   0.523   1.405  3.4355  2.2436  2.0109
  496SOL    HW2 1488   2.438   0.397   1.338 -2.0071  4.2680  0.6906
  497SOL     OW 1489   2.945   1.344   2.940  0.0172 -0.2737  0.0871
  497SOL    HW1 1490   3.046   1.353   2.927 -2.1566 -1.7914  0.5930
  497SOL    HW2 1491   2.891   1.423   2.911  0.5239  1.1046  3.2672
  498SOL     OW 1492   0.031   1.470   1.764 -0.2025 -0.5402 -0.0954
  498SOL    HW1 1493   3.033   1.444   1.789  1.2391 -1.4314 -0.2264
  498SOL    HW2 1494   0.039   1.493   1.666  0.4683 -4.1144  0.6630
  499SOL     OW 1495   0.698   2.278   2.688 -0.0315  0.5254 -0.6297
  499SOL    HW1 1496   0.617   2.347   2.687 -2.8910  1.5132  0.6984
  499SOL    HW2 1497   0.687   2.206   2.766  0.6412 -3.1456  0.7885
  500SOL     OW 1498   1.953   0.342   0.047  0.3038 -0.0829 -0.0586
  500SOL    HW1 1499   2.019   0.414   0.003  1.9466 -0.2489 -0.2612
  500SOL    HW2 1500   1.894   0.289   3.081 -0.4189 -0.9897  1.5619
  501SOL     OW 1501   1.181   0.010   1.854 -0.0724  0.0825  0.1228
  501SOL    HW1 1502   1.244   0.005   1.932 -2.1509  1.0873 -0.9828
  501SOL    HW2 1503   1.208   3.044   1.785 -0.8715 -0.4817  3.6601
  502SOL     OW 1504   2.438   0.728   1.836 -0.4871  0.3456 -0.0649
  502SOL    HW1 1505   2.462   0.791   1.760 -0.9988 -1.4719  2.6778
  502SOL    HW2 1506   2.356   0.671   1.822  0.9699 -2.2977 -1.8855
  503SOL     OW 1507   2.160   1.909   2.278 -0.2763 -0.3041 -0.1712
  503SOL    HW1 1508   2.178   2.005   2.257 -2.8249  2.1664  3.0780
  503SOL    HW2 1509   2.123   1.853   2.198 -1.5555 -1.4248 -3.4623
  504SOL     OW 1510   1.508   0.724   1.471 -0.3852  0.0659 -0.0208
  504SOL    HW1 1511   1.466   0.808   1.435 -0.0742  1.1316 -0.5200
  504SOL    HW2 1512   1.451   0.676   1.543 -3.8328  0.6911 -1.8552
  505SOL     OW 1513   0.772   0.818   1.849 -0.3779 -0.0163  0.0660
  505SOL    HW1 1514   0.821   0.873   1.920  0.3898  0.3699 -0.1542
  505SOL    HW2 1515   0.834   0.810   1.771  0.5477 -1.1516 -1.6872
  506SOL     OW 1516   0.461   0.235   2.534 -0.0057  0.2818  0.3482
  506SOL    HW1 1517   0.491   0.145   2.581 -0.3840 -1.5477  0.2398
  506SOL    HW2 1518   0.541   0.280   2.488  1.0577  1.5513 -0.2138
  507SOL     OW 1519   0.244   0.135   0.038 -0.2213  0.4025  0.0638
  507SOL    HW1 1520   0.322   0.191   0.071  1.2356 -0.2884  0.7192
  507SOL    HW2 1521   0.182   0.093   0.109 -0.1778  0.4910 -0.4946
  508SOL     OW 1522   1.236   1.196   1.509 -0.0094  0.0848 -0.3008
  508SOL    HW1 1523   1.137   1.188   1.498  0.6113 -0.4941 -0.6393
  508SOL    HW2 1524   1.265   1.257   1.585 -0.2727 -1.7499 -2.4491
  509SOL     OW 1525   1.415   2.117   1.464 -0.4423 -0.2446 -0.1574
  509SOL    HW1 1526   1.431   2.034   1.408 -1.7157 -1.8488 -0.3324
  509SOL    HW2 1527   1.438   2.197   1.402 -1.1395 -0.1691  0.8510
  510SOL     OW 1528   2.578   1.251   1.945 -0.2720 -0.1681  0.3223
  510SOL    HW1 1529   2.610   1.317   1.878 -1.4947  0.1687 -0.7156
  510SOL    HW2 1530   2.602   1.293   2.036 -1.1211 -1.0852  2.6362
  511SOL     OW 1531   0.987   2.233   1.526 -0.2814 -0.6328  0.1164
  511SOL    HW1 1532   0.948   2.329   1.522 -0.1418  0.8914 -0.9626
  511SOL    HW2 1533   0.915   2.163   1.524 -1.1126 -2.8969  0.5168
  512SOL     OW 1534   2.781   1.781   0.911  0.1306 -0.1769  0.3967
  512SOL    HW1 1535   2.786   1.684   0.887  0.9700 -0.2608  0.1293
  512SOL    HW2 1536   2.853   1.842   0.872 -2.7535  0.0604 -0.0607
  513SOL     OW 1537   0.110   1.429   2.932  0.5018  0.0963 -1.0913
  513SOL    HW1 1538   0.200   1.461   2.902 -0.9251 -0.6422 -1.6522
  513SOL    HW2 1539   0.121   1.376   3.020 -0.3597 -2.7169  1.8912
  514SOL     OW 1540   2.765   2.300   2.428  0.1111  0.4042 -0.4749
  514SOL    HW1 1541   2.842   2.232   2.409 -0.3222  2.8504 -1.0074
  514SOL    HW2 1542   2.790   2.391   2.386 -2.1079  2.4474 -1.6702
  515SOL     OW 1543   2.296   1.108   1.050 -0.2964 -0.1274  0.6914
  515SOL    HW1 1544   2.219   1.055   1.007  0.8222  0.7934  0.4024
  515SOL    HW2 1545   2.300   1.207   1.013 -0.7338 -0.2258 -1.3655
  516SOL     OW 1546   2.084   1.929   0.267 -0.1651 -0.0590 -0.2843
  516SOL    HW1 1547   2.107   1.984   0.347 -2.7979 -1.0423  0.0759
  516SOL    HW2 1548   2.061   1.831   0.288  0.7839 -2.7955 -1.6987
  517SOL     OW 1549   0.803   0.989   0.148 -0.7020 -0.0336  0.1758
  517SOL    HW1 1550   0.800   1.036   0.053  0.5209  1.1559 -1.0732
  517SOL    HW2 1551   0.849   1.040   0.221 -1.8278  2.8940  1.4137
  518SOL     OW 1552   2.784   2.980   2.070  0.1517  0.2179  0.0606
  518SOL    HW1 1553   2.814   2.904   2.128 -2.2852  0.6974  2.2613
  518SOL    HW2 1554   2.723   2.952   1.993 -0.5617  1.6055  1.8544
  519SOL     OW 1555   1.482   1.642   2.691  0.2782 -0.2823 -0.5236
  519SOL    HW1 1556   1.463   1.597   2.784  2.9630 -0.3613  0.6529
  519SOL    HW2 1557   1.564   1.594   2.653 -0.7836  3.5718 -0.8887
  520SOL     OW 1558   2.404   2.842   2.339 -0.4583 -0.1360  0.0411
  520SOL    HW1 1559   2.350   2.883   2.256 -1.8504 -1.1353  1.0845
  520SOL    HW2 1560   2.507   2.831   2.322 -1.3171 -1.0767  0.7439
  521SOL     OW 1561   0.486   1.597   2.175  0.0751 -0.6698 -0.0910
  521SOL    HW1 1562   0.476   1.674   2.107 -0.2734  1.8744 -1.1906
  521SOL    HW2 1563   0.441   1.511   2.138  0.1179 -0.9048 -0.7313
  522SOL     OW 1564   0.759   2.517   1.813 -0.4781 -0.3509 -0.1992
  522SOL    HW1 1565   0.691   2.510   1.737 -0.1164  1.3851 -1.9847
  522SOL    HW2 1566   0.804   2.610   1.809 -1.0226 -2.0783 -1.5263
  523SOL     OW 1567   3.013   2.262   1.414  0.1908  0.0974  0.5069
  523SOL    HW1 1568   3.008   2.216   1.505 -1.5789 -0.6034  2.2164
  523SOL    HW2 1569   2.930   2.235   1.356 -1.2494 -0.5174 -0.2775
  524SOL     OW 1570   1.368   2.432   0.799  0.2261 -0.2935  0.4214
  524SOL    HW1 1571   1.354   2.380   0.712  0.8799  0.7059 -1.7448
  524SOL    HW2 1572   1.298   2.404   0.872 -0.1481 -1.0941  3.1383
  525SOL     OW 1573   2.796   1.004   0.879 -0.1415  1.0313  0.6080
  525SOL    HW1 1574   2.825   1.067   0.805 -1.3274  1.0575 -0.2927
  525SOL    HW2 1575   2.769   1.053   0.964  1.1558  2.3463 -0.1069
  526SOL     OW 1576   0.917   2.422   0.849 -0.1107  0.0703  0.0070
  526SOL    HW1 1577   0.904   2.501   0.780  0.9537 -0.3865  2.2756
  526SOL    HW2 1578   0.940   2.344   0.790 -0.3169  0.4957 -0.2639
  527SOL     OW 1579   2.111   2.258   0.642  0.1368  0.1829 -0.0524
  527SOL    HW1 1580   2.075   2.348   0.611  0.4958  0.6168 -1.1668
  527SOL    HW2 1581   2.190   2.270   0.706 -1.2048 -3.6091  2.7337
  528SOL     OW 1582   2.203   0.269   0.125 -0.1198 -0.5662 -0.1575
  528SOL    HW1 1583   2.108   0.290   0.096  1.9137  1.0420 -1.5065
  528SOL    HW2 1584   2.214   0.171   0.131 -1.0194 -0.2459 -0.0836
  529SOL     OW 1585   1.284   1.554   2.301  0.0446 -0.0964 -0.7594
  529SOL    HW1 1586   1.361   1.498   2.270  1.0221  0.1937  1.1399
  529SOL    HW2 1587   1.319   1.622   2.370 -0.4476 -0.0495  1.2274
  530SOL     OW 1588   2.329   1.117   2.359  0.2312 -0.0975  0.5377
  530SOL    HW1 1589   2.426   1.109   2.334  1.4875  1.0854  1.0813
  530SOL    HW2 1590   2.308   1.201   2.417  0.1271  1.2249 -2.2813
  531SOL     OW 1591   0.888   0.773   0.001 -0.5736  0.3857 -0.0467
  531SOL    HW1 1592   0.838   0.839   0.054 -1.9358 -1.7136  0.4289
  531SOL    HW2 1593   0.880   0.685   0.047  1.2563  1.1900 -0.8505
  532SOL     OW 1594   1.693   1.338   0.605 -0.1587  0.6017 -0.2738
  532SOL    HW1 1595   1.792   1.323   0.596 -1.9883  1.5767  0.8165
  532SOL    HW2 1596   1.669   1.333   0.703  0.7885  0.5219 -2.6380
  533SOL     OW 1597   0.214   0.730   2.039  0.1212 -0.7904  0.2383
  533SOL    HW1 1598   0.197   0.699   1.945 -1.0165  0.4458  1.8684
  533SOL    HW2 1599   0.301   0.699   2.079 -3.6876  0.9713 -0.5932
  534SOL     OW 1600   1.335   0.237   2.529  0.2500 -0.1369 -0.2780
  534SOL    HW1 1601   1.307   0.317   2.586 -1.4922  1.4958  0.8801
  534SOL    HW2 1602   1.341   0.151   2.583 -0.2830 -2.6954 -1.2524
  535SOL     OW 1603   0.724   0.385   0.527  0.2837 -0.2586 -0.0843
  535SOL    HW1 1604   0.680   0.325   0.594  2.1985  0.7485 -1.4310
  535SOL    HW2 1605   0.815   0.421   0.555  1.3753  1.5063  2.3440
  536SOL     OW 1606   1.021   0.391   3.022  0.0300  0.1516  0.5526
  536SOL    HW1 1607   1.110   0.443   3.026 -0.5693  1.1949  0.8229
  536SOL    HW2 1608   1.010   0.304   3.074 -2.9413  0.9053 -0.6726
  537SOL     OW 1609   1.294   2.920   1.639 -0.1658 -0.2639  0.4494
  537SOL    HW1 1610   1.332   2.881   1.550  1.1895 -0.1082  3.1847
  537SOL    HW2 1611   1.353   2.899   1.717 -0.7084  1.8649 -0.7428
  538SOL     OW 1612   0.436   2.946   3.021 -0.1154 -0.4126 -0.3524
  538SOL    HW1 1613   0.402   3.038   3.000 -0.5007 -0.0663  0.3649
  538SOL    HW2 1614   0.536   2.953   3.009 -0.8543  1.2060 -2.8117
  539SOL     OW 1615   2.711   1.005   1.932  0.7196 -0.3645  0.1586
  539SOL    HW1 1616   2.643   0.932   1.962 -0.6500 -2.5164 -0.3086
  539SOL    HW2 1617   2.669   1.095   1.915  1.7526 -0.8534 -1.3527
  540SOL     OW 1618   2.158   2.123   1.737 -0.1026  0.2686  0.0800
  540SOL    HW1 1619   2.232   2.189   1.711  1.8351  0.7743 -1.3568
  540SOL    HW2 1620   2.202   2.026   1.742  1.5373 -2.5564 -0.8769
  541SOL     OW 1621   0.370   2.633   1.580 -0.4203 -1.1180 -0.0023
  541SOL    HW1 1622   0.394   2.733   1.592 -0.2020 -1.9701 -2.0318
  541SOL    HW2 1623   0.269   2.616   1.576  0.6437  0.6082  0.4281
  542SOL     OW 1624   2.731   0.318   2.037 -0.4675 -0.0658  0.1278
  542SOL    HW1 1625   2.691   0.279   1.952  2.9316  1.0415  0.5912
  542SOL    HW2 1626   2.727   0.249   2.111 -3.9227 -0.5471  0.9549
  543SOL     OW 1627   1.361   0.669   0.884 -0.1127 -0.3559 -0.0832
  543SOL    HW1 1628   1.393   0.696   0.791  0.7704 -2.3961 -0.0396
  543SOL    HW2 1629   1.308   0.752   0.922 -0.4639 -0.8098  1.1936
  544SOL     OW 1630   2.137   2.066   1.117  0.3538  0.1577  0.0071
  544SOL    HW1 1631   2.207   1.994   1.086  1.6632 -0.1101 -1.3307
  544SOL    HW2 1632   2.169   2.156   1.080 -0.8214 -1.0054 -0.5694
  545SOL     OW 1633   1.622   1.551   1.156  0.2065 -0.2886  0.5813
  545SOL    HW1 1634   1.677   1.495   1.093  0.7190  1.3703 -2.3467
  545SOL    HW2 1635   1.675   1.634   1.195  0.5740 -1.2648  1.0030
  546SOL     OW 1636   2.811   0.189   2.651  0.0248  0.1860 -0.9055
  546SOL    HW1 1637   2.763   0.281   2.654 -1.1933  3.9817 -1.2404
  546SOL    HW2 1638   2.781   0.120   2.722  0.7773 -1.4683  0.4452
  547SOL     OW 1639   2.448   0.277   2.765  0.7619 -0.5326  0.1542
  547SOL    HW1 1640   2.352   0.313   2.769  0.4249  0.6641  1.4815
  547SOL    HW2 1641   2.513   0.350   2.800  1.4884 -0.8418 -0.4298
  548SOL     OW 1642   2.737   1.781   2.585 -0.1783 -0.0661  0.6681
  548SOL    HW1 1643   2.818   1.764   2.527 -0.0401 -3.3695  1.8422
  548SOL    HW2 1644   2.765   1.791   2.682 -2.4564 -0.0824 -4.0497
  549SOL     OW 1645   2.520   0.451   0.652 -0.3667  0.4623  0.0594
  549SOL    HW1 1646   2.606   0.508   0.668  1.3272 -0.2522 -0.5107
  549SOL    HW2 1647   2.521   0.426   0.552  2.1934 -0.4483  0.8448
  550SOL     OW 1648   2.784   1.260   0.035 -0.0174  0.0179  0.4557
  550SOL    HW1 1649   2.852   1.287   3.059  0.2437  0.8379  0.8804
  550SOL    HW2 1650   2.687   1.260   3.098  1.9936 -0.6123 -1.0534
  551SOL     OW 1651   1.397   2.819   1.401 -0.1934  0.1213  0.1801
  551SOL    HW1 1652   1.340   2.853   1.324  0.9935 -1.1168 -1.9074
  551SOL    HW2 1653   1.401   2.717   1.399 -0.6997 -0.1153  0.6370
  552SOL     OW 1654   2.732   2.334   2.969  0.1676  0.5169  0.5719
  552SOL    HW1 1655   2.715   2.336   2.864 -0.2443 -0.3669  0.0099
  552SOL    HW2 1656   2.648   2.349   3.021 -0.1239 -1.8209  0.2300
  553SOL     OW 1657   0.659   3.047   0.662 -0.2567 -0.0309 -0.6243
  553SOL    HW1 1658   0.618   0.029   0.711  0.0118  1.1270 -0.1083
  553SOL    HW2 1659   0.758   3.072   0.639 -0.2306  0.1771 -2.7959
  554SOL     OW 1660   1.703   1.836   1.940  0.0946  0.2219  0.2355
  554SOL    HW1 1661   1.642   1.851   2.016  0.1010 -2.0595 -3.3359
  554SOL    HW2 1662   1.749   1.742   1.937  0.7474 -2.9528 -0.4708
  555SOL     OW 1663   1.383   2.396   1.960  0.6204  0.2630  0.0760
  555SOL    HW1 1664   1.314   2.453   1.915 -1.7503  3.4877 -0.0126
  555SOL    HW2 1665   1.336   2.312   1.995  1.0887  0.6438  0.5097
  556SOL     OW 1666   1.991   1.297   0.587 -0.4864  0.6833  0.4305
  556SOL    HW1 1667   2.075   1.238   0.602  1.0100 -2.7584  1.2420
  556SOL    HW2 1668   2.018   1.384   0.540 -1.9046 -1.7629 -0.2176
  557SOL     OW 1669   1.258   2.161   2.092  0.7218 -0.5376 -0.8054
  557SOL    HW1 1670   1.204   2.198   2.171  1.1362 -0.1844  0.6570
  557SOL    HW2 1671   1.196   2.151   2.008  1.5168 -0.5758 -1.8565
  558SOL     OW 1672   2.989   1.061   2.354 -0.1096 -0.2427  0.0347
  558SOL    HW1 1673   2.978   1.046   2.454 -0.7609  1.4873  1.6456
  558SOL    HW2 1674   2.970   0.975   2.299  0.5692 -0.0159  1.7718
  559SOL     OW 1675   2.206   2.638   2.067 -0.3069  0.0706  0.6839
  559SOL    HW1 1676   2.140   2.578   2.020 -1.6855 -1.4419  0.1720
  559SOL    HW2 1677   2.169   2.667   2.154  2.0464  0.6521 -2.7957
  560SOL     OW 1678   0.158   3.000   2.668  0.2583  0.3356 -0.2201
  560SOL    HW1 1679   0.061   2.968   2.647 -1.9011 -1.3014 -0.4169
  560SOL    HW2 1680   0.181   3.087   2.621 -1.5502 -1.6597 -0.0204
  561SOL     OW 1681   1.814   0.896   0.399 -0.3226 -0.7488 -0.1726
  561SOL    HW1 1682   1.802   0.800   0.370  1.7185 -0.4232 -2.6182
  561SOL    HW2 1683   1.903   0.904   0.450 -0.1376 -0.0383 -2.5892
  562SOL     OW 1684   0.864   1.204   2.128 -0.0291  0.2652  0.1270
  562SOL    HW1 1685   0.817   1.144   2.197  1.5380  2.1121  0.9794
  562SOL    HW2 1686   0.849   1.303   2.149 -2.5404 -0.6114 -0.1430
  563SOL     OW 1687   1.472   2.303   0.210 -0.1694  0.5768  0.5233
  563SOL    HW1 1688   1.481   2.246   0.292 -0.5275  3.1830 -0.9291
  563SOL    HW2 1689   1.404   2.272   0.142 -0.1016 -1.6457 -0.5318
  564SOL     OW 1690   0.559   1.933   0.757 -0.2232 -0.0711 -0.2291
  564SOL    HW1 1691   0.610   1.985   0.685  0.6038  2.3120 -0.4585
  564SOL    HW2 1692   0.507   1.856   0.715  0.6649  0.7532  1.4780
  565SOL     OW 1693   0.726   3.058   3.033  0.3569 -0.3400 -0.3352
  565SOL    HW1 1694   0.747   2.980   2.976 -1.9619  0.3205 -0.5775
  565SOL    HW2 1695   0.737   0.050   2.983 -2.8708  1.3545  1.0985
  566SOL     OW 1696   1.960   2.582   3.020  0.1926  0.2743  0.2534
  566SOL    HW1 1697   1.901   2.558   2.941 -0.6950  1.1753  1.0182
  566SOL    HW2 1698   1.910   2.552   0.009 -1.9252  0.5288  0.9464
  567SOL     OW 1699   2.476   1.719   0.820 -0.2360 -0.2332 -0.0763
  567SOL    HW1 1700   2.557   1.772   0.789 -2.6015  0.3185  0.8707
  567SOL    HW2 1701   2.497   1.651   0.896  0.9322 -0.0996  1.2905
  568SOL     OW 1702   1.586   0.977   2.528  0.3323  0.1433  0.0299
  568SOL    HW1 1703   1.504   0.957   2.473 -0.1542  3.3619  1.5754
  568SOL    HW2 1704   1.597   0.920   2.609  1.0428  1.2400 -0.3998
  569SOL     OW 1705   2.267   1.617   1.722 -0.3966  0.3545  0.2306
  569SOL    HW1 1706   2.353   1.573   1.688  0.8430  2.0197 -1.7832
  569SOL    HW2 1707   2.242   1.580   1.813 -0.3395 -0.9680 -1.1362
  570SOL     OW 1708   2.856   2.439   2.042 -0.2938 -0.2678 -0.6787
  570SOL    HW1 1709   2.916   2.471   2.123  1.6682 -0.7702 -0.6457
  570SOL    HW2 1710   2.810   2.520   2.001  2.0376 -0.1578  0.1773
  571SOL     OW 1711   0.161   0.063   1.308 -0.1538 -0.0224  0.0810
  571SOL    HW1 1712   0.231   0.022   1.243 -1.2696  1.2463  0.5035
  571SOL    HW2 1713   0.144   0.164   1.288  0.1459  0.3686 -0.7698
  572SOL     OW 1714   0.859   1.801   0.850  0.9552 -0.5827 -0.3243
  572SOL    HW1 1715   0.768   1.807   0.902 -4.0145 -0.3340  2.1838
  572SOL    HW2 1716   0.863   1.878   0.787 -1.1362 -1.4988 -0.9714
  573SOL     OW 1717   1.126   0.895   0.048 -0.8494 -0.7098  0.1462
  573SOL    HW1 1718   1.042   0.835   0.046  0.7762 -0.8094  0.3636
  573SOL    HW2 1719   1.113   0.971   0.119 -0.2949  1.1665  0.4436
  574SOL     OW 1720   0.432   0.181   0.355 -0.4239 -0.0605 -0.3075
  574SOL    HW1 1721   0.498   0.104   0.368  1.7519 -0.2391 -1.3576
  574SOL    HW2 1722   0.430   0.203   0.256  1.2816 -0.1125  0.9567
  575SOL     OW 1723   1.050   1.971   1.160  0.1822  0.8407 -0.6384
  575SOL    HW1 1724   1.043   1.975   1.055 -1.4239 -0.3061 -0.2191
  575SOL    HW2 1725   1.098   1.885   1.193  2.0832  0.2797 -2.1538
  576SOL     OW 1726   2.954   0.065   1.980 -0.1556 -0.7548  0.6555
  576SOL    HW1 1727   2.887   3.090   2.000 -1.4145 -2.7344  0.9946
  576SOL    HW2 1728   2.984   0.117   2.064 -1.3115 -1.0346  0.2882
  577SOL     OW 1729   2.929   1.486   1.981 -0.0970 -0.3293  0.1642
  577SOL    HW1 1730   2.941   1.592   1.981  1.5916  3.2897  0.1745
  577SOL    HW2 1731   2.935   1.443   2.071 -2.8298  2.3639  0.0247
  578SOL     OW 1732   1.022   2.961   2.349 -0.2149 -0.0428  0.5429
  578SOL    HW1 1733   1.106   3.022   2.353 -0.1135  2.5317 -0.2933
  578SOL    HW2 1734   1.051   2.866   2.362 -1.0140  0.2960 -1.9966
  579SOL     OW 1735   2.032   1.800   2.016 -0.1876 -0.3119  0.4006
  579SOL    HW1 1736   2.024   1.906   2.019  0.2411 -0.8269  1.0310
  579SOL    HW2 1737   1.967   1.755   1.953  1.1701  2.0966 -0.4124
  580SOL     OW 1738   1.842   0.953   2.097  0.5214 -0.2005 -0.2343
  580SOL    HW1 1739   1.879   0.870   2.047  2.2450 -0.4654 -0.5350
  580SOL    HW2 1740   1.829   0.934   2.193  1.5653  2.3065 -0.0566
  581SOL     OW 1741   1.248   1.298   2.523  0.4995  0.2569 -0.7199
  581SOL    HW1 1742   1.350   1.311   2.506 -0.8615 -1.3309 -1.0628
  581SOL    HW2 1743   1.206   1.379   2.567 -2.6201 -1.5494  0.3176
  582SOL     OW 1744   0.075   2.022   2.021  0.1482  0.2527 -0.3420
  582SOL    HW1 1745   0.146   1.988   2.089  3.3305 -0.9295 -0.9015
  582SOL    HW2 1746   0.028   2.103   2.058 -0.2301  0.0339  3.5989
  583SOL     OW 1747   1.944   1.262   0.929 -0.6817  0.1631 -0.2110
  583SOL    HW1 1748   1.920   1.191   0.858  2.1689 -1.3406 -2.5015
  583SOL    HW2 1749   1.983   1.344   0.887 -2.6870 -1.6768 -0.0443
  584SOL     OW 1750   0.827   2.555   0.370 -0.1719  0.3557 -0.2565
  584SOL    HW1 1751   0.754   2.628   0.360 -2.2351  0.4147 -1.8962
  584SOL    HW2 1752   0.909   2.587   0.318 -0.7423  1.6673  1.1969
  585SOL     OW 1753   0.270   2.495   0.302 -0.0227  0.5020  0.4004
  585SOL    HW1 1754   0.190   2.491   0.239 -0.5820  0.1672  0.3679
  585SOL    HW2 1755   0.257   2.576   0.366  1.1114  1.4780  0.7764
  586SOL     OW 1756   2.225   1.158   0.394  0.2350  0.5316 -0.1012
  586SOL    HW1 1757   2.144   1.204   0.355 -0.1487 -1.5446  4.9271
  586SOL    HW2 1758   2.228   1.162   0.497  0.8879 -1.5676  0.7112
  587SOL     OW 1759   2.955   2.065   0.369 -0.2495 -0.1351  0.0483
  587SOL    HW1 1760   3.046   2.115   0.380  0.6867 -0.5839  1.6153
  587SOL    HW2 1761   2.916   2.041   0.456  1.4041  0.7377 -3.1333
  588SOL     OW 1762   3.084   0.797   0.807 -0.4423 -0.2069 -0.6794
  588SOL    HW1 1763   0.056   0.817   0.880 -0.8992 -0.2986 -2.2665
  588SOL    HW2 1764   2.992   0.799   0.850  0.4059  1.7717  0.5323
  589SOL     OW 1765   1.495   0.456   0.685  0.3300  0.0139  0.2248
  589SOL    HW1 1766   1.470   0.550   0.663  0.5602 -1.3286  1.6109
  589SOL    HW2 1767   1.408   0.400   0.689 -1.0394  0.0464 -0.1047
  590SOL     OW 1768   2.393   2.471   0.310  0.1099 -0.4058  0.2402
  590SOL    HW1 1769   2.460   2.411   0.360  0.2801 -1.4520  1.4901
  590SOL    HW2 1770   2.417   2.567   0.314 -0.4260 -3.3021  0.1415
  591SOL     OW 1771   0.289   2.462   1.940 -0.3701  0.1715  0.0280
  591SOL    HW1 1772   0.389   2.432   1.933  0.7472  0.4963  0.7337
  591SOL    HW2 1773   0.226   2.416   1.876  0.5319  1.5539 -2.6897
  592SOL     OW 1774   0.388   1.356   2.091  0.6276 -0.0424  0.4571
  592SOL    HW1 1775   0.394   1.298   2.174  1.2420  0.5207 -2.1853
  592SOL    HW2 1776   0.428   1.303   2.011 -0.4238  0.6588 -2.6908
  593SOL     OW 1777   1.459   1.815   1.456 -0.0835 -0.0988 -0.0629
  593SOL    HW1 1778   1.463   1.715   1.445 -1.6274 -0.4863 -1.3893
  593SOL    HW2 1779   1.509   1.844   1.541 -3.2463  2.5480 -0.1079
  594SOL     OW 1780   0.451   0.850   2.944 -0.4227  0.3034  0.0390
  594SOL    HW1 1781   0.488   0.942   2.946 -1.0943 -1.1746  1.0822
  594SOL    HW2 1782   0.353   0.859   2.910 -2.8427 -0.6748 -1.3537
  595SOL     OW 1783   1.980   0.385   0.915 -0.1478 -0.1877  0.1954
  595SOL    HW1 1784   2.059   0.435   0.955  1.1536  2.0417 -2.1760
  595SOL    HW2 1785   1.905   0.382   0.985  4.3193 -0.1426 -0.4754
  596SOL     OW 1786   0.561   1.125   1.012  0.1635  0.3191 -0.2849
  596SOL    HW1 1787   0.646   1.098   1.054 -0.4348  4.5369 -0.8338
  596SOL    HW2 1788   0.546   1.224   1.034 -1.9981 -0.6375 -1.2795
  597SOL     OW 1789   2.924   2.518   2.886  0.0257 -0.3237 -0.0883
  597SOL    HW1 1790   2.836   2.477   2.918 -0.5075 -3.7435  1.0300
  597SOL    HW2 1791   2.916   2.605   2.830  1.1777 -1.6431  1.9710
  598SOL     OW 1792   2.361   2.073   2.564  0.0445  0.0440 -0.5615
  598SOL    HW1 1793   2.267   2.108   2.546 -2.3031 -0.1706  0.3329
  598SOL    HW2 1794   2.395   2.105   2.656  0.7061 -2.8896 -0.1090
  599SOL     OW 1795   1.650   0.596   0.187 -0.3644  0.4082  0.1474
  599SOL    HW1 1796   1.572   0.576   0.252  1.9835  0.7449  0.0717
  599SOL    HW2 1797   1.729   0.596   0.243 -3.5526 -1.3111 -1.1490
  600SOL     OW 1798   1.040   0.160   0.082 -0.5607  0.3808  0.3652
  600SOL    HW1 1799   0.952   0.122   0.114  0.2430 -0.5725 -1.9261
  600SOL    HW2 1800   1.101   0.091   0.042 -0.8821 -1.3355  1.5836
  601SOL     OW 1801   0.444   0.179   1.429 -0.1652 -0.3990  0.2830
  601SOL    HW1 1802   0.515   0.193   1.356  0.3392  0.0427 -0.6892
  601SOL    HW2 1803   0.427   0.268   1.474  0.5827 -0.1382 -0.8874
  602SOL     OW 1804   0.308   2.819   0.698 -0.3059 -0.4761 -0.6790
  602SOL    HW1 1805   0.296   2.790   0.602 -0.4365  1.2038 -0.8778
  602SOL    HW2 1806   0.221   2.856   0.740 -1.0371  0.6088 -0.2512
  603SOL     OW 1807   0.740   2.748   2.420  0.5692 -0.0926 -0.7956
  603SOL    HW1 1808   0.744   2.831   2.362 -1.9731 -0.6332  1.0100
  603SOL    HW2 1809   0.639   2.725   2.413 -2.1451 -2.1208 -4.7437
  604SOL     OW 1810   1.059   2.627   0.059 -0.1279  0.7397 -0.1436
  604SOL    HW1 1811   1.080   2.631   0.160  0.2591 -0.8362  2.0928
  604SOL    HW2 1812   1.140   2.579   0.013  0.4993 -0.9196 -0.2428
  605SOL     OW 1813   1.637   0.833   1.680  0.3946 -0.0905 -0.0406
  605SOL    HW1 1814   1.601   0.802   1.592  1.5212 -1.4494  1.4807
  605SOL    HW2 1815   1.697   0.915   1.662 -0.7576  0.9191 -0.1203
  606SOL     OW 1816   0.954   0.570   2.367  0.4009  0.1686  0.0150
  606SOL    HW1 1817   1.022   0.494   2.390  1.2933  1.6411 -0.4891
  606SOL    HW2 1818   0.935   0.630   2.449  0.8521 -0.3264  1.4112
  607SOL     OW 1819   0.390   1.342   1.340 -0.2565 -0.4135 -0.4750
  607SOL    HW1 1820   0.313   1.277   1.329  0.3108  1.4842  0.5955
  607SOL    HW2 1821   0.364   1.433   1.308  1.3714 -1.5240 -2.1925
  608SOL     OW 1822   2.472   2.275   2.417  0.5797 -0.5866  0.5474
  608SOL    HW1 1823   2.574   2.262   2.420  3.2696 -3.3213  1.5210
  608SOL    HW2 1824   2.427   2.201   2.466  1.5963 -0.6276  0.5468
  609SOL     OW 1825   2.234   3.034   0.142 -0.1571  0.2500  0.6963
  609SOL    HW1 1826   2.150   3.000   0.188  1.0922 -1.3154 -1.4368
  609SOL    HW2 1827   2.314   3.015   0.203 -0.1922  1.4476  1.5797
  610SOL     OW 1828   0.654   2.855   1.483 -0.2933  1.0325  1.1549
  610SOL    HW1 1829   0.708   2.839   1.395  0.3309 -2.1075 -2.5175
  610SOL    HW2 1830   0.690   2.928   1.539 -1.5426 -2.2994 -2.4298
  611SOL     OW 1831   0.953   1.393   0.744 -0.3243  0.5746  0.4338
  611SOL    HW1 1832   0.950   1.341   0.657 -0.1622 -1.2231  0.5943
  611SOL    HW2 1833   1.019   1.342   0.812  0.0286  0.9402  2.4720
  612SOL     OW 1834   0.530   3.051   2.411 -0.1666  0.5102  0.4653
  612SOL    HW1 1835   0.525   3.057   2.513 -0.4517 -3.1162  0.6982
  612SOL    HW2 1836   0.630   3.039   2.382 -0.6387 -0.3921 -1.8675
  613SOL     OW 1837   2.788   1.832   0.483 -0.2088 -0.1210  0.0936
  613SOL    HW1 1838   2.876   1.784   0.503 -0.6222  2.2266  0.8766
  613SOL    HW2 1839   2.721   1.769   0.442  1.4213 -0.9077  0.1467
  614SOL     OW 1840   1.573   0.063   1.714  0.2126 -0.0455 -0.6099
  614SOL    HW1 1841   1.558   0.159   1.674 -1.6333  0.6243  0.1710
  614SOL    HW2 1842   1.566   3.086   1.643  0.8887 -1.3358 -1.2625
  615SOL     OW 1843   1.028   1.536   1.261  0.1895 -0.0566  0.0745
  615SOL    HW1 1844   1.090   1.479   1.316  0.9114  0.1077  0.7068
  615SOL    HW2 1845   1.070   1.631   1.261  0.0759  3.3726  1.1559
  616SOL     OW 1846   1.432   1.547   2.940 -0.1473  0.5185 -0.4840
  616SOL    HW1 1847   1.504   1.479   2.970 -2.0357  1.3238 -0.1114
  616SOL    HW2 1848   1.431   1.623   3.008  1.0974 -0.9533  0.6834
  617SOL     OW 1849   1.772   2.840   0.163  0.1570 -1.0612  0.2238
  617SOL    HW1 1850   1.705   2.908   0.133  0.2645 -1.4506  0.4024
  617SOL    HW2 1851   1.732   2.750   0.175  1.2337  0.7392  2.0392
  618SOL     OW 1852   0.904   0.701   2.588 -0.0934 -0.2574 -0.1284
  618SOL    HW1 1853   0.954   0.716   2.673  0.1376 -0.3186 -0.8276
  618SOL    HW2 1854   0.899   0.785   2.529 -0.5831  0.6851  0.6502
  619SOL     OW 1855   2.632   1.282   0.562 -0.5949 -0.4973  0.3277
  619SOL    HW1 1856   2.643   1.186   0.528 -0.0631 -0.1512 -1.6554
  619SOL    HW2 1857   2.606   1.339   0.481  0.5528 -0.0546 -2.2430
  620SOL     OW 1858   2.297   2.680   0.051  0.0905  0.0679 -0.2800
  620SOL    HW1 1859   2.372   2.694   0.120 -2.1819  0.4548  2.0793
  620SOL    HW2 1860   2.212   2.660   0.103  0.9137  0.6620 -1.3851
  621SOL     OW 1861   2.508   1.311   3.089 -0.4260 -0.8227 -0.3107
  621SOL    HW1 1862   2.449   1.250   0.049  1.7532  0.7955 -0.0602
  621SOL    HW2 1863   2.484   1.411   3.096 -2.0097  0.8093  0.3712
  622SOL     OW 1864   1.403   2.651   2.298  0.2227 -0.1463 -0.6354
  622SOL    HW1 1865   1.394   2.552   2.318 -0.7962  1.9596 -0.8506
  622SOL    HW2 1866   1.390   2.674   2.200  0.6211 -1.0875 -3.0781
  623SOL     OW 1867   0.536   1.721   0.149  0.4707 -0.0646 -0.7915
  623SOL    HW1 1868   0.554   1.822   0.133 -1.6119 -1.6615 -0.0523
  623SOL    HW2 1869   0.455   1.694   0.087 -1.3466  3.3432  2.8971
  624SOL     OW 1870   0.527   0.003   2.676  0.3618  0.2902  0.0351
  624SOL    HW1 1871   0.441   0.024   2.731 -0.1718  1.0868 -0.5893
  624SOL    HW2 1872   0.559   3.013   2.707 -1.8689  2.5005 -0.1154
  625SOL     OW 1873   1.058   1.795   0.513  0.5964 -0.4624  0.1443
  625SOL    HW1 1874   0.977   1.834   0.557  4.0189 -0.6642 -1.3111
  625SOL    HW2 1875   1.134   1.851   0.544 -2.4590  2.4099  1.2300
  626SOL     OW 1876   2.541   0.182   3.029 -0.4576 -0.0691  0.3380
  626SOL    HW1 1877   2.476   0.194   2.949 -3.3773  1.8975  0.7601
  626SOL    HW2 1878   2.568   0.274   3.070  0.2393  2.0641  0.3209
  627SOL     OW 1879   1.544   1.251   2.472 -0.6192  0.2261 -0.2183
  627SOL    HW1 1880   1.545   1.154   2.492  1.2912 -0.6077 -1.5272
  627SOL    HW2 1881   1.637   1.284   2.480 -1.5040 -0.4320  1.5138
  628SOL     OW 1882   0.446   0.569   2.157 -0.2281 -0.2864 -0.3740
  628SOL    HW1 1883   0.413   0.604   2.245 -0.7141 -1.9697 -0.6495
  628SOL    HW2 1884   0.542   0.537   2.163 -4.5413 -0.8160 -1.1674
  629SOL     OW 1885   0.177   2.946   1.836  0.0560 -0.0202 -0.2076
  629SOL    HW1 1886   0.233   2.940   1.922 -1.1789  0.3585  2.0004
  629SOL    HW2 1887   0.230   2.928   1.753  0.6710  0.1739  1.9571
  630SOL     OW 1888   1.803   0.557   1.812  0.2452  0.2443  0.2704
  630SOL    HW1 1889   1.760   0.469   1.841  3.7432 -0.9586 -1.9568
  630SOL    HW2 1890   1.743   0.619   1.761  1.3152 -2.7860  2.8891
  631SOL     OW 1891   2.366   1.126   0.145 -0.2850  0.5491  0.1877
  631SOL    HW1 1892   2.433   1.051   0.170 -3.3488 -0.2024  0.1058
  631SOL    HW2 1893   2.307   1.144   0.226  0.5547 -1.4399 -0.4352
  632SOL     OW 1894   1.954   0.227   2.055  0.3101  0.3122  0.1134
  632SOL    HW1 1895   1.912   0.183   1.969 -0.8584 -2.1437 -1.4817
  632SOL    HW2 1896   1.987   0.323   2.040  0.4471  2.3575 -2.4277
  633SOL     OW 1897   0.816   2.860   0.160 -0.1284  0.0028  0.3182
  633SOL    HW1 1898   0.727   2.903   0.135 -2.4721 -0.6895 -0.4759
  633SOL    HW2 1899   0.874   2.877   0.084 -4.2133 -0.8949  4.0668
  634SOL     OW 1900   1.474   2.607   2.636  0.2286  0.1988  0.4555
  634SOL    HW1 1901   1.507   2.530   2.579  0.3960  3.2354  2.1640
  634SOL    HW2 1902   1.545   2.628   2.709 -0.1651 -1.1746  0.9179
  635SOL     OW 1903   2.361   0.473   0.014  0.2514 -0.4029  0.1877
  635SOL    HW1 1904   2.452   0.459   3.079 -2.4018  1.5829  0.6171
  635SOL    HW2 1905   2.315   0.394   0.061 -0.5495 -0.7854  0.8926
  636SOL     OW 1906   0.861   1.435   1.038  0.4543  0.1130 -0.1911
  636SOL    HW1 1907   0.934   1.482   1.097  1.1473  1.5341  1.2932
  636SOL    HW2 1908   0.896   1.438   0.943  1.9023  2.6585  1.2114
  637SOL     OW 1909   0.222   2.706   0.466 -0.2009  0.2338  0.1373
  637SOL    HW1 1910   0.159   2.646   0.518  2.4742  4.2787  0.3160
  637SOL    HW2 1911   0.177   2.789   0.433  1.5217 -3.8549 -0.5278
  638SOL     OW 1912   0.599   3.067   0.393 -0.1100 -0.3032  0.1681
  638SOL    HW1 1913   0.614   3.046   0.493 -2.6280 -1.5885  3.1654
  638SOL    HW2 1914   0.544   2.986   0.352  0.6836 -3.9574  0.2954
  639SOL     OW 1915   1.136   1.376   0.479 -0.6457  0.2492 -0.3897
  639SOL    HW1 1916   1.168   1.426   0.401  1.2116 -1.4452  3.6299
  639SOL    HW2 1917   1.222   1.365   0.531  0.5786  1.8030  0.9742
  640SOL     OW 1918   1.156   2.662   1.042 -0.5511  0.8650  0.1678
  640SOL    HW1 1919   1.144   2.563   1.060 -1.9098 -0.4231 -0.1468
  640SOL    HW2 1920   1.220   2.675   0.961  1.9221  0.5482 -0.3430
  641SOL     OW 1921   0.063   2.514   0.619  0.0571 -0.8316  1.1678
  641SOL    HW1 1922   0.109   2.437   0.669  1.3231  0.2349 -1.7459
  641SOL    HW2 1923   3.089   2.477   0.559  2.4934  1.1432  0.1230
  642SOL     OW 1924   1.197   0.287   1.751 -0.6185 -0.1162  0.1340
  642SOL    HW1 1925   1.209   0.224   1.834  0.4912 -0.0669  1.0995
  642SOL    HW2 1926   1.238   0.238   1.669  0.6577 -1.3897 -1.7817
  643SOL     OW 1927   0.733   1.683   2.304 -0.0609 -0.1460  0.3590
  643SOL    HW1 1928   0.647   1.673   2.249  1.3959 -2.1757  3.1463
  643SOL    HW2 1929   0.726   1.768   2.358 -0.7265  1.3009  0.7508
  644SOL     OW 1930   0.957   2.967   0.391  0.4234  0.0950 -0.3604
  644SOL    HW1 1931   0.886   2.939   0.322 -0.5817  0.7804  0.4210
  644SOL    HW2 1932   0.932   3.052   0.445 -1.6255  2.8732  0.2876
  645SOL     OW 1933   1.217   1.573   2.638  0.2875  0.2107 -0.0847
  645SOL    HW1 1934   1.181   1.571   2.733 -0.1224 -0.2562  0.5907
  645SOL    HW2 1935   1.314   1.591   2.642 -3.2708  0.5570  0.2753
  646SOL     OW 1936   0.696   1.313   0.326  0.3808 -0.5059 -0.6197
  646SOL    HW1 1937   0.645   1.274   0.402 -0.4396 -0.9682 -3.5774
  646SOL    HW2 1938   0.688   1.413   0.337 -0.7633  0.8369 -1.0521
  647SOL     OW 1939   1.122   0.225   0.891 -0.4198  0.0946  0.0307
  647SOL    HW1 1940   1.190   0.176   0.947  0.7339  1.6138  1.3050
  647SOL    HW2 1941   1.029   0.192   0.901 -0.3924  0.2469 -1.0162
  648SOL     OW 1942   2.786   2.689   1.939  0.3340 -0.0001 -0.7187
  648SOL    HW1 1943   2.711   2.748   1.896 -0.7048  2.1116  1.4333
  648SOL    HW2 1944   2.878   2.719   1.907  0.9193 -0.9017  0.9375
  649SOL     OW 1945   0.440   2.200   0.124  0.2182  0.0730  0.1326
  649SOL    HW1 1946   0.453   2.266   0.046  0.5424 -0.4457 -1.6703
  649SOL    HW2 1947   0.454   2.248   0.210 -0.4713 -1.4899 -0.8569
  650SOL     OW 1948   0.289   2.093   1.668 -0.2172 -0.6385  0.1991
  650SOL    HW1 1949   0.230   2.018   1.709 -0.7642 -0.3596 -0.4465
  650SOL    HW2 1950   0.296   2.079   1.571 -0.7154  0.0766  0.1600
  651SOL     OW 1951   0.377   0.098   2.899  0.0850 -0.6195 -0.0031
  651SOL    HW1 1952   0.416   0.195   2.899  1.8127  1.0441 -3.5523
  651SOL    HW2 1953   0.318   0.095   2.980 -0.1151  0.6565 -0.2959
  652SOL     OW 1954   2.628   1.607   0.351 -0.3333 -0.2943 -0.0903
  652SOL    HW1 1955   2.534   1.619   0.320  0.4466 -3.8242  1.0091
  652SOL    HW2 1956   2.651   1.509   0.345  2.0164  2.3685  2.7234
  653SOL     OW 1957   3.088   0.058   0.998 -0.1792 -0.4216 -0.1158
  653SOL    HW1 1958   0.048   0.130   1.044 -1.6650 -1.7967  1.4558
  653SOL    HW2 1959   0.006   0.067   0.899  0.5074 -1.3675  0.4371
  654SOL     OW 1960   1.653   3.075   2.749 -0.0131 -0.2059 -0.1497
  654SOL    HW1 1961   1.687   0.066   2.706 -2.0085  4.1094  1.7623
  654SOL    HW2 1962   1.549   3.067   2.747 -0.8392 -0.3029 -3.9980
  655SOL     OW 1963   0.821   2.706   1.268  0.1168 -0.5588  0.4634
  655SOL    HW1 1964   0.750   2.762   1.220 -0.8891  0.6073 -1.4194
  655SOL    HW2 1965   0.865   2.639   1.204 -0.7832 -0.1921 -1.9067
  656SOL     OW 1966   0.351   2.956   2.036 -0.4030  0.1671  0.2752
  656SOL    HW1 1967   0.418   3.033   2.006  0.1413 -0.5028  1.3720
  656SOL    HW2 1968   0.391   2.865   2.036 -3.1483  1.6650 -0.0016
  657SOL     OW 1969   1.965   0.727   1.971  0.4300 -0.2840 -0.9394
  657SOL    HW1 1970   2.048   0.682   2.021  2.8769  0.7779  0.4071
  657SOL    HW2 1971   1.903   0.661   1.925  0.0389  1.6926 -0.2761
  658SOL     OW 1972   2.378   1.859   1.066  0.5818 -0.6355 -0.2702
  658SOL    HW1 1973   2.413   1.842   1.160 -0.7123 -0.3416 -2.6260
  658SOL    HW2 1974   2.421   1.791   1.005  1.4089 -0.3344  1.3657
  659SOL     OW 1975   2.489   2.722   0.247  0.2227  0.3724 -0.2341
  659SOL    HW1 1976   2.580   2.674   0.242  0.4970 -2.3970 -1.0190
  659SOL    HW2 1977   2.488   2.793   0.325 -1.0824  4.5667  1.1186
  660SOL     OW 1978   0.931   1.218   2.818 -0.0848 -0.6978  0.3135
  660SOL    HW1 1979   0.955   1.319   2.809 -0.6714 -1.5976 -0.3372
  660SOL    HW2 1980   1.007   1.167   2.854 -0.1746  0.0308 -0.8217
  661SOL     OW 1981   2.236   2.315   1.073 -0.1522 -0.9381 -0.5712
  661SOL    HW1 1982   2.213   2.410   1.093 -0.5285 -2.2565 -2.1630
  661SOL    HW2 1983   2.258   2.312   0.972 -1.1066  1.1485 -2.9591
  662SOL     OW 1984   0.526   0.634   0.196 -0.1690  0.2637  0.0109
  662SOL    HW1 1985   0.434   0.610   0.226  1.4226 -0.6234 -1.7412
  662SOL    HW2 1986   0.538   0.638   0.095  0.7623  0.9677  1.9850
  663SOL     OW 1987   0.965   2.214   2.932 -0.2986  0.0725  0.4800
  663SOL    HW1 1988   0.935   2.280   3.005 -0.7889  1.5283 -0.6248
  663SOL    HW2 1989   1.066   2.205   2.922  1.3903  0.7293  3.4460
  664SOL     OW 1990   0.765   3.051   1.634  0.6508 -0.6013  0.0454
  664SOL    HW1 1991   0.865   3.032   1.646 -3.2092 -0.3693 -1.3322
  664SOL    HW2 1992   0.743   0.052   1.655 -0.7304 -0.0022 -0.6135
  665SOL     OW 1993   1.860   1.614   1.907  0.3288 -0.2045  0.0108
  665SOL    HW1 1994   1.832   1.561   1.824 -0.3888 -0.0098 -2.2735
  665SOL    HW2 1995   1.914   1.556   1.969 -0.3123 -0.5044 -1.7669
  666SOL     OW 1996   0.396   2.913   0.255  0.3425 -0.3724 -0.1465
  666SOL    HW1 1997   0.300   2.896   0.279  2.0766 -1.5114  0.2823
  666SOL    HW2 1998   0.419   2.923   0.156 -0.2875 -0.1847  0.0264
  667SOL     OW 1999   1.858   1.727   1.572 -0.7009 -0.1951 -0.3550
  667SOL    HW1 2000   1.940   1.672   1.551  0.7137  1.5432  1.7180
  667SOL    HW2 2001   1.796   1.677   1.637  1.6983  1.4906  1.3989
  668SOL     OW 2002   0.208   0.243   2.217  0.3183 -0.1480  0.4965
  668SOL    HW1 2003   0.222   0.277   2.120 -0.1408 -0.3804 -0.9840
  668SOL    HW2 2004   0.295   0.203   2.256 -0.1370 -0.1385 -0.3325
  669SOL     OW 2005   1.761   2.030   2.213  0.3214 -1.0817 -0.3998
  669SOL    HW1 2006   1.839   2.058   2.157 -1.1536 -1.9615  0.7463
  669SOL    HW2 2007   1.673   2.056   2.166  0.1722  2.6101  0.8705
  670SOL     OW 2008   2.452   2.089   0.517  0.1703  0.2680 -0.1797
  670SOL    HW1 2009   2.521   2.024   0.560 -3.1127  0.2664 -0.7608
  670SOL    HW2 2010   2.356   2.071   0.541  3.5938  1.8222  1.2475
  671SOL     OW 2011   0.669   1.315   1.355 -0.5730 -0.0373 -1.0059
  671SOL    HW1 2012   0.708   1.268   1.272  0.0888 -2.8630 -1.3735
  671SOL    HW2 2013   0.568   1.300   1.361  3.6136 -2.3705  0.5045
  672SOL     OW 2014   2.668   1.291   2.197  0.1147  0.3846 -0.0964
  672SOL    HW1 2015   2.608   1.322   2.273  0.4116  1.6454  0.5408
  672SOL    HW2 2016   2.768   1.310   2.211 -0.6682  1.9456  0.1757
  673SOL     OW 2017   3.033   1.696   2.270 -0.1082  0.2938  0.6219
  673SOL    HW1 2018   2.935   1.670   2.291  2.4459  1.0454  0.0904
  673SOL    HW2 2019   3.089   1.687   2.353 -0.6261 -0.2219  1.3584
  674SOL     OW 2020   0.965   2.664   2.166 -0.7553 -0.1727  0.4049
  674SOL    HW1 2021   1.018   2.690   2.252  1.7626 -2.8761 -1.3882
  674SOL    HW2 2022   0.870   2.698   2.171  2.3344  0.8866 -1.3275
  675SOL     OW 2023   0.792   0.943   1.465  0.2797  0.2388 -0.2328
  675SOL    HW1 2024   0.810   0.851   1.511  0.1124  2.0461 -3.9232
  675SOL    HW2 2025   0.691   0.967   1.451  0.5167  0.4482 -1.4901
  676SOL     OW 2026   1.814   1.145   0.299 -0.0331 -0.0528  0.6292
  676SOL    HW1 2027   1.814   1.052   0.351  0.1427 -0.7830  0.7112
  676SOL    HW2 2028   1.909   1.157   0.261  1.2393 -0.1295 -0.2036
  677SOL     OW 2029   0.001   1.522   2.705  0.1963 -0.5764 -0.2301
  677SOL    HW1 2030   3.014   1.552   2.749 -1.9073 -0.1459 -0.6721
  677SOL    HW2 2031   0.063   1.497   2.781 -1.3251  0.2970  0.5411
  678SOL     OW 2032   2.789   2.503   1.578 -0.5047 -0.0546 -0.2119
  678SOL    HW1 2033   2.726   2.467   1.648  1.3933  0.4178 -1.4088
  678SOL    HW2 2034   2.812   2.440   1.501  0.4577  0.3167 -0.8038
  679SOL     OW 2035   2.140   0.030   0.585 -0.4006  0.1707  0.0664
  679SOL    HW1 2036   2.125   0.085   0.670  2.9568 -0.3239 -1.8501
  679SOL    HW2 2037   2.234   3.080   0.580 -0.3999 -0.7473 -0.3990
  680SOL     OW 2038   0.050   2.227   2.261  0.3533 -0.3615 -0.6152
  680SOL    HW1 2039   0.149   2.210   2.268  2.6781  0.7485  0.1286
  680SOL    HW2 2040   0.033   2.275   2.174 -1.8746  0.0018  0.7097
  681SOL     OW 2041   0.199   1.681   1.479  0.1203  0.3132 -0.0024
  681SOL    HW1 2042   0.278   1.633   1.434  0.3432 -0.4042 -1.2558
  681SOL    HW2 2043   0.238   1.726   1.562  0.2902  1.9508  0.0596
  682SOL     OW 2044   0.291   2.347   1.417 -0.6818 -0.0384  0.3398
  682SOL    HW1 2045   0.389   2.335   1.417 -1.3795  1.5732 -1.8017
  682SOL    HW2 2046   0.241   2.257   1.422  1.4009  0.5581 -0.8309
  683SOL     OW 2047   3.027   1.689   1.561  0.0460 -0.5522 -0.2384
  683SOL    HW1 2048   3.034   1.756   1.638 -0.2934 -1.1416  2.6783
  683SOL    HW2 2049   0.025   1.659   1.540 -0.2282  0.7965 -1.8742
  684SOL     OW 2050   2.841   1.666   0.143 -0.1849  0.4498 -0.3578
  684SOL    HW1 2051   2.788   1.630   0.226  1.2451 -1.1887 -0.3668
  684SOL    HW2 2052   2.921   1.603   0.122 -0.8250  1.5507 -1.7361
  685SOL     OW 2053   1.257   0.741   0.390 -0.0416 -0.1960  0.7358
  685SOL    HW1 2054   1.156   0.746   0.376 -1.2310  0.3010  3.2085
  685SOL    HW2 2055   1.310   0.777   0.310  0.9049  0.0083 -0.7156
  686SOL     OW 2056   0.338   3.032   1.095 -0.2686 -0.8870 -0.1370
  686SOL    HW1 2057   0.386   3.012   1.178 -2.0078  1.8966 -2.7860
  686SOL    HW2 2058   0.379   2.985   1.017  1.2057  2.3512  0.7166
  687SOL     OW 2059   0.940   1.243   2.428 -0.1048 -0.2334 -0.2164
  687SOL    HW1 2060   0.955   1.321   2.362  0.7263  1.4346  0.6792
  687SOL    HW2 2061   1.001   1.260   2.509  1.4199  0.8734  1.5870
  688SOL     OW 2062   0.885   1.691   1.705  0.6890  0.0684 -0.4134
  688SOL    HW1 2063   0.824   1.636   1.650  2.5346  3.5159  1.1910
  688SOL    HW2 2064   0.918   1.645   1.786 -0.3835  0.2964 -1.9521
  689SOL     OW 2065   2.235   0.417   1.121 -0.2943  0.5774 -0.3234
  689SOL    HW1 2066   2.304   0.348   1.096  1.6747  2.9989  0.1780
  689SOL    HW2 2067   2.149   0.370   1.156 -1.0704 -1.7845 -0.0374
  690SOL     OW 2068   2.868   1.407   0.880  0.0091 -0.3493  0.0037
  690SOL    HW1 2069   2.947   1.466   0.864 -1.6256  1.2109  3.3175
  690SOL    HW2 2070   2.863   1.391   0.982 -2.9413  0.0139 -1.2222
  691SOL     OW 2071   0.063   2.437   1.310  0.1149 -0.7998 -0.2833
  691SOL    HW1 2072   0.153   2.417   1.354  1.9682 -1.8004 -0.8076
  691SOL    HW2 2073   3.087   2.400   1.364 -1.7903  0.5360  2.7966
  692SOL     OW 2074   1.998   2.984   1.026 -0.5493  0.1242 -0.5067
  692SOL    HW1 2075   2.096   3.003   1.020 -3.8231  0.0293 -0.9157
  692SOL    HW2 2076   1.966   2.996   1.125 -0.8131  1.1153  1.6288
  693SOL     OW 2077   0.536   1.611   2.633  0.2843  0.1415  0.4497
  693SOL    HW1 2078   0.618   1.551   2.616 -2.5897 -1.6744 -1.6904
  693SOL    HW2 2079   0.470   1.603   2.556 -0.3136  1.8431 -0.5992
  694SOL     OW 2080   1.858   1.024   1.359  0.1867 -0.4648 -0.0011
  694SOL    HW1 2081   1.953   1.007   1.389 -0.9793  0.7756  0.3375
  694SOL    HW2 2082   1.819   0.953   1.294 -2.5137  1.4564 -1.3054
  695SOL     OW 2083   1.138   0.849   1.362 -0.2149 -0.2510  0.2036
  695SOL    HW1 2084   1.126   0.803   1.452  0.4714  0.9220 -1.0905
  695SOL    HW2 2085   1.217   0.912   1.358  1.7514  0.8281  2.0351
  696SOL     OW 2086   1.426   0.003   0.708  0.5421  0.3306 -0.1005
  696SOL    HW1 2087   1.468   3.087   0.800  0.8548 -2.1960  0.4423
  696SOL    HW2 2088   1.488   3.069   0.637 -0.4793 -0.7705  3.4782
  697SOL     OW 2089   1.172   0.586   1.217  0.1741 -0.0409 -0.9678
  697SOL    HW1 2090   1.192   0.568   1.316 -0.0420 -0.8153 -0.0287
  697SOL    HW2 2091   1.116   0.516   1.178  0.9257  0.6067  0.7813
  698SOL     OW 2092   1.603   1.089   2.097 -0.4934  0.5148 -0.6051
  698SOL    HW1 2093   1.683   1.028   2.094  1.0192  1.8550  0.2195
  698SOL    HW2 2094   1.595   1.138   2.006  0.7774 -1.3632 -0.0975
  699SOL     OW 2095   1.768   0.682   0.948  0.6669  0.5714 -0.1022
  699SOL    HW1 2096   1.798   0.684   0.855 -2.0909 -2.7519 -0.4664
  699SOL    HW2 2097   1.690   0.751   0.964  1.3718  0.1911 -2.4936
  700SOL     OW 2098   1.133   2.629   0.349 -0.0738  0.0438  0.5559
  700SOL    HW1 2099   1.129   2.693   0.426 -0.7799 -1.7794 -0.3498
  700SOL    HW2 2100   1.225   2.583   0.356  0.1846  3.6694  1.4935
  701SOL     OW 2101   2.106   2.341   3.014  0.5203  0.4141  0.1691
  701SOL    HW1 2102   2.067   2.434   3.002 -1.2052  0.6808  2.3558
  701SOL    HW2 2103   2.161   2.307   2.938  1.7956 -0.6236  0.8322
  702SOL     OW 2104   1.131   0.504   0.788 -0.1298  0.6876  0.1173
  702SOL    HW1 2105   1.137   0.402   0.805 -1.8057  0.7027  2.3286
  702SOL    HW2 2106   1.209   0.552   0.833 -0.5627  1.0148 -1.0137
  703SOL     OW 2107   2.272   0.368   2.365 -0.0865 -0.1449 -0.1129
  703SOL    HW1 2108   2.226   0.292   2.320 -0.4792  0.1900 -1.8458
  703SOL    HW2 2109   2.222   0.405   2.448  0.2519  0.5442  1.4161
  704SOL     OW 2110   0.159   2.174   0.347  0.5357 -0.2434  0.0668
  704SOL    HW1 2111   0.147   2.221   0.253 -1.0606 -2.3981 -2.5212
  704SOL    HW2 2112   0.259   2.171   0.356  0.6094 -0.1684 -1.5217
  705SOL     OW 2113   2.664   2.696   2.208  0.1487  0.2656  0.1907
  705SOL    HW1 2114   2.735   2.694   2.134 -1.6456  0.4823 -4.0058
  705SOL    HW2 2115   2.590   2.639   2.176  2.3165  2.4542 -1.6568
  706SOL     OW 2116   2.271   2.651   0.978  0.4326 -0.0883  0.0638
  706SOL    HW1 2117   2.167   2.658   0.986  0.5046  1.2259  0.1286
  706SOL    HW2 2118   2.294   2.693   0.889  0.9412 -1.6382 -0.4905
  707SOL     OW 2119   0.610   2.460   2.175  0.3007 -0.3416 -0.7164
  707SOL    HW1 2120   0.581   2.423   2.082  2.6354 -3.0949 -1.6026
  707SOL    HW2 2121   0.660   2.543   2.162 -4.9525 -2.2414 -2.7191
  708SOL     OW 2122   2.936   2.105   2.388  0.1132  0.0966 -0.2596
  708SOL    HW1 2123   2.984   2.039   2.455  1.3460 -4.8038  0.7159
  708SOL    HW2 2124   3.005   2.132   2.317 -1.2358 -1.5986 -0.5405
  709SOL     OW 2125   1.926   2.975   1.932 -0.0924 -0.3009  0.3717
  709SOL    HW1 2126   1.913   3.075   1.916  2.2406  3.5293  2.7399
  709SOL    HW2 2127   1.944   2.959   2.031  1.1292 -1.6248  1.3051
  710SOL     OW 2128   1.398   0.624   2.397 -0.7194  0.3996  0.1322
  710SOL    HW1 2129   1.382   0.546   2.457  0.1843  1.4208  1.3172
  710SOL    HW2 2130   1.498   0.627   2.367 -0.3768 -1.3923 -0.2192
  711SOL     OW 2131   0.632   2.087   2.890 -0.6246  0.2987  0.1352
  711SOL    HW1 2132   0.720   2.062   2.930 -1.3789  1.0175 -0.4893
  711SOL    HW2 2133   0.592   2.006   2.841  0.3431  1.0358 -2.3123
  712SOL     OW 2134   0.505   2.459   2.678  0.1606  0.0031  0.0260
  712SOL    HW1 2135   0.464   2.537   2.733 -1.2491  2.1782  2.5236
  712SOL    HW2 2136   0.538   2.489   2.592  0.4710 -1.2924  3.2650
  713SOL     OW 2137   1.716   1.516   2.646  0.1187  0.3136  0.4576
  713SOL    HW1 2138   1.765   1.468   2.571 -0.8356 -0.5807 -1.4385
  713SOL    HW2 2139   1.772   1.526   2.732  0.5033  0.7111 -0.5921
  714SOL     OW 2140   1.504   1.329   1.955 -0.7028 -0.0583  0.0745
  714SOL    HW1 2141   1.490   1.416   1.900 -1.1704 -0.6800 -2.1994
  714SOL    HW2 2142   1.528   1.355   2.052  0.5434  0.8094  1.0571
  715SOL     OW 2143   2.080   0.664   2.406 -0.2457 -0.2751  0.3657
  715SOL    HW1 2144   2.093   0.572   2.452 -2.1496 -0.5283 -0.7571
  715SOL    HW2 2145   1.987   0.697   2.426 -0.9416 -0.1084 -1.2814
  716SOL     OW 2146   3.009   2.115   1.668 -0.1053  0.0956  0.6307
  716SOL    HW1 2147   3.062   2.154   1.747 -2.2990  0.5517 -0.7202
  716SOL    HW2 2148   3.057   2.043   1.613 -0.4303 -1.1798  0.3269
  717SOL     OW 2149   2.618   1.363   0.815 -0.1008 -0.2366 -0.2826
  717SOL    HW1 2150   2.714   1.372   0.845 -0.1802  2.0565  1.1407
  717SOL    HW2 2151   2.610   1.346   0.713 -1.6673  0.2706 -1.2503
  718SOL     OW 2152   0.898   1.792   2.064 -0.0022  0.0792 -0.1478
  718SOL    HW1 2153   0.836   1.720   2.103 -1.0808 -1.3937 -0.5891
  718SOL    HW2 2154   0.996   1.766   2.070  0.2034  0.7281 -0.3898
  719SOL     OW 2155   1.925   0.784   2.677  0.0919  0.2369  0.0528
  719SOL    HW1 2156   1.865   0.735   2.612  0.7155  1.0814  0.7186
  719SOL    HW2 2157   1.913   0.883   2.669 -0.4400 -2.4766  1.6064
  720SOL     OW 2158   0.654   0.626   0.825 -0.4562  0.1760 -0.3314
  720SOL    HW1 2159   0.609   0.708   0.783  3.2837  3.4759 -2.9446
  720SOL    HW2 2160   0.583   0.565   0.857  0.9750  2.6861 -1.2454
  721SOL     OW 2161   2.983   0.774   0.371  0.4380 -0.0700 -0.0263
  721SOL    HW1 2162   2.913   0.848   0.384 -2.4246  2.8864 -2.4447
  721SOL    HW2 2163   3.006   0.782   0.272 -2.7118 -0.5108  0.1041
  722SOL     OW 2164   2.957   0.597   2.604  0.0247 -0.1628  0.2424
  722SOL    HW1 2165   2.894   0.523   2.632 -0.2538  1.3952  1.4915
  722SOL    HW2 2166   3.045   0.555   2.574  0.3854  0.0270 -1.5543
  723SOL     OW 2167   1.958   0.177   0.274  0.0280  0.3954  0.8993
  723SOL    HW1 2168   1.917   0.222   0.195 -0.3018 -0.7770 -0.0149
  723SOL    HW2 2169   2.021   0.239   0.323 -1.0582  0.6455  2.5050
  724SOL     OW 2170   0.516   1.806   2.012 -0.1890 -0.4898  0.0141
  724SOL    HW1 2171   0.565   1.893   2.043  1.6621  1.6881  2.4429
  724SOL    HW2 2172   0.532   1.797   1.912  0.1367  0.0989  1.9678
  725SOL     OW 2173   1.578   3.048   0.923  0.1034  0.8093  0.4089
  725SOL    HW1 2174   1.598   2.948   0.916  2.0971  0.5734  0.9038
  725SOL    HW2 2175   1.661   0.007   0.907  1.6531  0.0735 -1.2730
  726SOL     OW 2176   1.937   2.442   0.317 -0.4709  0.5695 -0.1449
  726SOL    HW1 2177   2.015   2.499   0.285 -0.0846  0.9662 -0.5551
  726SOL    HW2 2178   1.920   2.445   0.418 -0.1994 -1.8944 -0.4376
  727SOL     OW 2179   1.743   1.756   1.317  0.3213  0.5206 -0.8714
  727SOL    HW1 2180   1.779   1.740   1.405 -2.8158 -0.3439 -4.7158
  727SOL    HW2 2181   1.812   1.803   1.256  1.0851 -0.1429 -0.1748
  728SOL     OW 2182   1.996   2.716   1.583  0.0658 -0.4197 -0.1071
  728SOL    HW1 2183   2.085   2.767   1.583 -0.3094 -2.5294  0.3213
  728SOL    HW2 2184   1.948   2.707   1.673  0.6550  0.7371 -3.7370
  729SOL     OW 2185   1.932   1.911   1.212  0.2972  0.2223 -0.1118
  729SOL    HW1 2186   1.998   1.972   1.160 -0.9175  1.7934 -0.3606
  729SOL    HW2 2187   1.979   1.828   1.254  0.6344  0.4070  1.6398
  730SOL     OW 2188   1.269   0.815   2.725 -0.5049 -0.1172  0.2333
  730SOL    HW1 2189   1.219   0.880   2.661 -0.9903  1.1925 -1.8396
  730SOL    HW2 2190   1.367   0.803   2.688  0.6430  2.1751  2.5995
  731SOL     OW 2191   0.558   0.202   0.752  0.1356  0.8428 -0.4974
  731SOL    HW1 2192   0.473   0.171   0.802 -0.7639  1.4178  3.3859
  731SOL    HW2 2193   0.619   0.247   0.826  0.5858  0.7273  1.9647
  732SOL     OW 2194   1.691   0.385   0.527  0.0936  0.4365 -0.0194
  732SOL    HW1 2195   1.604   0.410   0.572 -0.8951  2.5655 -1.5363
  732SOL    HW2 2196   1.689   0.294   0.478 -1.9645  2.2186  0.8250
  733SOL     OW 2197   0.618   1.806   1.293 -0.2929  0.0051  0.3498
  733SOL    HW1 2198   0.674   1.721   1.312  0.3654  0.1494 -0.6190
  733SOL    HW2 2199   0.670   1.896   1.295  2.3676  2.3860 -4.0997
  734SOL     OW 2200   3.007   2.791   0.195  0.3419 -0.3987 -0.3588
  734SOL    HW1 2201   2.936   2.760   0.132 -0.2461 -1.7615 -0.0366
  734SOL    HW2 2202   3.085   2.822   0.133 -1.6666  0.9878  2.3195
  735SOL     OW 2203   1.232   0.022   1.058 -0.9501 -0.1007  0.5515
  735SOL    HW1 2204   1.210   3.033   1.098  1.6917  2.7982 -1.0977
  735SOL    HW2 2205   1.336   0.039   1.062  2.5791  0.2460 -2.7975
  736SOL     OW 2206   1.879   2.158   0.283  0.5563 -0.5264 -0.0632
  736SOL    HW1 2207   1.968   2.120   0.250  0.3342 -0.7465  1.0722
  736SOL    HW2 2208   1.887   2.258   0.294 -1.1025 -2.1191  0.5162
  737SOL     OW 2209   0.143   1.478   1.065 -0.3872  0.0976  0.7014
  737SOL    HW1 2210   0.238   1.501   1.046  0.5043 -1.3826  1.6649
  737SOL    HW2 2211   0.117   1.489   1.164 -1.3979  2.4522  0.5376
  738SOL     OW 2212   2.088   2.377   2.497 -0.0677  0.0321  0.0155
  738SOL    HW1 2213   2.060   2.452   2.561  0.1488 -0.7432  0.4674
  738SOL    HW2 2214   2.165   2.399   2.435 -1.2296 -3.5358  1.0961
  739SOL     OW 2215   1.298   2.038   2.645  0.1211  0.3249 -0.3293
  739SOL    HW1 2216   1.281   2.058   2.544  0.4346  1.4149 -0.1953
  739SOL    HW2 2217   1.224   1.976   2.684  0.0454  0.0711  0.0949
  740SOL     OW 2218   1.526   0.057   1.155 -0.6354  0.3875 -0.0650
  740SOL    HW1 2219   1.610   0.113   1.176  1.9675 -0.7935  0.5267
  740SOL    HW2 2220   1.541   3.094   1.072 -1.8355 -3.3314  0.5014
  741SOL     OW 2221   0.262   1.159   0.754  0.4099 -0.1430 -0.1542
  741SOL    HW1 2222   0.330   1.086   0.776 -2.0243  1.3678 -1.1571
  741SOL    HW2 2223   0.183   1.128   0.694 -2.6731  3.6273 -1.5039
  742SOL     OW 2224   0.722   1.059   2.408 -0.0761  0.6011  0.4833
  742SOL    HW1 2225   0.786   1.128   2.441 -0.1045  0.2702  0.6725
  742SOL    HW2 2226   0.660   1.034   2.486 -4.1286  2.0250  3.0775
  743SOL     OW 2227   0.942   0.961   2.022 -0.0947  0.3030 -0.2547
  743SOL    HW1 2228   0.920   1.059   2.043 -0.2345  0.1537 -0.9500
  743SOL    HW2 2229   0.988   0.904   2.099  1.7221  0.2546  0.8386
  744SOL     OW 2230   1.813   0.117   1.843 -0.1477  0.0450 -0.6861
  744SOL    HW1 2231   1.723   0.090   1.806  0.3609  1.1740 -0.4962
  744SOL    HW2 2232   1.870   0.172   1.779 -0.9244 -1.8669  0.1140
  745SOL     OW 2233   2.255   1.316   1.571  0.1714 -0.1564 -0.3468
  745SOL    HW1 2234   2.343   1.361   1.608  0.7260  0.8751  1.5862
  745SOL    HW2 2235   2.264   1.309   1.469  3.0864  0.4704 -1.7814
  746SOL     OW 2236   2.036   1.280   0.202  0.0444 -0.9574  0.1136
  746SOL    HW1 2237   1.990   1.372   0.180 -1.2507  3.9850 -2.6502
  746SOL    HW2 2238   2.096   1.247   0.129 -0.3911  0.4538 -0.4193
  747SOL     OW 2239   2.803   1.775   1.182 -0.0757  0.3414 -0.7018
  747SOL    HW1 2240   2.776   1.785   1.088  2.9320 -3.6075 -0.7835
  747SOL    HW2 2241   2.824   1.866   1.220  0.5777 -2.3056 -0.9721
  748SOL     OW 2242   0.151   1.828   0.332 -0.6244 -0.2049 -0.0925
  748SOL    HW1 2243   0.063   1.859   0.295  0.0916 -1.0849  3.6014
  748SOL    HW2 2244   0.178   1.735   0.293  1.7361  0.7241  1.4462
  749SOL     OW 2245   2.668   2.337   2.714 -0.0884  0.2612  0.1674
  749SOL    HW1 2246   2.733   2.334   2.631  1.3331 -0.3143  0.3935
  749SOL    HW2 2247   2.612   2.423   2.711 -1.3754 -2.1924  1.2256
  750SOL     OW 2248   2.570   0.828   0.831  0.0005  0.4452  0.0387
  750SOL    HW1 2249   2.633   0.908   0.833 -1.0678  0.0008  2.8461
  750SOL    HW2 2250   2.520   0.819   0.919 -1.5504 -0.8397 -1.7133
  751SOL     OW 2251   2.567   3.047   0.075 -0.0114 -0.2649 -0.5423
  751SOL    HW1 2252   2.567   0.043   0.028 -1.8762 -0.2728 -2.2867
  751SOL    HW2 2253   2.561   2.979   0.001 -0.6128  2.0284  1.0395
  752SOL     OW 2254   0.082   2.954   0.794  0.3977  0.2673 -0.4985
  752SOL    HW1 2255   3.088   2.932   0.745 -1.2353 -1.0706 -1.7787
  752SOL    HW2 2256   0.077   2.911   0.888 -0.3980 -2.5037 -2.0231
  753SOL     OW 2257   1.800   0.953   2.368 -0.0693 -0.1917 -0.2482
  753SOL    HW1 2258   1.885   1.008   2.392  1.3660 -0.8514  0.8455
  753SOL    HW2 2259   1.720   0.983   2.419  0.5967 -1.8682  2.4133
  754SOL     OW 2260   1.901   2.032   1.555 -0.5944 -0.1591 -0.4012
  754SOL    HW1 2261   1.999   2.039   1.533 -3.5287 -1.5679  0.1070
  754SOL    HW2 2262   1.866   1.938   1.553 -1.0765 -1.3453 -0.2708
  755SOL     OW 2263   2.531   1.013   0.538  0.5971 -0.3066 -0.7369
  755SOL    HW1 2264   2.495   0.961   0.455 -0.0447 -0.8698 -0.2455
  755SOL    HW2 2265   2.522   0.957   0.624 -0.0162 -0.1054  2.0266
  756SOL     OW 2266   0.764   1.127   3.023 -0.8331 -0.3235 -0.3051
  756SOL    HW1 2267   0.666   1.122   3.009  3.5429  1.5542 -2.2976
  756SOL    HW2 2268   0.812   1.177   2.942  2.8546 -1.0929 -2.6605
  757SOL     OW 2269   1.148   2.431   1.176  0.1822  0.0227 -0.3674
  757SOL    HW1 2270   1.164   2.392   1.083 -1.6617 -1.3769 -1.2849
  757SOL    HW2 2271   1.185   2.370   1.246  1.9873  1.2557  1.7390
  758SOL     OW 2272   1.118   2.555   1.532 -0.3936 -0.3312 -0.5681
  758SOL    HW1 2273   1.158   2.555   1.437  2.4337 -0.9907 -1.7715
  758SOL    HW2 2274   1.018   2.560   1.521  0.0513  0.9164 -1.4396
  759SOL     OW 2275   3.030   1.051   1.086 -0.0065  0.1147  0.5840
  759SOL    HW1 2276   2.973   1.120   1.131 -1.5953  0.3858 -1.2495
  759SOL    HW2 2277   0.010   1.099   1.040 -0.8430 -0.8470  0.0705
  760SOL     OW 2278   2.270   1.258   1.320  0.1870  0.3921  0.3713
  760SOL    HW1 2279   2.272   1.157   1.335 -0.9905  2.2663  0.0827
  760SOL    HW2 2280   2.201   1.274   1.247 -0.5536 -0.2675 -0.7078
  761SOL     OW 2281   2.004   2.967   0.271 -0.0291  0.1523  0.3203
  761SOL    HW1 2282   1.928   2.923   0.220 -0.8751  0.5178  1.6331
  761SOL    HW2 2283   1.976   3.058   0.309  1.4153  2.1282 -1.8327
  762SOL     OW 2284   2.141   1.500   2.777 -0.5612  0.4496 -0.2121
  762SOL    HW1 2285   2.130   1.400   2.793  0.5947 -0.4258  0.6625
  762SOL    HW2 2286   2.130   1.521   2.681  0.0835  0.9126 -0.0072
  763SOL     OW 2287   0.545   2.135   1.808 -0.1346 -0.1874  0.5108
  763SOL    HW1 2288   0.449   2.117   1.775  2.5195 -1.3150  0.1418
  763SOL    HW2 2289   0.609   2.128   1.729  0.7135  1.3995  1.2338
  764SOL     OW 2290   0.057   2.528   0.149 -0.4538 -0.4078 -0.1890
  764SOL    HW1 2291   3.063   2.527   0.194 -1.3306 -0.3913 -1.9719
  764SOL    HW2 2292   0.060   2.615   0.098 -0.4995 -0.1490 -0.5493
  765SOL     OW 2293   0.448   3.010   1.363 -0.2133  0.6652 -0.0381
  765SOL    HW1 2294   0.445   0.011   1.390  1.4038 -0.5925  1.8606
  765SOL    HW2 2295   0.517   2.969   1.422 -0.9033 -0.5103 -0.1384
  766SOL     OW 2296   2.620   2.027   2.402 -0.4750 -0.4962 -0.1412
  766SOL    HW1 2297   2.711   2.047   2.440  0.0333 -0.0239  1.1056
  766SOL    HW2 2298   2.548   2.013   2.472  0.4393  1.3146 -0.4048
  767SOL     OW 2299   2.559   0.809   2.065 -0.3402 -0.3798 -0.1991
  767SOL    HW1 2300   2.515   0.759   1.985  0.5859 -0.3914 -3.1691
  767SOL    HW2 2301   2.617   0.748   2.126 -0.5843 -1.7728  2.5267
  768SOL     OW 2302   1.017   0.089   2.801 -0.7305  0.0938 -0.0988
  768SOL    HW1 2303   1.019   0.019   2.725 -0.4986  2.2281  0.8862
  768SOL    HW2 2304   1.104   0.100   2.850 -0.4941 -0.2345 -0.7814
  769SOL     OW 2305   2.672   2.892   0.990 -0.4214  0.7983 -0.0998
  769SOL    HW1 2306   2.746   2.923   1.052 -3.1736 -0.4356 -1.1215
  769SOL    HW2 2307   2.603   2.842   1.046  2.9027  2.5030  0.1251
  770SOL     OW 2308   0.375   2.810   2.681 -0.0129 -0.5692  0.2258
  770SOL    HW1 2309   0.302   2.883   2.677 -3.3256  1.3744  0.2207
  770SOL    HW2 2310   0.327   2.725   2.717 -2.7863 -0.2034 -0.3098
  771SOL     OW 2311   1.505   2.079   2.161  0.4545 -0.6431  0.0500
  771SOL    HW1 2312   1.414   2.112   2.129  1.8570  1.8445 -1.0146
  771SOL    HW2 2313   1.501   1.980   2.166 -0.8904  3.2515  0.8734
  772SOL     OW 2314   1.405   2.832   0.181  0.3476 -0.1558 -0.1684
  772SOL    HW1 2315   1.317   2.868   0.227 -1.2251  0.3007  0.8638
  772SOL    HW2 2316   1.450   2.914   0.143  1.9715  1.8326  1.0214
  773SOL     OW 2317   2.005   0.708   1.354 -0.1447 -0.3191  0.4048
  773SOL    HW1 2318   2.039   0.804   1.380  1.5331 -0.1807  0.9529
  773SOL    HW2 2319   2.002   0.698   1.251  0.6435 -1.9276  3.9585
  774SOL     OW 2320   1.012   1.022   1.188 -0.3408  0.0850  0.5983
  774SOL    HW1 2321   1.054   1.102   1.234  2.8982 -0.0225 -0.7468
  774SOL    HW2 2322   1.026   0.940   1.251  0.4227 -1.7776  1.1491
  775SOL     OW 2323   2.016   2.858   2.935 -0.2028 -0.1922  0.1157
  775SOL    HW1 2324   2.101   2.885   2.981 -0.7627 -5.2419 -1.3215
  775SOL    HW2 2325   1.996   2.759   2.946 -0.7877  1.6552 -1.7372
  776SOL     OW 2326   2.101   0.939   1.456  0.1979  0.6673 -0.2005
  776SOL    HW1 2327   2.129   0.927   1.555  1.7079  2.9914  2.6679
  776SOL    HW2 2328   2.183   0.961   1.404  1.4208 -1.6250  1.5761
  777SOL     OW 2329   0.312   1.054   2.175  0.6123 -0.6555 -0.1740
  777SOL    HW1 2330   0.373   0.978   2.151 -0.5045  0.0360  2.5023
  777SOL    HW2 2331   0.349   1.114   2.251  0.4303  0.0004 -0.6175
  778SOL     OW 2332   0.253   0.698   0.060  0.2075  0.2737 -0.0363
  778SOL    HW1 2333   0.321   0.666   3.089  1.1934 -1.1396 -0.4465
  778SOL    HW2 2334   0.251   0.801   0.072 -0.8687  0.3691 -1.9622
  779SOL     OW 2335   0.823   0.037   2.600 -0.0123 -0.1492  0.0927
  779SOL    HW1 2336   0.869   3.045   2.606 -1.8894 -0.9234 -3.4363
  779SOL    HW2 2337   0.739   0.051   2.651 -0.7376  0.6192  2.1335
  780SOL     OW 2338   1.997   1.145   2.483  0.2485  0.2685  0.2955
  780SOL    HW1 2339   1.970   1.134   2.584 -1.4705  3.3022  3.1727
  780SOL    HW2 2340   2.073   1.208   2.472  0.7815 -1.8936 -0.4696
  781SOL     OW 2341   2.978   0.950   1.998 -0.2846  0.2876  0.3291
  781SOL    HW1 2342   2.891   0.986   1.969  4.4982 -0.0568  2.9706
  781SOL    HW2 2343   2.963   0.882   2.079  0.5215 -2.6099  1.0220
  782SOL     OW 2344   0.772   1.744   2.832 -0.2168  0.4015  0.7000
  782SOL    HW1 2345   0.737   1.695   2.915  0.2679  1.3063  1.0056
  782SOL    HW2 2346   0.694   1.786   2.782 -1.4728 -4.6929 -2.1550
  783SOL     OW 2347   0.908   2.515   1.107  0.0985  0.4248 -0.3894
  783SOL    HW1 2348   0.994   2.490   1.157 -0.1338  1.1695 -0.3114
  783SOL    HW2 2349   0.909   2.471   1.013  1.7152  2.1924 -0.4773
  784SOL     OW 2350   1.635   0.502   2.590  0.4165  0.0367 -0.3755
  784SOL    HW1 2351   1.714   0.507   2.525  1.8461 -0.0102  0.8973
  784SOL    HW2 2352   1.607   0.405   2.616 -0.7063  0.4096  1.5504
  785SOL     OW 2353   0.349   0.041   1.672  0.0505 -0.4531 -0.0936
  785SOL    HW1 2354   0.375   0.101   1.592 -2.0898 -2.5485 -3.7481
  785SOL    HW2 2355   0.261   0.083   1.705  0.8408  1.5045 -1.7279
  786SOL     OW 2356   0.803   2.095   0.219 -0.1069  0.8053  0.6989
  786SOL    HW1 2357   0.723   2.054   0.263  1.9498  0.1025 -4.8774
  786SOL    HW2 2358   0.811   2.064   0.117 -1.4732 -2.5754 -2.7401
  787SOL     OW 2359   1.438   0.523   0.337 -0.1568 -0.4180  0.3543
  787SOL    HW1 2360   1.445   0.461   0.418 -0.0222  0.7183 -1.1533
  787SOL    HW2 2361   1.346   0.566   0.334  2.8955  2.5619  0.5445
  788SOL     OW 2362   2.883   1.574   1.326 -0.9682  0.0325 -0.1779
  788SOL    HW1 2363   2.849   1.658   1.280  0.1185 -1.2502  0.1828
  788SOL    HW2 2364   2.986   1.566   1.318 -0.0327  3.3039 -0.2886
  789SOL     OW 2365   2.555   1.023   2.253  0.3301  0.2570  0.2844
  789SOL    HW1 2366   2.542   0.938   2.194 -2.9933 -2.1592  1.4094
  789SOL    HW2 2367   2.625   1.091   2.217 -0.7794  1.3992 -1.8936
  790SOL     OW 2368   0.719   0.317   0.248  0.2896 -0.2818 -0.1289
  790SOL    HW1 2369   0.733   0.348   0.344 -0.7495  2.1103  1.0093
  790SOL    HW2 2370   0.759   0.223   0.231  0.0453  1.2014  0.4194
  791SOL     OW 2371   2.779   0.066   2.894  0.5509  0.1420 -0.4290
  791SOL    HW1 2372   2.697   0.107   2.938 -0.6278  1.2960  1.0875
  791SOL    HW2 2373   2.858   0.095   2.948  0.9517  0.8739 -1.2032
  792SOL     OW 2374   1.209   0.593   2.184  0.1014 -0.2747 -0.9139
  792SOL    HW1 2375   1.261   0.599   2.273 -1.7925  1.3484 -3.1606
  792SOL    HW2 2376   1.136   0.525   2.189  2.8518  1.0688 -0.4932
  793SOL     OW 2377   2.856   0.504   0.927 -0.0336 -0.0864 -0.3141
  793SOL    HW1 2378   2.941   0.469   0.879 -0.2364 -0.3602  1.2319
  793SOL    HW2 2379   2.868   0.598   0.966  0.5052  1.4198 -0.3457
  794SOL     OW 2380   0.017   0.608   2.196 -0.2554 -0.1397  0.0075
  794SOL    HW1 2381   0.076   0.663   2.129  2.1758  0.3572 -2.3925
  794SOL    HW2 2382   3.055   0.540   2.150 -0.3866 -2.5376  0.6229
  795SOL     OW 2383   0.528   1.235   0.518  0.1808 -0.0207 -0.0064
  795SOL    HW1 2384   0.562   1.267   0.609  1.0083  0.6043 -1.2089
  795SOL    HW2 2385   0.494   1.139   0.521  0.1216 -0.9217  1.0033
  796SOL     OW 2386   0.086   0.981   3.037 -0.0435  0.0350 -0.3192
  796SOL    HW1 2387   0.159   1.007   0.006 -0.9905  1.1102 -1.1951
  796SOL    HW2 2388   0.111   0.901   2.976  0.5982 -1.9534 -1.4429
  797SOL     OW 2389   1.967   2.848   2.540 -0.2119  0.3479 -0.1168
  797SOL    HW1 2390   2.031   2.924   2.541 -0.2490  2.4779 -0.6181
  797SOL    HW2 2391   1.867   2.869   2.549 -0.5383 -1.2011  0.3107
  798SOL     OW 2392   0.031   3.061   1.542  0.3279 -0.1426 -0.2370
  798SOL    HW1 2393   0.064   3.092   1.453  0.0555  0.6580  0.7587
  798SOL    HW2 2394   0.047   0.036   1.612  0.2909  3.3910  1.6229
  799SOL     OW 2395   2.222   0.562   1.787 -0.1507 -0.3366  0.4179
  799SOL    HW1 2396   2.131   0.581   1.827 -0.6924 -0.0151  1.1140
  799SOL    HW2 2397   2.216   0.538   1.687  0.0610  0.1821  0.4115
  800SOL     OW 2398   0.188   1.811   0.584  0.2823 -0.2761  0.4037
  800SOL    HW1 2399   0.288   1.821   0.599  2.6219 -0.4135  0.2829
  800SOL    HW2 2400   0.168   1.815   0.482  0.9247  1.2557  1.4970
  801SOL     OW 2401   1.553   1.513   0.474  0.2187  0.0151 -0.3632
  801SOL    HW1 2402   1.469   1.499   0.525  0.4425 -1.2743 -0.9361
  801SOL    HW2 2403   1.632   1.465   0.515  2.0000  0.5645 -0.7983
  802SOL     OW 2404   1.313   1.174   2.772 -0.6950 -0.2168  0.1678
  802SOL    HW1 2405   1.283   1.222   2.689 -1.3323  2.2297 -1.6275
  802SOL    HW2 2406   1.406   1.134   2.765 -0.6173 -1.8539 -0.0039
  803SOL     OW 2407   0.321   1.924   2.204  0.1548  0.2855  0.1635
  803SOL    HW1 2408   0.408   1.901   2.158  2.6021 -2.6822 -1.6045
  803SOL    HW2 2409   0.253   1.849   2.181  0.1056  3.2428  2.3698
  804SOL     OW 2410   1.179   2.282   0.952 -0.0105  0.6190 -0.3279
  804SOL    HW1 2411   1.239   2.208   0.989  1.5978  0.0956  1.9858
  804SOL    HW2 2412   1.097   2.256   0.901 -0.3374  1.5704  1.4817
  805SOL     OW 2413   2.490   2.163   2.782  0.3688  0.1365  0.2212
  805SOL    HW1 2414   2.492   2.090   2.859  1.8423 -2.6400  1.3498
  805SOL    HW2 2415   2.573   2.223   2.775  1.1000 -0.7724 -2.7956
  806SOL     OW 2416   0.023   0.465   0.846  0.0913 -0.6671 -0.4126
  806SOL    HW1 2417   0.022   0.517   0.932 -1.6989 -1.3641 -0.8978
  806SOL    HW2 2418   0.117   0.431   0.824  1.6995 -1.4097 -0.2371
  807SOL     OW 2419   2.748   0.852   2.884 -0.0670  0.4127 -0.1851
  807SOL    HW1 2420   2.762   0.794   2.799  0.6676 -3.5815 -1.8490
  807SOL    HW2 2421   2.824   0.925   2.893  1.2757 -0.7556 -0.2018
  808SOL     OW 2422   0.844   1.951   0.608  0.2415  0.3108  0.1245
  808SOL    HW1 2423   0.890   2.034   0.644 -0.7289 -0.1957  0.6300
  808SOL    HW2 2424   0.775   1.979   0.538  0.9105  0.4320  2.6219
  809SOL     OW 2425   2.628   0.092   2.203  0.1840  0.3241 -0.3358
  809SOL    HW1 2426   2.670   0.007   2.164  0.0081  1.4666 -0.4277
  809SOL    HW2 2427   2.559   0.071   2.273  2.3580 -2.7024 -1.4501
  810SOL     OW 2428   1.572   0.895   0.512  0.6627  0.4361 -0.8095
  810SOL    HW1 2429   1.664   0.907   0.472  1.3465 -0.0238  1.9110
  810SOL    HW2 2430   1.531   0.980   0.552  0.3571  1.6000  2.6496
  811SOL     OW 2431   1.673   2.793   2.073 -0.3937 -0.0552 -0.2248
  811SOL    HW1 2432   1.737   2.785   2.151 -0.6586 -0.2617 -0.8584
  811SOL    HW2 2433   1.627   2.699   2.057 -1.9018 -1.7316  1.5671
  812SOL     OW 2434   1.904   2.479   0.597  0.2314 -0.6312 -0.2997
  812SOL    HW1 2435   1.837   2.437   0.663 -0.3802  1.1065 -1.7396
  812SOL    HW2 2436   1.961   2.556   0.637 -1.8301  3.6806 -0.2352
  813SOL     OW 2437   1.023   0.480   1.756 -0.2412  0.1621 -0.1260
  813SOL    HW1 2438   1.088   0.563   1.751  1.9685  5.1236 -1.8111
  813SOL    HW2 2439   1.075   0.391   1.747  0.3790 -0.2739  0.2088
  814SOL     OW 2440   0.202   2.863   1.464  0.1735 -0.1840  0.7763
  814SOL    HW1 2441   0.285   2.897   1.411  2.7971  0.3139  0.1516
  814SOL    HW2 2442   0.146   2.940   1.499  1.0555 -1.5211  2.2492
  815SOL     OW 2443   0.328   0.145   0.908  0.0940 -0.3170 -0.1987
  815SOL    HW1 2444   0.261   0.119   0.834  3.6959  0.7846 -0.9027
  815SOL    HW2 2445   0.304   0.115   1.002  1.8452 -0.2192 -0.3659
  816SOL     OW 2446   2.798   1.601   2.351  0.4931 -0.2173 -0.3092
  816SOL    HW1 2447   2.704   1.629   2.368 -0.3622  1.3783  0.4490
  816SOL    HW2 2448   2.803   1.522   2.286 -0.9373 -1.9331 -1.4214
  817SOL     OW 2449   1.309   0.242   0.703 -0.6039  0.6699  0.2642
  817SOL    HW1 2450   1.233   0.240   0.770  1.1745 -1.5063  1.2629
  817SOL    HW2 2451   1.355   0.152   0.696 -1.5610 -0.6086  1.0129
  818SOL     OW 2452   1.734   0.487   3.058  0.2540  0.3775 -0.1159
  818SOL    HW1 2453   1.812   0.434   0.001 -1.0161 -1.9209  0.4112
  818SOL    HW2 2454   1.698   0.548   0.037 -1.4151  0.1879 -0.9378
  819SOL     OW 2455   2.318   2.917   3.004  0.2040 -0.1673 -0.0515
  819SOL    HW1 2456   2.336   2.820   3.035 -0.1916 -3.7238 -0.0599
  819SOL    HW2 2457   2.310   2.973   3.088  1.0763  0.1948  0.7314
  820SOL     OW 2458   1.581   1.126   2.805 -0.1927 -0.3429  0.2830
  820SOL    HW1 2459   1.615   1.221   2.826  3.1209  1.2124 -1.2601
  820SOL    HW2 2460   1.582   1.063   2.886  0.0816 -0.0120  0.7167
  821SOL     OW 2461   0.356   0.626   1.180 -0.7644  0.0614 -0.6510
  821SOL    HW1 2462   0.358   0.526   1.216  2.1677 -0.0579 -2.7210
  821SOL    HW2 2463   0.350   0.632   1.079 -1.5705 -0.5796 -0.1476
  822SOL     OW 2464   1.125   2.698   2.385 -0.2650  0.1120 -0.0563
  822SOL    HW1 2465   1.211   2.649   2.393 -1.0049 -4.1102 -1.1020
  822SOL    HW2 2466   1.064   2.669   2.456  0.2599  0.4079  1.8206
  823SOL     OW 2467   0.309   1.648   1.747 -0.4034  0.2798 -0.7046
  823SOL    HW1 2468   0.283   1.601   1.834  1.5708  0.6283 -0.0966
  823SOL    HW2 2469   0.402   1.695   1.749  0.4339  1.6619 -2.0179
  824SOL     OW 2470   1.653   2.671   2.410  0.0342 -0.5390 -0.5790
  824SOL    HW1 2471   1.636   2.728   2.496 -2.5836  0.9848 -1.2815
  824SOL    HW2 2472   1.566   2.653   2.363 -0.6207  2.1493  1.0728
  825SOL     OW 2473   1.335   1.059   0.325 -0.0270  0.3946  0.8120
  825SOL    HW1 2474   1.384   0.975   0.290  1.5165  3.2746 -1.0761
  825SOL    HW2 2475   1.361   1.145   0.272 -1.7501  2.4702  0.0291
  826SOL     OW 2476   2.135   0.713   2.831  0.3266 -0.1361 -0.0635
  826SOL    HW1 2477   2.059   0.736   2.765 -0.1165 -0.6693 -3.1357
  826SOL    HW2 2478   2.192   0.792   2.855  0.1366 -1.4984  2.3358
  827SOL     OW 2479   0.497   2.312   2.967  0.2948 -0.2713  0.7366
  827SOL    HW1 2480   0.417   2.318   2.901 -0.9172  1.2086 -0.9763
  827SOL    HW2 2481   0.538   2.226   2.931 -4.4771 -1.9566 -0.5045
  828SOL     OW 2482   2.873   0.856   1.266 -0.0311 -0.1365  0.3982
  828SOL    HW1 2483   2.878   0.756   1.272 -1.0666  0.8272  0.6471
  828SOL    HW2 2484   2.833   0.884   1.352  2.1272 -2.8065 -2.1167
  829SOL     OW 2485   0.612   1.519   1.025  0.2918 -0.7663  0.4815
  829SOL    HW1 2486   0.628   1.622   1.021 -0.1083  2.6294  0.9892
  829SOL    HW2 2487   0.701   1.475   1.044 -0.9569 -0.2191  2.5463
  830SOL     OW 2488   0.970   1.166   1.460 -0.0882 -0.2277 -0.1020
  830SOL    HW1 2489   0.889   1.225   1.452  0.2328  0.0153 -0.4529
  830SOL    HW2 2490   0.936   1.070   1.472  2.4491 -1.9899  1.5382
  831SOL     OW 2491   0.230   2.053   3.074  0.3675 -0.3848  0.4340
  831SOL    HW1 2492   0.154   2.119   3.063  1.2801  1.7684 -0.0361
  831SOL    HW2 2493   0.310   2.099   0.020  1.2415  1.7974 -0.0026
  832SOL     OW 2494   0.779   0.178   2.868  0.1414  0.0281  0.1669
  832SOL    HW1 2495   0.781   0.276   2.880  0.4472 -2.4356 -0.9987
  832SOL    HW2 2496   0.865   0.144   2.822 -0.2647 -0.1039 -0.4680
  833SOL     OW 2497   0.370   0.500   1.889 -0.5231 -0.2551 -0.1843
  833SOL    HW1 2498   0.410   0.539   1.972 -1.2233  1.5767  0.3797
  833SOL    HW2 2499   0.283   0.451   1.901 -1.1495  0.8576 -0.5481
  834SOL     OW 2500   0.136   0.279   1.087 -0.0632  0.8787 -0.1115
  834SOL    HW1 2501   0.075   0.353   1.052  0.3700 -1.1431  0.3073
  834SOL    HW2 2502   0.211   0.323   1.139 -0.7265 -2.0217 -1.1913
  835SOL     OW 2503   2.895   2.994   1.114  0.1476 -0.5025  0.4640
  835SOL    HW1 2504   2.973   3.045   1.072  3.5738  0.2848  0.8146
  835SOL    HW2 2505   2.929   2.948   1.198 -0.0703 -1.0352  2.6071
  836SOL     OW 2506   0.227   2.332   2.867 -0.4558  0.5122  0.1756
  836SOL    HW1 2507   0.170   2.263   2.821  0.8985  0.2380 -2.8555
  836SOL    HW2 2508   0.197   2.335   2.970 -0.3443 -1.4691  2.6429
  837SOL     OW 2509   1.623   1.839   2.833 -0.2716 -0.1311  0.5268
  837SOL    HW1 2510   1.559   1.773   2.793  0.4165 -1.2814  1.2788
  837SOL    HW2 2511   1.654   1.909   2.763  0.6221  0.4304 -2.1401
  838SOL     OW 2512   0.100   0.925   1.249  0.0246 -0.2533  0.1263
  838SOL    HW1 2513   0.109   0.829   1.294 -0.9241 -1.6125 -0.3563
  838SOL    HW2 2514   0.008   0.943   1.198 -2.2931 -2.6722 -0.6859
  839SOL     OW 2515   1.208   0.937   0.798 -0.1997  0.0104 -0.4803
  839SOL    HW1 2516   1.120   0.950   0.855  1.8773 -0.0727  1.0597
  839SOL    HW2 2517   1.203   0.976   0.705 -0.7022  1.3352 -1.2144
  840SOL     OW 2518   1.648   0.132   1.416  0.2340  0.0362 -0.8096
  840SOL    HW1 2519   1.592   0.204   1.460  0.3220 -0.2598 -0.3604
  840SOL    HW2 2520   1.616   0.037   1.441  0.7771  1.0362 -1.9695
  841SOL     OW 2521   0.595   2.706   0.415 -0.0645  0.1189 -0.3113
  841SOL    HW1 2522   0.516   2.748   0.366  2.2315 -1.7730 -2.2688
  841SOL    HW2 2523   0.591   2.729   0.518  0.0975 -0.1098  2.0010
  842SOL     OW 2524   0.604   0.622   0.469  0.4256  0.5184 -0.4520
  842SOL    HW1 2525   0.645   0.530   0.491  0.6926  0.6808  1.1063
  842SOL    HW2 2526   0.571   0.631   0.376 -0.1911  1.1829  1.6910
  843SOL     OW 2527   0.972   1.510   1.901 -0.3526  0.5703 -0.0470
  843SOL    HW1 2528   0.923   1.496   1.991  0.6741  2.5563  3.1757
  843SOL    HW2 2529   0.940   1.451   1.822  2.7133 -0.8221  0.5313
  844SOL     OW 2530   1.101   2.069   0.189  0.2054  0.4605  0.1192
  844SOL    HW1 2531   1.186   2.080   0.131  0.4957 -1.4714  1.2570
  844SOL    HW2 2532   1.066   2.153   0.237 -1.2808  0.4290 -1.1102
  845SOL     OW 2533   2.271   2.414   2.290 -1.1021 -0.1350 -0.1066
  845SOL    HW1 2534   2.273   2.499   2.227  0.2757  1.2676 -4.3313
  845SOL    HW2 2535   2.362   2.379   2.320  0.2342  1.1821  1.6370
  846SOL     OW 2536   1.908   2.149   3.028 -0.3616  0.9582  0.4819
  846SOL    HW1 2537   1.970   2.229   3.015 -0.7532  1.2718 -1.4466
  846SOL    HW2 2538   1.815   2.179   3.063 -0.3122 -1.4025  0.8741
  847SOL     OW 2539   2.122   2.978   2.719  0.2160  0.3301 -0.4459
  847SOL    HW1 2540   2.226   2.989   2.725  0.5522  0.3648  1.7152
  847SOL    HW2 2541   2.086   2.925   2.801  0.7852 -1.8957  1.4398
  848SOL     OW 2542   0.989   0.697   0.629 -0.0400  0.3595  0.3481
  848SOL    HW1 2543   1.030   0.634   0.692 -0.2998 -1.4273 -0.8373
  848SOL    HW2 2544   0.987   0.791   0.669 -0.8197 -0.0502 -0.2303
  849SOL     OW 2545   0.742   3.031   1.246  0.4286 -0.5831 -0.4933
  849SOL    HW1 2546   0.685   2.957   1.201  1.1046 -1.5686  0.4944
  849SOL    HW2 2547   0.688   0.020   1.255  1.3294  1.5414  1.2707
  850SOL     OW 2548   0.361   1.647   3.069  0.3424  0.0933  0.0204
  850SOL    HW1 2549   0.271   1.696   3.056  1.4233 -0.8631 -1.6453
  850SOL    HW2 2550   0.376   1.575   2.998  0.0300 -1.7630  0.4297
  851SOL     OW 2551   0.024   1.043   0.658  0.3005 -0.2897  0.0278
  851SOL    HW1 2552   3.026   1.084   0.655 -1.6998 -2.2518  2.7215
  851SOL    HW2 2553   0.025   0.956   0.708 -0.0790 -0.6620 -3.9614
  852SOL     OW 2554   1.896   1.997   1.819  0.2646 -0.0501  0.7889
  852SOL    HW1 2555   1.892   2.023   1.719  0.8993 -0.9010  1.0794
  852SOL    HW2 2556   1.849   1.907   1.847 -1.5173 -2.2093  0.1769
  853SOL     OW 2557   0.128   1.806   3.095 -0.0192  0.0087 -0.5908
  853SOL    HW1 2558   0.052   1.817   0.062  1.2414 -1.6636 -0.0315
  853SOL    HW2 2559   0.179   1.896   3.092  0.2080 -1.3372 -2.1453
  854SOL     OW 2560   1.675   1.324   1.536 -0.0995  0.2698  0.5052
  854SOL    HW1 2561   1.734   1.328   1.452  1.2833 -0.5166  0.3792
  854SOL    HW2 2562   1.685   1.237   1.592  0.3780 -4.1437  0.7902
  855SOL     OW 2563   0.692   2.509   3.040 -0.7429 -1.0749  0.0721
  855SOL    HW1 2564   0.769   2.458   3.083  0.7241  0.6308 -1.9968
  855SOL    HW2 2565   0.625   2.440   3.006  0.3039 -0.1967  0.0785
  856SOL     OW 2566   3.043   0.146   2.211 -0.0688 -0.4552  0.4433
  856SOL    HW1 2567   0.044   0.172   2.216  1.3314  2.3835 -0.0776
  856SOL    HW2 2568   2.998   0.193   2.289 -0.1726  0.4560 -0.3542
  857SOL     OW 2569   0.546   0.844   1.671 -0.4155  0.1775 -0.1812
  857SOL    HW1 2570   0.632   0.855   1.720 -3.6605  0.1289  0.2399
  857SOL    HW2 2571   0.541   0.910   1.594  0.2100 -1.6217  3.5976
  858SOL     OW 2572   0.373   1.230   2.376  0.0906 -0.1235 -0.3892
  858SOL    HW1 2573   0.293   1.294   2.398 -0.0876  0.3441 -1.3709
  858SOL    HW2 2574   0.419   1.200   2.464 -0.4522  0.0595 -0.7604
  859SOL     OW 2575   2.407   0.188   0.444  0.1076 -0.0762 -0.3919
  859SOL    HW1 2576   2.436   0.104   0.392  0.0224 -1.2887 -1.3847
  859SOL    HW2 2577   2.306   0.186   0.452  0.8830 -0.4527  0.6731
  860SOL     OW 2578   1.773   2.971   2.967  0.1745  0.4730 -0.1174
  860SOL    HW1 2579   1.731   2.985   2.877 -0.2045  0.8074 -0.9243
  860SOL    HW2 2580   1.873   2.944   2.953  3.0361  1.1382  3.5562
  861SOL     OW 2581   0.271   0.612   0.333  0.2866 -0.3970  0.3035
  861SOL    HW1 2582   0.192   0.631   0.267  0.6922 -2.6487 -0.8716
  861SOL    HW2 2583   0.244   0.620   0.430  1.2473 -2.1052  0.5157
  862SOL     OW 2584   1.674   0.266   2.167 -0.5818 -0.3740  0.0048
  862SOL    HW1 2585   1.774   0.261   2.153 -1.2603 -0.5977  0.3857
  862SOL    HW2 2586   1.645   0.184   2.218 -1.7558 -1.2721 -0.3188
  863SOL     OW 2587   2.885   2.159   1.070  0.2302  0.8052 -0.1312
  863SOL    HW1 2588   2.905   2.084   1.003 -1.3697  0.0254  0.6752
  863SOL    HW2 2589   2.805   2.218   1.037 -1.5879  3.3401 -1.9852
  864SOL     OW 2590   2.319   2.833   1.904 -0.2971  0.4173 -0.1846
  864SOL    HW1 2591   2.245   2.876   1.842  0.1347  1.7960 -1.1020
  864SOL    HW2 2592   2.290   2.757   1.962  1.7562  0.4038  3.1025
  865SOL     OW 2593   1.328   0.602   1.614  0.1482  0.1111  0.4037
  865SOL    HW1 2594   1.341   0.532   1.684  3.2028 -2.7492  1.3531
  865SOL    HW2 2595   1.263   0.574   1.539  0.9086 -1.2421 -1.7855
  866SOL     OW 2596   2.473   2.993   0.816  0.0496 -0.5030  0.0890
  866SOL    HW1 2597   2.506   3.076   0.762 -0.4484  3.2956 -1.1591
  866SOL    HW2 2598   2.538   2.976   0.895 -1.6767  0.4349  2.5264
  867SOL     OW 2599   2.941   2.937   0.672  0.2570 -0.1020 -0.1571
  867SOL    HW1 2600   2.947   2.916   0.574  1.3712 -0.8594  0.4698
  867SOL    HW2 2601   2.887   2.860   0.716  0.3436  0.4233 -2.2910
  868SOL     OW 2602   1.154   2.262   2.333  0.4620 -0.2836 -0.3625
  868SOL    HW1 2603   1.103   2.203   2.399  0.8122 -0.3635  0.9573
  868SOL    HW2 2604   1.098   2.320   2.273  0.2715 -0.5672  1.4178
  869SOL     OW 2605   1.696   2.222   0.092  0.2509 -0.1884 -0.2473
  869SOL    HW1 2606   1.603   2.249   0.127 -1.1182  0.0972 -1.7371
  869SOL    HW2 2607   1.753   2.174   0.165  1.2768 -0.5132  0.3471
  870SOL     OW 2608   2.697   2.501   0.588  0.2041 -0.2435  0.0738
  870SOL    HW1 2609   2.750   2.471   0.669 -1.8135 -1.7387  1.4831
  870SOL    HW2 2610   2.659   2.428   0.531 -3.6311  0.6054  1.2522
  871SOL     OW 2611   0.412   1.238   1.601 -0.2900 -0.2669  0.1297
  871SOL    HW1 2612   0.413   1.286   1.506  0.9550  3.3342 -1.9450
  871SOL    HW2 2613   0.319   1.249   1.641  0.6776  3.4304 -0.6476
  872SOL     OW 2614   0.748   1.461   2.527  0.2060 -0.5769 -0.3112
  872SOL    HW1 2615   0.809   1.543   2.508  0.5373 -0.9571 -0.1621
  872SOL    HW2 2616   0.691   1.438   2.445  2.6858  0.3915 -2.2541
  873SOL     OW 2617   0.449   2.894   1.692 -0.5788  0.0390  0.3384
  873SOL    HW1 2618   0.527   2.879   1.625  0.8018 -2.0181  0.8680
  873SOL    HW2 2619   0.409   2.985   1.682  2.0462 -1.0389 -0.2590
  874SOL     OW 2620   1.102   0.840   2.181 -0.3009  0.0201 -0.2450
  874SOL    HW1 2621   1.182   0.896   2.173  0.8989 -5.7836 -0.7751
  874SOL    HW2 2622   1.138   0.742   2.189  0.5999 -0.7188  0.5735
  875SOL     OW 2623   2.480   2.775   1.139 -0.0024  0.0425  0.5960
  875SOL    HW1 2624   2.479   2.794   1.241  1.0736  4.2980 -0.3223
  875SOL    HW2 2625   2.399   2.722   1.115  0.8054  0.2308 -1.0445
  876SOL     OW 2626   1.117   1.247   0.940 -0.5825 -0.0867 -0.3538
  876SOL    HW1 2627   1.137   1.250   1.041  1.2399 -1.0770 -1.7165
  876SOL    HW2 2628   1.095   1.154   0.912 -1.2602  1.4701  0.6856
  877SOL     OW 2629   2.759   0.112   1.287  0.9360  0.6755  0.8865
  877SOL    HW1 2630   2.768   0.207   1.247 -0.2900  1.2156 -1.2860
  877SOL    HW2 2631   2.747   0.033   1.223  0.8586 -0.2267  3.1153
  878SOL     OW 2632   2.457   1.581   0.006 -0.3140  0.2824 -0.7111
  878SOL    HW1 2633   2.516   1.663   0.026 -0.3404  0.4909  2.7472
  878SOL    HW2 2634   2.406   1.601   3.019  0.3589 -0.2039 -0.6055
  879SOL     OW 2635   2.876   2.019   1.304  0.6323  0.3008 -0.2435
  879SOL    HW1 2636   2.797   2.056   1.355  0.5636 -1.5379 -1.3815
  879SOL    HW2 2637   2.883   2.069   1.217 -2.4428 -0.4722 -0.6216
  880SOL     OW 2638   0.736   2.285   1.147 -0.1111  0.0034  0.5096
  880SOL    HW1 2639   0.700   2.274   1.051  0.2069 -1.5601 -1.8647
  880SOL    HW2 2640   0.765   2.381   1.162  2.1443  0.6057 -4.2392
  881SOL     OW 2641   1.348   1.375   0.906 -0.2814  0.0555  0.0900
  881SOL    HW1 2642   1.272   1.320   0.933  2.1255  3.1838 -2.0015
  881SOL    HW2 2643   1.354   1.448   0.978 -0.7340  0.7688  1.1103
  882SOL     OW 2644   2.596   1.043   2.522 -0.0909  0.1393  0.4208
  882SOL    HW1 2645   2.558   1.026   2.426 -0.8119 -2.6483 -0.2729
  882SOL    HW2 2646   2.666   0.966   2.531  1.3107 -1.6413  1.6787
  883SOL     OW 2647   1.409   0.288   1.276 -0.2413  0.2416 -0.2162
  883SOL    HW1 2648   1.420   0.186   1.262  0.2482  1.0199  2.1367
  883SOL    HW2 2649   1.419   0.339   1.190  0.9694 -3.3918  2.0604
  884SOL     OW 2650   0.151   2.839   1.036  0.1658 -0.0353  0.1005
  884SOL    HW1 2651   0.216   2.908   1.080 -2.6913 -0.8470  1.1054
  884SOL    HW2 2652   0.116   2.784   1.110  2.1338 -2.0997 -1.3035
  885SOL     OW 2653   1.258   1.436   1.382 -0.3605 -0.1549  0.4160
  885SOL    HW1 2654   1.267   1.350   1.431  1.2124  2.3259  0.7077
  885SOL    HW2 2655   1.342   1.495   1.407 -1.0383 -0.1426 -2.1081
  886SOL     OW 2656   1.106   1.044   2.915 -0.3967 -0.0882 -1.3426
  886SOL    HW1 2657   1.120   1.002   3.004  2.1930  1.7969 -0.4618
  886SOL    HW2 2658   1.191   1.065   2.861 -0.2295  2.4324  0.9111
  887SOL     OW 2659   1.391   0.707   0.610 -0.0310  0.0826  0.0450
  887SOL    HW1 2660   1.316   0.699   0.543 -1.0963  1.2451  0.5137
  887SOL    HW2 2661   1.459   0.780   0.583 -0.1516  1.0885 -0.8632
  888SOL     OW 2662   2.009   1.168   1.733  0.7887 -0.0183 -0.0769
  888SOL    HW1 2663   2.072   1.246   1.707  1.7294  1.7402 -0.0397
  888SOL    HW2 2664   2.056   1.078   1.744 -1.7414  1.4868 -1.2109
  889SOL     OW 2665   2.652   2.308   0.968 -0.0561  0.4834  0.4744
  889SOL    HW1 2666   2.601   2.220   0.944  1.5238 -1.1038 -0.3696
  889SOL    HW2 2667   2.594   2.363   1.033 -0.6478  2.5307  0.4938
  890SOL     OW 2668   1.488   1.943   0.732 -0.5994 -0.5279  0.2735
  890SOL    HW1 2669   1.585   1.945   0.762 -0.4991  2.2898 -0.9204
  890SOL    HW2 2670   1.436   1.867   0.770  3.2116  3.0861 -1.0575
  891SOL     OW 2671   2.523   0.436   2.431 -0.0970  0.0158 -0.0045
  891SOL    HW1 2672   2.601   0.392   2.384 -0.9798  0.4427 -0.4189
  891SOL    HW2 2673   2.428   0.407   2.392 -0.8830 -0.9718 -2.3057
  892SOL     OW 2674   0.572   0.283   1.802  0.6538 -0.1572 -0.0003
  892SOL    HW1 2675   0.622   0.368   1.801  2.0923 -2.0749 -0.2863
  892SOL    HW2 2676   0.470   0.302   1.815 -0.2386 -1.3222  2.3482
  893SOL     OW 2677   1.267   0.314   2.038 -0.6002  0.4405 -0.0956
  893SOL    HW1 2678   1.315   0.224   2.050  1.4099  2.1031  1.5436
  893SOL    HW2 2679   1.329   0.395   2.044  0.6302  1.4449 -2.1624
  894SOL     OW 2680   2.725   0.634   0.720 -0.0043 -0.4287 -0.5795
  894SOL    HW1 2681   2.773   0.575   0.790  1.6929 -0.9162  1.5771
  894SOL    HW2 2682   2.658   0.693   0.771 -2.2052 -0.4639 -1.2243
  895SOL     OW 2683   1.898   2.244   2.369 -0.0732  0.1593  0.1204
  895SOL    HW1 2684   1.977   2.286   2.417 -1.5363  0.0863 -0.5986
  895SOL    HW2 2685   1.891   2.141   2.387 -0.9526 -2.0129 -0.5385
  896SOL     OW 2686   1.914   0.156   1.435  0.3918 -0.0525 -0.7629
  896SOL    HW1 2687   1.928   0.214   1.517  1.2565  0.2552  0.0656
  896SOL    HW2 2688   1.813   0.142   1.414 -0.8097 -0.5799 -1.3840
  897SOL     OW 2689   0.539   1.783   1.730 -0.2241  0.0335 -0.3346
  897SOL    HW1 2690   0.514   1.860   1.662  0.4474 -0.0744 -3.0907
  897SOL    HW2 2691   0.609   1.713   1.690  1.6713  0.9527 -1.7029
  898SOL     OW 2692   2.015   1.451   2.044 -0.2600  0.1740 -0.2592
  898SOL    HW1 2693   2.117   1.458   2.041  1.7053 -2.4647 -0.6339
  898SOL    HW2 2694   1.990   1.350   2.029  2.6990  1.2815  0.7965
  899SOL     OW 2695   1.705   2.081   0.966  0.2668  0.3758  0.3191
  899SOL    HW1 2696   1.784   2.106   1.021 -0.2871  0.6862 -0.1629
  899SOL    HW2 2697   1.633   2.148   0.964  0.8856  1.0873 -0.0832
  900SOL     OW 2698   0.979   2.911   2.702  0.6736  0.1450  0.8977
  900SOL    HW1 2699   0.978   2.913   2.803 -0.5744 -0.4281  0.9679
  900SOL    HW2 2700   0.956   2.817   2.664 -2.9037 -0.8497 -3.2722
  901SOL     OW 2701   1.014   1.491   2.327 -0.2589 -0.1928 -0.0670
  901SOL    HW1 2702   0.978   1.568   2.388 -2.0226  0.1520  2.5660
  901SOL    HW2 2703   1.112   1.488   2.322  0.0691 -0.1686  0.6435
  902SOL     OW 2704   2.111   0.501   3.012  0.1874 -0.0772 -0.3436
  902SOL    HW1 2705   2.090   0.576   2.950 -3.3076 -4.1056  0.2015
  902SOL    HW2 2706   2.209   0.498   3.040 -1.6672  0.8827 -1.3239
  903SOL     OW 2707   2.296   0.870   2.141 -0.0615 -0.2191  0.3833
  903SOL    HW1 2708   2.387   0.837   2.105  1.3717  2.5240 -0.7002
  903SOL    HW2 2709   2.284   0.971   2.147 -0.8517 -1.0050  1.2512
  904SOL     OW 2710   1.782   1.053   1.630 -0.3494 -0.2224 -0.2530
  904SOL    HW1 2711   1.789   1.036   1.534  0.3501  0.4547  2.7434
  904SOL    HW2 2712   1.865   1.099   1.667  0.5671 -1.9309 -0.1942
  905SOL     OW 2713   2.320   0.615   0.769  0.7432  0.0322 -0.1256
  905SOL    HW1 2714   2.408   0.574   0.735  0.9671 -1.8515 -0.5647
  905SOL    HW2 2715   2.307   0.630   0.872  0.3016  1.1496 -1.8298
  906SOL     OW 2716   2.379   1.589   0.598 -0.6076  0.2628 -0.1369
  906SOL    HW1 2717   2.469   1.561   0.551  1.6948 -1.4482  1.5325
  906SOL    HW2 2718   2.401   1.621   0.693 -1.9296  0.4982  1.4412
  907SOL     OW 2719   1.244   2.909   0.737  0.3670 -0.7390  0.8004
  907SOL    HW1 2720   1.293   2.825   0.760 -1.0691 -1.3138 -1.0280
  907SOL    HW2 2721   1.303   2.994   0.735 -1.7159  1.0091 -1.2869
  908SOL     OW 2722   1.733   2.429   2.486 -0.4998 -0.1207  0.3461
  908SOL    HW1 2723   1.801   2.378   2.431  2.5062  0.9845 -0.9337
  908SOL    HW2 2724   1.707   2.514   2.442 -0.6555  1.6884  1.1378
  909SOL     OW 2725   2.313   0.390   1.999 -0.4118 -0.1591  0.1039
  909SOL    HW1 2726   2.288   0.454   2.074 -2.2490  3.0497  3.1709
  909SOL    HW2 2727   2.294   0.436   1.911 -1.6683  0.0984  0.1957
  910SOL     OW 2728   1.127   0.332   2.373  0.7144 -0.3466  0.0310
  910SOL    HW1 2729   1.201   0.269   2.383 -3.9529  1.9033  2.9078
  910SOL    HW2 2730   1.040   0.282   2.359  0.3757 -2.2821  0.4043
  911SOL     OW 2731   2.946   1.080   2.904  0.3019  0.1245  0.0967
  911SOL    HW1 2732   3.030   1.045   2.944 -0.0007 -0.1545 -0.4803
  911SOL    HW2 2733   2.941   1.181   2.924 -1.0510  1.3394 -0.3091
  912SOL     OW 2734   0.032   2.280   1.085 -0.3048  0.2289  0.1397
  912SOL    HW1 2735   3.040   2.233   1.078  0.6335  1.7272  1.2797
  912SOL    HW2 2736   0.045   2.323   1.178  0.0695 -0.1859  0.0401
  913SOL     OW 2737   2.557   1.672   2.432 -0.2441 -0.2241  0.9981
  913SOL    HW1 2738   2.468   1.713   2.452  3.0021 -1.2128  0.1236
  913SOL    HW2 2739   2.627   1.726   2.484 -0.1214 -0.0657 -2.5567
  914SOL     OW 2740   1.829   1.840   0.745 -0.6831  0.4947  0.1388
  914SOL    HW1 2741   1.816   1.810   0.644  1.2961  0.8439 -1.7710
  914SOL    HW2 2742   1.779   1.785   0.813  0.1035 -2.7538 -0.7713
  915SOL     OW 2743   0.149   2.566   2.147  0.2173 -0.2438 -0.5925
  915SOL    HW1 2744   0.211   2.609   2.217  1.8885  2.3573  0.2591
  915SOL    HW2 2745   0.207   2.526   2.070  0.3850 -1.8550 -1.1548
  916SOL     OW 2746   0.881   0.082   1.020 -0.0176  0.0346 -0.3692
  916SOL    HW1 2747   0.928   0.008   0.971  1.5381  0.0551  2.9641
  916SOL    HW2 2748   0.883   0.073   1.121 -1.5457 -0.3251 -0.1846
  917SOL     OW 2749   2.404   0.661   2.769 -0.2465 -0.4735 -0.1082
  917SOL    HW1 2750   2.309   0.675   2.798  2.0174 -0.6660  1.0804
  917SOL    HW2 2751   2.423   0.696   2.675  3.8316 -0.6792 -0.7566
  918SOL     OW 2752   1.639   2.666   2.845 -0.4238 -0.3800  0.0999
  918SOL    HW1 2753   1.662   2.703   2.940  2.7749 -0.0851  2.1997
  918SOL    HW2 2754   1.698   2.588   2.822 -1.1086  0.0673  3.6356
  919SOL     OW 2755   1.533   2.286   0.985  0.2482  0.4586  0.0018
  919SOL    HW1 2756   1.491   2.359   0.925 -0.6089 -0.7709 -2.0781
  919SOL    HW2 2757   1.468   2.208   1.003 -2.2800  1.1800 -0.1176
  920SOL     OW 2758   1.391   0.018   2.683 -0.3957  0.3676 -0.0771
  920SOL    HW1 2759   1.342   0.040   2.776 -0.5681 -0.3738  1.5087
  920SOL    HW2 2760   1.367   3.019   2.648 -1.3832 -2.1976  1.3891
  921SOL     OW 2761   0.130   0.883   2.607 -0.2358 -0.2732 -0.1807
  921SOL    HW1 2762   0.184   0.856   2.520  1.9608 -1.6167 -0.8227
  921SOL    HW2 2763   0.032   0.914   2.598 -2.9857  0.4459 -2.4697
  922SOL     OW 2764   3.068   1.939   1.481  0.5571  0.4810 -0.1571
  922SOL    HW1 2765   3.015   1.975   1.404 -1.0370  0.0884  2.1852
  922SOL    HW2 2766   3.047   1.838   1.502  1.2875 -0.3740  2.1911
  923SOL     OW 2767   0.375   1.576   2.416 -0.6147 -0.5264  0.1803
  923SOL    HW1 2768   0.412   1.590   2.322  0.3125 -1.3436 -2.0214
  923SOL    HW2 2769   0.315   1.489   2.422  1.4803  1.5045  1.1247
  924SOL     OW 2770   1.581   0.035   2.330 -0.1837  0.1348  0.2477
  924SOL    HW1 2771   1.483   0.002   2.330 -1.6310 -1.7625 -1.8067
  924SOL    HW2 2772   1.644   3.052   2.329  0.0369 -2.0986 -1.5982
  925SOL     OW 2773   3.088   1.549   0.842 -0.7811  0.5215 -0.6157
  925SOL    HW1 2774   0.004   1.650   0.830  1.3087 -1.2276  0.7720
  925SOL    HW2 2775   0.063   1.522   0.907  1.6148 -0.1005  1.3003
  926SOL     OW 2776   2.489   0.792   1.090  0.2289  0.2770  0.0589
  926SOL    HW1 2777   2.508   0.693   1.097 -0.8630  2.9680  1.5317
  926SOL    HW2 2778   2.520   0.842   1.174 -1.1668 -0.4766  0.6295
  927SOL     OW 2779   1.764   0.433   1.169  0.1849  0.1393 -0.1557
  927SOL    HW1 2780   1.764   0.535   1.166  0.2213 -2.5797  1.0407
  927SOL    HW2 2781   1.705   0.399   1.244 -0.6739  0.9274 -1.1679
  928SOL     OW 2782   2.918   0.764   2.205  0.3661  0.2511  0.0264
  928SOL    HW1 2783   3.004   0.710   2.222  0.6479  1.8248 -0.9434
  928SOL    HW2 2784   2.831   0.714   2.210 -0.3000 -1.7350  2.0804
  929SOL     OW 2785   2.299   0.975   1.274  0.0452  0.2233  0.3238
  929SOL    HW1 2786   2.395   0.945   1.280 -0.0241 -3.6263  1.0124
  929SOL    HW2 2787   2.273   1.007   1.178  1.5621  0.8473 -0.0695
  930SOL     OW 2788   1.534   2.259   1.257  0.2449 -0.3917  0.4854
  930SOL    HW1 2789   1.610   2.193   1.270 -0.3433  0.7007 -1.5590
  930SOL    HW2 2790   1.529   2.299   1.164 -1.9666  0.4373  1.9434
  931SOL     OW 2791   1.858   1.297   1.336  0.0222  0.0866  0.3466
  931SOL    HW1 2792   1.940   1.330   1.285 -0.0579  0.9953  1.6372
  931SOL    HW2 2793   1.871   1.201   1.361  0.7772  1.4903 -1.5871
  932SOL     OW 2794   3.062   0.843   1.620 -0.0802  0.3993 -0.5524
  932SOL    HW1 2795   3.071   0.779   1.540  0.0460 -2.2070 -1.1431
  932SOL    HW2 2796   0.054   0.848   1.666  0.0668  2.5094 -1.3366
  933SOL     OW 2797   2.398   2.023   1.506  0.0112  0.1555  0.6418
  933SOL    HW1 2798   2.311   2.047   1.457 -0.7955 -1.9246  1.4515
  933SOL    HW2 2799   2.384   1.995   1.602  2.8011 -1.6346 -0.8555
  934SOL     OW 2800   1.202   2.539   1.800 -0.3525  0.1239  0.6662
  934SOL    HW1 2801   1.155   2.564   1.710 -1.2055  0.4045 -0.9716
  934SOL    HW2 2802   1.186   2.617   1.865 -0.9910 -1.4807  0.2715
  935SOL     OW 2803   0.013   1.246   1.505  0.8456 -0.1354 -0.3058
  935SOL    HW1 2804   0.066   1.234   1.594 -0.7171  0.5280  1.7786
  935SOL    HW2 2805   0.056   1.202   1.425  0.8601  2.2500  1.1657
  936SOL     OW 2806   2.815   0.558   1.286  0.1561 -0.3657 -0.2778
  936SOL    HW1 2807   2.775   0.486   1.230 -0.6504  4.3706  2.6710
  936SOL    HW2 2808   2.753   0.579   1.361  0.6678 -1.2838 -1.4650
  937SOL     OW 2809   1.178   0.446   1.449 -0.0637 -0.1875 -0.6276
  937SOL    HW1 2810   1.113   0.372   1.478  0.4327 -0.7638 -0.6604
  937SOL    HW2 2811   1.255   0.395   1.414  0.0481 -0.4375  1.4641
  938SOL     OW 2812   0.490   2.916   0.889  0.1139 -0.4646 -0.1333
  938SOL    HW1 2813   0.430   2.861   0.830  1.5546 -0.1559  0.3042
  938SOL    HW2 2814   0.571   2.950   0.834 -1.8941  0.6797  0.5916
  939SOL     OW 2815   2.984   2.055   2.807  0.2072 -0.3199 -0.2922
  939SOL    HW1 2816   2.991   2.004   2.721  0.4003 -2.4232  2.6961
  939SOL    HW2 2817   3.004   2.154   2.799  3.3123 -0.4645  0.2265
  940SOL     OW 2818   1.540   1.965   3.066 -0.1401 -0.0686  0.5216
  940SOL    HW1 2819   1.619   2.013   0.008 -1.2234  1.1829  0.3148
  940SOL    HW2 2820   1.564   1.912   2.984  1.5600  0.2898  1.4505
  941SOL     OW 2821   1.744   2.879   0.590  0.0421  0.4848  0.0717
  941SOL    HW1 2822   1.793   2.965   0.571  0.0428 -0.2132 -0.1367
  941SOL    HW2 2823   1.707   2.836   0.504  0.6430 -1.7285 -0.9324
  942SOL     OW 2824   2.055   1.747   0.885  0.0139 -0.7281 -0.1251
  942SOL    HW1 2825   2.136   1.800   0.859 -1.6850  0.6136 -0.2505
  942SOL    HW2 2826   1.977   1.795   0.848 -0.0710  2.2060  2.2342
  943SOL     OW 2827   1.858   0.508   1.465  0.2789  0.5124  0.0492
  943SOL    HW1 2828   1.763   0.508   1.434  0.6904  0.8656  1.9311
  943SOL    HW2 2829   1.908   0.585   1.427  0.2851 -1.9119  0.7893
  944SOL     OW 2830   1.433   0.807   1.888 -0.1566 -0.3050  0.6111
  944SOL    HW1 2831   1.364   0.880   1.861 -0.0916  1.9639 -0.0134
  944SOL    HW2 2832   1.502   0.806   1.807  3.1349 -1.0869 -1.2577
  945SOL     OW 2833   2.181   2.783   1.351 -0.0880  0.0378 -0.2824
  945SOL    HW1 2834   2.281   2.804   1.348 -1.2935 -0.1839 -1.0374
  945SOL    HW2 2835   2.131   2.869   1.366  0.6594 -2.8136 -1.5814
  946SOL     OW 2836   0.709   1.656   0.621  0.2611  0.2278  0.2003
  946SOL    HW1 2837   0.752   1.716   0.702  1.6145  3.9628  2.8043
  946SOL    HW2 2838   0.772   1.613   0.559 -1.6744  0.4269 -1.7337
  947SOL     OW 2839   0.892   2.769   0.916  0.4372 -0.0636 -0.2813
  947SOL    HW1 2840   0.946   2.693   0.960 -2.8209 -2.8057  2.4912
  947SOL    HW2 2841   0.806   2.782   0.971  0.5163  0.7211 -1.1478
  948SOL     OW 2842   0.391   1.629   1.291 -0.3626  0.4738 -0.2341
  948SOL    HW1 2843   0.348   1.629   1.197 -0.0159  0.3492 -1.1298
  948SOL    HW2 2844   0.485   1.678   1.286  2.3133  3.3029 -1.3626
  949SOL     OW 2845   0.880   1.348   1.694  0.3524  0.4843  0.1169
  949SOL    HW1 2846   0.818   1.299   1.762 -2.6279 -0.4052 -0.0271
  949SOL    HW2 2847   0.946   1.282   1.657  0.3262  0.5741  0.5469
  950SOL     OW 2848   0.710   0.684   1.251  0.2412 -0.5226  0.0623
  950SOL    HW1 2849   0.792   0.737   1.239  0.1573  0.5639 -0.9687
  950SOL    HW2 2850   0.627   0.737   1.218 -0.1467 -1.2608 -0.6825
  951SOL     OW 2851   0.664   2.063   2.054 -0.3217  0.3772  0.7028
  951SOL    HW1 2852   0.631   2.083   1.958  0.0613  1.1166 -0.8400
  951SOL    HW2 2853   0.768   2.064   2.069  3.7392 -1.0502  1.2095
  952SOL     OW 2854   0.930   1.741   0.015 -0.1904 -0.2381  0.0798
  952SOL    HW1 2855   0.840   1.700   3.092  1.8361  1.4637  1.2671
  952SOL    HW2 2856   0.951   1.755   0.117 -0.4258  3.0199  1.4285
  953SOL     OW 2857   0.966   2.825   2.982 -0.0114  0.2004  0.0671
  953SOL    HW1 2858   0.871   2.804   2.947  1.0423 -0.0786 -2.3998
  953SOL    HW2 2859   0.998   2.752   3.042 -1.9449  0.9783 -0.6937
  954SOL     OW 2860   1.652   1.347   2.936  0.0403  1.0881  0.8690
  954SOL    HW1 2861   1.674   1.286   3.019  1.6008 -3.5594  0.0566
  954SOL    HW2 2862   1.730   1.406   2.904  0.3515 -3.0748 -1.0166
  955SOL     OW 2863   0.105   2.785   0.008  0.2936  0.2063 -0.6524
  955SOL    HW1 2864   0.197   2.742   3.082 -0.1690 -1.5507  1.1919
  955SOL    HW2 2865   0.082   2.856   3.035 -1.6959 -0.7151  1.5496
  956SOL     OW 2866   1.374   0.999   1.378  0.0208  0.2736 -0.6452
  956SOL    HW1 2867   1.427   1.036   1.300 -1.1409 -0.9362 -1.0341
  956SOL    HW2 2868   1.333   1.068   1.438  0.5031  0.2035  2.2581
  957SOL     OW 2869   1.560   1.883   1.705  0.0105  0.3100 -0.0285
  957SOL    HW1 2870   1.604   1.870   1.795  0.6058 -1.9034 -3.1091
  957SOL    HW2 2871   1.577   1.975   1.665 -1.0062 -0.7326 -3.3462
  958SOL     OW 2872   1.175   2.059   1.638 -0.6001  0.3713 -0.2389
  958SOL    HW1 2873   1.256   2.063   1.578 -0.2488 -0.7938  0.5948
  958SOL    HW2 2874   1.117   2.137   1.615  1.4684 -0.2960 -1.2931
  959SOL     OW 2875   1.732   1.241   1.093  0.1197  1.0306  0.5079
  959SOL    HW1 2876   1.741   1.274   1.190 -1.0932  1.6957  1.1081
  959SOL    HW2 2877   1.826   1.220   1.051  2.3217  1.9376 -1.2717
  960SOL     OW 2878   0.461   1.268   0.115 -0.3527  0.0523 -0.3077
  960SOL    HW1 2879   0.465   1.359   0.162  0.8065  0.6658  0.4512
  960SOL    HW2 2880   0.486   1.195   0.181 -0.5914  1.5862  2.4543
  961SOL     OW 2881   0.825   1.484   2.134  0.1822  0.5306  0.1851
  961SOL    HW1 2882   0.751   1.538   2.178 -0.5050 -0.6380 -1.4654
  961SOL    HW2 2883   0.904   1.477   2.199 -1.2091 -0.5434 -4.4346
  962SOL     OW 2884   1.321   1.454   0.645 -0.0675  0.4789  0.5761
  962SOL    HW1 2885   1.347   1.421   0.737  2.7099 -1.9655  2.1213
  962SOL    HW2 2886   1.239   1.517   0.648 -0.4142  0.7144  0.3830
  963SOL     OW 2887   1.581   2.081   2.673  0.3256 -0.4313 -0.6855
  963SOL    HW1 2888   1.619   2.038   2.588 -0.2455 -0.2835 -1.3451
  963SOL    HW2 2889   1.479   2.080   2.672  0.5149 -0.3886 -1.3688
  964SOL     OW 2890   0.792   0.064   0.183 -0.0251 -0.4484 -0.7373
  964SOL    HW1 2891   0.731   0.031   0.263 -0.3569  1.6465  3.2548
  964SOL    HW2 2892   0.755   0.034   0.091 -2.2641 -0.0742 -1.7466
  965SOL     OW 2893   0.495   2.536   0.742  0.1081 -0.6411  0.0858
  965SOL    HW1 2894   0.549   2.622   0.755 -0.1524 -1.4403 -0.9064
  965SOL    HW2 2895   0.402   2.560   0.758  1.8059 -2.8769  0.8411
  966SOL     OW 2896   0.518   1.861   2.754  0.1116 -0.0023  0.1319
  966SOL    HW1 2897   0.430   1.902   2.791  0.3923  0.8885  1.8842
  966SOL    HW2 2898   0.497   1.777   2.700 -0.2453 -1.5765 -0.3758
  967SOL     OW 2899   2.945   2.797   2.827 -0.2663  0.3036 -0.1979
  967SOL    HW1 2900   2.941   2.813   2.725 -0.3000 -0.6981 -3.1612
  967SOL    HW2 2901   3.007   2.872   2.863  1.1198  1.7213 -2.3125
  968SOL     OW 2902   2.190   0.845   0.289  0.4330  0.3988 -0.2053
  968SOL    HW1 2903   2.198   0.748   0.251 -1.8714 -3.5456  0.0648
  968SOL    HW2 2904   2.176   0.907   0.208 -0.3045 -1.6629 -1.5417
  969SOL     OW 2905   0.457   1.186   1.885 -0.3886  0.3713 -0.5191
  969SOL    HW1 2906   0.450   1.193   1.783  0.8836 -1.0910  1.2536
  969SOL    HW2 2907   0.444   1.086   1.912 -3.2187 -1.8362  0.8507
  970SOL     OW 2908   2.478   1.416   1.260  0.9918  0.4075 -0.5338
  970SOL    HW1 2909   2.385   1.373   1.269  0.5781 -0.8255  2.4015
  970SOL    HW2 2910   2.547   1.343   1.285 -0.1175 -2.7256  0.8517
  971SOL     OW 2911   2.370   0.098   1.064  0.2672 -0.4371 -0.2374
  971SOL    HW1 2912   2.381   0.156   0.983  1.1730  1.4869  1.2035
  971SOL    HW2 2913   2.327   0.009   1.042 -2.0932  1.8404 -2.1598
  972SOL     OW 2914   3.018   2.796   1.844 -0.4523  0.3828  0.6990
  972SOL    HW1 2915   0.010   2.843   1.841  1.3105 -0.4509  0.0454
  972SOL    HW2 2916   2.998   2.756   1.750 -0.6614  1.4433  0.0432
  973SOL     OW 2917   0.115   0.468   0.122  0.1492 -0.2572  0.2608
  973SOL    HW1 2918   0.174   0.550   0.112 -0.5030  0.4326  0.2377
  973SOL    HW2 2919   0.089   0.426   0.031 -0.3115 -0.6070  0.6290
  974SOL     OW 2920   1.804   1.509   2.244  0.4975 -0.2325 -0.1931
  974SOL    HW1 2921   1.804   1.612   2.233  0.9029  0.9686 -0.3322
  974SOL    HW2 2922   1.867   1.481   2.168  0.3674  1.8664 -0.0724
  975SOL     OW 2923   2.965   2.701   1.595 -0.5906  0.3315 -0.0891
  975SOL    HW1 2924   2.945   2.760   1.511 -2.4795 -0.2332 -0.1764
  975SOL    HW2 2925   2.912   2.612   1.593 -2.7761 -0.4066  1.1994
  976SOL     OW 2926   0.322   2.157   2.322  0.8391 -0.0764 -0.3955
  976SOL    HW1 2927   0.414   2.193   2.303  1.5625  1.4604 -2.3315
  976SOL    HW2 2928   0.319   2.064   2.279 -0.5483  0.4231  2.2467
  977SOL     OW 2929   0.883   2.606   0.629  0.3580 -0.0794  0.1305
  977SOL    HW1 2930   0.872   2.562   0.539  0.5419 -0.8538  1.0720
  977SOL    HW2 2931   0.957   2.681   0.629  1.3557  4.9997  2.1632
  978SOL     OW 2932   0.144   1.692   2.522  0.0966  0.2228  0.0032
  978SOL    HW1 2933   0.239   1.673   2.478  3.0400  1.7966 -2.6008
  978SOL    HW2 2934   0.117   1.622   2.593  2.5017  2.3563 -0.6787
  979SOL     OW 2935   1.687   2.553   1.377  0.1529  0.3503  0.5232
  979SOL    HW1 2936   1.730   2.517   1.462  3.0905  0.4872  0.0062
  979SOL    HW2 2937   1.584   2.554   1.384 -1.6226 -0.6044  1.2735
  980SOL     OW 2938   0.706   1.598   3.072  0.6176 -0.6438  0.0047
  980SOL    HW1 2939   0.738   1.509   0.016  2.0837  2.3757 -1.0145
  980SOL    HW2 2940   0.641   1.647   0.039 -0.5900  0.6498 -2.8296
  981SOL     OW 2941   1.999   2.940   2.199  0.0517  0.0166  0.3251
  981SOL    HW1 2942   2.085   2.982   2.153  4.3855  2.0955 -1.6553
  981SOL    HW2 2943   2.016   2.840   2.215  1.8259  1.2338 -1.7808
  982SOL     OW 2944   0.012   0.225   2.738  0.0459 -0.2114  0.2214
  982SOL    HW1 2945   3.007   0.217   2.743  0.6105  1.7022  0.9145
  982SOL    HW2 2946   0.056   0.181   2.662  0.4132  0.6642 -0.1096
  983SOL     OW 2947   1.919   1.181   1.995  0.0803  0.1585  0.4535
  983SOL    HW1 2948   1.941   1.170   1.896 -1.1453 -0.4240  0.8121
  983SOL    HW2 2949   1.877   1.095   2.030  0.9992 -1.1506 -1.3759
  984SOL     OW 2950   1.436   0.585   2.054 -0.0538  0.6721  0.4048
  984SOL    HW1 2951   1.341   0.576   2.085  1.0893 -2.1756 -1.2921
  984SOL    HW2 2952   1.441   0.668   1.995 -1.7789  0.3479 -0.6941
  985SOL     OW 2953   1.675   1.560   1.682  0.3591 -0.4982  0.6131
  985SOL    HW1 2954   1.581   1.587   1.710  2.2340 -1.0279  0.5919
  985SOL    HW2 2955   1.685   1.466   1.657  0.7942  1.4441  1.9113
  986SOL     OW 2956   1.944   0.283   1.670 -0.6926 -0.6466 -0.0615
  986SOL    HW1 2957   2.036   0.277   1.720  0.2729  1.6119  0.2359
  986SOL    HW2 2958   1.914   0.384   1.666  1.0046  0.9197 -0.5882
  987SOL     OW 2959   2.175   0.519   1.478 -0.1485 -0.5438  0.3113
  987SOL    HW1 2960   2.140   0.597   1.422  0.8622 -0.6875  0.2966
  987SOL    HW2 2961   2.122   0.433   1.454 -0.2817 -0.5809 -0.9346
  988SOL     OW 2962   2.717   0.585   2.200  0.6198 -0.6376  0.0336
  988SOL    HW1 2963   2.704   0.508   2.132 -0.7620  1.7485  5.2547
  988SOL    HW2 2964   2.713   0.557   2.298 -0.0187 -0.3561 -2.0728
  989SOL     OW 2965   2.174   1.958   2.892  0.5303  0.3516  0.1524
  989SOL    HW1 2966   2.124   2.013   2.822 -1.0943 -0.0903  2.0614
  989SOL    HW2 2967   2.115   1.923   2.966 -0.5451 -1.4278  0.0986
  990SOL     OW 2968   1.219   0.589   2.990  0.1591  0.3459  0.3499
  990SOL    HW1 2969   1.314   0.564   2.977 -0.7220  2.5060 -0.9601
  990SOL    HW2 2970   1.210   0.690   2.983  1.1758 -1.4898 -0.8526
  991SOL     OW 2971   1.436   0.821   0.193 -0.1375  0.2399 -0.1026
  991SOL    HW1 2972   1.516   0.757   0.186  0.0590 -0.3984 -0.6592
  991SOL    HW2 2973   1.406   0.854   0.103 -0.7690  0.7202  0.5424
  992SOL     OW 2974   2.302   1.702   2.876  0.0942 -0.2148  0.0801
  992SOL    HW1 2975   2.231   1.631   2.857  0.5671  0.0224  3.2310
  992SOL    HW2 2976   2.271   1.795   2.846 -0.6777 -1.5388  0.2167
  993SOL     OW 2977   0.371   0.400   0.506  0.4060  0.1420 -0.0119
  993SOL    HW1 2978   0.386   0.302   0.473  1.1656 -0.4034 -0.7275
  993SOL    HW2 2979   0.403   0.464   0.435 -2.8572 -1.2768  4.5475
  994SOL     OW 2980   0.128   1.750   2.120  0.2649 -0.2983  0.6284
  994SOL    HW1 2981   0.042   1.721   2.173  3.7539  1.2536 -0.4917
  994SOL    HW2 2982   0.167   1.665   2.086 -1.1776 -1.2691  1.4124
  995SOL     OW 2983   1.813   1.344   2.473 -0.1967 -0.1517 -0.6978
  995SOL    HW1 2984   1.820   1.389   2.381 -0.2101  0.8912  0.2860
  995SOL    HW2 2985   1.863   1.254   2.473  0.2960 -0.0630 -1.8568
  996SOL     OW 2986   1.944   1.982   2.504 -0.4819 -0.0413  0.1410
  996SOL    HW1 2987   1.988   1.915   2.439  0.9335 -0.4399  0.1639
  996SOL    HW2 2988   1.844   1.962   2.515  0.2547  0.9530  0.6002
  997SOL     OW 2989   2.483   1.475   1.625 -0.0834  0.5871  0.0220
  997SOL    HW1 2990   2.520   1.535   1.552 -1.4939 -1.6066  1.1417
  997SOL    HW2 2991   2.557   1.457   1.690 -0.0752 -0.4246 -1.8107
  998SOL     OW 2992   2.440   1.351   0.380 -0.5565 -0.3197 -0.0153
  998SOL    HW1 2993   2.391   1.282   0.437 -1.2324  3.5254  0.6000
  998SOL    HW2 2994   2.382   1.420   0.337  2.6564  0.0969  1.2256
  999SOL     OW 2995   2.720   2.641   0.338  0.1347 -0.1494  0.1893
  999SOL    HW1 2996   2.702   2.577   0.416  0.4561 -0.8726  1.8958
  999SOL    HW2 2997   2.735   2.733   0.376 -0.0315  0.7265 -0.2292
 1000SOL     OW 2998   0.527   0.069   1.977  0.2761  0.0432  1.0085
 1000SOL    HW1 2999   0.526   0.118   1.886  1.0331 -0.7473  1.1343
 1000SOL    HW2 3000   0.524   0.130   2.058  1.3957  1.8285 -0.1313
   3.09814   3.09814   3.09814
