1000 SPC/Fw water molecules t=  35.00000 step= 35000
 3000
    1SOL     OW    1   1.994   2.610   0.538 -0.2179 -0.3763  0.0735
    1SOL    HW1    2   2.069   2.617   0.472 -0.3988  3.1899  1.0742
    1SOL    HW2    3   1.910   2.566   0.498 -0.1904 -1.4744  0.8623
    2SOL     OW    4   1.211   0.557   2.025  0.1937  0.0615 -0.0529
    2SOL    HW1    5   1.254   0.473   2.054 -0.8777 -0.6902  1.0339
    2SOL    HW2    6   1.155   0.599   2.096  1.3813 -0.7052 -1.9113
    3SOL     OW    7   0.925   2.944   2.661  0.0068  0.0913  0.5701
    3SOL    HW1    8   0.871   2.860   2.671  1.3615  1.0377 -0.2536
    3SOL    HW2    9   0.896   3.014   2.733 -1.1397 -0.2644 -1.9271
    4SOL     OW   10   1.160   1.393   2.972 -0.4801 -0.3559  0.2432
    4SOL    HW1   11   1.114   1.381   2.880  0.8814  2.3708  0.2445
    4SOL    HW2   12   1.223   1.473   2.981  0.1183 -0.7574  0.9517
    5SOL     OW   13   0.635   1.151   2.105 -0.1603  0.1107  0.7968
    5SOL    HW1   14   0.724   1.126   2.062  3.1730  1.6848 -0.4966
    5SOL    HW2   15   0.620   1.252   2.101 -2.9874 -0.5271  0.1382
    6SOL     OW   16   2.021   0.868   2.550  0.4747  0.2402  0.5440
    6SOL    HW1   17   2.032   0.778   2.597 -1.2126 -0.4352 -1.8915
    6SOL    HW2   18   2.111   0.921   2.557  3.2434  1.9060  2.4317
    7SOL     OW   19   0.492   0.943   1.388 -0.1129 -0.5839 -0.2863
    7SOL    HW1   20   0.493   0.844   1.364 -2.6357  1.7076 -4.1959
    7SOL    HW2   21   0.400   0.980   1.413 -0.7467 -2.0989 -0.4376
    8SOL     OW   22   2.296   2.951   1.984 -0.2361  0.1524 -0.2098
    8SOL    HW1   23   2.243   2.982   1.905 -0.8014 -2.3295  0.3622
    8SOL    HW2   24   2.396   2.967   1.960 -1.4117 -2.0464 -1.8197
    9SOL     OW   25   0.163   3.004   0.706 -0.3079 -0.1276  0.1799
    9SOL    HW1   26   0.148   0.015   0.695  1.4894  0.0565  1.5639
    9SOL    HW2   27   0.164   2.957   0.615 -0.3312  1.4701 -0.2873
   10SOL     OW   28   0.065   2.183   2.416 -0.2003  0.3709  0.4268
   10SOL    HW1   29   0.106   2.231   2.497 -0.2277 -0.0084  4.6819
   10SOL    HW2   30   0.046   2.084   2.446 -0.6688 -1.9159  1.0555
   11SOL     OW   31   0.833   1.626   3.003  0.0569  0.0922 -0.2316
   11SOL    HW1   32   0.787   1.566   3.070  1.7635  0.1558  0.3382
   11SOL    HW2   33   0.918   1.665   3.034 -2.7978 -0.0815  0.3835
   12SOL     OW   34   2.167   2.560   1.270 -0.3118 -0.1160  0.3235
   12SOL    HW1   35   2.231   2.623   1.223 -1.7454 -0.1649  1.4368
   12SOL    HW2   36   2.096   2.530   1.202 -1.6263 -1.4822  0.0401
   13SOL     OW   37   0.377   3.022   2.908  0.2298 -0.1550 -0.2401
   13SOL    HW1   38   0.325   0.020   2.929  0.2714  1.3356 -2.5109
   13SOL    HW2   39   0.461   3.043   2.855 -0.6412 -1.6822  1.8144
   14SOL     OW   40   1.349   1.226   1.485  0.0933  0.1890 -0.4600
   14SOL    HW1   41   1.369   1.269   1.573  2.4535 -1.8027  1.6047
   14SOL    HW2   42   1.393   1.278   1.409 -0.1316  1.4686  2.9625
   15SOL     OW   43   0.362   1.305   2.324  0.1174 -0.2852 -0.0702
   15SOL    HW1   44   0.347   1.242   2.248 -0.5323  0.4269  2.0377
   15SOL    HW2   45   0.390   1.253   2.404  0.0873  1.8802 -0.7550
   16SOL     OW   46   1.570   0.663   2.671 -0.0627 -0.4735 -0.4469
   16SOL    HW1   47   1.498   0.622   2.722  3.3233  2.3664 -0.9565
   16SOL    HW2   48   1.563   0.763   2.663  2.2241 -0.9533 -0.8932
   17SOL     OW   49   3.067   2.598   2.277 -0.1695 -0.0181  0.3397
   17SOL    HW1   50   3.071   2.555   2.369 -1.4082  2.8984 -2.2223
   17SOL    HW2   51   0.022   2.544   2.206 -0.7701 -0.4795  1.7398
   18SOL     OW   52   1.356   1.125   0.409 -0.4241 -0.3674 -0.7721
   18SOL    HW1   53   1.443   1.066   0.400  3.4417  0.6817 -1.0020
   18SOL    HW2   54   1.342   1.142   0.509  2.7897  1.8820  2.0754
   19SOL     OW   55   3.070   1.482   2.063  0.3536  0.6437  0.2869
   19SOL    HW1   56   0.011   1.390   2.030  2.8711 -1.0492  0.0383
   19SOL    HW2   57   3.078   1.546   1.980 -0.5773 -0.4461  0.6723
   20SOL     OW   58   2.126   2.253   2.814  0.1360 -0.1663  0.4523
   20SOL    HW1   59   2.218   2.213   2.799 -0.4850 -0.8794 -0.9022
   20SOL    HW2   60   2.071   2.237   2.728 -2.1783 -1.3677  2.6176
   21SOL     OW   61   1.756   1.881   0.769  0.3120  0.4397  0.8557
   21SOL    HW1   62   1.777   1.980   0.755  1.0519  4.3737  0.8720
   21SOL    HW2   63   1.718   1.867   0.859 -1.6302  2.5192 -0.7737
   22SOL     OW   64   2.365   1.877   1.179  0.4135  0.2006  0.6035
   22SOL    HW1   65   2.365   1.970   1.216 -1.0680 -0.2068  0.4581
   22SOL    HW2   66   2.308   1.812   1.234  1.2719 -1.1972  1.4295
   23SOL     OW   67   0.020   1.417   1.300  0.1901  0.5399  0.1558
   23SOL    HW1   68   0.011   1.506   1.258  2.3602 -2.6880  0.9907
   23SOL    HW2   69   3.014   1.370   1.299  0.7571 -1.1965  1.6645
   24SOL     OW   70   1.606   1.203   1.862  0.1860 -0.2066 -0.2994
   24SOL    HW1   71   1.663   1.119   1.855 -1.3897 -0.9091  0.0965
   24SOL    HW2   72   1.657   1.281   1.894 -0.3717 -1.2580 -0.0454
   25SOL     OW   73   1.874   0.057   2.258  0.5261  0.0714 -0.0943
   25SOL    HW1   74   1.850   0.110   2.340 -2.6592 -0.9103 -3.1730
   25SOL    HW2   75   1.929   3.062   2.288 -0.9509 -0.8719  0.2684
   26SOL     OW   76   0.820   0.234   0.599  0.4941  0.2256  0.4629
   26SOL    HW1   77   0.836   0.333   0.583  2.0018  1.2090  2.0443
   26SOL    HW2   78   0.723   0.201   0.573 -1.9955 -0.1511 -0.6523
   27SOL     OW   79   1.096   1.405   0.857 -0.1994 -0.7283  0.1265
   27SOL    HW1   80   1.134   1.493   0.824  0.5050 -1.7043  1.1823
   27SOL    HW2   81   1.059   1.407   0.950  3.3746 -0.5905  2.8653
   28SOL     OW   82   2.385   2.136   1.268 -0.0673  0.1135 -0.4244
   28SOL    HW1   83   2.354   2.188   1.347  0.1362 -0.0189 -0.3810
   28SOL    HW2   84   2.330   2.172   1.191  0.0578 -0.9336 -0.7293
   29SOL     OW   85   2.081   2.948   2.334  0.1390 -0.3386  0.4237
   29SOL    HW1   86   2.020   2.922   2.408  2.2961 -0.4470 -1.3737
   29SOL    HW2   87   2.172   2.903   2.355 -0.0632  1.0498 -0.7209
   30SOL     OW   88   0.030   0.025   1.953  0.3365 -0.6290  0.3856
   30SOL    HW1   89   3.049   0.094   1.926 -1.5055  2.2185 -0.3830
   30SOL    HW2   90   0.090   3.079   1.877  0.4766 -0.6336  3.3448
   31SOL     OW   91   0.082   1.819   2.076  0.1497 -0.1314  0.3182
   31SOL    HW1   92   0.060   1.919   2.057  0.1919  2.2331 -0.8877
   31SOL    HW2   93   0.036   1.769   2.005  1.2302  1.1536  2.4619
   32SOL     OW   94   1.569   2.389   2.159  0.1894 -0.0756  0.1196
   32SOL    HW1   95   1.552   2.416   2.059 -0.7023 -0.0654  2.2404
   32SOL    HW2   96   1.609   2.465   2.214 -2.0588  1.0769 -1.8207
   33SOL     OW   97   0.231   0.193   2.963  0.1908  0.3475  0.0204
   33SOL    HW1   98   0.157   0.216   3.026  1.5117  0.3707 -2.8088
   33SOL    HW2   99   0.229   0.258   2.885  1.5785 -3.6442  1.6840
   34SOL     OW  100   2.551   0.114   0.387 -0.1074  0.3449 -0.3350
   34SOL    HW1  101   2.538   0.116   0.484 -0.4857 -0.8437 -5.7725
   34SOL    HW2  102   2.627   0.176   0.362  0.5409  1.6335  0.0104
   35SOL     OW  103   2.818   2.577   1.592  0.2725  0.0168  0.1611
   35SOL    HW1  104   2.771   2.538   1.670  1.0686  3.0116 -3.1591
   35SOL    HW2  105   2.764   2.641   1.534  0.5359  2.1163 -1.7252
   36SOL     OW  106   2.500   3.008   2.244  0.0997  0.5256  0.6981
   36SOL    HW1  107   2.399   3.026   2.252 -0.8369 -1.1772  2.1206
   36SOL    HW2  108   2.551   0.003   2.218 -1.9348 -1.3165 -1.0495
   37SOL     OW  109   1.540   3.039   0.011 -0.3158  0.6501 -0.3343
   37SOL    HW1  110   1.518   3.074   0.102 -0.0558  0.2544 -0.9895
   37SOL    HW2  111   1.498   2.948   3.085 -1.0037  3.2317 -0.2302
   38SOL     OW  112   0.277   0.467   0.119 -0.0643 -0.1825  0.1202
   38SOL    HW1  113   0.355   0.512   0.172  2.3646 -1.4091  1.3156
   38SOL    HW2  114   0.283   0.486   0.018 -0.5621  1.3746 -0.2355
   39SOL     OW  115   1.060   1.752   2.189 -0.0033 -0.0685  0.2081
   39SOL    HW1  116   0.999   1.815   2.235  0.8127  0.8341 -1.1069
   39SOL    HW2  117   1.114   1.698   2.250 -0.0669  1.5456 -0.6706
   40SOL     OW  118   2.991   0.339   2.558  0.4372 -0.4575 -0.1317
   40SOL    HW1  119   2.932   0.415   2.586 -0.6873 -1.7212  1.8346
   40SOL    HW2  120   3.082   0.370   2.523 -1.2240  1.4629 -1.3968
   41SOL     OW  121   1.377   0.898   1.789  0.0875 -0.2113  0.6566
   41SOL    HW1  122   1.457   0.947   1.748  0.7194 -0.1932  4.2249
   41SOL    HW2  123   1.407   0.847   1.870 -0.5937 -0.3719 -2.2441
   42SOL     OW  124   2.751   0.038   1.534 -0.6733 -0.4776  0.3991
   42SOL    HW1  125   2.674   0.086   1.580  0.3771  1.8150 -0.2633
   42SOL    HW2  126   2.716   3.041   1.485  0.0441  0.1314  0.8787
   43SOL     OW  127   1.620   0.879   1.629  0.0529 -0.1379  0.4376
   43SOL    HW1  128   1.650   0.950   1.567 -0.9745 -1.2245  1.6283
   43SOL    HW2  129   1.597   0.795   1.574 -1.1264 -1.5046 -2.7075
   44SOL     OW  130   0.009   0.206   0.072  0.5642 -0.3450 -0.2962
   44SOL    HW1  131   0.037   0.260   0.153  1.8912 -0.2810 -3.0343
   44SOL    HW2  132   0.040   0.110   0.090  1.1642  3.0890  0.6629
   45SOL     OW  133   0.367   2.020   1.650  0.0464 -0.1276 -0.2257
   45SOL    HW1  134   0.439   1.956   1.681 -1.7469  0.5174 -0.2580
   45SOL    HW2  135   0.398   2.065   1.563  0.5479  0.5832  0.8105
   46SOL     OW  136   2.457   2.846   1.718  0.1172 -0.2407  0.0315
   46SOL    HW1  137   2.484   2.931   1.765  0.5190 -2.7932 -1.0032
   46SOL    HW2  138   2.468   2.764   1.778 -0.8346  1.7866 -0.2963
   47SOL     OW  139   0.326   1.982   1.264  0.0516  0.1948 -0.5660
   47SOL    HW1  140   0.395   1.915   1.309  2.6150 -2.1136  0.1212
   47SOL    HW2  141   0.248   1.926   1.230 -2.0642  1.9868  1.2877
   48SOL     OW  142   0.707   2.710   2.708 -0.2781  0.3105 -0.4427
   48SOL    HW1  143   0.712   2.624   2.652 -0.6993  2.0352 -0.5280
   48SOL    HW2  144   0.701   2.692   2.810  0.4416  0.8238  0.1669
   49SOL     OW  145   2.970   1.345   1.692  0.4617 -0.3972  0.1261
   49SOL    HW1  146   3.054   1.384   1.658 -1.0974  0.6451  2.6104
   49SOL    HW2  147   2.892   1.407   1.664 -1.9423  1.8234 -0.6727
   50SOL     OW  148   1.315   2.766   0.572  0.0421  0.5326  0.1293
   50SOL    HW1  149   1.343   2.724   0.663  0.6021  0.5772 -1.4922
   50SOL    HW2  150   1.228   2.815   0.593 -1.3750 -2.4045 -2.9337
   51SOL     OW  151   0.926   0.195   0.874 -0.2901  0.0014  0.3478
   51SOL    HW1  152   0.900   0.200   0.775  0.2582  2.1461  1.4070
   51SOL    HW2  153   1.006   0.254   0.893  1.4461 -0.3908  0.7850
   52SOL     OW  154   0.609   1.323   0.279 -0.5674  0.0813  0.6452
   52SOL    HW1  155   0.568   1.236   0.239  0.2565  0.6188  1.5032
   52SOL    HW2  156   0.559   1.345   0.360  3.2340 -0.1205 -2.4893
   53SOL     OW  157   1.188   2.757   2.630 -0.1840  0.3067 -0.4573
   53SOL    HW1  158   1.286   2.776   2.655  0.4609  0.3827 -0.6859
   53SOL    HW2  159   1.175   2.770   2.532  0.4528  0.2867 -1.2248
   54SOL     OW  160   2.003   0.243   1.781 -0.1504  0.4206  0.2017
   54SOL    HW1  161   1.968   0.278   1.691  1.2781  0.4235 -1.6590
   54SOL    HW2  162   2.069   0.308   1.820 -0.1708 -0.2498 -0.3476
   55SOL     OW  163   2.850   2.569   0.450 -0.1666  0.6093  0.4392
   55SOL    HW1  164   2.851   2.488   0.387 -2.3502  0.9197 -0.6484
   55SOL    HW2  165   2.946   2.612   0.456  1.0555  0.6274  0.2985
   56SOL     OW  166   0.974   2.951   1.540 -1.2665  0.2564 -0.1502
   56SOL    HW1  167   0.910   3.024   1.507  0.7894  0.7811  0.9190
   56SOL    HW2  168   0.936   2.864   1.534  2.9504  4.2123  2.9772
   57SOL     OW  169   1.775   0.943   2.539 -0.2729 -0.4720  0.0427
   57SOL    HW1  170   1.873   0.912   2.540 -0.8185  2.4576 -2.0812
   57SOL    HW2  171   1.740   0.951   2.441 -1.1776 -1.2810 -3.3720
   58SOL     OW  172   0.076   0.778   2.160  0.2595 -0.5129  0.2338
   58SOL    HW1  173   0.003   0.701   2.155 -2.5291 -1.1910 -0.7183
   58SOL    HW2  174   0.139   0.762   2.080 -0.0284 -1.4468  2.3529
   59SOL     OW  175   0.868   2.702   1.506 -0.0066  0.5141  0.3896
   59SOL    HW1  176   0.805   2.627   1.534  3.3391  0.1372 -0.6027
   59SOL    HW2  177   0.966   2.672   1.514  3.8567 -0.0900  0.6224
   60SOL     OW  178   2.168   2.599   0.331 -0.2855  0.4637 -0.2712
   60SOL    HW1  179   2.211   2.530   0.264  1.1676 -1.7757 -1.4458
   60SOL    HW2  180   2.082   2.634   0.293  2.7654  1.3333  3.8276
   61SOL     OW  181   1.690   2.567   0.759  0.1310 -0.4622 -0.1335
   61SOL    HW1  182   1.721   2.478   0.802 -0.6244 -3.1092  0.8927
   61SOL    HW2  183   1.604   2.603   0.799 -1.0454  1.4766  1.0181
   62SOL     OW  184   1.812   0.069   0.025 -0.7213  0.1923  0.1078
   62SOL    HW1  185   1.725   0.015   0.023 -1.5846 -0.6091  0.9285
   62SOL    HW2  186   1.797   0.164   3.077  0.9330 -2.2750 -1.0319
   63SOL     OW  187   2.401   0.518   0.177  0.1263  0.2692  0.1712
   63SOL    HW1  188   2.346   0.602   0.188 -0.0433  2.8409  1.0452
   63SOL    HW2  189   2.433   0.494   0.079  0.7782 -1.9782 -0.2922
   64SOL     OW  190   1.269   0.953   2.969 -0.0505 -0.0676  0.4109
   64SOL    HW1  191   1.261   0.852   2.962 -0.7611  1.7668 -0.6599
   64SOL    HW2  192   1.247   0.996   2.878  0.9563  0.7040 -1.3150
   65SOL     OW  193   0.548   2.470   1.330  0.5453  0.5104  0.0271
   65SOL    HW1  194   0.535   2.373   1.303  1.0098 -0.0015 -1.1210
   65SOL    HW2  195   0.624   2.508   1.280 -1.8930 -1.8416  0.5435
   66SOL     OW  196   0.876   1.362   1.519 -0.2457  0.3570  0.0876
   66SOL    HW1  197   0.930   1.275   1.523 -1.0028 -3.1623 -3.7026
   66SOL    HW2  198   0.937   1.448   1.518  1.8906  2.1751  0.9404
   67SOL     OW  199   2.258   2.065   1.892 -0.2622 -0.2957 -0.4207
   67SOL    HW1  200   2.332   2.123   1.858  0.0966 -1.3810 -0.4869
   67SOL    HW2  201   2.234   1.992   1.822  0.1834 -0.2209  2.9715
   68SOL     OW  202   0.706   1.435   2.069  0.1437  0.4662 -0.2453
   68SOL    HW1  203   0.653   1.497   2.134 -0.7803  3.3253  1.8991
   68SOL    HW2  204   0.679   1.451   1.971 -1.0268  1.3035 -0.6410
   69SOL     OW  205   0.075   2.618   0.066 -0.0203  0.5930  0.0057
   69SOL    HW1  206   0.150   2.686   0.045  1.0114  0.5285 -0.2479
   69SOL    HW2  207   3.080   2.670   0.091  0.7034  0.3114 -1.0349
   70SOL     OW  208   2.398   0.750   2.355  0.3900  0.3611 -0.2328
   70SOL    HW1  209   2.353   0.747   2.267  1.3141 -1.0560  0.4352
   70SOL    HW2  210   2.366   0.821   2.422  2.0095  0.0075 -1.2546
   71SOL     OW  211   0.474   2.083   0.766 -0.2570  0.1882 -0.1096
   71SOL    HW1  212   0.554   2.016   0.772 -0.8311  1.7662  0.5518
   71SOL    HW2  213   0.422   2.066   0.854  1.4984  0.5737  3.4503
   72SOL     OW  214   2.577   2.039   0.467 -0.2852 -0.8045 -0.5167
   72SOL    HW1  215   2.593   2.140   0.445  0.2540  0.0130 -1.8022
   72SOL    HW2  216   2.537   2.033   0.560 -0.2100  2.9669  1.8241
   73SOL     OW  217   1.071   0.582   0.663  0.1256 -0.0946 -0.0080
   73SOL    HW1  218   1.083   0.531   0.573  1.4547  0.2628 -0.7810
   73SOL    HW2  219   1.121   0.667   0.642  2.1837  0.7574 -0.2691
   74SOL     OW  220   2.653   2.025   1.936  0.2824  0.3010  0.2441
   74SOL    HW1  221   2.582   1.960   1.976  0.6390 -3.8812  3.9155
   74SOL    HW2  222   2.692   1.985   1.849  2.0819 -1.3205 -1.4721
   75SOL     OW  223   1.530   1.618   1.893  0.2671  0.2892 -0.2819
   75SOL    HW1  224   1.456   1.553   1.873  1.7211 -1.3323 -1.5484
   75SOL    HW2  225   1.596   1.563   1.951  1.2719 -3.8466  1.4202
   76SOL     OW  226   1.168   1.698   1.064  0.7793  0.6031  0.0870
   76SOL    HW1  227   1.243   1.679   0.999  2.3028 -2.4232  1.2045
   76SOL    HW2  228   1.099   1.622   1.066  0.4379 -1.9614  0.5028
   77SOL     OW  229   2.759   1.246   1.855  0.3195  0.0075  0.1892
   77SOL    HW1  230   2.762   1.272   1.955  3.9519  0.2704 -0.1291
   77SOL    HW2  231   2.843   1.285   1.809  0.1077 -0.3493 -0.4878
   78SOL     OW  232   1.679   0.794   0.229 -0.2657  0.6157 -0.0659
   78SOL    HW1  233   1.641   0.716   0.174 -0.3544  0.1646 -1.1135
   78SOL    HW2  234   1.755   0.762   0.286 -0.5159 -1.6972 -1.4690
   79SOL     OW  235   1.205   1.377   2.100  0.0013 -0.6426 -0.4044
   79SOL    HW1  236   1.266   1.300   2.082 -1.4822  1.6458 -0.1473
   79SOL    HW2  237   1.107   1.348   2.095 -1.0272  0.1001  0.0805
   80SOL     OW  238   1.149   0.352   1.567  0.3730  0.3644  0.5520
   80SOL    HW1  239   1.179   0.421   1.502  0.9444 -0.6446 -2.9496
   80SOL    HW2  240   1.234   0.323   1.619 -0.3030 -0.4928 -0.4422
   81SOL     OW  241   0.548   2.559   0.345  0.2463  0.0206  0.2526
   81SOL    HW1  242   0.528   2.517   0.255  0.0039  1.0548  1.9130
   81SOL    HW2  243   0.587   2.483   0.401 -0.3864  1.8746 -1.5955
   82SOL     OW  244   1.330   0.278   1.730  0.3987  0.3078  0.0561
   82SOL    HW1  245   1.432   0.277   1.735 -0.7688 -0.0493  1.6364
   82SOL    HW2  246   1.291   0.247   1.817 -0.1330 -0.6322  1.9681
   83SOL     OW  247   0.332   2.358   1.068  0.1952  0.4498 -0.2500
   83SOL    HW1  248   0.421   2.408   1.046 -0.3780  1.4412 -1.7196
   83SOL    HW2  249   0.308   2.276   1.007 -1.6203 -0.1623 -1.5287
   84SOL     OW  250   2.850   1.813   0.565  0.2799 -0.2752 -0.1034
   84SOL    HW1  251   2.858   1.720   0.529  2.0722  2.0360  2.3741
   84SOL    HW2  252   2.851   1.887   0.490  0.5344  2.4878 -1.1249
   85SOL     OW  253   2.512   1.883   1.423  0.0619 -0.6394 -0.2487
   85SOL    HW1  254   2.455   1.866   1.337 -2.0031 -1.5366  0.9372
   85SOL    HW2  255   2.614   1.886   1.408  1.4264  1.4932 -2.8899
   86SOL     OW  256   1.548   2.247   1.402  0.1231  0.5933  0.0900
   86SOL    HW1  257   1.466   2.186   1.398  0.6460 -1.3971 -1.5346
   86SOL    HW2  258   1.619   2.214   1.337 -2.4618  0.6606 -2.5107
   87SOL     OW  259   2.107   1.456   0.396  0.0052  0.2561  0.3556
   87SOL    HW1  260   2.016   1.470   0.434 -0.6498 -0.1587 -0.1398
   87SOL    HW2  261   2.118   1.514   0.312  2.6647  3.2852 -2.1508
   88SOL     OW  262   0.494   0.173   0.779  0.0916 -0.3278  0.2714
   88SOL    HW1  263   0.497   0.135   0.686 -0.0997 -0.0881 -1.8456
   88SOL    HW2  264   0.566   0.245   0.791  1.2082 -2.6360 -1.2471
   89SOL     OW  265   0.954   0.282   1.712 -0.1426 -0.5639 -0.0185
   89SOL    HW1  266   1.040   0.307   1.659 -0.7623  0.2444  0.6369
   89SOL    HW2  267   0.966   0.208   1.781 -1.8514 -1.4936 -0.4652
   90SOL     OW  268   0.227   2.023   0.338  0.0672  0.0436 -0.4765
   90SOL    HW1  269   0.248   2.018   0.437 -0.2062  2.1544 -0.7024
   90SOL    HW2  270   0.139   2.076   0.323  0.0719  1.4078 -2.4782
   91SOL     OW  271   0.992   1.725   0.686  1.0795  0.2841 -0.1683
   91SOL    HW1  272   0.892   1.749   0.689 -2.4532  0.2843 -1.4623
   91SOL    HW2  273   1.051   1.810   0.703  1.1435  3.8455 -0.0960
   92SOL     OW  274   2.338   0.107   1.454  0.4104  0.4560  0.3032
   92SOL    HW1  275   2.417   0.133   1.509 -4.5743 -1.5409 -4.3169
   92SOL    HW2  276   2.313   0.012   1.472  4.3226  1.0802  2.1485
   93SOL     OW  277   0.382   1.232   2.859 -0.0607  0.1792  0.3218
   93SOL    HW1  278   0.432   1.309   2.898 -1.0093 -0.8810 -1.1780
   93SOL    HW2  279   0.345   1.255   2.769  1.3586 -1.5160  0.4798
   94SOL     OW  280   2.529   3.063   1.885 -0.8336 -0.1934  0.0137
   94SOL    HW1  281   2.478   0.048   1.928  0.7880 -3.3611  0.3594
   94SOL    HW2  282   2.626   3.046   1.920  1.2982 -0.6264  2.9386
   95SOL     OW  283   1.936   0.664   1.682 -0.3236 -0.2105  0.4912
   95SOL    HW1  284   1.914   0.742   1.622 -0.0800 -0.4995  0.8571
   95SOL    HW2  285   1.920   0.577   1.638 -0.8637  2.9941 -0.1688
   96SOL     OW  286   2.717   0.318   1.976  0.0489  0.3565 -0.0633
   96SOL    HW1  287   2.656   0.372   1.909 -2.0413  2.0881  0.4972
   96SOL    HW2  288   2.724   0.367   2.066  0.3781 -0.2685 -0.5342
   97SOL     OW  289   2.136   0.286   1.401 -0.1074 -0.0353 -0.5175
   97SOL    HW1  290   2.066   0.240   1.341 -0.3887  0.7708 -1.2159
   97SOL    HW2  291   2.214   0.225   1.421 -2.2487  1.0460  0.2201
   98SOL     OW  292   2.291   2.422   1.727 -0.0516 -0.2873  0.0168
   98SOL    HW1  293   2.348   2.340   1.746  2.0167 -0.8463 -0.6258
   98SOL    HW2  294   2.350   2.505   1.758  3.9800  0.4199  0.8014
   99SOL     OW  295   0.473   0.754   1.041 -0.5471 -0.2500 -0.9893
   99SOL    HW1  296   0.514   0.771   0.947 -1.0597 -3.2063 -6.2356
   99SOL    HW2  297   0.387   0.805   1.043  0.4747  2.0631  0.0539
  100SOL     OW  298   2.612   1.731   1.853  0.0162 -0.2687  0.1070
  100SOL    HW1  299   2.534   1.715   1.795  0.5416 -1.6161  1.6186
  100SOL    HW2  300   2.678   1.766   1.784  0.2433 -0.2541  0.2923
  101SOL     OW  301   2.146   3.012   0.348 -0.0774 -0.1509 -0.5713
  101SOL    HW1  302   2.197   0.004   0.385  0.0016 -0.8098 -0.3388
  101SOL    HW2  303   2.109   3.039   0.256  0.3191  5.0894  0.6713
  102SOL     OW  304   0.532   0.115   1.149  0.5517  0.2223 -0.2159
  102SOL    HW1  305   0.482   0.194   1.192  0.2421 -0.1097 -0.0017
  102SOL    HW2  306   0.471   0.055   1.096  1.4161 -0.0750 -0.6036
  103SOL     OW  307   0.097   0.078   2.466  0.3583  0.0745 -0.4214
  103SOL    HW1  308   3.086   0.063   2.487 -2.5376 -0.9233 -0.2512
  103SOL    HW2  309   0.151   0.008   2.513  3.0914  2.1855  3.1789
  104SOL     OW  310   0.482   2.164   1.425  0.3360 -0.2577  0.0817
  104SOL    HW1  311   0.470   2.104   1.340  0.8360 -1.1707 -1.1500
  104SOL    HW2  312   0.388   2.206   1.451 -2.7587 -0.1891 -1.0109
  105SOL     OW  313   0.658   1.957   2.147 -0.0403 -0.1965  0.3211
  105SOL    HW1  314   0.735   2.022   2.149  2.4740  1.3317 -1.0979
  105SOL    HW2  315   0.637   1.928   2.049  1.9412 -2.5731 -0.0298
  106SOL     OW  316   2.109   0.321   0.682 -0.4436 -0.2540 -0.0503
  106SOL    HW1  317   2.103   0.278   0.772 -2.3712  0.6358  2.2509
  106SOL    HW2  318   2.021   0.323   0.626 -2.5039 -0.6648 -1.7306
  107SOL     OW  319   0.347   1.242   1.119 -0.1791 -0.1442 -0.5055
  107SOL    HW1  320   0.350   1.253   1.018  2.9223 -1.7754  1.1073
  107SOL    HW2  321   0.427   1.193   1.162 -0.8122 -1.6792 -0.5950
  108SOL     OW  322   2.819   0.978   2.333 -0.4070  0.1271  0.2246
  108SOL    HW1  323   2.884   1.011   2.260  1.2499  2.1295  0.8670
  108SOL    HW2  324   2.778   0.886   2.314  0.3923 -1.2908 -0.0405
  109SOL     OW  325   1.909   2.997   2.883 -0.5599  0.4245  0.5912
  109SOL    HW1  326   1.914   3.064   2.807 -1.4612 -1.5346 -0.0128
  109SOL    HW2  327   1.892   3.047   2.969  1.1596  1.4590 -1.1195
  110SOL     OW  328   0.199   1.988   3.008 -0.2346  0.4401 -0.2434
  110SOL    HW1  329   0.117   2.021   3.062  2.7506  0.1333  0.4396
  110SOL    HW2  330   0.259   1.932   3.067  0.4175 -0.2042 -1.5967
  111SOL     OW  331   2.739   0.731   2.314 -0.2088  0.1592 -0.3472
  111SOL    HW1  332   2.740   0.637   2.275  2.7119  0.4725 -0.7856
  111SOL    HW2  333   2.692   0.730   2.406 -0.1852 -1.2212  0.7361
  112SOL     OW  334   2.085   2.745   1.459  0.2466  0.2157  0.2457
  112SOL    HW1  335   1.993   2.787   1.442 -0.4940  2.2007  0.3193
  112SOL    HW2  336   2.108   2.685   1.381  1.4803  1.1181  0.6379
  113SOL     OW  337   2.117   2.063   2.389 -0.2043  0.4068  0.0616
  113SOL    HW1  338   2.103   1.994   2.312 -2.7159 -2.3480 -2.0939
  113SOL    HW2  339   2.214   2.097   2.388 -0.7743  0.5513 -0.2610
  114SOL     OW  340   0.493   0.351   0.340 -0.1824 -0.8286 -0.4217
  114SOL    HW1  341   0.415   0.297   0.374  0.2124  1.3116  1.1585
  114SOL    HW2  342   0.558   0.296   0.281  0.8044 -1.2846  0.1181
  115SOL     OW  343   2.834   1.503   3.025 -0.1059 -0.5193 -0.6876
  115SOL    HW1  344   2.894   1.546   0.009  0.6158 -0.9890  1.4136
  115SOL    HW2  345   2.861   1.408   3.007  1.4047  1.0580  1.0076
  116SOL     OW  346   0.075   0.692   1.535  0.0257  0.1050 -0.4217
  116SOL    HW1  347   0.103   0.727   1.444 -0.9829  0.1352 -0.1088
  116SOL    HW2  348   0.007   0.752   1.570  1.7573  1.6104  0.1707
  117SOL     OW  349   2.385   0.256   1.201 -0.3926 -0.2269 -0.6339
  117SOL    HW1  350   2.290   0.289   1.212  0.3118 -0.6982 -1.9645
  117SOL    HW2  351   2.411   0.198   1.284  0.6989 -0.1397 -1.2478
  118SOL     OW  352   2.819   2.181   2.101  0.5718  0.2003 -0.0472
  118SOL    HW1  353   2.847   2.279   2.085  2.2760 -0.5401  0.6100
  118SOL    HW2  354   2.781   2.136   2.010  1.7582  1.0654 -3.8371
  119SOL     OW  355   0.574   1.862   1.014  0.0256 -0.3536  0.3938
  119SOL    HW1  356   0.581   1.957   1.050  0.0348 -2.1160 -0.0559
  119SOL    HW2  357   0.611   1.799   1.081 -1.4748  2.8662  0.8169
  120SOL     OW  358   0.373   1.470   1.338 -0.1478 -0.6742 -0.0196
  120SOL    HW1  359   0.342   1.456   1.245  0.0279  2.7988  3.0387
  120SOL    HW2  360   0.339   1.404   1.405  1.3390  1.4732  2.8422
  121SOL     OW  361   1.398   1.034   0.831  0.1374  0.2895  0.5863
  121SOL    HW1  362   1.393   1.034   0.933 -0.5631 -2.6857  0.4674
  121SOL    HW2  363   1.335   1.099   0.785  0.7817 -1.5577 -0.2114
  122SOL     OW  364   2.012   2.513   2.863 -0.1311 -0.2215 -0.1814
  122SOL    HW1  365   1.911   2.500   2.851 -2.2638  0.8305 -1.1450
  122SOL    HW2  366   2.054   2.424   2.844 -1.9940  0.5244  1.3400
  123SOL     OW  367   2.997   3.077   0.347  0.1255 -0.7014  0.0522
  123SOL    HW1  368   2.953   3.033   0.427  0.5699  0.9648 -0.9207
  123SOL    HW2  369   2.979   0.089   0.344 -1.5761  0.2094  0.5857
  124SOL     OW  370   1.366   1.315   0.220 -0.2175  0.2033  0.2881
  124SOL    HW1  371   1.329   1.250   0.150 -0.5450 -2.7490 -3.3313
  124SOL    HW2  372   1.387   1.265   0.309  0.7169 -1.4125  1.8259
  125SOL     OW  373   0.131   0.812   2.428  0.1210 -0.6803 -0.5783
  125SOL    HW1  374   0.148   0.915   2.432 -3.6223  0.7380 -1.8386
  125SOL    HW2  375   0.136   0.782   2.329  2.3028  0.3610 -3.9005
  126SOL     OW  376   0.092   2.377   0.180 -0.2546 -0.1443  0.3406
  126SOL    HW1  377   0.120   2.403   0.275  0.4621  0.2384  1.6384
  126SOL    HW2  378   0.078   2.460   0.117 -0.8072  1.7825  0.1806
  127SOL     OW  379   2.842   2.017   0.380 -0.5072  0.2870  0.2264
  127SOL    HW1  380   2.745   2.029   0.417  3.7673 -0.1705 -0.5570
  127SOL    HW2  381   2.848   1.971   0.289 -0.2330 -0.5998  1.2958
  128SOL     OW  382   1.340   0.769   0.854  0.3029 -0.0333 -0.2995
  128SOL    HW1  383   1.368   0.864   0.843 -0.9712  0.3863 -0.8081
  128SOL    HW2  384   1.283   0.737   0.771 -1.6269  0.1126 -3.3892
  129SOL     OW  385   2.774   1.857   1.082  0.3458  0.3171  0.2760
  129SOL    HW1  386   2.859   1.890   1.033 -0.3349 -0.7368 -0.1701
  129SOL    HW2  387   2.730   1.933   1.136  0.6082 -1.5459  1.1997
  130SOL     OW  388   1.966   1.042   0.316  0.0467  0.4400 -0.0893
  130SOL    HW1  389   2.054   1.091   0.335  0.9905 -1.4385 -2.2182
  130SOL    HW2  390   1.886   1.105   0.302 -2.4880  2.8904 -0.8323
  131SOL     OW  391   3.036   1.242   2.522  0.1835 -0.4114 -0.2773
  131SOL    HW1  392   2.948   1.251   2.574 -3.0735  2.4343 -0.5596
  131SOL    HW2  393   3.016   1.295   2.434  0.7488  1.1052  0.2889
  132SOL     OW  394   0.954   1.301   2.091  0.4630 -0.0703  0.3048
  132SOL    HW1  395   0.952   1.235   2.167  0.6067 -1.8497 -0.4709
  132SOL    HW2  396   0.860   1.347   2.088 -0.0848 -1.4684 -0.2364
  133SOL     OW  397   0.262   1.174   0.364  0.1927 -0.5649 -0.0088
  133SOL    HW1  398   0.223   1.236   0.296 -2.8455  0.7805 -0.9239
  133SOL    HW2  399   0.349   1.204   0.405  0.3901  3.5742  5.4248
  134SOL     OW  400   2.636   1.062   0.113  0.0387  0.0212  0.5189
  134SOL    HW1  401   2.717   1.034   0.060  0.1304 -1.6811 -1.4605
  134SOL    HW2  402   2.618   1.165   0.113  1.1583 -0.5856  0.3083
  135SOL     OW  403   1.597   0.608   0.027 -0.2675 -0.2896 -0.2552
  135SOL    HW1  404   1.634   0.609   3.022 -0.4720  0.2144  2.0594
  135SOL    HW2  405   1.646   0.525   0.069  2.6284 -2.9301 -1.8269
  136SOL     OW  406   1.976   1.771   1.658 -0.2632 -0.1641  0.2242
  136SOL    HW1  407   1.921   1.798   1.574 -3.8370  1.5158 -2.5044
  136SOL    HW2  408   1.975   1.670   1.677  0.2908  0.9097 -0.9461
  137SOL     OW  409   2.326   2.409   0.976 -0.4610 -0.0833  0.0103
  137SOL    HW1  410   2.245   2.471   0.983  0.4404 -0.1073 -0.2740
  137SOL    HW2  411   2.306   2.311   0.985  0.7260  0.5193  1.9633
  138SOL     OW  412   2.227   0.583   1.603  0.0002  0.0913  0.0935
  138SOL    HW1  413   2.252   0.677   1.626 -0.0082 -0.6553 -1.8314
  138SOL    HW2  414   2.160   0.576   1.526 -0.1945  1.9354 -1.3042
  139SOL     OW  415   2.320   2.884   2.665 -0.1721  0.3766  0.7585
  139SOL    HW1  416   2.275   2.789   2.660 -1.5319 -1.7555  0.7831
  139SOL    HW2  417   2.311   2.931   2.756 -0.1310  0.9312 -0.5433
  140SOL     OW  418   1.520   1.895   2.492  0.1095 -0.4169  0.6237
  140SOL    HW1  419   1.596   1.860   2.441 -2.3855  2.5495  3.0685
  140SOL    HW2  420   1.441   1.825   2.488  0.9719  0.4499 -0.1820
  141SOL     OW  421   0.846   0.940   2.429  0.1787 -0.3692  0.1672
  141SOL    HW1  422   0.770   0.960   2.494  1.0595  1.1656 -0.0378
  141SOL    HW2  423   0.935   0.925   2.476 -1.1737  1.7724  0.0522
  142SOL     OW  424   2.675   2.572   2.252 -0.1256 -0.0530 -0.1540
  142SOL    HW1  425   2.697   2.658   2.202  1.6182 -0.3955  0.5885
  142SOL    HW2  426   2.580   2.543   2.238  3.7142 -0.8253 -0.8066
  143SOL     OW  427   1.027   2.398   0.325  0.6553  0.7052  0.5097
  143SOL    HW1  428   1.088   2.480   0.337 -2.0814 -0.2879  1.9315
  143SOL    HW2  429   0.974   2.384   0.407 -0.5335  2.9019 -1.1700
  144SOL     OW  430   0.903   2.608   0.596  0.0465  0.3196 -0.2909
  144SOL    HW1  431   0.814   2.647   0.593  0.6411  0.3015 -1.0997
  144SOL    HW2  432   0.980   2.674   0.613 -0.6841 -2.7759 -1.0984
  145SOL     OW  433   1.674   2.587   2.351  0.2147  0.2173 -0.3657
  145SOL    HW1  434   1.716   2.512   2.413  0.5651 -1.9460 -1.7759
  145SOL    HW2  435   1.606   2.644   2.403 -1.4692  1.3166 -1.1876
  146SOL     OW  436   2.066   0.010   0.115  0.1962  0.2934 -0.0457
  146SOL    HW1  437   2.114   0.078   0.059 -0.1804 -4.0778  1.3692
  146SOL    HW2  438   1.965   0.016   0.094  0.2334 -0.1074 -0.5123
  147SOL     OW  439   3.002   1.647   1.226  0.4703  0.3113  0.0367
  147SOL    HW1  440   2.983   1.634   1.125 -4.4420  0.3709 -2.6792
  147SOL    HW2  441   2.921   1.618   1.275  2.0794  2.3442 -0.8904
  148SOL     OW  442   1.893   2.945   0.505  0.3865  0.1526  0.2025
  148SOL    HW1  443   1.906   2.857   0.558 -5.3029 -2.5755  0.5856
  148SOL    HW2  444   1.975   2.980   0.454 -4.5215 -1.0513  1.4141
  149SOL     OW  445   0.599   1.768   3.004  0.3211 -0.5067 -0.3438
  149SOL    HW1  446   0.681   1.707   3.001 -3.1502 -0.4224  1.1267
  149SOL    HW2  447   0.605   1.827   2.923 -1.3862 -2.2098 -1.6168
  150SOL     OW  448   0.451   2.783   1.011  0.1084  0.3412  0.3836
  150SOL    HW1  449   0.412   2.764   1.105 -3.9011  1.6063 -2.2743
  150SOL    HW2  450   0.406   2.866   0.972  3.2299  0.9161  0.2012
  151SOL     OW  451   0.169   1.061   3.008 -0.1481 -0.7018 -0.0708
  151SOL    HW1  452   0.233   1.138   2.994  2.5348  1.7034  3.5340
  151SOL    HW2  453   0.119   1.030   2.925 -1.4316  3.1241 -1.1227
  152SOL     OW  454   2.946   2.001   0.918 -0.3469 -0.1865 -0.1514
  152SOL    HW1  455   2.898   2.061   0.847 -0.1763 -0.1747 -1.3690
  152SOL    HW2  456   2.986   1.919   0.879  0.8016  0.9137  1.1085
  153SOL     OW  457   1.745   2.292   0.878 -0.5134 -0.0455 -0.1550
  153SOL    HW1  458   1.787   2.256   0.794  0.0642  1.1042 -0.9917
  153SOL    HW2  459   1.686   2.223   0.923 -0.1772  0.6401  1.6582
  154SOL     OW  460   0.614   2.865   1.334 -0.0317 -0.0920  0.1166
  154SOL    HW1  461   0.567   2.952   1.356 -1.1456  0.7155 -2.3949
  154SOL    HW2  462   0.711   2.883   1.307 -0.3080 -0.8536  0.2043
  155SOL     OW  463   2.804   2.166   0.712 -0.0585  0.2975 -0.3392
  155SOL    HW1  464   2.835   2.264   0.713  1.5027  1.1225 -0.8514
  155SOL    HW2  465   2.700   2.161   0.723 -0.1227 -0.4046 -0.4316
  156SOL     OW  466   2.493   2.222   0.128  0.0608 -0.1730  0.0672
  156SOL    HW1  467   2.588   2.204   0.086  3.2236 -0.4408 -0.0502
  156SOL    HW2  468   2.458   2.138   0.167  3.1838 -2.1116 -2.4500
  157SOL     OW  469   0.448   2.421   1.728  0.0010  0.4053 -0.1250
  157SOL    HW1  470   0.352   2.389   1.734 -0.3935 -0.9333  1.9041
  157SOL    HW2  471   0.496   2.384   1.810 -0.8448 -0.2666 -1.5139
  158SOL     OW  472   1.435   0.445   1.011  0.4226 -0.0453 -0.0303
  158SOL    HW1  473   1.396   0.354   1.036  1.6099 -0.6691 -1.3828
  158SOL    HW2  474   1.485   0.485   1.087  0.1970 -0.9070 -1.0659
  159SOL     OW  475   1.776   0.943   0.019 -0.3116 -0.2614 -0.1833
  159SOL    HW1  476   1.739   0.892   0.104  2.3497 -1.1461  0.7936
  159SOL    HW2  477   1.709   0.947   3.030 -2.3402  2.3054  1.3253
  160SOL     OW  478   1.143   1.908   0.493  0.4056 -0.0794  0.0631
  160SOL    HW1  479   1.187   1.992   0.462  1.4299  1.0106 -2.3834
  160SOL    HW2  480   1.076   1.867   0.429  0.4331 -1.5064  0.7133
  161SOL     OW  481   2.551   2.290   2.511  0.0233  0.3323 -0.5074
  161SOL    HW1  482   2.649   2.258   2.490  1.6493 -2.1039 -0.4595
  161SOL    HW2  483   2.547   2.377   2.564 -0.2075 -0.9859 -0.1627
  162SOL     OW  484   0.239   2.261   1.505 -0.0966  0.3891  0.4255
  162SOL    HW1  485   0.173   2.209   1.449 -0.5210  0.3825  1.6670
  162SOL    HW2  486   0.240   2.363   1.486 -2.4998  1.0287  2.8556
  163SOL     OW  487   0.225   0.419   2.757 -0.1097  0.3460 -0.6036
  163SOL    HW1  488   0.225   0.376   2.664  0.0508  0.8456  0.6046
  163SOL    HW2  489   0.134   0.454   2.789  0.0968 -0.4172  0.4837
  164SOL     OW  490   0.131   2.533   2.890 -0.2881 -0.6353 -0.0774
  164SOL    HW1  491   0.198   2.591   2.839  0.4299  1.8303  1.3384
  164SOL    HW2  492   0.130   2.559   2.989 -1.5294  0.2283 -0.6274
  165SOL     OW  493   2.922   0.885   1.571  0.2329  0.6113  0.5490
  165SOL    HW1  494   2.853   0.845   1.631 -3.5522 -0.3952 -0.2140
  165SOL    HW2  495   2.912   0.850   1.475 -0.6123  0.9263 -2.8027
  166SOL     OW  496   2.205   1.713   1.352 -0.7547  0.3796 -0.0868
  166SOL    HW1  497   2.266   1.642   1.397 -1.2561  2.5746 -2.1837
  166SOL    HW2  498   2.119   1.663   1.330 -0.2225 -1.2498  1.6171
  167SOL     OW  499   0.343   0.474   2.326 -0.4618  0.7930 -0.6357
  167SOL    HW1  500   0.332   0.496   2.227 -1.3060 -0.3127  1.4385
  167SOL    HW2  501   0.345   0.554   2.388 -1.4836 -1.8176  0.0722
  168SOL     OW  502   2.182   0.048   2.160 -0.3106 -0.4305  0.2252
  168SOL    HW1  503   2.195   3.070   2.080 -1.1318 -1.7187 -1.2045
  168SOL    HW2  504   2.146   3.087   2.239  0.9078  1.4636 -2.7498
  169SOL     OW  505   0.497   1.060   3.017 -0.0246  0.3169 -0.7442
  169SOL    HW1  506   0.457   1.132   2.961  2.4835 -1.9395  0.3792
  169SOL    HW2  507   0.534   0.991   2.957 -2.3632  0.7378  1.8988
  170SOL     OW  508   0.701   1.428   1.323 -0.1326 -0.3170 -0.2862
  170SOL    HW1  509   0.772   1.381   1.379  0.4381  3.2065 -0.6008
  170SOL    HW2  510   0.614   1.379   1.326 -1.0545 -1.9197 -0.0382
  171SOL     OW  511   1.119   2.624   1.523 -0.4049  0.3141  0.5719
  171SOL    HW1  512   1.181   2.667   1.455  0.7774 -2.3223  1.9218
  171SOL    HW2  513   1.154   2.527   1.534  2.5136  0.3657 -0.8685
  172SOL     OW  514   1.228   2.963   1.960  0.3719  0.0207 -0.3157
  172SOL    HW1  515   1.160   2.983   2.032  2.4203 -0.7751 -0.8340
  172SOL    HW2  516   1.253   3.050   1.909  0.0732  2.4468 -1.1692
  173SOL     OW  517   1.189   2.429   1.006 -0.1835  0.0383  0.1861
  173SOL    HW1  518   1.116   2.452   1.081 -2.3872  2.2479  1.8817
  173SOL    HW2  519   1.146   2.396   0.919  1.0520  0.5577 -0.2852
  174SOL     OW  520   2.108   0.022   0.691  0.1068  0.6292  0.3832
  174SOL    HW1  521   2.009   0.051   0.677 -0.6202  0.2178 -2.4805
  174SOL    HW2  522   2.167   0.068   0.631 -2.5654 -0.9205  3.1480
  175SOL     OW  523   1.234   1.211   0.660  0.0041 -0.2013  0.0047
  175SOL    HW1  524   1.214   1.304   0.693  3.7475 -0.4586  1.0501
  175SOL    HW2  525   1.151   1.171   0.614 -2.1368 -3.4594  1.0467
  176SOL     OW  526   0.791   1.551   0.436  0.5238 -0.0767  0.3479
  176SOL    HW1  527   0.794   1.537   0.535  0.0399  0.6313 -0.8166
  176SOL    HW2  528   0.852   1.486   0.384  1.0188 -0.6640 -0.8651
  177SOL     OW  529   1.456   1.385   0.883  0.1319  0.3528 -0.3296
  177SOL    HW1  530   1.448   1.378   0.783  0.9511  1.6249  0.0080
  177SOL    HW2  531   1.553   1.370   0.911  1.2279  1.3444 -2.1709
  178SOL     OW  532   2.015   1.720   0.033 -0.1894  0.6702  0.6549
  178SOL    HW1  533   2.040   1.801   3.068  0.4549  1.4097  2.9730
  178SOL    HW2  534   2.097   1.678   0.071 -2.5785 -0.8352 -0.0722
  179SOL     OW  535   1.370   2.798   3.080  0.1031  0.2918 -0.0763
  179SOL    HW1  536   1.395   2.734   0.075 -2.3083 -2.8074  1.7182
  179SOL    HW2  537   1.267   2.796   3.068 -0.9222  2.6248  1.7847
  180SOL     OW  538   2.031   1.341   1.547 -0.2912  0.0837  0.3907
  180SOL    HW1  539   2.058   1.324   1.646  0.1288 -0.2369  0.8505
  180SOL    HW2  540   2.115   1.358   1.494 -2.3594 -1.2591  0.9241
  181SOL     OW  541   1.039   0.719   1.872 -0.4383  0.0000 -0.1630
  181SOL    HW1  542   1.120   0.665   1.906 -0.1427 -0.8331 -1.9703
  181SOL    HW2  543   0.960   0.716   1.932  1.0226  2.2418 -2.7838
  182SOL     OW  544   0.186   1.066   2.416  0.8548 -0.7689  0.1760
  182SOL    HW1  545   0.106   1.126   2.443  2.0347 -0.7169  2.7942
  182SOL    HW2  546   0.201   1.077   2.317  2.7671 -2.1787 -1.0714
  183SOL     OW  547   1.478   0.589   2.312 -0.0172  0.0251  1.0608
  183SOL    HW1  548   1.580   0.594   2.327 -0.2314 -0.1015  0.3082
  183SOL    HW2  549   1.439   0.532   2.387  0.4952  1.5062 -2.4876
  184SOL     OW  550   0.673   0.364   1.075  0.3787  0.1448 -0.4892
  184SOL    HW1  551   0.711   0.424   1.150 -0.1767 -0.5666 -0.3378
  184SOL    HW2  552   0.628   0.278   1.107 -0.1218  0.8758 -2.2974
  185SOL     OW  553   2.263   1.410   0.647  0.7369  0.4984 -0.2249
  185SOL    HW1  554   2.357   1.392   0.670 -2.2442  0.8250  0.5794
  185SOL    HW2  555   2.245   1.431   0.553 -1.4751  0.5035 -1.0593
  186SOL     OW  556   0.471   1.989   0.308 -0.2530 -0.2270 -0.5320
  186SOL    HW1  557   0.522   1.978   0.223  0.4065  2.2662 -0.0019
  186SOL    HW2  558   0.372   1.979   0.296  2.9969 -1.6059 -0.0176
  187SOL     OW  559   2.009   2.203   3.062 -0.1040 -0.0128 -0.3639
  187SOL    HW1  560   2.040   2.103   3.087  0.4697 -3.3577  2.2333
  187SOL    HW2  561   2.053   2.246   2.982 -0.4570  0.3890  2.1640
  188SOL     OW  562   1.352   1.986   1.459 -0.2190 -0.3654 -0.5478
  188SOL    HW1  563   1.414   1.915   1.413  0.3141 -2.4701  0.3759
  188SOL    HW2  564   1.255   1.985   1.422 -2.6944  1.0216 -2.3128
  189SOL     OW  565   2.233   1.463   2.339 -0.2350 -0.5264  0.3464
  189SOL    HW1  566   2.162   1.391   2.329  1.0338  1.2875 -0.1807
  189SOL    HW2  567   2.202   1.551   2.375  2.1295  0.1114 -2.4445
  190SOL     OW  568   0.887   2.453   2.161 -0.7747 -0.0338 -0.0810
  190SOL    HW1  569   0.981   2.469   2.199  0.5545  4.5861  2.8235
  190SOL    HW2  570   0.815   2.520   2.189 -2.5732  0.7824 -2.0808
  191SOL     OW  571   2.607   1.190   1.246  0.1067  0.5867  0.6135
  191SOL    HW1  572   2.573   1.184   1.337  1.0708  0.8951 -4.9110
  191SOL    HW2  573   2.602   1.096   1.211 -1.4045 -0.2358  3.5069
  192SOL     OW  574   2.765   0.622   1.719  0.1441 -0.2051  0.1511
  192SOL    HW1  575   2.695   0.553   1.750 -0.5528 -0.1540  0.1424
  192SOL    HW2  576   2.847   0.627   1.780 -1.0227  0.8436 -2.3006
  193SOL     OW  577   0.970   0.302   0.034  0.3110 -0.6943  1.0148
  193SOL    HW1  578   0.987   0.206   0.055  0.4944  1.4349 -0.1764
  193SOL    HW2  579   0.893   0.309   3.056  1.3994 -1.8984  0.7479
  194SOL     OW  580   1.190   2.364   1.495  0.0654 -0.2236 -0.3088
  194SOL    HW1  581   1.120   2.290   1.516  2.3400 -0.8405 -0.9877
  194SOL    HW2  582   1.224   2.361   1.400 -3.4410 -0.9351  0.6876
  195SOL     OW  583   2.468   1.261   0.315  0.3941  0.0918 -0.3985
  195SOL    HW1  584   2.525   1.207   0.371  0.8168 -0.5546 -3.8326
  195SOL    HW2  585   2.376   1.216   0.318  1.8195 -0.4062 -2.5591
  196SOL     OW  586   0.697   2.242   1.568  0.1863 -0.3754  0.0347
  196SOL    HW1  587   0.611   2.216   1.513 -2.6900 -1.3204 -1.8275
  196SOL    HW2  588   0.717   2.341   1.578 -0.5329 -1.2503 -0.0240
  197SOL     OW  589   3.015   0.556   2.097 -0.4564  0.3867  0.3411
  197SOL    HW1  590   3.078   0.475   2.091  3.2321 -1.8995 -1.5108
  197SOL    HW2  591   2.929   0.538   2.147  1.0469  2.5399  1.8203
  198SOL     OW  592   1.744   1.199   0.290  0.2530  0.3891 -0.0233
  198SOL    HW1  593   1.731   1.247   0.198 -0.4825 -1.2933 -2.3297
  198SOL    HW2  594   1.734   1.272   0.362 -0.5938 -2.8135  0.7576
  199SOL     OW  595   2.464   0.411   1.581 -0.4702 -0.6001  0.2445
  199SOL    HW1  596   2.381   0.472   1.575 -0.6335  0.3451 -2.6360
  199SOL    HW2  597   2.518   0.412   1.494  1.5656  0.9796 -0.0413
  200SOL     OW  598   2.188   0.216   3.072 -0.4899 -0.0278  0.2640
  200SOL    HW1  599   2.279   0.209   0.035  1.4095  0.3528 -1.0884
  200SOL    HW2  600   2.197   0.263   2.979  0.7615 -1.0919 -4.1051
  201SOL     OW  601   2.774   0.256   0.998  0.3696 -0.8182  0.0081
  201SOL    HW1  602   2.808   0.233   1.091 -0.0119 -2.0185  0.7201
  201SOL    HW2  603   2.676   0.281   1.001 -0.9025  0.0331 -0.1513
  202SOL     OW  604   0.009   2.655   0.413  0.1198 -0.5955 -0.1325
  202SOL    HW1  605   0.090   2.606   0.389  0.5443  0.1144 -0.4032
  202SOL    HW2  606   0.030   2.755   0.425  1.3030  1.8881  1.6359
  203SOL     OW  607   1.357   1.735   0.431  0.4837 -0.1634  0.4641
  203SOL    HW1  608   1.274   1.788   0.468 -1.9944  1.9775  0.8447
  203SOL    HW2  609   1.423   1.724   0.509 -2.5099  0.4274  0.3493
  204SOL     OW  610   0.487   1.864   2.342 -0.4074  0.4304  0.7516
  204SOL    HW1  611   0.553   1.883   2.266 -0.2620  0.7434 -2.2322
  204SOL    HW2  612   0.406   1.822   2.302 -0.8732  2.3476  2.4165
  205SOL     OW  613   0.846   0.651   0.798 -0.4112 -0.0634  0.5289
  205SOL    HW1  614   0.845   0.706   0.889 -3.4081 -0.3233 -0.9015
  205SOL    HW2  615   0.942   0.629   0.773 -1.7698  2.3285  0.2454
  206SOL     OW  616   0.379   0.541   2.925 -0.0591 -0.6265 -0.0240
  206SOL    HW1  617   0.397   0.637   2.898 -1.8523 -2.9479 -1.8442
  206SOL    HW2  618   0.332   0.493   2.847 -0.8874  0.1825 -0.2999
  207SOL     OW  619   1.256   2.515   1.871  0.3217  1.0166 -0.8781
  207SOL    HW1  620   1.238   2.584   1.800 -0.7153 -3.0124 -1.2292
  207SOL    HW2  621   1.211   2.426   1.834 -2.3897 -5.0426  1.3308
  208SOL     OW  622   3.020   3.082   1.543  0.0959 -0.0761  0.3645
  208SOL    HW1  623   3.052   2.993   1.507 -0.8654  0.3523 -0.0863
  208SOL    HW2  624   2.918   0.002   1.527 -0.5653 -1.5909  3.2281
  209SOL     OW  625   1.599   0.980   0.662 -0.3229 -0.1996  0.3124
  209SOL    HW1  626   1.534   1.016   0.730 -0.7765  0.5787  1.6967
  209SOL    HW2  627   1.570   1.016   0.570 -2.1150  0.2290 -0.1713
  210SOL     OW  628   2.701   0.938   0.352 -0.3668 -0.0217  0.5604
  210SOL    HW1  629   2.631   0.977   0.416  0.2948  0.0915 -1.5108
  210SOL    HW2  630   2.697   0.977   0.260 -0.2036  0.1376  2.8270
  211SOL     OW  631   1.276   3.061   0.209  0.8800  0.1325  0.3199
  211SOL    HW1  632   1.274   0.039   0.129 -2.1549  1.7302  3.4067
  211SOL    HW2  633   1.366   3.072   0.247  0.0312 -1.4301 -1.0072
  212SOL     OW  634   1.794   2.184   0.643  0.6868  0.4836  0.2081
  212SOL    HW1  635   1.874   2.125   0.657 -0.1758  0.2715  0.5083
  212SOL    HW2  636   1.792   2.220   0.546  0.1458  0.7678 -1.5899
  213SOL     OW  637   2.463   0.102   0.041  0.7632  0.8646 -0.0142
  213SOL    HW1  638   2.525   0.105   0.124 -1.2739  1.8436 -0.4920
  213SOL    HW2  639   2.503   0.147   3.046 -0.5537 -0.9709  2.9537
  214SOL     OW  640   1.048   2.146   2.343 -0.0560 -0.2700 -0.3654
  214SOL    HW1  641   1.135   2.138   2.292 -0.6393 -1.1078  1.4371
  214SOL    HW2  642   0.967   2.158   2.283 -1.1019 -3.3832  1.1845
  215SOL     OW  643   0.269   1.424   0.873 -0.4680 -0.2921 -0.1871
  215SOL    HW1  644   0.254   1.485   0.959 -0.6412 -0.3671 -1.5656
  215SOL    HW2  645   0.363   1.383   0.878  2.5516 -0.3326 -1.7811
  216SOL     OW  646   0.114   2.296   2.720  0.1405 -0.2115  0.3053
  216SOL    HW1  647   0.198   2.287   2.659  0.2305 -1.5150 -2.2405
  216SOL    HW2  648   0.136   2.363   2.795  1.1652 -2.6940 -2.7028
  217SOL     OW  649   2.869   1.271   1.251  0.3326 -0.3558 -0.0081
  217SOL    HW1  650   2.920   1.214   1.181  0.2660 -0.1262  0.0595
  217SOL    HW2  651   2.771   1.249   1.251  2.6465  1.8497  0.8551
  218SOL     OW  652   0.936   2.451   1.880  0.2319  0.5667  0.1098
  218SOL    HW1  653   0.923   2.545   1.847 -0.7981 -0.0612  2.5949
  218SOL    HW2  654   0.920   2.452   1.978  0.9811 -0.1169 -2.8540
  219SOL     OW  655   1.814   1.625   0.428  0.3773  0.6250 -0.7009
  219SOL    HW1  656   1.817   1.703   0.366  0.7424 -1.6512 -0.2744
  219SOL    HW2  657   1.852   1.648   0.522  0.4359  0.7123  0.1289
  220SOL     OW  658   2.044   0.786   0.336 -0.4443  0.2169 -0.3688
  220SOL    HW1  659   2.000   0.879   0.345  0.9197  1.9705  0.8144
  220SOL    HW2  660   1.981   0.712   0.363  0.2265  1.5819  0.3162
  221SOL     OW  661   2.884   0.692   0.079  0.2867 -0.3241  0.2792
  221SOL    HW1  662   2.867   0.671   0.180  1.2360 -1.6110  0.0999
  221SOL    HW2  663   2.984   0.704   0.057 -1.0842 -0.1208  2.0674
  222SOL     OW  664   1.447   1.477   0.621  0.5719 -0.0041 -0.4171
  222SOL    HW1  665   1.348   1.476   0.607  2.6356 -0.1523  1.3189
  222SOL    HW2  666   1.477   1.565   0.662 -3.2967 -1.0989 -1.8459
  223SOL     OW  667   1.174   3.085   2.895  0.7615 -0.6094  0.0954
  223SOL    HW1  668   1.247   3.077   2.827 -1.8807 -0.8556  1.0026
  223SOL    HW2  669   1.163   2.997   2.940  0.1694 -2.0323  0.6017
  224SOL     OW  670   0.869   2.871   1.207  0.3306  0.1093 -0.6614
  224SOL    HW1  671   0.848   2.945   1.139 -2.4171  0.1159 -0.7709
  224SOL    HW2  672   0.969   2.880   1.233 -1.1334  0.1604 -1.9980
  225SOL     OW  673   0.647   2.640   1.947  0.2964  0.7688  0.1513
  225SOL    HW1  674   0.643   2.542   1.916  1.2912  0.4182  1.2362
  225SOL    HW2  675   0.560   2.695   1.941  0.7422  0.9505 -2.4591
  226SOL     OW  676   1.333   1.572   0.214 -0.2752  0.1301  0.0492
  226SOL    HW1  677   1.353   1.627   0.300 -0.8794 -3.1325 -0.2943
  226SOL    HW2  678   1.356   1.469   0.218  0.6544  0.5558  1.0173
  227SOL     OW  679   0.379   1.749   0.859  0.2519 -0.1351 -0.3345
  227SOL    HW1  680   0.449   1.791   0.927 -0.1949 -0.9690  0.5032
  227SOL    HW2  681   0.429   1.689   0.793  1.6716 -2.5906 -0.8654
  228SOL     OW  682   0.265   2.107   0.595  0.7805  0.5061  0.2213
  228SOL    HW1  683   0.344   2.097   0.650 -0.7426 -0.2955 -2.4983
  228SOL    HW2  684   0.203   2.176   0.637 -0.6614  1.8654 -1.4908
  229SOL     OW  685   2.754   0.077   0.082  0.0736 -0.3642  0.0339
  229SOL    HW1  686   2.716   3.077   0.121  1.9165  0.7268  0.8392
  229SOL    HW2  687   2.839   0.053   0.031  0.9440  0.0046  2.1053
  230SOL     OW  688   2.297   1.020   0.520 -0.2910  0.1603  1.3804
  230SOL    HW1  689   2.247   1.089   0.461 -1.9796 -2.3736 -3.9725
  230SOL    HW2  690   2.264   1.013   0.611  0.4040  1.7147 -2.6272
  231SOL     OW  691   1.727   1.413   3.017  0.0991  0.9713 -0.0202
  231SOL    HW1  692   1.649   1.473   3.048  1.2466  0.0047  0.9092
  231SOL    HW2  693   1.802   1.473   2.997 -1.1478  1.0098  0.1436
  232SOL     OW  694   2.346   1.939   0.916 -0.0922  0.0682 -0.1679
  232SOL    HW1  695   2.311   1.849   0.875  0.5424 -1.0386  1.9388
  232SOL    HW2  696   2.381   1.911   1.006 -0.3874  1.0850 -1.3196
  233SOL     OW  697   0.354   2.772   1.266  0.0028  0.2052  0.1354
  233SOL    HW1  698   0.450   2.772   1.294 -1.6269  0.5544  1.4575
  233SOL    HW2  699   0.301   2.856   1.300 -0.1406 -0.9551 -1.0083
  234SOL     OW  700   0.792   3.075   2.400  0.0058  0.2715 -0.4317
  234SOL    HW1  701   0.894   3.062   2.398  0.5262 -1.2603  0.7262
  234SOL    HW2  702   0.755   3.010   2.473 -1.4356 -2.6730  0.8867
  235SOL     OW  703   3.020   1.023   2.147  0.7919 -0.0623  0.2969
  235SOL    HW1  704   3.051   1.052   2.056  1.7140 -0.5099 -1.6286
  235SOL    HW2  705   3.075   0.948   2.191  1.2600  0.9543 -0.1073
  236SOL     OW  706   1.210   2.755   1.747 -0.2901  0.5492  0.7569
  236SOL    HW1  707   1.205   2.826   1.817 -0.7103 -0.9274 -4.3981
  236SOL    HW2  708   1.128   2.736   1.689  0.9398 -1.9465 -0.5025
  237SOL     OW  709   0.569   1.420   2.586 -0.4464 -0.3384  0.9471
  237SOL    HW1  710   0.529   1.332   2.563  1.1487  1.8657  0.4384
  237SOL    HW2  711   0.665   1.419   2.555  0.2990  0.6248  0.7916
  238SOL     OW  712   1.050   0.428   2.444  0.2626 -0.3559  0.0873
  238SOL    HW1  713   1.032   0.493   2.369 -2.5093 -0.1352  1.1783
  238SOL    HW2  714   0.968   0.372   2.482 -0.8110  0.9660  0.2118
  239SOL     OW  715   0.420   2.133   1.983  0.1872 -0.6994  0.1277
  239SOL    HW1  716   0.457   2.045   1.945  0.8567  0.1545 -1.4560
  239SOL    HW2  717   0.483   2.176   2.058  3.1823 -0.2057  2.1761
  240SOL     OW  718   2.576   2.884   0.585  0.4950  0.1084  0.6054
  240SOL    HW1  719   2.524   2.937   0.650 -0.1590 -0.8569  1.0796
  240SOL    HW2  720   2.521   2.841   0.507 -1.6359 -0.7635 -0.7973
  241SOL     OW  721   0.293   0.836   0.016 -0.4946 -0.2766 -0.7229
  241SOL    HW1  722   0.205   0.786   0.026  1.8699 -0.2073 -0.4700
  241SOL    HW2  723   0.279   0.938   0.020  1.5698 -1.1741  0.4201
  242SOL     OW  724   1.847   2.627   1.745 -0.0403 -0.2473  0.1202
  242SOL    HW1  725   1.939   2.604   1.713 -1.3398 -3.3772  0.0648
  242SOL    HW2  726   1.774   2.617   1.672 -2.9392 -0.3114 -0.9425
  243SOL     OW  727   0.654   2.365   1.908  0.6073  0.6660 -0.0670
  243SOL    HW1  728   0.681   2.283   1.862  1.3796 -2.1186 -0.5161
  243SOL    HW2  729   0.629   2.342   2.003  0.4878  3.3163 -0.1423
  244SOL     OW  730   2.348   0.494   2.426 -0.3226  0.1079  1.1836
  244SOL    HW1  731   2.265   0.443   2.388 -1.4609  1.0635 -2.1206
  244SOL    HW2  732   2.346   0.592   2.394  1.3970  1.3623  2.2309
  245SOL     OW  733   1.461   2.889   1.162  0.1148  0.5231 -0.3176
  245SOL    HW1  734   1.477   2.956   1.237 -2.5158 -1.5238  0.5856
  245SOL    HW2  735   1.425   2.936   1.079  1.0587 -0.8729 -1.3897
  246SOL     OW  736   1.394   2.993   0.493 -0.0317 -0.0159  0.1045
  246SOL    HW1  737   1.475   2.975   0.432 -1.1438 -0.4785  0.9938
  246SOL    HW2  738   1.360   2.899   0.524  0.4235 -1.2921  1.8612
  247SOL     OW  739   1.843   0.588   1.926 -0.2552 -0.0725  0.2133
  247SOL    HW1  740   1.775   0.514   1.941  0.8256  1.1924  2.0581
  247SOL    HW2  741   1.864   0.605   1.829 -1.4785 -1.3782  1.6079
  248SOL     OW  742   2.999   2.025   1.785  0.0570  0.5577 -0.3296
  248SOL    HW1  743   3.031   2.035   1.881  0.3660 -2.6000 -0.6072
  248SOL    HW2  744   3.070   1.970   1.729 -1.3481 -0.0326 -1.2826
  249SOL     OW  745   2.981   0.278   0.384 -0.0674 -0.1778  0.4389
  249SOL    HW1  746   2.980   0.291   0.485  1.8428  0.8639  0.9663
  249SOL    HW2  747   3.071   0.321   0.346  3.4527  1.9955  0.5408
  250SOL     OW  748   2.659   0.052   2.518 -0.0217  0.5193 -0.2313
  250SOL    HW1  749   2.649   3.059   2.581 -0.5556 -1.6726 -0.6141
  250SOL    HW2  750   2.610   0.038   2.431 -1.4701 -2.7585  0.6181
  251SOL     OW  751   1.353   0.600   0.164 -0.3704 -0.2179 -0.5953
  251SOL    HW1  752   1.284   0.533   0.130 -1.9709  0.4067 -1.1969
  251SOL    HW2  753   1.439   0.598   0.114 -2.4615  2.2959  0.4500
  252SOL     OW  754   1.144   2.484   2.261  0.0528 -0.2284 -0.0791
  252SOL    HW1  755   1.225   2.447   2.308 -4.5278 -1.6273  0.6657
  252SOL    HW2  756   1.176   2.558   2.201  0.2578  1.0720  3.4339
  253SOL     OW  757   2.108   2.578   0.966  0.0088  0.5507  0.0806
  253SOL    HW1  758   2.064   2.533   0.885  1.1941 -1.8162  0.6483
  253SOL    HW2  759   2.149   2.665   0.940 -1.3628 -0.2637 -1.6135
  254SOL     OW  760   2.436   1.293   1.031 -0.1208 -0.5470  0.9356
  254SOL    HW1  761   2.342   1.276   1.060  2.9878 -1.6566 -1.1399
  254SOL    HW2  762   2.497   1.254   1.097 -0.4250 -0.3591 -0.9285
  255SOL     OW  763   0.773   2.595   1.241 -0.4908  1.1284  0.7759
  255SOL    HW1  764   0.786   2.694   1.250  1.0544 -3.1036  0.3596
  255SOL    HW2  765   0.779   2.571   1.141  0.7747 -0.7280 -0.6581
  256SOL     OW  766   2.192   1.981   1.431 -0.7957  0.4483  0.1820
  256SOL    HW1  767   2.229   1.887   1.414  1.9134 -3.7151 -0.8613
  256SOL    HW2  768   2.203   2.002   1.528  0.3081 -1.4364  2.4431
  257SOL     OW  769   0.328   2.260   2.564  0.2529  0.2495  0.0701
  257SOL    HW1  770   0.380   2.193   2.505 -1.5377  0.5027 -1.5474
  257SOL    HW2  771   0.386   2.337   2.585 -2.4932 -2.2507  0.2979
  258SOL     OW  772   0.662   2.879   0.883  0.1518  0.0387  0.1341
  258SOL    HW1  773   0.585   2.838   0.935 -0.1861 -0.2973  3.0251
  258SOL    HW2  774   0.696   2.962   0.926 -1.7744  2.2590  0.3102
  259SOL     OW  775   1.370   0.527   2.782  0.2901  0.4096 -0.0168
  259SOL    HW1  776   1.366   0.449   2.845 -2.1311 -2.3204  2.1187
  259SOL    HW2  777   1.305   0.595   2.821  0.7507 -0.9766  1.6581
  260SOL     OW  778   0.265   0.932   1.101 -0.0704 -0.0508 -0.2261
  260SOL    HW1  779   0.277   0.993   1.186  1.2014  3.0112  4.4932
  260SOL    HW2  780   0.240   0.992   1.021 -0.9886  0.8371 -0.1537
  261SOL     OW  781   0.462   0.193   2.058 -0.2676  0.1797 -0.1262
  261SOL    HW1  782   0.461   0.269   1.991  0.4613  1.3720  1.3156
  261SOL    HW2  783   0.530   0.202   2.133 -0.4938 -0.6052 -1.1383
  262SOL     OW  784   0.855   2.738   1.815 -0.6261  0.1579  0.7034
  262SOL    HW1  785   0.821   2.769   1.726 -1.6551 -1.7112  0.2556
  262SOL    HW2  786   0.782   2.713   1.883 -2.3326 -3.3733  0.0618
  263SOL     OW  787   0.714   2.280   3.064 -0.4307 -0.0006 -0.1913
  263SOL    HW1  788   0.795   2.332   0.015  1.2335 -1.0361  1.3588
  263SOL    HW2  789   0.632   2.304   0.031 -0.2703 -0.1421  0.7430
  264SOL     OW  790   0.954   1.498   1.081 -0.6561  0.4996  0.0706
  264SOL    HW1  791   0.977   1.439   1.162 -2.2595  1.0395 -1.6150
  264SOL    HW2  792   0.857   1.493   1.048 -2.3912  1.0710 -0.4596
  265SOL     OW  793   0.968   2.345   0.603 -0.2454 -0.0128  0.0117
  265SOL    HW1  794   1.069   2.326   0.599 -1.7931 -1.1307 -1.7966
  265SOL    HW2  795   0.960   2.443   0.616 -0.7695 -0.8451 -0.6061
  266SOL     OW  796   2.587   0.965   1.130  0.0806  0.1007 -0.1902
  266SOL    HW1  797   2.511   0.940   1.065  0.7981  0.3317 -1.4860
  266SOL    HW2  798   2.682   0.952   1.099 -2.9396 -0.7236 -0.4770
  267SOL     OW  799   2.951   1.262   2.953 -0.2227 -0.2224 -0.2391
  267SOL    HW1  800   2.965   1.198   3.031 -1.0804 -0.9372  1.6998
  267SOL    HW2  801   3.041   1.269   2.903  0.8845 -3.4336 -2.1441
  268SOL     OW  802   1.558   0.070   0.261 -0.1963 -0.1284  0.2626
  268SOL    HW1  803   1.604   3.071   0.290 -0.1246  3.9064 -0.9499
  268SOL    HW2  804   1.589   0.157   0.298 -1.6132 -1.9428 -2.7223
  269SOL     OW  805   2.998   0.681   2.510 -0.1806 -0.6924 -0.2903
  269SOL    HW1  806   3.082   0.735   2.499 -1.4079  0.9321  0.5429
  269SOL    HW2  807   2.948   0.669   2.420 -3.1896  0.7175 -1.7168
  270SOL     OW  808   3.031   1.078   0.065 -0.4561 -0.1872  0.2353
  270SOL    HW1  809   3.050   1.057   0.164 -1.2913  0.5988  0.5580
  270SOL    HW2  810   0.028   1.077   0.008 -2.6411  0.8450  1.4091
  271SOL     OW  811   2.913   1.630   2.448  0.1275  0.7990 -0.0243
  271SOL    HW1  812   2.937   1.648   2.545  0.5158 -0.8403  2.9154
  271SOL    HW2  813   2.931   1.709   2.384  0.3672 -0.6135 -0.4097
  272SOL     OW  814   2.497   2.581   1.857  0.0131 -0.3678  0.4065
  272SOL    HW1  815   2.586   2.548   1.831 -1.6787  1.8635  1.9649
  272SOL    HW2  816   2.489   2.563   1.958 -0.7614  0.5185  3.4782
  273SOL     OW  817   0.238   2.498   0.379 -0.4600 -0.2963 -0.3335
  273SOL    HW1  818   0.216   2.493   0.480 -0.5021 -2.4778  2.5264
  273SOL    HW2  819   0.331   2.535   0.358  0.1622 -0.7060 -0.1287
  274SOL     OW  820   0.904   2.333   0.882  0.0048 -0.2186 -0.1189
  274SOL    HW1  821   0.902   2.334   0.777 -0.6921 -0.8325 -0.8239
  274SOL    HW2  822   0.877   2.241   0.915 -1.2912 -0.0232  3.1092
  275SOL     OW  823   1.816   1.885   2.934  0.3117 -0.1048 -0.1157
  275SOL    HW1  824   1.901   1.925   2.973 -0.2843 -0.1865 -1.9069
  275SOL    HW2  825   1.810   1.917   2.837  2.6558 -1.3174  1.8773
  276SOL     OW  826   2.527   1.244   1.720 -0.8997  0.2889 -0.1777
  276SOL    HW1  827   2.446   1.240   1.774  0.9422  0.3376 -0.9044
  276SOL    HW2  828   2.613   1.234   1.776 -0.1223  2.1084  1.2096
  277SOL     OW  829   2.522   0.339   0.946  0.3220  0.5303 -0.1966
  277SOL    HW1  830   2.459   0.363   0.869  0.3445  1.9510 -3.0149
  277SOL    HW2  831   2.470   0.308   1.025  0.4141  0.0483 -0.9575
  278SOL     OW  832   1.726   0.455   2.544 -0.1305 -0.2100 -0.4090
  278SOL    HW1  833   1.669   0.512   2.604 -0.7328 -0.3371 -1.1788
  278SOL    HW2  834   1.827   0.451   2.574  0.0837  0.7682  1.9371
  279SOL     OW  835   1.065   3.036   0.957  0.0704  0.5741  0.6079
  279SOL    HW1  836   1.082   3.040   1.058 -1.9690 -1.8672 -0.3852
  279SOL    HW2  837   0.998   0.017   0.928 -2.5009  0.6340 -1.3626
  280SOL     OW  838   1.096   1.138   0.295 -0.5951 -0.6134 -0.2525
  280SOL    HW1  839   1.193   1.157   0.325  1.6199  0.3017 -1.4989
  280SOL    HW2  840   1.095   1.144   0.192  0.8898 -0.0844  3.2319
  281SOL     OW  841   2.228   1.574   0.134 -0.3756  0.3061  0.8572
  281SOL    HW1  842   2.303   1.633   0.164 -1.4011  2.3294 -3.1800
  281SOL    HW2  843   2.253   1.521   0.053  0.6423 -0.4766  0.6654
  282SOL     OW  844   2.605   1.350   0.103 -0.1983  0.3868 -0.4493
  282SOL    HW1  845   2.533   1.331   0.173  0.5165 -1.7310  1.8257
  282SOL    HW2  846   2.683   1.402   0.138  0.5256  1.1521 -1.1625
  283SOL     OW  847   1.706   2.813   2.810 -0.2226  0.1597 -0.0635
  283SOL    HW1  848   1.696   2.837   2.709  0.4314  0.7244 -1.9753
  283SOL    HW2  849   1.787   2.861   2.843  1.4117 -0.7799  0.1689
  284SOL     OW  850   0.856   0.042   2.855 -0.1827  0.2497  0.3601
  284SOL    HW1  851   0.835   0.133   2.877 -1.9619 -2.3820 -3.0081
  284SOL    HW2  852   0.922   0.002   2.924 -0.4677 -0.5599 -1.6858
  285SOL     OW  853   2.096   1.921   2.713  0.1306  0.0746 -0.1138
  285SOL    HW1  854   2.188   1.913   2.675  1.1389  1.2438  0.1475
  285SOL    HW2  855   2.030   1.944   2.640 -0.7598  0.1447  0.4151
  286SOL     OW  856   1.358   1.632   0.903  0.2120  0.5447 -0.1431
  286SOL    HW1  857   1.411   1.671   0.827 -1.3999  0.3748  1.3649
  286SOL    HW2  858   1.370   1.534   0.902 -0.2557 -1.0190  0.5337
  287SOL     OW  859   1.686   0.132   1.515  0.3389 -0.2269 -0.1774
  287SOL    HW1  860   1.768   0.101   1.572  1.5643 -0.2412  0.5302
  287SOL    HW2  861   1.610   0.069   1.540  3.9762 -0.5479 -0.6924
  288SOL     OW  862   0.683   2.596   2.260 -0.0994 -0.1513  0.0518
  288SOL    HW1  863   0.647   2.684   2.301 -2.8609  3.3048  1.5374
  288SOL    HW2  864   0.621   2.555   2.194  1.2116  0.8419  1.2506
  289SOL     OW  865   0.170   1.398   0.618  0.1341  0.1859 -0.0011
  289SOL    HW1  866   0.069   1.371   0.602 -1.5466 -1.3273 -0.3866
  289SOL    HW2  867   0.195   1.412   0.717  1.3046 -0.0026 -1.3627
  290SOL     OW  868   1.196   1.917   1.684 -0.4279  0.3652  0.3895
  290SOL    HW1  869   1.247   1.935   1.594  3.8258 -1.8681  0.1467
  290SOL    HW2  870   1.229   1.979   1.761  0.2990  3.5960  2.0277
  291SOL     OW  871   1.831   0.091   0.648  0.4206  0.0038 -0.2047
  291SOL    HW1  872   1.806   0.086   0.748 -1.1562  0.2775 -0.6062
  291SOL    HW2  873   1.799   0.015   0.588 -1.9970  1.1833 -2.3831
  292SOL     OW  874   0.403   0.315   1.254 -0.1781 -0.2082 -0.3544
  292SOL    HW1  875   0.306   0.287   1.278 -0.2945 -1.0106  0.6629
  292SOL    HW2  876   0.436   0.375   1.330 -0.9385 -0.3183 -2.7915
  293SOL     OW  877   2.390   1.727   0.650  0.2973  0.1190 -0.0579
  293SOL    HW1  878   2.480   1.747   0.685 -2.6136  2.7824 -0.1726
  293SOL    HW2  879   2.395   1.673   0.560 -0.8871 -1.9873  0.1549
  294SOL     OW  880   0.194   0.178   2.212 -0.4058 -0.3606 -0.0311
  294SOL    HW1  881   0.126   0.139   2.280 -0.9468 -0.5291  1.1619
  294SOL    HW2  882   0.274   0.118   2.186 -0.3686 -2.9478 -0.9565
  295SOL     OW  883   0.878   1.328   0.284 -0.2826 -0.2151  0.1872
  295SOL    HW1  884   0.928   1.247   0.322  0.6088 -0.5365 -3.4777
  295SOL    HW2  885   0.778   1.325   0.304  1.1798 -0.4487  0.6524
  296SOL     OW  886   2.035   1.841   1.020 -0.0877  0.2290 -0.2080
  296SOL    HW1  887   2.116   1.779   1.010 -0.3813  1.7387  1.3766
  296SOL    HW2  888   2.046   1.907   1.096 -1.8347  0.2594 -0.3165
  297SOL     OW  889   1.729   0.595   2.877  0.1184  0.0009  0.3659
  297SOL    HW1  890   1.799   0.666   2.901  1.2583 -2.2754 -2.0230
  297SOL    HW2  891   1.676   0.618   2.790  1.4436  1.8363 -1.2623
  298SOL     OW  892   1.396   3.043   2.733  0.0525 -0.2759  0.3836
  298SOL    HW1  893   1.413   2.947   2.762  2.6102 -1.9344 -0.9628
  298SOL    HW2  894   1.461   0.019   2.785 -0.4743 -1.3561 -1.1707
  299SOL     OW  895   0.898   0.206   2.106 -0.1257  0.0713  0.3754
  299SOL    HW1  896   0.953   0.173   2.182  1.7500 -1.6390 -0.9200
  299SOL    HW2  897   0.920   0.148   2.024 -0.3929  0.0690 -2.5004
  300SOL     OW  898   2.539   0.157   1.639  0.1118 -0.6164 -0.8926
  300SOL    HW1  899   2.563   0.150   1.736  0.6189  1.2515 -0.1222
  300SOL    HW2  900   2.528   0.254   1.609 -1.3000 -3.6295 -1.5639
  301SOL     OW  901   2.118   0.784   1.843  0.0990 -0.0604 -0.1373
  301SOL    HW1  902   2.213   0.805   1.818 -2.2287 -1.2037 -2.3081
  301SOL    HW2  903   2.075   0.720   1.782  0.7397  0.4423  1.0354
  302SOL     OW  904   0.714   2.909   0.088  0.1890 -0.1846  0.4154
  302SOL    HW1  905   0.642   2.971   0.112  2.7197  0.1732  3.1429
  302SOL    HW2  906   0.732   2.856   0.175 -0.8732 -1.7887  1.7612
  303SOL     OW  907   1.866   1.877   1.894  0.0013 -0.3974  0.1671
  303SOL    HW1  908   1.918   1.854   1.808  1.4686  0.1255 -2.3278
  303SOL    HW2  909   1.808   1.962   1.875  0.6106 -0.2178  2.3699
  304SOL     OW  910   0.273   0.287   0.899  0.2378 -0.0025  0.2327
  304SOL    HW1  911   0.346   0.242   0.844  0.4395  0.7050 -0.4525
  304SOL    HW2  912   0.316   0.374   0.946 -1.2989  2.7615  0.0544
  305SOL     OW  913   0.768   1.009   0.523 -0.0802  0.1201 -1.2618
  305SOL    HW1  914   0.748   0.993   0.424 -0.0029 -1.2957 -1.5517
  305SOL    HW2  915   0.756   0.918   0.572  0.4742 -0.3955 -2.5691
  306SOL     OW  916   0.513   1.449   2.963  0.1399  0.2943  0.1715
  306SOL    HW1  917   0.568   1.464   3.045 -2.6489 -0.5980 -2.4141
  306SOL    HW2  918   0.418   1.477   2.987  2.4878  1.5472 -0.0627
  307SOL     OW  919   0.843   0.441   1.951  0.3731  0.1029 -0.1886
  307SOL    HW1  920   0.875   0.403   1.867  0.4074  1.7206 -1.2079
  307SOL    HW2  921   0.890   0.388   2.025  1.3582 -1.1112 -0.2140
  308SOL     OW  922   0.680   0.399   0.815  0.1671  0.3362 -0.7844
  308SOL    HW1  923   0.677   0.383   0.915 -2.5971 -1.6623 -1.8902
  308SOL    HW2  924   0.729   0.486   0.800  2.2273  0.2016  2.5367
  309SOL     OW  925   2.202   1.199   0.347  0.6127  0.4200  0.3652
  309SOL    HW1  926   2.166   1.289   0.360 -0.5053 -4.8571 -3.5665
  309SOL    HW2  927   2.206   1.183   0.245  0.8084 -1.3042 -2.6226
  310SOL     OW  928   0.937   1.281   0.009 -0.1411 -0.3063  0.2123
  310SOL    HW1  929   1.028   1.311   3.070  0.7753 -1.0735  0.7511
  310SOL    HW2  930   0.908   1.312   0.100  1.7042 -1.4073 -0.5547
  311SOL     OW  931   1.998   2.594   2.155 -0.3735  0.2046 -0.3229
  311SOL    HW1  932   2.006   2.527   2.082 -2.2043  3.7432  1.0593
  311SOL    HW2  933   1.902   2.630   2.157  2.2085 -0.4297 -0.0724
  312SOL     OW  934   2.337   2.940   0.136 -0.0237 -0.6960  0.2342
  312SOL    HW1  935   2.257   2.954   0.195  1.2043 -0.6478  0.4932
  312SOL    HW2  936   2.367   3.023   0.087  5.3103 -0.0350  0.4012
  313SOL     OW  937   0.597   0.458   3.061  0.1046 -0.2939  0.1231
  313SOL    HW1  938   0.685   0.509   0.004 -0.2220  0.9425  2.7981
  313SOL    HW2  939   0.532   0.518   3.006 -1.7806  1.1438 -1.7989
  314SOL     OW  940   2.569   1.444   2.671 -0.6375 -0.0329 -0.3334
  314SOL    HW1  941   2.556   1.402   2.764 -0.9529  0.2579  2.0928
  314SOL    HW2  942   2.631   1.526   2.678 -2.2257 -0.6154  1.1504
  315SOL     OW  943   1.695   0.743   2.095  0.3340  0.9905  0.8106
  315SOL    HW1  944   1.774   0.703   2.038  1.7621  0.6438 -0.9354
  315SOL    HW2  945   1.697   0.705   2.190 -0.9611 -0.5001 -2.2875
  316SOL     OW  946   2.893   1.038   0.555  0.3604 -0.0677  0.1180
  316SOL    HW1  947   2.819   1.018   0.489 -1.1842  0.4868  0.9052
  316SOL    HW2  948   2.890   0.956   0.622 -1.2624  1.3621 -0.1243
  317SOL     OW  949   0.538   0.013   0.145  0.2735 -0.3942  0.2590
  317SOL    HW1  950   0.518   0.081   0.073  1.6189  1.6481  0.4208
  317SOL    HW2  951   0.598   0.057   0.218 -0.0612  1.0590 -1.2154
  318SOL     OW  952   1.760   2.646   1.206 -0.3403  0.2332 -0.4635
  318SOL    HW1  953   1.745   2.618   1.300 -0.3589  1.2615 -3.2315
  318SOL    HW2  954   1.831   2.582   1.158  2.9381 -2.5199  0.1507
  319SOL     OW  955   1.098   1.501   0.316  0.3193 -0.2360 -0.3906
  319SOL    HW1  956   1.025   1.432   0.293 -2.7920 -0.3874 -2.4340
  319SOL    HW2  957   1.175   1.511   0.251 -1.8369 -0.2812  0.7633
  320SOL     OW  958   0.590   2.104   1.139 -0.4057 -0.1387  0.6142
  320SOL    HW1  959   0.523   2.164   1.099 -0.4301 -0.8072  0.0531
  320SOL    HW2  960   0.667   2.148   1.190 -0.6442  1.0643  0.5134
  321SOL     OW  961   2.436   2.504   2.111  0.3738 -0.3718  0.4895
  321SOL    HW1  962   2.404   2.406   2.128  0.5697 -1.6010  2.0747
  321SOL    HW2  963   2.363   2.574   2.114 -0.1930  0.3976 -0.8165
  322SOL     OW  964   2.329   2.302   2.346  0.0385 -0.7539 -0.2352
  322SOL    HW1  965   2.418   2.305   2.394 -1.3505 -0.4214  2.0635
  322SOL    HW2  966   2.262   2.372   2.375  2.7291 -1.8204 -0.2598
  323SOL     OW  967   2.393   0.901   0.910 -0.0352 -0.2242 -0.2358
  323SOL    HW1  968   2.325   0.948   0.850  2.1232 -0.7604 -0.8128
  323SOL    HW2  969   2.445   0.842   0.850 -1.0407  1.8550  2.1372
  324SOL     OW  970   2.336   2.267   2.076 -0.0877 -0.7777  0.1756
  324SOL    HW1  971   2.323   2.248   2.174  0.9388 -3.8244 -2.2008
  324SOL    HW2  972   2.331   2.184   2.021 -0.5555 -0.6965  1.3321
  325SOL     OW  973   1.343   0.439   2.491 -0.0408  0.0362 -0.0872
  325SOL    HW1  974   1.240   0.443   2.476 -1.3383 -1.1882 -1.6936
  325SOL    HW2  975   1.366   0.449   2.591 -0.6616 -1.0079  1.9408
  326SOL     OW  976   2.557   2.490   1.114 -0.3450 -0.0065 -0.4147
  326SOL    HW1  977   2.593   2.553   1.048  2.7118  0.2765 -1.8638
  326SOL    HW2  978   2.455   2.468   1.090 -0.5113  0.7457  2.0545
  327SOL     OW  979   2.615   2.962   0.251 -0.5986  0.5082  0.1201
  327SOL    HW1  980   2.529   2.902   0.262  0.1788  0.1340 -1.0663
  327SOL    HW2  981   2.609   3.048   0.309  2.3156  1.2264  1.8649
  328SOL     OW  982   0.713   0.761   0.610  0.0977 -0.2675  0.2154
  328SOL    HW1  983   0.762   0.710   0.679  1.0442 -1.3680 -1.7061
  328SOL    HW2  984   0.618   0.775   0.639  2.9255 -0.6829 -1.1572
  329SOL     OW  985   1.883   0.675   1.254  0.0301 -0.6799 -0.0964
  329SOL    HW1  986   1.874   0.725   1.161 -1.2084  2.6971 -2.3878
  329SOL    HW2  987   1.970   0.624   1.258 -0.4109 -0.1230 -2.8047
  330SOL     OW  988   0.750   0.570   0.378 -1.0045 -0.2786 -0.1390
  330SOL    HW1  989   0.823   0.626   0.332  2.1412  0.9344 -0.2907
  330SOL    HW2  990   0.708   0.625   0.454  0.7250 -0.9819  1.5481
  331SOL     OW  991   0.799   1.763   1.814  0.4829 -0.6357 -0.4717
  331SOL    HW1  992   0.866   1.715   1.876  1.0278 -0.5583  0.2877
  331SOL    HW2  993   0.849   1.823   1.750 -1.5432 -1.7583 -2.4724
  332SOL     OW  994   2.128   2.405   1.979 -0.0513 -0.0906  0.0553
  332SOL    HW1  995   2.196   2.354   2.032 -0.6199  0.8700 -1.5062
  332SOL    HW2  996   2.174   2.432   1.891  0.4561 -2.0763 -0.5900
  333SOL     OW  997   3.026   0.089   1.191  0.3069  0.3125 -0.4029
  333SOL    HW1  998   2.928   0.115   1.207 -0.3797 -0.2703 -2.1505
  333SOL    HW2  999   3.034   3.076   1.176 -0.3099  3.2440  0.7670
  334SOL     OW 1000   3.043   1.777   0.750  0.1013  0.0443  0.1960
  334SOL    HW1 1001   2.970   1.775   0.683  0.0244  0.5367  1.4833
  334SOL    HW2 1002   0.046   1.788   0.708 -1.0670 -0.5403  2.0885
  335SOL     OW 1003   0.412   2.499   2.659  0.9783  0.4311 -0.3300
  335SOL    HW1 1004   0.395   2.424   2.730 -0.6347  0.0429  0.2065
  335SOL    HW2 1005   0.378   2.587   2.699  0.1541  1.3838 -1.5290
  336SOL     OW 1006   0.250   2.659   2.062  0.6648 -0.4784 -0.2354
  336SOL    HW1 1007   0.186   2.580   2.065  0.7360 -0.3277 -1.2099
  336SOL    HW2 1008   0.203   2.746   2.091  0.9737 -0.9606  0.7771
  337SOL     OW 1009   1.269   2.109   1.885  0.3229  0.4374  0.3702
  337SOL    HW1 1010   1.320   2.176   1.829  1.3778  0.9880  0.4538
  337SOL    HW2 1011   1.341   2.039   1.908  0.3200 -0.5581 -0.7681
  338SOL     OW 1012   1.311   0.026   2.460  0.2261  0.5220 -0.0310
  338SOL    HW1 1013   1.216   0.009   2.441  3.3063 -0.0999  1.3159
  338SOL    HW2 1014   1.331   0.019   2.561 -2.5994  0.9004  0.2825
  339SOL     OW 1015   0.311   0.638   2.594 -0.1302  0.3955 -0.0252
  339SOL    HW1 1016   0.258   0.709   2.555 -0.7642 -2.1149  2.6775
  339SOL    HW2 1017   0.250   0.584   2.655 -1.7560 -1.5491  1.2311
  340SOL     OW 1018   2.132   0.558   1.333  0.6705 -0.6623  0.3430
  340SOL    HW1 1019   2.214   0.590   1.278  0.1502  2.2469 -1.6030
  340SOL    HW2 1020   2.134   0.459   1.347  0.7279  0.6938 -2.4495
  341SOL     OW 1021   2.205   1.360   1.315 -0.0224  0.0177  0.5439
  341SOL    HW1 1022   2.277   1.432   1.309 -1.2956  2.0341 -0.8316
  341SOL    HW2 1023   2.191   1.317   1.220  2.3255  1.7763 -3.0990
  342SOL     OW 1024   2.023   2.776   2.767 -0.0342  0.2012  0.2375
  342SOL    HW1 1025   2.003   2.840   2.843 -0.5473  1.7461 -0.6552
  342SOL    HW2 1026   2.036   2.682   2.808  1.8562  0.1522  2.4049
  343SOL     OW 1027   2.959   2.533   1.172  0.3092 -0.4512  0.0645
  343SOL    HW1 1028   3.054   2.497   1.192 -0.0324  0.4827  2.6065
  343SOL    HW2 1029   2.920   2.590   1.244 -1.3793 -0.7149 -2.2299
  344SOL     OW 1030   2.287   0.009   0.996  0.2684  0.0612  0.0948
  344SOL    HW1 1031   2.248   0.103   0.993  0.3918 -1.4309 -2.0042
  344SOL    HW2 1032   2.242   3.040   0.926 -1.6795 -2.0637 -1.8126
  345SOL     OW 1033   2.662   2.299   0.432  0.1290 -0.5806  0.3204
  345SOL    HW1 1034   2.748   2.340   0.395  1.7199 -2.6073  2.1827
  345SOL    HW2 1035   2.605   2.368   0.480  1.6059  0.4277 -0.6126
  346SOL     OW 1036   1.575   2.037   1.681  0.1970  0.6206 -0.1665
  346SOL    HW1 1037   1.584   2.111   1.746 -0.8374 -2.9263 -0.5813
  346SOL    HW2 1038   1.501   2.060   1.618  1.0570  0.4826  0.4457
  347SOL     OW 1039   1.278   1.644   1.309 -0.0733  0.0271  0.2421
  347SOL    HW1 1040   1.249   1.701   1.229  0.4396  0.5434 -0.5638
  347SOL    HW2 1041   1.358   1.686   1.353 -0.3975 -2.1444 -2.8214
  348SOL     OW 1042   0.580   1.819   1.634  0.0988 -0.1362  0.3856
  348SOL    HW1 1043   0.644   1.897   1.636 -1.1276  0.7865  2.3203
  348SOL    HW2 1044   0.637   1.735   1.635  0.0421 -2.6114 -0.7649
  349SOL     OW 1045   1.584   1.509   1.527  0.6388 -0.2396 -0.3506
  349SOL    HW1 1046   1.541   1.434   1.590  0.2481 -2.2453  2.2312
  349SOL    HW2 1047   1.564   1.601   1.569 -0.1923 -0.4017 -1.7287
  350SOL     OW 1048   2.177   2.240   0.625 -0.1347  0.0663 -0.6711
  350SOL    HW1 1049   2.268   2.279   0.656  3.0474  0.3471 -1.7210
  350SOL    HW2 1050   2.172   2.248   0.525 -2.7079 -0.4841  1.7387
  351SOL     OW 1051   0.203   3.018   1.736  0.4743  0.4316  0.9585
  351SOL    HW1 1052   0.271   2.938   1.723  3.2094 -1.2757 -1.2158
  351SOL    HW2 1053   0.229   0.004   1.666 -0.0772  2.6395 -2.2597
  352SOL     OW 1054   0.609   1.211   0.634  0.2920  0.2452 -0.1552
  352SOL    HW1 1055   0.699   1.252   0.631 -2.3157  2.2267  1.8474
  352SOL    HW2 1056   0.604   1.114   0.604  0.2129 -2.4127 -0.2296
  353SOL     OW 1057   1.137   1.868   2.667 -0.4918 -0.2157 -0.2145
  353SOL    HW1 1058   1.113   1.967   2.661 -2.7824  0.2136 -2.0210
  353SOL    HW2 1059   1.090   1.828   2.751 -2.7602 -1.9667  0.6483
  354SOL     OW 1060   1.866   2.906   1.852  0.6716 -0.1583 -0.0018
  354SOL    HW1 1061   1.911   2.898   1.944 -0.7531 -2.4916  0.6176
  354SOL    HW2 1062   1.874   2.815   1.814 -1.1519  2.8257  0.4801
  355SOL     OW 1063   2.213   1.162   0.062  0.3038  0.1608  0.2683
  355SOL    HW1 1064   2.219   1.260   0.034  0.3969 -0.2361  0.5891
  355SOL    HW2 1065   2.119   1.128   0.032 -0.8429  0.7178  0.2164
  356SOL     OW 1066   0.332   2.098   1.006  0.3653  0.0426 -0.0398
  356SOL    HW1 1067   0.231   2.085   1.005  3.7144  0.4552 -1.4455
  356SOL    HW2 1068   0.370   2.039   1.079  1.6150  0.9523 -0.1774
  357SOL     OW 1069   2.953   2.889   1.742  0.4106  0.4376  0.4282
  357SOL    HW1 1070   2.996   2.802   1.703  1.7312 -0.8160 -0.5375
  357SOL    HW2 1071   2.993   2.972   1.695 -1.5428 -0.4943  1.8007
  358SOL     OW 1072   2.414   1.715   1.632 -0.1999 -0.1813  0.3028
  358SOL    HW1 1073   2.438   1.755   1.543 -1.2765 -0.6824 -0.3733
  358SOL    HW2 1074   2.466   1.634   1.646 -2.6097  4.1604 -2.4431
  359SOL     OW 1075   1.933   2.825   2.517  0.2735  0.1438 -0.1537
  359SOL    HW1 1076   1.967   2.812   2.612  1.1322  1.8348 -1.1686
  359SOL    HW2 1077   1.931   2.735   2.468  1.4936 -0.8623 -0.1772
  360SOL     OW 1078   0.945   2.803   0.871  0.0166 -0.9601  0.5782
  360SOL    HW1 1079   0.846   2.822   0.889 -1.9956  1.0116  0.5772
  360SOL    HW2 1080   0.999   2.864   0.927 -2.4884 -0.0287 -0.1907
  361SOL     OW 1081   1.823   0.349   0.583 -0.1157  0.0746 -0.5471
  361SOL    HW1 1082   1.836   0.246   0.584  2.8650  0.2159  1.4293
  361SOL    HW2 1083   1.806   0.382   0.679  2.5705  2.9901 -0.6483
  362SOL     OW 1084   1.398   0.796   1.262 -0.1841 -0.2555  0.2886
  362SOL    HW1 1085   1.441   0.873   1.312  2.3873  1.2846 -1.5224
  362SOL    HW2 1086   1.349   0.823   1.180 -0.4883  0.6871  1.5863
  363SOL     OW 1087   1.922   1.480   2.135 -0.6142  0.0530  0.0571
  363SOL    HW1 1088   1.907   1.412   2.209 -2.1259 -1.2007  0.5122
  363SOL    HW2 1089   2.024   1.499   2.119 -0.8387 -1.9223 -1.7686
  364SOL     OW 1090   0.564   0.696   1.270  0.3209 -0.1998  0.1486
  364SOL    HW1 1091   0.542   0.738   1.181 -1.8520  0.2690  1.2569
  364SOL    HW2 1092   0.655   0.652   1.268  2.1259  0.5421  0.6466
  365SOL     OW 1093   0.435   0.222   2.425 -0.3469  0.1838  0.0567
  365SOL    HW1 1094   0.404   0.315   2.394 -2.6248 -0.4706  0.5452
  365SOL    HW2 1095   0.515   0.184   2.370  4.5190 -0.4736 -1.8086
  366SOL     OW 1096   2.340   1.897   2.568  0.0282  0.3493  0.1048
  366SOL    HW1 1097   2.421   1.843   2.593 -1.9573  2.1021 -0.3053
  366SOL    HW2 1098   2.354   1.994   2.599 -1.1081 -1.1516 -0.7578
  367SOL     OW 1099   2.737   2.555   0.028 -0.5058 -0.0824  0.2947
  367SOL    HW1 1100   2.762   2.621   0.098 -0.4368 -3.4876 -3.1760
  367SOL    HW2 1101   2.737   2.603   3.025  0.8615 -0.2684 -0.2978
  368SOL     OW 1102   2.984   1.604   0.973 -0.1992 -0.2011  0.5140
  368SOL    HW1 1103   3.014   1.512   0.940 -1.4349 -2.4756 -0.0804
  368SOL    HW2 1104   2.981   1.669   0.892  0.6784 -0.5636 -1.0130
  369SOL     OW 1105   0.556   2.847   2.282 -0.3440 -0.3794 -0.3181
  369SOL    HW1 1106   0.569   2.922   2.349  0.7182 -2.1920 -2.6962
  369SOL    HW2 1107   0.627   2.862   2.211  0.9278  1.3906 -0.0166
  370SOL     OW 1108   2.980   0.290   0.656 -0.4998 -0.0095 -0.3486
  370SOL    HW1 1109   2.964   0.383   0.698 -1.6838  1.3812  1.4106
  370SOL    HW2 1110   2.928   0.214   0.703  2.4459 -2.4744 -2.2689
  371SOL     OW 1111   1.345   2.277   1.702  0.3968  0.1750 -0.3314
  371SOL    HW1 1112   1.296   2.316   1.621  0.1729 -0.3167 -0.0529
  371SOL    HW2 1113   1.433   2.320   1.716 -1.2903 -1.8867 -1.5317
  372SOL     OW 1114   2.885   0.288   2.318  0.2028 -0.3634  0.5613
  372SOL    HW1 1115   2.922   0.194   2.286  1.4571 -3.5909 -0.7668
  372SOL    HW2 1116   2.928   0.310   2.407 -0.6945 -3.3334  0.2157
  373SOL     OW 1117   0.059   2.290   0.657  0.6031 -0.7389  0.2918
  373SOL    HW1 1118   0.121   2.361   0.687 -2.4422 -3.5477  0.2410
  373SOL    HW2 1119   3.060   2.304   0.708 -0.7230 -0.7777  0.8455
  374SOL     OW 1120   0.229   2.952   2.595  0.2668  0.4714 -0.8303
  374SOL    HW1 1121   0.315   2.996   2.623 -0.5930  1.0006 -1.2475
  374SOL    HW2 1122   0.240   2.928   2.496  0.1008  0.1639  0.0558
  375SOL     OW 1123   0.433   0.031   2.622 -0.0448  0.1210 -0.2025
  375SOL    HW1 1124   0.509   0.055   2.686 -1.0954 -1.2422 -0.8835
  375SOL    HW2 1125   0.409   0.109   2.560 -1.1810  0.7517 -3.3832
  376SOL     OW 1126   2.852   2.243   1.737 -0.7282  0.0613 -0.3555
  376SOL    HW1 1127   2.908   2.159   1.764  2.3490 -3.4978 -0.9033
  376SOL    HW2 1128   2.787   2.222   1.664  0.7481  0.6847  1.6099
  377SOL     OW 1129   1.441   2.779   2.812  0.0414  0.2906 -0.0870
  377SOL    HW1 1130   1.392   2.768   2.899  1.0147 -0.9311  1.3025
  377SOL    HW2 1131   1.543   2.794   2.831  0.1390  0.6675  0.7631
  378SOL     OW 1132   2.977   0.164   2.764 -0.1996 -0.6761 -0.1977
  378SOL    HW1 1133   2.992   0.216   2.674 -1.1306  1.4291  1.2427
  378SOL    HW2 1134   3.017   0.075   2.765  0.1798  3.5192 -1.4297
  379SOL     OW 1135   0.538   1.077   0.199  0.0102  0.0123 -0.2338
  379SOL    HW1 1136   0.521   1.079   0.099 -0.6258  2.0937  1.1008
  379SOL    HW2 1137   0.480   1.003   0.236 -1.3235  0.4523 -0.1798
  380SOL     OW 1138   0.404   1.528   1.797 -0.0662  0.4316  0.3737
  380SOL    HW1 1139   0.498   1.555   1.766  0.9795 -0.5646 -1.0648
  380SOL    HW2 1140   0.417   1.471   1.876 -0.1360  0.1314 -0.8205
  381SOL     OW 1141   0.258   1.124   2.124  0.1121 -0.3750 -0.3096
  381SOL    HW1 1142   0.320   1.072   2.059  0.4302  1.0227 -1.6584
  381SOL    HW2 1143   0.182   1.168   2.074 -2.0410  2.8117  1.0476
  382SOL     OW 1144   2.142   1.958   0.340 -0.0767  0.7430  0.7190
  382SOL    HW1 1145   2.230   1.945   0.292  2.9783  1.0342 -0.7246
  382SOL    HW2 1146   2.145   1.927   0.438 -0.7867 -1.2625  0.0420
  383SOL     OW 1147   0.366   1.819   0.034  0.1967 -0.1367  0.2852
  383SOL    HW1 1148   0.348   1.786   0.125  0.8795  2.0737 -1.9616
  383SOL    HW2 1149   0.463   1.810   0.006  1.3801 -1.6953  2.0036
  384SOL     OW 1150   0.718   2.194   2.597  0.5763  0.3123 -0.4169
  384SOL    HW1 1151   0.751   2.147   2.682  2.1096  1.9652 -1.0358
  384SOL    HW2 1152   0.750   2.286   2.594 -1.7302 -1.0326  0.1396
  385SOL     OW 1153   2.151   1.844   0.583  0.7643  0.0856  0.0550
  385SOL    HW1 1154   2.238   1.805   0.624 -1.8030 -0.2606  3.1666
  385SOL    HW2 1155   2.112   1.909   0.652  0.1997 -0.2526 -2.5409
  386SOL     OW 1156   2.319   0.965   1.410  0.3865  0.2572 -0.3717
  386SOL    HW1 1157   2.318   0.934   1.312 -0.0823  0.9850  1.7234
  386SOL    HW2 1158   2.396   1.024   1.429 -3.4262 -2.0908  1.3581
  387SOL     OW 1159   2.742   1.338   2.127 -0.0524  0.5680 -0.6131
  387SOL    HW1 1160   2.694   1.419   2.110  1.9936 -1.4557 -0.7285
  387SOL    HW2 1161   2.826   1.361   2.187  4.7989  2.1975 -0.7200
  388SOL     OW 1162   0.527   1.531   2.254  0.0008 -0.1382 -0.3771
  388SOL    HW1 1163   0.484   1.626   2.247 -1.7450  3.0844 -0.6373
  388SOL    HW2 1164   0.448   1.467   2.283 -1.8995 -3.5868  2.9126
  389SOL     OW 1165   0.866   1.065   1.939 -0.2514  0.7085  0.2315
  389SOL    HW1 1166   0.865   1.000   1.859 -3.4403  0.7301 -3.1618
  389SOL    HW2 1167   0.963   1.069   1.965  0.0230  1.0191  1.1879
  390SOL     OW 1168   2.397   3.035   0.741 -0.2881  0.1898 -0.1223
  390SOL    HW1 1169   2.310   3.018   0.692 -2.5643  0.2320  0.1506
  390SOL    HW2 1170   2.386   3.026   0.839 -0.4304  0.8378 -2.3484
  391SOL     OW 1171   1.970   1.542   1.206  0.0724  0.8131 -0.2726
  391SOL    HW1 1172   2.002   1.446   1.210  0.6594  1.2071  2.2229
  391SOL    HW2 1173   1.953   1.565   1.109 -0.4916 -1.8131 -0.0209
  392SOL     OW 1174   2.798   2.740   0.245 -0.6064  0.0245  0.3859
  392SOL    HW1 1175   2.725   2.806   0.249  0.9200 -3.9742 -1.8458
  392SOL    HW2 1176   2.807   2.693   0.333  1.9059  0.9455 -0.6813
  393SOL     OW 1177   1.750   2.303   3.010  0.6297  0.2591  0.2092
  393SOL    HW1 1178   1.760   2.386   2.951  0.8201  0.0561 -0.3444
  393SOL    HW2 1179   1.836   2.259   3.026 -1.0858  0.5996 -2.2192
  394SOL     OW 1180   3.062   2.483   2.556  0.3592 -0.4254  0.1675
  394SOL    HW1 1181   3.014   2.499   2.644 -0.5663  2.0500 -1.9415
  394SOL    HW2 1182   0.049   2.421   2.570 -2.5993 -0.6672  0.9778
  395SOL     OW 1183   0.141   0.204   0.682  0.5300 -0.5492 -0.1913
  395SOL    HW1 1184   0.043   0.227   0.662 -3.3147 -0.0347 -0.6828
  395SOL    HW2 1185   0.156   0.243   0.775  0.8902  2.3091  0.5714
  396SOL     OW 1186   1.858   0.634   0.438 -0.4110  0.7515  0.4376
  396SOL    HW1 1187   1.816   0.668   0.528  0.5889  2.6303  2.8878
  396SOL    HW2 1188   1.859   0.526   0.443 -1.8141 -2.8068  0.4420
  397SOL     OW 1189   0.291   0.543   2.060  0.0531  0.1216  0.3282
  397SOL    HW1 1190   0.362   0.492   2.005 -1.3676  0.0114  0.5290
  397SOL    HW2 1191   0.211   0.563   2.001 -0.7250  0.5375  1.0889
  398SOL     OW 1192   1.029   3.015   0.298 -0.0841  0.2882 -0.5216
  398SOL    HW1 1193   1.127   3.015   0.267 -1.5288 -2.2815 -1.1893
  398SOL    HW2 1194   1.023   3.061   0.385 -0.3494  0.0813 -1.9770
  399SOL     OW 1195   2.185   0.416   1.826  0.3188  0.6159 -0.5841
  399SOL    HW1 1196   2.191   0.478   1.745 -0.7131 -2.0153  1.1498
  399SOL    HW2 1197   2.242   0.451   1.904 -0.2140 -0.2688  0.5966
  400SOL     OW 1198   1.118   2.126   2.599  0.3533  0.1546  0.4275
  400SOL    HW1 1199   1.121   2.196   2.669  1.1475 -3.8909 -1.2556
  400SOL    HW2 1200   1.084   2.155   2.508  0.5386  0.4046  1.9883
  401SOL     OW 1201   0.615   0.881   2.556 -0.0379 -0.1310 -0.0603
  401SOL    HW1 1202   0.606   0.783   2.573 -0.1799 -2.4348  1.4269
  401SOL    HW2 1203   0.587   0.905   2.458  0.9521 -0.1109  0.7347
  402SOL     OW 1204   0.222   2.472   0.738 -0.2120 -0.2487 -0.5280
  402SOL    HW1 1205   0.317   2.497   0.722 -1.3869 -0.0857  0.6793
  402SOL    HW2 1206   0.175   2.525   0.811 -1.7106 -1.7052  0.9990
  403SOL     OW 1207   0.083   1.236   1.946 -0.6868  0.6875  0.1060
  403SOL    HW1 1208   0.175   1.227   1.894  0.3110  0.1091 -0.7537
  403SOL    HW2 1209   0.003   1.216   1.886  0.9317  0.4726  3.5675
  404SOL     OW 1210   2.790   2.610   2.494  0.6296  0.8084 -0.0584
  404SOL    HW1 1211   2.733   2.599   2.408 -0.7907  1.5904  0.1039
  404SOL    HW2 1212   2.876   2.554   2.484  2.8582 -1.3344  0.2333
  405SOL     OW 1213   0.231   0.322   1.807  0.0572 -0.9776 -0.2017
  405SOL    HW1 1214   0.326   0.287   1.817 -2.1130 -1.1103 -3.4449
  405SOL    HW2 1215   0.179   0.278   1.730  0.0848  1.6391  2.1780
  406SOL     OW 1216   1.481   1.473   2.505  0.3442 -0.3398 -0.2146
  406SOL    HW1 1217   1.539   1.552   2.539 -0.6619 -2.5176  1.9354
  406SOL    HW2 1218   1.397   1.509   2.463  0.6493  0.3728  0.0502
  407SOL     OW 1219   1.498   0.957   2.575  0.3259 -0.3326  0.4294
  407SOL    HW1 1220   1.461   1.040   2.625 -0.6073  0.8378 -1.7690
  407SOL    HW2 1221   1.597   0.965   2.550 -0.8736 -1.1268  0.4977
  408SOL     OW 1222   0.289   2.846   2.331 -0.0296 -0.7241  0.4123
  408SOL    HW1 1223   0.391   2.853   2.309  3.9345 -2.1388 -2.5678
  408SOL    HW2 1224   0.237   2.898   2.261 -0.8505 -0.0872 -0.1841
  409SOL     OW 1225   0.074   2.084   1.047 -0.1840 -0.2299  0.1358
  409SOL    HW1 1226   3.071   2.068   1.000 -1.6831 -2.8240  0.3569
  409SOL    HW2 1227   0.060   2.113   1.143 -2.0393 -2.3863 -1.7531
  410SOL     OW 1228   2.442   1.694   0.227  0.2295  0.2534 -0.0542
  410SOL    HW1 1229   2.450   1.639   0.314 -3.1779 -0.7896 -1.1112
  410SOL    HW2 1230   2.522   1.676   0.169  1.6162  1.3307 -1.0246
  411SOL     OW 1231   2.811   0.211   1.276  0.5417  0.2530  0.5025
  411SOL    HW1 1232   2.827   0.154   1.359  0.8652 -0.5411 -0.4879
  411SOL    HW2 1233   2.746   0.288   1.298  0.5444 -2.3706 -1.6414
  412SOL     OW 1234   1.941   0.378   1.549  0.0101 -0.1210 -0.4614
  412SOL    HW1 1235   1.869   0.411   1.482  0.0138  0.8302  0.5331
  412SOL    HW2 1236   2.023   0.337   1.500  0.0360 -1.1498  0.3552
  413SOL     OW 1237   0.554   0.435   1.942  0.7093 -0.0164  0.9355
  413SOL    HW1 1238   0.540   0.490   1.858  0.8320  2.1702  3.6245
  413SOL    HW2 1239   0.652   0.412   1.964 -1.7470 -4.6748  2.1332
  414SOL     OW 1240   2.819   1.266   2.685  0.1268  0.3817 -0.1447
  414SOL    HW1 1241   2.876   1.287   2.768 -2.1510  0.4260  0.0348
  414SOL    HW2 1242   2.752   1.340   2.669  0.1580 -3.6851  0.1208
  415SOL     OW 1243   0.708   2.668   2.997 -0.3033  0.1916  0.3334
  415SOL    HW1 1244   0.798   2.622   2.984 -0.9720  0.6685  0.9583
  415SOL    HW2 1245   0.717   2.756   3.048 -1.2291  0.7212 -0.4018
  416SOL     OW 1246   1.514   0.127   2.316 -0.2046  0.2530  0.2341
  416SOL    HW1 1247   1.446   0.084   2.380 -2.5205 -0.0674 -0.8387
  416SOL    HW2 1248   1.484   0.219   2.298  3.4897 -3.1774  1.5091
  417SOL     OW 1249   0.238   0.663   0.693 -0.7050  0.4097 -0.5862
  417SOL    HW1 1250   0.305   0.584   0.677  0.2901 -0.4305  0.6433
  417SOL    HW2 1251   0.172   0.626   0.757 -0.4682 -1.9132 -3.1340
  418SOL     OW 1252   2.574   0.166   0.670 -0.0713 -0.0423 -0.7971
  418SOL    HW1 1253   2.513   0.094   0.709  3.1801  3.1923  0.4049
  418SOL    HW2 1254   2.524   0.253   0.671 -0.3246  0.1517  1.1437
  419SOL     OW 1255   0.113   2.913   0.446 -0.3290  0.4925  0.1704
  419SOL    HW1 1256   0.202   2.905   0.400 -1.9753 -3.5448 -0.5719
  419SOL    HW2 1257   0.063   3.000   0.415 -0.2979  0.0280  2.2335
  420SOL     OW 1258   0.314   1.218   1.824 -0.2249  0.4549 -0.4187
  420SOL    HW1 1259   0.305   1.247   1.728  0.0587 -1.5485  2.1637
  420SOL    HW2 1260   0.413   1.216   1.852 -1.6447  0.7148  1.0060
  421SOL     OW 1261   1.910   2.457   1.078  0.5631  0.0181  0.2547
  421SOL    HW1 1262   1.983   2.505   1.024  2.4707 -3.2609 -2.1089
  421SOL    HW2 1263   1.853   2.403   1.013 -0.6249 -0.0995  1.2173
  422SOL     OW 1264   0.495   0.501   1.432  0.2220 -0.6614 -0.1858
  422SOL    HW1 1265   0.526   0.580   1.370  2.7101 -3.0854 -1.7356
  422SOL    HW2 1266   0.493   0.523   1.532  0.5951 -1.4281 -0.6647
  423SOL     OW 1267   0.719   1.468   1.803  0.3682 -0.3759 -0.3890
  423SOL    HW1 1268   0.762   1.561   1.794 -0.2447  1.9906  0.4985
  423SOL    HW2 1269   0.790   1.398   1.783 -2.4058 -0.6280  2.5194
  424SOL     OW 1270   1.727   2.260   0.402  0.3492  0.6489  0.4847
  424SOL    HW1 1271   1.793   2.270   0.322  1.9500 -1.9693 -2.3082
  424SOL    HW2 1272   1.659   2.186   0.383  0.8812 -0.7081 -2.2467
  425SOL     OW 1273   2.783   2.990   1.922  0.0466  0.3464 -0.6460
  425SOL    HW1 1274   2.856   3.017   1.986  0.4319  0.4939 -0.5533
  425SOL    HW2 1275   2.825   2.959   1.837 -1.3742 -0.9567  1.9130
  426SOL     OW 1276   2.943   2.507   2.807  0.0452  0.4313 -0.3303
  426SOL    HW1 1277   3.036   2.525   2.844  1.9432  3.5563  0.8652
  426SOL    HW2 1278   2.878   2.565   2.859  1.2659 -1.2428 -1.4064
  427SOL     OW 1279   1.203   0.441   0.007  0.2537  0.2542  0.7450
  427SOL    HW1 1280   1.119   0.389   0.034  3.3543 -0.4202 -0.3477
  427SOL    HW2 1281   1.252   0.384   3.025  0.8744 -1.3342 -0.2949
  428SOL     OW 1282   2.921   0.771   1.287 -0.1248  0.1106 -0.2451
  428SOL    HW1 1283   3.024   0.763   1.277 -0.0335 -0.1021  1.5963
  428SOL    HW2 1284   2.878   0.693   1.343 -3.8066  1.3483  0.6764
  429SOL     OW 1285   1.990   3.041   1.108  0.5940  0.4408  0.0655
  429SOL    HW1 1286   1.904   2.992   1.138  1.3525 -1.4226 -2.2669
  429SOL    HW2 1287   2.038   2.984   1.043 -0.8939 -1.5337  2.8874
  430SOL     OW 1288   1.042   1.311   2.466  0.0966 -0.1750 -0.1052
  430SOL    HW1 1289   1.054   1.332   2.565 -0.4737  1.5674  1.6777
  430SOL    HW2 1290   0.946   1.332   2.435 -1.0126  0.5827  2.6704
  431SOL     OW 1291   2.637   1.617   1.125 -0.1335 -0.1731 -0.2994
  431SOL    HW1 1292   2.559   1.601   1.056  0.2996 -0.0685 -2.5642
  431SOL    HW2 1293   2.679   1.707   1.116 -1.1121 -2.9716  0.1482
  432SOL     OW 1294   1.223   2.818   2.367 -0.2071 -0.1465  0.1931
  432SOL    HW1 1295   1.188   2.772   2.283  1.2688  1.9052  0.5219
  432SOL    HW2 1296   1.325   2.814   2.368  1.4061 -1.1180  0.8976
  433SOL     OW 1297   1.765   0.545   2.279  0.7574  0.2049 -0.0424
  433SOL    HW1 1298   1.749   0.493   2.366  0.2006  0.7329  0.2071
  433SOL    HW2 1299   1.838   0.505   2.226  0.0910  1.3746  0.8652
  434SOL     OW 1300   0.571   2.262   2.146  0.6910 -0.4028 -0.2079
  434SOL    HW1 1301   0.516   2.346   2.152 -0.0008  2.6875 -1.2050
  434SOL    HW2 1302   0.564   2.209   2.232 -0.2381  0.8524 -3.6605
  435SOL     OW 1303   0.317   0.220   0.480 -0.1141 -0.4556  0.1600
  435SOL    HW1 1304   0.388   0.152   0.501 -1.3249 -0.5401  2.0893
  435SOL    HW2 1305   0.249   0.211   0.555 -0.1850  1.3108  0.6956
  436SOL     OW 1306   0.441   0.739   2.136 -0.1690 -0.1899  0.0140
  436SOL    HW1 1307   0.535   0.707   2.143 -0.5833 -0.1738 -2.5233
  436SOL    HW2 1308   0.381   0.676   2.081 -1.8900 -1.2659 -1.2771
  437SOL     OW 1309   0.680   2.504   2.538 -0.1147  0.0587  0.0416
  437SOL    HW1 1310   0.701   2.547   2.446 -0.4554  0.9149 -1.4940
  437SOL    HW2 1311   0.581   2.479   2.552 -2.9634 -0.6395  1.7303
  438SOL     OW 1312   0.870   1.114   1.126  0.0375  0.3424  0.0494
  438SOL    HW1 1313   0.950   1.180   1.145 -0.9534  4.4784  0.6328
  438SOL    HW2 1314   0.853   1.107   1.026 -0.2100 -2.4254 -0.9536
  439SOL     OW 1315   2.612   1.639   2.369 -0.2172 -0.3482 -0.0823
  439SOL    HW1 1316   2.709   1.606   2.368 -2.1291 -1.9840  1.3013
  439SOL    HW2 1317   2.552   1.558   2.370  0.1744  0.7634 -1.6854
  440SOL     OW 1318   0.009   0.520   2.855 -0.4168  0.2701 -0.2729
  440SOL    HW1 1319   3.046   0.584   2.799 -0.6273  0.6022  2.0520
  440SOL    HW2 1320   3.031   0.453   2.903  1.6797 -0.9746  0.4135
  441SOL     OW 1321   0.988   2.133   1.484 -0.0930 -0.2580 -0.2910
  441SOL    HW1 1322   0.924   2.068   1.435  1.2078 -0.8589 -1.0402
  441SOL    HW2 1323   0.966   2.154   1.584 -1.1037  0.7501  1.2510
  442SOL     OW 1324   1.727   1.326   0.929  0.1459 -0.1348 -0.2214
  442SOL    HW1 1325   1.768   1.294   1.020  0.1063 -0.8456 -1.6730
  442SOL    HW2 1326   1.755   1.266   0.855  3.1480  1.0646  2.1934
  443SOL     OW 1327   2.430   2.278   2.960  0.1547 -0.1809 -0.6085
  443SOL    HW1 1328   2.436   2.265   3.063 -0.3506  0.2781  2.3034
  443SOL    HW2 1329   2.420   2.378   2.944  2.1012  1.8280  1.8937
  444SOL     OW 1330   1.956   1.545   2.931 -0.5241  0.2958  0.2549
  444SOL    HW1 1331   1.991   1.578   2.845  2.6709  0.3767  1.1272
  444SOL    HW2 1332   1.985   1.608   3.007  1.0472  1.7889  0.0490
  445SOL     OW 1333   0.076   2.446   2.077 -0.0488 -0.7302  0.1161
  445SOL    HW1 1334   0.109   2.357   2.114  0.5957  4.0140 -4.3401
  445SOL    HW2 1335   0.065   2.442   1.973 -3.2109  2.5988  1.3838
  446SOL     OW 1336   1.135   0.901   1.697  0.4183 -0.4100 -0.6506
  446SOL    HW1 1337   1.234   0.907   1.725 -0.6899 -0.1347 -0.9397
  446SOL    HW2 1338   1.094   0.828   1.759 -0.5738 -0.3086  0.6623
  447SOL     OW 1339   0.852   1.074   0.825 -0.0047  0.0660 -0.1439
  447SOL    HW1 1340   0.948   1.054   0.821 -2.1648 -0.1232 -0.4634
  447SOL    HW2 1341   0.835   1.160   0.772 -0.4782  0.6964 -0.9105
  448SOL     OW 1342   1.007   1.129   2.281 -0.1181  0.5519  0.1728
  448SOL    HW1 1343   0.942   1.065   2.327  1.1166  0.2051 -0.4811
  448SOL    HW2 1344   1.037   1.198   2.349 -2.0561  0.4241  0.8244
  449SOL     OW 1345   0.046   1.917   2.485 -0.2001 -0.0288  0.2946
  449SOL    HW1 1346   0.106   1.839   2.502 -2.7526  2.1994 -0.2603
  449SOL    HW2 1347   3.076   1.892   2.405 -1.1291 -0.2769  0.2371
  450SOL     OW 1348   2.164   1.589   2.034 -0.6404  0.5238 -0.1781
  450SOL    HW1 1349   2.238   1.516   2.045  0.2685  0.3622 -2.4825
  450SOL    HW2 1350   2.201   1.680   2.019 -0.7805 -1.2591  2.3227
  451SOL     OW 1351   2.827   1.556   1.594 -0.0120  0.3827 -0.0554
  451SOL    HW1 1352   2.804   1.646   1.638  0.7512  0.5285  0.6561
  451SOL    HW2 1353   2.824   1.556   1.491 -0.2691  0.3864  2.3053
  452SOL     OW 1354   0.640   1.220   1.570  0.1809  0.1855  0.2188
  452SOL    HW1 1355   0.680   1.140   1.522  1.4664 -1.4589  1.0908
  452SOL    HW2 1356   0.712   1.296   1.558  0.8748 -1.3550 -0.3731
  453SOL     OW 1357   0.502   1.611   0.652  0.3854  0.6396 -0.3816
  453SOL    HW1 1358   0.519   1.684   0.582  0.3904  0.0498  0.6591
  453SOL    HW2 1359   0.461   1.530   0.607  1.6485 -0.4845  2.4973
  454SOL     OW 1360   1.006   1.779   0.288 -0.5922 -0.3440  0.2818
  454SOL    HW1 1361   1.059   1.768   0.202  0.2874  1.2615  0.6399
  454SOL    HW2 1362   1.003   1.683   0.318 -0.9573  1.0351 -3.4691
  455SOL     OW 1363   1.573   0.594   1.191  0.5462 -0.2713 -0.1478
  455SOL    HW1 1364   1.667   0.638   1.187 -1.6661  1.5069  0.2280
  455SOL    HW2 1365   1.503   0.668   1.212  0.2328 -0.1838 -0.7098
  456SOL     OW 1366   1.744   2.912   1.150  0.1424  0.3715  0.7328
  456SOL    HW1 1367   1.646   2.917   1.165  1.0897 -0.4898  3.9237
  456SOL    HW2 1368   1.778   2.820   1.180  2.2224 -0.5654  1.1847
  457SOL     OW 1369   2.023   0.644   2.707 -0.0540  0.0322 -0.1267
  457SOL    HW1 1370   1.970   0.668   2.792 -1.0774 -1.8561 -1.1902
  457SOL    HW2 1371   1.983   0.553   2.668 -0.1862 -1.3686 -0.6390
  458SOL     OW 1372   2.635   0.710   2.566 -0.1573 -0.5613 -0.9654
  458SOL    HW1 1373   2.642   0.792   2.632 -0.9723  4.1212 -0.2602
  458SOL    HW2 1374   2.633   0.623   2.621 -0.0736  1.3692  2.4142
  459SOL     OW 1375   2.638   1.580   2.080  0.0327 -0.0562  0.2677
  459SOL    HW1 1376   2.636   1.638   1.991 -2.1376  1.1717 -1.4691
  459SOL    HW2 1377   2.620   1.641   2.157  0.3222 -0.8336 -1.2981
  460SOL     OW 1378   0.809   0.621   0.040  0.4674  0.1514 -0.4050
  460SOL    HW1 1379   0.794   0.700   3.061  0.5474  1.7907 -2.2805
  460SOL    HW2 1380   0.896   0.634   0.093  2.1583 -5.7499 -0.5186
  461SOL     OW 1381   0.254   2.247   0.009  0.4279  0.4162 -0.6185
  461SOL    HW1 1382   0.188   2.275   0.084  1.3568 -2.1832  0.1348
  461SOL    HW2 1383   0.227   2.156   3.055  0.0491 -1.9310  0.9853
  462SOL     OW 1384   0.420   2.791   1.902  0.2802 -0.1897 -0.3353
  462SOL    HW1 1385   0.351   2.736   1.957 -1.9001 -1.6809 -0.4046
  462SOL    HW2 1386   0.398   2.779   1.802  0.9949 -1.4050 -0.9972
  463SOL     OW 1387   1.702   2.242   1.833  0.0110 -0.4111  0.2095
  463SOL    HW1 1388   1.767   2.243   1.910  2.4910  1.0563 -3.7743
  463SOL    HW2 1389   1.627   2.310   1.842 -0.7782  1.2532 -0.2743
  464SOL     OW 1390   2.443   2.764   0.953  0.0463 -0.2822 -0.0362
  464SOL    HW1 1391   2.510   2.829   0.990 -1.6252 -1.1733 -1.8975
  464SOL    HW2 1392   2.470   2.706   0.874  1.8510  1.7942 -2.1812
  465SOL     OW 1393   0.310   0.118   1.526  0.4837 -0.2665  0.0738
  465SOL    HW1 1394   0.242   0.182   1.486 -0.1455 -0.4339 -0.9148
  465SOL    HW2 1395   0.368   0.152   1.603  0.7373  0.9001 -0.1935
  466SOL     OW 1396   1.372   2.382   2.340  0.3246  0.4840  0.1605
  466SOL    HW1 1397   1.459   2.387   2.281  1.8624  1.4143 -1.1783
  466SOL    HW2 1398   1.373   2.298   2.400 -0.8772 -2.7096  0.3918
  467SOL     OW 1399   3.058   2.162   0.426 -0.2221  0.2348  0.6255
  467SOL    HW1 1400   3.086   2.206   0.514  0.6489 -0.8006  2.3476
  467SOL    HW2 1401   2.982   2.102   0.441 -1.2939  5.4340  0.5215
  468SOL     OW 1402   2.068   1.959   2.971 -0.0702  0.2223 -0.7370
  468SOL    HW1 1403   2.076   1.942   2.873 -0.6047  0.0608 -0.7406
  468SOL    HW2 1404   2.170   1.964   3.004 -0.4721 -0.5967 -0.2439
  469SOL     OW 1405   1.222   2.302   0.682 -0.5038 -0.1079  0.2309
  469SOL    HW1 1406   1.203   2.213   0.725 -1.1307  0.9059 -2.8804
  469SOL    HW2 1407   1.324   2.308   0.660  0.9868 -1.1573 -1.7937
  470SOL     OW 1408   1.982   1.039   1.167 -0.1426  0.4445 -0.2320
  470SOL    HW1 1409   1.913   0.974   1.128 -2.0603 -0.8953 -1.7905
  470SOL    HW2 1410   1.993   1.029   1.267 -0.1144  2.4574 -2.2868
  471SOL     OW 1411   0.488   2.355   0.130  0.0630 -0.8264  0.2868
  471SOL    HW1 1412   0.486   2.325   0.228 -4.0527 -2.2229 -3.9196
  471SOL    HW2 1413   0.392   2.337   0.095  0.1616  2.6707  1.1743
  472SOL     OW 1414   2.570   1.788   2.609 -0.3541 -0.4660 -0.2982
  472SOL    HW1 1415   2.651   1.834   2.653  1.1845  0.6731 -1.9921
  472SOL    HW2 1416   2.594   1.760   2.515 -2.5556  0.4484  0.6750
  473SOL     OW 1417   1.433   1.993   0.776 -0.5545 -0.3056  0.0128
  473SOL    HW1 1418   1.438   2.070   0.707  0.7696  3.0653 -3.8375
  473SOL    HW2 1419   1.501   2.011   0.850  2.4492  1.7908  0.1850
  474SOL     OW 1420   2.941   0.512   0.904 -0.5024  0.2921  0.7554
  474SOL    HW1 1421   2.954   0.418   0.933 -0.1547  0.3593 -0.1717
  474SOL    HW2 1422   2.848   0.539   0.910  0.9714  0.4256 -0.5542
  475SOL     OW 1423   2.238   2.955   1.561  0.3128  0.4805  0.0971
  475SOL    HW1 1424   2.322   2.916   1.605  1.8963  2.6027  0.0676
  475SOL    HW2 1425   2.194   2.874   1.512 -1.0905 -3.1901  0.3911
  476SOL     OW 1426   0.467   0.467   0.659  0.0072 -0.0372  0.0866
  476SOL    HW1 1427   0.507   0.422   0.576  0.1618 -2.3263 -2.3474
  476SOL    HW2 1428   0.534   0.464   0.736 -0.1107  1.2321 -0.1745
  477SOL     OW 1429   1.154   2.009   1.262 -0.0296 -0.1342 -0.2747
  477SOL    HW1 1430   1.105   2.007   1.170 -2.1933 -2.5118 -2.5053
  477SOL    HW2 1431   1.104   2.059   1.334 -0.1693  0.9172  1.9961
  478SOL     OW 1432   1.178   2.308   2.794  0.7550 -0.2468  0.0123
  478SOL    HW1 1433   1.141   2.399   2.762  0.5165  0.8477 -4.2150
  478SOL    HW2 1434   1.278   2.301   2.788 -0.7873  0.0816 -1.6951
  479SOL     OW 1435   2.783   0.972   1.906 -0.1058  0.0626  0.0656
  479SOL    HW1 1436   2.764   1.070   1.885 -1.0348  3.2006  2.4787
  479SOL    HW2 1437   2.880   0.945   1.901 -0.8631  0.5934  0.0327
  480SOL     OW 1438   2.841   2.250   2.765  0.0919 -0.0236  0.2820
  480SOL    HW1 1439   2.926   2.198   2.784 -1.7873  0.2527  0.8382
  480SOL    HW2 1440   2.865   2.351   2.779  0.7126  2.0322  0.3649
  481SOL     OW 1441   1.608   0.065   2.068 -0.0701  0.3136 -0.4039
  481SOL    HW1 1442   1.700   0.101   2.037  1.9968 -0.5662 -1.9403
  481SOL    HW2 1443   1.593   0.086   2.167  0.5304 -0.5967  3.4871
  482SOL     OW 1444   1.557   2.125   2.898  0.3914  0.0253  0.3445
  482SOL    HW1 1445   1.623   2.173   2.956 -2.8232 -2.8597 -0.3254
  482SOL    HW2 1446   1.605   2.063   2.833  2.1314  1.1855  0.6923
  483SOL     OW 1447   1.057   2.547   2.720 -0.1678  0.4871 -0.1472
  483SOL    HW1 1448   1.012   2.491   2.647  0.8610 -0.5069  2.5980
  483SOL    HW2 1449   1.109   2.626   2.677  0.1942  2.9765  0.8200
  484SOL     OW 1450   0.026   2.840   1.465 -0.4886  0.2303  0.0660
  484SOL    HW1 1451   0.045   2.753   1.518  2.4197 -3.0451 -0.0421
  484SOL    HW2 1452   0.119   2.885   1.451  1.8085  1.0283 -0.4943
  485SOL     OW 1453   2.275   0.751   0.498 -0.0367  0.5937 -0.0201
  485SOL    HW1 1454   2.205   0.737   0.428  0.9421  1.4548  1.6772
  485SOL    HW2 1455   2.290   0.850   0.508  0.0851 -2.4555 -2.7902
  486SOL     OW 1456   2.302   2.805   2.366 -0.0683  0.6421  0.1074
  486SOL    HW1 1457   2.387   2.846   2.336  1.2079 -0.0891 -0.4022
  486SOL    HW2 1458   2.253   2.757   2.288  1.7420  2.2247  0.6504
  487SOL     OW 1459   1.226   0.833   0.611  0.1465 -0.2308 -0.2638
  487SOL    HW1 1460   1.279   0.794   0.532  3.0702 -0.2109  0.1598
  487SOL    HW2 1461   1.149   0.897   0.592  2.1093 -0.2092  1.3699
  488SOL     OW 1462   2.577   2.900   2.687 -0.0179  0.2501  0.9164
  488SOL    HW1 1463   2.476   2.889   2.664  0.4522 -0.3550  0.2052
  488SOL    HW2 1464   2.602   2.903   2.785  1.8388 -0.4576 -0.4172
  489SOL     OW 1465   1.654   2.935   0.325  0.0156 -0.3103 -0.3190
  489SOL    HW1 1466   1.645   2.844   0.288  0.0676  1.6790  0.7463
  489SOL    HW2 1467   1.738   2.933   0.381 -1.0216 -1.1055 -0.7635
  490SOL     OW 1468   1.756   0.322   2.955  0.4875  0.2969  0.3458
  490SOL    HW1 1469   1.744   0.354   3.050 -1.0388 -0.8909  1.3783
  490SOL    HW2 1470   1.778   0.398   2.891 -1.6010 -2.7857  0.9148
  491SOL     OW 1471   0.753   0.007   1.050  0.1478 -0.4398  0.1937
  491SOL    HW1 1472   0.663   0.034   1.089  1.8450  0.6079 -0.6057
  491SOL    HW2 1473   0.791   0.085   0.995 -2.2068  4.3543 -1.0662
  492SOL     OW 1474   1.505   0.031   0.696  0.1988 -0.3233  0.3992
  492SOL    HW1 1475   1.597   0.002   0.744  0.3224 -0.0680  2.2027
  492SOL    HW2 1476   1.491   3.073   0.603 -1.1567  1.3393 -1.7053
  493SOL     OW 1477   1.150   2.173   3.041 -0.0247  0.3760 -0.2496
  493SOL    HW1 1478   1.210   2.095   3.030 -0.6527  1.8327  0.1084
  493SOL    HW2 1479   1.135   2.207   2.945 -0.5623 -0.0874  1.6463
  494SOL     OW 1480   0.585   0.978   0.920  0.3559 -0.2540  0.2819
  494SOL    HW1 1481   0.587   1.017   1.013 -1.0009 -0.0762  0.3219
  494SOL    HW2 1482   0.667   1.006   0.864  1.0617 -1.4508 -0.7526
  495SOL     OW 1483   2.852   0.556   1.450  0.4352 -0.4678  0.1836
  495SOL    HW1 1484   2.905   0.479   1.429 -1.0885  1.2247  1.3671
  495SOL    HW2 1485   2.840   0.565   1.548  0.8799 -0.9743 -2.9320
  496SOL     OW 1486   2.279   2.613   2.550  0.0132 -0.2971 -0.0490
  496SOL    HW1 1487   2.279   2.693   2.486  1.4879  2.0756 -2.7669
  496SOL    HW2 1488   2.207   2.543   2.528 -1.2344  0.1959 -1.2075
  497SOL     OW 1489   1.590   1.211   2.838 -0.3261  0.1771 -0.2696
  497SOL    HW1 1490   1.677   1.222   2.786 -2.1728  1.6459  0.5681
  497SOL    HW2 1491   1.595   1.269   2.921 -2.0452 -0.2195 -0.6538
  498SOL     OW 1492   0.846   2.054   0.978  0.5427 -0.0910 -0.6323
  498SOL    HW1 1493   0.927   1.995   0.985 -0.8387  2.4474  1.6884
  498SOL    HW2 1494   0.818   2.089   1.072 -0.4840 -0.2701  2.0222
  499SOL     OW 1495   0.215   1.839   0.670  0.8270 -0.1808 -0.0100
  499SOL    HW1 1496   0.224   1.936   0.645  1.5678 -0.3706 -0.7996
  499SOL    HW2 1497   0.271   1.811   0.750  0.3718 -1.4604 -2.5429
  500SOL     OW 1498   1.192   2.615   0.348 -0.4222  0.1145  0.2423
  500SOL    HW1 1499   1.108   2.671   0.318 -1.2905 -0.1497 -0.5527
  500SOL    HW2 1500   1.234   2.664   0.428  0.0135  0.8427 -0.6098
  501SOL     OW 1501   1.888   2.750   0.750  0.0758  0.1611 -0.4489
  501SOL    HW1 1502   1.796   2.718   0.766  4.4035  0.4331 -1.0118
  501SOL    HW2 1503   1.941   2.686   0.688  1.3492  3.1998 -0.8243
  502SOL     OW 1504   0.142   0.500   1.133 -0.1470  0.7948  0.0863
  502SOL    HW1 1505   0.072   0.427   1.105 -0.5398  0.7044  1.6427
  502SOL    HW2 1506   0.238   0.463   1.127 -0.9570 -0.1147 -0.4310
  503SOL     OW 1507   2.163   0.009   1.795  0.2197  0.1420  0.0872
  503SOL    HW1 1508   2.110   0.098   1.791 -1.4465  0.7122  0.9597
  503SOL    HW2 1509   2.171   3.056   1.703 -0.2425 -0.2586 -0.7058
  504SOL     OW 1510   1.950   1.018   1.857  0.2621 -0.0422 -0.1215
  504SOL    HW1 1511   2.026   0.948   1.853 -0.2533 -0.1457  0.2569
  504SOL    HW2 1512   1.859   0.981   1.826 -0.6212 -1.0003  0.8339
  505SOL     OW 1513   1.485   2.789   2.390  0.1379  0.2071 -0.1806
  505SOL    HW1 1514   1.523   2.850   2.462  0.6361  1.5580 -0.0458
  505SOL    HW2 1515   1.497   2.826   2.297 -1.5623  0.3944 -0.5608
  506SOL     OW 1516   0.498   0.572   1.691  0.2392 -0.1919 -0.7130
  506SOL    HW1 1517   0.400   0.601   1.703 -0.4138  0.7561 -0.7146
  506SOL    HW2 1518   0.568   0.643   1.706  2.1495 -1.1415  1.4367
  507SOL     OW 1519   1.746   0.400   0.145 -0.2265 -0.1961 -0.5985
  507SOL    HW1 1520   1.691   0.373   0.227  0.1672 -0.1614 -1.3650
  507SOL    HW2 1521   1.842   0.372   0.161  0.4394 -0.7899 -1.0687
  508SOL     OW 1522   2.223   0.729   2.086 -0.3247  0.5324 -0.1276
  508SOL    HW1 1523   2.170   0.733   2.175 -0.1703 -1.9148 -0.0481
  508SOL    HW2 1524   2.161   0.714   2.009  2.7181  0.7035 -0.8163
  509SOL     OW 1525   0.833   1.665   2.526  0.0564  0.5619  0.6517
  509SOL    HW1 1526   0.739   1.701   2.545  3.2607  1.9425  3.1017
  509SOL    HW2 1527   0.890   1.733   2.476  1.3009 -0.1512  0.9646
  510SOL     OW 1528   2.837   0.814   0.705 -0.2173 -0.1621  0.0340
  510SOL    HW1 1529   2.871   0.736   0.649 -0.5744 -0.2137  2.4670
  510SOL    HW2 1530   2.891   0.811   0.789  0.7287 -0.9587 -1.3866
  511SOL     OW 1531   1.788   1.334   1.437 -0.3855  0.1666 -0.3660
  511SOL    HW1 1532   1.718   1.393   1.477 -1.6340 -0.3345  1.7227
  511SOL    HW2 1533   1.881   1.360   1.472  1.9659 -0.2485 -1.2092
  512SOL     OW 1534   0.571   1.847   0.539  0.1765  0.2978  0.2053
  512SOL    HW1 1535   0.536   1.902   0.462  1.2133  0.3361  0.1481
  512SOL    HW2 1536   0.642   1.891   0.596  2.8559  1.0832  1.3509
  513SOL     OW 1537   0.557   2.517   1.003  0.0811 -0.6323  0.0269
  513SOL    HW1 1538   0.515   2.612   0.996 -3.8336 -0.0323  0.9654
  513SOL    HW2 1539   0.658   2.522   1.001 -1.1163  0.8494  0.3580
  514SOL     OW 1540   0.594   2.282   0.617  0.5443  0.0734 -0.2660
  514SOL    HW1 1541   0.546   2.215   0.681 -4.9659  0.3719 -0.3940
  514SOL    HW2 1542   0.670   2.232   0.567 -1.6347 -0.3034 -1.0958
  515SOL     OW 1543   0.136   3.035   0.106  0.1104 -0.3120 -0.3895
  515SOL    HW1 1544   0.228   3.000   0.103 -0.3562 -1.0060 -0.2843
  515SOL    HW2 1545   0.075   2.954   0.095  0.2845  0.5036 -0.5392
  516SOL     OW 1546   1.970   0.203   1.204  0.0450 -0.0244 -0.5676
  516SOL    HW1 1547   1.879   0.229   1.232  0.4012 -2.1494 -0.8258
  516SOL    HW2 1548   1.960   0.115   1.154  0.3810 -0.8999 -2.1018
  517SOL     OW 1549   1.501   1.743   0.701  0.1331 -0.1962 -0.6521
  517SOL    HW1 1550   1.466   1.828   0.741  0.8334 -1.2750  2.1119
  517SOL    HW2 1551   1.600   1.753   0.684 -0.3413 -0.4805 -0.5962
  518SOL     OW 1552   1.355   3.013   0.932  0.4647  0.4148  0.5511
  518SOL    HW1 1553   1.256   2.993   0.904 -2.4695 -0.0166 -2.0464
  518SOL    HW2 1554   1.407   3.058   0.854 -1.5411 -1.3154  1.5147
  519SOL     OW 1555   2.879   2.362   0.298  0.1458 -0.3183 -0.4131
  519SOL    HW1 1556   2.942   2.291   0.343  0.2423  0.4087 -0.1397
  519SOL    HW2 1557   2.934   2.431   0.246  2.1370  0.1422 -2.2657
  520SOL     OW 1558   1.885   2.275   2.329 -0.4681  0.2265 -0.1761
  520SOL    HW1 1559   1.940   2.190   2.333  2.1086 -1.0741 -0.2123
  520SOL    HW2 1560   1.829   2.280   2.243  1.2040  0.1908  1.1657
  521SOL     OW 1561   1.029   3.039   2.138 -0.2815 -0.0819  0.2411
  521SOL    HW1 1562   0.943   2.984   2.148  2.2009  3.2850 -0.2506
  521SOL    HW2 1563   1.055   3.081   2.229  1.3761 -1.3092  0.1696
  522SOL     OW 1564   0.427   2.492   2.189  0.1349 -0.5106 -0.2901
  522SOL    HW1 1565   0.377   2.554   2.124  0.3148 -0.4908  0.1395
  522SOL    HW2 1566   0.400   2.521   2.287 -1.0551 -0.1252 -1.0793
  523SOL     OW 1567   1.062   2.205   1.750  0.0071 -0.0872  0.1238
  523SOL    HW1 1568   1.000   2.267   1.803  2.3517 -0.3501 -0.9144
  523SOL    HW2 1569   1.143   2.172   1.806 -2.1354  1.2639  0.8167
  524SOL     OW 1570   2.313   2.374   0.226  0.0665  0.1372  0.4386
  524SOL    HW1 1571   2.390   2.320   0.185 -1.4724  1.3704 -0.0693
  524SOL    HW2 1572   2.260   2.312   0.293  1.2351 -2.7782 -0.1642
  525SOL     OW 1573   2.765   0.511   3.015 -0.1356  0.2475 -0.3423
  525SOL    HW1 1574   2.797   0.589   3.071 -3.3524 -0.6229  0.1945
  525SOL    HW2 1575   2.837   0.435   3.000 -0.3900 -0.8201 -0.3176
  526SOL     OW 1576   0.358   3.030   0.902 -0.0478 -0.1914 -0.1632
  526SOL    HW1 1577   0.280   3.014   0.832 -2.2935  0.8925 -1.8105
  526SOL    HW2 1578   0.420   0.020   0.876  0.7691 -0.9268 -4.0696
  527SOL     OW 1579   2.880   1.510   0.540  0.0354 -0.4389 -0.5518
  527SOL    HW1 1580   2.947   1.442   0.505  3.0767 -0.2798 -1.1268
  527SOL    HW2 1581   2.805   1.463   0.594 -1.6822 -1.2244  0.5346
  528SOL     OW 1582   0.772   0.739   2.271  0.3986 -0.5786  0.0461
  528SOL    HW1 1583   0.749   0.673   2.343  0.0178 -0.6200 -0.4116
  528SOL    HW2 1584   0.797   0.830   2.315 -1.4540 -0.4354 -0.2496
  529SOL     OW 1585   0.684   1.488   0.091  0.4073 -0.1052 -0.1378
  529SOL    HW1 1586   0.645   1.580   0.125 -3.9577  2.5265  1.9959
  529SOL    HW2 1587   0.656   1.422   0.163 -1.7873  0.8122 -0.1071
  530SOL     OW 1588   1.141   1.018   1.960 -0.3195  0.6956  0.0076
  530SOL    HW1 1589   1.154   0.955   1.879  0.9425 -0.7091 -0.1073
  530SOL    HW2 1590   1.133   0.976   2.050  0.9901  1.9619 -2.7322
  531SOL     OW 1591   0.972   2.370   0.044  0.3516 -0.3458 -0.5686
  531SOL    HW1 1592   1.030   2.294   0.011  1.3628  1.4921 -1.4651
  531SOL    HW2 1593   0.983   2.388   0.144 -2.5016  0.4684 -0.8517
  532SOL     OW 1594   2.326   0.999   2.489  0.2757  0.3045  0.3821
  532SOL    HW1 1595   2.423   1.018   2.453  4.2091  0.1486 -2.2096
  532SOL    HW2 1596   2.313   1.050   2.572 -1.1377 -0.6805  0.7407
  533SOL     OW 1597   2.975   0.257   1.883  0.5064 -0.3948 -0.5161
  533SOL    HW1 1598   3.032   0.301   1.953 -0.3861  0.1394 -0.7098
  533SOL    HW2 1599   2.874   0.275   1.906 -1.7977 -2.3125  2.7060
  534SOL     OW 1600   2.274   0.132   0.457 -0.1678 -0.0586 -0.0015
  534SOL    HW1 1601   2.366   0.122   0.416 -2.6901 -1.7028  0.2001
  534SOL    HW2 1602   2.220   0.218   0.419 -2.9201  4.8343 -2.3009
  535SOL     OW 1603   0.476   0.214   3.040 -0.4147  0.3107  0.3534
  535SOL    HW1 1604   0.503   0.310   3.046  1.6576  0.4850  0.5859
  535SOL    HW2 1605   0.384   0.207   3.001 -0.6570 -1.3691 -0.3455
  536SOL     OW 1606   0.932   1.911   1.646 -0.4001 -0.1132 -0.2300
  536SOL    HW1 1607   0.934   1.895   1.545  0.9580 -0.0639  0.1139
  536SOL    HW2 1608   1.020   1.905   1.688 -0.0805 -0.1362 -0.3457
  537SOL     OW 1609   0.004   2.624   1.620  0.0171  0.5114  0.4895
  537SOL    HW1 1610   3.016   2.590   1.567  0.9501 -2.3585 -0.7634
  537SOL    HW2 1611   0.031   2.553   1.683 -1.3001  0.4685  2.1730
  538SOL     OW 1612   0.495   2.272   0.373  0.0694 -0.4479 -0.5166
  538SOL    HW1 1613   0.523   2.270   0.472  2.7677  1.0372  3.3850
  538SOL    HW2 1614   0.489   2.179   0.334  2.0076 -1.7347 -1.0389
  539SOL     OW 1615   2.184   0.994   2.254  0.1781 -0.0447  0.0730
  539SOL    HW1 1616   2.217   0.999   2.349  0.3959  2.2484 -0.4146
  539SOL    HW2 1617   2.255   1.008   2.186 -3.7242 -0.1056  0.3433
  540SOL     OW 1618   1.927   0.786   2.912 -0.2927  0.3367  0.2528
  540SOL    HW1 1619   2.011   0.828   2.870  1.7287 -2.7578  2.4026
  540SOL    HW2 1620   1.892   0.843   2.988 -0.3891 -0.1371 -0.4296
  541SOL     OW 1621   0.626   0.539   2.547 -0.1276 -0.0951 -0.3765
  541SOL    HW1 1622   0.530   0.516   2.528 -2.3234  1.2703 -0.7075
  541SOL    HW2 1623   0.636   0.587   2.635 -0.0159 -1.3122 -0.5332
  542SOL     OW 1624   1.522   2.464   1.893  0.4240 -0.2464 -0.3076
  542SOL    HW1 1625   1.422   2.481   1.893  1.1670  1.9745  0.7851
  542SOL    HW2 1626   1.572   2.549   1.870  3.1125  0.0385 -0.5730
  543SOL     OW 1627   0.728   2.776   0.334  0.0122 -0.3481  0.0826
  543SOL    HW1 1628   0.656   2.705   0.316 -1.6120 -0.4061 -0.8402
  543SOL    HW2 1629   0.723   2.809   0.427 -1.0400 -1.2607 -1.8810
  544SOL     OW 1630   2.968   1.844   2.295 -0.4038  0.4873 -0.1509
  544SOL    HW1 1631   2.890   1.910   2.289  2.8073 -1.4522  0.8415
  544SOL    HW2 1632   3.004   1.830   2.201 -0.8233  1.1865  0.2668
  545SOL     OW 1633   1.300   1.482   1.863  0.2195  0.3859 -0.1785
  545SOL    HW1 1634   1.267   1.458   1.957 -1.8775  0.3545 -0.6603
  545SOL    HW2 1635   1.236   1.540   1.810  1.3787 -0.8538  1.8955
  546SOL     OW 1636   0.170   0.362   2.486 -0.5138 -0.3796 -0.1237
  546SOL    HW1 1637   0.236   0.416   2.436 -0.2619 -0.6684  1.2616
  546SOL    HW2 1638   0.167   0.267   2.447  1.0003 -0.1205  0.1210
  547SOL     OW 1639   1.146   0.373   0.833  0.3967  0.2621 -0.1792
  547SOL    HW1 1640   1.120   0.443   0.769  0.9055  0.2105 -0.0202
  547SOL    HW2 1641   1.240   0.341   0.817  0.8665 -2.6783 -1.6069
  548SOL     OW 1642   1.348   1.987   3.021 -0.5702  0.3387  0.4788
  548SOL    HW1 1643   1.376   1.949   0.020 -1.7502 -0.7131 -2.8665
  548SOL    HW2 1644   1.415   2.056   2.987 -0.6008  2.8630  1.4222
  549SOL     OW 1645   2.395   0.957   0.057  0.2093 -0.0932  0.2730
  549SOL    HW1 1646   2.338   1.040   0.063  3.7208 -1.1225  0.7764
  549SOL    HW2 1647   2.494   0.986   0.070 -0.3160 -0.3515  0.3712
  550SOL     OW 1648   2.491   2.093   0.741 -0.5549 -0.0410 -0.1882
  550SOL    HW1 1649   2.463   2.186   0.722  3.1901 -1.2415 -1.3936
  550SOL    HW2 1650   2.424   2.052   0.807  0.3248 -0.0106 -1.7397
  551SOL     OW 1651   0.813   0.589   1.243  0.3809  0.5715  0.1031
  551SOL    HW1 1652   0.879   0.517   1.213  1.5789 -4.4999  1.5699
  551SOL    HW2 1653   0.811   0.595   1.346 -0.7651 -0.7901  2.8015
  552SOL     OW 1654   0.050   1.597   2.791  0.1481  0.1135 -0.3652
  552SOL    HW1 1655   0.023   1.496   2.800 -3.4570 -0.7051  1.4979
  552SOL    HW2 1656   0.073   1.648   2.879  2.1194  0.7751 -1.4653
  553SOL     OW 1657   2.527   2.541   0.560  0.6638 -0.3742  0.2416
  553SOL    HW1 1658   2.586   2.578   0.633  2.6664 -1.7941  0.4695
  553SOL    HW2 1659   2.477   2.608   0.504  0.5018 -1.0109 -2.5637
  554SOL     OW 1660   2.079   1.080   1.443  0.5417 -0.2140 -0.1227
  554SOL    HW1 1661   2.180   1.055   1.451  1.0465 -1.6904 -0.0822
  554SOL    HW2 1662   2.062   1.170   1.490 -1.2849  1.0283 -1.3585
  555SOL     OW 1663   1.273   2.167   2.177  0.5277  0.4072 -0.6553
  555SOL    HW1 1664   1.273   2.152   2.079  0.1180 -0.8092  0.0768
  555SOL    HW2 1665   1.304   2.262   2.198 -2.0147  2.2312  0.6846
  556SOL     OW 1666   0.981   1.365   1.801 -0.8422  0.1693 -1.6381
  556SOL    HW1 1667   1.029   1.331   1.716  1.6258 -0.1432 -0.5386
  556SOL    HW2 1668   0.988   1.304   1.884  0.3557 -0.9541  1.3087
  557SOL     OW 1669   1.488   3.037   1.581 -0.2534 -0.8128 -0.4105
  557SOL    HW1 1670   1.390   3.022   1.546 -1.4788 -2.1200  1.1119
  557SOL    HW2 1671   1.499   3.013   1.680 -1.0738 -0.6573 -1.5554
  558SOL     OW 1672   0.652   0.161   2.268 -0.2237 -0.1193 -0.1624
  558SOL    HW1 1673   0.694   0.084   2.316  0.0310 -0.8140  0.7343
  558SOL    HW2 1674   0.721   0.196   2.203 -0.0936  0.4972 -2.4221
  559SOL     OW 1675   1.642   2.660   0.271  0.4900 -0.6648  0.2610
  559SOL    HW1 1676   1.555   2.618   0.229 -0.8162 -1.9376  0.5460
  559SOL    HW2 1677   1.664   2.627   0.363  0.8856  2.2699 -2.3944
  560SOL     OW 1678   1.477   2.134   0.319  0.4702  0.8574 -0.1376
  560SOL    HW1 1679   1.455   2.034   0.300  0.2001  0.6540  1.5185
  560SOL    HW2 1680   1.498   2.179   0.231  0.7751 -0.7736  0.3059
  561SOL     OW 1681   1.391   0.275   0.708 -0.1944 -0.2242  0.1311
  561SOL    HW1 1682   1.461   0.196   0.712  0.2666 -2.8228  0.4462
  561SOL    HW2 1683   1.416   0.356   0.649  0.1603 -0.4610 -1.0326
  562SOL     OW 1684   0.383   0.934   1.966 -0.5357 -0.0099 -0.0771
  562SOL    HW1 1685   0.446   0.986   1.907  0.1026 -3.3300  2.0592
  562SOL    HW2 1686   0.431   0.865   2.019 -1.2553  0.3433  0.4716
  563SOL     OW 1687   1.549   2.285   2.657  0.1831  0.1307  0.0466
  563SOL    HW1 1688   1.487   2.222   2.605  0.1306 -1.2646  0.5178
  563SOL    HW2 1689   1.576   2.255   2.753 -0.8728 -0.4009  3.5138
  564SOL     OW 1690   2.838   0.885   1.078 -0.4250 -0.7217  0.5997
  564SOL    HW1 1691   2.880   0.844   1.162 -2.3133  0.5389  0.4861
  564SOL    HW2 1692   2.893   0.845   0.999  0.7687 -2.4227 -1.7076
  565SOL     OW 1693   0.985   0.994   0.030  0.5210  0.3056  0.5433
  565SOL    HW1 1694   1.002   1.089   0.004 -0.6069 -1.9148  0.7811
  565SOL    HW2 1695   1.072   0.940   0.041  0.2935  0.3149 -0.6468
  566SOL     OW 1696   2.289   2.715   3.069  0.0576 -0.0545  0.4588
  566SOL    HW1 1697   2.372   2.657   0.002  1.8028 -2.8801 -2.9542
  566SOL    HW2 1698   2.303   2.806   0.023  2.4345 -2.4651 -1.3768
  567SOL     OW 1699   1.484   1.033   1.357 -0.2874 -0.4035  0.7105
  567SOL    HW1 1700   1.421   1.079   1.423  0.0262  0.3269  1.3754
  567SOL    HW2 1701   1.580   1.036   1.396 -1.3591 -0.6232 -0.2100
  568SOL     OW 1702   1.402   1.231   2.643  0.2804 -0.0932 -0.6955
  568SOL    HW1 1703   1.410   1.307   2.580 -2.0212 -2.8521  2.5120
  568SOL    HW2 1704   1.452   1.248   2.730 -2.3192  2.3682  0.6931
  569SOL     OW 1705   1.919   1.684   0.666 -0.4834  0.2453  0.5841
  569SOL    HW1 1706   2.008   1.715   0.634  0.5602  2.5817  1.8992
  569SOL    HW2 1707   1.868   1.759   0.705 -1.4714  1.5431  0.1293
  570SOL     OW 1708   2.758   2.038   2.295 -0.9159  0.4103 -0.5162
  570SOL    HW1 1709   2.767   2.105   2.217  0.7589  1.5923 -0.2537
  570SOL    HW2 1710   2.781   2.093   2.378  0.1070  0.6545  0.9172
  571SOL     OW 1711   2.791   1.820   1.675 -0.1003  0.3606 -0.2728
  571SOL    HW1 1712   2.793   1.853   1.578 -0.8380 -2.5216 -2.9204
  571SOL    HW2 1713   2.866   1.861   1.724  0.3798  1.1554 -1.7076
  572SOL     OW 1714   1.405   2.582   0.187  0.2215 -0.6573 -0.2017
  572SOL    HW1 1715   1.345   2.600   0.270  2.0992 -0.2393 -1.4757
  572SOL    HW2 1716   1.358   2.517   0.128  1.0252  2.5539  2.8053
  573SOL     OW 1717   1.721   1.674   1.262 -0.2611  0.5685 -0.6136
  573SOL    HW1 1718   1.802   1.688   1.324 -0.8689 -0.0041  0.2742
  573SOL    HW2 1719   1.720   1.586   1.206 -1.3885 -0.3721 -0.7453
  574SOL     OW 1720   1.129   3.061   1.230 -0.4720  0.3728 -0.3475
  574SOL    HW1 1721   1.095   0.062   1.260  1.3740 -1.8669 -0.4696
  574SOL    HW2 1722   1.182   3.024   1.308  0.9808  3.3145  2.2141
  575SOL     OW 1723   0.797   0.784   1.045  0.2602 -0.0732 -0.2000
  575SOL    HW1 1724   0.821   0.881   1.075 -1.2732 -0.8853  0.7166
  575SOL    HW2 1725   0.805   0.721   1.121  0.4902  0.6577 -0.8904
  576SOL     OW 1726   2.637   0.423   1.336  0.1131  0.4618 -0.2794
  576SOL    HW1 1727   2.579   0.468   1.264  0.8786 -0.2186  0.1734
  576SOL    HW2 1728   2.705   0.487   1.377 -2.1379 -1.4436 -2.0403
  577SOL     OW 1729   2.379   0.532   2.711  0.1225  0.1436  0.1986
  577SOL    HW1 1730   2.453   0.598   2.732  0.7653  3.8822  2.0819
  577SOL    HW2 1731   2.359   0.537   2.615  1.6301  2.9331  0.3171
  578SOL     OW 1732   1.786   1.739   2.128 -0.2476  0.5095  0.1609
  578SOL    HW1 1733   1.832   1.646   2.134  0.7081 -0.9361  0.0284
  578SOL    HW2 1734   1.793   1.778   2.034 -1.5170 -2.9526  2.4021
  579SOL     OW 1735   0.709   1.529   0.953 -0.3500  0.3711  0.3222
  579SOL    HW1 1736   0.727   1.602   0.884  1.2986 -1.3027 -1.7028
  579SOL    HW2 1737   0.654   1.563   1.033  0.2562  0.6702 -1.1517
  580SOL     OW 1738   1.303   2.405   3.080  0.1656 -0.2438 -0.5046
  580SOL    HW1 1739   1.252   2.319   3.085 -0.3171 -2.3561  2.6651
  580SOL    HW2 1740   1.312   2.440   2.983 -1.6768 -2.3869 -1.4414
  581SOL     OW 1741   0.789   0.688   2.011 -0.1188  0.0174 -0.3238
  581SOL    HW1 1742   0.773   0.722   2.106 -0.5699  0.5024 -1.3559
  581SOL    HW2 1743   0.793   0.590   2.001 -0.4647  1.9126 -0.6602
  582SOL     OW 1744   0.451   0.846   0.671 -0.1509  0.0759  0.5953
  582SOL    HW1 1745   0.370   0.784   0.690 -0.3600  0.1318 -0.2968
  582SOL    HW2 1746   0.469   0.902   0.754  2.1583  0.4573 -2.6619
  583SOL     OW 1747   0.998   1.628   1.954  0.5034  0.0955  0.0176
  583SOL    HW1 1748   1.042   1.689   2.029 -1.4066 -2.1374 -1.0907
  583SOL    HW2 1749   0.982   1.537   1.999  0.6937  1.3786 -1.8173
  584SOL     OW 1750   2.421   2.754   0.381  0.2881  0.2997  0.0179
  584SOL    HW1 1751   2.323   2.751   0.401  2.6617 -1.2284 -0.3793
  584SOL    HW2 1752   2.446   2.695   0.301  0.2784  1.8638  0.5460
  585SOL     OW 1753   2.080   0.610   0.001 -0.5154  0.0227 -0.1997
  585SOL    HW1 1754   2.026   0.680   3.033  1.0498  1.3789 -0.9834
  585SOL    HW2 1755   2.138   0.652   0.075  0.2834  0.1465  0.4073
  586SOL     OW 1756   0.388   1.655   0.245 -0.0601  0.1876  0.4220
  586SOL    HW1 1757   0.348   1.621   0.327  2.5834  0.2037  0.7335
  586SOL    HW2 1758   0.487   1.660   0.251  3.7315 -1.2894 -0.8392
  587SOL     OW 1759   1.612   2.067   0.986  0.2094 -0.7085  0.5106
  587SOL    HW1 1760   1.672   1.991   1.023  3.3632 -0.5977  2.7893
  587SOL    HW2 1761   1.529   2.087   1.042 -1.2506  1.9031  0.6389
  588SOL     OW 1762   0.400   0.491   1.019 -0.2623 -0.1444 -0.0690
  588SOL    HW1 1763   0.466   0.442   1.080  2.7913 -1.3141  2.6857
  588SOL    HW2 1764   0.419   0.591   1.013 -0.2899  2.1571 -0.4528
  589SOL     OW 1765   1.377   0.170   1.087  0.3235  0.0470 -0.2466
  589SOL    HW1 1766   1.333   0.096   1.028  2.0344  0.2211 -0.5129
  589SOL    HW2 1767   1.441   0.126   1.154  0.6601 -0.2806  2.6408
  590SOL     OW 1768   1.379   0.747   0.406  0.7733  0.2320 -0.8462
  590SOL    HW1 1769   1.429   0.831   0.380  3.5793  1.2940 -1.4379
  590SOL    HW2 1770   1.373   0.686   0.333 -1.3589  3.2162  0.9273
  591SOL     OW 1771   2.460   2.210   1.811 -0.4237  0.7557 -0.4836
  591SOL    HW1 1772   2.522   2.223   1.891  1.3208  2.8788  0.6423
  591SOL    HW2 1773   2.507   2.154   1.741  1.9857  0.5457  1.9915
  592SOL     OW 1774   1.503   1.764   1.384  0.3988 -0.4653  0.5046
  592SOL    HW1 1775   1.496   1.739   1.483 -1.2827  1.3290  0.3325
  592SOL    HW2 1776   1.585   1.724   1.340 -1.3452 -1.2413 -1.6828
  593SOL     OW 1777   1.004   0.037   0.565  0.4782 -0.0615 -0.0976
  593SOL    HW1 1778   0.930   0.109   0.576 -1.6832  0.8350  1.8710
  593SOL    HW2 1779   1.095   0.082   0.565 -1.0095 -0.3479  0.9738
  594SOL     OW 1780   0.170   0.795   1.890 -0.6695 -0.4837  0.5514
  594SOL    HW1 1781   0.189   0.719   1.823 -0.2264  1.9323 -0.4432
  594SOL    HW2 1782   0.255   0.846   1.908  1.4615 -0.6293  0.2458
  595SOL     OW 1783   2.801   3.033   0.978  0.1954  0.2821  0.3443
  595SOL    HW1 1784   2.807   0.018   0.906 -3.6105  0.0275 -1.1428
  595SOL    HW2 1785   2.885   2.975   0.971 -0.7215  1.4093  1.4056
  596SOL     OW 1786   0.045   0.420   1.451 -0.2350  0.2797  0.2374
  596SOL    HW1 1787   0.032   0.508   1.499  1.6822  0.2119 -0.3333
  596SOL    HW2 1788   0.049   0.346   1.520 -0.5354  0.1618  0.1581
  597SOL     OW 1789   2.101   1.270   0.809  0.3160  0.3314 -0.6098
  597SOL    HW1 1790   2.168   1.320   0.757 -1.1356  0.6701 -0.7738
  597SOL    HW2 1791   2.008   1.274   0.773  3.3662 -0.8526 -0.0809
  598SOL     OW 1792   0.720   3.027   1.765 -0.0597 -0.7766  0.1840
  598SOL    HW1 1793   0.699   2.944   1.712 -1.4243  0.4201  0.5830
  598SOL    HW2 1794   0.652   3.029   1.846 -1.8307 -1.5735  0.8565
  599SOL     OW 1795   2.637   1.705   3.053 -0.1041 -0.3641 -0.0937
  599SOL    HW1 1796   2.701   1.621   3.072 -0.0419 -1.7661  0.6840
  599SOL    HW2 1797   2.563   1.689   2.989  0.3422  0.2350  0.6778
  600SOL     OW 1798   0.821   0.855   2.945 -0.3596  0.2434  0.2307
  600SOL    HW1 1799   0.770   0.918   2.886  4.6699 -2.9301  0.0957
  600SOL    HW2 1800   0.871   0.904   3.019 -3.0431 -0.2096 -0.7579
  601SOL     OW 1801   1.174   1.091   2.716 -0.2768  0.5273  0.1048
  601SOL    HW1 1802   1.264   1.133   2.688 -0.6140 -3.0447 -0.9445
  601SOL    HW2 1803   1.104   1.159   2.747 -1.3407  2.6353 -1.1394
  602SOL     OW 1804   1.331   2.707   1.333 -0.4838 -0.0192 -0.8521
  602SOL    HW1 1805   1.383   2.622   1.348  2.5929  0.1815  0.5165
  602SOL    HW2 1806   1.370   2.764   1.256 -2.1182 -1.3128 -3.4627
  603SOL     OW 1807   1.059   3.006   2.434 -0.3541  0.5060  0.1048
  603SOL    HW1 1808   1.008   2.963   2.511  2.0184 -0.3385 -0.8813
  603SOL    HW2 1809   1.125   2.937   2.402  0.0744 -0.7411  0.1693
  604SOL     OW 1810   3.002   0.057   2.221  0.3596 -0.4743  0.2710
  604SOL    HW1 1811   3.055   0.052   2.135 -0.9272 -1.4938  1.4504
  604SOL    HW2 1812   3.005   3.056   2.269 -0.2659  1.8509  1.1061
  605SOL     OW 1813   2.276   2.349   1.405  0.4286 -0.2056 -0.2284
  605SOL    HW1 1814   2.247   2.348   1.502 -1.1068  1.7132 -1.9851
  605SOL    HW2 1815   2.216   2.422   1.355 -0.9232  1.0660 -1.2291
  606SOL     OW 1816   0.124   1.680   3.038  0.3756  0.0841 -0.2743
  606SOL    HW1 1817   0.204   1.617   3.065  0.5046  1.1790 -0.9627
  606SOL    HW2 1818   0.154   1.778   3.066  0.5100  0.8799  1.0202
  607SOL     OW 1819   1.114   0.509   0.409  0.8830 -0.3185 -0.1018
  607SOL    HW1 1820   1.146   0.427   0.357 -0.4774 -0.2897  2.3838
  607SOL    HW2 1821   1.073   0.581   0.343 -1.0355  1.8402 -1.6817
  608SOL     OW 1822   1.631   1.264   2.382  0.0451  0.3769  0.2022
  608SOL    HW1 1823   1.567   1.191   2.353  2.6626 -0.2469  0.8087
  608SOL    HW2 1824   1.581   1.343   2.422  3.2639  0.3353 -0.8936
  609SOL     OW 1825   2.674   0.555   0.946 -0.0743  0.4154  0.0882
  609SOL    HW1 1826   2.621   0.619   0.882 -0.3790 -0.7797  1.1488
  609SOL    HW2 1827   2.639   0.456   0.941 -0.7119 -1.2780  3.1544
  610SOL     OW 1828   0.416   2.330   2.878  0.5788 -0.1735 -0.1175
  610SOL    HW1 1829   0.507   2.319   2.927 -0.6954 -0.9099 -0.2994
  610SOL    HW2 1830   0.328   2.301   2.926 -3.5047  0.4105 -1.5616
  611SOL     OW 1831   1.689   1.390   0.493  0.0926 -0.3392 -0.2834
  611SOL    HW1 1832   1.742   1.472   0.456 -0.6142 -0.2927  1.9185
  611SOL    HW2 1833   1.593   1.408   0.534 -1.8886 -2.6545  0.0834
  612SOL     OW 1834   0.981   2.419   2.492  0.4353  0.1625 -0.2233
  612SOL    HW1 1835   1.042   2.423   2.409  3.4785  0.5871  0.3151
  612SOL    HW2 1836   0.882   2.410   2.477 -2.8545 -0.0447 -0.6037
  613SOL     OW 1837   1.334   1.586   2.964 -0.1299 -0.0511  0.0898
  613SOL    HW1 1838   1.414   1.557   3.022  0.8874 -0.2933  1.4992
  613SOL    HW2 1839   1.351   1.666   2.907 -2.0343 -1.9318  0.7572
  614SOL     OW 1840   2.758   2.469   1.851  0.0753  0.3230 -0.1633
  614SOL    HW1 1841   2.791   2.475   1.946 -1.5236 -0.3806 -0.7968
  614SOL    HW2 1842   2.790   2.385   1.803 -0.9974 -1.3992 -0.6127
  615SOL     OW 1843   2.235   1.398   3.007  0.1848  0.3868  0.3577
  615SOL    HW1 1844   2.145   1.375   2.959 -2.8380 -0.8311 -1.4975
  615SOL    HW2 1845   2.313   1.395   2.947 -1.0370 -0.4735  0.8813
  616SOL     OW 1846   1.634   0.194   1.027  0.1480 -0.0035 -0.2704
  616SOL    HW1 1847   1.676   0.215   1.117 -1.2022  1.6536  1.0643
  616SOL    HW2 1848   1.535   0.212   1.038 -0.6230 -0.4860 -3.1450
  617SOL     OW 1849   0.685   1.007   2.792  0.1035 -0.2931  0.0917
  617SOL    HW1 1850   0.648   0.976   2.703  1.5232 -0.3286  1.1480
  617SOL    HW2 1851   0.680   1.110   2.794  3.2460  1.4849 -0.3658
  618SOL     OW 1852   0.697   0.775   1.770 -0.2215 -0.3235  0.3417
  618SOL    HW1 1853   0.742   0.866   1.760 -1.7358 -2.3582  0.5478
  618SOL    HW2 1854   0.723   0.740   1.864 -2.4843  0.0003  2.5592
  619SOL     OW 1855   0.236   1.026   1.463 -0.3961  0.0282 -0.1377
  619SOL    HW1 1856   0.165   1.025   1.533  0.9498  2.2777  1.1715
  619SOL    HW2 1857   0.193   1.061   1.375 -0.9624 -1.7467  0.1419
  620SOL     OW 1858   1.980   1.115   3.044  0.2971 -0.1317  0.0406
  620SOL    HW1 1859   1.893   1.065   3.067  1.9281  1.1911 -0.6674
  620SOL    HW2 1860   1.969   1.187   2.976  1.5172 -2.3586 -0.5804
  621SOL     OW 1861   2.549   2.985   1.079 -0.6616 -0.2476  0.5663
  621SOL    HW1 1862   2.645   3.001   1.049 -1.3277 -0.7032  0.5410
  621SOL    HW2 1863   2.481   3.047   1.039  2.1318 -0.6995  0.7338
  622SOL     OW 1864   1.436   0.778   2.026  0.2309 -0.3339  0.2667
  622SOL    HW1 1865   1.528   0.787   2.070  0.0233  0.4374 -0.0560
  622SOL    HW2 1866   1.377   0.707   2.068  0.6829  1.2836  0.0078
  623SOL     OW 1867   0.902   0.463   2.756  0.4565 -0.5142 -0.4461
  623SOL    HW1 1868   0.871   0.439   2.667 -1.9414  0.4373  2.0481
  623SOL    HW2 1869   0.955   0.552   2.762 -0.7416 -0.3986  3.1387
  624SOL     OW 1870   1.649   0.325   0.378 -0.3131  0.0865 -0.5978
  624SOL    HW1 1871   1.556   0.358   0.403  0.3868  0.8447  1.0585
  624SOL    HW2 1872   1.716   0.339   0.457  0.7079  0.8546  0.3209
  625SOL     OW 1873   0.843   1.360   0.777  0.0172 -0.1157 -0.3262
  625SOL    HW1 1874   0.942   1.367   0.766 -0.8183 -0.0315 -0.0843
  625SOL    HW2 1875   0.821   1.446   0.826  0.9390 -0.1852 -1.5403
  626SOL     OW 1876   1.570   0.949   2.921 -0.9843 -0.1556 -0.0448
  626SOL    HW1 1877   1.471   0.933   2.922 -0.5795  0.1295 -2.0817
  626SOL    HW2 1878   1.590   1.042   2.893 -1.2234  0.6483 -0.7834
  627SOL     OW 1879   0.943   0.047   1.879 -0.1374 -0.4063 -0.0528
  627SOL    HW1 1880   0.980   3.058   1.934  3.6751 -2.3006 -1.7092
  627SOL    HW2 1881   0.865   0.012   1.824 -1.6013  0.9775  0.2079
  628SOL     OW 1882   2.474   0.410   2.173  0.3422 -0.0410  0.1670
  628SOL    HW1 1883   2.451   0.490   2.111 -1.2469  1.1067 -0.0226
  628SOL    HW2 1884   2.449   0.436   2.266  0.6255  1.1181 -0.3511
  629SOL     OW 1885   0.777   1.291   2.864 -0.1506 -0.0976 -0.6417
  629SOL    HW1 1886   0.813   1.282   2.957 -2.8947 -2.6853 -1.1723
  629SOL    HW2 1887   0.706   1.364   2.869  2.9900 -1.3010  0.0510
  630SOL     OW 1888   1.136   0.204   2.318 -0.1083 -0.6114  0.7935
  630SOL    HW1 1889   1.101   0.282   2.368 -1.7539 -3.3769 -0.6147
  630SOL    HW2 1890   1.233   0.181   2.350  1.1395 -2.7859 -0.7117
  631SOL     OW 1891   2.669   1.127   0.775  0.0740  0.3251  0.5659
  631SOL    HW1 1892   2.735   1.199   0.790 -1.2679 -4.2597  2.6559
  631SOL    HW2 1893   2.646   1.086   0.868  1.9740 -0.6825 -0.0068
  632SOL     OW 1894   2.553   1.416   0.679 -0.5956  0.0085 -0.3259
  632SOL    HW1 1895   2.560   1.318   0.712 -0.1519 -0.4416 -1.3130
  632SOL    HW2 1896   2.590   1.473   0.752 -2.3904 -1.3470 -0.3619
  633SOL     OW 1897   1.375   1.069   1.088 -0.6251 -0.0014  0.6587
  633SOL    HW1 1898   1.333   1.160   1.074 -2.4021  0.0277 -3.2791
  633SOL    HW2 1899   1.422   1.073   1.176  2.1688 -0.7475  1.6101
  634SOL     OW 1900   1.711   3.067   0.869  0.0960  0.4367  0.1960
  634SOL    HW1 1901   1.685   0.042   0.940 -2.5237 -0.4613  1.0142
  634SOL    HW2 1902   1.728   2.975   0.909 -2.2183  0.6423  0.5965
  635SOL     OW 1903   1.746   0.511   1.437 -0.2155  0.2113 -0.2337
  635SOL    HW1 1904   1.801   0.578   1.381  0.0073 -0.8614 -2.5158
  635SOL    HW2 1905   1.653   0.542   1.453 -2.3263 -2.8920 -3.3604
  636SOL     OW 1906   1.035   1.049   0.545  0.3077 -0.2109 -0.6034
  636SOL    HW1 1907   1.037   1.066   0.444 -0.8931  0.1714 -0.2938
  636SOL    HW2 1908   0.939   1.037   0.573 -0.3123  0.0025 -1.3091
  637SOL     OW 1909   1.545   2.285   0.106  0.0281 -0.7598 -0.5492
  637SOL    HW1 1910   1.465   2.331   0.065 -1.4161 -2.5542 -0.1663
  637SOL    HW2 1911   1.625   2.295   0.044  2.7431  0.7844  0.0861
  638SOL     OW 1912   1.124   2.801   2.953  0.1682 -0.4951  0.0843
  638SOL    HW1 1913   1.061   2.719   2.981 -0.9774 -1.4221  0.5635
  638SOL    HW2 1914   1.120   2.816   2.852 -0.7874  0.2507 -1.5256
  639SOL     OW 1915   0.855   1.897   1.397 -0.4573 -0.4047  0.4169
  639SOL    HW1 1916   0.822   1.805   1.427 -1.8084  2.5858 -1.5931
  639SOL    HW2 1917   0.848   1.898   1.296 -1.6725  0.7426  0.4398
  640SOL     OW 1918   0.355   2.881   0.270  0.1035 -0.0377 -0.4741
  640SOL    HW1 1919   0.316   2.828   0.189 -0.7158  1.6545 -1.6030
  640SOL    HW2 1920   0.404   2.967   0.241 -1.0813  1.6493 -0.1128
  641SOL     OW 1921   0.155   0.289   0.270  0.6094  0.5990  0.1157
  641SOL    HW1 1922   0.223   0.253   0.331 -2.1040  0.4964 -2.7942
  641SOL    HW2 1923   0.190   0.363   0.208  0.1352  2.1588  1.9198
  642SOL     OW 1924   0.280   1.598   1.058 -0.7602 -0.3984 -0.0076
  642SOL    HW1 1925   0.323   1.645   0.979 -0.1993  1.1491  0.9516
  642SOL    HW2 1926   0.230   1.670   1.109  1.9057 -2.0238  0.2782
  643SOL     OW 1927   0.964   1.891   2.450 -0.4449 -0.4246 -0.3304
  643SOL    HW1 1928   1.032   1.877   2.525  1.0420 -0.5561 -1.3327
  643SOL    HW2 1929   0.972   1.988   2.414  0.8796  0.4342  2.0004
  644SOL     OW 1930   1.736   2.513   0.493 -0.4535 -0.2871 -0.4801
  644SOL    HW1 1931   1.727   2.416   0.457  0.4688  1.7420  0.3834
  644SOL    HW2 1932   1.718   2.523   0.596 -1.8100 -0.4949  0.4452
  645SOL     OW 1933   1.826   2.065   1.583 -0.1671 -0.2379 -0.9073
  645SOL    HW1 1934   1.731   2.052   1.622 -0.7319  0.1434 -0.8288
  645SOL    HW2 1935   1.866   2.159   1.600  2.3586  1.8018  1.3060
  646SOL     OW 1936   0.970   2.742   0.226 -0.3522 -0.3205  0.0818
  646SOL    HW1 1937   0.994   2.836   0.253  2.9924 -0.1641 -1.0855
  646SOL    HW2 1938   0.879   2.711   0.268  0.0622 -1.0154  1.4373
  647SOL     OW 1939   0.561   3.028   1.963  0.0753  0.1184  0.5287
  647SOL    HW1 1940   0.493   2.950   1.964 -1.1285  0.9667  1.0410
  647SOL    HW2 1941   0.526   0.029   2.008  1.1639  1.2238  0.8631
  648SOL     OW 1942   2.561   1.096   0.516  0.5433  0.0200  0.0476
  648SOL    HW1 1943   2.460   1.080   0.527 -0.3522 -1.1341 -0.1748
  648SOL    HW2 1944   2.608   1.100   0.608  0.3981  0.6980  0.1687
  649SOL     OW 1945   1.752   2.528   2.808  0.5330  0.1620  0.2940
  649SOL    HW1 1946   1.744   2.503   2.710  0.6226  1.1925  0.1123
  649SOL    HW2 1947   1.736   2.624   2.825 -1.7523  1.7997  1.0461
  650SOL     OW 1948   2.321   1.227   1.963  0.2646  0.6440 -0.4245
  650SOL    HW1 1949   2.338   1.311   2.015  0.4668 -0.6055 -1.4915
  650SOL    HW2 1950   2.358   1.146   2.016 -0.9663  1.5705 -0.7080
  651SOL     OW 1951   1.618   1.687   2.797  0.4739  0.6326  0.1346
  651SOL    HW1 1952   1.672   1.744   2.862  1.0029 -1.0758  1.2418
  651SOL    HW2 1953   1.515   1.713   2.799 -2.8837  0.5891 -0.9443
  652SOL     OW 1954   0.633   2.925   2.555 -0.2342  0.2171 -0.2387
  652SOL    HW1 1955   0.666   2.844   2.609 -0.4098  0.2140  0.4873
  652SOL    HW2 1956   0.552   2.967   2.598 -1.3248  0.7915  2.4892
  653SOL     OW 1957   2.251   2.165   1.038 -0.0852 -0.8329  0.1101
  653SOL    HW1 1958   2.290   2.096   0.977  1.5265  2.6785  0.1615
  653SOL    HW2 1959   2.164   2.129   1.075  1.6481  0.4031 -1.6030
  654SOL     OW 1960   2.714   2.844   2.151  0.0638  0.1299 -0.5747
  654SOL    HW1 1961   2.641   2.906   2.188  0.4085  0.4027 -0.3432
  654SOL    HW2 1962   2.743   2.877   2.062  3.0003 -1.8197  0.5238
  655SOL     OW 1963   2.686   2.085   1.218  0.2408  0.4297 -0.0500
  655SOL    HW1 1964   2.587   2.103   1.212  0.0181  0.6541 -0.3940
  655SOL    HW2 1965   2.736   2.163   1.167  1.1793  1.2230 -2.4834
  656SOL     OW 1966   3.023   1.832   2.714  0.5129 -0.1477 -0.4312
  656SOL    HW1 1967   3.043   1.873   2.623 -0.1096 -0.5918 -0.6328
  656SOL    HW2 1968   3.072   1.745   2.729 -2.2652 -1.4254 -2.6692
  657SOL     OW 1969   0.044   1.034   0.322 -0.2454 -0.4725  0.1640
  657SOL    HW1 1970   0.125   1.093   0.343 -0.9154 -1.2202 -1.9485
  657SOL    HW2 1971   0.057   0.946   0.368  1.0431  1.3829 -0.6137
  658SOL     OW 1972   1.422   1.425   1.314  0.4414  0.3546  0.3516
  658SOL    HW1 1973   1.507   1.438   1.369 -0.5829 -1.3028 -2.8533
  658SOL    HW2 1974   1.362   1.504   1.307 -3.4790  1.3204 -2.0716
  659SOL     OW 1975   0.975   0.365   1.162  0.3387 -0.1013  0.2373
  659SOL    HW1 1976   0.961   0.300   1.086  1.4482 -1.8639  1.4490
  659SOL    HW2 1977   1.005   0.314   1.246 -1.1416  0.4962 -0.8060
  660SOL     OW 1978   2.153   1.246   1.080  0.1479 -0.0203 -0.3891
  660SOL    HW1 1979   2.143   1.242   0.979  0.7100  1.5712  1.3862
  660SOL    HW2 1980   2.095   1.176   1.126 -0.2378  1.8259 -2.1667
  661SOL     OW 1981   0.286   1.478   0.047 -0.0333 -0.8327  0.2022
  661SOL    HW1 1982   0.304   1.529   0.130  0.7290 -0.5918 -1.6625
  661SOL    HW2 1983   0.210   1.413   0.061 -4.2344 -0.3193  0.2233
  662SOL     OW 1984   2.651   0.775   2.039 -0.2399 -0.1511  0.1866
  662SOL    HW1 1985   2.660   0.753   2.138  1.1387  0.8727  2.0824
  662SOL    HW2 1986   2.718   0.845   2.011 -0.1880  1.3624  1.2692
  663SOL     OW 1987   2.420   1.519   1.341 -0.1067 -0.2169  0.6331
  663SOL    HW1 1988   2.473   1.544   1.262  0.4109  0.0580  0.0307
  663SOL    HW2 1989   2.478   1.473   1.412  1.1941  0.3304  0.5300
  664SOL     OW 1990   0.522   0.041   1.392  0.0223 -0.2236  0.7800
  664SOL    HW1 1991   0.523   0.058   1.291 -0.4176  0.5381 -2.3250
  664SOL    HW2 1992   0.440   0.077   1.436  1.4002 -1.3581 -0.2096
  665SOL     OW 1993   1.555   0.125   2.898  0.0344  0.2763  0.0362
  665SOL    HW1 1994   1.634   0.188   2.902  2.1436  0.0891 -1.0500
  665SOL    HW2 1995   1.554   0.065   2.978  2.0550  0.5031  0.3696
  666SOL     OW 1996   0.474   0.175   1.721  0.7215 -0.0447  0.1594
  666SOL    HW1 1997   0.554   0.227   1.687 -4.4408 -0.5427  1.5822
  666SOL    HW2 1998   0.503   0.089   1.765 -1.2726 -2.0653 -1.9692
  667SOL     OW 1999   1.734   1.428   1.952  0.4542  0.5919 -0.5237
  667SOL    HW1 2000   1.781   1.470   1.875 -2.7922  0.2776  1.0544
  667SOL    HW2 2001   1.792   1.439   2.036  0.7611  0.4547 -0.6038
  668SOL     OW 2002   0.176   1.507   2.285 -0.0266  0.1985 -0.3328
  668SOL    HW1 2003   0.211   1.416   2.314  1.3357 -2.8619 -2.5167
  668SOL    HW2 2004   0.100   1.495   2.218 -1.0286  1.0357 -1.2547
  669SOL     OW 2005   2.302   3.085   2.889 -0.5119  0.2731 -0.1217
  669SOL    HW1 2006   2.359   0.058   2.946 -4.1391 -0.9837  3.3157
  669SOL    HW2 2007   2.205   3.085   2.913  2.6564 -0.9617 -2.2411
  670SOL     OW 2008   2.568   1.112   2.377 -0.3963 -0.2663  0.0562
  670SOL    HW1 2009   2.666   1.095   2.350  1.9324  0.8657 -1.4344
  670SOL    HW2 2010   2.552   1.210   2.390  1.0598 -3.1532  1.6069
  671SOL     OW 2011   2.441   1.952   0.263  0.3831  0.7018  0.1527
  671SOL    HW1 2012   2.449   1.849   0.268 -1.4502  1.3957 -4.3082
  671SOL    HW2 2013   2.496   1.990   0.340 -0.0343  0.3062 -2.3846
  672SOL     OW 2014   1.369   1.179   2.009 -0.0942  0.1554 -0.4019
  672SOL    HW1 2015   1.454   1.169   1.953  1.4956 -0.1624 -2.6031
  672SOL    HW2 2016   1.300   1.105   1.992 -1.1530 -4.1921  1.6508
  673SOL     OW 2017   3.085   1.902   1.414  0.7474  0.4519  0.1412
  673SOL    HW1 2018   0.042   1.852   1.338 -0.1349 -3.7114 -0.5155
  673SOL    HW2 2019   0.047   1.889   1.504  2.6149 -1.4623 -0.2255
  674SOL     OW 2020   1.140   1.640   1.719  0.6701  0.1446 -0.4793
  674SOL    HW1 2021   1.085   1.628   1.804 -1.9381 -0.2677 -0.5849
  674SOL    HW2 2022   1.176   1.736   1.704 -0.2485 -0.3806  0.3803
  675SOL     OW 2023   3.029   0.909   0.875 -0.4222  0.2491 -0.2734
  675SOL    HW1 2024   3.074   0.970   0.806 -0.2925 -1.1885  1.0713
  675SOL    HW2 2025   3.085   0.825   0.899 -1.2688  1.5219  0.4462
  676SOL     OW 2026   3.080   1.353   0.919  0.0704  0.2232  0.5171
  676SOL    HW1 2027   0.091   1.355   0.889 -1.0449 -0.3950  0.7042
  676SOL    HW2 2028   3.064   1.273   0.979  0.1281  0.2505  1.0403
  677SOL     OW 2029   1.747   1.805   2.387  0.3168 -0.2116 -0.1343
  677SOL    HW1 2030   1.763   1.789   2.289 -0.1446  1.6839  1.2398
  677SOL    HW2 2031   1.742   1.716   2.440 -0.5942 -1.2380  0.1225
  678SOL     OW 2032   2.696   1.568   0.851  0.1278  0.2741 -0.0198
  678SOL    HW1 2033   2.671   1.660   0.823 -0.9984 -0.2569  0.6811
  678SOL    HW2 2034   2.721   1.564   0.952 -2.6200  0.1342 -1.7254
  679SOL     OW 2035   0.658   2.740   0.629  0.4998 -0.1985  0.5742
  679SOL    HW1 2036   0.620   2.652   0.660  0.7083  0.9763  3.4126
  679SOL    HW2 2037   0.669   2.812   0.699  0.8504  0.9264 -1.9714
  680SOL     OW 2038   0.111   1.831   1.157 -0.0332 -0.3301 -0.2924
  680SOL    HW1 2039   0.095   1.907   1.091 -0.7217 -1.0787  1.6319
  680SOL    HW2 2040   0.043   1.759   1.133 -1.7832  1.3430 -2.0871
  681SOL     OW 2041   1.182   0.541   1.101 -0.2361 -0.1449  0.4437
  681SOL    HW1 2042   1.101   0.478   1.098  1.2397  2.1858 -1.0597
  681SOL    HW2 2043   1.253   0.520   1.031  1.0574  1.1155  3.2646
  682SOL     OW 2044   1.652   2.650   1.531  0.4026 -0.0945 -0.3661
  682SOL    HW1 2045   1.590   2.704   1.593 -1.6880  2.9618  1.9178
  682SOL    HW2 2046   1.725   2.713   1.501 -0.7037 -1.3313  1.3376
  683SOL     OW 2047   2.549   1.481   1.589  0.1591 -1.1164 -0.3559
  683SOL    HW1 2048   2.526   1.394   1.636 -0.4251 -0.8308  0.4197
  683SOL    HW2 2049   2.643   1.488   1.552  0.8356  1.4722 -1.9933
  684SOL     OW 2050   0.137   1.601   1.738  0.5389 -0.4719 -0.0171
  684SOL    HW1 2051   0.126   1.561   1.644  0.9228  0.9209 -2.4158
  684SOL    HW2 2052   0.229   1.584   1.772 -0.3473  0.8819 -1.0666
  685SOL     OW 2053   1.876   1.859   0.248 -0.8072  0.6972  0.3037
  685SOL    HW1 2054   1.958   1.902   0.287 -3.0566  1.1238  0.0779
  685SOL    HW2 2055   1.902   1.799   0.168 -0.6618 -3.5688 -0.0421
  686SOL     OW 2056   0.116   0.740   1.260 -0.7781  0.2563  0.0276
  686SOL    HW1 2057   0.181   0.799   1.212 -5.4155  0.2180  0.1185
  686SOL    HW2 2058   0.122   0.653   1.215 -0.3656  1.6271  2.5534
  687SOL     OW 2059   1.886   0.109   2.698 -0.7758 -0.4151  0.0711
  687SOL    HW1 2060   1.963   0.175   2.723  0.4087 -1.1642 -1.0651
  687SOL    HW2 2061   1.849   0.130   2.607 -0.0877  2.0608  0.1487
  688SOL     OW 2062   1.370   2.139   2.517 -0.3689  0.0983  0.4221
  688SOL    HW1 2063   1.413   2.046   2.513 -0.8778  2.3640 -2.3801
  688SOL    HW2 2064   1.271   2.133   2.545 -0.9295 -1.4202 -1.5701
  689SOL     OW 2065   2.100   1.255   1.778 -0.1501 -0.2907 -0.0858
  689SOL    HW1 2066   2.187   1.248   1.830  4.1102 -0.1566  2.3516
  689SOL    HW2 2067   2.045   1.175   1.805  1.6059 -0.1200 -0.2657
  690SOL     OW 2068   1.894   1.862   1.395  0.8018 -0.2370 -0.0435
  690SOL    HW1 2069   1.856   1.933   1.457 -1.1437 -2.3376  2.1657
  690SOL    HW2 2070   1.992   1.865   1.381 -1.3837 -0.1225  0.4257
  691SOL     OW 2071   0.209   1.646   0.481 -0.1726 -0.1113  0.0467
  691SOL    HW1 2072   0.219   1.723   0.548  3.4727 -1.6695  1.4359
  691SOL    HW2 2073   0.137   1.580   0.517  0.1381  0.9721  0.9694
  692SOL     OW 2074   2.854   2.836   2.626 -0.3393 -0.6658  0.3125
  692SOL    HW1 2075   2.775   2.807   2.686 -1.7703 -1.0669  0.1394
  692SOL    HW2 2076   2.864   2.771   2.551  0.2395 -0.6464  1.4279
  693SOL     OW 2077   2.966   1.411   2.307  0.0981  0.4920  0.1762
  693SOL    HW1 2078   2.956   1.497   2.364 -1.1442 -0.9159 -0.2609
  693SOL    HW2 2079   3.011   1.433   2.217 -0.5867 -3.7439  0.4159
  694SOL     OW 2080   2.412   0.163   2.042  0.1056 -0.1942  0.4137
  694SOL    HW1 2081   2.432   0.258   2.080  0.1567  1.6032  3.0481
  694SOL    HW2 2082   2.325   0.131   2.076  2.2443  0.1228 -0.1083
  695SOL     OW 2083   1.066   0.645   2.213  0.4372  0.2821  0.4486
  695SOL    HW1 2084   0.971   0.653   2.256 -1.5435 -1.0659  0.1252
  695SOL    HW2 2085   1.091   0.739   2.190 -1.1429 -4.0700  2.5576
  696SOL     OW 2086   1.886   3.073   1.612 -0.1830  0.3307 -0.2205
  696SOL    HW1 2087   1.963   3.079   1.547 -0.9676 -0.7612 -3.2689
  696SOL    HW2 2088   1.914   3.045   1.707  1.6660 -1.0466 -0.6890
  697SOL     OW 2089   1.462   0.373   2.124 -0.3772  0.2831  0.6935
  697SOL    HW1 2090   1.480   0.455   2.180  1.8786 -2.2748 -0.4786
  697SOL    HW2 2091   1.543   0.354   2.063 -0.0042  2.1565 -1.2908
  698SOL     OW 2092   2.138   1.720   2.418 -0.7318  0.0704  0.3538
  698SOL    HW1 2093   2.199   1.790   2.456  0.5634 -0.8934 -1.6497
  698SOL    HW2 2094   2.079   1.765   2.348  1.3653 -0.1774 -0.7604
  699SOL     OW 2095   2.253   0.750   0.179 -0.6529  0.3081 -0.4213
  699SOL    HW1 2096   2.181   0.765   0.251  1.6266 -0.7032 -0.5800
  699SOL    HW2 2097   2.281   0.840   0.146  0.2024 -0.9761 -2.0786
  700SOL     OW 2098   1.250   0.124   0.545  0.1090 -0.2296 -0.8057
  700SOL    HW1 2099   1.303   0.183   0.616  0.2978 -0.4146  1.4609
  700SOL    HW2 2100   1.308   0.044   0.516  0.1453  0.0922 -0.5758
  701SOL     OW 2101   0.055   1.055   0.644 -0.1273  0.1226 -0.4849
  701SOL    HW1 2102   0.081   0.986   0.570 -1.5712 -4.0274 -5.7804
  701SOL    HW2 2103   3.048   1.085   0.629 -0.2177 -0.1859 -0.4689
  702SOL     OW 2104   1.851   0.159   2.007  0.5667 -0.3233  0.5082
  702SOL    HW1 2105   1.897   0.108   2.082 -0.5447 -1.8095 -0.2089
  702SOL    HW2 2106   1.909   0.171   1.929 -0.7168  0.4667  1.2635
  703SOL     OW 2107   3.015   1.143   1.076  0.9682  0.4423 -0.2679
  703SOL    HW1 2108   2.974   1.053   1.040  1.4414 -2.3987  1.3521
  703SOL    HW2 2109   0.011   1.125   1.133  0.2858  2.0830 -0.0998
  704SOL     OW 2110   0.981   2.411   1.276  0.1085 -0.4158 -0.9936
  704SOL    HW1 2111   0.923   2.497   1.291 -1.7850  0.3487  0.1651
  704SOL    HW2 2112   1.056   2.395   1.346  3.1593 -1.1349 -1.5776
  705SOL     OW 2113   0.312   1.457   2.699  0.1632 -0.2761  0.4194
  705SOL    HW1 2114   0.398   1.436   2.646  1.0502 -1.5923 -2.4086
  705SOL    HW2 2115   0.318   1.546   2.750  1.4644  1.2048 -0.7808
  706SOL     OW 2116   2.999   2.897   0.132 -0.0392 -0.0418 -0.3378
  706SOL    HW1 2117   2.929   2.830   0.161  0.3537 -1.2791 -1.4873
  706SOL    HW2 2118   3.000   2.967   0.210 -1.9180  2.2824 -1.1848
  707SOL     OW 2119   1.482   2.902   2.118  0.1168 -0.0553 -0.8962
  707SOL    HW1 2120   1.534   2.985   2.106 -2.1951 -1.6916 -0.0630
  707SOL    HW2 2121   1.386   2.916   2.085 -0.8837  2.7896  4.3066
  708SOL     OW 2122   0.338   2.804   1.639 -0.0260 -0.7772 -0.6478
  708SOL    HW1 2123   0.435   2.805   1.615  1.0322  0.1266  1.8242
  708SOL    HW2 2124   0.284   2.726   1.598  1.0739 -0.5076 -0.6130
  709SOL     OW 2125   3.008   0.650   1.849  0.3241 -0.9316 -0.3912
  709SOL    HW1 2126   3.077   0.729   1.839  0.0655 -0.5529  2.5468
  709SOL    HW2 2127   3.008   0.615   1.942 -1.7131  4.1191  1.4578
  710SOL     OW 2128   0.221   1.090   0.865 -0.1653 -0.5751 -0.2237
  710SOL    HW1 2129   0.314   1.069   0.830 -3.8480  0.7570 -0.2093
  710SOL    HW2 2130   0.159   1.100   0.784 -1.5064 -2.6483  1.4722
  711SOL     OW 2131   2.664   2.937   1.359 -0.2825 -0.1649  0.5665
  711SOL    HW1 2132   2.618   2.857   1.395  2.3150 -1.1045 -1.1998
  711SOL    HW2 2133   2.620   2.970   1.277  3.2940 -1.1658  4.6781
  712SOL     OW 2134   0.319   2.580   2.424 -0.2109  0.1532  0.0886
  712SOL    HW1 2135   0.352   2.567   2.521  1.8935 -0.2527 -0.4913
  712SOL    HW2 2136   0.268   2.665   2.400  1.8308  2.0899  0.2832
  713SOL     OW 2137   2.406   0.376   0.688  0.0580 -0.2528  0.3594
  713SOL    HW1 2138   2.316   0.345   0.644 -4.3285  1.3439 -0.1942
  713SOL    HW2 2139   2.423   0.476   0.667  0.8382  0.2311  0.2736
  714SOL     OW 2140   1.681   1.981   2.706  0.3956 -0.0987 -0.1036
  714SOL    HW1 2141   1.600   1.951   2.649 -1.8781 -1.4858  3.2813
  714SOL    HW2 2142   1.754   2.011   2.645 -2.5254 -3.5947 -1.1997
  715SOL     OW 2143   0.075   0.668   0.941 -0.2204 -0.7619 -0.1040
  715SOL    HW1 2144   0.124   0.620   1.014 -1.9283 -0.7528 -0.9797
  715SOL    HW2 2145   3.084   0.615   0.914  0.3301  1.8557 -0.5351
  716SOL     OW 2146   0.801   0.652   1.519 -0.1479 -0.4692  0.1870
  716SOL    HW1 2147   0.903   0.674   1.509  1.6349 -1.9125 -0.8282
  716SOL    HW2 2148   0.763   0.696   1.599 -0.7440 -1.8269 -0.7593
  717SOL     OW 2149   0.815   0.321   2.538 -0.5737  0.7919 -0.0946
  717SOL    HW1 2150   0.793   0.221   2.537 -0.0561 -1.5566 -3.1649
  717SOL    HW2 2151   0.735   0.386   2.552  0.7860 -0.0826  0.1170
  718SOL     OW 2152   1.223   0.266   0.300  0.2195  0.3619 -0.7605
  718SOL    HW1 2153   1.210   0.224   0.208 -2.3248 -0.4765  0.9487
  718SOL    HW2 2154   1.227   0.195   0.372  1.6261 -1.1258 -1.5459
  719SOL     OW 2155   2.843   2.206   2.486 -0.2261  0.0969 -0.3164
  719SOL    HW1 2156   2.826   2.217   2.585 -2.6526  0.4555 -2.1914
  719SOL    HW2 2157   2.935   2.236   2.464 -2.6902 -2.0188  3.2918
  720SOL     OW 2158   1.250   0.507   1.367  0.1688 -0.2539 -0.8953
  720SOL    HW1 2159   1.189   0.587   1.402 -1.2326  2.0268 -1.0877
  720SOL    HW2 2160   1.229   0.502   1.266  0.0309  1.1844  1.5868
  721SOL     OW 2161   3.027   2.903   1.130  0.2663 -0.0129  0.2253
  721SOL    HW1 2162   3.059   2.863   1.040 -1.3386  2.2319 -1.4054
  721SOL    HW2 2163   2.978   2.835   1.184 -0.5043 -1.2369 -2.3980
  722SOL     OW 2164   1.011   1.372   2.744 -0.0461  0.0750  0.3506
  722SOL    HW1 2165   0.930   1.321   2.786 -0.8535 -1.5626  1.0781
  722SOL    HW2 2166   0.985   1.466   2.727  1.6974 -2.4336 -2.6105
  723SOL     OW 2167   2.348   0.625   1.170 -0.8189  0.3627 -0.1589
  723SOL    HW1 2168   2.451   0.638   1.182  3.7396  1.0850 -2.3514
  723SOL    HW2 2169   2.304   0.711   1.138 -2.9625 -1.8664 -1.8113
  724SOL     OW 2170   0.832   1.971   0.283 -0.1420 -1.4673  0.0393
  724SOL    HW1 2171   0.777   1.986   0.195  0.2521 -1.1166 -2.9790
  724SOL    HW2 2172   0.904   1.897   0.272 -0.2470 -2.5037  1.3483
  725SOL     OW 2173   0.365   1.262   1.539  0.0832  0.3830 -0.1774
  725SOL    HW1 2174   0.350   1.160   1.542 -3.1840  0.2109  1.2268
  725SOL    HW2 2175   0.462   1.275   1.579 -0.4897 -2.4403 -2.6619
  726SOL     OW 2176   2.460   1.109   2.815 -0.4748  0.2602 -0.1342
  726SOL    HW1 2177   2.506   1.029   2.850 -0.1417  0.5699 -1.9532
  726SOL    HW2 2178   2.359   1.100   2.820  0.7142  1.2855 -0.4804
  727SOL     OW 2179   1.813   1.177   2.644 -0.1221 -0.4242  0.1365
  727SOL    HW1 2180   1.813   1.236   2.567  0.5914 -0.8736  1.5548
  727SOL    HW2 2181   1.796   1.084   2.612 -0.6249  1.0030 -2.7961
  728SOL     OW 2182   1.502   2.502   1.368 -0.1559  0.3651  0.1104
  728SOL    HW1 2183   1.536   2.567   1.441  1.7946 -0.7435  1.4054
  728SOL    HW2 2184   1.555   2.414   1.378 -0.7363  1.5637 -1.5579
  729SOL     OW 2185   2.025   0.708   2.289 -0.0285 -0.0774 -0.3693
  729SOL    HW1 2186   1.990   0.729   2.381 -0.4521  0.2334 -0.2561
  729SOL    HW2 2187   1.987   0.773   2.222  0.5121 -0.9127  1.9414
  730SOL     OW 2188   1.186   0.830   1.071  0.3176  0.2514 -0.4694
  730SOL    HW1 2189   1.228   0.823   0.979 -1.2650 -0.8848  3.4035
  730SOL    HW2 2190   1.192   0.738   1.118  0.8397  2.4942  2.6328
  731SOL     OW 2191   0.784   0.297   2.922  0.0374  0.3917  0.1825
  731SOL    HW1 2192   0.841   0.348   2.851 -2.6807  3.5352  3.0720
  731SOL    HW2 2193   0.708   0.362   2.956  0.1205 -0.8252  1.1435
  732SOL     OW 2194   0.474   0.603   0.243  0.0011 -0.1826  0.6208
  732SOL    HW1 2195   0.488   0.525   0.306 -0.0237  3.8346 -0.5733
  732SOL    HW2 2196   0.562   0.623   0.197 -0.7368  1.4583 -2.2612
  733SOL     OW 2197   1.752   1.610   2.578 -0.4706 -0.1724  0.0554
  733SOL    HW1 2198   1.689   1.611   2.660 -0.4948  0.0859 -0.0005
  733SOL    HW2 2199   1.847   1.611   2.611 -2.1269  0.0665  0.4330
  734SOL     OW 2200   0.259   1.923   2.746  0.0886 -0.8272 -0.0174
  734SOL    HW1 2201   0.219   1.957   2.835  0.2924  1.2360 -2.2036
  734SOL    HW2 2202   0.211   1.963   2.668 -0.9235 -0.3717  2.3511
  735SOL     OW 2203   2.218   0.495   0.975 -0.2773  0.0666 -0.0706
  735SOL    HW1 2204   2.235   0.558   0.892  0.5488  1.2208 -0.9810
  735SOL    HW2 2205   2.252   0.530   1.064 -0.4634  0.3408 -1.6953
  736SOL     OW 2206   1.996   1.643   2.674 -0.5697 -0.0323 -0.2027
  736SOL    HW1 2207   2.027   1.732   2.722  0.6839  2.8142  1.5484
  736SOL    HW2 2208   2.047   1.647   2.588  2.4796 -1.3216  1.1364
  737SOL     OW 2209   2.965   0.611   0.557 -0.2783 -0.1581 -0.4894
  737SOL    HW1 2210   2.917   0.640   0.472  1.1548  2.4857 -1.0911
  737SOL    HW2 2211   3.058   0.580   0.530 -1.0003  0.1983 -1.0929
  738SOL     OW 2212   0.754   2.094   1.775  0.0391 -0.2620 -0.0763
  738SOL    HW1 2213   0.840   2.041   1.747  4.2360 -0.1064  1.5191
  738SOL    HW2 2214   0.739   2.173   1.709 -0.8162  1.0095 -3.3888
  739SOL     OW 2215   1.198   2.691   2.082  0.1207  0.2096  0.4985
  739SOL    HW1 2216   1.218   2.615   2.014  2.6204  0.4863 -2.9981
  739SOL    HW2 2217   1.200   2.781   2.037 -0.7813  0.8242  0.2157
  740SOL     OW 2218   1.805   2.381   1.462 -0.0145 -0.2203 -0.4667
  740SOL    HW1 2219   1.723   2.342   1.520 -1.4485 -3.1449  5.0448
  740SOL    HW2 2220   1.891   2.389   1.517 -0.6507 -1.2232 -2.7421
  741SOL     OW 2221   2.206   0.392   0.333  0.3093 -0.4451 -0.2968
  741SOL    HW1 2222   2.124   0.388   0.266  3.5563  0.4956 -2.5247
  741SOL    HW2 2223   2.291   0.420   0.287  2.7299 -0.9865 -1.7719
  742SOL     OW 2224   0.969   2.580   2.958  0.7868  0.0116  0.2550
  742SOL    HW1 2225   0.995   2.555   2.861  0.1494 -0.7738 -1.3739
  742SOL    HW2 2226   0.975   2.509   3.029 -1.2227  0.7221 -1.1823
  743SOL     OW 2227   2.434   1.023   2.144  0.3175  0.4123 -0.0345
  743SOL    HW1 2228   2.495   1.050   2.220  0.5769 -0.7426 -1.0751
  743SOL    HW2 2229   2.461   0.929   2.118  2.9096  1.1376  1.5524
  744SOL     OW 2230   2.553   0.740   0.767 -0.0926  0.0708 -0.1385
  744SOL    HW1 2231   2.509   0.687   0.687 -1.9257  0.3878 -1.7619
  744SOL    HW2 2232   2.633   0.797   0.738  0.8965  0.7642 -0.1620
  745SOL     OW 2233   2.538   1.097   1.495 -0.1683 -0.0522 -0.1965
  745SOL    HW1 2234   2.586   1.011   1.520 -1.0509  0.0243 -1.2866
  745SOL    HW2 2235   2.536   1.164   1.571 -1.0198  1.5701 -2.0692
  746SOL     OW 2236   1.136   1.503   0.588  0.4062 -0.2963  0.0867
  746SOL    HW1 2237   1.085   1.581   0.623  0.5417 -0.3920 -1.0386
  746SOL    HW2 2238   1.129   1.487   0.486  1.5106 -0.6493  0.9107
  747SOL     OW 2239   1.056   1.590   1.469 -0.0932 -0.2908 -0.2558
  747SOL    HW1 2240   1.102   1.602   1.558 -1.0554 -0.6601 -2.1189
  747SOL    HW2 2241   1.123   1.604   1.390 -1.5435  1.4488 -0.0316
  748SOL     OW 2242   0.279   2.787   3.087 -0.3197  0.5565  0.3297
  748SOL    HW1 2243   0.270   2.863   3.026 -0.3238 -3.0949  3.4884
  748SOL    HW2 2244   0.358   2.725   3.060  1.6541 -0.9667  1.5468
  749SOL     OW 2245   0.309   0.990   2.647  0.4048  0.1499  0.4462
  749SOL    HW1 2246   0.280   1.030   2.558  0.3582  1.0054  0.3865
  749SOL    HW2 2247   0.227   0.961   2.702 -1.2818  0.7939 -2.0695
  750SOL     OW 2248   1.662   0.930   1.887  0.2037  0.4008 -0.1322
  750SOL    HW1 2249   1.644   0.893   1.794  0.8688 -2.2652  0.8884
  750SOL    HW2 2250   1.671   0.854   1.953  2.5310 -4.0452 -1.0469
  751SOL     OW 2251   2.828   0.691   0.343  0.5837  0.2595 -0.1661
  751SOL    HW1 2252   2.762   0.615   0.342  1.2709  1.6803  0.3149
  751SOL    HW2 2253   2.774   0.777   0.360 -0.4118  0.1764  3.9210
  752SOL     OW 2254   2.875   2.746   1.343  0.1399  0.1382  0.3857
  752SOL    HW1 2255   2.958   2.785   1.393  2.2867  2.0901  0.4741
  752SOL    HW2 2256   2.794   2.806   1.358  1.3436  1.7940  0.2501
  753SOL     OW 2257   0.777   2.239   1.291 -0.2068  0.4103  0.5582
  753SOL    HW1 2258   0.853   2.305   1.261  1.5081  0.6122 -0.5245
  753SOL    HW2 2259   0.776   2.232   1.393 -1.7507  1.9299  2.2508
  754SOL     OW 2260   0.143   2.914   2.094  0.5000  0.4024 -0.1751
  754SOL    HW1 2261   0.067   2.867   2.144 -0.4248  0.2454  2.0395
  754SOL    HW2 2262   0.107   2.996   2.042 -3.3989  0.9841 -0.4077
  755SOL     OW 2263   2.493   0.595   0.562 -0.5377 -0.3922 -0.0420
  755SOL    HW1 2264   2.545   0.564   0.484 -0.1021  2.3440  0.3500
  755SOL    HW2 2265   2.416   0.649   0.524  0.9135  0.3445 -1.1646
  756SOL     OW 2266   2.407   2.549   2.888 -0.0431  0.5326 -0.1375
  756SOL    HW1 2267   2.397   2.558   2.786  0.3772 -0.6220 -2.4416
  756SOL    HW2 2268   2.326   2.594   2.931 -2.0104  0.4817 -0.4361
  757SOL     OW 2269   2.151   0.621   0.701  0.2036 -0.3432  0.1070
  757SOL    HW1 2270   2.205   0.656   0.624 -0.6416 -0.6764  1.3159
  757SOL    HW2 2271   2.134   0.522   0.693  1.2190  2.1905 -2.3072
  758SOL     OW 2272   2.348   0.835   1.631  0.2879 -0.2553 -0.1156
  758SOL    HW1 2273   2.330   0.872   1.532 -1.8774  1.8117 -1.8007
  758SOL    HW2 2274   2.433   0.880   1.669  0.4880  2.2867 -2.4972
  759SOL     OW 2275   2.608   0.656   1.181  0.3809 -0.0317 -0.0031
  759SOL    HW1 2276   2.664   0.736   1.209  1.5930 -2.3678  1.1866
  759SOL    HW2 2277   2.647   0.614   1.099 -2.5700  1.3192  3.3585
  760SOL     OW 2278   2.779   1.523   1.322  0.0378 -0.1717 -0.0850
  760SOL    HW1 2279   2.793   1.425   1.301  0.7936 -0.0516 -0.0778
  760SOL    HW2 2280   2.728   1.567   1.248  3.3107 -2.5934  2.0224
  761SOL     OW 2281   0.921   0.755   0.254 -0.4084 -0.1098  0.1059
  761SOL    HW1 2282   0.854   0.825   0.258  2.4147 -0.0092 -0.7317
  761SOL    HW2 2283   1.011   0.785   0.215  1.6233  1.2848  0.7723
  762SOL     OW 2284   0.730   1.717   0.758 -0.7184 -0.0920  0.7659
  762SOL    HW1 2285   0.728   1.820   0.751 -0.2221 -2.1610  1.2983
  762SOL    HW2 2286   0.649   1.678   0.708 -1.5993  0.4040 -0.6929
  763SOL     OW 2287   1.105   0.724   1.468 -0.2233 -0.7852  0.0928
  763SOL    HW1 2288   1.153   0.761   1.551 -0.0164 -0.0710  1.3733
  763SOL    HW2 2289   1.082   0.802   1.405  3.4921  0.6757 -0.4947
  764SOL     OW 2290   0.545   1.917   2.767 -0.1402 -0.4765 -0.6556
  764SOL    HW1 2291   0.580   1.863   2.688  0.0530 -0.4339  1.1012
  764SOL    HW2 2292   0.449   1.951   2.747 -1.3715 -0.7346 -1.9713
  765SOL     OW 2293   0.628   2.825   1.608  0.0082  0.2202  0.7060
  765SOL    HW1 2294   0.670   2.731   1.628 -0.5968 -3.5400 -0.1684
  765SOL    HW2 2295   0.617   2.837   1.509  2.0799 -0.8480  2.0738
  766SOL     OW 2296   2.485   1.881   2.231  0.3492 -0.0914  0.1081
  766SOL    HW1 2297   2.553   1.951   2.261  2.4946  0.2012 -0.3520
  766SOL    HW2 2298   2.509   1.799   2.281  0.0943  0.3250 -0.1019
  767SOL     OW 2299   1.455   1.071   2.242 -0.5184  0.0436  0.3254
  767SOL    HW1 2300   1.415   0.981   2.227  3.1960 -1.3341 -1.0873
  767SOL    HW2 2301   1.420   1.139   2.175 -0.7092  0.5864 -0.1168
  768SOL     OW 2302   1.444   1.900   0.185  0.3352  0.2206  0.0548
  768SOL    HW1 2303   1.416   1.832   0.250  0.8328  3.3533 -0.8003
  768SOL    HW2 2304   1.533   1.880   0.146  0.6346  0.3927  0.1665
  769SOL     OW 2305   0.507   1.316   0.879 -0.1375  0.1114 -0.4790
  769SOL    HW1 2306   0.565   1.377   0.932  0.1842 -0.0829 -2.4691
  769SOL    HW2 2307   0.545   1.282   0.789 -0.4464 -1.8094 -0.4825
  770SOL     OW 2308   1.339   0.825   2.400  0.1922 -0.2775  0.2929
  770SOL    HW1 2309   1.412   0.867   2.464  2.1979  1.3211  3.8137
  770SOL    HW2 2310   1.372   0.731   2.376  0.6170  0.2148  0.2519
  771SOL     OW 2311   2.921   3.086   2.504 -0.0384  0.2369  0.0130
  771SOL    HW1 2312   2.825   0.028   2.493 -2.7923 -0.3287  2.1128
  771SOL    HW2 2313   2.921   2.996   2.552  0.8748 -1.9680  0.4860
  772SOL     OW 2314   2.034   1.868   2.224 -0.0111  0.4336  0.0936
  772SOL    HW1 2315   1.953   1.819   2.185 -0.5641 -0.4301 -0.5171
  772SOL    HW2 2316   2.110   1.868   2.156  0.7479  0.0024  2.6518
  773SOL     OW 2317   0.446   1.758   1.370 -0.0758  0.0251  0.0063
  773SOL    HW1 2318   0.479   1.767   1.467 -1.7300 -0.3540  0.7903
  773SOL    HW2 2319   0.404   1.666   1.346 -0.5925 -2.1253  0.3005
  774SOL     OW 2320   1.205   0.688   2.936  0.3209  0.3384 -0.3549
  774SOL    HW1 2321   1.116   0.710   2.899 -0.9847 -2.6790  0.6050
  774SOL    HW2 2322   1.202   0.609   3.001  2.7720  0.6841  0.4189
  775SOL     OW 2323   1.904   2.597   0.211  0.1512 -0.2412  0.3380
  775SOL    HW1 2324   1.810   2.635   0.219 -2.0212 -0.1391 -0.9723
  775SOL    HW2 2325   1.953   2.639   0.134 -0.4973  1.0673  1.0445
  776SOL     OW 2326   0.226   0.577   1.724  0.2312 -0.2630 -0.4205
  776SOL    HW1 2327   0.198   0.484   1.761  0.1872  0.3310 -0.1158
  776SOL    HW2 2328   0.167   0.602   1.644  0.0371 -1.7358  2.9553
  777SOL     OW 2329   2.248   1.862   2.071 -0.0245  0.1032  0.1499
  777SOL    HW1 2330   2.335   1.855   2.121 -1.7741  1.4878  0.9585
  777SOL    HW2 2331   2.266   1.922   1.991  0.0010  0.3753  1.4898
  778SOL     OW 2332   1.702   0.948   2.296  0.5382  0.5741  0.6885
  778SOL    HW1 2333   1.621   0.992   2.252 -1.3468 -0.7505 -0.2513
  778SOL    HW2 2334   1.786   0.948   2.239  1.2190 -0.4598  0.0754
  779SOL     OW 2335   2.834   0.927   3.058 -0.0244  0.2567  0.0856
  779SOL    HW1 2336   2.839   0.839   0.019  1.1305  2.2062 -0.4477
  779SOL    HW2 2337   2.910   0.983   0.011  0.1758  0.3172  0.1270
  780SOL     OW 2338   2.340   0.209   2.658 -0.4327  0.5580  0.6223
  780SOL    HW1 2339   2.379   0.154   2.737  1.3366  3.9488  2.6337
  780SOL    HW2 2340   2.371   0.307   2.664 -4.0624  0.7898 -0.2160
  781SOL     OW 2341   0.120   1.878   1.671 -0.4420 -0.2820 -0.0557
  781SOL    HW1 2342   0.203   1.937   1.669  0.2783 -3.6160  3.7503
  781SOL    HW2 2343   0.145   1.787   1.713 -1.4774  1.1651  2.2520
  782SOL     OW 2344   2.645   2.113   2.893 -0.7233  0.0564 -0.0345
  782SOL    HW1 2345   2.702   2.189   2.848 -0.1972  2.3683 -0.9172
  782SOL    HW2 2346   2.555   2.153   2.909  1.8466 -2.0002  0.6512
  783SOL     OW 2347   0.587   1.104   1.176  0.6804  0.0513 -0.1751
  783SOL    HW1 2348   0.553   1.029   1.236  1.2106 -2.7965  0.7779
  783SOL    HW2 2349   0.687   1.118   1.183 -2.5176  0.1064 -0.1470
  784SOL     OW 2350   2.452   0.752   2.939 -0.1477 -0.0637 -0.0771
  784SOL    HW1 2351   2.545   0.782   2.907 -1.3072 -2.6760 -0.8378
  784SOL    HW2 2352   2.431   0.801   3.028 -1.1427  3.3527 -0.7661
  785SOL     OW 2353   2.055   2.448   0.744 -0.4372 -0.2882 -0.0206
  785SOL    HW1 2354   2.012   2.512   0.672 -5.1100  2.0290 -1.9588
  785SOL    HW2 2355   2.080   2.356   0.706 -2.5114 -2.0680 -0.4490
  786SOL     OW 2356   0.520   2.128   2.387  0.3300  0.1356  0.4675
  786SOL    HW1 2357   0.602   2.136   2.444 -0.7522  1.3244 -1.0771
  786SOL    HW2 2358   0.501   2.031   2.369  0.4513  3.1836 -1.5074
  787SOL     OW 2359   1.424   0.270   1.376 -0.2727 -0.2841  0.3473
  787SOL    HW1 2360   1.485   0.279   1.459  2.1826  0.2696 -1.8545
  787SOL    HW2 2361   1.350   0.344   1.370 -1.4774  2.7678  0.6470
  788SOL     OW 2362   0.379   0.852   0.255  0.4036 -0.1385  0.0093
  788SOL    HW1 2363   0.434   0.767   0.278  0.3420 -2.8194 -0.4540
  788SOL    HW2 2364   0.341   0.846   0.157  0.4642  0.7592 -2.3410
  789SOL     OW 2365   0.027   2.165   1.318 -0.6687 -0.2465 -0.4779
  789SOL    HW1 2366   0.008   2.077   1.362 -0.5116  1.0816 -0.0945
  789SOL    HW2 2367   3.050   2.239   1.343  3.3163 -0.7643 -2.4749
  790SOL     OW 2368   1.326   0.568   1.771 -0.6226  0.2237  0.5830
  790SOL    HW1 2369   1.296   0.602   1.863 -1.7585 -0.1345  0.4991
  790SOL    HW2 2370   1.310   0.471   1.758  1.9442  3.5604  3.1029
  791SOL     OW 2371   1.407   0.428   0.449  0.8401 -0.5445  0.2842
  791SOL    HW1 2372   1.377   0.526   0.463  3.6185  3.2243  1.6479
  791SOL    HW2 2373   1.345   0.374   0.388 -0.0274 -0.9619 -2.7497
  792SOL     OW 2374   1.488   2.771   1.739  0.0105  0.1035  0.1073
  792SOL    HW1 2375   1.388   2.765   1.719  0.0325  0.2037  2.5962
  792SOL    HW2 2376   1.499   2.849   1.804 -1.5821 -0.1846  0.5048
  793SOL     OW 2377   0.522   0.055   0.518 -0.7269 -0.2906 -0.2538
  793SOL    HW1 2378   0.598   0.076   0.456 -1.5951 -1.2167  0.7119
  793SOL    HW2 2379   0.500   3.041   0.525 -1.5165 -2.9739 -0.7843
  794SOL     OW 2380   0.541   0.969   2.297 -0.1235  0.3470  0.4226
  794SOL    HW1 2381   0.591   1.043   2.247 -2.2954  1.6267  1.0841
  794SOL    HW2 2382   0.476   0.912   2.240 -2.0682  2.6988 -1.2586
  795SOL     OW 2383   0.291   1.737   2.237  0.3955  0.6295 -0.4691
  795SOL    HW1 2384   0.222   1.781   2.171  1.0827 -2.6389  0.3894
  795SOL    HW2 2385   0.253   1.642   2.255  0.4126 -0.2320  1.2729
  796SOL     OW 2386   1.952   0.927   2.135 -0.1217  0.0808  0.0070
  796SOL    HW1 2387   1.933   0.973   2.049  0.2745  0.1858  1.6399
  796SOL    HW2 2388   2.029   0.967   2.193  0.1463  1.7427  0.1473
  797SOL     OW 2389   3.064   2.966   2.761 -0.4124  0.5167  0.0798
  797SOL    HW1 2390   0.067   2.960   2.715 -0.2147  2.0919 -0.9137
  797SOL    HW2 2391   2.995   2.915   2.709 -0.2641 -2.5780 -1.1766
  798SOL     OW 2392   3.077   2.073   2.054 -0.1577  0.7424 -0.3809
  798SOL    HW1 2393   2.983   2.084   2.102  0.3283 -0.0420  1.6126
  798SOL    HW2 2394   0.060   2.136   2.092 -1.2772  0.9148 -0.9030
  799SOL     OW 2395   3.049   2.081   2.832  0.4500 -0.3131 -0.3715
  799SOL    HW1 2396   0.016   2.146   2.775  1.3084 -3.2191  3.0194
  799SOL    HW2 2397   3.046   1.986   2.795 -0.7138 -0.5755  1.4797
  800SOL     OW 2398   1.176   2.025   0.753  0.2410  0.3909  0.3156
  800SOL    HW1 2399   1.126   1.999   0.669  1.1332  0.9907 -0.6272
  800SOL    HW2 2400   1.278   2.017   0.757 -2.8181 -0.9913  1.7393
  801SOL     OW 2401   1.991   0.827   0.745 -0.0812  0.1707  0.0759
  801SOL    HW1 2402   1.895   0.813   0.716  1.0520  0.5529  2.6123
  801SOL    HW2 2403   2.044   0.740   0.737 -1.8169  0.8611  0.8904
  802SOL     OW 2404   2.795   1.495   0.240  0.9283 -0.0399 -0.5324
  802SOL    HW1 2405   2.817   1.478   0.338 -1.3171 -0.2596  0.8619
  802SOL    HW2 2406   2.860   1.560   0.202  0.2233 -0.0513  2.3795
  803SOL     OW 2407   1.376   1.827   2.802  0.4254  0.2398 -0.7306
  803SOL    HW1 2408   1.391   1.893   2.881 -0.4078 -0.6316  0.9114
  803SOL    HW2 2409   1.294   1.842   2.743  1.9849 -1.1037  1.2433
  804SOL     OW 2410   1.671   1.832   0.057 -0.3590  0.2370  0.2541
  804SOL    HW1 2411   1.735   1.850   0.139  1.1006 -1.2133  4.2818
  804SOL    HW2 2412   1.719   1.838   3.050 -1.3679 -1.4068 -1.9562
  805SOL     OW 2413   2.464   1.695   2.840 -0.1744 -0.2395  0.1136
  805SOL    HW1 2414   2.521   1.736   2.765  3.1525 -1.4398  0.5237
  805SOL    HW2 2415   2.443   1.599   2.817  2.6562  1.1419  2.5617
  806SOL     OW 2416   0.717   0.079   0.328 -0.1294  0.3066 -0.0551
  806SOL    HW1 2417   0.775   0.163   0.320  2.1606  0.0738 -1.4087
  806SOL    HW2 2418   0.784   3.086   0.328  1.1186  0.4411  0.7539
  807SOL     OW 2419   1.983   1.281   2.828 -0.3031  0.5438 -0.4007
  807SOL    HW1 2420   1.948   1.379   2.830 -0.1626  0.0115 -0.0129
  807SOL    HW2 2421   1.924   1.223   2.766 -2.2622  0.9912  0.4152
  808SOL     OW 2422   0.031   1.740   0.291  0.2262 -0.3701 -0.0769
  808SOL    HW1 2423   0.108   1.688   0.333  0.6255 -1.4353 -0.4275
  808SOL    HW2 2424   0.045   1.841   0.291  1.4477  2.9679  0.1930
  809SOL     OW 2425   2.683   0.869   2.848  0.4452 -0.2078 -0.5704
  809SOL    HW1 2426   2.743   0.886   2.933 -0.8014 -1.4449  0.3611
  809SOL    HW2 2427   2.728   0.915   2.768 -0.3157  0.7353 -2.4619
  810SOL     OW 2428   0.784   0.984   0.242 -0.5945  0.0135  0.1590
  810SOL    HW1 2429   0.863   1.011   0.183 -0.6114  0.8642  1.2945
  810SOL    HW2 2430   0.693   1.035   0.224 -1.8761  1.0418 -0.4489
  811SOL     OW 2431   1.274   2.366   1.247  0.0767 -0.3013 -0.2020
  811SOL    HW1 2432   1.249   2.391   1.150 -2.2019 -1.7330  3.5736
  811SOL    HW2 2433   1.362   2.408   1.265 -0.5932  1.5420  1.8490
  812SOL     OW 2434   0.642   2.533   1.582  0.0145 -0.0771 -0.2041
  812SOL    HW1 2435   0.618   2.499   1.487  1.4985 -2.9264  1.3829
  812SOL    HW2 2436   0.572   2.494   1.648  2.4137 -0.7118  0.5625
  813SOL     OW 2437   1.260   0.173   1.971  0.4475 -0.4687  0.4543
  813SOL    HW1 2438   1.329   0.218   2.029  1.3542  0.1799  1.3771
  813SOL    HW2 2439   1.168   0.180   2.020 -3.7713  0.9666 -1.1092
  814SOL     OW 2440   1.427   2.491   2.843  0.0089  0.4429  0.0163
  814SOL    HW1 2441   1.442   2.585   2.810  0.6221  1.5744 -2.0514
  814SOL    HW2 2442   1.480   2.419   2.791  2.6706 -1.0596  0.4893
  815SOL     OW 2443   0.685   0.335   1.671  0.0903 -0.4876 -0.5798
  815SOL    HW1 2444   0.655   0.432   1.677  2.1108 -1.7534  1.0773
  815SOL    HW2 2445   0.785   0.327   1.669 -1.6419 -0.8311 -0.0634
  816SOL     OW 2446   2.183   0.472   2.875  0.0598  0.3910 -0.1694
  816SOL    HW1 2447   2.248   0.513   2.806 -1.6033 -0.0890 -0.0249
  816SOL    HW2 2448   2.149   0.540   2.944 -0.9059  0.6140  1.4993
  817SOL     OW 2449   1.992   0.408   2.545  0.1389 -0.2520  0.2792
  817SOL    HW1 2450   2.025   0.392   2.451 -1.7093  1.0957  2.3791
  817SOL    HW2 2451   2.037   0.343   2.610  0.9502  0.5729 -3.4367
  818SOL     OW 2452   2.010   0.385   0.134  0.2242 -0.3580 -0.1375
  818SOL    HW1 2453   2.047   0.304   0.090 -1.3713  0.2228  1.5844
  818SOL    HW2 2454   2.036   0.468   0.083 -3.1710  0.5352 -0.9738
  819SOL     OW 2455   2.317   1.960   3.054 -0.2736  0.8808  0.5233
  819SOL    HW1 2456   2.363   1.974   0.061 -0.3639 -0.2965 -0.5711
  819SOL    HW2 2457   2.380   1.913   2.995 -0.5643 -1.9477  2.2624
  820SOL     OW 2458   3.044   2.040   0.011 -0.0521  0.2540  0.3146
  820SOL    HW1 2459   3.030   2.074   3.003 -2.9120  0.3599  1.7288
  820SOL    HW2 2460   2.972   1.979   0.050  0.2697  0.1383  0.2797
  821SOL     OW 2461   0.127   2.486   1.192 -0.1808  0.3622  1.0546
  821SOL    HW1 2462   0.201   2.439   1.143 -1.1497 -1.9409  2.6194
  821SOL    HW2 2463   0.132   2.468   1.289 -1.3717  1.3819 -0.1007
  822SOL     OW 2464   2.695   2.670   2.892 -0.7536 -0.3411 -0.3985
  822SOL    HW1 2465   2.655   2.754   2.925  3.5803 -4.7367 -1.4331
  822SOL    HW2 2466   2.618   2.616   2.852 -1.9952  0.3989  0.5053
  823SOL     OW 2467   1.747   0.193   2.479  0.5079  0.1105  0.6826
  823SOL    HW1 2468   1.667   0.167   2.419 -1.1554  0.4138 -1.2639
  823SOL    HW2 2469   1.738   0.293   2.505  0.5158 -0.6539  0.9947
  824SOL     OW 2470   2.821   1.926   1.417  0.0140  0.0209 -0.3945
  824SOL    HW1 2471   2.787   1.990   1.352  2.1427 -1.1397  2.2336
  824SOL    HW2 2472   2.920   1.898   1.402  1.2011  0.9336 -1.5254
  825SOL     OW 2473   2.760   1.866   2.768  0.4217  0.5123 -0.0323
  825SOL    HW1 2474   2.747   1.941   2.834 -0.2621 -0.8950  1.3337
  825SOL    HW2 2475   2.856   1.829   2.767  1.6119 -0.4605  1.8697
  826SOL     OW 2476   2.400   1.448   2.110  0.2563 -0.4824 -0.4120
  826SOL    HW1 2477   2.352   1.461   2.197 -0.6158 -1.5799 -2.1717
  826SOL    HW2 2478   2.490   1.492   2.119  0.1543  3.5002 -0.2482
  827SOL     OW 2479   2.044   2.056   1.189 -0.0843 -0.1432  0.5958
  827SOL    HW1 2480   1.944   2.086   1.206 -0.6235  0.1936  0.9565
  827SOL    HW2 2481   2.085   2.051   1.283  2.1276  0.0183  1.5831
  828SOL     OW 2482   2.585   2.727   1.515 -0.1190  0.3102  0.3130
  828SOL    HW1 2483   2.548   2.634   1.504  1.7972  0.7084  0.3699
  828SOL    HW2 2484   2.543   2.770   1.595  2.2819 -0.0085 -1.0415
  829SOL     OW 2485   1.772   2.415   2.540 -0.4014  0.0059 -0.4059
  829SOL    HW1 2486   1.687   2.371   2.577 -0.8372 -0.8661  1.8955
  829SOL    HW2 2487   1.822   2.356   2.474 -2.5461 -0.0356  0.5437
  830SOL     OW 2488   1.528   0.564   0.772  0.1470 -1.5031  0.1785
  830SOL    HW1 2489   1.474   0.648   0.746  1.6963  0.7086  0.0099
  830SOL    HW2 2490   1.471   0.516   0.841 -1.9625 -2.0187 -3.4065
  831SOL     OW 2491   2.501   1.356   2.919  0.4463 -0.2180  0.1476
  831SOL    HW1 2492   2.535   1.347   3.013  0.6061 -2.2850 -0.1980
  831SOL    HW2 2493   2.494   1.258   2.883  1.6108  1.4928 -1.6374
  832SOL     OW 2494   1.438   1.892   1.924 -0.0868  0.4502 -0.2224
  832SOL    HW1 2495   1.475   1.799   1.901 -0.1536  2.0958 -3.4383
  832SOL    HW2 2496   1.486   1.946   1.995 -0.4160  1.8401 -1.5044
  833SOL     OW 2497   2.993   2.847   2.208 -0.3782 -0.0486 -0.1782
  833SOL    HW1 2498   3.009   2.748   2.241  1.0289  0.0561  1.2871
  833SOL    HW2 2499   2.891   2.866   2.201  2.1441 -0.3219 -1.1633
  834SOL     OW 2500   0.868   0.970   1.685  0.0118 -0.0127  0.1461
  834SOL    HW1 2501   0.966   0.940   1.678  0.9995  0.8918  0.2813
  834SOL    HW2 2502   0.827   0.969   1.590 -2.4834 -1.1060  1.5776
  835SOL     OW 2503   2.954   0.743   2.756  0.3945 -0.2066 -0.0279
  835SOL    HW1 2504   2.971   0.722   2.657 -1.7698 -2.2030  1.3279
  835SOL    HW2 2505   2.876   0.805   2.758 -0.8911 -1.5050  2.6333
  836SOL     OW 2506   1.074   1.940   1.000 -0.3076 -0.4428  0.0568
  836SOL    HW1 2507   1.106   1.846   1.029 -0.9412  0.3192 -1.0042
  836SOL    HW2 2508   1.129   1.976   0.923 -0.3607  1.5209  0.2184
  837SOL     OW 2509   1.855   1.268   1.158  0.5790  0.4753  0.6928
  837SOL    HW1 2510   1.830   1.304   1.250  1.3216 -0.4346  0.0957
  837SOL    HW2 2511   1.905   1.178   1.168  1.5197 -1.2099  1.4563
  838SOL     OW 2512   1.293   1.734   2.478 -0.0155 -0.2672 -0.2539
  838SOL    HW1 2513   1.249   1.652   2.428  0.7609 -2.0290  1.0559
  838SOL    HW2 2514   1.236   1.765   2.559 -1.1839  0.1224  0.7595
  839SOL     OW 2515   0.731   2.093   2.880 -0.1449  0.5303  0.2641
  839SOL    HW1 2516   0.644   2.043   2.857  1.1632 -1.8956 -0.9278
  839SOL    HW2 2517   0.718   2.186   2.925 -0.1660  2.4722 -0.4030
  840SOL     OW 2518   0.430   2.594   2.999 -0.4762 -0.1789 -0.2391
  840SOL    HW1 2519   0.413   2.498   2.970 -1.0439 -0.8591  2.7500
  840SOL    HW2 2520   0.532   2.611   3.007  2.2758 -0.7585  1.1309
  841SOL     OW 2521   1.899   2.322   0.207  0.5671  0.8779  0.2619
  841SOL    HW1 2522   1.947   2.299   0.120  0.7719  1.5038  1.2073
  841SOL    HW2 2523   1.891   2.424   0.206  0.1994 -1.4816  0.6055
  842SOL     OW 2524   1.015   0.741   2.764 -0.2567 -0.7823 -0.0565
  842SOL    HW1 2525   0.945   0.797   2.808  0.5932 -0.3938 -1.5252
  842SOL    HW2 2526   1.048   0.789   2.678 -0.4662  1.9161 -0.4740
  843SOL     OW 2527   1.071   2.862   0.630 -0.4422  0.4223 -0.1024
  843SOL    HW1 2528   1.052   2.956   0.591 -0.2093 -1.6918  0.3062
  843SOL    HW2 2529   1.027   2.854   0.724 -1.1640  0.5934  3.1469
  844SOL     OW 2530   2.300   0.011   2.489  0.0411 -0.0015  0.0067
  844SOL    HW1 2531   2.332   0.098   2.528 -1.1802  0.6782 -2.2615
  844SOL    HW2 2532   2.313   3.014   2.546  0.6523 -0.9650  1.3614
  845SOL     OW 2533   2.525   2.488   1.393 -0.1728 -0.0372  0.1769
  845SOL    HW1 2534   2.441   2.438   1.414  0.2084  1.1810 -0.5887
  845SOL    HW2 2535   2.549   2.496   1.294  1.4372  0.8799 -0.6036
  846SOL     OW 2536   0.172   1.682   2.549  0.4180  0.5840 -0.1181
  846SOL    HW1 2537   0.195   1.611   2.481 -1.4375  3.0664  4.0074
  846SOL    HW2 2538   0.144   1.637   2.637  0.5213 -0.9140 -0.7844
  847SOL     OW 2539   1.492   0.592   1.536 -0.0735 -0.0769 -0.0837
  847SOL    HW1 2540   1.427   0.584   1.457  0.2749 -0.3220 -1.0817
  847SOL    HW2 2541   1.444   0.621   1.620  1.6825 -2.2729  1.4422
  848SOL     OW 2542   2.733   0.268   0.287  0.0698 -0.1182 -0.0472
  848SOL    HW1 2543   2.757   0.215   0.205  1.8030  1.5757  2.4808
  848SOL    HW2 2544   2.820   0.286   0.332 -0.2621 -1.4097 -3.5845
  849SOL     OW 2545   0.597   0.091   2.812  0.7072  0.4785  0.2642
  849SOL    HW1 2546   0.679   0.032   2.839  1.1874  3.5240 -0.6086
  849SOL    HW2 2547   0.575   0.146   2.893  1.4210 -0.1056 -2.0167
  850SOL     OW 2548   0.828   2.564   0.974  0.4991  0.0702  0.1281
  850SOL    HW1 2549   0.864   2.468   0.953  1.7285 -3.1644 -0.0816
  850SOL    HW2 2550   0.879   2.640   0.929  0.4507 -0.3581  1.5483
  851SOL     OW 2551   2.655   0.143   2.210 -0.0894  0.3221 -0.2402
  851SOL    HW1 2552   2.731   0.196   2.250 -1.0738  2.2040  1.0597
  851SOL    HW2 2553   2.640   0.171   2.113 -1.0159 -0.9740 -0.0702
  852SOL     OW 2554   1.903   1.267   2.298 -0.2455  0.1145 -0.2844
  852SOL    HW1 2555   1.803   1.274   2.317  2.6231  0.0330 -1.4557
  852SOL    HW2 2556   1.920   1.168   2.270  0.2341 -3.6720  3.0636
  853SOL     OW 2557   2.656   2.677   0.758  0.1157 -0.6930 -0.2493
  853SOL    HW1 2558   2.746   2.668   0.807  1.7609  0.8486 -0.5122
  853SOL    HW2 2559   2.659   2.766   0.704 -2.0908  2.3564 -4.5478
  854SOL     OW 2560   2.238   0.873   1.131  0.5019 -0.1438  0.1028
  854SOL    HW1 2561   2.299   0.894   1.052 -2.0833 -0.2716 -0.0504
  854SOL    HW2 2562   2.148   0.926   1.131 -1.5258  3.5438  0.7540
  855SOL     OW 2563   1.488   2.200   0.606  0.6803  0.0671 -0.0275
  855SOL    HW1 2564   1.487   2.172   0.508 -0.8596 -0.1097 -2.7863
  855SOL    HW2 2565   1.578   2.250   0.624  0.5048 -0.4570  2.4945
  856SOL     OW 2566   2.966   0.341   2.971  0.0399 -0.1303 -0.4663
  856SOL    HW1 2567   2.956   0.273   2.894 -2.9529 -0.4584 -1.0352
  856SOL    HW2 2568   3.002   0.291   3.051  1.6360  0.2103  0.3232
  857SOL     OW 2569   1.593   2.994   1.843  0.4515  0.1184 -0.4987
  857SOL    HW1 2570   1.685   2.960   1.873 -0.5053  0.7886 -3.5860
  857SOL    HW2 2571   1.580   3.086   1.882  0.2557 -0.1578 -1.4655
  858SOL     OW 2572   2.561   2.066   1.615 -0.3226 -0.3267 -0.2885
  858SOL    HW1 2573   2.623   2.139   1.571 -0.0292 -0.8629 -0.5376
  858SOL    HW2 2574   2.542   1.995   1.541  0.0285 -1.1508  0.7812
  859SOL     OW 2575   1.396   2.142   1.149  0.0274  0.1782  0.6482
  859SOL    HW1 2576   1.371   2.229   1.190 -2.4765  2.6540  1.1872
  859SOL    HW2 2577   1.333   2.070   1.186 -2.3887  2.0818 -0.2526
  860SOL     OW 2578   2.484   2.593   0.168  0.0351  0.5989 -0.2174
  860SOL    HW1 2579   2.582   2.578   0.151 -0.0434  0.9213 -1.0171
  860SOL    HW2 2580   2.429   2.508   0.192  4.0414 -0.8798  1.0509
  861SOL     OW 2581   1.549   2.674   1.022 -0.1687 -0.0481 -0.1091
  861SOL    HW1 2582   1.510   2.754   1.070 -1.4844 -1.9370 -1.3085
  861SOL    HW2 2583   1.631   2.638   1.072  0.2143 -0.0424  3.5524
  862SOL     OW 2584   1.664   2.915   2.561 -0.7464 -0.3850  0.0396
  862SOL    HW1 2585   1.741   2.873   2.508 -0.1196  0.2496  1.6825
  862SOL    HW2 2586   1.695   3.009   2.584 -0.5145 -2.9476  0.6379
  863SOL     OW 2587   0.156   0.821   0.473  0.6262  0.1602  0.0460
  863SOL    HW1 2588   0.177   0.775   0.561 -2.4517 -0.2779 -1.2267
  863SOL    HW2 2589   0.240   0.834   0.418 -1.5737 -0.6104  2.0302
  864SOL     OW 2590   2.863   2.438   2.101 -0.0838  0.1999 -0.5547
  864SOL    HW1 2591   2.964   2.448   2.109 -1.8637  1.7512 -1.7659
  864SOL    HW2 2592   2.820   2.494   2.171 -0.3808 -2.4207  0.6660
  865SOL     OW 2593   0.377   1.683   2.807  0.0123 -0.4099  0.2557
  865SOL    HW1 2594   0.350   1.782   2.783  0.4710  1.6111 -0.1553
  865SOL    HW2 2595   0.447   1.679   2.884 -2.1849 -2.3350  0.7383
  866SOL     OW 2596   2.681   0.503   2.740  0.1576 -0.1080 -0.6403
  866SOL    HW1 2597   2.703   0.402   2.733  0.6251  1.2446 -2.0246
  866SOL    HW2 2598   2.713   0.532   2.831  0.0296  0.8040 -0.0871
  867SOL     OW 2599   0.296   2.731   2.753  0.0858  0.4519 -0.1360
  867SOL    HW1 2600   0.346   2.766   2.836 -1.6891 -1.8715 -0.7237
  867SOL    HW2 2601   0.252   2.808   2.696 -1.6752 -1.2712 -0.0483
  868SOL     OW 2602   1.361   2.654   0.820 -0.6727 -0.6881  0.1215
  868SOL    HW1 2603   1.419   2.663   0.903  0.2191  1.9412  0.7746
  868SOL    HW2 2604   1.300   2.579   0.834  3.0522 -0.1405  0.1372
  869SOL     OW 2605   1.281   1.340   1.096  0.3075  0.0219  0.3710
  869SOL    HW1 2606   1.326   1.367   1.004  1.4571 -3.2716  0.8210
  869SOL    HW2 2607   1.338   1.379   1.169  1.8672  1.0097  0.4908
  870SOL     OW 2608   1.765   1.848   1.046 -0.1645 -0.1757  0.0447
  870SOL    HW1 2609   1.866   1.854   1.032 -0.3820  3.1387 -1.6508
  870SOL    HW2 2610   1.746   1.792   1.131  1.4941 -0.2088  2.4225
  871SOL     OW 2611   0.779   1.640   1.473 -0.8218 -0.1871 -0.4422
  871SOL    HW1 2612   0.869   1.618   1.513 -1.4831 -0.9242 -1.4374
  871SOL    HW2 2613   0.754   1.560   1.416  0.8502  0.8832 -1.0125
  872SOL     OW 2614   1.056   1.269   1.232  0.3705  0.1603  0.5381
  872SOL    HW1 2615   1.056   1.274   1.336 -0.1653  1.3814  0.5176
  872SOL    HW2 2616   1.144   1.298   1.193 -0.9741  1.2680  3.1815
  873SOL     OW 2617   1.150   0.922   2.228  0.1903  0.1529  0.6772
  873SOL    HW1 2618   1.122   1.018   2.249  0.8942  2.6779 -0.0957
  873SOL    HW2 2619   1.194   0.877   2.308 -0.7457  0.1474 -0.5063
  874SOL     OW 2620   0.126   1.182   1.272  0.1018 -0.4553 -0.7801
  874SOL    HW1 2621   0.084   1.273   1.303  0.8040  2.8413  1.9611
  874SOL    HW2 2622   0.196   1.202   1.202 -0.9357  0.1976  0.6006
  875SOL     OW 2623   2.814   3.023   0.541  0.0608 -0.2593  0.0671
  875SOL    HW1 2624   2.836   3.047   0.639  2.9637 -1.8935  0.2664
  875SOL    HW2 2625   2.723   2.985   0.534  1.7235 -1.0642  2.0735
  876SOL     OW 2626   1.133   0.265   2.775  0.1285  0.1842 -0.1596
  876SOL    HW1 2627   1.085   0.191   2.827 -0.1968 -1.2327 -0.8075
  876SOL    HW2 2628   1.070   0.346   2.766  1.0332 -0.3772  2.2491
  877SOL     OW 2629   0.231   2.989   1.345  0.0784  0.2722  0.1113
  877SOL    HW1 2630   0.255   3.077   1.392 -0.3393  0.2311  0.8043
  877SOL    HW2 2631   0.186   3.015   1.253 -2.4991  1.6988 -0.3061
  878SOL     OW 2632   2.018   2.667   3.078 -0.2708  0.3652 -0.1375
  878SOL    HW1 2633   2.010   2.604   2.998  3.7533  0.0591 -3.0848
  878SOL    HW2 2634   2.113   2.707   0.002  0.2592  0.9076 -1.9782
  879SOL     OW 2635   2.206   1.890   1.706 -0.3258 -0.1351  0.3584
  879SOL    HW1 2636   2.272   1.813   1.700  1.6632  1.5268  1.2767
  879SOL    HW2 2637   2.110   1.860   1.680 -0.7951  0.2389 -1.0638
  880SOL     OW 2638   0.773   0.980   1.438 -0.1625 -0.8314  0.3762
  880SOL    HW1 2639   0.833   0.933   1.368  2.1064  0.4855 -1.3417
  880SOL    HW2 2640   0.675   0.962   1.411  0.5405 -0.0248 -1.4151
  881SOL     OW 2641   1.089   1.724   0.018 -0.7272 -0.1701 -0.0457
  881SOL    HW1 2642   1.046   1.796   3.045  1.0475 -2.4294 -0.2067
  881SOL    HW2 2643   1.180   1.698   3.067 -2.2680 -0.5042  0.4580
  882SOL     OW 2644   1.725   0.379   0.832  0.1785  0.1679  0.4364
  882SOL    HW1 2645   1.663   0.454   0.813 -1.9304 -2.3087 -1.3527
  882SOL    HW2 2646   1.677   0.304   0.884 -1.9744 -3.2384 -0.5058
  883SOL     OW 2647   1.995   0.498   2.118 -0.2384 -0.0560  0.1431
  883SOL    HW1 2648   2.017   0.571   2.185 -1.2505  0.6838 -0.9911
  883SOL    HW2 2649   1.933   0.525   2.040  0.4321  0.2655  1.8618
  884SOL     OW 2650   2.618   0.492   0.326  0.1781 -0.0730  0.8717
  884SOL    HW1 2651   2.649   0.406   0.291  1.1682  1.5657 -0.1798
  884SOL    HW2 2652   2.535   0.514   0.270 -1.9295 -0.8421 -1.8067
  885SOL     OW 2653   0.736   1.973   0.747  0.0355  0.7907 -0.5905
  885SOL    HW1 2654   0.771   2.033   0.675  0.0991  0.5066  0.5259
  885SOL    HW2 2655   0.771   2.003   0.838  0.2456 -0.3038  0.2326
  886SOL     OW 2656   1.546   1.588   0.036 -0.1894  0.3154  0.4170
  886SOL    HW1 2657   1.469   1.586   0.105  0.3863 -0.5014  1.4139
  886SOL    HW2 2658   1.594   1.679   0.048 -2.6690 -0.8692 -2.1641
  887SOL     OW 2659   1.590   0.328   1.669  0.0551  0.0998 -0.2090
  887SOL    HW1 2660   1.670   0.282   1.624 -0.2225 -2.2313  1.5582
  887SOL    HW2 2661   1.581   0.425   1.638 -2.5326  2.9465 -0.4601
  888SOL     OW 2662   0.012   1.089   1.615 -0.5142  0.4255 -0.1274
  888SOL    HW1 2663   3.072   1.186   1.612 -1.9740 -0.8084 -0.3490
  888SOL    HW2 2664   3.037   1.021   1.570 -0.0077 -0.8002 -0.6257
  889SOL     OW 2665   2.904   2.639   0.913  0.5030 -0.1228  0.1135
  889SOL    HW1 2666   2.985   2.695   0.884 -0.1087  2.2902  0.9902
  889SOL    HW2 2667   2.905   2.595   1.005 -1.6511 -1.4406  0.3922
  890SOL     OW 2668   0.190   2.212   2.165 -0.0884 -0.2746 -0.1247
  890SOL    HW1 2669   0.182   2.193   2.267  2.5717 -1.5931 -2.1140
  890SOL    HW2 2670   0.272   2.163   2.124 -0.3256 -3.5298  1.0315
  891SOL     OW 2671   0.647   1.723   0.279 -0.2841 -0.1638 -0.3210
  891SOL    HW1 2672   0.680   1.817   0.300  0.8705 -1.1546 -2.0853
  891SOL    HW2 2673   0.669   1.656   0.353  1.6455 -1.8875 -0.4695
  892SOL     OW 2674   2.970   2.369   1.489  0.0087 -0.6832  0.4098
  892SOL    HW1 2675   2.987   2.321   1.576 -0.1948  0.9112 -0.5660
  892SOL    HW2 2676   2.899   2.442   1.505  1.3777 -0.2611 -0.5051
  893SOL     OW 2677   0.043   0.217   1.648  0.2606 -0.4200 -0.2957
  893SOL    HW1 2678   3.070   0.246   1.724 -1.3206  0.5629  1.2575
  893SOL    HW2 2679   0.018   0.123   1.614 -0.7723 -0.3315 -0.2059
  894SOL     OW 2680   2.617   1.823   0.757 -0.0022 -0.3352  0.1459
  894SOL    HW1 2681   2.696   1.847   0.699 -0.2041 -1.0521 -0.7577
  894SOL    HW2 2682   2.584   1.903   0.811  2.5417  2.0996  0.0053
  895SOL     OW 2683   2.054   2.467   1.608 -0.2295 -0.1990 -0.3399
  895SOL    HW1 2684   2.142   2.452   1.660 -3.6352 -0.2246 -2.2669
  895SOL    HW2 2685   2.067   2.530   1.529  3.4737  1.8070  0.6055
  896SOL     OW 2686   0.777   0.050   1.496 -0.4354 -0.2633 -0.0108
  896SOL    HW1 2687   0.691   0.088   1.456  2.8314 -0.5371 -0.4497
  896SOL    HW2 2688   0.762   0.034   1.595  0.0242  0.3312  0.7806
  897SOL     OW 2689   1.075   1.176   1.545 -0.7726  0.0808 -0.3788
  897SOL    HW1 2690   1.095   1.097   1.606  0.7632  4.0454 -2.5869
  897SOL    HW2 2691   1.159   1.194   1.495 -1.4013 -2.8727  0.9400
  898SOL     OW 2692   1.255   2.938   1.470 -0.1582 -0.0720 -0.2292
  898SOL    HW1 2693   1.166   2.942   1.517  5.4667 -0.3180  3.0765
  898SOL    HW2 2694   1.278   2.841   1.446 -1.6192  2.3883  1.3192
  899SOL     OW 2695   1.352   0.301   2.907 -0.0934 -0.1632 -0.3643
  899SOL    HW1 2696   1.425   0.230   2.906  0.7208 -1.6782  1.6107
  899SOL    HW2 2697   1.270   0.274   2.851  2.4480  2.4397  0.9563
  900SOL     OW 2698   0.770   2.878   2.096  0.5410 -0.1656 -0.2928
  900SOL    HW1 2699   0.749   2.778   2.069 -1.8344  0.7571  1.3170
  900SOL    HW2 2700   0.724   2.942   2.033  1.4771 -3.1935  0.4968
  901SOL     OW 2701   0.800   2.138   0.517 -1.1446  0.1538 -0.0796
  901SOL    HW1 2702   0.875   2.210   0.529  0.5035  3.6735  0.5408
  901SOL    HW2 2703   0.802   2.090   0.426  0.5521 -2.0911 -0.7523
  902SOL     OW 2704   1.895   0.800   1.006  0.2656 -0.0405  0.2109
  902SOL    HW1 2705   1.906   0.871   0.937  0.3633  0.7183 -0.0091
  902SOL    HW2 2706   1.900   0.711   0.953 -3.0043  0.1939  2.1855
  903SOL     OW 2707   2.759   1.008   2.624 -0.5256  0.0530  0.0689
  903SOL    HW1 2708   2.772   1.111   2.649  2.5745  3.6028 -2.0825
  903SOL    HW2 2709   2.738   1.001   2.527  0.8727  0.2816  2.7097
  904SOL     OW 2710   1.231   1.166   0.035 -0.3079 -0.1016  0.3393
  904SOL    HW1 2711   1.263   1.085   3.073 -0.5843  3.2015  1.0520
  904SOL    HW2 2712   1.235   1.251   3.064  2.1716  2.7765  0.0820
  905SOL     OW 2713   1.811   2.847   1.461  0.4010  0.4265  0.2487
  905SOL    HW1 2714   1.830   2.920   1.526  0.0391  2.1712 -0.0070
  905SOL    HW2 2715   1.750   2.874   1.388  1.2263 -0.6447 -0.1850
  906SOL     OW 2716   2.260   2.796   1.157 -0.4446  0.4071 -0.0262
  906SOL    HW1 2717   2.333   2.798   1.089 -0.9731 -2.5933  0.6468
  906SOL    HW2 2718   2.220   2.889   1.162  0.0330 -0.2319  1.5771
  907SOL     OW 2719   1.583   0.994   0.362 -0.0020  0.2639  0.1730
  907SOL    HW1 2720   1.612   0.911   0.305 -0.1478  2.2542 -0.4586
  907SOL    HW2 2721   1.640   1.076   0.340 -3.1398 -0.1392 -1.3281
  908SOL     OW 2722   1.737   0.271   1.281  0.5805  0.3615 -0.0296
  908SOL    HW1 2723   1.715   0.192   1.346 -1.0320 -5.8272  1.0524
  908SOL    HW2 2724   1.700   0.359   1.317 -0.4141 -0.5815 -2.4100
  909SOL     OW 2725   2.107   0.234   0.953 -0.0805  0.7562  0.3733
  909SOL    HW1 2726   2.061   0.223   1.046 -0.1546 -1.1401 -0.5241
  909SOL    HW2 2727   2.152   0.323   0.954 -0.7138  1.0709  2.8717
  910SOL     OW 2728   2.440   0.630   1.988 -0.4843  0.3049  0.4525
  910SOL    HW1 2729   2.523   0.694   2.001  2.2502 -1.1634  2.3270
  910SOL    HW2 2730   2.356   0.667   2.027 -0.5357 -2.7842 -0.2925
  911SOL     OW 2731   2.492   0.244   2.895 -0.3450  0.4567 -0.5625
  911SOL    HW1 2732   2.471   0.335   2.930  0.6851 -1.1768 -2.4551
  911SOL    HW2 2733   2.584   0.245   2.851  2.2043  0.9274 -2.0045
  912SOL     OW 2734   0.555   1.085   1.840 -0.4357  0.3941  0.2782
  912SOL    HW1 2735   0.595   1.100   1.935 -2.2700  0.8475  1.5261
  912SOL    HW2 2736   0.626   1.120   1.781 -2.2406  0.5911  1.7444
  913SOL     OW 2737   2.676   2.292   1.516 -0.2531 -0.0963  0.5894
  913SOL    HW1 2738   2.749   2.306   1.450 -1.7599 -1.5484 -1.5000
  913SOL    HW2 2739   2.616   2.371   1.496  0.7084  0.0742 -2.0868
  914SOL     OW 2740   1.903   0.876   1.477 -0.1012 -0.1016  0.5720
  914SOL    HW1 2741   1.988   0.928   1.479  0.8462 -4.3248  2.6450
  914SOL    HW2 2742   1.905   0.813   1.398 -1.2203 -4.2083 -0.8101
  915SOL     OW 2743   2.833   1.332   0.783 -0.0552 -0.6233 -0.1585
  915SOL    HW1 2744   2.774   1.403   0.825 -1.4345  0.6867  2.0067
  915SOL    HW2 2745   2.932   1.343   0.813  0.1136 -0.0952  0.0720
  916SOL     OW 2746   1.793   2.191   1.222 -0.2363  0.0330 -0.2308
  916SOL    HW1 2747   1.792   2.196   1.126  0.1436  0.8172  3.5243
  916SOL    HW2 2748   1.815   2.280   1.262 -1.2869 -0.1731 -0.1672
  917SOL     OW 2749   1.726   2.729   2.129 -0.2557 -0.3470  0.5555
  917SOL    HW1 2750   1.709   2.684   2.214  1.2635  1.8858 -0.3923
  917SOL    HW2 2751   1.647   2.783   2.110  0.0845 -1.4205  1.6361
  918SOL     OW 2752   2.109   2.476   2.375  0.8084  0.2185  0.3857
  918SOL    HW1 2753   2.087   2.530   2.294 -1.5652 -0.6247 -2.1623
  918SOL    HW2 2754   2.034   2.404   2.384 -2.4425 -1.9410  1.9531
  919SOL     OW 2755   1.012   0.197   1.379  0.1443 -0.2903  0.1331
  919SOL    HW1 2756   0.932   0.146   1.426 -0.4617  1.1506 -0.7993
  919SOL    HW2 2757   1.066   0.235   1.452 -1.8437 -1.1215 -0.9201
  920SOL     OW 2758   2.756   0.480   2.210 -0.1593 -0.4554  0.8860
  920SOL    HW1 2759   2.660   0.451   2.211 -0.1614 -1.1725 -0.5137
  920SOL    HW2 2760   2.817   0.415   2.260 -1.4173  1.7748  0.4997
  921SOL     OW 2761   3.062   0.968   1.858 -0.0041 -0.1924 -0.1455
  921SOL    HW1 2762   0.058   0.918   1.880 -2.1206  3.9388 -0.2981
  921SOL    HW2 2763   3.059   1.002   1.761  1.3663 -0.5308  1.3186
  922SOL     OW 2764   2.400   2.358   0.720 -0.2676 -0.3914 -0.0796
  922SOL    HW1 2765   2.440   2.434   0.663 -0.5027  4.0049  0.1411
  922SOL    HW2 2766   2.366   2.404   0.808 -1.5263  1.1072 -2.3771
  923SOL     OW 2767   0.556   2.521   0.736  0.2077  0.4498 -0.6155
  923SOL    HW1 2768   0.574   2.433   0.688  0.7887 -0.0361 -0.0503
  923SOL    HW2 2769   0.550   2.501   0.837 -2.5476 -2.0044  0.9854
  924SOL     OW 2770   1.092   0.895   2.549  0.2731 -0.1967 -0.1663
  924SOL    HW1 2771   1.108   0.965   2.620 -0.8343 -1.9928  0.2240
  924SOL    HW2 2772   1.182   0.860   2.506  1.3556 -0.2906  1.2363
  925SOL     OW 2773   2.448   1.529   0.442 -0.0756  0.7276 -0.2750
  925SOL    HW1 2774   2.481   1.519   0.534 -0.7601  0.1440 -2.5908
  925SOL    HW2 2775   2.448   1.440   0.391 -0.9704  0.4279  2.4650
  926SOL     OW 2776   0.014   0.285   1.007  0.4330  0.3918  0.2510
  926SOL    HW1 2777   0.110   0.296   0.967 -2.6275 -0.2929  0.7294
  926SOL    HW2 2778   0.009   0.196   1.059  1.3748 -0.6695  4.7687
  927SOL     OW 2779   0.573   1.724   2.584  0.4839  0.8140  0.0243
  927SOL    HW1 2780   0.530   1.652   2.639  0.7315  1.5486  2.3704
  927SOL    HW2 2781   0.506   1.752   2.512  2.0991  1.4795 -2.2886
  928SOL     OW 2782   0.096   0.352   2.053 -0.2479  0.4391 -0.0236
  928SOL    HW1 2783   0.134   0.294   2.128  0.7018 -0.1642 -1.2257
  928SOL    HW2 2784   0.143   0.332   1.963 -1.4787  1.4012  0.8839
  929SOL     OW 2785   2.769   2.322   1.139  0.0280 -0.1251  0.9511
  929SOL    HW1 2786   2.851   2.386   1.147  1.2971  0.3057 -0.8274
  929SOL    HW2 2787   2.684   2.376   1.115 -0.4226 -0.6297  0.8584
  930SOL     OW 2788   2.098   0.334   2.307 -0.3044 -0.1007 -0.2140
  930SOL    HW1 2789   2.056   0.367   2.222 -1.0575 -3.2593 -2.4078
  930SOL    HW2 2790   2.097   0.234   2.301  0.4362  2.4622  0.5094
  931SOL     OW 2791   2.206   1.122   2.782 -0.5602 -0.0298 -0.0228
  931SOL    HW1 2792   2.117   1.157   2.816  2.5073 -2.0322 -0.2121
  931SOL    HW2 2793   2.210   1.019   2.786  1.0136 -1.6666  0.7117
  932SOL     OW 2794   1.813   1.190   0.702 -0.0066  0.4396 -0.5837
  932SOL    HW1 2795   1.792   1.094   0.674 -1.9356 -0.0904  1.7063
  932SOL    HW2 2796   1.760   1.260   0.650 -0.8277  1.1617  0.8366
  933SOL     OW 2797   2.211   1.672   0.893 -0.0242  0.0869 -0.0258
  933SOL    HW1 2798   2.135   1.604   0.912  2.2645 -0.5203  1.2449
  933SOL    HW2 2799   2.257   1.642   0.806 -1.4441  1.9587  1.9465
  934SOL     OW 2800   2.213   0.844   2.801  0.6546 -0.2619  0.2644
  934SOL    HW1 2801   2.172   0.753   2.766 -3.1260 -0.5800 -0.4241
  934SOL    HW2 2802   2.295   0.830   2.859  0.5470 -1.6532  0.8340
  935SOL     OW 2803   3.011   1.279   0.482 -0.5053  0.2933 -0.0427
  935SOL    HW1 2804   0.019   1.272   0.448 -1.4257  0.9536  1.7816
  935SOL    HW2 2805   2.968   1.185   0.502 -0.8841 -1.9297 -1.6850
  936SOL     OW 2806   0.011   2.835   0.861 -0.0889 -0.3528 -0.1405
  936SOL    HW1 2807   0.050   2.905   0.799 -1.8198  1.2495 -0.9425
  936SOL    HW2 2808   0.077   2.764   0.893 -1.7440  1.6974  0.2536
  937SOL     OW 2809   0.005   2.401   1.815 -0.4482  0.1928 -0.9867
  937SOL    HW1 2810   3.000   2.375   1.785  4.2654 -0.7414  0.5772
  937SOL    HW2 2811   0.070   2.322   1.800 -0.5099  3.1678  1.8068
  938SOL     OW 2812   2.753   2.173   0.089 -0.0504  0.3307 -0.1696
  938SOL    HW1 2813   2.764   2.254   0.153 -1.2338  2.5241  1.7473
  938SOL    HW2 2814   2.788   2.195   3.083 -1.1516 -1.2332  1.1141
  939SOL     OW 2815   1.014   0.917   1.254 -0.2214  0.2587  0.4865
  939SOL    HW1 2816   0.977   1.004   1.217  2.2892 -3.2023  1.6540
  939SOL    HW2 2817   1.087   0.885   1.185  2.7388  1.3009 -1.1415
  940SOL     OW 2818   2.714   0.225   2.727 -0.0978  0.0880  0.1191
  940SOL    HW1 2819   2.687   0.192   2.635  1.5058  2.1899 -0.0978
  940SOL    HW2 2820   2.809   0.202   2.744 -0.2030 -0.7540 -1.6044
  941SOL     OW 2821   2.549   2.549   2.604  0.4684 -0.3296 -0.1394
  941SOL    HW1 2822   2.629   2.606   2.592 -0.3450 -2.4125 -0.2232
  941SOL    HW2 2823   2.472   2.603   2.565  2.7737  0.3916 -2.3935
  942SOL     OW 2824   1.488   0.015   1.314 -0.2059 -0.1347  0.3137
  942SOL    HW1 2825   1.500   3.057   1.408 -0.3019 -0.5944  0.4173
  942SOL    HW2 2826   1.442   0.102   1.325  2.6291 -2.2886 -0.2386
  943SOL     OW 2827   0.795   1.407   2.397  0.4008  0.1827 -0.0133
  943SOL    HW1 2828   0.712   1.410   2.337  0.1202 -0.5577  1.4785
  943SOL    HW2 2829   0.812   1.501   2.429 -0.8804  0.5039  0.0899
  944SOL     OW 2830   2.193   1.012   0.775 -0.0847 -0.4972 -0.3166
  944SOL    HW1 2831   2.113   0.949   0.769  1.8538  3.0213 -1.0721
  944SOL    HW2 2832   2.164   1.107   0.807  0.0999  0.4843 -0.6778
  945SOL     OW 2833   2.924   3.020   2.984  0.6707 -0.2965  0.0635
  945SOL    HW1 2834   2.984   3.018   2.899  0.0998 -3.4611 -1.9223
  945SOL    HW2 2835   2.982   2.999   3.067  1.0453 -4.2565 -0.5843
  946SOL     OW 2836   0.122   1.412   1.548 -0.1671  0.0433 -0.1753
  946SOL    HW1 2837   0.077   1.437   1.460 -1.6381  2.1588  2.3505
  946SOL    HW2 2838   0.202   1.343   1.526  1.3309 -3.0819 -0.9882
  947SOL     OW 2839   0.929   0.009   0.051  0.0120 -0.0306  0.1596
  947SOL    HW1 2840   0.987   3.051   0.120  0.7088  1.2993 -1.6289
  947SOL    HW2 2841   0.848   3.039   0.032 -0.0392 -0.2754  0.3660
  948SOL     OW 2842   2.419   1.558   0.992 -0.0375  0.0619  0.2814
  948SOL    HW1 2843   2.413   1.458   0.985  0.0482  0.3105 -1.0174
  948SOL    HW2 2844   2.331   1.598   0.959  0.6613  0.0360 -3.0376
  949SOL     OW 2845   0.429   0.802   2.846 -0.8053  0.2139  0.5786
  949SOL    HW1 2846   0.388   0.818   2.937 -0.6839 -2.7132  2.4583
  949SOL    HW2 2847   0.412   0.873   2.776  0.7566  2.3047 -1.3726
  950SOL     OW 2848   0.290   2.530   1.409  0.3672  0.1444  1.0660
  950SOL    HW1 2849   0.255   2.600   1.340  1.0792 -1.0693  0.7455
  950SOL    HW2 2850   0.391   2.507   1.391  0.1659 -2.1082 -0.8311
  951SOL     OW 2851   0.954   1.645   2.764  0.2512 -0.5892 -0.0279
  951SOL    HW1 2852   0.890   1.647   2.845 -1.3875 -2.3619  0.6806
  951SOL    HW2 2853   0.904   1.646   2.672 -2.5150  2.8429  1.1325
  952SOL     OW 2854   0.433   1.372   0.509 -0.5453  0.5437  0.4375
  952SOL    HW1 2855   0.482   1.307   0.571  0.9350 -0.9685 -0.1876
  952SOL    HW2 2856   0.335   1.375   0.534 -0.3151  1.7156 -0.1417
  953SOL     OW 2857   2.391   2.159   2.685 -0.0406 -0.0180 -0.1574
  953SOL    HW1 2858   2.448   2.212   2.620 -1.2916 -0.6266 -0.0245
  953SOL    HW2 2859   2.433   2.167   2.778  1.1741  0.5660  0.0109
  954SOL     OW 2860   1.722   0.748   0.655 -0.6769 -0.3641 -0.1635
  954SOL    HW1 2861   1.647   0.682   0.668 -3.3314 -1.9471  1.2154
  954SOL    HW2 2862   1.678   0.844   0.659 -1.6893  0.7248  2.4977
  955SOL     OW 2863   0.645   2.003   0.088 -0.5344 -0.2553  0.1842
  955SOL    HW1 2864   0.665   2.091   0.049 -0.0430 -1.5045 -0.0240
  955SOL    HW2 2865   0.657   1.922   0.024  1.3850  1.7380 -1.1963
  956SOL     OW 2866   2.577   0.471   1.821 -0.2195 -0.1346  0.0796
  956SOL    HW1 2867   2.522   0.443   1.741  0.0156  1.6876  2.0796
  956SOL    HW2 2868   2.526   0.535   1.877 -0.6402 -0.7306  0.8810
  957SOL     OW 2869   1.869   2.247   2.037 -0.1269 -0.2971  0.3124
  957SOL    HW1 2870   1.955   2.295   1.999  3.5725  0.3354  0.7100
  957SOL    HW2 2871   1.882   2.144   2.032 -0.1163  0.6556 -2.6965
  958SOL     OW 2872   1.718   1.065   1.476  0.6389  0.5108  0.0928
  958SOL    HW1 2873   1.739   1.159   1.446 -3.3651  2.0909  3.2149
  958SOL    HW2 2874   1.806   1.013   1.481 -0.0160 -1.0408  2.1853
  959SOL     OW 2875   1.549   2.076   2.091  0.4340 -0.2264  0.2523
  959SOL    HW1 2876   1.535   2.050   2.189  0.4127 -3.2889 -0.1653
  959SOL    HW2 2877   1.551   2.179   2.084  0.8906 -0.4761  1.5729
  960SOL     OW 2878   0.666   0.660   2.779 -0.7639 -0.1936  0.1267
  960SOL    HW1 2879   0.575   0.702   2.801 -2.8621 -1.5589  0.6242
  960SOL    HW2 2880   0.732   0.674   2.852  1.0524 -2.9738 -1.7069
  961SOL     OW 2881   0.020   0.977   2.768 -0.2785  0.1004  0.2851
  961SOL    HW1 2882   3.069   0.887   2.767  1.2890 -3.7100 -0.7312
  961SOL    HW2 2883   3.061   1.035   2.699  0.9172 -1.4473 -0.0034
  962SOL     OW 2884   0.943   1.940   2.991 -0.6977 -0.2728  0.0115
  962SOL    HW1 2885   0.878   1.999   2.942  1.2692  0.5257 -2.5028
  962SOL    HW2 2886   0.985   1.995   3.071 -0.6855  2.5071  2.7710
  963SOL     OW 2887   2.825   1.905   0.095 -0.4083  0.2637 -0.5693
  963SOL    HW1 2888   2.768   1.837   0.044 -0.4322  0.4340 -1.0383
  963SOL    HW2 2889   2.790   2.001   0.096  1.9851  1.6196 -0.5453
  964SOL     OW 2890   0.817   2.178   2.162 -0.2087 -0.5222  0.2710
  964SOL    HW1 2891   0.717   2.209   2.174  0.3729  0.8254  0.0016
  964SOL    HW2 2892   0.871   2.245   2.107 -0.8678  1.0558 -1.9804
  965SOL     OW 2893   1.558   1.751   1.664  0.0651 -0.8869 -0.5240
  965SOL    HW1 2894   1.569   1.857   1.670  1.4135  2.3692  1.1900
  965SOL    HW2 2895   1.540   1.713   1.757 -2.2873 -2.1419  0.3842
  966SOL     OW 2896   3.037   1.558   0.124 -0.1438 -0.7103 -0.0275
  966SOL    HW1 2897   3.059   1.623   0.200 -0.8431  1.2748  0.0501
  966SOL    HW2 2898   3.074   1.604   0.039  1.1722  0.8642 -0.7855
  967SOL     OW 2899   2.256   2.703   2.100  0.3278 -0.1527 -0.2074
  967SOL    HW1 2900   2.171   2.665   2.061 -1.4843  1.9686  0.4297
  967SOL    HW2 2901   2.276   2.793   2.066 -1.0402 -2.4730  0.4353
  968SOL     OW 2902   1.184   0.817   0.156 -0.8249  0.0135 -0.2994
  968SOL    HW1 2903   1.210   0.865   0.244  0.5268  0.3653  3.7384
  968SOL    HW2 2904   1.257   0.751   0.121  1.3328 -1.1919 -1.5586
  969SOL     OW 2905   0.485   1.166   2.524  0.6295  0.1779  0.0176
  969SOL    HW1 2906   0.526   1.119   2.444 -1.5065 -1.0255 -0.3351
  969SOL    HW2 2907   0.431   1.096   2.579 -0.2599 -1.5590  0.3380
  970SOL     OW 2908   2.083   2.912   0.873 -0.0724 -0.1469  0.0827
  970SOL    HW1 2909   2.085   2.999   0.823 -1.4980  1.4287 -2.4329
  970SOL    HW2 2910   2.002   2.852   0.844 -3.3546 -2.8681 -0.9426
  971SOL     OW 2911   2.035   2.045   0.765 -0.5705 -0.6005  0.1629
  971SOL    HW1 2912   2.042   2.031   0.864  3.0796  0.7764 -3.9587
  971SOL    HW2 2913   2.102   2.106   0.723 -1.1538  1.2255  3.8399
  972SOL     OW 2914   0.064   1.319   2.762 -0.1872  0.2691  0.1860
  972SOL    HW1 2915   0.027   1.283   2.674 -1.1520 -0.4730  1.4905
  972SOL    HW2 2916   0.156   1.362   2.749 -0.3949  0.4011 -0.6950
  973SOL     OW 2917   0.824   0.327   0.282  0.1623 -0.0287 -0.1752
  973SOL    HW1 2918   0.881   0.339   0.199 -0.5732  3.3044 -2.2213
  973SOL    HW2 2919   0.795   0.423   0.311  0.4940 -0.2842  0.4458
  974SOL     OW 2920   2.640   0.857   1.690  0.0662  0.0660  0.9381
  974SOL    HW1 2921   2.691   0.764   1.686 -0.2519 -2.6647  0.3875
  974SOL    HW2 2922   2.658   0.909   1.776 -2.9225  0.4903 -1.5391
  975SOL     OW 2923   2.815   0.112   0.774 -0.2301 -0.2043 -0.5919
  975SOL    HW1 2924   2.735   0.138   0.712  0.3416  1.2599 -3.7485
  975SOL    HW2 2925   2.808   0.164   0.859 -1.2736  0.4315 -0.7549
  976SOL     OW 2926   0.632   1.649   1.195  0.4724  0.4146  0.5265
  976SOL    HW1 2927   0.545   1.679   1.244 -1.5056  1.6442  0.5598
  976SOL    HW2 2928   0.664   1.557   1.228 -4.4979 -0.1304 -0.8355
  977SOL     OW 2929   1.207   2.143   0.384 -0.6066 -0.1677 -0.1984
  977SOL    HW1 2930   1.306   2.129   0.367  1.7412 -1.0710 -0.6112
  977SOL    HW2 2931   1.171   2.225   0.334  0.2277  3.1748 -0.3986
  978SOL     OW 2932   0.069   0.676   0.015 -0.4276 -0.0085  0.0099
  978SOL    HW1 2933   0.044   0.650   3.005 -2.8501  0.6664 -1.3728
  978SOL    HW2 2934   0.126   0.608   0.057 -3.2405  0.2337 -2.4550
  979SOL     OW 2935   1.962   1.539   0.902 -0.0118 -0.2627 -0.3993
  979SOL    HW1 2936   1.903   1.456   0.912  1.6807 -0.0704  1.3098
  979SOL    HW2 2937   1.931   1.590   0.822 -0.3291  0.9612 -0.4000
  980SOL     OW 2938   0.575   1.909   1.904  0.5509  0.2799  0.1884
  980SOL    HW1 2939   0.597   1.812   1.884 -0.7854  1.4731 -1.0813
  980SOL    HW2 2940   0.644   1.966   1.855 -1.1424 -1.2557  1.5299
  981SOL     OW 2941   2.490   1.396   2.413 -0.2675 -0.4486 -0.0487
  981SOL    HW1 2942   2.514   1.403   2.511  1.6695 -0.6006 -2.2696
  981SOL    HW2 2943   2.388   1.402   2.400  0.5482  1.3989 -2.0227
  982SOL     OW 2944   0.240   2.246   1.797 -0.1317  0.4954 -0.1576
  982SOL    HW1 2945   0.255   2.181   1.713 -1.3180 -2.0611 -3.8229
  982SOL    HW2 2946   0.295   2.210   1.878  1.5810 -1.2563  1.5954
  983SOL     OW 2947   1.682   0.362   1.941 -0.6151 -0.3283 -0.3823
  983SOL    HW1 2948   1.659   0.369   1.841  0.3896  1.3718  0.3388
  983SOL    HW2 2949   1.752   0.292   1.954  1.7225  0.6130  0.0134
  984SOL     OW 2950   2.667   2.940   2.966 -0.9206 -0.3699  0.1469
  984SOL    HW1 2951   2.762   2.983   2.973 -2.1214 -0.2540 -0.6168
  984SOL    HW2 2952   2.590   2.994   3.009 -2.7126 -0.6444 -0.2325
  985SOL     OW 2953   1.459   1.337   1.696  0.8201 -0.2986  0.8314
  985SOL    HW1 2954   1.390   1.389   1.745 -2.5873  0.5834 -2.8755
  985SOL    HW2 2955   1.507   1.278   1.768  2.3074  1.0609  3.4333
  986SOL     OW 2956   2.095   0.257   2.751  0.2440  0.4505  0.5665
  986SOL    HW1 2957   2.175   0.224   2.694  0.9275  0.7294 -1.1997
  986SOL    HW2 2958   2.127   0.335   2.809  1.3280  0.2998 -3.4254
  987SOL     OW 2959   2.783   1.601   2.781 -0.6541  0.0839  0.3491
  987SOL    HW1 2960   2.815   1.565   2.872  3.0225 -0.3082  0.6140
  987SOL    HW2 2961   2.758   1.700   2.798 -0.7794  0.6343 -1.3931
  988SOL     OW 2962   0.157   0.208   1.305 -0.0413  0.1192 -0.0741
  988SOL    HW1 2963   0.072   0.160   1.267  0.9947  2.1583 -2.1279
  988SOL    HW2 2964   0.122   0.300   1.334  0.7081 -3.1149  1.7689
  989SOL     OW 2965   1.941   0.555   0.911 -0.1412  0.5797  0.5599
  989SOL    HW1 2966   1.881   0.481   0.883  1.9777  0.0907  0.0498
  989SOL    HW2 2967   2.038   0.529   0.934  0.6773  4.4046 -0.3491
  990SOL     OW 2968   2.503   0.488   3.011 -0.1942  0.4946  0.5119
  990SOL    HW1 2969   2.604   0.488   3.034 -0.1530 -1.7398  0.5414
  990SOL    HW2 2970   2.468   0.561   2.948 -0.9479 -1.3794 -0.1510
  991SOL     OW 2971   0.094   1.305   0.180  0.1821 -0.1035  0.0023
  991SOL    HW1 2972   0.051   1.212   0.164  0.4032  0.2879 -0.3213
  991SOL    HW2 2973   0.025   1.384   0.172 -0.2938  3.2046  1.2445
  992SOL     OW 2974   1.968   1.509   1.811 -0.1303 -0.6887  0.0296
  992SOL    HW1 2975   1.966   1.553   1.901 -1.5959  1.7697  2.1734
  992SOL    HW2 2976   2.023   1.427   1.806 -1.7048  0.5073 -2.4341
  993SOL     OW 2977   0.176   2.624   0.964 -0.1015  0.1630 -0.0470
  993SOL    HW1 2978   0.127   2.580   1.043 -0.7489 -1.5031  1.3549
  993SOL    HW2 2979   0.261   2.665   1.001 -2.5717  0.5647 -0.1328
  994SOL     OW 2980   3.034   1.703   1.884  0.3658  0.7099  0.4423
  994SOL    HW1 2981   2.943   1.677   1.851 -1.7572  1.5485  1.0055
  994SOL    HW2 2982   0.023   1.665   1.825  3.0675  1.8893 -0.4485
  995SOL     OW 2983   1.871   2.010   2.534 -0.4279 -0.3145 -0.3060
  995SOL    HW1 2984   1.940   2.045   2.465  1.6150 -0.1279  0.2201
  995SOL    HW2 2985   1.826   1.928   2.500  1.2042  0.2414 -0.8194
  996SOL     OW 2986   2.119   2.235   0.357 -0.4076  0.3403 -0.5059
  996SOL    HW1 2987   2.037   2.283   0.314  0.9433  0.3121 -0.7618
  996SOL    HW2 2988   2.107   2.131   0.352 -1.9390  1.2805  0.7849
  997SOL     OW 2989   1.222   1.489   2.357 -0.0026  0.4179  0.3012
  997SOL    HW1 2990   1.164   1.430   2.416  1.9781  2.6808  0.8690
  997SOL    HW2 2991   1.225   1.452   2.263 -0.0020 -0.9296  1.5310
  998SOL     OW 2992   2.892   2.437   0.705  0.2611 -0.6391  0.5887
  998SOL    HW1 2993   2.882   2.503   0.778 -1.5824 -4.1420 -1.0977
  998SOL    HW2 2994   2.864   2.488   0.618 -0.4046  0.7927 -1.8425
  999SOL     OW 2995   0.487   2.889   0.494  0.3219  0.2320 -0.0415
  999SOL    HW1 2996   0.433   2.847   0.418 -0.8854 -1.3232  0.7559
  999SOL    HW2 2997   0.557   2.826   0.533  3.0226 -0.0106  0.3400
 1000SOL     OW 2998   1.240   0.146   0.026  0.0621 -0.1403 -0.3722
 1000SOL    HW1 2999   1.180   0.115   3.039  1.0099 -0.0440  0.6854
 1000SOL    HW2 3000   1.310   0.208   3.078 -1.2919 -1.5430 -1.4788
   3.08716   3.08716   3.08716
