1000 SPC/Fw water molecules t=  51.00000 step= 51000
 3000
    1SOL     OW    1   2.165   2.699   0.810  0.2795 -0.1261 -0.6879
    1SOL    HW1    2   2.072   2.672   0.767 -0.3893 -2.9061  0.0875
    1SOL    HW2    3   2.150   2.746   0.901 -0.5520 -0.4638 -0.8013
    2SOL     OW    4   1.253   0.985   2.474 -0.0302 -0.2763  0.1548
    2SOL    HW1    5   1.236   1.030   2.383  2.2944 -0.0934  0.0141
    2SOL    HW2    6   1.221   1.042   2.547  0.8082  0.1344 -0.5893
    3SOL     OW    7   0.993   2.854   2.794  0.0271 -0.1994 -0.1892
    3SOL    HW1    8   1.091   2.864   2.801  1.3853  0.4061 -0.0963
    3SOL    HW2    9   0.970   2.757   2.788 -1.3547  2.7249 -0.0589
    4SOL     OW   10   1.367   1.534   2.843 -0.6425  0.3154 -0.0815
    4SOL    HW1   11   1.431   1.454   2.852 -0.6620 -1.4277  1.2342
    4SOL    HW2   12   1.428   1.623   2.838  0.3757  2.3183  0.1549
    5SOL     OW   13   1.095   0.884   2.051  0.4104 -0.7440  0.7862
    5SOL    HW1   14   1.084   0.787   2.076  0.1962  1.5004  0.5544
    5SOL    HW2   15   1.011   0.937   2.070  1.2834  0.6769  0.8748
    6SOL     OW   16   2.046   0.519   2.284 -0.6654 -0.1623 -0.3710
    6SOL    HW1   17   2.081   0.534   2.190  0.9094 -0.7325 -0.0136
    6SOL    HW2   18   2.052   0.612   2.334 -2.6181  4.0367 -0.7116
    7SOL     OW   19   0.372   0.892   1.542  0.0762 -0.4567  0.4735
    7SOL    HW1   20   0.449   0.962   1.558  2.9421  3.8438  0.2779
    7SOL    HW2   21   0.378   0.822   1.620  2.1823  1.7366 -0.2456
    8SOL     OW   22   1.829   2.878   1.903 -0.2131 -0.5472  0.0394
    8SOL    HW1   23   1.746   2.829   1.878 -1.1304  2.1240  0.3535
    8SOL    HW2   24   1.826   2.973   1.874 -0.6502 -1.8406  0.4925
    9SOL     OW   25   0.327   3.015   0.532  0.0785 -0.1986 -0.3400
    9SOL    HW1   26   0.345   2.959   0.452  0.2496  1.7489  2.6695
    9SOL    HW2   27   0.226   3.013   0.563 -1.7839 -1.6743  0.8083
   10SOL     OW   28   0.177   2.258   2.357 -0.1452 -0.8805  0.3118
   10SOL    HW1   29   0.137   2.189   2.422 -1.8711 -1.6875  4.0858
   10SOL    HW2   30   0.268   2.223   2.321  1.6963  1.5861  0.3046
   11SOL     OW   31   0.932   1.582   2.936 -0.3724  0.2755  0.9418
   11SOL    HW1   32   0.891   1.598   3.026  0.7859 -0.2342  1.1910
   11SOL    HW2   33   0.986   1.495   2.939  0.7876 -0.8834 -1.3862
   12SOL     OW   34   2.487   2.409   1.429  0.5246 -0.2420 -0.2045
   12SOL    HW1   35   2.396   2.380   1.380 -2.7856 -0.2594 -2.2792
   12SOL    HW2   36   2.464   2.445   1.524  0.5582  0.6801  3.0149
   13SOL     OW   37   0.531   2.910   2.992 -0.1288  0.5917 -0.8044
   13SOL    HW1   38   0.567   3.001   3.013 -0.1447  0.4513 -0.0585
   13SOL    HW2   39   0.533   2.853   3.079  1.4602 -2.3344  2.0532
   14SOL     OW   40   1.309   1.726   1.420  0.2039 -0.0112 -0.6888
   14SOL    HW1   41   1.229   1.722   1.478  0.4330 -1.5062 -0.9979
   14SOL    HW2   42   1.389   1.689   1.476  1.4291  0.9832 -2.0086
   15SOL     OW   43   0.341   1.650   2.374 -0.6058  0.6875  0.6300
   15SOL    HW1   44   0.419   1.636   2.308  0.6181 -1.1272  0.4597
   15SOL    HW2   45   0.285   1.738   2.355 -0.3323 -0.4676  0.8570
   16SOL     OW   46   1.649   0.578   2.693 -0.0010  0.5457 -0.0847
   16SOL    HW1   47   1.550   0.566   2.716 -1.9555 -2.2002  0.8608
   16SOL    HW2   48   1.672   0.678   2.700  2.5319  3.7712  0.6795
   17SOL     OW   49   3.074   2.942   2.598  0.1877 -0.1317  0.7991
   17SOL    HW1   50   3.034   2.864   2.644 -0.3833 -0.6423  0.4244
   17SOL    HW2   51   0.063   2.905   2.535 -1.2715 -1.7683  1.3331
   18SOL     OW   52   1.207   1.159   0.571 -0.0855  0.2360  0.1203
   18SOL    HW1   53   1.257   1.246   0.562 -1.7437 -2.0472  0.7571
   18SOL    HW2   54   1.112   1.183   0.599  0.6235 -0.2025 -3.3411
   19SOL     OW   55   2.797   1.747   2.450  0.2236 -0.4657 -0.5258
   19SOL    HW1   56   2.775   1.658   2.498 -0.1690  1.8466 -0.5697
   19SOL    HW2   57   2.779   1.817   2.520 -1.6956 -0.2451 -0.6581
   20SOL     OW   58   2.332   2.407   2.452  0.3907 -0.3147  0.2536
   20SOL    HW1   59   2.385   2.470   2.392  0.2638 -1.2475 -1.5428
   20SOL    HW2   60   2.318   2.316   2.404 -0.7419  1.2858 -1.1339
   21SOL     OW   61   1.871   1.905   0.577  0.2160 -0.2331 -0.0829
   21SOL    HW1   62   1.827   1.993   0.606 -1.3037  2.5253 -1.2479
   21SOL    HW2   63   1.899   1.852   0.657 -0.2939 -2.5673 -1.8639
   22SOL     OW   64   2.388   2.052   1.155 -0.1366  0.1480  0.0383
   22SOL    HW1   65   2.477   1.996   1.153  0.6664 -1.9629 -0.4228
   22SOL    HW2   66   2.343   2.034   1.064  0.5069  2.8979  0.3582
   23SOL     OW   67   3.017   1.214   1.330 -0.5857 -0.0394 -0.1490
   23SOL    HW1   68   0.002   1.270   1.379  1.9687  1.3076 -0.7909
   23SOL    HW2   69   3.059   1.153   1.259  0.0930  1.0535 -1.3136
   24SOL     OW   70   2.244   1.072   2.074  0.1744 -0.1469  0.0469
   24SOL    HW1   71   2.343   1.099   2.078  0.5627  1.4255 -1.3825
   24SOL    HW2   72   2.209   1.058   2.163 -1.0557  0.4338 -4.2400
   25SOL     OW   73   1.946   0.089   2.421  0.6642  0.1090 -0.0592
   25SOL    HW1   74   1.908   0.030   2.495 -0.3430  1.8750 -1.5280
   25SOL    HW2   75   1.883   0.094   2.343  0.6475  0.9804  1.6797
   26SOL     OW   76   0.839   0.239   0.258 -0.6066  0.0863 -0.1036
   26SOL    HW1   77   0.744   0.199   0.257 -0.3042 -1.8433 -0.6201
   26SOL    HW2   78   0.842   0.335   0.231  1.7688  0.1645  1.5215
   27SOL     OW   79   0.700   1.502   0.799 -0.0193  0.1313 -0.3167
   27SOL    HW1   80   0.688   1.504   0.698  0.9604  1.0030  0.7204
   27SOL    HW2   81   0.611   1.528   0.842  0.8954  1.6198  1.8673
   28SOL     OW   82   2.287   2.319   1.002 -0.0587 -0.3701 -0.1262
   28SOL    HW1   83   2.251   2.293   1.093  1.2771 -0.8609  0.0717
   28SOL    HW2   84   2.327   2.411   0.996  2.4003 -0.9336 -2.0903
   29SOL     OW   85   2.187   0.028   1.869 -0.0715  0.2311  0.3241
   29SOL    HW1   86   2.150   0.033   1.772 -1.0156 -0.9352 -0.2419
   29SOL    HW2   87   2.288   0.007   1.877  0.0485 -1.5433 -2.2459
   30SOL     OW   88   0.406   2.958   1.391  0.1032  0.1487 -0.4221
   30SOL    HW1   89   0.341   2.948   1.466  1.0475 -0.0576 -0.8585
   30SOL    HW2   90   0.358   2.970   1.304 -0.2584 -0.7774  1.3049
   31SOL     OW   91   3.055   1.919   2.179 -0.1056 -0.5280 -0.4533
   31SOL    HW1   92   0.022   1.936   2.095  0.4961 -0.4917  2.2660
   31SOL    HW2   93   2.996   1.840   2.166  0.2774 -0.0152  2.0430
   32SOL     OW   94   1.507   2.161   2.248  0.5746 -0.4209  0.3786
   32SOL    HW1   95   1.513   2.260   2.232  0.7558  0.3094  0.1775
   32SOL    HW2   96   1.552   2.110   2.171  1.6865 -0.9658 -0.3507
   33SOL     OW   97   0.337   0.182   2.919 -0.2869  0.0231 -0.5893
   33SOL    HW1   98   0.423   0.163   2.870  0.6860  0.2177 -1.9178
   33SOL    HW2   99   0.261   0.125   2.879  0.3397 -1.4750  1.4108
   34SOL     OW  100   2.645   3.033   0.273  0.0374 -0.0319 -0.1749
   34SOL    HW1  101   2.588   3.081   0.337 -1.1357 -1.4991  0.2107
   34SOL    HW2  102   2.704   0.005   0.211 -3.8020  0.7136  0.3574
   35SOL     OW  103   2.856   0.206   1.567  0.8673 -0.1251  1.0604
   35SOL    HW1  104   2.831   0.292   1.619 -1.3494  1.0452  2.2478
   35SOL    HW2  105   2.957   0.200   1.558 -1.5907 -0.4484  3.0147
   36SOL     OW  106   2.453   3.081   2.429 -0.5185 -0.0513  0.1366
   36SOL    HW1  107   2.555   0.021   2.430  1.9453  0.7248  1.5395
   36SOL    HW2  108   2.399   0.074   2.397  0.4732  0.2034  0.8526
   37SOL     OW  109   1.330   2.936   0.009  0.0305 -0.2965 -0.5334
   37SOL    HW1  110   1.344   3.013   0.079 -0.1248  2.8661 -1.6177
   37SOL    HW2  111   1.300   2.851   0.060  0.6758 -3.7537  2.5506
   38SOL     OW  112   0.006   0.812   3.071 -0.1074  0.4684  0.0988
   38SOL    HW1  113   0.049   0.721   3.062  2.6584 -0.8345 -1.7171
   38SOL    HW2  114   0.057   0.890   3.026  0.0502 -0.8908  1.9571
   39SOL     OW  115   1.366   1.750   1.954 -0.1813  0.1376 -0.2811
   39SOL    HW1  116   1.371   1.836   1.902 -1.2484 -0.4192  0.5432
   39SOL    HW2  117   1.363   1.766   2.056 -0.9174  0.4037  1.7306
   40SOL     OW  118   0.392   0.526   2.562  0.2878 -0.2011 -0.8395
   40SOL    HW1  119   0.482   0.565   2.534 -0.3090 -2.4248  0.0149
   40SOL    HW2  120   0.369   0.442   2.508 -0.8647 -2.4664  0.4268
   41SOL     OW  121   1.557   0.977   2.209  0.0342 -0.4827 -0.0651
   41SOL    HW1  122   1.589   0.895   2.160  0.8238  0.0018  1.5710
   41SOL    HW2  123   1.597   0.991   2.305  1.3399  0.2913  2.8358
   42SOL     OW  124   0.057   0.250   1.477  0.0862 -0.5567 -0.6969
   42SOL    HW1  125   0.060   0.351   1.469  2.1130  0.3719  0.2613
   42SOL    HW2  126   0.152   0.212   1.479 -0.9390  2.7552  0.8551
   43SOL     OW  127   1.367   1.349   1.762  0.0364 -0.3646  0.2058
   43SOL    HW1  128   1.469   1.352   1.770  3.8609  0.5969  2.2304
   43SOL    HW2  129   1.336   1.268   1.815 -1.2692 -0.3665 -2.6444
   44SOL     OW  130   2.956   0.167   2.888 -0.2097  0.0317 -0.2930
   44SOL    HW1  131   3.041   0.193   2.941  0.7699  1.1575  0.1956
   44SOL    HW2  132   2.938   0.065   2.888  1.8831  0.0718 -0.2337
   45SOL     OW  133   0.331   2.087   1.542  0.0637  0.2933  0.0478
   45SOL    HW1  134   0.319   2.137   1.452  1.5063  2.4359 -0.4078
   45SOL    HW2  135   0.405   2.015   1.532  0.3951 -1.8077  1.0053
   46SOL     OW  136   2.438   3.033   1.923  0.2444 -0.2795  0.5464
   46SOL    HW1  137   2.527   3.075   1.951 -1.0690 -1.5169 -2.2456
   46SOL    HW2  138   2.446   3.000   1.823 -0.6887 -2.0855  0.9821
   47SOL     OW  139   0.397   1.781   1.130  0.4314 -0.2868  0.4019
   47SOL    HW1  140   0.401   1.731   1.042  0.4238 -1.9972  0.3561
   47SOL    HW2  141   0.427   1.723   1.207 -3.2449  5.2431 -0.7625
   48SOL     OW  142   0.488   2.767   0.138  0.3519  0.6398  0.9223
   48SOL    HW1  143   0.552   2.759   0.218 -0.7316 -1.6662 -1.0721
   48SOL    HW2  144   0.444   2.676   0.119 -2.0722  0.7002 -2.3962
   49SOL     OW  145   2.920   1.627   1.793  0.2717  0.2018  0.1093
   49SOL    HW1  146   2.969   1.688   1.865  2.1485  2.0736  3.3155
   49SOL    HW2  147   2.844   1.575   1.832  2.4374  1.0341 -1.5472
   50SOL     OW  148   1.491   0.095   0.766  0.3246  0.2068 -0.0321
   50SOL    HW1  149   1.562   0.072   0.701  0.6555  1.5536  1.5021
   50SOL    HW2  150   1.502   0.041   0.852 -0.5544 -2.2011  0.7569
   51SOL     OW  151   0.988   0.084   1.203  0.1227  0.4342  0.1666
   51SOL    HW1  152   0.896   0.099   1.238 -2.7965  1.2113 -2.0092
   51SOL    HW2  153   1.004   0.148   1.123  1.1488  1.1305  0.2056
   52SOL     OW  154   0.606   1.272   0.441  0.3165  0.2018  0.3868
   52SOL    HW1  155   0.567   1.231   0.357 -0.4386  3.1939 -1.2911
   52SOL    HW2  156   0.692   1.223   0.460  1.2338  0.1116 -2.2055
   53SOL     OW  157   1.485   2.970   2.505 -0.5322  0.7788 -0.2281
   53SOL    HW1  158   1.503   2.951   2.407  0.7429 -0.7939  0.5884
   53SOL    HW2  159   1.502   2.891   2.569 -1.3636  0.7857 -1.1180
   54SOL     OW  160   1.719   0.561   1.722  0.1726 -0.7817 -0.1000
   54SOL    HW1  161   1.778   0.589   1.643 -0.1379  0.2782 -2.1911
   54SOL    HW2  162   1.770   0.489   1.773  0.8450  0.5735  1.9034
   55SOL     OW  163   2.986   2.488   0.729 -0.1073  0.5247  0.0638
   55SOL    HW1  164   3.046   2.564   0.705  0.3301 -5.5424  0.0500
   55SOL    HW2  165   2.999   2.408   0.666 -2.6030 -2.1788  1.0321
   56SOL     OW  166   0.987   2.824   1.736 -0.2074 -0.1779  0.2449
   56SOL    HW1  167   0.958   2.896   1.803 -1.5314 -0.2465  2.2561
   56SOL    HW2  168   0.905   2.779   1.694 -0.9223  0.3702  0.9698
   57SOL     OW  169   1.890   0.770   2.307 -0.0791 -0.2998 -0.3540
   57SOL    HW1  170   1.964   0.794   2.243 -0.3550 -2.9675  2.4019
   57SOL    HW2  171   1.807   0.747   2.250 -1.4267 -1.6815 -0.9960
   58SOL     OW  172   0.430   1.162   2.108  0.1296 -0.3812 -0.1213
   58SOL    HW1  173   0.388   1.117   2.033  0.0269  0.7435  4.4638
   58SOL    HW2  174   0.369   1.236   2.149 -0.1720  0.1406 -1.4277
   59SOL     OW  175   0.710   2.508   1.852 -0.4575 -0.2735 -0.0192
   59SOL    HW1  176   0.619   2.560   1.838 -3.1833 -2.3383 -1.5148
   59SOL    HW2  177   0.773   2.512   1.771  3.1820 -0.6308  1.2547
   60SOL     OW  178   2.473   2.505   0.209  0.4681 -0.2465  0.2693
   60SOL    HW1  179   2.555   2.541   0.264 -2.7935  0.4980  2.4681
   60SOL    HW2  180   2.494   2.521   0.107  1.5698 -0.3595 -2.6860
   61SOL     OW  181   1.161   2.454   0.782 -0.3568  0.2246  0.1639
   61SOL    HW1  182   1.129   2.468   0.877  0.1362  0.9354 -2.2376
   61SOL    HW2  183   1.201   2.547   0.745  1.8779  1.2018  2.0271
   62SOL     OW  184   1.581   2.821   2.961 -0.7836  0.0514  0.0812
   62SOL    HW1  185   1.593   2.729   2.990  1.3633  1.0142 -0.5050
   62SOL    HW2  186   1.498   2.867   3.004  0.0220 -2.8114 -0.9925
   63SOL     OW  187   2.248   0.750   2.891 -0.3126 -0.0863 -0.2259
   63SOL    HW1  188   2.224   0.799   2.980  0.5305 -0.4108  1.5917
   63SOL    HW2  189   2.342   0.718   2.901 -2.1173  3.0464 -0.0534
   64SOL     OW  190   1.212   1.165   0.004 -0.1753 -0.1597  0.0768
   64SOL    HW1  191   1.161   1.077   3.083 -1.5171  1.2567 -0.5420
   64SOL    HW2  192   1.272   1.177   0.089  0.1056  1.3584 -0.6208
   65SOL     OW  193   0.661   2.961   1.446 -0.7613 -0.3107 -0.0179
   65SOL    HW1  194   0.710   2.883   1.406  2.8724  2.1484  1.5414
   65SOL    HW2  195   0.563   2.960   1.411 -1.7061 -1.3287  0.2674
   66SOL     OW  196   0.938   1.113   1.344 -0.0164 -0.2360 -0.0156
   66SOL    HW1  197   0.965   1.202   1.309  2.9270  0.3453 -0.2302
   66SOL    HW2  198   0.979   1.033   1.292  1.1651 -1.2534 -1.1993
   67SOL     OW  199   2.239   2.183   1.915 -0.4866  0.1217  0.1484
   67SOL    HW1  200   2.241   2.280   1.945 -0.1447  1.6299 -0.1486
   67SOL    HW2  201   2.235   2.166   1.814  0.7244 -1.0733 -1.8938
   68SOL     OW  202   0.957   1.261   2.054  0.6443  0.1744  0.4102
   68SOL    HW1  203   0.867   1.215   2.062 -0.8466  1.7860 -0.8006
   68SOL    HW2  204   0.963   1.331   1.978  0.2508  1.0453  1.3194
   69SOL     OW  205   2.834   2.691   3.077  0.4054 -0.1157 -0.6716
   69SOL    HW1  206   2.753   2.754   3.059 -1.3675  0.9455  2.9647
   69SOL    HW2  207   2.911   2.741   0.040 -1.0653 -0.5075 -0.4371
   70SOL     OW  208   2.523   0.894   2.279  0.1442 -0.0819  0.1843
   70SOL    HW1  209   2.484   0.936   2.362 -0.6642 -0.3373 -0.4403
   70SOL    HW2  210   2.565   0.808   2.311 -0.2787  1.4458 -0.5766
   71SOL     OW  211   0.343   1.865   0.710  0.5834  0.3647 -0.2004
   71SOL    HW1  212   0.263   1.838   0.658  2.0531 -0.1963 -0.2709
   71SOL    HW2  213   0.319   1.935   0.775 -2.2563 -2.6892 -1.1301
   72SOL     OW  214   2.634   1.836   0.441 -0.5327  0.0137  0.4998
   72SOL    HW1  215   2.562   1.903   0.411  0.2784 -0.1494 -0.2626
   72SOL    HW2  216   2.593   1.759   0.492 -0.3459  2.1225  1.1348
   73SOL     OW  217   1.065   0.565   0.465  0.2907 -0.2708 -0.3084
   73SOL    HW1  218   1.040   0.627   0.388 -1.2604  0.9615 -1.0914
   73SOL    HW2  219   1.134   0.601   0.533 -1.2966  0.2947 -2.3898
   74SOL     OW  220   2.567   2.294   1.908  0.4236  0.1952  0.7188
   74SOL    HW1  221   2.541   2.366   1.976 -1.7534  0.5375 -0.1281
   74SOL    HW2  222   2.497   2.283   1.835 -0.6059  2.3050  0.3088
   75SOL     OW  223   1.555   1.598   1.836 -0.1336  0.4448 -0.6100
   75SOL    HW1  224   1.500   1.660   1.893  2.0268  1.7610 -0.8094
   75SOL    HW2  225   1.561   1.500   1.869  3.5901  0.3650  3.6720
   76SOL     OW  226   1.150   1.782   1.049 -0.2765 -0.0857  0.0985
   76SOL    HW1  227   1.214   1.706   1.072 -1.2707 -1.0906 -0.0642
   76SOL    HW2  228   1.052   1.760   1.067  1.5420  1.3023 -1.0348
   77SOL     OW  229   2.738   1.439   1.953  0.3071 -0.1723  0.3340
   77SOL    HW1  230   2.741   1.438   2.053 -0.3219  0.2474 -0.3863
   77SOL    HW2  231   2.770   1.351   1.913  2.3664 -2.0647 -2.5653
   78SOL     OW  232   1.790   0.586   0.241 -0.1294  0.1453 -0.5886
   78SOL    HW1  233   1.795   0.491   0.295 -0.9359 -4.7325 -0.1076
   78SOL    HW2  234   1.754   0.662   0.297  0.7031 -1.3000  1.0815
   79SOL     OW  235   1.579   1.260   2.128 -0.3554  0.2080  0.1974
   79SOL    HW1  236   1.666   1.314   2.131 -2.8164 -2.4315 -1.3729
   79SOL    HW2  237   1.599   1.160   2.147  2.1701 -4.3062  1.7898
   80SOL     OW  238   0.941   0.473   1.649 -0.3051  0.0864 -0.1612
   80SOL    HW1  239   1.003   0.404   1.603 -0.9114 -0.8199  1.4938
   80SOL    HW2  240   0.998   0.544   1.699  0.3277  0.1740  0.8137
   81SOL     OW  241   0.790   2.448   0.578 -0.2300 -0.1399 -0.4038
   81SOL    HW1  242   0.822   2.539   0.604  3.0248 -0.8729 -2.0819
   81SOL    HW2  243   0.813   2.382   0.654  3.6250 -2.8026  0.1820
   82SOL     OW  244   1.366   0.223   1.878 -0.3460  0.4391 -0.0366
   82SOL    HW1  245   1.409   0.295   1.819 -2.1321  2.2436 -0.7740
   82SOL    HW2  246   1.415   0.220   1.967  1.1031 -1.7788 -0.3812
   83SOL     OW  247   0.283   2.326   0.622  0.2242  0.4299  0.0161
   83SOL    HW1  248   0.348   2.406   0.627 -1.8753 -0.8936  0.3356
   83SOL    HW2  249   0.261   2.286   0.709  2.7833 -1.3462 -0.6261
   84SOL     OW  250   2.662   1.422   0.146  0.2746 -1.2273  0.0974
   84SOL    HW1  251   2.726   1.383   0.215  1.5202  1.0570  1.9277
   84SOL    HW2  252   2.705   1.493   0.081  0.5450  1.7323 -3.0298
   85SOL     OW  253   2.425   2.107   1.420 -0.1610 -0.4886  0.1955
   85SOL    HW1  254   2.449   2.098   1.321  2.1482 -1.9459  2.2231
   85SOL    HW2  255   2.508   2.101   1.479  2.9284  0.0741  2.4999
   86SOL     OW  256   1.399   2.459   1.080  0.3305  0.4098  0.2114
   86SOL    HW1  257   1.438   2.510   1.004 -0.8358  1.2286  0.6535
   86SOL    HW2  258   1.291   2.458   1.072 -4.4439  0.1929 -1.4950
   87SOL     OW  259   2.484   1.606   0.485  0.2028 -0.4678 -0.2155
   87SOL    HW1  260   2.392   1.626   0.530 -0.0351  1.7072 -2.2390
   87SOL    HW2  261   2.481   1.615   0.381  0.2330  0.1683 -1.3215
   88SOL     OW  262   0.803   0.158   0.886  0.1072 -0.2025 -0.4533
   88SOL    HW1  263   0.900   0.119   0.870  1.3599 -1.2623 -1.4060
   88SOL    HW2  264   0.800   0.256   0.865  1.3962  3.1056 -0.4638
   89SOL     OW  265   0.687   0.134   1.873 -0.6466  0.1136 -0.4934
   89SOL    HW1  266   0.703   0.233   1.869 -2.1144 -1.8076  0.5904
   89SOL    HW2  267   0.621   0.115   1.949  0.6989  0.8071 -1.6834
   90SOL     OW  268   0.056   1.978   0.871 -0.2330 -0.0269 -0.3291
   90SOL    HW1  269   3.059   1.998   0.812  0.7806 -1.9661 -0.1982
   90SOL    HW2  270   0.072   1.876   0.866  2.5791 -0.4222  2.3945
   91SOL     OW  271   0.875   1.668   1.163  0.0384  0.0837 -0.1288
   91SOL    HW1  272   0.775   1.669   1.185 -1.1892  2.8936 -0.6666
   91SOL    HW2  273   0.909   1.588   1.105  1.4370 -1.4943  1.7643
   92SOL     OW  274   2.524   2.938   1.664  0.1027 -0.2895  0.2719
   92SOL    HW1  275   2.539   3.037   1.642  0.1146  0.1166  1.2772
   92SOL    HW2  276   2.597   2.877   1.625 -2.2521 -1.1443  1.7728
   93SOL     OW  277   0.354   1.114   2.748  0.8599 -0.1270 -0.8488
   93SOL    HW1  278   0.451   1.142   2.767 -0.2409  1.0280  1.3610
   93SOL    HW2  279   0.309   1.179   2.680 -2.2039 -1.8612  0.4639
   94SOL     OW  280   2.658   0.058   2.045  0.2615  0.0607 -0.8476
   94SOL    HW1  281   2.621   0.153   2.031  0.3939  0.1494  2.0539
   94SOL    HW2  282   2.762   0.061   2.026 -1.2984  1.6136 -2.6192
   95SOL     OW  283   1.701   0.763   2.114 -0.1137  0.7832  0.2047
   95SOL    HW1  284   1.661   0.671   2.106  0.4653  1.5443 -2.4783
   95SOL    HW2  285   1.717   0.799   2.023  1.7593 -1.9767  0.1715
   96SOL     OW  286   2.970   0.655   1.744  0.1987 -0.1300  0.2639
   96SOL    HW1  287   2.894   0.591   1.748  1.8365 -0.7828  0.6751
   96SOL    HW2  288   2.935   0.739   1.696 -0.7970 -0.5065  1.2114
   97SOL     OW  289   1.981   2.630   1.379 -0.3371 -0.0399 -0.8392
   97SOL    HW1  290   2.046   2.613   1.457  0.0695  0.6381  0.6763
   97SOL    HW2  291   2.033   2.596   1.300 -1.4538 -1.4879  3.2711
   98SOL     OW  292   2.026   2.456   1.761  0.1973 -0.4074  0.2816
   98SOL    HW1  293   1.952   2.395   1.792  1.3789 -0.7177 -0.7593
   98SOL    HW2  294   2.024   2.547   1.807  1.0432 -1.6179  0.3298
   99SOL     OW  295   2.712   0.514   1.189 -0.4257  0.9249  0.1393
   99SOL    HW1  296   2.730   0.423   1.226  1.5294 -0.2190 -0.6780
   99SOL    HW2  297   2.801   0.569   1.190  2.2189 -1.4897  3.2901
  100SOL     OW  298   2.532   1.872   1.812  0.0978  0.1613 -0.2953
  100SOL    HW1  299   2.434   1.842   1.816 -2.3203 -0.5228 -1.3905
  100SOL    HW2  300   2.542   1.958   1.756  0.6204 -0.7378 -0.5698
  101SOL     OW  301   2.207   0.008   0.160 -0.4697  0.1993  0.9425
  101SOL    HW1  302   2.138   3.028   0.116  1.9077  1.4906  0.9469
  101SOL    HW2  303   2.224   0.086   0.096 -2.2867  0.4999  1.4845
  102SOL     OW  304   0.652   0.522   1.269 -0.2651  0.1714  0.9426
  102SOL    HW1  305   0.732   0.478   1.313 -0.7440  1.3865  0.2792
  102SOL    HW2  306   0.565   0.485   1.307  0.4133  1.0061 -1.3908
  103SOL     OW  307   2.970   0.101   2.472  0.4521  0.1429 -0.0570
  103SOL    HW1  308   2.990   0.009   2.521  0.3495  0.4937 -1.8761
  103SOL    HW2  309   3.026   0.106   2.388  1.0153  0.9739  0.1957
  104SOL     OW  310   0.336   2.233   1.248 -0.0424 -0.1202 -0.4489
  104SOL    HW1  311   0.381   2.158   1.196 -2.4304  3.3841  2.5188
  104SOL    HW2  312   0.393   2.317   1.238  1.9869  2.5212  1.7105
  105SOL     OW  313   0.858   1.668   1.893 -0.2485 -0.3181  0.2634
  105SOL    HW1  314   0.873   1.580   1.842  0.7734  0.4379  0.9736
  105SOL    HW2  315   0.804   1.733   1.832 -0.2476 -0.7747 -1.3656
  106SOL     OW  316   1.805   0.500   0.698 -0.4865  0.5110 -0.5011
  106SOL    HW1  317   1.852   0.587   0.668 -0.2432  0.5039  1.0051
  106SOL    HW2  318   1.728   0.473   0.635 -0.4457  0.4393 -0.3219
  107SOL     OW  319   0.699   1.095   1.217 -0.2112  0.0084 -0.7219
  107SOL    HW1  320   0.782   1.075   1.273  0.3542  3.2471  0.6915
  107SOL    HW2  321   0.720   1.180   1.158 -0.2695  1.5042  1.4980
  108SOL     OW  322   3.061   0.763   2.177  0.4725 -0.3964 -0.0767
  108SOL    HW1  323   0.063   0.716   2.161 -2.6915  2.2615 -0.5491
  108SOL    HW2  324   2.989   0.704   2.139  1.9846 -1.7711 -1.7468
  109SOL     OW  325   1.846   2.907   2.887 -0.5131 -0.3163 -0.2239
  109SOL    HW1  326   1.913   2.920   2.964  0.7552  2.4084  1.6894
  109SOL    HW2  327   1.752   2.880   2.918 -2.3772  0.3508 -0.7858
  110SOL     OW  328   0.261   1.876   2.982 -0.0209  0.2436  0.3441
  110SOL    HW1  329   0.188   1.924   3.031  1.5407  0.5681 -3.5332
  110SOL    HW2  330   0.356   1.909   3.004 -0.0005 -2.7768  0.5431
  111SOL     OW  331   2.838   0.611   2.137  0.5393 -0.1200 -0.3073
  111SOL    HW1  332   2.754   0.624   2.194 -0.1678 -1.6009  1.6458
  111SOL    HW2  333   2.857   0.512   2.139 -1.0885 -0.2940 -0.4541
  112SOL     OW  334   2.646   2.533   1.239 -0.2159  0.4093  0.6697
  112SOL    HW1  335   2.581   2.479   1.296  2.1307 -0.1557 -1.2600
  112SOL    HW2  336   2.624   2.536   1.140  1.1423 -0.8432  0.5494
  113SOL     OW  337   2.049   1.991   2.007  0.3803 -0.2062  0.1172
  113SOL    HW1  338   1.951   2.023   2.022 -0.7495  1.1675 -0.7253
  113SOL    HW2  339   2.106   2.078   2.019 -0.3505  1.7136 -1.8932
  114SOL     OW  340   0.107   0.347   0.269  0.1527 -0.2010 -0.5075
  114SOL    HW1  341   0.013   0.349   0.312 -1.6219 -3.0794 -0.5941
  114SOL    HW2  342   0.172   0.404   0.318 -1.6440  0.1879 -1.2474
  115SOL     OW  343   2.737   1.641   3.029  0.4326 -0.1399 -0.0887
  115SOL    HW1  344   2.840   1.640   3.033  1.6734 -0.2705 -0.3041
  115SOL    HW2  345   2.713   1.661   2.936  2.2904 -1.2252  3.0935
  116SOL     OW  346   0.039   1.195   1.642  0.0507  0.3283 -0.4172
  116SOL    HW1  347   0.099   1.239   1.709 -2.5103 -1.6113 -0.0615
  116SOL    HW2  348   3.042   1.255   1.614 -0.6300 -0.8392 -0.4756
  117SOL     OW  349   2.240   0.088   1.392  0.3438 -0.3772 -0.9296
  117SOL    HW1  350   2.194   0.043   1.310 -0.7093 -0.2774 -0.7232
  117SOL    HW2  351   2.193   0.062   1.478  0.8225  0.7357  1.0690
  118SOL     OW  352   2.823   2.427   2.133  0.0341  0.3932  0.5270
  118SOL    HW1  353   2.907   2.480   2.122  2.3654 -0.9797  1.3729
  118SOL    HW2  354   2.849   2.328   2.134 -0.7952 -0.4352 -0.1453
  119SOL     OW  355   0.600   1.533   1.132 -0.8082  0.6171  0.5010
  119SOL    HW1  356   0.531   1.500   1.062  1.0816 -3.1424 -1.0667
  119SOL    HW2  357   0.552   1.568   1.213  0.3579 -2.4131  0.9811
  120SOL     OW  358   0.235   1.765   1.429 -0.7304  0.3653 -0.0915
  120SOL    HW1  359   0.184   1.751   1.518  0.0578  2.5685  1.6947
  120SOL    HW2  360   0.170   1.749   1.357  1.7360  2.1778  3.8053
  121SOL     OW  361   1.784   1.258   0.914  0.3815  0.2993  0.0295
  121SOL    HW1  362   1.782   1.212   1.005 -0.0208  1.7661  0.7451
  121SOL    HW2  363   1.740   1.199   0.843 -0.4679  1.4702 -1.2052
  122SOL     OW  364   1.808   2.314   2.530 -0.1616  0.5360 -0.2897
  122SOL    HW1  365   1.890   2.270   2.580  0.6620 -0.6859  0.5338
  122SOL    HW2  366   1.808   2.414   2.546 -1.6267 -0.1562 -2.2760
  123SOL     OW  367   2.952   3.072   0.321 -0.1948 -0.5738 -0.2722
  123SOL    HW1  368   3.053   0.004   0.336  2.3711 -0.4755  0.8957
  123SOL    HW2  369   2.903   0.002   0.409 -1.1839  3.6351 -1.2747
  124SOL     OW  370   0.948   1.331   0.376  0.3860 -0.0090  0.1778
  124SOL    HW1  371   0.939   1.317   0.473  0.0459 -2.3621  0.0256
  124SOL    HW2  372   1.001   1.256   0.331 -1.7901  1.7446  0.9553
  125SOL     OW  373   0.279   1.349   2.285 -0.5896 -0.3624 -0.1840
  125SOL    HW1  374   0.182   1.374   2.270  1.4811  0.0911  1.1508
  125SOL    HW2  375   0.339   1.432   2.282 -3.2206  0.5759 -1.1111
  126SOL     OW  376   3.045   2.442   0.262 -0.4845  0.2730  0.4183
  126SOL    HW1  377   3.068   2.402   0.355  0.4460 -1.5523 -0.3910
  126SOL    HW2  378   3.019   2.541   0.280 -1.0630 -2.3589  0.3374
  127SOL     OW  379   2.886   1.868   0.353  0.3232 -0.1933  0.9372
  127SOL    HW1  380   2.887   1.901   0.254  0.2575  1.0549 -0.0366
  127SOL    HW2  381   2.791   1.848   0.384  0.5476 -1.5610 -2.6917
  128SOL     OW  382   1.312   0.873   0.688  0.6668  0.1683  0.0930
  128SOL    HW1  383   1.286   0.966   0.655  0.6177  0.1865 -1.2887
  128SOL    HW2  384   1.344   0.874   0.783  2.8357 -2.6423 -0.4329
  129SOL     OW  385   2.623   1.938   1.135 -1.0827 -0.6040 -0.1343
  129SOL    HW1  386   2.707   1.979   1.184  2.6636  1.4821  0.6134
  129SOL    HW2  387   2.601   1.845   1.173 -1.0217  2.4097  0.7266
  130SOL     OW  388   2.326   0.849   0.823  0.0902 -0.1020  0.3926
  130SOL    HW1  389   2.397   0.866   0.894 -0.2967 -4.1587 -2.4294
  130SOL    HW2  390   2.341   0.918   0.749 -1.4938 -1.3683 -0.9865
  131SOL     OW  391   2.917   1.248   2.385 -0.0539  0.3339  0.0901
  131SOL    HW1  392   2.828   1.197   2.380 -0.1772  1.7683 -1.7427
  131SOL    HW2  393   2.989   1.190   2.436  1.6614  1.3430  1.0155
  132SOL     OW  394   1.360   1.398   2.223 -0.0011 -0.9726 -0.0304
  132SOL    HW1  395   1.274   1.343   2.239 -2.2476 -2.0410 -0.2894
  132SOL    HW2  396   1.438   1.346   2.181  1.8752  1.0152 -0.7254
  133SOL     OW  397   0.152   1.201   0.347  0.4465 -0.3009  0.5264
  133SOL    HW1  398   0.076   1.263   0.312 -1.4995 -0.0139 -0.4463
  133SOL    HW2  399   0.204   1.151   0.278  0.9710  0.8495  1.1618
  134SOL     OW  400   2.731   0.999   0.165 -0.1870 -0.0326 -0.0436
  134SOL    HW1  401   2.744   0.935   0.089 -2.0362 -1.8360  0.9703
  134SOL    HW2  402   2.645   1.054   0.153 -0.6998 -1.3238 -0.1421
  135SOL     OW  403   1.497   0.759   0.093  0.0356  0.6000  0.1110
  135SOL    HW1  404   1.473   0.803   0.003  1.6090  1.1973 -2.1428
  135SOL    HW2  405   1.434   0.788   0.165 -1.1252 -1.6257 -3.2997
  136SOL     OW  406   1.841   1.608   1.792 -0.8089  0.7557  0.8089
  136SOL    HW1  407   1.753   1.612   1.841  0.5594  2.4891  0.5616
  136SOL    HW2  408   1.865   1.699   1.751  0.8092  0.3397 -0.8879
  137SOL     OW  409   2.433   2.405   0.558 -0.1465  0.5383 -0.8166
  137SOL    HW1  410   2.515   2.361   0.517 -0.5130  0.3301 -0.0771
  137SOL    HW2  411   2.354   2.411   0.494 -0.6692 -0.0169  0.5525
  138SOL     OW  412   2.415   0.359   1.295  0.2413  0.2634  0.1141
  138SOL    HW1  413   2.402   0.257   1.303 -2.1545 -2.0411  0.5142
  138SOL    HW2  414   2.431   0.380   1.198  0.6972 -0.1080 -1.4266
  139SOL     OW  415   2.623   0.129   2.778  0.0058 -0.1997 -0.2240
  139SOL    HW1  416   2.666   0.199   2.839  1.5031  0.0196  3.4575
  139SOL    HW2  417   2.630   0.042   2.831  3.1253 -2.4321  2.4663
  140SOL     OW  418   1.377   1.853   2.240  1.3952 -0.3582 -0.2194
  140SOL    HW1  419   1.355   1.758   2.276 -1.7718 -0.9715 -0.7087
  140SOL    HW2  420   1.342   1.921   2.310  1.5252 -0.4139  2.6479
  141SOL     OW  421   1.043   0.809   2.396 -0.2742 -0.4783  0.4097
  141SOL    HW1  422   1.108   0.887   2.424  1.2442 -1.2241  0.5726
  141SOL    HW2  423   1.088   0.722   2.389 -3.1575  0.9041  2.9875
  142SOL     OW  424   2.553   2.688   2.755 -0.5258 -0.5778  0.0842
  142SOL    HW1  425   2.464   2.729   2.785  0.8683  0.2688  2.0022
  142SOL    HW2  426   2.536   2.604   2.703 -0.0938  1.9644 -0.8413
  143SOL     OW  427   1.125   1.985   0.409  0.2809 -0.0152  0.0780
  143SOL    HW1  428   1.203   2.026   0.453 -1.1110 -0.4582 -0.5289
  143SOL    HW2  429   1.036   2.011   0.452 -1.4148 -0.4610  1.3852
  144SOL     OW  430   1.234   2.705   0.101  0.1777 -0.1929  0.1458
  144SOL    HW1  431   1.266   2.630   0.042  1.9701 -0.0683  2.4904
  144SOL    HW2  432   1.146   2.738   0.064 -0.0054 -0.9460  0.7848
  145SOL     OW  433   1.351   2.363   2.597 -0.6030  0.6967  0.0330
  145SOL    HW1  434   1.279   2.354   2.526  0.3619  2.5921  0.2761
  145SOL    HW2  435   1.439   2.314   2.572 -1.3162  1.7208 -1.3000
  146SOL     OW  436   2.209   2.936   2.944  0.0566 -0.3315  0.2315
  146SOL    HW1  437   2.251   3.028   2.940 -0.6963 -0.9361 -0.1427
  146SOL    HW2  438   2.120   2.943   2.993  1.0927 -0.1523  1.3576
  147SOL     OW  439   2.860   1.072   1.068 -0.5453 -0.1484  0.4884
  147SOL    HW1  440   2.770   1.116   1.037 -0.6116  0.2970  0.9610
  147SOL    HW2  441   2.935   1.142   1.076  1.3424  0.5170  0.0414
  148SOL     OW  442   2.086   2.722   0.150  0.0828 -0.6078  0.0612
  148SOL    HW1  443   2.106   2.741   0.251 -1.4473 -1.2754  2.6620
  148SOL    HW2  444   2.174   2.696   0.102  0.2714 -0.2403  2.4487
  149SOL     OW  445   0.746   1.813   2.934 -0.4432 -0.0873 -0.5824
  149SOL    HW1  446   0.804   1.738   2.908 -0.6841  2.7232  0.3038
  149SOL    HW2  447   0.672   1.830   2.863 -2.3371 -0.7862 -1.9955
  150SOL     OW  448   0.524   2.450   0.658  0.2979 -1.1980 -0.1074
  150SOL    HW1  449   0.611   2.442   0.604  0.5645 -0.8430 -1.6127
  150SOL    HW2  450   0.541   2.502   0.748  0.3469 -1.4000  1.5900
  151SOL     OW  451   0.249   1.071   0.126 -0.3218  0.6963 -0.3416
  151SOL    HW1  452   0.291   0.986   0.166  1.8385 -0.4038  1.2317
  151SOL    HW2  453   0.196   1.053   0.040 -3.0411  0.6664  1.4113
  152SOL     OW  454   2.637   2.171   0.714 -0.7381  0.2123  0.0033
  152SOL    HW1  455   2.649   2.252   0.776 -0.7031 -2.7508 -1.2997
  152SOL    HW2  456   2.628   2.207   0.622  0.7346 -2.6010  0.9617
  153SOL     OW  457   1.612   2.404   0.892 -0.5945 -0.5653 -0.3855
  153SOL    HW1  458   1.648   2.368   0.979  1.3064  1.1807 -4.0445
  153SOL    HW2  459   1.543   2.339   0.857  1.5777  3.8231 -2.2453
  154SOL     OW  460   0.641   2.876   1.102 -0.5204  0.1728 -0.6263
  154SOL    HW1  461   0.648   2.981   1.091 -0.6986  1.0602 -0.0476
  154SOL    HW2  462   0.695   2.841   1.184 -0.0656  0.0943 -0.9561
  155SOL     OW  463   2.947   2.015   0.690  0.7199 -0.3146  0.0297
  155SOL    HW1  464   2.848   2.036   0.692 -0.0816 -1.6164 -2.6163
  155SOL    HW2  465   2.990   2.026   0.593  0.1883 -0.5208 -1.1535
  156SOL     OW  466   2.623   2.301   3.028  0.2107 -0.7542 -0.4422
  156SOL    HW1  467   2.711   2.345   3.000  2.5327 -2.5386 -1.4462
  156SOL    HW2  468   2.616   2.206   2.997 -1.8385  1.2783  0.2876
  157SOL     OW  469   0.410   2.307   1.689  0.7640 -0.4849 -0.2451
  157SOL    HW1  470   0.329   2.367   1.705  2.2131  1.5606 -0.6954
  157SOL    HW2  471   0.376   2.222   1.643 -1.1522 -1.0991 -0.8050
  158SOL     OW  472   1.443   0.522   0.824  0.5856  0.0403  0.1069
  158SOL    HW1  473   1.364   0.474   0.864 -1.4630  1.6564 -1.9948
  158SOL    HW2  474   1.498   0.571   0.896 -1.4520 -2.2507  0.9020
  159SOL     OW  475   1.777   0.659   3.073  0.1363 -0.6456 -0.1838
  159SOL    HW1  476   1.804   0.623   0.083  0.1998  0.5657  2.2233
  159SOL    HW2  477   1.698   0.724   0.002 -1.1438 -0.5818  2.2874
  160SOL     OW  478   0.937   1.608   0.409 -0.1891 -0.5092 -0.2334
  160SOL    HW1  479   0.953   1.508   0.384  0.5125  0.9724  0.5600
  160SOL    HW2  480   0.947   1.673   0.335 -0.9853  2.6930  1.1216
  161SOL     OW  481   2.718   2.340   2.582 -0.1877  0.3467  0.4439
  161SOL    HW1  482   2.621   2.354   2.609  0.9000  0.2098 -0.9793
  161SOL    HW2  483   2.756   2.272   2.647 -0.5817  0.0665 -0.1277
  162SOL     OW  484   0.066   2.035   1.366 -0.1576  0.0629 -0.1571
  162SOL    HW1  485   0.033   2.126   1.389  1.5716 -1.9410 -1.4195
  162SOL    HW2  486   0.095   2.026   1.271  0.4215  2.0128 -0.3234
  163SOL     OW  487   0.312   0.475   2.897 -0.1333  0.0949 -0.2701
  163SOL    HW1  488   0.296   0.374   2.892  0.3106 -1.5619  0.8502
  163SOL    HW2  489   0.407   0.495   2.865 -3.1846 -1.6977  0.6923
  164SOL     OW  490   0.241   2.814   2.480 -0.1026  0.4919 -0.0336
  164SOL    HW1  491   0.332   2.865   2.472  1.1115  2.6784  0.7416
  164SOL    HW2  492   0.257   2.727   2.533  0.7406  0.7748  0.6395
  165SOL     OW  493   2.531   0.816   1.606  0.0538 -0.0070 -0.2590
  165SOL    HW1  494   2.574   0.769   1.529 -0.7862  1.6634  0.5341
  165SOL    HW2  495   2.587   0.898   1.627 -0.3797 -0.7640  3.2868
  166SOL     OW  496   1.968   1.905   1.476 -0.3952  0.5853  0.3076
  166SOL    HW1  497   2.067   1.925   1.477  3.0651  0.1894  0.0367
  166SOL    HW2  498   1.940   1.886   1.381 -1.9960 -0.9418  2.2194
  167SOL     OW  499   0.647   0.788   2.238 -0.1413  0.3152 -0.4634
  167SOL    HW1  500   0.605   0.698   2.237  0.4180  2.4166 -1.6220
  167SOL    HW2  501   0.578   0.853   2.271 -0.9380 -1.9819  2.2401
  168SOL     OW  502   2.142   0.206   2.078 -0.4065  1.1534 -0.6374
  168SOL    HW1  503   2.170   0.176   2.173 -2.8111 -1.8165 -0.4808
  168SOL    HW2  504   2.162   0.133   2.013 -1.4125  1.2132  0.0439
  169SOL     OW  505   0.387   0.878   0.289  0.4912 -0.1154  0.1712
  169SOL    HW1  506   0.418   0.863   0.383 -0.1677  2.5747 -0.6182
  169SOL    HW2  507   0.361   0.798   0.234 -0.9509 -0.0312  0.5864
  170SOL     OW  508   0.803   1.520   1.577 -0.7630 -0.2233 -0.3323
  170SOL    HW1  509   0.796   1.623   1.586 -2.6654 -0.1343 -1.8403
  170SOL    HW2  510   0.891   1.502   1.520  1.9600  2.5908  1.1781
  171SOL     OW  511   1.146   2.452   1.752  0.2715  0.6294 -0.1245
  171SOL    HW1  512   1.180   2.442   1.661 -0.2625  0.5083  0.0155
  171SOL    HW2  513   1.175   2.540   1.793  0.2421 -0.8506 -2.0384
  172SOL     OW  514   1.417   2.987   2.043 -0.6077  0.2952  0.0386
  172SOL    HW1  515   1.491   3.054   2.064  0.4310  0.4826  3.6388
  172SOL    HW2  516   1.335   3.007   2.094  1.2336 -1.1285 -1.0921
  173SOL     OW  517   1.433   2.254   0.779 -0.0221  0.2031  0.5805
  173SOL    HW1  518   1.428   2.224   0.681 -0.9363  1.2348  0.6585
  173SOL    HW2  519   1.374   2.195   0.838  0.7952 -1.1373 -1.9948
  174SOL     OW  520   2.348   2.926   0.360  0.4689 -0.3666  0.5203
  174SOL    HW1  521   2.391   3.003   0.413  0.7620 -1.1245  1.6333
  174SOL    HW2  522   2.280   2.969   0.297 -2.3559 -1.2533  1.3454
  175SOL     OW  523   1.215   1.437   0.671  0.2045  0.4332 -0.0224
  175SOL    HW1  524   1.224   1.484   0.580 -1.8276 -0.9721  0.1374
  175SOL    HW2  525   1.119   1.440   0.709  1.0694 -1.8034 -1.7676
  176SOL     OW  526   0.701   1.515   0.536  0.1056  0.1366 -0.3655
  176SOL    HW1  527   0.780   1.546   0.483 -2.4355 -0.8647  0.9389
  176SOL    HW2  528   0.652   1.433   0.495 -0.3294 -0.9098 -1.2725
  177SOL     OW  529   1.242   1.147   0.969 -0.1232  0.4927  0.7506
  177SOL    HW1  530   1.302   1.187   0.899 -0.4321 -0.8070 -1.0583
  177SOL    HW2  531   1.268   1.045   0.980  0.3198 -2.1230 -2.1266
  178SOL     OW  532   2.393   1.850   0.151  0.1721 -0.5063 -0.5221
  178SOL    HW1  533   2.405   1.906   0.238 -0.3647  2.2567  2.7641
  178SOL    HW2  534   2.401   1.752   0.174  1.9888  0.6308 -0.7068
  179SOL     OW  535   1.032   2.831   3.067 -0.1802 -0.1489 -0.3773
  179SOL    HW1  536   1.014   2.818   2.969  0.2857  1.9310 -0.5523
  179SOL    HW2  537   1.027   2.931   0.002  2.1497 -1.9390 -0.9339
  180SOL     OW  538   2.038   1.254   2.022  0.0355 -0.1129  0.5350
  180SOL    HW1  539   2.094   1.173   2.041 -1.9362 -2.6220  0.0123
  180SOL    HW2  540   2.080   1.322   1.961 -1.3006 -2.1894  0.9510
  181SOL     OW  541   1.198   0.583   2.368  0.2248  0.1346  0.1315
  181SOL    HW1  542   1.295   0.581   2.340 -0.5503 -4.4475  0.1744
  181SOL    HW2  543   1.191   0.603   2.465 -0.3223  2.1465 -2.0150
  182SOL     OW  544   0.019   1.393   2.214 -0.2328  0.5718  0.0257
  182SOL    HW1  545   3.043   1.354   2.281  2.4773  0.4159  1.6928
  182SOL    HW2  546   0.016   1.338   2.125  1.0052 -1.7951 -0.3078
  183SOL     OW  547   1.478   0.547   2.396  0.2792 -0.7243 -0.1231
  183SOL    HW1  548   1.453   0.478   2.463  1.4081  2.1938  3.2436
  183SOL    HW2  549   1.557   0.527   2.331  0.0560  0.5357  1.0576
  184SOL     OW  550   0.651   0.860   1.404 -0.2774  0.3658 -0.1162
  184SOL    HW1  551   0.664   0.801   1.486 -1.1014 -0.1804  1.1334
  184SOL    HW2  552   0.710   0.830   1.323  1.3767  0.4276 -1.2802
  185SOL     OW  553   2.190   1.619   0.603 -0.0559 -0.2037 -0.6792
  185SOL    HW1  554   2.197   1.691   0.533 -0.7168 -0.7960 -0.8611
  185SOL    HW2  555   2.120   1.550   0.581  0.2312  1.0627  0.1893
  186SOL     OW  556   0.207   1.968   0.305  0.3756  0.0950 -0.2077
  186SOL    HW1  557   0.254   2.054   0.329 -2.2835 -1.1915  0.1028
  186SOL    HW2  558   0.277   1.893   0.288  1.5697  0.8316  1.3863
  187SOL     OW  559   2.109   2.369   3.029  0.3216 -0.3148 -0.7778
  187SOL    HW1  560   2.047   2.410   0.020  0.3026  1.8405  0.8929
  187SOL    HW2  561   2.161   2.286   3.063  3.0706 -1.0883  0.8432
  188SOL     OW  562   0.950   2.059   1.033  0.6385  0.1339  0.2079
  188SOL    HW1  563   0.868   2.015   1.078 -1.0039 -0.8835  4.5764
  188SOL    HW2  564   1.028   1.998   1.034 -2.8566  0.7613  0.2665
  189SOL     OW  565   2.192   1.460   2.499 -0.4268  0.6823 -0.3172
  189SOL    HW1  566   2.121   1.525   2.485  0.1836  0.0038  0.8656
  189SOL    HW2  567   2.280   1.516   2.505 -0.4669 -0.3948 -2.1234
  190SOL     OW  568   0.850   2.584   2.076  0.1979  0.0235 -0.0562
  190SOL    HW1  569   0.805   2.543   1.994 -1.3779  0.8388 -0.5712
  190SOL    HW2  570   0.841   2.687   2.070  0.5994 -1.2260 -1.3464
  191SOL     OW  571   2.654   0.731   1.383  0.2374 -0.6143 -0.2164
  191SOL    HW1  572   2.721   0.810   1.357  1.0558  1.0528 -0.8424
  191SOL    HW2  573   2.662   0.657   1.315 -0.1521 -0.9740 -2.5813
  192SOL     OW  574   2.516   0.509   1.493  0.1211 -0.0223 -0.5609
  192SOL    HW1  575   2.471   0.454   1.413 -3.6697 -1.6177  0.8478
  192SOL    HW2  576   2.553   0.595   1.459 -1.2566 -1.8315  1.5157
  193SOL     OW  577   0.447   0.290   0.465 -0.5705  0.6796  0.2954
  193SOL    HW1  578   0.364   0.283   0.533 -4.2266  1.0522  3.8828
  193SOL    HW2  579   0.527   0.321   0.516  0.4951  0.8530 -0.6305
  194SOL     OW  580   1.122   2.251   1.366 -0.8011  0.2005 -0.4983
  194SOL    HW1  581   1.143   2.153   1.348 -0.5368 -2.2066  0.5756
  194SOL    HW2  582   1.183   2.283   1.447 -1.2461  3.0147  1.9483
  195SOL     OW  583   2.382   1.078   0.396 -0.1689  0.4609  0.1555
  195SOL    HW1  584   2.387   0.977   0.387 -1.1757 -2.9538  1.9995
  195SOL    HW2  585   2.428   1.124   0.315 -0.6460 -0.4756  0.9299
  196SOL     OW  586   0.602   2.411   1.488  0.1684 -0.1877 -0.1944
  196SOL    HW1  587   0.560   2.431   1.399  0.5341  3.8245  3.3899
  196SOL    HW2  588   0.530   2.381   1.556 -1.3761 -0.7316  1.1291
  197SOL     OW  589   0.258   0.820   2.349  0.1806 -0.1556  0.8704
  197SOL    HW1  590   0.236   0.760   2.425 -0.4155  1.7346 -2.9455
  197SOL    HW2  591   0.215   0.791   2.264  0.0388 -0.1349 -0.7046
  198SOL     OW  592   1.725   0.795   0.410  0.1282 -0.4666 -0.0929
  198SOL    HW1  593   1.642   0.769   0.467 -1.7241 -1.2772  2.7324
  198SOL    HW2  594   1.719   0.889   0.371  1.0965 -0.2554 -0.8182
  199SOL     OW  595   2.744   0.448   1.677  0.5714  0.1724  0.4801
  199SOL    HW1  596   2.669   0.426   1.746 -1.6325  1.0289 -0.1250
  199SOL    HW2  597   2.714   0.508   1.602  0.5063 -1.3801  0.9949
  200SOL     OW  598   2.299   0.145   2.943 -0.8860 -0.3833 -0.8650
  200SOL    HW1  599   2.330   0.153   2.845  1.6227  3.0895  0.9998
  200SOL    HW2  600   2.260   0.234   2.982  0.1361  2.3360  3.0775
  201SOL     OW  601   2.518   0.089   1.318 -0.4161  0.1758 -0.2512
  201SOL    HW1  602   2.565   0.098   1.408  0.0154  0.3649 -3.2864
  201SOL    HW2  603   2.442   0.026   1.323 -0.4291  1.0715  0.8292
  202SOL     OW  604   2.980   2.677   0.378  0.2856 -0.2722 -0.9726
  202SOL    HW1  605   3.072   2.703   0.407  1.0050  2.1023  0.8741
  202SOL    HW2  606   2.917   2.754   0.367  0.1532  1.3641 -0.6516
  203SOL     OW  607   1.465   1.866   3.027 -0.1679  0.4074 -0.0750
  203SOL    HW1  608   1.474   1.841   0.044 -2.1085  1.1933  0.1377
  203SOL    HW2  609   1.517   1.805   2.965 -1.1473  1.7886  1.4463
  204SOL     OW  610   0.435   2.124   2.323 -0.1263  0.1435  0.3832
  204SOL    HW1  611   0.492   2.109   2.241 -0.0328  0.9253  3.8661
  204SOL    HW2  612   0.389   2.036   2.344  2.6034 -1.4283 -1.9978
  205SOL     OW  613   1.123   0.677   1.048  0.4971 -0.0379 -0.6376
  205SOL    HW1  614   1.066   0.599   1.083 -1.1248 -0.2291  1.3673
  205SOL    HW2  615   1.223   0.668   1.060  0.5624  0.3611  0.4710
  206SOL     OW  616   0.338   0.840   2.795  0.3707  0.4912  0.2690
  206SOL    HW1  617   0.342   0.941   2.791 -0.8399 -3.1805  0.5253
  206SOL    HW2  618   0.271   0.803   2.732 -1.5036  2.0281  1.5090
  207SOL     OW  619   1.484   2.347   1.702 -0.1625  0.1028 -0.1895
  207SOL    HW1  620   1.569   2.395   1.734  1.0631  1.9637  1.1240
  207SOL    HW2  621   1.420   2.317   1.777 -1.2759  1.1085  1.3473
  208SOL     OW  622   0.364   3.077   0.940 -0.6623  0.0169  0.0976
  208SOL    HW1  623   0.347   3.017   0.857 -0.8360 -2.1411 -3.6161
  208SOL    HW2  624   0.399   0.089   0.913  1.4893  1.7043  0.3823
  209SOL     OW  625   1.636   0.886   0.730  0.2181  0.1944 -0.2401
  209SOL    HW1  626   1.669   0.873   0.826  0.5798  1.3473  1.0876
  209SOL    HW2  627   1.714   0.875   0.664  1.2654  2.5321 -1.9124
  210SOL     OW  628   2.433   0.551   0.803  0.0842  0.3724  0.2299
  210SOL    HW1  629   2.346   0.578   0.754  2.7516 -1.3782 -3.8481
  210SOL    HW2  630   2.496   0.487   0.749  0.4782 -1.7838  0.8831
  211SOL     OW  631   1.258   0.203   0.235  0.6936  0.3476 -0.1374
  211SOL    HW1  632   1.164   0.153   0.249 -0.0935 -1.9619  2.3177
  211SOL    HW2  633   1.329   0.133   0.204  3.0188 -3.8172 -2.1407
  212SOL     OW  634   1.741   2.144   0.634 -0.1919  0.2802  0.2354
  212SOL    HW1  635   1.797   2.223   0.667  1.1196 -0.7314  0.4122
  212SOL    HW2  636   1.703   2.160   0.543 -0.8631  0.8383  1.5412
  213SOL     OW  637   2.266   0.379   2.454 -0.1597 -0.4112  0.0776
  213SOL    HW1  638   2.324   0.422   2.528 -0.2588 -0.2005  0.4395
  213SOL    HW2  639   2.170   0.380   2.492 -3.1022  3.0148  0.9452
  214SOL     OW  640   1.035   1.844   2.022  0.7950 -0.1350 -0.1354
  214SOL    HW1  641   0.964   1.772   2.001  2.5151  3.2568 -1.4452
  214SOL    HW2  642   1.099   1.828   2.095  1.8276  0.7340  1.4259
  215SOL     OW  643   0.186   1.300   1.014  0.4858 -0.1704 -0.7327
  215SOL    HW1  644   0.085   1.309   1.015  1.7514  0.5957  3.1310
  215SOL    HW2  645   0.211   1.239   1.091  0.0124  0.3520  0.5689
  216SOL     OW  646   0.259   2.224   2.754 -0.1686 -0.4982  0.4939
  216SOL    HW1  647   0.180   2.235   2.815  2.1183  0.3660  0.8877
  216SOL    HW2  648   0.313   2.310   2.759  0.6062  0.1335 -0.0822
  217SOL     OW  649   2.547   1.170   1.378 -0.6275 -0.0570 -0.3932
  217SOL    HW1  650   2.538   1.075   1.339  1.4253  0.7656  2.2098
  217SOL    HW2  651   2.489   1.173   1.463  0.1428  0.2570 -0.4246
  218SOL     OW  652   0.696   2.300   2.010  0.0550  0.4113 -0.2323
  218SOL    HW1  653   0.698   2.377   1.944  2.4471 -0.7686  1.0670
  218SOL    HW2  654   0.792   2.283   2.046  0.6976 -1.8134  0.0176
  219SOL     OW  655   1.998   1.376   0.317 -0.0464  0.4528 -0.8731
  219SOL    HW1  656   2.069   1.409   0.250  0.5047 -0.3060 -3.7081
  219SOL    HW2  657   2.019   1.414   0.411  0.5017 -0.1594 -0.9322
  220SOL     OW  658   2.247   0.690   0.617  0.1474  0.1530 -0.2783
  220SOL    HW1  659   2.276   0.746   0.693 -0.7513  0.2240  0.0085
  220SOL    HW2  660   2.149   0.688   0.616  0.7579 -0.5223  0.6108
  221SOL     OW  661   2.678   0.602   0.055 -0.3684 -0.3429 -0.5134
  221SOL    HW1  662   2.729   0.688   0.048 -0.7340  3.5186 -0.4908
  221SOL    HW2  663   2.726   0.528   0.104 -2.3022  0.2448 -1.4700
  222SOL     OW  664   1.589   1.158   0.678 -0.0489 -0.2889  0.0295
  222SOL    HW1  665   1.598   1.059   0.691  0.7926  2.6540 -0.9974
  222SOL    HW2  666   1.500   1.199   0.708 -3.1581  2.1028 -0.6100
  223SOL     OW  667   0.923   0.238   2.937 -0.2570 -0.2153 -0.1535
  223SOL    HW1  668   0.861   0.316   2.948  0.8933 -0.0931 -0.5061
  223SOL    HW2  669   0.892   0.191   2.854 -1.1303  1.2046 -0.0006
  224SOL     OW  670   1.031   2.940   1.335  0.3616 -0.0745  0.7026
  224SOL    HW1  671   1.020   3.024   1.284 -1.1100 -0.1459  0.7749
  224SOL    HW2  672   1.074   2.959   1.428 -2.7415  3.3839  0.0804
  225SOL     OW  673   0.185   2.443   1.815  0.5277 -0.1870 -0.5352
  225SOL    HW1  674   0.133   2.351   1.822 -0.7857 -3.7078  0.6011
  225SOL    HW2  675   0.258   2.456   1.884  1.0562  1.1221 -2.4773
  226SOL     OW  676   1.379   1.343   0.411 -0.1157 -0.0223  0.1429
  226SOL    HW1  677   1.476   1.348   0.443  1.7286  2.7937 -2.2022
  226SOL    HW2  678   1.339   1.431   0.392 -0.4353 -1.2083  0.2458
  227SOL     OW  679   0.441   1.303   0.648  0.1332  0.0045  0.3420
  227SOL    HW1  680   0.507   1.288   0.571 -1.4302 -0.0067 -0.5611
  227SOL    HW2  681   0.345   1.325   0.612 -3.0851  0.3921 -2.5692
  228SOL     OW  682   0.039   1.695   0.839  0.0100 -0.6800  0.3769
  228SOL    HW1  683   3.031   1.721   0.875 -0.9324 -0.1452  0.5217
  228SOL    HW2  684   0.037   1.679   0.737 -1.2315 -0.1119 -5.0728
  229SOL     OW  685   2.726   0.341   2.908 -0.1749  0.1389 -0.2066
  229SOL    HW1  686   2.685   0.375   2.996 -1.3574  1.2652 -0.4603
  229SOL    HW2  687   2.821   0.312   2.930 -0.8166 -1.1037 -0.0976
  230SOL     OW  688   2.015   0.993   1.041  0.3114 -0.2775 -0.0800
  230SOL    HW1  689   2.099   1.050   1.040 -0.6910 -0.5775 -0.5089
  230SOL    HW2  690   1.960   1.020   1.126  0.3887  2.1443  0.3560
  231SOL     OW  691   1.570   1.367   2.930  0.1390 -0.2655  0.4373
  231SOL    HW1  692   1.647   1.421   2.906 -3.2324  2.0869  2.4561
  231SOL    HW2  693   1.573   1.343   3.026  1.7405  0.5083 -1.7595
  232SOL     OW  694   2.365   2.149   0.768 -0.5822  0.3861 -1.1172
  232SOL    HW1  695   2.460   2.131   0.737 -2.2535 -0.1132  1.2806
  232SOL    HW2  696   2.361   2.231   0.833  0.1348  1.0514  4.2521
  233SOL     OW  697   0.564   2.606   0.881 -0.1326 -0.3322  0.3585
  233SOL    HW1  698   0.483   2.625   0.933  2.3607 -1.6851 -1.8103
  233SOL    HW2  699   0.608   2.694   0.858  1.3142 -0.2632  1.2780
  234SOL     OW  700   0.650   0.611   2.557  0.9717  0.2574 -0.3355
  234SOL    HW1  701   0.716   0.687   2.538 -0.0611  0.0362 -0.3672
  234SOL    HW2  702   0.644   0.588   2.658  0.9955  0.7566 -0.0282
  235SOL     OW  703   2.956   1.007   2.079 -0.0616  0.6933 -0.0279
  235SOL    HW1  704   2.993   0.919   2.115 -1.0841  0.8453  1.1840
  235SOL    HW2  705   3.023   1.075   2.062 -2.0364 -1.5212 -0.8618
  236SOL     OW  706   1.482   2.776   1.629 -0.6621 -0.2563  0.1423
  236SOL    HW1  707   1.436   2.713   1.563  1.6547 -2.2624  0.2552
  236SOL    HW2  708   1.570   2.732   1.652 -2.4434 -0.8087  1.8129
  237SOL     OW  709   0.833   1.343   2.585  0.0992  0.0849  0.0495
  237SOL    HW1  710   0.822   1.442   2.572  2.0598  0.4289  0.3618
  237SOL    HW2  711   0.756   1.286   2.560  4.2595  1.7035 -0.1420
  238SOL     OW  712   1.035   0.338   2.368 -0.0041  0.2012  0.0945
  238SOL    HW1  713   1.085   0.424   2.359 -2.2057 -1.4106 -2.1826
  238SOL    HW2  714   0.962   0.345   2.442 -0.5884  2.0093  1.1509
  239SOL     OW  715   0.061   2.276   2.111 -0.0616 -0.5892  0.1837
  239SOL    HW1  716   0.093   2.187   2.074  0.1234 -2.1331  0.1598
  239SOL    HW2  717   0.100   2.288   2.202 -0.0136 -0.6071 -1.6485
  240SOL     OW  718   2.517   2.729   0.441 -0.2807  0.5420  0.0034
  240SOL    HW1  719   2.465   2.707   0.528  1.1497  0.4457 -3.1808
  240SOL    HW2  720   2.461   2.793   0.384 -2.2201 -0.1849 -0.9147
  241SOL     OW  721   2.778   1.229   0.326 -0.3594  0.1386 -0.3670
  241SOL    HW1  722   2.773   1.193   0.421 -0.0578 -2.0138 -1.2100
  241SOL    HW2  723   2.779   1.156   0.254  1.3958 -1.8900 -0.4779
  242SOL     OW  724   1.688   2.454   1.842  0.9095  0.3464 -0.0165
  242SOL    HW1  725   1.748   2.367   1.835  1.6488 -1.2427 -0.6357
  242SOL    HW2  726   1.692   2.504   1.931  0.5249  1.3430 -0.8489
  243SOL     OW  727   0.406   2.416   1.972 -0.3317 -0.3139  0.4015
  243SOL    HW1  728   0.491   2.371   1.938  1.5525 -0.5719  0.0856
  243SOL    HW2  729   0.406   2.424   2.069 -2.3125 -1.3299 -1.7862
  244SOL     OW  730   2.604   0.620   2.295  0.0445 -0.6701  0.0444
  244SOL    HW1  731   2.639   0.543   2.352  3.4755  2.3644  2.8698
  244SOL    HW2  732   2.520   0.596   2.238  3.6154  0.5224 -0.5224
  245SOL     OW  733   1.298   0.181   1.246  0.4605  0.0741  0.2878
  245SOL    HW1  734   1.203   0.142   1.268 -2.1708 -1.2898  0.6845
  245SOL    HW2  735   1.301   0.225   1.158  0.0035 -2.6239 -0.2618
  246SOL     OW  736   1.497   2.722   0.322 -0.0375 -0.4654 -0.7991
  246SOL    HW1  737   1.499   2.630   0.286 -2.0716  1.7933  0.2184
  246SOL    HW2  738   1.407   2.749   0.359  0.5288  2.7597 -0.5862
  247SOL     OW  739   1.361   0.647   2.098  0.5081  0.3259 -0.2096
  247SOL    HW1  740   1.437   0.581   2.121 -2.2289 -0.6325  0.1493
  247SOL    HW2  741   1.284   0.589   2.074  0.3700 -0.5589 -1.2532
  248SOL     OW  742   0.010   2.213   1.769  0.0639 -0.4439 -0.2103
  248SOL    HW1  743   0.044   2.118   1.736 -1.0583 -1.3013  0.4183
  248SOL    HW2  744   3.015   2.203   1.831  1.8899 -0.7433  0.5185
  249SOL     OW  745   2.848   0.402   0.146 -0.2221  0.1511 -0.0372
  249SOL    HW1  746   2.897   0.413   0.237 -1.6381  2.2073 -0.3711
  249SOL    HW2  747   2.821   0.306   0.126  0.2089  1.4383  2.0532
  250SOL     OW  748   2.700   0.148   2.476  0.8626 -0.3777  0.1927
  250SOL    HW1  749   2.801   0.145   2.452  1.6386 -1.3860  0.1007
  250SOL    HW2  750   2.690   0.177   2.575 -1.1971 -0.2744 -1.0896
  251SOL     OW  751   1.455   0.546   0.280 -0.0490  0.5505 -0.4672
  251SOL    HW1  752   1.490   0.569   0.375 -0.6797  0.4851  1.1755
  251SOL    HW2  753   1.494   0.610   0.209  0.1638 -0.1693 -1.1478
  252SOL     OW  754   1.390   2.266   1.948 -0.6778  0.0831  0.2151
  252SOL    HW1  755   1.286   2.257   1.960 -0.6798  3.0190 -0.4218
  252SOL    HW2  756   1.430   2.334   2.016  1.9104 -0.0486  0.4663
  253SOL     OW  757   2.376   2.591   1.013  0.2745 -0.7320 -0.0971
  253SOL    HW1  758   2.324   2.668   0.968  0.6862 -0.1642  0.9544
  253SOL    HW2  759   2.475   2.616   1.001 -3.1697  0.3984  2.1184
  254SOL     OW  760   2.350   1.048   0.658  0.8928  0.3358 -0.7493
  254SOL    HW1  761   2.383   1.068   0.564 -0.3556 -0.3589  1.1032
  254SOL    HW2  762   2.325   1.133   0.712  1.6023 -0.5652  1.0776
  255SOL     OW  763   0.809   2.781   1.282 -0.1410 -0.2536  0.3358
  255SOL    HW1  764   0.885   2.840   1.311 -1.5546 -1.7125  0.7013
  255SOL    HW2  765   0.835   2.684   1.279 -0.5789  0.8906 -0.5801
  256SOL     OW  766   1.823   2.174   1.516  0.4622 -0.7314  0.2374
  256SOL    HW1  767   1.860   2.086   1.492 -1.8067  1.7325  2.0621
  256SOL    HW2  768   1.726   2.169   1.497  1.0780 -0.3870 -1.0113
  257SOL     OW  769   0.671   2.539   2.422 -0.3460  0.4024 -0.8292
  257SOL    HW1  770   0.640   2.572   2.516 -1.6976 -1.0537  0.1802
  257SOL    HW2  771   0.720   2.611   2.366 -3.7534 -1.6005  2.0045
  258SOL     OW  772   0.835   2.704   0.668 -0.4739  0.1115  0.4075
  258SOL    HW1  773   0.924   2.722   0.714 -0.6577  0.9027 -0.7785
  258SOL    HW2  774   0.773   2.784   0.683  2.3288  0.0615 -1.3343
  259SOL     OW  775   1.424   0.468   2.830  0.5798 -0.7952 -0.1225
  259SOL    HW1  776   1.457   0.401   2.898 -2.1738 -0.4716  0.6467
  259SOL    HW2  777   1.379   0.548   2.872 -0.1211 -0.7024 -2.7051
  260SOL     OW  778   2.799   0.819   0.970 -0.1962 -0.0146  0.2230
  260SOL    HW1  779   2.830   0.914   0.995  0.3179  1.5611 -1.0974
  260SOL    HW2  780   2.844   0.748   1.024 -1.0200  0.7385 -1.5502
  261SOL     OW  781   0.822   0.400   2.520 -0.7291  0.5273  0.0519
  261SOL    HW1  782   0.781   0.490   2.531  1.3945 -2.9700  0.0878
  261SOL    HW2  783   0.751   0.328   2.530 -0.9131  0.5756 -1.9112
  262SOL     OW  784   0.939   2.305   2.134  0.6753 -0.7839  0.3290
  262SOL    HW1  785   0.925   2.404   2.152 -1.1938 -1.0074  0.8523
  262SOL    HW2  786   1.017   2.293   2.066  1.2717  0.5883 -1.4567
  263SOL     OW  787   0.563   2.266   3.023  0.1597  0.2019 -0.1351
  263SOL    HW1  788   0.656   2.254   3.063 -1.3526  0.1116  0.5187
  263SOL    HW2  789   0.497   2.187   3.033 -0.8463  0.2588  1.8206
  264SOL     OW  790   1.006   1.455   1.064 -0.0259 -0.3641 -0.1558
  264SOL    HW1  791   1.000   1.470   0.961  0.2738  2.8453 -2.1017
  264SOL    HW2  792   1.089   1.406   1.095  0.6106  1.4471 -0.8004
  265SOL     OW  793   1.080   2.219   0.671 -0.2439  0.3121  0.4982
  265SOL    HW1  794   1.156   2.177   0.618  0.8905  1.1521 -1.5620
  265SOL    HW2  795   1.107   2.307   0.703 -1.6002 -3.1360 -2.3667
  266SOL     OW  796   2.111   0.487   0.937  0.0458 -0.2223 -0.3588
  266SOL    HW1  797   2.169   0.448   1.006 -1.3580  0.6547 -1.9126
  266SOL    HW2  798   2.086   0.586   0.961  0.2526  3.8722 -1.1977
  267SOL     OW  799   3.004   1.386   2.821 -0.0083  0.0985 -0.3925
  267SOL    HW1  800   0.012   1.386   2.871  2.3716 -3.1802  1.0523
  267SOL    HW2  801   2.986   1.294   2.783  1.7205 -1.6767 -1.7826
  268SOL     OW  802   1.468   0.040   0.182 -0.1152 -0.2355  0.1433
  268SOL    HW1  803   1.526   3.059   0.231 -1.6488  2.2015 -1.8245
  268SOL    HW2  804   1.533   0.112   0.140  1.8714  0.6989 -0.6775
  269SOL     OW  805   3.038   0.849   2.454  0.2676  0.3154  0.1560
  269SOL    HW1  806   3.039   0.808   2.356  1.3466 -2.9716 -2.5176
  269SOL    HW2  807   0.021   0.801   2.510 -1.6566 -0.8391  0.5796
  270SOL     OW  808   3.058   1.298   0.039 -0.3004 -0.2250 -0.0939
  270SOL    HW1  809   3.043   1.324   0.140  3.0118  0.0980  2.9030
  270SOL    HW2  810   0.011   1.203   0.042  2.0815 -0.1926  0.0514
  271SOL     OW  811   2.595   1.432   2.581 -0.3902  0.0792  0.1698
  271SOL    HW1  812   2.525   1.492   2.551  2.4167 -1.9569 -1.5773
  271SOL    HW2  813   2.594   1.349   2.517  1.0633 -1.6608 -1.6895
  272SOL     OW  814   2.452   2.617   1.957 -0.7041 -0.1529 -0.5947
  272SOL    HW1  815   2.386   2.697   1.991 -0.5538  4.2710  0.2574
  272SOL    HW2  816   2.550   2.628   1.993  0.1528  0.9583 -2.1732
  273SOL     OW  817   0.325   2.538   0.082 -0.2984  0.3355 -0.4401
  273SOL    HW1  818   0.359   2.490   0.164 -0.5711 -2.9535 -4.0602
  273SOL    HW2  819   0.236   2.496   0.052  0.1894  0.3890  2.2343
  274SOL     OW  820   0.802   2.199   0.811 -0.3143 -0.3259 -0.2521
  274SOL    HW1  821   0.889   2.151   0.817 -3.0600 -1.5590 -0.3103
  274SOL    HW2  822   0.779   2.222   0.905 -0.1830 -2.1817  0.5553
  275SOL     OW  823   2.139   1.516   0.142 -0.6689  0.0361 -0.1191
  275SOL    HW1  824   2.091   1.602   0.119 -1.2378  3.2089 -0.4429
  275SOL    HW2  825   2.147   1.452   0.061 -0.1726 -0.1257  0.4295
  276SOL     OW  826   2.552   1.660   1.224  0.5480 -0.1871  0.3379
  276SOL    HW1  827   2.559   1.667   1.326 -0.3766  1.7272  1.7399
  276SOL    HW2  828   2.555   1.563   1.191  0.1633 -1.1712  0.4897
  277SOL     OW  829   2.418   2.890   0.812  0.4854 -0.1184 -0.2997
  277SOL    HW1  830   2.338   2.903   0.873  2.2189  2.1816 -2.9843
  277SOL    HW2  831   2.408   2.821   0.739  2.0591 -1.2172  1.5260
  278SOL     OW  832   1.657   0.358   2.526 -0.3605  0.4218 -0.4046
  278SOL    HW1  833   1.669   0.418   2.605 -0.5299 -0.7066 -3.0760
  278SOL    HW2  834   1.611   0.272   2.554  0.3572 -0.2717  0.9183
  279SOL     OW  835   1.364   2.650   1.422  0.0382 -0.2099 -0.0018
  279SOL    HW1  836   1.419   2.681   1.347  0.3167 -1.2904  3.0222
  279SOL    HW2  837   1.268   2.674   1.408 -0.3561  0.2960  0.6533
  280SOL     OW  838   1.127   0.893   0.447 -0.4591 -0.0967  0.5092
  280SOL    HW1  839   1.068   0.850   0.517 -2.2181 -0.2001 -1.4899
  280SOL    HW2  840   1.139   0.995   0.467  0.9143  2.2365 -0.3218
  281SOL     OW  841   2.335   1.663   2.764 -0.6494  0.4502  0.3820
  281SOL    HW1  842   2.380   1.698   2.679  0.8958 -0.6532 -0.8656
  281SOL    HW2  843   2.270   1.739   2.801 -1.7335  3.3722  1.2522
  282SOL     OW  844   2.796   1.273   2.975 -0.0922 -0.6965 -0.1383
  282SOL    HW1  845   2.809   1.188   3.030 -1.5467  0.5154  0.1597
  282SOL    HW2  846   2.881   1.327   2.961  0.2350  2.4087  0.3828
  283SOL     OW  847   1.497   2.778   2.704 -0.0905  0.3756  0.0055
  283SOL    HW1  848   1.490   2.693   2.651  2.3054 -0.7642 -0.0357
  283SOL    HW2  849   1.556   2.766   2.790  0.0634 -0.1063  0.6824
  284SOL     OW  850   0.700   0.435   2.916  0.1695 -0.5389  0.7511
  284SOL    HW1  851   0.669   0.521   2.877 -0.0637  1.6878  1.9945
  284SOL    HW2  852   0.734   0.449   3.008 -1.1277  1.0932 -0.1590
  285SOL     OW  853   1.936   1.904   2.509  0.7185  0.0812 -0.5559
  285SOL    HW1  854   1.982   1.942   2.426 -3.4694 -0.4731 -1.8572
  285SOL    HW2  855   1.944   1.969   2.592  0.5686  1.2176 -1.0440
  286SOL     OW  856   1.198   1.863   0.798  0.0515 -0.2716  0.2251
  286SOL    HW1  857   1.129   1.812   0.736 -1.5097 -0.2100 -1.8069
  286SOL    HW2  858   1.182   1.841   0.895  1.3934  1.2115 -3.9439
  287SOL     OW  859   1.752   0.370   1.363 -0.2564  0.0003  0.1376
  287SOL    HW1  860   1.712   0.292   1.414 -2.0214  0.6599 -1.9986
  287SOL    HW2  861   1.846   0.354   1.321 -3.1705 -2.2641 -0.6739
  288SOL     OW  862   0.813   2.765   2.309  0.2425 -0.2608  0.1974
  288SOL    HW1  863   0.880   2.812   2.372 -0.0031 -0.5664  1.9180
  288SOL    HW2  864   0.821   2.803   2.215 -0.0216  1.0981 -0.8703
  289SOL     OW  865   0.149   1.103   0.784  0.4627  0.6334 -0.1387
  289SOL    HW1  866   0.189   1.191   0.811 -0.2864 -2.8996 -1.4449
  289SOL    HW2  867   0.087   1.061   0.849  0.4194 -0.3450  1.8171
  290SOL     OW  868   1.151   1.983   1.291 -0.1614  0.3346  0.1464
  290SOL    HW1  869   1.201   1.936   1.217  0.6647 -1.6526 -0.5183
  290SOL    HW2  870   1.085   1.925   1.340 -0.1382 -2.8261 -0.0627
  291SOL     OW  871   1.958   2.765   0.631  0.0444 -0.4841  0.1235
  291SOL    HW1  872   1.917   2.830   0.701 -1.2368 -0.3847  2.8163
  291SOL    HW2  873   1.890   2.698   0.598 -1.1308  0.3438 -0.7387
  292SOL     OW  874   0.468   0.390   1.643  0.0723  0.0378 -0.1197
  292SOL    HW1  875   0.415   0.472   1.625  2.5180 -3.0935  0.3137
  292SOL    HW2  876   0.440   0.347   1.735 -4.1320 -2.7786  1.9830
  293SOL     OW  877   2.322   1.702   0.855 -0.2606  0.2130  0.3709
  293SOL    HW1  878   2.419   1.686   0.833 -2.1207 -0.7907 -1.5539
  293SOL    HW2  879   2.255   1.655   0.792  2.3601  0.8894  2.0466
  294SOL     OW  880   0.929   0.293   2.132 -0.1134 -0.1035  0.0688
  294SOL    HW1  881   0.945   0.332   2.226 -0.7161  0.0449  1.3052
  294SOL    HW2  882   0.895   0.196   2.139  3.7515  2.8052  0.5205
  295SOL     OW  883   0.925   1.201   0.634  0.3743 -0.3646  0.3803
  295SOL    HW1  884   0.846   1.209   0.702 -2.3709 -0.6112  2.3654
  295SOL    HW2  885   0.905   1.125   0.570 -1.1520  0.1267  1.4576
  296SOL     OW  886   2.271   1.960   0.929  0.3177 -0.0382  0.1633
  296SOL    HW1  887   2.276   1.858   0.911  0.2059 -1.1853  1.2316
  296SOL    HW2  888   2.318   2.011   0.854 -0.2054  0.2845 -0.3522
  297SOL     OW  889   1.967   0.188   2.821 -0.3737  0.7695 -0.0407
  297SOL    HW1  890   1.989   0.239   2.739 -1.6897 -0.1001  3.1313
  297SOL    HW2  891   2.051   0.193   2.878 -1.8784 -1.2281  0.9903
  298SOL     OW  892   1.227   0.023   2.616 -0.2378  0.2233  0.2308
  298SOL    HW1  893   1.289   3.028   2.599  0.9845 -0.3970 -1.7009
  298SOL    HW2  894   1.238   0.059   2.709 -0.6065 -0.6058 -2.1271
  299SOL     OW  895   1.186   3.041   2.219 -0.7246 -0.0493 -0.0992
  299SOL    HW1  896   1.216   0.047   2.249 -0.0562  0.0925 -0.5235
  299SOL    HW2  897   1.193   2.975   2.296 -0.1680 -2.3292 -1.7346
  300SOL     OW  898   2.580   0.122   1.607  0.1981 -0.7397 -0.4052
  300SOL    HW1  899   2.667   0.168   1.581  0.2720 -1.8587  0.9743
  300SOL    HW2  900   2.522   0.197   1.644  0.1872  0.8909  0.9232
  301SOL     OW  901   2.397   0.345   1.690 -0.4366 -0.2856 -0.4154
  301SOL    HW1  902   2.443   0.380   1.776  1.0778  0.3274 -0.8005
  301SOL    HW2  903   2.424   0.408   1.621  0.2228 -2.0771  0.3523
  302SOL     OW  904   0.887   2.748   0.207  0.2020 -0.0444 -0.2837
  302SOL    HW1  905   0.924   2.760   0.109  1.4358 -0.5433 -0.3781
  302SOL    HW2  906   0.803   2.811   0.223 -1.1839  2.0753  1.0410
  303SOL     OW  907   1.632   1.858   1.448  0.7292  0.0518  0.4083
  303SOL    HW1  908   1.560   1.921   1.420  2.3094  0.2409 -0.7080
  303SOL    HW2  909   1.695   1.828   1.369 -0.7272 -1.0051  0.6868
  304SOL     OW  910   0.551   0.417   0.985 -0.5455 -0.0528  0.1193
  304SOL    HW1  911   0.590   0.402   1.076 -0.9262  0.5687 -2.2423
  304SOL    HW2  912   0.470   0.483   0.999  0.1376  2.0249 -0.7183
  305SOL     OW  913   0.974   0.651   0.831 -0.0477 -0.4354  0.3381
  305SOL    HW1  914   1.004   0.688   0.922  4.1454  0.8669  3.4941
  305SOL    HW2  915   1.057   0.624   0.774  2.2952  0.3872  0.2920
  306SOL     OW  916   0.577   1.243   2.834  0.3437  0.2342  0.4404
  306SOL    HW1  917   0.650   1.172   2.808  2.2500 -2.1835 -1.4132
  306SOL    HW2  918   0.587   1.274   2.931 -0.3337  2.2817  1.7906
  307SOL     OW  919   1.089   0.173   1.907 -0.0616  0.2248 -0.5027
  307SOL    HW1  920   1.188   0.196   1.916 -0.5621  0.2158 -0.7230
  307SOL    HW2  921   1.030   0.214   1.983 -0.9985 -0.0480 -1.8479
  308SOL     OW  922   0.847   0.430   0.913 -0.0281 -0.2597 -0.1589
  308SOL    HW1  923   0.750   0.457   0.925 -1.2156 -1.4928 -1.1117
  308SOL    HW2  924   0.908   0.499   0.869  0.9428 -0.0880 -1.7376
  309SOL     OW  925   2.393   0.778   0.383 -0.4808  0.1309  0.0194
  309SOL    HW1  926   2.332   0.733   0.454  0.2631 -0.6720  0.0536
  309SOL    HW2  927   2.488   0.799   0.418  1.1847  3.1348  3.4378
  310SOL     OW  928   1.130   1.389   2.948  0.2249  0.1134  0.5680
  310SOL    HW1  929   1.202   1.453   2.908 -1.1423 -0.4585  0.4541
  310SOL    HW2  930   1.166   1.337   3.029  2.2384 -1.0909  1.1692
  311SOL     OW  931   2.004   2.538   2.150 -0.3103  0.6319  0.5041
  311SOL    HW1  932   2.016   2.583   2.058  2.2732  3.0550 -1.5714
  311SOL    HW2  933   1.987   2.604   2.227 -0.1663 -1.1067  0.3574
  312SOL     OW  934   2.164   2.541   2.854  0.0003  0.4038 -0.2811
  312SOL    HW1  935   2.146   2.464   2.930 -1.3684 -1.6481  3.3348
  312SOL    HW2  936   2.075   2.578   2.825  2.0069 -1.8471 -1.4602
  313SOL     OW  937   0.483   0.283   0.053 -0.0448 -0.1732 -0.0445
  313SOL    HW1  938   0.507   0.386   0.054 -0.1749  3.8712  2.3209
  313SOL    HW2  939   0.423   0.266   3.058 -1.5880 -0.5284  0.9642
  314SOL     OW  940   2.373   1.501   2.964  1.3536 -0.5366 -0.5974
  314SOL    HW1  941   2.463   1.461   2.948 -2.1713 -1.5585  2.8193
  314SOL    HW2  942   2.341   1.563   2.885 -3.6521  1.1679  1.0545
  315SOL     OW  943   1.792   0.423   2.294 -0.1067  0.1441  0.1812
  315SOL    HW1  944   1.750   0.401   2.385  3.4833  0.8626 -0.4400
  315SOL    HW2  945   1.893   0.447   2.307  0.2952  3.0710 -1.0684
  316SOL     OW  946   2.898   1.107   0.708  0.6163 -0.1406 -0.0115
  316SOL    HW1  947   2.931   1.022   0.752  0.2343  1.8945  1.9312
  316SOL    HW2  948   2.798   1.107   0.714  0.6875  1.0588  1.8950
  317SOL     OW  949   0.689   2.947   0.235 -0.0528 -0.0514 -0.3064
  317SOL    HW1  950   0.656   2.961   0.329  0.4286  2.0969 -0.1298
  317SOL    HW2  951   0.689   3.035   0.182  0.9068  0.7994  0.2602
  318SOL     OW  952   1.772   2.444   1.445 -0.1709  0.4953  0.1864
  318SOL    HW1  953   1.862   2.485   1.426 -1.1398 -0.1309  3.8890
  318SOL    HW2  954   1.777   2.343   1.448 -1.3540  0.9691  1.1007
  319SOL     OW  955   1.401   1.807   0.205  0.0160 -0.3984  0.2376
  319SOL    HW1  956   1.432   1.784   0.299  0.1744  0.4080 -0.0341
  319SOL    HW2  957   1.298   1.800   0.196  0.6593  0.5032 -0.3993
  320SOL     OW  958   0.445   1.661   0.892 -0.1330  0.2166 -0.3277
  320SOL    HW1  959   0.410   1.713   0.811 -0.8583  3.0563  0.3169
  320SOL    HW2  960   0.384   1.583   0.912 -1.0826  1.2129  0.6261
  321SOL     OW  961   2.075   2.688   1.932  0.0536  0.6204 -0.3221
  321SOL    HW1  962   2.152   2.738   1.977 -1.4997 -0.8185 -3.8127
  321SOL    HW2  963   2.005   2.756   1.906  1.3942 -2.5094 -1.5836
  322SOL     OW  964   2.034   2.052   2.281  0.6456  1.2523  0.2604
  322SOL    HW1  965   1.986   2.142   2.267 -0.1985 -0.5679  0.8124
  322SOL    HW2  966   2.053   1.998   2.194  1.1042  1.6583  2.6474
  323SOL     OW  967   2.471   0.055   0.724 -0.2365  0.1305  0.1127
  323SOL    HW1  968   2.459   3.043   0.755  0.4284 -0.6174 -1.2289
  323SOL    HW2  969   2.420   0.068   0.634  1.2732  0.5760  1.5864
  324SOL     OW  970   2.639   2.389   2.341 -0.1241  0.1277 -0.1961
  324SOL    HW1  971   2.714   2.405   2.275  0.3139 -0.2811  1.0823
  324SOL    HW2  972   2.674   2.375   2.435  0.9659  1.9410  0.2025
  325SOL     OW  973   1.182   0.626   2.645  0.1475 -0.9591 -0.1132
  325SOL    HW1  974   1.249   0.681   2.702 -3.4743 -0.3667  0.9636
  325SOL    HW2  975   1.158   0.535   2.689 -2.2902 -0.6103 -2.4358
  326SOL     OW  976   2.571   2.338   0.932 -0.4440 -0.0080 -0.7375
  326SOL    HW1  977   2.490   2.307   0.987 -4.2130 -0.5186 -0.0001
  326SOL    HW2  978   2.578   2.436   0.930  2.8449 -1.9350 -1.5323
  327SOL     OW  979   2.585   2.850   0.078 -0.8288  0.4368 -0.3577
  327SOL    HW1  980   2.623   2.898   0.161 -0.7317  0.2443 -0.3731
  327SOL    HW2  981   2.496   2.808   0.098  3.0518  0.4313  0.6795
  328SOL     OW  982   0.590   0.734   1.106 -0.2212  0.5198  0.6342
  328SOL    HW1  983   0.608   0.651   1.170 -0.2141 -1.4687 -1.3768
  328SOL    HW2  984   0.670   0.773   1.064  1.1138 -0.7498  1.1493
  329SOL     OW  985   1.975   0.310   1.249 -0.5788 -0.4770 -0.5662
  329SOL    HW1  986   2.035   0.355   1.321  2.1215 -0.5862  0.1497
  329SOL    HW2  987   2.021   0.260   1.174 -2.2030 -2.8489 -1.7221
  330SOL     OW  988   0.669   0.438   0.561  0.4334  0.0456  0.2792
  330SOL    HW1  989   0.701   0.528   0.522  2.4039  1.5631  0.2798
  330SOL    HW2  990   0.750   0.374   0.563 -0.7304 -0.5763  1.1292
  331SOL     OW  991   0.771   2.055   1.690 -0.2918  0.0864  0.0794
  331SOL    HW1  992   0.686   2.079   1.745 -0.2501  0.7589 -2.5150
  331SOL    HW2  993   0.793   2.121   1.615  2.3394 -3.1274  1.1655
  332SOL     OW  994   2.517   2.497   1.699 -0.0546  0.7017 -0.1879
  332SOL    HW1  995   2.619   2.484   1.703  2.1736  0.5560 -0.4592
  332SOL    HW2  996   2.492   2.539   1.785 -0.9712 -2.0559  0.3117
  333SOL     OW  997   0.089   2.988   0.891 -0.3503 -0.2395 -0.0315
  333SOL    HW1  998   0.161   3.049   0.933 -1.3144 -1.6181  1.3892
  333SOL    HW2  999   0.014   2.966   0.957 -2.5799 -2.4869  0.2921
  334SOL     OW 1000   2.799   1.466   0.599  0.0776  0.0510 -0.0359
  334SOL    HW1 1001   2.719   1.401   0.587 -1.7366 -1.5830  0.2535
  334SOL    HW2 1002   2.882   1.412   0.624  2.2986  1.5588 -1.3990
  335SOL     OW 1003   0.588   2.596   2.672 -0.0997 -0.7930 -0.4150
  335SOL    HW1 1004   0.615   2.695   2.697  1.1146 -2.2299  2.7324
  335SOL    HW2 1005   0.500   2.567   2.715  2.1629 -2.3787 -0.7105
  336SOL     OW 1006   2.981   2.939   2.145  0.2198  0.5798  0.2527
  336SOL    HW1 1007   2.903   2.896   2.190  0.9663 -2.3852 -1.6648
  336SOL    HW2 1008   3.064   2.932   2.202 -0.8673  0.0507 -0.0199
  337SOL     OW 1009   1.215   1.963   1.702  0.2144  0.0444  1.1027
  337SOL    HW1 1010   1.137   2.009   1.742 -0.2129 -3.4995 -0.7177
  337SOL    HW2 1011   1.300   1.966   1.759 -0.1616 -0.8811 -1.3156
  338SOL     OW 1012   0.978   0.149   2.648 -0.4659 -0.0133 -0.0222
  338SOL    HW1 1013   1.007   0.212   2.572  1.1682 -0.6765 -0.4142
  338SOL    HW2 1014   1.062   0.094   2.660 -0.0014  0.1455  0.1756
  339SOL     OW 1015   0.478   0.990   2.319  0.5678  0.3364  0.3101
  339SOL    HW1 1016   0.460   1.069   2.255 -2.0385 -0.9945 -0.3689
  339SOL    HW2 1017   0.389   0.940   2.346 -0.2974  0.0825 -1.5373
  340SOL     OW 1018   2.045   0.148   1.016  0.0771  0.4183 -0.1052
  340SOL    HW1 1019   2.137   0.148   0.972  0.2633  0.8936 -0.7196
  340SOL    HW2 1020   2.039   0.062   1.069 -0.8953 -1.3176 -1.9066
  341SOL     OW 1021   2.268   1.231   0.831 -0.5072 -0.2697  0.2268
  341SOL    HW1 1022   2.181   1.279   0.815  0.3577 -3.1431 -0.6069
  341SOL    HW2 1023   2.267   1.204   0.929  1.3257 -0.1396 -1.9902
  342SOL     OW 1024   1.895   2.622   2.814  0.2585  0.1358  0.9499
  342SOL    HW1 1025   1.841   2.596   2.731  0.8652 -0.6927 -0.4298
  342SOL    HW2 1026   1.890   2.721   2.836 -2.2208 -0.4055  1.6655
  343SOL     OW 1027   0.123   2.422   1.313 -0.1593 -0.1134  0.3360
  343SOL    HW1 1028   0.039   2.373   1.345 -2.0924  1.9148 -3.3010
  343SOL    HW2 1029   0.200   2.355   1.295  0.8952 -0.7299  0.9792
  344SOL     OW 1030   2.458   2.713   1.433 -0.4118  0.4071 -0.0778
  344SOL    HW1 1031   2.559   2.709   1.448 -0.5363  0.3543  1.5452
  344SOL    HW2 1032   2.409   2.636   1.486 -1.1758 -2.7326 -0.0633
  345SOL     OW 1033   2.483   2.220   0.167 -0.2647  0.2069  0.0990
  345SOL    HW1 1034   2.540   2.263   0.092  1.2996  1.3238  0.6477
  345SOL    HW2 1035   2.452   2.299   0.221  0.8158 -1.5266 -2.6180
  346SOL     OW 1036   1.566   2.188   1.478  0.0097  0.2122  0.2457
  346SOL    HW1 1037   1.491   2.127   1.445  1.3526  1.8859 -1.1159
  346SOL    HW2 1038   1.539   2.221   1.570 -3.6951 -0.1705  1.9018
  347SOL     OW 1039   0.955   1.801   1.384  0.7063 -0.7847 -0.0952
  347SOL    HW1 1040   0.982   1.737   1.461  1.3094  0.2942  0.3533
  347SOL    HW2 1041   0.923   1.746   1.305  0.3033  1.4551  1.6708
  348SOL     OW 1042   0.188   2.026   2.011 -0.6032  0.1291 -0.0019
  348SOL    HW1 1043   0.287   2.020   2.031 -0.2196 -0.4828  0.4070
  348SOL    HW2 1044   0.169   2.024   1.914  1.3944 -0.3927 -0.3613
  349SOL     OW 1045   1.519   1.616   1.553 -0.2694 -0.1398 -0.0591
  349SOL    HW1 1046   1.516   1.610   1.659 -1.1177 -0.9665  1.2193
  349SOL    HW2 1047   1.582   1.694   1.523  0.7798 -0.8818 -0.4715
  350SOL     OW 1048   2.080   2.287   0.445 -0.0395  0.4937 -0.7134
  350SOL    HW1 1049   2.024   2.265   0.361 -0.7829 -0.1551 -1.3763
  350SOL    HW2 1050   2.142   2.364   0.436 -1.3136 -0.0682  2.5625
  351SOL     OW 1051   0.620   2.920   1.721 -0.2660 -0.2187 -0.0128
  351SOL    HW1 1052   0.648   3.015   1.753 -0.0313  0.0571 -0.3226
  351SOL    HW2 1053   0.655   2.900   1.628 -0.0051  0.4259 -0.9592
  352SOL     OW 1054   0.764   0.874   0.896 -0.0242 -0.0044 -0.6925
  352SOL    HW1 1055   0.779   0.958   0.952  0.8788 -1.0941  1.4991
  352SOL    HW2 1056   0.821   0.879   0.814 -2.1245 -0.3330  2.0997
  353SOL     OW 1057   1.269   1.956   2.491 -0.5603 -0.2753  0.2076
  353SOL    HW1 1058   1.250   2.031   2.428  2.0939  1.7446 -0.7793
  353SOL    HW2 1059   1.211   1.970   2.572 -2.9187  1.7145 -2.9852
  354SOL     OW 1060   1.684   2.618   2.074 -0.3179  0.3395 -0.1017
  354SOL    HW1 1061   1.742   2.674   2.135 -1.2815  2.8733  1.5333
  354SOL    HW2 1062   1.621   2.681   2.023 -0.5181 -1.0095 -0.4627
  355SOL     OW 1063   1.939   1.123   0.232 -0.0836 -0.1093 -0.0324
  355SOL    HW1 1064   1.953   1.216   0.275 -3.0992 -3.8539  1.3459
  355SOL    HW2 1065   1.906   1.131   0.138 -1.7994  2.0166  2.8759
  356SOL     OW 1066   0.074   1.641   1.230  0.5229  0.4348  0.3298
  356SOL    HW1 1067   0.124   1.624   1.145  0.1420  0.5413  1.7074
  356SOL    HW2 1068   3.070   1.686   1.203  0.9464  0.9724 -3.5117
  357SOL     OW 1069   0.260   2.955   1.158 -0.3256  0.1007  0.1015
  357SOL    HW1 1070   0.163   2.985   1.171 -0.6150  0.5608 -0.6567
  357SOL    HW2 1071   0.294   2.997   1.075 -1.4112  0.2917 -0.5180
  358SOL     OW 1072   2.254   1.887   1.382  0.8158 -0.2154  0.7064
  358SOL    HW1 1073   2.290   1.979   1.358 -0.0220  1.2572  1.1852
  358SOL    HW2 1074   2.236   1.835   1.297  1.9119  0.8570  3.0241
  359SOL     OW 1075   2.225   3.070   2.656  0.4318  0.0899  0.2399
  359SOL    HW1 1076   2.264   3.004   2.594 -1.3306 -0.9935  2.1510
  359SOL    HW2 1077   2.288   0.067   2.660 -0.0547  1.7676  2.0031
  360SOL     OW 1078   1.170   2.880   0.806 -0.0283 -0.2414  0.2553
  360SOL    HW1 1079   1.212   2.871   0.895 -1.7414 -0.5148 -0.6663
  360SOL    HW2 1080   1.196   2.816   0.733 -2.0173  0.5836 -1.0938
  361SOL     OW 1081   2.042   0.050   0.378 -0.0996  0.0231 -0.4347
  361SOL    HW1 1082   2.106   0.069   0.303  1.5620  2.5441 -1.2332
  361SOL    HW2 1083   2.057   0.119   0.452  1.2182 -1.1160  1.1412
  362SOL     OW 1084   1.375   0.916   0.965  0.1261  0.3550  0.7976
  362SOL    HW1 1085   1.381   0.820   1.002 -1.7165 -0.3885 -1.9375
  362SOL    HW2 1086   1.456   0.975   0.989  1.0590 -2.4894  0.7680
  363SOL     OW 1087   2.305   1.278   2.329 -0.0277  0.0777  0.3276
  363SOL    HW1 1088   2.251   1.350   2.377 -0.6313 -1.6850  0.6832
  363SOL    HW2 1089   2.238   1.201   2.309 -1.0396 -0.5792 -0.8486
  364SOL     OW 1090   0.337   0.787   1.297 -0.6141  0.6145  0.0582
  364SOL    HW1 1091   0.392   0.842   1.232  3.0965  0.7237  2.6884
  364SOL    HW2 1092   0.364   0.805   1.392 -3.1000  1.5955 -1.0711
  365SOL     OW 1093   0.623   0.207   2.545  0.2801  0.4982 -0.1033
  365SOL    HW1 1094   0.573   0.220   2.631  1.6107  1.0058  0.2329
  365SOL    HW2 1095   0.635   0.108   2.519  4.7863 -0.9686 -0.1200
  366SOL     OW 1096   2.291   2.144   2.347  0.1506 -0.5247 -0.7273
  366SOL    HW1 1097   2.189   2.122   2.353  1.6630  0.8484 -1.1126
  366SOL    HW2 1098   2.332   2.111   2.260  1.5463 -0.4841  0.4466
  367SOL     OW 1099   2.863   2.433   2.990 -0.3553  0.3611 -0.1928
  367SOL    HW1 1100   2.840   2.519   3.038  0.7967  1.5134  1.2082
  367SOL    HW2 1101   2.906   2.438   2.901  0.8081 -0.5872  2.3843
  368SOL     OW 1102   2.643   1.194   1.010 -0.2208  0.4488  0.0065
  368SOL    HW1 1103   2.639   1.265   1.088 -1.0908  4.2875  3.4414
  368SOL    HW2 1104   2.617   1.242   0.925 -1.4270 -1.3241  3.2506
  369SOL     OW 1105   0.977   2.921   2.520  0.0764  0.2015  0.0681
  369SOL    HW1 1106   1.065   2.898   2.468  3.3678  0.9131 -2.4343
  369SOL    HW2 1107   0.992   2.917   2.619 -0.1496 -1.4632  0.3207
  370SOL     OW 1108   2.707   0.208   0.440 -0.1605  0.1382  0.1252
  370SOL    HW1 1109   2.799   0.236   0.408  0.3315 -2.6352  1.8705
  370SOL    HW2 1110   2.635   0.240   0.375 -0.0554 -0.5497 -1.8409
  371SOL     OW 1111   1.399   2.093   1.162  0.3461 -0.1325  0.3989
  371SOL    HW1 1112   1.434   2.188   1.159 -5.8373  0.3742  2.0559
  371SOL    HW2 1113   1.332   2.080   1.086 -0.6150  0.7972 -0.7590
  372SOL     OW 1114   0.168   0.687   2.571  0.1120 -0.2247 -0.0404
  372SOL    HW1 1115   0.103   0.630   2.626 -1.2699  0.1487  0.7841
  372SOL    HW2 1116   0.264   0.648   2.590  2.1890 -1.2670 -2.0152
  373SOL     OW 1117   2.679   1.925   0.852  0.2219  0.0928 -0.3313
  373SOL    HW1 1118   2.643   2.007   0.792 -0.3969  5.3657 -0.1371
  373SOL    HW2 1119   2.665   1.951   0.948  0.2096  0.7362 -0.5219
  374SOL     OW 1120   0.466   2.952   2.522 -0.6389  0.4175 -0.5063
  374SOL    HW1 1121   0.507   2.918   2.606  0.6683 -0.2514 -2.4213
  374SOL    HW2 1122   0.539   2.963   2.451 -0.8964  1.8221 -0.1944
  375SOL     OW 1123   0.594   0.183   2.821 -0.1550 -0.0915  0.2410
  375SOL    HW1 1124   0.654   0.101   2.821  0.3881 -2.7318  1.1854
  375SOL    HW2 1125   0.630   0.268   2.862 -1.5595  1.6991  0.8350
  376SOL     OW 1126   2.815   2.219   1.855 -0.0413 -0.0861 -0.2133
  376SOL    HW1 1127   2.813   2.117   1.861 -0.0248 -1.2026  2.2174
  376SOL    HW2 1128   2.721   2.257   1.874 -2.1680  2.0004 -2.1676
  377SOL     OW 1129   1.610   2.308   2.986 -0.6163 -0.0919  0.1849
  377SOL    HW1 1130   1.609   2.408   3.004 -1.8295 -0.1958  0.8994
  377SOL    HW2 1131   1.518   2.270   2.964  1.5573  1.8970 -0.1396
  378SOL     OW 1132   0.123   0.420   2.250  0.5824 -0.5025  0.4629
  378SOL    HW1 1133   0.175   0.346   2.291 -0.7125  0.3343 -2.1148
  378SOL    HW2 1134   0.047   0.433   2.316  0.1917 -1.4783 -1.6656
  379SOL     OW 1135   0.486   0.783   0.547 -0.4254  0.3012 -0.1525
  379SOL    HW1 1136   0.501   0.716   0.624 -0.4326  0.6992 -0.5904
  379SOL    HW2 1137   0.411   0.849   0.570  0.4558  1.9876 -0.0801
  380SOL     OW 1138   0.344   1.620   1.778 -0.0043  0.3207  0.1307
  380SOL    HW1 1139   0.437   1.604   1.739 -0.9694  0.5221  0.7100
  380SOL    HW2 1140   0.350   1.659   1.872  0.4124  3.5597  2.7363
  381SOL     OW 1141   0.697   1.158   1.995 -0.1533  0.3798  0.3334
  381SOL    HW1 1142   0.600   1.171   2.022  1.2425 -2.5952 -0.8268
  381SOL    HW2 1143   0.709   1.167   1.893 -0.3655  0.9680 -1.9587
  382SOL     OW 1144   2.458   2.026   0.335 -0.4296 -0.4116  0.1741
  382SOL    HW1 1145   2.479   2.102   0.268  0.0551 -1.4861  1.2822
  382SOL    HW2 1146   2.383   2.051   0.402 -3.8150 -0.5658  0.9252
  383SOL     OW 1147   0.501   1.983   3.055 -0.1698 -0.3204 -0.3051
  383SOL    HW1 1148   0.510   1.994   0.073 -0.5038  0.5732 -0.1442
  383SOL    HW2 1149   0.590   1.954   3.010  0.6007  2.8991 -1.2702
  384SOL     OW 1150   0.876   2.154   2.854  0.2675 -0.0918  0.2932
  384SOL    HW1 1151   0.818   2.118   2.780  0.2158 -1.7018 -1.4834
  384SOL    HW2 1152   0.841   2.243   2.885  1.3254 -1.9579 -2.2776
  385SOL     OW 1153   2.256   2.071   0.522  1.1932  0.6076 -0.0266
  385SOL    HW1 1154   2.288   2.109   0.610 -2.8390 -1.4218 -0.9268
  385SOL    HW2 1155   2.172   2.119   0.500  0.5108  0.3814 -1.3525
  386SOL     OW 1156   2.252   0.854   1.570 -0.4011 -0.8180  0.5502
  386SOL    HW1 1157   2.356   0.851   1.565 -3.3903 -1.5538 -0.1307
  386SOL    HW2 1158   2.232   0.904   1.660 -0.0136  0.0700 -0.7170
  387SOL     OW 1159   2.779   1.452   2.220 -0.0692  0.1368  0.1789
  387SOL    HW1 1160   2.816   1.375   2.281  1.1383 -0.3800  0.4750
  387SOL    HW2 1161   2.819   1.537   2.246  1.1406 -2.4176 -1.0204
  388SOL     OW 1162   0.346   1.744   2.023  0.5153 -0.4945  0.2559
  388SOL    HW1 1163   0.409   1.698   2.085  2.6386  2.0243 -2.5790
  388SOL    HW2 1164   0.371   1.839   2.015 -0.3936 -2.7028 -0.9970
  389SOL     OW 1165   1.298   1.137   1.901 -0.1536  0.2058 -0.4882
  389SOL    HW1 1166   1.231   1.076   1.847 -3.3834 -0.6684 -0.6294
  389SOL    HW2 1167   1.282   1.139   2.004  2.1395 -1.3180  1.5089
  390SOL     OW 1168   1.812   0.103   0.915  0.2430 -0.1277  0.1304
  390SOL    HW1 1169   1.914   0.113   0.926  1.3336 -0.5349 -0.6067
  390SOL    HW2 1170   1.769   0.196   0.901 -0.6096 -0.8205 -2.2517
  391SOL     OW 1171   1.757   1.580   1.285 -0.1618  0.3355 -0.0218
  391SOL    HW1 1172   1.740   1.522   1.203 -0.4053 -0.7731 -2.0193
  391SOL    HW2 1173   1.708   1.543   1.372 -0.3300 -0.8130  0.0569
  392SOL     OW 1174   2.743   2.850   0.475  0.1168 -0.0074 -0.3370
  392SOL    HW1 1175   2.660   2.789   0.463  0.7392 -0.5651  0.1217
  392SOL    HW2 1176   2.734   2.934   0.413  0.0577 -1.2491 -2.9663
  393SOL     OW 1177   1.964   2.139   2.686 -0.2004  0.9840 -0.6253
  393SOL    HW1 1178   1.933   2.153   2.783  0.3095  0.2232 -1.1585
  393SOL    HW2 1179   2.051   2.191   2.664 -0.2148  1.7844  0.6979
  394SOL     OW 1180   0.198   2.559   2.631 -0.2747 -0.7402 -0.1784
  394SOL    HW1 1181   0.237   2.560   2.725  0.7193  1.6755 -1.9153
  394SOL    HW2 1182   0.126   2.486   2.624 -2.2751 -2.6679  0.2943
  395SOL     OW 1183   0.432   0.236   0.825 -0.0650  0.3224  0.6293
  395SOL    HW1 1184   0.373   0.286   0.759  2.5997  2.4240 -0.0657
  395SOL    HW2 1185   0.487   0.305   0.873  0.2130 -1.4190 -1.6086
  396SOL     OW 1186   1.942   0.761   0.612 -0.4614 -0.6018  0.4908
  396SOL    HW1 1187   1.955   0.827   0.690  1.1450  1.9340  0.9335
  396SOL    HW2 1188   1.876   0.792   0.539  0.7860  0.3323  3.2522
  397SOL     OW 1189   0.477   0.566   2.158  0.5327  0.0296 -0.3396
  397SOL    HW1 1190   0.525   0.593   2.071 -2.2079 -1.9471  1.3073
  397SOL    HW2 1191   0.391   0.616   2.169  3.0066  0.0142 -0.3244
  398SOL     OW 1192   0.906   0.035   0.563  0.1503 -0.5179  0.0803
  398SOL    HW1 1193   0.913   0.119   0.508  1.2124 -1.7051  0.3004
  398SOL    HW2 1194   0.918   0.057   0.661 -3.1229 -1.6682 -1.0130
  399SOL     OW 1195   2.258   2.884   1.616  0.1306  0.2173 -0.1991
  399SOL    HW1 1196   2.246   2.785   1.615  0.6006  0.1784 -0.7763
  399SOL    HW2 1197   2.352   2.915   1.625 -1.4834 -0.1541 -2.0852
  400SOL     OW 1198   0.991   1.952   2.419  0.6697 -0.1981 -0.1542
  400SOL    HW1 1199   0.937   2.028   2.380 -0.2828  1.3686 -0.3833
  400SOL    HW2 1200   1.032   1.979   2.509  0.7674 -0.5051  1.8070
  401SOL     OW 1201   0.678   1.046   2.470  0.2012  0.0459 -0.2671
  401SOL    HW1 1202   0.755   1.071   2.410  0.5151 -0.7263  1.1534
  401SOL    HW2 1203   0.591   1.036   2.413  0.6803  0.5030 -0.7585
  402SOL     OW 1204   0.156   2.220   0.836  0.0438 -0.5199 -0.4862
  402SOL    HW1 1205   0.091   2.281   0.884 -1.8554  2.1492  1.0542
  402SOL    HW2 1206   0.115   2.122   0.840 -1.1896 -0.8227 -1.7157
  403SOL     OW 1207   3.067   1.270   1.960 -0.2437  0.5480 -0.4399
  403SOL    HW1 1208   0.065   1.312   1.918 -0.6427 -1.6490  0.8841
  403SOL    HW2 1209   2.992   1.272   1.893  1.1738  0.8600 -1.3063
  404SOL     OW 1210   2.890   2.549   2.543  0.3301 -0.4279 -0.6699
  404SOL    HW1 1211   2.846   2.458   2.558  2.3587  1.3098  4.7822
  404SOL    HW2 1212   2.917   2.563   2.449  1.0086 -2.0135  0.4988
  405SOL     OW 1213   0.338   0.300   1.874 -0.1591 -0.1571  0.4437
  405SOL    HW1 1214   0.391   0.236   1.929  2.3657  1.9207 -0.5821
  405SOL    HW2 1215   0.256   0.324   1.929 -0.1579 -0.7618 -0.2439
  406SOL     OW 1216   1.538   1.487   2.551 -0.0879 -0.1150  0.3815
  406SOL    HW1 1217   1.484   1.569   2.564  0.3594  0.4648 -0.2500
  406SOL    HW2 1218   1.596   1.503   2.464  0.4140 -1.3504 -2.8926
  407SOL     OW 1219   1.631   0.854   2.687  0.6040  0.4306  0.2183
  407SOL    HW1 1220   1.639   0.948   2.729  0.6907 -3.0766  0.9454
  407SOL    HW2 1221   1.583   0.842   2.597  1.3147  2.5973 -0.5454
  408SOL     OW 1222   0.728   3.054   2.424  0.4909 -0.0291 -0.4779
  408SOL    HW1 1223   0.813   3.022   2.461 -1.7316  1.1733 -1.2229
  408SOL    HW2 1224   0.746   0.002   2.331 -0.6127 -1.5039  0.8408
  409SOL     OW 1225   0.153   1.926   1.122 -0.0036  0.6256  0.0796
  409SOL    HW1 1226   0.132   1.967   1.031 -0.5858  0.0132 -0.5060
  409SOL    HW2 1227   0.240   1.874   1.131 -3.6369  0.5622 -0.9729
  410SOL     OW 1228   2.420   1.529   0.231  0.2741 -0.0866  0.2018
  410SOL    HW1 1229   2.323   1.517   0.196  1.2293 -0.7336  0.3210
  410SOL    HW2 1230   2.490   1.483   0.170  0.4787 -0.3817  1.3330
  411SOL     OW 1231   0.133   0.114   1.139 -0.6731 -0.9359 -0.1871
  411SOL    HW1 1232   0.229   0.120   1.178  0.0468 -0.7631 -1.9077
  411SOL    HW2 1233   0.091   0.208   1.135  0.9762  1.0281  1.0094
  412SOL     OW 1234   1.904   0.699   1.520  0.2148  0.5121  0.1173
  412SOL    HW1 1235   1.963   0.706   1.441 -1.3137 -1.1393 -3.5617
  412SOL    HW2 1236   1.802   0.706   1.498 -1.8668  1.1056  0.2966
  413SOL     OW 1237   0.793   0.417   1.857 -0.8567  0.2825  0.0888
  413SOL    HW1 1238   0.835   0.428   1.949  0.5480 -1.4621  0.0578
  413SOL    HW2 1239   0.856   0.452   1.782 -0.9075  1.6240  1.1219
  414SOL     OW 1240   2.825   1.524   2.630  0.1271 -0.5043 -0.1810
  414SOL    HW1 1241   2.885   1.478   2.700 -0.0485 -1.2545 -0.6583
  414SOL    HW2 1242   2.744   1.468   2.615  1.6112 -0.4478  0.6935
  415SOL     OW 1243   0.937   2.480   0.202  0.2392  0.4913 -0.2752
  415SOL    HW1 1244   1.031   2.454   0.170 -1.3599 -1.5582 -2.3085
  415SOL    HW2 1245   0.920   2.577   0.228 -1.4532  0.1538  0.8767
  416SOL     OW 1246   1.704   0.093   2.847 -0.9131 -0.4626 -0.1222
  416SOL    HW1 1247   1.718   3.077   2.866  0.0545 -2.5784 -1.0325
  416SOL    HW2 1248   1.794   0.141   2.860 -1.2687 -1.7883 -3.0149
  417SOL     OW 1249   0.268   0.359   0.664  0.0798  0.0775  0.3472
  417SOL    HW1 1250   0.282   0.461   0.645  0.8164 -1.6982 -0.1826
  417SOL    HW2 1251   0.173   0.334   0.653  4.5957  3.5138  0.0328
  418SOL     OW 1252   2.617   2.886   0.996 -0.8566  0.3545  0.5806
  418SOL    HW1 1253   2.553   2.890   0.918 -0.8930  0.1203  3.6258
  418SOL    HW2 1254   2.678   2.967   1.000 -0.3822 -0.3026  0.3964
  419SOL     OW 1255   0.154   2.735   0.442  0.0408 -0.3622 -0.1827
  419SOL    HW1 1256   0.126   2.735   0.541  1.9646 -0.2762  1.8000
  419SOL    HW2 1257   0.238   2.674   0.425 -0.2262 -0.7577  1.9200
  420SOL     OW 1258   0.230   1.325   1.804  0.2973 -0.1505  0.3374
  420SOL    HW1 1259   0.271   1.416   1.818  3.1114 -0.2346 -0.7996
  420SOL    HW2 1260   0.308   1.262   1.792 -3.8303  0.6443 -0.3072
  421SOL     OW 1261   1.536   2.627   0.722 -0.2831  0.4197  0.2644
  421SOL    HW1 1262   1.580   2.685   0.795 -0.3359 -1.8969 -0.2916
  421SOL    HW2 1263   1.527   2.536   0.762 -0.4621  2.6738  0.7296
  422SOL     OW 1264   0.717   0.367   1.518  0.2212  0.2101 -0.0374
  422SOL    HW1 1265   0.791   0.405   1.579  1.8043 -1.1891 -0.6394
  422SOL    HW2 1266   0.622   0.374   1.561 -0.4913  0.2917 -0.7006
  423SOL     OW 1267   0.968   1.405   1.808 -0.3745 -0.3307 -0.3204
  423SOL    HW1 1268   1.034   1.481   1.801  2.2329  2.4851  0.0432
  423SOL    HW2 1269   0.994   1.339   1.736  1.8867 -0.0628 -0.5715
  424SOL     OW 1270   1.963   1.959   0.334 -0.0370 -0.3287  0.1715
  424SOL    HW1 1271   1.949   1.933   0.429  1.5843 -0.5369 -1.9552
  424SOL    HW2 1272   1.935   2.056   0.321 -0.2723 -0.0407 -0.8044
  425SOL     OW 1273   2.935   0.106   2.027 -0.0151  0.6839  0.6178
  425SOL    HW1 1274   3.009   0.075   2.082 -1.1235 -0.4632 -1.1630
  425SOL    HW2 1275   2.950   0.078   1.932 -1.0837  0.5289  3.1379
  426SOL     OW 1276   0.106   2.633   2.881  0.4214 -0.4169  0.0905
  426SOL    HW1 1277   0.134   2.724   2.912  3.0639 -0.2810  1.8549
  426SOL    HW2 1278   0.100   2.571   2.965  1.9770  1.0873 -1.2790
  427SOL     OW 1279   1.231   0.458   0.131 -0.1423  0.1342  0.1521
  427SOL    HW1 1280   1.313   0.489   0.181 -1.5139 -2.7555  0.2858
  427SOL    HW2 1281   1.227   0.355   0.149 -0.4435 -1.1232  1.7594
  428SOL     OW 1282   2.898   0.891   1.612 -0.6103  0.2131  0.0278
  428SOL    HW1 1283   2.824   0.924   1.675 -1.5708 -0.2840 -1.2451
  428SOL    HW2 1284   2.878   0.931   1.520  0.4451  0.6782 -0.1298
  429SOL     OW 1285   1.923   2.814   1.083  0.2476  0.3120 -0.2009
  429SOL    HW1 1286   1.829   2.824   1.129 -1.1756  2.1704  2.8275
  429SOL    HW2 1287   1.939   2.714   1.075 -2.5073  0.8514  1.8463
  430SOL     OW 1288   1.282   1.615   2.371 -0.1032 -0.2078 -0.8285
  430SOL    HW1 1289   1.273   1.618   2.475 -3.5018  0.8851  3.4840
  430SOL    HW2 1290   1.315   1.525   2.334  1.8540 -1.1862 -1.6703
  431SOL     OW 1291   2.788   1.477   1.357  0.3855 -0.2439  0.1347
  431SOL    HW1 1292   2.745   1.566   1.374  0.9574 -3.5463 -0.2832
  431SOL    HW2 1293   2.841   1.441   1.439  1.7449 -0.3856  0.6775
  432SOL     OW 1294   1.084   2.594   2.237  0.2016 -0.0268 -0.4066
  432SOL    HW1 1295   1.091   2.510   2.293  0.2871  1.8999 -0.1915
  432SOL    HW2 1296   0.998   2.606   2.191  1.3693  2.1036 -0.4906
  433SOL     OW 1297   1.858   0.263   2.107  0.0035  0.3694  0.4060
  433SOL    HW1 1298   1.953   0.230   2.114  0.3213 -1.5643 -2.1223
  433SOL    HW2 1299   1.842   0.335   2.176 -1.4967 -0.3269  0.7560
  434SOL     OW 1300   0.462   2.541   2.221 -0.2367  0.1058  0.5433
  434SOL    HW1 1301   0.370   2.557   2.256  0.3904 -0.8023 -1.5895
  434SOL    HW2 1302   0.533   2.537   2.293 -0.7423  1.0309 -2.0289
  435SOL     OW 1303   0.135   0.051   0.298 -0.1206 -0.0880 -0.0534
  435SOL    HW1 1304   0.171   0.145   0.304  1.6684 -3.4159 -1.3358
  435SOL    HW2 1305   0.210   3.066   0.278  0.3461  0.6290  3.0910
  436SOL     OW 1306   0.820   0.955   2.120  1.0112 -0.1739 -0.0606
  436SOL    HW1 1307   0.759   1.031   2.082 -0.8897 -0.8087  0.9758
  436SOL    HW2 1308   0.758   0.893   2.177  1.0688 -1.1831 -0.5045
  437SOL     OW 1309   0.733   2.400   2.821  0.0147  0.0762  0.1701
  437SOL    HW1 1310   0.673   2.456   2.758  0.7800  0.5117 -0.8354
  437SOL    HW2 1311   0.684   2.385   2.908  1.1287  1.3123 -0.8674
  438SOL     OW 1312   0.941   1.092   0.969  0.0266 -0.4457  0.1612
  438SOL    HW1 1313   0.877   1.154   0.921  1.1035 -0.7773  0.1045
  438SOL    HW2 1314   1.039   1.114   0.944  1.1416 -0.5066 -0.2224
  439SOL     OW 1315   2.567   1.250   2.365  0.7426  0.1165  0.4841
  439SOL    HW1 1316   2.621   1.182   2.308 -2.5444 -1.5681 -0.3705
  439SOL    HW2 1317   2.467   1.250   2.336 -1.2144 -1.7365 -1.0014
  440SOL     OW 1318   0.086   0.567   2.996 -0.6876 -0.2886 -0.0484
  440SOL    HW1 1319   0.046   0.510   3.066 -0.4760  1.3808 -2.6725
  440SOL    HW2 1320   0.170   0.523   2.956  0.5238  1.0503 -1.6590
  441SOL     OW 1321   0.760   1.969   1.394 -0.3191 -0.1341 -0.0942
  441SOL    HW1 1322   0.800   2.060   1.426 -1.0078 -1.5258  2.3777
  441SOL    HW2 1323   0.834   1.895   1.393 -1.9525 -1.8225 -2.2863
  442SOL     OW 1324   1.749   1.521   0.931  0.3901 -0.0899 -0.7000
  442SOL    HW1 1325   1.766   1.420   0.933  0.6683 -0.3480 -1.8726
  442SOL    HW2 1326   1.831   1.574   0.959 -1.2260  0.8001 -1.4440
  443SOL     OW 1327   2.511   1.866   2.593 -0.5959 -0.1689  0.1912
  443SOL    HW1 1328   2.591   1.927   2.576 -0.5767 -0.8864  2.2150
  443SOL    HW2 1329   2.428   1.921   2.602 -2.8940 -2.1045 -1.4911
  444SOL     OW 1330   1.973   1.633   2.803  0.0398 -0.4567 -0.0171
  444SOL    HW1 1331   1.904   1.677   2.862  0.9242  1.4257 -2.1048
  444SOL    HW2 1332   2.043   1.701   2.775 -0.7698  1.0959  1.1247
  445SOL     OW 1333   2.699   2.664   2.029  0.4449  0.0337 -0.1377
  445SOL    HW1 1334   2.705   2.575   2.077 -0.6525 -2.2945  0.7586
  445SOL    HW2 1335   2.704   2.737   2.103 -1.6330 -1.8445  0.1411
  446SOL     OW 1336   1.129   0.957   1.763 -0.0331 -0.0055  0.7248
  446SOL    HW1 1337   1.154   0.881   1.695  1.9627 -3.8329 -1.2513
  446SOL    HW2 1338   1.092   0.922   1.851  0.5784 -0.0815 -1.2982
  447SOL     OW 1339   1.035   0.925   1.175  0.0901  0.8870 -0.6267
  447SOL    HW1 1340   1.091   0.851   1.144  1.1487  0.4282  0.4334
  447SOL    HW2 1341   1.006   0.983   1.097  3.1871  2.5371 -0.7421
  448SOL     OW 1342   1.217   1.297   2.540  0.3388  0.2492 -0.5571
  448SOL    HW1 1343   1.162   1.292   2.453  1.8776 -1.8854  0.1534
  448SOL    HW2 1344   1.234   1.395   2.565 -1.8410  0.1977 -2.1242
  449SOL     OW 1345   2.998   2.130   2.489 -0.0428 -0.5883 -0.3681
  449SOL    HW1 1346   3.055   2.051   2.517 -1.2336 -2.2509 -1.8868
  449SOL    HW2 1347   2.984   2.132   2.388  0.1850  2.0492  2.9666
  450SOL     OW 1348   2.102   1.518   1.933  0.1200 -0.3572  0.0060
  450SOL    HW1 1349   2.079   1.548   2.030  1.5012  0.0203  3.0331
  450SOL    HW2 1350   2.011   1.525   1.879 -2.0137  0.5967 -1.4318
  451SOL     OW 1351   2.600   1.386   1.216  0.4144 -0.0771  0.2833
  451SOL    HW1 1352   2.675   1.426   1.264 -0.9596 -3.6659 -1.9768
  451SOL    HW2 1353   2.565   1.308   1.265  2.8651  1.7811 -2.6553
  452SOL     OW 1354   0.576   1.094   1.506  0.3364  0.4607 -0.2226
  452SOL    HW1 1355   0.604   1.011   1.457 -0.3260  0.2925  1.6878
  452SOL    HW2 1356   0.634   1.175   1.482  1.0099 -0.0487  3.4767
  453SOL     OW 1357   0.279   0.947   0.611 -0.1739  0.3221 -0.2101
  453SOL    HW1 1358   0.209   0.933   0.535 -0.9334  0.6560 -1.0220
  453SOL    HW2 1359   0.244   1.016   0.672  3.0942 -0.1554  1.2655
  454SOL     OW 1360   0.808   1.664   0.106 -0.0391 -0.2835 -0.0692
  454SOL    HW1 1361   0.872   1.741   0.085  0.2211  1.1494  1.7138
  454SOL    HW2 1362   0.711   1.690   0.088  3.2929  0.9292 -1.9525
  455SOL     OW 1363   1.830   0.700   1.238 -0.4881 -0.0837 -0.2573
  455SOL    HW1 1364   1.779   0.623   1.281 -0.1173  0.7338 -0.4421
  455SOL    HW2 1365   1.931   0.698   1.260  0.0230  1.6638 -0.6029
  456SOL     OW 1366   1.616   2.749   0.964  0.1396 -0.6733 -0.5117
  456SOL    HW1 1367   1.702   2.701   0.948 -0.1449  2.3717 -1.9016
  456SOL    HW2 1368   1.613   2.773   1.063  1.7692 -0.2154 -2.0143
  457SOL     OW 1369   2.015   0.344   2.568 -0.3171  0.0368  0.1964
  457SOL    HW1 1370   1.948   0.425   2.553 -2.8995  0.8887  0.9022
  457SOL    HW2 1371   1.989   0.274   2.499  3.0193  1.6799  1.3759
  458SOL     OW 1372   2.585   0.723   2.619 -0.2329  0.3802 -0.2633
  458SOL    HW1 1373   2.531   0.800   2.576 -1.0430  1.2100 -1.0257
  458SOL    HW2 1374   2.685   0.721   2.595 -1.3706  0.0661 -0.1960
  459SOL     OW 1375   0.021   1.723   1.974  0.5362  0.2549  0.0627
  459SOL    HW1 1376   0.103   1.780   1.974 -0.7180 -0.1235 -1.0852
  459SOL    HW2 1377   0.004   1.672   2.060 -0.5817 -0.2368 -1.1262
  460SOL     OW 1378   0.385   0.755   0.005  0.1124  0.8882  0.4428
  460SOL    HW1 1379   0.334   0.741   2.999 -2.5781  1.7995 -1.0930
  460SOL    HW2 1380   0.476   0.801   3.067  3.4198  1.5763 -2.6846
  461SOL     OW 1381   0.016   2.310   0.514 -0.7841  0.4560  0.5150
  461SOL    HW1 1382   0.026   2.216   0.472  1.1950 -2.1282  0.4174
  461SOL    HW2 1383   0.104   2.346   0.555 -0.3439  3.6764  0.2753
  462SOL     OW 1384   0.082   2.677   1.483  0.1115  0.2619 -0.4619
  462SOL    HW1 1385   0.039   2.766   1.448 -3.0605  2.8763 -3.0051
  462SOL    HW2 1386   0.088   2.608   1.407  2.0702 -0.6091 -2.1135
  463SOL     OW 1387   1.657   1.942   1.698  0.3019  0.2427 -0.2600
  463SOL    HW1 1388   1.652   1.913   1.600 -1.7876  0.0290 -2.0180
  463SOL    HW2 1389   1.746   1.922   1.742 -0.4610  0.4508  2.2123
  464SOL     OW 1390   0.043   2.717   0.670  0.5542 -0.5020  0.1752
  464SOL    HW1 1391   0.025   2.821   0.663 -2.0806 -0.9463 -1.2257
  464SOL    HW2 1392   0.082   2.687   0.757 -1.1211  1.0063  1.2545
  465SOL     OW 1393   0.319   0.191   1.507 -0.1470  0.1135  0.0245
  465SOL    HW1 1394   0.336   0.111   1.567  1.5112 -1.3384 -0.6117
  465SOL    HW2 1395   0.388   0.264   1.538  0.9150  2.6318 -0.3175
  466SOL     OW 1396   1.118   2.364   2.383  0.3001  0.1121  0.3664
  466SOL    HW1 1397   1.141   2.283   2.326 -0.7860  2.9723  0.5903
  466SOL    HW2 1398   1.035   2.336   2.443 -3.9457  0.3759  0.1537
  467SOL     OW 1399   2.877   1.487   0.878  0.5861 -0.3032  0.5985
  467SOL    HW1 1400   2.862   1.583   0.914 -0.6429  0.2885 -3.4482
  467SOL    HW2 1401   2.788   1.444   0.846  0.6715  1.5222 -1.3287
  468SOL     OW 1402   2.299   2.040   2.629  0.6413 -0.4650  0.2944
  468SOL    HW1 1403   2.289   2.081   2.532  0.2497  0.7829 -4.8697
  468SOL    HW2 1404   2.316   2.106   2.706  0.8625 -0.4614 -0.8067
  469SOL     OW 1405   1.332   2.105   0.547 -0.1631  0.4316  0.3425
  469SOL    HW1 1406   1.395   2.136   0.470 -0.4459 -0.2842  4.4806
  469SOL    HW2 1407   1.354   2.011   0.581  1.0548  0.4356  0.4844
  470SOL     OW 1408   1.816   1.393   1.604 -0.5794 -0.1051  0.2080
  470SOL    HW1 1409   1.902   1.342   1.601  1.1430  0.6201  2.5752
  470SOL    HW2 1410   1.828   1.474   1.663 -2.0928 -1.0254  1.2685
  471SOL     OW 1411   0.475   2.338   0.205 -0.3726  0.0898  0.7864
  471SOL    HW1 1412   0.495   2.326   0.108  1.1072  1.7142 -0.4082
  471SOL    HW2 1413   0.562   2.355   0.259  0.7235  0.9296  1.0993
  472SOL     OW 1414   2.313   1.772   2.134  0.4394 -0.0529  0.3113
  472SOL    HW1 1415   2.347   1.867   2.119  0.4070 -2.7817  3.4959
  472SOL    HW2 1416   2.384   1.717   2.177 -3.0890  1.7342  1.1290
  473SOL     OW 1417   1.250   2.108   0.913  0.4183 -0.0369 -0.5305
  473SOL    HW1 1418   1.246   2.024   0.860  2.1466  0.7181  1.4632
  473SOL    HW2 1419   1.176   2.172   0.892  2.2791 -0.5626 -1.3023
  474SOL     OW 1420   2.823   0.290   1.286  0.1855 -0.5611 -0.3104
  474SOL    HW1 1421   2.819   0.286   1.384  1.7479 -0.0647 -0.2378
  474SOL    HW2 1422   2.841   0.198   1.243  2.0243 -0.1767  0.4866
  475SOL     OW 1423   2.286   2.824   2.035  0.0122 -0.2176 -0.3264
  475SOL    HW1 1424   2.271   2.853   2.135  1.9736 -2.3494 -0.0000
  475SOL    HW2 1425   2.333   2.896   1.974  2.1151  1.2566 -3.3312
  476SOL     OW 1426   0.510   0.572   0.724 -0.0483 -0.8089  0.0815
  476SOL    HW1 1427   0.572   0.518   0.660 -3.8443 -2.1099 -1.0898
  476SOL    HW2 1428   0.492   0.527   0.812  1.8143 -0.2895 -0.7338
  477SOL     OW 1429   0.649   1.843   0.861 -0.5632  0.0209 -0.1298
  477SOL    HW1 1430   0.698   1.857   0.952  1.8110 -0.3274  0.8040
  477SOL    HW2 1431   0.573   1.775   0.868  0.1283  0.3232  1.5427
  478SOL     OW 1432   1.114   2.228   2.969 -0.7270 -0.2057  0.0602
  478SOL    HW1 1433   1.033   2.176   2.953  2.0246  0.2306 -0.0267
  478SOL    HW2 1434   1.116   2.300   2.895 -0.0511 -0.8546  1.5564
  479SOL     OW 1435   2.848   1.248   1.787 -0.0615 -0.2152  0.3078
  479SOL    HW1 1436   2.832   1.151   1.819  0.4614  0.5615  0.8508
  479SOL    HW2 1437   2.855   1.244   1.682  2.1185  0.4998 -1.9230
  480SOL     OW 1438   0.086   2.432   3.072  0.1819 -0.2870  0.4333
  480SOL    HW1 1439   0.031   2.451   0.070  1.7461 -0.0224  1.4567
  480SOL    HW2 1440   0.053   2.339   3.031  3.0006  0.4278  0.4443
  481SOL     OW 1441   1.625   2.953   2.247 -0.0501 -0.0050 -0.2175
  481SOL    HW1 1442   1.710   2.895   2.239 -1.5361 -0.4240  0.0334
  481SOL    HW2 1443   1.652   3.040   2.203  2.2514  2.1044  0.8821
  482SOL     OW 1444   1.772   1.998   2.962 -0.2643 -0.2093  0.2357
  482SOL    HW1 1445   1.832   2.090   2.947  3.3473  2.2753 -0.1981
  482SOL    HW2 1446   1.701   2.003   2.888 -0.2929 -0.2728  0.7239
  483SOL     OW 1447   0.942   2.599   2.805  0.3709 -0.4179  0.3358
  483SOL    HW1 1448   1.027   2.539   2.812  0.6593 -1.3623  1.4358
  483SOL    HW2 1449   0.864   2.538   2.818 -0.9848 -0.8919  0.5869
  484SOL     OW 1450   0.406   2.723   1.114  0.2009  0.2927 -0.6845
  484SOL    HW1 1451   0.318   2.776   1.125  1.1895  1.3513 -2.3495
  484SOL    HW2 1452   0.477   2.795   1.105 -1.1597  1.6097  1.0293
  485SOL     OW 1453   2.139   0.337   0.717  0.0175 -0.0228  0.5151
  485SOL    HW1 1454   2.111   0.423   0.770 -0.9386 -2.5261 -0.6161
  485SOL    HW2 1455   2.198   0.279   0.775  1.9219 -2.3369  0.8519
  486SOL     OW 1456   1.933   2.775   2.462  1.2452  0.5150  0.0555
  486SOL    HW1 1457   1.926   2.848   2.533 -4.3156  0.7942  0.6526
  486SOL    HW2 1458   2.029   2.742   2.445 -0.0313  1.0994 -0.4473
  487SOL     OW 1459   0.978   1.529   0.815  0.3049  0.3038  0.6515
  487SOL    HW1 1460   0.882   1.503   0.801  2.8404  2.0201 -2.5574
  487SOL    HW2 1461   0.996   1.616   0.763  0.9105 -1.1139 -1.4142
  488SOL     OW 1462   2.175   0.321   0.041 -0.1957 -0.0234 -0.0723
  488SOL    HW1 1463   2.186   0.365   0.128 -0.5101 -1.9669 -1.0702
  488SOL    HW2 1464   2.187   0.390   3.050  1.0679  1.3925  0.0612
  489SOL     OW 1465   1.848   2.968   0.460  0.2157  0.3632  0.1201
  489SOL    HW1 1466   1.911   2.895   0.493  0.6236 -1.1875  0.5020
  489SOL    HW2 1467   1.900   3.047   0.416 -0.3658 -0.4675 -1.9424
  490SOL     OW 1468   1.495   0.241   2.965  0.1726 -0.0384 -0.0944
  490SOL    HW1 1469   1.523   0.277   3.059 -1.3692  0.1174 -0.4619
  490SOL    HW2 1470   1.563   0.173   2.931 -0.1871 -0.4266 -2.6285
  491SOL     OW 1471   0.645   0.067   1.103 -0.0354 -0.0798 -0.2504
  491SOL    HW1 1472   0.673   0.114   1.186 -2.1983  0.1796 -1.6899
  491SOL    HW2 1473   0.688   0.116   1.020 -0.0789  1.4583 -1.2149
  492SOL     OW 1474   1.648   2.964   0.296  0.0749 -0.2825 -0.0555
  492SOL    HW1 1475   1.730   2.967   0.358 -2.1387  0.6448 -0.0580
  492SOL    HW2 1476   1.611   2.867   0.294  1.4159  0.8826 -3.0542
  493SOL     OW 1477   1.395   2.147   2.975  0.0031 -0.3517  0.3719
  493SOL    HW1 1478   1.298   2.121   2.963  0.5481 -1.6635  0.2249
  493SOL    HW2 1479   1.460   2.101   2.910  0.8716  0.5083 -2.7268
  494SOL     OW 1480   0.436   1.031   1.119 -0.0258  0.5136  0.5144
  494SOL    HW1 1481   0.531   1.037   1.162  0.5467  0.1330  0.6979
  494SOL    HW2 1482   0.433   1.042   1.018 -1.4868 -0.3801  1.7384
  495SOL     OW 1483   0.068   0.566   1.527  0.3278  0.2695 -0.0187
  495SOL    HW1 1484   0.086   0.665   1.542  0.5237  0.0380 -0.2913
  495SOL    HW2 1485   3.075   0.539   1.590 -1.5044 -1.5177  0.8972
  496SOL     OW 1486   2.252   2.428   2.045 -0.3032  0.0539  0.2051
  496SOL    HW1 1487   2.316   2.503   2.010  3.2395  0.6886 -1.7887
  496SOL    HW2 1488   2.205   2.465   2.126 -0.3448  2.9593  0.7969
  497SOL     OW 1489   1.633   1.118   2.748  0.1143  0.0997  0.4501
  497SOL    HW1 1490   1.731   1.137   2.734 -0.9262 -0.0532 -0.6664
  497SOL    HW2 1491   1.580   1.170   2.673 -2.6073  0.4579 -0.9939
  498SOL     OW 1492   0.887   2.085   0.474  0.1599  0.0082  0.2601
  498SOL    HW1 1493   0.901   2.171   0.528 -1.9194 -0.8620  1.4755
  498SOL    HW2 1494   0.845   2.013   0.529  2.7299  2.7435 -0.0322
  499SOL     OW 1495   0.207   1.561   0.997  0.2035 -0.0467  0.0287
  499SOL    HW1 1496   0.137   1.610   0.939 -0.3250 -0.3757 -2.4704
  499SOL    HW2 1497   0.183   1.461   1.004 -1.6421 -2.1390 -0.2719
  500SOL     OW 1498   1.261   2.675   0.658  0.1562 -0.4217  0.1273
  500SOL    HW1 1499   1.259   2.685   0.555  0.1982  0.3416 -2.8288
  500SOL    HW2 1500   1.361   2.681   0.687  1.4622  1.1063  0.8457
  501SOL     OW 1501   1.839   2.572   0.970  0.4091 -0.2430  0.8828
  501SOL    HW1 1502   1.923   2.516   0.957 -1.1051 -0.9719  3.6058
  501SOL    HW2 1503   1.755   2.520   0.941 -1.2665 -1.7046  1.0671
  502SOL     OW 1504   0.177   0.562   1.264  0.4414 -0.8695 -0.9750
  502SOL    HW1 1505   0.131   0.577   1.356 -2.5751  1.3640  0.4137
  502SOL    HW2 1506   0.238   0.639   1.239 -0.7123  1.8299 -2.3583
  503SOL     OW 1507   2.092   0.022   1.595  0.3146 -0.0288 -0.2471
  503SOL    HW1 1508   1.999   3.073   1.570 -1.2368 -0.9553  1.1158
  503SOL    HW2 1509   2.159   3.028   1.587  1.5380  1.8612 -1.6048
  504SOL     OW 1510   2.143   0.638   1.815  0.1053 -0.0624 -0.0767
  504SOL    HW1 1511   2.085   0.667   1.734  1.0842 -0.7963  1.7471
  504SOL    HW2 1512   2.241   0.662   1.792  0.6364 -1.9161 -1.8577
  505SOL     OW 1513   1.186   2.816   2.405 -0.0279 -0.2443 -0.4315
  505SOL    HW1 1514   1.155   2.740   2.347  1.5496 -0.9373  0.5220
  505SOL    HW2 1515   1.289   2.805   2.408  0.5589  0.8036  0.9242
  506SOL     OW 1516   0.604   0.621   1.896 -0.2909 -0.5304 -0.0084
  506SOL    HW1 1517   0.673   0.549   1.864  6.1823 -0.7962 -1.8149
  506SOL    HW2 1518   0.655   0.709   1.899  1.5437 -0.3863 -0.8315
  507SOL     OW 1519   1.616   0.303   0.153 -0.5684  0.4871  0.1827
  507SOL    HW1 1520   1.578   0.391   0.189 -0.2168  0.2440 -1.7278
  507SOL    HW2 1521   1.720   0.306   0.146  0.6644 -0.8469 -1.6206
  508SOL     OW 1522   2.139   0.502   2.040 -0.0686  0.0568  0.0845
  508SOL    HW1 1523   2.145   0.533   1.945  0.3276  1.2402  0.2680
  508SOL    HW2 1524   2.125   0.401   2.038 -0.5345  1.8361 -1.4316
  509SOL     OW 1525   0.830   1.616   2.490 -0.2463 -0.1464  0.3055
  509SOL    HW1 1526   0.743   1.661   2.490  1.3940 -1.2398  0.6185
  509SOL    HW2 1527   0.882   1.638   2.403 -0.3940  1.0935  1.1455
  510SOL     OW 1528   2.796   0.601   0.551 -0.3393 -0.2589  0.8882
  510SOL    HW1 1529   2.797   0.672   0.480  2.2318 -2.0870  1.6370
  510SOL    HW2 1530   2.828   0.633   0.639 -1.8291  0.1423 -3.4311
  511SOL     OW 1531   1.600   1.406   1.419 -0.3009  0.5054  0.5456
  511SOL    HW1 1532   1.543   1.477   1.464 -0.7801 -1.0995  1.5355
  511SOL    HW2 1533   1.683   1.390   1.479 -0.3910  0.1150  0.8307
  512SOL     OW 1534   0.437   1.572   0.445  1.0926 -0.5045 -0.6784
  512SOL    HW1 1535   0.513   1.587   0.509 -3.1921  3.1204 -2.5519
  512SOL    HW2 1536   0.362   1.520   0.490 -0.3715  0.2017 -1.4608
  513SOL     OW 1537   0.429   2.046   1.095  0.2457  0.2102  0.0317
  513SOL    HW1 1538   0.409   1.946   1.102 -0.5978 -0.1486 -0.4345
  513SOL    HW2 1539   0.415   2.077   0.999 -1.8816  0.1831 -0.1753
  514SOL     OW 1540   0.332   2.190   0.395  0.2949  0.1973  0.3356
  514SOL    HW1 1541   0.315   2.238   0.485  0.6892 -0.8359  0.5493
  514SOL    HW2 1542   0.373   2.254   0.325  0.3505  2.2105 -3.1150
  515SOL     OW 1543   2.981   2.881   0.117 -0.1312  0.0712  0.2832
  515SOL    HW1 1544   2.957   2.963   0.167 -1.3201 -2.9050 -1.0424
  515SOL    HW2 1545   3.061   2.840   0.165  2.8039  0.8774  0.4485
  516SOL     OW 1546   2.033   3.037   1.200 -0.1565  0.0831 -0.0313
  516SOL    HW1 1547   1.973   3.060   1.283  0.1043  1.2290  1.8136
  516SOL    HW2 1548   1.994   2.960   1.147  1.9732 -0.2963  3.3078
  517SOL     OW 1549   1.620   1.353   0.501  0.8034  0.6377 -0.4597
  517SOL    HW1 1550   1.638   1.437   0.554  0.7569 -2.1655 -0.9893
  517SOL    HW2 1551   1.612   1.270   0.564  0.7666 -1.0007 -2.2761
  518SOL     OW 1552   1.287   0.295   1.002  0.4166 -0.1652 -0.2846
  518SOL    HW1 1553   1.195   0.327   1.031  1.2990 -0.4305  0.7172
  518SOL    HW2 1554   1.288   0.269   0.905 -0.9195  2.1438  4.2254
  519SOL     OW 1555   2.713   2.568   0.334 -0.1947 -0.0671  0.8791
  519SOL    HW1 1556   2.660   2.644   0.378 -0.3935  3.4842  2.2302
  519SOL    HW2 1557   2.813   2.594   0.327  1.3297 -1.4264 -1.3313
  520SOL     OW 1558   1.797   2.094   2.055  0.2620 -0.3197  0.4312
  520SOL    HW1 1559   1.823   2.156   2.128 -1.9712  0.8450  3.4128
  520SOL    HW2 1560   1.742   2.012   2.087 -1.9738  0.6562  1.3517
  521SOL     OW 1561   1.440   2.723   2.267  0.0923 -0.7963  0.4019
  521SOL    HW1 1562   1.406   2.672   2.184 -0.2100  0.4989  0.3692
  521SOL    HW2 1563   1.499   2.806   2.243 -1.3065  0.5846 -1.2049
  522SOL     OW 1564   2.972   3.084   1.785  0.3243 -0.2412  0.0229
  522SOL    HW1 1565   2.920   0.043   1.710 -0.2262 -1.5348  2.2765
  522SOL    HW2 1566   2.937   2.990   1.804 -0.1551 -0.4457 -1.6856
  523SOL     OW 1567   0.839   2.219   1.473 -0.2357  0.6329 -0.1274
  523SOL    HW1 1568   0.775   2.300   1.473  1.7391 -3.5191 -2.3202
  523SOL    HW2 1569   0.932   2.243   1.440  0.2462 -1.3567 -1.3346
  524SOL     OW 1570   2.266   2.169   0.003  0.7109  0.4155 -0.0234
  524SOL    HW1 1571   2.257   2.065   0.005 -0.3392  2.3422 -0.3837
  524SOL    HW2 1572   2.347   2.192   0.054 -0.0855 -1.3424 -1.2865
  525SOL     OW 1573   2.809   0.831   3.046 -0.3512  0.2107  1.2663
  525SOL    HW1 1574   2.905   0.813   3.068 -0.0578  1.1138 -0.0458
  525SOL    HW2 1575   2.798   0.851   2.943 -1.1589  1.2555 -2.6703
  526SOL     OW 1576   0.683   2.973   0.504  0.7181  0.2186 -0.5230
  526SOL    HW1 1577   0.775   3.003   0.534  0.1862 -0.7345 -0.0270
  526SOL    HW2 1578   0.615   3.028   0.547  2.3964 -3.5718 -2.7848
  527SOL     OW 1579   2.568   1.341   0.536  0.2245  0.6151 -0.3467
  527SOL    HW1 1580   2.507   1.281   0.482 -0.7638  1.5381 -0.9254
  527SOL    HW2 1581   2.558   1.438   0.505  1.1977 -1.2510  0.4969
  528SOL     OW 1582   0.820   0.827   2.545 -0.5400  0.1880 -0.5689
  528SOL    HW1 1583   0.900   0.829   2.477  5.3994  2.1336 -1.3872
  528SOL    HW2 1584   0.760   0.910   2.527 -0.0388 -0.6382  0.5861
  529SOL     OW 1585   0.545   1.662   0.037 -0.0831 -0.2487 -0.4320
  529SOL    HW1 1586   0.476   1.680   0.111  0.3942  1.4181  4.4415
  529SOL    HW2 1587   0.554   1.744   3.060  1.0901  0.4650  0.5053
  530SOL     OW 1588   1.283   1.095   2.180 -0.5191 -0.1033 -0.1934
  530SOL    HW1 1589   1.381   1.078   2.194 -0.5262  0.6951  0.7017
  530SOL    HW2 1590   1.225   1.014   2.169 -1.6636 -2.1915  0.7878
  531SOL     OW 1591   1.426   2.106   0.149  0.3232 -0.3378 -0.3415
  531SOL    HW1 1592   1.422   2.135   0.052 -0.7090 -1.6323 -0.0973
  531SOL    HW2 1593   1.394   2.010   0.166  0.6069  1.9963  1.1485
  532SOL     OW 1594   2.171   1.068   2.614  0.0864  0.5789  0.0878
  532SOL    HW1 1595   2.124   1.000   2.679 -3.3500 -0.9063  2.3622
  532SOL    HW2 1596   2.184   1.161   2.659  2.7853  2.2236  3.4930
  533SOL     OW 1597   0.149   0.589   1.824  0.0534  0.0140  0.0042
  533SOL    HW1 1598   0.130   0.495   1.863 -1.9271  0.7948 -0.4984
  533SOL    HW2 1599   0.059   0.623   1.790  0.8276  0.3474  0.0789
  534SOL     OW 1600   1.803   3.077   0.100 -0.4308  0.5166 -0.4291
  534SOL    HW1 1601   1.829   0.090   0.118 -0.6194 -0.3461  3.4516
  534SOL    HW2 1602   1.732   3.041   0.167 -2.4421 -0.1994 -0.5407
  535SOL     OW 1603   0.683   0.066   0.037 -0.2503  0.1926 -0.1312
  535SOL    HW1 1604   0.771   0.115   0.011 -2.7982  1.7219 -0.0686
  535SOL    HW2 1605   0.600   0.128   0.041 -3.2727  1.0195 -0.8808
  536SOL     OW 1606   0.537   1.913   1.501 -0.1207  0.4465  0.7189
  536SOL    HW1 1607   0.484   1.859   1.436 -0.3073 -2.5947 -2.6947
  536SOL    HW2 1608   0.627   1.926   1.458  2.3450  0.8408 -0.8864
  537SOL     OW 1609   2.941   2.655   1.631  0.7149 -0.2413  0.0698
  537SOL    HW1 1610   3.027   2.647   1.575  1.6681  0.3941 -1.4371
  537SOL    HW2 1611   2.956   2.714   1.714  0.6430  0.5641  1.1239
  538SOL     OW 1612   3.064   2.034   0.451  0.3792  0.0031  0.2761
  538SOL    HW1 1613   0.065   2.006   0.398  1.2500  0.6859  0.9582
  538SOL    HW2 1614   2.985   1.972   0.421 -0.1516 -2.6923 -0.8560
  539SOL     OW 1615   2.459   0.954   2.531 -0.9217  0.1037  0.3691
  539SOL    HW1 1616   2.360   0.975   2.529  0.2521  0.4542 -0.8555
  539SOL    HW2 1617   2.500   0.988   2.617  0.8482 -0.6360  0.8451
  540SOL     OW 1618   1.908   0.901   3.024  0.0014 -0.2840  0.1404
  540SOL    HW1 1619   1.842   0.980   3.034 -0.2667 -0.6289 -1.6383
  540SOL    HW2 1620   1.869   0.810   3.055 -1.8546 -0.2715  1.7262
  541SOL     OW 1621   0.815   0.567   2.231  1.1324  0.1185  0.0058
  541SOL    HW1 1622   0.823   0.488   2.292 -0.4476 -0.1908 -2.2037
  541SOL    HW2 1623   0.785   0.656   2.274 -0.0063  0.3136 -1.3326
  542SOL     OW 1624   1.500   2.415   2.166  0.6683 -0.0254  0.4470
  542SOL    HW1 1625   1.417   2.476   2.154 -0.2294  0.2576  1.3243
  542SOL    HW2 1626   1.582   2.465   2.127 -0.1250  1.1493  0.6140
  543SOL     OW 1627   0.993   2.890   0.419 -0.3856 -0.0850 -0.0884
  543SOL    HW1 1628   0.956   2.940   0.502  1.2076 -1.2570 -1.0772
  543SOL    HW2 1629   0.923   2.856   0.350  3.5510 -1.0054 -1.1996
  544SOL     OW 1630   2.748   1.839   2.226  0.1818  0.4057 -0.3461
  544SOL    HW1 1631   2.776   1.799   2.314 -0.2538  2.1672 -0.2173
  544SOL    HW2 1632   2.700   1.927   2.241  2.9386 -3.2578 -0.0658
  545SOL     OW 1633   1.377   2.012   1.457  0.3122  0.5323 -0.3150
  545SOL    HW1 1634   1.355   1.987   1.552  2.8461 -0.3277 -0.7730
  545SOL    HW2 1635   1.309   1.972   1.390  0.5221 -0.1759 -2.6703
  546SOL     OW 1636   0.285   0.255   2.370 -0.7347  0.1906 -0.4475
  546SOL    HW1 1637   0.372   0.262   2.326 -3.8264  0.6595 -1.2003
  546SOL    HW2 1638   0.286   0.203   2.457 -2.5090 -0.6884  1.6262
  547SOL     OW 1639   0.911   0.339   0.494 -0.3618  0.8022 -0.1923
  547SOL    HW1 1640   0.907   0.305   0.396  2.7378  1.7575  0.3050
  547SOL    HW2 1641   0.962   0.427   0.495 -0.9211  2.0499 -0.0561
  548SOL     OW 1642   1.712   2.043   0.170 -0.1604 -0.2536 -0.4316
  548SOL    HW1 1643   1.620   2.077   0.143 -0.3156  0.5867 -0.0554
  548SOL    HW2 1644   1.760   2.025   0.084  1.1858  0.3473  2.1373
  549SOL     OW 1645   2.066   0.972   0.411 -0.8195  0.4905  0.4081
  549SOL    HW1 1646   2.014   1.005   0.329  0.1088 -1.4859 -1.8566
  549SOL    HW2 1647   2.168   0.961   0.391 -0.0770 -1.0423  0.0315
  550SOL     OW 1648   2.664   2.310   0.433 -0.3536  0.6859  0.5837
  550SOL    HW1 1649   2.741   2.256   0.392  1.1745  1.6122 -1.8930
  550SOL    HW2 1650   2.676   2.404   0.399  1.2304  0.1810  0.0965
  551SOL     OW 1651   1.149   0.381   1.439  0.4183 -0.3345  0.0503
  551SOL    HW1 1652   1.240   0.396   1.402 -1.4393  0.2446 -1.1477
  551SOL    HW2 1653   1.146   0.303   1.504  0.2978  1.6124 -0.4141
  552SOL     OW 1654   2.877   1.924   2.839 -0.1477 -0.0566  0.5167
  552SOL    HW1 1655   2.811   1.850   2.813 -0.2764 -0.5348  1.1644
  552SOL    HW2 1656   2.953   1.881   2.898 -0.8471  2.8110  1.0152
  553SOL     OW 1657   2.780   2.683   0.706 -0.0186 -0.4560  0.3800
  553SOL    HW1 1658   2.769   2.739   0.621  0.8693  1.6469 -0.5196
  553SOL    HW2 1659   2.840   2.600   0.703 -1.8462 -0.5781  1.8029
  554SOL     OW 1660   1.863   1.177   1.831  0.7586  0.3929 -0.1433
  554SOL    HW1 1661   1.908   1.178   1.742  1.2782 -0.1366  2.4622
  554SOL    HW2 1662   1.935   1.199   1.901 -0.3999 -2.4631  1.0754
  555SOL     OW 1663   1.128   2.255   1.953  0.0388  0.3065 -0.4047
  555SOL    HW1 1664   1.124   2.327   1.880 -1.5481  1.8030 -2.8111
  555SOL    HW2 1665   1.072   2.180   1.911  1.1461  0.0794 -0.2462
  556SOL     OW 1666   1.192   1.572   1.837 -0.2903  0.1952  0.0703
  556SOL    HW1 1667   1.247   1.619   1.905  1.1858 -3.1163 -2.7868
  556SOL    HW2 1668   1.246   1.495   1.799  1.2683  1.3980 -2.9330
  557SOL     OW 1669   1.576   3.058   1.665 -0.0870 -0.4623  0.7105
  557SOL    HW1 1670   1.515   0.002   1.740 -3.4241 -1.0182  1.3757
  557SOL    HW2 1671   1.521   2.987   1.612 -1.3749 -1.5848 -0.1064
  558SOL     OW 1672   0.777   2.875   2.062 -0.3653 -0.0949  0.2293
  558SOL    HW1 1673   0.675   2.858   2.066 -0.2727 -0.2175  0.5068
  558SOL    HW2 1674   0.794   2.934   1.983  1.8710 -2.5221 -0.6114
  559SOL     OW 1675   1.763   2.475   0.320  0.4908  0.5637 -0.4812
  559SOL    HW1 1676   1.675   2.483   0.269  2.9918 -1.1083  0.9788
  559SOL    HW2 1677   1.757   2.501   0.419 -1.2140 -0.4556  3.7470
  560SOL     OW 1678   1.540   2.180   0.384 -0.0232 -0.1788 -0.5555
  560SOL    HW1 1679   1.503   2.144   0.297  2.4142  0.2967  0.3645
  560SOL    HW2 1680   1.509   2.278   0.394  0.2832  0.9250  1.8224
  561SOL     OW 1681   1.511   0.247   0.445 -0.0492 -0.5562  0.0743
  561SOL    HW1 1682   1.551   0.159   0.483  1.6643 -1.2917  2.4935
  561SOL    HW2 1683   1.419   0.232   0.415 -0.2415 -2.1040 -0.1137
  562SOL     OW 1684   0.534   1.417   1.995 -0.0661  0.0494 -0.1564
  562SOL    HW1 1685   0.564   1.438   1.904 -3.4938 -2.0259  0.9346
  562SOL    HW2 1686   0.601   1.345   2.026 -2.3853 -0.7773 -1.8617
  563SOL     OW 1687   1.584   2.037   2.751  0.0002  0.2222 -0.2369
  563SOL    HW1 1688   1.528   1.956   2.729  2.1464  1.4423  1.0601
  563SOL    HW2 1689   1.570   2.097   2.670  1.7744  0.4972  0.0372
  564SOL     OW 1690   3.025   0.890   0.815 -0.3858 -0.3271  0.3633
  564SOL    HW1 1691   2.953   0.844   0.873  0.2969  1.0325  0.1106
  564SOL    HW2 1692   0.016   0.827   0.793 -1.1906  1.3573  1.4931
  565SOL     OW 1693   0.600   1.382   0.023 -0.0275  0.1125 -0.1513
  565SOL    HW1 1694   0.566   1.474   0.001 -0.2176 -1.8742 -0.0328
  565SOL    HW2 1695   0.692   1.390   0.070  0.4194  0.4367 -2.3041
  566SOL     OW 1696   2.282   2.743   2.741 -0.0975  0.1559 -0.3258
  566SOL    HW1 1697   2.261   2.832   2.787  1.6143  3.2881  0.4212
  566SOL    HW2 1698   2.235   2.660   2.785  0.3667  1.7167  0.1579
  567SOL     OW 1699   1.249   1.266   1.529 -0.7290 -0.3100 -0.6039
  567SOL    HW1 1700   1.156   1.249   1.561  1.5689  2.5057  1.5182
  567SOL    HW2 1701   1.302   1.298   1.612  1.5345  0.7196 -1.0354
  568SOL     OW 1702   1.395   1.145   2.905 -0.3956  0.2375 -0.3914
  568SOL    HW1 1703   1.320   1.174   2.967  1.5189 -0.2266  1.0384
  568SOL    HW2 1704   1.472   1.214   2.902  2.7928 -1.4660 -0.1812
  569SOL     OW 1705   2.224   1.798   0.407  0.3587  0.3527 -0.0227
  569SOL    HW1 1706   2.150   1.805   0.338 -0.1789  0.1656 -0.4015
  569SOL    HW2 1707   2.237   1.887   0.457 -1.0894 -0.2716 -1.8743
  570SOL     OW 1708   2.635   2.118   2.260  0.0722 -0.0490  0.1341
  570SOL    HW1 1709   2.580   2.199   2.297  2.1824  4.3795  3.3334
  570SOL    HW2 1710   2.724   2.150   2.213  0.2554 -0.5215 -0.5177
  571SOL     OW 1711   2.768   1.913   1.927 -0.2494 -0.0956 -0.1409
  571SOL    HW1 1712   2.677   1.896   1.881 -1.1787 -0.0745  2.8011
  571SOL    HW2 1713   2.773   1.869   2.018  2.5341  0.2278  2.7344
  572SOL     OW 1714   1.493   2.497   0.179 -0.1389 -0.0518 -0.0001
  572SOL    HW1 1715   1.450   2.450   0.254  1.5572  1.2049 -1.6968
  572SOL    HW2 1716   1.427   2.517   0.106 -0.7871  0.6991 -1.5288
  573SOL     OW 1717   1.481   1.872   0.735 -0.0027  0.5205  0.3748
  573SOL    HW1 1718   1.554   1.909   0.791 -0.9604  0.0735  1.5875
  573SOL    HW2 1719   1.400   1.857   0.788 -0.7766  2.9145 -1.6340
  574SOL     OW 1720   1.130   3.006   1.600 -0.3083 -0.1850 -0.1232
  574SOL    HW1 1721   1.194   3.025   1.682  0.6161 -1.3126 -0.7671
  574SOL    HW2 1722   1.057   2.939   1.632 -2.5595 -1.5403  0.7569
  575SOL     OW 1723   0.981   0.787   1.432 -0.7521  0.2500 -0.1148
  575SOL    HW1 1724   0.958   0.848   1.356  0.1221 -1.7667 -0.1189
  575SOL    HW2 1725   0.914   0.786   1.507  3.4380 -0.4827 -0.5046
  576SOL     OW 1726   2.732   0.068   1.137 -0.5317  0.1698  0.2006
  576SOL    HW1 1727   2.718   0.130   1.056 -0.0220  1.6023 -1.0856
  576SOL    HW2 1728   2.659   0.075   1.202  3.4666 -0.1506 -2.2824
  577SOL     OW 1729   1.870   0.570   2.516 -0.5118 -0.6383 -0.4024
  577SOL    HW1 1730   1.790   0.580   2.577  0.4571 -0.6116  0.8381
  577SOL    HW2 1731   1.866   0.641   2.441  1.3414 -0.0914  1.3344
  578SOL     OW 1732   1.975   1.638   2.433  0.2673 -0.3080  0.3098
  578SOL    HW1 1733   1.882   1.630   2.397  1.3912 -1.0331  1.7287
  578SOL    HW2 1734   1.988   1.734   2.464  0.0640 -0.6609 -1.0341
  579SOL     OW 1735   0.455   1.375   0.919  0.5128  0.2653 -0.0554
  579SOL    HW1 1736   0.370   1.344   0.967 -0.2216  1.0213 -0.8870
  579SOL    HW2 1737   0.458   1.331   0.827  3.4632  0.4501  1.2205
  580SOL     OW 1738   1.253   2.500   3.023  0.2669 -0.1244 -0.4151
  580SOL    HW1 1739   1.231   2.415   3.076  2.3054  0.1309 -0.4155
  580SOL    HW2 1740   1.208   2.496   2.932 -3.0672 -2.4620  0.2219
  581SOL     OW 1741   1.060   0.634   2.110  0.0692  0.3450 -0.3446
  581SOL    HW1 1742   0.966   0.599   2.120 -0.3506 -1.1586  0.3765
  581SOL    HW2 1743   1.104   0.620   2.201 -0.4672  1.0821  0.8965
  582SOL     OW 1744   0.483   0.991   0.840  0.2944  0.0761 -0.8244
  582SOL    HW1 1745   0.566   0.934   0.861 -1.0686 -0.6321 -1.1822
  582SOL    HW2 1746   0.411   0.939   0.788 -0.9582  2.5149  1.5978
  583SOL     OW 1747   0.785   1.679   2.160 -0.2101  0.2280 -0.0437
  583SOL    HW1 1748   0.802   1.641   2.069 -1.0474  1.0748  0.9206
  583SOL    HW2 1749   0.872   1.674   2.215  0.8484 -1.7790  0.7759
  584SOL     OW 1750   2.123   2.741   0.420 -0.0485 -0.4834  1.3910
  584SOL    HW1 1751   2.067   2.742   0.503  2.0240 -3.7458 -0.9805
  584SOL    HW2 1752   2.213   2.787   0.435  3.3599 -0.2327  1.3855
  585SOL     OW 1753   1.896   0.462   2.954 -0.2931  0.2678  0.0771
  585SOL    HW1 1754   1.851   0.542   2.997  0.3675 -2.6954 -3.7209
  585SOL    HW2 1755   1.846   0.440   2.871  2.1581  1.1331  2.0796
  586SOL     OW 1756   0.092   1.643   0.565 -0.4349  0.1174 -0.5433
  586SOL    HW1 1757   0.031   1.675   0.489 -0.0838 -0.2499  1.3199
  586SOL    HW2 1758   0.121   1.545   0.546  1.1874 -1.5473 -0.8249
  587SOL     OW 1759   1.692   1.975   0.855  0.6557 -0.0702 -0.5436
  587SOL    HW1 1760   1.715   2.058   0.796  1.4415  0.0836 -0.7488
  587SOL    HW2 1761   1.769   1.907   0.860  2.3171 -0.2192  0.2980
  588SOL     OW 1762   0.334   0.571   0.965 -0.5032 -1.0631  0.4982
  588SOL    HW1 1763   0.392   0.652   0.992  0.6344  0.1847 -0.6569
  588SOL    HW2 1764   0.265   0.547   1.030  1.9900 -1.6749 -2.6106
  589SOL     OW 1765   1.027   0.337   1.094 -0.1236  0.5409 -0.0485
  589SOL    HW1 1766   0.949   0.370   1.035 -0.4286  0.1884 -0.5371
  589SOL    HW2 1767   1.009   0.370   1.189  1.7087 -2.4860 -0.7591
  590SOL     OW 1768   1.355   0.838   0.325 -0.6891  0.0090  0.0063
  590SOL    HW1 1769   1.258   0.852   0.358  1.5335  1.3413 -0.6811
  590SOL    HW2 1770   1.409   0.788   0.395  0.2893  1.2018  1.7436
  591SOL     OW 1771   2.468   2.590   2.306  0.0767 -0.3397 -0.6931
  591SOL    HW1 1772   2.492   2.672   2.358 -3.4116  1.5602  0.9336
  591SOL    HW2 1773   2.540   2.523   2.304  0.0176  0.9918 -1.1375
  592SOL     OW 1774   1.614   1.941   1.120  0.2456 -0.0031 -0.8010
  592SOL    HW1 1775   1.637   1.972   1.024  1.6287 -2.1631 -1.0637
  592SOL    HW2 1776   1.535   1.996   1.155  0.5561 -0.8483 -1.1211
  593SOL     OW 1777   1.056   0.045   0.836 -0.5640 -0.1993  0.1068
  593SOL    HW1 1778   1.098   3.036   0.838  0.6000 -1.9333  0.6050
  593SOL    HW2 1779   1.128   0.110   0.810 -2.7429  0.0008  2.0139
  594SOL     OW 1780   0.455   1.154   1.757  0.3022  0.8447 -0.2409
  594SOL    HW1 1781   0.502   1.121   1.675 -3.3923  1.4811  1.7553
  594SOL    HW2 1782   0.439   1.078   1.819  1.8208  1.0339 -0.9725
  595SOL     OW 1783   0.184   2.652   0.894  0.3246 -0.3513 -0.1235
  595SOL    HW1 1784   0.225   2.558   0.905  0.9223 -0.4119 -0.6368
  595SOL    HW2 1785   0.251   2.722   0.855  0.5435  3.5991  1.3879
  596SOL     OW 1786   0.109   0.839   1.564 -0.2067 -0.3595 -0.3894
  596SOL    HW1 1787   0.204   0.871   1.574  0.0227  1.4552  1.5833
  596SOL    HW2 1788   0.062   0.890   1.641 -0.4208  1.0216  4.6398
  597SOL     OW 1789   1.980   1.427   0.594  0.2924  0.4810  0.7877
  597SOL    HW1 1790   1.997   1.324   0.581  0.7477 -0.1068 -0.6954
  597SOL    HW2 1791   1.880   1.454   0.577  0.7732 -0.6337 -0.0781
  598SOL     OW 1792   0.526   2.765   2.083  0.4260 -0.4344  0.6262
  598SOL    HW1 1793   0.497   2.728   1.993  0.2152  0.1766  0.0105
  598SOL    HW2 1794   0.506   2.700   2.163  2.0368 -0.3892  0.1823
  599SOL     OW 1795   2.634   2.068   2.879 -0.5500 -0.1030 -0.1456
  599SOL    HW1 1796   2.706   2.063   2.809  0.9921  1.6752 -4.7465
  599SOL    HW2 1797   2.656   2.004   2.956  1.2297  0.6719 -0.2892
  600SOL     OW 1798   0.725   1.009   0.208 -0.1333  0.3004 -0.3207
  600SOL    HW1 1799   0.776   1.022   0.122  1.2101  1.4372 -0.7424
  600SOL    HW2 1800   0.643   1.075   0.205 -2.6489 -0.4892  0.0973
  601SOL     OW 1801   1.097   1.125   0.261 -0.4126 -0.0467 -0.5030
  601SOL    HW1 1802   1.065   1.035   0.244 -2.0805  1.1318  0.6610
  601SOL    HW2 1803   1.196   1.132   0.257 -2.9835  0.0932  0.8546
  602SOL     OW 1804   1.184   2.719   1.187  0.2378  0.0628 -0.1953
  602SOL    HW1 1805   1.259   2.752   1.126 -2.2093 -0.4118  0.1134
  602SOL    HW2 1806   1.116   2.796   1.190  1.5271 -2.3735  0.2321
  603SOL     OW 1807   0.919   0.020   2.195  0.2752  0.2738  0.4411
  603SOL    HW1 1808   0.865   3.022   2.172 -4.5755 -0.6032 -0.8923
  603SOL    HW2 1809   1.021   3.079   2.198  0.2986  0.6087 -2.6274
  604SOL     OW 1810   0.081   0.097   2.274 -0.1649 -0.3699 -0.1897
  604SOL    HW1 1811   0.092   3.076   2.283 -2.4525  0.1369  0.2817
  604SOL    HW2 1812   0.176   0.134   2.279  0.4166 -1.4146  0.7560
  605SOL     OW 1813   2.725   2.295   1.490  0.0312 -0.1560 -0.5173
  605SOL    HW1 1814   2.627   2.321   1.457  0.0308  0.4204 -2.4447
  605SOL    HW2 1815   2.743   2.362   1.567 -0.2057  2.0722  1.7273
  606SOL     OW 1816   0.296   1.615   2.874  0.4216 -0.1972 -0.0508
  606SOL    HW1 1817   0.238   1.571   2.951  2.5063 -1.8223  2.5887
  606SOL    HW2 1818   0.300   1.713   2.894 -1.1644  0.5625  1.3567
  607SOL     OW 1819   0.828   0.465   0.062  0.1096 -0.5817  0.1292
  607SOL    HW1 1820   0.806   0.556   0.102  2.5734 -0.8271 -1.3486
  607SOL    HW2 1821   0.909   0.472   0.001  0.7597  0.0324 -1.2277
  608SOL     OW 1822   1.875   1.261   2.396 -0.3788 -0.0611 -0.2222
  608SOL    HW1 1823   1.814   1.183   2.384 -1.8462 -0.1741 -0.0223
  608SOL    HW2 1824   1.844   1.319   2.471  0.8925  0.3093 -0.9754
  609SOL     OW 1825   2.957   0.202   0.851 -0.0038  0.1623  0.0757
  609SOL    HW1 1826   3.002   0.108   0.854  0.9775  0.5187  1.8128
  609SOL    HW2 1827   2.854   0.190   0.849 -3.4125  0.4437 -4.4033
  610SOL     OW 1828   0.401   2.480   2.860 -0.2997 -0.3878  0.2944
  610SOL    HW1 1829   0.454   2.409   2.911 -2.1547 -0.9829 -2.3893
  610SOL    HW2 1830   0.353   2.539   2.928  1.5701  0.2442  1.2620
  611SOL     OW 1831   1.702   1.052   0.351  0.2757  0.5716  0.4306
  611SOL    HW1 1832   1.791   1.075   0.307 -0.1067 -2.2710 -0.7394
  611SOL    HW2 1833   1.687   1.105   0.434  1.7451  0.9714  1.0499
  612SOL     OW 1834   0.927   2.269   2.558 -0.2126 -0.2516 -0.7591
  612SOL    HW1 1835   0.868   2.190   2.559  0.7028  0.6908 -2.1717
  612SOL    HW2 1836   0.877   2.358   2.571  1.2323 -1.4128 -1.2001
  613SOL     OW 1837   1.205   1.904   2.964 -0.2232  0.2406 -0.2760
  613SOL    HW1 1838   1.302   1.880   2.982  0.5941 -1.7728  3.3308
  613SOL    HW2 1839   1.185   1.927   2.869 -2.9172 -1.7188  2.1062
  614SOL     OW 1840   2.712   2.763   1.543  0.3075  0.0530 -0.5217
  614SOL    HW1 1841   2.772   2.826   1.491  1.4473 -0.1817 -1.1793
  614SOL    HW2 1842   2.771   2.694   1.585  3.1756 -3.5223 -0.0331
  615SOL     OW 1843   2.200   1.310   3.055 -0.3265 -0.2782 -0.1522
  615SOL    HW1 1844   2.111   1.323   3.008  0.9680  1.0360  0.4119
  615SOL    HW2 1845   2.273   1.372   3.016 -0.8238  1.4695 -2.5671
  616SOL     OW 1846   1.693   0.058   0.595  0.0255 -0.0978 -0.1562
  616SOL    HW1 1847   1.716   3.063   0.536 -2.4071  1.8020 -0.9558
  616SOL    HW2 1848   1.774   0.116   0.608 -0.4850  3.3127 -0.9891
  617SOL     OW 1849   0.838   1.128   3.061  0.0658  0.3382  0.0903
  617SOL    HW1 1850   0.868   1.152   2.963  2.7537 -1.2759  0.7525
  617SOL    HW2 1851   0.857   1.209   0.034  1.2840 -1.7627 -0.2701
  618SOL     OW 1852   0.759   0.836   1.877  0.7423 -0.0561  0.1864
  618SOL    HW1 1853   0.761   0.911   1.807 -0.4434  1.1084 -1.9686
  618SOL    HW2 1854   0.793   0.868   1.964  0.7260  0.0443 -1.6316
  619SOL     OW 1855   0.230   1.108   1.487 -0.1345  0.4997 -0.4789
  619SOL    HW1 1856   0.159   1.145   1.554  0.7081  0.9046  2.1604
  619SOL    HW2 1857   0.267   1.020   1.519  0.5179  3.1127 -1.5051
  620SOL     OW 1858   1.826   1.152   3.076  0.4159  0.5898  0.1012
  620SOL    HW1 1859   1.744   1.211   0.022  1.2918 -0.0007  1.0536
  620SOL    HW2 1860   1.874   1.204   3.000 -1.6803  0.1031  0.2739
  621SOL     OW 1861   2.421   2.896   1.234  0.3303  0.1055 -0.8316
  621SOL    HW1 1862   2.501   2.879   1.172  1.0009  3.0956 -0.8088
  621SOL    HW2 1863   2.402   2.818   1.292  0.0866  0.1074 -2.1222
  622SOL     OW 1864   1.472   0.815   2.464 -0.2201  0.4601  0.0089
  622SOL    HW1 1865   1.392   0.878   2.469 -0.5636 -1.7507  1.0676
  622SOL    HW2 1866   1.448   0.725   2.418 -2.0378 -0.5256  0.3378
  623SOL     OW 1867   1.047   0.495   2.998 -0.3790  0.4351  0.2739
  623SOL    HW1 1868   1.071   0.455   2.906 -2.9766 -0.6116  0.6165
  623SOL    HW2 1869   1.126   0.473   3.063  1.1449  0.5287  3.6224
  624SOL     OW 1870   1.809   0.372   0.406  0.8295 -0.0284  0.5710
  624SOL    HW1 1871   1.724   0.319   0.408 -1.0007 -1.3008  0.1620
  624SOL    HW2 1872   1.876   0.327   0.469 -1.2730  2.9290  0.5950
  625SOL     OW 1873   0.719   1.202   0.816 -0.3699 -0.1994  0.4364
  625SOL    HW1 1874   0.701   1.297   0.836  0.1664 -1.8925 -1.4885
  625SOL    HW2 1875   0.637   1.144   0.813  2.9268 -0.0152  2.8083
  626SOL     OW 1876   1.407   1.130   0.230  0.6172 -0.2372 -0.0130
  626SOL    HW1 1877   1.415   1.200   0.305  0.0963 -0.7769  0.0154
  626SOL    HW2 1878   1.400   1.038   0.265 -0.8909  3.4307 -3.0563
  627SOL     OW 1879   0.908   3.057   1.872 -0.4908 -0.0220  0.0308
  627SOL    HW1 1880   0.984   0.025   1.917 -0.6128  0.1308 -0.9200
  627SOL    HW2 1881   0.830   0.032   1.853  2.0601  1.7996 -2.2447
  628SOL     OW 1882   2.595   0.321   2.099  0.0463  0.1507  0.2982
  628SOL    HW1 1883   2.680   0.308   2.152 -1.8367 -0.2530  1.3976
  628SOL    HW2 1884   2.525   0.356   2.168 -0.3077 -1.7026 -0.2499
  629SOL     OW 1885   0.926   1.238   2.839  0.4313 -0.5879 -0.2745
  629SOL    HW1 1886   1.010   1.290   2.868 -0.3396 -1.3674 -2.9273
  629SOL    HW2 1887   0.900   1.263   2.746  3.3464 -0.5323 -2.1018
  630SOL     OW 1888   1.273   0.214   2.315 -0.2505 -0.0989  0.3609
  630SOL    HW1 1889   1.185   0.260   2.316  2.4830 -2.1980  0.9427
  630SOL    HW2 1890   1.313   0.224   2.410  1.5312  1.0272 -0.8888
  631SOL     OW 1891   2.613   0.878   0.513 -0.3435 -0.3361  0.7204
  631SOL    HW1 1892   2.645   0.816   0.589  3.4386  0.6836  1.8710
  631SOL    HW2 1893   2.679   0.870   0.433  1.1355  1.8245 -2.9409
  632SOL     OW 1894   2.468   0.931   1.269 -0.0912  0.1282 -0.1750
  632SOL    HW1 1895   2.494   0.846   1.318 -0.0898 -0.1796  1.4906
  632SOL    HW2 1896   2.472   0.915   1.168  0.5612  1.7984 -0.2015
  633SOL     OW 1897   1.774   0.797   0.985 -0.2306 -0.3356 -0.0128
  633SOL    HW1 1898   1.858   0.842   0.939  2.0054  0.3037 -0.6380
  633SOL    HW2 1899   1.800   0.775   1.084  1.2580 -1.5298  0.4874
  634SOL     OW 1900   1.845   2.894   0.846 -0.3198  0.0495 -0.4991
  634SOL    HW1 1901   1.842   2.862   0.943 -0.1601 -0.3113  1.0164
  634SOL    HW2 1902   1.840   2.995   0.841  0.6507  1.2773  1.0065
  635SOL     OW 1903   1.656   0.784   1.457 -0.1140 -0.4169 -0.2980
  635SOL    HW1 1904   1.560   0.758   1.442  1.8648  0.4538  0.7351
  635SOL    HW2 1905   1.657   0.884   1.475 -1.4555  0.5836 -0.6471
  636SOL     OW 1906   0.912   0.812   0.625  0.4502  0.5253 -0.5827
  636SOL    HW1 1907   0.860   0.752   0.565 -1.2409 -1.5469 -1.6494
  636SOL    HW2 1908   0.947   0.758   0.700 -0.7585  1.1960 -3.8048
  637SOL     OW 1909   1.845   2.222   0.316  0.0261  0.3215 -0.0417
  637SOL    HW1 1910   1.807   2.314   0.302 -0.1083  0.2393  1.2109
  637SOL    HW2 1911   1.783   2.155   0.272 -1.4389 -0.2225 -1.2411
  638SOL     OW 1912   1.256   2.834   2.827  0.2039 -0.0341 -0.1549
  638SOL    HW1 1913   1.263   2.838   2.930 -0.7718  1.6621 -0.6894
  638SOL    HW2 1914   1.344   2.826   2.782 -5.1560  0.9695  0.9530
  639SOL     OW 1915   0.710   1.954   1.104  0.2201 -0.3532 -0.0421
  639SOL    HW1 1916   0.629   2.016   1.078 -0.4528  0.5992 -1.1027
  639SOL    HW2 1917   0.720   1.944   1.205  1.5618 -2.2804  1.1778
  640SOL     OW 1918   0.145   2.740   0.153  0.1111 -0.2942  0.4105
  640SOL    HW1 1919   0.185   2.660   0.109  1.7746 -0.9299 -1.9879
  640SOL    HW2 1920   0.153   2.742   0.257 -1.4777 -1.3021  2.2062
  641SOL     OW 1921   0.066   0.251   3.058 -0.1814  0.5679  0.0881
  641SOL    HW1 1922   0.071   0.247   0.076 -1.5673 -1.6149 -0.3819
  641SOL    HW2 1923   0.147   0.203   3.021 -0.4351  2.3551  1.7149
  642SOL     OW 1924   2.992   1.324   1.061  0.1960 -0.5542  0.4951
  642SOL    HW1 1925   2.942   1.385   0.996  1.1656  2.1461  1.4643
  642SOL    HW2 1926   2.962   1.339   1.156  0.7078 -1.2965  0.2436
  643SOL     OW 1927   0.656   1.927   2.241 -0.3370  0.3812 -0.0453
  643SOL    HW1 1928   0.704   1.838   2.219 -0.1198 -3.5437 -2.0990
  643SOL    HW2 1929   0.715   1.989   2.301 -1.5602 -0.1096  3.7921
  644SOL     OW 1930   1.754   2.578   0.579 -0.3229 -0.1238  0.8365
  644SOL    HW1 1931   1.808   2.518   0.641 -0.2158  0.0682  1.8787
  644SOL    HW2 1932   1.658   2.595   0.610 -1.8641  0.6216  1.1377
  645SOL     OW 1933   1.623   2.330   1.176 -0.5777 -0.1673  0.3164
  645SOL    HW1 1934   1.647   2.309   1.269 -0.1689  1.5324 -1.8922
  645SOL    HW2 1935   1.541   2.389   1.168 -0.4677  1.2007  0.2893
  646SOL     OW 1936   1.236   2.749   0.371  0.4240 -0.3507  0.2621
  646SOL    HW1 1937   1.237   2.728   0.273  1.4983  1.4653  1.4066
  646SOL    HW2 1938   1.159   2.811   0.396  0.8523  0.2260  1.4374
  647SOL     OW 1939   0.325   2.939   2.056 -0.5062 -0.8123 -0.7094
  647SOL    HW1 1940   0.286   2.938   1.959 -0.8925  0.9354 -1.7413
  647SOL    HW2 1941   0.380   2.858   2.079 -4.0524 -1.7354 -0.0141
  648SOL     OW 1942   2.131   0.751   0.993  0.0066 -0.4858 -0.0042
  648SOL    HW1 1943   2.085   0.839   1.006 -1.5834 -1.1463 -1.9480
  648SOL    HW2 1944   2.215   0.762   0.929 -0.6923 -0.7844  1.2619
  649SOL     OW 1945   1.884   2.231   2.948 -0.1449  0.0928 -0.5587
  649SOL    HW1 1946   1.955   2.301   2.978  1.1387 -0.6135 -0.6586
  649SOL    HW2 1947   1.789   2.274   2.952 -0.7837 -1.0041  0.0530
  650SOL     OW 1948   2.566   1.676   1.481 -0.1500 -0.0348 -0.1125
  650SOL    HW1 1949   2.627   1.741   1.531  0.9360 -1.3000 -0.5371
  650SOL    HW2 1950   2.472   1.678   1.525  0.7696 -1.8102 -1.5425
  651SOL     OW 1951   1.579   1.715   2.805  0.1788 -0.0198 -0.0056
  651SOL    HW1 1952   1.674   1.715   2.842 -2.9678 -1.7866  3.1542
  651SOL    HW2 1953   1.565   1.753   2.711  1.7998  0.0351  1.0911
  652SOL     OW 1954   0.804   3.062   2.770 -0.3948 -0.1475  0.2179
  652SOL    HW1 1955   0.864   3.002   2.821  0.2066 -0.5020 -3.3981
  652SOL    HW2 1956   0.865   0.027   2.704  0.7154 -2.7962 -0.8240
  653SOL     OW 1957   2.036   2.401   0.913 -0.0351 -0.1836 -0.1234
  653SOL    HW1 1958   1.973   2.335   0.961 -1.5351 -1.7072  1.8796
  653SOL    HW2 1959   2.137   2.384   0.928  2.5580  1.8480 -2.0360
  654SOL     OW 1960   2.704   2.866   2.226  0.4055 -0.0663  0.0554
  654SOL    HW1 1961   2.646   2.873   2.306  0.4385  2.4009 -0.0496
  654SOL    HW2 1962   2.657   2.918   2.154  2.2953 -1.8830  0.9456
  655SOL     OW 1963   2.795   2.077   1.293 -0.1518 -0.2758 -0.4751
  655SOL    HW1 1964   2.788   2.128   1.198  2.1338  0.9608 -2.2183
  655SOL    HW2 1965   2.779   2.141   1.372  0.3774 -3.6323  2.5676
  656SOL     OW 1966   2.902   2.175   2.737  0.5015 -0.7381  0.5010
  656SOL    HW1 1967   2.936   2.175   2.643 -1.5330  1.4443  0.5378
  656SOL    HW2 1968   2.896   2.081   2.779 -2.5286  2.2866 -2.2113
  657SOL     OW 1969   2.803   0.803   0.330  0.0846  0.9905 -0.7108
  657SOL    HW1 1970   2.775   0.876   0.265  2.7615 -1.2277 -2.4644
  657SOL    HW2 1971   2.902   0.788   0.318  1.5322  1.8804 -2.7969
  658SOL     OW 1972   1.392   1.690   1.157 -0.3983  0.0140 -0.1494
  658SOL    HW1 1973   1.355   1.703   1.252  1.9185 -1.1028  4.7500
  658SOL    HW2 1974   1.458   1.761   1.129  2.3401  1.0494  0.2533
  659SOL     OW 1975   1.453   0.415   1.368  0.0206 -0.0329  0.3822
  659SOL    HW1 1976   1.557   0.435   1.367  0.4617  2.4948 -1.1149
  659SOL    HW2 1977   1.429   0.346   1.297 -2.7268 -0.0006 -0.2846
  660SOL     OW 1978   2.039   1.379   0.842  0.1507 -0.3039  0.4253
  660SOL    HW1 1979   1.961   1.331   0.888  0.3677 -0.2619  0.1278
  660SOL    HW2 1980   2.015   1.407   0.744 -1.0102  2.1774  2.1971
  661SOL     OW 1981   0.149   1.690   0.190  0.1860  0.4579  0.3671
  661SOL    HW1 1982   0.113   1.742   0.270 -0.2486 -0.1384  3.0009
  661SOL    HW2 1983   0.247   1.709   0.179  1.2461 -0.3422  0.1100
  662SOL     OW 1984   2.708   0.981   1.780 -0.3252  0.2188  0.1835
  662SOL    HW1 1985   2.716   0.911   1.854 -0.3017 -2.0369  1.2543
  662SOL    HW2 1986   2.616   1.022   1.783  1.3495 -1.2876  0.3805
  663SOL     OW 1987   2.127   1.403   1.239 -0.0239  0.2968 -0.2466
  663SOL    HW1 1988   2.189   1.471   1.199  0.6830 -1.7301 -0.9132
  663SOL    HW2 1989   2.156   1.380   1.337 -1.1594  0.8673 -2.3370
  664SOL     OW 1990   0.381   0.143   1.248  0.0789 -0.4820 -0.4664
  664SOL    HW1 1991   0.364   0.129   1.345 -2.5727 -1.4106 -2.0845
  664SOL    HW2 1992   0.430   0.073   1.200 -0.2086 -0.4387  1.4924
  665SOL     OW 1993   1.297   0.071   2.870 -0.1693  0.0557 -0.5387
  665SOL    HW1 1994   1.365   0.134   2.908 -1.9260  0.3932 -1.4714
  665SOL    HW2 1995   1.299   3.072   2.925 -1.0588 -2.2120  0.5574
  666SOL     OW 1996   0.543   0.288   2.285  0.3414  0.0116 -0.6118
  666SOL    HW1 1997   0.588   0.378   2.271  1.1442 -0.9166  1.6070
  666SOL    HW2 1998   0.566   0.250   2.375  1.2117 -0.6236 -1.4040
  667SOL     OW 1999   1.838   1.386   2.163  0.0837  0.3257  0.0681
  667SOL    HW1 2000   1.908   1.332   2.110 -1.4281 -1.9232 -0.2017
  667SOL    HW2 2001   1.848   1.363   2.265 -0.3867  0.7625 -0.2409
  668SOL     OW 2002   3.083   1.639   2.516 -0.4623  0.4122  0.1090
  668SOL    HW1 2003   2.992   1.603   2.535  1.0882  0.4210 -0.2354
  668SOL    HW2 2004   0.069   1.577   2.545  0.5788 -1.8860  1.2700
  669SOL     OW 2005   2.219   0.138   2.329  0.1868  0.6811 -0.2995
  669SOL    HW1 2006   2.132   0.101   2.364  2.2593  0.6195 -0.1482
  669SOL    HW2 2007   2.241   0.216   2.383 -3.5804 -2.1729 -0.5161
  670SOL     OW 2008   2.708   1.072   2.214  0.2493  0.3039  0.3463
  670SOL    HW1 2009   2.800   1.056   2.169  0.4144  0.3479  0.7870
  670SOL    HW2 2010   2.645   0.994   2.217  2.7802  0.8855  2.4444
  671SOL     OW 2011   2.645   1.884   0.020  0.0047  0.1272  0.3521
  671SOL    HW1 2012   2.665   1.795   3.057 -1.6882  2.0235  1.8166
  671SOL    HW2 2013   2.551   1.882   0.063 -0.1082 -1.2744 -1.1921
  672SOL     OW 2014   2.076   1.652   2.167 -0.1641  0.5972  0.0368
  672SOL    HW1 2015   2.160   1.710   2.161  1.2203  0.2746 -1.8038
  672SOL    HW2 2016   2.043   1.643   2.262  1.9099 -1.1006 -0.5776
  673SOL     OW 2017   2.871   1.745   0.944  0.5642 -0.3842 -0.1510
  673SOL    HW1 2018   2.808   1.821   0.912  2.8609  1.6550 -0.9646
  673SOL    HW2 2019   2.904   1.768   1.037  2.6352 -1.4372 -2.5111
  674SOL     OW 2020   1.009   2.037   1.840  0.2597  0.7009  0.6956
  674SOL    HW1 2021   1.012   1.965   1.914  1.3554 -0.1093 -2.5731
  674SOL    HW2 2022   0.924   2.051   1.785 -0.3438 -1.2030 -1.3930
  675SOL     OW 2023   2.647   0.737   0.751 -0.2645  0.0001 -0.0065
  675SOL    HW1 2024   2.699   0.750   0.836 -1.9142 -0.8684 -1.2673
  675SOL    HW2 2025   2.550   0.715   0.760 -2.7388 -1.2632 -0.5154
  676SOL     OW 2026   3.033   1.353   0.708  0.0123 -0.3355  0.6366
  676SOL    HW1 2027   2.995   1.260   0.721 -2.2983 -1.5225  0.1282
  676SOL    HW2 2028   2.992   1.416   0.783  0.7825  2.4845  3.5694
  677SOL     OW 2029   1.724   1.625   2.369 -0.3229  0.6823  0.7823
  677SOL    HW1 2030   1.734   1.601   2.269  1.0743 -0.9348  2.3230
  677SOL    HW2 2031   1.695   1.718   2.389 -1.2604 -2.8928  0.0768
  678SOL     OW 2032   2.603   1.400   0.815  0.0894  0.4551  0.4827
  678SOL    HW1 2033   2.562   1.362   0.727 -0.0103 -0.5034 -1.3075
  678SOL    HW2 2034   2.579   1.500   0.827  1.6318 -0.1540 -2.1805
  679SOL     OW 2035   0.484   2.170   0.826 -0.0153 -0.2441  0.3206
  679SOL    HW1 2036   0.532   2.245   0.775  0.4950 -0.4991  3.5485
  679SOL    HW2 2037   0.551   2.099   0.845 -0.0010  1.8325 -0.7480
  680SOL     OW 2038   2.958   1.838   1.174 -0.2754  0.4092  0.0202
  680SOL    HW1 2039   3.039   1.892   1.140  1.3577 -1.2317 -1.6930
  680SOL    HW2 2040   2.923   1.861   1.268  0.3586 -0.8126 -0.6170
  681SOL     OW 2041   0.948   0.521   1.317  0.1619 -0.3433  0.5364
  681SOL    HW1 2042   0.940   0.622   1.354 -0.7407  2.9303 -1.2482
  681SOL    HW2 2043   1.019   0.466   1.368 -0.9162  0.5601 -0.9613
  682SOL     OW 2044   1.660   2.822   1.207  0.2730  0.0245  0.4479
  682SOL    HW1 2045   1.693   2.785   1.293 -1.1692  0.0535 -4.4583
  682SOL    HW2 2046   1.619   2.916   1.218  1.8414  2.2611  1.6633
  683SOL     OW 2047   2.225   1.393   1.489  0.1262 -0.9674 -0.2477
  683SOL    HW1 2048   2.246   1.492   1.495  0.6259 -0.2476 -0.3081
  683SOL    HW2 2049   2.304   1.341   1.525  0.3472 -0.2561 -2.9655
  684SOL     OW 2050   0.102   1.717   1.678 -0.2135  0.1307  0.4840
  684SOL    HW1 2051   0.017   1.671   1.723 -1.5958 -1.8155  2.5064
  684SOL    HW2 2052   0.189   1.685   1.719 -2.3357 -1.2616  0.8928
  685SOL     OW 2053   2.003   1.792   0.121 -0.1342  0.2297 -0.1748
  685SOL    HW1 2054   1.995   1.863   0.196 -0.2896 -0.4253  1.3521
  685SOL    HW2 2055   1.922   1.742   0.098  1.8798  3.3502  1.6011
  686SOL     OW 2056   2.677   0.182   0.869 -0.6489 -0.3643 -0.2472
  686SOL    HW1 2057   2.677   0.287   0.846 -1.3601 -0.3317 -1.6156
  686SOL    HW2 2058   2.590   0.143   0.831  1.3233 -0.4126 -1.2665
  687SOL     OW 2059   1.553   0.112   2.603  0.1677 -0.0963 -0.1354
  687SOL    HW1 2060   1.536   0.026   2.553 -2.2205  0.6007  2.4236
  687SOL    HW2 2061   1.584   0.105   2.700  0.4167 -0.3894 -1.5487
  688SOL     OW 2062   1.226   2.131   2.272  0.1808 -0.1168 -0.0549
  688SOL    HW1 2063   1.323   2.160   2.258 -2.2833  0.3467 -0.5283
  688SOL    HW2 2064   1.177   2.141   2.183  3.0093  2.5009 -0.0460
  689SOL     OW 2065   2.525   1.596   1.855 -0.4620 -0.2310 -0.2199
  689SOL    HW1 2066   2.538   1.690   1.829  0.6052 -2.8079 -1.2209
  689SOL    HW2 2067   2.613   1.544   1.880  0.7448  1.0633 -0.0533
  690SOL     OW 2068   1.838   1.832   1.231  0.3561 -0.5595  0.3851
  690SOL    HW1 2069   1.754   1.876   1.186  3.2064  0.1454  0.2354
  690SOL    HW2 2070   1.817   1.738   1.260  2.3171  1.9746 -3.0335
  691SOL     OW 2071   0.196   1.376   0.572 -0.0453 -0.0784 -0.2171
  691SOL    HW1 2072   0.182   1.321   0.487  0.3886 -2.5513 -1.0964
  691SOL    HW2 2073   0.117   1.373   0.634  0.7563 -0.9786 -3.3449
  692SOL     OW 2074   2.252   2.900   2.286  0.0269  0.4211  0.2818
  692SOL    HW1 2075   2.300   2.978   2.327 -0.0647 -1.0582  0.6424
  692SOL    HW2 2076   2.246   2.823   2.353  0.9163 -1.1501 -0.0043
  693SOL     OW 2077   3.041   1.645   2.236 -0.5285  0.7130 -0.4511
  693SOL    HW1 2078   3.070   1.547   2.227 -0.7969  1.2916 -0.5139
  693SOL    HW2 2079   3.039   1.671   2.334  1.4583 -1.6841  0.3356
  694SOL     OW 2080   2.137   0.304   1.690 -0.1884 -0.0931 -0.1376
  694SOL    HW1 2081   2.120   0.214   1.664  2.9680  0.0554 -0.5476
  694SOL    HW2 2082   2.238   0.318   1.694 -1.4339  0.0528 -1.4521
  695SOL     OW 2083   1.034   0.878   2.774  0.0243 -0.0261  0.9852
  695SOL    HW1 2084   1.006   0.831   2.689  1.1598 -1.7111 -1.6716
  695SOL    HW2 2085   1.095   0.956   2.759 -0.5829 -1.2888  1.5708
  696SOL     OW 2086   1.805   0.048   1.796 -0.3274 -0.8364 -0.4437
  696SOL    HW1 2087   1.834   0.142   1.777 -1.9125 -0.7031  0.6188
  696SOL    HW2 2088   1.733   0.017   1.729 -0.6108  1.9194  1.5173
  697SOL     OW 2089   1.677   0.066   2.072  0.1779  0.5082 -0.3074
  697SOL    HW1 2090   1.738   0.143   2.096  1.0420 -1.4118  1.0256
  697SOL    HW2 2091   1.716   0.027   1.986  0.1407  0.6598 -1.7361
  698SOL     OW 2092   1.796   1.650   2.087 -0.0536  0.1921  0.2064
  698SOL    HW1 2093   1.882   1.697   2.104 -0.7483 -2.4748 -1.4471
  698SOL    HW2 2094   1.818   1.553   2.099  0.2147  1.1450  0.1621
  699SOL     OW 2095   2.043   0.698   0.266  0.0869 -0.1408  0.2853
  699SOL    HW1 2096   1.953   0.650   0.252  0.6548  0.0807 -2.0830
  699SOL    HW2 2097   2.023   0.777   0.326 -1.8120 -1.4512  0.5446
  700SOL     OW 2098   1.226   0.334   0.468 -0.1435 -0.2057  0.3749
  700SOL    HW1 2099   1.190   0.430   0.455 -2.9763  1.2964 -0.2461
  700SOL    HW2 2100   1.230   0.293   0.374 -1.2294  0.5656 -1.5758
  701SOL     OW 2101   0.007   0.600   0.971 -0.0676 -0.2463  0.5464
  701SOL    HW1 2102   3.081   0.503   0.963  1.9019  4.4631 -2.4264
  701SOL    HW2 2103   0.055   0.642   0.889  0.7091  0.8032 -2.7202
  702SOL     OW 2104   1.861   3.059   1.413 -0.7073 -1.1871 -0.2290
  702SOL    HW1 2105   1.822   2.965   1.431 -0.7516  0.1345 -0.2029
  702SOL    HW2 2106   1.790   0.049   1.418 -0.6251  1.7711 -2.1180
  703SOL     OW 2107   2.797   0.939   1.320  0.1212 -0.7645 -0.5372
  703SOL    HW1 2108   2.890   0.916   1.307 -3.4735  0.9072 -0.4704
  703SOL    HW2 2109   2.770   1.003   1.248 -0.9365 -2.3183 -1.1234
  704SOL     OW 2110   1.069   2.568   1.383 -0.0418  0.5742  0.0821
  704SOL    HW1 2111   1.098   2.633   1.308 -0.2308 -2.3282 -0.5839
  704SOL    HW2 2112   1.082   2.472   1.353 -0.3110  2.4249 -0.6522
  705SOL     OW 2113   0.222   1.506   2.634 -0.3317  0.0094  0.0453
  705SOL    HW1 2114   0.288   1.542   2.570  2.0818  0.9870  0.7753
  705SOL    HW2 2115   0.217   1.558   2.719  1.3283 -2.3784 -1.5696
  706SOL     OW 2116   2.834   0.130   0.140  0.3703 -0.0003  0.4442
  706SOL    HW1 2117   2.857   0.088   0.049 -1.4645 -0.4487 -1.6067
  706SOL    HW2 2118   2.896   0.095   0.214 -2.9271  0.6545 -0.9747
  707SOL     OW 2119   1.501   2.579   2.504  0.8793  0.8363 -0.2548
  707SOL    HW1 2120   1.456   2.619   2.421  3.0097  1.2971  2.9222
  707SOL    HW2 2121   1.438   2.505   2.539 -3.9497 -3.2393  2.0776
  708SOL     OW 2122   0.210   2.691   1.716 -0.0076 -0.3992 -0.0438
  708SOL    HW1 2123   0.175   2.606   1.762  0.8262  1.6006 -0.9653
  708SOL    HW2 2124   0.193   2.691   1.614  0.5383  0.6177 -0.4165
  709SOL     OW 2125   0.315   0.961   1.921 -0.1122 -0.5352 -0.0356
  709SOL    HW1 2126   0.212   0.982   1.895 -0.8491  1.0669  0.1516
  709SOL    HW2 2127   0.339   0.877   1.875  0.7494  1.2235 -0.1521
  710SOL     OW 2128   2.943   0.660   1.176 -0.0579  0.2200  0.2562
  710SOL    HW1 2129   3.004   0.641   1.096  1.8742 -1.5082  0.6208
  710SOL    HW2 2130   2.981   0.739   1.227  0.8410 -0.2608  0.3596
  711SOL     OW 2131   2.846   2.709   1.195 -0.0806 -0.0492  0.7006
  711SOL    HW1 2132   2.930   2.652   1.192 -0.6856  0.5220  0.7451
  711SOL    HW2 2133   2.762   2.649   1.200 -0.2453 -2.7105  1.2691
  712SOL     OW 2134   0.320   0.094   2.595 -0.3310  0.2701 -0.2192
  712SOL    HW1 2135   0.252   0.072   2.670 -1.3713 -1.1736  2.8759
  712SOL    HW2 2136   0.374   0.010   2.572 -1.4322 -2.0438  0.5844
  713SOL     OW 2137   2.397   0.108   0.438 -0.6898  0.0262 -0.1718
  713SOL    HW1 2138   2.302   0.144   0.449  0.0173  2.4699 -1.4521
  713SOL    HW2 2139   2.445   0.175   0.378 -1.3631 -0.5216 -0.5662
  714SOL     OW 2140   1.743   1.662   0.157 -0.0572  0.5275 -0.4627
  714SOL    HW1 2141   1.700   1.715   0.232 -1.3730 -2.7435 -2.0190
  714SOL    HW2 2142   1.749   1.566   0.182 -1.2549  3.2398 -2.0070
  715SOL     OW 2143   0.020   0.263   0.633 -0.4684 -0.4448 -0.4332
  715SOL    HW1 2144   0.014   0.165   0.608 -0.9299 -0.5832  3.0472
  715SOL    HW2 2145   3.050   0.272   0.719 -0.9756 -2.6257  0.2091
  716SOL     OW 2146   1.083   0.640   1.790  0.3471 -0.5546  0.0138
  716SOL    HW1 2147   1.177   0.669   1.758 -0.2137  0.6747 -1.6846
  716SOL    HW2 2148   1.072   0.639   1.889 -0.5902 -2.1517 -0.8919
  717SOL     OW 2149   0.572   0.647   2.813  0.5109 -0.5524 -0.6666
  717SOL    HW1 2150   0.482   0.690   2.788  0.3644  1.5821 -0.7606
  717SOL    HW2 2151   0.625   0.706   2.872 -4.2066 -3.0136 -0.6418
  718SOL     OW 2152   1.054   0.711   0.158 -0.0135  0.9125 -0.3337
  718SOL    HW1 2153   1.083   0.795   0.115  0.0152 -2.8759  2.4665
  718SOL    HW2 2154   1.108   0.624   0.131  0.5302 -5.2814  0.4592
  719SOL     OW 2155   2.498   2.418   2.685 -0.5337  0.0001  0.0828
  719SOL    HW1 2156   2.467   2.352   2.757  1.3735  0.0649 -3.5165
  719SOL    HW2 2157   2.427   2.422   2.612  3.1217 -1.9145  2.6107
  720SOL     OW 2158   1.417   0.708   1.377  0.2027  0.1893  0.9139
  720SOL    HW1 2159   1.336   0.746   1.420  1.8466 -0.1523 -1.0630
  720SOL    HW2 2160   1.426   0.608   1.389 -1.4512  2.1669 -2.5810
  721SOL     OW 2161   2.945   2.950   1.041 -0.4364  0.2457 -0.1070
  721SOL    HW1 2162   2.914   3.034   1.086 -0.6902 -1.6366 -1.5471
  721SOL    HW2 2163   2.908   2.871   1.092 -2.3637  0.8536  2.4336
  722SOL     OW 2164   1.257   1.575   2.617  0.5924 -0.3374 -0.2110
  722SOL    HW1 2165   1.163   1.609   2.629  1.2925  0.8518 -0.6324
  722SOL    HW2 2166   1.299   1.546   2.712  2.1783  0.3580  3.5583
  723SOL     OW 2167   2.317   0.215   0.909  0.3418  0.3826 -0.3298
  723SOL    HW1 2168   2.374   0.137   0.871 -1.3518 -0.7323 -0.1205
  723SOL    HW2 2169   2.366   0.260   0.984 -0.1143  1.0386 -2.0527
  724SOL     OW 2170   0.794   2.263   0.076  0.0977  0.4222  0.2678
  724SOL    HW1 2171   0.790   2.175   0.130 -0.5501 -2.5847  2.4030
  724SOL    HW2 2172   0.845   2.336   0.127  0.6001 -1.1249  0.6954
  725SOL     OW 2173   0.188   1.076   1.212 -0.0530  0.1594  0.4164
  725SOL    HW1 2174   0.192   1.090   1.313 -0.5229 -4.1846 -1.8260
  725SOL    HW2 2175   0.274   1.027   1.178 -1.5504 -1.5109 -0.4831
  726SOL     OW 2176   2.439   0.574   0.209  0.1599 -0.4864 -0.2877
  726SOL    HW1 2177   2.423   0.658   0.268  0.6604  1.5109  1.2678
  726SOL    HW2 2178   2.506   0.598   0.136  0.2885  0.6482 -1.2888
  727SOL     OW 2179   1.882   1.227   2.713  0.0865  0.4818  0.6458
  727SOL    HW1 2180   1.882   1.318   2.659  1.2802  1.0603 -1.4931
  727SOL    HW2 2181   1.949   1.163   2.669  0.8730 -0.4946 -0.5040
  728SOL     OW 2182   1.793   2.800   1.447  0.4428 -0.0746 -0.3028
  728SOL    HW1 2183   1.865   2.739   1.409  1.3909 -1.8019  0.1774
  728SOL    HW2 2184   1.761   2.757   1.534  3.4958 -1.4773 -2.0412
  729SOL     OW 2185   2.369   0.780   2.072  0.2611 -0.3062 -0.4337
  729SOL    HW1 2186   2.420   0.828   2.148 -1.1620  0.6527  0.1150
  729SOL    HW2 2187   2.265   0.792   2.083 -1.2732  0.8871  0.7122
  730SOL     OW 2188   1.229   0.858   1.500  0.7742  0.4087 -0.1581
  730SOL    HW1 2189   1.140   0.832   1.461  1.5380 -1.3742 -1.8438
  730SOL    HW2 2190   1.270   0.942   1.465  1.0836  1.5334 -0.0077
  731SOL     OW 2191   0.514   0.542   0.113 -0.1333  0.2506 -0.1372
  731SOL    HW1 2192   0.596   0.588   0.147  0.1285 -0.2883  2.2176
  731SOL    HW2 2193   0.451   0.606   0.058 -0.9404  0.0646 -0.2979
  732SOL     OW 2194   0.328   0.494   0.325 -0.5519  0.0383  0.1085
  732SOL    HW1 2195   0.361   0.537   0.238  0.4228  0.4292 -3.1564
  732SOL    HW2 2196   0.401   0.425   0.359  0.8363 -1.1540 -0.5213
  733SOL     OW 2197   1.832   1.475   2.626 -0.0295 -0.2468 -0.0117
  733SOL    HW1 2198   1.734   1.507   2.614  1.2723  2.1954  0.8020
  733SOL    HW2 2199   1.887   1.539   2.679  0.1737  2.8293 -0.6266
  734SOL     OW 2200   0.249   1.961   2.715  0.1423 -0.1854 -0.6010
  734SOL    HW1 2201   0.239   1.919   2.808  1.4076  0.5795  1.4089
  734SOL    HW2 2202   0.257   2.062   2.723 -1.6407  2.0300 -1.2469
  735SOL     OW 2203   1.783   0.402   0.947 -0.4960 -0.0842  0.3275
  735SOL    HW1 2204   1.761   0.449   0.858  1.5893  1.6115  1.9473
  735SOL    HW2 2205   1.881   0.416   0.974  1.8710  0.5218 -0.5359
  736SOL     OW 2206   1.806   1.727   2.979 -0.1014 -0.2450 -0.3897
  736SOL    HW1 2207   1.766   1.688   3.065 -3.6059 -0.3974 -1.1482
  736SOL    HW2 2208   1.795   1.829   2.980 -0.2341 -0.9576  0.8889
  737SOL     OW 2209   2.926   0.363   0.411  0.6842 -0.0343 -0.3289
  737SOL    HW1 2210   2.869   0.436   0.458 -2.6639  2.7708  0.6010
  737SOL    HW2 2211   2.992   0.326   0.476 -1.9565  1.9302 -2.7255
  738SOL     OW 2212   0.569   2.142   1.832  0.4331  0.0529  0.2638
  738SOL    HW1 2213   0.641   2.192   1.883  0.4228  2.2862 -0.6590
  738SOL    HW2 2214   0.511   2.210   1.780  1.9751 -0.6452 -2.3252
  739SOL     OW 2215   1.302   2.580   2.084 -0.1806 -0.5528  0.4007
  739SOL    HW1 2216   1.280   2.603   1.984 -1.7744 -1.9831  0.5667
  739SOL    HW2 2217   1.219   2.587   2.144  1.2638 -0.3511 -1.2595
  740SOL     OW 2218   2.062   2.307   1.544 -0.7619  0.5567 -0.2937
  740SOL    HW1 2219   1.968   2.279   1.536  1.9497 -1.4804 -0.5649
  740SOL    HW2 2220   2.069   2.375   1.622 -1.2657  1.9547  0.1891
  741SOL     OW 2221   2.210   0.478   0.285  0.4605 -0.2127 -0.0215
  741SOL    HW1 2222   2.307   0.515   0.265  0.3037 -2.4033  0.5542
  741SOL    HW2 2223   2.140   0.556   0.298 -1.2019  0.0721 -0.5613
  742SOL     OW 2224   1.224   2.297   0.128  0.2799  0.4656 -0.0512
  742SOL    HW1 2225   1.271   2.216   0.170  2.4564  1.1224  2.0657
  742SOL    HW2 2226   1.165   2.265   0.050 -0.5113 -0.2913 -0.6907
  743SOL     OW 2227   2.441   1.070   1.808 -0.4013  0.4034  0.6136
  743SOL    HW1 2228   2.447   1.130   1.890  1.5758  0.3012 -0.1844
  743SOL    HW2 2229   2.363   1.001   1.810  0.8445 -0.4313 -1.5648
  744SOL     OW 2230   2.662   0.394   0.705 -0.0329  0.0834  0.2632
  744SOL    HW1 2231   2.669   0.311   0.642  0.8741 -3.4130  0.9329
  744SOL    HW2 2232   2.709   0.469   0.657 -1.0564  1.9245 -0.5340
  745SOL     OW 2233   2.427   1.266   1.620  0.4609  0.5178 -0.0497
  745SOL    HW1 2234   2.432   1.181   1.678 -1.6014 -0.4763  1.0498
  745SOL    HW2 2235   2.488   1.336   1.654 -1.4463 -2.7631 -1.2770
  746SOL     OW 2236   1.409   1.308   0.819  0.5613  0.1578  0.3207
  746SOL    HW1 2237   1.423   1.381   0.887 -1.7844 -0.6786 -1.6389
  746SOL    HW2 2238   1.334   1.342   0.758 -1.9587  0.4051  1.2189
  747SOL     OW 2239   1.107   1.726   1.616 -0.1968 -0.2611  0.1340
  747SOL    HW1 2240   1.142   1.819   1.643 -0.8787 -1.4322 -1.6752
  747SOL    HW2 2241   1.123   1.654   1.685  0.0133 -0.1473  0.9070
  748SOL     OW 2242   0.243   2.897   2.997 -0.2536  0.0069  0.5821
  748SOL    HW1 2243   0.343   2.891   3.001 -1.2403 -1.0452  1.6934
  748SOL    HW2 2244   0.211   2.889   0.011  0.4136  2.7282  1.4056
  749SOL     OW 2245   0.271   1.264   2.541 -0.2055 -0.9163 -0.3717
  749SOL    HW1 2246   0.290   1.271   2.442  1.3548 -2.0574  2.9690
  749SOL    HW2 2247   0.245   1.354   2.582 -0.4571 -0.5836  4.1065
  750SOL     OW 2248   1.927   0.888   1.863 -0.2356 -0.1386 -0.4653
  750SOL    HW1 2249   1.864   0.813   1.841  1.2601 -1.3860 -2.2788
  750SOL    HW2 2250   1.874   0.976   1.863  1.0220 -1.5875  2.7159
  751SOL     OW 2251   2.543   0.304   0.273  0.2306 -0.0557 -0.0929
  751SOL    HW1 2252   2.539   0.265   0.177 -0.1525 -1.3852 -0.6874
  751SOL    HW2 2253   2.518   0.401   0.265  1.3589 -0.0258  0.2836
  752SOL     OW 2254   0.324   2.420   0.932  0.6369  0.0704 -0.0732
  752SOL    HW1 2255   0.385   2.390   1.008 -0.8812  0.9224  1.8984
  752SOL    HW2 2256   0.270   2.335   0.902 -1.8166 -2.1601  1.7878
  753SOL     OW 2257   0.720   2.413   1.028 -0.6039  0.2256 -0.1504
  753SOL    HW1 2258   0.679   2.496   0.987 -1.9134 -0.2552 -1.2186
  753SOL    HW2 2259   0.814   2.425   1.057 -0.1414  1.0919  4.8839
  754SOL     OW 2260   0.159   2.947   1.823 -0.2774 -0.6800 -0.5316
  754SOL    HW1 2261   0.072   3.000   1.825  0.6396  2.3698 -3.4762
  754SOL    HW2 2262   0.153   2.855   1.783  1.9970 -0.0618  1.7356
  755SOL     OW 2263   2.166   0.273   0.475 -0.1995  0.1768  0.4368
  755SOL    HW1 2264   2.163   0.351   0.407  1.7146  0.0584 -0.1272
  755SOL    HW2 2265   2.162   0.308   0.571  0.7276 -0.9470 -3.4593
  756SOL     OW 2266   2.140   2.330   2.636  0.0244  0.0289  0.0070
  756SOL    HW1 2267   2.142   2.395   2.713  1.3446 -0.8385  0.2293
  756SOL    HW2 2268   2.206   2.356   2.564 -2.3342 -1.8788  2.4539
  757SOL     OW 2269   1.900   0.243   0.632  0.8311  0.2454 -0.6282
  757SOL    HW1 2270   1.994   0.221   0.665 -2.9255  0.5361  2.1329
  757SOL    HW2 2271   1.868   0.331   0.679  0.2424 -0.1797  0.2812
  758SOL     OW 2272   2.165   0.432   1.417  0.2837  0.6238 -0.2566
  758SOL    HW1 2273   2.262   0.417   1.389  2.2214  1.2563  1.2283
  758SOL    HW2 2274   2.163   0.419   1.520 -1.6023 -3.1464 -0.4104
  759SOL     OW 2275   2.473   0.422   1.044 -0.0934 -0.2452  0.0832
  759SOL    HW1 2276   2.556   0.464   1.087  1.0028  2.0005 -0.2506
  759SOL    HW2 2277   2.468   0.448   0.944 -0.0953  0.1545 -0.0325
  760SOL     OW 2278   2.220   1.168   1.091 -0.1691 -0.4316  0.1247
  760SOL    HW1 2279   2.162   1.234   1.144 -2.1395 -1.3915 -0.5563
  760SOL    HW2 2280   2.277   1.114   1.153 -0.2712  0.5668  0.5112
  761SOL     OW 2281   0.726   0.687   0.461 -0.0623 -0.3402  0.0886
  761SOL    HW1 2282   0.739   0.666   0.362  1.8072 -0.9203  0.1213
  761SOL    HW2 2283   0.634   0.733   0.476 -3.9899 -0.0631 -1.6660
  762SOL     OW 2284   0.996   1.763   0.654  0.0488 -0.3703 -0.0135
  762SOL    HW1 2285   0.974   1.704   0.576 -1.1637  0.8462 -0.0716
  762SOL    HW2 2286   0.933   1.847   0.666 -2.1045  1.3964  0.3901
  763SOL     OW 2287   1.364   1.074   1.395  0.4272  0.1731 -0.2290
  763SOL    HW1 2288   1.405   1.127   1.322 -1.7058 -1.6495  1.7078
  763SOL    HW2 2289   1.323   1.138   1.464 -4.2638  0.2583 -1.4589
  764SOL     OW 2290   0.529   1.887   2.719  0.1434  0.0117 -0.3443
  764SOL    HW1 2291   0.528   1.815   2.647 -1.2402  0.4921  2.3657
  764SOL    HW2 2292   0.437   1.926   2.716 -0.7645 -0.2089  2.3362
  765SOL     OW 2293   0.497   2.688   1.801  0.1311 -0.0528 -0.1317
  765SOL    HW1 2294   0.399   2.689   1.776  1.3106  0.0883 -1.4703
  765SOL    HW2 2295   0.546   2.764   1.751  0.8063 -0.7806 -0.2782
  766SOL     OW 2296   2.385   2.024   2.093  0.0086  0.1434 -0.6931
  766SOL    HW1 2297   2.482   2.057   2.086 -2.4221  1.9980  0.1902
  766SOL    HW2 2298   2.332   2.061   2.014 -0.6440  1.4567  2.7755
  767SOL     OW 2299   1.683   1.084   2.426 -0.2792  0.1533  0.2174
  767SOL    HW1 2300   1.730   1.005   2.476 -1.4051  1.6335 -0.1715
  767SOL    HW2 2301   1.624   1.138   2.491  2.0505 -1.5708  0.5616
  768SOL     OW 2302   1.685   1.843   0.359 -0.2477  0.0974 -0.2274
  768SOL    HW1 2303   1.764   1.855   0.423  1.5553  0.3791 -1.9236
  768SOL    HW2 2304   1.678   1.923   0.296  2.3372 -0.5194 -0.1969
  769SOL     OW 2305   0.397   1.341   1.495 -0.2311  0.4598  0.4046
  769SOL    HW1 2306   0.493   1.336   1.462 -2.0761 -1.4948  1.6969
  769SOL    HW2 2307   0.349   1.250   1.481 -1.7427 -1.8319  0.8143
  770SOL     OW 2308   1.516   0.888   2.942  0.1085 -0.6179  0.7310
  770SOL    HW1 2309   1.495   0.987   2.919 -0.0655  1.2500 -1.2404
  770SOL    HW2 2310   1.558   0.855   2.858 -1.2754 -1.5584  0.5926
  771SOL     OW 2311   0.134   2.900   2.255 -0.2665 -0.2514  0.0859
  771SOL    HW1 2312   0.182   2.851   2.332 -1.4302 -0.1220 -0.8391
  771SOL    HW2 2313   0.196   2.916   2.171  2.8406 -1.2697 -0.4896
  772SOL     OW 2314   1.913   1.876   1.769  0.4105  0.1214 -0.3806
  772SOL    HW1 2315   1.981   1.909   1.838  0.0747 -1.2312 -1.5646
  772SOL    HW2 2316   1.952   1.883   1.675  0.1480  3.1183  0.6426
  773SOL     OW 2317   0.581   1.453   1.724  0.0071  0.0455 -0.3069
  773SOL    HW1 2318   0.672   1.456   1.677  0.8712  0.2011  0.8502
  773SOL    HW2 2319   0.517   1.396   1.668 -2.7149  0.2873 -1.5979
  774SOL     OW 2320   1.307   0.712   2.880  0.1035  0.4245  0.6967
  774SOL    HW1 2321   1.373   0.785   2.900 -2.3078 -0.3947 -0.3215
  774SOL    HW2 2322   1.212   0.741   2.903  1.3858 -0.7518 -3.8941
  775SOL     OW 2323   1.999   2.931   0.009 -0.3018 -0.1036  0.0049
  775SOL    HW1 2324   1.923   2.995   0.041  0.3165 -0.5940  0.1455
  775SOL    HW2 2325   1.991   2.845   0.061 -0.7020  3.5486 -1.7178
  776SOL     OW 2326   0.368   0.724   1.767  0.1331 -0.0073  0.0031
  776SOL    HW1 2327   0.280   0.677   1.790 -0.3622  1.6980  0.6312
  776SOL    HW2 2328   0.443   0.690   1.825  0.7442  0.5322  1.7124
  777SOL     OW 2329   2.251   1.738   1.844 -0.2373  0.1858  0.5375
  777SOL    HW1 2330   2.194   1.654   1.851  0.3466  0.0688  0.8445
  777SOL    HW2 2331   2.274   1.770   1.935 -1.0640  0.3856 -3.1887
  778SOL     OW 2332   2.074   0.776   2.071 -0.1520  0.2168  0.0370
  778SOL    HW1 2333   2.104   0.689   2.028 -1.4671 -0.4082 -0.1805
  778SOL    HW2 2334   2.016   0.824   2.001 -1.4097 -2.7427 -2.0007
  779SOL     OW 2335   2.520   1.177   0.175  0.0858 -0.1142  0.6144
  779SOL    HW1 2336   2.560   1.273   0.170 -0.3853  0.1989  0.2020
  779SOL    HW2 2337   2.448   1.157   0.104  0.9710 -0.4403 -2.7558
  780SOL     OW 2338   2.680   0.436   2.471  0.1160 -0.1944 -0.0528
  780SOL    HW1 2339   2.650   0.452   2.568 -2.4132  1.6488  1.8315
  780SOL    HW2 2340   2.635   0.348   2.438 -0.6740 -1.7247 -0.8806
  781SOL     OW 2341   0.134   1.980   1.736 -0.5406  0.1612  0.4391
  781SOL    HW1 2342   0.229   2.005   1.697  1.6524  1.6307  0.8581
  781SOL    HW2 2343   0.106   1.885   1.714 -1.3559  0.5370 -0.0593
  782SOL     OW 2344   2.392   2.192   2.832  0.1811 -0.0326 -0.3731
  782SOL    HW1 2345   2.330   2.192   2.914 -2.8797 -1.4371  3.4843
  782SOL    HW2 2346   2.469   2.125   2.845 -2.8510  0.2911  0.3640
  783SOL     OW 2347   0.673   1.324   1.430 -0.4231  0.4722  0.3260
  783SOL    HW1 2348   0.712   1.402   1.480 -0.9905 -2.7588  1.6352
  783SOL    HW2 2349   0.698   1.335   1.331  0.6112  0.2815  0.5902
  784SOL     OW 2350   2.037   0.881   2.772 -0.3615 -0.4015  0.5673
  784SOL    HW1 2351   2.122   0.832   2.799  0.5780  0.4403  1.0700
  784SOL    HW2 2352   1.973   0.880   2.852  0.7805 -0.8368  1.2529
  785SOL     OW 2353   2.379   2.670   0.647  0.6263  0.9521 -0.1068
  785SOL    HW1 2354   2.403   2.572   0.625 -1.0770  1.3736  0.2234
  785SOL    HW2 2355   2.301   2.670   0.718  0.3556  0.7793  1.8049
  786SOL     OW 2356   0.631   2.270   2.440  0.0069 -0.2219 -0.7958
  786SOL    HW1 2357   0.555   2.209   2.400  0.4356  1.8344 -0.3238
  786SOL    HW2 2358   0.612   2.369   2.429 -1.3038 -3.3517  3.4048
  787SOL     OW 2359   1.378   0.684   1.101  0.0058 -0.0006  0.3619
  787SOL    HW1 2360   1.387   0.718   1.201  0.6035  0.2190  2.3836
  787SOL    HW2 2361   1.465   0.637   1.079  2.1953  1.1601  0.0876
  788SOL     OW 2362   0.138   0.618   0.470 -0.2975 -0.7572  0.1058
  788SOL    HW1 2363   0.209   0.563   0.422  0.0372  0.2838  3.6630
  788SOL    HW2 2364   0.073   0.664   0.409  1.9211  2.6230  2.5595
  789SOL     OW 2365   2.989   1.822   1.437  0.0630 -0.4201  0.3092
  789SOL    HW1 2366   3.062   1.757   1.409 -1.1815 -2.2860  0.1758
  789SOL    HW2 2367   3.028   1.919   1.432  1.8640 -0.8649  0.2548
  790SOL     OW 2368   1.426   0.859   1.907  0.4726 -0.5298  0.4969
  790SOL    HW1 2369   1.379   0.809   1.985 -0.1161  1.1187 -0.8052
  790SOL    HW2 2370   1.430   0.964   1.920  1.1262  3.4193  0.5657
  791SOL     OW 2371   1.558   0.464   0.587 -0.0451  0.2715 -0.0407
  791SOL    HW1 2372   1.528   0.378   0.542  1.2793  0.3555 -0.0460
  791SOL    HW2 2373   1.529   0.461   0.688  1.1370 -1.1306  1.3638
  792SOL     OW 2374   1.554   2.803   1.913 -0.0293  0.2227 -0.1759
  792SOL    HW1 2375   1.491   2.873   1.961  0.1539 -0.3624 -0.8508
  792SOL    HW2 2376   1.516   2.803   1.818 -0.6010  0.9893  0.5437
  793SOL     OW 2377   0.614   0.033   0.744  0.4179  0.1811  0.4532
  793SOL    HW1 2378   0.691   0.088   0.777 -2.2348 -0.9949 -2.5002
  793SOL    HW2 2379   0.533   0.094   0.743  0.5726 -2.1259 -0.3688
  794SOL     OW 2380   0.913   1.094   2.335 -0.3673 -0.4521 -0.5930
  794SOL    HW1 2381   0.905   1.029   2.263 -1.8862  1.7251 -0.7096
  794SOL    HW2 2382   0.990   1.159   2.311  3.2504 -1.9133 -0.6715
  795SOL     OW 2383   0.245   1.908   2.311 -0.5407  0.2528  0.1117
  795SOL    HW1 2384   0.218   1.925   2.214  2.4560  0.0533  1.2731
  795SOL    HW2 2385   0.164   1.896   2.377  0.7970  0.1397 -1.9767
  796SOL     OW 2386   2.483   1.202   2.046 -0.2417 -0.1567 -0.0472
  796SOL    HW1 2387   2.566   1.203   2.103 -2.3319  2.7523 -0.2128
  796SOL    HW2 2388   2.453   1.297   2.021  0.2785 -0.2573  0.1210
  797SOL     OW 2389   3.001   2.714   2.712 -0.2964  0.0750  0.2464
  797SOL    HW1 2390   3.074   2.671   2.763 -0.5333  0.7855  0.8531
  797SOL    HW2 2391   2.957   2.639   2.657 -0.3964 -0.1617 -0.0883
  798SOL     OW 2392   2.902   2.161   2.178 -0.2793  0.5888 -0.4231
  798SOL    HW1 2393   2.971   2.218   2.132 -0.9209 -0.4458  0.9172
  798SOL    HW2 2394   2.942   2.068   2.178  0.2721  0.4507 -2.8265
  799SOL     OW 2395   0.029   2.200   2.919  0.4213 -0.3508  0.2587
  799SOL    HW1 2396   0.019   2.126   2.984 -0.1686 -1.4415  0.6415
  799SOL    HW2 2397   3.041   2.203   2.848  1.9828  3.6770  1.1999
  800SOL     OW 2398   1.459   1.781   0.471 -0.1313 -0.0600  0.0014
  800SOL    HW1 2399   1.475   1.818   0.565 -0.8756  0.3068  0.8212
  800SOL    HW2 2400   1.550   1.793   0.421  0.7146 -1.8536 -1.1240
  801SOL     OW 2401   1.896   1.271   1.185  0.3695  0.2294  0.0466
  801SOL    HW1 2402   1.982   1.320   1.210 -0.1375 -1.1425 -2.7845
  801SOL    HW2 2403   1.890   1.179   1.232  0.7597  0.8711 -2.2378
  802SOL     OW 2404   3.009   1.373   0.283  0.2516  0.0616  0.0384
  802SOL    HW1 2405   2.999   1.467   0.327 -3.3510 -1.9011  0.1192
  802SOL    HW2 2406   2.943   1.305   0.318 -1.6474 -1.5886  3.1888
  803SOL     OW 2407   1.487   1.822   2.579 -0.1035  0.0987 -0.0609
  803SOL    HW1 2408   1.572   1.842   2.519  0.9049 -0.7507  0.0063
  803SOL    HW2 2409   1.405   1.863   2.536  1.2044  0.7904  3.0873
  804SOL     OW 2410   1.739   1.403   0.279 -0.5298  0.2145  0.4762
  804SOL    HW1 2411   1.698   1.385   0.367  1.7830 -1.7834 -4.1304
  804SOL    HW2 2412   1.844   1.394   0.283  1.6724  0.9334 -0.8725
  805SOL     OW 2413   2.417   1.627   2.465 -0.1928 -0.4890  0.3401
  805SOL    HW1 2414   2.431   1.595   2.368  0.3194  1.8615  0.2972
  805SOL    HW2 2415   2.459   1.716   2.480  1.2883  0.5649 -1.5814
  806SOL     OW 2416   0.343   2.964   0.244  0.0256  0.2209  0.1396
  806SOL    HW1 2417   0.403   3.050   0.244 -0.3574  1.9316 -1.3543
  806SOL    HW2 2418   0.386   2.893   0.189 -1.6385  3.1513  0.8380
  807SOL     OW 2419   1.965   1.372   2.912 -0.0468 -0.3895 -0.0033
  807SOL    HW1 2420   1.980   1.470   2.895 -1.6513  1.0507 -0.7785
  807SOL    HW2 2421   1.928   1.319   2.831 -0.3135 -0.9198  0.5075
  808SOL     OW 2422   2.936   1.602   0.415  0.1332 -0.0830 -0.6410
  808SOL    HW1 2423   2.891   1.559   0.498  0.6783 -0.3793  2.6554
  808SOL    HW2 2424   2.896   1.694   0.394  1.1973  1.6268 -2.1085
  809SOL     OW 2425   2.316   1.078   0.039  0.4080 -0.4411 -0.0168
  809SOL    HW1 2426   2.258   0.992   0.047 -0.4668 -3.9725 -1.5542
  809SOL    HW2 2427   2.258   1.156   0.002  1.0002  0.3435  2.5390
  810SOL     OW 2428   0.502   1.191   0.198  0.1278  0.1933 -0.5129
  810SOL    HW1 2429   0.516   1.263   0.128  1.5868 -0.5077 -0.2643
  810SOL    HW2 2430   0.414   1.137   0.181 -0.7078 -1.7024  0.4550
  811SOL     OW 2431   1.311   2.397   1.516 -0.1709 -0.2465 -0.5388
  811SOL    HW1 2432   1.317   2.487   1.468 -2.1296 -1.5728  1.3582
  811SOL    HW2 2433   1.386   2.387   1.583  1.5369  0.1078  0.8532
  812SOL     OW 2434   0.889   2.539   1.588 -0.1830  0.1294 -0.1144
  812SOL    HW1 2435   0.969   2.578   1.540 -0.5367  3.8931  0.2291
  812SOL    HW2 2436   0.809   2.533   1.526  0.7681  2.2887  5.2841
  813SOL     OW 2437   1.465   0.245   2.118 -0.1185  0.3701  0.6211
  813SOL    HW1 2438   1.546   0.182   2.112  1.2239  1.3317 -2.0663
  813SOL    HW2 2439   1.409   0.232   2.202 -0.9474  0.9015  1.1359
  814SOL     OW 2440   1.129   2.413   2.773  0.3745 -0.2460  0.1870
  814SOL    HW1 2441   1.062   2.362   2.712 -0.3963  2.1794 -0.5835
  814SOL    HW2 2442   1.216   2.417   2.720  0.9984 -0.9696 -2.6354
  815SOL     OW 2443   0.467   0.117   2.059  0.0939  0.1608  0.1896
  815SOL    HW1 2444   0.487   0.178   2.135 -1.4384  2.9951 -2.0263
  815SOL    HW2 2445   0.400   0.039   2.074  0.3902  0.7529  0.2813
  816SOL     OW 2446   2.195   0.486   2.926  0.1927  0.0628  0.2493
  816SOL    HW1 2447   2.214   0.590   2.915 -2.7208  0.9348 -0.1053
  816SOL    HW2 2448   2.113   0.458   2.872 -0.4626  1.1148  1.4393
  817SOL     OW 2449   2.379   0.465   2.203 -0.7119  0.4602 -0.3593
  817SOL    HW1 2450   2.318   0.503   2.131  2.6366 -2.4756  2.3165
  817SOL    HW2 2451   2.329   0.458   2.293 -1.4004  0.7206  0.5187
  818SOL     OW 2452   1.880   0.286   0.099 -0.3337  0.1137  0.5059
  818SOL    HW1 2453   1.972   0.294   0.132 -1.3004 -1.9277  1.3613
  818SOL    HW2 2454   1.868   0.349   0.018 -0.7841 -0.6198 -1.2589
  819SOL     OW 2455   2.137   1.866   2.795 -0.5588 -0.8516 -0.1477
  819SOL    HW1 2456   2.137   1.929   2.713  1.3856 -0.6846 -0.5929
  819SOL    HW2 2457   2.150   1.914   2.887  3.1373  0.5978  0.8178
  820SOL     OW 2458   0.061   2.020   0.053  0.4142 -0.9734  0.1651
  820SOL    HW1 2459   3.044   2.000   0.074 -1.1167 -1.5916  2.0296
  820SOL    HW2 2460   0.107   2.027   0.145 -0.6549 -0.0542  0.6729
  821SOL     OW 2461   0.379   2.799   0.744 -0.2946 -0.1432  0.3230
  821SOL    HW1 2462   0.477   2.804   0.773 -0.9430 -0.5023  0.9935
  821SOL    HW2 2463   0.360   2.844   0.658  1.8695  0.8832  0.2528
  822SOL     OW 2464   2.776   2.838   2.809  0.1567  0.4646 -0.3060
  822SOL    HW1 2465   2.687   2.796   2.781 -0.2097 -0.4366 -0.7902
  822SOL    HW2 2466   2.854   2.797   2.753  0.4139 -1.4351 -0.0287
  823SOL     OW 2467   1.371   0.327   2.587  0.5398 -0.0022 -0.1212
  823SOL    HW1 2468   1.408   0.238   2.618  0.2539 -1.1198  0.5523
  823SOL    HW2 2469   1.380   0.394   2.662 -2.8110 -0.1989 -0.9625
  824SOL     OW 2470   2.627   2.060   1.593  0.1140  0.1908  0.6693
  824SOL    HW1 2471   2.687   1.979   1.575  3.6548  0.2293 -0.8796
  824SOL    HW2 2472   2.677   2.150   1.602  3.5002  1.5259  0.6594
  825SOL     OW 2473   2.707   2.024   2.508 -0.3306 -0.2410 -0.1867
  825SOL    HW1 2474   2.798   2.063   2.519 -0.4863  0.3199 -0.1304
  825SOL    HW2 2475   2.663   2.051   2.420 -0.2549 -1.2921 -1.6929
  826SOL     OW 2476   2.503   1.547   2.219  0.0152 -0.4710 -0.0768
  826SOL    HW1 2477   2.592   1.506   2.228 -1.7829 -0.4811  0.0274
  826SOL    HW2 2478   2.446   1.513   2.144  1.3767  1.0830  2.8658
  827SOL     OW 2479   2.252   2.316   1.342 -0.3740 -0.4892  0.3120
  827SOL    HW1 2480   2.174   2.330   1.402  0.2612 -0.8441 -1.2534
  827SOL    HW2 2481   2.293   2.222   1.349  1.9225 -1.2209  2.3326
  828SOL     OW 2482   3.017   0.064   1.316  0.5077  0.1364  0.1731
  828SOL    HW1 2483   3.074   0.078   1.235 -1.0547  1.3048  0.1059
  828SOL    HW2 2484   3.028   0.135   1.390 -0.9289  0.3641 -2.6823
  829SOL     OW 2485   1.559   2.201   2.533  0.5173  0.3428  0.0302
  829SOL    HW1 2486   1.551   2.145   2.444 -0.1056 -2.0528 -2.6446
  829SOL    HW2 2487   1.653   2.239   2.538 -3.2510  0.9566 -1.6542
  830SOL     OW 2488   1.209   0.629   0.700 -0.1990 -0.4838  0.0641
  830SOL    HW1 2489   1.286   0.575   0.723 -0.1224  0.6683 -1.3701
  830SOL    HW2 2490   1.239   0.728   0.696  1.7597 -0.8331  0.2775
  831SOL     OW 2491   2.548   1.299   2.852  0.4684 -0.0767 -0.3281
  831SOL    HW1 2492   2.625   1.304   2.917 -0.5669 -1.2122  0.7084
  831SOL    HW2 2493   2.566   1.350   2.765 -3.1153 -1.9821  0.2646
  832SOL     OW 2494   1.434   2.005   1.852  0.5080 -0.3840  0.3432
  832SOL    HW1 2495   1.423   2.095   1.895 -1.5951 -2.7919 -0.5155
  832SOL    HW2 2496   1.522   1.987   1.804 -1.5858 -1.2912 -0.6585
  833SOL     OW 2497   0.097   0.376   1.999  0.1611 -0.1468 -0.6488
  833SOL    HW1 2498   0.011   0.324   1.983 -0.6741 -1.2054  0.2589
  833SOL    HW2 2499   0.114   0.383   2.101 -1.4391  0.9406  0.5729
  834SOL     OW 2500   0.998   1.164   1.631 -0.0267  0.4873 -0.0898
  834SOL    HW1 2501   0.995   1.144   1.531  0.1885  2.5546 -1.6971
  834SOL    HW2 2502   1.044   1.089   1.684  1.2907 -0.8539 -2.3438
  835SOL     OW 2503   2.787   0.938   2.800 -0.5462 -0.2626  0.6259
  835SOL    HW1 2504   2.688   0.965   2.784  0.2709 -2.6694  1.0773
  835SOL    HW2 2505   2.807   0.870   2.729 -1.1483  1.5081  0.5355
  836SOL     OW 2506   1.258   1.595   0.436  0.1899  0.2164 -0.1367
  836SOL    HW1 2507   1.184   1.646   0.391  2.1531  0.7974  0.6295
  836SOL    HW2 2508   1.327   1.659   0.468  0.8483 -2.3384  0.5794
  837SOL     OW 2509   1.460   1.276   1.248 -0.1148 -0.3798 -0.1668
  837SOL    HW1 2510   1.518   1.338   1.314  0.5342  0.6293 -0.0673
  837SOL    HW2 2511   1.398   1.334   1.190 -2.3928  1.8650 -0.7892
  838SOL     OW 2512   1.028   1.722   2.300 -0.2132  0.5661 -0.1031
  838SOL    HW1 2513   1.111   1.673   2.336 -0.0988 -1.1930 -1.5979
  838SOL    HW2 2514   1.015   1.809   2.338 -1.3390 -1.6918  1.0348
  839SOL     OW 2515   0.721   2.076   2.634 -0.3254  0.4747  0.0623
  839SOL    HW1 2516   0.652   2.010   2.677  0.1367  0.4198  0.0309
  839SOL    HW2 2517   0.674   2.139   2.570 -1.4916 -1.4818  0.8575
  840SOL     OW 2518   0.697   2.439   0.324 -0.2464  0.6504 -0.2231
  840SOL    HW1 2519   0.741   2.438   0.423 -1.4364 -0.2861  4.4333
  840SOL    HW2 2520   0.771   2.449   0.255 -0.2360  0.7686 -2.0786
  841SOL     OW 2521   1.933   2.514   0.095 -1.0909  0.1801 -0.4362
  841SOL    HW1 2522   1.885   2.493   0.187 -0.8606 -1.1047 -0.2138
  841SOL    HW2 2523   1.991   2.595   0.109 -2.3971 -1.8031 -2.0878
  842SOL     OW 2524   0.649   0.848   3.013 -0.2468 -0.0962  0.6448
  842SOL    HW1 2525   0.652   0.919   2.944  2.1209 -1.0257  1.2669
  842SOL    HW2 2526   0.741   0.815   3.030 -1.7504  1.3546  1.4211
  843SOL     OW 2527   1.257   0.227   0.732  0.0209 -0.0700  0.0773
  843SOL    HW1 2528   1.346   0.177   0.736 -0.7807 -0.0738  1.3274
  843SOL    HW2 2529   1.241   0.261   0.641  2.1772 -3.9335 -0.4213
  844SOL     OW 2530   2.510   2.825   2.462  0.5586  0.2093 -0.8654
  844SOL    HW1 2531   2.498   2.929   2.452 -0.9045  2.3062 -2.0691
  844SOL    HW2 2532   2.511   2.803   2.563 -2.1944 -0.7455  0.5160
  845SOL     OW 2533   2.792   2.234   1.061  0.3308  0.1769 -0.2821
  845SOL    HW1 2534   2.873   2.285   1.027 -2.9581 -1.8281  1.2802
  845SOL    HW2 2535   2.709   2.275   1.025  5.4991 -0.1935  1.5692
  846SOL     OW 2536   0.079   1.901   2.531 -0.0525 -0.4471  0.0201
  846SOL    HW1 2537   0.049   1.807   2.533  1.7410  2.1868 -2.0606
  846SOL    HW2 2538   0.146   1.917   2.611 -0.6770  1.0362 -1.5969
  847SOL     OW 2539   1.326   0.702   1.715 -1.1575 -0.0359  0.2188
  847SOL    HW1 2540   1.314   0.740   1.619 -1.4564  0.0004 -3.2498
  847SOL    HW2 2541   1.373   0.769   1.780 -2.1783  1.4292  4.9731
  848SOL     OW 2542   2.644   3.030   2.981 -0.1102 -0.2244 -0.2951
  848SOL    HW1 2543   2.592   2.970   3.043  0.0342 -0.4694  1.0602
  848SOL    HW2 2544   2.742   3.012   2.988  0.3302  0.9480  0.7779
  849SOL     OW 2545   0.604   2.848   2.745 -0.5005 -0.0999 -0.1983
  849SOL    HW1 2546   0.546   2.858   2.821  2.9441  0.0230 -1.3294
  849SOL    HW2 2547   0.694   2.892   2.768 -0.6643  2.8520 -1.3275
  850SOL     OW 2548   1.127   2.484   1.038  0.2537  0.1573  0.4019
  850SOL    HW1 2549   1.061   2.431   1.094  1.6120  1.1159  1.0906
  850SOL    HW2 2550   1.144   2.579   1.073 -1.4009 -0.1746 -0.1917
  851SOL     OW 2551   2.861   0.326   2.187  0.2553 -0.2500 -0.4744
  851SOL    HW1 2552   2.905   0.322   2.276 -1.0048  0.7150 -0.8524
  851SOL    HW2 2553   2.895   0.247   2.128  0.6523  1.8336 -2.2563
  852SOL     OW 2554   2.126   1.071   2.337  0.3998  0.5569  0.1114
  852SOL    HW1 2555   2.032   1.098   2.314  0.9464  0.7594 -1.7819
  852SOL    HW2 2556   2.143   1.079   2.434 -1.0964  0.1592  1.4691
  853SOL     OW 2557   2.879   0.035   0.575  0.3022  0.0686 -0.1089
  853SOL    HW1 2558   2.785   0.060   0.541 -0.6823  0.0332  0.0445
  853SOL    HW2 2559   2.868   3.056   0.657  0.4805 -2.6594  1.3823
  854SOL     OW 2560   2.187   0.941   1.830 -0.3842  0.0930 -0.0005
  854SOL    HW1 2561   2.207   0.983   1.921  1.7458 -0.4529 -1.4922
  854SOL    HW2 2562   2.087   0.931   1.820  1.3424  0.9836  1.0111
  855SOL     OW 2563   1.331   2.361   0.375 -0.2285 -0.2332 -0.3775
  855SOL    HW1 2564   1.270   2.329   0.300  1.8970  0.5728  0.8852
  855SOL    HW2 2565   1.272   2.400   0.451  0.0341 -1.1224  2.4881
  856SOL     OW 2566   2.987   0.294   2.659 -0.4497  0.2187  0.3319
  856SOL    HW1 2567   2.981   0.223   2.581  0.2136  0.7000  1.2550
  856SOL    HW2 2568   2.958   0.254   2.747  1.7507 -0.9797 -2.5031
  857SOL     OW 2569   1.338   3.037   1.805 -0.6418  0.0121  0.3964
  857SOL    HW1 2570   1.351   0.051   1.826 -2.1591 -1.1049 -0.3549
  857SOL    HW2 2571   1.339   2.988   1.893 -0.0296  0.6619 -1.9997
  858SOL     OW 2572   2.261   2.171   1.644  0.3414  0.0370 -0.1321
  858SOL    HW1 2573   2.322   2.118   1.584  1.1886  1.8405  1.6985
  858SOL    HW2 2574   2.197   2.240   1.598 -0.8805 -1.9173  0.0921
  859SOL     OW 2575   0.966   2.295   1.151 -0.1568  0.1497  0.2423
  859SOL    HW1 2576   0.970   2.210   1.090 -1.9929 -0.3772 -1.2605
  859SOL    HW2 2577   1.020   2.282   1.235 -2.5181 -0.5247 -2.3803
  860SOL     OW 2578   2.488   2.532   3.021 -0.0858 -0.0890  0.4669
  860SOL    HW1 2579   2.531   2.582   2.943 -1.3497  1.5200 -3.0521
  860SOL    HW2 2580   2.507   2.434   3.018 -0.3242 -0.0093 -0.4668
  861SOL     OW 2581   2.213   2.832   1.056 -0.4325  0.0219  0.6584
  861SOL    HW1 2582   2.116   2.839   1.094 -2.3199  0.8520  1.6673
  861SOL    HW2 2583   2.279   2.865   1.124 -0.5312 -0.2014 -3.0645
  862SOL     OW 2584   1.841   2.786   2.210 -0.0451  0.0612 -0.2442
  862SOL    HW1 2585   1.870   2.791   2.310 -1.7756 -2.1016  1.4621
  862SOL    HW2 2586   1.901   2.839   2.149 -2.1084 -2.4872  0.2674
  863SOL     OW 2587   0.154   0.673   0.755  0.2155  0.0214 -0.0427
  863SOL    HW1 2588   0.245   0.648   0.788 -0.5972  0.6376  0.7286
  863SOL    HW2 2589   0.141   0.641   0.659  2.0695  0.8194  1.5613
  864SOL     OW 2590   3.016   2.567   2.308  0.2107 -0.1881  0.6934
  864SOL    HW1 2591   0.031   2.544   2.322 -3.3679 -0.9558 -1.7803
  864SOL    HW2 2592   2.993   2.589   2.209 -0.1335  0.5753  0.6848
  865SOL     OW 2593   0.525   1.501   2.759 -0.3047 -0.0742  0.0333
  865SOL    HW1 2594   0.438   1.519   2.803  0.9634  1.2335  1.0189
  865SOL    HW2 2595   0.569   1.418   2.792 -0.9810  3.5233 -0.4469
  866SOL     OW 2596   2.852   0.755   2.622  0.2853 -0.0992 -0.1504
  866SOL    HW1 2597   2.915   0.808   2.558  1.3605 -0.0184 -2.5722
  866SOL    HW2 2598   2.892   0.675   2.664 -1.4126  1.8955  0.4618
  867SOL     OW 2599   0.148   0.018   2.822 -0.2512 -0.1500 -0.4463
  867SOL    HW1 2600   0.163   3.021   2.883 -1.6950 -1.1885  0.5380
  867SOL    HW2 2601   0.068   0.002   2.758 -0.9379  1.4682  0.5407
  868SOL     OW 2602   1.354   2.845   1.022 -0.0558  0.0094 -0.0719
  868SOL    HW1 2603   1.367   2.940   1.051  0.4089 -1.4069 -2.2341
  868SOL    HW2 2604   1.446   2.810   0.998 -1.7911  2.2357  3.4192
  869SOL     OW 2605   1.491   1.494   1.015  0.4063 -0.0415 -0.2427
  869SOL    HW1 2606   1.588   1.514   0.995  2.0300 -1.8951  3.1061
  869SOL    HW2 2607   1.449   1.567   1.076 -0.8019  2.2149  2.3874
  870SOL     OW 2608   1.987   1.995   1.059 -0.3491 -0.0491  0.3774
  870SOL    HW1 2609   2.083   1.984   1.035  0.5884 -1.3345  0.7765
  870SOL    HW2 2610   1.968   1.923   1.128  0.3395  0.3838  0.4894
  871SOL     OW 2611   0.734   1.787   1.662  0.3534 -0.1865  0.2436
  871SOL    HW1 2612   0.641   1.818   1.626 -0.7156 -0.6443 -1.0920
  871SOL    HW2 2613   0.780   1.872   1.706  0.5669  2.1658  2.4716
  872SOL     OW 2614   1.042   1.496   1.418  0.2309 -0.4976  0.3133
  872SOL    HW1 2615   1.047   1.518   1.318 -0.3490  0.8192 -0.2733
  872SOL    HW2 2616   1.135   1.478   1.454 -0.5238 -0.2945 -0.8711
  873SOL     OW 2617   1.170   1.103   2.733  0.2383 -0.4441 -0.3951
  873SOL    HW1 2618   1.151   1.192   2.690  0.4065  1.9945  0.1108
  873SOL    HW2 2619   1.242   1.114   2.807  0.0187 -0.6465 -2.2061
  874SOL     OW 2620   0.106   1.412   1.393  0.5556 -0.4676  0.6949
  874SOL    HW1 2621   0.102   1.483   1.319  0.4681 -0.6103  0.3495
  874SOL    HW2 2622   0.200   1.399   1.424 -0.2915 -0.2872 -2.3004
  875SOL     OW 2623   2.889   2.921   0.776  0.1115  0.6350 -0.2205
  875SOL    HW1 2624   2.918   2.929   0.875  0.6402  2.1262  1.8824
  875SOL    HW2 2625   2.849   2.826   0.763 -0.6686 -0.0317  2.1010
  876SOL     OW 2626   0.885   0.700   2.960  0.2360  0.0520 -0.0245
  876SOL    HW1 2627   0.935   0.613   2.975 -1.5651 -1.1872 -0.2546
  876SOL    HW2 2628   0.943   0.764   2.908  1.4968 -0.3452  0.5577
  877SOL     OW 2629   0.002   0.374   1.164 -0.0709 -0.3420 -0.6067
  877SOL    HW1 2630   2.993   0.368   1.208 -1.8435  0.3592  0.6086
  877SOL    HW2 2631   0.056   0.451   1.202 -0.5836  2.4702 -0.2910
  878SOL     OW 2632   1.673   2.578   3.050  0.0562  0.4002 -0.2197
  878SOL    HW1 2633   1.771   2.589   3.037 -2.8342  1.2600 -2.9273
  878SOL    HW2 2634   1.649   2.549   0.063 -1.2171 -1.4001  2.1014
  879SOL     OW 2635   2.314   1.687   1.551  0.3859  0.0614  0.0637
  879SOL    HW1 2636   2.295   1.696   1.655  1.8318  2.5439  2.5856
  879SOL    HW2 2637   2.292   1.779   1.509 -0.7260  2.6171 -1.4043
  880SOL     OW 2638   0.777   0.716   1.615 -0.4640  0.1441 -0.0208
  880SOL    HW1 2639   0.805   0.613   1.603  2.4514 -2.7523 -0.6967
  880SOL    HW2 2640   0.772   0.751   1.713  1.4016  1.8658 -0.8763
  881SOL     OW 2641   0.964   1.892   0.014 -0.0168  0.2603  0.1756
  881SOL    HW1 2642   0.880   1.877   3.046  0.0148 -0.1609 -1.6478
  881SOL    HW2 2643   1.052   1.897   3.043  2.8986 -1.6841  0.6868
  882SOL     OW 2644   2.020   0.961   1.541  0.1061  0.6093  0.4154
  882SOL    HW1 2645   2.106   0.909   1.515 -0.8010 -0.0513  1.7702
  882SOL    HW2 2646   1.941   0.892   1.548 -0.7790 -0.5608  1.3494
  883SOL     OW 2647   1.607   0.491   2.121 -0.3942 -0.1364  0.3071
  883SOL    HW1 2648   1.687   0.461   2.173  0.8892 -1.4048 -0.5423
  883SOL    HW2 2649   1.547   0.417   2.097  3.5465  3.6622  0.5678
  884SOL     OW 2650   2.513   0.199   0.023  0.3394  0.2707  0.6179
  884SOL    HW1 2651   2.429   0.202   3.055 -0.3262 -1.9615  2.9097
  884SOL    HW2 2652   2.576   0.126   3.073 -0.7005  1.1287 -1.9656
  885SOL     OW 2653   0.462   1.979   0.491  0.4769 -0.3256 -0.4303
  885SOL    HW1 2654   0.427   2.076   0.512  0.5742  0.7360  0.9679
  885SOL    HW2 2655   0.422   1.924   0.565  1.2331 -0.4294 -1.2496
  886SOL     OW 2656   1.597   1.263   0.101  0.4456 -0.0001 -0.4308
  886SOL    HW1 2657   1.531   1.196   0.145  0.3033 -1.0801 -0.3062
  886SOL    HW2 2658   1.650   1.312   0.173 -0.1238  1.1533  0.0726
  887SOL     OW 2659   1.466   0.418   1.733  0.5377 -0.1709  0.5380
  887SOL    HW1 2660   1.561   0.441   1.712 -0.9480 -1.3764  1.6175
  887SOL    HW2 2661   1.410   0.503   1.746  0.3895 -0.7039 -2.3568
  888SOL     OW 2662   2.820   1.223   1.524 -0.2245  0.2649 -0.3785
  888SOL    HW1 2663   2.891   1.195   1.455 -1.9134 -1.5010  1.2519
  888SOL    HW2 2664   2.727   1.221   1.484  1.1721 -1.5565 -0.8294
  889SOL     OW 2665   0.019   2.589   1.132  0.0280 -0.4126 -0.3620
  889SOL    HW1 2666   0.069   2.638   1.058  2.7762  0.8482 -0.7663
  889SOL    HW2 2667   0.084   2.532   1.194  2.4448 -0.1847  0.1403
  890SOL     OW 2668   0.197   2.521   2.359  0.6192 -1.0641  0.2515
  890SOL    HW1 2669   0.192   2.420   2.358  1.9571  0.8182 -2.6769
  890SOL    HW2 2670   0.181   2.546   2.457  1.0789  2.4454 -1.2338
  891SOL     OW 2671   0.403   1.750   0.252  0.1723  0.5792  0.1405
  891SOL    HW1 2672   0.463   1.832   0.267 -1.6877 -0.0477  0.8266
  891SOL    HW2 2673   0.424   1.686   0.330 -1.1936  1.3536 -2.7170
  892SOL     OW 2674   3.038   2.270   1.458  0.2669  0.0341  0.8164
  892SOL    HW1 2675   3.060   2.266   1.555  1.9415 -3.9201  0.4582
  892SOL    HW2 2676   2.939   2.256   1.434 -1.7497 -1.9341 -0.6293
  893SOL     OW 2677   0.345   3.037   1.659 -0.5087  0.3798 -0.0135
  893SOL    HW1 2678   0.266   3.015   1.714 -1.0687 -0.7426 -0.1320
  893SOL    HW2 2679   0.436   3.005   1.699 -0.4282  0.1893  0.0480
  894SOL     OW 2680   2.584   1.660   0.761 -0.2671 -0.5356 -0.1267
  894SOL    HW1 2681   2.608   1.761   0.785  3.6270  3.0849  1.9458
  894SOL    HW2 2682   2.655   1.618   0.697  1.7937 -1.4884 -0.8106
  895SOL     OW 2683   2.251   2.560   1.623  0.5828 -0.4172 -0.2825
  895SOL    HW1 2684   2.168   2.525   1.673 -0.0268 -0.6961  1.3795
  895SOL    HW2 2685   2.339   2.531   1.654  0.5025  0.3972 -0.6866
  896SOL     OW 2686   0.744   0.138   1.348 -0.0160 -0.4891 -0.0520
  896SOL    HW1 2687   0.734   0.217   1.409  0.6894 -0.1327  0.9279
  896SOL    HW2 2688   0.728   0.046   1.397  2.7246 -0.0699 -0.7335
  897SOL     OW 2689   0.808   1.349   1.190  0.2599 -0.2747  0.1914
  897SOL    HW1 2690   0.895   1.372   1.140 -0.6978  2.3376  1.4570
  897SOL    HW2 2691   0.732   1.408   1.154 -0.8230 -0.5323 -0.4928
  898SOL     OW 2692   1.684   2.621   1.641 -0.1957 -0.0748  0.1446
  898SOL    HW1 2693   1.683   2.564   1.728 -2.6020 -0.1555  0.7741
  898SOL    HW2 2694   1.713   2.556   1.570 -0.4051  0.7958 -0.6061
  899SOL     OW 2695   1.149   0.380   2.753  0.5199  0.3622  0.3696
  899SOL    HW1 2696   1.230   0.325   2.732 -0.4653 -2.7954 -1.1273
  899SOL    HW2 2697   1.066   0.319   2.749 -0.5806 -2.4564  2.9837
  900SOL     OW 2698   1.224   2.692   1.818  0.0589 -0.4187 -0.4944
  900SOL    HW1 2699   1.293   2.748   1.769 -0.2339  2.6101 -2.1617
  900SOL    HW2 2700   1.132   2.724   1.785  0.1068  0.9545 -0.0511
  901SOL     OW 2701   0.819   2.015   0.221 -0.1464  0.2643  0.4131
  901SOL    HW1 2702   0.829   2.049   0.320 -1.4615  1.3911  2.6606
  901SOL    HW2 2703   0.896   1.961   0.182  0.5998  0.0330 -0.7049
  902SOL     OW 2704   1.562   1.059   1.086 -0.8834 -0.5703 -0.3386
  902SOL    HW1 2705   1.642   1.017   1.126 -0.2876 -0.9057  3.1225
  902SOL    HW2 2706   1.557   1.159   1.114  1.0855  2.1938  3.5644
  903SOL     OW 2707   2.528   1.043   2.766  0.5039  0.5843 -0.2289
  903SOL    HW1 2708   2.514   1.138   2.799 -0.3676  2.1499  2.8667
  903SOL    HW2 2709   2.448   0.996   2.808 -3.9411  3.6580 -1.0957
  904SOL     OW 2710   0.849   1.393   0.122 -0.3469 -0.8980  0.2410
  904SOL    HW1 2711   0.833   1.494   0.132  0.5779  0.3146  1.4209
  904SOL    HW2 2712   0.869   1.366   0.224 -0.5695 -1.4096  2.9850
  905SOL     OW 2713   1.455   3.061   1.145  0.6524  0.0737 -0.1577
  905SOL    HW1 2714   1.539   0.027   1.139  0.1752 -0.8183 -1.9714
  905SOL    HW2 2715   1.378   0.034   1.184  0.9798 -1.9240 -0.5180
  906SOL     OW 2716   2.640   2.615   0.969 -0.0036  0.3870  0.2975
  906SOL    HW1 2717   2.689   2.592   0.881 -1.8300  1.2293  0.7160
  906SOL    HW2 2718   2.647   2.712   0.988 -0.0651 -2.1812 -3.0586
  907SOL     OW 2719   1.495   0.721   0.543  0.2533  0.4798  0.0681
  907SOL    HW1 2720   1.516   0.623   0.570  2.7438  1.9884 -0.8481
  907SOL    HW2 2721   1.452   0.780   0.618 -2.4346  0.4452 -0.8817
  908SOL     OW 2722   1.680   0.131   1.162 -0.3678 -0.4609  0.2715
  908SOL    HW1 2723   1.733   0.123   1.073 -0.8269  2.5681  0.4281
  908SOL    HW2 2724   1.705   0.218   1.207 -0.9661 -0.2004 -0.9831
  909SOL     OW 2725   2.088   0.663   1.307  0.5003  0.0550 -0.2479
  909SOL    HW1 2726   2.134   0.688   1.221 -0.8911  0.3129 -0.1816
  909SOL    HW2 2727   2.120   0.574   1.349 -1.5209  1.5194 -0.2377
  910SOL     OW 2728   2.405   0.681   1.826 -0.1362  0.7583  0.5266
  910SOL    HW1 2729   2.449   0.745   1.764  1.5402 -0.5434  2.7088
  910SOL    HW2 2730   2.392   0.722   1.916 -0.9016  1.1899 -0.3395
  911SOL     OW 2731   2.378   0.478   2.709  0.6719 -0.1153 -0.1377
  911SOL    HW1 2732   2.449   0.553   2.706 -0.1522  0.2320 -0.5107
  911SOL    HW2 2733   2.325   0.488   2.795  0.5291  1.2069  0.2945
  912SOL     OW 2734   0.763   1.087   1.746  0.2306  0.3656 -0.4024
  912SOL    HW1 2735   0.849   1.130   1.715 -0.9335  0.5577  1.6552
  912SOL    HW2 2736   0.690   1.089   1.675  0.5138 -1.2629  0.5625
  913SOL     OW 2737   2.785   2.452   1.716 -0.9867 -0.2329  0.2847
  913SOL    HW1 2738   2.820   2.371   1.766 -0.0171  0.1996 -1.9120
  913SOL    HW2 2739   2.853   2.529   1.712  1.0108  1.3219 -1.0797
  914SOL     OW 2740   1.673   0.812   1.812 -0.0259 -0.1402  0.5178
  914SOL    HW1 2741   1.574   0.838   1.828  0.8930  0.1092  0.6237
  914SOL    HW2 2742   1.685   0.730   1.753  1.5877 -0.0446  1.9970
  915SOL     OW 2743   2.517   0.933   0.996 -0.2715  0.5001  0.3394
  915SOL    HW1 2744   2.607   0.894   0.961 -0.4836  1.7975 -3.0690
  915SOL    HW2 2745   2.536   1.030   1.011 -3.7418 -1.6173 -1.4385
  916SOL     OW 2746   1.862   2.245   1.041  0.2712  0.2627  0.4383
  916SOL    HW1 2747   1.779   2.264   1.091 -0.2616 -0.4511 -0.2369
  916SOL    HW2 2748   1.899   2.149   1.061 -3.1662  0.1308  2.0876
  917SOL     OW 2749   1.881   2.287   2.252 -0.3184 -0.8200  0.1687
  917SOL    HW1 2750   1.837   2.303   2.341 -0.0852 -1.4849  0.1158
  917SOL    HW2 2751   1.906   2.379   2.207 -3.0136  0.2835 -0.0731
  918SOL     OW 2752   1.764   2.589   2.574  0.3646 -0.1410 -0.0521
  918SOL    HW1 2753   1.670   2.579   2.547 -1.1229 -2.5371 -1.0019
  918SOL    HW2 2754   1.817   2.648   2.511 -2.8165  1.3121 -0.4429
  919SOL     OW 2755   1.092   0.195   1.624  0.5904 -0.4268 -0.4993
  919SOL    HW1 2756   1.076   0.097   1.593 -1.7217 -1.7935  1.9310
  919SOL    HW2 2757   1.099   0.199   1.725  1.0840 -0.4187 -0.9468
  920SOL     OW 2758   2.972   0.442   2.409  0.0736 -0.0824  0.4598
  920SOL    HW1 2759   2.983   0.393   2.496  2.3045  2.1057 -0.7180
  920SOL    HW2 2760   2.879   0.473   2.407 -1.4368 -1.9803  0.0076
  921SOL     OW 2761   0.021   0.984   1.838  0.3701 -0.2030  0.8289
  921SOL    HW1 2762   3.083   1.046   1.758  2.2628  1.5777 -2.0837
  921SOL    HW2 2763   3.033   0.989   1.907 -0.3119 -0.1133 -1.1733
  922SOL     OW 2764   2.238   2.500   0.394 -0.1518  0.3252 -0.6062
  922SOL    HW1 2765   2.187   2.587   0.402 -0.0664  0.4593  2.2909
  922SOL    HW2 2766   2.308   2.505   0.317  1.4585  0.3847 -0.0340
  923SOL     OW 2767   0.693   1.913   0.588 -0.2725 -0.2215  0.0710
  923SOL    HW1 2768   0.693   1.893   0.688 -0.4981  0.1865  0.9656
  923SOL    HW2 2769   0.602   1.925   0.546  0.4909  1.1128  0.4120
  924SOL     OW 2770   1.071   0.937   3.061  0.5209  0.9997  0.1675
  924SOL    HW1 2771   1.072   0.888   2.971  2.1954 -4.2903 -2.1871
  924SOL    HW2 2772   1.001   1.010   3.066  1.0306 -3.3112  1.2404
  925SOL     OW 2773   2.620   1.090   0.705  1.1697  0.0369 -0.3025
  925SOL    HW1 2774   2.636   1.017   0.631 -1.6670 -4.0058 -1.4848
  925SOL    HW2 2775   2.519   1.103   0.719  1.2133  1.1513 -0.0250
  926SOL     OW 2776   0.408   0.415   1.305  0.6780 -0.2922 -0.0312
  926SOL    HW1 2777   0.385   0.319   1.286  1.8601 -0.5878 -0.3828
  926SOL    HW2 2778   0.324   0.476   1.305 -2.4353  0.9611  0.3289
  927SOL     OW 2779   0.548   1.676   2.550  0.1574  0.1613  0.4027
  927SOL    HW1 2780   0.543   1.602   2.624  3.1383  1.0488  0.0754
  927SOL    HW2 2781   0.483   1.660   2.469 -2.8043 -3.0833  3.4986
  928SOL     OW 2782   0.222   0.653   2.112  0.3366 -0.1263  0.0694
  928SOL    HW1 2783   0.211   0.667   2.009  1.2769 -1.1532 -4.0792
  928SOL    HW2 2784   0.220   0.552   2.137  1.8986 -0.3968 -1.0556
  929SOL     OW 2785   2.975   2.873   1.368 -0.1319  0.3234 -0.2565
  929SOL    HW1 2786   2.904   2.813   1.318 -1.9680 -2.8435 -0.0958
  929SOL    HW2 2787   2.972   2.971   1.358 -0.5156 -2.1961  0.1343
  930SOL     OW 2788   1.879   0.353   1.831  0.1527 -0.6412 -0.1724
  930SOL    HW1 2789   1.975   0.351   1.793  2.0565 -0.4955 -1.5308
  930SOL    HW2 2790   1.882   0.320   1.926 -1.4567 -0.7382 -1.4141
  931SOL     OW 2791   2.141   0.845   0.053  0.1481 -0.1171 -0.0830
  931SOL    HW1 2792   2.063   0.907   0.027 -0.7524  1.2496  1.2006
  931SOL    HW2 2793   2.115   0.780   0.131 -0.0176 -2.8151  2.0130
  932SOL     OW 2794   2.058   1.178   0.607  0.6548  0.3939 -0.7921
  932SOL    HW1 2795   2.149   1.178   0.648 -0.9967  2.0897  0.2775
  932SOL    HW2 2796   2.055   1.114   0.527  1.5495  3.4588 -1.2520
  933SOL     OW 2797   2.009   1.614   0.998 -0.4363  0.7912  0.2758
  933SOL    HW1 2798   2.036   1.529   0.943  0.3167 -0.0518  0.8987
  933SOL    HW2 2799   2.062   1.626   1.086  1.8996  0.0367 -0.2098
  934SOL     OW 2800   1.887   0.910   2.532 -0.0317 -0.4707  0.5762
  934SOL    HW1 2801   1.935   0.864   2.608  0.9913 -1.9770  0.2397
  934SOL    HW2 2802   1.909   0.861   2.445  2.2362 -0.5782  0.7099
  935SOL     OW 2803   0.030   0.985   0.482  0.3274  0.5437  0.1164
  935SOL    HW1 2804   0.091   1.062   0.450 -0.3470 -1.3070 -0.5784
  935SOL    HW2 2805   3.052   1.017   0.559  2.9584  1.0408  0.4717
  936SOL     OW 2806   0.633   2.858   0.815  0.7656  0.4907  1.2543
  936SOL    HW1 2807   0.654   2.892   0.905 -2.1262  1.4013 -1.4354
  936SOL    HW2 2808   0.615   2.943   0.758 -2.3708  0.3991 -0.9751
  937SOL     OW 2809   2.914   2.830   1.898  0.1594  0.5536  0.0361
  937SOL    HW1 2810   2.830   2.779   1.917  0.9982  1.0088  0.2212
  937SOL    HW2 2811   2.946   2.873   1.984  0.3549 -0.2003 -0.7063
  938SOL     OW 2812   2.908   2.255   0.107  0.0101  0.6764 -0.6346
  938SOL    HW1 2813   2.878   2.301   0.019 -0.9305 -1.7502  0.4459
  938SOL    HW2 2814   2.950   2.320   0.175 -0.7244 -0.5030 -2.2888
  939SOL     OW 2815   1.187   1.299   1.167  0.5142  0.0270 -0.2585
  939SOL    HW1 2816   1.192   1.231   1.094 -2.3375  1.2451 -0.1883
  939SOL    HW2 2817   1.234   1.266   1.250 -1.5561 -2.1268  0.4806
  940SOL     OW 2818   3.066   0.539   2.712  0.3820 -0.6111  0.1152
  940SOL    HW1 2819   3.029   0.446   2.694  0.0375  0.7405  0.0670
  940SOL    HW2 2820   0.012   0.549   2.813 -2.1261  0.9455  5.9703
  941SOL     OW 2821   2.377   0.198   2.684 -0.3276 -0.2833  0.1511
  941SOL    HW1 2822   2.479   0.172   2.696 -0.5905 -1.8146  2.0508
  941SOL    HW2 2823   2.364   0.301   2.677 -3.7215  0.6684 -0.8364
  942SOL     OW 2824   1.612   0.599   1.007  0.0040  0.2378 -0.3227
  942SOL    HW1 2825   1.659   0.506   0.995  1.7681 -0.5597  1.8516
  942SOL    HW2 2826   1.680   0.680   1.005  1.6212  0.3207 -2.1048
  943SOL     OW 2827   1.095   1.287   2.290  0.1242 -0.2704 -0.0760
  943SOL    HW1 2828   1.155   1.234   2.221  0.0126 -1.7113  1.1597
  943SOL    HW2 2829   1.013   1.331   2.241 -1.9318  2.6342 -0.4807
  944SOL     OW 2830   2.030   1.230   1.598 -0.0818  0.6995 -0.3690
  944SOL    HW1 2831   2.039   1.133   1.568  1.0296 -0.3244  2.4608
  944SOL    HW2 2832   2.100   1.289   1.549 -0.2064  1.6398  0.1535
  945SOL     OW 2833   2.923   2.994   2.965 -0.2024  0.2066  0.5208
  945SOL    HW1 2834   2.885   2.935   2.892 -0.2912  1.7427 -1.4520
  945SOL    HW2 2835   2.958   2.941   3.044 -0.4680  5.0917 -4.4076
  946SOL     OW 2836   2.977   1.447   1.600  0.0150  0.2936  0.3056
  946SOL    HW1 2837   3.054   1.476   1.539 -0.5671 -0.8604  1.5131
  946SOL    HW2 2838   2.952   1.526   1.659  0.9056  1.5715  0.5990
  947SOL     OW 2839   1.045   0.058   0.293  0.7703  0.3702  0.0871
  947SOL    HW1 2840   1.051   3.055   0.348  2.7024 -2.3156 -0.5877
  947SOL    HW2 2841   0.949   0.088   0.286 -0.1136 -0.8821 -1.3727
  948SOL     OW 2842   2.296   1.666   1.117  0.2918  0.1678  0.1091
  948SOL    HW1 2843   2.382   1.645   1.164 -0.8749 -1.3977 -0.9629
  948SOL    HW2 2844   2.313   1.678   1.016 -0.4302 -2.1870 -2.1764
  949SOL     OW 2845   0.117   1.059   2.943 -0.2318 -0.2262  0.4544
  949SOL    HW1 2846   0.054   1.089   2.869  0.0070  2.5645 -2.5569
  949SOL    HW2 2847   0.209   1.090   2.914 -2.1499  3.1811  1.2331
  950SOL     OW 2848   0.471   2.463   1.195 -0.5045  0.7055 -0.0156
  950SOL    HW1 2849   0.429   2.552   1.178 -0.7629 -1.7261  1.0770
  950SOL    HW2 2850   0.555   2.449   1.139  0.1934 -1.9324  1.2091
  951SOL     OW 2851   0.984   1.717   2.690 -0.5625  0.3865 -0.1266
  951SOL    HW1 2852   0.966   1.652   2.766  1.9492  1.5311  1.1995
  951SOL    HW2 2853   0.912   1.701   2.619 -1.2748  1.1174 -1.2110
  952SOL     OW 2854   0.792   1.033   0.461 -0.2204 -0.6637  0.2038
  952SOL    HW1 2855   0.765   1.012   0.364 -0.2387 -0.6501  0.7223
  952SOL    HW2 2856   0.771   0.963   0.529 -1.8781  0.7667 -1.0514
  953SOL     OW 2857   2.212   2.700   2.473  0.6850 -0.0798 -0.1513
  953SOL    HW1 2858   2.244   2.606   2.460 -1.7054  0.9239 -2.1080
  953SOL    HW2 2859   2.232   2.724   2.570 -1.2851  1.1089 -1.8818
  954SOL     OW 2860   1.925   0.995   0.781  0.3566  0.0191  0.2599
  954SOL    HW1 2861   1.957   0.997   0.875 -3.7561 -0.8143 -0.0776
  954SOL    HW2 2862   1.991   1.050   0.726  1.5723  2.9366  2.1297
  955SOL     OW 2863   0.537   1.990   0.236 -0.1592 -0.2472  0.1445
  955SOL    HW1 2864   0.640   1.985   0.226  0.0558  0.7227 -1.2759
  955SOL    HW2 2865   0.510   2.027   0.327 -1.0803  1.1791  1.4945
  956SOL     OW 2866   2.538   0.452   1.872 -0.5755 -0.0085  0.6124
  956SOL    HW1 2867   2.493   0.545   1.870 -1.1247 -1.7011  1.9992
  956SOL    HW2 2868   2.556   0.411   1.966  1.7830 -1.8086 -0.5177
  957SOL     OW 2869   1.853   2.236   1.820  0.1651 -0.1311  0.1240
  957SOL    HW1 2870   1.856   2.180   1.732 -0.1183  2.4541 -1.9235
  957SOL    HW2 2871   1.850   2.177   1.905  0.2277  0.2835  0.4400
  958SOL     OW 2872   1.645   1.074   1.460 -0.4290  0.4179  0.4181
  958SOL    HW1 2873   1.544   1.068   1.437 -1.7401 -3.0730  1.3924
  958SOL    HW2 2874   1.668   1.154   1.514 -0.9513 -3.5772 -2.8312
  959SOL     OW 2875   1.647   1.879   2.135 -0.0697 -0.4668  0.2277
  959SOL    HW1 2876   1.682   1.789   2.097 -0.0618  1.1800 -1.3091
  959SOL    HW2 2877   1.545   1.885   2.155  1.2553  0.7568 -0.3257
  960SOL     OW 2878   0.731   1.039   2.762 -0.1331 -0.2543  0.1633
  960SOL    HW1 2879   0.715   1.019   2.664 -0.5764  2.0870 -0.4879
  960SOL    HW2 2880   0.827   1.055   2.775 -1.6294  0.1159  0.1618
  961SOL     OW 2881   3.000   1.109   2.766 -0.1239 -0.6225  0.8761
  961SOL    HW1 2882   2.918   1.058   2.787  1.9295  1.5060  0.5300
  961SOL    HW2 2883   3.026   1.101   2.669 -1.4886 -0.5626 -1.4405
  962SOL     OW 2884   1.081   1.971   2.691  0.2893  0.0646 -0.3456
  962SOL    HW1 2885   1.037   1.877   2.685  0.6874 -0.8815  1.6445
  962SOL    HW2 2886   1.038   2.028   2.762  1.9525  0.9737 -3.8974
  963SOL     OW 2887   2.870   1.978   0.089 -0.7876  0.4438 -0.0109
  963SOL    HW1 2888   2.778   1.948   0.051 -0.5966 -0.0636  0.5103
  963SOL    HW2 2889   2.872   2.074   0.110 -0.3379  0.3531 -0.5148
  964SOL     OW 2890   0.814   2.129   2.317 -0.5869 -0.2717 -0.0807
  964SOL    HW1 2891   0.746   2.190   2.363  0.4942 -0.7377 -1.0526
  964SOL    HW2 2892   0.853   2.176   2.237 -2.3613  1.2707  2.2909
  965SOL     OW 2893   1.944   1.801   0.829 -0.2982 -0.2986 -0.1620
  965SOL    HW1 2894   1.978   1.877   0.890  2.4105  0.4558  0.5865
  965SOL    HW2 2895   1.972   1.711   0.861 -1.2107  1.5190 -2.7551
  966SOL     OW 2896   3.045   1.735   2.976 -0.3064 -0.4533  0.0299
  966SOL    HW1 2897   3.059   1.804   3.048  0.0287  0.4478 -0.2377
  966SOL    HW2 2898   0.025   1.657   2.982 -1.6862 -0.3763  1.4699
  967SOL     OW 2899   2.038   2.990   2.131  0.2576 -0.5171  0.1126
  967SOL    HW1 2900   2.119   3.018   2.190  2.2496 -0.2559  2.3402
  967SOL    HW2 2901   2.059   3.014   2.034  0.2400  0.7308 -1.8447
  968SOL     OW 2902   0.766   0.690   0.185 -0.5178  0.4898  0.3621
  968SOL    HW1 2903   0.709   0.772   0.192  0.5417  0.2853 -0.0686
  968SOL    HW2 2904   0.862   0.707   0.159 -3.5723  0.0870 -2.5115
  969SOL     OW 2905   0.522   1.602   2.192  0.2470  0.0546 -0.1067
  969SOL    HW1 2906   0.618   1.634   2.196 -1.8140 -0.7077 -1.0513
  969SOL    HW2 2907   0.510   1.524   2.126  1.4629  1.6170 -1.3345
  970SOL     OW 2908   2.095   2.566   1.143  0.0806 -0.0671  0.0757
  970SOL    HW1 2909   2.070   2.505   1.070 -1.1362  0.0510 -0.6849
  970SOL    HW2 2910   2.190   2.600   1.136  1.1516  0.7652  0.5631
  971SOL     OW 2911   1.900   2.362   0.672  0.1752 -0.0619 -0.0855
  971SOL    HW1 2912   1.933   2.379   0.767 -1.2845  0.3277 -0.1214
  971SOL    HW2 2913   1.972   2.354   0.605 -3.2926 -0.8286  0.1322
  972SOL     OW 2914   0.010   1.107   2.517 -0.5661 -0.4249 -0.7148
  972SOL    HW1 2915   3.084   1.009   2.503  0.3827 -1.4429  2.3163
  972SOL    HW2 2916   0.106   1.136   2.539 -0.4043  3.0520  0.7290
  973SOL     OW 2917   0.476   0.115   0.261  0.2968 -0.0112 -0.0532
  973SOL    HW1 2918   0.484   0.158   0.352  0.5414  0.2237 -1.0489
  973SOL    HW2 2919   0.469   0.186   0.189  0.9711 -2.3880 -1.1642
  974SOL     OW 2920   2.700   0.764   1.923 -0.3847  0.0087 -0.3839
  974SOL    HW1 2921   2.766   0.725   1.986 -1.7462  0.1522 -0.4335
  974SOL    HW2 2922   2.606   0.741   1.941  0.4772 -2.9581  0.7921
  975SOL     OW 2923   0.041   2.988   0.630 -0.0636 -0.1152  0.4556
  975SOL    HW1 2924   0.059   2.999   0.731  0.3933 -0.9631 -1.5130
  975SOL    HW2 2925   3.035   3.030   0.599 -1.7843  4.1859  0.6585
  976SOL     OW 2926   0.461   1.634   1.347 -0.5875 -0.1032  0.1432
  976SOL    HW1 2927   0.384   1.683   1.373  2.8647 -0.2449 -2.3263
  976SOL    HW2 2928   0.470   1.550   1.398 -0.8099 -0.5315  0.3433
  977SOL     OW 2929   1.124   1.764   0.246 -0.8068 -0.0069 -0.5497
  977SOL    HW1 2930   1.096   1.793   0.152  0.0206 -1.4632  2.5451
  977SOL    HW2 2931   1.120   1.850   0.307  0.6008  0.0364  0.9669
  978SOL     OW 2932   3.076   0.775   0.300 -0.2031  0.3401 -0.2185
  978SOL    HW1 2933   3.075   0.797   0.201  2.2583  1.7624 -2.6291
  978SOL    HW2 2934   0.028   0.858   0.347  3.4360  0.8448  2.6552
  979SOL     OW 2935   1.749   1.575   0.664 -0.1689  0.2683 -0.4390
  979SOL    HW1 2936   1.734   1.566   0.766 -1.4739  0.0991 -0.6798
  979SOL    HW2 2937   1.783   1.669   0.643  1.2095 -0.4140 -0.3113
  980SOL     OW 2938   0.461   2.016   2.048 -0.0357 -0.0561 -0.4790
  980SOL    HW1 2939   0.540   1.981   2.105  3.0572  0.1947  0.3962
  980SOL    HW2 2940   0.497   2.070   1.972 -1.0771 -0.0150  0.8562
  981SOL     OW 2941   2.232   1.310   2.728 -0.6136  0.0802 -0.2382
  981SOL    HW1 2942   2.295   1.371   2.789  2.0519  2.5132  2.2276
  981SOL    HW2 2943   2.198   1.368   2.655  0.2590  0.9469  1.6027
  982SOL     OW 2944   3.083   2.531   2.037 -0.9000  0.1204 -0.1555
  982SOL    HW1 2945   3.072   2.545   1.937  1.5217  1.5225 -0.5765
  982SOL    HW2 2946   0.051   2.445   2.049 -3.2127  1.4870 -0.5215
  983SOL     OW 2947   1.580   0.197   1.495  0.3409  0.1337  0.1159
  983SOL    HW1 2948   1.495   0.256   1.481  1.1771 -0.2010  1.4933
  983SOL    HW2 2949   1.564   0.125   1.557 -0.2130 -0.1981  2.5657
  984SOL     OW 2950   2.329   2.744   0.020  0.6101  0.4924  0.3000
  984SOL    HW1 2951   2.369   2.659   3.072 -1.5736  1.5653 -0.6520
  984SOL    HW2 2952   2.281   2.809   3.036 -1.3239 -0.2301 -0.7683
  985SOL     OW 2953   1.623   1.294   1.842  0.2181  0.6249 -0.1356
  985SOL    HW1 2954   1.711   1.250   1.817  0.0330  1.2088 -0.5731
  985SOL    HW2 2955   1.583   1.257   1.925  2.2900  0.7356 -0.5518
  986SOL     OW 2956   1.967   2.961   2.657 -0.2748  0.1529  0.3554
  986SOL    HW1 2957   2.045   3.028   2.655 -1.0577  1.2040 -2.5673
  986SOL    HW2 2958   1.910   2.963   2.739  1.5519 -1.7136 -1.5746
  987SOL     OW 2959   2.703   1.739   2.768 -0.1711  0.6656 -0.0018
  987SOL    HW1 2960   2.750   1.662   2.717 -1.8550  1.2762  1.3220
  987SOL    HW2 2961   2.603   1.749   2.732  1.4349 -1.6097  1.2863
  988SOL     OW 2962   3.045   0.882   1.313  0.7326  0.1382  0.0809
  988SOL    HW1 2963   3.071   0.850   1.406 -0.1215  0.1308  0.0910
  988SOL    HW2 2964   0.043   0.926   1.276  1.2859 -3.4869  3.7816
  989SOL     OW 2965   1.789   0.991   1.251  0.5593  0.0769  0.0022
  989SOL    HW1 2966   1.802   0.890   1.254 -0.5904  1.3583  0.6623
  989SOL    HW2 2967   1.731   1.022   1.330  0.0934  1.4676 -0.7149
  990SOL     OW 2968   2.520   0.670   2.893  0.5596  0.6534 -0.2083
  990SOL    HW1 2969   2.570   0.689   2.809  0.2667  0.0266 -0.1853
  990SOL    HW2 2970   2.584   0.617   2.959  0.8921  0.7250  2.3015
  991SOL     OW 2971   0.142   1.515   3.054 -0.0095 -0.0730 -0.1107
  991SOL    HW1 2972   0.080   1.441   3.082  0.8342  1.1460  0.1793
  991SOL    HW2 2973   0.159   1.575   0.049 -2.1586  1.8544  2.5423
  992SOL     OW 2974   2.345   1.428   1.983 -0.0642  0.1851 -0.8008
  992SOL    HW1 2975   2.251   1.460   1.966  2.1589 -2.2577 -2.1719
  992SOL    HW2 2976   2.404   1.478   1.922 -0.0953  1.1545  3.0484
  993SOL     OW 2977   0.573   2.718   0.458 -0.4984  0.2623 -0.4049
  993SOL    HW1 2978   0.636   2.645   0.491 -0.3199 -1.6781 -1.1228
  993SOL    HW2 2979   0.607   2.813   0.472 -0.3952 -2.3719  1.0143
  994SOL     OW 2980   2.774   1.798   1.593 -0.4350  0.1007 -0.9355
  994SOL    HW1 2981   2.821   1.761   1.679  4.9505 -0.4956  4.1523
  994SOL    HW2 2982   2.847   1.817   1.530  0.7700 -2.4030  1.0380
  995SOL     OW 2983   1.692   1.898   2.406  0.4632 -0.5477 -0.5278
  995SOL    HW1 2984   1.784   1.917   2.447 -2.6381 -2.1458 -0.3616
  995SOL    HW2 2985   1.680   1.929   2.310  0.2677 -0.6366  1.1989
  996SOL     OW 2986   2.199   1.899   3.054  0.1991  0.1357 -0.1664
  996SOL    HW1 2987   2.108   1.862   0.004  2.5413 -0.5243 -0.6074
  996SOL    HW2 2988   2.271   1.883   0.044  0.4532  2.6462 -2.7669
  997SOL     OW 2989   1.476   1.214   2.556  0.7327  0.0737  0.3215
  997SOL    HW1 2990   1.376   1.224   2.540  2.5115  1.0451  1.6765
  997SOL    HW2 2991   1.512   1.307   2.578  1.0891 -1.4192  0.9468
  998SOL     OW 2992   3.026   2.378   0.959  0.0817 -0.2688  0.1133
  998SOL    HW1 2993   2.994   2.434   0.876  0.6502  0.1647 -2.0729
  998SOL    HW2 2994   3.036   2.438   1.042 -0.4483  1.6116  1.2317
  999SOL     OW 2995   0.362   2.569   0.374 -0.2104  0.1729  0.4738
  999SOL    HW1 2996   0.376   2.472   0.410  4.1196  0.5830  2.4909
  999SOL    HW2 2997   0.431   2.630   0.410  0.4304 -0.6545 -1.0124
 1000SOL     OW 2998   1.039   0.026   3.075 -0.2960 -0.1811 -0.0389
 1000SOL    HW1 2999   1.069   0.048   0.082 -0.7186  1.2777 -1.2170
 1000SOL    HW2 3000   1.013   0.112   3.035 -0.2173  0.1383  0.6603
   3.08373   3.08373   3.08373
