1000 SPC/Fw water molecules t= 356.00000 step= 356000
 3000
    1SOL     OW    1   2.612   2.882   1.334  0.5333 -0.3107  0.5212
    1SOL    HW1    2   2.595   2.832   1.423 -0.9588  2.2072  1.7578
    1SOL    HW2    3   2.715   2.880   1.322  1.2494 -1.0728 -1.0105
    2SOL     OW    4   2.825   2.296   0.855  0.2325  0.7036  0.4320
    2SOL    HW1    5   2.739   2.313   0.905 -1.4222 -1.4252  0.1245
    2SOL    HW2    6   2.819   2.341   0.765 -0.7734 -0.8527 -0.5963
    3SOL     OW    7   1.324   2.966   2.781  0.4254 -0.2015  0.2967
    3SOL    HW1    8   1.399   3.031   2.764 -0.8080  1.5596 -0.1906
    3SOL    HW2    9   1.281   2.987   2.874 -3.8688  1.7774  2.4091
    4SOL     OW   10   1.596   2.650   2.282 -0.3496  0.1924 -0.1334
    4SOL    HW1   11   1.505   2.627   2.251  1.6266  0.6720 -0.8133
    4SOL    HW2   12   1.669   2.615   2.225 -2.0774  1.3000  1.8446
    5SOL     OW   13   1.937   0.423   1.711  0.4024 -0.0373 -0.3082
    5SOL    HW1   14   1.972   0.464   1.626  0.5321  1.3753  1.0544
    5SOL    HW2   15   1.855   0.476   1.737  2.8553 -0.8344 -2.7474
    6SOL     OW   16   2.146   2.420   0.565  0.1942 -0.3762  0.1914
    6SOL    HW1   17   2.072   2.473   0.517 -2.2111 -0.6025 -2.1625
    6SOL    HW2   18   2.195   2.473   0.638  3.1164 -0.5810  2.9789
    7SOL     OW   19   1.660   1.178   1.038  0.3577  0.3988 -0.2418
    7SOL    HW1   20   1.661   1.184   1.143  1.0945 -1.7947 -0.3574
    7SOL    HW2   21   1.576   1.231   1.003 -0.4947  1.6882 -0.5052
    8SOL     OW   22   0.674   1.796   1.224  0.1588  0.0525  0.5691
    8SOL    HW1   23   0.673   1.697   1.193 -0.7166 -2.4150 -2.4186
    8SOL    HW2   24   0.771   1.832   1.233  0.7064  2.6728 -1.5467
    9SOL     OW   25   1.103   2.287   1.884  0.0447 -0.3038  0.4024
    9SOL    HW1   26   1.033   2.360   1.862 -0.6685  0.6042  0.6766
    9SOL    HW2   27   1.100   2.202   1.820 -0.0607 -1.6504  0.0341
   10SOL     OW   28   0.627   2.145   0.695  0.0046 -0.1319 -0.0054
   10SOL    HW1   29   0.728   2.153   0.704  2.5448 -0.5552 -1.4007
   10SOL    HW2   30   0.588   2.232   0.664 -1.6299  2.5370 -0.6441
   11SOL     OW   31   1.604   1.945   1.387 -0.0014 -0.0176  0.1492
   11SOL    HW1   32   1.542   1.905   1.314 -2.8986 -4.9066 -2.1222
   11SOL    HW2   33   1.623   2.038   1.350 -1.5557  1.3456 -1.8022
   12SOL     OW   34   2.668   0.435   2.437 -0.3516  0.0467 -0.1306
   12SOL    HW1   35   2.639   0.385   2.353  1.9069  1.2770 -0.1995
   12SOL    HW2   36   2.766   0.447   2.444  1.2802  0.4950  1.5400
   13SOL     OW   37   2.763   2.822   0.671  0.2701 -0.7988 -0.2095
   13SOL    HW1   38   2.807   2.788   0.754  0.0401  1.5428 -1.8824
   13SOL    HW2   39   2.825   2.796   0.594  0.3107  1.5218  2.0340
   14SOL     OW   40   1.489   1.475   3.034 -0.0996  0.6715  0.0575
   14SOL    HW1   41   1.504   1.574   3.008  0.1977 -0.8981  1.2770
   14SOL    HW2   42   1.398   1.441   3.004 -0.8818 -1.3342 -0.6385
   15SOL     OW   43   2.405   2.583   1.406 -0.3278 -0.0463 -0.3404
   15SOL    HW1   44   2.419   2.482   1.401  0.4943  2.1445 -1.5260
   15SOL    HW2   45   2.317   2.591   1.457 -1.0439  2.1628 -0.4304
   16SOL     OW   46   2.396   2.795   0.526 -0.2878 -0.1374 -0.3147
   16SOL    HW1   47   2.325   2.862   0.490 -1.4468  1.2481 -0.2137
   16SOL    HW2   48   2.450   2.841   0.597 -1.1385  0.9980 -2.8800
   17SOL     OW   49   0.414   0.257   1.134 -0.0221  0.2104  0.0325
   17SOL    HW1   50   0.456   0.347   1.148  0.8599 -2.8100 -0.8091
   17SOL    HW2   51   0.346   0.261   1.061 -0.5183 -2.1264 -3.1818
   18SOL     OW   52   1.967   0.345   0.377 -0.5822  0.2598 -0.2640
   18SOL    HW1   53   2.026   0.353   0.461  1.3117  1.1446  0.3095
   18SOL    HW2   54   1.953   0.242   0.359  0.4231 -4.5708  2.5791
   19SOL     OW   55   1.848   1.450   3.044 -0.6657 -0.0723  0.0853
   19SOL    HW1   56   1.935   1.472   2.995  2.2671  2.5480 -1.2663
   19SOL    HW2   57   1.842   1.502   0.053  1.2106  0.7359 -0.4189
   20SOL     OW   58   2.333   1.471   2.310  0.8268  0.2125 -0.5108
   20SOL    HW1   59   2.422   1.419   2.308  1.9862 -1.4534 -1.3037
   20SOL    HW2   60   2.268   1.438   2.243  2.7517 -1.6679  3.2161
   21SOL     OW   61   1.673   0.015   0.591 -0.3862  0.0273  0.5795
   21SOL    HW1   62   1.759   0.012   0.644 -0.4134 -1.2889 -1.5087
   21SOL    HW2   63   1.686   3.062   0.497  0.1171 -1.6821  0.3788
   22SOL     OW   64   2.668   0.451   1.445 -0.0577  0.4982  0.0092
   22SOL    HW1   65   2.587   0.390   1.437  1.0059 -1.2306 -2.2468
   22SOL    HW2   66   2.679   0.508   1.362  1.7634 -1.3277  2.6778
   23SOL     OW   67   0.332   0.442   1.813 -0.0050 -0.0440  0.0925
   23SOL    HW1   68   0.361   0.520   1.870 -0.3670  0.3178  1.9587
   23SOL    HW2   69   0.379   0.354   1.844  1.0926 -2.7274  2.2345
   24SOL     OW   70   2.762   2.568   0.382 -0.1741 -0.1979  0.1706
   24SOL    HW1   71   2.856   2.611   0.355  2.8364 -0.0560 -1.1277
   24SOL    HW2   72   2.678   2.621   0.360 -0.8762 -0.5714 -2.7781
   25SOL     OW   73   0.847   2.716   2.795  0.2885  0.2862 -0.2378
   25SOL    HW1   74   0.749   2.746   2.792 -2.8618  2.8283  1.7948
   25SOL    HW2   75   0.910   2.793   2.795 -0.7002  1.5765  1.8314
   26SOL     OW   76   1.365   2.754   0.344  0.0441  0.2443  0.4288
   26SOL    HW1   77   1.431   2.676   0.364 -1.6012 -1.5728  1.5891
   26SOL    HW2   78   1.394   2.832   0.402  1.3949 -2.2876  1.0464
   27SOL     OW   79   2.216   0.701   0.513 -0.6387 -0.0955 -0.3399
   27SOL    HW1   80   2.232   0.724   0.415 -0.4570  0.8708  0.9485
   27SOL    HW2   81   2.183   0.780   0.568  1.0005  1.0321 -1.7893
   28SOL     OW   82   0.806   1.773   0.965 -0.7031 -0.4733 -0.7812
   28SOL    HW1   83   0.721   1.728   0.931  0.8383 -1.2902 -0.7815
   28SOL    HW2   84   0.863   1.710   1.021 -0.1510 -0.5251 -0.2107
   29SOL     OW   85   3.048   2.761   1.718  0.1082 -0.3546 -0.3922
   29SOL    HW1   86   0.054   2.824   1.700  1.4941  3.3123 -0.5241
   29SOL    HW2   87   2.986   2.764   1.637  0.6903  0.9944 -2.1176
   30SOL     OW   88   1.483   0.046   1.281  0.1465  0.8778  0.4149
   30SOL    HW1   89   1.456   0.023   1.186 -1.4035  2.5621  1.3865
   30SOL    HW2   90   1.498   3.037   1.337 -0.1974  0.0052 -0.0797
   31SOL     OW   91   2.029   2.934   2.231  0.6329 -0.1100  0.1444
   31SOL    HW1   92   1.940   2.963   2.271  2.0783  4.7051  3.1222
   31SOL    HW2   93   2.020   2.897   2.142  2.4649  1.2517  1.1948
   32SOL     OW   94   0.862   1.361   0.230  0.5824  0.0719  0.2626
   32SOL    HW1   95   0.843   1.384   0.132  0.1364 -0.1012  0.3326
   32SOL    HW2   96   0.775   1.365   0.284  0.5455 -0.2646 -1.8925
   33SOL     OW   97   0.109   0.920   2.606  0.0552  0.4813  0.0482
   33SOL    HW1   98   0.097   0.882   2.513  0.9580 -1.5763 -1.8195
   33SOL    HW2   99   0.155   0.849   2.665 -1.4970  0.9145 -1.2427
   34SOL     OW  100   2.488   0.188   0.514  0.5340  0.2298 -0.4321
   34SOL    HW1  101   2.410   0.216   0.577 -0.2485  1.3464  0.6208
   34SOL    HW2  102   2.548   0.115   0.553 -0.7745 -1.2147  0.4730
   35SOL     OW  103   2.378   2.530   1.707 -0.3677  0.1615 -0.0292
   35SOL    HW1  104   2.480   2.534   1.691  0.6946  2.6144  2.3755
   35SOL    HW2  105   2.355   2.429   1.712  2.6069 -0.8780 -2.0499
   36SOL     OW  106   2.229   2.005   2.865  0.7613  0.0692 -0.6931
   36SOL    HW1  107   2.261   1.928   2.809  2.1548  0.0963  0.4262
   36SOL    HW2  108   2.133   1.982   2.897  0.2643 -0.6333 -0.6631
   37SOL     OW  109   1.828   0.170   2.075 -0.2745  0.0321  0.2699
   37SOL    HW1  110   1.778   0.224   2.004 -2.2146 -1.0618  1.5561
   37SOL    HW2  111   1.923   0.142   2.046  2.9866  2.7252 -0.9626
   38SOL     OW  112   0.140   0.477   2.901  0.4260  0.0828  0.0842
   38SOL    HW1  113   0.092   0.422   2.831  0.2285 -1.6791 -1.0169
   38SOL    HW2  114   0.089   0.459   2.991 -1.2265 -1.9542  1.7526
   39SOL     OW  115   1.775   1.350   1.461  0.0770  0.3239 -0.0599
   39SOL    HW1  116   1.742   1.380   1.551  2.7951 -0.9023 -1.7382
   39SOL    HW2  117   1.873   1.326   1.470  2.2623  2.4006 -2.1246
   40SOL     OW  118   1.325   2.427   0.492 -0.3271  0.0553 -0.0474
   40SOL    HW1  119   1.308   2.346   0.551  0.4413  2.5734 -0.6721
   40SOL    HW2  120   1.250   2.436   0.421 -1.1754  0.8843 -0.9170
   41SOL     OW  121   2.121   1.312   0.958  0.0776  0.0531  0.1832
   41SOL    HW1  122   2.118   1.264   0.868  1.2566 -0.1992  0.5978
   41SOL    HW2  123   2.094   1.407   0.943  0.3988 -0.2410 -0.2912
   42SOL     OW  124   0.678   0.207   1.056  0.5634  0.4222 -0.1266
   42SOL    HW1  125   0.707   0.297   1.091  0.8664  1.1776 -1.0113
   42SOL    HW2  126   0.575   0.193   1.074 -0.7328  2.8949  0.4595
   43SOL     OW  127   0.074   1.591   2.539  0.0643 -0.2359 -0.1135
   43SOL    HW1  128   0.007   1.550   2.606 -1.9685  0.3495 -0.2184
   43SOL    HW2  129   0.166   1.600   2.584 -1.6521  1.9704  3.5091
   44SOL     OW  130   2.014   2.938   1.372 -0.6913 -0.7146  0.6383
   44SOL    HW1  131   2.089   2.942   1.443  0.2022  0.1848  1.1517
   44SOL    HW2  132   2.054   2.936   1.280 -0.2447 -1.7638 -0.8169
   45SOL     OW  133   1.124   0.087   2.369 -0.1976 -0.6586  0.3163
   45SOL    HW1  134   1.204   0.068   2.426 -1.5302  0.9933 -1.6546
   45SOL    HW2  135   1.037   0.070   2.418  2.7000  1.0614  1.0036
   46SOL     OW  136   1.003   2.458   2.276  0.5240  0.2314  0.1147
   46SOL    HW1  137   1.024   2.360   2.263  3.4681  3.5681 -0.7340
   46SOL    HW2  138   0.945   2.476   2.362 -5.3814  0.2226  1.1390
   47SOL     OW  139   0.998   1.833   0.727 -0.1181 -0.1115  0.4034
   47SOL    HW1  140   1.069   1.773   0.767 -1.7120  0.4663  0.9231
   47SOL    HW2  141   0.930   1.856   0.796  0.2897 -2.4843 -0.0561
   48SOL     OW  142   1.356   2.821   1.066 -0.7653 -0.0934  0.3906
   48SOL    HW1  143   1.337   2.773   0.980 -0.5010  1.1651  3.5949
   48SOL    HW2  144   1.310   2.781   1.147  1.0136  2.6824 -0.1052
   49SOL     OW  145   2.300   0.328   3.014  0.2306 -0.4645 -0.0603
   49SOL    HW1  146   2.267   0.424   3.020 -0.7238  1.3097  2.7002
   49SOL    HW2  147   2.396   0.303   3.002 -0.3472  2.2112  1.3057
   50SOL     OW  148   1.649   0.081   3.043 -0.1755  0.0081 -0.0441
   50SOL    HW1  149   1.678   3.060   3.036 -0.9033 -0.2540  0.7711
   50SOL    HW2  150   1.549   0.088   3.039  1.1223 -0.9689 -1.3474
   51SOL     OW  151   2.062   0.635   1.201 -0.2598  0.2076  0.0302
   51SOL    HW1  152   2.126   0.703   1.161 -0.1056  0.1497  2.4035
   51SOL    HW2  153   2.068   0.542   1.165 -0.9059  3.2503  1.2474
   52SOL     OW  154   0.768   1.724   0.052  0.0812  0.0794 -0.2155
   52SOL    HW1  155   0.803   1.634   0.024  0.6821 -1.5495  0.9700
   52SOL    HW2  156   0.806   1.744   0.149  2.2903  0.5017  1.7966
   53SOL     OW  157   0.184   1.427   2.762 -0.1260  0.0776 -0.7422
   53SOL    HW1  158   0.200   1.344   2.707 -0.0911 -0.7446  0.0822
   53SOL    HW2  159   0.270   1.471   2.797 -0.6941  1.2726  0.0188
   54SOL     OW  160   2.774   1.188   1.687 -0.6807  0.0384 -0.2119
   54SOL    HW1  161   2.859   1.147   1.728  1.0521  0.1274  0.3336
   54SOL    HW2  162   2.704   1.211   1.761 -0.8821 -1.6580  1.3794
   55SOL     OW  163   2.182   1.950   0.425  0.2140  0.4574 -1.0362
   55SOL    HW1  164   2.276   1.971   0.461  1.2490 -1.5538 -0.2103
   55SOL    HW2  165   2.152   1.860   0.466  0.8362 -0.8694  1.5414
   56SOL     OW  166   1.854   0.165   1.637 -0.0690 -0.1050 -0.5424
   56SOL    HW1  167   1.883   0.247   1.693  2.0861  0.9210  0.9294
   56SOL    HW2  168   1.898   0.154   1.544  1.5778 -1.6004 -1.1304
   57SOL     OW  169   1.436   1.329   2.650 -0.7489 -0.2201 -0.0835
   57SOL    HW1  170   1.347   1.310   2.696  0.0575 -2.2080  0.0037
   57SOL    HW2  171   1.514   1.305   2.712  0.1227 -0.9699 -3.2955
   58SOL     OW  172   0.164   0.705   1.288 -0.0264  0.3894 -0.1815
   58SOL    HW1  173   0.096   0.701   1.363 -1.3990  0.1332 -2.1414
   58SOL    HW2  174   0.176   0.612   1.251  1.6536  0.4947  0.2812
   59SOL     OW  175   1.382   2.844   0.075  0.4590 -0.1306 -0.0213
   59SOL    HW1  176   1.368   2.810   0.172  2.3693 -1.4815  1.0171
   59SOL    HW2  177   1.307   2.902   0.038 -2.4098  1.3945 -0.1084
   60SOL     OW  178   3.053   1.861   2.794 -0.6635  0.3196 -0.0666
   60SOL    HW1  179   0.067   1.805   2.788 -1.6225 -3.4301 -1.1670
   60SOL    HW2  180   3.048   1.926   2.714  3.0115 -0.9843  0.6879
   61SOL     OW  181   0.789   2.543   1.104  0.1273  0.2139  0.0147
   61SOL    HW1  182   0.850   2.464   1.131 -0.0556  0.7119  0.4332
   61SOL    HW2  183   0.747   2.587   1.184 -1.3510 -3.7667 -1.8032
   62SOL     OW  184   1.535   1.587   2.611  0.4129 -0.4049 -0.1537
   62SOL    HW1  185   1.597   1.575   2.533  1.1493 -1.1093  0.8814
   62SOL    HW2  186   1.486   1.497   2.631  0.6177 -3.3767 -2.3340
   63SOL     OW  187   2.220   1.914   0.169 -0.0948 -0.3973  0.2611
   63SOL    HW1  188   2.128   1.888   0.134  0.6734  0.2524 -1.8806
   63SOL    HW2  189   2.210   1.940   0.265  0.0483  0.4085 -2.2845
   64SOL     OW  190   1.824   1.027   0.279 -0.0236  0.3388 -0.3335
   64SOL    HW1  191   1.796   1.096   0.218  3.3639 -0.7671  0.4634
   64SOL    HW2  192   1.838   0.939   0.231  3.1531 -1.4285 -2.2284
   65SOL     OW  193   2.098   1.698   2.300  0.0412 -0.1344 -0.5139
   65SOL    HW1  194   2.189   1.708   2.342 -1.4229 -1.0459 -3.0295
   65SOL    HW2  195   2.086   1.625   2.230  0.7600  1.3804  2.8864
   66SOL     OW  196   0.543   1.054   1.500 -0.2165  0.2342  0.2610
   66SOL    HW1  197   0.489   1.134   1.523  0.5832 -0.6375  2.2938
   66SOL    HW2  198   0.485   0.970   1.503 -2.2204 -0.5042 -1.4810
   67SOL     OW  199   2.172   0.112   2.480 -0.4003  0.0183 -0.4140
   67SOL    HW1  200   2.076   0.131   2.505 -0.6475 -0.3641 -0.0281
   67SOL    HW2  201   2.203   0.022   2.503  0.7735  1.7914 -0.1429
   68SOL     OW  202   1.147   2.279   1.527  0.1529  0.3739  0.0122
   68SOL    HW1  203   1.185   2.222   1.451 -0.1095 -1.8881 -0.8807
   68SOL    HW2  204   1.224   2.328   1.574  1.3325  0.0353 -1.0722
   69SOL     OW  205   0.695   2.420   0.027 -0.4636 -0.1752  0.2112
   69SOL    HW1  206   0.699   2.461   0.121 -0.3820 -0.9337 -0.2794
   69SOL    HW2  207   0.776   2.437   3.048 -1.5883 -0.5310  1.1585
   70SOL     OW  208   0.281   0.686   2.130 -0.0448  0.2278 -0.0472
   70SOL    HW1  209   0.197   0.679   2.071 -1.2105  0.7750 -0.1404
   70SOL    HW2  210   0.352   0.734   2.078 -0.4698  0.1180  2.0940
   71SOL     OW  211   0.699   1.260   2.632 -0.1643  0.3041 -0.6165
   71SOL    HW1  212   0.638   1.237   2.554  0.0974 -0.4873 -1.4816
   71SOL    HW2  213   0.648   1.259   2.722 -0.9578 -2.2099  2.1534
   72SOL     OW  214   2.996   1.474   2.308 -0.3060 -0.2225 -0.5854
   72SOL    HW1  215   3.072   1.542   2.314  1.1804 -2.7927 -0.1632
   72SOL    HW2  216   2.925   1.498   2.237  0.7778  3.0576  0.7170
   73SOL     OW  217   1.603   1.665   0.500  0.3349  0.0114 -0.2612
   73SOL    HW1  218   1.601   1.696   0.404 -0.6696 -0.4061 -0.8182
   73SOL    HW2  219   1.521   1.603   0.517 -0.0242 -1.8560  0.2124
   74SOL     OW  220   2.406   3.008   2.687  0.3809  0.0021 -0.8561
   74SOL    HW1  221   2.353   3.076   2.740 -1.0622  0.3545  1.0300
   74SOL    HW2  222   2.353   2.928   2.656  0.8635 -0.5678  1.7264
   75SOL     OW  223   1.761   2.152   1.233  0.0175 -0.2278 -0.0569
   75SOL    HW1  224   1.797   2.236   1.272 -0.8041  0.5622 -1.9675
   75SOL    HW2  225   1.832   2.110   1.173  0.8086 -0.8882 -1.4999
   76SOL     OW  226   2.944   2.026   2.017  0.3491  0.6575  0.7390
   76SOL    HW1  227   3.002   1.943   2.007 -1.7712 -1.3111  2.3449
   76SOL    HW2  228   2.956   2.090   1.935 -2.3481  2.6468 -3.1235
   77SOL     OW  229   0.139   0.127   2.010  0.7143  0.1904  0.1091
   77SOL    HW1  230   0.174   0.103   1.921 -1.4394 -0.6897  2.7917
   77SOL    HW2  231   0.108   0.225   2.008 -0.3220  1.3887 -1.6758
   78SOL     OW  232   2.399   1.033   3.034  0.0644 -0.1892  0.2697
   78SOL    HW1  233   2.418   1.133   3.048 -0.9473  0.2601  1.3514
   78SOL    HW2  234   2.414   1.011   2.936  1.0368 -1.0368 -1.5676
   79SOL     OW  235   2.978   1.218   2.444 -0.7114  0.2512 -0.0563
   79SOL    HW1  236   2.948   1.251   2.537  1.2710  1.4750 -2.2911
   79SOL    HW2  237   2.960   1.296   2.380 -0.8078  0.6160 -1.6098
   80SOL     OW  238   1.436   1.366   1.468 -0.4698 -0.4083 -0.0867
   80SOL    HW1  239   1.485   1.422   1.532 -1.7707 -4.1210 -0.2237
   80SOL    HW2  240   1.375   1.310   1.525  0.0393 -0.4042  0.6343
   81SOL     OW  241   2.153   0.994   1.826 -0.0013 -0.2424  0.2747
   81SOL    HW1  242   2.106   0.910   1.858 -1.1165  0.1854 -1.2727
   81SOL    HW2  243   2.252   0.977   1.801  1.6538 -0.1070  0.3534
   82SOL     OW  244   1.595   1.546   1.641 -0.6590  0.3099  0.2082
   82SOL    HW1  245   1.624   1.512   1.733  0.1645  0.9398 -1.4660
   82SOL    HW2  246   1.676   1.577   1.585  2.4051 -0.0466 -2.8285
   83SOL     OW  247   0.365   0.197   0.216  0.1749  0.0134  0.6013
   83SOL    HW1  248   0.298   0.127   0.185  1.0794  2.1999 -1.4562
   83SOL    HW2  249   0.406   0.258   0.145  0.2922 -2.6461  1.7169
   84SOL     OW  250   0.224   0.805   3.047  0.0380  0.0654 -0.0526
   84SOL    HW1  251   0.261   0.710   3.048 -1.7904  0.8976  1.5265
   84SOL    HW2  252   0.155   0.808   0.046  4.4496 -0.2004  0.3043
   85SOL     OW  253   2.223   2.103   1.039  1.1006 -0.2906  0.2449
   85SOL    HW1  254   2.232   2.018   0.982 -0.0760 -1.6446  0.1412
   85SOL    HW2  255   2.265   2.178   0.983 -0.5617 -0.8144 -2.2710
   86SOL     OW  256   0.441   2.379   1.314  0.1744  0.1380 -0.4067
   86SOL    HW1  257   0.509   2.313   1.354 -0.0471 -0.5560 -1.7560
   86SOL    HW2  258   0.419   2.363   1.217  3.0324  1.0711  1.3352
   87SOL     OW  259   0.525   2.383   2.104  0.1851 -0.3377  0.1808
   87SOL    HW1  260   0.618   2.418   2.082  0.6724 -1.2875 -1.8446
   87SOL    HW2  261   0.526   2.313   2.178  0.4364 -1.8745 -0.9729
   88SOL     OW  262   3.059   2.068   0.198 -0.2884  0.2046  0.0142
   88SOL    HW1  263   2.971   2.045   0.239  2.4889 -1.8767 -1.7015
   88SOL    HW2  264   0.029   1.984   0.155 -1.0151  0.3218  0.0269
   89SOL     OW  265   0.869   1.007   1.014  0.6632 -0.2687  0.2652
   89SOL    HW1  266   0.928   0.943   1.065  2.1279  3.5752 -0.9479
   89SOL    HW2  267   0.787   0.963   0.977  0.2432  1.7747  0.4806
   90SOL     OW  268   0.302   1.338   2.027  0.6788 -0.3352 -0.3455
   90SOL    HW1  269   0.356   1.408   1.977 -0.4387  0.6635 -0.3035
   90SOL    HW2  270   0.201   1.353   2.022  1.0149 -0.1012 -0.4054
   91SOL     OW  271   1.260   1.025   1.142  0.2503  0.1967  0.2660
   91SOL    HW1  272   1.163   1.054   1.157 -2.0706  2.3501 -0.4391
   91SOL    HW2  273   1.282   1.018   1.042  1.1616 -1.2245 -2.0609
   92SOL     OW  274   1.849   1.150   0.832  0.7065 -0.1981  0.6596
   92SOL    HW1  275   1.809   1.165   0.925  0.5965 -2.3773 -0.5741
   92SOL    HW2  276   1.817   1.231   0.775  0.5741  0.2638 -1.4504
   93SOL     OW  277   2.814   0.762   2.412  0.4266 -0.5788 -0.7410
   93SOL    HW1  278   2.794   0.764   2.317  1.5291 -0.1758  3.5318
   93SOL    HW2  279   2.864   0.672   2.432  1.2420 -0.8751  0.9477
   94SOL     OW  280   2.266   1.761   2.722  0.0018  0.2873  0.3501
   94SOL    HW1  281   2.290   1.746   2.621 -0.7070  1.1094  1.2440
   94SOL    HW2  282   2.163   1.735   2.734 -1.9720  0.4002 -0.0825
   95SOL     OW  283   2.897   0.429   1.101  0.0013 -0.2457 -0.1160
   95SOL    HW1  284   2.864   0.497   1.036  2.1939  2.0636  4.9436
   95SOL    HW2  285   2.912   0.339   1.051 -0.1720 -0.2905 -0.6024
   96SOL     OW  286   2.582   2.752   1.558 -0.1820 -0.2605  0.4062
   96SOL    HW1  287   2.524   2.801   1.629  2.4725  0.0503 -0.8452
   96SOL    HW2  288   2.531   2.675   1.525  2.8442 -1.8520 -4.4476
   97SOL     OW  289   2.595   0.935   1.569 -0.0933  0.3352  0.0995
   97SOL    HW1  290   2.530   0.932   1.487 -1.6983  1.8613 -0.0315
   97SOL    HW2  291   2.637   1.028   1.583  2.2088  1.3618 -0.0747
   98SOL     OW  292   1.820   2.486   1.815  0.6433  0.1147 -0.2969
   98SOL    HW1  293   1.885   2.420   1.858  1.4036 -0.0288 -2.1292
   98SOL    HW2  294   1.769   2.439   1.737 -2.4236 -2.4352  0.1162
   99SOL     OW  295   0.263   2.445   1.508 -0.0262  0.6368 -0.3883
   99SOL    HW1  296   0.330   2.422   1.437 -1.2772  2.0441  0.2968
   99SOL    HW2  297   0.291   2.516   1.575 -0.4972  0.4307  0.0366
  100SOL     OW  298   1.547   0.343   2.719 -0.2481  0.1216 -0.1590
  100SOL    HW1  299   1.569   0.308   2.625 -0.3650  2.7178 -1.6523
  100SOL    HW2  300   1.606   0.425   2.747  0.6577  0.0466  1.7191
  101SOL     OW  301   2.554   0.378   2.680 -0.0976  0.2797  0.3570
  101SOL    HW1  302   2.452   0.357   2.669  0.6179  1.0419 -0.8260
  101SOL    HW2  303   2.603   0.379   2.594  1.4935  0.4493  2.5557
  102SOL     OW  304   0.426   0.816   1.552 -0.5608 -0.3726 -0.3982
  102SOL    HW1  305   0.418   0.780   1.646  0.2482 -0.7970 -0.0451
  102SOL    HW2  306   0.333   0.859   1.536  1.6461 -0.2233 -0.0195
  103SOL     OW  307   0.872   0.984   2.599  0.2169 -0.0893  0.7816
  103SOL    HW1  308   0.792   1.047   2.592 -0.7778  2.1844 -0.1600
  103SOL    HW2  309   0.883   0.951   2.693 -0.3292 -3.3632  3.3742
  104SOL     OW  310   0.450   0.780   2.632 -0.0507  0.1692  0.2523
  104SOL    HW1  311   0.356   0.755   2.669  0.9058 -0.3598 -0.3793
  104SOL    HW2  312   0.495   0.841   2.699 -2.6685  0.6806 -2.1116
  105SOL     OW  313   2.141   2.088   1.751 -0.0570  0.1096  0.2943
  105SOL    HW1  314   2.211   2.030   1.800 -1.1417  2.8271  3.2104
  105SOL    HW2  315   2.084   2.034   1.681 -2.8507 -3.8603 -2.2258
  106SOL     OW  316   1.693   2.964   0.340  0.2520 -0.3210  0.4833
  106SOL    HW1  317   1.711   2.888   0.401  2.5870  1.3374 -1.1501
  106SOL    HW2  318   1.763   2.964   0.270 -0.1142 -2.0261  0.7538
  107SOL     OW  319   1.979   2.017   1.102 -0.0885 -0.4414  0.8207
  107SOL    HW1  320   1.968   1.917   1.091  1.5974 -0.4253  0.6331
  107SOL    HW2  321   2.079   2.044   1.085 -0.5059 -2.2143 -0.5659
  108SOL     OW  322   2.846   2.766   1.522 -0.0891  0.0248  0.0630
  108SOL    HW1  323   2.861   2.667   1.503  1.0648  1.0896  2.3308
  108SOL    HW2  324   2.753   2.776   1.551  2.4070 -1.9339 -0.8234
  109SOL     OW  325   1.778   2.365   0.745  0.2302 -0.0897  0.4201
  109SOL    HW1  326   1.818   2.290   0.802 -0.0988 -0.1999  2.2315
  109SOL    HW2  327   1.678   2.352   0.735  3.2130 -1.5093 -2.4609
  110SOL     OW  328   0.846   1.694   2.051  0.0646  0.1834  0.5155
  110SOL    HW1  329   0.879   1.597   2.043 -0.6872 -0.6649  2.4213
  110SOL    HW2  330   0.917   1.762   2.017 -0.3222 -0.1769 -1.3867
  111SOL     OW  331   1.792   2.216   2.012  0.0512  0.3215  0.1595
  111SOL    HW1  332   1.733   2.229   1.928 -0.0764 -0.5456 -1.5471
  111SOL    HW2  333   1.738   2.206   2.096  0.6375  0.1648 -0.4414
  112SOL     OW  334   1.686   1.574   2.385  0.2632  0.3981  0.1414
  112SOL    HW1  335   1.716   1.666   2.349  0.1241  0.9274 -1.4492
  112SOL    HW2  336   1.750   1.502   2.347  0.7505  1.3771 -1.0681
  113SOL     OW  337   1.660   1.827   1.878  0.9164 -0.0718 -0.8239
  113SOL    HW1  338   1.568   1.839   1.830 -3.5580  2.6156 -1.3022
  113SOL    HW2  339   1.644   1.782   1.970 -0.8186  1.0256  0.5396
  114SOL     OW  340   2.961   1.179   1.449 -0.3444  0.2991 -0.2359
  114SOL    HW1  341   2.877   1.217   1.403  2.1615  1.1881 -0.2974
  114SOL    HW2  342   2.951   1.081   1.472  1.0029  2.8247 -2.8981
  115SOL     OW  343   0.814   0.679   0.254 -0.0719 -0.1320  0.3807
  115SOL    HW1  344   0.737   0.613   0.243  1.5719 -2.4079  0.2170
  115SOL    HW2  345   0.803   0.738   0.336 -0.3955  2.3873 -0.0836
  116SOL     OW  346   2.739   1.777   2.303 -0.1385 -0.1063  0.3849
  116SOL    HW1  347   2.713   1.845   2.231 -1.0767 -0.8852  1.6168
  116SOL    HW2  348   2.707   1.810   2.394  1.8349 -0.0531  2.1182
  117SOL     OW  349   3.072   2.534   0.803 -0.8519 -0.0241 -0.1710
  117SOL    HW1  350   3.049   2.452   0.747 -0.8217 -2.8975  0.1592
  117SOL    HW2  351   0.013   2.509   0.904  0.9567  0.4179 -3.9058
  118SOL     OW  352   0.560   1.761   2.901  0.3065 -0.1619  0.2277
  118SOL    HW1  353   0.504   1.849   2.895  2.6453  1.8424  2.2031
  118SOL    HW2  354   0.609   1.760   2.988 -0.5237 -2.3449 -0.1921
  119SOL     OW  355   0.683   1.917   0.417  0.3052  0.5076  0.4992
  119SOL    HW1  356   0.657   1.900   0.514 -0.0223 -0.6852  1.7226
  119SOL    HW2  357   0.704   2.011   0.387  0.0926  0.7161 -1.2655
  120SOL     OW  358   1.360   0.425   0.264  0.3602 -0.0470  0.3140
  120SOL    HW1  359   1.453   0.434   0.295  0.0552 -0.3292  1.4234
  120SOL    HW2  360   1.292   0.402   0.339 -1.8736 -0.3808  0.0283
  121SOL     OW  361   1.452   2.549   0.706 -0.1950  0.0243  0.0160
  121SOL    HW1  362   1.472   2.459   0.754  0.1264 -0.8415 -1.5560
  121SOL    HW2  363   1.398   2.540   0.624 -0.2719 -1.5546  0.1211
  122SOL     OW  364   2.640   2.469   1.686  0.5276  0.5578  0.1938
  122SOL    HW1  365   2.639   2.421   1.776  1.4448  2.4801 -0.7652
  122SOL    HW2  366   2.708   2.424   1.622  0.0815 -2.3722  2.2250
  123SOL     OW  367   0.603   1.560   0.718  0.0905 -0.0645  0.0720
  123SOL    HW1  368   0.674   1.535   0.648  1.2942  1.4232 -1.5280
  123SOL    HW2  369   0.592   1.664   0.717 -0.7286  3.7051  2.3399
  124SOL     OW  370   2.944   0.971   0.479 -0.5714  0.8553 -0.3404
  124SOL    HW1  371   2.926   0.871   0.469 -1.5893  2.8080 -1.5611
  124SOL    HW2  372   2.988   1.004   0.393 -0.2755 -2.2792 -0.3617
  125SOL     OW  373   0.546   0.768   3.051  0.0577 -0.5345  0.6089
  125SOL    HW1  374   0.472   0.697   3.032 -0.3066  1.5215 -0.7503
  125SOL    HW2  375   0.524   0.815   0.060  1.4297 -2.3986 -1.8068
  126SOL     OW  376   2.909   1.847   0.445  0.5237  0.4222 -0.1815
  126SOL    HW1  377   2.858   1.770   0.490 -0.0436  1.6522 -2.3318
  126SOL    HW2  378   2.840   1.906   0.403  0.7116 -0.8851  0.8101
  127SOL     OW  379   1.419   2.323   1.930 -0.6680  0.0431 -0.2388
  127SOL    HW1  380   1.328   2.297   1.974  0.6540 -3.1903  1.0197
  127SOL    HW2  381   1.474   2.243   1.904 -1.7188  1.4314 -0.7016
  128SOL     OW  382   0.822   1.086   0.199 -0.2843  0.0170 -0.1809
  128SOL    HW1  383   0.772   1.049   0.116  0.9126  2.6036 -2.3264
  128SOL    HW2  384   0.834   1.189   0.199 -0.8763  2.9024 -0.7175
  129SOL     OW  385   1.776   1.894   1.610  0.1920  0.0095  0.8121
  129SOL    HW1  386   1.713   1.949   1.549 -0.9535 -1.6644  0.1136
  129SOL    HW2  387   1.750   1.895   1.714 -2.5373  1.4540  1.7806
  130SOL     OW  388   2.083   1.620   1.546  0.0839  0.5567  0.1429
  130SOL    HW1  389   2.105   1.613   1.642  0.0442 -0.0502 -2.2895
  130SOL    HW2  390   2.132   1.696   1.497 -1.6667 -0.5811  0.4969
  131SOL     OW  391   2.777   2.942   3.008  0.1576  0.0444 -0.2219
  131SOL    HW1  392   2.739   2.992   2.931  3.1778 -2.5143  1.2095
  131SOL    HW2  393   2.769   2.839   2.995  4.0066  0.4456 -1.2212
  132SOL     OW  394   2.505   1.986   0.725 -0.1479  0.1077 -0.0494
  132SOL    HW1  395   2.473   2.032   0.639  1.3752  0.3790  0.0003
  132SOL    HW2  396   2.534   1.889   0.696 -0.7795 -1.1903 -3.5789
  133SOL     OW  397   0.605   0.070   2.102  0.0215 -0.0527 -0.1064
  133SOL    HW1  398   0.601   0.106   2.008 -0.4823  0.5655 -1.4912
  133SOL    HW2  399   0.588   0.141   2.175  1.3078  1.7073  2.4223
  134SOL     OW  400   2.823   2.087   2.996 -0.1429  0.2504  0.2242
  134SOL    HW1  401   2.851   1.989   2.994 -0.3989  2.0122 -0.2041
  134SOL    HW2  402   2.727   2.090   2.966  2.3296  0.7455 -2.2786
  135SOL     OW  403   1.373   0.650   2.078  0.1548 -0.6318 -0.0460
  135SOL    HW1  404   1.375   0.699   1.989 -1.4441  1.0387  0.2869
  135SOL    HW2  405   1.468   0.634   2.115 -3.3687 -0.1878  0.5883
  136SOL     OW  406   2.377   1.577   0.560 -0.4209  0.5448 -0.5386
  136SOL    HW1  407   2.366   1.526   0.470 -3.2803  0.6484 -0.0208
  136SOL    HW2  408   2.374   1.515   0.641 -1.5262 -0.4570 -2.0769
  137SOL     OW  409   2.814   1.670   0.604  0.1825 -0.0083  0.0364
  137SOL    HW1  410   2.794   1.573   0.577 -3.5721 -1.2884 -1.1036
  137SOL    HW2  411   2.874   1.673   0.689  1.0401  2.0940 -0.5000
  138SOL     OW  412   2.523   0.798   1.165  0.0740 -0.2250 -0.4120
  138SOL    HW1  413   2.439   0.812   1.109 -1.1652 -0.4654 -0.5608
  138SOL    HW2  414   2.593   0.844   1.116  0.0243 -3.0780  0.8603
  139SOL     OW  415   0.511   2.504   2.940  0.3204  0.3452  0.1006
  139SOL    HW1  416   0.585   2.462   2.994 -1.3500  1.4532  0.2404
  139SOL    HW2  417   0.518   2.504   2.839 -0.6457  0.2314  0.4794
  140SOL     OW  418   1.056   2.045   1.120 -0.2041 -0.3549  0.0920
  140SOL    HW1  419   1.129   2.069   1.053  0.4983 -1.6530  1.6653
  140SOL    HW2  420   0.972   2.035   1.061 -2.0882 -0.4690 -0.8516
  141SOL     OW  421   1.241   2.194   0.649  0.0904 -0.5723 -0.3723
  141SOL    HW1  422   1.317   2.130   0.615  0.0260  0.9267  0.5174
  141SOL    HW2  423   1.152   2.155   0.622 -0.3065  1.2311 -3.7975
  142SOL     OW  424   1.043   0.580   0.963 -0.1326 -0.3920  0.1810
  142SOL    HW1  425   1.072   0.666   0.917  0.3913  1.4385  0.9665
  142SOL    HW2  426   0.941   0.572   0.955 -1.3640  1.5778  0.4302
  143SOL     OW  427   1.049   1.234   2.827  0.4049 -0.3156 -0.1126
  143SOL    HW1  428   1.136   1.244   2.881  0.6776 -0.4517 -1.2748
  143SOL    HW2  429   1.066   1.243   2.728 -4.8586  0.7352 -1.8627
  144SOL     OW  430   1.874   2.626   0.756 -0.4607 -0.1511  0.2175
  144SOL    HW1  431   1.791   2.686   0.769  1.9585  1.5430 -2.3628
  144SOL    HW2  432   1.845   2.533   0.728  0.2882  0.7102  0.6485
  145SOL     OW  433   1.861   0.711   2.689  0.3606  0.3366  0.0468
  145SOL    HW1  434   1.811   0.758   2.614  2.5889  0.0721 -0.5018
  145SOL    HW2  435   1.898   0.769   2.759 -2.1107 -0.1767 -0.0930
  146SOL     OW  436   0.095   2.751   0.656  0.0747 -0.3132  0.0251
  146SOL    HW1  437   0.174   2.739   0.595 -0.2260 -0.6468  1.3470
  146SOL    HW2  438   0.070   2.667   0.700 -0.3162 -1.3321 -1.5980
  147SOL     OW  439   1.705   0.561   1.806 -0.0219  0.5225 -0.3629
  147SOL    HW1  440   1.664   0.622   1.738  1.8401 -2.0127 -0.3469
  147SOL    HW2  441   1.699   0.609   1.894 -1.4309 -0.2575  0.0000
  148SOL     OW  442   1.315   0.411   1.923  0.7118  0.0578 -0.3957
  148SOL    HW1  443   1.341   0.494   1.979  0.1557  2.5412  2.2613
  148SOL    HW2  444   1.260   0.353   1.988 -0.7167  3.3543 -0.0054
  149SOL     OW  445   1.572   0.243   2.390 -0.2718  0.0642  0.2478
  149SOL    HW1  446   1.572   0.255   2.289 -0.2460 -0.6505 -2.1640
  149SOL    HW2  447   1.504   0.169   2.412  2.1495  2.3639 -2.0890
  150SOL     OW  448   2.677   3.048   0.291  0.2746  0.6448  0.2094
  150SOL    HW1  449   2.760   2.994   0.272  2.4653  0.0494  0.1023
  150SOL    HW2  450   2.646   0.021   0.207  2.2543  0.5637  0.9872
  151SOL     OW  451   0.603   1.247   2.877 -0.1499 -0.1371 -0.0617
  151SOL    HW1  452   0.510   1.206   2.860  0.0296  0.4998 -2.1382
  151SOL    HW2  453   0.674   1.179   2.899  2.7155  1.3585 -1.7975
  152SOL     OW  454   0.101   0.395   0.630  0.3373 -0.2335  0.1634
  152SOL    HW1  455   0.089   0.310   0.677 -0.4469 -0.8437  2.2241
  152SOL    HW2  456   0.160   0.390   0.546  2.2909 -0.6373  0.7416
  153SOL     OW  457   2.441   0.253   1.423  1.1000  0.1194 -0.0725
  153SOL    HW1  458   2.396   0.225   1.336 -1.4708  1.3534 -0.5845
  153SOL    HW2  459   2.481   0.171   1.471 -0.0619  1.3674 -0.6027
  154SOL     OW  460   1.517   0.291   2.128 -0.2311  0.3039  0.0888
  154SOL    HW1  461   1.576   0.278   2.042  2.1642 -0.0195 -2.6323
  154SOL    HW2  462   1.423   0.262   2.111  2.0090 -2.1072  1.1256
  155SOL     OW  463   0.009   1.697   0.312  0.0461  0.2831 -0.6608
  155SOL    HW1  464   0.061   1.754   0.246  4.3945  1.8659 -1.5750
  155SOL    HW2  465   3.028   1.753   0.375  0.1751  0.9278 -0.6181
  156SOL     OW  466   2.642   1.750   2.914  0.5406 -0.3101 -0.3870
  156SOL    HW1  467   2.714   1.798   2.961 -2.3482 -0.3568 -1.6714
  156SOL    HW2  468   2.615   1.670   2.973 -0.3235  0.9269  2.7656
  157SOL     OW  469   0.778   0.250   0.528  0.0582 -0.3520 -0.1143
  157SOL    HW1  470   0.774   0.313   0.449 -0.4801 -4.1275  0.9652
  157SOL    HW2  471   0.829   0.162   0.512  0.2431 -0.4409  2.1725
  158SOL     OW  472   2.365   0.590   1.851 -0.7637 -0.3284  0.2964
  158SOL    HW1  473   2.274   0.550   1.861 -0.5567  2.8736  1.9920
  158SOL    HW2  474   2.432   0.527   1.811 -5.4447  0.7188  1.1063
  159SOL     OW  475   0.291   0.303   0.459  0.0003 -0.0587 -0.3422
  159SOL    HW1  476   0.207   0.251   0.474 -0.4223 -1.6991 -3.3581
  159SOL    HW2  477   0.331   0.271   0.368  0.6297 -2.8097 -0.0825
  160SOL     OW  478   1.900   1.958   2.051 -0.3404 -0.1608 -0.0572
  160SOL    HW1  479   1.859   2.050   2.054 -0.2499  1.8945  1.9074
  160SOL    HW2  480   1.841   1.897   1.996 -0.4410 -0.5305  1.6728
  161SOL     OW  481   2.953   0.530   2.470 -0.3003  0.0524  0.5046
  161SOL    HW1  482   2.980   0.560   2.565 -0.1567 -1.3554  0.9316
  161SOL    HW2  483   3.010   0.446   2.446  0.8195 -0.3530 -0.1723
  162SOL     OW  484   1.096   2.874   1.549  0.2076 -0.3325 -0.2679
  162SOL    HW1  485   1.099   2.775   1.580  0.0591  1.8910  0.0220
  162SOL    HW2  486   1.109   2.933   1.630  0.0692 -0.3605 -0.4130
  163SOL     OW  487   2.656   0.285   2.218  0.0784 -0.0988  0.5405
  163SOL    HW1  488   2.613   0.190   2.217  2.5878  0.1737 -3.6506
  163SOL    HW2  489   2.751   0.274   2.183  2.2052  0.3732  0.0453
  164SOL     OW  490   2.303   1.728   3.057 -0.1232 -0.4053  0.6088
  164SOL    HW1  491   2.271   1.801   0.046  0.2647 -0.5382  1.0546
  164SOL    HW2  492   2.402   1.730   3.036  1.2740 -1.4625 -0.6720
  165SOL     OW  493   0.108   0.464   1.140 -0.0139 -0.1519 -0.3298
  165SOL    HW1  494   0.144   0.412   1.053  1.2652 -1.9039 -3.0069
  165SOL    HW2  495   0.004   0.472   1.134 -4.6032 -0.8039 -0.1250
  166SOL     OW  496   2.237   0.750   0.230  0.3780  0.0311  0.2669
  166SOL    HW1  497   2.335   0.730   0.211 -1.1113  0.1302  1.2989
  166SOL    HW2  498   2.212   0.837   0.179 -0.9482 -0.1534  1.2030
  167SOL     OW  499   2.694   0.819   3.028  0.2495 -0.1662 -0.0801
  167SOL    HW1  500   2.639   0.779   2.955 -0.2661  0.4795  2.3637
  167SOL    HW2  501   2.640   0.888   0.008 -1.2589  0.2733  2.2858
  168SOL     OW  502   1.745   3.007   2.691  0.4603 -0.0692  0.1074
  168SOL    HW1  503   1.753   2.917   2.645  1.2140 -5.0301 -3.2459
  168SOL    HW2  504   1.813   3.071   2.647 -0.8181  2.0748 -0.3063
  169SOL     OW  505   0.070   1.467   0.845  0.2729  0.2732 -0.1832
  169SOL    HW1  506   3.053   1.434   0.844  2.4889  2.4839 -1.3539
  169SOL    HW2  507   0.136   1.391   0.839  0.0709  1.9229  3.4134
  170SOL     OW  508   0.204   0.966   1.315  0.4912 -0.2945  0.1580
  170SOL    HW1  509   0.195   1.000   1.415 -0.7264 -0.7528  0.9898
  170SOL    HW2  510   0.201   0.862   1.307  1.0158 -0.4782  0.3864
  171SOL     OW  511   2.517   2.088   1.925 -0.1389  0.2030  0.5372
  171SOL    HW1  512   2.547   2.111   1.831 -0.5428 -0.9587 -0.0270
  171SOL    HW2  513   2.444   2.018   1.918  1.1830  2.0535 -1.0167
  172SOL     OW  514   0.203   2.171   1.537 -0.6085 -0.0926  0.0228
  172SOL    HW1  515   0.133   2.138   1.469  2.2102 -1.9657  1.1081
  172SOL    HW2  516   0.216   2.274   1.524 -1.6167  2.7378  0.6333
  173SOL     OW  517   1.166   1.333   0.056  0.1774  0.3368 -0.1808
  173SOL    HW1  518   1.181   1.367   0.152  1.1413  1.1279 -0.7352
  173SOL    HW2  519   1.140   1.411   3.073 -0.1361 -0.7263  0.8716
  174SOL     OW  520   1.272   0.641   2.832 -0.1029  0.0661  0.5008
  174SOL    HW1  521   1.356   0.674   2.785 -0.2042 -0.4891  0.7091
  174SOL    HW2  522   1.287   0.630   2.931 -0.3797 -1.3775  1.5852
  175SOL     OW  523   1.441   1.937   1.003  0.5142 -0.3508 -0.7908
  175SOL    HW1  524   1.391   1.872   1.060 -0.1214  1.7807  1.1666
  175SOL    HW2  525   1.529   1.899   0.973 -0.4834  0.0672  1.2171
  176SOL     OW  526   1.467   3.065   0.212 -0.0740  0.3735  0.2503
  176SOL    HW1  527   1.432   2.986   0.158  2.3776 -1.1201  1.9029
  176SOL    HW2  528   1.559   3.055   0.243 -2.0044  2.0432 -1.2009
  177SOL     OW  529   0.288   1.035   2.917 -0.5034  0.9462 -0.2700
  177SOL    HW1  530   0.229   1.109   2.951 -0.0711 -0.9277 -1.7110
  177SOL    HW2  531   0.281   0.949   2.969 -0.9602  1.4409 -2.2006
  178SOL     OW  532   2.016   2.259   2.261  0.3213  0.2402  0.2299
  178SOL    HW1  533   2.111   2.288   2.275 -0.8303 -0.8033 -2.5209
  178SOL    HW2  534   2.013   2.155   2.273  1.7730  0.3329 -0.4479
  179SOL     OW  535   2.902   0.110   2.733 -0.3594 -0.4152 -0.0148
  179SOL    HW1  536   2.808   0.100   2.778  1.0270  1.0597 -0.8146
  179SOL    HW2  537   2.906   0.097   2.633 -1.9406 -2.2378  4.1283
  180SOL     OW  538   1.799   0.817   0.729  0.4807  0.0153  0.0789
  180SOL    HW1  539   1.889   0.781   0.758 -1.4908  0.9048  1.2286
  180SOL    HW2  540   1.721   0.802   0.795  0.2097  1.1848  0.6792
  181SOL     OW  541   2.122   1.157   2.404  0.6125  0.3804  0.5618
  181SOL    HW1  542   2.145   1.243   2.453 -0.1578  0.5740 -3.1137
  181SOL    HW2  543   2.047   1.111   2.455  0.8989  1.5936  1.0981
  182SOL     OW  544   2.717   2.404   2.163  0.2109 -0.5973 -0.3893
  182SOL    HW1  545   2.789   2.462   2.122  2.7930 -2.2880  2.9918
  182SOL    HW2  546   2.761   2.318   2.205  2.9225 -3.1233  0.9715
  183SOL     OW  547   1.981   0.771   1.893  0.0623  0.2385  0.0203
  183SOL    HW1  548   1.893   0.763   1.947  0.5849  3.2677  0.6737
  183SOL    HW2  549   2.028   0.677   1.904  0.4221 -2.6180  2.2318
  184SOL     OW  550   0.089   1.636   1.417  0.7597 -0.0856  0.3521
  184SOL    HW1  551   0.096   1.602   1.320 -1.2672  0.8596  0.4560
  184SOL    HW2  552   0.118   1.735   1.410  1.2698 -0.6333  0.8131
  185SOL     OW  553   2.330   0.042   0.791 -0.4827  0.5124  0.4495
  185SOL    HW1  554   2.424   0.069   0.820 -0.8797 -1.4263 -0.5495
  185SOL    HW2  555   2.325   3.017   0.771 -0.9031 -0.6422  0.9779
  186SOL     OW  556   2.963   2.593   2.712 -0.1559 -0.3199  0.1660
  186SOL    HW1  557   2.900   2.528   2.665  1.0467  1.9030 -1.4277
  186SOL    HW2  558   2.934   2.605   2.808  0.4696  2.6807  0.0642
  187SOL     OW  559   2.791   1.397   0.528  0.1243  0.3017 -0.0116
  187SOL    HW1  560   2.853   1.396   0.450 -0.5887  1.1682 -1.0857
  187SOL    HW2  561   2.750   1.300   0.525 -1.6967 -2.1212  0.0044
  188SOL     OW  562   2.292   1.137   1.104  0.6801  0.2209  0.0375
  188SOL    HW1  563   2.351   1.210   1.135 -1.5395 -1.8067 -2.6597
  188SOL    HW2  564   2.223   1.178   1.043 -0.3020 -2.4696  1.2545
  189SOL     OW  565   3.065   0.270   2.382 -0.2265  0.4666  0.0974
  189SOL    HW1  566   3.014   0.185   2.416 -2.3736 -2.6253  3.0595
  189SOL    HW2  567   0.088   0.264   2.411  0.5826  1.0756  1.8202
  190SOL     OW  568   1.573   1.076   1.886  0.6561 -0.3407 -0.6362
  190SOL    HW1  569   1.498   1.133   1.841 -2.5242  0.3403 -1.3812
  190SOL    HW2  570   1.598   0.999   1.827 -0.8246 -0.7059 -0.8448
  191SOL     OW  571   0.940   0.249   1.980  0.3335 -0.6018 -0.4004
  191SOL    HW1  572   1.031   0.252   2.030  1.0372  1.0667  0.9769
  191SOL    HW2  573   0.885   0.335   2.003 -0.8100 -0.1043  1.2412
  192SOL     OW  574   1.441   1.938   1.780 -0.0028  0.1671  0.5288
  192SOL    HW1  575   1.393   1.879   1.848 -0.5618  0.0830 -1.5990
  192SOL    HW2  576   1.370   1.980   1.722  1.1520 -0.4362  2.0993
  193SOL     OW  577   1.661   0.487   0.985 -0.0644 -0.4382  0.1322
  193SOL    HW1  578   1.601   0.468   0.905 -1.6836  0.1145 -0.9134
  193SOL    HW2  579   1.617   0.555   1.046 -2.0257  0.8510  0.4221
  194SOL     OW  580   0.603   1.946   1.445 -0.7664  0.1494 -0.2885
  194SOL    HW1  581   0.626   1.900   1.532  1.9363  3.3702 -0.4596
  194SOL    HW2  582   0.604   1.884   1.366 -1.9103 -0.4087  3.0429
  195SOL     OW  583   1.677   0.365   0.429 -0.4505  0.7427  0.4030
  195SOL    HW1  584   1.764   0.384   0.476 -1.1922 -0.5901 -1.3916
  195SOL    HW2  585   1.692   0.312   0.346  1.8635  2.5978  0.2319
  196SOL     OW  586   0.386   1.294   1.587  0.0748  0.3318 -0.0363
  196SOL    HW1  587   0.406   1.317   1.494 -0.3993 -0.5652  3.9170
  196SOL    HW2  588   0.329   1.362   1.637  1.1590 -3.0332  1.1169
  197SOL     OW  589   1.041   0.339   1.607  0.0609 -0.1269 -0.3495
  197SOL    HW1  590   1.074   0.339   1.508  0.0173 -1.6160  0.6663
  197SOL    HW2  591   1.088   0.420   1.656  0.4576 -0.1313 -0.0092
  198SOL     OW  592   0.892   1.275   1.018  0.1567 -0.3492  0.5057
  198SOL    HW1  593   0.810   1.324   0.972 -3.8136 -1.9473  0.8164
  198SOL    HW2  594   0.874   1.177   1.007 -0.2184  0.5498 -2.1979
  199SOL     OW  595   3.026   2.234   1.815  0.5873  0.2271 -0.0397
  199SOL    HW1  596   3.007   2.334   1.808 -2.6070 -1.6106  0.1636
  199SOL    HW2  597   0.047   2.225   1.830 -0.9215 -0.6504 -0.2068
  200SOL     OW  598   1.832   1.400   1.754  0.3900  0.2628  0.2901
  200SOL    HW1  599   1.886   1.316   1.732 -0.3950 -0.0962 -2.6689
  200SOL    HW2  600   1.775   1.381   1.834  0.4478 -0.7944  0.5800
  201SOL     OW  601   0.631   1.819   2.131  0.1686  0.2770  0.6919
  201SOL    HW1  602   0.720   1.772   2.109  2.1946 -1.7541 -1.7885
  201SOL    HW2  603   0.555   1.771   2.084  1.0624  1.1562  0.4375
  202SOL     OW  604   1.389   0.261   3.074 -0.0431  0.0834  0.0047
  202SOL    HW1  605   1.459   0.326   3.040 -0.9006  2.3901  0.7162
  202SOL    HW2  606   1.390   0.254   0.099 -0.6448  1.2031 -1.2845
  203SOL     OW  607   1.361   2.899   2.399 -0.0916 -0.0419 -0.0884
  203SOL    HW1  608   1.461   2.893   2.432  2.2095 -2.3970  0.6742
  203SOL    HW2  609   1.360   2.922   2.304  0.4546 -2.3685 -0.0943
  204SOL     OW  610   0.686   1.750   1.824 -0.1217  0.1532  0.6285
  204SOL    HW1  611   0.750   1.795   1.760  2.4124 -1.0034 -1.0712
  204SOL    HW2  612   0.738   1.712   1.900 -0.3947  1.0534 -1.5594
  205SOL     OW  613   1.814   1.369   2.250 -0.7517 -0.1211 -0.0448
  205SOL    HW1  614   1.791   1.378   2.152 -0.1528  0.9466  1.9497
  205SOL    HW2  615   1.767   1.287   2.292  0.7677  0.5244  1.0823
  206SOL     OW  616   0.183   1.595   2.291  0.5074  0.3337  0.0466
  206SOL    HW1  617   0.279   1.567   2.284 -0.2848  1.3042  1.6298
  206SOL    HW2  618   0.161   1.627   2.385  2.5552 -1.7062 -0.1709
  207SOL     OW  619   1.074   2.985   1.856  0.4058 -0.0514  0.0778
  207SOL    HW1  620   1.045   3.002   1.952  1.3394  1.2042  1.8861
  207SOL    HW2  621   1.153   3.039   1.829 -1.7016 -0.9218  1.3664
  208SOL     OW  622   0.319   2.595   1.719  0.2430  0.2667  0.3005
  208SOL    HW1  623   0.303   2.530   1.793  0.3662 -2.1492 -0.2686
  208SOL    HW2  624   0.407   2.647   1.726 -0.8519  1.5460  0.7619
  209SOL     OW  625   1.387   2.967   0.539  0.3128 -0.5526  0.1902
  209SOL    HW1  626   1.486   2.983   0.548  0.0947 -0.0530 -0.5675
  209SOL    HW2  627   1.336   3.036   0.477  0.5034  0.3613 -1.1122
  210SOL     OW  628   2.758   0.840   1.010 -0.4314  0.2089  0.2438
  210SOL    HW1  629   2.781   0.742   0.986 -0.7036  1.2267 -0.6818
  210SOL    HW2  630   2.761   0.891   0.926  2.1849 -0.2409  2.1800
  211SOL     OW  631   0.692   0.339   1.680 -0.1142  0.1308 -0.3352
  211SOL    HW1  632   0.767   0.271   1.684 -0.8633  0.6529  0.1418
  211SOL    HW2  633   0.638   0.322   1.595  2.8889 -2.2778 -1.6148
  212SOL     OW  634   1.321   2.415   1.663  0.2232 -0.4346 -0.2013
  212SOL    HW1  635   1.389   2.448   1.593  0.1931 -0.7923  1.1539
  212SOL    HW2  636   1.365   2.392   1.751 -1.6585 -1.2884  0.0156
  213SOL     OW  637   2.936   0.438   1.447 -0.5147  0.9124 -0.1122
  213SOL    HW1  638   2.976   0.377   1.375 -1.5705  1.4168  0.9673
  213SOL    HW2  639   2.835   0.438   1.446  0.7475  0.6049  1.2498
  214SOL     OW  640   0.585   2.665   1.711  0.1948 -0.5345 -0.6974
  214SOL    HW1  641   0.667   2.622   1.664 -0.7030 -1.2861  0.2116
  214SOL    HW2  642   0.610   2.705   1.803  0.0886  2.2549  0.6264
  215SOL     OW  643   2.483   1.526   1.579 -0.3999  0.1224 -0.2942
  215SOL    HW1  644   2.436   1.462   1.645 -4.1576 -2.2525 -0.2296
  215SOL    HW2  645   2.477   1.624   1.606  0.2548 -3.1575  1.5586
  216SOL     OW  646   0.490   0.911   2.072 -0.0773 -0.3163  0.2328
  216SOL    HW1  647   0.514   1.004   2.041 -1.8173 -1.6304  1.6151
  216SOL    HW2  648   0.574   0.860   2.098 -0.9200  2.0148 -1.1619
  217SOL     OW  649   2.740   0.073   1.546 -0.2239 -0.1426  0.0709
  217SOL    HW1  650   2.641   0.057   1.565 -1.2054 -0.1120 -1.0804
  217SOL    HW2  651   2.746   0.094   1.446 -0.3027 -0.7402  0.2224
  218SOL     OW  652   1.505   2.179   1.118 -0.2064  0.0047 -0.3516
  218SOL    HW1  653   1.475   2.091   1.073 -0.2275 -2.8624 -1.5510
  218SOL    HW2  654   1.607   2.176   1.143  1.2886 -1.1827 -0.4618
  219SOL     OW  655   1.730   2.737   0.501 -0.3291 -0.5505  0.5707
  219SOL    HW1  656   1.713   2.752   0.602 -0.8982  0.9697 -0.5752
  219SOL    HW2  657   1.660   2.674   0.458 -0.7792  0.6011  0.5969
  220SOL     OW  658   1.632   2.474   0.119  0.1017 -0.2369 -0.1875
  220SOL    HW1  659   1.551   2.533   0.087 -4.1533  0.0681 -0.0179
  220SOL    HW2  660   1.717   2.505   0.070  0.7491 -1.7507 -0.7864
  221SOL     OW  661   2.565   1.742   0.688 -0.7278 -0.3251  0.3452
  221SOL    HW1  662   2.657   1.709   0.653  0.0558 -2.4025  0.6036
  221SOL    HW2  663   2.489   1.693   0.632 -1.6525  1.0181 -0.8065
  222SOL     OW  664   0.815   2.450   0.820  0.0039 -0.4440  0.0879
  222SOL    HW1  665   0.755   2.430   0.745 -1.2877 -3.2890  1.7184
  222SOL    HW2  666   0.775   2.488   0.902  1.8725 -1.6064  2.4846
  223SOL     OW  667   0.930   2.898   3.060  0.4912 -0.4223  0.4537
  223SOL    HW1  668   0.911   2.798   3.067 -0.8704  1.5341  1.7097
  223SOL    HW2  669   0.849   2.956   3.038 -1.3428  1.2547 -1.6959
  224SOL     OW  670   0.001   0.992   1.144 -0.2700  0.2156  0.5617
  224SOL    HW1  671   2.997   0.978   1.202  1.4770  0.1415 -2.2113
  224SOL    HW2  672   0.085   0.991   1.201 -1.1721  0.3237  3.4281
  225SOL     OW  673   2.988   1.748   0.839 -0.0071 -0.3983  0.1313
  225SOL    HW1  674   2.971   1.848   0.864  2.9826  1.0487 -1.4630
  225SOL    HW2  675   0.012   1.738   0.811  2.5158 -1.8289  1.1422
  226SOL     OW  676   1.067   2.630   1.112  0.6299  0.1105  0.7433
  226SOL    HW1  677   0.973   2.590   1.112 -3.3208 -1.6485 -0.3973
  226SOL    HW2  678   1.086   2.702   1.043 -0.3372  0.0658  2.9238
  227SOL     OW  679   0.976   1.512   1.386  0.0659 -0.2536  0.8821
  227SOL    HW1  680   1.012   1.450   1.315 -0.0747  3.4711  0.1563
  227SOL    HW2  681   0.877   1.504   1.393  2.9983 -0.6859 -0.3206
  228SOL     OW  682   1.255   0.203   2.110  0.0893  0.9667 -0.5408
  228SOL    HW1  683   1.274   0.106   2.138  1.5169  0.0118 -0.8177
  228SOL    HW2  684   1.187   0.245   2.178 -2.9707 -1.3935 -0.7994
  229SOL     OW  685   0.116   0.781   2.366  0.4477  0.1262 -0.0696
  229SOL    HW1  686   0.062   0.700   2.403  1.6791 -0.3286  0.8299
  229SOL    HW2  687   0.181   0.752   2.292 -0.9809  0.2509 -0.8087
  230SOL     OW  688   0.004   1.109   0.880  0.0951 -0.1047  0.3145
  230SOL    HW1  689   2.989   1.125   0.839  0.9209 -0.0777  0.2333
  230SOL    HW2  690   3.074   1.073   0.971  1.6643 -2.2051 -0.9053
  231SOL     OW  691   1.395   0.070   2.501 -0.2028  0.3282  0.0349
  231SOL    HW1  692   1.383   3.053   2.467 -0.7781 -2.6316  1.8094
  231SOL    HW2  693   1.429   0.078   2.597 -0.6074  1.5091 -2.1226
  232SOL     OW  694   0.209   1.624   0.012 -0.4022 -0.3583 -0.0481
  232SOL    HW1  695   0.260   1.625   3.001 -1.5473  0.0740  2.8800
  232SOL    HW2  696   0.246   1.554   0.073  0.4136  0.1511 -0.9600
  233SOL     OW  697   1.236   2.451   2.891  0.2386 -0.2840 -0.1549
  233SOL    HW1  698   1.309   2.457   2.821  0.0186 -0.2577 -1.0385
  233SOL    HW2  699   1.159   2.503   2.854 -0.2638  1.4634  2.5886
  234SOL     OW  700   0.750   1.375   1.961  0.6303  0.1944  0.1993
  234SOL    HW1  701   0.844   1.338   1.959 -0.7170 -0.3453  0.5361
  234SOL    HW2  702   0.726   1.399   2.055 -0.2235  1.5992 -0.6058
  235SOL     OW  703   0.306   2.416   1.945 -0.5310  0.0995  0.5414
  235SOL    HW1  704   0.282   2.334   1.891  1.1263  3.5016  0.2308
  235SOL    HW2  705   0.404   2.403   1.983  0.3097  1.7229 -0.2900
  236SOL     OW  706   1.656   2.117   2.682  0.2392 -0.4976  0.5209
  236SOL    HW1  707   1.635   2.050   2.757  3.1725 -0.8608 -0.2604
  236SOL    HW2  708   1.669   2.214   2.717  0.5164  0.4767  0.0621
  237SOL     OW  709   1.275   0.584   0.520  0.5628  0.2809 -0.0463
  237SOL    HW1  710   1.362   0.615   0.563  3.3309 -2.3156 -0.4381
  237SOL    HW2  711   1.212   0.661   0.496  1.2876 -0.4685  0.0731
  238SOL     OW  712   0.888   0.020   2.436  0.4639  0.1747  0.0734
  238SOL    HW1  713   0.867   3.001   2.401 -1.0870 -1.9579 -0.3331
  238SOL    HW2  714   0.819   0.087   2.406 -0.6321  0.0047  2.0129
  239SOL     OW  715   1.077   2.722   1.924  0.0108  0.6776  0.0733
  239SOL    HW1  716   1.051   2.639   1.872 -0.3540  1.7050 -1.0946
  239SOL    HW2  717   1.026   2.798   1.889  1.0106 -2.8048 -0.4169
  240SOL     OW  718   2.101   2.755   0.810 -0.3486 -0.0151  0.2728
  240SOL    HW1  719   2.023   2.704   0.768  1.8359  0.4986  0.4413
  240SOL    HW2  720   2.098   2.764   0.909  1.9534 -1.6357  0.8884
  241SOL     OW  721   1.586   1.451   1.937 -0.1363 -0.1359  0.0135
  241SOL    HW1  722   1.498   1.408   1.913 -1.2556  1.4195  2.3751
  241SOL    HW2  723   1.561   1.532   2.003 -2.4971  3.2461  1.0867
  242SOL     OW  724   2.489   0.636   0.125  0.8905 -0.0308  0.2686
  242SOL    HW1  725   2.581   0.664   0.141 -1.1477 -0.2058 -0.9908
  242SOL    HW2  726   2.458   0.652   0.033 -0.5229  1.8665  2.1269
  243SOL     OW  727   1.010   0.824   1.178 -0.1062 -0.1629 -0.4482
  243SOL    HW1  728   1.080   0.756   1.142  1.5605  0.2654  1.4558
  243SOL    HW2  729   0.952   0.787   1.252  1.5387 -1.7100 -0.8641
  244SOL     OW  730   1.524   0.076   2.752 -0.2734  0.0168  0.1643
  244SOL    HW1  731   1.557   0.166   2.787 -2.1197 -0.7774  1.2861
  244SOL    HW2  732   1.600   0.007   2.735  1.8409  1.3903  0.5881
  245SOL     OW  733   1.991   0.138   3.014  0.3165 -0.3926  0.0203
  245SOL    HW1  734   1.974   0.042   2.993  0.4586  0.7684  1.6436
  245SOL    HW2  735   2.073   0.159   0.003 -1.2195  1.1700 -0.6574
  246SOL     OW  736   1.069   0.883   1.497  0.2403  0.1292 -0.5553
  246SOL    HW1  737   1.143   0.831   1.450  0.1062 -1.0793 -0.8612
  246SOL    HW2  738   0.982   0.842   1.468 -0.8465 -0.0417  0.7438
  247SOL     OW  739   0.519   0.208   1.860  0.5843 -0.2750  0.1082
  247SOL    HW1  740   0.448   0.137   1.837  1.2137 -0.6749  2.4081
  247SOL    HW2  741   0.570   0.245   1.781  0.0440  0.5304  0.0307
  248SOL     OW  742   0.110   1.867   1.936 -0.6790 -0.4287 -0.4658
  248SOL    HW1  743   0.118   1.773   1.973  0.5658  0.6204 -2.8253
  248SOL    HW2  744   0.205   1.906   1.939 -0.0217 -3.5690  0.4824
  249SOL     OW  745   2.901   0.116   0.025 -0.1563  0.0026 -0.0543
  249SOL    HW1  746   2.888   0.019   3.069 -0.5752 -3.2086  0.0354
  249SOL    HW2  747   3.001   0.142   0.033 -1.5004  0.1668 -2.3874
  250SOL     OW  748   3.064   0.104   0.536  0.5946  0.1705 -0.2107
  250SOL    HW1  749   3.014   0.043   0.598  0.4228  1.9013  1.5734
  250SOL    HW2  750   3.051   0.083   0.437  1.3053 -0.4294 -0.5254
  251SOL     OW  751   0.706   1.434   1.375 -0.7235  0.4715 -0.3144
  251SOL    HW1  752   0.620   1.438   1.426  3.6498 -0.8700 -1.8656
  251SOL    HW2  753   0.735   1.336   1.360  0.7015 -1.2668  0.1220
  252SOL     OW  754   1.620   2.745   1.500  0.2888  0.1636  0.0624
  252SOL    HW1  755   1.706   2.737   1.442  0.5545 -2.6592  0.0609
  252SOL    HW2  756   1.556   2.809   1.454 -0.2562 -1.1175  1.0863
  253SOL     OW  757   2.345   1.721   2.462  0.7055 -0.2845  0.7377
  253SOL    HW1  758   2.381   1.811   2.430  0.6424  2.7042 -0.1568
  253SOL    HW2  759   2.366   1.646   2.396 -0.0425 -0.8067 -0.9238
  254SOL     OW  760   0.724   2.082   2.150 -0.3942  0.2070 -0.3853
  254SOL    HW1  761   0.685   1.990   2.124 -3.3557  0.5931 -1.9214
  254SOL    HW2  762   0.667   2.122   2.226  2.0395 -2.2370 -0.9431
  255SOL     OW  763   1.183   0.315   1.386 -0.0350 -0.3596  0.4578
  255SOL    HW1  764   1.276   0.350   1.412 -1.1363 -0.6837 -0.4872
  255SOL    HW2  765   1.186   0.217   1.377  0.8883  2.2963  0.2969
  256SOL     OW  766   2.226   2.092   1.302 -0.3773 -0.7584 -0.4873
  256SOL    HW1  767   2.147   2.041   1.337  0.0410 -2.0068  0.9758
  256SOL    HW2  768   2.232   2.108   1.201  0.6167 -0.7514 -0.5341
  257SOL     OW  769   0.624   2.167   2.832  0.1948  0.3983 -0.3038
  257SOL    HW1  770   0.714   2.207   2.799 -1.1095 -2.7711 -3.6294
  257SOL    HW2  771   0.581   2.225   2.906 -0.6293  0.4617  2.6789
  258SOL     OW  772   0.457   1.483   2.858  0.1161 -0.1969  0.3778
  258SOL    HW1  773   0.489   1.578   2.845 -0.6916 -1.8896 -0.5026
  258SOL    HW2  774   0.525   1.412   2.872 -0.6291  1.0668  0.1097
  259SOL     OW  775   0.727   1.516   2.621 -0.5579  0.0593 -0.3183
  259SOL    HW1  776   0.701   1.415   2.637  0.0338 -0.7140  1.2601
  259SOL    HW2  777   0.733   1.536   2.523 -1.6859 -0.3333 -0.8651
  260SOL     OW  778   1.902   1.043   1.273  0.0835  0.4085  0.2157
  260SOL    HW1  779   1.870   1.031   1.370  0.7314  0.9777 -0.1936
  260SOL    HW2  780   1.903   1.139   1.251 -0.0468 -1.4240 -1.0724
  261SOL     OW  781   1.184   0.328   0.978  0.0618  0.0652 -0.3845
  261SOL    HW1  782   1.149   0.421   0.968  2.7214 -1.8333  0.4637
  261SOL    HW2  783   1.261   0.323   1.047  1.5287  1.0831 -0.2744
  262SOL     OW  784   1.916   1.971   2.669  0.1749 -0.2834 -0.3816
  262SOL    HW1  785   1.980   2.017   2.606 -0.3868 -1.3108 -1.9740
  262SOL    HW2  786   1.825   2.015   2.665 -0.8079  1.2835 -0.7508
  263SOL     OW  787   3.015   1.602   0.036 -0.2981  0.3342  0.0572
  263SOL    HW1  788   2.960   1.516   0.065 -0.5701 -0.5325  3.0575
  263SOL    HW2  789   0.036   1.593   0.059  1.6984  0.6261  1.4601
  264SOL     OW  790   0.407   1.629   0.996 -0.2352  0.5163 -0.1965
  264SOL    HW1  791   0.367   1.552   1.049 -2.4092  1.2451 -0.5702
  264SOL    HW2  792   0.504   1.635   1.029  1.7537 -1.5885  0.5894
  265SOL     OW  793   0.472   0.906   0.740  0.1288  0.0911  0.0341
  265SOL    HW1  794   0.377   0.910   0.771 -0.1054 -1.3344  1.7642
  265SOL    HW2  795   0.510   1.001   0.732  1.9916 -0.2043 -0.8143
  266SOL     OW  796   1.244   1.836   0.350  0.1334 -0.0083  0.2215
  266SOL    HW1  797   1.207   1.763   0.413 -0.9005  0.8628 -1.2041
  266SOL    HW2  798   1.174   1.869   0.283  0.1570  0.0144  1.2151
  267SOL     OW  799   0.729   0.805   2.147 -0.4456  0.3477 -0.4649
  267SOL    HW1  800   0.802   0.800   2.074  5.0925  0.6274  2.1403
  267SOL    HW2  801   0.763   0.813   2.243 -0.7198 -2.1107 -2.8727
  268SOL     OW  802   0.623   0.893   2.831  0.3486  0.2831 -0.0901
  268SOL    HW1  803   0.689   0.967   2.857 -2.7281  0.3665 -1.7652
  268SOL    HW2  804   0.584   0.859   2.918  0.2809  1.2236 -1.3632
  269SOL     OW  805   1.798   2.962   2.335  0.0435 -0.1026  0.3242
  269SOL    HW1  806   1.740   2.989   2.255  0.3042 -1.9295  1.4453
  269SOL    HW2  807   1.733   2.935   2.411 -2.6081 -1.1031 -2.2995
  270SOL     OW  808   0.960   1.310   2.417 -0.2376  0.2986  0.0637
  270SOL    HW1  809   0.868   1.287   2.450 -0.3506  0.1087  2.0515
  270SOL    HW2  810   1.038   1.260   2.462  1.6739  1.5792 -2.3266
  271SOL     OW  811   0.121   0.170   0.059  0.1605 -0.3113 -0.2426
  271SOL    HW1  812   0.123   0.273   0.061  1.1525  0.1598 -0.0876
  271SOL    HW2  813   0.185   0.136   3.069 -2.1741 -0.1454  1.4792
  272SOL     OW  814   2.410   0.750   2.981 -0.4499  0.1735 -0.0309
  272SOL    HW1  815   2.382   0.835   3.024  0.9019 -1.6593 -1.2662
  272SOL    HW2  816   2.356   0.738   2.896 -1.3866  0.2829 -1.5840
  273SOL     OW  817   0.155   3.044   2.231  0.6509  0.2101 -0.5902
  273SOL    HW1  818   0.135   0.024   2.151 -3.0496 -2.0195  1.1363
  273SOL    HW2  819   0.210   0.023   2.293  0.9539 -1.6567 -3.6167
  274SOL     OW  820   0.025   0.371   1.954 -0.0810 -0.3567  0.2338
  274SOL    HW1  821   0.044   0.468   1.974  0.6872  3.4303 -1.4175
  274SOL    HW2  822   0.010   0.362   1.854  0.9951  0.9230  0.7245
  275SOL     OW  823   1.357   1.780   0.678 -0.1617  0.1112 -0.4655
  275SOL    HW1  824   1.443   1.736   0.652  0.2269 -0.6198 -1.8083
  275SOL    HW2  825   1.366   1.883   0.669 -2.4733  0.0240  1.2288
  276SOL     OW  826   0.590   1.158   2.340  0.0338 -0.0533 -0.0725
  276SOL    HW1  827   0.496   1.183   2.326 -2.4830  0.4935  0.1203
  276SOL    HW2  828   0.598   1.059   2.352 -0.3173  2.0275  0.3526
  277SOL     OW  829   1.915   2.677   2.417  0.0675 -0.0089  0.0531
  277SOL    HW1  830   1.877   2.599   2.361 -2.1873  0.3923  0.5107
  277SOL    HW2  831   1.884   2.770   2.386  0.1232  0.4612 -0.1734
  278SOL     OW  832   2.028   2.840   1.976  0.4107  0.3597 -0.4501
  278SOL    HW1  833   2.112   2.791   1.949 -0.2212 -0.7310 -1.6808
  278SOL    HW2  834   1.991   2.894   1.902 -0.6934 -2.2927 -1.6000
  279SOL     OW  835   1.760   1.230   0.101 -0.5922 -0.4287 -0.0350
  279SOL    HW1  836   1.676   1.261   0.142  0.4976 -1.5258 -2.1576
  279SOL    HW2  837   1.809   1.304   0.052  0.2027 -0.1106 -1.3696
  280SOL     OW  838   0.808   1.074   2.943  0.1232 -0.3497 -0.8778
  280SOL    HW1  839   0.888   1.135   2.917 -0.8299 -0.5470 -5.6600
  280SOL    HW2  840   0.843   0.985   2.966 -2.4098 -0.9135 -3.2867
  281SOL     OW  841   0.018   0.158   1.287  0.5482  1.0742 -0.1138
  281SOL    HW1  842   0.074   0.117   1.358 -2.0025  0.3006 -2.5267
  281SOL    HW2  843   0.066   0.239   1.255  1.1984 -2.3515 -1.9517
  282SOL     OW  844   2.911   2.000   0.902  0.0308  0.0030 -0.2781
  282SOL    HW1  845   2.981   2.015   0.971 -0.0876  2.8820 -2.6855
  282SOL    HW2  846   2.903   2.082   0.846  1.7770  0.1193 -0.7466
  283SOL     OW  847   1.315   1.792   1.971  0.2750  0.4303 -0.5628
  283SOL    HW1  848   1.347   1.744   2.056  2.6177  1.7265  0.1180
  283SOL    HW2  849   1.214   1.780   1.961  0.5907  1.6788 -0.9213
  284SOL     OW  850   1.910   2.917   0.176 -0.3243 -0.1220 -0.3238
  284SOL    HW1  851   1.994   2.865   0.208  0.2378  0.1738 -0.0554
  284SOL    HW2  852   1.922   2.951   0.082  1.9102 -3.6121  1.7596
  285SOL     OW  853   3.046   2.845   2.623  0.0648 -0.2357 -0.7277
  285SOL    HW1  854   0.039   2.843   2.550 -2.3278 -2.3826 -0.4085
  285SOL    HW2  855   3.018   2.751   2.647 -1.7267 -1.3704  0.5654
  286SOL     OW  856   2.123   2.576   1.244 -0.3698  0.3195  0.2765
  286SOL    HW1  857   2.124   2.607   1.344 -0.2109  0.2755  0.0505
  286SOL    HW2  858   2.221   2.570   1.205  0.4532  1.1111 -1.7903
  287SOL     OW  859   0.330   1.512   0.671 -0.5764 -0.0540 -0.1300
  287SOL    HW1  860   0.283   1.433   0.709 -0.4168 -1.0469  0.7346
  287SOL    HW2  861   0.429   1.523   0.700 -3.4208 -1.1081  1.3472
  288SOL     OW  862   1.982   1.693   2.713 -0.4230 -0.5589 -0.3568
  288SOL    HW1  863   1.974   1.632   2.632  0.1438  2.3846  3.5468
  288SOL    HW2  864   1.931   1.780   2.699  2.4726 -1.8817  1.2172
  289SOL     OW  865   0.362   1.658   2.573  0.2464  0.8052 -0.0263
  289SOL    HW1  866   0.436   1.721   2.548 -1.1848 -0.6331  1.0761
  289SOL    HW2  867   0.386   1.560   2.540  1.3919 -2.1937 -1.7940
  290SOL     OW  868   1.253   2.125   1.301 -0.0938  0.7089  0.1570
  290SOL    HW1  869   1.294   2.189   1.233  3.2635  1.0508  0.5809
  290SOL    HW2  870   1.171   2.084   1.257 -2.3721  2.6900 -1.8790
  291SOL     OW  871   1.799   1.068   2.946  0.1154  0.4834  0.2519
  291SOL    HW1  872   1.850   0.981   2.939  1.2156  0.9924  3.6967
  291SOL    HW2  873   1.804   1.113   3.037 -1.3130  1.0184  1.2896
  292SOL     OW  874   0.827   1.474   0.580  0.4140 -0.6177 -0.2733
  292SOL    HW1  875   0.766   1.435   0.505  1.4406 -0.1622  2.4947
  292SOL    HW2  876   0.875   1.397   0.626 -0.9791  0.3360  1.4679
  293SOL     OW  877   1.701   2.960   1.117  0.4385 -0.2138 -0.4003
  293SOL    HW1  878   1.617   2.912   1.091  0.3061  1.9166 -1.3054
  293SOL    HW2  879   1.734   3.020   1.040 -1.4866 -0.4491 -0.4843
  294SOL     OW  880   2.754   1.142   2.833 -0.1313  0.2171 -0.4820
  294SOL    HW1  881   2.681   1.138   2.762 -1.4886 -1.5729 -2.0045
  294SOL    HW2  882   2.829   1.081   2.809 -0.9323  0.5211  2.4228
  295SOL     OW  883   1.612   2.045   2.412 -0.1833  0.2127  0.2687
  295SOL    HW1  884   1.623   2.091   2.503 -2.6418 -1.2853 -1.3648
  295SOL    HW2  885   1.618   2.116   2.340 -2.5926 -1.0197  0.8205
  296SOL     OW  886   1.715   0.732   2.011  0.3540 -0.2714 -0.2774
  296SOL    HW1  887   1.695   0.829   2.046 -0.5974  4.0860  0.0208
  296SOL    HW2  888   1.673   0.662   2.072  1.7133 -1.4893 -3.2075
  297SOL     OW  889   0.015   0.644   2.007 -0.3827 -0.1747  0.0210
  297SOL    HW1  890   2.996   0.627   2.029  2.8469 -3.3957 -1.6416
  297SOL    HW2  891   0.023   0.735   1.959  1.3321  0.7995  0.9054
  298SOL     OW  892   1.185   2.235   2.130  0.2995 -0.1000 -0.0783
  298SOL    HW1  893   1.157   2.289   2.048 -0.0323 -2.0029  1.5448
  298SOL    HW2  894   1.124   2.154   2.149 -0.0515 -1.6799 -2.1373
  299SOL     OW  895   1.032   2.592   2.671 -0.1203  0.1736  0.2369
  299SOL    HW1  896   0.952   2.632   2.720 -1.0856  0.1455 -1.9933
  299SOL    HW2  897   1.088   2.663   2.619 -0.8913  2.6094 -0.5852
  300SOL     OW  898   3.004   1.021   2.799 -0.2759  0.2863  0.6604
  300SOL    HW1  899   3.005   0.943   2.866 -1.8643 -1.4396 -2.4305
  300SOL    HW2  900   3.066   1.001   2.715  0.8060 -3.3515 -3.7577
  301SOL     OW  901   1.822   1.004   1.534  0.1945  0.1301  0.1488
  301SOL    HW1  902   1.850   0.903   1.557  0.2111 -0.3308 -0.9981
  301SOL    HW2  903   1.723   1.014   1.544  2.6945  0.9372 -1.7299
  302SOL     OW  904   2.744   1.898   2.568 -0.3632  0.2466 -0.3047
  302SOL    HW1  905   2.795   1.816   2.593 -2.1046 -1.3166 -2.0548
  302SOL    HW2  906   2.664   1.899   2.627  0.7521  1.8009  0.0137
  303SOL     OW  907   0.147   2.840   2.425  0.4496  0.4110 -0.3169
  303SOL    HW1  908   0.236   2.838   2.474 -0.9719 -0.1851  0.1766
  303SOL    HW2  909   0.147   2.915   2.362  1.3545  0.4553  1.1846
  304SOL     OW  910   0.221   0.995   1.576  0.3525  0.0282 -0.2163
  304SOL    HW1  911   0.276   0.973   1.660  1.2923  2.6253 -0.8695
  304SOL    HW2  912   0.151   1.064   1.599 -1.5659 -0.1627 -0.5538
  305SOL     OW  913   3.034   0.339   1.708  0.0941  0.7815  0.7664
  305SOL    HW1  914   3.034   0.351   1.607  0.9685  0.3283  0.4098
  305SOL    HW2  915   2.938   0.311   1.733 -3.8189 -0.3269 -0.1028
  306SOL     OW  916   2.420   1.333   1.245 -0.3153 -0.0387  0.4101
  306SOL    HW1  917   2.376   1.301   1.335 -1.5183 -0.4986  1.6934
  306SOL    HW2  918   2.439   1.439   1.250  3.0961  3.4348  2.1193
  307SOL     OW  919   2.530   2.885   0.764  0.0935  0.4051  0.6599
  307SOL    HW1  920   2.612   2.851   0.710  1.5550 -0.9964 -1.5653
  307SOL    HW2  921   2.538   2.865   0.863 -1.4200 -2.7558  0.3926
  308SOL     OW  922   2.663   1.949   1.209 -0.9761  0.5544 -0.0396
  308SOL    HW1  923   2.647   1.920   1.113 -0.2607 -0.4326 -1.1173
  308SOL    HW2  924   2.743   1.895   1.247  1.1915 -2.4368 -1.9200
  309SOL     OW  925   2.103   1.823   1.957 -0.0529 -0.7223 -0.0843
  309SOL    HW1  926   2.050   1.736   1.934  1.5600 -1.2343  2.3314
  309SOL    HW2  927   2.035   1.888   1.992 -1.4142 -0.7306 -2.6306
  310SOL     OW  928   2.402   1.517   2.761 -0.0285  0.4971 -0.0566
  310SOL    HW1  929   2.335   1.445   2.793  0.3378  0.0693  1.4688
  310SOL    HW2  930   2.365   1.609   2.748  1.6859 -1.9412  1.8742
  311SOL     OW  931   2.113   1.068   2.799 -0.1419  0.5911  0.3521
  311SOL    HW1  932   2.055   1.061   2.714 -2.5549  1.2816  0.8715
  311SOL    HW2  933   2.051   1.055   2.877  0.7834  1.2288 -1.5652
  312SOL     OW  934   1.386   2.351   2.273  0.0717  0.3525 -0.2989
  312SOL    HW1  935   1.358   2.450   2.256 -1.6160  2.1083  1.3822
  312SOL    HW2  936   1.310   2.285   2.239 -1.5134 -0.5929  0.0776
  313SOL     OW  937   0.611   2.829   0.991  0.5281 -0.1006 -0.5525
  313SOL    HW1  938   0.531   2.796   0.933  0.5238 -0.3422 -2.4682
  313SOL    HW2  939   0.669   2.749   1.026  0.2960  1.0886 -0.7026
  314SOL     OW  940   0.646   1.543   1.125  0.2356  0.4723 -0.3546
  314SOL    HW1  941   0.668   1.492   1.210 -0.6259 -3.1188  0.2468
  314SOL    HW2  942   0.643   1.475   1.048 -0.4319  0.0075  0.0040
  315SOL     OW  943   0.776   2.492   2.093 -1.1163 -0.2945 -0.1430
  315SOL    HW1  944   0.845   2.485   2.167 -0.5116  1.2178  2.5304
  315SOL    HW2  945   0.825   2.471   2.005  0.7993 -0.3141 -0.9372
  316SOL     OW  946   0.058   2.038   1.116 -0.5088 -0.7930 -0.4937
  316SOL    HW1  947   0.028   2.072   1.208  1.1433 -1.3229 -0.1772
  316SOL    HW2  948   0.130   1.965   1.122  0.6342  0.5991 -1.6807
  317SOL     OW  949   1.864   0.559   0.275  0.2024 -0.3485  0.1300
  317SOL    HW1  950   1.792   0.597   0.334 -1.0393  0.7138  0.7585
  317SOL    HW2  951   1.904   0.493   0.344  1.5934 -0.3547  2.2957
  318SOL     OW  952   2.655   2.639   3.072  0.1340 -0.4876 -0.2291
  318SOL    HW1  953   2.651   2.569   0.069  2.4711  1.0211 -2.9135
  318SOL    HW2  954   2.732   2.620   3.012 -1.3523  1.7864 -1.1561
  319SOL     OW  955   1.391   1.823   0.112 -0.3215  0.1455  0.0010
  319SOL    HW1  956   1.341   1.816   0.199  0.7032 -0.8757 -0.0841
  319SOL    HW2  957   1.328   1.798   0.037  0.1181  1.3351  0.2240
  320SOL     OW  958   0.834   2.483   2.474 -0.0321  0.0370  0.5299
  320SOL    HW1  959   0.754   2.544   2.466 -0.2464 -0.9137 -1.5681
  320SOL    HW2  960   0.885   2.509   2.557 -1.4852  0.0206 -0.6688
  321SOL     OW  961   0.986   2.616   0.130 -0.0980  0.3262  0.0192
  321SOL    HW1  962   1.050   2.566   0.183 -3.2193 -1.4825 -0.3221
  321SOL    HW2  963   0.953   2.699   0.175 -0.6499 -1.7433 -0.9167
  322SOL     OW  964   2.206   0.378   2.333 -0.1846  0.2872  0.2142
  322SOL    HW1  965   2.234   0.281   2.325  1.6878  1.0993 -1.1361
  322SOL    HW2  966   2.281   0.442   2.362  0.2681 -0.1892 -0.7533
  323SOL     OW  967   2.865   0.945   0.752 -0.7377 -0.2497 -0.4291
  323SOL    HW1  968   2.909   0.872   0.808 -2.4414 -0.5335 -2.3984
  323SOL    HW2  969   2.919   0.958   0.666  0.3340 -2.1602 -1.9931
  324SOL     OW  970   0.386   0.462   2.227 -0.0587 -0.0864 -0.0979
  324SOL    HW1  971   0.331   0.548   2.212  2.6978  0.4277 -0.9512
  324SOL    HW2  972   0.426   0.428   2.144 -0.7908  0.2692  3.7479
  325SOL     OW  973   0.515   2.968   2.327 -0.7340  0.2111  0.0621
  325SOL    HW1  974   0.536   3.046   2.263 -0.8559  0.5497  0.3360
  325SOL    HW2  975   0.526   2.998   2.425  0.6883 -0.3118 -0.0163
  326SOL     OW  976   2.499   2.308   0.593  0.2942 -0.1807 -0.4260
  326SOL    HW1  977   2.462   2.275   0.687 -4.1233 -1.8902  1.2902
  326SOL    HW2  978   2.588   2.352   0.600 -1.2995 -1.1924  0.4960
  327SOL     OW  979   1.910   1.027   0.556 -0.4675  0.4445  0.3747
  327SOL    HW1  980   1.849   1.015   0.640 -2.6758 -0.9190  3.3859
  327SOL    HW2  981   1.851   1.042   0.477 -1.1655 -0.2665  2.9811
  328SOL     OW  982   0.337   2.007   2.237  0.1328  0.2654 -0.4843
  328SOL    HW1  983   0.342   1.933   2.306  0.0423 -0.6918  0.3483
  328SOL    HW2  984   0.242   2.038   2.227  0.3376 -1.4149 -1.4334
  329SOL     OW  985   2.887   2.494   1.528  0.1500 -0.2928 -0.1577
  329SOL    HW1  986   2.862   2.414   1.472  0.3648  2.8605  0.9962
  329SOL    HW2  987   2.914   2.469   1.624 -1.3739 -1.7738  1.3945
  330SOL     OW  988   2.433   1.281   1.738 -0.0791  0.3800 -0.9079
  330SOL    HW1  989   2.346   1.273   1.785  3.8902  0.9363 -1.2991
  330SOL    HW2  990   2.502   1.239   1.804 -0.9449  0.0678  0.8075
  331SOL     OW  991   2.690   1.869   0.947 -0.4153 -0.1752  0.1544
  331SOL    HW1  992   2.778   1.920   0.935  1.7555 -1.5744  2.1059
  331SOL    HW2  993   2.641   1.877   0.856 -0.4605 -0.7723 -2.0161
  332SOL     OW  994   0.534   2.686   0.419  0.1214  0.2354 -0.0091
  332SOL    HW1  995   0.572   2.699   0.512 -1.4576  0.3775 -1.2248
  332SOL    HW2  996   0.431   2.673   0.427 -2.0431 -2.3045 -0.1686
  333SOL     OW  997   2.195   0.063   2.219 -0.1199  0.7134 -0.5029
  333SOL    HW1  998   2.193   0.094   2.317  0.0710  0.0835  1.1712
  333SOL    HW2  999   2.115   0.001   2.200  0.1236 -0.5875 -0.8437
  334SOL     OW 1000   0.735   0.780   0.476 -0.4736  0.0849 -0.3690
  334SOL    HW1 1001   0.783   0.843   0.539 -0.1044  0.3679 -0.1448
  334SOL    HW2 1002   0.646   0.748   0.516 -3.7180 -2.3082  3.3488
  335SOL     OW 1003   0.386   2.551   2.299 -0.0507  0.1336  0.2768
  335SOL    HW1 1004   0.401   2.469   2.246  2.0167 -0.1176 -0.1993
  335SOL    HW2 1005   0.293   2.559   2.338  1.1177 -2.2162  4.7956
  336SOL     OW 1006   2.609   3.060   2.446  0.2639 -0.0385 -0.2141
  336SOL    HW1 1007   2.528   0.020   2.494 -3.3641 -0.6093 -1.4057
  336SOL    HW2 1008   2.588   3.039   2.348  2.0469  1.1252  0.6593
  337SOL     OW 1009   1.012   1.586   1.060 -0.4865 -0.2413 -0.0985
  337SOL    HW1 1010   1.033   1.493   1.096 -0.7394  1.6827 -1.5556
  337SOL    HW2 1011   1.077   1.633   0.995 -1.0464  0.7681 -1.0618
  338SOL     OW 1012   0.807   2.040   0.981 -0.4688 -0.3214  0.4051
  338SOL    HW1 1013   0.781   1.944   0.962 -1.3912  1.7356  1.0722
  338SOL    HW2 1014   0.723   2.097   1.000 -1.3636  0.8118  0.5040
  339SOL     OW 1015   0.029   1.187   1.665  0.0795 -0.3818  0.3145
  339SOL    HW1 1016   3.040   1.186   1.589 -2.3426  0.4033 -1.6431
  339SOL    HW2 1017   0.029   1.278   1.708  1.9096 -1.8193  1.7357
  340SOL     OW 1018   1.386   3.000   2.146  0.0714 -0.6678 -0.4496
  340SOL    HW1 1019   1.466   3.049   2.127  0.1240 -0.6435  1.6225
  340SOL    HW2 1020   1.355   2.953   2.064  0.8489  1.2281  1.9975
  341SOL     OW 1021   1.590   1.636   1.108 -0.1899 -0.8307 -0.2995
  341SOL    HW1 1022   1.514   1.687   1.155  0.1873  1.6212  0.3595
  341SOL    HW2 1023   1.667   1.621   1.175  0.8111  0.1062  0.8126
  342SOL     OW 1024   2.912   1.328   0.782  0.8035 -0.2583 -0.1262
  342SOL    HW1 1025   2.852   1.392   0.728  0.0450 -1.1666  0.4210
  342SOL    HW2 1026   2.873   1.313   0.873 -0.8740  1.4732 -0.5172
  343SOL     OW 1027   2.953   0.902   1.457 -0.1494 -0.8569  0.0398
  343SOL    HW1 1028   2.996   0.814   1.467 -0.1461  2.9599  0.5699
  343SOL    HW2 1029   2.880   0.905   1.386  1.7510  0.1048 -1.2049
  344SOL     OW 1030   1.914   0.462   0.999 -0.2272  0.3864  0.2555
  344SOL    HW1 1031   1.823   0.492   0.961 -0.5626  1.7680  1.0284
  344SOL    HW2 1032   1.897   0.419   1.087 -0.5409  1.0208 -2.0905
  345SOL     OW 1033   0.383   2.835   2.571 -0.2257 -0.0734 -0.1574
  345SOL    HW1 1034   0.426   2.790   2.493 -1.1712  0.3014  0.2562
  345SOL    HW2 1035   0.441   2.915   2.604  0.0666 -0.8834 -0.4553
  346SOL     OW 1036   2.261   1.461   0.119  0.0183  0.1125 -0.1877
  346SOL    HW1 1037   2.267   1.552   0.071 -3.5122  0.0237  0.3420
  346SOL    HW2 1038   2.174   1.468   0.176  1.6617  0.5609 -0.5090
  347SOL     OW 1039   1.987   3.008   1.695 -0.2081  0.2683  0.5142
  347SOL    HW1 1040   1.938   0.023   1.680  0.2213  1.9707 -0.7904
  347SOL    HW2 1041   1.920   2.930   1.691 -3.5805 -1.2214  1.1545
  348SOL     OW 1042   1.006   1.141   1.427  0.2506 -0.3965 -0.2368
  348SOL    HW1 1043   1.038   1.050   1.460  3.2124 -3.3386 -2.1373
  348SOL    HW2 1044   0.904   1.139   1.403 -1.9903  0.8788  1.8485
  349SOL     OW 1045   2.651   0.653   1.633  0.0197 -0.2588  0.4181
  349SOL    HW1 1046   2.666   0.576   1.570  0.1541  0.8465 -0.7421
  349SOL    HW2 1047   2.662   0.744   1.586  2.2810 -1.0947  0.3724
  350SOL     OW 1048   2.370   2.089   0.008 -0.2090 -0.2899 -0.6038
  350SOL    HW1 1049   2.317   2.049   3.004 -1.4834 -0.2699  2.1937
  350SOL    HW2 1050   2.316   2.081   0.094  1.4491  2.6641  1.6651
  351SOL     OW 1051   0.574   2.983   1.746  1.2248 -0.0112 -0.4512
  351SOL    HW1 1052   0.618   2.910   1.802 -1.3221 -0.8632  0.2852
  351SOL    HW2 1053   0.485   3.007   1.788  0.0731  0.9644  1.5215
  352SOL     OW 1054   2.020   2.379   1.965 -0.3903 -0.0850 -0.0500
  352SOL    HW1 1055   2.105   2.413   2.012 -0.6169 -2.4326  1.3417
  352SOL    HW2 1056   1.971   2.326   2.032  2.7668  2.2464 -1.1002
  353SOL     OW 1057   0.659   1.407   2.231 -0.2997 -0.1063 -0.0687
  353SOL    HW1 1058   0.641   1.307   2.251  1.9709  0.3731 -0.3429
  353SOL    HW2 1059   0.740   1.443   2.280  1.6370  2.5724  0.5611
  354SOL     OW 1060   1.048   1.934   0.170 -0.0907 -0.4690 -0.3183
  354SOL    HW1 1061   1.006   2.007   0.116  0.6715  0.4424  0.4867
  354SOL    HW2 1062   0.976   1.881   0.224 -1.2611 -0.8939  1.1733
  355SOL     OW 1063   2.023   0.147   0.797  0.5377  0.0163 -0.0665
  355SOL    HW1 1064   1.980   0.237   0.771 -0.6032  0.1312 -2.4444
  355SOL    HW2 1065   2.117   0.144   0.760 -1.7387 -0.2518 -1.0537
  356SOL     OW 1066   2.681   1.257   3.072  0.4115  0.2357 -0.1017
  356SOL    HW1 1067   2.706   1.224   2.979 -0.7566 -2.2245 -1.9051
  356SOL    HW2 1068   2.586   1.295   3.069  0.8376  0.2999  0.7807
  357SOL     OW 1069   2.862   0.029   2.056  0.2010 -0.2054 -0.1184
  357SOL    HW1 1070   2.899   0.114   2.092  0.0981 -0.2928 -0.0335
  357SOL    HW2 1071   2.774   0.049   2.011  2.6031  1.2625 -0.8072
  358SOL     OW 1072   0.206   1.403   0.442 -0.1504  0.4388  0.2191
  358SOL    HW1 1073   0.131   1.350   0.467  4.9563  3.0780  1.6475
  358SOL    HW2 1074   0.241   1.458   0.520  0.9763  0.6823 -0.5394
  359SOL     OW 1075   2.574   0.277   2.925  0.0063 -0.2435 -0.0080
  359SOL    HW1 1076   2.569   0.331   2.835 -1.3820 -1.8547 -1.1150
  359SOL    HW2 1077   2.639   0.312   2.992 -2.3777  1.2646  1.7875
  360SOL     OW 1078   1.458   0.989   1.304 -0.3901 -0.2893  0.0687
  360SOL    HW1 1079   1.524   1.064   1.279  0.1295  0.7986  0.6936
  360SOL    HW2 1080   1.376   0.999   1.249 -2.1730  1.0836  1.0172
  361SOL     OW 1081   2.582   2.330   0.991 -0.2369  0.1523 -0.3740
  361SOL    HW1 1082   2.606   2.314   1.085 -1.3306  2.4439  0.5752
  361SOL    HW2 1083   2.524   2.410   0.967 -1.5129 -0.0840 -1.2721
  362SOL     OW 1084   1.396   0.314   1.163 -0.2071 -0.3382  0.0090
  362SOL    HW1 1085   1.408   0.334   1.260 -0.9152 -0.1982 -1.5797
  362SOL    HW2 1086   1.444   0.232   1.133 -1.0094  0.7002 -0.7269
  363SOL     OW 1087   1.993   2.146   0.361  0.2117  0.2789 -0.5577
  363SOL    HW1 1088   2.062   2.096   0.428  1.8747 -1.5268  1.7767
  363SOL    HW2 1089   1.944   2.223   0.406  2.2967  0.2151  0.0428
  364SOL     OW 1090   0.263   0.654   1.009  0.1547  0.0253  0.2573
  364SOL    HW1 1091   0.246   0.692   1.103 -2.3929 -1.0974  0.6710
  364SOL    HW2 1092   0.274   0.552   1.014 -0.2099 -0.1698 -2.2532
  365SOL     OW 1093   0.379   2.827   0.783  0.1675 -0.0369 -0.0165
  365SOL    HW1 1094   0.293   2.783   0.814 -1.5317  0.0757  2.9349
  365SOL    HW2 1095   0.350   2.894   0.711 -0.3838 -0.2675  2.1210
  366SOL     OW 1096   2.913   1.361   0.090 -0.2401 -0.3806  0.1146
  366SOL    HW1 1097   2.984   1.293   0.112 -1.3801  3.2978  1.4414
  366SOL    HW2 1098   2.841   1.323   0.024 -3.6049 -0.4852 -1.0519
  367SOL     OW 1099   2.280   2.393   2.498  0.0243 -0.3628  0.8771
  367SOL    HW1 1100   2.261   2.482   2.444 -1.3543  3.6376 -1.2410
  367SOL    HW2 1101   2.300   2.418   2.595 -2.2693 -1.9614 -2.5903
  368SOL     OW 1102   2.122   1.692   0.527 -0.3716  0.3126 -0.2895
  368SOL    HW1 1103   2.203   1.644   0.575  3.8046 -1.2695  3.5723
  368SOL    HW2 1104   2.031   1.654   0.561 -0.5341 -4.0860 -0.1747
  369SOL     OW 1105   1.457   0.850   0.081  0.4119  0.0150  0.1686
  369SOL    HW1 1106   1.371   0.858   0.132  0.4519  2.4081 -0.5078
  369SOL    HW2 1107   1.467   0.755   0.040 -1.5115 -1.0161 -1.3819
  370SOL     OW 1108   0.709   3.059   0.887  0.1140  0.4097 -0.3422
  370SOL    HW1 1109   0.698   0.058   0.957 -1.5402 -0.9128  0.1592
  370SOL    HW2 1110   0.672   2.972   0.928  0.4178  0.3946 -0.5600
  371SOL     OW 1111   2.912   1.314   2.677  0.4889 -0.5470 -0.4215
  371SOL    HW1 1112   2.945   1.396   2.733 -0.8630  2.5409 -1.8204
  371SOL    HW2 1113   2.866   1.243   2.736 -1.0133  0.0388  1.1876
  372SOL     OW 1114   0.600   0.619   2.294  0.1589 -0.6943 -0.4758
  372SOL    HW1 1115   0.514   0.575   2.268 -1.9974 -1.4238  0.9962
  372SOL    HW2 1116   0.638   0.671   2.213 -2.8577  1.0710 -0.0658
  373SOL     OW 1117   0.576   0.246   2.872 -0.6063 -0.1546  0.2917
  373SOL    HW1 1118   0.510   0.239   2.795  0.5617 -0.6880 -0.4293
  373SOL    HW2 1119   0.669   0.221   2.837  1.0478  2.3247 -1.2344
  374SOL     OW 1120   1.173   1.814   3.016 -0.1965 -0.0378  0.3932
  374SOL    HW1 1121   1.130   1.831   2.925  1.9316  0.0729  1.7660
  374SOL    HW2 1122   1.129   1.872   0.011 -1.3284 -1.2036 -1.3111
  375SOL     OW 1123   0.889   0.167   1.733  0.1846  0.5324 -0.4211
  375SOL    HW1 1124   0.954   0.227   1.674  1.7009  3.7281 -0.2330
  375SOL    HW2 1125   0.910   0.168   1.834 -1.7759 -1.1325  3.2232
  376SOL     OW 1126   0.346   2.918   1.945 -0.3889  0.1013  0.1365
  376SOL    HW1 1127   0.329   3.004   1.986  0.2545 -2.3205 -0.4819
  376SOL    HW2 1128   0.372   2.852   2.018 -0.2126  1.1636  0.6097
  377SOL     OW 1129   2.612   2.315   2.750 -0.1727  0.1082 -0.1590
  377SOL    HW1 1130   2.532   2.373   2.739  2.1084 -0.9676  1.2634
  377SOL    HW2 1131   2.604   2.233   2.811 -0.2106 -0.6991  1.7439
  378SOL     OW 1132   1.944   0.104   0.265 -0.6678 -0.7607 -0.3747
  378SOL    HW1 1133   1.902   0.014   0.251 -0.0236  2.5570  0.4167
  378SOL    HW2 1134   2.024   0.124   0.205  2.3343  0.5314 -0.8254
  379SOL     OW 1135   1.518   0.681   0.601  0.4027  0.4300 -0.1627
  379SOL    HW1 1136   1.590   0.716   0.536 -0.8203  1.8206 -1.8472
  379SOL    HW2 1137   1.485   0.764   0.646 -2.2179  0.8478 -1.7450
  380SOL     OW 1138   2.594   2.129   1.667 -0.2304  0.2329 -0.3634
  380SOL    HW1 1139   2.692   2.105   1.673 -2.3587  0.5672 -1.1908
  380SOL    HW2 1140   2.573   2.114   1.570  1.1552 -0.8035  0.2219
  381SOL     OW 1141   2.636   1.211   1.915 -0.1748  0.4650  0.3916
  381SOL    HW1 1142   2.632   1.283   1.990  0.1794 -1.4352 -1.8266
  381SOL    HW2 1143   2.685   1.125   1.944 -1.8925  1.8963  0.9316
  382SOL     OW 1144   2.833   2.381   2.591 -0.0473  0.2555  0.2525
  382SOL    HW1 1145   2.749   2.362   2.646 -1.1321 -1.2011  0.1752
  382SOL    HW2 1146   2.834   2.324   2.506 -0.3874  3.4309  0.5668
  383SOL     OW 1147   1.183   0.953   2.955  0.1891  0.2880  0.1773
  383SOL    HW1 1148   1.272   0.909   2.930  0.0739  1.2517 -1.8744
  383SOL    HW2 1149   1.149   0.999   2.873 -2.0878  0.0032  2.9118
  384SOL     OW 1150   1.742   1.836   2.299 -0.1768  0.3742 -0.6821
  384SOL    HW1 1151   1.686   1.920   2.326 -0.4975  3.3409 -1.3383
  384SOL    HW2 1152   1.836   1.866   2.277  0.8713 -0.5135  1.6190
  385SOL     OW 1153   2.507   2.639   0.328 -0.3763  0.3641 -0.2251
  385SOL    HW1 1154   2.467   2.548   0.340 -0.4541  0.5434  2.5309
  385SOL    HW2 1155   2.473   2.703   0.401 -1.9056  1.2173  1.0254
  386SOL     OW 1156   1.737   1.361   0.683  0.1272  0.4233  0.4871
  386SOL    HW1 1157   1.679   1.314   0.612 -2.2865 -1.9189 -1.8369
  386SOL    HW2 1158   1.774   1.443   0.639 -0.6722 -0.2023 -0.5565
  387SOL     OW 1159   2.522   1.675   1.048 -0.5321  0.1011 -0.2699
  387SOL    HW1 1160   2.538   1.638   1.143  1.7125  0.2315 -3.7035
  387SOL    HW2 1161   2.603   1.735   1.027 -0.3879 -0.0536  1.5935
  388SOL     OW 1162   0.727   1.037   1.707 -0.4612 -0.3184 -0.3460
  388SOL    HW1 1163   0.676   1.013   1.618  0.0111 -0.3460  0.1620
  388SOL    HW2 1164   0.701   1.128   1.735 -0.3906 -0.3849 -0.4547
  389SOL     OW 1165   2.372   0.985   2.756 -0.2011 -0.0545  0.4016
  389SOL    HW1 1166   2.275   1.007   2.790  0.7284 -0.5774  1.4423
  389SOL    HW2 1167   2.381   1.036   2.663  0.7621  1.0856 -0.8889
  390SOL     OW 1168   0.834   1.448   3.052 -0.4321  0.1585 -0.2530
  390SOL    HW1 1169   0.929   1.470   3.025  2.3608 -2.0045  0.8520
  390SOL    HW2 1170   0.778   1.410   2.976 -2.7867 -1.7398 -0.4437
  391SOL     OW 1171   0.745   2.129   0.281 -0.0046 -0.2235  0.8984
  391SOL    HW1 1172   0.764   2.089   0.191 -0.4604  0.6021  1.0967
  391SOL    HW2 1173   0.662   2.187   0.277  1.6685 -0.3047 -0.0242
  392SOL     OW 1174   2.682   2.673   2.302 -0.2574 -0.1039  0.2962
  392SOL    HW1 1175   2.784   2.665   2.293  2.8486  1.3756 -1.0027
  392SOL    HW2 1176   2.645   2.580   2.285  0.6741 -0.4405 -2.7946
  393SOL     OW 1177   1.644   2.228   0.186  0.1220 -0.1407 -0.3420
  393SOL    HW1 1178   1.640   2.332   0.172  0.6396  0.7447  0.6439
  393SOL    HW2 1179   1.553   2.179   0.187  1.2249  1.0865  1.7128
  394SOL     OW 1180   0.755   0.246   2.373 -0.1538  0.2922 -0.0669
  394SOL    HW1 1181   0.735   0.286   2.462  0.1092 -0.1505  0.5806
  394SOL    HW2 1182   0.821   0.312   2.320  2.5955  2.3035 -1.5512
  395SOL     OW 1183   0.377   1.689   1.431  0.2295 -0.5104 -0.2848
  395SOL    HW1 1184   0.432   1.750   1.491 -0.3569 -0.8244  0.5947
  395SOL    HW2 1185   0.299   1.740   1.396  1.9866  1.1792 -1.1587
  396SOL     OW 1186   2.211   1.327   2.805 -0.2289  0.5171  1.2946
  396SOL    HW1 1187   2.157   1.243   2.785 -0.3840 -0.6327  0.8988
  396SOL    HW2 1188   2.149   1.389   2.856  0.1936 -1.3115 -0.4395
  397SOL     OW 1189   0.225   0.564   0.271 -0.8169  0.5978 -0.6055
  397SOL    HW1 1190   0.327   0.552   0.288  0.0997 -2.0508  3.1133
  397SOL    HW2 1191   0.184   0.610   0.353  0.7888  0.7626  2.3099
  398SOL     OW 1192   1.039   2.674   0.437  0.2456 -0.1016 -0.5984
  398SOL    HW1 1193   1.130   2.681   0.396 -0.3358  1.4490  2.4239
  398SOL    HW2 1194   0.966   2.732   0.397  1.0092 -0.0446  1.6744
  399SOL     OW 1195   1.874   2.489   2.606  0.1594 -0.2863  0.2333
  399SOL    HW1 1196   1.897   2.579   2.558  2.2402  1.1966  2.0291
  399SOL    HW2 1197   1.912   2.405   2.559  3.2556 -1.5235  0.2760
  400SOL     OW 1198   2.905   1.617   1.523 -0.4555 -0.9678 -0.3653
  400SOL    HW1 1199   2.876   1.526   1.542  1.6160  2.4892 -0.6669
  400SOL    HW2 1200   3.003   1.618   1.492 -1.6437 -2.3757  0.1733
  401SOL     OW 1201   1.124   0.778   0.802 -0.0593 -0.1720 -0.1339
  401SOL    HW1 1202   1.070   0.728   0.734  0.9223  2.1741  2.4274
  401SOL    HW2 1203   1.116   0.877   0.795 -0.0675 -2.1790  0.3384
  402SOL     OW 1204   0.559   3.045   2.577 -0.6931  0.2242  0.6119
  402SOL    HW1 1205   0.651   3.040   2.619 -1.4636  0.4880  0.1811
  402SOL    HW2 1206   0.521   0.066   2.583  1.6372  2.8045  1.8853
  403SOL     OW 1207   2.848   1.600   1.789  0.1472 -0.5455 -0.0004
  403SOL    HW1 1208   2.852   1.609   1.687  1.8933  0.5259  0.3883
  403SOL    HW2 1209   2.761   1.637   1.827  0.8083  1.3557  1.3525
  404SOL     OW 1210   2.476   2.001   1.391  0.0896  0.1676 -0.1925
  404SOL    HW1 1211   2.388   2.040   1.351 -1.4938  0.6215 -1.8402
  404SOL    HW2 1212   2.553   1.970   1.324  0.9386 -1.4098 -0.8963
  405SOL     OW 1213   2.300   0.312   2.633 -0.3272  0.5542 -0.4692
  405SOL    HW1 1214   2.269   0.238   2.573 -1.7863 -0.2122  0.1168
  405SOL    HW2 1215   2.226   0.381   2.636  1.0574 -1.2732 -2.2642
  406SOL     OW 1216   1.099   1.523   2.973 -0.4100 -0.0426  0.6255
  406SOL    HW1 1217   1.113   1.617   2.997 -0.0045 -2.2752  1.2502
  406SOL    HW2 1218   1.070   1.524   2.874 -0.1623 -0.1958 -0.3464
  407SOL     OW 1219   1.826   1.951   0.695 -0.3303 -0.6107 -0.6052
  407SOL    HW1 1220   1.810   1.992   0.605  1.4445 -1.4642  0.1262
  407SOL    HW2 1221   1.844   2.026   0.764 -0.0289  0.6302  2.2937
  408SOL     OW 1222   0.064   0.195   0.845 -0.3961  0.2323 -0.2941
  408SOL    HW1 1223   3.064   0.193   0.915  2.2053  1.1785  2.1689
  408SOL    HW2 1224   0.061   0.109   0.786  0.2813 -2.3682 -0.4616
  409SOL     OW 1225   1.596   1.510   0.868 -0.0323 -0.0092  0.1802
  409SOL    HW1 1226   1.614   1.545   0.960 -1.6150 -1.9571  1.9712
  409SOL    HW2 1227   1.684   1.491   0.820  0.6660  1.7257 -1.0754
  410SOL     OW 1228   2.177   2.254   0.189 -0.0221  0.0278 -0.1630
  410SOL    HW1 1229   2.106   2.196   0.234  0.0322 -0.7072 -0.5085
  410SOL    HW2 1230   2.231   2.314   0.243 -0.4549 -1.4523  0.6572
  411SOL     OW 1231   0.170   2.921   0.341  0.0075  0.2570  0.5739
  411SOL    HW1 1232   0.109   2.998   0.332  3.1905 -3.8180 -3.4155
  411SOL    HW2 1233   0.245   2.945   0.410  1.7452  1.9427 -1.8855
  412SOL     OW 1234   1.548   2.996   0.851 -0.1285 -0.1646 -0.4469
  412SOL    HW1 1235   1.465   3.042   0.890  1.3660 -1.9658 -0.5863
  412SOL    HW2 1236   1.626   3.064   0.843  0.6915 -0.2515 -0.6139
  413SOL     OW 1237   1.808   0.319   2.439 -0.2681  0.0615 -0.0470
  413SOL    HW1 1238   1.790   0.419   2.423  0.0467  1.0334 -1.4366
  413SOL    HW2 1239   1.728   0.263   2.410  1.5803 -2.3648  3.0241
  414SOL     OW 1240   0.163   0.715   0.478  0.4541  0.2633 -0.1127
  414SOL    HW1 1241   0.171   0.701   0.579 -0.1876  1.3648  2.1138
  414SOL    HW2 1242   0.214   0.799   0.445  0.3358  0.2097  0.4545
  415SOL     OW 1243   0.084   1.297   1.276  0.1302  0.2782  0.2757
  415SOL    HW1 1244   0.007   1.255   1.332 -1.1835  0.2547  0.6868
  415SOL    HW2 1245   0.116   1.227   1.208  0.4173  1.5722  0.2860
  416SOL     OW 1246   0.360   0.566   3.013 -0.4691 -0.0852  0.5114
  416SOL    HW1 1247   0.282   0.524   2.968 -2.6360 -0.3073  0.5182
  416SOL    HW2 1248   0.417   0.493   3.056 -1.5572 -0.9841  2.1023
  417SOL     OW 1249   2.448   0.464   0.891 -0.4831 -0.4438  0.0842
  417SOL    HW1 1250   2.525   0.460   0.825 -2.4947  0.3958 -0.0843
  417SOL    HW2 1251   2.455   0.381   0.955 -0.0556 -0.3177  2.9326
  418SOL     OW 1252   0.464   0.235   2.323 -0.0250 -0.1243  0.5735
  418SOL    HW1 1253   0.564   0.238   2.322 -0.2085 -0.2683  1.8357
  418SOL    HW2 1254   0.426   0.319   2.288  1.4968 -1.6384 -0.8670
  419SOL     OW 1255   0.171   1.037   0.578  0.2080  0.4975 -0.7747
  419SOL    HW1 1256   0.107   1.123   0.579 -1.9457  0.3581  2.5434
  419SOL    HW2 1257   0.200   0.997   0.666  2.1579 -2.6239 -0.5046
  420SOL     OW 1258   2.123   1.713   1.168 -0.3967 -0.1197 -0.5209
  420SOL    HW1 1259   2.038   1.668   1.196  1.4283 -0.5587 -0.4675
  420SOL    HW2 1260   2.176   1.657   1.099  1.5718 -3.5075 -3.2307
  421SOL     OW 1261   1.091   2.092   2.812  0.2795  0.4595 -0.0996
  421SOL    HW1 1262   1.059   1.994   2.795 -0.0833 -2.0666  0.6329
  421SOL    HW2 1263   1.180   2.107   2.765  0.9837  1.8491  0.0287
  422SOL     OW 1264   2.451   0.432   0.300 -0.6450  0.2314  0.3903
  422SOL    HW1 1265   2.352   0.415   0.292  1.8099  3.5835  0.1099
  422SOL    HW2 1266   2.482   0.503   0.233  0.7277 -0.9835  0.4422
  423SOL     OW 1267   1.843   1.616   0.176 -0.5411  0.4765  0.8870
  423SOL    HW1 1268   1.892   1.699   0.151  2.1502 -1.7590 -0.5023
  423SOL    HW2 1269   1.747   1.645   0.194  3.3944  0.2488  0.0021
  424SOL     OW 1270   0.928   0.889   1.941  0.1828  0.2865 -0.4842
  424SOL    HW1 1271   0.848   0.945   1.907  1.1140  0.9820 -0.1235
  424SOL    HW2 1272   0.972   0.938   2.014 -0.8699 -2.6749 -0.1575
  425SOL     OW 1273   2.941   2.690   2.274  0.0572  0.6465 -0.6786
  425SOL    HW1 1274   2.970   2.785   2.251 -1.2070 -0.1126 -1.0180
  425SOL    HW2 1275   3.014   2.635   2.318  0.9146 -1.1707 -1.9569
  426SOL     OW 1276   1.983   2.619   0.437  0.2206  0.2575  0.7436
  426SOL    HW1 1277   2.021   2.652   0.350 -0.9420 -0.2725  1.1515
  426SOL    HW2 1278   1.918   2.691   0.469 -2.5483  0.5276 -0.1699
  427SOL     OW 1279   0.740   0.541   3.023 -0.4808 -0.4572  0.1266
  427SOL    HW1 1280   0.705   0.635   3.042  0.1286 -3.2196  0.6362
  427SOL    HW2 1281   0.799   0.547   2.941 -2.9532  0.7367  1.9766
  428SOL     OW 1282   2.592   1.185   2.625 -0.5539 -0.3828  0.6177
  428SOL    HW1 1283   2.657   1.127   2.567 -2.1990 -0.4916  0.2217
  428SOL    HW2 1284   2.599   1.286   2.611 -0.5610 -1.0960 -0.1159
  429SOL     OW 1285   2.810   0.263   0.581 -0.3388 -0.3257 -0.3907
  429SOL    HW1 1286   2.789   0.163   0.590  2.4971 -0.6659  3.3722
  429SOL    HW2 1287   2.912   0.274   0.585  4.4814  0.9438  2.0272
  430SOL     OW 1288   1.071   2.698   2.176 -0.5112  0.0220 -0.1349
  430SOL    HW1 1289   1.072   2.607   2.213  1.5161  0.7196  0.6009
  430SOL    HW2 1290   1.069   2.693   2.074  1.7031  0.1206 -1.7120
  431SOL     OW 1291   2.821   1.754   1.295 -0.3007 -0.3307 -0.1514
  431SOL    HW1 1292   2.839   1.708   1.381 -0.5224  3.1219  0.2536
  431SOL    HW2 1293   2.839   1.694   1.215  1.1069 -1.4817  1.1581
  432SOL     OW 1294   2.477   2.359   2.040 -0.5448 -0.0927  0.3980
  432SOL    HW1 1295   2.567   2.374   2.087 -0.5661 -0.3299  2.6952
  432SOL    HW2 1296   2.484   2.270   1.988 -0.1920 -0.0177  0.0090
  433SOL     OW 1297   1.420   2.092   0.161 -0.1799  0.0473 -1.0463
  433SOL    HW1 1298   1.411   1.993   0.144  1.7604  0.8463  0.5812
  433SOL    HW2 1299   1.344   2.139   0.112  0.5555 -2.7514 -1.1129
  434SOL     OW 1300   0.174   2.134   2.826 -0.0829 -0.0263  0.0255
  434SOL    HW1 1301   0.171   2.178   2.919  1.1248 -0.2467 -1.8133
  434SOL    HW2 1302   0.074   2.133   2.793 -1.4309 -0.3455  0.8715
  435SOL     OW 1303   0.006   1.267   0.538 -0.2065 -0.1085 -0.2750
  435SOL    HW1 1304   3.025   1.304   0.462 -1.0246 -0.5304  2.7439
  435SOL    HW2 1305   3.029   1.266   0.625  0.7126 -0.2997  0.2872
  436SOL     OW 1306   0.523   2.812   1.454 -0.2819 -0.3387  0.4818
  436SOL    HW1 1307   0.520   2.765   1.544 -0.6535 -0.7766  1.1505
  436SOL    HW2 1308   0.537   2.911   1.466 -1.0094  0.1154  0.2963
  437SOL     OW 1309   1.267   2.397   1.102 -0.2812 -0.1604 -0.1639
  437SOL    HW1 1310   1.358   2.415   1.147  0.3863 -1.7231  0.4127
  437SOL    HW2 1311   1.237   2.478   1.057 -0.2957 -0.4235  3.2883
  438SOL     OW 1312   0.216   2.196   0.702  0.1663 -0.4206 -0.2568
  438SOL    HW1 1313   0.192   2.099   0.683  0.7386 -2.9832  3.6330
  438SOL    HW2 1314   0.201   2.208   0.803 -1.7629 -1.3631  0.9080
  439SOL     OW 1315   0.984   2.515   1.779  0.2676 -0.0131 -0.3714
  439SOL    HW1 1316   1.047   2.511   1.700 -1.2026  1.0134  2.9909
  439SOL    HW2 1317   0.887   2.500   1.751  0.2257  1.4974 -1.3668
  440SOL     OW 1318   2.270   2.691   1.888 -0.0962 -1.0415 -0.4413
  440SOL    HW1 1319   2.259   2.640   1.975 -0.2761 -0.1631 -0.8540
  440SOL    HW2 1320   2.320   2.632   1.821  0.1394 -1.7400  2.1448
  441SOL     OW 1321   0.167   0.652   1.731 -0.0311 -0.2987  0.1429
  441SOL    HW1 1322   0.228   0.730   1.738 -0.8471 -1.4173  1.2384
  441SOL    HW2 1323   0.222   0.571   1.746  0.4366  0.1138 -1.1906
  442SOL     OW 1324   1.880   2.344   0.473  0.4739  0.5982 -0.4139
  442SOL    HW1 1325   1.860   2.435   0.435 -0.9045  0.5316  0.2047
  442SOL    HW2 1326   1.891   2.350   0.575  1.8006 -2.2602 -0.2662
  443SOL     OW 1327   0.211   0.746   2.772  0.3497  0.2840  0.1450
  443SOL    HW1 1328   0.211   0.645   2.787  1.6077  0.3058 -1.2896
  443SOL    HW2 1329   0.186   0.803   2.844 -1.1195 -0.6269 -2.1954
  444SOL     OW 1330   1.624   0.952   2.133  0.6783  0.7376  0.1957
  444SOL    HW1 1331   1.716   0.987   2.156 -0.6829 -2.0298  1.2734
  444SOL    HW2 1332   1.583   0.994   2.049  4.6490  1.9106 -2.2722
  445SOL     OW 1333   0.031   2.558   1.360  0.1505 -0.2491  0.1039
  445SOL    HW1 1334   0.115   2.519   1.401 -0.9656 -0.8234 -1.0707
  445SOL    HW2 1335   3.021   2.538   1.412  0.9185  0.6727  2.1823
  446SOL     OW 1336   2.874   1.609   1.049 -0.6680  0.0909 -0.2784
  446SOL    HW1 1337   2.833   1.522   1.026  0.6822 -0.2112  1.2502
  446SOL    HW2 1338   2.908   1.658   0.967 -0.0235  0.4468  0.9699
  447SOL     OW 1339   0.264   0.960   0.343  0.0903  0.2162 -0.7439
  447SOL    HW1 1340   0.198   0.983   0.417 -1.3274  1.4991  0.5487
  447SOL    HW2 1341   0.282   1.039   0.289 -2.4390 -1.7753  2.4978
  448SOL     OW 1342   1.047   1.889   1.962 -0.3666  0.2054  0.0647
  448SOL    HW1 1343   1.053   1.959   1.891  0.0624 -0.8673 -0.1595
  448SOL    HW2 1344   1.054   1.935   2.051  1.4922 -0.6783  1.3315
  449SOL     OW 1345   1.376   1.494   0.377 -0.1167  0.1766 -0.3705
  449SOL    HW1 1346   1.387   1.494   0.479 -1.6012  0.8546  5.0993
  449SOL    HW2 1347   1.275   1.492   0.357 -1.8781  1.2252  2.7945
  450SOL     OW 1348   2.625   2.918   1.966  0.2260  0.0515  0.1022
  450SOL    HW1 1349   2.720   2.888   1.940 -0.5462  0.6044 -1.6606
  450SOL    HW2 1350   2.612   2.889   2.066 -3.6621 -2.3709  0.1922
  451SOL     OW 1351   2.276   0.728   2.577  0.0778 -0.1435 -0.7455
  451SOL    HW1 1352   2.291   0.818   2.534 -2.8856 -2.6655  1.6410
  451SOL    HW2 1353   2.253   0.728   2.676 -3.2907 -2.1096 -0.0532
  452SOL     OW 1354   1.507   0.466   0.764 -0.0230 -0.1356  0.0128
  452SOL    HW1 1355   1.470   0.387   0.710 -0.3970 -0.6314  0.3563
  452SOL    HW2 1356   1.523   0.552   0.709  0.3293  2.3663 -2.4356
  453SOL     OW 1357   1.930   0.745   1.623  0.3910 -0.0045  0.1443
  453SOL    HW1 1358   1.966   0.770   1.713  1.7599 -0.3366  0.5479
  453SOL    HW2 1359   1.995   0.681   1.577  1.9698  0.9613 -2.6081
  454SOL     OW 1360   2.969   1.442   0.343 -0.0966  0.0892  0.0048
  454SOL    HW1 1361   2.929   1.427   0.251 -0.8507 -1.2934 -2.2358
  454SOL    HW2 1362   3.025   1.527   0.345  1.9346  1.4758 -0.4205
  455SOL     OW 1363   2.612   2.788   1.059 -0.3578  0.3202 -0.0347
  455SOL    HW1 1364   2.686   2.732   1.022 -1.6462  0.4228  1.5829
  455SOL    HW2 1365   2.634   2.813   1.155 -1.2953  0.9327  1.1779
  456SOL     OW 1366   0.080   2.848   1.254  0.0257  0.1498  0.0793
  456SOL    HW1 1367   0.084   2.757   1.301 -3.2460 -1.3912  2.5218
  456SOL    HW2 1368   0.111   2.923   1.316  0.8899 -0.1901 -3.6775
  457SOL     OW 1369   1.236   0.056   0.355  0.1631 -0.0720  0.3226
  457SOL    HW1 1370   1.237   0.149   0.400  1.6522 -2.9143  0.8540
  457SOL    HW2 1371   1.318   0.035   0.297  3.5501 -0.6964  1.4420
  458SOL     OW 1372   2.308   2.606   0.704 -0.4710 -0.3431 -0.2283
  458SOL    HW1 1373   2.240   2.667   0.750  1.2948 -1.0255 -2.1045
  458SOL    HW2 1374   2.352   2.652   0.626 -0.7534  0.1709  1.0180
  459SOL     OW 1375   2.178   0.651   2.826 -0.0798  0.0424 -0.1462
  459SOL    HW1 1376   2.177   0.605   2.916 -2.7942  1.3688 -0.6432
  459SOL    HW2 1377   2.143   0.588   2.756 -4.0028  2.5748  1.5222
  460SOL     OW 1378   2.444   3.002   3.003 -0.0579 -0.2274 -0.4110
  460SOL    HW1 1379   2.366   3.054   2.964  0.0613  0.6760  1.7822
  460SOL    HW2 1380   2.468   2.935   2.936 -2.8713  0.1173  4.1468
  461SOL     OW 1381   0.864   1.770   0.295 -0.1347 -0.0344  0.6750
  461SOL    HW1 1382   0.918   1.723   0.368 -0.9730  0.9923 -1.6110
  461SOL    HW2 1383   0.787   1.826   0.335 -0.0775 -0.4790  2.0406
  462SOL     OW 1384   1.891   2.156   0.855 -0.1748 -0.3284  0.6674
  462SOL    HW1 1385   1.894   2.109   0.947 -1.1605  0.8682  0.2272
  462SOL    HW2 1386   1.984   2.183   0.824  0.8637  0.7208  2.6769
  463SOL     OW 1387   2.358   1.067   0.597 -0.5163  0.1223 -0.1340
  463SOL    HW1 1388   2.443   1.055   0.652  0.3360  0.3139 -0.6598
  463SOL    HW2 1389   2.303   0.986   0.602  1.6563  2.8573 -0.2357
  464SOL     OW 1390   0.627   3.033   1.248  0.0218  0.0053 -0.6609
  464SOL    HW1 1391   0.596   2.984   1.165 -0.4452  0.0937  1.7256
  464SOL    HW2 1392   0.708   0.019   1.227 -0.8785 -0.6684  0.5376
  465SOL     OW 1393   2.413   1.309   3.052  0.2274 -0.0442  0.1100
  465SOL    HW1 1394   2.343   1.336   0.046 -0.5796 -1.4251 -0.9174
  465SOL    HW2 1395   2.365   1.303   2.963  1.6738 -1.5648  1.0386
  466SOL     OW 1396   1.920   0.323   2.819  0.5371  0.4785  0.1981
  466SOL    HW1 1397   1.944   0.268   2.902  1.7617 -1.7877 -0.7966
  466SOL    HW2 1398   1.878   0.410   2.844 -0.2686 -1.2180 -1.0222
  467SOL     OW 1399   1.013   0.476   1.277  0.0592 -0.0027  0.3485
  467SOL    HW1 1400   1.068   0.400   1.321 -1.2113  0.2863  1.8800
  467SOL    HW2 1401   1.074   0.502   1.202 -2.3154 -2.2299  1.0570
  468SOL     OW 1402   0.376   1.176   2.702  0.4964 -0.0866 -0.3071
  468SOL    HW1 1403   0.343   1.100   2.758 -1.4256  2.3687 -1.5949
  468SOL    HW2 1404   0.305   1.191   2.629 -1.5739 -0.4084 -1.2066
  469SOL     OW 1405   0.526   2.300   0.239 -0.1074  0.0413 -0.3112
  469SOL    HW1 1406   0.466   2.307   0.319 -2.5358  1.0555 -1.0116
  469SOL    HW2 1407   0.556   2.395   0.207  3.8549  1.0709  0.6452
  470SOL     OW 1408   2.568   1.323   2.342 -0.0667 -0.3911 -0.7569
  470SOL    HW1 1409   2.593   1.376   2.430 -0.2846 -0.2261  0.7005
  470SOL    HW2 1410   2.553   1.224   2.366  0.7265 -0.9400  2.0140
  471SOL     OW 1411   2.752   0.988   1.970 -0.1762 -0.3725  0.1301
  471SOL    HW1 1412   2.714   0.919   2.036 -0.6687  1.4046 -1.2228
  471SOL    HW2 1413   2.797   0.949   1.887 -0.2892  1.1754 -0.8553
  472SOL     OW 1414   0.598   2.702   0.678 -0.1394  0.8794  0.7997
  472SOL    HW1 1415   0.528   2.755   0.727  0.9097 -1.0957 -2.9124
  472SOL    HW2 1416   0.679   2.760   0.662 -1.6869 -1.8204 -3.3287
  473SOL     OW 1417   0.777   0.064   0.055 -0.2904 -0.3462  0.2642
  473SOL    HW1 1418   0.720   0.085   0.137  1.0279 -0.2821 -0.5615
  473SOL    HW2 1419   0.727   0.012   3.057 -3.1912  2.2669  1.8178
  474SOL     OW 1420   1.661   3.025   2.120  0.0782 -0.5503  0.8104
  474SOL    HW1 1421   1.704   0.036   2.096 -0.8379 -0.8669 -0.1467
  474SOL    HW2 1422   1.663   2.950   2.049 -0.8539  0.9480  1.3903
  475SOL     OW 1423   1.566   2.563   0.381  0.1959  0.0322  0.6184
  475SOL    HW1 1424   1.490   2.516   0.426 -0.9170 -1.6991  1.3097
  475SOL    HW2 1425   1.599   2.512   0.302  0.7270  3.2203 -0.4672
  476SOL     OW 1426   0.228   0.971   0.857  0.1346  0.0603 -0.2073
  476SOL    HW1 1427   0.138   1.011   0.875  3.6126 -4.1808  0.6403
  476SOL    HW2 1428   0.286   0.966   0.938 -0.9847 -0.5694 -1.2030
  477SOL     OW 1429   1.504   2.424   1.210 -0.0965 -0.1861 -0.2648
  477SOL    HW1 1430   1.489   2.325   1.203 -1.2660  4.7916  2.1181
  477SOL    HW2 1431   1.584   2.456   1.159  0.0172  0.5041 -1.2578
  478SOL     OW 1432   0.543   1.803   2.396 -0.1249  0.2816  0.3780
  478SOL    HW1 1433   0.587   1.813   2.302  0.0671  0.4756 -2.1032
  478SOL    HW2 1434   0.561   1.884   2.455 -1.6257 -0.3325 -1.9706
  479SOL     OW 1435   2.924   0.177   0.999  0.5078  0.3428 -0.0293
  479SOL    HW1 1436   2.873   0.127   0.926 -0.0560  0.0244  1.4336
  479SOL    HW2 1437   2.884   0.143   1.085  1.5351  0.2646 -0.7518
  480SOL     OW 1438   2.974   2.824   0.502  0.2155  0.0607 -0.0075
  480SOL    HW1 1439   3.042   2.794   0.574  1.3366 -1.7252  0.1083
  480SOL    HW2 1440   3.014   2.830   0.406  0.5108 -1.0460  0.1480
  481SOL     OW 1441   2.407   2.531   0.981 -0.1870  0.2848 -0.6786
  481SOL    HW1 1442   2.348   2.541   0.899  1.1850 -2.4867 -1.1776
  481SOL    HW2 1443   2.405   2.610   1.048  0.2457 -0.1576 -1.4191
  482SOL     OW 1444   1.355   2.025   2.687 -0.2897 -0.6175  0.3572
  482SOL    HW1 1445   1.395   1.953   2.627  0.1510 -1.2876 -1.0857
  482SOL    HW2 1446   1.364   2.112   2.639  0.3874 -1.2273 -0.8048
  483SOL     OW 1447   0.554   2.020   2.595 -0.0461 -0.0629  0.8274
  483SOL    HW1 1448   0.577   2.042   2.691  0.4804 -1.9663  2.2433
  483SOL    HW2 1449   0.455   2.025   2.582 -0.8336 -0.0530 -1.3318
  484SOL     OW 1450   0.992   1.232   1.973  0.1242  0.5055 -0.5455
  484SOL    HW1 1451   1.041   1.176   2.042 -0.1441  1.2567  1.3572
  484SOL    HW2 1452   1.022   1.205   1.880  0.3142 -0.9780 -0.9801
  485SOL     OW 1453   2.451   0.556   0.529 -0.1492  0.2422 -0.1656
  485SOL    HW1 1454   2.460   0.501   0.443 -0.5504  1.1712  0.5508
  485SOL    HW2 1455   2.359   0.607   0.523  1.9796  1.4580  1.5560
  486SOL     OW 1456   1.759   0.065   0.887 -0.3988 -0.5865 -0.0206
  486SOL    HW1 1457   1.728   0.146   0.947 -0.0202  1.6074  3.7615
  486SOL    HW2 1458   1.861   0.061   0.875 -0.1296  0.3734 -2.0259
  487SOL     OW 1459   0.548   2.164   0.978  0.5688 -0.3144 -0.0577
  487SOL    HW1 1460   0.548   2.256   1.022  0.2470 -1.7080  0.6063
  487SOL    HW2 1461   0.563   2.168   0.876 -0.4929 -1.2591  1.7302
  488SOL     OW 1462   2.406   1.401   0.334 -0.0286  0.5757  0.0771
  488SOL    HW1 1463   2.352   1.402   0.247  0.5661 -1.5531 -0.9587
  488SOL    HW2 1464   2.406   1.304   0.366 -2.0148 -4.8441 -2.1842
  489SOL     OW 1465   1.675   0.240   1.054 -0.5823  0.0326  0.4324
  489SOL    HW1 1466   1.667   0.222   1.155 -2.6923 -2.1907  1.4268
  489SOL    HW2 1467   1.682   0.344   1.038  2.3734  0.3916  0.3516
  490SOL     OW 1468   0.965   0.679   0.616 -0.1136 -0.2516 -0.2836
  490SOL    HW1 1469   1.016   0.722   0.534  2.4252  0.3863 -3.9414
  490SOL    HW2 1470   0.875   0.641   0.587  0.0087 -1.4536 -0.1080
  491SOL     OW 1471   0.630   2.430   0.625  0.1229 -0.0722 -0.4352
  491SOL    HW1 1472   0.664   2.460   0.530  3.3528  0.4983 -3.2042
  491SOL    HW2 1473   0.580   2.503   0.675 -2.2194 -0.4971  1.4724
  492SOL     OW 1474   1.182   1.421   2.275  0.1614 -0.0058 -0.5868
  492SOL    HW1 1475   1.103   1.362   2.305 -1.7138 -0.6098  0.8528
  492SOL    HW2 1476   1.180   1.450   2.176 -1.4802 -0.7982 -1.6890
  493SOL     OW 1477   0.173   2.261   0.965 -0.2305 -0.1917  0.4780
  493SOL    HW1 1478   0.138   2.192   1.029  0.0831  2.3655  1.0139
  493SOL    HW2 1479   0.161   2.359   0.997 -0.5872 -0.5076 -0.1940
  494SOL     OW 1480   2.571   2.090   2.903  0.6937 -0.1070 -0.1652
  494SOL    HW1 1481   2.549   2.013   2.838 -0.9422 -0.7482 -1.4359
  494SOL    HW2 1482   2.505   2.093   2.977  2.9014  2.9401 -0.6351
  495SOL     OW 1483   2.800   1.643   2.722  0.0333 -0.6419 -0.5539
  495SOL    HW1 1484   2.756   1.693   2.801  1.4257 -0.9701  1.5106
  495SOL    HW2 1485   2.892   1.608   2.755  0.0375  0.9627  1.1526
  496SOL     OW 1486   2.789   0.248   1.743 -0.1586  0.3405  0.1892
  496SOL    HW1 1487   2.780   0.218   1.647  1.5367 -0.5494 -0.8819
  496SOL    HW2 1488   2.730   0.195   1.806  3.0515  0.7304 -0.2844
  497SOL     OW 1489   2.516   0.960   0.230  0.5037  0.1981  0.6444
  497SOL    HW1 1490   2.448   1.034   0.252  1.0264 -2.2576 -1.4317
  497SOL    HW2 1491   2.508   0.880   0.292 -2.3806 -0.8645 -0.9714
  498SOL     OW 1492   0.348   2.310   2.503  0.0221 -0.5535 -0.5716
  498SOL    HW1 1493   0.272   2.372   2.509  1.8547 -0.1214 -0.9818
  498SOL    HW2 1494   0.319   2.215   2.526 -0.6877  2.1675  1.5191
  499SOL     OW 1495   1.139   2.396   0.249 -0.1587 -0.4718  0.2155
  499SOL    HW1 1496   1.078   2.319   0.274  2.8917 -1.7085  1.8256
  499SOL    HW2 1497   1.198   2.385   0.168 -1.9685  0.9558  0.1495
  500SOL     OW 1498   1.173   3.024   3.073 -0.1093  0.1840 -0.2286
  500SOL    HW1 1499   1.151   0.026   3.008 -1.2270  2.2624 -0.9307
  500SOL    HW2 1500   1.083   2.976   0.018 -1.9343 -0.3685  0.4448
  501SOL     OW 1501   1.588   0.121   1.718  0.1924 -0.3436 -0.5283
  501SOL    HW1 1502   1.541   0.029   1.724 -1.3616  0.5180  2.1123
  501SOL    HW2 1503   1.667   0.116   1.655  0.3948 -1.1289  0.4188
  502SOL     OW 1504   2.931   0.279   2.140 -0.4395  0.4448 -0.0737
  502SOL    HW1 1505   2.988   0.280   2.223  1.7820 -0.2436  1.1738
  502SOL    HW2 1506   2.990   0.317   2.065  0.5163 -0.7099  0.8430
  503SOL     OW 1507   2.445   1.947   2.354  0.7572 -0.0736  0.1213
  503SOL    HW1 1508   2.512   1.975   2.277 -0.4084  0.9043 -0.6671
  503SOL    HW2 1509   2.435   2.024   2.416  0.4297  0.5346 -1.9470
  504SOL     OW 1510   1.449   0.389   1.415  0.2800 -0.0193  0.4490
  504SOL    HW1 1511   1.535   0.440   1.389  1.0383 -0.8509  0.8782
  504SOL    HW2 1512   1.442   0.377   1.518  1.0989  0.2046  3.1687
  505SOL     OW 1513   0.826   0.595   1.638  0.1605  0.3305  0.2478
  505SOL    HW1 1514   0.899   0.584   1.707  0.2541  1.5137  0.2480
  505SOL    HW2 1515   0.769   0.510   1.643  0.7813 -0.5372  0.0905
  506SOL     OW 1516   0.576   0.903   2.419  0.0509  0.0020  0.0481
  506SOL    HW1 1517   0.521   0.864   2.497 -0.7754  1.4287  1.0321
  506SOL    HW2 1518   0.581   0.828   2.349  1.5231 -1.6342  0.0822
  507SOL     OW 1519   0.214   2.886   2.954  0.4868  0.1203 -0.1264
  507SOL    HW1 1520   0.138   2.941   2.923  0.4973 -0.0588  0.5724
  507SOL    HW2 1521   0.240   2.810   2.892  0.3018  0.1956 -1.6029
  508SOL     OW 1522   1.649   0.683   1.566 -0.6474 -0.4272 -0.0744
  508SOL    HW1 1523   1.630   0.633   1.477 -0.0285  0.0158 -2.6153
  508SOL    HW2 1524   1.746   0.689   1.589  1.7253 -0.0589 -0.6585
  509SOL     OW 1525   0.823   1.865   1.614 -0.5269 -0.5625 -0.1978
  509SOL    HW1 1526   0.812   1.964   1.639 -2.5931 -0.3029 -0.9402
  509SOL    HW2 1527   0.846   1.858   1.517 -0.7781 -1.5185 -0.3316
  510SOL     OW 1528   2.248   1.186   2.165  0.6798 -0.0619  0.4512
  510SOL    HW1 1529   2.204   1.166   2.256  0.6187  1.4966  2.1246
  510SOL    HW2 1530   2.313   1.115   2.135 -1.2233 -1.0942  0.3410
  511SOL     OW 1531   0.532   1.894   1.031 -0.1225 -0.6692  0.3503
  511SOL    HW1 1532   0.555   1.991   1.018  3.7097 -1.6153 -1.1386
  511SOL    HW2 1533   0.576   1.857   1.114 -3.5099 -0.9011 -1.8890
  512SOL     OW 1534   2.489   2.328   0.144 -0.0525 -0.0160  0.3094
  512SOL    HW1 1535   2.455   2.261   0.073 -2.0843  2.2231  0.7027
  512SOL    HW2 1536   2.418   2.338   0.216 -0.8018  0.8029 -1.7414
  513SOL     OW 1537   2.994   1.767   2.414 -0.1036 -0.5378  0.2001
  513SOL    HW1 1538   3.032   1.681   2.448 -1.6480  1.2340 -0.0672
  513SOL    HW2 1539   2.904   1.749   2.372 -0.0198 -1.2008 -2.6722
  514SOL     OW 1540   0.495   2.513   2.669  0.3447  0.0343  0.1002
  514SOL    HW1 1541   0.433   2.451   2.621 -1.1587 -0.0321  1.1696
  514SOL    HW2 1542   0.532   2.582   2.600  0.8080 -0.5911 -2.1275
  515SOL     OW 1543   2.054   1.345   1.466  0.1436  0.0991 -0.0550
  515SOL    HW1 1544   2.141   1.309   1.502 -0.5949  1.4009 -0.5493
  515SOL    HW2 1545   2.050   1.447   1.476 -2.1930  1.5383  2.3482
  516SOL     OW 1546   2.386   2.143   2.537 -0.4709 -0.0974  0.0564
  516SOL    HW1 1547   2.368   2.240   2.529 -0.9245 -2.3108 -1.7070
  516SOL    HW2 1548   2.437   2.116   2.623 -0.8387 -2.6689 -0.1015
  517SOL     OW 1549   1.521   1.015   2.944  0.0088 -0.2849 -0.0988
  517SOL    HW1 1550   1.612   1.058   2.942  0.2825 -0.6037  0.9902
  517SOL    HW2 1551   1.500   0.962   3.029 -1.4322 -0.2434 -1.2348
  518SOL     OW 1552   2.883   0.037   2.476  0.4737 -0.4540  0.1586
  518SOL    HW1 1553   2.940   3.036   2.451  2.5246  2.0770  1.7190
  518SOL    HW2 1554   2.783   0.014   2.460 -0.7972  1.2405 -1.2021
  519SOL     OW 1555   1.610   1.671   2.112  0.1038  0.2539 -0.1085
  519SOL    HW1 1556   1.516   1.669   2.156 -0.7341  0.0981 -0.9822
  519SOL    HW2 1557   1.669   1.721   2.178 -0.0641 -2.3940 -1.0987
  520SOL     OW 1558   2.656   0.024   2.798  0.2045  0.0764 -0.1274
  520SOL    HW1 1559   2.615   0.103   2.846  3.1817 -0.7432  0.8817
  520SOL    HW2 1560   2.586   3.031   2.763 -0.1613  2.5976  0.4270
  521SOL     OW 1561   0.431   1.500   1.813  0.4685  0.0829  0.1750
  521SOL    HW1 1562   0.341   1.520   1.765 -1.4658  1.6096 -0.0340
  521SOL    HW2 1563   0.510   1.528   1.757  0.1175  1.1271 -0.3040
  522SOL     OW 1564   1.225   0.090   1.648 -0.3498  0.0701  0.2562
  522SOL    HW1 1565   1.229   0.074   1.547 -1.3016 -1.3910 -0.5347
  522SOL    HW2 1566   1.186   0.182   1.675  0.2729  0.5766  0.2594
  523SOL     OW 1567   0.102   2.507   1.062 -0.2330  0.3104 -0.4180
  523SOL    HW1 1568   0.060   2.538   1.149 -0.7982  1.9564  3.0268
  523SOL    HW2 1569   0.169   2.579   1.031 -1.0360  0.2740 -0.4192
  524SOL     OW 1570   1.639   2.744   0.762  0.4336 -0.1613 -0.2949
  524SOL    HW1 1571   1.570   2.666   0.760  0.6747  2.3014 -1.4365
  524SOL    HW2 1572   1.588   2.833   0.780  1.7066  2.1430  0.5342
  525SOL     OW 1573   2.489   1.038   0.896  0.3639 -0.0071  0.5269
  525SOL    HW1 1574   2.436   1.034   0.980 -0.1755 -0.0592 -3.8532
  525SOL    HW2 1575   2.479   0.947   0.844 -0.3666 -0.2483 -0.6534
  526SOL     OW 1576   1.036   2.604   0.725  0.5669  0.3573  0.3346
  526SOL    HW1 1577   0.959   2.538   0.758  0.1384 -2.1906  2.6910
  526SOL    HW2 1578   1.029   2.623   0.625 -1.1561 -0.5431  1.6612
  527SOL     OW 1579   2.296   1.874   0.892 -0.6737 -0.0194  0.3292
  527SOL    HW1 1580   2.378   1.905   0.835 -0.2104  1.2287 -0.8229
  527SOL    HW2 1581   2.300   1.771   0.902  0.7112  0.8864  0.2482
  528SOL     OW 1582   2.179   0.472   0.271 -0.4015 -0.0820 -0.0154
  528SOL    HW1 1583   2.163   0.566   0.312 -0.6420  0.6933 -1.6077
  528SOL    HW2 1584   2.103   0.408   0.291 -0.5899 -1.2317 -1.3443
  529SOL     OW 1585   1.265   1.106   1.973 -0.1171  0.8185 -0.4588
  529SOL    HW1 1586   1.207   1.074   1.898  1.5229  1.9452  1.2323
  529SOL    HW2 1587   1.272   1.043   2.056  1.2531 -0.6001  0.9793
  530SOL     OW 1588   2.620   0.830   2.729 -0.3858 -0.1071  0.5078
  530SOL    HW1 1589   2.537   0.887   2.742  1.8790  0.0231  0.8762
  530SOL    HW2 1590   2.659   0.852   2.641 -2.3690  1.1611  0.0271
  531SOL     OW 1591   1.096   1.066   0.193  0.0216 -0.1110  0.5899
  531SOL    HW1 1592   1.128   1.140   0.125  0.3936  1.1582  1.4618
  531SOL    HW2 1593   0.997   1.052   0.177  1.3109  0.9689 -1.8729
  532SOL     OW 1594   2.308   0.286   0.697  0.4680 -0.0303 -0.2357
  532SOL    HW1 1595   2.359   0.358   0.752  2.5550  1.9737 -1.3562
  532SOL    HW2 1596   2.315   0.188   0.733  1.9736 -0.0090 -0.9523
  533SOL     OW 1597   0.677   0.776   1.785 -0.1167  0.0420 -0.1483
  533SOL    HW1 1598   0.690   0.875   1.757  0.1645 -2.6064 -1.8046
  533SOL    HW2 1599   0.734   0.712   1.728  1.3181 -0.8002 -0.9131
  534SOL     OW 1600   1.918   0.141   2.604  0.3040 -0.0211  0.7335
  534SOL    HW1 1601   1.891   0.213   2.540  1.3943 -2.8609  1.0848
  534SOL    HW2 1602   1.901   0.177   2.695  1.1486 -0.6992  0.6218
  535SOL     OW 1603   0.621   0.121   0.270 -0.0814  1.0922 -0.1232
  535SOL    HW1 1604   0.524   0.144   0.241  0.4474  0.5019 -2.3112
  535SOL    HW2 1605   0.622   0.076   0.364  1.5170 -0.3220  0.3366
  536SOL     OW 1606   0.935   2.899   1.326  0.5948 -0.2069 -0.0205
  536SOL    HW1 1607   0.978   2.894   1.419  0.2189 -0.9353  2.0113
  536SOL    HW2 1608   0.994   2.945   1.256 -0.6753  0.6479 -1.4775
  537SOL     OW 1609   1.613   2.823   1.949 -0.1791 -0.4014 -0.1112
  537SOL    HW1 1610   1.510   2.810   1.945 -2.1378  1.8787  1.5393
  537SOL    HW2 1611   1.663   2.797   1.863 -0.0306 -0.2996  2.8225
  538SOL     OW 1612   3.010   2.637   0.275  0.7837 -0.5553  0.3043
  538SOL    HW1 1613   3.048   2.639   0.178 -0.2791  1.3016 -0.9471
  538SOL    HW2 1614   3.018   2.543   0.304  1.3275  1.5748 -1.6469
  539SOL     OW 1615   2.698   1.824   1.911  0.1649 -0.4157  0.3410
  539SOL    HW1 1616   2.700   1.845   1.813  2.2933 -0.8959  0.5876
  539SOL    HW2 1617   2.761   1.887   1.965 -1.0913  2.2689  2.7592
  540SOL     OW 1618   2.974   2.506   1.788 -0.1360 -0.0498 -0.2954
  540SOL    HW1 1619   2.958   2.503   1.891 -1.2940 -1.6758 -1.6986
  540SOL    HW2 1620   3.007   2.603   1.771 -0.8027  1.6490 -0.4621
  541SOL     OW 1621   3.073   0.022   1.680  0.5395  0.0343 -0.0284
  541SOL    HW1 1622   0.019   0.067   1.768 -2.6987 -3.0507 -0.1130
  541SOL    HW2 1623   2.974   0.008   1.678  1.0164 -0.5171  1.8453
  542SOL     OW 1624   2.819   0.570   2.054  0.0769  0.8613  0.1515
  542SOL    HW1 1625   2.779   0.531   1.969 -0.8790 -1.6212 -1.8190
  542SOL    HW2 1626   2.804   0.501   2.128 -0.5513  0.8286 -1.5590
  543SOL     OW 1627   0.584   0.961   1.153  0.3746 -0.3639  0.0536
  543SOL    HW1 1628   0.619   0.907   1.069 -0.1991 -3.2142 -1.8244
  543SOL    HW2 1629   0.572   0.897   1.230 -0.2816  2.4040 -0.9285
  544SOL     OW 1630   1.957   1.531   0.943 -0.1197  0.1834 -0.1252
  544SOL    HW1 1631   1.908   1.545   1.030 -1.8090 -0.4707  0.6707
  544SOL    HW2 1632   1.966   1.613   0.884  0.1996  0.6571  1.0550
  545SOL     OW 1633   0.990   1.659   0.494  0.3380  1.0096 -0.7239
  545SOL    HW1 1634   1.006   1.713   0.577  0.7940 -3.0722 -5.7006
  545SOL    HW2 1635   0.928   1.581   0.523 -1.8488 -2.1328 -1.8591
  546SOL     OW 1636   2.492   0.335   2.012 -0.2315  0.4807  0.5158
  546SOL    HW1 1637   2.569   0.373   1.955  0.5272  2.4895 -1.4832
  546SOL    HW2 1638   2.514   0.333   2.113  2.7495  2.5707  0.0872
  547SOL     OW 1639   0.235   0.148   2.442  0.6145 -0.1459 -0.3907
  547SOL    HW1 1640   0.246   0.120   2.538  0.2867 -1.1568 -1.2447
  547SOL    HW2 1641   0.321   0.181   2.402  1.1472 -0.6220  2.2201
  548SOL     OW 1642   2.108   2.086   2.510 -0.3677  0.1924 -0.0632
  548SOL    HW1 1643   2.212   2.092   2.518  0.2283  2.9979 -0.4633
  548SOL    HW2 1644   2.086   2.052   2.417 -0.0158  1.8159  3.8207
  549SOL     OW 1645   2.616   0.250   1.122  0.1453  0.1587  0.2270
  549SOL    HW1 1646   2.597   0.161   1.169 -0.8051  0.1769 -0.9226
  549SOL    HW2 1647   2.692   0.301   1.166  1.7396 -1.0122  0.8749
  550SOL     OW 1648   1.855   1.632   0.584 -0.0773 -0.9721 -0.1626
  550SOL    HW1 1649   1.768   1.653   0.534 -0.6204  0.8534 -2.5188
  550SOL    HW2 1650   1.859   1.668   0.683 -1.3634 -3.6970  0.4263
  551SOL     OW 1651   1.205   0.044   1.370  0.5036 -0.5190  0.2056
  551SOL    HW1 1652   1.158   0.005   1.292 -2.1891  0.2779  0.9924
  551SOL    HW2 1653   1.305   0.036   1.351 -0.5783  1.6136  0.5079
  552SOL     OW 1654   1.861   2.478   2.245 -0.1382  0.0016 -0.6625
  552SOL    HW1 1655   1.832   2.516   2.155  1.1984 -0.3441  2.2116
  552SOL    HW2 1656   1.938   2.409   2.236  0.1845  1.6446 -0.3441
  553SOL     OW 1657   0.599   3.039   0.492 -0.1988  0.7068 -0.8015
  553SOL    HW1 1658   0.678   3.019   0.554  2.0245  0.0439  1.4533
  553SOL    HW2 1659   0.598   2.974   0.412  2.7808 -0.6212  1.5142
  554SOL     OW 1660   1.726   2.581   2.033  0.3815  0.2749  0.1763
  554SOL    HW1 1661   1.776   2.556   1.948 -0.0570  1.1345 -0.7897
  554SOL    HW2 1662   1.725   2.681   2.040 -1.4178 -0.0486  0.7742
  555SOL     OW 1663   2.243   2.527   2.093  0.4763  0.2410  0.1259
  555SOL    HW1 1664   2.317   2.455   2.089 -0.1058  0.0194  0.0887
  555SOL    HW2 1665   2.215   2.533   2.192 -2.0530  0.7548 -0.8002
  556SOL     OW 1666   0.965   3.072   0.537 -0.0083 -0.7242  0.1933
  556SOL    HW1 1667   1.043   3.038   0.595 -0.6552 -0.2985 -0.0475
  556SOL    HW2 1668   0.991   3.073   0.440 -1.3426  1.8249  2.7638
  557SOL     OW 1669   0.621   2.174   1.905  0.2167 -0.0329  0.4221
  557SOL    HW1 1670   0.634   2.149   2.003  1.8230 -2.3508 -0.8665
  557SOL    HW2 1671   0.533   2.129   1.870  0.6772  0.1198 -1.4827
  558SOL     OW 1672   2.776   1.019   2.501  0.6888  0.2464 -0.1075
  558SOL    HW1 1673   2.803   0.926   2.469 -3.3103  1.8742  1.6201
  558SOL    HW2 1674   2.842   1.091   2.480 -1.0491  2.5511 -0.3673
  559SOL     OW 1675   2.635   2.013   2.164  0.1348 -0.3594 -0.0599
  559SOL    HW1 1676   2.584   2.052   2.087  3.8575 -0.2459  4.2099
  559SOL    HW2 1677   2.695   2.085   2.197 -1.1153 -1.8674 -0.6533
  560SOL     OW 1678   0.589   0.379   2.050  0.0456 -0.0421  0.3093
  560SOL    HW1 1679   0.582   0.303   1.982 -1.7931 -1.6600 -0.8750
  560SOL    HW2 1680   0.679   0.425   2.040 -1.0850 -0.7344 -0.4458
  561SOL     OW 1681   1.106   0.344   0.053  0.0503 -0.4185 -0.4710
  561SOL    HW1 1682   1.199   0.315   0.034  0.5250 -1.4275  1.4148
  561SOL    HW2 1683   1.043   0.290   3.070  1.8302 -3.9459  4.2945
  562SOL     OW 1684   1.118   1.476   1.679 -0.2661 -0.4048 -0.2764
  562SOL    HW1 1685   1.075   1.567   1.709 -1.2120  0.4946  2.6939
  562SOL    HW2 1686   1.096   1.467   1.581 -0.6206  0.1476  0.2820
  563SOL     OW 1687   1.850   2.578   3.059 -0.3007 -0.3352  0.2656
  563SOL    HW1 1688   1.929   2.518   3.064 -3.5369  3.1432 -0.6913
  563SOL    HW2 1689   1.876   2.675   0.008  0.9881  1.7590  0.2756
  564SOL     OW 1690   2.771   2.025   0.300 -0.1433 -0.2015  0.3003
  564SOL    HW1 1691   2.766   2.127   0.297  0.0533  0.2029  1.2231
  564SOL    HW2 1692   2.680   1.981   0.290 -1.5245  0.8256  0.9043
  565SOL     OW 1693   0.467   2.765   2.148  0.1355 -0.2484 -0.1759
  565SOL    HW1 1694   0.466   2.834   2.225 -0.0980  0.3643  0.6909
  565SOL    HW2 1695   0.435   2.677   2.189 -0.1829  1.9461 -3.7278
  566SOL     OW 1696   1.468   2.448   2.709  0.1410  0.4399  0.0381
  566SOL    HW1 1697   1.538   2.426   2.777 -1.7582 -1.0575  0.4681
  566SOL    HW2 1698   1.471   2.369   2.648  0.4353  0.8424 -0.0368
  567SOL     OW 1699   1.999   1.998   1.499 -0.3834  0.2993  0.0081
  567SOL    HW1 1700   1.981   2.099   1.484 -2.0706  1.4146 -0.6691
  567SOL    HW2 1701   1.921   1.953   1.541  0.2491  2.0680  1.6469
  568SOL     OW 1702   1.954   0.847   2.913  0.4358 -0.3181  0.6724
  568SOL    HW1 1703   1.917   0.793   2.991  1.4326  0.1186 -0.5363
  568SOL    HW2 1704   2.053   0.827   2.904 -0.6139  1.1219 -0.5143
  569SOL     OW 1705   2.645   1.391   2.104  0.3736 -0.0856  0.3340
  569SOL    HW1 1706   2.712   1.462   2.127  0.5487  0.6028  0.6019
  569SOL    HW2 1707   2.613   1.341   2.187  1.0316 -0.0953 -2.6725
  570SOL     OW 1708   2.441   2.886   1.772  0.1469  0.1259 -0.0941
  570SOL    HW1 1709   2.363   2.829   1.807 -2.5201  1.1044 -0.2391
  570SOL    HW2 1710   2.513   2.896   1.846 -1.0265 -0.7721 -2.3627
  571SOL     OW 1711   0.241   0.275   1.590  0.3903  0.1773  0.1159
  571SOL    HW1 1712   0.334   0.300   1.549  0.1178  3.9863 -0.7293
  571SOL    HW2 1713   0.208   0.348   1.654  0.5056  2.9674 -1.1843
  572SOL     OW 1714   0.079   1.940   0.628 -0.4654  0.1156  0.6571
  572SOL    HW1 1715   3.057   1.918   0.615  1.2961 -1.1945  0.2710
  572SOL    HW2 1716   0.130   1.861   0.664 -0.6125 -3.0152 -0.3150
  573SOL     OW 1717   1.019   0.634   0.085  0.3207  0.2830  0.0937
  573SOL    HW1 1718   0.942   0.638   0.150  3.8434  0.3723 -3.7793
  573SOL    HW2 1719   1.052   0.538   0.073  0.5805 -0.0441  0.6310
  574SOL     OW 1720   3.050   0.045   0.269  0.3802  0.0399  0.5086
  574SOL    HW1 1721   0.008   0.117   0.206 -2.3907 -1.2014  1.4239
  574SOL    HW2 1722   2.974   3.075   0.218  0.9392  0.6929 -1.0349
  575SOL     OW 1723   0.986   2.353   1.162  0.1339  0.0500  0.8877
  575SOL    HW1 1724   1.001   2.258   1.118  0.2217 -2.5004 -0.6773
  575SOL    HW2 1725   1.072   2.407   1.174  0.9772 -0.5473 -0.9301
  576SOL     OW 1726   2.903   2.889   1.298  0.3427  0.0563  0.4135
  576SOL    HW1 1727   2.900   2.842   1.388 -0.1482  3.0233 -1.5778
  576SOL    HW2 1728   2.997   2.859   1.263  1.6367 -1.6009  1.1124
  577SOL     OW 1729   2.443   1.600   1.324 -0.4458 -0.7241  0.0933
  577SOL    HW1 1730   2.461   1.578   1.418 -1.1281 -0.6422 -0.1313
  577SOL    HW2 1731   2.392   1.686   1.329  2.0815  1.1869  2.6738
  578SOL     OW 1732   1.052   2.880   2.669 -0.2483  0.4344 -0.4165
  578SOL    HW1 1733   1.085   2.859   2.575 -0.9653 -0.5463  0.1275
  578SOL    HW2 1734   1.121   2.922   2.734  1.6655  0.3736  2.4943
  579SOL     OW 1735   2.113   1.468   2.141  0.1233  0.6797 -0.0883
  579SOL    HW1 1736   2.023   1.416   2.147 -0.6058 -3.2785 -1.8987
  579SOL    HW2 1737   2.134   1.486   2.046 -0.7761 -0.8150 -1.6023
  580SOL     OW 1738   1.637   0.301   1.896 -0.4240 -0.1936 -0.6557
  580SOL    HW1 1739   1.617   0.235   1.823  0.5041 -1.0464 -0.0217
  580SOL    HW2 1740   1.662   0.388   1.855  2.3903 -0.5687  0.6847
  581SOL     OW 1741   1.110   1.484   1.997  0.3730 -0.0336 -0.6213
  581SOL    HW1 1742   1.066   1.390   1.990 -1.7450  0.8829 -1.3900
  581SOL    HW2 1743   1.206   1.480   1.965 -0.1931  0.1903  0.3393
  582SOL     OW 1744   2.884   2.868   1.923  0.5365 -0.1487  0.3229
  582SOL    HW1 1745   2.913   2.966   1.927 -1.9092  0.4234  0.6961
  582SOL    HW2 1746   2.933   2.816   1.851 -0.3058  1.5114 -1.2715
  583SOL     OW 1747   1.298   1.468   1.202  0.7508  0.3146 -0.5380
  583SOL    HW1 1748   1.368   1.455   1.274  1.6720 -1.3436 -0.6974
  583SOL    HW2 1749   1.213   1.410   1.214 -2.4023 -1.6530  0.6010
  584SOL     OW 1750   1.463   1.701   2.902  0.5836 -1.0690 -0.4522
  584SOL    HW1 1751   1.408   1.785   2.880  0.8238  1.9536 -1.7945
  584SOL    HW2 1752   1.502   1.664   2.819 -1.0832 -0.7042  0.9483
  585SOL     OW 1753   0.228   2.481   0.293 -0.5926 -0.3016 -0.5878
  585SOL    HW1 1754   0.260   2.420   0.368 -4.4052 -2.3841 -2.8136
  585SOL    HW2 1755   0.287   2.472   0.212 -2.5450 -0.6688  0.0606
  586SOL     OW 1756   2.057   2.396   3.064  0.0598  0.7197 -1.2588
  586SOL    HW1 1757   2.098   2.349   0.070 -2.1550 -2.3803 -3.5716
  586SOL    HW2 1758   2.091   2.343   2.982 -1.4198 -0.5762 -0.2041
  587SOL     OW 1759   2.428   2.053   0.484 -0.4499 -0.0511 -0.9066
  587SOL    HW1 1760   2.463   2.151   0.482  2.6010 -0.0821 -0.1056
  587SOL    HW2 1761   2.478   1.997   0.414 -2.0448 -0.1918 -0.6604
  588SOL     OW 1762   2.161   0.407   1.052  0.4961  0.4687 -0.3576
  588SOL    HW1 1763   2.068   0.410   1.007 -0.8635 -0.5797  0.0633
  588SOL    HW2 1764   2.225   0.476   1.013  1.4883 -1.0386 -1.4655
  589SOL     OW 1765   0.666   0.846   0.919  0.5395  0.4416 -0.4537
  589SOL    HW1 1766   0.707   0.756   0.938 -1.8882 -0.0608 -0.4870
  589SOL    HW2 1767   0.602   0.855   0.844 -0.7193  1.1889  1.0295
  590SOL     OW 1768   2.730   2.307   0.255  0.2604  0.0264 -0.0818
  590SOL    HW1 1769   2.635   2.314   0.212 -1.9230 -0.3426 -0.7810
  590SOL    HW2 1770   2.750   2.388   0.313 -0.0608 -0.6830  1.1142
  591SOL     OW 1771   0.227   2.895   1.702 -0.0131 -0.6032  0.2306
  591SOL    HW1 1772   0.238   2.802   1.660  1.2480  1.3643 -0.7084
  591SOL    HW2 1773   0.278   2.904   1.790  2.3462 -0.1586 -0.6200
  592SOL     OW 1774   0.751   1.145   1.335  0.5509  0.2103 -0.2003
  592SOL    HW1 1775   0.683   1.107   1.400  0.9265 -0.2034  0.9053
  592SOL    HW2 1776   0.713   1.127   1.240 -1.5240 -0.0900 -1.5348
  593SOL     OW 1777   0.905   1.904   1.348  0.5472 -0.2610 -0.3689
  593SOL    HW1 1778   0.985   1.853   1.379 -1.9150  1.8521 -0.6190
  593SOL    HW2 1779   0.926   1.990   1.294 -0.7384  0.2387 -1.3276
  594SOL     OW 1780   0.235   1.775   2.794  0.6359  0.3213 -0.2160
  594SOL    HW1 1781   0.276   1.838   2.863  0.1157  0.1183 -1.7254
  594SOL    HW2 1782   0.298   1.753   2.718  3.4925  0.2795 -1.4631
  595SOL     OW 1783   1.341   0.627   0.911  0.2626 -0.1789 -0.1556
  595SOL    HW1 1784   1.397   0.568   0.849 -1.5628  0.5839  0.0352
  595SOL    HW2 1785   1.285   0.694   0.863  2.3870 -2.4167  1.0128
  596SOL     OW 1786   0.312   1.681   0.446  0.0507  0.0030 -0.0439
  596SOL    HW1 1787   0.234   1.718   0.396 -1.4877 -0.8968 -0.9072
  596SOL    HW2 1788   0.281   1.661   0.539 -0.8164  0.5987  1.6041
  597SOL     OW 1789   2.979   2.177   2.772  0.1803  0.3617 -0.0360
  597SOL    HW1 1790   2.909   2.213   2.705 -0.7918  1.0579  1.1868
  597SOL    HW2 1791   2.942   2.166   2.869 -0.2386  1.1173 -2.1633
  598SOL     OW 1792   2.033   1.978   2.276  0.2507  0.2397 -0.1164
  598SOL    HW1 1793   2.014   1.970   2.174  1.3989 -3.0266 -1.5586
  598SOL    HW2 1794   2.063   1.890   2.301 -0.5476  0.4179 -2.2176
  599SOL     OW 1795   1.481   0.219   0.590  0.3806 -0.6097 -0.1808
  599SOL    HW1 1796   1.526   0.139   0.622 -4.3468 -0.2711 -2.6489
  599SOL    HW2 1797   1.543   0.278   0.540  0.5275  0.8267 -1.4530
  600SOL     OW 1798   0.880   2.826   0.276 -0.2008 -0.3267  0.1360
  600SOL    HW1 1799   0.939   2.911   0.271 -0.4624 -0.3898 -2.6116
  600SOL    HW2 1800   0.778   2.845   0.259 -2.5026  3.8550  1.8481
  601SOL     OW 1801   0.561   0.733   1.325  0.4097 -0.5207 -0.2694
  601SOL    HW1 1802   0.504   0.738   1.410  0.3041  0.2483  1.0334
  601SOL    HW2 1803   0.657   0.707   1.346 -2.6904 -1.0290 -1.8768
  602SOL     OW 1804   0.247   2.729   1.013  0.1813 -0.0297  0.1485
  602SOL    HW1 1805   0.323   2.722   1.081  1.5111  1.9718  1.2124
  602SOL    HW2 1806   0.192   2.816   1.018  0.6900  0.4574 -3.0035
  603SOL     OW 1807   1.278   2.665   2.530  0.1871 -0.3647 -0.1552
  603SOL    HW1 1808   1.301   2.760   2.496 -0.3086  0.2250 -5.1213
  603SOL    HW2 1809   1.358   2.606   2.512  1.8080  0.0808  0.7450
  604SOL     OW 1810   0.560   2.766   2.885 -0.6973 -0.0294 -0.0977
  604SOL    HW1 1811   0.563   2.677   2.933 -0.9514  2.0286 -0.0484
  604SOL    HW2 1812   0.483   2.778   2.825  0.4433  1.8827 -2.8943
  605SOL     OW 1813   0.988   0.611   1.881 -0.1306 -0.4668 -0.4915
  605SOL    HW1 1814   1.074   0.583   1.836  1.1537  0.9399  0.3106
  605SOL    HW2 1815   0.988   0.713   1.883 -2.6185  1.1517 -0.2102
  606SOL     OW 1816   2.069   0.465   2.658  0.4379  0.1566  0.5549
  606SOL    HW1 1817   2.011   0.401   2.710 -0.2325 -0.5934 -0.1938
  606SOL    HW2 1818   2.022   0.503   2.575  0.0251  1.1507 -0.3825
  607SOL     OW 1819   0.418   1.328   1.036 -0.0683  0.0374 -0.2872
  607SOL    HW1 1820   0.414   1.383   1.122  0.7107  1.2959  0.4512
  607SOL    HW2 1821   0.385   1.234   1.060 -0.4981 -0.3791  0.8979
  608SOL     OW 1822   0.118   2.558   2.376  0.2433 -0.3625  0.4338
  608SOL    HW1 1823   0.133   2.657   2.398  1.5073 -0.5097 -1.3988
  608SOL    HW2 1824   0.101   2.495   2.454 -0.6363  3.4054 -2.1988
  609SOL     OW 1825   1.409   0.600   0.011 -0.1769  0.4046  0.0821
  609SOL    HW1 1826   1.502   0.562   3.064  1.0454  0.9526 -0.5567
  609SOL    HW2 1827   1.370   0.552   0.092 -1.0237  0.8115 -2.6182
  610SOL     OW 1828   0.726   2.710   1.304 -0.5880 -0.3156 -0.1307
  610SOL    HW1 1829   0.782   2.796   1.284 -0.0520  0.7410 -2.3945
  610SOL    HW2 1830   0.653   2.730   1.368  0.1998  2.8794  1.8790
  611SOL     OW 1831   1.136   0.815   0.458 -0.0505  0.1319  0.5909
  611SOL    HW1 1832   1.189   0.812   0.367  1.9554 -1.1563  0.3536
  611SOL    HW2 1833   1.087   0.904   0.475 -0.1108  3.0131  2.9878
  612SOL     OW 1834   1.516   0.785   2.780 -0.0027  0.1144 -0.2387
  612SOL    HW1 1835   1.514   0.781   2.679 -2.5522 -2.2461 -0.4583
  612SOL    HW2 1836   1.529   0.876   2.828 -1.3576 -1.1820 -0.7723
  613SOL     OW 1837   2.131   0.923   0.641  0.2213  0.4982 -0.0436
  613SOL    HW1 1838   2.049   0.958   0.587  1.8871 -0.4719 -0.3638
  613SOL    HW2 1839   2.106   0.925   0.738 -2.3553 -1.5399  1.3794
  614SOL     OW 1840   2.298   0.189   1.742  0.6305 -0.2678  0.2999
  614SOL    HW1 1841   2.293   0.192   1.843  2.1470 -0.6269 -0.7477
  614SOL    HW2 1842   2.253   0.274   1.702 -1.1889 -1.3313  0.1927
  615SOL     OW 1843   0.888   2.204   0.768  0.6294  0.4375 -0.2446
  615SOL    HW1 1844   0.874   2.146   0.851 -0.3618 -0.3408 -1.3571
  615SOL    HW2 1845   0.896   2.304   0.790 -3.3249 -0.6956  0.1971
  616SOL     OW 1846   1.502   0.995   2.379  0.0181 -0.3359 -0.1763
  616SOL    HW1 1847   1.475   1.096   2.382  0.1695  2.1295 -0.7873
  616SOL    HW2 1848   1.545   0.987   2.284 -1.8787  1.0767 -0.5839
  617SOL     OW 1849   1.675   2.893   2.966 -0.1691 -0.4002  0.4843
  617SOL    HW1 1850   1.578   2.862   2.979  1.2049 -1.6258 -0.4391
  617SOL    HW2 1851   1.719   2.827   2.904 -0.9083  1.3033  2.6711
  618SOL     OW 1852   1.165   1.183   2.546 -0.3577  0.2574 -0.1740
  618SOL    HW1 1853   1.249   1.198   2.487  0.9111  0.4081  0.4557
  618SOL    HW2 1854   1.156   1.084   2.562 -1.1318  0.6990 -0.3638
  619SOL     OW 1855   2.363   1.399   0.770  0.0794  0.0253 -0.1758
  619SOL    HW1 1856   2.286   1.333   0.746  0.0500 -1.0616 -1.8638
  619SOL    HW2 1857   2.453   1.353   0.780  0.1080  1.6693  4.6411
  620SOL     OW 1858   2.376   2.485   2.747  0.0776 -0.3054 -0.9480
  620SOL    HW1 1859   2.412   2.578   2.773 -0.9567  2.0584  2.3110
  620SOL    HW2 1860   2.304   2.463   2.813 -0.4476 -1.5221  0.1782
  621SOL     OW 1861   2.326   1.132   0.330 -0.1734 -0.5211 -0.2829
  621SOL    HW1 1862   2.224   1.135   0.327  0.2301 -1.2133 -0.9181
  621SOL    HW2 1863   2.348   1.096   0.424 -1.9379 -3.8380 -0.7969
  622SOL     OW 1864   1.384   2.236   2.529 -0.4530 -0.0620  0.2485
  622SOL    HW1 1865   1.409   2.270   2.433 -0.0685  0.0317 -1.4121
  622SOL    HW2 1866   1.295   2.282   2.546  0.3585 -1.8970 -3.2439
  623SOL     OW 1867   0.141   2.229   0.030  0.3697  0.1353  0.5298
  623SOL    HW1 1868   0.200   2.153   0.062 -1.3309  0.2509 -1.8359
  623SOL    HW2 1869   0.049   2.219   0.076  1.0589  0.2860 -0.9918
  624SOL     OW 1870   0.371   0.087   3.018 -0.2225  0.4601 -0.1142
  624SOL    HW1 1871   0.448   0.111   2.959 -2.3943 -0.1190  3.4442
  624SOL    HW2 1872   0.386   0.008   0.002  1.6239 -1.9516 -2.8926
  625SOL     OW 1873   0.738   2.021   0.030 -0.2370 -0.0796 -0.3814
  625SOL    HW1 1874   0.643   2.043   3.073 -0.2014  0.9231  0.2943
  625SOL    HW2 1875   0.756   1.919   0.011  0.2005 -3.7515 -0.0624
  626SOL     OW 1876   2.851   0.716   0.350 -0.7983  0.0847 -0.0502
  626SOL    HW1 1877   2.836   0.673   0.260 -0.1306  0.8219  1.1020
  626SOL    HW2 1878   2.906   0.661   0.416 -1.9898  0.0755 -1.3010
  627SOL     OW 1879   1.666   1.286   2.809  0.4528 -0.9125  0.4582
  627SOL    HW1 1880   1.731   1.216   2.839  1.2297 -1.1756  1.1466
  627SOL    HW2 1881   1.663   1.355   2.886 -0.2561  0.5676  3.8400
  628SOL     OW 1882   1.318   1.237   2.914 -0.0437  0.1212  0.6201
  628SOL    HW1 1883   1.300   1.266   3.010  1.6237 -1.4597  0.2068
  628SOL    HW2 1884   1.385   1.157   2.904  1.0948 -0.3270  0.1333
  629SOL     OW 1885   0.264   0.090   1.770 -0.0879  0.3744 -0.3191
  629SOL    HW1 1886   0.246   3.072   1.740 -1.5599 -1.4261 -1.3750
  629SOL    HW2 1887   0.243   0.157   1.698 -0.8482  0.1694 -1.5680
  630SOL     OW 1888   2.431   0.696   2.091 -0.1607 -0.8132  0.4309
  630SOL    HW1 1889   2.407   0.643   2.008  0.4776  1.4978  1.9854
  630SOL    HW2 1890   2.407   0.645   2.177 -0.2627  0.0698  1.1122
  631SOL     OW 1891   2.086   0.451   0.624 -0.0337 -0.1461  0.2595
  631SOL    HW1 1892   2.156   0.389   0.663  0.5466 -0.8445 -1.2528
  631SOL    HW2 1893   2.118   0.524   0.562 -0.7068  0.2351  2.5925
  632SOL     OW 1894   0.003   0.670   1.508 -1.1020  0.0427 -0.3194
  632SOL    HW1 1895   3.028   0.586   1.489  2.0894  2.7035  1.0018
  632SOL    HW2 1896   0.070   0.655   1.582  0.3239  0.2900 -1.0647
  633SOL     OW 1897   0.888   0.260   2.978 -0.0258  0.1488  0.5018
  633SOL    HW1 1898   0.834   0.340   3.012  1.3755 -0.4834 -2.6676
  633SOL    HW2 1899   0.840   0.174   3.011 -0.0241  2.0328 -2.1590
  634SOL     OW 1900   0.918   2.493   2.974 -0.5796 -0.4999 -0.0650
  634SOL    HW1 1901   0.938   2.526   3.071 -1.6292  1.5348  1.6730
  634SOL    HW2 1902   0.901   2.575   2.917 -0.0991  0.0285  3.0219
  635SOL     OW 1903   2.986   0.498   0.459  0.0385  0.2139  0.4909
  635SOL    HW1 1904   2.914   0.429   0.466  1.3562 -0.0677 -0.8205
  635SOL    HW2 1905   3.061   0.471   0.522  0.7954 -0.3652 -0.2311
  636SOL     OW 1906   0.579   1.065   0.357 -0.8378 -0.0038 -0.0382
  636SOL    HW1 1907   0.556   0.961   0.357  1.1467 -1.6911 -0.5762
  636SOL    HW2 1908   0.682   1.076   0.345  1.2715  2.8452  1.8536
  637SOL     OW 1909   0.242   2.680   0.448 -0.0463 -0.3399 -0.2770
  637SOL    HW1 1910   0.231   2.611   0.377  1.1426 -1.2986  1.0911
  637SOL    HW2 1911   0.213   2.773   0.413 -0.4228 -0.7256 -2.9398
  638SOL     OW 1912   3.076   2.331   0.573 -0.8180  0.1465  0.1694
  638SOL    HW1 1913   0.017   2.347   0.473 -1.6345  0.5766 -1.6395
  638SOL    HW2 1914   0.066   2.269   0.617  0.0657  1.6452  0.5297
  639SOL     OW 1915   1.524   1.041   0.288  0.5645 -0.3023  0.4615
  639SOL    HW1 1916   1.507   0.958   0.227 -0.8465 -0.8113 -3.5487
  639SOL    HW2 1917   1.513   1.125   0.232 -0.6505 -0.9955  0.4721
  640SOL     OW 1918   1.684   2.335   1.623  0.5415 -0.5467  0.0766
  640SOL    HW1 1919   1.621   2.377   1.556  2.4810 -1.6963  2.4497
  640SOL    HW2 1920   1.767   2.309   1.565  0.2359 -0.4999  0.1634
  641SOL     OW 1921   2.900   2.371   1.098  0.6038 -0.2093 -0.8540
  641SOL    HW1 1922   2.999   2.394   1.112 -0.0918 -3.6987 -0.4968
  641SOL    HW2 1923   2.874   2.323   1.014  0.0551 -1.2659  3.0337
  642SOL     OW 1924   0.800   3.032   1.586 -0.5969  0.4395 -0.1039
  642SOL    HW1 1925   0.825   0.032   1.646  0.7201  0.2764  0.0612
  642SOL    HW2 1926   0.702   3.003   1.607 -1.1700 -1.4850 -1.1837
  643SOL     OW 1927   0.863   2.263   2.802  0.2209  0.3395  0.4696
  643SOL    HW1 1928   0.886   2.348   2.854 -1.3012 -0.2213 -0.7185
  643SOL    HW2 1929   0.939   2.201   2.798 -2.6430  1.2754 -2.1064
  644SOL     OW 1930   1.258   2.625   0.869 -0.7388 -0.0238 -0.4898
  644SOL    HW1 1931   1.342   2.610   0.816 -1.7480 -0.1794 -0.5742
  644SOL    HW2 1932   1.182   2.614   0.804 -0.6604 -0.0936  0.7794
  645SOL     OW 1933   1.351   1.354   1.875  0.3237 -0.1994  0.3790
  645SOL    HW1 1934   1.319   1.352   1.779  1.5068 -1.3277  1.7501
  645SOL    HW2 1935   1.343   1.267   1.925  0.9755  2.2554  1.5971
  646SOL     OW 1936   3.076   0.801   0.117  0.1762 -0.0544 -0.0270
  646SOL    HW1 1937   0.026   0.712   0.165 -0.2673 -0.5890  2.2120
  646SOL    HW2 1938   3.045   0.874   0.187 -0.6378  2.6463  2.2805
  647SOL     OW 1939   1.192   0.327   0.484  0.4244 -0.1507  0.1425
  647SOL    HW1 1940   1.215   0.265   0.562 -0.6391 -1.5428 -0.4675
  647SOL    HW2 1941   1.233   0.420   0.505  0.8515 -0.5282  2.8057
  648SOL     OW 1942   2.028   2.762   1.063  0.1456 -0.0561 -0.3449
  648SOL    HW1 1943   2.072   2.711   1.136 -0.4104  1.1381  0.3021
  648SOL    HW2 1944   1.930   2.742   1.048 -1.4408 -0.8633 -0.0268
  649SOL     OW 1945   0.366   1.982   2.909  0.1539  0.2610  0.1485
  649SOL    HW1 1946   0.286   2.028   2.868  0.8005 -2.3112 -1.3014
  649SOL    HW2 1947   0.396   2.048   2.982 -1.1550  0.9896 -0.0648
  650SOL     OW 1948   2.322   1.915   1.845 -0.5456  0.0519  0.0069
  650SOL    HW1 1949   2.257   1.857   1.890  1.1451 -0.7823  0.0351
  650SOL    HW2 1950   2.365   1.863   1.770  2.3210 -0.1442  1.6505
  651SOL     OW 1951   0.036   3.029   2.829 -0.1280 -0.2846  0.8594
  651SOL    HW1 1952   0.015   2.977   2.746  0.3758  3.0576  3.1364
  651SOL    HW2 1953   3.040   0.024   2.840  1.3251  2.6279  0.4916
  652SOL     OW 1954   2.557   1.632   0.325  0.3002 -0.4547  0.2618
  652SOL    HW1 1955   2.651   1.610   0.356 -0.3542 -0.8041  3.7546
  652SOL    HW2 1956   2.481   1.569   0.349 -0.3780  0.4229  0.3464
  653SOL     OW 1957   0.263   0.352   0.921 -0.1129 -0.3434  0.0352
  653SOL    HW1 1958   0.329   0.387   0.848  1.1056 -1.0578 -2.3892
  653SOL    HW2 1959   0.176   0.318   0.880 -0.4656 -0.3214  0.8976
  654SOL     OW 1960   1.011   3.061   0.241 -0.0325  0.6744 -0.3660
  654SOL    HW1 1961   1.105   0.001   0.265  0.2499 -4.3067  0.1474
  654SOL    HW2 1962   0.980   0.055   0.176 -2.7918  1.1177 -0.6892
  655SOL     OW 1963   0.369   2.672   1.247 -0.2391 -0.1763 -0.2655
  655SOL    HW1 1964   0.412   2.751   1.293 -0.7848  2.0495  0.9198
  655SOL    HW2 1965   0.387   2.591   1.302  0.1707  1.3114  0.1592
  656SOL     OW 1966   2.992   2.942   2.242  0.0732  0.0135 -0.2994
  656SOL    HW1 1967   0.003   2.988   2.244 -3.6552 -1.1331  0.0773
  656SOL    HW2 1968   2.936   2.980   2.169  1.7336 -1.0601  0.7968
  657SOL     OW 1969   1.784   0.589   2.376  0.0147  0.0505  0.0790
  657SOL    HW1 1970   1.716   0.632   2.434  2.6448  0.7101 -0.5957
  657SOL    HW2 1971   1.863   0.654   2.383  0.9631 -0.2643  0.0747
  658SOL     OW 1972   1.890   1.576   1.228 -0.3039  0.0598 -0.0129
  658SOL    HW1 1973   1.896   1.473   1.241  2.8311 -1.4184  2.9900
  658SOL    HW2 1974   1.852   1.624   1.308 -0.2238 -1.0222 -1.0137
  659SOL     OW 1975   2.501   2.704   2.873 -0.3992 -0.3592  0.2547
  659SOL    HW1 1976   2.567   2.761   2.820  0.0565  1.2747 -1.8644
  659SOL    HW2 1977   2.547   2.663   2.952  1.0117 -0.9916 -0.8442
  660SOL     OW 1978   1.205   0.809   0.192 -0.1395  0.1060 -0.2253
  660SOL    HW1 1979   1.155   0.738   0.140 -0.0056 -1.5757  1.7865
  660SOL    HW2 1980   1.144   0.894   0.212 -0.6824  1.9997  0.0717
  661SOL     OW 1981   2.742   0.013   0.556 -0.7082  0.1655 -0.2743
  661SOL    HW1 1982   2.758   2.992   0.589  0.2051  0.0423 -1.6886
  661SOL    HW2 1983   2.717   0.021   0.458  3.0160  1.7186 -0.2523
  662SOL     OW 1984   0.750   0.558   0.971 -0.2378  0.2027  0.3345
  662SOL    HW1 1985   0.668   0.521   1.023 -0.2740 -1.4006 -0.6738
  662SOL    HW2 1986   0.771   0.502   0.889  1.4549 -1.5943  1.2457
  663SOL     OW 1987   1.337   2.622   2.196 -0.5063 -0.9610  0.0562
  663SOL    HW1 1988   1.246   2.677   2.196  0.7396  1.2494 -1.6803
  663SOL    HW2 1989   1.361   2.607   2.100 -0.8556 -1.8600  0.4235
  664SOL     OW 1990   0.621   2.203   1.411 -0.3434  0.4617  0.2067
  664SOL    HW1 1991   0.717   2.235   1.410 -3.4207  0.2558 -1.3909
  664SOL    HW2 1992   0.616   2.103   1.416 -1.9700  1.0530  0.5051
  665SOL     OW 1993   1.053   2.064   1.740 -0.3535  0.1961  0.1456
  665SOL    HW1 1994   0.954   2.094   1.726 -1.7133  1.0542  1.3458
  665SOL    HW2 1995   1.121   2.091   1.669 -0.7721  1.2230  0.5234
  666SOL     OW 1996   0.281   2.691   2.781 -0.1332 -0.4207 -0.1399
  666SOL    HW1 1997   0.293   2.740   2.690 -0.3013  2.3843 -0.5772
  666SOL    HW2 1998   0.333   2.603   2.774  2.4080  0.0158  2.0648
  667SOL     OW 1999   1.317   1.732   1.178 -0.0355 -0.6539 -0.0502
  667SOL    HW1 2000   1.306   1.635   1.149 -0.2692  4.8469  1.6702
  667SOL    HW2 2001   1.254   1.752   1.253  3.0507  0.8465 -0.8792
  668SOL     OW 2002   1.035   0.346   2.257 -0.5557  0.1153  0.0173
  668SOL    HW1 2003   0.993   0.435   2.293 -1.7885  0.3876  0.0836
  668SOL    HW2 2004   1.040   0.278   2.330 -0.1366  2.2089 -0.7722
  669SOL     OW 2005   2.326   2.266   1.692  0.5126  0.4621  0.2449
  669SOL    HW1 2006   2.246   2.221   1.740  0.9707 -0.4262 -2.0883
  669SOL    HW2 2007   2.411   2.214   1.680  2.5928  1.4061  0.9738
  670SOL     OW 2008   1.951   1.841   0.097  0.1905  0.2515  0.1446
  670SOL    HW1 2009   1.893   1.903   0.157 -1.4405  2.3700 -1.7833
  670SOL    HW2 2010   1.931   1.870   0.002 -1.7259  2.5670  0.2271
  671SOL     OW 2011   1.273   1.083   0.855  0.0641  0.0309 -0.0604
  671SOL    HW1 2012   1.329   1.001   0.831 -1.0206 -2.1266 -0.2265
  671SOL    HW2 2013   1.331   1.163   0.875 -0.0228 -1.3074 -1.4686
  672SOL     OW 2014   2.544   1.036   2.350 -0.1068 -0.3710  0.4427
  672SOL    HW1 2015   2.516   1.029   2.250  1.0824  1.0892 -4.6274
  672SOL    HW2 2016   2.633   0.994   2.375 -0.7046 -0.3046 -2.0293
  673SOL     OW 2017   2.827   1.591   2.125 -0.0275 -0.3848  0.2991
  673SOL    HW1 2018   2.838   1.633   2.037 -2.3209 -0.8806  2.7056
  673SOL    HW2 2019   2.781   1.662   2.187 -2.3591 -1.2049 -1.7162
  674SOL     OW 2020   1.152   2.341   2.546 -0.4293 -0.3138  0.7201
  674SOL    HW1 2021   1.126   2.435   2.558  1.5175 -1.6560 -0.2891
  674SOL    HW2 2022   1.078   2.281   2.523  0.5435 -0.0606 -1.4726
  675SOL     OW 2023   1.059   1.221   1.700  0.1003 -0.3565 -0.6385
  675SOL    HW1 2024   1.010   1.184   1.616  1.8714 -1.8638 -3.0096
  675SOL    HW2 2025   1.081   1.324   1.688  2.0422  0.8596 -0.9755
  676SOL     OW 2026   2.415   0.757   0.799 -0.1268 -0.2615  0.3726
  676SOL    HW1 2027   2.458   0.800   0.717 -2.6926  1.1735 -0.9286
  676SOL    HW2 2028   2.439   0.659   0.800 -2.0898 -0.8431  2.4033
  677SOL     OW 2029   2.621   1.454   2.600  0.0886 -0.0721 -0.1414
  677SOL    HW1 2030   2.692   1.526   2.620 -1.5505 -0.5988 -0.0856
  677SOL    HW2 2031   2.541   1.474   2.655  2.8758 -1.5916 -2.8085
  678SOL     OW 2032   0.152   3.004   1.054 -0.0495  0.0547  0.5602
  678SOL    HW1 2033   0.119   2.947   1.131  2.4582 -1.3651 -0.1406
  678SOL    HW2 2034   0.188   0.011   1.083 -2.4196 -6.3024 -0.9755
  679SOL     OW 2035   2.174   0.182   0.127 -0.0109 -0.0566  0.0881
  679SOL    HW1 2036   2.230   0.254   0.083  1.9004  2.8949  2.2039
  679SOL    HW2 2037   2.232   0.133   0.194  0.3657  2.0785 -0.2752
  680SOL     OW 2038   0.108   2.386   2.118  0.2237  0.1272 -0.1118
  680SOL    HW1 2039   0.176   2.440   2.055 -1.0462 -0.9380 -2.7320
  680SOL    HW2 2040   0.125   2.406   2.218 -0.2710  0.6600 -0.9994
  681SOL     OW 2041   2.190   1.822   1.410  0.1340 -0.3047  0.2387
  681SOL    HW1 2042   2.127   1.898   1.430  0.9157 -0.5381 -0.8011
  681SOL    HW2 2043   2.163   1.780   1.320 -1.8968  0.1374  1.0261
  682SOL     OW 2044   0.093   2.110   2.157 -0.4722 -0.3451  0.8133
  682SOL    HW1 2045   0.015   2.061   2.106 -1.5101  0.5018 -1.0787
  682SOL    HW2 2046   0.104   2.207   2.128 -1.3370 -1.9186  3.2793
  683SOL     OW 2047   3.059   2.105   1.382  0.1130 -0.0879  0.0666
  683SOL    HW1 2048   3.040   2.017   1.433  1.4378  2.2386  0.8197
  683SOL    HW2 2049   2.984   2.173   1.387  5.1468  1.8475 -1.0944
  684SOL     OW 2050   2.309   0.970   2.456 -0.3200  0.1222  0.1795
  684SOL    HW1 2051   2.253   1.048   2.425  2.9916 -3.1962  3.1881
  684SOL    HW2 2052   2.396   0.961   2.406 -4.7509  0.6386  0.9858
  685SOL     OW 2053   1.420   1.467   0.647  0.0810 -0.1071  0.1966
  685SOL    HW1 2054   1.396   1.370   0.623 -0.7027 -1.9896 -0.6545
  685SOL    HW2 2055   1.472   1.470   0.733 -0.4563  2.7033  0.9234
  686SOL     OW 2056   0.338   3.027   0.584  0.2844 -0.0914 -0.0430
  686SOL    HW1 2057   0.423   3.036   0.527  2.8079  0.5188  0.0928
  686SOL    HW2 2058   0.324   0.028   0.646 -1.7850 -1.7211 -2.2813
  687SOL     OW 2059   1.403   1.257   2.386  0.3391  0.0157  0.1642
  687SOL    HW1 2060   1.359   1.336   2.334 -3.3135  1.4258 -1.2867
  687SOL    HW2 2061   1.435   1.290   2.477 -1.2769 -0.1055 -3.2402
  688SOL     OW 2062   1.138   1.744   1.374  0.0273 -0.4521 -0.4539
  688SOL    HW1 2063   1.071   1.666   1.368  0.7117 -1.3162  0.2673
  688SOL    HW2 2064   1.221   1.707   1.415 -0.4361 -2.9913 -0.3808
  689SOL     OW 2065   2.143   0.172   1.210  0.4304 -0.0321 -0.3562
  689SOL    HW1 2066   2.158   0.251   1.149 -0.2030  0.2895 -0.2773
  689SOL    HW2 2067   2.173   0.092   1.159  1.4258 -0.7791  1.9019
  690SOL     OW 2068   0.109   1.530   1.167 -0.1164 -0.1258  0.3448
  690SOL    HW1 2069   0.056   1.541   1.082  1.2981  1.9295  1.8608
  690SOL    HW2 2070   0.090   1.447   1.218 -0.5779  3.7568  0.2379
  691SOL     OW 2071   0.544   2.432   1.018 -0.0167  0.0737 -0.2861
  691SOL    HW1 2072   0.611   2.504   1.047  1.3943 -1.2655 -2.9176
  691SOL    HW2 2073   0.468   2.463   0.953 -1.8512  1.4871  1.3936
  692SOL     OW 2074   2.098   0.520   1.907 -0.5135  0.1116  0.6138
  692SOL    HW1 2075   2.056   0.480   1.988 -1.9224  0.8820 -1.8158
  692SOL    HW2 2076   2.056   0.480   1.822  3.7458 -1.8257  0.0225
  693SOL     OW 2077   0.371   1.964   1.954 -0.0669  0.5689 -0.1604
  693SOL    HW1 2078   0.392   1.864   1.936 -2.2670 -2.9324 -0.5933
  693SOL    HW2 2079   0.375   1.985   2.058  0.7839  1.4589  2.0232
  694SOL     OW 2080   1.551   0.932   1.577 -0.6862  0.1095 -0.1486
  694SOL    HW1 2081   1.581   0.833   1.573 -0.6879 -1.6614  2.0188
  694SOL    HW2 2082   1.503   0.961   1.491  0.0381  0.2673  0.4565
  695SOL     OW 2083   0.617   1.133   0.703 -0.1342  0.2792 -0.3960
  695SOL    HW1 2084   0.650   1.208   0.765  0.6793 -0.5299  0.2187
  695SOL    HW2 2085   0.576   1.175   0.617 -1.2028 -0.0113 -0.9787
  696SOL     OW 2086   1.176   2.995   0.705 -0.4940 -0.0343  0.3984
  696SOL    HW1 2087   1.249   2.955   0.645 -1.1552  2.0327  0.0773
  696SOL    HW2 2088   1.214   0.002   0.746 -1.1315 -1.6486  1.4806
  697SOL     OW 2089   1.421   0.327   1.683  0.3779  0.2383 -0.2411
  697SOL    HW1 2090   1.406   0.367   1.773 -0.8325  1.2483  0.8801
  697SOL    HW2 2091   1.480   0.246   1.683  1.2536 -0.4376  2.1189
  698SOL     OW 2092   1.907   1.049   2.064  0.0191 -0.2744 -0.2568
  698SOL    HW1 2093   1.992   1.033   2.010  0.5649  2.2700  0.8655
  698SOL    HW2 2094   1.868   1.137   2.026  2.3337  0.9300 -2.3580
  699SOL     OW 2095   2.290   0.433   1.607  0.0265  0.6230 -0.2338
  699SOL    HW1 2096   2.317   0.530   1.595 -1.1081 -1.1609 -0.8990
  699SOL    HW2 2097   2.343   0.377   1.542  0.7413 -1.0249 -2.1383
  700SOL     OW 2098   0.990   2.217   0.371 -0.2550  0.4628 -1.0212
  700SOL    HW1 2099   0.905   2.186   0.320 -0.9814  0.1135 -1.8036
  700SOL    HW2 2100   1.019   2.144   0.437 -0.4337 -0.2279  3.4633
  701SOL     OW 2101   2.151   2.898   2.534 -0.0101  0.3183 -0.4601
  701SOL    HW1 2102   2.074   2.906   2.472  2.1414 -1.5850  0.6856
  701SOL    HW2 2103   2.115   2.876   2.628 -0.2204 -0.6574  2.6987
  702SOL     OW 2104   1.084   3.003   1.121  0.3642 -0.6831 -0.4371
  702SOL    HW1 2105   1.088   2.922   1.059  0.1528 -0.9839 -0.6415
  702SOL    HW2 2106   1.030   0.004   1.082 -1.7558  2.4379 -2.1226
  703SOL     OW 2107   2.495   0.054   2.158 -0.7917  0.1647 -0.0974
  703SOL    HW1 2108   2.394   0.048   2.171 -1.6052  1.0000 -0.0044
  703SOL    HW2 2109   2.535   3.039   2.164  0.1322  1.8339 -1.2917
  704SOL     OW 2110   3.048   2.381   0.298 -0.2038  0.1449 -0.2642
  704SOL    HW1 2111   2.996   2.330   0.222  0.1750 -0.7390  1.1530
  704SOL    HW2 2112   0.065   2.403   0.263 -0.8488 -1.1507 -1.6744
  705SOL     OW 2113   2.564   2.881   2.221  0.1006  0.3023  0.1398
  705SOL    HW1 2114   2.468   2.852   2.237  1.8491 -1.8314 -0.4463
  705SOL    HW2 2115   2.620   2.807   2.268  0.2673  1.4490  3.2764
  706SOL     OW 2116   2.264   3.035   1.087  0.3145 -0.4257 -0.1518
  706SOL    HW1 2117   2.298   3.045   0.990 -0.6976  1.5230  1.8684
  706SOL    HW2 2118   2.268   2.934   1.112  1.1883  0.3810  0.2805
  707SOL     OW 2119   0.852   2.780   2.365  0.2841 -0.2714 -0.0893
  707SOL    HW1 2120   0.921   2.716   2.322  1.9867  1.2078  0.5874
  707SOL    HW2 2121   0.805   2.837   2.290  2.7585  2.5393 -3.8375
  708SOL     OW 2122   2.858   2.093   1.650 -0.5110  0.0286 -0.6056
  708SOL    HW1 2123   2.926   2.151   1.700  1.1264  0.6655  0.6677
  708SOL    HW2 2124   2.907   2.013   1.612  0.3359 -0.4517 -2.6855
  709SOL     OW 2125   1.656   0.559   1.331 -0.3091 -0.6955 -0.0850
  709SOL    HW1 2126   1.624   0.620   1.256 -0.9933 -1.2079  0.8555
  709SOL    HW2 2127   1.733   0.503   1.294 -0.0857 -0.7064 -3.7087
  710SOL     OW 2128   0.808   3.066   2.724 -0.1881 -0.4685  0.3324
  710SOL    HW1 2129   0.873   3.030   2.654  0.6548 -1.2471 -2.7337
  710SOL    HW2 2130   0.805   0.091   2.719 -1.3804  1.3306 -0.1694
  711SOL     OW 2131   0.815   2.005   2.503  0.1611  0.5502  0.4499
  711SOL    HW1 2132   0.720   2.038   2.529 -0.4634  0.1087  3.2201
  711SOL    HW2 2133   0.855   1.955   2.584 -0.2154 -0.8759  0.7379
  712SOL     OW 2134   0.992   2.132   3.069 -0.3893  0.0827 -0.3050
  712SOL    HW1 2135   0.893   2.145   3.058  2.8450  0.3039 -0.4877
  712SOL    HW2 2136   1.034   2.133   2.979 -4.3071  0.3053 -0.6098
  713SOL     OW 2137   1.900   0.893   2.313  0.4404  0.5529  0.3859
  713SOL    HW1 2138   1.923   0.963   2.244  0.5406 -1.2249 -1.1585
  713SOL    HW2 2139   1.975   0.828   2.319 -0.3822  0.8535 -2.1805
  714SOL     OW 2140   1.030   1.715   1.745 -0.0755 -0.3154 -0.1871
  714SOL    HW1 2141   1.054   1.779   1.821 -0.8490  1.0687 -2.3384
  714SOL    HW2 2142   0.975   1.761   1.674 -0.9055 -0.1684 -0.5201
  715SOL     OW 2143   2.162   0.544   3.071  0.1456  0.3626 -0.4898
  715SOL    HW1 2144   2.059   0.536   3.066 -3.5857 -0.5373  1.1380
  715SOL    HW2 2145   2.182   0.553   0.094 -1.1646 -2.4090 -1.5234
  716SOL     OW 2146   2.853   2.284   1.355  0.6547 -0.0737 -0.2678
  716SOL    HW1 2147   2.763   2.245   1.325  0.0547 -1.7374  1.7716
  716SOL    HW2 2148   2.886   2.331   1.276 -0.3278  1.3246  2.1441
  717SOL     OW 2149   2.589   1.253   0.762  0.3311  0.0344 -0.2493
  717SOL    HW1 2150   2.550   1.172   0.809 -1.1319 -0.6270  0.8483
  717SOL    HW2 2151   2.637   1.219   0.681  0.0313  2.6230  1.1216
  718SOL     OW 2152   1.352   1.664   1.558  0.3007  0.2809 -0.2912
  718SOL    HW1 2153   1.445   1.624   1.574 -0.1395 -1.4362  1.5254
  718SOL    HW2 2154   1.295   1.661   1.641 -0.4912  2.2404 -1.9266
  719SOL     OW 2155   2.796   0.607   0.119 -0.2632  0.3840  0.4275
  719SOL    HW1 2156   2.789   0.687   0.057 -0.7721 -2.1007  0.6440
  719SOL    HW2 2157   2.770   0.526   0.059 -2.4777  0.1106 -0.5879
  720SOL     OW 2158   0.958   0.152   1.012  0.1072 -0.1153  0.4416
  720SOL    HW1 2159   1.009   0.227   0.969 -1.2518 -2.3427  1.8081
  720SOL    HW2 2160   0.857   0.173   1.015  1.5255  1.1878 -2.2591
  721SOL     OW 2161   2.602   0.929   0.660  0.3975  0.4522  0.9918
  721SOL    HW1 2162   2.606   0.887   0.567 -2.6288  2.5357 -1.9075
  721SOL    HW2 2163   2.692   0.967   0.691 -0.0516  1.3521  0.0713
  722SOL     OW 2164   0.598   2.667   2.457  0.6992 -0.2112 -0.2829
  722SOL    HW1 2165   0.685   2.709   2.428 -0.5055 -0.3707  1.1243
  722SOL    HW2 2166   0.543   2.629   2.378  3.9454 -0.3061 -0.0699
  723SOL     OW 2167   2.026   0.704   0.832  0.3941  0.2331 -0.1632
  723SOL    HW1 2168   2.080   0.714   0.916 -0.6647  1.3662  1.2209
  723SOL    HW2 2169   2.037   0.617   0.785  0.0647  0.0916  0.9086
  724SOL     OW 2170   0.975   1.791   2.341 -0.4161 -0.0027 -0.1009
  724SOL    HW1 2171   0.910   1.863   2.373 -0.3901  1.1581 -1.9015
  724SOL    HW2 2172   1.017   1.818   2.254  0.6320 -1.9517  2.5392
  725SOL     OW 2173   1.431   2.892   1.399  0.3614 -0.5411 -0.0001
  725SOL    HW1 2174   1.397   2.925   1.492 -0.7543  2.4036  0.6831
  725SOL    HW2 2175   1.363   2.831   1.351  0.4680 -1.4705 -0.6929
  726SOL     OW 2176   2.350   2.746   0.090  0.1613  0.4409  0.4167
  726SOL    HW1 2177   2.401   2.828   0.060 -0.4917  1.0349 -1.0669
  726SOL    HW2 2178   2.415   2.681   0.137 -2.4053  0.0478  0.5071
  727SOL     OW 2179   1.228   2.091   0.915  0.0371 -0.3065  0.3323
  727SOL    HW1 2180   1.301   2.024   0.931 -0.0683  0.5711 -1.5844
  727SOL    HW2 2181   1.225   2.131   0.821  0.5984 -0.9488  1.7628
  728SOL     OW 2182   2.172   2.595   2.347 -0.2949  0.0606  0.3197
  728SOL    HW1 2183   2.235   2.682   2.337  0.6210  1.6913 -0.7006
  728SOL    HW2 2184   2.088   2.625   2.395  0.4116  2.7442  1.1047
  729SOL     OW 2185   1.920   2.298   1.467  0.1035  0.2755  0.0936
  729SOL    HW1 2186   1.918   2.344   1.374 -0.3716  2.2123 -0.9732
  729SOL    HW2 2187   1.996   2.345   1.516  2.4287 -0.8337 -1.3412
  730SOL     OW 2188   1.711   0.563   2.839 -0.4042  0.0610 -0.6397
  730SOL    HW1 2189   1.645   0.639   2.851  0.7723  0.9927 -1.1468
  730SOL    HW2 2190   1.791   0.601   2.787  1.2955 -0.0081 -0.8491
  731SOL     OW 2191   0.750   0.393   1.308  0.1779  1.0700  0.4122
  731SOL    HW1 2192   0.823   0.459   1.285 -0.7678 -0.7231 -1.4071
  731SOL    HW2 2193   0.796   0.302   1.327 -0.6204 -5.0398  1.5588
  732SOL     OW 2194   1.247   0.174   0.755  0.5369 -0.6128  0.0154
  732SOL    HW1 2195   1.229   0.245   0.829 -0.8962  0.3990  0.6472
  732SOL    HW2 2196   1.325   0.189   0.700 -4.0542  1.3294  0.7778
  733SOL     OW 2197   1.010   1.373   0.773 -0.1448  0.2697  0.0481
  733SOL    HW1 2198   1.038   1.277   0.740  0.6684 -1.8809  0.5706
  733SOL    HW2 2199   0.975   1.371   0.869 -0.5265  3.0024 -0.5205
  734SOL     OW 2200   2.707   2.851   2.691  0.2271 -0.6495 -0.2209
  734SOL    HW1 2201   2.659   2.819   2.606  0.2305 -0.8794 -2.0504
  734SOL    HW2 2202   2.750   2.941   2.670  1.6585  0.9009 -0.1095
  735SOL     OW 2203   0.834   0.133   1.346  0.3757 -0.5198 -0.2183
  735SOL    HW1 2204   0.804   0.095   1.442 -1.6521 -1.2345  3.3118
  735SOL    HW2 2205   0.907   0.078   1.305 -0.8084  2.3200  0.6653
  736SOL     OW 2206   1.577   1.979   2.928 -0.7232  0.2496  0.5829
  736SOL    HW1 2207   1.558   2.070   2.963 -2.2591 -0.0468 -0.4432
  736SOL    HW2 2208   1.538   1.899   2.977  2.1189 -0.5798 -1.1653
  737SOL     OW 2209   0.174   1.880   1.391  0.2316  0.0868 -0.3647
  737SOL    HW1 2210   0.176   1.948   1.316 -0.1339 -2.0249  0.7967
  737SOL    HW2 2211   0.184   1.928   1.481  2.5665 -0.3943 -2.1482
  738SOL     OW 2212   1.799   2.700   2.831 -0.2852  0.3060  0.0160
  738SOL    HW1 2213   1.750   2.657   2.754  1.8863 -1.9352  0.6441
  738SOL    HW2 2214   1.834   2.627   2.894  1.0101  2.5237 -1.0579
  739SOL     OW 2215   0.978   2.056   2.187  0.0288  0.5810  0.9004
  739SOL    HW1 2216   0.999   2.096   2.275 -0.5998  1.7585  0.1131
  739SOL    HW2 2217   0.880   2.060   2.160 -1.8800 -1.1016  0.2913
  740SOL     OW 2218   1.214   2.749   1.307 -0.1858  0.1867 -0.7426
  740SOL    HW1 2219   1.159   2.682   1.255  1.8847  1.4459  0.1419
  740SOL    HW2 2220   1.156   2.813   1.363  1.7577  4.3051 -1.4819
  741SOL     OW 2221   2.736   1.114   0.201 -1.1808  0.5345  0.3775
  741SOL    HW1 2222   2.656   1.055   0.228 -0.6207  1.6780  0.6040
  741SOL    HW2 2223   2.718   1.173   0.118  0.8992  0.1836 -0.5383
  742SOL     OW 2224   0.844   1.554   2.354 -0.2220 -0.2126 -0.1534
  742SOL    HW1 2225   0.928   1.494   2.357 -1.7644 -0.6595  0.0293
  742SOL    HW2 2226   0.879   1.650   2.351 -1.1536  0.1405 -0.0952
  743SOL     OW 2227   0.900   0.811   2.374 -1.0091 -0.0013  0.3811
  743SOL    HW1 2228   0.863   0.860   2.460 -1.3818  0.1279  4.1246
  743SOL    HW2 2229   0.901   0.710   2.386 -0.8405  0.6543 -1.6563
  744SOL     OW 2230   2.146   2.664   1.499  0.0284 -0.0480  0.4558
  744SOL    HW1 2231   2.126   2.593   1.567  0.0555 -0.1855  0.2410
  744SOL    HW2 2232   2.168   2.754   1.543  0.7777  2.5458  0.3598
  745SOL     OW 2233   1.608   1.234   1.297  0.0077  0.3498  0.3207
  745SOL    HW1 2234   1.523   1.270   1.338  1.0353 -1.2656  0.5880
  745SOL    HW2 2235   1.686   1.276   1.352  0.7317 -0.5906  0.0763
  746SOL     OW 2236   2.055   1.001   0.937  0.0180  0.0171 -0.3818
  746SOL    HW1 2237   2.003   1.067   0.881 -1.4625 -2.7438  0.6022
  746SOL    HW2 2238   1.991   0.926   0.969 -1.3440 -1.1560  3.5097
  747SOL     OW 2239   1.999   1.765   0.799 -0.0881 -0.3657  1.0264
  747SOL    HW1 2240   2.093   1.786   0.829 -1.4548  0.8448 -0.9736
  747SOL    HW2 2241   1.956   1.840   0.746 -0.5631 -1.0601 -1.3376
  748SOL     OW 2242   0.535   1.646   0.274 -0.1643  0.0184 -0.3341
  748SOL    HW1 2243   0.460   1.652   0.345  2.4310  1.1987  2.4684
  748SOL    HW2 2244   0.604   1.712   0.280 -1.5239 -0.8489  1.2044
  749SOL     OW 2245   0.076   2.415   2.596 -0.7345  0.3713  0.5428
  749SOL    HW1 2246   0.011   2.338   2.619 -4.8982 -2.1470  0.0192
  749SOL    HW2 2247   0.047   2.504   2.639  0.0182  0.6871 -0.0209
  750SOL     OW 2248   1.872   0.818   1.118  0.1307  0.2605 -0.2869
  750SOL    HW1 2249   1.936   0.742   1.146  2.5899 -2.7693 -0.4788
  750SOL    HW2 2250   1.894   0.899   1.174 -1.6686  1.4135 -0.8572
  751SOL     OW 2251   2.368   0.088   0.295 -0.2823 -0.4460 -0.1914
  751SOL    HW1 2252   2.437   0.077   0.221 -1.1105 -2.2781  1.1966
  751SOL    HW2 2253   2.417   0.117   0.382 -0.3209 -1.4566 -0.3331
  752SOL     OW 2254   2.337   2.374   0.382 -0.1015 -0.2853  0.7725
  752SOL    HW1 2255   2.256   2.375   0.437  0.7166  0.4249 -1.7234
  752SOL    HW2 2256   2.411   2.352   0.452 -0.3237  2.6675  1.2341
  753SOL     OW 2257   1.977   1.530   2.507  0.4468  0.4496  0.7462
  753SOL    HW1 2258   2.051   1.458   2.513 -0.2843  0.2832  1.2686
  753SOL    HW2 2259   2.004   1.605   2.437  0.5283  0.8308 -0.3004
  754SOL     OW 2260   2.390   2.296   1.422 -0.4641 -0.0973 -0.1914
  754SOL    HW1 2261   2.375   2.270   1.518 -0.3684 -4.1109  2.4213
  754SOL    HW2 2262   2.332   2.234   1.366 -2.6913  0.2913  1.3536
  755SOL     OW 2263   2.245   0.790   1.011 -0.2707 -0.6203  0.2886
  755SOL    HW1 2264   2.196   0.882   1.006 -1.0126  1.9979  2.3039
  755SOL    HW2 2265   2.300   0.774   0.924  1.5195 -0.9139 -2.1443
  756SOL     OW 2266   1.013   1.579   2.727 -0.4552  0.1295 -0.2774
  756SOL    HW1 2267   0.924   1.546   2.696  2.1068  1.0226  4.0526
  756SOL    HW2 2268   1.071   1.598   2.646 -1.0532  0.2260 -2.0136
  757SOL     OW 2269   1.702   2.471   1.017  0.0603 -0.1760 -1.1194
  757SOL    HW1 2270   1.711   2.544   0.952 -2.5884  1.7080 -2.9527
  757SOL    HW2 2271   1.643   2.399   0.980  3.0985  0.7100  2.5601
  758SOL     OW 2272   0.865   2.310   1.424  0.1348  0.4024  0.0605
  758SOL    HW1 2273   0.955   2.284   1.469  2.1988  1.0755  1.8896
  758SOL    HW2 2274   0.875   2.356   1.339  0.7960 -0.2705  0.4191
  759SOL     OW 2275   1.978   1.304   1.203 -0.2367 -0.0470  0.0219
  759SOL    HW1 2276   2.036   1.306   1.279 -0.1071  0.6949 -1.5404
  759SOL    HW2 2277   2.022   1.321   1.112  3.0485 -1.0403 -0.8852
  760SOL     OW 2278   2.158   1.001   1.277 -0.3848  0.1228 -0.9536
  760SOL    HW1 2279   2.210   1.043   1.198 -1.3247  0.8436 -2.4163
  760SOL    HW2 2280   2.060   1.022   1.278  3.4977 -2.7227  0.3548
  761SOL     OW 2281   2.131   2.772   0.236 -0.1195 -0.1062 -0.5264
  761SOL    HW1 2282   2.167   2.842   0.302  1.7838 -1.7255  1.1704
  761SOL    HW2 2283   2.206   2.743   0.178  0.0874 -1.1278 -1.4771
  762SOL     OW 2284   2.087   1.553   2.924 -0.0618  0.2713  0.3616
  762SOL    HW1 2285   2.041   1.599   2.848  2.0679 -1.2366 -0.4286
  762SOL    HW2 2286   2.163   1.611   2.961  3.2884 -0.9719  1.4269
  763SOL     OW 2287   0.371   1.440   1.321 -0.1796  0.0114  0.5196
  763SOL    HW1 2288   0.284   1.434   1.270  0.6320 -0.3535 -1.9073
  763SOL    HW2 2289   0.379   1.533   1.360  0.7039 -1.2964  3.5617
  764SOL     OW 2290   2.924   2.565   2.981  0.5035  0.0797 -0.0971
  764SOL    HW1 2291   2.916   2.469   3.022  2.3761 -1.7939  1.6483
  764SOL    HW2 2292   3.001   2.618   3.025 -1.9894 -1.5050  0.9145
  765SOL     OW 2293   0.784   2.954   2.180 -0.1819  0.0648 -0.4033
  765SOL    HW1 2294   0.878   2.967   2.152 -2.6687 -1.0935 -1.2109
  765SOL    HW2 2295   0.719   3.030   2.160 -1.7516 -0.4981 -1.0402
  766SOL     OW 2296   0.052   2.013   2.408  0.4166  0.1687 -0.2010
  766SOL    HW1 2297   0.052   2.051   2.312 -1.6654 -0.4807  0.1393
  766SOL    HW2 2298   0.006   1.923   2.408  0.1312  2.4120 -1.0155
  767SOL     OW 2299   3.060   1.405   1.801 -0.2888 -0.1706 -0.0413
  767SOL    HW1 2300   3.039   1.340   1.878  1.4959  1.5458  0.3724
  767SOL    HW2 2301   2.984   1.473   1.788  1.5363  2.9023 -0.7100
  768SOL     OW 2302   1.009   0.609   2.882 -0.2865  0.2080  0.1885
  768SOL    HW1 2303   1.010   0.635   2.979  2.8425  1.7257 -0.7135
  768SOL    HW2 2304   1.107   0.614   2.852 -1.8017  0.8403  0.7940
  769SOL     OW 2305   2.139   2.231   0.756  0.0071 -0.2153  0.6956
  769SOL    HW1 2306   2.231   2.243   0.800  0.4216 -1.2804  1.7098
  769SOL    HW2 2307   2.125   2.296   0.678 -1.8915 -1.8389 -1.3306
  770SOL     OW 2308   2.741   0.328   0.074  0.1739  0.4410  0.1394
  770SOL    HW1 2309   2.798   0.245   0.052  0.1180 -0.5052  0.1504
  770SOL    HW2 2310   2.726   0.326   0.171  1.9750 -0.7941 -2.0547
  771SOL     OW 2311   1.638   2.147   1.804 -0.1790  0.7023 -0.2974
  771SOL    HW1 2312   1.661   2.187   1.715 -1.8209 -2.0940 -0.9929
  771SOL    HW2 2313   1.583   2.058   1.800 -1.4789 -0.5820  0.3878
  772SOL     OW 2314   0.786   0.256   2.686  0.1092  0.5436  0.4232
  772SOL    HW1 2315   0.701   0.308   2.664  1.0828  0.5241  0.0261
  772SOL    HW2 2316   0.867   0.313   2.666 -2.2575 -2.1793  0.3203
  773SOL     OW 2317   2.882   0.896   1.737  0.0319 -0.1156  0.0717
  773SOL    HW1 2318   2.881   0.913   1.637 -1.6944  1.0666  2.3425
  773SOL    HW2 2319   2.976   0.877   1.770  1.6680  2.7048  0.0757
  774SOL     OW 2320   1.274   1.089   0.399 -0.2053  0.1009 -0.7907
  774SOL    HW1 2321   1.189   1.098   0.342 -0.6877  3.2383 -1.0932
  774SOL    HW2 2322   1.355   1.049   0.348  0.4773 -1.2839  1.5781
  775SOL     OW 2323   2.559   0.101   0.087 -0.2599 -0.1505 -0.4422
  775SOL    HW1 2324   2.597   0.170   0.020  0.0071  1.0049 -3.0478
  775SOL    HW2 2325   2.519   0.024   0.035  0.0299  0.4392 -1.1181
  776SOL     OW 2326   2.439   0.996   2.098  0.1510  0.1021 -0.0021
  776SOL    HW1 2327   2.475   1.033   2.011 -0.9234 -2.3397  0.7252
  776SOL    HW2 2328   2.450   0.894   2.090 -0.1361  2.8492 -0.3448
  777SOL     OW 2329   0.156   1.176   2.546  0.5838 -0.0367  0.6529
  777SOL    HW1 2330   0.142   1.081   2.573 -2.1267  0.8346 -1.2291
  777SOL    HW2 2331   0.073   1.213   2.496  1.4367 -0.5182 -1.9199
  778SOL     OW 2332   0.722   0.397   0.284  0.8095  0.4428 -0.1193
  778SOL    HW1 2333   0.826   0.397   0.280  0.0027 -0.5968  1.3973
  778SOL    HW2 2334   0.677   0.311   0.257 -2.5289 -0.8607  3.2716
  779SOL     OW 2335   0.610   0.478   2.539  0.3668 -0.3990 -0.5615
  779SOL    HW1 2336   0.658   0.555   2.586 -1.6207  2.6001 -2.2768
  779SOL    HW2 2337   0.562   0.514   2.457  1.2087  0.8491  0.6089
  780SOL     OW 2338   1.731   0.873   2.502  0.4423 -0.6288  0.2580
  780SOL    HW1 2339   1.792   0.874   2.421 -0.7960 -1.7096  1.4367
  780SOL    HW2 2340   1.641   0.923   2.485 -0.7360  1.1456  4.5396
  781SOL     OW 2341   0.037   0.930   1.955 -0.1063 -0.4110 -0.1935
  781SOL    HW1 2342   0.131   0.973   1.958  2.4170 -2.2336 -1.5285
  781SOL    HW2 2343   3.040   0.982   2.004 -1.6998  1.0095  1.9530
  782SOL     OW 2344   0.771   1.817   2.736  0.5435 -0.0407  0.5598
  782SOL    HW1 2345   0.733   1.731   2.693 -0.4280  1.1243 -0.6037
  782SOL    HW2 2346   0.708   1.839   2.814 -2.2657 -1.6381  1.8994
  783SOL     OW 2347   0.776   2.559   1.535 -0.1837  0.5959  0.1207
  783SOL    HW1 2348   0.775   2.463   1.495  1.0860 -2.0486  0.2676
  783SOL    HW2 2349   0.808   2.633   1.473  1.4528  0.8496 -0.6100
  784SOL     OW 2350   1.289   0.337   2.809 -0.3253  0.0918  0.0143
  784SOL    HW1 2351   1.380   0.350   2.771 -1.3138  2.7544 -2.0923
  784SOL    HW2 2352   1.300   0.331   2.910 -0.4442 -1.4031 -0.7971
  785SOL     OW 2353   0.974   0.448   2.654  0.4843 -0.1484  0.2015
  785SOL    HW1 2354   0.981   0.517   2.732  0.5989 -1.8304 -0.7808
  785SOL    HW2 2355   1.074   0.421   2.627  3.0376 -2.4948 -0.6874
  786SOL     OW 2356   0.393   1.951   0.278  0.7069  0.3583 -0.2211
  786SOL    HW1 2357   0.469   1.923   0.338  2.4117 -0.4221  2.8924
  786SOL    HW2 2358   0.324   2.009   0.332  1.4371  1.7794  1.9519
  787SOL     OW 2359   1.591   1.141   0.536  0.2904  0.0438  0.0866
  787SOL    HW1 2360   1.618   1.105   0.444  0.3070 -1.7233 -0.9430
  787SOL    HW2 2361   1.490   1.152   0.542  1.4056 -1.9761  2.5175
  788SOL     OW 2362   1.815   1.659   1.504 -0.4150  0.0166  0.1699
  788SOL    HW1 2363   1.803   1.758   1.525  2.2018 -0.0351  1.2554
  788SOL    HW2 2364   1.911   1.630   1.507 -2.3641  1.2834  0.1450
  789SOL     OW 2365   0.099   1.600   2.023 -0.1670  0.1296  0.4268
  789SOL    HW1 2366   0.033   1.527   2.003 -0.2221  2.2428  1.5014
  789SOL    HW2 2367   0.139   1.600   2.114  0.8675  1.9128 -1.7046
  790SOL     OW 2368   0.596   2.890   0.264  0.4381 -0.2465  0.4864
  790SOL    HW1 2369   0.529   2.899   0.187 -0.6855 -4.2347 -0.2472
  790SOL    HW2 2370   0.593   2.806   0.319 -1.8270  0.6135 -0.4104
  791SOL     OW 2371   0.537   0.366   0.021  0.1160  0.3840  0.3613
  791SOL    HW1 2372   0.619   0.425   0.021 -0.8614  0.5660 -0.8076
  791SOL    HW2 2373   0.539   0.310   3.011 -0.4049  1.5339 -1.1742
  792SOL     OW 2374   1.605   0.558   2.186  0.3844 -0.3424 -0.1847
  792SOL    HW1 2375   1.687   0.565   2.252  3.4787 -1.9093  2.1190
  792SOL    HW2 2376   1.574   0.462   2.180 -0.1533  1.4458 -1.4599
  793SOL     OW 2377   0.158   0.649   0.740  0.0792  0.2465 -0.1551
  793SOL    HW1 2378   0.144   0.555   0.712  0.0379 -1.1654  4.1203
  793SOL    HW2 2379   0.205   0.652   0.830 -0.3499  0.4762 -1.6468
  794SOL     OW 2380   0.510   0.330   1.483  0.7524  0.5229  0.2204
  794SOL    HW1 2381   0.499   0.423   1.450 -2.8022 -0.6249  0.2850
  794SOL    HW2 2382   0.535   0.265   1.409 -2.1670 -0.3906 -1.7658
  795SOL     OW 2383   0.087   1.197   0.133 -0.1642 -0.2980 -0.5560
  795SOL    HW1 2384   0.182   1.166   0.152 -3.3194  0.6541  1.8695
  795SOL    HW2 2385   0.071   1.196   0.035  0.7853  0.7994  0.6805
  796SOL     OW 2386   0.070   0.433   0.099 -0.1425 -0.1136  0.1238
  796SOL    HW1 2387   0.134   0.480   0.165  1.3111  0.7388  0.9519
  796SOL    HW2 2388   3.048   0.457   0.115 -0.9321 -2.2790  1.7078
  797SOL     OW 2389   1.410   2.579   3.074 -0.6879  0.0135 -0.4095
  797SOL    HW1 2390   1.388   2.677   3.071 -0.9566  0.2061 -0.3674
  797SOL    HW2 2391   1.347   2.523   3.020  1.2087  1.4287  2.8261
  798SOL     OW 2392   2.809   0.610   0.887  0.2783 -0.4456 -0.1511
  798SOL    HW1 2393   2.754   0.563   0.812 -3.8149 -0.4924 -0.1654
  798SOL    HW2 2394   2.900   0.646   0.854  1.5669 -1.3912  0.5477
  799SOL     OW 2395   2.681   0.797   2.123 -0.0779 -0.0007  0.0471
  799SOL    HW1 2396   2.589   0.765   2.130  0.1036  0.7777  2.1402
  799SOL    HW2 2397   2.747   0.718   2.116  2.7701 -0.6971  2.0488
  800SOL     OW 2398   0.174   2.085   0.413 -0.0303  0.3048  0.5318
  800SOL    HW1 2399   0.150   2.026   0.491 -3.3286  1.9522 -0.7286
  800SOL    HW2 2400   0.102   2.074   0.346 -0.3097  1.0783 -0.9653
  801SOL     OW 2401   1.501   2.050   0.719 -0.5301  0.0692  0.0980
  801SOL    HW1 2402   1.531   2.055   0.622 -2.5795 -2.1644  1.4937
  801SOL    HW2 2403   1.530   1.961   0.758  1.5275  1.7910 -1.2483
  802SOL     OW 2404   1.045   1.838   2.743  0.3251  0.1913 -0.2590
  802SOL    HW1 2405   0.946   1.824   2.760  0.7898 -1.2191  0.4360
  802SOL    HW2 2406   1.092   1.753   2.711  2.8454 -3.6287  1.7976
  803SOL     OW 2407   3.012   1.877   1.556  0.2038 -0.3303 -0.2733
  803SOL    HW1 2408   2.950   1.795   1.564 -0.5879 -0.3580 -0.2848
  803SOL    HW2 2409   0.024   1.869   1.605  0.5537  1.9639 -1.3316
  804SOL     OW 2410   1.174   2.625   1.571 -0.5650 -0.4614 -0.4596
  804SOL    HW1 2411   1.228   2.554   1.624  2.3736 -1.8825  1.0591
  804SOL    HW2 2412   1.197   2.637   1.475 -0.9679 -1.7948  3.1751
  805SOL     OW 2413   2.514   1.910   2.730 -0.4407  0.4522  0.0471
  805SOL    HW1 2414   2.437   1.860   2.689  2.1385  2.5599  3.7523
  805SOL    HW2 2415   2.556   1.848   2.798  0.8278  1.8055  0.2559
  806SOL     OW 2416   2.055   2.975   0.670  0.0057 -0.0454  0.0631
  806SOL    HW1 2417   2.081   2.890   0.720 -1.1287  0.1314 -1.6968
  806SOL    HW2 2418   2.011   3.041   0.736 -0.4329 -0.1038  1.7051
  807SOL     OW 2419   2.972   0.582   2.731 -0.7847  0.1061  0.1064
  807SOL    HW1 2420   3.016   0.637   2.800 -2.1850  0.0183 -0.2416
  807SOL    HW2 2421   2.874   0.575   2.746  0.2221 -1.9645  0.0961
  808SOL     OW 2422   0.463   1.240   0.510 -0.1922 -0.3215 -0.4250
  808SOL    HW1 2423   0.485   1.170   0.439 -1.3100  0.3297 -0.7231
  808SOL    HW2 2424   0.371   1.232   0.550  2.8531 -1.9057  2.3628
  809SOL     OW 2425   2.683   0.475   1.841 -0.2977 -0.3150  0.3257
  809SOL    HW1 2426   2.679   0.564   1.787  0.4712  1.1804 -0.9454
  809SOL    HW2 2427   2.739   0.407   1.793 -1.2606 -0.1953 -1.3761
  810SOL     OW 2428   1.280   0.569   1.164  0.3917 -0.3110 -0.1918
  810SOL    HW1 2429   1.295   0.572   1.064 -0.8979 -1.2628 -0.9643
  810SOL    HW2 2430   1.319   0.484   1.199  0.0895  2.5283 -0.2192
  811SOL     OW 2431   2.487   0.029   1.631 -0.5697 -0.3189 -0.1030
  811SOL    HW1 2432   2.501   3.028   1.696 -1.8889  0.1451  0.6682
  811SOL    HW2 2433   2.422   0.094   1.676  1.2068 -0.0429  1.0675
  812SOL     OW 2434   1.805   2.216   3.041  0.2424  0.0522 -0.2456
  812SOL    HW1 2435   1.717   2.217   0.026 -3.6679  0.5035  2.9263
  812SOL    HW2 2436   1.883   2.267   0.005  1.6060  0.4720  1.6512
  813SOL     OW 2437   1.376   0.661   1.595  0.0823  0.3347  0.3093
  813SOL    HW1 2438   1.342   0.694   1.505  0.5724  2.3080 -0.6601
  813SOL    HW2 2439   1.480   0.648   1.596 -0.1726  3.5719 -0.1072
  814SOL     OW 2440   0.551   0.495   1.155 -0.6468 -0.0555 -0.4097
  814SOL    HW1 2441   0.529   0.595   1.175  2.8788  1.5188 -0.2886
  814SOL    HW2 2442   0.632   0.462   1.211 -3.3175  1.3989 -1.4118
  815SOL     OW 2443   0.492   0.537   0.359 -0.0581  0.0446  0.3151
  815SOL    HW1 2444   0.564   0.474   0.324  0.4259 -0.9590  0.4190
  815SOL    HW2 2445   0.520   0.572   0.454 -0.4553  1.4092 -0.4658
  816SOL     OW 2446   2.189   1.370   2.526  0.9882  0.0534  0.3025
  816SOL    HW1 2447   2.236   1.376   2.617  1.1759 -3.7380 -1.1628
  816SOL    HW2 2448   2.239   1.422   2.455  0.1514 -0.7146  0.1796
  817SOL     OW 2449   1.060   2.854   0.908  0.4335  0.3558 -0.3595
  817SOL    HW1 2450   1.115   2.776   0.875  0.7836  1.2854  1.4080
  817SOL    HW2 2451   1.088   2.931   0.844 -0.2082  1.1021 -0.4836
  818SOL     OW 2452   1.611   0.420   3.038  0.2716 -0.1004  0.1886
  818SOL    HW1 2453   1.677   0.392   0.034 -0.9051 -1.5357  2.4721
  818SOL    HW2 2454   1.658   0.453   2.957  1.1633 -1.4143 -1.1195
  819SOL     OW 2455   1.722   0.256   0.173 -0.0275  0.2129  0.4584
  819SOL    HW1 2456   1.804   0.213   0.209  0.2695  0.7439 -0.8825
  819SOL    HW2 2457   1.681   0.196   0.098 -0.4131 -2.5257 -0.0174
  820SOL     OW 2458   1.914   0.449   0.022 -0.2878 -0.2358  0.4985
  820SOL    HW1 2459   1.902   0.458   0.125 -2.0279 -0.8039 -0.8868
  820SOL    HW2 2460   1.940   0.351   0.003 -0.9058 -0.4304  0.1434
  821SOL     OW 2461   2.626   0.444   0.695 -0.3566 -0.2900 -0.2056
  821SOL    HW1 2462   2.556   0.472   0.629  2.0890  0.8416  0.0883
  821SOL    HW2 2463   2.691   0.374   0.659  0.8903 -1.0968 -1.2904
  822SOL     OW 2464   0.707   2.412   1.816 -0.3873 -0.3090 -0.3650
  822SOL    HW1 2465   0.640   2.486   1.799  2.2820 -0.8497  2.0189
  822SOL    HW2 2466   0.667   2.324   1.852 -2.0753 -0.1461 -1.3579
  823SOL     OW 2467   0.195   1.508   1.663  0.3262  0.1795 -0.8424
  823SOL    HW1 2468   0.115   1.466   1.713 -1.0843  0.1943  0.8867
  823SOL    HW2 2469   0.167   1.538   1.571  2.9245 -1.0772  0.9026
  824SOL     OW 2470   1.605   2.816   2.501 -0.3037 -0.3071 -0.1717
  824SOL    HW1 2471   1.602   2.745   2.424 -0.4415  0.9741 -1.3402
  824SOL    HW2 2472   1.565   2.775   2.589 -1.4777 -0.8760 -1.1105
  825SOL     OW 2473   1.761   0.739   0.469  1.0033  0.2406 -0.0246
  825SOL    HW1 2474   1.793   0.744   0.563 -0.7045 -1.2774  3.1648
  825SOL    HW2 2475   1.788   0.816   0.405  2.3604  0.6883 -1.2581
  826SOL     OW 2476   1.917   0.783   0.108 -0.1453  0.2027  0.1441
  826SOL    HW1 2477   2.017   0.792   0.118  3.1659  0.3278  1.0898
  826SOL    HW2 2478   1.891   0.704   0.167 -0.7153 -0.7572  1.4955
  827SOL     OW 2479   0.409   1.706   2.002  0.4324 -0.7801  0.8560
  827SOL    HW1 2480   0.395   1.651   1.917  3.6636  0.2540 -1.5403
  827SOL    HW2 2481   0.405   1.651   2.085 -0.8125  1.3321  0.5064
  828SOL     OW 2482   2.317   1.234   1.508 -0.1978  0.0141 -0.8750
  828SOL    HW1 2483   2.367   1.248   1.598  0.1756  0.4490  0.9475
  828SOL    HW2 2484   2.274   1.143   1.504 -0.5500  0.0236  2.8628
  829SOL     OW 2485   0.164   1.879   0.091  0.0501 -0.2924 -0.0626
  829SOL    HW1 2486   0.247   1.895   0.150 -0.0719  2.4060 -0.2570
  829SOL    HW2 2487   0.180   1.794   0.041  1.0389  3.5518  1.9816
  830SOL     OW 2488   1.482   0.944   0.731 -0.4781 -1.2632 -0.6607
  830SOL    HW1 2489   1.567   0.919   0.783  1.4090 -1.1291 -1.4335
  830SOL    HW2 2490   1.509   1.018   0.666 -0.9165 -0.2332  0.1350
  831SOL     OW 2491   2.898   1.831   3.008  0.2830 -0.3105 -0.0152
  831SOL    HW1 2492   2.960   1.847   2.925 -0.2616 -0.0386 -1.4021
  831SOL    HW2 2493   2.944   1.763   3.068  1.4165  1.8477 -0.5371
  832SOL     OW 2494   0.986   0.354   0.301 -0.1174  0.1368 -0.2035
  832SOL    HW1 2495   1.064   0.368   0.365  1.9542 -0.7575  1.4122
  832SOL    HW2 2496   1.024   0.342   0.210 -0.7934  0.0392  3.0368
  833SOL     OW 2497   0.499   0.623   1.949 -0.5080 -0.6087  0.0628
  833SOL    HW1 2498   0.569   0.666   1.883  0.6635 -1.4604 -4.3006
  833SOL    HW2 2499   0.533   0.555   2.015 -1.8407  0.9372 -0.0048
  834SOL     OW 2500   0.451   0.410   0.676  0.4639  0.3252  0.4849
  834SOL    HW1 2501   0.520   0.334   0.694 -0.2285 -0.4100 -2.0668
  834SOL    HW2 2502   0.399   0.398   0.590 -0.2113  0.6868 -1.5189
  835SOL     OW 2503   2.363   2.791   1.156 -0.6715 -0.2862 -0.0958
  835SOL    HW1 2504   2.370   2.744   1.242  1.0134 -0.6809 -3.1839
  835SOL    HW2 2505   2.459   2.814   1.116  1.3893  1.0034 -4.1465
  836SOL     OW 2506   0.467   2.107   0.053 -0.0076 -0.0397 -0.6622
  836SOL    HW1 2507   0.502   2.193   0.097  0.7088  1.0941  0.3202
  836SOL    HW2 2508   0.439   2.039   0.122  1.3923 -2.1121  2.9748
  837SOL     OW 2509   1.844   1.306   2.599  0.1689  0.7002 -0.0183
  837SOL    HW1 2510   1.782   1.330   2.674  1.9005  0.4719  0.1175
  837SOL    HW2 2511   1.898   1.385   2.569  0.4826 -1.1459 -0.0961
  838SOL     OW 2512   0.544   1.173   2.019 -1.1099 -0.0294  0.0479
  838SOL    HW1 2513   0.623   1.235   1.994  2.4250  0.1716  0.9697
  838SOL    HW2 2514   0.456   1.225   2.028  0.6628  0.9436 -1.7786
  839SOL     OW 2515   0.263   1.271   0.821  0.3141  0.0008 -0.1106
  839SOL    HW1 2516   0.334   1.280   0.890 -3.3728 -0.7692 -0.3499
  839SOL    HW2 2517   0.210   1.189   0.836  0.3891 -0.1580  0.3332
  840SOL     OW 2518   2.259   0.201   2.006  0.2609  0.0752 -0.2571
  840SOL    HW1 2519   2.229   0.168   2.095 -0.0477 -2.2607 -0.7950
  840SOL    HW2 2520   2.351   0.253   2.015  1.8987 -1.3114 -0.7109
  841SOL     OW 2521   0.894   2.450   0.452 -0.0855  0.5276  0.3277
  841SOL    HW1 2522   0.958   2.523   0.465 -2.4918 -2.3251  2.8922
  841SOL    HW2 2523   0.931   2.359   0.417  2.5428 -1.5840 -1.7569
  842SOL     OW 2524   0.554   0.179   0.717  0.1304 -0.1698  0.2728
  842SOL    HW1 2525   0.576   0.112   0.787 -1.7480  0.2455 -1.8795
  842SOL    HW2 2526   0.622   0.184   0.642 -1.6267  1.1371  1.3978
  843SOL     OW 2527   0.352   1.189   0.227  0.6426  0.1227 -0.1485
  843SOL    HW1 2528   0.449   1.168   0.234 -2.7113  0.8573  0.4740
  843SOL    HW2 2529   0.342   1.290   0.218 -0.3168  1.1079  0.7823
  844SOL     OW 2530   1.246   2.262   0.002  0.0847 -0.3582  0.2098
  844SOL    HW1 2531   1.153   2.229   0.020 -2.0954  1.2083  1.3091
  844SOL    HW2 2532   1.244   2.320   2.989 -2.1493  0.4412 -3.0540
  845SOL     OW 2533   2.302   2.838   2.214 -0.0352  0.2237  0.0524
  845SOL    HW1 2534   2.304   2.800   2.120  3.0097  2.1932 -1.9177
  845SOL    HW2 2535   2.214   2.887   2.235  2.4611  0.0570 -0.1107
  846SOL     OW 2536   1.955   1.999   2.938  0.0335 -0.5920  0.0501
  846SOL    HW1 2537   1.883   2.064   2.968  1.4568  0.8283  1.5678
  846SOL    HW2 2538   1.951   1.985   2.837 -1.8796 -2.1642  2.2198
  847SOL     OW 2539   2.713   0.324   0.340 -0.2803  0.3236 -0.4946
  847SOL    HW1 2540   2.614   0.347   0.343  1.6395  3.9040 -2.6848
  847SOL    HW2 2541   2.743   0.269   0.422  0.4436 -0.0413  0.1183
  848SOL     OW 2542   0.539   0.663   0.615  0.6399 -0.1474  0.3313
  848SOL    HW1 2543   0.521   0.740   0.681  3.5679  3.1692  2.1897
  848SOL    HW2 2544   0.498   0.574   0.643  1.9876 -0.8675 -0.2530
  849SOL     OW 2545   1.461   2.577   1.946 -0.5743  0.0556 -0.3721
  849SOL    HW1 2546   1.563   2.601   1.950  3.1376  2.5420 -0.8989
  849SOL    HW2 2547   1.453   2.477   1.934  0.7719 -0.5197 -0.7886
  850SOL     OW 2548   0.647   1.416   0.396  0.1722 -0.1882 -0.2439
  850SOL    HW1 2549   0.572   1.354   0.441  0.1233 -1.0100 -0.4641
  850SOL    HW2 2550   0.596   1.504   0.376 -0.7492 -0.4788 -0.0290
  851SOL     OW 2551   0.321   1.460   0.192  0.0796 -0.5165 -0.3286
  851SOL    HW1 2552   0.402   1.526   0.209  1.4057  0.2139  1.4116
  851SOL    HW2 2553   0.263   1.450   0.278  2.3183 -1.1922  0.7910
  852SOL     OW 2554   1.336   2.813   1.952 -0.3616 -0.3543 -0.6978
  852SOL    HW1 2555   1.234   2.806   1.955  0.3255  1.0266 -2.8368
  852SOL    HW2 2556   1.379   2.720   1.949 -1.0043  0.8546 -0.2486
  853SOL     OW 2557   2.556   1.554   0.005  0.0690 -0.1359 -0.0313
  853SOL    HW1 2558   2.497   1.477   3.056 -2.2059 -0.9534  2.6632
  853SOL    HW2 2559   2.570   1.555   0.108  0.1025  0.3799  2.3203
  854SOL     OW 2560   1.748   1.258   1.986 -0.3423  0.0675 -0.1706
  854SOL    HW1 2561   1.689   1.346   1.966 -0.7955  1.5491  1.8796
  854SOL    HW2 2562   1.686   1.182   1.959  1.8921  1.1143 -0.1279
  855SOL     OW 2563   0.297   2.464   0.019  0.1297  0.0900 -0.2658
  855SOL    HW1 2564   0.238   2.384   0.009 -1.0626  5.4704  1.0393
  855SOL    HW2 2565   0.365   2.471   3.021  0.9511  2.3676  0.7373
  856SOL     OW 2566   0.338   0.868   1.806  0.7157 -0.1358  0.8183
  856SOL    HW1 2567   0.383   0.823   1.886  1.6555  0.8670  0.3369
  856SOL    HW2 2568   0.296   0.960   1.832 -3.9405  0.1910  0.3493
  857SOL     OW 2569   1.244   0.879   2.197  0.2197 -0.4994 -0.2333
  857SOL    HW1 2570   1.247   0.851   2.295  0.3706 -1.7129 -0.0373
  857SOL    HW2 2571   1.292   0.807   2.146 -0.5077 -0.7708  2.3622
  858SOL     OW 2572   0.342   1.244   2.278 -0.0811  0.0448  0.3613
  858SOL    HW1 2573   0.320   1.146   2.252 -0.0203 -2.4776 -0.6871
  858SOL    HW2 2574   0.329   1.301   2.195 -0.8282 -0.9145  0.4396
  859SOL     OW 2575   2.560   0.165   0.865  0.0303 -0.1056  0.1200
  859SOL    HW1 2576   2.570   0.221   0.948 -0.8086  0.8932 -2.5778
  859SOL    HW2 2577   2.639   0.100   0.850 -1.0054 -1.4502  1.9199
  860SOL     OW 2578   1.963   2.951   2.967 -0.3086 -0.4213 -0.6943
  860SOL    HW1 2579   2.020   2.879   2.918 -0.7178  3.3231  0.2836
  860SOL    HW2 2580   1.869   2.955   2.939  3.5101  2.0580  1.3949
  861SOL     OW 2581   0.745   0.461   0.709  0.1034 -0.6932 -0.0149
  861SOL    HW1 2582   0.775   0.380   0.658  2.8332 -1.5558  0.3513
  861SOL    HW2 2583   0.658   0.497   0.678 -1.4476  1.5620  1.5870
  862SOL     OW 2584   1.209   0.343   2.551  0.4943 -0.1183  0.9872
  862SOL    HW1 2585   1.231   0.341   2.646  1.9179  1.1767 -4.0888
  862SOL    HW2 2586   1.242   0.258   2.501  1.7905 -1.9224  1.2508
  863SOL     OW 2587   2.415   2.196   0.846 -0.2944 -0.3857 -0.0686
  863SOL    HW1 2588   2.483   2.249   0.907  0.9976  0.0597  1.8774
  863SOL    HW2 2589   2.447   2.105   0.812 -1.2439 -1.5468  0.0308
  864SOL     OW 2590   2.633   0.113   1.909 -0.2335 -0.2325 -0.1531
  864SOL    HW1 2591   2.611   0.014   1.914  0.1772  0.8067  3.4405
  864SOL    HW2 2592   2.566   0.173   1.960  1.2609 -0.1195  0.5943
  865SOL     OW 2593   1.185   0.525   1.726 -0.3041 -0.5403 -0.6629
  865SOL    HW1 2594   1.251   0.486   1.795 -0.6238 -1.5080  0.6278
  865SOL    HW2 2595   1.240   0.582   1.661  2.3355  1.5042  0.3120
  866SOL     OW 2596   1.820   2.767   1.321 -0.4975  0.1181  0.1903
  866SOL    HW1 2597   1.911   2.801   1.354 -0.3854  0.7359  1.1407
  866SOL    HW2 2598   1.788   2.842   1.253 -0.9281 -0.0644 -1.3028
  867SOL     OW 2599   2.782   2.406   0.602 -0.2708 -0.1385  0.5970
  867SOL    HW1 2600   2.765   2.484   0.538 -0.7335  0.3250 -0.9501
  867SOL    HW2 2601   2.873   2.362   0.577 -0.6358  2.4630 -0.0429
  868SOL     OW 2602   0.453   2.117   1.645  0.2772 -0.0158 -0.1866
  868SOL    HW1 2603   0.362   2.116   1.601  0.9892 -1.1389 -2.3497
  868SOL    HW2 2604   0.517   2.151   1.574 -0.2241  0.0770  0.1391
  869SOL     OW 2605   2.142   2.300   2.798  0.3618 -0.1583 -0.3059
  869SOL    HW1 2606   2.101   2.264   2.713 -1.9876 -1.0903 -0.7097
  869SOL    HW2 2607   2.203   2.235   2.843  1.7442  0.8587  2.8237
  870SOL     OW 2608   1.628   1.823   0.820 -0.4315  1.0458  0.0475
  870SOL    HW1 2609   1.706   1.867   0.769  0.6816  1.2625 -0.1681
  870SOL    HW2 2610   1.617   1.723   0.800 -2.9260  1.2720 -1.7101
  871SOL     OW 2611   0.191   1.867   1.669  0.4018 -0.2898 -0.1649
  871SOL    HW1 2612   0.291   1.855   1.660  1.6447 -1.9445  3.0525
  871SOL    HW2 2613   0.170   1.892   1.765 -0.6588 -1.6538 -0.9691
  872SOL     OW 2614   0.385   1.401   2.518  0.1075 -0.4652  0.8628
  872SOL    HW1 2615   0.364   1.351   2.434 -0.0443 -2.2657 -0.1675
  872SOL    HW2 2616   0.420   1.334   2.582 -2.7437  0.5748 -1.9481
  873SOL     OW 2617   0.789   2.123   1.692  0.3815 -0.2288 -0.7424
  873SOL    HW1 2618   0.724   2.135   1.773 -0.5473  0.4936 -1.8677
  873SOL    HW2 2619   0.775   2.193   1.624  0.7185 -1.6650  2.5336
  874SOL     OW 2620   1.348   0.791   1.844  0.1059 -0.3747  0.1512
  874SOL    HW1 2621   1.352   0.739   1.757 -0.5144 -0.0810  1.7623
  874SOL    HW2 2622   1.281   0.865   1.828 -0.2992 -0.5396 -0.8644
  875SOL     OW 2623   2.833   2.646   0.885 -0.1325  0.0479  0.2955
  875SOL    HW1 2624   2.806   2.578   0.950  0.7917 -0.4142  0.2968
  875SOL    HW2 2625   2.926   2.628   0.849  0.4235  0.6545 -1.5964
  876SOL     OW 2626   1.092   1.469   0.299  0.1558  0.0999  0.3041
  876SOL    HW1 2627   1.013   1.417   0.263  2.6516  0.9647 -0.9477
  876SOL    HW2 2628   1.057   1.546   0.358 -0.8593  0.5394 -0.8408
  877SOL     OW 2629   2.779   0.019   0.821 -0.2083 -0.1441  0.3032
  877SOL    HW1 2630   2.748   0.021   0.723 -1.5287  0.0060 -0.8304
  877SOL    HW2 2631   2.834   3.015   0.828 -0.9885 -4.0617 -1.2130
  878SOL     OW 2632   2.051   1.480   0.289  0.3259  0.0025  0.3259
  878SOL    HW1 2633   1.969   1.526   0.244  0.5651 -0.5722  0.1591
  878SOL    HW2 2634   2.069   1.529   0.373 -0.5662  1.5086  0.5624
  879SOL     OW 2635   2.298   1.610   0.922 -0.0338  0.3874  0.0394
  879SOL    HW1 2636   2.377   1.637   0.984  1.1664  0.8031  1.4985
  879SOL    HW2 2637   2.321   1.525   0.870 -0.3623  0.0846 -1.4374
  880SOL     OW 2638   0.366   2.473   0.816 -0.3727  0.2267 -0.3768
  880SOL    HW1 2639   0.313   2.389   0.823  1.4768  1.3586 -0.8450
  880SOL    HW2 2640   0.339   2.531   0.737  0.0611 -1.6255 -1.4418
  881SOL     OW 2641   1.012   1.085   0.797 -1.0258 -0.0432  0.0476
  881SOL    HW1 2642   0.957   1.080   0.877  0.2392  0.9843 -2.8095
  881SOL    HW2 2643   1.113   1.098   0.823  0.5419  0.4529  0.6058
  882SOL     OW 2644   2.173   0.961   0.077  0.0129 -0.0782 -0.2912
  882SOL    HW1 2645   2.268   0.974   0.034  2.4024  1.8875 -0.3397
  882SOL    HW2 2646   2.131   1.037   0.131  0.2213 -1.9432 -0.9793
  883SOL     OW 2647   1.388   2.947   1.709  0.0442  0.0283 -0.3301
  883SOL    HW1 2648   1.334   3.034   1.712  0.5780 -1.9682  0.4037
  883SOL    HW2 2649   1.368   2.883   1.784  1.0607  0.1144  0.7817
  884SOL     OW 2650   2.844   0.090   1.282 -0.3616 -0.0579 -0.4473
  884SOL    HW1 2651   2.934   0.134   1.292 -0.4081 -3.0859 -1.4908
  884SOL    HW2 2652   2.853   3.066   1.279  0.7463 -0.5760  0.4192
  885SOL     OW 2653   1.144   0.946   1.769  0.4696  0.1976 -0.0780
  885SOL    HW1 2654   1.059   0.923   1.824  0.3802  0.4521  1.3911
  885SOL    HW2 2655   1.130   0.933   1.668  1.3440 -0.5558  3.1898
  886SOL     OW 2656   1.309   0.793   2.440  0.1153 -0.3664 -0.5656
  886SOL    HW1 2657   1.390   0.854   2.423 -0.1422 -0.3833 -1.4025
  886SOL    HW2 2658   1.333   0.692   2.434 -0.1836  0.4080 -0.4738
  887SOL     OW 2659   1.563   0.688   1.102  0.3428 -0.2488  0.0025
  887SOL    HW1 2660   1.463   0.680   1.077 -3.0037  1.0270 -0.2397
  887SOL    HW2 2661   1.597   0.765   1.042  2.1824 -1.7038 -2.6968
  888SOL     OW 2662   2.207   1.556   1.827  0.5334 -0.5329  0.2861
  888SOL    HW1 2663   2.208   1.459   1.839 -1.3635 -1.8620  0.2537
  888SOL    HW2 2664   2.291   1.597   1.867  0.0646 -0.6048 -0.3334
  889SOL     OW 2665   1.678   2.079   0.508 -0.4454 -0.6191  0.2040
  889SOL    HW1 2666   1.731   2.167   0.502  0.9279  1.3104  0.1361
  889SOL    HW2 2667   1.626   2.051   0.426 -0.6344 -0.6479  0.0244
  890SOL     OW 2668   1.021   2.046   0.582  0.0661 -0.1307  0.4753
  890SOL    HW1 2669   1.003   1.947   0.609  1.2426 -0.7937 -0.6231
  890SOL    HW2 2670   0.977   2.096   0.659 -0.0204 -2.9338  0.3005
  891SOL     OW 2671   2.713   0.569   2.774 -0.4031  0.2830 -0.2224
  891SOL    HW1 2672   2.641   0.508   2.741 -0.0736 -0.7762  1.4871
  891SOL    HW2 2673   2.688   0.664   2.751  1.1132 -0.9631 -0.2063
  892SOL     OW 2674   0.890   0.547   2.414 -0.3804  0.7031 -0.5622
  892SOL    HW1 2675   0.792   0.561   2.436 -1.1011 -0.6238 -0.3526
  892SOL    HW2 2676   0.944   0.543   2.504 -0.3839 -3.4722 -0.3059
  893SOL     OW 2677   1.704   0.197   1.309 -0.0170 -0.1312  0.2422
  893SOL    HW1 2678   1.784   0.146   1.347 -1.2300  1.4461  0.7664
  893SOL    HW2 2679   1.618   0.143   1.317  0.7649 -0.2072 -0.7926
  894SOL     OW 2680   3.059   2.992   0.841  0.2908 -0.0872  1.0313
  894SOL    HW1 2681   0.035   2.998   0.927  0.5140 -1.4719 -0.1183
  894SOL    HW2 2682   0.021   2.917   0.784 -0.8292 -0.7115 -1.7417
  895SOL     OW 2683   2.077   2.747   2.766 -0.1839  0.0410  0.1033
  895SOL    HW1 2684   1.982   2.709   2.774 -0.7208  3.3039 -0.0609
  895SOL    HW2 2685   2.144   2.693   2.820 -0.4959  1.2640 -0.8886
  896SOL     OW 2686   2.027   0.064   1.924  0.5138  0.1639 -0.1886
  896SOL    HW1 2687   2.016   0.022   1.836  3.5047 -1.7245  2.6552
  896SOL    HW2 2688   2.113   0.121   1.930  1.8349 -1.1525 -1.5957
  897SOL     OW 2689   0.224   2.153   1.816 -0.1496  0.4137 -0.6510
  897SOL    HW1 2690   0.207   2.117   1.722  1.3572 -1.9892  0.9285
  897SOL    HW2 2691   0.297   2.089   1.862 -0.7278 -2.0521  2.8000
  898SOL     OW 2692   2.459   1.600   1.925  0.4214 -0.0066  0.2647
  898SOL    HW1 2693   2.474   1.519   1.984 -0.7270 -0.3271 -0.7541
  898SOL    HW2 2694   2.519   1.679   1.944 -1.0775  1.8371 -1.8437
  899SOL     OW 2695   1.490   2.315   0.840  0.2616  0.1146 -0.1322
  899SOL    HW1 2696   1.447   2.324   0.934 -1.2265  0.2509  1.4174
  899SOL    HW2 2697   1.493   2.219   0.806  1.2240 -2.0747 -0.4594
  900SOL     OW 2698   0.674   2.988   2.936 -0.5366 -0.2093  0.1012
  900SOL    HW1 2699   0.614   2.906   2.934  1.2837  1.6314  1.0889
  900SOL    HW2 2700   0.718   3.007   2.848 -1.1712 -0.7856 -0.7923
  901SOL     OW 2701   1.163   1.679   2.504 -0.5922  0.4029 -0.4892
  901SOL    HW1 2702   1.255   1.729   2.500 -1.5242  1.7964  0.1101
  901SOL    HW2 2703   1.097   1.731   2.450  2.4866  1.6390  0.9617
  902SOL     OW 2704   3.069   0.332   2.715  0.0041 -0.2253  0.3504
  902SOL    HW1 2705   3.019   0.423   2.708  2.3834 -0.2768 -1.1954
  902SOL    HW2 2706   3.007   0.254   2.697 -3.7399 -0.8406  0.1817
  903SOL     OW 2707   2.083   0.712   2.392 -0.7100 -1.2772 -0.4270
  903SOL    HW1 2708   2.147   0.722   2.468 -1.4932  0.2459  1.1920
  903SOL    HW2 2709   2.115   0.636   2.335 -1.1087  0.1979 -0.0593
  904SOL     OW 2710   1.427   0.531   2.454 -0.3660  0.0517  0.3219
  904SOL    HW1 2711   1.485   0.477   2.390  0.1135  1.1401  1.9788
  904SOL    HW2 2712   1.356   0.469   2.494 -0.6383  2.6840 -0.9093
  905SOL     OW 2713   2.090   2.434   1.657  0.1160 -0.1592 -0.4397
  905SOL    HW1 2714   2.048   2.451   1.750 -2.8691 -1.6953  0.0182
  905SOL    HW2 2715   2.179   2.385   1.661 -1.4508  2.6942  0.0928
  906SOL     OW 2716   1.795   2.004   0.244 -0.0688  0.1532  0.2520
  906SOL    HW1 2717   1.876   2.043   0.295  2.5325 -3.9634 -1.3523
  906SOL    HW2 2718   1.742   2.084   0.210 -1.8083  3.5614 -0.5767
  907SOL     OW 2719   1.374   3.069   1.049  0.4500  0.7268 -0.7683
  907SOL    HW1 2720   1.279   0.022   1.043  2.6129  2.0276 -1.8842
  907SOL    HW2 2721   1.385   2.965   1.042 -1.0944 -0.4505 -1.0169
  908SOL     OW 2722   1.645   2.283   2.242 -0.4222  0.6184  0.2384
  908SOL    HW1 2723   1.703   2.365   2.241 -1.7964  0.7859 -0.8273
  908SOL    HW2 2724   1.547   2.316   2.226 -1.5528  0.5990  0.8132
  909SOL     OW 2725   1.992   0.397   2.160 -0.5291 -0.0154 -0.1939
  909SOL    HW1 2726   2.080   0.386   2.219  4.8587  0.2985  1.7371
  909SOL    HW2 2727   1.923   0.324   2.171  0.7141  2.0246  1.7568
  910SOL     OW 2728   0.937   0.882   3.047 -0.4826  0.0360  0.1434
  910SOL    HW1 2729   0.943   0.817   0.049  0.7646  1.6296  0.0794
  910SOL    HW2 2730   1.029   0.899   3.008 -3.5044 -2.3298  0.5339
  911SOL     OW 2731   2.988   1.018   0.228 -0.3352 -0.2878  0.5822
  911SOL    HW1 2732   3.053   1.084   0.189 -0.8614 -1.4896  4.4942
  911SOL    HW2 2733   2.892   1.052   0.207  1.3509 -2.1845  0.5186
  912SOL     OW 2734   0.349   2.310   0.461  0.2059 -0.4219  0.2628
  912SOL    HW1 2735   0.298   2.226   0.439  3.7676 -2.6985 -1.6254
  912SOL    HW2 2736   0.347   2.324   0.560  0.0635 -1.3864  2.0029
  913SOL     OW 2737   2.839   2.186   2.232 -0.0591  0.2050 -0.0920
  913SOL    HW1 2738   2.838   2.148   2.326  0.5442 -0.5272  0.1328
  913SOL    HW2 2739   2.900   2.124   2.181  0.1817  2.4498  2.7538
  914SOL     OW 2740   1.226   1.994   1.538  0.1522  0.1635 -0.0748
  914SOL    HW1 2741   1.260   2.046   1.456 -0.6713  3.3147 -2.3507
  914SOL    HW2 2742   1.182   1.907   1.498 -3.5197 -2.7156 -0.2546
  915SOL     OW 2743   0.651   2.807   1.943 -0.2791 -0.1168  0.2071
  915SOL    HW1 2744   0.738   2.808   1.996 -0.3767  2.3615  1.8256
  915SOL    HW2 2745   0.570   2.784   2.007 -2.0897 -2.0401  0.7900
  916SOL     OW 2746   0.866   0.680   1.384 -0.2265 -0.0016  0.2570
  916SOL    HW1 2747   0.929   0.604   1.356  1.2273 -2.2704  0.0302
  916SOL    HW2 2748   0.846   0.663   1.486  0.9620 -2.2400  0.1827
  917SOL     OW 2749   2.589   0.764   0.436  0.1490  0.1733  0.9407
  917SOL    HW1 2750   2.684   0.743   0.406  0.7125  0.1272  1.5225
  917SOL    HW2 2751   2.555   0.684   0.494 -1.8999 -4.1698 -0.0127
  918SOL     OW 2752   1.725   2.374   2.803  0.4953  0.7341  0.5211
  918SOL    HW1 2753   1.795   2.409   2.741  0.8912  0.5046  0.3710
  918SOL    HW2 2754   1.753   2.337   2.894 -4.0974 -0.3223 -0.5762
  919SOL     OW 2755   1.520   2.491   1.489  0.1217 -0.0769 -0.3071
  919SOL    HW1 2756   1.495   2.475   1.391 -1.3406  0.3161 -0.1054
  919SOL    HW2 2757   1.535   2.586   1.517  1.4374 -1.8710  1.2542
  920SOL     OW 2758   0.787   0.686   2.690 -0.6072  0.3821 -0.5211
  920SOL    HW1 2759   0.871   0.692   2.746  1.4377 -1.7125 -0.4747
  920SOL    HW2 2760   0.712   0.740   2.730 -0.1563  0.1446  2.6763
  921SOL     OW 2761   2.948   0.788   2.944 -0.1182 -0.3132 -0.4436
  921SOL    HW1 2762   2.848   0.799   2.956  0.8015 -1.1776 -0.2908
  921SOL    HW2 2763   3.000   0.815   3.030  1.3008 -0.8052  0.1824
  922SOL     OW 2764   0.262   1.872   1.118  0.1027  0.8180 -0.2549
  922SOL    HW1 2765   0.294   1.779   1.154  1.3217  0.0425  0.6294
  922SOL    HW2 2766   0.331   1.911   1.053  1.3206  1.1359 -0.8192
  923SOL     OW 2767   0.646   1.297   1.723 -0.6497 -0.2153  0.2335
  923SOL    HW1 2768   0.688   1.352   1.798  1.2212  1.8725 -0.8826
  923SOL    HW2 2769   0.541   1.296   1.717  1.2254  1.3069 -1.7966
  924SOL     OW 2770   1.510   2.716   2.727  0.3794  0.2646  0.1536
  924SOL    HW1 2771   1.504   2.615   2.715 -0.6494  0.7073 -3.3717
  924SOL    HW2 2772   1.417   2.759   2.735  1.0106 -2.1167 -0.9505
  925SOL     OW 2773   2.753   1.331   1.015 -0.0467  0.7240  0.3263
  925SOL    HW1 2774   2.672   1.299   0.959 -1.1568  0.3912  1.4635
  925SOL    HW2 2775   2.737   1.309   1.111  4.0964 -0.3189 -1.8364
  926SOL     OW 2776   2.047   0.529   1.473  0.2696  0.7576  0.0079
  926SOL    HW1 2777   2.134   0.492   1.514  0.6156 -2.1784 -2.6748
  926SOL    HW2 2778   2.062   0.574   1.383 -0.8567 -2.4190 -1.5203
  927SOL     OW 2779   1.951   0.120   1.399 -0.4768 -0.1007 -0.3818
  927SOL    HW1 2780   2.018   0.159   1.333  0.2295 -1.2942  0.8802
  927SOL    HW2 2781   1.955   0.017   1.386  0.9515 -0.4197 -1.1561
  928SOL     OW 2782   0.257   0.997   2.213 -0.2393  0.2192  0.1290
  928SOL    HW1 2783   0.180   0.945   2.258 -0.7040  0.5896  1.6092
  928SOL    HW2 2784   0.328   0.936   2.173 -4.0336  3.0175  2.0243
  929SOL     OW 2785   2.401   0.916   1.380 -0.6505 -0.1530  0.3319
  929SOL    HW1 2786   2.308   0.950   1.362  3.3482 -0.5713  0.4014
  929SOL    HW2 2787   2.442   0.872   1.297  1.5821 -0.0322  1.1718
  930SOL     OW 2788   2.953   2.510   2.057  0.5838 -0.4591 -0.4224
  930SOL    HW1 2789   2.948   2.589   2.118  2.1706  1.6284 -1.3473
  930SOL    HW2 2790   3.026   2.447   2.086 -1.6636  0.3956 -0.6126
  931SOL     OW 2791   1.671   0.888   0.946 -0.0354 -0.1105  0.1199
  931SOL    HW1 2792   1.738   0.843   1.010 -1.5045  0.6288 -1.2268
  931SOL    HW2 2793   1.667   0.988   0.965  3.0493 -2.3824 -1.3363
  932SOL     OW 2794   0.235   1.125   1.864 -0.0771  0.3562  0.1054
  932SOL    HW1 2795   0.274   1.208   1.908 -1.0076  0.5459  0.1539
  932SOL    HW2 2796   0.155   1.143   1.804  0.9413 -0.1470  0.6727
  933SOL     OW 2797   2.422   1.816   1.609 -0.2590  0.0495 -0.2661
  933SOL    HW1 2798   2.488   1.876   1.563 -1.4040 -0.3982  2.9046
  933SOL    HW2 2799   2.334   1.817   1.561 -2.5324 -0.9727  1.7443
  934SOL     OW 2800   0.470   1.845   1.678 -0.0962 -0.0966  0.0875
  934SOL    HW1 2801   0.534   1.808   1.749 -1.2389  1.3774 -1.0389
  934SOL    HW2 2802   0.477   1.945   1.659 -1.8990  0.5382  0.6993
  935SOL     OW 2803   2.678   1.234   1.281  0.4778  0.4080 -0.2329
  935SOL    HW1 2804   2.580   1.230   1.262 -3.1176  0.4414  1.4807
  935SOL    HW2 2805   2.698   1.299   1.355 -0.6331 -0.1894 -1.2060
  936SOL     OW 2806   2.718   1.394   1.503  0.5951  0.3617  0.1064
  936SOL    HW1 2807   2.741   1.339   1.584  1.5458  0.0779  1.9042
  936SOL    HW2 2808   2.621   1.432   1.513  1.5451 -1.3123  1.0507
  937SOL     OW 2809   1.869   0.404   1.271 -0.0942  0.1353 -0.5472
  937SOL    HW1 2810   1.930   0.414   1.356 -0.1589 -1.0712  2.2099
  937SOL    HW2 2811   1.821   0.318   1.286  0.2911  0.5827 -1.3361
  938SOL     OW 2812   0.347   2.928   0.100 -0.3130 -0.2995 -0.1228
  938SOL    HW1 2813   0.277   2.918   0.174 -0.6360 -0.5543 -0.2643
  938SOL    HW2 2814   0.305   2.904   0.011  2.2461  0.5687 -1.2773
  939SOL     OW 2815   2.878   2.112   2.478  0.0224  0.0155 -0.1149
  939SOL    HW1 2816   2.968   2.075   2.468 -2.1176 -1.7944  0.6150
  939SOL    HW2 2817   2.815   2.045   2.522  0.5629  0.9109 -1.2984
  940SOL     OW 2818   1.389   2.061   0.450 -0.0022 -0.0519  0.3361
  940SOL    HW1 2819   1.413   2.120   0.367  2.9911 -0.3146 -0.0774
  940SOL    HW2 2820   1.340   1.979   0.420  0.9387  1.5305 -0.4336
  941SOL     OW 2821   2.223   2.594   2.956  0.0354  0.0137 -0.8674
  941SOL    HW1 2822   2.183   2.524   3.016  0.5491  0.2204  1.6224
  941SOL    HW2 2823   2.284   2.658   3.011  0.1069  0.1746  0.9115
  942SOL     OW 2824   1.919   2.401   1.220 -0.0213  0.1892  0.5154
  942SOL    HW1 2825   1.837   2.445   1.173  0.1681 -0.1672  2.0901
  942SOL    HW2 2826   1.997   2.465   1.230  1.9283 -3.4202  0.6115
  943SOL     OW 2827   2.400   0.902   1.780 -0.0722  0.2921  0.0077
  943SOL    HW1 2828   2.492   0.903   1.739  2.2096 -1.6919  0.1357
  943SOL    HW2 2829   2.365   0.809   1.778 -2.2953  2.0912 -0.2074
  944SOL     OW 2830   1.139   0.918   2.610 -0.1395 -0.4744  0.7589
  944SOL    HW1 2831   1.201   0.851   2.568  0.7610 -1.2800 -3.8578
  944SOL    HW2 2832   1.050   0.931   2.558  2.6879  1.4704 -0.2805
  945SOL     OW 2833   2.627   2.238   1.240  0.6554  0.2317  0.1933
  945SOL    HW1 2834   2.622   2.136   1.239  0.5132 -0.0333  2.6208
  945SOL    HW2 2835   2.551   2.277   1.293 -0.2039  3.2115 -1.7590
  946SOL     OW 2836   0.479   0.813   0.268 -0.2171  0.7436 -0.3379
  946SOL    HW1 2837   0.399   0.869   0.295  2.4653 -0.7509 -0.9181
  946SOL    HW2 2838   0.469   0.715   0.292  2.1846 -0.1484  0.9125
  947SOL     OW 2839   2.224   2.930   1.566  0.3157  0.4076  0.3716
  947SOL    HW1 2840   2.143   2.958   1.622 -0.4531 -2.0318  0.8402
  947SOL    HW2 2841   2.312   2.972   1.593 -0.1579 -0.3976 -1.0901
  948SOL     OW 2842   0.189   1.736   0.766  0.0955  0.2145  0.7957
  948SOL    HW1 2843   0.233   1.748   0.857 -1.8054  0.3154 -0.9353
  948SOL    HW2 2844   0.211   1.642   0.740 -0.4326  0.4567  0.6702
  949SOL     OW 2845   1.335   1.167   1.645  0.1749 -0.1072 -0.0951
  949SOL    HW1 2846   1.381   1.074   1.638  0.7892 -1.0999  1.4008
  949SOL    HW2 2847   1.255   1.169   1.706 -0.7727 -1.3398 -1.0685
  950SOL     OW 2848   0.341   1.057   1.112  0.9536 -0.1386  0.1309
  950SOL    HW1 2849   0.437   1.021   1.127  0.9754  1.6154 -0.5381
  950SOL    HW2 2850   0.280   1.034   1.191 -1.0731  0.0395 -0.6196
  951SOL     OW 2851   0.546   2.168   2.312  0.3324  0.4028 -0.6896
  951SOL    HW1 2852   0.482   2.088   2.290  0.6021 -1.3890 -1.7427
  951SOL    HW2 2853   0.536   2.196   2.406 -0.8892 -1.3637 -2.0478
  952SOL     OW 2854   1.518   1.333   0.189  0.3598  0.5618  0.6121
  952SOL    HW1 2855   1.473   1.393   0.257  2.3960  0.2428 -1.9675
  952SOL    HW2 2856   1.518   1.379   0.095 -1.3474  0.2309  0.4752
  953SOL     OW 2857   1.107   0.130   2.895 -0.0248 -0.6999 -0.2708
  953SOL    HW1 2858   1.009   0.154   2.903  0.9960 -0.5723 -0.7983
  953SOL    HW2 2859   1.143   0.175   2.813  1.3618 -0.6733  1.1667
  954SOL     OW 2860   2.054   1.158   0.236  0.1071 -0.1410  0.0604
  954SOL    HW1 2861   1.979   1.087   0.244  1.6645 -0.7828  2.2732
  954SOL    HW2 2862   2.014   1.248   0.266 -0.4436  0.6872  2.0059
  955SOL     OW 2863   2.888   2.903   0.171  0.7667 -0.1654 -0.3210
  955SOL    HW1 2864   2.847   2.901   0.077 -0.3580  0.8989 -0.4117
  955SOL    HW2 2865   2.920   2.813   0.205  0.5177  1.0162 -1.2556
  956SOL     OW 2866   1.278   0.761   1.372  0.3324  0.4831 -0.0943
  956SOL    HW1 2867   1.332   0.847   1.347  0.6020  1.0798 -1.5315
  956SOL    HW2 2868   1.277   0.683   1.304  0.2556 -2.9503 -0.4442
  957SOL     OW 2869   1.064   1.326   1.209 -0.0627  0.3565  0.8157
  957SOL    HW1 2870   1.068   1.246   1.269 -1.0799  1.1951 -2.9618
  957SOL    HW2 2871   0.997   1.305   1.136 -0.7652  0.6418 -1.1272
  958SOL     OW 2872   0.556   1.844   0.765  0.5184  0.0131 -0.1055
  958SOL    HW1 2873   0.537   1.842   0.864  1.8973  0.9961 -1.5803
  958SOL    HW2 2874   0.559   1.937   0.725 -1.3692 -1.2179  0.1696
  959SOL     OW 2875   1.426   1.316   0.975 -0.6347 -0.1647 -0.4000
  959SOL    HW1 2876   1.487   1.386   0.935 -1.6014 -1.3645 -1.6556
  959SOL    HW2 2877   1.366   1.360   1.040 -1.1794 -2.4405  1.4676
  960SOL     OW 2878   0.041   1.229   2.955  0.5408  0.2805 -0.0686
  960SOL    HW1 2879   0.081   1.297   2.893  0.3132 -2.7560  3.1505
  960SOL    HW2 2880   3.059   1.160   2.908 -0.7390  0.9399 -0.5975
  961SOL     OW 2881   0.670   1.341   0.894  0.1910  0.2040  0.0523
  961SOL    HW1 2882   0.587   1.312   0.939 -1.6990  0.8770  0.5394
  961SOL    HW2 2883   0.653   1.421   0.832 -0.1702  2.2734 -1.5917
  962SOL     OW 2884   0.822   0.994   0.613 -0.2511  0.4770  0.1429
  962SOL    HW1 2885   0.897   1.005   0.681 -2.9371 -0.5572  1.9073
  962SOL    HW2 2886   0.743   1.053   0.640 -1.1268 -2.6180 -2.0361
  963SOL     OW 2887   1.414   1.795   2.494 -0.1597  0.7347 -0.0351
  963SOL    HW1 2888   1.484   1.867   2.465 -1.0171  0.1873 -0.9835
  963SOL    HW2 2889   1.457   1.720   2.548  3.7842  1.6971  0.3427
  964SOL     OW 2890   0.085   2.654   0.018 -0.0011  0.0313 -0.2063
  964SOL    HW1 2891   0.159   2.592   0.041 -3.0348 -2.1028 -0.6244
  964SOL    HW2 2892   0.121   2.745   3.062  0.5550  2.8446 -1.3994
  965SOL     OW 2893   0.713   2.543   0.271  0.4614 -0.0986 -0.0794
  965SOL    HW1 2894   0.664   2.611   0.324 -0.7511  0.1849 -1.0481
  965SOL    HW2 2895   0.793   2.504   0.327  3.8613  0.4749  0.7383
  966SOL     OW 2896   3.017   1.532   2.827  0.2463  0.3287 -0.2965
  966SOL    HW1 2897   0.033   1.483   2.820 -0.8451  0.4088  0.4444
  966SOL    HW2 2898   3.014   1.568   2.926  0.5964  3.4963  1.5860
  967SOL     OW 2899   2.233   0.083   2.823 -1.1090 -0.3140  0.2019
  967SOL    HW1 2900   2.155   0.073   2.887 -0.1551  0.3417 -1.4903
  967SOL    HW2 2901   2.259   0.181   2.801  0.7776  0.0285 -0.1096
  968SOL     OW 2902   2.192   2.943   0.432 -0.1877  0.4313  0.2978
  968SOL    HW1 2903   2.128   2.941   0.510  3.7525 -1.1017  2.0425
  968SOL    HW2 2904   2.229   3.036   0.417 -0.9137  0.8429  1.1254
  969SOL     OW 2905   0.453   1.583   2.237  0.7081 -0.2603  0.2763
  969SOL    HW1 2906   0.461   1.654   2.305 -1.6785 -0.7436 -1.2160
  969SOL    HW2 2907   0.545   1.534   2.222  0.9671  0.2858 -1.7932
  970SOL     OW 2908   1.165   1.656   0.849  0.0669  0.5874  0.1121
  970SOL    HW1 2909   1.244   1.688   0.799 -1.0116 -2.8511  3.6565
  970SOL    HW2 2910   1.148   1.560   0.825 -1.3561  2.6170  1.6946
  971SOL     OW 2911   2.496   0.029   1.243 -0.0482 -0.4246 -0.1053
  971SOL    HW1 2912   2.531   3.028   1.295  2.5192  1.6825 -3.6581
  971SOL    HW2 2913   2.399   0.027   1.208 -0.6295 -0.9270  0.4372
  972SOL     OW 2914   0.158   3.036   1.422  0.1355  0.5126  0.8195
  972SOL    HW1 2915   0.107   3.051   1.510 -2.6584 -0.1538  1.6530
  972SOL    HW2 2916   0.242   0.013   1.422 -1.9390  2.0367  0.7841
  973SOL     OW 2917   0.451   0.203   2.636 -0.3751  0.0434  0.4278
  973SOL    HW1 2918   0.359   0.184   2.676  1.4438  1.3772  1.3803
  973SOL    HW2 2919   0.458   0.297   2.605 -0.4393  3.2791  2.2294
  974SOL     OW 2920   2.198   1.297   1.890 -0.0368  0.2214 -0.1092
  974SOL    HW1 2921   2.121   1.257   1.836  1.8301 -1.1094  0.3774
  974SOL    HW2 2922   2.214   1.241   1.976 -0.5804 -1.0415  1.6283
  975SOL     OW 2923   0.406   0.099   1.346  0.0188  0.4434 -0.3140
  975SOL    HW1 2924   0.492   0.046   1.347  1.1520 -0.1235  0.7905
  975SOL    HW2 2925   0.412   0.162   1.264  0.5682  2.8505  2.0065
  976SOL     OW 2926   0.939   2.211   2.423 -0.0889 -0.6522 -0.0616
  976SOL    HW1 2927   0.879   2.291   2.420  0.8930 -1.1004 -1.1574
  976SOL    HW2 2928   0.886   2.129   2.448 -0.4444  3.1412 -2.7300
  977SOL     OW 2929   0.818   2.898   0.698  0.2146 -0.0678  0.7088
  977SOL    HW1 2930   0.892   2.938   0.637 -1.7521  2.3650  0.2182
  977SOL    HW2 2931   0.821   2.943   0.790 -0.3727  1.7150  0.9156
  978SOL     OW 2932   0.018   1.323   2.093  0.1831  0.5951 -0.7015
  978SOL    HW1 2933   3.062   1.227   2.097  2.9109  2.4718  0.4699
  978SOL    HW2 2934   3.058   1.375   2.172  1.8594 -0.7292 -0.0215
  979SOL     OW 2935   1.796   2.753   1.734  0.8336 -0.2925 -0.5602
  979SOL    HW1 2936   1.725   2.749   1.662 -1.7155 -1.7715 -1.0248
  979SOL    HW2 2937   1.832   2.656   1.750 -1.1304  0.5457  1.4814
  980SOL     OW 2938   1.363   1.662   2.256 -0.1312  0.1534 -0.1807
  980SOL    HW1 2939   1.320   1.574   2.279  1.7353  4.1267 -0.3820
  980SOL    HW2 2940   1.376   1.713   2.342  1.0711  0.0952 -3.5227
  981SOL     OW 2941   2.393   0.702   1.558  0.7039  0.1669 -0.3512
  981SOL    HW1 2942   2.482   0.679   1.599 -1.6582  0.9664  0.6092
  981SOL    HW2 2943   2.399   0.779   1.491 -1.1168 -2.4285  1.6388
  982SOL     OW 2944   0.197   0.137   2.717 -0.4260  1.0972 -0.3773
  982SOL    HW1 2945   0.160   0.063   2.777  4.1267  2.1748  1.2516
  982SOL    HW2 2946   0.146   0.220   2.734 -0.4641 -0.3774 -1.8563
  983SOL     OW 2947   2.427   0.585   2.386  0.2627 -0.6942  0.2110
  983SOL    HW1 2948   2.383   0.625   2.469  1.8001  3.6053  1.8624
  983SOL    HW2 2949   2.521   0.561   2.407 -1.1402 -0.7846  0.4805
  984SOL     OW 2950   1.056   2.968   2.155  0.2797  0.0680  0.3988
  984SOL    HW1 2951   1.086   2.879   2.199 -2.7900 -0.8967 -0.4350
  984SOL    HW2 2952   1.066   3.043   2.222 -0.1423 -1.8034 -1.8241
  985SOL     OW 2953   1.891   1.670   1.863  0.1398 -0.1860 -0.2891
  985SOL    HW1 2954   1.803   1.721   1.858 -1.2643  1.1243 -2.2909
  985SOL    HW2 2955   1.885   1.579   1.812 -0.4639  0.2548  0.1206
  986SOL     OW 2956   2.674   0.587   1.228 -0.1113  0.4565  0.4756
  986SOL    HW1 2957   2.736   0.577   1.148  0.1468 -0.9880  0.8529
  986SOL    HW2 2958   2.594   0.648   1.202 -1.1727 -2.5080  1.9958
  987SOL     OW 2959   2.804   0.985   1.246  0.2773  0.1731 -0.2803
  987SOL    HW1 2960   2.746   1.065   1.252  0.1400 -0.8824 -0.5057
  987SOL    HW2 2961   2.774   0.928   1.167  1.1693 -2.4142  1.4176
  988SOL     OW 2962   3.073   1.089   2.223  0.4759 -0.1868  0.1915
  988SOL    HW1 2963   3.023   1.120   2.311 -2.2094 -1.4251  2.6390
  988SOL    HW2 2964   0.098   1.083   2.236 -0.9208  0.8393  1.6574
  989SOL     OW 2965   1.631   1.772   0.239 -0.7753  0.1164 -0.1706
  989SOL    HW1 2966   1.691   1.857   0.234 -1.0073 -2.8184  2.2647
  989SOL    HW2 2967   1.538   1.792   0.194 -1.1072  0.6314  0.1328
  990SOL     OW 2968   0.835   0.497   2.056 -0.0243 -0.5349 -0.0660
  990SOL    HW1 2969   0.895   0.534   2.128  0.2364  0.5649 -0.6224
  990SOL    HW2 2970   0.876   0.533   1.967  0.0067 -0.9133  0.9484
  991SOL     OW 2971   1.338   1.199   0.617  0.2491 -0.0141  0.0114
  991SOL    HW1 2972   1.311   1.150   0.527 -1.6882 -1.7775 -1.1099
  991SOL    HW2 2973   1.287   1.157   0.695  2.5121  1.7139  0.2414
  992SOL     OW 2974   2.145   1.232   0.696 -0.0611 -0.2766  0.3879
  992SOL    HW1 2975   2.207   1.182   0.636 -0.0836 -2.0830  0.8608
  992SOL    HW2 2976   2.044   1.210   0.674  1.6150  0.1202 -0.1331
  993SOL     OW 2977   3.046   0.767   0.887 -0.8931  0.0650  0.4034
  993SOL    HW1 2978   0.025   0.813   0.958 -0.9928 -2.2905  1.2004
  993SOL    HW2 2979   0.035   0.720   0.826  1.4844  1.5705  1.9920
  994SOL     OW 2980   0.264   2.061   2.575 -0.0182  0.3320  0.1386
  994SOL    HW1 2981   0.186   2.030   2.517  2.4528 -1.5238 -1.5512
  994SOL    HW2 2982   0.243   2.053   2.676  0.2400  2.7927  0.4684
  995SOL     OW 2983   1.941   1.067   2.598  0.1834  0.3373 -0.4780
  995SOL    HW1 2984   1.865   0.998   2.582  0.2681  0.1298  1.9473
  995SOL    HW2 2985   1.907   1.162   2.586  2.3389 -0.1834 -0.1663
  996SOL     OW 2986   2.715   1.136   0.503  0.0319 -0.4732 -0.4862
  996SOL    HW1 2987   2.675   1.109   0.412 -0.8628  3.7720 -2.0907
  996SOL    HW2 2988   2.797   1.080   0.514  0.1034 -0.6979  0.7163
  997SOL     OW 2989   1.991   1.175   1.694 -0.4554  0.1736  0.7648
  997SOL    HW1 2990   2.051   1.097   1.714 -1.5805 -1.2314 -1.4453
  997SOL    HW2 2991   1.945   1.143   1.610  1.2379 -2.5007 -1.3384
  998SOL     OW 2992   2.507   1.892   0.283  0.1555 -0.3382  1.2014
  998SOL    HW1 2993   2.425   1.894   0.217 -2.0735 -0.5240 -1.9063
  998SOL    HW2 2994   2.545   1.797   0.293  0.4425 -0.5141  1.9046
  999SOL     OW 2995   2.908   2.311   0.035 -0.1088 -0.4977  0.3317
  999SOL    HW1 2996   2.886   2.218   3.074 -2.9267 -3.1075  0.5249
  999SOL    HW2 2997   2.843   2.334   0.106  4.1708 -0.3329  0.4635
 1000SOL     OW 2998   1.004   1.003   2.167  0.0972  0.0104 -0.3285
 1000SOL    HW1 2999   0.937   0.979   2.245 -3.6727 -1.6253  0.8049
 1000SOL    HW2 3000   1.091   0.950   2.180 -0.3238 -2.6593  0.3868
   3.07618   3.07618   3.07618
