1000 SPC/Fw water molecules t= 281.00000 step= 281000
 3000
    1SOL     OW    1   2.651   2.814   0.743 -0.1009  0.0172 -1.0324
    1SOL    HW1    2   2.724   2.882   0.761  0.2569 -0.8895 -0.1631
    1SOL    HW2    3   2.662   2.774   0.651 -1.9344 -0.1268  0.8197
    2SOL     OW    4   2.244   1.870   0.944  0.0089  1.0813  0.4497
    2SOL    HW1    5   2.341   1.848   0.928 -3.1159  0.7063 -3.9007
    2SOL    HW2    6   2.210   1.862   1.037 -0.2218  0.5422 -2.7919
    3SOL     OW    7   1.028   2.633   2.987  0.2340 -0.9145  0.7255
    3SOL    HW1    8   0.946   2.621   3.046  0.3988  0.6973  1.5095
    3SOL    HW2    9   1.050   2.546   2.933  1.1754 -0.9520  2.6748
    4SOL     OW   10   1.877   1.953   1.234  1.0578 -0.2421 -0.0104
    4SOL    HW1   11   1.829   2.007   1.305 -1.6815  1.5780 -1.5207
    4SOL    HW2   12   1.977   1.970   1.239  1.1984  2.0519  2.6992
    5SOL     OW   13   1.415   0.932   1.466 -0.1360 -0.1960 -0.2559
    5SOL    HW1   14   1.380   0.910   1.377 -2.0127  0.6697  2.9921
    5SOL    HW2   15   1.463   1.024   1.454  0.3459  3.1708  0.0145
    6SOL     OW   16   2.384   2.967   0.146 -0.3682 -0.1331  0.1252
    6SOL    HW1   17   2.320   2.911   0.087 -1.1850 -1.5841 -1.0741
    6SOL    HW2   18   2.343   2.971   0.241 -0.1583 -0.9182 -0.3051
    7SOL     OW   19   2.796   1.192   1.233  1.0240  0.8041 -0.0080
    7SOL    HW1   20   2.803   1.206   1.334  0.0327 -1.6747  1.9089
    7SOL    HW2   21   2.716   1.244   1.193  0.1572  2.0424 -1.2063
    8SOL     OW   22   1.386   2.570   1.220  0.4127  0.0472  0.4870
    8SOL    HW1   23   1.342   2.641   1.166 -0.9959 -1.6947  0.4243
    8SOL    HW2   24   1.384   2.474   1.179 -1.2087 -2.4417  1.7533
    9SOL     OW   25   1.601   0.062   1.976 -0.1270 -0.2310  0.0571
    9SOL    HW1   26   1.617   0.142   1.914  0.8449  1.0254 -0.8664
    9SOL    HW2   27   1.519   0.006   1.948  0.5355 -0.4669 -1.6343
   10SOL     OW   28   0.818   2.325   0.887 -0.3404 -0.4842 -0.0507
   10SOL    HW1   29   0.812   2.428   0.874 -0.5661  0.0478 -2.6086
   10SOL    HW2   30   0.881   2.310   0.963 -0.0553  2.1422 -0.5333
   11SOL     OW   31   1.645   1.542   0.833  0.4804  0.7058  0.1782
   11SOL    HW1   32   1.745   1.518   0.842  1.5426 -1.1026  0.6949
   11SOL    HW2   33   1.597   1.537   0.922 -1.8167  2.3684  0.3391
   12SOL     OW   34   2.817   2.727   1.823 -0.3260  0.4117 -0.4935
   12SOL    HW1   35   2.797   2.805   1.887  0.3167  0.4137  2.0963
   12SOL    HW2   36   2.910   2.686   1.846  4.8541 -0.6467 -1.9474
   13SOL     OW   37   2.176   0.117   0.236 -0.0732 -0.0390 -0.4631
   13SOL    HW1   38   2.146   0.202   0.281 -0.0838  0.5231 -1.4763
   13SOL    HW2   39   2.164   0.029   0.292  0.4626 -3.2581 -1.2420
   14SOL     OW   40   1.623   2.424   0.725 -0.0534 -0.5881  0.0024
   14SOL    HW1   41   1.605   2.346   0.787 -0.5316 -0.6509 -1.1605
   14SOL    HW2   42   1.545   2.488   0.713 -0.6110 -0.4859  0.4784
   15SOL     OW   43   0.029   1.819   1.496 -0.6206  0.1625  0.4459
   15SOL    HW1   44   3.046   1.862   1.507 -1.9804  0.3157 -0.5544
   15SOL    HW2   45   0.097   1.861   1.559  1.5772 -0.1614  0.7653
   16SOL     OW   46   2.155   2.247   0.452  0.4044  0.8341 -0.9867
   16SOL    HW1   47   2.088   2.307   0.506 -2.0887  2.1477  3.9834
   16SOL    HW2   48   2.222   2.203   0.516 -1.1581  2.5411  1.2649
   17SOL     OW   49   0.612   0.032   1.615 -0.5794 -0.3966 -0.1492
   17SOL    HW1   50   0.583   0.087   1.697 -0.5087 -0.6807 -1.9809
   17SOL    HW2   51   0.670   0.092   1.561 -1.0634 -1.7338  1.2051
   18SOL     OW   52   1.169   0.819   0.101 -0.3188  0.4280  0.9070
   18SOL    HW1   53   1.172   0.883   0.021 -0.5551 -0.1391 -1.1001
   18SOL    HW2   54   1.174   0.723   0.061  3.5235  0.2697 -0.8039
   19SOL     OW   55   1.870   2.007   0.370  0.1444  0.5348  0.1894
   19SOL    HW1   56   1.888   1.936   0.447 -2.3660 -1.5047  1.3226
   19SOL    HW2   57   1.926   1.978   0.289 -0.7585  1.1226 -0.4479
   20SOL     OW   58   2.398   1.913   1.822 -0.0536 -0.2110 -0.3530
   20SOL    HW1   59   2.340   1.956   1.749 -0.2424 -0.7800  0.2949
   20SOL    HW2   60   2.407   1.817   1.797 -1.4571  0.5276  1.3146
   21SOL     OW   61   0.785   1.284   0.668  0.0954 -0.0282 -0.3109
   21SOL    HW1   62   0.736   1.220   0.731 -2.4238 -2.4182  1.9099
   21SOL    HW2   63   0.720   1.311   0.597 -0.9307 -0.5194 -1.0923
   22SOL     OW   64   2.086   3.002   1.425 -0.3788  0.2587  0.1070
   22SOL    HW1   65   2.016   2.942   1.465 -1.3821  1.9392 -2.5838
   22SOL    HW2   66   2.151   3.035   1.496 -1.2957  1.2914 -2.6541
   23SOL     OW   67   2.940   0.792   2.005  0.1301  0.1851 -0.6526
   23SOL    HW1   68   2.900   0.847   1.929 -0.4464 -2.0925  0.2517
   23SOL    HW2   69   2.935   0.843   2.092 -1.5174  0.8508  0.4337
   24SOL     OW   70   2.237   2.416   0.248 -0.6966 -0.1503  0.2800
   24SOL    HW1   71   2.170   2.387   0.178 -2.3672  2.3092  0.7327
   24SOL    HW2   72   2.229   2.355   0.332 -0.7791 -0.9344  0.7204
   25SOL     OW   73   1.365   3.070   2.486 -0.4612  0.6427  0.0348
   25SOL    HW1   74   1.352   0.040   2.544  0.2516 -5.0422 -2.5063
   25SOL    HW2   75   1.316   3.090   2.398  1.5125 -1.3597  1.4499
   26SOL     OW   76   1.402   2.253   0.225 -0.7243 -0.1850 -0.2966
   26SOL    HW1   77   1.454   2.300   0.304  0.0135 -0.2014  1.7991
   26SOL    HW2   78   1.380   2.316   0.150  0.5027 -1.7227  1.7005
   27SOL     OW   79   2.584   1.846   0.225  0.9273 -0.2389 -0.3251
   27SOL    HW1   80   2.484   1.854   0.237  1.7763 -2.2029 -0.8161
   27SOL    HW2   81   2.620   1.911   0.160  0.0812  0.1078  3.6444
   28SOL     OW   82   3.056   1.175   1.789 -0.4451 -0.3467 -0.9689
   28SOL    HW1   83   2.959   1.206   1.785 -1.2534  1.3913 -2.2384
   28SOL    HW2   84   3.073   1.109   1.715  0.8577  3.9295  0.9253
   29SOL     OW   85   2.336   2.246   1.279 -0.2266 -0.2103 -0.0808
   29SOL    HW1   86   2.300   2.244   1.375 -1.4326  2.0714  2.8268
   29SOL    HW2   87   2.436   2.284   1.272  0.4672  0.8756 -0.6710
   30SOL     OW   88   1.680   0.553   0.525 -0.2314  0.0199 -1.1170
   30SOL    HW1   89   1.614   0.546   0.445  0.2166  0.1446  0.5454
   30SOL    HW2   90   1.630   0.563   0.616  0.5866  0.1664  4.4986
   31SOL     OW   91   2.321   2.607   1.737 -0.2352 -0.0242  0.6242
   31SOL    HW1   92   2.305   2.573   1.646  3.2160 -0.1155 -0.4485
   31SOL    HW2   93   2.364   2.526   1.782 -1.0954 -2.9382  0.6097
   32SOL     OW   94   0.938   1.800   1.322 -0.4485 -0.4656  0.3331
   32SOL    HW1   95   0.973   1.801   1.226 -0.6332  0.1368  0.7161
   32SOL    HW2   96   0.945   1.896   1.359  2.4025  0.4136 -0.2551
   33SOL     OW   97   0.497   0.042   2.660  0.6061  0.7194  0.2171
   33SOL    HW1   98   0.545   0.127   2.625 -2.1691 -1.1312 -0.2570
   33SOL    HW2   99   0.396   0.048   2.666  3.5766  2.4570  0.2951
   34SOL     OW  100   1.428   2.685   0.554  0.2217 -0.3666 -0.1445
   34SOL    HW1  101   1.481   2.769   0.563 -1.6630 -1.2270 -0.1952
   34SOL    HW2  102   1.397   2.651   0.647  2.1938  2.0647  1.3713
   35SOL     OW  103   2.167   2.863   1.224  0.1793 -0.1457 -0.4570
   35SOL    HW1  104   2.269   2.881   1.227 -0.4141 -0.5830 -1.8870
   35SOL    HW2  105   2.117   2.916   1.299 -0.1076  4.5994  0.1685
   36SOL     OW  106   1.966   2.340   2.148 -0.0610 -0.2132  0.0364
   36SOL    HW1  107   1.939   2.253   2.193 -1.0056 -1.3779 -1.0733
   36SOL    HW2  108   1.914   2.415   2.200  1.8200 -0.1213  2.2342
   37SOL     OW  109   0.959   0.005   2.210  0.1363 -0.1990  0.1460
   37SOL    HW1  110   0.916   0.053   2.128 -1.4882 -0.1555 -0.9615
   37SOL    HW2  111   1.063   0.002   2.198  2.3906  1.6549  0.8280
   38SOL     OW  112   0.166   2.610   2.745 -0.1969 -0.0247 -0.9119
   38SOL    HW1  113   0.182   2.593   2.646 -2.8126  0.7430 -0.8603
   38SOL    HW2  114   0.255   2.613   2.793  0.4023  0.8999 -0.1596
   39SOL     OW  115   2.252   0.826   1.648 -0.1304 -0.5676 -0.6687
   39SOL    HW1  116   2.303   0.892   1.593 -0.6796 -0.9823  0.6910
   39SOL    HW2  117   2.245   0.850   1.747  0.6361 -2.0024  2.0711
   40SOL     OW  118   1.025   2.986   0.166 -0.4727  0.0593 -0.2262
   40SOL    HW1  119   0.949   3.032   0.218  0.1279 -2.2207 -2.1718
   40SOL    HW2  120   1.096   3.053   0.140 -2.9077 -1.1118  1.7248
   41SOL     OW  121   2.100   1.052   1.109 -0.4436  0.2231  0.5587
   41SOL    HW1  122   2.107   1.064   1.208 -2.5439 -1.1311 -1.0378
   41SOL    HW2  123   2.157   1.115   1.054  0.6147 -1.7708 -2.1567
   42SOL     OW  124   0.500   0.325   0.985  0.0691  0.0398  0.2618
   42SOL    HW1  125   0.551   0.296   1.069 -1.3333  2.3196  2.1983
   42SOL    HW2  126   0.406   0.288   0.987 -2.6969 -2.3855  0.3755
   43SOL     OW  127   2.388   1.591   2.633  0.3424  0.2927  0.1049
   43SOL    HW1  128   2.360   1.599   2.730  0.5452  0.3433 -0.7135
   43SOL    HW2  129   2.312   1.548   2.587  1.0939 -0.4474  1.6453
   44SOL     OW  130   2.687   0.100   1.502 -0.7128  0.7053 -0.5706
   44SOL    HW1  131   2.778   0.051   1.485 -1.9401  0.3916  1.4804
   44SOL    HW2  132   2.674   0.107   1.600 -0.5890  0.4464 -0.1452
   45SOL     OW  133   0.429   2.708   1.503  0.1608  0.0354 -0.7549
   45SOL    HW1  134   0.368   2.783   1.544 -2.0322  2.3712 -1.6913
   45SOL    HW2  135   0.503   2.759   1.451 -2.3756 -1.2167  2.8216
   46SOL     OW  136   1.670   0.050   2.406  0.4217 -0.0872 -0.3506
   46SOL    HW1  137   1.766   0.044   2.363  0.2096 -1.1863 -4.3236
   46SOL    HW2  138   1.649   3.089   2.478 -1.9924  3.5915 -3.7644
   47SOL     OW  139   1.676   1.798   0.765  0.0737 -0.3940  0.0595
   47SOL    HW1  140   1.624   1.850   0.838 -1.3053 -1.2068  1.7257
   47SOL    HW2  141   1.663   1.697   0.774 -0.0244 -1.8968  1.6374
   48SOL     OW  142   0.917   2.197   0.579 -0.3357  0.2322 -0.5266
   48SOL    HW1  143   0.932   2.292   0.538 -2.2884  3.0170 -2.4374
   48SOL    HW2  144   0.823   2.184   0.612 -1.1669  0.1126 -1.6441
   49SOL     OW  145   2.447   0.308   2.530  0.7605  0.1989  0.3163
   49SOL    HW1  146   2.374   0.352   2.583  0.4116 -0.0736  2.7625
   49SOL    HW2  147   2.434   0.208   2.541 -0.6000 -0.7248  1.1500
   50SOL     OW  148   2.064   0.354   0.313 -0.3478  0.4315 -0.2446
   50SOL    HW1  149   2.043   0.427   0.378  1.0503 -2.3279 -2.5752
   50SOL    HW2  150   1.980   0.313   0.265 -2.3660 -1.6832  0.5264
   51SOL     OW  151   1.959   0.915   0.689  0.2528  0.2976 -0.3397
   51SOL    HW1  152   1.973   0.846   0.616 -0.0682  3.3450 -0.5033
   51SOL    HW2  153   1.966   0.876   0.785  1.7362 -0.3298 -0.0166
   52SOL     OW  154   1.247   1.298   1.545 -0.4241  0.2590 -0.0311
   52SOL    HW1  155   1.324   1.248   1.590  1.0996  1.0120  0.1795
   52SOL    HW2  156   1.171   1.232   1.541  0.9311  0.4526  0.3877
   53SOL     OW  157   0.823   1.606   2.398 -0.1142 -0.7840  0.3503
   53SOL    HW1  158   0.835   1.565   2.307 -0.4827  0.4842 -0.5902
   53SOL    HW2  159   0.801   1.705   2.390  0.6210 -0.3307  0.7403
   54SOL     OW  160   2.473   0.006   1.374 -0.0735 -0.1852 -0.6229
   54SOL    HW1  161   2.563   0.040   1.396 -1.0647 -0.5579 -0.2389
   54SOL    HW2  162   2.404   0.084   1.364 -1.9101  2.5921 -2.5884
   55SOL     OW  163   2.823   1.994   0.919  0.1045 -0.1473 -1.0568
   55SOL    HW1  164   2.779   2.060   0.857 -0.4393 -4.9384  0.8043
   55SOL    HW2  165   2.896   1.939   0.878 -1.6317  0.2252  0.4923
   56SOL     OW  166   1.152   0.200   2.031  0.4764 -0.3694 -0.3533
   56SOL    HW1  167   1.200   0.134   2.089 -0.2428  0.5728  2.1255
   56SOL    HW2  168   1.187   0.187   1.935 -0.5068  1.2872  0.8003
   57SOL     OW  169   1.479   1.569   0.084  0.2486 -0.0176 -0.0676
   57SOL    HW1  170   1.516   1.504   0.151 -0.0912  2.0872 -0.0422
   57SOL    HW2  171   1.556   1.625   0.040 -1.1978  2.0440 -0.6568
   58SOL     OW  172   0.095   1.173   2.058 -0.1010 -0.2632 -0.9789
   58SOL    HW1  173   0.037   1.196   1.978 -0.4468 -0.2288  3.5320
   58SOL    HW2  174   0.150   1.258   2.086  0.4778  0.7901 -2.9244
   59SOL     OW  175   1.121   0.126   2.847 -0.2473 -0.1521  0.6608
   59SOL    HW1  176   1.073   0.211   2.885 -0.7577  0.5502  0.0692
   59SOL    HW2  177   1.053   0.068   2.797  1.8509  1.7408  1.9427
   60SOL     OW  178   2.931   2.172   0.288 -0.1317  0.2684  0.6516
   60SOL    HW1  179   2.829   2.151   0.292 -1.8845  0.2738 -0.0259
   60SOL    HW2  180   2.952   2.272   0.307  1.5425  0.1982  0.2889
   61SOL     OW  181   0.948   2.293   0.213 -0.9044 -0.2438  0.6105
   61SOL    HW1  182   1.010   2.352   0.270 -0.0390  0.2518  0.4752
   61SOL    HW2  183   0.983   2.198   0.196  1.6413 -2.3783 -0.6525
   62SOL     OW  184   2.083   2.153   2.574  0.1181  0.0130 -0.6561
   62SOL    HW1  185   2.111   2.060   2.617 -0.4758 -1.6271 -1.5285
   62SOL    HW2  186   2.021   2.140   2.496  1.8927 -0.3729  1.3711
   63SOL     OW  187   2.398   2.141   0.624  0.1829 -0.0411  0.4379
   63SOL    HW1  188   2.348   2.125   0.713  1.1856 -1.1003 -0.2602
   63SOL    HW2  189   2.423   2.053   0.580  0.9044  0.3015  1.4218
   64SOL     OW  190   1.824   1.209   2.719  0.0557 -0.3325  0.3214
   64SOL    HW1  191   1.760   1.265   2.774 -2.6980  2.3488 -2.0885
   64SOL    HW2  192   1.830   1.120   2.766 -0.5830 -1.9962  1.6674
   65SOL     OW  193   1.427   2.036   2.878  0.1347  0.3272 -0.2626
   65SOL    HW1  194   1.498   2.038   2.950  1.9054  0.7068 -0.1110
   65SOL    HW2  195   1.406   1.949   2.829 -2.8572  1.2070  0.7603
   66SOL     OW  196   3.062   1.389   2.289 -0.4681 -0.1316 -0.2649
   66SOL    HW1  197   3.047   1.464   2.354 -0.1584  1.3680  1.7548
   66SOL    HW2  198   0.048   1.393   2.247 -0.8775  0.2707  0.1791
   67SOL     OW  199   2.598   2.642   3.003  0.0739  0.1167  0.1265
   67SOL    HW1  200   2.517   2.638   3.060 -2.4274 -2.2117 -2.9144
   67SOL    HW2  201   2.587   2.697   2.920  0.7079 -0.1241 -0.6776
   68SOL     OW  202   0.854   2.482   1.465  0.4333 -0.2828  0.4159
   68SOL    HW1  203   0.783   2.411   1.493 -0.5663 -1.2810  2.6974
   68SOL    HW2  204   0.937   2.442   1.420 -0.2835 -1.8773  0.1975
   69SOL     OW  205   0.929   2.498   0.606  0.5860 -0.0049 -0.2715
   69SOL    HW1  206   0.855   2.550   0.558 -1.2623  0.9316 -2.9001
   69SOL    HW2  207   0.902   2.493   0.702 -0.9130 -0.2629  0.8480
   70SOL     OW  208   2.541   0.586   2.736  0.0546  0.2195  0.7999
   70SOL    HW1  209   2.464   0.517   2.719 -1.5637 -1.0760  0.4380
   70SOL    HW2  210   2.629   0.562   2.695  2.8454  0.2060  1.1949
   71SOL     OW  211   0.746   1.278   2.607  0.1829 -0.0126  0.1341
   71SOL    HW1  212   0.767   1.375   2.639 -0.6016  1.3002 -2.1625
   71SOL    HW2  213   0.659   1.246   2.648 -1.9026  0.6099  0.3775
   72SOL     OW  214   0.110   2.147   0.328 -0.0068  0.7014 -0.1190
   72SOL    HW1  215   0.139   2.223   0.264  1.8912 -0.2820  2.0065
   72SOL    HW2  216   0.010   2.134   0.332  0.1695  1.7641 -0.2780
   73SOL     OW  217   0.973   1.331   0.489 -0.1229 -0.4157  0.7209
   73SOL    HW1  218   0.917   1.352   0.409  0.0218  0.5190  3.5073
   73SOL    HW2  219   0.910   1.324   0.569 -1.2348 -0.8548  0.1584
   74SOL     OW  220   2.150   2.825   0.087  0.1330  0.5859 -0.1595
   74SOL    HW1  221   2.132   2.835   0.188 -0.9192  0.7699  0.0898
   74SOL    HW2  222   2.088   2.766   0.032  1.7233  1.3013 -1.8650
   75SOL     OW  223   2.177   1.745   1.192  0.6180 -0.4518 -0.0638
   75SOL    HW1  224   2.217   1.783   1.275 -1.3129  0.8198 -0.9576
   75SOL    HW2  225   2.226   1.660   1.164  1.3704  4.0110 -0.5145
   76SOL     OW  226   2.114   2.537   1.471  0.3357 -0.7999  0.2442
   76SOL    HW1  227   2.061   2.600   1.536 -2.9824 -0.8115 -0.0748
   76SOL    HW2  228   2.074   2.446   1.476  1.6442  0.6916  0.0504
   77SOL     OW  229   2.348   0.185   1.966 -0.3354  0.3215  0.5618
   77SOL    HW1  230   2.283   0.226   2.034 -1.3396  0.5945  0.4165
   77SOL    HW2  231   2.371   0.085   1.979 -0.3927 -2.5389  2.1673
   78SOL     OW  232   1.422   0.740   3.032 -0.2215  0.7589 -0.3758
   78SOL    HW1  233   1.518   0.714   3.056 -0.7708 -1.9858 -0.4437
   78SOL    HW2  234   1.423   0.758   2.929 -1.8260  1.9897 -0.8729
   79SOL     OW  235   2.784   1.810   2.047  0.3023 -0.0776  0.2527
   79SOL    HW1  236   2.750   1.855   1.960 -0.8130  0.9120 -1.4006
   79SOL    HW2  237   2.752   1.711   2.060 -1.3175  1.0387  0.3266
   80SOL     OW  238   1.936   1.359   1.547  0.0495 -0.4497  0.7224
   80SOL    HW1  239   1.972   1.376   1.455 -0.4183 -0.8981  2.1480
   80SOL    HW2  240   1.841   1.396   1.553  1.8917 -1.3423  1.1421
   81SOL     OW  241   1.306   0.654   1.595  0.2193 -0.3020 -0.2539
   81SOL    HW1  242   1.291   0.573   1.657  2.5078 -1.5536 -1.8624
   81SOL    HW2  243   1.295   0.740   1.656  2.9644 -1.1795 -2.2587
   82SOL     OW  244   1.286   2.586   1.478  0.0812 -0.3478 -0.1802
   82SOL    HW1  245   1.356   2.632   1.536  0.3370  1.9066 -2.1940
   82SOL    HW2  246   1.312   2.578   1.383 -1.7544 -1.6539 -2.5655
   83SOL     OW  247   0.268   0.122   0.444  0.0809  0.4451  0.3147
   83SOL    HW1  248   0.310   0.032   0.467 -2.1153  1.3076  0.0309
   83SOL    HW2  249   0.162   0.115   0.434 -2.5816  0.9272 -1.4002
   84SOL     OW  250   0.330   1.164   3.097 -0.2933  0.1683 -0.1068
   84SOL    HW1  251   0.296   1.132   3.005 -0.9105 -3.0798  0.9644
   84SOL    HW2  252   0.261   1.229   0.032 -0.9426  1.0641 -1.8291
   85SOL     OW  253   2.920   1.934   1.661  0.1748 -0.6089 -0.4049
   85SOL    HW1  254   2.932   1.846   1.700 -0.3185  3.9828 -2.7060
   85SOL    HW2  255   2.837   1.986   1.697 -0.1826 -0.5955  0.1406
   86SOL     OW  256   2.982   2.370   1.590  0.6051  0.1336  0.0010
   86SOL    HW1  257   2.980   2.330   1.682  1.1305  1.6684  1.1476
   86SOL    HW2  258   3.080   2.376   1.567  0.6346 -1.6830 -0.9118
   87SOL     OW  259   0.737   0.389   2.652  0.0509  0.1515 -0.1008
   87SOL    HW1  260   0.777   0.309   2.605 -2.7906  1.3013 -0.7214
   87SOL    HW2  261   0.670   0.350   2.715  0.0987  1.1967 -2.2888
   88SOL     OW  262   0.609   2.313   1.390  0.3247 -0.3483  0.0393
   88SOL    HW1  263   0.681   2.318   1.324 -1.5565  0.6077  3.2334
   88SOL    HW2  264   0.590   2.213   1.414 -0.8452 -2.7496 -0.2537
   89SOL     OW  265   0.886   0.762   1.673  0.5649 -0.1804 -0.1064
   89SOL    HW1  266   0.913   0.673   1.629 -3.2034 -1.2054  2.6531
   89SOL    HW2  267   0.832   0.738   1.757  0.2284 -1.2103  3.7002
   90SOL     OW  268   2.990   1.556   1.475  0.0528 -0.7132  0.5647
   90SOL    HW1  269   3.026   1.651   1.473 -1.6158  1.3030  0.5318
   90SOL    HW2  270   3.057   1.488   1.448  1.5077 -0.0786 -0.6157
   91SOL     OW  271   1.428   1.174   0.675 -1.0480 -0.6893 -0.3668
   91SOL    HW1  272   1.361   1.219   0.741 -2.1692  0.7384  0.0086
   91SOL    HW2  273   1.417   1.074   0.691  0.3012  1.7808 -1.5583
   92SOL     OW  274   2.485   0.563   1.022  0.3661  0.2302 -0.3583
   92SOL    HW1  275   2.411   0.605   1.077 -1.1797 -0.0751  0.0377
   92SOL    HW2  276   2.473   0.577   0.919 -0.6808  3.3243 -0.5788
   93SOL     OW  277   1.836   0.780   2.951 -0.1250 -0.3940  0.2575
   93SOL    HW1  278   1.793   0.733   3.031 -1.8694 -0.9039 -0.7456
   93SOL    HW2  279   1.775   0.762   2.867 -2.8093  1.3886 -0.0756
   94SOL     OW  280   2.484   1.647   2.325  0.0633  0.2729 -0.7557
   94SOL    HW1  281   2.415   1.688   2.259  3.1979 -0.7648  1.7088
   94SOL    HW2  282   2.432   1.626   2.413 -0.9595 -2.0525 -1.1457
   95SOL     OW  283   2.154   0.368   0.979 -0.3425  0.1303  0.1323
   95SOL    HW1  284   2.173   0.458   1.017  3.2546 -0.2832 -3.1713
   95SOL    HW2  285   2.221   0.301   1.011 -1.5614  0.5069  0.2642
   96SOL     OW  286   2.541   3.091   2.150  0.0192 -0.6026  0.2300
   96SOL    HW1  287   2.510   3.073   2.054 -0.4577 -1.0460 -0.0261
   96SOL    HW2  288   2.565   0.086   2.166 -0.1023  2.0814  1.9771
   97SOL     OW  289   2.294   0.214   1.337 -0.2761  0.0706  0.0115
   97SOL    HW1  290   2.288   0.311   1.350  1.2679  0.9202  0.4516
   97SOL    HW2  291   2.201   0.170   1.347  0.0459 -0.7432 -0.8162
   98SOL     OW  292   1.642   2.440   1.679 -0.7071  0.0557 -0.5408
   98SOL    HW1  293   1.577   2.472   1.753  0.8027  2.1927  0.1435
   98SOL    HW2  294   1.595   2.399   1.599 -1.4609  2.1018  2.6119
   99SOL     OW  295   2.444   2.168   1.534  0.0721 -0.5642  0.8153
   99SOL    HW1  296   2.461   2.264   1.571 -4.5009  0.6410  0.4243
   99SOL    HW2  297   2.379   2.116   1.591  0.9715  0.3868  2.4984
  100SOL     OW  298   0.728   0.975   2.837 -0.1662 -0.4261  0.2032
  100SOL    HW1  299   0.664   0.958   2.912 -1.2659  0.5740 -0.3747
  100SOL    HW2  300   0.681   1.037   2.775  0.1810 -3.3833 -0.7256
  101SOL     OW  301   1.996   0.399   2.926  0.2021  0.2450 -0.5755
  101SOL    HW1  302   1.966   0.319   2.987  0.7069 -0.3838  0.7995
  101SOL    HW2  303   1.999   0.485   2.987  0.5060 -1.1079  1.5262
  102SOL     OW  304   0.180   0.773   1.812 -0.2559 -0.0313  0.5016
  102SOL    HW1  305   0.101   0.711   1.823  0.5554  1.0044  2.7875
  102SOL    HW2  306   0.223   0.748   1.720  0.8141 -0.9991  0.2136
  103SOL     OW  307   2.826   0.864   2.693 -0.5079  0.0942 -0.0112
  103SOL    HW1  308   2.804   0.940   2.629  0.8930  1.3693 -1.2639
  103SOL    HW2  309   2.927   0.857   2.698 -1.7398 -0.0797  1.9075
  104SOL     OW  310   0.624   0.657   2.691  0.2716  0.0275 -0.4005
  104SOL    HW1  311   0.681   0.721   2.637  0.3595 -2.6952  0.8005
  104SOL    HW2  312   0.664   0.562   2.686  2.4327  0.3871  0.9589
  105SOL     OW  313   2.430   1.617   1.753 -0.2154  0.0135  0.0946
  105SOL    HW1  314   2.325   1.619   1.763 -1.1284 -2.7090 -1.0700
  105SOL    HW2  315   2.474   1.559   1.827  1.2425 -0.0862 -0.4936
  106SOL     OW  316   1.926   0.671   0.530 -0.1128 -0.0033  0.1269
  106SOL    HW1  317   1.944   0.685   0.434  1.1968  0.7485 -1.6323
  106SOL    HW2  318   1.833   0.631   0.538 -0.2685 -1.3009  1.7830
  107SOL     OW  319   0.416   1.505   0.790 -0.4228  0.0207 -0.1475
  107SOL    HW1  320   0.375   1.583   0.842  2.9497  1.3339  1.1343
  107SOL    HW2  321   0.481   1.527   0.718 -1.0681 -1.0200  1.7019
  108SOL     OW  322   2.800   2.521   1.439  0.4440 -0.1011 -0.1648
  108SOL    HW1  323   2.870   2.461   1.482 -0.0871 -0.6915  0.4040
  108SOL    HW2  324   2.790   2.507   1.335 -0.1334  0.5655 -1.9464
  109SOL     OW  325   2.093   0.087   0.695 -0.5455 -0.2996 -0.1148
  109SOL    HW1  326   2.172   0.146   0.669  1.5943 -0.7504  1.4729
  109SOL    HW2  327   2.127   3.106   0.734 -1.0334  1.8262  1.0013
  110SOL     OW  328   0.505   2.076   2.659 -0.4564 -0.4017 -0.7544
  110SOL    HW1  329   0.486   2.026   2.574  0.8810  0.0414 -0.4859
  110SOL    HW2  330   0.593   2.037   2.690 -1.5011  1.5777 -3.0284
  111SOL     OW  331   1.558   2.801   1.821 -0.7087  0.1537  0.2216
  111SOL    HW1  332   1.537   2.700   1.839  1.8836 -0.7737 -2.7978
  111SOL    HW2  333   1.523   2.828   1.729 -0.3650  1.0435  1.1446
  112SOL     OW  334   1.991   2.629   3.086  0.1181 -0.3586 -0.1141
  112SOL    HW1  335   1.920   2.629   3.012 -0.7289  1.1160 -2.6903
  112SOL    HW2  336   1.966   2.583   0.065  0.9042  1.2670 -1.4415
  113SOL     OW  337   1.563   2.322   1.425  0.5161 -0.3483  0.3192
  113SOL    HW1  338   1.547   2.379   1.340  2.9044 -0.4770 -0.1000
  113SOL    HW2  339   1.643   2.260   1.405 -0.5349 -0.9440  1.7113
  114SOL     OW  340   2.832   0.909   0.628 -0.4679 -0.0242  0.4167
  114SOL    HW1  341   2.787   0.900   0.719 -0.5548 -0.6610  2.1035
  114SOL    HW2  342   2.872   0.817   0.600  3.5399  1.3673  1.2930
  115SOL     OW  343   0.567   1.017   3.082 -0.6608 -0.3628 -0.2029
  115SOL    HW1  344   0.493   1.085   3.089 -2.5434 -0.9144  2.9290
  115SOL    HW2  345   0.541   0.925   0.018 -0.1354  0.0745 -0.3927
  116SOL     OW  346   2.673   1.555   2.116 -0.0315 -0.0337  0.6583
  116SOL    HW1  347   2.733   1.472   2.134  0.2361 -0.6309  0.2461
  116SOL    HW2  348   2.614   1.578   2.194  2.5299 -0.0030 -1.5410
  117SOL     OW  349   0.154   2.608   0.508 -0.1826 -0.6331  0.2486
  117SOL    HW1  350   0.122   2.517   0.539 -1.8438 -1.4988  0.1995
  117SOL    HW2  351   0.094   2.644   0.431 -1.2570 -0.2565 -0.4554
  118SOL     OW  352   0.768   1.859   2.396  0.2852  0.6975 -0.4273
  118SOL    HW1  353   0.834   1.905   2.458 -1.9672 -2.5808 -1.1884
  118SOL    HW2  354   0.676   1.891   2.419  3.2463  1.8066 -0.2985
  119SOL     OW  355   0.187   2.285   2.821 -0.2716  0.4159  0.3907
  119SOL    HW1  356   0.104   2.226   2.799 -0.2334  0.7873 -0.0528
  119SOL    HW2  357   0.174   2.318   2.918  0.7710 -1.3963 -0.5506
  120SOL     OW  358   1.099   0.696   2.917  0.3570 -0.0818 -0.2506
  120SOL    HW1  359   1.123   0.797   2.929  1.2080  2.3846 -2.1209
  120SOL    HW2  360   1.188   0.649   2.903 -2.5387  1.7686  0.7955
  121SOL     OW  361   1.299   2.766   1.040 -0.8121 -0.2419  0.3547
  121SOL    HW1  362   1.252   2.756   0.950  1.0545  0.0122  2.2578
  121SOL    HW2  363   1.342   2.860   1.053  0.9099  0.8370  2.0468
  122SOL     OW  364   2.559   2.414   1.560 -0.4750 -0.2381 -0.2339
  122SOL    HW1  365   2.501   2.490   1.520  1.0947  2.4280 -0.1441
  122SOL    HW2  366   2.656   2.436   1.538 -1.0744 -1.7098 -0.4893
  123SOL     OW  367   0.518   2.576   0.886  0.3135  0.2854  0.6223
  123SOL    HW1  368   0.456   2.521   0.822 -3.7389 -1.0394 -0.5984
  123SOL    HW2  369   0.513   2.530   0.979 -2.9541 -0.0866  1.8377
  124SOL     OW  370   2.239   0.990   2.939 -0.3429  0.1247 -0.0578
  124SOL    HW1  371   2.223   0.995   2.835 -0.6073 -0.0187 -0.6770
  124SOL    HW2  372   2.308   0.923   2.966 -0.9046 -0.1828 -0.0713
  125SOL     OW  373   0.709   0.891   0.530 -0.1621  0.6140 -0.3810
  125SOL    HW1  374   0.686   0.893   0.627  1.4813 -1.1082 -0.0129
  125SOL    HW2  375   0.804   0.935   0.520  0.9276 -0.7752 -0.4107
  126SOL     OW  376   3.106   1.267   0.519 -0.1697 -1.1136 -0.1471
  126SOL    HW1  377   0.069   1.335   0.560 -0.3242  3.0334  1.6056
  126SOL    HW2  378   3.042   1.227   0.589 -1.0111 -0.5518  0.3148
  127SOL     OW  379   0.576   1.725   2.103 -0.2752  0.2226  0.2614
  127SOL    HW1  380   0.588   1.633   2.141 -0.2367  1.1157  0.3216
  127SOL    HW2  381   0.484   1.741   2.059  1.2697  0.8111 -1.7892
  128SOL     OW  382   0.834   1.066   0.001 -0.2997 -0.1619  0.1679
  128SOL    HW1  383   0.877   1.098   3.023 -0.4590 -0.1908 -0.7353
  128SOL    HW2  384   0.738   1.032   3.094 -1.6323 -0.1610  2.7722
  129SOL     OW  385   2.610   1.213   0.744 -0.1780 -0.0874  0.1978
  129SOL    HW1  386   2.568   1.155   0.818 -0.8426 -1.1077 -0.6624
  129SOL    HW2  387   2.708   1.201   0.722 -1.1075  1.5188  1.4582
  130SOL     OW  388   2.410   1.067   1.564 -0.6818 -0.2233  0.5122
  130SOL    HW1  389   2.508   1.033   1.560 -0.1198  0.7493  1.3270
  130SOL    HW2  390   2.414   1.164   1.604  1.5331 -3.4078 -0.3955
  131SOL     OW  391   2.899   3.041   2.804 -0.2659 -0.0897  0.0811
  131SOL    HW1  392   2.880   3.082   2.894  2.0919  1.1589 -0.1182
  131SOL    HW2  393   2.991   2.996   2.804 -1.7477  1.5478 -1.4260
  132SOL     OW  394   0.271   1.659   1.094 -0.0971 -0.6439 -0.1405
  132SOL    HW1  395   0.328   1.696   1.018  1.5275  2.2917  0.8063
  132SOL    HW2  396   0.174   1.662   1.074 -0.5615 -1.3876 -0.0586
  133SOL     OW  397   0.853   0.469   1.374  0.7924  0.2021 -0.9564
  133SOL    HW1  398   0.901   0.478   1.461 -1.0544 -1.9424  1.0113
  133SOL    HW2  399   0.795   0.546   1.358  0.9194 -1.9829  2.5830
  134SOL     OW  400   0.284   1.891   0.310 -0.3333  0.2347 -0.0645
  134SOL    HW1  401   0.252   1.901   0.213 -2.3043  0.1478  1.5055
  134SOL    HW2  402   0.264   1.975   0.365  1.6077 -0.3365 -0.1081
  135SOL     OW  403   1.854   0.672   1.429 -0.4004 -0.2428  0.2584
  135SOL    HW1  404   1.760   0.671   1.472 -0.4648  1.5847  0.3651
  135SOL    HW2  405   1.888   0.581   1.408 -2.2315  1.3799  1.6573
  136SOL     OW  406   0.173   0.985   0.577 -0.8256  0.3575  0.2449
  136SOL    HW1  407   0.248   1.023   0.628  2.1732  0.5225  0.1703
  136SOL    HW2  408   0.134   1.049   0.511  1.7670 -0.9792 -1.3326
  137SOL     OW  409   2.876   1.170   0.673  0.0352  0.1968 -0.0222
  137SOL    HW1  410   2.862   1.069   0.656 -2.9346 -1.6696  1.4553
  137SOL    HW2  411   2.951   1.180   0.741  2.9557  0.1364  2.0827
  138SOL     OW  412   1.680   1.065   0.927  0.2628  0.1448  0.0223
  138SOL    HW1  413   1.676   0.984   0.994  0.2666 -1.0553  1.4498
  138SOL    HW2  414   1.775   1.101   0.939  1.9085 -0.7116 -2.2274
  139SOL     OW  415   1.617   2.846   0.019  0.0038  0.3673  0.2828
  139SOL    HW1  416   1.657   2.858   0.111  0.7057 -0.6216  0.3266
  139SOL    HW2  417   1.532   2.791   0.022  1.5837  1.7580 -0.4835
  140SOL     OW  418   1.302   1.526   1.752  0.1175 -0.1194 -0.3785
  140SOL    HW1  419   1.397   1.514   1.786 -2.7818  2.4710  1.9406
  140SOL    HW2  420   1.278   1.453   1.682 -3.5707  0.7530 -0.9792
  141SOL     OW  421   1.651   2.119   0.521 -0.0351  0.4085  0.0838
  141SOL    HW1  422   1.714   2.107   0.442 -0.2018 -0.2974 -0.8439
  141SOL    HW2  423   1.576   2.056   0.509 -0.6460  2.9406  2.5979
  142SOL     OW  424   0.894   0.619   3.054 -0.4701  0.0277 -0.0115
  142SOL    HW1  425   0.911   0.629   0.048  2.1169 -0.6747 -0.7012
  142SOL    HW2  426   0.973   0.651   3.001 -1.1587  0.4065  0.4649
  143SOL     OW  427   0.392   2.347   3.075  0.6840 -0.6621 -0.4496
  143SOL    HW1  428   0.433   2.267   3.033  0.7070  0.8571  2.7960
  143SOL    HW2  429   0.366   2.331   0.068  0.1849 -0.0562  0.7967
  144SOL     OW  430   1.451   2.987   1.130 -0.5581 -0.2192 -0.1996
  144SOL    HW1  431   1.482   2.968   1.225  1.1348  0.4808 -0.5694
  144SOL    HW2  432   1.530   2.997   1.063  0.6632  0.5522 -0.1158
  145SOL     OW  433   2.082   1.309   0.127 -0.5069 -0.1686  0.5130
  145SOL    HW1  434   2.114   1.214   0.137 -1.7572  1.7242  1.3537
  145SOL    HW2  435   1.989   1.308   0.082 -3.4680  1.0784 -2.2912
  146SOL     OW  436   0.114   2.343   0.602  0.3651  0.4467 -0.0862
  146SOL    HW1  437   0.122   2.277   0.526 -1.8006  1.8175  0.1346
  146SOL    HW2  438   0.047   2.317   0.676  0.1018 -0.1440  1.2462
  147SOL     OW  439   2.308   3.035   1.578  0.4454  0.1302 -0.2446
  147SOL    HW1  440   2.361   2.981   1.644 -1.3313  0.4032  0.8891
  147SOL    HW2  441   2.367   3.065   1.503  1.0978 -0.4571 -1.3593
  148SOL     OW  442   1.421   2.980   2.010  0.7481  0.2725  0.4466
  148SOL    HW1  443   1.474   2.908   1.961 -2.4079 -2.0075 -0.9714
  148SOL    HW2  444   1.339   2.928   2.053 -0.4860 -1.0423 -0.4088
  149SOL     OW  445   1.819   0.649   2.112 -0.5027  0.5103  0.3608
  149SOL    HW1  446   1.867   0.613   2.193 -2.6285  0.2397 -1.1856
  149SOL    HW2  447   1.882   0.695   2.046  0.5230  0.3922 -0.4763
  150SOL     OW  448   0.223   3.039   0.190 -0.1378 -0.2716 -0.5669
  150SOL    HW1  449   0.228   3.102   0.270 -1.2463  1.9140  2.1836
  150SOL    HW2  450   0.314   2.995   0.185 -0.5503  2.0579 -1.4328
  151SOL     OW  451   0.271   2.370   0.199 -0.1972 -0.4105  0.1904
  151SOL    HW1  452   0.297   2.438   0.268 -1.5280 -0.0363 -0.3122
  151SOL    HW2  453   0.182   2.402   0.157  1.8879  1.4672  1.2907
  152SOL     OW  454   2.989   3.032   0.795  0.3363 -0.1974  0.5362
  152SOL    HW1  455   3.068   2.984   0.840 -0.6397  0.9067  0.3012
  152SOL    HW2  456   2.913   3.040   0.869  0.6402  0.5458  0.9952
  153SOL     OW  457   2.374   0.018   0.943  0.8169 -0.0695 -0.5787
  153SOL    HW1  458   2.303   3.068   0.896 -1.7008  0.0949 -0.0367
  153SOL    HW2  459   2.438   0.052   0.875 -2.4029  0.0545 -1.1238
  154SOL     OW  460   0.687   0.508   1.996  0.4420  0.0076  0.1556
  154SOL    HW1  461   0.745   0.480   2.072  1.8532  0.8316 -1.8180
  154SOL    HW2  462   0.709   0.601   1.956  1.8072 -3.5488 -2.3250
  155SOL     OW  463   3.025   1.144   1.074 -0.4960 -0.0210 -0.2119
  155SOL    HW1  464   3.031   1.189   0.980  0.9995  1.1990  0.0292
  155SOL    HW2  465   2.964   1.189   1.139  1.2687 -1.0219  1.4664
  156SOL     OW  466   3.004   2.144   3.104  0.8086  0.0945  0.6083
  156SOL    HW1  467   2.934   2.158   0.072 -0.3912  2.5059  1.4695
  156SOL    HW2  468   2.960   2.112   3.018 -0.0648 -2.0144 -2.1009
  157SOL     OW  469   0.926   0.645   0.313 -0.0376  0.2834 -0.0471
  157SOL    HW1  470   0.991   0.649   0.391 -1.6551  2.1231 -1.0789
  157SOL    HW2  471   0.895   0.738   0.287 -0.3280  0.1104  2.1460
  158SOL     OW  472   2.412   0.051   2.589 -0.3621  0.1837 -0.1530
  158SOL    HW1  473   2.455   0.016   2.674  0.0558 -3.1096 -0.1924
  158SOL    HW2  474   2.308   0.060   2.600  1.3725 -0.6859  1.0912
  159SOL     OW  475   0.847   0.263   0.582  0.1283  0.0259 -0.1000
  159SOL    HW1  476   0.850   0.164   0.612  0.1474 -1.2047  1.6647
  159SOL    HW2  477   0.941   0.290   0.553 -0.2739 -1.6569 -2.1994
  160SOL     OW  478   1.413   1.801   2.716 -0.2218  0.2576  0.3189
  160SOL    HW1  479   1.378   1.845   2.626 -1.9094  0.8220 -2.6505
  160SOL    HW2  480   1.421   1.700   2.705  1.2029  4.1804  0.3536
  161SOL     OW  481   3.072   1.620   2.465 -0.0472  0.1003 -0.0717
  161SOL    HW1  482   2.988   1.672   2.458  1.5501  2.2290 -2.4862
  161SOL    HW2  483   3.061   1.547   2.537 -1.3855 -1.1541 -0.4610
  162SOL     OW  484   0.498   2.466   1.570  0.1084  0.8356 -0.1054
  162SOL    HW1  485   0.532   2.409   1.489  2.2544  0.2456 -2.7587
  162SOL    HW2  486   0.461   2.559   1.543  0.5792  0.0107  1.9115
  163SOL     OW  487   2.418   0.453   2.307  0.1628  0.1207 -0.1048
  163SOL    HW1  488   2.480   0.533   2.297 -2.2679  0.4164 -2.0219
  163SOL    HW2  489   2.436   0.409   2.402 -0.1515 -2.1957  0.6963
  164SOL     OW  490   2.482   1.207   0.509  0.2302 -0.7235  0.2827
  164SOL    HW1  491   2.449   1.303   0.504 -2.4847 -0.1148  0.0431
  164SOL    HW2  492   2.562   1.207   0.569 -1.9409 -0.6125 -3.2808
  165SOL     OW  493   0.218   0.181   1.633 -0.4767  0.0893 -0.3304
  165SOL    HW1  494   0.122   0.140   1.642 -0.7963  0.0132  2.8010
  165SOL    HW2  495   0.272   0.111   1.588  0.1640 -0.2386  1.0942
  166SOL     OW  496   2.129   1.140   0.680 -0.3484  0.6521  0.3474
  166SOL    HW1  497   2.052   1.085   0.704  1.2677  3.7582 -0.4055
  166SOL    HW2  498   2.192   1.095   0.615  1.8546 -2.1414  0.8649
  167SOL     OW  499   0.169   0.736   0.438  0.2259  0.1082 -0.4174
  167SOL    HW1  500   0.073   0.753   0.412  2.6249  1.5329  0.4893
  167SOL    HW2  501   0.193   0.813   0.495 -3.8503 -0.0390 -1.7271
  168SOL     OW  502   1.680   2.875   2.288  0.5797 -0.0583 -0.4534
  168SOL    HW1  503   1.736   2.875   2.207 -0.0773  0.6918 -0.1112
  168SOL    HW2  504   1.625   2.962   2.296  0.6033  3.2457 -1.6118
  169SOL     OW  505   0.729   1.217   1.063  0.6549  0.0914  0.0613
  169SOL    HW1  506   0.679   1.197   0.978  0.8558  1.4257 -1.5051
  169SOL    HW2  507   0.718   1.142   1.131 -0.0656  0.2069 -0.1511
  170SOL     OW  508   2.995   0.555   1.282 -0.3631  0.5883 -0.5268
  170SOL    HW1  509   3.064   0.508   1.225 -0.2971  0.3062  1.0492
  170SOL    HW2  510   2.944   0.487   1.337 -2.5557  2.4755  0.5451
  171SOL     OW  511   1.162   2.369   2.596 -0.4263  0.3244  0.2014
  171SOL    HW1  512   1.208   2.282   2.561  1.9193 -0.7852 -0.7509
  171SOL    HW2  513   1.145   2.431   2.519  0.0499 -0.6520 -0.1953
  172SOL     OW  514   0.188   2.764   1.162  0.7734  0.3510  0.0555
  172SOL    HW1  515   0.269   2.788   1.109  0.9256 -0.4796 -1.0082
  172SOL    HW2  516   0.131   2.845   1.165  1.8969  1.7873 -2.0170
  173SOL     OW  517   1.411   0.771   2.758  0.3174  0.2334  0.2348
  173SOL    HW1  518   1.334   0.730   2.699 -1.4835 -0.3609  1.6863
  173SOL    HW2  519   1.502   0.734   2.738  0.2133  1.3114  0.6702
  174SOL     OW  520   1.791   0.046   2.853  0.3499 -0.4029  0.1147
  174SOL    HW1  521   1.804   0.108   2.772  1.9106 -0.5113 -0.7076
  174SOL    HW2  522   1.692   0.020   2.862  0.1463  1.4867 -0.1151
  175SOL     OW  523   1.943   2.250   0.247  0.0405  0.1441  0.6964
  175SOL    HW1  524   1.872   2.177   0.270  0.8673  0.1509 -0.9931
  175SOL    HW2  525   2.021   2.250   0.314 -0.0169  0.6550  2.8324
  176SOL     OW  526   1.953   0.166   3.062  0.2224 -0.5350 -0.1725
  176SOL    HW1  527   2.049   0.141   3.045 -3.8722 -0.3893 -0.4083
  176SOL    HW2  528   1.887   0.109   3.005 -1.1018  2.8411 -1.9441
  177SOL     OW  529   1.036   1.763   0.590 -0.0519 -0.1458 -0.9336
  177SOL    HW1  530   0.990   1.778   0.499  0.9283 -1.0270  0.6791
  177SOL    HW2  531   1.084   1.848   0.621 -0.4208  2.4689 -2.4772
  178SOL     OW  532   2.713   2.249   2.945  0.0211 -0.1838 -0.7308
  178SOL    HW1  533   2.633   2.263   2.885  2.5152 -0.7428  0.9280
  178SOL    HW2  534   2.754   2.341   2.964 -1.0416  0.3202 -0.9135
  179SOL     OW  535   0.323   2.926   2.862  0.0160 -0.1982 -0.3575
  179SOL    HW1  536   0.365   2.852   2.808 -1.6070  0.2644  1.2387
  179SOL    HW2  537   0.279   3.002   2.803 -0.8413  1.5735 -1.7125
  180SOL     OW  538   1.438   1.169   1.033 -0.0756  0.1918  0.1835
  180SOL    HW1  539   1.364   1.212   0.980  0.5508  0.4430 -0.6697
  180SOL    HW2  540   1.502   1.121   0.973 -1.0796 -1.0091  1.1951
  181SOL     OW  541   1.959   0.977   2.108  0.2493 -0.2279 -0.2546
  181SOL    HW1  542   1.863   0.964   2.075 -1.0865 -0.1211 -2.6520
  181SOL    HW2  543   2.024   0.986   2.027  0.8611 -0.1897  0.8710
  182SOL     OW  544   2.947   3.019   2.338  0.2060  0.4475  0.2936
  182SOL    HW1  545   2.857   2.980   2.349  2.5759  0.2718 -0.2846
  182SOL    HW2  546   3.014   2.951   2.294  3.7942 -1.0957 -1.1306
  183SOL     OW  547   1.363   0.884   2.228  0.0035 -0.3623  0.1998
  183SOL    HW1  548   1.466   0.874   2.232  1.7565  1.3468 -1.5453
  183SOL    HW2  549   1.324   0.800   2.184  1.0334  2.1242 -0.3508
  184SOL     OW  550   0.507   1.081   1.608  0.4152  0.1249  0.4080
  184SOL    HW1  551   0.504   1.178   1.573 -2.1765  0.4048 -0.0296
  184SOL    HW2  552   0.410   1.044   1.618  0.9432  0.6560  0.5496
  185SOL     OW  553   1.932   0.731   0.276  0.4290  0.3868 -0.1436
  185SOL    HW1  554   1.834   0.762   0.262 -0.2656 -1.4265  1.6076
  185SOL    HW2  555   2.000   0.806   0.283 -0.5901  1.6190 -0.3033
  186SOL     OW  556   0.642   2.597   0.108 -0.0425 -0.1705  0.0687
  186SOL    HW1  557   0.564   2.647   0.151  2.1540 -2.1005 -1.0251
  186SOL    HW2  558   0.680   2.651   0.027  1.4787 -2.2151 -0.2479
  187SOL     OW  559   2.427   1.190   0.097  0.0367 -0.3137 -0.6964
  187SOL    HW1  560   2.337   1.147   0.115 -0.4258 -3.0140 -0.2033
  187SOL    HW2  561   2.499   1.143   0.153  2.5189 -0.7308  1.6230
  188SOL     OW  562   0.013   1.512   0.793 -0.4446  0.3638  0.1332
  188SOL    HW1  563   0.019   1.557   0.700  0.0266 -0.5554  0.6982
  188SOL    HW2  564   0.010   1.582   0.865 -1.5330  1.4915 -1.1353
  189SOL     OW  565   2.678   0.262   0.258  0.3353  0.1918  0.2665
  189SOL    HW1  566   2.765   0.217   0.227  2.1927 -5.1515 -0.8413
  189SOL    HW2  567   2.601   0.194   0.268  1.3356  1.5538 -1.0820
  190SOL     OW  568   1.409   1.485   2.099  0.0499  0.0055  0.2365
  190SOL    HW1  569   1.310   1.516   2.101  0.6659  0.5224 -2.7864
  190SOL    HW2  570   1.418   1.397   2.048 -0.7961 -1.1979 -0.3792
  191SOL     OW  571   2.916   0.291   1.628  0.3493 -0.2651  0.4496
  191SOL    HW1  572   2.862   0.314   1.546  0.1320  0.6895 -0.4890
  191SOL    HW2  573   2.865   0.320   1.712 -1.0014  0.6468  2.4465
  192SOL     OW  574   1.944   1.418   1.139  0.9250  0.0512 -0.1298
  192SOL    HW1  575   2.002   1.407   1.223  0.3334  0.0019  0.0646
  192SOL    HW2  576   1.927   1.518   1.111 -1.4268 -0.3521 -2.6558
  193SOL     OW  577   1.169   0.696   1.017  0.0536 -0.2389 -0.1436
  193SOL    HW1  578   1.163   0.593   1.012  1.1904  2.8459  0.7472
  193SOL    HW2  579   1.080   0.730   1.055  1.4179 -1.2815  1.4294
  194SOL     OW  580   1.157   2.452   1.666 -0.2567 -0.0788  0.1129
  194SOL    HW1  581   1.202   2.501   1.586  3.3737 -0.3085 -0.6235
  194SOL    HW2  582   1.176   2.490   1.757 -0.6624  1.5881 -3.5585
  195SOL     OW  583   2.333   0.420   2.761  0.8978  0.0492  0.2381
  195SOL    HW1  584   2.238   0.442   2.734  1.1701 -0.0460 -0.3043
  195SOL    HW2  585   2.330   0.357   2.842 -3.2645  1.6296 -2.8055
  196SOL     OW  586   1.211   2.535   1.938 -0.0792 -0.1936 -0.4858
  196SOL    HW1  587   1.151   2.609   1.980  0.3602 -1.9739  1.6071
  196SOL    HW2  588   1.206   2.446   1.990  0.5937 -0.9611 -0.6210
  197SOL     OW  589   0.869   2.879   0.956 -0.2878  0.2118  0.0917
  197SOL    HW1  590   0.820   2.944   0.892  1.4232  0.8713  0.6826
  197SOL    HW2  591   0.969   2.876   0.938 -0.8407 -0.8086 -2.0396
  198SOL     OW  592   1.139   0.991   0.721  0.1561  0.0015  0.0769
  198SOL    HW1  593   1.087   1.030   0.802 -0.3480  0.4025  2.4840
  198SOL    HW2  594   1.091   1.013   0.630  0.5647 -0.9126 -4.3697
  199SOL     OW  595   0.036   2.892   1.812  0.2506 -0.2785 -0.3370
  199SOL    HW1  596   3.074   2.858   1.744  0.2645  1.7532  3.2587
  199SOL    HW2  597   0.081   2.813   1.867  1.2531  1.7185 -0.0040
  200SOL     OW  598   2.132   1.983   2.277  0.3795 -0.4772  0.1240
  200SOL    HW1  599   2.092   1.887   2.272 -0.7791  1.7927 -0.3163
  200SOL    HW2  600   2.182   2.005   2.197 -2.7779  2.2103 -1.4705
  201SOL     OW  601   0.237   2.092   1.425  0.3181 -0.0398 -0.0999
  201SOL    HW1  602   0.197   2.105   1.332 -1.7781  0.0447 -1.9350
  201SOL    HW2  603   0.216   2.163   1.493  1.2963 -1.2975 -1.3373
  202SOL     OW  604   2.585   3.067   0.498 -0.0998 -0.3420 -0.5034
  202SOL    HW1  605   2.557   3.101   0.409  0.5000 -1.1742 -0.1080
  202SOL    HW2  606   2.674   3.013   0.494  0.8856  0.0884  0.0425
  203SOL     OW  607   1.229   2.305   2.106 -0.0232 -0.0389  0.1257
  203SOL    HW1  608   1.299   2.269   2.043 -1.0124 -0.2318 -2.5584
  203SOL    HW2  609   1.269   2.370   2.173  0.9979 -0.3177 -0.3484
  204SOL     OW  610   1.247   2.013   1.968  0.3238 -0.2238  0.2342
  204SOL    HW1  611   1.306   2.093   1.931 -0.6263 -0.0989 -1.8237
  204SOL    HW2  612   1.276   1.927   1.922  0.4642  2.3487  1.3801
  205SOL     OW  613   1.342   1.752   1.907 -0.0608 -0.6009  0.1771
  205SOL    HW1  614   1.328   1.677   1.841  1.0509 -1.9313  1.7920
  205SOL    HW2  615   1.290   1.724   1.992 -0.9461  2.3643  0.1309
  206SOL     OW  616   0.407   0.825   2.718 -0.1650 -0.2574 -0.7454
  206SOL    HW1  617   0.499   0.775   2.721  0.4379 -0.6823 -0.5301
  206SOL    HW2  618   0.400   0.877   2.631  1.0188  1.8579  1.0960
  207SOL     OW  619   0.879   0.167   1.999  0.1351  0.4323  0.4372
  207SOL    HW1  620   0.824   0.229   1.942 -1.2904 -1.9541  2.0114
  207SOL    HW2  621   0.980   0.190   2.000 -0.1768 -0.0605  0.0262
  208SOL     OW  622   0.672   2.588   1.824 -0.2687  0.5562 -0.6176
  208SOL    HW1  623   0.729   2.673   1.835  1.1744  0.1886  0.9425
  208SOL    HW2  624   0.673   2.545   1.731 -1.2833  1.0518  0.7728
  209SOL     OW  625   1.252   0.566   0.062  0.0084 -0.0941  0.0936
  209SOL    HW1  626   1.327   0.629   0.041  0.2801 -2.8585  0.3277
  209SOL    HW2  627   1.243   0.493   3.093 -2.0213  0.6894 -1.0442
  210SOL     OW  628   0.011   0.386   0.703  0.2872  0.2847  0.2025
  210SOL    HW1  629   3.020   0.408   0.714 -0.7966 -0.8932 -1.3657
  210SOL    HW2  630   0.041   0.403   0.605  2.8604 -0.3997 -3.0695
  211SOL     OW  631   0.429   0.606   1.315  0.1182  0.2427  0.2766
  211SOL    HW1  632   0.443   0.508   1.334  1.1230 -1.4840  1.8668
  211SOL    HW2  633   0.393   0.652   1.400  1.6840  1.1094 -3.9329
  212SOL     OW  634   1.228   1.643   1.167  0.1788 -0.1247 -0.2091
  212SOL    HW1  635   1.129   1.665   1.160  1.0697 -1.3728 -0.0791
  212SOL    HW2  636   1.238   1.596   1.256  1.4081 -1.7320 -0.9416
  213SOL     OW  637   1.888   0.046   1.660  0.2439  0.1447  0.2816
  213SOL    HW1  638   1.960   0.078   1.726  0.3224  1.4637  0.3954
  213SOL    HW2  639   1.903   3.049   1.649 -2.6090 -3.3759 -0.0519
  214SOL     OW  640   0.839   2.273   2.437 -0.0788 -0.0816  0.4220
  214SOL    HW1  641   0.919   2.244   2.384 -1.0798  1.1362 -0.5648
  214SOL    HW2  642   0.770   2.304   2.368 -2.2645 -0.9437 -0.9113
  215SOL     OW  643   2.504   1.628   1.102  0.6750 -0.2431 -0.3582
  215SOL    HW1  644   2.574   1.642   1.176 -0.7046  1.5862 -2.0976
  215SOL    HW2  645   2.501   1.713   1.040  1.2191  0.2927 -1.2466
  216SOL     OW  646   0.259   0.942   1.997 -0.3660  0.2672 -0.1943
  216SOL    HW1  647   0.219   0.875   1.926  0.6076  0.0097  0.4036
  216SOL    HW2  648   0.195   1.015   2.004 -0.7264  0.6359  0.0326
  217SOL     OW  649   2.946   0.146   0.172 -0.3868 -0.1330  0.0202
  217SOL    HW1  650   2.968   0.209   0.094 -1.8881 -2.1271  1.1198
  217SOL    HW2  651   3.023   0.137   0.237 -0.9789 -1.0673  0.4279
  218SOL     OW  652   1.564   1.880   1.312 -0.4101  0.2557 -0.8590
  218SOL    HW1  653   1.529   1.832   1.395 -2.2033 -0.9921 -2.1880
  218SOL    HW2  654   1.604   1.821   1.238 -0.3724  0.3164  0.6713
  219SOL     OW  655   1.629   0.393   0.061  0.7011  0.3846  0.1439
  219SOL    HW1  656   1.676   0.396   3.075 -1.4704 -0.7171 -0.3271
  219SOL    HW2  657   1.553   0.319   0.050 -2.6038  0.0294 -1.6786
  220SOL     OW  658   1.545   1.920   0.967  0.1329  0.2909 -0.3973
  220SOL    HW1  659   1.592   2.007   0.988  0.0075  0.7355  4.4925
  220SOL    HW2  660   1.446   1.935   0.943  0.5384 -1.6540  0.7821
  221SOL     OW  661   3.103   0.476   0.210  0.5210 -0.3778  0.7346
  221SOL    HW1  662   0.097   0.455   0.189  1.1888  0.7449 -0.1236
  221SOL    HW2  663   3.050   0.438   0.130 -2.5934  2.0263  1.4966
  222SOL     OW  664   0.886   2.724   1.560 -0.4532  0.2659  0.2558
  222SOL    HW1  665   0.796   2.755   1.537  2.4550 -1.4284  0.5622
  222SOL    HW2  666   0.895   2.623   1.545  1.6805 -1.8521  2.8985
  223SOL     OW  667   1.272   0.399   2.955 -0.0278 -0.3410  0.2337
  223SOL    HW1  668   1.346   0.335   2.927 -2.7010  0.5876 -0.5484
  223SOL    HW2  669   1.182   0.355   2.942  0.7594 -2.2015  1.8224
  224SOL     OW  670   2.565   0.427   1.265  0.0636  0.1540 -0.6460
  224SOL    HW1  671   2.497   0.460   1.334  0.4183  1.2610 -1.7490
  224SOL    HW2  672   2.555   0.474   1.175  1.8278  2.2753  0.9218
  225SOL     OW  673   0.661   1.247   1.745  0.0321 -0.3567  0.3589
  225SOL    HW1  674   0.723   1.319   1.702  0.4697 -1.5146  0.9281
  225SOL    HW2  675   0.620   1.177   1.683  0.3851  0.3694  0.3903
  226SOL     OW  676   1.112   3.004   0.688 -0.0446  0.4921 -0.6874
  226SOL    HW1  677   1.028   3.066   0.696  1.6917 -2.6922  3.0859
  226SOL    HW2  678   1.135   2.980   0.590  0.9064 -0.1874 -0.0252
  227SOL     OW  679   0.889   1.922   1.772  0.0871  0.3833 -0.0845
  227SOL    HW1  680   0.954   1.871   1.707 -0.8722 -0.2792 -2.3880
  227SOL    HW2  681   0.933   2.000   1.820  0.0963  2.9365 -1.2912
  228SOL     OW  682   0.459   0.116   1.847  0.2939 -0.3710  0.1429
  228SOL    HW1  683   0.472   0.191   1.917 -0.9433 -1.8260 -1.2363
  228SOL    HW2  684   0.376   0.058   1.866 -0.0223 -3.4882 -1.8451
  229SOL     OW  685   2.624   0.679   0.415 -0.3645  0.5847 -0.4523
  229SOL    HW1  686   2.718   0.637   0.405 -0.3883 -0.0477 -0.0324
  229SOL    HW2  687   2.609   0.750   0.346 -1.5625 -2.1357 -0.9248
  230SOL     OW  688   0.068   1.768   1.875 -0.1518 -0.2377  0.2275
  230SOL    HW1  689   0.128   1.809   1.802  1.6102  0.4786 -3.1520
  230SOL    HW2  690   0.067   1.665   1.872  1.6085 -0.5306  0.3376
  231SOL     OW  691   0.980   3.053   1.324  0.1609 -0.0322  0.2744
  231SOL    HW1  692   0.891   3.005   1.292 -0.6639 -2.4361 -0.0580
  231SOL    HW2  693   1.049   2.985   1.351  0.0852  0.9941 -0.8478
  232SOL     OW  694   2.363   2.619   0.058 -0.2953  0.4616  0.1880
  232SOL    HW1  695   2.275   2.652   0.089  1.0773 -1.9460 -1.5614
  232SOL    HW2  696   2.353   2.519   0.038 -1.1243  2.6939  2.9192
  233SOL     OW  697   1.163   2.823   3.085 -0.4247  0.6869 -0.0719
  233SOL    HW1  698   1.107   2.887   0.036 -3.1850  0.2616  0.2087
  233SOL    HW2  699   1.112   2.737   3.059 -0.8162  0.2705  0.2859
  234SOL     OW  700   0.673   0.970   2.177  0.0117 -0.1479 -0.0435
  234SOL    HW1  701   0.740   0.990   2.244 -0.7886 -0.7333  0.7563
  234SOL    HW2  702   0.685   1.022   2.092  1.5625 -2.1933  0.9103
  235SOL     OW  703   0.052   2.363   0.035  0.5108  0.1593  0.1458
  235SOL    HW1  704   0.031   2.436   3.076  3.4029  0.6652  0.9030
  235SOL    HW2  705   3.093   2.284   0.020  0.3989  1.0924 -0.7556
  236SOL     OW  706   1.795   2.528   2.700 -0.0107 -0.4200 -0.3115
  236SOL    HW1  707   1.882   2.476   2.709 -0.8738 -0.2408  2.0378
  236SOL    HW2  708   1.728   2.476   2.642  1.0652  1.8825  1.1870
  237SOL     OW  709   2.162   1.091   1.392  0.3432  0.4390  0.2059
  237SOL    HW1  710   2.099   1.020   1.427 -1.0582  1.4351  0.8333
  237SOL    HW2  711   2.245   1.094   1.450  1.9917 -0.0477  0.5723
  238SOL     OW  712   1.475   0.140   2.224 -0.2645 -0.2048  0.3977
  238SOL    HW1  713   1.537   0.136   2.299 -1.1254  0.6340  0.4408
  238SOL    HW2  714   1.524   0.136   2.135  0.4835 -0.6544  1.7422
  239SOL     OW  715   0.986   1.936   2.159 -0.1438  0.2048  0.7116
  239SOL    HW1  716   0.889   1.930   2.184  1.1102  0.9209  1.8994
  239SOL    HW2  717   1.003   1.986   2.070  0.4174 -1.8506 -2.5784
  240SOL     OW  718   3.006   2.841   0.608  0.0156  0.2959 -0.3897
  240SOL    HW1  719   3.090   2.848   0.548  0.6643 -1.6316 -2.0307
  240SOL    HW2  720   3.001   2.919   0.672 -1.1631 -1.3666  0.3491
  241SOL     OW  721   1.497   1.927   0.180 -0.5750 -0.2080 -0.5263
  241SOL    HW1  722   1.441   2.007   0.170  1.2047 -2.6949  0.0207
  241SOL    HW2  723   1.589   1.936   0.129 -0.4926 -2.7970 -1.5239
  242SOL     OW  724   2.182   1.060   0.104  0.4087 -0.4401 -0.1523
  242SOL    HW1  725   2.169   0.986   0.175 -2.4752  0.0959  0.9090
  242SOL    HW2  726   2.193   1.007   0.017  1.1325  3.2991  0.5038
  243SOL     OW  727   0.481   0.593   2.302 -0.4421  0.4087  0.9366
  243SOL    HW1  728   0.455   0.610   2.200 -0.6956  0.0049 -3.8978
  243SOL    HW2  729   0.558   0.649   2.329  0.1330 -5.2129 -2.2122
  244SOL     OW  730   1.537   2.477   2.889  0.0480 -0.0109  0.2447
  244SOL    HW1  731   1.475   2.518   2.820 -0.0605  0.3953  1.1927
  244SOL    HW2  732   1.612   2.543   2.919 -0.7183 -1.5356 -0.3511
  245SOL     OW  733   1.540   3.012   2.911  0.8659 -0.3459 -0.4278
  245SOL    HW1  734   1.439   3.022   2.918  0.9449  1.0724  1.6114
  245SOL    HW2  735   1.579   2.948   2.980 -0.0259  1.4719  0.6454
  246SOL     OW  736   1.414   1.150   2.555 -0.1957  0.1424 -0.3333
  246SOL    HW1  737   1.498   1.148   2.494  3.8233  1.2590 -1.0627
  246SOL    HW2  738   1.370   1.241   2.558  0.7857  0.9518 -1.2822
  247SOL     OW  739   2.874   0.544   2.335  0.4352 -0.4820 -0.2472
  247SOL    HW1  740   2.858   0.489   2.249 -0.8129  1.6202  1.4571
  247SOL    HW2  741   2.976   0.561   2.353  0.8200 -1.5129  1.1310
  248SOL     OW  742   0.115   1.496   1.912  0.2483  0.3001 -0.2794
  248SOL    HW1  743   0.182   1.482   1.833 -1.7767  1.8191 -1.0352
  248SOL    HW2  744   0.157   1.457   1.996  0.2672 -0.8840 -2.9255
  249SOL     OW  745   2.708   0.506   0.136 -0.2881  0.5427 -0.1444
  249SOL    HW1  746   2.686   0.417   0.178  1.2710 -1.8468 -0.4609
  249SOL    HW2  747   2.647   0.581   0.166  1.8256 -0.1436 -2.7452
  250SOL     OW  748   2.874   0.092   0.558  0.2060  0.7013 -0.5137
  250SOL    HW1  749   2.788   0.120   0.596  1.8327 -2.2908  0.9826
  250SOL    HW2  750   2.937   0.064   0.632 -0.6249  0.9638 -0.1712
  251SOL     OW  751   0.684   1.289   2.190  0.5473  0.4691 -0.4564
  251SOL    HW1  752   0.768   1.273   2.242 -1.1473 -0.1362 -1.9925
  251SOL    HW2  753   0.688   1.224   2.108 -0.6985 -1.3994 -1.8302
  252SOL     OW  754   1.700   1.785   1.616  0.0843 -0.0729 -0.1546
  252SOL    HW1  755   1.734   1.689   1.602  0.5684  0.5164 -1.3684
  252SOL    HW2  756   1.612   1.795   1.570  0.5489 -1.3306 -0.0114
  253SOL     OW  757   1.858   2.177   1.674 -0.0795 -0.3982  0.4070
  253SOL    HW1  758   1.923   2.137   1.741 -1.5150  0.0670  2.3271
  253SOL    HW2  759   1.802   2.242   1.726  0.8158 -1.4851  0.4269
  254SOL     OW  760   0.661   2.287   2.229 -0.2610 -0.1325  0.1810
  254SOL    HW1  761   0.608   2.201   2.253  0.9938  1.3195  0.6617
  254SOL    HW2  762   0.703   2.281   2.136  1.1100  2.9704  2.8641
  255SOL     OW  763   1.325   0.459   0.647 -0.0659  0.2152  0.2520
  255SOL    HW1  764   1.242   0.497   0.608 -0.0326 -0.1557 -1.8153
  255SOL    HW2  765   1.322   0.416   0.741 -0.6242 -1.1421  0.1028
  256SOL     OW  766   1.772   2.087   1.028 -0.0039  0.0572  0.2338
  256SOL    HW1  767   1.828   2.022   1.089 -0.3870 -0.5840  0.2679
  256SOL    HW2  768   1.800   2.077   0.934  1.9291 -0.7770  0.2563
  257SOL     OW  769   0.366   2.315   2.634 -0.4462 -0.2261 -0.1540
  257SOL    HW1  770   0.404   2.216   2.644 -2.3803 -1.8503  0.3520
  257SOL    HW2  771   0.297   2.327   2.705  1.8965  2.2389 -0.7091
  258SOL     OW  772   0.405   1.255   2.513  0.1358 -0.2300  0.2883
  258SOL    HW1  773   0.440   1.231   2.609  1.8498  0.5369  2.2300
  258SOL    HW2  774   0.368   1.348   2.514 -2.9392 -0.7378  0.4322
  259SOL     OW  775   1.215   0.985   2.430  0.6414  0.4209 -0.2858
  259SOL    HW1  776   1.282   1.043   2.482 -1.4327  1.4726 -0.1728
  259SOL    HW2  777   1.258   0.950   2.344 -1.2890  3.0842 -3.2484
  260SOL     OW  778   2.117   0.614   0.744  0.4948  0.4942  0.1819
  260SOL    HW1  779   2.046   0.629   0.816 -3.1732  3.1143  2.4410
  260SOL    HW2  780   2.075   0.636   0.650  0.2908 -0.0182 -2.3080
  261SOL     OW  781   0.799   0.388   0.289 -0.1706  0.2365 -0.3525
  261SOL    HW1  782   0.717   0.358   0.342 -0.0146 -0.1684 -0.1275
  261SOL    HW2  783   0.817   0.487   0.292 -0.1539 -1.5629  2.6769
  262SOL     OW  784   1.905   2.780   2.655  0.2588  0.1130 -1.0095
  262SOL    HW1  785   1.861   2.689   2.650 -0.3667 -0.9168  1.0465
  262SOL    HW2  786   1.949   2.789   2.563  2.2139  2.1846 -0.9045
  263SOL     OW  787   0.763   1.636   2.998 -0.2041 -0.1023 -0.1424
  263SOL    HW1  788   0.835   1.680   2.940  1.6518  3.3550 -1.3522
  263SOL    HW2  789   0.709   1.570   2.950  1.0281  3.7628  0.0758
  264SOL     OW  790   0.409   1.676   1.797  0.1654 -0.1998 -0.2954
  264SOL    HW1  791   0.486   1.609   1.803  2.5441 -2.3626  1.0362
  264SOL    HW2  792   0.390   1.713   1.889 -3.1218 -1.0406  1.1656
  265SOL     OW  793   0.958   1.028   0.515  0.0180  0.0229 -0.2548
  265SOL    HW1  794   0.923   1.112   0.469  0.9867 -0.4841  1.3569
  265SOL    HW2  795   0.997   0.963   0.453  1.4718  1.0156  4.6211
  266SOL     OW  796   1.740   1.674   0.124 -0.0145  0.0944 -0.1829
  266SOL    HW1  797   1.837   1.653   0.133 -0.8474  2.6220 -0.5618
  266SOL    HW2  798   1.703   1.678   0.219 -1.3829 -0.0823 -0.9621
  267SOL     OW  799   2.627   0.149   2.928  0.7693 -0.1739  0.1194
  267SOL    HW1  800   2.699   0.111   2.988 -2.1636  1.2177  1.9083
  267SOL    HW2  801   2.671   0.194   2.847 -0.5827  0.7449  1.4003
  268SOL     OW  802   0.657   0.659   2.965  0.3838  0.4259 -0.6237
  268SOL    HW1  803   0.652   0.651   2.865  2.0419 -0.7924 -0.5070
  268SOL    HW2  804   0.750   0.650   3.003  0.5518  0.7254 -0.3992
  269SOL     OW  805   1.687   0.460   2.565 -0.3650 -0.1988  0.4421
  269SOL    HW1  806   1.590   0.470   2.529  1.0666 -1.7920 -2.7964
  269SOL    HW2  807   1.747   0.458   2.481  0.7792  1.0613  0.0809
  270SOL     OW  808   0.970   0.972   2.542 -0.5751  0.6341  0.0477
  270SOL    HW1  809   1.072   0.979   2.524  1.3986 -0.4314  1.1345
  270SOL    HW2  810   0.959   0.894   2.600  0.2588  3.6483 -1.7301
  271SOL     OW  811   2.759   0.950   3.089  0.4786  0.0110  0.1474
  271SOL    HW1  812   2.797   1.040   3.067  0.5111 -0.2855 -1.8417
  271SOL    HW2  813   2.776   0.889   3.009  1.6557 -3.0877  0.6766
  272SOL     OW  814   2.520   1.815   2.713  0.3320 -0.1306  0.2420
  272SOL    HW1  815   2.518   1.899   2.662  1.9368 -2.0501  0.8492
  272SOL    HW2  816   2.470   1.738   2.666  2.4338 -0.1032 -2.4515
  273SOL     OW  817   0.038   0.495   2.601  0.0890 -0.0441  0.4667
  273SOL    HW1  818   3.104   0.421   2.546  0.4098 -0.1782  2.9445
  273SOL    HW2  819   0.140   0.497   2.589  0.9514  1.0078  1.8624
  274SOL     OW  820   2.904   3.042   1.373 -0.1444  0.0961  0.2517
  274SOL    HW1  821   2.844   2.998   1.303 -2.9977  0.3828 -0.6861
  274SOL    HW2  822   2.965   0.004   1.323  1.5669  1.9196 -0.8981
  275SOL     OW  823   2.067   1.400   0.604 -0.3592 -0.1117 -0.4771
  275SOL    HW1  824   2.123   1.317   0.627 -2.3271 -0.5408 -0.7842
  275SOL    HW2  825   1.981   1.372   0.560  0.9163 -1.3834  0.3062
  276SOL     OW  826   0.244   1.398   2.758 -0.1992  0.4704 -0.3599
  276SOL    HW1  827   0.188   1.310   2.758 -0.1144 -0.4320 -0.8161
  276SOL    HW2  828   0.275   1.437   2.666  0.6353 -1.2795 -0.8316
  277SOL     OW  829   2.010   2.447   1.868  0.2990 -0.4821 -0.3459
  277SOL    HW1  830   2.047   2.532   1.914 -0.5131 -0.4993  3.2738
  277SOL    HW2  831   1.985   2.376   1.940  1.3286 -1.5341  0.9936
  278SOL     OW  832   2.016   0.163   1.324 -0.2634 -0.1590 -0.2270
  278SOL    HW1  833   2.018   0.084   1.386  0.5795 -2.7422 -0.0678
  278SOL    HW2  834   1.985   0.134   1.228 -0.1086 -1.5453 -3.1877
  279SOL     OW  835   1.386   1.205   2.993 -0.5474  0.3294 -0.1198
  279SOL    HW1  836   1.369   1.138   2.920  0.6622 -1.0236  2.4640
  279SOL    HW2  837   1.383   1.157   3.081 -1.5337 -1.1044 -1.3480
  280SOL     OW  838   0.651   1.717   0.987  0.7160 -0.3424 -0.3314
  280SOL    HW1  839   0.709   1.782   0.933  0.8495 -0.2913  1.3289
  280SOL    HW2  840   0.663   1.727   1.086 -1.7895 -2.2982 -1.6465
  281SOL     OW  841   0.213   0.244   2.321  0.1151  0.5396 -0.1925
  281SOL    HW1  842   0.313   0.274   2.328  0.1721  1.5500 -0.8138
  281SOL    HW2  843   0.196   0.161   2.267  2.5816 -0.8188  1.0969
  282SOL     OW  844   3.100   1.009   1.510  0.0252 -0.3121 -0.4418
  282SOL    HW1  845   3.033   1.086   1.527  0.9243 -0.2499  0.3718
  282SOL    HW2  846   0.042   1.024   1.418  3.4579  3.6748 -3.3279
  283SOL     OW  847   1.462   2.230   2.416 -0.9513 -0.1597  0.4370
  283SOL    HW1  848   1.532   2.166   2.452 -2.3055 -0.2389 -1.2089
  283SOL    HW2  849   1.364   2.191   2.426 -0.5215 -1.8105  1.7160
  284SOL     OW  850   1.756   1.029   0.057 -0.0529  0.1552 -0.1190
  284SOL    HW1  851   1.807   1.080   0.128 -2.3882  0.2436 -1.9964
  284SOL    HW2  852   1.804   1.038   3.075 -0.7474 -0.2654  1.0487
  285SOL     OW  853   0.020   2.886   2.843 -0.7391 -0.3884 -0.1775
  285SOL    HW1  854   0.075   2.816   2.791  1.3243 -3.4903  0.3322
  285SOL    HW2  855   0.057   2.904   2.937  0.3830  1.2762  0.4295
  286SOL     OW  856   2.098   2.598   1.209  0.0125 -0.0864  0.5612
  286SOL    HW1  857   2.121   2.568   1.304  0.5679  1.1990 -0.8891
  286SOL    HW2  858   2.108   2.697   1.212 -1.1392 -0.8728 -3.1627
  287SOL     OW  859   0.707   0.691   1.314  0.0499  0.1603 -0.2628
  287SOL    HW1  860   0.610   0.680   1.286 -0.1619  1.0682  1.8638
  287SOL    HW2  861   0.717   0.760   1.384 -0.8283 -0.0349  1.0942
  288SOL     OW  862   1.407   2.698   0.021  0.1847 -0.4705  0.2150
  288SOL    HW1  863   1.392   2.597   0.008  1.0072  1.2067 -0.9532
  288SOL    HW2  864   1.327   2.755   3.090 -0.8450 -1.4711  0.1947
  289SOL     OW  865   0.201   1.979   0.060 -0.4615  0.7219  0.0793
  289SOL    HW1  866   0.239   1.975   3.073  0.0739 -0.4194 -1.0005
  289SOL    HW2  867   0.115   2.035   0.063  0.5484 -1.6639  2.3197
  290SOL     OW  868   1.122   2.469   0.828  0.8388  0.0544 -0.1578
  290SOL    HW1  869   1.106   2.428   0.734 -1.7913 -0.4985  0.4062
  290SOL    HW2  870   1.098   2.401   0.902 -2.6195  2.3497  1.7397
  291SOL     OW  871   2.302   1.964   0.245 -0.0705 -0.0648  0.5088
  291SOL    HW1  872   2.322   2.061   0.225  0.0265 -1.7268 -1.4553
  291SOL    HW2  873   2.206   1.947   0.212  0.6214  1.4091  0.6475
  292SOL     OW  874   0.740   1.135   1.979 -0.4544 -0.4591 -0.0475
  292SOL    HW1  875   0.842   1.111   1.976  2.7780 -0.7465  1.1576
  292SOL    HW2  876   0.706   1.175   1.886 -0.9824  1.8028 -1.7757
  293SOL     OW  877   2.270   2.706   0.907 -0.4174  0.2353 -0.7424
  293SOL    HW1  878   2.372   2.692   0.911 -0.2445  2.3054  3.1272
  293SOL    HW2  879   2.217   2.618   0.922  0.2466 -1.3432  1.0319
  294SOL     OW  880   0.077   0.838   2.400  0.3003 -0.1731  0.1033
  294SOL    HW1  881   0.143   0.895   2.348  2.2148  1.0557  0.5135
  294SOL    HW2  882   0.076   0.744   2.364 -0.0851 -2.6778 -0.3553
  295SOL     OW  883   0.938   1.787   0.337  0.1549 -0.1991 -0.3755
  295SOL    HW1  884   0.872   1.862   0.313 -0.5268  0.9305 -0.1284
  295SOL    HW2  885   1.011   1.791   0.265  0.9719 -0.3919 -0.6136
  296SOL     OW  886   2.106   1.887   2.625  0.2925 -0.3098 -0.3769
  296SOL    HW1  887   2.183   1.877   2.558  0.2001  0.2773 -0.1756
  296SOL    HW2  888   2.109   1.815   2.702  1.1737 -0.4175  3.6741
  297SOL     OW  889   3.035   0.344   2.819 -0.1340  0.3278 -0.4786
  297SOL    HW1  890   3.083   0.409   2.755  1.1500  0.5738  1.1535
  297SOL    HW2  891   2.952   0.304   2.776  1.1531  0.0231 -1.1426
  298SOL     OW  892   0.781   2.093   2.989 -0.8305  0.1634 -0.1751
  298SOL    HW1  893   0.822   2.029   3.055  1.4295 -0.9134 -1.8394
  298SOL    HW2  894   0.790   2.194   3.013 -3.4892 -0.1460  1.3201
  299SOL     OW  895   1.391   2.847   2.666 -0.2423  0.6876 -0.7585
  299SOL    HW1  896   1.394   2.931   2.612  0.4803 -2.5780 -2.0593
  299SOL    HW2  897   1.317   2.856   2.736 -2.7725  2.3711  1.3158
  300SOL     OW  898   2.688   0.344   0.534  0.4711  0.0886  0.3888
  300SOL    HW1  899   2.594   0.370   0.555 -1.0546 -0.6239 -0.9506
  300SOL    HW2  900   2.707   0.325   0.436 -0.4126  0.3567  3.1620
  301SOL     OW  901   1.020   0.975   1.698 -0.5055 -0.5089 -0.5414
  301SOL    HW1  902   0.964   0.890   1.684  0.0088  4.4575  1.2407
  301SOL    HW2  903   1.017   1.039   1.617 -0.9733  2.4341 -0.3240
  302SOL     OW  904   0.015   2.575   2.964 -0.1729  0.3282  0.7028
  302SOL    HW1  905   0.068   2.569   2.876 -1.0536 -0.6123  1.3787
  302SOL    HW2  906   0.056   2.637   3.031  0.1192  2.0915 -0.6894
  303SOL     OW  907   3.080   0.296   2.440  0.4743 -0.0785  0.1951
  303SOL    HW1  908   0.047   0.306   2.375 -2.9372 -0.4026  0.5730
  303SOL    HW2  909   2.994   0.283   2.389  3.6546  0.3492  0.9793
  304SOL     OW  910   2.801   0.338   1.370  0.0275 -0.4999  0.0952
  304SOL    HW1  911   2.808   0.236   1.361 -1.4099 -3.3703  1.5748
  304SOL    HW2  912   2.706   0.366   1.341  0.0622  0.2945  0.3525
  305SOL     OW  913   0.459   2.891   2.287 -0.0742 -0.2776 -0.6187
  305SOL    HW1  914   0.562   2.902   2.305  1.0667 -0.8400  1.9853
  305SOL    HW2  915   0.401   2.935   2.358 -2.7919  1.4712 -1.3523
  306SOL     OW  916   2.670   1.083   1.544  0.5800 -0.4783 -0.4768
  306SOL    HW1  917   2.725   1.144   1.601 -0.7459  0.0654  0.0404
  306SOL    HW2  918   2.727   1.002   1.516 -1.9385  1.1341  0.4339
  307SOL     OW  919   1.558   0.601   1.152  0.0486 -0.5424  0.0795
  307SOL    HW1  920   1.495   0.590   1.236 -1.0203  1.2062 -1.1554
  307SOL    HW2  921   1.504   0.653   1.079  0.0700 -1.3128 -1.4530
  308SOL     OW  922   2.930   2.035   1.169 -0.0106 -0.2203 -0.3733
  308SOL    HW1  923   2.880   2.099   1.230 -0.9052 -1.6830  1.4311
  308SOL    HW2  924   2.896   2.036   1.072 -0.5815  0.0162  0.8788
  309SOL     OW  925   2.419   1.671   1.448  0.1584  0.0249 -0.2145
  309SOL    HW1  926   2.395   1.756   1.396 -0.3726  0.7482 -1.3385
  309SOL    HW2  927   2.483   1.702   1.525 -0.6425 -2.0018  0.7259
  310SOL     OW  928   2.750   1.659   0.312  0.4312 -0.0232 -0.4070
  310SOL    HW1  929   2.771   1.603   0.228 -2.3552  0.1145  1.0634
  310SOL    HW2  930   2.713   1.747   0.274  1.0522  0.2789 -0.9308
  311SOL     OW  931   2.371   2.168   2.924 -0.7293 -0.2345 -0.0772
  311SOL    HW1  932   2.405   2.210   2.839 -0.5163  1.4721  1.1096
  311SOL    HW2  933   2.355   2.067   2.920  1.3703 -0.5708  2.2143
  312SOL     OW  934   2.513   1.861   0.955  0.5649 -0.6245 -0.1671
  312SOL    HW1  935   2.565   1.903   1.033  0.3049  0.9004  1.5241
  312SOL    HW2  936   2.564   1.856   0.870 -0.5966  0.2454 -1.2825
  313SOL     OW  937   2.609   2.269   1.239  0.4284  0.0622 -0.3496
  313SOL    HW1  938   2.669   2.250   1.319 -0.5952  0.2877  2.5062
  313SOL    HW2  939   2.641   2.355   1.191  1.8290 -0.5854  0.4964
  314SOL     OW  940   1.040   2.007   0.818 -0.3673  0.3677 -0.5585
  314SOL    HW1  941   0.963   1.968   0.874 -0.0363  0.1354 -0.9719
  314SOL    HW2  942   1.010   2.045   0.730  3.1469 -0.0364  1.2450
  315SOL     OW  943   0.428   2.754   2.650  0.2043 -0.1999 -0.2441
  315SOL    HW1  944   0.497   2.819   2.618  1.4079 -2.3476  1.1263
  315SOL    HW2  945   0.462   2.661   2.636  1.1812  4.1747  0.0894
  316SOL     OW  946   0.010   0.835   0.743  0.1275  1.0191  0.4697
  316SOL    HW1  947   0.060   0.900   0.685  1.7769  0.4103  1.1450
  316SOL    HW2  948   3.052   0.784   0.681 -2.3096 -0.2865 -2.6600
  317SOL     OW  949   1.867   0.528   0.921 -0.1572 -0.2435 -0.7284
  317SOL    HW1  950   1.796   0.587   0.883 -0.9148 -0.1900  0.4392
  317SOL    HW2  951   1.876   0.444   0.870 -0.7827  0.3120  2.2225
  318SOL     OW  952   0.043   2.668   0.279 -0.2988 -0.6296  0.1160
  318SOL    HW1  953   0.080   2.706   0.192 -0.2597 -0.2403  2.0101
  318SOL    HW2  954   3.094   2.583   0.260 -0.5892 -2.4136 -0.0444
  319SOL     OW  955   0.574   1.688   0.098 -0.9084 -0.0241 -0.1092
  319SOL    HW1  956   0.643   1.646   0.037  0.5145  1.6998  2.1334
  319SOL    HW2  957   0.536   1.774   0.058 -1.3707 -1.4131 -0.3541
  320SOL     OW  958   0.673   2.621   2.393  0.5218 -0.8319  0.1496
  320SOL    HW1  959   0.630   2.604   2.301 -0.1210 -0.3989  2.1444
  320SOL    HW2  960   0.612   2.582   2.467 -0.8543  0.3913  1.2434
  321SOL     OW  961   1.273   3.012   2.916 -0.3069  0.4042 -0.6413
  321SOL    HW1  962   1.214   2.944   2.965  0.5848  1.4605  2.0190
  321SOL    HW2  963   1.222   3.093   2.891 -0.2187 -2.0347 -0.2267
  322SOL     OW  964   2.521   1.440   1.913 -0.3844  0.5188 -0.3155
  322SOL    HW1  965   2.575   1.470   1.993 -0.5665  0.2589 -0.3684
  322SOL    HW2  966   2.482   1.350   1.937 -2.3628  0.0636  1.6262
  323SOL     OW  967   2.458   0.477   0.504  0.1751  0.2184 -0.3179
  323SOL    HW1  968   2.438   0.413   0.431 -0.6217 -0.8111 -0.3706
  323SOL    HW2  969   2.514   0.555   0.467  1.6878  1.2586  0.6052
  324SOL     OW  970   0.235   0.042   2.725  0.6014  0.1193 -0.1438
  324SOL    HW1  971   0.187   0.063   2.814 -0.3540 -1.6184  0.6562
  324SOL    HW2  972   0.171   0.062   2.646  1.2051 -5.3635  0.8907
  325SOL     OW  973   1.491   0.443   2.228 -0.1083 -0.7252  0.1588
  325SOL    HW1  974   1.502   0.341   2.211 -3.0048 -1.5860  1.6552
  325SOL    HW2  975   1.456   0.471   2.318 -0.2723  2.2700 -0.2355
  326SOL     OW  976   2.526   2.705   1.161 -0.3290 -0.2620  0.3502
  326SOL    HW1  977   2.479   2.797   1.157 -3.2631  2.5788 -0.9256
  326SOL    HW2  978   2.536   2.664   1.065 -0.4289 -1.4822 -0.0513
  327SOL     OW  979   1.505   0.256   2.906  0.7000  0.3840 -0.0057
  327SOL    HW1  980   1.513   0.176   2.965 -1.4849 -0.0543 -0.7266
  327SOL    HW2  981   1.583   0.319   2.901 -2.2963 -2.2234  3.2169
  328SOL     OW  982   2.642   1.256   2.398 -0.0381  0.3076  0.8887
  328SOL    HW1  983   2.584   1.261   2.311 -1.3556  2.5168 -1.0844
  328SOL    HW2  984   2.635   1.342   2.446  1.2709 -1.8217 -0.1119
  329SOL     OW  985   1.876   2.564   1.659  0.1791  0.3808 -0.3978
  329SOL    HW1  986   1.928   2.534   1.738 -0.9439  0.0849  0.7410
  329SOL    HW2  987   1.784   2.522   1.671 -1.0300 -2.5375  4.5158
  330SOL     OW  988   2.638   1.721   1.606 -0.2969 -0.1108 -0.6464
  330SOL    HW1  989   2.579   1.668   1.670 -0.2284 -1.2871  0.4853
  330SOL    HW2  990   2.733   1.704   1.634 -0.4365 -0.3108 -1.2560
  331SOL     OW  991   0.289   1.715   1.368 -0.0602 -0.4628 -0.1436
  331SOL    HW1  992   0.269   1.713   1.270  1.2420  0.3059  2.6876
  331SOL    HW2  993   0.207   1.735   1.424 -1.9095  2.1576 -0.9380
  332SOL     OW  994   0.621   0.216   1.232  0.0722  0.0307 -0.1024
  332SOL    HW1  995   0.720   0.194   1.243 -0.6566  0.1774  1.3310
  332SOL    HW2  996   0.556   0.136   1.231  0.7139 -0.3107 -0.1630
  333SOL     OW  997   1.812   2.531   2.305  0.5460  0.1734 -0.7331
  333SOL    HW1  998   1.761   2.497   2.388  0.5199 -1.1934  2.9252
  333SOL    HW2  999   1.841   2.629   2.309  0.0316 -2.1207 -1.3988
  334SOL     OW 1000   1.113   1.011   1.253  0.1454 -0.0048 -0.1312
  334SOL    HW1 1001   1.110   1.115   1.235  1.4143  0.7567  0.0600
  334SOL    HW2 1002   1.202   0.971   1.225 -1.0329  0.8824 -0.8358
  335SOL     OW 1003   0.725   2.775   2.985 -0.6806 -0.4717 -0.0055
  335SOL    HW1 1004   0.725   2.874   2.982 -0.0477  1.1332  1.3705
  335SOL    HW2 1005   0.743   2.743   2.886 -1.5619 -2.1080 -3.0973
  336SOL     OW 1006   2.596   2.700   2.092 -0.5560 -0.2663 -0.0070
  336SOL    HW1 1007   2.659   2.773   2.060  0.0933 -3.4494  0.1198
  336SOL    HW2 1008   2.594   2.627   2.019 -2.7361  1.6938 -2.4987
  337SOL     OW 1009   2.397   1.456   0.486  0.2056 -0.6730  0.1947
  337SOL    HW1 1010   2.314   1.482   0.428 -0.1806  1.2554 -1.8097
  337SOL    HW2 1011   2.460   1.538   0.488 -2.4587 -0.2635 -1.6320
  338SOL     OW 1012   1.050   1.820   1.578 -0.0727  0.4271 -0.3846
  338SOL    HW1 1013   1.106   1.907   1.562  3.1990  1.1022  0.0328
  338SOL    HW2 1014   1.000   1.806   1.490 -1.0049  2.3204 -0.4668
  339SOL     OW 1015   3.013   1.009   2.168 -0.2278 -0.3115  0.0037
  339SOL    HW1 1016   3.079   1.063   2.108 -1.6102  0.5632 -0.9916
  339SOL    HW2 1017   3.037   1.029   2.268  0.4040  1.0151  1.9123
  340SOL     OW 1018   1.647   2.661   1.245 -0.2027  0.4526 -0.1253
  340SOL    HW1 1019   1.702   2.589   1.189 -2.1474 -0.5321 -1.6429
  340SOL    HW2 1020   1.547   2.655   1.229 -0.6557 -0.5896 -1.0337
  341SOL     OW 1021   1.865   1.388   0.809 -0.0231  0.0052 -0.0400
  341SOL    HW1 1022   1.875   1.313   0.877 -1.0980 -1.6117 -0.1520
  341SOL    HW2 1023   1.927   1.377   0.734 -1.1797 -0.7858 -0.3575
  342SOL     OW 1024   0.413   1.367   1.019  0.6248  0.3926  0.1593
  342SOL    HW1 1025   0.368   1.285   0.978  2.4767 -2.2506  0.0800
  342SOL    HW2 1026   0.444   1.429   0.942  2.3533  3.3135 -0.7132
  343SOL     OW 1027   2.219   0.482   1.408 -0.3544 -0.8113 -0.2398
  343SOL    HW1 1028   2.117   0.466   1.398  0.4118 -0.1396  4.1994
  343SOL    HW2 1029   2.247   0.576   1.377  1.2779 -1.7005  1.8246
  344SOL     OW 1030   2.138   2.676   0.655  0.0471  0.1319  0.3463
  344SOL    HW1 1031   2.201   2.659   0.579 -1.3134  0.8347 -1.0194
  344SOL    HW2 1032   2.191   2.685   0.741 -0.6343 -1.5511  2.5152
  345SOL     OW 1033   2.934   2.610   2.761 -0.2511  0.8194  0.1218
  345SOL    HW1 1034   2.909   2.695   2.710  1.2018 -0.7524 -0.6276
  345SOL    HW2 1035   3.007   2.633   2.828 -2.2572 -0.3749 -1.5042
  346SOL     OW 1036   3.022   0.715   0.330 -0.0603 -0.3139 -0.0807
  346SOL    HW1 1037   3.020   0.787   0.253 -0.4628 -0.0226  0.2449
  346SOL    HW2 1038   3.049   0.621   0.296  0.6979 -0.9332 -0.5759
  347SOL     OW 1039   1.850   2.495   1.127 -0.0122 -0.2866 -0.0141
  347SOL    HW1 1040   1.927   2.545   1.168  0.0252  2.0511  1.1644
  347SOL    HW2 1041   1.836   2.525   1.026 -1.1818 -2.7404 -1.5354
  348SOL     OW 1042   1.578   1.661   2.182  0.0489 -0.2380 -0.9835
  348SOL    HW1 1043   1.508   1.590   2.157 -2.0933  0.8832  0.6687
  348SOL    HW2 1044   1.534   1.752   2.179 -0.0938 -3.9790 -0.2996
  349SOL     OW 1045   2.480   1.320   2.189  0.1811 -0.2488 -0.3591
  349SOL    HW1 1046   2.423   1.392   2.232  0.2076  0.0918 -1.0654
  349SOL    HW2 1047   2.424   1.244   2.151 -1.3328 -1.7477 -4.0335
  350SOL     OW 1048   0.559   2.117   1.010  0.3816 -0.4738  0.8338
  350SOL    HW1 1049   0.515   2.059   1.080 -0.2045  1.1325 -0.0855
  350SOL    HW2 1050   0.495   2.196   0.980  2.6850 -1.3747  2.4492
  351SOL     OW 1051   0.858   0.454   2.204  0.3709 -0.3555  0.0722
  351SOL    HW1 1052   0.947   0.403   2.209 -2.3974 -2.6780  1.9415
  351SOL    HW2 1053   0.867   0.553   2.236  1.2802  1.4810 -1.2948
  352SOL     OW 1054   0.842   2.798   1.824 -0.1411  0.0588  0.2460
  352SOL    HW1 1055   0.803   2.892   1.825  1.3114 -1.4517  0.6848
  352SOL    HW2 1056   0.872   2.775   1.732 -1.1268  0.1915  2.6275
  353SOL     OW 1057   1.112   1.640   2.399 -0.7617  0.2682  0.3896
  353SOL    HW1 1058   1.131   1.583   2.317  1.1074 -0.6115  1.2911
  353SOL    HW2 1059   1.014   1.641   2.424 -1.5599 -0.3632 -1.3559
  354SOL     OW 1060   1.864   1.329   0.449 -0.1402  0.0922 -0.4983
  354SOL    HW1 1061   1.766   1.329   0.486  0.9597  0.0167 -0.6434
  354SOL    HW2 1062   1.881   1.249   0.386  0.2516  1.4753  2.3190
  355SOL     OW 1063   2.325   0.195   0.632 -0.1275  0.0582 -0.0754
  355SOL    HW1 1064   2.379   0.244   0.705  0.4501 -0.2693  1.2667
  355SOL    HW2 1065   2.378   0.183   0.550 -0.3335  1.0582  1.0552
  356SOL     OW 1066   0.057   1.196   2.759 -0.0933  0.0439  0.1991
  356SOL    HW1 1067   0.015   1.164   2.849 -3.8646  1.1115  1.7560
  356SOL    HW2 1068   3.095   1.258   2.713 -0.1937 -0.8049 -1.3331
  357SOL     OW 1069   2.932   2.918   1.614 -0.0634  0.4124 -0.2137
  357SOL    HW1 1070   2.940   2.932   1.510 -0.2396  1.3666  0.3851
  357SOL    HW2 1071   2.847   2.866   1.638 -1.8584 -0.4133  0.5982
  358SOL     OW 1072   2.995   1.484   2.707 -0.6046 -0.6270  0.4541
  358SOL    HW1 1073   3.013   1.580   2.730  1.3916  1.3499  0.1542
  358SOL    HW2 1074   2.939   1.438   2.778 -0.3248  1.2952 -2.8910
  359SOL     OW 1075   2.574   2.467   2.502  0.0540 -0.9928 -0.3261
  359SOL    HW1 1076   2.503   2.525   2.546  1.4698 -0.6014 -0.6083
  359SOL    HW2 1077   2.651   2.516   2.455  2.8431  0.5295 -0.4487
  360SOL     OW 1078   1.246   1.292   0.845  0.0229  0.1243 -0.0256
  360SOL    HW1 1079   1.146   1.266   0.845  0.1291  2.0049 -0.3002
  360SOL    HW2 1080   1.264   1.393   0.841 -0.2453  0.5709 -2.2721
  361SOL     OW 1081   2.355   2.290   1.031  0.4136  0.2400 -0.5048
  361SOL    HW1 1082   2.348   2.264   1.131  0.8232 -2.2236  0.6066
  361SOL    HW2 1083   2.282   2.352   1.000  1.2264 -1.8184 -0.9176
  362SOL     OW 1084   1.674   1.270   1.176 -0.1699  0.1172 -0.0917
  362SOL    HW1 1085   1.760   1.273   1.126  0.6703 -1.7306 -1.3903
  362SOL    HW2 1086   1.603   1.214   1.132  3.7017  0.9505  0.8259
  363SOL     OW 1087   2.774   1.962   0.464  0.2932 -0.2739 -0.0299
  363SOL    HW1 1088   2.725   2.016   0.391 -0.6514  0.4430  0.5875
  363SOL    HW2 1089   2.716   1.889   0.504  2.1457  0.2701 -2.4554
  364SOL     OW 1090   2.129   0.095   1.761 -0.0447  0.0262  0.0850
  364SOL    HW1 1091   2.169   0.053   1.677  3.5924  2.7653 -1.4709
  364SOL    HW2 1092   2.211   0.107   1.822  1.0704 -0.6291  0.8391
  365SOL     OW 1093   0.111   2.417   1.125  0.0222  0.1848  0.0942
  365SOL    HW1 1094   0.171   2.485   1.172 -1.9705 -0.1920  0.6018
  365SOL    HW2 1095   0.061   2.460   1.049  0.2657  0.6401 -1.2261
  366SOL     OW 1096   2.983   1.292   0.095  0.5497 -0.4211  0.5247
  366SOL    HW1 1097   3.078   1.331   0.092  0.9116  0.0694 -0.1156
  366SOL    HW2 1098   2.947   1.283   0.190  3.1248 -0.2582  0.4926
  367SOL     OW 1099   2.214   2.584   2.836 -0.3029  0.1405  0.1089
  367SOL    HW1 1100   2.149   2.509   2.805  0.4646 -1.9204  0.7707
  367SOL    HW2 1101   2.226   2.584   2.935  2.2164  0.3930 -0.9700
  368SOL     OW 1102   0.003   1.703   1.039 -0.8498 -0.5130 -0.7454
  368SOL    HW1 1103   3.077   1.726   1.134 -0.1669  0.0665 -0.3815
  368SOL    HW2 1104   3.072   1.769   0.969 -1.0261 -1.6895 -2.4328
  369SOL     OW 1105   0.784   0.560   0.589  0.1198  0.1218  0.1992
  369SOL    HW1 1106   0.684   0.584   0.595 -0.9694  0.2082  2.7754
  369SOL    HW2 1107   0.799   0.482   0.528  0.6411  0.0120  0.6916
  370SOL     OW 1108   0.774   0.356   0.858 -0.2278  0.1411 -0.2563
  370SOL    HW1 1109   0.679   0.377   0.890  1.0760  1.3068  0.3246
  370SOL    HW2 1110   0.781   0.332   0.757  0.1812 -1.6357 -1.0144
  371SOL     OW 1111   2.358   1.670   0.045 -0.5632  0.4706 -0.6646
  371SOL    HW1 1112   2.301   1.724   0.111 -2.6122  0.7651 -2.5865
  371SOL    HW2 1113   2.421   1.604   0.096  0.1480  0.5176  1.6568
  372SOL     OW 1114   0.298   1.063   2.807 -0.0432 -0.0414  0.1942
  372SOL    HW1 1115   0.210   1.093   2.767 -1.3397 -1.0611 -1.2053
  372SOL    HW2 1116   0.325   0.970   2.768  0.2327  1.5182 -0.3439
  373SOL     OW 1117   3.004   0.912   0.135 -0.3043 -0.1034  0.0517
  373SOL    HW1 1118   2.906   0.924   0.111  1.9128 -0.3646 -3.3341
  373SOL    HW2 1119   3.060   0.912   0.051 -2.0114 -2.3994  3.4565
  374SOL     OW 1120   0.823   2.347   3.067 -0.0004 -0.2319 -0.0124
  374SOL    HW1 1121   0.773   2.434   3.058 -2.1657 -0.3592  1.5300
  374SOL    HW2 1122   0.881   2.348   0.047 -0.5538  1.4941 -0.2468
  375SOL     OW 1123   1.310   0.253   0.250 -0.5349  0.7385 -0.4578
  375SOL    HW1 1124   1.265   0.348   0.252  2.0847  2.6264  2.7334
  375SOL    HW2 1125   1.319   0.214   0.344  0.6846  2.0738 -0.8762
  376SOL     OW 1126   0.131   2.698   1.973  0.3625 -0.2563  0.0737
  376SOL    HW1 1127   0.228   2.677   1.964 -1.3179 -1.9140  1.2485
  376SOL    HW2 1128   0.079   2.612   1.961 -0.6230  2.1173 -0.5525
  377SOL     OW 1129   2.849   2.046   2.872 -1.1700  0.2366  0.1999
  377SOL    HW1 1130   2.786   2.124   2.896 -0.9805 -0.8084 -0.6493
  377SOL    HW2 1131   2.796   1.963   2.888  1.6683 -2.3543  0.1264
  378SOL     OW 1132   1.680   0.999   0.430 -0.2275 -0.4025 -0.4739
  378SOL    HW1 1133   1.605   1.060   0.397 -6.7205  2.5960 -1.4256
  378SOL    HW2 1134   1.665   0.967   0.524 -0.3223  0.1589 -1.9217
  379SOL     OW 1135   1.164   1.553   0.498  0.3507 -0.2366 -0.0162
  379SOL    HW1 1136   1.101   1.468   0.498 -0.9301 -0.0131  1.1611
  379SOL    HW2 1137   1.105   1.627   0.536  2.2570 -0.0758  0.6121
  380SOL     OW 1138   2.181   2.335   1.691  0.4470 -0.1169  0.0806
  380SOL    HW1 1139   2.136   2.316   1.603  0.3836  0.6890 -0.0900
  380SOL    HW2 1140   2.120   2.389   1.750  0.4346  0.0314  0.3552
  381SOL     OW 1141   2.730   1.023   2.184 -0.4804 -0.5868 -0.4126
  381SOL    HW1 1142   2.834   1.020   2.179  1.1674 -0.9953 -0.2761
  381SOL    HW2 1143   2.689   1.047   2.097 -0.2807 -0.8172 -1.2615
  382SOL     OW 1144   2.891   2.608   0.129  0.1255  0.6380 -0.2723
  382SOL    HW1 1145   2.859   2.554   0.045 -2.2830 -0.7153  0.5041
  382SOL    HW2 1146   2.930   2.698   0.100 -1.1087 -1.5275  1.7079
  383SOL     OW 1147   1.652   1.232   2.100  0.5099 -0.1446 -0.3250
  383SOL    HW1 1148   1.726   1.294   2.062 -0.0118  1.5096  1.6511
  383SOL    HW2 1149   1.564   1.233   2.045 -0.3844 -1.1970  0.0665
  384SOL     OW 1150   0.891   2.041   2.582 -0.0767 -0.3056 -0.2223
  384SOL    HW1 1151   0.896   2.129   2.536  2.6712  0.4972 -1.6622
  384SOL    HW2 1152   0.976   2.021   2.634 -1.5600  1.4817  0.6438
  385SOL     OW 1153   2.570   2.333   0.622  0.6045 -0.0268 -0.0283
  385SOL    HW1 1154   2.581   2.373   0.531 -0.5255 -2.5686  0.8195
  385SOL    HW2 1155   2.498   2.263   0.631 -1.4881  2.2150 -1.2441
  386SOL     OW 1156   1.642   1.355   0.234  0.2818 -0.4987 -0.5565
  386SOL    HW1 1157   1.689   1.397   0.312 -2.4407  0.1115 -1.2134
  386SOL    HW2 1158   1.563   1.292   0.263 -3.5663  1.2126  1.9355
  387SOL     OW 1159   2.802   0.858   1.466  0.2318 -0.0883 -0.6623
  387SOL    HW1 1160   2.884   0.817   1.515  0.6301  1.2621 -0.7952
  387SOL    HW2 1161   2.813   0.853   1.365  3.7753  0.9333  0.1874
  388SOL     OW 1162   2.863   0.736   1.144 -0.0419  0.4235  0.3884
  388SOL    HW1 1163   2.938   0.799   1.106 -0.1159 -2.3814  0.3113
  388SOL    HW2 1164   2.908   0.666   1.205 -0.0088 -0.6594  1.7474
  389SOL     OW 1165   1.868   1.236   2.457 -0.0269  0.5865 -0.2232
  389SOL    HW1 1166   1.872   1.241   2.558  2.8402 -0.5952  0.8644
  389SOL    HW2 1167   1.890   1.332   2.416  1.0254  0.3389 -1.2864
  390SOL     OW 1168   1.550   2.366   0.406 -0.1311  0.1705 -0.1524
  390SOL    HW1 1169   1.607   2.445   0.381 -0.7064 -2.3935  0.3668
  390SOL    HW2 1170   1.590   2.301   0.475  0.5752  0.9618 -0.7864
  391SOL     OW 1171   1.235   2.233   1.213 -0.0110  0.3059 -0.6718
  391SOL    HW1 1172   1.283   2.149   1.253 -0.3502 -1.1916  2.0806
  391SOL    HW2 1173   1.307   2.277   1.158 -1.6474  0.7554 -0.6153
  392SOL     OW 1174   2.471   2.855   1.715 -0.3716 -0.4812 -0.0384
  392SOL    HW1 1175   2.405   2.784   1.744  1.7936  0.1954  0.3103
  392SOL    HW2 1176   2.546   2.815   1.660 -1.7566 -0.1066 -0.2853
  393SOL     OW 1177   1.621   2.442   2.495  0.5203 -0.1355 -0.1588
  393SOL    HW1 1178   1.580   2.534   2.485 -1.9591 -0.6789 -0.6524
  393SOL    HW2 1179   1.545   2.378   2.518  1.2628 -0.0359 -1.7056
  394SOL     OW 1180   0.237   2.950   2.429 -0.1318  0.2329  0.0214
  394SOL    HW1 1181   0.174   3.028   2.449  1.9416 -2.1843  0.9247
  394SOL    HW2 1182   0.212   2.881   2.494 -0.5161  3.8933  0.3137
  395SOL     OW 1183   0.335   1.438   1.313 -0.3323 -0.7620  0.2568
  395SOL    HW1 1184   0.353   1.419   1.216  2.4996 -0.7589  1.9146
  395SOL    HW2 1185   0.334   1.542   1.321  2.1628 -0.1695 -0.0614
  396SOL     OW 1186   2.147   0.962   2.693  0.3236  0.1255  0.7461
  396SOL    HW1 1187   2.151   0.872   2.644 -0.1490 -4.5029 -0.8434
  396SOL    HW2 1188   2.110   1.031   2.628 -0.8410  1.5220  2.5114
  397SOL     OW 1189   3.078   0.745   2.643 -0.0803  0.6572 -0.0068
  397SOL    HW1 1190   3.092   0.644   2.622 -0.3180 -1.7201 -2.0368
  397SOL    HW2 1191   0.007   0.804   2.564 -1.1025  2.2187  0.9494
  398SOL     OW 1192   1.736   2.875   0.259  0.1095 -0.5564 -0.2693
  398SOL    HW1 1193   1.730   2.975   0.280  1.1924  0.5157 -0.1982
  398SOL    HW2 1194   1.828   2.845   0.284 -2.7413  1.1808 -0.1375
  399SOL     OW 1195   2.375   2.372   1.904  0.1791 -0.4997  0.1103
  399SOL    HW1 1196   2.369   2.307   1.985  2.6467 -0.0131 -1.7806
  399SOL    HW2 1197   2.311   2.335   1.828  0.8235 -0.1269  1.7225
  400SOL     OW 1198   2.978   2.146   2.211  0.1248 -0.5877  0.5260
  400SOL    HW1 1199   2.993   2.050   2.186 -2.7592  2.6332 -0.1579
  400SOL    HW2 1200   2.913   2.190   2.147  0.1514 -4.6967  0.9234
  401SOL     OW 1201   0.512   0.864   0.714 -0.1822  0.1794  0.1064
  401SOL    HW1 1202   0.533   0.768   0.685 -2.2873 -0.7384  1.4885
  401SOL    HW2 1203   0.418   0.860   0.752 -2.0390 -0.2754  0.2817
  402SOL     OW 1204   0.764   2.957   2.333  0.0859  0.0591  0.3773
  402SOL    HW1 1205   0.789   2.858   2.325 -1.3498 -0.5765  0.0945
  402SOL    HW2 1206   0.832   3.020   2.291 -1.5004 -1.3813 -1.5413
  403SOL     OW 1207   2.924   1.485   1.933 -0.7110 -0.3124 -0.3185
  403SOL    HW1 1208   3.025   1.481   1.907  1.6650 -1.4753 -4.0557
  403SOL    HW2 1209   2.906   1.460   2.031  1.7622 -0.8637  1.4052
  404SOL     OW 1210   2.913   2.028   2.475  0.1609 -0.5265 -0.0211
  404SOL    HW1 1211   2.993   2.046   2.417  0.7569 -1.0984 -0.5705
  404SOL    HW2 1212   2.854   2.111   2.493  3.5782  2.3684  1.7670
  405SOL     OW 1213   2.130   3.090   2.559  0.2193  0.1899  0.0682
  405SOL    HW1 1214   2.085   3.069   2.650 -0.4172  0.8518 -0.6219
  405SOL    HW2 1215   2.082   3.040   2.485  2.4825 -0.0698 -1.3200
  406SOL     OW 1216   1.435   1.964   0.441 -0.0664  0.6188 -0.3400
  406SOL    HW1 1217   1.460   1.933   0.346 -0.0695 -0.6503  0.3647
  406SOL    HW2 1218   1.339   1.997   0.433 -0.4001 -3.6383 -1.0375
  407SOL     OW 1219   1.822   1.336   0.018 -0.5868 -0.5709  0.0990
  407SOL    HW1 1220   1.762   1.319   3.041 -0.3257 -1.3091 -2.6070
  407SOL    HW2 1221   1.763   1.340   0.103 -1.4125  1.5089  1.7510
  408SOL     OW 1222   0.250   0.989   1.638  0.3451 -0.5090 -0.2650
  408SOL    HW1 1223   0.157   1.012   1.597 -2.9476  1.6858 -0.2786
  408SOL    HW2 1224   0.240   0.921   1.715 -0.1560 -0.4745 -0.9639
  409SOL     OW 1225   2.850   1.355   2.874  0.7761 -0.2200 -0.2464
  409SOL    HW1 1226   2.760   1.323   2.909  0.6308  1.4993 -1.1494
  409SOL    HW2 1227   2.914   1.273   2.882 -0.5561 -3.5167  0.3183
  410SOL     OW 1228   2.652   1.812   0.725  0.4505  0.0513 -0.1003
  410SOL    HW1 1229   2.752   1.799   0.726 -4.2444  2.7990 -0.0197
  410SOL    HW2 1230   2.595   1.754   0.660 -0.8074  1.0437  0.6263
  411SOL     OW 1231   0.107   0.445   0.459 -0.0541 -0.3681  0.0285
  411SOL    HW1 1232   0.172   0.524   0.472 -0.1355 -0.3964  2.1829
  411SOL    HW2 1233   0.066   0.443   0.369 -1.3828 -2.8839  2.2884
  412SOL     OW 1234   1.773   0.029   0.320  0.2679 -0.0077 -0.2563
  412SOL    HW1 1235   1.843   3.104   0.387 -1.9163  0.3727  0.1011
  412SOL    HW2 1236   1.799   0.121   0.285 -1.0771 -3.1470  0.2041
  413SOL     OW 1237   1.296   0.155   1.773  0.2426  0.1017  0.4479
  413SOL    HW1 1238   1.369   0.218   1.736  1.2689 -1.6844  0.5888
  413SOL    HW2 1239   1.285   0.064   1.724  1.3426 -1.1564 -0.6207
  414SOL     OW 1240   0.520   1.096   0.416  0.3148  0.4723  0.1253
  414SOL    HW1 1241   0.441   1.072   0.359  2.3990  2.3083  3.8043
  414SOL    HW2 1242   0.572   1.011   0.441  0.2119  2.1360  2.1551
  415SOL     OW 1243   2.912   1.307   0.340 -0.4328  0.3949  0.0199
  415SOL    HW1 1244   2.983   1.314   0.415 -3.3185 -1.1793  1.4175
  415SOL    HW2 1245   2.821   1.351   0.369 -1.7075  1.3216  1.6495
  416SOL     OW 1246   2.291   0.691   0.241  0.4500 -0.2651 -0.2934
  416SOL    HW1 1247   2.274   0.624   0.167 -0.4977 -1.5878 -1.5798
  416SOL    HW2 1248   2.383   0.730   0.228 -2.3963 -0.5828 -0.7503
  417SOL     OW 1249   2.705   2.745   0.258 -0.1743 -0.6159 -0.2639
  417SOL    HW1 1250   2.666   2.822   0.205  0.9071 -0.7601 -1.7122
  417SOL    HW2 1251   2.763   2.687   0.200 -0.4813 -1.0042 -0.5307
  418SOL     OW 1252   2.960   0.348   3.106  0.0507  0.2417  0.8522
  418SOL    HW1 1253   2.881   0.406   0.020  0.5007 -0.6300 -0.2410
  418SOL    HW2 1254   2.974   0.330   3.003 -0.8083  2.9970 -0.3798
  419SOL     OW 1255   0.910   0.912   0.865 -0.1159  0.0911  0.1648
  419SOL    HW1 1256   0.890   0.867   0.956  0.6892 -2.6812  2.8131
  419SOL    HW2 1257   0.979   0.858   0.818  0.4284 -1.2114  2.5352
  420SOL     OW 1258   0.280   0.876   0.895 -0.1588 -0.4089 -0.0096
  420SOL    HW1 1259   0.208   0.810   0.865 -1.3350  1.7074 -0.0754
  420SOL    HW2 1260   0.329   0.840   0.974  1.6604  0.3022 -0.1538
  421SOL     OW 1261   0.466   2.078   0.515 -0.0183  0.1935 -0.0550
  421SOL    HW1 1262   0.451   2.110   0.419 -0.9387  1.2235  1.6151
  421SOL    HW2 1263   0.539   2.133   0.557  0.1738  0.3558  2.2091
  422SOL     OW 1264   2.731   0.337   1.872 -0.1525  0.3228 -0.0450
  422SOL    HW1 1265   2.781   0.356   1.952 -2.3006 -1.3814 -3.7903
  422SOL    HW2 1266   2.651   0.401   1.860  3.6746  1.5711  2.5594
  423SOL     OW 1267   2.046   1.914   0.155  0.5849  0.1169  0.5656
  423SOL    HW1 1268   2.033   1.812   0.169  0.1515 -1.3374  0.2377
  423SOL    HW2 1269   2.067   1.931   0.056  2.3615 -0.2370 -0.9012
  424SOL     OW 1270   1.848   1.892   2.522 -0.0101  0.0999  0.4960
  424SOL    HW1 1271   1.798   1.820   2.466 -1.4519  0.4703 -1.0090
  424SOL    HW2 1272   1.943   1.867   2.548  3.3644 -0.6348  0.7595
  425SOL     OW 1273   0.185   0.022   1.885 -0.6226 -0.0906  0.6488
  425SOL    HW1 1274   0.168   3.031   1.861 -0.7566 -2.2172 -0.6434
  425SOL    HW2 1275   0.132   0.088   1.833 -0.6831  0.1420  2.4303
  426SOL     OW 1276   1.989   2.738   0.353  0.6680  0.2884 -0.8695
  426SOL    HW1 1277   1.989   2.649   0.298 -0.0320 -1.7680 -0.6187
  426SOL    HW2 1278   1.934   2.730   0.443 -0.5604 -0.5767  4.8187
  427SOL     OW 1279   0.283   1.508   2.522 -0.1454 -0.1449  0.0667
  427SOL    HW1 1280   0.360   1.568   2.487 -1.1241 -1.3082 -3.9186
  427SOL    HW2 1281   0.197   1.548   2.488 -0.0669  2.8192  3.3001
  428SOL     OW 1282   2.180   1.448   2.537 -0.2112 -0.1726  0.3778
  428SOL    HW1 1283   2.208   1.368   2.477  0.2389  0.1415 -0.3376
  428SOL    HW2 1284   2.147   1.411   2.622 -2.7661  1.7348 -1.7274
  429SOL     OW 1285   2.375   2.942   0.606  0.0323 -0.1368  0.3272
  429SOL    HW1 1286   2.309   2.964   0.531  0.8780  1.5244  1.2453
  429SOL    HW2 1287   2.465   2.982   0.590 -0.1888 -0.5943  0.2955
  430SOL     OW 1288   1.776   1.990   2.071  0.7933 -0.5303  0.0047
  430SOL    HW1 1289   1.701   1.957   2.012  2.8469  1.8235  1.1905
  430SOL    HW2 1290   1.847   1.919   2.087  0.7411 -1.2518  0.6376
  431SOL     OW 1291   3.088   2.059   1.811 -1.3036  0.0247  0.0460
  431SOL    HW1 1292   3.041   2.027   1.724 -1.5027 -0.8144 -0.7810
  431SOL    HW2 1293   0.002   1.981   1.876  0.1835 -1.4537  2.2649
  432SOL     OW 1294   1.046   2.197   2.279  0.4991  0.6575  0.7486
  432SOL    HW1 1295   1.024   2.104   2.235  1.6449 -3.5582  1.0570
  432SOL    HW2 1296   1.102   2.255   2.217 -0.2108 -2.3662  5.3775
  433SOL     OW 1297   1.120   2.736   0.848  0.2466  0.4974 -0.2283
  433SOL    HW1 1298   1.135   2.634   0.832 -0.5569 -1.4241 -0.8621
  433SOL    HW2 1299   1.113   2.794   0.764  0.0286  0.1889  0.0005
  434SOL     OW 1300   0.492   1.927   2.428  0.4765  0.3256  0.0724
  434SOL    HW1 1301   0.454   1.833   2.400  0.2948  0.2747 -2.5641
  434SOL    HW2 1302   0.506   1.989   2.346  3.5103  1.1511  0.9875
  435SOL     OW 1303   0.235   1.409   0.589  0.4796 -0.1178  0.2406
  435SOL    HW1 1304   0.255   1.479   0.517 -0.4677  2.2414 -3.9515
  435SOL    HW2 1305   0.295   1.411   0.670 -1.3600  1.2989 -0.6816
  436SOL     OW 1306   0.729   1.951   2.084  0.2678 -0.2519 -0.0588
  436SOL    HW1 1307   0.673   1.866   2.088  0.2341 -0.0775 -1.8352
  436SOL    HW2 1308   0.778   1.953   1.994 -0.3426 -1.6745 -0.9182
  437SOL     OW 1309   1.119   0.695   0.497 -0.1015  0.2602 -0.5728
  437SOL    HW1 1310   1.069   0.706   0.587  2.2214 -0.2980  1.5119
  437SOL    HW2 1311   1.171   0.778   0.481  0.7294 -1.2485 -0.0406
  438SOL     OW 1312   0.746   1.942   0.890  0.0286 -0.7034 -0.3158
  438SOL    HW1 1313   0.689   2.014   0.940 -1.1846  0.8194  1.4723
  438SOL    HW2 1314   0.742   1.950   0.790 -0.4980  0.4293  1.5597
  439SOL     OW 1315   1.016   2.720   2.006 -0.2361 -0.1870  0.0015
  439SOL    HW1 1316   0.970   2.690   2.093  0.1710 -1.3735  0.9324
  439SOL    HW2 1317   0.951   2.765   1.936 -0.8266  0.7438 -0.5533
  440SOL     OW 1318   1.689   0.055   1.457 -0.5336 -0.3481 -0.0828
  440SOL    HW1 1319   1.746   0.071   1.540 -2.2552  1.3604 -0.8673
  440SOL    HW2 1320   1.701   0.132   1.391  0.4959 -0.6193  0.9391
  441SOL     OW 1321   0.380   0.000   1.479 -0.1114  0.0883  0.2634
  441SOL    HW1 1322   0.315   3.031   1.514  0.2540  1.6746 -0.5446
  441SOL    HW2 1323   0.457   0.007   1.545 -0.6260 -2.7064  0.0518
  442SOL     OW 1324   2.299   1.873   0.518 -0.3433 -0.1360  0.0258
  442SOL    HW1 1325   2.214   1.820   0.549 -0.1954 -1.5967  0.8238
  442SOL    HW2 1326   2.287   1.909   0.426  0.3903  1.3162  0.4872
  443SOL     OW 1327   2.714   0.283   2.487  0.0959 -0.4856 -0.3712
  443SOL    HW1 1328   2.613   0.295   2.510  3.4731  0.2981 -1.3685
  443SOL    HW2 1329   2.762   0.368   2.507  0.2940 -3.0760  2.1963
  444SOL     OW 1330   2.160   1.284   2.016  0.5151  0.0669  0.1867
  444SOL    HW1 1331   2.190   1.209   2.080  2.0801 -0.2283  0.5516
  444SOL    HW2 1332   2.180   1.257   1.920 -0.8116 -0.7267 -1.4851
  445SOL     OW 1333   2.663   1.996   1.497 -0.8087 -0.0219  0.1867
  445SOL    HW1 1334   2.656   1.911   1.549 -2.8004  1.8685  1.9209
  445SOL    HW2 1335   2.596   2.065   1.518 -0.3946 -3.9827 -1.2713
  446SOL     OW 1336   2.837   1.024   0.384  0.2078 -0.1643  0.1199
  446SOL    HW1 1337   2.853   1.118   0.419  1.0976  0.6344  0.4476
  446SOL    HW2 1338   2.830   0.959   0.461 -0.5381  1.6093 -1.6212
  447SOL     OW 1339   1.081   1.659   0.830  0.0730 -0.2324  0.1729
  447SOL    HW1 1340   1.164   1.605   0.802 -1.6804 -0.2410  1.1273
  447SOL    HW2 1341   1.029   1.684   0.744 -0.2471  0.4705 -0.6294
  448SOL     OW 1342   1.405   1.260   1.958 -0.0811  0.4551 -0.0618
  448SOL    HW1 1343   1.406   1.208   1.870 -1.3216 -0.8824  1.1336
  448SOL    HW2 1344   1.331   1.232   2.019 -0.5111  0.7707 -4.6596
  449SOL     OW 1345   0.401   1.481   0.188 -0.3074 -0.1611  0.1369
  449SOL    HW1 1346   0.356   1.509   0.277  1.0855  0.1425  1.1789
  449SOL    HW2 1347   0.469   1.548   0.149 -1.9443 -2.4663  0.9831
  450SOL     OW 1348   2.636   2.491   1.919  0.4930  0.2867 -0.0149
  450SOL    HW1 1349   2.671   2.565   1.865  0.4369 -0.6954  0.2776
  450SOL    HW2 1350   2.537   2.463   1.890 -1.9112 -1.4582 -0.5432
  451SOL     OW 1351   1.963   0.255   2.196  0.1299  0.3781 -0.5195
  451SOL    HW1 1352   1.940   0.319   2.271 -1.2208 -0.4748 -1.3386
  451SOL    HW2 1353   1.931   0.292   2.109  1.3840 -0.8284  3.6929
  452SOL     OW 1354   1.025   0.164   1.517  0.3330 -0.0423 -0.5974
  452SOL    HW1 1355   0.971   0.097   1.465 -1.3006 -0.9023 -1.4928
  452SOL    HW2 1356   0.967   0.219   1.574  1.1843 -0.5793  0.1539
  453SOL     OW 1357   1.012   1.458   1.001 -0.0308  0.1276 -0.4009
  453SOL    HW1 1358   1.032   1.542   0.947 -2.5013  0.4875 -0.8057
  453SOL    HW2 1359   0.959   1.389   0.943 -0.5154 -0.4768 -1.9648
  454SOL     OW 1360   0.258   1.162   0.901 -0.5315  0.2382 -0.2449
  454SOL    HW1 1361   0.260   1.057   0.906 -2.8372 -1.4496 -1.2152
  454SOL    HW2 1362   0.293   1.197   0.813  0.2581 -2.9784  0.1630
  455SOL     OW 1363   2.942   2.865   0.033 -0.0818 -0.9512 -0.2659
  455SOL    HW1 1364   2.844   2.878   0.015 -0.6926  1.8692  0.4746
  455SOL    HW2 1365   2.989   2.953   0.056 -2.3937 -0.2776  0.2789
  456SOL     OW 1366   2.238   2.120   0.841  0.2331  0.2038 -0.3400
  456SOL    HW1 1367   2.293   2.174   0.909  1.5848 -1.3136  0.6284
  456SOL    HW2 1368   2.234   2.021   0.876  0.8214  1.0236  0.1773
  457SOL     OW 1369   1.518   0.135   0.071  0.4748  0.1287  0.1636
  457SOL    HW1 1370   1.576   0.053   0.096 -0.1699  0.5659  0.5596
  457SOL    HW2 1371   1.436   0.156   0.128 -2.8112  0.5234  0.5353
  458SOL     OW 1372   2.764   2.881   0.478  0.3563 -0.3968  0.4693
  458SOL    HW1 1373   2.850   2.855   0.529  2.2982 -1.1966  1.1361
  458SOL    HW2 1374   2.747   2.831   0.389 -1.8541 -2.1363  0.5475
  459SOL     OW 1375   2.006   0.229   2.545  0.2873 -0.2981  0.2190
  459SOL    HW1 1376   1.910   0.219   2.583 -1.9881 -1.8931  0.1878
  459SOL    HW2 1377   2.056   0.141   2.555 -0.5078  2.0776  0.6952
  460SOL     OW 1378   2.794   0.024   0.003  0.5107  0.0089 -0.0957
  460SOL    HW1 1379   2.845   0.065   0.086 -3.3052  1.6894  0.4566
  460SOL    HW2 1380   2.740   3.051   0.037 -0.7202 -1.0240  0.1303
  461SOL     OW 1381   0.872   1.325   1.343  0.4076 -0.5059  0.2966
  461SOL    HW1 1382   0.813   1.403   1.311  0.0610 -0.5934 -0.2842
  461SOL    HW2 1383   0.946   1.308   1.273  2.6412 -1.0887 -1.6271
  462SOL     OW 1384   2.673   2.720   1.590  0.4607  0.1318  0.0956
  462SOL    HW1 1385   2.727   2.722   1.674 -1.2415  2.3097 -1.3507
  462SOL    HW2 1386   2.703   2.641   1.534 -4.6123 -0.4048 -0.3390
  463SOL     OW 1387   2.606   1.235   2.996 -0.2004  0.2336 -0.0863
  463SOL    HW1 1388   2.541   1.241   3.070 -0.8335  1.6195 -2.3118
  463SOL    HW2 1389   2.562   1.191   2.920  0.4558  1.1515  0.3236
  464SOL     OW 1390   0.306   2.564   1.290  0.0070  0.8400  0.6619
  464SOL    HW1 1391   0.322   2.616   1.378  2.4791 -0.3388  1.1233
  464SOL    HW2 1392   0.274   2.628   1.219 -0.2231 -2.0943  0.0301
  465SOL     OW 1393   0.370   1.184   0.627 -0.2598  0.0698  0.2706
  465SOL    HW1 1394   0.421   1.148   0.547  1.8698 -1.6203 -0.1430
  465SOL    HW2 1395   0.313   1.261   0.590  0.5287  0.3760  1.1538
  466SOL     OW 1396   1.138   0.373   2.236  0.0106 -0.1623  0.4443
  466SOL    HW1 1397   1.198   0.361   2.318  0.8991  1.9219  0.8256
  466SOL    HW2 1398   1.154   0.306   2.160  0.9170 -1.3576  1.7059
  467SOL     OW 1399   0.890   0.693   2.326 -0.0376  0.8265  0.6765
  467SOL    HW1 1400   0.817   0.746   2.370 -1.4698  0.5140 -0.5486
  467SOL    HW2 1401   0.919   0.634   2.404 -0.5350  0.6976  1.7109
  468SOL     OW 1402   3.062   1.157   2.424  0.0290  0.1562 -0.1150
  468SOL    HW1 1403   0.048   1.134   2.462 -2.3587 -1.7269 -0.6154
  468SOL    HW2 1404   3.060   1.245   2.384 -0.1418 -0.1238  0.5879
  469SOL     OW 1405   0.362   2.038   0.787  0.0951  0.2041  0.1083
  469SOL    HW1 1406   0.371   2.041   0.687 -1.6644 -0.6407  2.7091
  469SOL    HW2 1407   0.456   2.053   0.827  0.5127  0.0754  0.2332
  470SOL     OW 1408   2.835   1.759   2.472 -0.0765 -0.1184 -0.6110
  470SOL    HW1 1409   2.882   1.849   2.499 -0.3336  3.0872  1.9514
  470SOL    HW2 1410   2.745   1.779   2.437  2.9647 -0.2968  0.1903
  471SOL     OW 1411   1.631   0.837   2.207 -0.3044  0.0507  0.1931
  471SOL    HW1 1412   1.687   0.757   2.176  0.7523 -0.9908 -0.7378
  471SOL    HW2 1413   1.680   0.900   2.272 -0.1351 -1.8449  0.9014
  472SOL     OW 1414   0.765   2.899   1.202 -0.2050  0.4068  0.3326
  472SOL    HW1 1415   0.770   2.799   1.208  0.4402 -1.4463 -0.4592
  472SOL    HW2 1416   0.781   2.930   1.103  0.0424  1.0599 -2.7373
  473SOL     OW 1417   0.731   0.213   2.337  0.0473  0.0063  0.1290
  473SOL    HW1 1418   0.785   0.287   2.288  1.6848  3.6290 -4.7008
  473SOL    HW2 1419   0.790   0.130   2.364 -1.9482 -1.2962 -0.9834
  474SOL     OW 1420   1.736   2.828   1.412  0.1845 -0.2075  0.2473
  474SOL    HW1 1421   1.727   2.926   1.398 -0.8975  3.1741  0.3920
  474SOL    HW2 1422   1.695   2.769   1.341  1.6388  0.8657  1.7519
  475SOL     OW 1423   1.943   0.262   0.856  0.2787 -0.4490  0.6821
  475SOL    HW1 1424   2.006   0.211   0.791  2.6180 -1.4931 -1.7259
  475SOL    HW2 1425   2.005   0.315   0.920 -0.3040 -0.0947 -0.8874
  476SOL     OW 1426   0.385   0.790   1.111  0.1294  0.1904 -0.1430
  476SOL    HW1 1427   0.410   0.881   1.140 -0.5215 -4.0812 -0.9191
  476SOL    HW2 1428   0.415   0.718   1.173 -0.8981  2.7775 -1.1468
  477SOL     OW 1429   1.277   2.730   0.338  0.0708 -0.4971 -0.6970
  477SOL    HW1 1430   1.330   2.699   0.261 -1.6203  0.9548  0.4454
  477SOL    HW2 1431   1.331   2.703   0.426  2.0862  0.7383  2.5798
  478SOL     OW 1432   0.214   2.384   2.430  0.2738 -0.2904 -0.1841
  478SOL    HW1 1433   0.256   2.466   2.385 -2.9041 -1.4629 -0.5249
  478SOL    HW2 1434   0.280   2.345   2.497  3.2548  2.2396  1.9920
  479SOL     OW 1435   2.701   0.182   1.140 -0.2007  0.0695  0.5855
  479SOL    HW1 1436   2.607   0.220   1.158 -3.2876  1.2544 -0.1614
  479SOL    HW2 1437   2.766   0.265   1.129  0.6805 -1.9193  2.1133
  480SOL     OW 1438   0.586   2.358   0.499 -0.1373 -0.1108  0.1859
  480SOL    HW1 1439   0.637   2.349   0.411 -0.7505  0.3524 -1.8652
  480SOL    HW2 1440   0.511   2.424   0.482  1.3505  1.2256  0.4338
  481SOL     OW 1441   2.130   2.048   1.266  0.2459 -0.1424  0.5594
  481SOL    HW1 1442   2.206   1.992   1.303 -1.9021  1.0909  1.7877
  481SOL    HW2 1443   2.164   2.125   1.206  2.9694  0.4407 -2.5578
  482SOL     OW 1444   1.076   2.410   2.875 -0.4811  1.2969  0.2338
  482SOL    HW1 1445   1.111   2.401   2.779  1.1130 -0.5986 -0.1785
  482SOL    HW2 1446   1.054   2.315   2.909  0.0695 -2.4867  2.6727
  483SOL     OW 1447   0.784   2.405   2.005  0.3634  0.2991  0.0792
  483SOL    HW1 1448   0.751   2.442   1.916 -1.0739  1.2000 -1.0321
  483SOL    HW2 1449   0.851   2.332   1.984  0.5829  1.0676 -0.9951
  484SOL     OW 1450   1.010   0.532   1.573 -0.1627  0.0621  0.2290
  484SOL    HW1 1451   1.058   0.472   1.641 -0.8342  1.4609 -2.1784
  484SOL    HW2 1452   1.085   0.568   1.515  0.7412 -1.9916 -0.4955
  485SOL     OW 1453   1.670   0.679   2.723  0.5070  0.4760 -0.1031
  485SOL    HW1 1454   1.692   0.769   2.678  1.2312  1.5373 -0.4772
  485SOL    HW2 1455   1.700   0.605   2.658  0.4283 -1.9549 -1.2295
  486SOL     OW 1456   2.537   2.638   0.912  0.4223  0.0723 -0.0955
  486SOL    HW1 1457   2.553   2.536   0.897 -1.0061 -0.7874  0.0028
  486SOL    HW2 1458   2.599   2.694   0.851 -0.0291 -0.3371  1.0575
  487SOL     OW 1459   0.931   2.072   1.420  0.5458 -0.0712 -0.4185
  487SOL    HW1 1460   0.981   2.156   1.427 -1.6074 -0.1037 -1.8505
  487SOL    HW2 1461   0.851   2.081   1.482 -1.4652  0.9349  0.5579
  488SOL     OW 1462   2.350   1.884   2.920  0.1563  0.0462  0.7273
  488SOL    HW1 1463   2.403   1.846   2.842 -1.4410  1.1022  0.0014
  488SOL    HW2 1464   2.344   1.810   2.995  0.1533 -1.6221 -0.2949
  489SOL     OW 1465   1.937   2.932   1.030  0.4008  0.5039  0.0078
  489SOL    HW1 1466   1.924   2.856   0.961  0.2812  1.2761 -0.4364
  489SOL    HW2 1467   2.024   2.924   1.077 -0.1809  0.8940 -3.7907
  490SOL     OW 1468   1.051   1.489   0.169 -0.4681 -0.4718 -0.3056
  490SOL    HW1 1469   1.134   1.525   0.217  0.6804 -2.7348  0.7513
  490SOL    HW2 1470   0.965   1.539   0.197  3.0328 -0.6049 -1.6505
  491SOL     OW 1471   0.496   2.013   1.448  0.6173 -0.0772  0.0820
  491SOL    HW1 1472   0.394   2.023   1.461 -2.0920 -0.0216 -1.5722
  491SOL    HW2 1473   0.506   1.986   1.349  2.5229  0.8416  0.1129
  492SOL     OW 1474   0.862   1.656   1.899  0.1884 -0.0134  0.9443
  492SOL    HW1 1475   0.936   1.615   1.837 -0.7834 -1.7185 -2.3408
  492SOL    HW2 1476   0.860   1.756   1.901 -1.7257  1.2430  3.5890
  493SOL     OW 1477   3.041   2.234   0.811 -1.0285  0.2421  0.0808
  493SOL    HW1 1478   2.976   2.184   0.752  1.3509 -0.0102  1.4710
  493SOL    HW2 1479   3.097   2.168   0.866  2.3840 -0.6233  0.2757
  494SOL     OW 1480   2.790   2.176   0.683  0.2829  0.5035 -0.1545
  494SOL    HW1 1481   2.715   2.240   0.660  0.1630 -1.7147  0.8695
  494SOL    HW2 1482   2.790   2.093   0.625  1.9258 -2.2223 -0.2879
  495SOL     OW 1483   2.620   2.879   0.053  0.2642 -0.1095  0.3866
  495SOL    HW1 1484   2.616   2.784   0.017  1.1983 -0.9613 -1.4347
  495SOL    HW2 1485   2.530   2.929   0.054 -1.4400 -2.5537  1.9847
  496SOL     OW 1486   2.429   2.951   1.138 -0.3581 -0.2477  0.2028
  496SOL    HW1 1487   2.399   3.026   1.075 -0.0602  0.3105  0.4950
  496SOL    HW2 1488   2.459   2.996   1.228 -1.2031 -1.3086  2.2724
  497SOL     OW 1489   2.428   1.114   2.585  0.6097  0.1878  0.0603
  497SOL    HW1 1490   2.492   1.148   2.519 -0.5433 -1.7494 -3.0020
  497SOL    HW2 1491   2.474   1.063   2.661 -4.1562  0.8936 -1.4256
  498SOL     OW 1492   3.001   1.789   1.270  0.0091 -0.1820 -0.2354
  498SOL    HW1 1493   3.083   1.810   1.325 -3.5345 -0.1136 -0.7985
  498SOL    HW2 1494   2.960   1.876   1.236 -0.6264 -0.0876 -1.1415
  499SOL     OW 1495   0.818   2.442   2.643  0.2077  0.2162 -0.0662
  499SOL    HW1 1496   0.900   2.465   2.698  1.8565  1.1020 -4.5871
  499SOL    HW2 1497   0.850   2.379   2.569  0.8741  0.8460  0.4326
  500SOL     OW 1498   1.647   0.758   0.281  0.3680 -0.8978 -0.3909
  500SOL    HW1 1499   1.649   0.834   0.344 -0.2956 -1.3373 -2.3893
  500SOL    HW2 1500   1.600   0.681   0.324 -0.1070  0.6866  1.2704
  501SOL     OW 1501   1.501   0.333   1.670 -0.0578 -0.3524  0.3476
  501SOL    HW1 1502   1.527   0.394   1.592 -1.4960 -0.4597  1.3259
  501SOL    HW2 1503   1.585   0.292   1.711 -0.7898  0.4580 -0.6836
  502SOL     OW 1504   2.269   0.520   1.680  0.1815  1.1973 -0.0378
  502SOL    HW1 1505   2.293   0.618   1.671 -1.6474 -0.0375  3.8912
  502SOL    HW2 1506   2.259   0.487   1.582 -0.3825 -2.2761 -1.9619
  503SOL     OW 1507   2.305   1.729   2.150  0.7191  0.0074  0.3426
  503SOL    HW1 1508   2.223   1.682   2.119  0.1589  2.8020  1.3007
  503SOL    HW2 1509   2.329   1.795   2.076 -0.5267 -2.3845 -3.3268
  504SOL     OW 1510   1.397   1.151   1.707  0.0034  0.2185 -0.1316
  504SOL    HW1 1511   1.496   1.142   1.686  0.4675 -0.4832 -0.5169
  504SOL    HW2 1512   1.357   1.057   1.718  2.1784  0.7909  2.4264
  505SOL     OW 1513   0.471   0.635   1.710 -0.4965 -0.1061  0.3728
  505SOL    HW1 1514   0.386   0.651   1.654 -3.5685 -0.2439  1.3229
  505SOL    HW2 1515   0.487   0.717   1.770 -2.3336  1.7088 -0.2836
  506SOL     OW 1516   0.408   0.504   2.955  0.1612  0.5018  0.2200
  506SOL    HW1 1517   0.323   0.561   2.939  1.2156 -0.9446  0.5775
  506SOL    HW2 1518   0.490   0.563   2.953  1.7447  2.0144  0.2169
  507SOL     OW 1519   0.536   0.069   0.221 -0.0491  0.3040 -0.3350
  507SOL    HW1 1520   0.465   0.080   0.144 -3.8097 -0.1949  0.9508
  507SOL    HW2 1521   0.537   0.146   0.289  1.5771  0.1224  2.0867
  508SOL     OW 1522   0.754   0.763   1.928 -0.5906  0.3609  0.3251
  508SOL    HW1 1523   0.667   0.814   1.928  2.1320  2.6136  0.3569
  508SOL    HW2 1524   0.816   0.793   2.006  1.4993 -1.3500 -1.7239
  509SOL     OW 1525   1.430   2.343   1.077 -0.5937 -0.2419 -0.0981
  509SOL    HW1 1526   1.518   2.306   1.110  0.7446  0.4028 -0.1362
  509SOL    HW2 1527   1.408   2.328   0.977  0.3718  0.6645  2.4193
  510SOL     OW 1528   2.767   1.418   1.529 -0.1408  0.2316 -0.0225
  510SOL    HW1 1529   2.833   1.486   1.494  1.8102 -1.3234 -0.2929
  510SOL    HW2 1530   2.679   1.432   1.482 -2.3126 -0.6914  1.9750
  511SOL     OW 1531   1.252   1.997   1.514 -0.3016  0.0501 -0.2083
  511SOL    HW1 1532   1.286   2.088   1.549 -1.3427  0.9831  0.6837
  511SOL    HW2 1533   1.259   1.985   1.410  2.1777 -0.2898 -3.1666
  512SOL     OW 1534   3.096   1.645   0.521 -0.3433  0.4567  0.4635
  512SOL    HW1 1535   3.013   1.590   0.538 -0.3344  0.2705 -1.5512
  512SOL    HW2 1536   3.088   1.746   0.528  0.1787  1.4618 -0.7805
  513SOL     OW 1537   3.086   1.716   2.847  0.4170  0.3722 -0.4760
  513SOL    HW1 1538   0.010   1.802   2.807  2.8159 -2.9155 -0.1095
  513SOL    HW2 1539   0.043   1.667   2.911 -0.9527  1.4812 -0.3263
  514SOL     OW 1540   2.322   2.198   2.449  0.1830 -0.0430 -0.2984
  514SOL    HW1 1541   2.231   2.178   2.495 -0.3909 -0.1127  2.0936
  514SOL    HW2 1542   2.323   2.293   2.406 -1.7047  0.8664 -1.6720
  515SOL     OW 1543   2.429   0.798   0.580 -0.3263 -0.9464 -0.1995
  515SOL    HW1 1544   2.395   0.735   0.659  0.6826 -2.8673 -0.2559
  515SOL    HW2 1545   2.525   0.773   0.560 -2.6606 -1.1395  1.4261
  516SOL     OW 1546   2.679   2.042   0.026  0.2735 -0.7102 -0.0901
  516SOL    HW1 1547   2.695   2.127   3.077  0.9467 -0.8232 -3.4615
  516SOL    HW2 1548   2.690   1.967   3.067 -1.2432 -0.7002  1.1583
  517SOL     OW 1549   0.582   1.455   2.891  0.0807 -0.0900  0.6596
  517SOL    HW1 1550   0.498   1.506   2.872  0.1721  0.3968 -0.6995
  517SOL    HW2 1551   0.592   1.444   2.992 -1.3962 -0.4065  0.4468
  518SOL     OW 1552   2.864   0.163   2.303 -0.2215  0.3080  0.0020
  518SOL    HW1 1553   2.783   0.171   2.365  0.2896 -0.1926  0.4026
  518SOL    HW2 1554   2.893   0.064   2.292  1.6914  2.2492  0.6308
  519SOL     OW 1555   1.648   1.335   2.909 -0.0799  0.5302  0.1872
  519SOL    HW1 1556   1.570   1.280   2.934 -0.9679  1.5111  1.4748
  519SOL    HW2 1557   1.640   1.436   2.932 -0.5167  0.8498  0.2747
  520SOL     OW 1558   2.731   2.870   2.358  0.4607  0.1223  0.3479
  520SOL    HW1 1559   2.641   2.915   2.368 -0.6072 -3.0869  4.5931
  520SOL    HW2 1560   2.721   2.770   2.339 -1.1503 -1.0985  0.7433
  521SOL     OW 1561   0.522   1.638   2.467  0.3548  0.2952  0.3378
  521SOL    HW1 1562   0.599   1.602   2.410  1.0037  0.6216 -2.6426
  521SOL    HW2 1563   0.546   1.676   2.560 -1.7142 -1.0191  0.2806
  522SOL     OW 1564   1.188   2.874   2.135  0.3835 -0.0061 -0.2397
  522SOL    HW1 1565   1.216   2.821   2.220 -1.0836  0.6113  1.4013
  522SOL    HW2 1566   1.118   2.815   2.087  0.1816  1.0535 -1.5094
  523SOL     OW 1567   2.601   1.989   1.183 -0.1768  0.4494  0.5901
  523SOL    HW1 1568   2.671   1.939   1.229 -1.9306 -0.5102 -2.0998
  523SOL    HW2 1569   2.604   2.090   1.196 -1.6329  0.4488  1.1842
  524SOL     OW 1570   1.279   2.014   0.911 -0.0473 -0.0746  0.6105
  524SOL    HW1 1571   1.247   2.026   1.004  2.6604  2.1600 -0.3860
  524SOL    HW2 1572   1.203   2.004   0.846  2.4754  0.7961 -0.2323
  525SOL     OW 1573   2.862   0.451   0.729  0.3927  0.1255  0.4473
  525SOL    HW1 1574   2.816   0.463   0.819 -1.6878 -0.5745  0.5086
  525SOL    HW2 1575   2.802   0.408   0.658 -1.3796 -1.2652  0.1082
  526SOL     OW 1576   1.722   2.810   0.808  0.3130  0.1995  0.1658
  526SOL    HW1 1577   1.665   2.843   0.731  0.6976  1.1578 -0.8304
  526SOL    HW2 1578   1.701   2.884   0.876 -2.6135  1.7557 -2.4394
  527SOL     OW 1579   1.930   1.672   1.076 -0.2838  0.0488 -0.0572
  527SOL    HW1 1580   1.943   1.683   0.974  0.3864 -0.8703 -1.1608
  527SOL    HW2 1581   2.012   1.699   1.130 -1.9099 -1.6356 -0.7600
  528SOL     OW 1582   2.588   2.802   2.781 -0.0103 -0.2404  0.0088
  528SOL    HW1 1583   2.561   2.901   2.800 -0.0673  2.3416  1.2468
  528SOL    HW2 1584   2.677   2.796   2.734 -2.0847  1.4170  0.1059
  529SOL     OW 1585   1.239   1.359   2.594  0.1114 -0.3527  0.0351
  529SOL    HW1 1586   1.307   1.431   2.604 -1.2706 -1.5563  2.4083
  529SOL    HW2 1587   1.157   1.380   2.653 -1.7103 -0.4254 -2.1219
  530SOL     OW 1588   2.205   1.065   2.171 -0.0057 -0.4230  0.3822
  530SOL    HW1 1589   2.245   0.971   2.157  0.9166 -0.4698  0.9615
  530SOL    HW2 1590   2.102   1.061   2.180  1.7349  0.9302  1.1420
  531SOL     OW 1591   0.328   1.047   0.230  0.1153  0.3775  0.2577
  531SOL    HW1 1592   0.352   1.111   0.152  4.7364 -0.0023  1.2814
  531SOL    HW2 1593   0.231   1.068   0.264 -2.6804  2.4392  2.6977
  532SOL     OW 1594   1.428   1.575   0.540  0.4679 -0.2563  0.5708
  532SOL    HW1 1595   1.478   1.493   0.572  0.9701  2.5791  0.3776
  532SOL    HW2 1596   1.327   1.552   0.538  0.0753 -1.9996 -3.2459
  533SOL     OW 1597   0.113   0.583   2.282 -0.6445 -0.5311 -0.1411
  533SOL    HW1 1598   0.187   0.589   2.212  0.5082 -0.6163 -1.6857
  533SOL    HW2 1599   0.153   0.564   2.376  0.4138  0.5594  3.8177
  534SOL     OW 1600   1.237   0.716   2.559  0.8139  0.3088 -0.2044
  534SOL    HW1 1601   1.149   0.670   2.554 -0.4847  0.8255  0.9386
  534SOL    HW2 1602   1.237   0.802   2.500 -1.3702  1.4033  0.7051
  535SOL     OW 1603   0.391   0.586   0.359  0.4954  0.6556 -0.0518
  535SOL    HW1 1604   0.307   0.642   0.357 -1.2791 -2.4106 -1.9992
  535SOL    HW2 1605   0.479   0.637   0.346  0.4794 -2.1945  2.5275
  536SOL     OW 1606   0.556   0.766   0.081  0.0266  0.0859  0.5707
  536SOL    HW1 1607   0.577   0.726   0.171 -1.7082 -0.0837 -1.4521
  536SOL    HW2 1608   0.581   0.710   0.002  1.5786  1.3697  0.8422
  537SOL     OW 1609   1.468   3.007   1.411  0.5102 -0.2349  0.2308
  537SOL    HW1 1610   1.378   3.050   1.448 -0.3033  1.4559  1.0617
  537SOL    HW2 1611   1.546   3.069   1.429  0.7692 -0.4018 -0.5207
  538SOL     OW 1612   0.381   2.746   3.068  0.1906  0.3560  0.6980
  538SOL    HW1 1613   0.379   2.832   3.009 -0.8133  1.5483 -0.2800
  538SOL    HW2 1614   0.410   2.670   3.006 -1.7135  1.0056 -0.1208
  539SOL     OW 1615   2.805   1.290   1.769 -0.0758  0.3557 -0.0376
  539SOL    HW1 1616   2.802   1.339   1.678  0.4198 -1.2628  0.4942
  539SOL    HW2 1617   2.819   1.359   1.844  2.0492 -1.8396  0.7430
  540SOL     OW 1618   2.152   1.575   1.510  0.5640  0.0886 -0.5947
  540SOL    HW1 1619   2.255   1.582   1.504 -4.1515 -0.3873  0.0079
  540SOL    HW2 1620   2.114   1.502   1.451  1.6432  0.9402 -0.9242
  541SOL     OW 1621   0.721   2.068   1.611  0.2172 -0.8430 -0.5914
  541SOL    HW1 1622   0.644   2.033   1.555  1.3042  0.0889 -0.9814
  541SOL    HW2 1623   0.749   1.999   1.685 -1.6160 -1.3536  0.9732
  542SOL     OW 1624   2.308   0.926   1.894 -0.3136  0.3096 -0.1724
  542SOL    HW1 1625   2.225   0.984   1.890 -3.3697 -0.9454  0.6978
  542SOL    HW2 1626   2.313   0.864   1.978  1.8517 -1.8370 -2.6491
  543SOL     OW 1627   0.996   0.670   0.741 -0.7895  0.3850 -0.2695
  543SOL    HW1 1628   0.915   0.630   0.696  0.1715  1.6410  0.2845
  543SOL    HW2 1629   1.015   0.611   0.819 -1.7103 -1.3559 -2.6364
  544SOL     OW 1630   2.081   1.844   1.503  0.0252 -0.1384 -0.3979
  544SOL    HW1 1631   2.019   1.871   1.428  0.4928 -0.5135  0.3464
  544SOL    HW2 1632   2.101   1.743   1.498 -0.3545  2.0878 -1.1295
  545SOL     OW 1633   1.575   1.505   1.271 -0.3706 -0.4138 -0.4952
  545SOL    HW1 1634   1.624   1.426   1.222  1.1900 -0.0047 -0.8320
  545SOL    HW2 1635   1.603   1.601   1.241  1.8265  0.3258 -0.5477
  546SOL     OW 1636   0.083   0.152   2.917  0.2768  0.4267 -0.0521
  546SOL    HW1 1637   0.016   0.214   2.870  0.7401  0.7584 -0.1030
  546SOL    HW2 1638   0.140   0.200   2.988 -1.8371 -1.2349 -0.3960
  547SOL     OW 1639   2.328   0.479   0.038 -0.6035  0.6680  0.0106
  547SOL    HW1 1640   2.244   0.513   0.002  2.9808  0.8783  0.0939
  547SOL    HW2 1641   2.365   0.408   3.078 -1.7531 -2.5990 -1.3150
  548SOL     OW 1642   2.387   2.243   2.154  0.5562 -0.2655  0.5504
  548SOL    HW1 1643   2.341   2.319   2.205 -0.5192  1.0410  0.6189
  548SOL    HW2 1644   2.483   2.225   2.188  0.3292 -0.6804  2.7077
  549SOL     OW 1645   2.204   2.977   0.808  0.2904  0.0277  0.3129
  549SOL    HW1 1646   2.269   2.961   0.731  0.8962 -0.2007  1.3961
  549SOL    HW2 1647   2.160   2.893   0.847 -5.0405 -0.8679  1.4278
  550SOL     OW 1648   2.219   1.282   2.975 -0.0059 -0.2539 -0.2681
  550SOL    HW1 1649   2.246   1.182   2.968 -0.7210 -0.8306  0.2660
  550SOL    HW2 1650   2.201   1.310   3.069  3.2304 -1.5718 -3.1662
  551SOL     OW 1651   1.231   3.069   1.530  0.3968  0.5815  0.1402
  551SOL    HW1 1652   1.191   2.978   1.540  1.5720  1.9296 -1.3220
  551SOL    HW2 1653   1.161   0.033   1.519 -0.0631 -1.7287 -1.4293
  552SOL     OW 1654   2.815   2.486   3.002 -0.4337  0.0663 -0.0181
  552SOL    HW1 1655   2.878   2.513   2.925  2.1843 -0.7065 -0.1647
  552SOL    HW2 1656   2.727   2.538   2.996  0.7897 -1.0025  0.4096
  553SOL     OW 1657   0.860   0.023   0.687 -0.0985  0.1565  0.6542
  553SOL    HW1 1658   0.830   0.058   0.780 -0.8890  1.7433 -1.8379
  553SOL    HW2 1659   0.810   3.044   0.661 -0.2096 -1.0201 -0.0692
  554SOL     OW 1660   2.046   2.275   1.462  0.2041  0.4157  0.4548
  554SOL    HW1 1661   1.955   2.257   1.499 -1.6743 -0.7453  2.7603
  554SOL    HW2 1662   2.067   2.209   1.386 -1.7493 -1.0961  1.6895
  555SOL     OW 1663   1.484   2.524   1.885 -0.1758 -0.1132  0.2636
  555SOL    HW1 1664   1.541   2.507   1.967  1.3965  0.7095 -1.8624
  555SOL    HW2 1665   1.386   2.554   1.911  0.0393 -2.2395  0.1872
  556SOL     OW 1666   1.785   1.733   0.491  0.2672  0.2527 -0.3224
  556SOL    HW1 1667   1.751   1.771   0.579  1.4204 -2.0750  1.4998
  556SOL    HW2 1668   1.699   1.721   0.429 -0.9784 -2.3500 -0.3118
  557SOL     OW 1669   1.420   2.196   1.940  0.2321 -0.1059 -0.3552
  557SOL    HW1 1670   1.457   2.211   1.850 -3.9913 -0.3858  2.0957
  557SOL    HW2 1671   1.489   2.183   2.012  2.2522 -1.8198 -0.5956
  558SOL     OW 1672   0.019   0.437   2.066 -0.1700  0.5738  0.6788
  558SOL    HW1 1673   0.100   0.401   2.014  1.3000  0.5851 -0.7004
  558SOL    HW2 1674   0.047   0.502   2.141 -0.4471  1.4391 -1.0144
  559SOL     OW 1675   2.132   2.697   1.958 -0.3350 -0.2982  0.4710
  559SOL    HW1 1676   2.156   2.709   1.859  0.1265  0.4408  0.0971
  559SOL    HW2 1677   2.213   2.700   2.023 -1.4056 -1.0639  1.1969
  560SOL     OW 1678   0.418   0.040   3.075  0.2000  0.0130  0.3584
  560SOL    HW1 1679   0.382   3.089   2.993 -1.4308 -1.0200 -5.3601
  560SOL    HW2 1680   0.362   0.128   3.070 -1.8650 -1.0602 -2.2640
  561SOL     OW 1681   1.460   1.164   0.308 -0.5307  0.1287 -0.1019
  561SOL    HW1 1682   1.477   1.120   0.218  2.1401 -0.3661 -1.2929
  561SOL    HW2 1683   1.368   1.136   0.343 -2.1603 -1.9975  2.7491
  562SOL     OW 1684   0.851   1.151   2.406 -0.3727  0.3511 -0.0621
  562SOL    HW1 1685   0.788   1.198   2.467  0.0795 -0.1255 -1.3419
  562SOL    HW2 1686   0.916   1.093   2.463  0.6679  1.6960  1.6318
  563SOL     OW 1687   1.618   2.266   2.784  0.2373 -0.0028  1.1097
  563SOL    HW1 1688   1.532   2.213   2.772 -0.6636  0.8082 -0.4585
  563SOL    HW2 1689   1.604   2.351   2.838 -0.2726 -0.5499  2.5191
  564SOL     OW 1690   3.051   1.920   0.535  0.3674 -0.1983  0.4102
  564SOL    HW1 1691   0.025   1.961   0.481  3.9559  1.6072 -0.9448
  564SOL    HW2 1692   2.962   1.951   0.502  2.8470 -1.6030 -1.4726
  565SOL     OW 1693   0.993   2.821   2.803 -0.6057  0.1494 -0.0707
  565SOL    HW1 1694   0.916   2.794   2.741  2.2397 -2.4006  1.3343
  565SOL    HW2 1695   1.011   2.745   2.869  2.0609  2.8443  0.0497
  566SOL     OW 1696   1.665   2.977   2.635  0.0690 -0.1514  1.2743
  566SOL    HW1 1697   1.743   2.917   2.657 -3.1244  0.7979  0.8475
  566SOL    HW2 1698   1.590   2.988   2.703 -0.6531  0.5651 -0.1152
  567SOL     OW 1699   2.475   1.132   0.959  0.1276 -0.4765 -0.1359
  567SOL    HW1 1700   2.467   1.039   1.007  2.3533  0.2438  0.4996
  567SOL    HW2 1701   2.382   1.171   0.942  2.5387 -0.3872 -0.6582
  568SOL     OW 1702   2.061   1.392   2.761  0.4416  0.1191 -0.2329
  568SOL    HW1 1703   1.965   1.355   2.753 -3.1748 -0.6150  0.5116
  568SOL    HW2 1704   2.118   1.348   2.838 -0.3515 -1.9710 -0.9159
  569SOL     OW 1705   2.325   1.864   2.445  0.1715 -0.2197  0.2143
  569SOL    HW1 1706   2.423   1.892   2.460 -3.3058 -2.5083  1.2139
  569SOL    HW2 1707   2.277   1.941   2.399  1.4447 -0.0075  0.2580
  570SOL     OW 1708   3.010   2.562   1.945  0.1706  0.0756  0.0505
  570SOL    HW1 1709   2.976   2.571   2.040  1.5785  0.7722  0.4108
  570SOL    HW2 1710   3.015   2.463   1.924  0.5985 -1.1798 -1.7279
  571SOL     OW 1711   0.458   0.362   2.026 -0.2531 -0.4645 -0.3156
  571SOL    HW1 1712   0.445   0.341   2.124  0.3411  0.3267 -0.6093
  571SOL    HW2 1713   0.534   0.432   2.011 -2.2345  0.3732 -1.0422
  572SOL     OW 1714   0.974   1.814   1.062 -0.5531 -0.3842 -0.1859
  572SOL    HW1 1715   1.013   1.771   0.981 -2.3558  0.6499  1.6685
  572SOL    HW2 1716   0.880   1.840   1.037  2.6444  0.0861  3.5925
  573SOL     OW 1717   1.245   0.512   0.316  0.5111 -0.3814 -0.3798
  573SOL    HW1 1718   1.213   0.587   0.381  0.1906  2.2448 -2.0442
  573SOL    HW2 1719   1.241   0.550   0.219  0.8888  0.8471 -0.7503
  574SOL     OW 1720   0.584   2.928   0.317 -0.9729  0.4220 -0.1725
  574SOL    HW1 1721   0.585   3.023   0.276 -3.2424  1.0288 -0.7954
  574SOL    HW2 1722   0.663   2.912   0.381  2.0528 -1.5262  0.7257
  575SOL     OW 1723   0.103   1.373   1.439 -0.2712  0.2775  0.2011
  575SOL    HW1 1724   0.152   1.410   1.520  0.8277 -1.8722  0.0892
  575SOL    HW2 1725   0.156   1.380   1.354  0.7394  0.8863 -1.1681
  576SOL     OW 1726   2.468   0.410   1.860 -0.1611 -0.0911 -0.4220
  576SOL    HW1 1727   2.427   0.465   1.784  1.6005 -0.3534 -6.0555
  576SOL    HW2 1728   2.411   0.336   1.902  0.0985  1.0179  0.8286
  577SOL     OW 1729   2.887   1.670   1.725 -0.1394 -0.2536  0.1448
  577SOL    HW1 1730   2.876   1.623   1.821  0.5433 -0.3435  2.0073
  577SOL    HW2 1731   2.933   1.606   1.663 -1.4341  0.2092 -0.4895
  578SOL     OW 1732   1.244   0.018   2.213 -0.0778  0.1466 -0.3544
  578SOL    HW1 1733   1.344   0.042   2.195  3.1433 -0.4127 -0.0202
  578SOL    HW2 1734   1.228   3.022   2.210 -0.0082 -1.1675  1.8192
  579SOL     OW 1735   2.255   2.045   2.018  0.1117  0.1007  0.4636
  579SOL    HW1 1736   2.322   2.016   1.946 -0.8903  1.2320 -1.4864
  579SOL    HW2 1737   2.290   2.127   2.071  1.7022 -0.7126  1.2999
  580SOL     OW 1738   1.883   1.375   2.044  0.0333  0.2102  0.7568
  580SOL    HW1 1739   1.973   1.340   2.014 -1.2036  1.8647 -2.0472
  580SOL    HW2 1740   1.853   1.463   2.000 -0.0279 -1.9472 -2.3368
  581SOL     OW 1741   1.618   1.155   2.393 -0.1633  0.1676  0.7190
  581SOL    HW1 1742   1.590   1.164   2.296 -1.6315 -0.2717  0.2938
  581SOL    HW2 1743   1.708   1.196   2.410 -2.6647 -0.0363 -0.9945
  582SOL     OW 1744   2.974   2.295   1.854  0.0439  0.1785 -0.4429
  582SOL    HW1 1745   3.031   2.208   1.859  0.1133 -1.0330 -0.7296
  582SOL    HW2 1746   2.873   2.276   1.877 -1.7928 -0.2101  1.7547
  583SOL     OW 1747   1.683   0.920   0.692 -0.8573 -0.2033  0.1880
  583SOL    HW1 1748   1.783   0.937   0.679  1.6345  0.9682  1.3178
  583SOL    HW2 1749   1.635   0.988   0.745 -1.2799  0.2847 -2.3181
  584SOL     OW 1750   1.135   2.447   0.397 -0.1677  0.6738 -0.1268
  584SOL    HW1 1751   1.057   2.468   0.455  1.2605  0.0902  0.1293
  584SOL    HW2 1752   1.204   2.521   0.402 -0.5426 -1.9465  3.8841
  585SOL     OW 1753   0.106   2.751   0.037 -0.0775  0.4212 -0.5942
  585SOL    HW1 1754   0.030   2.816   0.017  1.5018 -2.2343 -1.2518
  585SOL    HW2 1755   0.203   2.778   0.032  2.1296 -1.5988 -1.1133
  586SOL     OW 1756   2.299   1.011   0.498  0.1885  0.0929  0.3332
  586SOL    HW1 1757   2.343   0.921   0.522 -0.9205 -2.9641 -0.3903
  586SOL    HW2 1758   2.366   1.092   0.506  1.7145  0.9777 -0.4702
  587SOL     OW 1759   0.170   1.381   0.106  0.1611  0.4570 -0.5511
  587SOL    HW1 1760   0.112   1.453   0.152  0.2977  0.0211  0.3820
  587SOL    HW2 1761   0.270   1.395   0.131 -0.2200 -0.0880 -1.9556
  588SOL     OW 1762   0.411   0.268   0.619 -0.7701 -0.1389  0.0678
  588SOL    HW1 1763   0.345   0.210   0.565 -1.9971 -1.0226  0.1489
  588SOL    HW2 1764   0.372   0.346   0.671  0.1566  1.5858  1.2260
  589SOL     OW 1765   1.470   0.040   0.725 -0.3926 -0.5807  0.3683
  589SOL    HW1 1766   1.387   0.041   0.780  1.5435 -2.0539  0.7965
  589SOL    HW2 1767   1.543   0.080   0.783  0.0892 -2.3766  1.8776
  590SOL     OW 1768   2.536   2.379   0.219  0.6465 -0.1112 -0.1605
  590SOL    HW1 1769   2.430   2.384   0.228  0.2027 -1.1196 -1.4664
  590SOL    HW2 1770   2.584   2.460   0.257  2.5198 -0.0877 -1.2930
  591SOL     OW 1771   0.246   2.319   2.139  0.0337 -0.1538 -0.1945
  591SOL    HW1 1772   0.190   2.340   2.222 -1.0721 -0.7500 -1.8050
  591SOL    HW2 1773   0.326   2.385   2.128 -2.8888  0.8989  1.9084
  592SOL     OW 1774   0.142   1.713   2.160  0.4845  0.1047  0.1706
  592SOL    HW1 1775   0.061   1.771   2.164 -1.3273 -0.9189 -0.7930
  592SOL    HW2 1776   0.193   1.714   2.245 -0.2549 -0.7569 -1.0846
  593SOL     OW 1777   1.417   1.762   1.535  0.2902 -0.0365  0.2571
  593SOL    HW1 1778   1.354   1.841   1.520 -1.3484  0.4945 -0.2478
  593SOL    HW2 1779   1.376   1.671   1.520 -1.1848 -2.1872  0.1357
  594SOL     OW 1780   0.530   1.205   2.761  0.0778  0.2654 -0.5188
  594SOL    HW1 1781   0.448   1.154   2.793  0.4476 -1.6710 -1.1568
  594SOL    HW2 1782   0.562   1.275   2.827 -0.1312  2.2746 -4.8235
  595SOL     OW 1783   1.639   0.670   0.802  0.5036  0.8435 -0.0253
  595SOL    HW1 1784   1.648   0.759   0.750 -0.2098 -0.3026 -1.2159
  595SOL    HW2 1785   1.542   0.650   0.828  0.8584  0.8424 -0.4703
  596SOL     OW 1786   0.398   1.127   1.217  0.1048 -0.2249  0.3511
  596SOL    HW1 1787   0.476   1.130   1.284  2.8063 -0.9804 -1.6027
  596SOL    HW2 1788   0.409   1.201   1.153 -2.4013  0.7370  1.9916
  597SOL     OW 1789   0.506   2.511   2.154  0.2243 -0.1962  0.2607
  597SOL    HW1 1790   0.560   2.425   2.163  3.4688 -0.2722  0.3898
  597SOL    HW2 1791   0.488   2.537   2.056  1.1820 -2.4091 -2.0141
  598SOL     OW 1792   2.367   2.458   2.306  0.9407  0.3651 -0.2153
  598SOL    HW1 1793   2.336   2.538   2.251 -0.0398  2.3306  0.8233
  598SOL    HW2 1794   2.448   2.479   2.364 -0.4753 -0.5271  1.1541
  599SOL     OW 1795   1.217   1.175   0.470 -0.1434 -0.2782 -0.1859
  599SOL    HW1 1796   1.149   1.248   0.474  3.4426 -2.2396 -0.8830
  599SOL    HW2 1797   1.299   1.200   0.524  2.6954  1.1050 -0.0565
  600SOL     OW 1798   1.517   0.520   0.315 -0.1792  1.2154  0.3688
  600SOL    HW1 1799   1.571   0.472   0.241  0.6811 -2.9494  4.5232
  600SOL    HW2 1800   1.416   0.495   0.321 -1.1824  0.9877  1.7859
  601SOL     OW 1801   0.512   0.363   1.657  0.9886 -0.1468  0.3022
  601SOL    HW1 1802   0.425   0.321   1.691 -3.4145 -1.4886  0.4626
  601SOL    HW2 1803   0.514   0.467   1.668  0.4233  2.4773  0.8237
  602SOL     OW 1804   0.665   2.209   0.706 -0.7234 -0.0612  0.5200
  602SOL    HW1 1805   0.711   2.258   0.786  0.6007  3.7893 -0.2028
  602SOL    HW2 1806   0.658   2.271   0.628 -0.1876 -1.1275  0.9227
  603SOL     OW 1807   0.783   2.719   2.675 -0.2466  0.3188  0.0890
  603SOL    HW1 1808   0.773   2.628   2.626 -2.9935 -2.1090  0.2175
  603SOL    HW2 1809   0.716   2.794   2.648 -2.0707  0.6567 -3.4049
  604SOL     OW 1810   0.689   2.343   0.251  0.0393 -0.1749 -0.0554
  604SOL    HW1 1811   0.783   2.313   0.235  2.5908  1.6970 -0.2608
  604SOL    HW2 1812   0.676   2.433   0.210 -0.9894 -1.5349 -0.6512
  605SOL     OW 1813   1.570   1.454   1.803  0.1664 -0.2289  0.2702
  605SOL    HW1 1814   1.638   1.504   1.861  0.7053 -1.2886 -1.6824
  605SOL    HW2 1815   1.525   1.383   1.853  1.0881 -0.0140 -0.8147
  606SOL     OW 1816   0.973   1.179   2.842 -0.2283  0.1517  0.3108
  606SOL    HW1 1817   0.905   1.162   2.775  1.2789  0.8007  1.8151
  606SOL    HW2 1818   0.998   1.276   2.840 -0.1883 -0.6722  3.3986
  607SOL     OW 1819   0.950   0.802   1.131  0.0170 -0.4329 -0.5999
  607SOL    HW1 1820   0.864   0.774   1.175 -1.0086 -0.3458  0.1073
  607SOL    HW2 1821   0.991   0.881   1.178  0.7813  1.6491 -0.3386
  608SOL     OW 1822   2.734   2.239   1.971 -0.0123  0.0180 -0.3701
  608SOL    HW1 1823   2.683   2.324   1.939 -1.5939  1.5446  0.2094
  608SOL    HW2 1824   2.719   2.215   2.069  0.3212 -3.5547 -0.9913
  609SOL     OW 1825   2.215   0.062   3.078  0.4752  0.2930 -0.2895
  609SOL    HW1 1826   2.197   0.093   0.064 -2.5300 -2.3349 -2.3646
  609SOL    HW2 1827   2.222   3.065   3.088  1.8720 -0.8200 -0.1039
  610SOL     OW 1828   0.320   2.423   1.768  0.0775 -0.2971 -0.0029
  610SOL    HW1 1829   0.323   2.502   1.835 -1.6980 -0.2999  2.7470
  610SOL    HW2 1830   0.367   2.441   1.679 -0.8040 -0.6316 -1.0184
  611SOL     OW 1831   1.450   1.548   1.043  0.2882  0.1791 -0.6686
  611SOL    HW1 1832   1.361   1.574   1.083  1.2610 -2.0132 -0.2750
  611SOL    HW2 1833   1.512   1.513   1.121 -0.0484 -1.5407 -0.0866
  612SOL     OW 1834   0.485   0.317   2.300  0.5008  0.0150 -0.0782
  612SOL    HW1 1835   0.494   0.416   2.292  1.6300 -1.9474 -0.2184
  612SOL    HW2 1836   0.574   0.286   2.335  1.7321  0.7834 -1.7598
  613SOL     OW 1837   2.588   1.059   0.274  0.3745  0.4790  0.5141
  613SOL    HW1 1838   2.540   1.119   0.338  2.3486 -1.5064 -2.4018
  613SOL    HW2 1839   2.684   1.045   0.304 -2.8574 -0.6054 -0.1632
  614SOL     OW 1840   1.713   0.226   1.791  0.0152 -0.0547  0.7184
  614SOL    HW1 1841   1.762   0.146   1.746  0.3013  1.3311  2.5138
  614SOL    HW2 1842   1.770   0.264   1.863 -0.6991 -2.3259  0.8059
  615SOL     OW 1843   0.862   1.400   1.618 -0.2328  0.1809  0.2375
  615SOL    HW1 1844   0.930   1.471   1.650  2.6955  3.9236 -2.0215
  615SOL    HW2 1845   0.867   1.391   1.518 -2.4434  0.9385  4.2844
  616SOL     OW 1846   1.621   2.076   3.062  0.5302  1.1959  0.5878
  616SOL    HW1 1847   1.610   2.173   3.043 -1.2045 -0.6587  0.5306
  616SOL    HW2 1848   1.698   2.044   3.007 -2.1928  0.0409  0.7835
  617SOL     OW 1849   2.216   2.937   0.369  0.2028 -0.2463  0.5594
  617SOL    HW1 1850   2.126   2.966   0.417  1.2002 -1.2491 -1.5656
  617SOL    HW2 1851   2.235   2.849   0.410 -2.9790  1.8192  0.3729
  618SOL     OW 1852   0.696   0.835   2.482  0.4421 -0.1579  0.4955
  618SOL    HW1 1853   0.767   0.911   2.475 -0.9701  0.4671  2.4509
  618SOL    HW2 1854   0.600   0.863   2.455 -1.1404  0.5786 -0.4556
  619SOL     OW 1855   2.473   1.464   0.767 -0.4797  0.1067 -0.3412
  619SOL    HW1 1856   2.518   1.370   0.779  2.0374 -1.3346 -2.8188
  619SOL    HW2 1857   2.432   1.473   0.677 -2.1244 -0.0430  0.4826
  620SOL     OW 1858   2.242   2.885   2.869  0.2592 -0.5034  0.1046
  620SOL    HW1 1859   2.228   2.792   2.834 -1.2802  0.8970  0.1629
  620SOL    HW2 1860   2.163   2.949   2.867  0.0864 -2.0109 -1.4821
  621SOL     OW 1861   2.337   1.570   2.876 -0.1865  0.3371  0.0615
  621SOL    HW1 1862   2.324   1.467   2.882  2.3966 -2.8332  1.0284
  621SOL    HW2 1863   2.361   1.606   2.968 -0.9530  0.5643 -1.5426
  622SOL     OW 1864   1.349   2.448   2.303  0.4109  0.3969  0.5551
  622SOL    HW1 1865   1.418   2.512   2.274 -3.2615 -1.8449  0.2385
  622SOL    HW2 1866   1.395   2.372   2.349 -0.3291 -1.4840 -2.5126
  623SOL     OW 1867   0.807   1.586   0.261 -0.0697 -0.5604 -0.5524
  623SOL    HW1 1868   0.844   1.676   0.303 -0.1111  1.3283  1.5821
  623SOL    HW2 1869   0.708   1.593   0.236 -0.5001 -0.9381  0.0743
  624SOL     OW 1870   0.282   0.274   3.068 -0.2327  0.3495 -0.0244
  624SOL    HW1 1871   0.306   0.295   0.059  2.0134  0.4645 -1.0943
  624SOL    HW2 1872   0.276   0.366   3.024  1.2405 -0.0455 -1.0432
  625SOL     OW 1873   0.569   1.603   0.555 -0.1490  0.6196 -0.4378
  625SOL    HW1 1874   0.553   1.672   0.479  1.0637 -0.4629  0.8998
  625SOL    HW2 1875   0.612   1.518   0.520 -0.9744  1.0331 -1.6706
  626SOL     OW 1876   2.824   2.823   2.645 -0.0719  0.1785  0.2272
  626SOL    HW1 1877   2.805   2.839   2.549  1.2179 -0.5496  1.5691
  626SOL    HW2 1878   2.836   2.911   2.694 -2.2200 -0.8347 -1.8319
  627SOL     OW 1879   1.448   1.538   2.712 -0.2572 -0.1489  0.2932
  627SOL    HW1 1880   1.542   1.507   2.692 -0.6430 -0.0457  1.0896
  627SOL    HW2 1881   1.422   1.524   2.808 -0.1331  0.6285  3.6459
  628SOL     OW 1882   0.290   0.568   2.518  0.3017  0.7482  0.0233
  628SOL    HW1 1883   0.375   0.583   2.459  0.0315 -2.8008  0.2712
  628SOL    HW2 1884   0.319   0.542   2.613  0.8186 -2.5709 -0.4023
  629SOL     OW 1885   0.514   2.913   2.009 -0.0827  0.2393 -0.5499
  629SOL    HW1 1886   0.570   2.980   1.953  2.1926  1.1354 -1.4376
  629SOL    HW2 1887   0.494   2.939   2.103 -2.1360  0.3533  2.2198
  630SOL     OW 1888   1.662   1.087   1.755 -0.2099  0.0432 -0.0885
  630SOL    HW1 1889   1.739   1.082   1.692  1.6629 -0.8243  2.3752
  630SOL    HW2 1890   1.689   1.033   1.836  1.6704  1.2355 -0.2951
  631SOL     OW 1891   2.126   0.906   0.325  0.6670 -0.1643 -0.4528
  631SOL    HW1 1892   2.164   0.814   0.300  2.5049 -0.1400 -0.7948
  631SOL    HW2 1893   2.181   0.948   0.398 -0.8281 -0.7242  0.2842
  632SOL     OW 1894   2.238   0.338   2.151 -0.3143  0.1564 -0.0618
  632SOL    HW1 1895   2.297   0.392   2.216  0.6076  0.7258 -0.3247
  632SOL    HW2 1896   2.143   0.319   2.194  0.6587  1.1117  2.8467
  633SOL     OW 1897   0.776   2.651   0.447 -0.4514  0.4301 -0.2351
  633SOL    HW1 1898   0.842   2.680   0.372  0.6274  2.0023 -0.6935
  633SOL    HW2 1899   0.716   2.583   0.407 -0.2114  0.7414 -0.3318
  634SOL     OW 1900   1.367   2.565   2.703 -0.6156 -0.4358  0.6996
  634SOL    HW1 1901   1.291   2.511   2.665  2.9667 -0.0738  0.6173
  634SOL    HW2 1902   1.360   2.664   2.674  0.3174 -0.2999  2.1859
  635SOL     OW 1903   2.378   0.265   2.966 -0.5565  0.8985 -0.0953
  635SOL    HW1 1904   2.478   0.236   2.957  2.9504  1.1902 -0.0900
  635SOL    HW2 1905   2.315   0.187   2.989 -2.3687 -1.5269 -0.7251
  636SOL     OW 1906   0.681   1.070   0.825  0.0827  0.6418  0.1501
  636SOL    HW1 1907   0.603   1.025   0.784  2.9932  0.3640 -1.4702
  636SOL    HW2 1908   0.756   1.004   0.836  2.6505  0.0012 -0.4509
  637SOL     OW 1909   0.144   2.027   0.946  0.2170 -0.2800  0.0462
  637SOL    HW1 1910   0.145   2.047   1.047  0.2898 -0.2253  2.1684
  637SOL    HW2 1911   0.233   2.052   0.900  2.9266 -0.2335 -2.8322
  638SOL     OW 1912   0.703   0.081   3.056 -0.0725  0.3397  0.1430
  638SOL    HW1 1913   0.619   0.057   0.009 -1.3548  1.1578 -1.6336
  638SOL    HW2 1914   0.779   0.113   0.006 -1.4738  2.7039 -0.9372
  639SOL     OW 1915   1.577   1.703   0.334 -0.1558  0.0387 -0.3237
  639SOL    HW1 1916   1.510   1.686   0.412  0.2936  0.7715 -0.8405
  639SOL    HW2 1917   1.540   1.765   0.256  0.4210 -1.1852  0.5291
  640SOL     OW 1918   1.836   2.573   0.874  0.3702 -0.3479 -0.0493
  640SOL    HW1 1919   1.808   2.497   0.808 -0.0126  1.3208  0.3325
  640SOL    HW2 1920   1.789   2.656   0.840 -0.0587 -0.1993  2.0320
  641SOL     OW 1921   0.123   2.924   0.440  0.1089 -0.2345 -0.1039
  641SOL    HW1 1922   0.095   2.851   0.377 -1.2441  3.4048  0.8698
  641SOL    HW2 1923   0.224   2.928   0.466 -0.4176 -0.6503  0.3959
  642SOL     OW 1924   0.724   0.307   1.804  0.2723  0.1363 -0.2545
  642SOL    HW1 1925   0.639   0.321   1.751 -1.2163  1.4658  0.8625
  642SOL    HW2 1926   0.743   0.384   1.871  0.4810 -1.2176  1.8061
  643SOL     OW 1927   0.520   2.065   2.198  0.1759 -0.6872  0.2350
  643SOL    HW1 1928   0.449   2.086   2.127 -0.7128 -2.5379  0.4690
  643SOL    HW2 1929   0.596   2.018   2.152  2.7294 -0.1600 -0.9798
  644SOL     OW 1930   0.741   2.906   0.580 -0.3706 -0.0227  0.4298
  644SOL    HW1 1931   0.653   2.871   0.614 -1.8291  0.4604  0.8513
  644SOL    HW2 1932   0.796   2.833   0.530 -1.1772 -2.3215 -1.4005
  645SOL     OW 1933   1.090   1.822   0.120 -0.1924 -0.0780  0.2320
  645SOL    HW1 1934   1.135   1.918   0.123 -2.4214  2.8431 -1.3186
  645SOL    HW2 1935   1.157   1.751   0.144 -0.3719 -0.7836  1.0428
  646SOL     OW 1936   0.635   1.377   0.061  0.1975 -0.2748  0.3841
  646SOL    HW1 1937   0.719   1.323   0.090 -1.0521 -1.9204  0.6671
  646SOL    HW2 1938   0.558   1.389   0.133 -0.3402  0.4918 -0.3034
  647SOL     OW 1939   1.065   0.082   1.099  0.2327 -0.0747 -0.0209
  647SOL    HW1 1940   1.071   0.173   1.148 -2.5265  2.5561  0.3324
  647SOL    HW2 1941   1.052   0.009   1.165 -0.8273  0.4071  2.7547
  648SOL     OW 1942   2.745   0.067   1.861  0.1119  0.2506  0.2317
  648SOL    HW1 1943   2.739   0.166   1.864  0.8209 -3.0904 -1.6423
  648SOL    HW2 1944   2.829   0.022   1.898  1.3039  1.1650  1.0196
  649SOL     OW 1945   0.718   1.946   2.791  0.3780 -0.0584  0.4894
  649SOL    HW1 1946   0.785   1.964   2.718  2.9162  3.0075 -1.0293
  649SOL    HW2 1947   0.751   1.999   2.874 -0.1739  0.0903  0.6046
  650SOL     OW 1948   0.241   1.877   1.678 -0.6890 -0.4500 -0.0673
  650SOL    HW1 1949   0.277   1.970   1.679  0.1243 -2.6302 -0.5990
  650SOL    HW2 1950   0.306   1.816   1.727  1.8664  1.3832  0.7233
  651SOL     OW 1951   0.923   0.213   0.103 -0.1285 -0.1332  0.2752
  651SOL    HW1 1952   1.009   0.190   0.145  0.6283  0.5622 -0.3383
  651SOL    HW2 1953   0.869   0.273   0.165 -0.1434 -1.5727  1.3107
  652SOL     OW 1954   2.669   2.143   0.278  0.1811  0.2692  0.0054
  652SOL    HW1 1955   2.669   2.102   0.183 -3.0972  0.1247  0.3139
  652SOL    HW2 1956   2.625   2.232   0.267 -0.8579 -0.3722  0.8573
  653SOL     OW 1957   3.094   0.179   0.867  0.0225  0.4151  0.2548
  653SOL    HW1 1958   3.059   0.094   0.823  2.4439  1.3024  0.4809
  653SOL    HW2 1959   0.010   0.249   0.795 -1.4793  2.3258  0.2723
  654SOL     OW 1960   1.745   0.209   2.620 -0.1265 -0.1840  0.4875
  654SOL    HW1 1961   1.705   0.302   2.609 -0.4404 -1.2221 -2.4089
  654SOL    HW2 1962   1.715   0.158   2.534  1.2587 -1.4352 -0.9660
  655SOL     OW 1963   0.758   2.642   1.207  0.5083  0.2324 -0.5734
  655SOL    HW1 1964   0.796   2.591   1.288 -2.2177 -3.3194 -1.7784
  655SOL    HW2 1965   0.690   2.581   1.165  1.5673  2.3256  1.2234
  656SOL     OW 1966   0.119   0.423   1.574 -0.3345  0.1876  0.0842
  656SOL    HW1 1967   0.022   0.399   1.576  0.6494 -0.6074 -2.2503
  656SOL    HW2 1968   0.180   0.340   1.595 -0.3994 -2.1896  2.8319
  657SOL     OW 1969   2.463   0.621   2.027 -0.0059 -0.0924  0.2410
  657SOL    HW1 1970   2.527   0.613   2.108  1.7867 -1.5614 -1.9898
  657SOL    HW2 1971   2.453   0.530   1.983 -2.4234 -0.5969  2.1693
  658SOL     OW 1972   2.292   1.482   1.180 -0.4921  0.3291  0.7747
  658SOL    HW1 1973   2.374   1.534   1.145 -1.4326 -1.7042 -0.7562
  658SOL    HW2 1974   2.246   1.445   1.098 -0.4334 -1.1360  0.8452
  659SOL     OW 1975   2.482   3.050   2.825 -0.2084 -0.0289  0.7667
  659SOL    HW1 1976   2.408   2.999   2.870 -1.2556  1.2040  0.7422
  659SOL    HW2 1977   2.531   0.011   2.886 -0.8920  0.0102 -0.3300
  660SOL     OW 1978   1.364   1.478   2.976 -0.3394 -0.0580 -0.4279
  660SOL    HW1 1979   1.392   1.530   3.060 -3.2655  0.6935 -0.7928
  660SOL    HW2 1980   1.392   1.379   2.982  0.5412  0.0041  0.3336
  661SOL     OW 1981   2.872   2.466   0.856  0.3286  0.0031 -0.4299
  661SOL    HW1 1982   2.929   2.382   0.855 -2.0022 -0.9472  0.1942
  661SOL    HW2 1983   2.786   2.440   0.904 -2.6244  1.5209  1.3356
  662SOL     OW 1984   0.646   0.685   0.338 -0.1510  0.3395 -0.0244
  662SOL    HW1 1985   0.738   0.649   0.314 -0.1257  0.7177  1.2911
  662SOL    HW2 1986   0.654   0.745   0.419  0.4269 -0.6672 -2.0331
  663SOL     OW 1987   1.226   2.051   0.197 -0.3917  0.2603  0.1244
  663SOL    HW1 1988   1.289   2.134   0.182 -2.8966 -3.8457  1.3205
  663SOL    HW2 1989   1.195   2.053   0.294 -1.5839  1.1389  0.5290
  664SOL     OW 1990   0.710   2.350   1.669 -0.2447  0.2989  0.5521
  664SOL    HW1 1991   0.620   2.397   1.648 -0.4826  2.2604  0.2355
  664SOL    HW2 1992   0.703   2.243   1.657 -2.8568 -3.7787 -0.6324
  665SOL     OW 1993   2.247   2.018   1.639  0.0133 -0.5057  0.9529
  665SOL    HW1 1994   2.197   2.092   1.682 -0.7889 -1.0412  0.2537
  665SOL    HW2 1995   2.180   1.958   1.590 -1.5394 -1.8926 -1.8286
  666SOL     OW 1996   0.435   2.732   0.218  0.4447 -0.0644  0.0078
  666SOL    HW1 1997   0.504   2.798   0.258  1.1770  2.6647  1.3532
  666SOL    HW2 1998   0.423   2.746   0.115  0.7287  0.3043 -2.5924
  667SOL     OW 1999   2.165   1.679   1.764  0.3267 -0.0197 -0.0916
  667SOL    HW1 2000   2.151   1.617   1.685 -1.6195  0.4819  0.7100
  667SOL    HW2 2001   2.091   1.752   1.763  0.6093 -1.8209 -2.7989
  668SOL     OW 2002   0.434   0.975   2.482  0.6087 -0.4638  0.3881
  668SOL    HW1 2003   0.433   1.076   2.488  0.5918  0.1407 -1.0591
  668SOL    HW2 2004   0.413   0.950   2.385 -0.3180  1.8179 -0.7973
  669SOL     OW 2005   1.886   2.096   2.336 -0.7504  0.2440 -0.6039
  669SOL    HW1 2006   1.814   2.029   2.359  0.3653 -0.3609  0.0544
  669SOL    HW2 2007   1.970   2.044   2.300  5.0249 -3.4606 -2.4768
  670SOL     OW 2008   2.335   2.373   3.063  0.3629 -0.1812 -0.0887
  670SOL    HW1 2009   2.386   2.292   3.027 -1.4061  0.6443  1.1215
  670SOL    HW2 2010   2.238   2.342   3.061 -0.8141 -0.0680 -0.8798
  671SOL     OW 2011   0.665   1.116   1.312  0.3760  0.1963  0.1230
  671SOL    HW1 2012   0.733   1.190   1.324  2.1326 -2.6151 -1.8876
  671SOL    HW2 2013   0.670   1.046   1.378 -1.5883 -1.7689 -2.5509
  672SOL     OW 2014   2.532   0.902   2.336  0.5612  0.6517  0.3096
  672SOL    HW1 2015   2.613   0.948   2.300 -1.8247 -0.1299  1.9094
  672SOL    HW2 2016   2.497   0.953   2.417  1.6072  0.2345 -0.0886
  673SOL     OW 2017   2.668   2.183   2.224  0.1443 -0.0870  0.4293
  673SOL    HW1 2018   2.676   2.083   2.240  0.3512  0.5714 -0.2555
  673SOL    HW2 2019   2.698   2.232   2.307  1.4353 -1.7205  1.5525
  674SOL     OW 2020   1.247   2.771   2.375  0.2871  0.2190  0.0481
  674SOL    HW1 2021   1.330   2.800   2.431  3.4616  1.5301  0.1091
  674SOL    HW2 2022   1.190   2.700   2.416  4.0336  0.5344  1.0926
  675SOL     OW 2023   0.732   0.909   1.488 -0.4823 -0.1441  0.3315
  675SOL    HW1 2024   0.794   0.860   1.559  2.1378 -3.3890 -0.7770
  675SOL    HW2 2025   0.648   0.947   1.526  0.6434 -2.8446 -1.6481
  676SOL     OW 2026   1.899   1.094   0.310 -0.0977 -0.2076 -0.2496
  676SOL    HW1 2027   1.819   1.043   0.349  1.4803 -0.9438  2.5342
  676SOL    HW2 2028   1.981   1.035   0.310  2.0233  2.6750 -0.1632
  677SOL     OW 2029   2.848   1.634   2.971 -0.1311 -0.1663  0.2111
  677SOL    HW1 2030   2.834   1.552   2.915 -0.4367  3.3987  0.8609
  677SOL    HW2 2031   2.941   1.674   2.956 -0.2742 -1.6916 -0.5663
  678SOL     OW 2032   0.108   2.128   1.198 -0.1779 -0.5290  0.1844
  678SOL    HW1 2033   0.006   2.107   1.204 -2.1875 -0.8325 -0.7922
  678SOL    HW2 2034   0.124   2.230   1.199 -3.1299  0.4425  0.5243
  679SOL     OW 2035   2.018   2.412   0.621  0.2686 -0.1148 -0.3156
  679SOL    HW1 2036   1.996   2.323   0.674 -0.1713 -2.0059  0.9762
  679SOL    HW2 2037   2.088   2.470   0.658 -2.5833 -2.1925  3.8264
  680SOL     OW 2038   0.318   2.649   2.267 -0.1275  0.0123 -0.4677
  680SOL    HW1 2039   0.351   2.747   2.269  0.1788  0.5076 -2.4626
  680SOL    HW2 2040   0.378   2.601   2.198  1.1117  0.0329 -0.5985
  681SOL     OW 2041   2.972   1.241   1.462  0.5623 -0.1978 -0.5667
  681SOL    HW1 2042   3.058   1.286   1.441 -0.7127 -3.1332  1.7872
  681SOL    HW2 2043   2.901   1.309   1.486 -0.5758  2.6163  0.1971
  682SOL     OW 2044   0.455   1.928   1.175  0.4171 -0.0866  0.2896
  682SOL    HW1 2045   0.529   1.857   1.194  0.8463 -1.4295  3.1853
  682SOL    HW2 2046   0.367   1.882   1.143  0.6802  2.1116  0.2371
  683SOL     OW 2047   2.522   1.412   1.396 -0.3173 -0.0841  0.2747
  683SOL    HW1 2048   2.518   1.390   1.299 -0.9602  2.0134 -1.2149
  683SOL    HW2 2049   2.469   1.499   1.398  4.1902 -1.1230  0.9601
  684SOL     OW 2050   2.783   1.502   0.087  0.5468  0.0157 -0.0928
  684SOL    HW1 2051   2.871   1.451   0.095  0.2112  0.4496  1.3952
  684SOL    HW2 2052   2.784   1.553   3.106  1.8631  0.8101  0.1139
  685SOL     OW 2053   0.944   0.921   0.234  0.7806  0.5916 -0.3538
  685SOL    HW1 2054   0.883   0.981   0.178  3.2692 -1.9739  2.1644
  685SOL    HW2 2055   1.031   0.914   0.185  0.8836  0.8068  1.5701
  686SOL     OW 2056   0.240   0.227   1.011 -0.4513 -0.6402 -0.3650
  686SOL    HW1 2057   0.228   0.230   1.111 -0.8027  3.1193 -4.6078
  686SOL    HW2 2058   0.150   0.246   0.969 -0.7621 -1.3362 -0.0823
  687SOL     OW 2059   1.102   1.288   2.341  0.8498  0.3493 -0.0633
  687SOL    HW1 2060   1.007   1.274   2.383  0.2452 -1.0045  0.1213
  687SOL    HW2 2061   1.172   1.294   2.416  0.0833  1.3611 -2.2333
  688SOL     OW 2062   0.658   1.763   1.276 -0.0262 -0.1136 -0.4132
  688SOL    HW1 2063   0.761   1.775   1.274 -0.1785 -0.1960  0.6019
  688SOL    HW2 2064   0.623   1.723   1.361 -1.0012 -0.8792 -1.0415
  689SOL     OW 2065   1.756   0.813   1.060  0.7183 -0.3054  0.0202
  689SOL    HW1 2066   1.724   0.744   0.991  0.2486 -2.6793  2.8959
  689SOL    HW2 2067   1.750   0.772   1.152  3.0762 -2.1019 -0.0452
  690SOL     OW 2068   2.681   0.950   1.146  0.5684 -0.1565 -0.3315
  690SOL    HW1 2069   2.737   1.029   1.181  1.7313  1.3139 -0.5996
  690SOL    HW2 2070   2.726   0.861   1.145 -0.9566  2.3493  2.0866
  691SOL     OW 2071   0.298   2.091   1.993 -0.8453 -0.1375  0.1430
  691SOL    HW1 2072   0.274   2.168   2.055  0.4136 -0.3336  1.7398
  691SOL    HW2 2073   0.299   2.123   1.896  1.9646 -3.8795  1.1566
  692SOL     OW 2074   1.682   3.028   0.975 -0.2551  0.1906 -0.1351
  692SOL    HW1 2075   1.694   0.004   0.918  0.1105  0.5511  1.5709
  692SOL    HW2 2076   1.774   3.001   1.019 -0.8115  0.0055  0.5811
  693SOL     OW 2077   0.219   1.769   2.440  0.3620  0.1735 -0.1382
  693SOL    HW1 2078   0.243   1.851   2.494 -2.5828 -1.7887  0.3883
  693SOL    HW2 2079   0.125   1.745   2.471  0.3195  1.2581 -1.5456
  694SOL     OW 2080   2.227   0.616   1.088 -0.1707  0.0792 -0.4410
  694SOL    HW1 2081   2.262   0.659   1.172 -0.6041 -1.3736 -2.5327
  694SOL    HW2 2082   2.148   0.670   1.058  2.3820  1.7309  0.1005
  695SOL     OW 2083   1.035   1.143   1.476  0.0050  0.1223 -0.0154
  695SOL    HW1 2084   0.993   1.224   1.438  1.1754 -4.3858  0.6274
  695SOL    HW2 2085   1.051   1.076   1.402 -3.6793  1.0416  0.0077
  696SOL     OW 2086   1.601   2.934   0.601 -0.0337 -0.2006  0.5835
  696SOL    HW1 2087   1.546   3.007   0.635  2.0640  0.9672 -3.1294
  696SOL    HW2 2088   1.643   2.952   0.513  1.1543  0.9897  2.8175
  697SOL     OW 2089   0.810   0.074   0.949 -0.6106  0.0718 -0.2615
  697SOL    HW1 2090   0.777   0.165   0.926 -1.4564 -0.5652  0.6976
  697SOL    HW2 2091   0.894   0.085   1.008  0.9334  0.8123  1.2327
  698SOL     OW 2092   1.774   1.704   2.349  0.0155  0.3300  0.1361
  698SOL    HW1 2093   1.691   1.707   2.290  5.5584 -0.4618 -1.5272
  698SOL    HW2 2094   1.815   1.613   2.343  0.5194  0.8831 -0.7952
  699SOL     OW 2095   1.350   0.958   1.173 -0.0341 -0.4951 -0.2470
  699SOL    HW1 2096   1.376   1.047   1.131 -1.4926 -0.7039 -0.1312
  699SOL    HW2 2097   1.389   0.882   1.120 -1.8663  1.6808  0.0183
  700SOL     OW 2098   1.181   2.963   0.432  0.1309 -0.4235  0.3854
  700SOL    HW1 2099   1.115   3.010   0.367 -0.0164  2.0758 -2.0009
  700SOL    HW2 2100   1.213   2.872   0.400 -0.0021  0.8755  0.1120
  701SOL     OW 2101   2.412   2.658   2.625  0.4152 -0.0236 -0.4206
  701SOL    HW1 2102   2.337   2.646   2.693 -0.2580  2.5514 -1.8978
  701SOL    HW2 2103   2.487   2.711   2.664 -0.5096 -0.3481 -0.5529
  702SOL     OW 2104   1.098   0.319   0.473  0.6828  0.4529 -0.3027
  702SOL    HW1 2105   1.117   0.389   0.402  0.2853  0.2808  0.7947
  702SOL    HW2 2106   1.183   0.280   0.511  0.3996  0.8593  0.0553
  703SOL     OW 2107   2.574   0.263   2.153 -0.1360  0.0001  0.3512
  703SOL    HW1 2108   2.522   0.299   2.236  2.4108 -0.8363  0.1480
  703SOL    HW2 2109   2.570   0.319   2.069  0.9447  0.6105  1.0182
  704SOL     OW 2110   3.055   1.876   0.825  0.2834  0.3030  0.1246
  704SOL    HW1 2111   3.068   1.898   0.730 -1.7188  2.3401  0.9168
  704SOL    HW2 2112   0.031   1.915   0.878  0.1642  0.3720  1.6090
  705SOL     OW 2113   2.776   2.900   2.061 -0.3537  0.6204 -0.0962
  705SOL    HW1 2114   2.862   2.945   2.041 -1.3730 -0.4834  1.3451
  705SOL    HW2 2115   2.726   2.961   2.124 -0.3551 -1.6874  2.8112
  706SOL     OW 2116   2.590   2.378   0.900 -0.1555 -0.2941  0.1353
  706SOL    HW1 2117   2.577   2.366   0.800 -1.1973  0.6460 -1.2688
  706SOL    HW2 2118   2.513   2.337   0.952  2.0143 -1.3883  1.3390
  707SOL     OW 2119   0.969   2.308   1.774  0.1969  0.1219 -0.0121
  707SOL    HW1 2120   1.044   2.358   1.738 -2.7911  1.2170  2.1916
  707SOL    HW2 2121   0.879   2.336   1.732 -1.4958  1.0089  0.4278
  708SOL     OW 2122   0.025   2.848   2.194 -1.0382 -0.6217 -0.2958
  708SOL    HW1 2123   0.048   2.793   2.109 -1.0567 -1.2199  0.2383
  708SOL    HW2 2124   0.114   2.868   2.240 -1.6320 -0.1197 -1.7590
  709SOL     OW 2125   1.964   2.832   2.119  0.3518  0.7929 -0.3893
  709SOL    HW1 2126   2.027   2.760   2.088  1.2406  1.1327  1.8793
  709SOL    HW2 2127   1.938   2.900   2.048  1.0878  0.6596  0.6004
  710SOL     OW 2128   1.725   0.933   2.605  0.0034 -0.1014  0.1371
  710SOL    HW1 2129   1.806   0.904   2.546 -1.7504  0.8341 -1.4622
  710SOL    HW2 2130   1.691   1.029   2.584 -0.6747 -0.4238 -3.5039
  711SOL     OW 2131   0.839   1.874   0.034 -0.5998 -0.0261 -0.4318
  711SOL    HW1 2132   0.934   1.835   0.055 -2.5141 -1.5399 -2.2502
  711SOL    HW2 2133   0.777   1.799   0.010 -1.3135 -1.3368  2.1502
  712SOL     OW 2134   0.543   2.513   2.617  0.3163  0.3985  0.0343
  712SOL    HW1 2135   0.642   2.483   2.632  4.1908 -3.2440  1.2071
  712SOL    HW2 2136   0.477   2.436   2.604 -1.2925  2.5958  0.2829
  713SOL     OW 2137   1.688   1.619   2.959 -0.2948  0.1158 -0.3581
  713SOL    HW1 2138   1.689   1.707   2.905  0.2760  2.0660  1.1077
  713SOL    HW2 2139   1.739   1.625   3.050 -0.0473 -1.1397  3.0180
  714SOL     OW 2140   1.051   1.576   1.714 -0.1788  0.4662 -0.3519
  714SOL    HW1 2141   1.054   1.646   1.639  0.8314 -0.1227 -3.1610
  714SOL    HW2 2142   1.145   1.564   1.753 -0.4996  0.3715  1.1533
  715SOL     OW 2143   1.726   0.418   2.894  0.5272  0.0262 -0.8640
  715SOL    HW1 2144   1.706   0.489   2.824  0.7744 -1.5715 -0.5038
  715SOL    HW2 2145   1.825   0.409   2.902 -0.4441 -1.2648  0.3850
  716SOL     OW 2146   3.002   2.604   2.215 -0.4212  0.2663 -0.1034
  716SOL    HW1 2147   3.028   2.516   2.262  1.4988 -1.4927 -0.9472
  716SOL    HW2 2148   3.064   2.682   2.234 -1.5294 -0.4695  0.6377
  717SOL     OW 2149   2.748   0.534   0.978  0.1003 -0.1854 -0.4882
  717SOL    HW1 2150   2.809   0.607   1.013  1.3937 -1.3162 -2.0920
  717SOL    HW2 2151   2.651   0.548   1.003  0.4914 -0.6569  0.6039
  718SOL     OW 2152   0.803   1.533   2.681  0.4495 -0.0505  0.2630
  718SOL    HW1 2153   0.716   1.579   2.698  2.0335  2.6880 -3.1709
  718SOL    HW2 2154   0.822   1.557   2.581 -0.6458  0.1668 -2.7117
  719SOL     OW 2155   1.954   1.026   2.958  0.1757  0.2327  0.2874
  719SOL    HW1 2156   1.911   0.936   2.944 -1.4776  0.4044 -2.1547
  719SOL    HW2 2157   2.052   1.027   2.928  0.2431  2.4042  0.5949
  720SOL     OW 2158   1.033   0.453   0.917 -0.6913 -0.0469  0.0462
  720SOL    HW1 2159   1.027   0.430   1.018 -0.7928  0.7103  0.3082
  720SOL    HW2 2160   0.945   0.424   0.879  0.6279  1.1019  4.3657
  721SOL     OW 2161   2.578   0.069   0.745 -0.0836 -0.2280  0.6381
  721SOL    HW1 2162   2.579   0.169   0.763 -2.6884  0.7085 -0.3502
  721SOL    HW2 2163   2.592   0.046   0.643  0.4696  0.3629 -0.1847
  722SOL     OW 2164   2.188   0.717   2.568 -0.0479  0.2692 -0.1314
  722SOL    HW1 2165   2.157   0.630   2.605 -0.8971  1.0633 -0.9451
  722SOL    HW2 2166   2.282   0.742   2.584 -0.4810  0.0980 -1.9146
  723SOL     OW 2167   2.460   0.094   0.267 -0.1851 -0.1088  0.3401
  723SOL    HW1 2168   2.463   0.017   0.200  0.0511 -0.9609 -0.3039
  723SOL    HW2 2169   2.375   0.151   0.252  0.5340 -0.8359 -1.4576
  724SOL     OW 2170   0.850   1.523   2.134  0.8469  0.4612 -0.3449
  724SOL    HW1 2171   0.803   1.433   2.140  1.7247 -1.4888  0.8590
  724SOL    HW2 2172   0.834   1.563   2.043  1.7004 -0.0443  0.3788
  725SOL     OW 2173   1.720   0.191   1.196 -0.1412 -0.3685  0.3418
  725SOL    HW1 2174   1.715   0.280   1.148  2.0710 -1.1186  0.3263
  725SOL    HW2 2175   1.796   0.135   1.173 -0.4783  0.4273  2.6977
  726SOL     OW 2176   1.919   2.506   0.214 -0.4228  0.0662 -0.5090
  726SOL    HW1 2177   1.822   2.534   0.219  0.1119  1.3377  1.9962
  726SOL    HW2 2178   1.932   2.403   0.233  0.5039 -2.4513 -0.0890
  727SOL     OW 2179   1.677   1.486   1.524  0.5790  0.7639  0.4202
  727SOL    HW1 2180   1.618   1.446   1.595 -1.2605  0.9499  0.1012
  727SOL    HW2 2181   1.628   1.483   1.435 -0.3078  3.0047 -0.5799
  728SOL     OW 2182   2.393   2.588   1.444 -0.5494  0.1307  0.1510
  728SOL    HW1 2183   2.290   2.582   1.421 -1.8153  0.6791 -3.3465
  728SOL    HW2 2184   2.441   2.632   1.365  3.7184 -2.1975  0.5517
  729SOL     OW 2185   2.229   1.488   0.912 -0.4373 -0.3740  0.5087
  729SOL    HW1 2186   2.147   1.550   0.900  4.7172 -0.5580 -1.1629
  729SOL    HW2 2187   2.297   1.520   0.845 -1.4735  0.1500  1.0344
  730SOL     OW 2188   0.919   0.805   2.747 -0.5811 -0.1141  0.1402
  730SOL    HW1 2189   0.844   0.861   2.787  1.6245 -1.0122  2.7655
  730SOL    HW2 2190   0.970   0.759   2.819  1.9509 -0.1678  0.8585
  731SOL     OW 2191   0.315   0.079   0.812 -0.4304  0.3559  0.4592
  731SOL    HW1 2192   0.290   0.138   0.890  1.0583  1.1613  0.3655
  731SOL    HW2 2193   0.373   0.135   0.754 -0.7870 -0.6123  0.7839
  732SOL     OW 2194   1.426   0.705   0.527  0.5518  0.9468  0.2029
  732SOL    HW1 2195   1.377   0.743   0.445  1.4392  0.8528  0.1834
  732SOL    HW2 2196   1.408   0.606   0.546 -0.8968  0.3385  2.3834
  733SOL     OW 2197   0.783   2.305   1.185 -0.4916 -0.5085  0.1468
  733SOL    HW1 2198   0.884   2.321   1.167  0.5968  0.6321  2.2304
  733SOL    HW2 2199   0.742   2.224   1.138  1.2648 -0.5476  2.3712
  734SOL     OW 2200   0.376   2.546   0.402 -0.4739  0.1791  0.2617
  734SOL    HW1 2201   0.384   2.612   0.324 -1.7717 -0.0189 -0.3990
  734SOL    HW2 2202   0.295   2.573   0.453  5.4072 -0.2182 -2.5902
  735SOL     OW 2203   1.212   0.313   1.354 -0.1000  0.2796  0.1356
  735SOL    HW1 2204   1.150   0.264   1.413  2.0938  0.4775  0.4623
  735SOL    HW2 2205   1.288   0.250   1.319  2.2606  2.5692 -1.5770
  736SOL     OW 2206   2.075   2.290   3.096  0.5033  0.5379  0.6796
  736SOL    HW1 2207   2.013   2.230   0.043 -1.7036 -0.8246 -1.6614
  736SOL    HW2 2208   2.023   2.364   3.049 -0.0652  2.3107  0.4632
  737SOL     OW 2209   3.043   0.878   0.999  0.2866 -0.2640 -0.0774
  737SOL    HW1 2210   3.031   0.979   0.999  0.1251 -0.1541  0.6391
  737SOL    HW2 2211   3.090   0.841   0.918  2.3788 -0.1421  0.2367
  738SOL     OW 2212   2.336   2.715   2.128 -0.2988  0.0271 -0.4355
  738SOL    HW1 2213   2.437   2.703   2.118  1.4107 -1.0763  0.2463
  738SOL    HW2 2214   2.314   2.760   2.218 -0.8449  1.2692 -0.1026
  739SOL     OW 2215   1.203   2.131   3.014 -0.2486  0.4080 -0.6078
  739SOL    HW1 2216   1.287   2.103   2.962 -0.8584  0.7708 -0.4229
  739SOL    HW2 2217   1.194   2.129   0.011 -2.5997 -1.3758 -0.2917
  740SOL     OW 2218   1.412   0.164   1.225  0.2852 -0.2513  0.7175
  740SOL    HW1 2219   1.509   0.199   1.221  1.9378  4.5797 -2.0010
  740SOL    HW2 2220   1.412   0.068   1.182  1.8678 -3.3954 -0.4534
  741SOL     OW 2221   2.963   0.682   0.600  0.3927 -0.4964 -0.3067
  741SOL    HW1 2222   2.987   0.667   0.502 -0.1526 -0.7266  0.8397
  741SOL    HW2 2223   2.918   0.602   0.643  0.6317 -1.5081  0.9693
  742SOL     OW 2224   1.044   1.438   2.752 -0.2484 -0.6571  0.2051
  742SOL    HW1 2225   1.071   1.472   2.842  1.3975 -2.1051 -0.7212
  742SOL    HW2 2226   0.957   1.474   2.726  2.3758 -1.9766  1.1998
  743SOL     OW 2227   0.980   0.797   2.085 -0.5811  0.0200 -0.4784
  743SOL    HW1 2228   0.944   0.769   2.174  0.5631 -0.6780 -2.4841
  743SOL    HW2 2229   0.996   0.895   2.068  0.8649  1.5390  0.0481
  744SOL     OW 2230   1.939   0.415   1.367 -0.0213  0.0034 -0.0389
  744SOL    HW1 2231   1.894   0.435   1.277  3.2944 -0.6596 -3.3588
  744SOL    HW2 2232   1.971   0.321   1.366 -0.2644 -1.6293 -0.3305
  745SOL     OW 2233   1.598   1.168   1.405 -0.0514 -0.2006  0.2660
  745SOL    HW1 2234   1.634   1.207   1.315  1.9807 -2.9480 -2.4773
  745SOL    HW2 2235   1.664   1.158   1.477  0.8878 -0.4125 -2.9620
  746SOL     OW 2236   2.217   1.238   0.933  0.3283  0.2295 -0.0514
  746SOL    HW1 2237   2.223   1.337   0.914 -2.1438 -2.2050 -2.3094
  746SOL    HW2 2238   2.168   1.195   0.857 -0.9021  0.3813  2.1814
  747SOL     OW 2239   2.573   1.362   1.117  0.1298  0.0511  0.3311
  747SOL    HW1 2240   2.549   1.300   1.038 -1.1342  0.6386 -1.3673
  747SOL    HW2 2241   2.555   1.459   1.088 -1.1216 -0.2162 -0.1733
  748SOL     OW 2242   0.690   1.848   0.593 -0.4707  0.1850 -0.2994
  748SOL    HW1 2243   0.648   1.760   0.602  1.1929  1.1474 -0.3743
  748SOL    HW2 2244   0.706   1.872   0.493 -0.6256  0.1001 -1.4593
  749SOL     OW 2245   2.318   2.794   2.397  0.1544  0.5330  0.2489
  749SOL    HW1 2246   2.353   2.735   2.471 -1.0822  2.4847 -2.8776
  749SOL    HW2 2247   2.379   2.874   2.392 -0.3007 -3.0801  0.1944
  750SOL     OW 2248   2.399   0.584   0.750  0.4044 -0.1506  0.6923
  750SOL    HW1 2249   2.410   0.523   0.671  0.1783 -1.1009  0.8611
  750SOL    HW2 2250   2.298   0.592   0.763 -0.2039  0.9894  0.4377
  751SOL     OW 2251   2.278   2.666   0.425 -0.3705  0.1396 -0.4550
  751SOL    HW1 2252   2.358   2.709   0.381 -0.4923  0.3017 -0.1132
  751SOL    HW2 2253   2.250   2.586   0.369  0.0285 -1.3767  0.3520
  752SOL     OW 2254   0.132   2.950   0.840 -0.0356 -0.1960 -0.2906
  752SOL    HW1 2255   0.147   2.854   0.811  2.3708  1.8807 -1.8079
  752SOL    HW2 2256   0.209   3.008   0.813 -2.0623  0.2229 -2.9079
  753SOL     OW 2257   1.707   0.985   1.994 -0.4369  0.5338  0.2103
  753SOL    HW1 2258   1.697   1.075   2.047 -2.9174  0.3819  0.3737
  753SOL    HW2 2259   1.660   0.908   2.043 -1.9639 -3.3153 -1.0315
  754SOL     OW 2260   1.780   2.103   1.431  0.1616 -1.0116  0.2074
  754SOL    HW1 2261   1.824   2.109   1.525  3.1089 -0.0705  1.6685
  754SOL    HW2 2262   1.719   2.022   1.424  0.0215 -1.3124 -2.9181
  755SOL     OW 2263   2.655   0.863   0.842 -0.0654  0.2956  0.7078
  755SOL    HW1 2264   2.641   0.914   0.929  2.2236  1.8308  0.1305
  755SOL    HW2 2265   2.569   0.811   0.811  0.2391 -0.0495  0.9076
  756SOL     OW 2266   1.091   1.519   2.997  0.1002  0.3619  0.1024
  756SOL    HW1 2267   1.192   1.526   2.994 -0.1989 -1.7471  2.9771
  756SOL    HW2 2268   1.063   1.486   3.087 -0.9960  1.4546  0.3474
  757SOL     OW 2269   1.383   2.586   0.821  0.0411 -0.4513  0.2066
  757SOL    HW1 2270   1.430   2.633   0.894  0.7378  0.7451 -1.2736
  757SOL    HW2 2271   1.297   2.540   0.844 -3.2902 -0.6786 -1.3318
  758SOL     OW 2272   1.142   2.834   1.469  0.6078 -0.0786  0.2951
  758SOL    HW1 2273   1.046   2.808   1.491 -0.1274 -0.0631  0.9235
  758SOL    HW2 2274   1.196   2.748   1.455  0.4466 -2.3198 -0.1580
  759SOL     OW 2275   0.105   0.593   0.848  0.2860 -0.0728 -0.2420
  759SOL    HW1 2276   0.059   0.514   0.801  2.0008  2.1566 -1.6944
  759SOL    HW2 2277   0.077   0.679   0.803 -0.1716 -1.0309  0.7783
  760SOL     OW 2278   2.419   0.937   1.191 -0.0989  0.3739  0.5691
  760SOL    HW1 2279   2.523   0.937   1.167 -0.1751 -3.1735  1.7275
  760SOL    HW2 2280   2.395   1.027   1.233  0.0771 -0.7285 -3.0734
  761SOL     OW 2281   2.000   3.069   0.478  0.7788 -0.2429 -0.2283
  761SOL    HW1 2282   1.962   2.986   0.523  1.2351  1.8829  1.8500
  761SOL    HW2 2283   2.032   0.029   0.546 -2.3246 -0.6566 -0.0933
  762SOL     OW 2284   2.083   1.865   2.970  0.2056 -0.5153 -0.0606
  762SOL    HW1 2285   2.065   1.776   2.919 -1.1978 -4.6910  2.0033
  762SOL    HW2 2286   2.166   1.916   2.938 -0.7235  0.6538 -0.8143
  763SOL     OW 2287   0.537   1.626   1.506  0.1265  0.0842  0.0315
  763SOL    HW1 2288   0.566   1.679   1.588  0.0602  0.5959 -0.2429
  763SOL    HW2 2289   0.452   1.667   1.471 -0.3286  0.0403 -1.2497
  764SOL     OW 2290   3.047   2.123   2.728  0.0554  0.0400 -0.1023
  764SOL    HW1 2291   2.973   2.084   2.783  3.2438  0.8721  1.3120
  764SOL    HW2 2292   3.010   2.205   2.677  0.4026  0.6446 -0.2089
  765SOL     OW 2293   0.422   2.804   1.014 -0.5518 -0.5935 -0.3166
  765SOL    HW1 2294   0.473   2.893   1.004  0.3810  1.3217 -3.1104
  765SOL    HW2 2295   0.461   2.735   0.953 -1.5461 -2.2763  0.3052
  766SOL     OW 2296   3.064   2.360   2.347 -0.4768 -0.4918  0.9755
  766SOL    HW1 2297   0.060   2.356   2.371 -0.8406 -2.2936  0.7159
  766SOL    HW2 2298   3.032   2.272   2.297  0.3274 -1.6523 -3.6651
  767SOL     OW 2299   2.008   0.664   2.326 -0.2283 -0.1792 -0.1725
  767SOL    HW1 2300   2.062   0.715   2.256 -0.1737 -0.3729  1.6232
  767SOL    HW2 2301   2.051   0.685   2.416  0.3022 -3.0876 -2.9108
  768SOL     OW 2302   1.338   0.135   2.690  0.2065 -0.1172  0.1111
  768SOL    HW1 2303   1.259   0.129   2.758 -1.5842  0.7508 -1.3213
  768SOL    HW2 2304   1.417   0.173   2.742 -0.6362 -0.9971 -0.1715
  769SOL     OW 2305   0.022   2.580   0.910  0.3646  0.8295 -0.1839
  769SOL    HW1 2306   3.032   2.554   0.884  0.7360  0.1920 -1.9721
  769SOL    HW2 2307   0.030   2.657   0.982  1.5664  1.5095  0.2806
  770SOL     OW 2308   0.550   0.302   2.827 -0.3766  0.5668 -0.1200
  770SOL    HW1 2309   0.583   0.221   2.878 -1.1792 -0.1193  2.5151
  770SOL    HW2 2310   0.491   0.364   2.884 -1.3626  2.3280  0.1245
  771SOL     OW 2311   1.401   1.881   2.203  0.1527  0.2747 -0.5277
  771SOL    HW1 2312   1.401   1.967   2.150 -2.3554 -0.1699  2.4370
  771SOL    HW2 2313   1.318   1.825   2.183  0.7362 -0.0071 -2.3488
  772SOL     OW 2314   1.564   2.711   2.493 -0.2711  0.0223  0.2939
  772SOL    HW1 2315   1.518   2.761   2.563 -0.5036  0.6639  1.3170
  772SOL    HW2 2316   1.601   2.773   2.417  0.5190  1.9674  1.5114
  773SOL     OW 2317   1.602   0.735   1.558 -0.1823 -0.1070 -0.3008
  773SOL    HW1 2318   1.525   0.788   1.515 -1.5723 -0.5149 -1.4340
  773SOL    HW2 2319   1.590   0.733   1.656  0.1690  0.1756 -2.2153
  774SOL     OW 2320   1.021   0.402   1.182 -0.4894  0.1055 -0.5011
  774SOL    HW1 2321   1.115   0.382   1.218  0.3090 -0.9546 -2.2128
  774SOL    HW2 2322   0.966   0.431   1.261  1.1087  0.8874 -0.1969
  775SOL     OW 2323   1.991   2.991   2.785  0.3094  0.2910  0.2642
  775SOL    HW1 2324   1.904   3.038   2.800 -0.0894 -1.8905  0.0750
  775SOL    HW2 2325   1.970   2.905   2.737 -0.4158 -0.9178  0.4762
  776SOL     OW 2326   2.009   0.895   1.500 -0.2302  0.0056 -0.5821
  776SOL    HW1 2327   1.934   0.844   1.457  1.5598  0.3497 -1.8193
  776SOL    HW2 2328   2.069   0.835   1.561  0.4282 -1.9081  1.7901
  777SOL     OW 2329   2.814   1.341   2.149 -0.1563 -0.3652 -0.0022
  777SOL    HW1 2330   2.901   1.323   2.193  0.9838  2.6005 -1.6361
  777SOL    HW2 2331   2.745   1.266   2.165 -1.6338  0.1699 -1.1765
  778SOL     OW 2332   2.798   1.069   2.502  0.3733  0.0161  0.8645
  778SOL    HW1 2333   2.890   1.100   2.464  1.4822 -0.2286 -1.1760
  778SOL    HW2 2334   2.723   1.139   2.484 -0.5018 -1.1428  1.1444
  779SOL     OW 2335   0.066   0.932   3.020 -0.3636 -0.1579  0.8619
  779SOL    HW1 2336   0.137   0.907   3.090  0.6442 -0.5069  4.0372
  779SOL    HW2 2337   0.072   0.864   2.944  2.9012 -1.1223  0.3631
  780SOL     OW 2338   2.532   2.051   2.546  0.3229  0.1302 -0.2167
  780SOL    HW1 2339   2.613   2.066   2.494 -2.2970 -1.0941 -0.2064
  780SOL    HW2 2340   2.451   2.097   2.502 -0.7510 -1.3942  0.3263
  781SOL     OW 2341   2.686   1.102   1.917  0.8107 -0.2727  0.5259
  781SOL    HW1 2342   2.721   1.180   1.859  0.1750 -2.4226 -1.2132
  781SOL    HW2 2343   2.721   1.013   1.878 -0.1174 -0.9202 -0.3926
  782SOL     OW 2344   1.096   1.977   2.752 -0.7565 -0.4785 -0.2413
  782SOL    HW1 2345   1.084   1.881   2.775 -1.3955  2.3022 -0.2524
  782SOL    HW2 2346   1.137   2.022   2.831  0.1647 -2.6745  1.2363
  783SOL     OW 2347   1.034   2.595   1.156 -0.0342  0.2713 -0.7066
  783SOL    HW1 2348   1.113   2.647   1.128 -0.0066 -1.9827 -0.6761
  783SOL    HW2 2349   0.945   2.641   1.154  2.0813  0.9490 -1.2116
  784SOL     OW 2350   1.879   0.431   2.390  0.2577  0.1348  0.1459
  784SOL    HW1 2351   1.928   0.387   2.467 -0.6366  3.3219 -1.8903
  784SOL    HW2 2352   1.914   0.526   2.381  0.7985 -1.0720  1.6943
  785SOL     OW 2353   3.067   0.092   1.698 -0.0700  0.1185  0.3847
  785SOL    HW1 2354   3.025   0.169   1.648  1.0635 -1.9004 -1.4257
  785SOL    HW2 2355   3.008   0.012   1.690  0.1026  2.7468  1.2649
  786SOL     OW 2356   1.162   2.107   0.454 -1.0059  0.0432  0.6903
  786SOL    HW1 2357   1.070   2.116   0.493  1.3350  0.6689 -0.6414
  786SOL    HW2 2358   1.225   2.180   0.488  1.0313  0.9839 -1.9656
  787SOL     OW 2359   1.231   0.038   0.888 -0.0579 -0.0303 -0.4936
  787SOL    HW1 2360   1.185   3.072   0.831  0.4047 -0.6032 -1.6367
  787SOL    HW2 2361   1.195   0.041   0.985 -2.0817 -1.8736  2.9227
  788SOL     OW 2362   3.098   1.256   0.847 -0.1957  0.3683  0.0213
  788SOL    HW1 2363   0.014   1.347   0.805  0.4880  0.0853 -0.5280
  788SOL    HW2 2364   0.080   1.217   0.886  1.2144  0.6677  2.1813
  789SOL     OW 2365   2.346   0.813   2.148 -0.2339 -0.0413  0.0530
  789SOL    HW1 2366   2.361   0.729   2.089 -1.1119 -0.4964 -2.7307
  789SOL    HW2 2367   2.426   0.825   2.213 -0.2111 -2.0745  0.3176
  790SOL     OW 2368   0.995   0.335   2.969  0.3516 -0.2302  0.3856
  790SOL    HW1 2369   0.948   0.427   2.965 -2.0739 -2.5310  0.4735
  790SOL    HW2 2370   0.984   0.300   3.057 -0.5903  0.8649 -0.3420
  791SOL     OW 2371   0.022   3.055   3.103  0.2413 -0.0631  0.1804
  791SOL    HW1 2372   0.036   0.021   3.035  0.3712  0.1083 -1.3588
  791SOL    HW2 2373   0.076   3.075   0.080  0.6694  0.3702 -0.0753
  792SOL     OW 2374   1.548   0.767   1.840  0.1701  0.7848  0.1386
  792SOL    HW1 2375   1.554   0.672   1.878  1.6082  0.3345 -1.3795
  792SOL    HW2 2376   1.455   0.816   1.843 -0.7441 -0.2390  0.2537
  793SOL     OW 2377   2.964   0.321   1.067  0.0240  0.2908 -0.5729
  793SOL    HW1 2378   3.004   0.271   0.987 -1.5984  0.9838  1.5575
  793SOL    HW2 2379   2.944   0.418   1.040 -0.8661  1.9011 -0.7939
  794SOL     OW 2380   0.213   0.364   1.897  0.1567  0.2558 -0.1915
  794SOL    HW1 2381   0.308   0.360   1.929 -1.0579 -0.1980  0.4259
  794SOL    HW2 2382   0.206   0.334   1.802  0.5662  0.8272  0.3410
  795SOL     OW 2383   0.677   1.331   0.408 -0.0893 -0.2993 -0.6632
  795SOL    HW1 2384   0.624   1.244   0.412  1.7660 -0.5486  1.2191
  795SOL    HW2 2385   0.740   1.334   0.328  0.9764  0.6167  0.0863
  796SOL     OW 2386   2.979   1.137   2.985 -0.3607 -0.0480 -0.5646
  796SOL    HW1 2387   3.055   1.070   3.010  0.9882  1.0923 -0.6676
  796SOL    HW2 2388   2.961   1.196   3.065 -0.7475  0.7354 -2.7079
  797SOL     OW 2389   1.952   0.006   2.301  0.1152 -0.4194 -0.1075
  797SOL    HW1 2390   1.931   3.038   2.236 -0.1581 -0.9345 -0.7981
  797SOL    HW2 2391   1.977   0.089   2.255  0.8943 -0.6229 -0.5065
  798SOL     OW 2392   0.136   3.035   1.128  0.3509 -0.2449  0.3632
  798SOL    HW1 2393   0.129   3.026   1.031 -0.2839 -0.0783  1.5501
  798SOL    HW2 2394   0.071   0.003   1.160  0.3337  1.4602  0.8840
  799SOL     OW 2395   2.796   0.872   1.785 -0.4070 -0.1642  0.3284
  799SOL    HW1 2396   2.857   0.837   1.708  1.8362 -0.1698 -0.9374
  799SOL    HW2 2397   2.698   0.835   1.779 -1.6015  0.3382 -1.2680
  800SOL     OW 2398   3.084   1.595   0.194 -0.1273  0.2540  0.0580
  800SOL    HW1 2399   3.089   1.684   0.143 -0.0022  2.0011  1.5796
  800SOL    HW2 2400   3.029   1.598   0.277  1.5244  0.5582  1.2811
  801SOL     OW 2401   2.028   1.672   0.565  0.3088 -0.2360 -0.2357
  801SOL    HW1 2402   2.041   1.565   0.565 -0.4185 -2.4225 -2.1976
  801SOL    HW2 2403   1.932   1.698   0.530 -2.4436 -2.1482  1.9206
  802SOL     OW 2404   1.384   1.034   2.793  0.0266 -0.1000 -0.1200
  802SOL    HW1 2405   1.403   1.066   2.697  1.7922 -3.4489  0.6875
  802SOL    HW2 2406   1.394   0.935   2.797  0.7073 -1.4613 -0.7164
  803SOL     OW 2407   1.009   2.093   1.927 -0.4709  0.7471  0.0103
  803SOL    HW1 2408   0.993   2.175   1.865  1.1580 -0.9031  1.4736
  803SOL    HW2 2409   1.105   2.074   1.950 -2.4752 -0.8959  1.1901
  804SOL     OW 2410   1.368   2.262   0.823 -0.3168  0.2116 -0.1335
  804SOL    HW1 2411   1.338   2.164   0.841  1.7255 -1.1187 -0.4049
  804SOL    HW2 2412   1.353   2.283   0.722 -0.2715  3.5495 -1.8029
  805SOL     OW 2413   2.735   2.257   2.485  0.7951  0.3200  0.0051
  805SOL    HW1 2414   2.804   2.295   2.550  0.8675  2.3943  1.3950
  805SOL    HW2 2415   2.664   2.329   2.469 -0.3201 -0.3813 -0.1756
  806SOL     OW 2416   0.018   0.053   0.396 -0.2240 -0.0534 -0.0393
  806SOL    HW1 2417   3.021   0.062   0.420  1.5322  0.2074  3.2574
  806SOL    HW2 2418   0.044   3.063   0.419 -1.8882 -0.1325  0.0519
  807SOL     OW 2419   2.438   0.780   2.944  0.6042  0.1275  0.7379
  807SOL    HW1 2420   2.496   0.732   2.870  0.7834  1.4538  0.6728
  807SOL    HW2 2421   2.447   0.723   3.030 -1.7225  0.8771  0.8490
  808SOL     OW 2422   1.044   2.335   1.058  0.1923 -0.3572 -0.4030
  808SOL    HW1 2423   1.115   2.282   1.106 -0.1547 -2.1736  1.5588
  808SOL    HW2 2424   1.049   2.427   1.105  0.1074 -0.9490  0.6505
  809SOL     OW 2425   2.823   0.195   2.746  0.0940  0.1054 -0.0380
  809SOL    HW1 2426   2.849   0.101   2.726 -2.2761  2.4436  0.9748
  809SOL    HW2 2427   2.797   0.239   2.655 -1.4037  1.9716 -1.6126
  810SOL     OW 2428   1.615   1.365   0.578 -0.3535  0.8304  0.0923
  810SOL    HW1 2429   1.559   1.282   0.608  0.4957  2.3391  0.0531
  810SOL    HW2 2430   1.640   1.417   0.661 -0.2302 -0.3321 -3.0192
  811SOL     OW 2431   1.918   2.856   1.603 -0.2317 -0.0631 -0.0443
  811SOL    HW1 2432   1.845   2.836   1.535  2.3346  0.2496 -1.0028
  811SOL    HW2 2433   1.919   2.784   1.678  0.6530  2.6416  1.9549
  812SOL     OW 2434   1.662   2.611   0.296 -1.2656 -0.2806 -0.1767
  812SOL    HW1 2435   1.710   2.618   0.384  0.4881 -1.2893  1.8310
  812SOL    HW2 2436   1.664   2.704   0.252  0.9468 -2.3842  0.9633
  813SOL     OW 2437   1.209   0.667   2.125  0.4516  0.2160  0.2702
  813SOL    HW1 2438   1.121   0.709   2.093  1.7176 -1.0147 -0.0143
  813SOL    HW2 2439   1.193   0.581   2.180  3.4136 -0.1440 -0.6053
  814SOL     OW 2440   0.438   0.040   1.219  0.1534  0.5000  0.4888
  814SOL    HW1 2441   0.354   3.104   1.172 -1.4801  0.6478 -1.3639
  814SOL    HW2 2442   0.434   0.013   1.319 -0.0845  0.1848  2.0575
  815SOL     OW 2443   0.386   2.983   0.491 -0.2847 -0.2615  0.4588
  815SOL    HW1 2444   0.461   2.968   0.425  0.0285  0.7533  0.5823
  815SOL    HW2 2445   0.419   2.947   0.579  3.5566  2.1758 -0.1913
  816SOL     OW 2446   2.629   1.487   2.554 -0.1390  0.0092  0.5328
  816SOL    HW1 2447   2.538   1.517   2.584  1.3621  2.1747  0.0521
  816SOL    HW2 2448   2.693   1.557   2.582 -2.2162 -1.0844 -1.1933
  817SOL     OW 2449   1.170   0.102   0.088 -0.5157 -0.1078  0.2335
  817SOL    HW1 2450   1.235   0.159   0.147  1.7692 -1.5950  0.7376
  817SOL    HW2 2451   1.172   0.109   3.094  3.8499  1.0142 -1.0853
  818SOL     OW 2452   1.652   0.653   0.018  0.4217  0.1551 -0.5748
  818SOL    HW1 2453   1.643   0.717   0.098  1.1209  0.8126  3.3729
  818SOL    HW2 2454   1.640   0.550   0.044  0.3534 -2.7029 -1.3106
  819SOL     OW 2455   1.762   2.674   2.962  0.0646  0.4112  0.2772
  819SOL    HW1 2456   1.781   2.706   2.864 -0.5775 -0.1677  0.4000
  819SOL    HW2 2457   1.709   2.743   3.015  1.6760 -1.0732  1.1936
  820SOL     OW 2458   1.495   1.011   0.089  0.1781  0.3713 -0.1186
  820SOL    HW1 2459   1.466   0.913   0.095  0.0323 -0.0007 -1.0355
  820SOL    HW2 2460   1.592   1.013   0.056  0.8491  1.5132  1.4330
  821SOL     OW 2461   0.254   0.655   1.562 -0.1102 -0.0307  0.0127
  821SOL    HW1 2462   0.216   0.711   1.488  0.5075 -1.0338 -0.8562
  821SOL    HW2 2463   0.205   0.564   1.567  1.4477 -1.3333  1.0807
  822SOL     OW 2464   1.105   2.534   2.390 -0.3293 -0.1201  0.9089
  822SOL    HW1 2465   1.199   2.505   2.359  2.1391 -2.1281 -0.3287
  822SOL    HW2 2466   1.037   2.547   2.319 -0.6023  0.0595 -2.2423
  823SOL     OW 2467   0.198   1.428   2.149  0.1452  0.2584  0.3137
  823SOL    HW1 2468   0.191   1.529   2.154 -0.1480 -0.7288  0.5756
  823SOL    HW2 2469   0.286   1.396   2.184 -2.0273  0.4210  0.1496
  824SOL     OW 2470   1.756   2.955   1.954  0.3474 -0.1504  0.3460
  824SOL    HW1 2471   1.717   2.885   1.894  1.1384  4.2233 -1.3004
  824SOL    HW2 2472   1.696   3.037   1.965 -0.2769  0.1652  2.7589
  825SOL     OW 2473   0.868   1.281   0.193 -0.3455 -0.3154  0.2166
  825SOL    HW1 2474   0.936   1.354   0.177 -0.8664  1.4726 -0.3523
  825SOL    HW2 2475   0.872   1.205   0.122 -0.0984 -1.2093  0.5654
  826SOL     OW 2476   2.081   0.471   2.661  0.4021  0.2685 -0.0352
  826SOL    HW1 2477   2.027   0.456   2.750 -0.0835  0.8867 -1.4271
  826SOL    HW2 2478   2.076   0.387   2.598 -0.0528 -1.1845 -0.3207
  827SOL     OW 2479   0.513   2.099   2.925  0.0717 -0.1645 -0.0616
  827SOL    HW1 2480   0.611   2.091   2.939 -0.1681  3.1040  0.0168
  827SOL    HW2 2481   0.497   2.112   2.826  0.1129 -1.3347  3.5480
  828SOL     OW 2482   3.069   0.117   1.248  0.4849  0.7331  0.4829
  828SOL    HW1 2483   0.052   0.150   1.284  0.0180  0.6924 -0.8447
  828SOL    HW2 2484   3.020   0.197   1.201 -0.0249  0.5296  0.6332
  829SOL     OW 2485   1.140   1.281   1.187 -0.7466  0.3040  0.0776
  829SOL    HW1 2486   1.221   1.315   1.238 -1.2377 -0.9233 -0.4701
  829SOL    HW2 2487   1.100   1.341   1.120 -1.3481 -2.2712  0.5212
  830SOL     OW 2488   0.448   1.358   1.548 -0.3135  0.2014  0.4225
  830SOL    HW1 2489   0.527   1.428   1.544  0.5491  1.9526  1.7412
  830SOL    HW2 2490   0.393   1.370   1.464  0.7350 -0.2869 -0.4227
  831SOL     OW 2491   0.729   1.995   0.285  0.5019 -0.1604  0.0015
  831SOL    HW1 2492   0.715   1.985   0.185 -0.5386  0.0607  0.5678
  831SOL    HW2 2493   0.642   1.981   0.333 -2.6483 -0.5534 -1.2007
  832SOL     OW 2494   0.746   0.068   2.790  0.3686  0.4963  0.0552
  832SOL    HW1 2495   0.758   0.055   2.889  1.8637  0.2324 -2.9178
  832SOL    HW2 2496   0.681   0.003   2.749 -2.7255  0.2728 -1.0902
  833SOL     OW 2497   3.073   0.618   1.837 -0.6428 -0.3336  0.0970
  833SOL    HW1 2498   3.096   0.527   1.870  0.9007  2.3323 -0.5527
  833SOL    HW2 2499   3.037   0.678   1.913  0.9039 -0.5109  1.3978
  834SOL     OW 2500   0.138   0.558   1.131  0.1943  0.3758  0.3324
  834SOL    HW1 2501   0.186   0.635   1.174  2.0728 -3.6803  0.7563
  834SOL    HW2 2502   0.131   0.572   1.032  1.3959 -2.7358  2.5929
  835SOL     OW 2503   2.759   2.895   1.155  0.0330  0.1489 -0.7114
  835SOL    HW1 2504   2.756   2.966   1.089 -2.4063 -0.7706  0.1361
  835SOL    HW2 2505   2.678   2.841   1.163  0.9128 -1.6334 -3.3460
  836SOL     OW 2506   0.514   1.949   0.063 -0.6604  0.3787  0.4310
  836SOL    HW1 2507   0.456   2.011   0.125 -0.2960  0.4373  0.9255
  836SOL    HW2 2508   0.515   1.989   3.072 -1.2194 -1.0733 -2.2560
  837SOL     OW 2509   1.826   1.969   2.927 -0.4341  0.0996  0.6869
  837SOL    HW1 2510   1.777   1.916   2.852  1.5181 -0.6749 -2.2213
  837SOL    HW2 2511   1.918   1.923   2.945  1.4126 -0.6689 -0.1460
  838SOL     OW 2512   2.412   1.183   1.917  0.5263 -0.2741 -0.0634
  838SOL    HW1 2513   2.366   1.101   1.886 -0.3983  1.7480 -0.2372
  838SOL    HW2 2514   2.513   1.160   1.931 -1.2249  0.2664  0.4530
  839SOL     OW 2515   1.394   0.914   0.741  0.3616  0.1246  0.2309
  839SOL    HW1 2516   1.291   0.921   0.743 -0.8346  0.9413 -2.3163
  839SOL    HW2 2517   1.417   0.852   0.663 -3.1684  1.5398 -1.7133
  840SOL     OW 2518   1.780   0.480   1.162  0.1827 -0.5230 -0.2804
  840SOL    HW1 2519   1.838   0.509   1.085 -0.2089  0.5090  1.3648
  840SOL    HW2 2520   1.687   0.520   1.157 -1.5009 -0.1839  1.7216
  841SOL     OW 2521   0.477   2.881   0.714 -0.8197 -0.0307  0.0713
  841SOL    HW1 2522   0.534   2.929   0.783  1.2999 -1.5069  3.1667
  841SOL    HW2 2523   0.421   2.807   0.763  1.1016 -0.7617  0.4559
  842SOL     OW 2524   0.500   0.602   0.616  0.4081 -0.3174 -0.7520
  842SOL    HW1 2525   0.442   0.545   0.682  0.0198  0.7076 -0.9667
  842SOL    HW2 2526   0.464   0.601   0.519  2.0623  2.2610 -1.2800
  843SOL     OW 2527   0.499   0.903   1.854 -0.4309  0.2661 -0.8258
  843SOL    HW1 2528   0.526   0.985   1.802  0.5765  0.3401  1.2765
  843SOL    HW2 2529   0.429   0.923   1.924  1.1849  0.9612  0.4809
  844SOL     OW 2530   1.321   2.446   3.078  0.1267 -0.1140 -0.2283
  844SOL    HW1 2531   1.397   2.436   3.012 -0.4608  2.5794  0.9783
  844SOL    HW2 2532   1.229   2.443   3.031 -0.6885 -1.7129  1.6952
  845SOL     OW 2533   2.726   2.588   2.292  0.1300 -0.5229  0.0806
  845SOL    HW1 2534   2.816   2.559   2.258 -0.5622 -2.1712  0.7569
  845SOL    HW2 2535   2.662   2.614   2.219  2.6058 -1.1694  0.1678
  846SOL     OW 2536   1.646   2.105   2.552  0.5924 -0.4259  0.2400
  846SOL    HW1 2537   1.646   2.170   2.630 -0.1447  1.8105  3.6078
  846SOL    HW2 2538   1.736   2.062   2.529 -0.1881 -1.2295 -2.1991
  847SOL     OW 2539   2.013   2.770   2.417 -0.4458 -0.3832 -0.0523
  847SOL    HW1 2540   2.115   2.760   2.410 -0.4063 -0.5770 -2.3189
  847SOL    HW2 2541   1.980   2.798   2.324  1.2426  0.9034 -1.0571
  848SOL     OW 2542   0.615   0.279   0.458  0.6315 -0.6192 -0.1371
  848SOL    HW1 2543   0.538   0.284   0.522 -0.5708 -1.5570  0.2538
  848SOL    HW2 2544   0.698   0.251   0.509 -1.5342  0.6371  0.5626
  849SOL     OW 2545   0.641   2.867   1.442  0.1976  0.2249 -0.5818
  849SOL    HW1 2546   0.685   2.879   1.352  0.4736  0.3345  1.0812
  849SOL    HW2 2547   0.636   2.953   1.492 -3.1059 -2.0198 -2.1067
  850SOL     OW 2548   0.240   1.623   0.425 -0.3067  0.4139  0.3164
  850SOL    HW1 2549   0.277   1.714   0.401 -1.1106  0.1949  0.1025
  850SOL    HW2 2550   0.157   1.623   0.481  3.3570  0.2558 -2.8289
  851SOL     OW 2551   0.248   0.834   0.084  0.0836  0.1415 -0.3341
  851SOL    HW1 2552   0.272   0.917   0.144  0.2386  1.8199 -0.1111
  851SOL    HW2 2553   0.335   0.779   0.073  2.0293  1.2879 -0.9161
  852SOL     OW 2554   1.608   1.876   1.873 -0.2074 -0.2651  0.1573
  852SOL    HW1 2555   1.618   1.877   1.770  0.4415 -2.5572 -1.4136
  852SOL    HW2 2556   1.516   1.845   1.896  1.2691  1.7391 -0.8147
  853SOL     OW 2557   0.507   1.757   0.343  0.1822  0.2269 -0.4379
  853SOL    HW1 2558   0.542   1.746   0.245  0.2723  0.0252 -1.7792
  853SOL    HW2 2559   0.427   1.813   0.341  2.2694 -1.8522 -2.9882
  854SOL     OW 2560   1.845   1.090   1.552  0.0636 -0.7023 -0.3580
  854SOL    HW1 2561   1.901   1.009   1.539 -1.0509  0.9815  0.9834
  854SOL    HW2 2562   1.905   1.176   1.548  0.3525  4.0927 -1.7440
  855SOL     OW 2563   0.468   2.176   0.253 -0.1415  0.1988 -0.4033
  855SOL    HW1 2564   0.383   2.221   0.237  1.9444 -2.1291  3.7945
  855SOL    HW2 2565   0.550   2.227   0.212 -0.4418 -1.3335 -1.1982
  856SOL     OW 2566   2.973   3.060   1.957  0.4687  0.2776 -0.1395
  856SOL    HW1 2567   3.024   0.028   2.004  1.1572  0.8231  0.2358
  856SOL    HW2 2568   3.036   3.002   1.902 -2.4444 -0.2696 -1.2628
  857SOL     OW 2569   0.337   0.613   2.071  0.1153  0.0529  0.1324
  857SOL    HW1 2570   0.328   0.526   2.016  0.6519  1.4923  1.1448
  857SOL    HW2 2571   0.297   0.683   2.014  0.0394 -3.0747 -0.6554
  858SOL     OW 2572   2.644   1.861   2.281  0.6726  0.1407  0.6367
  858SOL    HW1 2573   2.588   1.780   2.316 -0.8223 -1.1134 -1.0502
  858SOL    HW2 2574   2.686   1.827   2.197 -0.7691  3.5101  1.2893
  859SOL     OW 2575   1.929   2.846   0.634  0.5015  0.4998  0.2692
  859SOL    HW1 2576   1.857   2.818   0.702 -0.9887 -1.0499 -0.8987
  859SOL    HW2 2577   2.013   2.785   0.646  1.3128 -0.0835  0.3285
  860SOL     OW 2578   1.843   0.237   0.183 -0.3965  0.1548 -0.2336
  860SOL    HW1 2579   1.902   0.193   0.110  0.0251  1.6585 -1.3538
  860SOL    HW2 2580   1.765   0.289   0.143  1.0956  1.3263  0.6002
  861SOL     OW 2581   0.366   0.488   0.806  0.0244 -0.3856  0.0320
  861SOL    HW1 2582   0.276   0.529   0.833  1.8979  1.8512  3.1319
  861SOL    HW2 2583   0.419   0.454   0.887 -1.1503 -2.1283  1.9679
  862SOL     OW 2584   1.770   0.501   1.712 -0.2757 -0.1433 -0.5373
  862SOL    HW1 2585   1.719   0.418   1.749  0.0342 -2.5609  0.1796
  862SOL    HW2 2586   1.743   0.525   1.616  0.6441  0.0965  0.0815
  863SOL     OW 2587   0.392   1.771   0.893  0.4982  0.0487 -0.3765
  863SOL    HW1 2588   0.375   1.846   0.834  1.7791 -1.2681 -0.3679
  863SOL    HW2 2589   0.490   1.770   0.925 -1.1375 -0.0675 -0.9623
  864SOL     OW 2590   2.497   3.060   1.895 -0.4811 -0.4137 -0.4169
  864SOL    HW1 2591   2.582   0.016   1.882 -0.5237 -0.8379 -3.0175
  864SOL    HW2 2592   2.507   2.988   1.827 -2.0323  2.5359  2.7238
  865SOL     OW 2593   1.366   0.581   1.340  0.5269  0.3141  0.8109
  865SOL    HW1 2594   1.340   0.598   1.436 -0.3486 -0.4206 -1.4345
  865SOL    HW2 2595   1.293   0.527   1.303  1.2449  5.5216  2.0193
  866SOL     OW 2596   2.678   2.520   0.451  0.2404  0.2151 -0.2202
  866SOL    HW1 2597   2.659   2.594   0.389 -0.2623 -0.8601  1.5906
  866SOL    HW2 2598   2.765   2.535   0.504 -1.8685  2.1307  0.1276
  867SOL     OW 2599   2.928   2.556   0.588  0.1791 -0.4285  0.2508
  867SOL    HW1 2600   2.904   2.515   0.680  0.8985 -2.2938 -0.3696
  867SOL    HW2 2601   2.963   2.649   0.606 -0.0013 -1.8589  2.5276
  868SOL     OW 2602   1.318   1.854   2.464  0.2043 -0.1895 -0.1642
  868SOL    HW1 2603   1.255   1.775   2.469  1.2984 -1.1736 -0.8809
  868SOL    HW2 2604   1.360   1.859   2.370  0.6671 -0.0166  1.9478
  869SOL     OW 2605   2.170   1.460   0.336  0.1378 -0.6351 -0.3967
  869SOL    HW1 2606   2.155   1.395   0.255 -0.5854 -0.7770 -1.1802
  869SOL    HW2 2607   2.110   1.436   0.413 -1.1972 -1.0620 -2.8555
  870SOL     OW 2608   2.532   1.705   0.499 -0.3068 -0.0273  0.3704
  870SOL    HW1 2609   2.455   1.774   0.497  1.6921  0.3596  1.0385
  870SOL    HW2 2610   2.573   1.690   0.407  1.3499  1.0127 -0.2875
  871SOL     OW 2611   2.990   0.738   1.598 -0.5189 -0.1734  0.4117
  871SOL    HW1 2612   3.071   0.790   1.562  1.2204  0.3167 -0.5940
  871SOL    HW2 2613   3.006   0.678   1.680 -1.0371  0.6579 -0.4709
  872SOL     OW 2614   0.574   1.734   2.710 -0.3767 -0.2136  0.1662
  872SOL    HW1 2615   0.629   1.814   2.742 -0.8332  0.9252 -2.5167
  872SOL    HW2 2616   0.495   1.707   2.772 -2.5794 -2.1421 -0.4730
  873SOL     OW 2617   0.406   2.670   1.919  0.4672 -0.6923  0.5068
  873SOL    HW1 2618   0.435   2.763   1.952  0.0128  0.7850  1.0547
  873SOL    HW2 2619   0.481   2.636   1.863  1.2557  2.9810 -1.7618
  874SOL     OW 2620   1.214   1.131   2.147  0.1089 -0.2582  0.3990
  874SOL    HW1 2621   1.154   1.185   2.210 -1.4711 -1.5532 -3.2860
  874SOL    HW2 2622   1.256   1.055   2.196  0.3393  1.4173 -2.2194
  875SOL     OW 2623   2.961   2.710   1.107 -0.2135  0.4827 -0.3876
  875SOL    HW1 2624   3.006   2.695   1.198 -0.6603  0.7530 -0.4723
  875SOL    HW2 2625   2.894   2.786   1.117  0.5767  0.3084 -2.2916
  876SOL     OW 2626   0.985   1.206   0.846  0.6343  0.0533  0.3704
  876SOL    HW1 2627   0.938   1.135   0.901 -0.7896 -3.1170 -0.1689
  876SOL    HW2 2628   0.923   1.237   0.770 -1.2792  1.7025 -1.6964
  877SOL     OW 2629   0.445   0.355   1.391 -0.5342 -0.0441 -0.6625
  877SOL    HW1 2630   0.472   0.338   1.489 -0.7833 -0.0138 -2.1420
  877SOL    HW2 2631   0.510   0.316   1.330 -1.4429  2.8606  0.0179
  878SOL     OW 2632   2.687   1.843   2.932  0.0682 -0.1933 -0.3009
  878SOL    HW1 2633   2.744   1.761   2.931 -3.0122  2.8830  0.1328
  878SOL    HW2 2634   2.622   1.841   2.857  0.1137  0.7967  4.4658
  879SOL     OW 2635   2.367   1.933   1.324 -0.1381 -0.1978 -0.0770
  879SOL    HW1 2636   2.374   1.988   1.408 -0.7707 -0.8917 -2.3682
  879SOL    HW2 2637   2.448   1.936   1.259  2.9384  1.0548 -2.1880
  880SOL     OW 2638   1.068   2.323   1.411 -0.7701  0.8509 -0.3650
  880SOL    HW1 2639   1.109   2.327   1.503  1.3363 -0.6302 -4.1243
  880SOL    HW2 2640   1.138   2.299   1.341 -1.8584  3.0241 -2.2336
  881SOL     OW 2641   1.328   1.979   1.248 -0.0164 -0.2439 -0.5504
  881SOL    HW1 2642   1.428   1.970   1.268 -1.3571 -1.7164 -0.8062
  881SOL    HW2 2643   1.304   1.905   1.185  0.2732 -0.2026  2.0293
  882SOL     OW 2644   2.150   1.648   2.375 -0.2180 -0.1429 -0.0722
  882SOL    HW1 2645   2.171   1.575   2.442 -0.2666 -0.1363 -2.3661
  882SOL    HW2 2646   2.198   1.737   2.387 -0.2281 -2.9150  0.0110
  883SOL     OW 2647   1.280   0.307   0.869  0.1730  0.1208 -0.3706
  883SOL    HW1 2648   1.210   0.358   0.927  0.3373 -2.6017  0.0600
  883SOL    HW2 2649   1.265   0.208   0.851 -0.2403 -3.1050  0.6022
  884SOL     OW 2650   0.208   2.719   0.758  0.2254 -0.3087  0.1285
  884SOL    HW1 2651   0.213   2.689   0.661  1.1452 -0.0718 -0.2089
  884SOL    HW2 2652   0.161   2.650   0.808 -0.5640  1.9880 -2.0686
  885SOL     OW 2653   1.013   1.048   1.975  0.0785 -0.0090 -0.0045
  885SOL    HW1 2654   1.030   1.040   1.872  1.7542  1.5390 -1.2168
  885SOL    HW2 2655   1.090   1.093   2.025  3.8159 -0.3522 -0.3989
  886SOL     OW 2656   1.156   0.964   2.947 -0.3857 -0.5074 -0.0910
  886SOL    HW1 2657   1.073   1.011   2.917  0.9247 -3.8619  2.3923
  886SOL    HW2 2658   1.236   1.003   2.893  1.7461  1.9714 -3.9625
  887SOL     OW 2659   1.693   0.166   0.829  0.4176  0.0879 -0.1501
  887SOL    HW1 2660   1.625   0.241   0.839 -0.3983 -0.8394  0.2814
  887SOL    HW2 2661   1.784   0.208   0.806  2.1448  4.3520 -2.3483
  888SOL     OW 2662   2.393   1.339   1.632 -0.0119  0.0055 -0.1983
  888SOL    HW1 2663   2.440   1.357   1.543 -1.9585 -0.4662  1.1361
  888SOL    HW2 2664   2.432   1.401   1.700  3.1563  3.7511 -0.8890
  889SOL     OW 2665   0.355   2.296   0.973 -0.1616 -0.6578  0.3279
  889SOL    HW1 2666   0.266   2.307   1.013  1.4525 -1.8817  0.5826
  889SOL    HW2 2667   0.372   2.342   0.886  0.8117 -1.8784  5.7752
  890SOL     OW 2668   1.315   2.333   0.570  0.3650 -0.1818 -0.1912
  890SOL    HW1 2669   1.407   2.370   0.543  0.0763  0.8751 -0.6936
  890SOL    HW2 2670   1.242   2.378   0.514 -1.2526  2.3689 -1.3131
  891SOL     OW 2671   2.772   0.562   2.590  0.7136  0.2105 -0.2255
  891SOL    HW1 2672   2.809   0.552   2.493  0.4416 -1.0701  0.3402
  891SOL    HW2 2673   2.765   0.661   2.622 -2.5013 -1.0759 -1.0405
  892SOL     OW 2674   0.134   2.374   1.496 -0.8238 -0.4145 -0.1033
  892SOL    HW1 2675   0.177   2.421   1.417 -3.1609  0.6873  0.1808
  892SOL    HW2 2676   0.201   2.380   1.574 -0.2642 -0.7986 -0.9478
  893SOL     OW 2677   1.152   0.384   1.731 -0.1033 -0.1431 -0.0093
  893SOL    HW1 2678   1.187   0.289   1.737 -1.7476  1.3891  0.4740
  893SOL    HW2 2679   1.214   0.435   1.796 -0.0807  1.1146 -0.2900
  894SOL     OW 2680   2.767   3.096   0.969  0.3624  0.0969 -0.2782
  894SOL    HW1 2681   2.739   0.054   1.046  0.5292  0.2621  1.2799
  894SOL    HW2 2682   2.710   3.104   0.885 -2.0228 -0.4171 -1.3142
  895SOL     OW 2683   1.969   1.785   2.142  0.1723  0.3292  0.3333
  895SOL    HW1 2684   1.926   1.745   2.226  1.4768  1.4928 -1.2605
  895SOL    HW2 2685   2.020   1.709   2.095 -0.9057 -2.0261 -0.1236
  896SOL     OW 2686   1.606   0.472   1.462 -0.0852  0.7101 -0.3994
  896SOL    HW1 2687   1.657   0.461   1.371  0.4486  0.4624  1.2833
  896SOL    HW2 2688   1.571   0.570   1.481 -0.5381  1.3140 -1.7556
  897SOL     OW 2689   0.611   1.512   1.835  0.1971 -0.2445  0.3613
  897SOL    HW1 2690   0.703   1.551   1.811 -0.3400  0.6020 -1.2532
  897SOL    HW2 2691   0.609   1.416   1.828  0.4705  2.9062  2.3710
  898SOL     OW 2692   1.980   2.060   1.882  0.1379  0.3487 -0.0634
  898SOL    HW1 2693   1.885   2.058   1.918 -0.7641 -0.0885 -0.2161
  898SOL    HW2 2694   2.049   2.061   1.951 -2.3954 -2.0364 -3.3955
  899SOL     OW 2695   1.779   2.055   0.743  0.0319  0.0313 -0.4480
  899SOL    HW1 2696   1.749   1.960   0.751  0.7498  1.0242 -0.0127
  899SOL    HW2 2697   1.737   2.099   0.656 -3.6829  1.2212 -1.7254
  900SOL     OW 2698   1.008   0.112   2.477  0.3553 -0.6984  0.3226
  900SOL    HW1 2699   0.998   0.048   2.557 -0.3975  0.2887  0.1528
  900SOL    HW2 2700   1.014   0.073   2.382  0.4213 -1.3718 -2.4320
  901SOL     OW 2701   1.118   1.481   2.152 -0.4785 -0.1374  0.1276
  901SOL    HW1 2702   1.022   1.504   2.141  0.9222  1.3102 -1.6943
  901SOL    HW2 2703   1.121   1.396   2.203  2.0436  0.3594 -0.8524
  902SOL     OW 2704   2.016   0.612   3.094  0.4483  0.1640  0.4073
  902SOL    HW1 2705   1.976   0.681   3.029  1.0959  3.3402  0.7673
  902SOL    HW2 2706   1.988   0.627   0.085  1.2887 -2.1129 -0.5637
  903SOL     OW 2707   1.882   0.980   2.371 -0.0810  0.2349  0.5815
  903SOL    HW1 2708   1.899   1.072   2.410  2.0820 -0.0464 -1.0739
  903SOL    HW2 2709   1.893   0.983   2.270  2.2166 -0.1971 -2.2350
  904SOL     OW 2710   2.065   1.026   1.828  0.1289  0.2555  0.2039
  904SOL    HW1 2711   1.990   0.978   1.776  0.6614  1.0984  1.3135
  904SOL    HW2 2712   2.104   1.108   1.781 -3.4212 -0.8490  0.3022
  905SOL     OW 2713   2.507   0.325   0.843 -0.0224 -0.1731  0.3739
  905SOL    HW1 2714   2.471   0.416   0.818  1.5683  0.4454 -2.7070
  905SOL    HW2 2715   2.473   0.306   0.938 -1.5999  1.4402  0.4302
  906SOL     OW 2716   2.852   1.557   0.582 -0.2522  0.5336  0.3130
  906SOL    HW1 2717   2.800   1.517   0.660  0.8784  0.2967 -1.8410
  906SOL    HW2 2718   2.797   1.589   0.502  0.7235 -0.4842  1.0836
  907SOL     OW 2719   1.344   0.189   0.533  0.3339 -0.1374  0.2727
  907SOL    HW1 2720   1.375   0.286   0.542  1.4321  0.8596 -0.6832
  907SOL    HW2 2721   1.393   0.122   0.594 -1.7157  0.3767  2.1097
  908SOL     OW 2722   1.610   2.492   2.114  0.3160 -0.3067  0.1288
  908SOL    HW1 2723   1.609   2.393   2.104  0.9999 -0.9140  0.4702
  908SOL    HW2 2724   1.692   2.517   2.166 -0.6378 -1.0661 -2.0094
  909SOL     OW 2725   2.545   0.803   1.815  0.0845  0.3987  0.0207
  909SOL    HW1 2726   2.479   0.883   1.817  2.1990  0.2405 -2.4722
  909SOL    HW2 2727   2.520   0.730   1.880  0.1367 -1.0078 -1.5542
  910SOL     OW 2728   1.242   0.266   2.494 -0.6292  0.5057  0.1105
  910SOL    HW1 2729   1.162   0.208   2.475  2.1584  0.8674 -2.7502
  910SOL    HW2 2730   1.293   0.230   2.578  1.4772  0.1309  2.0261
  911SOL     OW 2731   2.206   1.186   2.453  0.3595 -0.6325  0.6020
  911SOL    HW1 2732   2.213   1.135   2.362  1.3100 -1.3657 -0.1677
  911SOL    HW2 2733   2.276   1.167   2.527 -2.2613  0.0718  1.7106
  912SOL     OW 2734   2.834   2.184   1.373  0.4267 -0.8993  0.2716
  912SOL    HW1 2735   2.783   2.105   1.421  0.8151 -2.2481  1.1850
  912SOL    HW2 2736   2.890   2.239   1.436 -2.7048  0.6681 -2.1238
  913SOL     OW 2737   2.692   1.981   1.856 -0.0105  0.4847 -0.1138
  913SOL    HW1 2738   2.703   2.080   1.884 -0.5177  0.4056 -0.8131
  913SOL    HW2 2739   2.592   1.950   1.864 -1.6125 -1.8358 -0.1815
  914SOL     OW 2740   2.067   1.696   0.840 -0.3150  0.5154  0.2369
  914SOL    HW1 2741   2.131   1.776   0.862  0.6693  1.7003  0.2186
  914SOL    HW2 2742   2.068   1.678   0.737  0.0946  0.5893 -2.6458
  915SOL     OW 2743   0.863   2.613   2.205 -0.2719 -0.0429  0.2047
  915SOL    HW1 2744   0.810   2.607   2.293  1.5054 -1.6103 -2.5550
  915SOL    HW2 2745   0.820   2.558   2.133  3.1472  1.8954  1.1938
  916SOL     OW 2746   0.564   2.484   1.128 -0.6260 -0.0237 -0.5318
  916SOL    HW1 2747   0.613   2.394   1.136 -0.4708 -0.9952 -2.0376
  916SOL    HW2 2748   0.492   2.504   1.197  0.6784 -0.0429  0.8470
  917SOL     OW 2749   2.574   1.014   2.794 -0.1229  0.1975 -0.5791
  917SOL    HW1 2750   2.546   0.956   2.876  0.1415 -1.8786  2.2856
  917SOL    HW2 2751   2.667   0.991   2.757 -2.4382 -1.2803 -1.0425
  918SOL     OW 2752   1.603   2.198   2.141 -0.2794 -0.3317 -0.1412
  918SOL    HW1 2753   1.693   2.156   2.150  1.5725  1.8801 -1.3843
  918SOL    HW2 2754   1.560   2.201   2.233 -0.6975  1.6900 -0.3531
  919SOL     OW 2755   2.003   2.212   0.770 -0.2861  0.7476 -0.1520
  919SOL    HW1 2756   1.933   2.138   0.753 -0.2965 -0.2929 -0.5457
  919SOL    HW2 2757   2.098   2.184   0.792  0.5464 -1.4516 -1.3587
  920SOL     OW 2758   1.410   0.492   2.482  0.4245  0.6046  0.3741
  920SOL    HW1 2759   1.359   0.403   2.499 -1.4836 -0.7733 -0.5880
  920SOL    HW2 2760   1.357   0.577   2.505 -0.4394 -1.2007  0.9069
  921SOL     OW 2761   0.227   0.657   2.826 -0.3579  0.2361 -0.0579
  921SOL    HW1 2762   0.284   0.723   2.771  0.8288  2.2299  1.5441
  921SOL    HW2 2763   0.128   0.667   2.811  1.1080 -2.8405 -0.3940
  922SOL     OW 2764   2.704   1.698   1.291 -0.1315 -0.4339  0.4219
  922SOL    HW1 2765   2.795   1.687   1.247 -0.9216  2.3178 -3.6961
  922SOL    HW2 2766   2.702   1.706   1.393 -0.4410 -1.9579 -0.1420
  923SOL     OW 2767   0.170   2.005   2.614 -0.7345  0.0851 -0.4550
  923SOL    HW1 2768   0.093   2.049   2.667 -2.6167  2.2019  0.2341
  923SOL    HW2 2769   0.209   2.077   2.557 -0.9949 -1.4949  1.8535
  924SOL     OW 2770   1.598   0.542   2.009 -0.6969 -0.4436  0.1755
  924SOL    HW1 2771   1.534   0.503   2.076  0.4588  2.5428 -2.8593
  924SOL    HW2 2772   1.682   0.574   2.060 -2.6773  0.2545  1.1935
  925SOL     OW 2773   0.065   1.102   0.315 -0.4617  0.3798  0.1759
  925SOL    HW1 2774   3.101   1.070   0.254 -1.3143  0.7353 -0.2444
  925SOL    HW2 2775   0.027   1.169   0.381 -1.0289 -0.0423 -0.4568
  926SOL     OW 2776   2.386   0.244   1.074  0.0029  0.0893 -0.4241
  926SOL    HW1 2777   2.368   0.151   1.031  0.0551  1.6086 -3.4221
  926SOL    HW2 2778   2.355   0.237   1.170 -0.9148 -0.4761  0.7088
  927SOL     OW 2779   1.421   0.752   0.983  0.3226 -0.2154  0.4627
  927SOL    HW1 2780   1.431   0.811   0.903 -0.9882  1.0873  3.2095
  927SOL    HW2 2781   1.322   0.724   1.002 -1.2618 -1.8768 -3.1338
  928SOL     OW 2782   2.869   0.375   2.113  0.3797 -0.3631 -0.4715
  928SOL    HW1 2783   2.851   0.299   2.177  1.3700  2.5519  0.1617
  928SOL    HW2 2784   2.966   0.375   2.085 -0.6667 -1.5598  0.5858
  929SOL     OW 2785   2.371   0.699   1.311 -0.4803 -0.0796  0.0355
  929SOL    HW1 2786   2.443   0.688   1.381  2.8320 -2.4897 -1.4427
  929SOL    HW2 2787   2.389   0.788   1.259  2.7669 -1.3783 -1.7281
  930SOL     OW 2788   2.163   2.466   0.987  0.0719  0.3876  1.4088
  930SOL    HW1 2789   2.074   2.424   0.973 -1.1602  0.2130  1.5508
  930SOL    HW2 2790   2.172   2.513   1.078  1.0553  0.0034 -1.5525
  931SOL     OW 2791   2.002   0.808   0.979 -0.4808 -0.6996 -0.0659
  931SOL    HW1 2792   1.910   0.788   1.019 -1.9459 -2.3324  0.6259
  931SOL    HW2 2793   2.041   0.893   1.019  1.7408  0.4385 -1.0430
  932SOL     OW 2794   0.108   0.744   1.359 -0.1273 -0.1388  0.2857
  932SOL    HW1 2795   0.021   0.701   1.332  1.5800  1.7504  0.4067
  932SOL    HW2 2796   0.107   0.841   1.333 -2.5455  1.3032  2.9937
  933SOL     OW 2797   2.123   1.597   2.022  0.3125  0.2785 -0.6113
  933SOL    HW1 2798   2.134   1.496   2.029 -2.0306 -0.2470  0.9031
  933SOL    HW2 2799   2.149   1.629   1.928 -2.1195  1.4439 -1.6011
  934SOL     OW 2800   1.486   2.780   1.549 -0.0746 -0.1279  0.2354
  934SOL    HW1 2801   1.583   2.758   1.519  2.5062 -0.7153 -0.3997
  934SOL    HW2 2802   1.453   2.858   1.489 -0.2535  0.6705 -1.6019
  935SOL     OW 2803   0.133   1.029   1.266 -0.1276  0.2379  0.1769
  935SOL    HW1 2804   0.066   1.043   1.189 -1.0887 -2.3766 -4.3178
  935SOL    HW2 2805   0.224   1.068   1.244 -1.3191 -0.0845  3.1356
  936SOL     OW 2806   2.536   0.722   1.524  0.1074 -0.1226 -0.3800
  936SOL    HW1 2807   2.530   0.722   1.624 -0.4890  1.6980  0.2110
  936SOL    HW2 2808   2.634   0.733   1.503 -2.4102 -0.5650  0.9395
  937SOL     OW 2809   0.755   0.266   1.514 -0.1399  0.1266 -0.1038
  937SOL    HW1 2810   0.781   0.339   1.452 -1.6212 -2.0488  2.8137
  937SOL    HW2 2811   0.725   0.304   1.606  0.4617  1.4165  1.8700
  938SOL     OW 2812   0.388   2.406   0.721 -0.8225  0.0638  0.1123
  938SOL    HW1 2813   0.289   2.383   0.698 -3.3556  2.6870  0.8406
  938SOL    HW2 2814   0.454   2.334   0.685 -2.1341 -0.2776  0.8461
  939SOL     OW 2815   2.953   2.352   2.615 -0.7408 -0.7234  0.0514
  939SOL    HW1 2816   2.994   2.376   2.520 -0.6692  0.3515 -1.3829
  939SOL    HW2 2817   2.979   2.416   2.690 -0.0919  0.9097 -1.7988
  940SOL     OW 2818   1.869   2.224   2.884 -0.2945  0.2704  0.2745
  940SOL    HW1 2819   1.774   2.248   2.858 -0.5744 -0.6230 -2.2158
  940SOL    HW2 2820   1.877   2.124   2.902 -0.2583  0.4656  0.6669
  941SOL     OW 2821   1.793   2.517   0.530  0.3711 -0.7346  0.0484
  941SOL    HW1 2822   1.717   2.490   0.589  0.5616  1.5505 -3.7721
  941SOL    HW2 2823   1.880   2.473   0.568  2.0608 -0.2147  2.0856
  942SOL     OW 2824   1.668   1.713   1.134 -0.9016  0.0855  0.4756
  942SOL    HW1 2825   1.763   1.715   1.143 -1.4029 -1.3988  2.3332
  942SOL    HW2 2826   1.632   1.774   1.061  1.3726  0.5013  0.1603
  943SOL     OW 2827   2.071   0.744   2.004  0.2205  0.2425  0.3294
  943SOL    HW1 2828   2.009   0.778   1.929  0.7778 -0.6739  2.1792
  943SOL    HW2 2829   2.117   0.661   1.981 -3.1167  3.2163  1.7334
  944SOL     OW 2830   1.875   0.757   1.787  0.1818  0.4288 -0.2378
  944SOL    HW1 2831   1.776   0.787   1.775 -0.0660  0.3692  1.0075
  944SOL    HW2 2832   1.884   0.660   1.748  2.0573 -0.8520  1.5704
  945SOL     OW 2833   2.743   2.537   1.166 -0.5023  0.0020  0.1505
  945SOL    HW1 2834   2.665   2.606   1.167 -0.5675 -0.4953  0.9705
  945SOL    HW2 2835   2.823   2.566   1.103  2.1053  1.5353 -0.8699
  946SOL     OW 2836   0.712   1.473   1.186 -0.3241 -0.1654  0.0161
  946SOL    HW1 2837   0.703   1.382   1.141 -1.2482 -1.6809 -0.4898
  946SOL    HW2 2838   0.637   1.535   1.153  0.9397  0.4673 -0.7791
  947SOL     OW 2839   0.783   2.600   0.851  0.2951  0.0963  0.0835
  947SOL    HW1 2840   0.815   2.681   0.901 -2.4878 -3.0320 -3.0687
  947SOL    HW2 2841   0.676   2.593   0.854  2.9473  0.4900 -1.7508
  948SOL     OW 2842   0.237   1.480   1.664  0.1345 -0.0738  0.2524
  948SOL    HW1 2843   0.314   1.418   1.647  0.6262  1.0083  0.4581
  948SOL    HW2 2844   0.272   1.573   1.685  1.3724  1.2696  2.4704
  949SOL     OW 2845   0.407   0.940   2.233  0.0014 -0.5114  0.4035
  949SOL    HW1 2846   0.505   0.940   2.204  1.2260 -2.5752 -1.8047
  949SOL    HW2 2847   0.349   0.955   2.148 -1.0671 -1.0649 -1.0379
  950SOL     OW 2848   0.185   0.295   1.264 -0.1565 -0.2900 -0.2185
  950SOL    HW1 2849   0.271   0.291   1.321 -2.0606  1.5863 -1.0778
  950SOL    HW2 2850   0.179   0.392   1.242  0.9632 -0.0114 -2.2858
  951SOL     OW 2851   1.169   1.749   2.121  0.2199  0.0621 -0.1664
  951SOL    HW1 2852   1.135   1.656   2.120  1.4578 -2.0279 -0.4254
  951SOL    HW2 2853   1.099   1.820   2.124  2.3580  1.0060 -0.2904
  952SOL     OW 2854   1.270   1.646   0.230  0.2362 -0.1457 -0.0385
  952SOL    HW1 2855   1.278   1.640   0.332 -0.8983  0.7876  1.5166
  952SOL    HW2 2856   1.357   1.612   0.182 -1.8262  0.2007 -0.5854
  953SOL     OW 2857   0.968   3.070   2.698  0.4100 -0.8803 -0.3318
  953SOL    HW1 2858   0.876   3.105   2.725  1.8006 -0.6957  0.8259
  953SOL    HW2 2859   0.977   2.977   2.733 -1.1301  0.7779 -0.9444
  954SOL     OW 2860   2.071   1.625   0.155 -0.4076 -0.1723  0.2913
  954SOL    HW1 2861   2.089   1.568   0.071 -1.0776  1.9406  0.0441
  954SOL    HW2 2862   2.113   1.582   0.237 -1.4212 -1.1146 -0.1973
  955SOL     OW 2863   0.438   2.536   2.904 -0.4548 -0.1035 -0.1954
  955SOL    HW1 2864   0.481   2.503   2.822 -1.1498 -0.9522  1.4014
  955SOL    HW2 2865   0.411   2.459   2.966  0.3206 -1.9623 -0.9419
  956SOL     OW 2866   1.276   0.908   1.707  0.3389  0.5661 -0.0263
  956SOL    HW1 2867   1.172   0.921   1.713 -0.7722  2.2234 -0.1169
  956SOL    HW2 2868   1.315   0.920   1.613  0.5737 -2.3234  4.2377
  957SOL     OW 2869   1.935   1.817   1.785 -0.4992 -0.4251  0.1096
  957SOL    HW1 2870   1.968   1.916   1.794  1.3312 -0.6839 -0.9172
  957SOL    HW2 2871   1.858   1.810   1.719 -0.7567 -1.2829 -0.1361
  958SOL     OW 2872   1.320   2.262   1.555  0.5176  0.0517  0.3687
  958SOL    HW1 2873   1.278   2.337   1.608  1.1989  0.6901 -1.4736
  958SOL    HW2 2874   1.401   2.300   1.502  1.1013  0.5953  0.3750
  959SOL     OW 2875   1.319   1.509   1.403 -0.0165 -0.0865 -0.3431
  959SOL    HW1 2876   1.396   1.500   1.341 -2.2856  2.6388  2.7331
  959SOL    HW2 2877   1.303   1.429   1.467  0.6992  1.1269  1.8327
  960SOL     OW 2878   0.165   1.536   2.964 -0.2430 -0.3125  0.0386
  960SOL    HW1 2879   0.157   1.483   3.047 -1.8697  1.0031 -0.2743
  960SOL    HW2 2880   0.185   1.473   2.885  0.5482  0.1150 -0.9770
  961SOL     OW 2881   0.421   1.300   2.223  0.3179 -0.0791 -0.2778
  961SOL    HW1 2882   0.399   1.260   2.314 -0.2205 -1.2928 -0.0758
  961SOL    HW2 2883   0.521   1.302   2.204 -1.4954  0.4462 -0.5044
  962SOL     OW 2884   1.324   1.562   0.807 -0.1552 -0.4795  0.6645
  962SOL    HW1 2885   1.369   1.615   0.728  0.2651 -0.8463 -0.7000
  962SOL    HW2 2886   1.379   1.553   0.894  0.9816 -0.3567  0.9428
  963SOL     OW 2887   1.228   2.115   2.479  0.2873  0.2193 -0.8529
  963SOL    HW1 2888   1.153   2.110   2.407 -2.6081 -0.6971  3.2814
  963SOL    HW2 2889   1.262   2.022   2.502 -0.8616  4.9418 -0.5674
  964SOL     OW 2890   0.854   0.013   0.312  0.6506 -0.3805 -0.7532
  964SOL    HW1 2891   0.827   3.106   0.406 -0.8633 -1.5392  0.7252
  964SOL    HW2 2892   0.820   0.099   0.283  0.1667 -1.0895  1.1930
  965SOL     OW 2893   0.543   3.028   0.948 -0.4124 -0.6237 -0.0373
  965SOL    HW1 2894   0.607   3.082   1.010  2.2916 -0.5770  1.3887
  965SOL    HW2 2895   0.461   3.079   0.913 -2.2716  1.0684  0.1520
  966SOL     OW 2896   0.350   1.700   2.858 -0.1899  0.0431  1.0799
  966SOL    HW1 2897   0.325   1.800   2.854 -2.2311 -0.9032 -0.6602
  966SOL    HW2 2898   0.268   1.650   2.890 -1.4441 -0.7370  2.4379
  967SOL     OW 2899   0.615   2.919   2.587  0.1109 -0.5087  0.0993
  967SOL    HW1 2900   0.576   3.012   2.606 -0.0724  0.3692  0.9508
  967SOL    HW2 2901   0.688   2.921   2.516 -1.0299  0.7278  1.4965
  968SOL     OW 2902   2.361   0.361   0.290 -0.4296  0.5525  0.1990
  968SOL    HW1 2903   2.270   0.398   0.311 -0.5636 -0.4642  0.2390
  968SOL    HW2 2904   2.383   0.383   0.190 -2.6020  3.8816 -2.5010
  969SOL     OW 2905   3.038   1.881   2.091 -0.6244 -0.2478 -0.1147
  969SOL    HW1 2906   0.005   1.861   2.025 -0.5302  3.2661 -0.1863
  969SOL    HW2 2907   2.944   1.855   2.068  0.8069 -0.2427  1.8079
  970SOL     OW 2908   2.118   1.371   1.347  0.8620 -0.0944 -0.2395
  970SOL    HW1 2909   2.197   1.405   1.290 -1.3134 -0.9800 -0.5139
  970SOL    HW2 2910   2.135   1.280   1.392 -0.1173 -1.9556  0.5034
  971SOL     OW 2911   1.952   0.087   1.079  0.1328 -0.9841  1.0059
  971SOL    HW1 2912   1.957   0.163   1.008  0.6651  1.0763  1.0469
  971SOL    HW2 2913   1.946   3.103   1.035  0.9075  1.0712  5.1806
  972SOL     OW 2914   0.226   2.891   1.581 -0.0375 -0.3254 -0.0220
  972SOL    HW1 2915   0.174   2.877   1.666  1.1840 -0.3445 -2.2029
  972SOL    HW2 2916   0.163   2.931   1.507 -1.2332  0.3251  0.0624
  973SOL     OW 2917   2.543   0.821   0.139 -0.4358  0.2823 -0.5142
  973SOL    HW1 2918   2.602   0.845   0.057  1.3999  1.1054 -3.2329
  973SOL    HW2 2919   2.540   0.910   0.191 -2.0231 -2.9358 -0.0910
  974SOL     OW 2920   1.941   1.455   2.308  0.9416 -0.0752  0.0562
  974SOL    HW1 2921   2.023   1.508   2.331 -0.0486  0.6675 -0.1982
  974SOL    HW2 2922   1.927   1.430   2.210 -2.0769  3.6230 -0.3270
  975SOL     OW 2923   0.069   2.994   1.395  0.3700 -0.1948  0.0629
  975SOL    HW1 2924   0.078   2.996   1.295 -2.5144 -1.6073  1.7606
  975SOL    HW2 2925   3.076   3.010   1.420 -3.7868  1.1620  4.1790
  976SOL     OW 2926   0.348   1.823   2.024 -0.0344 -0.1845 -0.2056
  976SOL    HW1 2927   0.351   1.918   1.996 -0.6950 -1.6935  0.0763
  976SOL    HW2 2928   0.252   1.794   2.049  0.9173 -2.1950 -1.1406
  977SOL     OW 2929   1.000   2.764   0.297  0.7414  0.0864 -0.4790
  977SOL    HW1 2930   1.095   2.746   0.321 -2.8587  1.8385 -0.1060
  977SOL    HW2 2931   0.990   2.841   0.233  0.2384 -1.1591 -0.0539
  978SOL     OW 2932   0.267   1.975   2.903  0.3156 -0.1294  0.4006
  978SOL    HW1 2933   0.335   2.046   2.921 -1.9840 -1.4895  0.2563
  978SOL    HW2 2934   0.224   1.981   2.811  2.7603  3.2606  2.2225
  979SOL     OW 2935   1.682   2.294   1.165 -0.4044 -0.5669 -0.0636
  979SOL    HW1 2936   1.745   2.376   1.167  1.0820  2.8300  1.6195
  979SOL    HW2 2937   1.724   2.211   1.119  1.8218  1.3631  0.3243
  980SOL     OW 2938   1.033   1.721   2.816  0.2399 -0.0345  0.2099
  980SOL    HW1 2939   1.083   1.686   2.736  0.8876  0.1452 -0.7640
  980SOL    HW2 2940   1.060   1.667   2.899  2.2700 -2.0048 -0.0401
  981SOL     OW 2941   2.484   2.987   2.385  0.3322 -0.0729 -0.0652
  981SOL    HW1 2942   2.513   3.040   2.302 -0.0808  0.4991  2.0924
  981SOL    HW2 2943   2.444   3.054   2.452 -1.2309  0.5990 -0.8544
  982SOL     OW 2944   0.026   0.041   2.527 -0.0163  0.1405 -0.1176
  982SOL    HW1 2945   0.006   0.138   2.505 -1.0789 -0.4269  0.5621
  982SOL    HW2 2946   3.062   3.090   2.483 -1.8893  2.7427 -0.3835
  983SOL     OW 2947   2.145   1.252   1.716 -0.0069  0.3222 -0.2412
  983SOL    HW1 2948   2.235   1.289   1.691 -0.1329  0.5216  1.0895
  983SOL    HW2 2949   2.075   1.301   1.663 -0.0530 -2.5361 -0.2551
  984SOL     OW 2950   1.325   0.542   1.898 -0.1860  0.6513 -0.1212
  984SOL    HW1 2951   1.282   0.576   1.984  0.6822 -1.5681 -1.4556
  984SOL    HW2 2952   1.424   0.537   1.908 -0.8022 -0.4162  1.2595
  985SOL     OW 2953   1.763   1.615   1.957  0.2523  0.0840 -0.4546
  985SOL    HW1 2954   1.708   1.637   2.043  0.3607 -0.0117 -4.1056
  985SOL    HW2 2955   1.802   1.702   1.918  1.1923  1.1865  2.4256
  986SOL     OW 2956   1.875   0.372   1.960 -0.3878  0.4171 -0.5816
  986SOL    HW1 2957   1.970   0.403   1.933 -1.1007 -0.5475 -0.4563
  986SOL    HW2 2958   1.800   0.441   1.944 -1.3375 -1.6802 -0.3806
  987SOL     OW 2959   2.146   0.476   1.941  0.2147  1.2944  0.1707
  987SOL    HW1 2960   2.204   0.430   2.011  0.4335 -1.2445 -0.6199
  987SOL    HW2 2961   2.185   0.470   1.848 -0.7353 -1.3980  2.1630
  988SOL     OW 2962   2.618   0.643   2.241  0.1872 -0.8079  0.1517
  988SOL    HW1 2963   2.702   0.607   2.280 -0.0174  4.1253 -0.9915
  988SOL    HW2 2964   2.580   0.722   2.296 -0.3591  0.6945 -0.2372
  989SOL     OW 2965   2.036   2.386   2.741 -0.2817 -0.4932  0.0739
  989SOL    HW1 2966   2.087   2.322   2.680  1.7364 -0.8975  0.9369
  989SOL    HW2 2967   1.994   2.341   2.823 -1.2078 -0.7763  2.3874
  990SOL     OW 2968   0.924   0.592   2.581  0.6795 -0.6734 -0.5014
  990SOL    HW1 2969   0.862   0.515   2.609 -1.4230 -0.8396  2.1638
  990SOL    HW2 2970   0.922   0.666   2.650  3.6692 -0.6374 -1.7245
  991SOL     OW 2971   1.271   0.898   0.349 -0.5088  0.7153  0.0797
  991SOL    HW1 2972   1.239   0.992   0.371 -0.2338 -2.1959 -1.5544
  991SOL    HW2 2973   1.240   0.864   0.260  0.3776  3.1717  3.5114
  992SOL     OW 2974   2.527   2.265   2.705  0.1843 -0.1942 -0.9132
  992SOL    HW1 2975   2.536   2.337   2.634 -3.1352  1.3495 -0.9130
  992SOL    HW2 2976   2.529   2.176   2.661  0.2923  2.2796  1.0789
  993SOL     OW 2977   0.322   0.345   0.245  0.1572 -0.1794 -0.1025
  993SOL    HW1 2978   0.357   0.434   0.284 -0.1418  1.7172 -1.7449
  993SOL    HW2 2979   0.335   0.264   0.307  1.9148 -0.2343 -0.0105
  994SOL     OW 2980   0.240   2.167   1.746 -0.0853  0.4526 -0.6133
  994SOL    HW1 2981   0.267   2.264   1.771 -0.3271 -2.1579  1.9069
  994SOL    HW2 2982   0.141   2.153   1.755  4.2554  1.4411 -0.2166
  995SOL     OW 2983   2.012   1.673   2.779  0.2947 -0.4737  0.4253
  995SOL    HW1 2984   1.912   1.686   2.793 -2.3342 -0.0072  2.7947
  995SOL    HW2 2985   2.035   1.581   2.754 -2.4878  2.6782  3.7607
  996SOL     OW 2986   1.699   1.834   2.755  0.0117  0.3553 -0.2030
  996SOL    HW1 2987   1.744   1.888   2.683  0.6618 -0.3248  0.1961
  996SOL    HW2 2988   1.599   1.813   2.736 -3.3339  0.2837  1.4078
  997SOL     OW 2989   1.916   1.199   1.007 -0.0348  0.6367  0.0118
  997SOL    HW1 2990   1.976   1.131   1.053 -0.7981  1.7041  2.7817
  997SOL    HW2 2991   1.938   1.293   1.043 -1.4336  0.3657  0.5957
  998SOL     OW 2992   2.516   1.471   0.173 -0.1879 -0.2682 -0.2976
  998SOL    HW1 2993   2.489   1.374   0.152  3.7178 -0.4791 -2.6856
  998SOL    HW2 2994   2.617   1.485   0.145  3.7296 -0.1634  0.7983
  999SOL     OW 2995   2.982   2.433   0.332  0.0081  0.2281 -0.5222
  999SOL    HW1 2996   2.951   2.448   0.430 -1.9851 -1.7827  2.5802
  999SOL    HW2 2997   2.946   2.508   0.266  1.9409  1.7999 -2.5905
 1000SOL     OW 2998   0.750   3.047   1.864 -0.5504  0.8549 -0.2747
 1000SOL    HW1 2999   0.693   3.078   1.785 -0.2353 -1.9604  0.6700
 1000SOL    HW2 3000   0.782   0.020   1.920 -2.8095  0.8091 -2.1067
   3.10615   3.10615   3.10615
