1000 SPC/Fw water molecules t=  23.00000 step= 23000
 3000
    1SOL     OW    1   1.862   2.680   0.257  0.0956 -0.4576  0.2793
    1SOL    HW1    2   1.947   2.627   0.277  1.9931  0.7547  0.2123
    1SOL    HW2    3   1.779   2.619   0.275  0.5957  1.7162 -1.5823
    2SOL     OW    4   1.090   0.788   1.958  0.4359 -0.5079  0.2347
    2SOL    HW1    5   1.159   0.744   2.018 -0.5843 -4.5871  2.9118
    2SOL    HW2    6   1.021   0.712   1.944 -1.0899 -1.3014 -0.2984
    3SOL     OW    7   0.891   2.943   2.810 -0.1892 -0.2496 -0.3036
    3SOL    HW1    8   0.897   3.010   2.732 -0.4110  1.2922  0.4971
    3SOL    HW2    9   0.905   2.989   2.895  1.7334  0.2924 -0.6492
    4SOL     OW   10   1.564   1.695   0.060 -0.2761  0.7290 -0.2430
    4SOL    HW1   11   1.558   1.590   0.060  0.3882 -0.0531 -1.7074
    4SOL    HW2   12   1.505   1.745   3.096 -1.1364 -1.1276  1.0756
    5SOL     OW   13   0.893   1.073   2.085 -0.3700  0.2987 -0.0766
    5SOL    HW1   14   0.974   1.070   2.020  4.4672 -2.5538 -0.0673
    5SOL    HW2   15   0.915   1.109   2.179  0.5451  1.5937 -2.0397
    6SOL     OW   16   2.036   0.837   2.561  0.3058 -0.5904  0.4444
    6SOL    HW1   17   2.026   0.737   2.581 -1.8625 -2.2140  3.2738
    6SOL    HW2   18   2.127   0.861   2.533 -1.1511 -2.6311  0.3718
    7SOL     OW   19   0.459   0.805   1.217  0.4206  0.0011  0.0170
    7SOL    HW1   20   0.454   0.754   1.128 -1.4746  1.6614 -0.3492
    7SOL    HW2   21   0.437   0.903   1.203 -0.2961  0.9936  0.1714
    8SOL     OW   22   1.968   2.901   2.065 -0.6381  0.3979 -0.7059
    8SOL    HW1   23   1.887   2.860   2.019  3.3770  2.1905  0.9200
    8SOL    HW2   24   2.004   2.985   2.019 -1.1356 -0.6485  2.5010
    9SOL     OW   25   3.079   2.553   0.594  0.7661 -0.0058 -0.3106
    9SOL    HW1   26   0.048   2.543   0.521 -0.3460  1.0445  0.6150
    9SOL    HW2   27   3.081   2.648   0.634  3.1641 -1.0985  0.6268
   10SOL     OW   28   3.050   2.348   2.297 -0.2381  0.2050 -0.0743
   10SOL    HW1   29   3.023   2.399   2.212 -1.0742  0.3341  2.7810
   10SOL    HW2   30   3.075   2.256   2.264  0.7824  3.3561 -1.0308
   11SOL     OW   31   0.724   1.600   0.017 -0.7536 -0.1404 -0.1001
   11SOL    HW1   32   0.666   1.563   0.095 -0.5330  1.0173  0.2822
   11SOL    HW2   33   0.685   1.690   3.098  0.9332 -0.6675  0.3216
   12SOL     OW   34   2.228   2.804   1.120  0.4237 -0.2625  0.0148
   12SOL    HW1   35   2.196   2.887   1.073  1.5577 -2.2345  0.6372
   12SOL    HW2   36   2.160   2.760   1.177 -0.6472  0.0511  1.8294
   13SOL     OW   37   0.337   0.186   2.799 -0.0728  0.4395 -0.4883
   13SOL    HW1   38   0.269   0.189   2.876 -0.8244  0.7036 -1.5491
   13SOL    HW2   39   0.358   0.279   2.765  0.7612 -2.7188 -2.0401
   14SOL     OW   40   1.636   1.231   1.513 -0.1563  0.6836 -0.0560
   14SOL    HW1   41   1.654   1.179   1.598 -2.3843 -2.6284 -0.1744
   14SOL    HW2   42   1.546   1.277   1.511  0.0998 -0.1963 -2.6126
   15SOL     OW   43   0.550   1.446   1.968  0.4976 -0.4794 -0.2956
   15SOL    HW1   44   0.480   1.424   1.897 -1.1880 -1.8942  0.5410
   15SOL    HW2   45   0.530   1.396   2.053 -0.2225  0.7971  2.8389
   16SOL     OW   46   1.604   0.842   2.520  0.3013  0.2199 -0.2173
   16SOL    HW1   47   1.611   0.915   2.587 -0.2630  0.2045  0.7136
   16SOL    HW2   48   1.610   0.881   2.426 -0.2525 -0.0065 -0.7180
   17SOL     OW   49   2.972   2.493   2.088 -0.5051  0.0865 -0.2866
   17SOL    HW1   50   2.957   2.596   2.098  1.2453  0.4296 -1.2486
   17SOL    HW2   51   3.041   2.470   2.018 -0.8741 -1.7526  3.2935
   18SOL     OW   52   1.750   1.257   0.523  0.3285  0.4221  0.1780
   18SOL    HW1   53   1.746   1.160   0.562  0.4142 -1.4119 -1.4879
   18SOL    HW2   54   1.754   1.263   0.421  0.3557 -3.0509  4.0984
   19SOL     OW   55   0.192   1.261   2.013 -0.3462 -0.4345 -0.0389
   19SOL    HW1   56   0.251   1.294   2.090  1.3641 -1.8424 -2.1656
   19SOL    HW2   57   0.241   1.234   1.930 -0.5925  0.8616  0.1173
   20SOL     OW   58   1.931   2.378   2.927 -0.3353  0.4608  0.0238
   20SOL    HW1   59   2.008   2.396   2.991  1.6926 -0.5695 -2.1607
   20SOL    HW2   60   1.884   2.461   2.895 -0.6295 -0.3673  2.2901
   21SOL     OW   61   1.891   1.783   1.051 -0.0792 -0.5057  0.2315
   21SOL    HW1   62   1.899   1.883   1.073  0.3208 -0.1609  1.1409
   21SOL    HW2   63   1.908   1.763   0.954  1.7150 -0.7541 -1.1085
   22SOL     OW   64   2.172   2.096   1.361 -0.0754  0.8751  0.1730
   22SOL    HW1   65   2.091   2.054   1.411 -0.4618  1.2650  2.0693
   22SOL    HW2   66   2.144   2.146   1.279  0.7739  1.0165  1.0890
   23SOL     OW   67   0.141   1.038   1.289 -0.1131  0.4421  0.4534
   23SOL    HW1   68   0.190   0.979   1.354  1.9556 -0.7162 -2.3613
   23SOL    HW2   69   0.036   1.013   1.291 -1.1930 -0.1653  0.9274
   24SOL     OW   70   1.711   1.127   1.734  0.0511  0.1347 -0.1156
   24SOL    HW1   71   1.693   1.027   1.738  2.5236  1.1083  2.1312
   24SOL    HW2   72   1.808   1.145   1.744  1.3151 -1.3835 -1.2535
   25SOL     OW   73   1.907   0.116   2.307  0.3283 -0.3445  0.1218
   25SOL    HW1   74   1.922   0.023   2.339 -2.4021  0.7120 -1.2535
   25SOL    HW2   75   1.855   0.168   2.377 -2.4659 -3.0237  0.0870
   26SOL     OW   76   0.552   2.941   0.770  0.4604 -0.3588  0.3186
   26SOL    HW1   77   0.620   3.012   0.803 -1.9024 -2.2060 -0.7208
   26SOL    HW2   78   0.536   2.869   0.834 -0.5541  2.3500 -2.5498
   27SOL     OW   79   1.506   1.241   1.137  0.1726  0.4854 -0.4367
   27SOL    HW1   80   1.562   1.191   1.209  0.1735  1.1778  1.4577
   27SOL    HW2   81   1.562   1.282   1.059 -0.2314  0.2722  0.2392
   28SOL     OW   82   2.417   2.425   1.121 -0.5310  0.0565  0.2749
   28SOL    HW1   83   2.479   2.465   1.194  1.4542 -0.8228 -2.5369
   28SOL    HW2   84   2.390   2.497   1.052 -0.8845 -1.2519 -1.0141
   29SOL     OW   85   2.026   2.949   2.344  0.1601  0.7278 -0.4313
   29SOL    HW1   86   2.014   2.929   2.245  0.2403 -1.5243  1.6912
   29SOL    HW2   87   2.121   2.928   2.366 -1.4063  0.3520  0.9443
   30SOL     OW   88   0.005   2.940   1.985  0.5834 -0.1302 -0.0422
   30SOL    HW1   89   3.059   2.942   1.895  0.2993 -0.9037  0.8252
   30SOL    HW2   90   3.097   3.032   2.026 -0.5000  2.3360 -2.5645
   31SOL     OW   91   0.015   1.717   1.951  0.8869 -0.3958 -0.1490
   31SOL    HW1   92   0.043   1.731   2.046 -1.1532  1.3782  0.6646
   31SOL    HW2   93   3.088   1.805   1.908 -3.0372  2.6473 -0.7161
   32SOL     OW   94   1.319   2.399   2.182 -0.3958 -0.7693  0.0316
   32SOL    HW1   95   1.223   2.383   2.154  1.2598 -0.2019  0.1847
   32SOL    HW2   96   1.371   2.310   2.192 -0.6672  0.9688  1.3876
   33SOL     OW   97   0.108   0.256   3.000  0.5218  0.1829  0.3263
   33SOL    HW1   98   0.174   0.230   3.067 -1.3270  0.2182 -0.7629
   33SOL    HW2   99   0.092   0.354   3.004  2.5168  0.4514  1.7524
   34SOL     OW  100   2.861   0.198   0.349 -0.2639 -0.3813 -0.4457
   34SOL    HW1  101   2.897   0.110   0.385 -0.2466  1.3306 -1.7835
   34SOL    HW2  102   2.907   0.224   0.263 -1.1854 -2.8042  0.5029
   35SOL     OW  103   2.780   2.681   1.695  0.0986 -0.1273 -0.1197
   35SOL    HW1  104   2.712   2.636   1.752 -0.2140  3.5457 -2.9763
   35SOL    HW2  105   2.736   2.718   1.609 -2.7202  2.5544 -0.9891
   36SOL     OW  106   2.286   2.869   2.375 -0.2160  0.1043  0.3806
   36SOL    HW1  107   2.307   2.873   2.475  0.5516  2.4321  1.3507
   36SOL    HW2  108   2.323   2.958   2.331  0.0760  4.1224 -2.4509
   37SOL     OW  109   1.624   3.017   3.009  0.1051 -0.4287 -0.1522
   37SOL    HW1  110   1.622   3.033   0.006 -0.2787 -0.7357  0.9588
   37SOL    HW2  111   1.529   3.007   2.971 -0.4515 -1.1159 -1.3265
   38SOL     OW  112   0.250   0.543   0.445  0.0832  0.3676  0.4175
   38SOL    HW1  113   0.290   0.502   0.534  0.0651  0.1043  1.0629
   38SOL    HW2  114   0.324   0.562   0.380  0.0320 -0.9682 -1.2228
   39SOL     OW  115   0.866   1.820   1.975  0.2299  0.1529  0.1051
   39SOL    HW1  116   0.898   1.758   2.050  0.9429  0.0269  2.2792
   39SOL    HW2  117   0.917   1.909   1.979 -0.9399 -1.1569  1.9801
   40SOL     OW  118   2.982   0.629   2.880  0.0328 -0.3805 -0.3456
   40SOL    HW1  119   2.998   0.566   2.802 -0.5066 -2.4342  1.3555
   40SOL    HW2  120   3.055   0.619   2.947 -1.0868  0.5107 -1.2138
   41SOL     OW  121   1.233   0.745   1.707  0.3102 -0.0445  0.3035
   41SOL    HW1  122   1.330   0.752   1.682 -2.3568  1.6747 -2.0193
   41SOL    HW2  123   1.212   0.740   1.803  0.0565 -1.8455 -2.5490
   42SOL     OW  124   2.476   0.242   1.227 -0.0978  0.0350  0.0583
   42SOL    HW1  125   2.458   0.293   1.141  0.5672  1.1635  2.9780
   42SOL    HW2  126   2.521   0.309   1.291  0.0436 -0.3783  0.5557
   43SOL     OW  127   1.514   0.697   1.604  0.2165 -0.1768 -0.1841
   43SOL    HW1  128   1.547   0.712   1.508  1.3522 -1.0907  0.9220
   43SOL    HW2  129   1.496   0.596   1.621  0.7053 -0.9352  1.6186
   44SOL     OW  130   0.071   0.546   3.080  0.5059 -0.4047 -0.3867
   44SOL    HW1  131   0.046   0.485   0.053 -1.1575 -1.2984  0.5281
   44SOL    HW2  132   0.123   0.623   0.015 -0.5621 -3.6041 -2.2001
   45SOL     OW  133   0.462   1.864   1.732  0.3580 -0.4731  0.2839
   45SOL    HW1  134   0.558   1.858   1.695  0.3191  0.2763  1.4790
   45SOL    HW2  135   0.417   1.771   1.746 -0.1866 -0.1257  1.8015
   46SOL     OW  136   2.200   2.899   1.680 -0.5776 -0.2146 -0.1058
   46SOL    HW1  137   2.268   2.850   1.739  1.6532 -0.5224  0.4816
   46SOL    HW2  138   2.130   2.835   1.643  2.6625  3.3246 -0.1961
   47SOL     OW  139   0.218   1.909   1.369 -0.0717 -0.2779  0.0726
   47SOL    HW1  140   0.225   1.815   1.408 -2.1139 -0.7526  1.2406
   47SOL    HW2  141   0.303   1.915   1.313  3.3025 -1.8061 -0.4964
   48SOL     OW  142   1.021   2.494   2.772  0.0010 -0.3410  0.5035
   48SOL    HW1  143   0.939   2.452   2.727  1.3253  0.0913 -0.1197
   48SOL    HW2  144   1.023   2.458   2.867  0.3512  1.5757 -2.3243
   49SOL     OW  145   2.642   1.502   1.812  0.1538  0.4392 -0.0389
   49SOL    HW1  146   2.717   1.543   1.757  0.6531  0.5806  2.5426
   49SOL    HW2  147   2.678   1.432   1.880  2.4013 -0.6473  2.0879
   50SOL     OW  148   1.360   2.795   0.404  0.1450 -0.3462  0.2097
   50SOL    HW1  149   1.316   2.795   0.498 -1.3509 -3.4945  1.8407
   50SOL    HW2  150   1.379   2.894   0.378 -3.5473  1.7102 -0.9379
   51SOL     OW  151   1.125   0.395   1.152  0.2380 -0.2238 -0.0249
   51SOL    HW1  152   1.045   0.336   1.175 -2.9380 -2.2597 -0.2030
   51SOL    HW2  153   1.209   0.338   1.156 -0.9306 -0.6203  1.6112
   52SOL     OW  154   0.576   1.252   0.357  0.9893 -0.0647 -0.2068
   52SOL    HW1  155   0.586   1.157   0.386  1.7215  0.8702 -0.6940
   52SOL    HW2  156   0.615   1.321   0.418 -3.0901  0.4811  1.8992
   53SOL     OW  157   1.195   2.769   2.435 -0.4736  0.2515  0.6785
   53SOL    HW1  158   1.248   2.828   2.501  0.8639  2.4426  2.4452
   53SOL    HW2  159   1.256   2.727   2.364 -0.5907 -0.9348  2.2712
   54SOL     OW  160   2.159   0.224   2.139 -0.2632 -0.2071 -0.2876
   54SOL    HW1  161   2.091   0.188   2.205 -1.3188  0.7288  1.7349
   54SOL    HW2  162   2.200   0.312   2.178  3.2327  0.4380  2.6152
   55SOL     OW  163   2.800   2.446   0.168  0.1792 -0.0840 -0.2311
   55SOL    HW1  164   2.878   2.416   0.113 -2.6526 -3.7566 -0.5692
   55SOL    HW2  165   2.797   2.548   0.182 -2.1345  2.0769 -1.3488
   56SOL     OW  166   0.749   0.159   1.802  0.9160  0.3816 -0.7892
   56SOL    HW1  167   0.652   0.162   1.839 -1.6347 -2.4523  1.5694
   56SOL    HW2  168   0.805   0.098   1.857 -1.9774  2.2343 -1.0454
   57SOL     OW  169   1.902   1.045   2.435  0.4974 -0.0688 -0.1004
   57SOL    HW1  170   1.961   0.959   2.464 -0.7742 -1.2185  0.6935
   57SOL    HW2  171   1.807   1.022   2.411  2.8213  0.1421  1.6213
   58SOL     OW  172   0.025   0.914   2.088  0.0741  0.5967 -0.5085
   58SOL    HW1  173   0.119   0.906   2.121  1.1035 -0.1312 -0.1731
   58SOL    HW2  174   0.014   1.010   2.060 -1.0583 -2.3052 -1.1114
   59SOL     OW  175   0.823   2.653   1.667 -0.3080 -0.2941  0.5951
   59SOL    HW1  176   0.732   2.688   1.687  2.2829 -1.4824  3.0694
   59SOL    HW2  177   0.821   2.598   1.581  0.7832  1.2582 -1.5892
   60SOL     OW  178   2.052   2.491   0.325  0.0303  0.0015 -0.1572
   60SOL    HW1  179   2.061   2.453   0.423  2.9768  0.0714  1.3725
   60SOL    HW2  180   2.143   2.504   0.287 -0.4209 -0.9179 -1.7235
   61SOL     OW  181   1.520   2.504   0.516 -0.3291 -0.5513  0.0936
   61SOL    HW1  182   1.578   2.455   0.587  2.3123 -1.9002  1.3669
   61SOL    HW2  183   1.424   2.501   0.545  0.2801 -1.7125  0.2108
   62SOL     OW  184   1.726   2.776   3.023 -0.7021  0.5600  0.3437
   62SOL    HW1  185   1.710   2.875   3.022  0.3700  1.1853  0.0942
   62SOL    HW2  186   1.670   2.718   3.081  1.5631  0.8490 -1.1732
   63SOL     OW  187   2.512   0.375   3.098 -0.0985  0.6734 -0.4186
   63SOL    HW1  188   2.524   0.405   3.002 -1.9597 -0.7240  2.0931
   63SOL    HW2  189   2.513   0.454   0.062 -1.8731 -0.3905 -0.4596
   64SOL     OW  190   1.420   1.021   2.867  0.4763  0.4214 -0.3663
   64SOL    HW1  191   1.396   0.926   2.889  0.4732  1.4451 -2.3306
   64SOL    HW2  192   1.335   1.074   2.845  0.2025 -1.5830 -1.3123
   65SOL     OW  193   0.501   2.430   1.423 -0.1279 -0.3531 -0.4063
   65SOL    HW1  194   0.442   2.367   1.369  1.2317  1.1010  0.7505
   65SOL    HW2  195   0.531   2.509   1.364 -2.2096  2.3969 -1.0127
   66SOL     OW  196   1.071   1.372   1.358  0.1793  0.2247 -0.0379
   66SOL    HW1  197   1.138   1.299   1.334  0.5771 -1.5617  2.2799
   66SOL    HW2  198   1.061   1.371   1.458 -0.2887 -1.2209 -1.1903
   67SOL     OW  199   2.421   2.004   1.868  0.6356 -0.3969 -0.3210
   67SOL    HW1  200   2.469   2.071   1.811  0.3318 -1.0353 -0.9770
   67SOL    HW2  201   2.371   1.935   1.814  1.8019 -0.3061  0.1855
   68SOL     OW  202   0.778   1.409   1.675 -0.0484 -0.1143 -0.1289
   68SOL    HW1  203   0.694   1.346   1.671 -0.4340 -0.9005 -0.1875
   68SOL    HW2  204   0.760   1.488   1.736  4.1732  0.9109 -5.2282
   69SOL     OW  205   0.186   2.915   3.069  0.1702  0.4806 -0.1078
   69SOL    HW1  206   0.272   2.895   0.015 -0.6367 -1.5164  2.3757
   69SOL    HW2  207   0.129   2.987   0.013 -1.9969  0.5224 -1.1623
   70SOL     OW  208   2.270   0.982   2.491 -0.7215 -0.2968  0.5483
   70SOL    HW1  209   2.346   0.926   2.461 -2.5452 -0.0138 -0.0663
   70SOL    HW2  210   2.284   1.072   2.443 -1.9503  2.5905  2.0122
   71SOL     OW  211   0.790   2.000   0.946  0.2825  0.3651  0.1452
   71SOL    HW1  212   0.760   2.070   1.010  1.3371  0.0275 -0.8331
   71SOL    HW2  213   0.743   1.913   0.965 -1.9417  0.1021 -0.0585
   72SOL     OW  214   2.689   2.089   0.540 -0.7839 -0.1266 -0.3180
   72SOL    HW1  215   2.690   2.159   0.463  1.5313  0.6062  1.1683
   72SOL    HW2  216   2.644   2.129   0.624 -0.4627 -0.4671  3.8218
   73SOL     OW  217   1.551   0.558   1.016 -0.2244 -0.3431 -0.0204
   73SOL    HW1  218   1.578   0.517   0.929 -0.4646 -0.3687  2.8838
   73SOL    HW2  219   1.471   0.613   1.004  2.4796 -3.0419 -0.5321
   74SOL     OW  220   2.742   2.080   2.089 -0.0940 -0.2697 -0.3899
   74SOL    HW1  221   2.771   2.169   2.044 -3.3999  0.7169 -0.5126
   74SOL    HW2  222   2.794   2.059   2.173  0.5174 -1.5047 -0.3710
   75SOL     OW  223   1.591   1.705   1.680 -0.4937  0.7488 -0.2208
   75SOL    HW1  224   1.511   1.662   1.723  1.7989 -1.0819 -1.7910
   75SOL    HW2  225   1.672   1.647   1.692 -2.2090 -0.0014  0.0843
   76SOL     OW  226   1.446   1.704   1.096 -0.3776 -0.2192 -1.0260
   76SOL    HW1  227   1.480   1.800   1.106 -0.0718  0.1820 -0.4052
   76SOL    HW2  228   1.528   1.639   1.075  2.1139 -5.1780 -2.6766
   77SOL     OW  229   2.509   1.125   1.620  0.2040  0.4274 -0.7680
   77SOL    HW1  230   2.482   1.164   1.708 -0.3796 -0.7088  0.6397
   77SOL    HW2  231   2.468   1.172   1.542  1.4763  0.6029  2.0589
   78SOL     OW  232   1.558   0.886   0.218 -0.4369  0.7913 -0.0318
   78SOL    HW1  233   1.572   0.837   0.125  0.7085 -0.9011 -1.7733
   78SOL    HW2  234   1.556   0.815   0.295  1.1550 -0.0946 -0.0927
   79SOL     OW  235   1.313   1.479   2.223 -0.1876 -0.2731  0.2323
   79SOL    HW1  236   1.306   1.508   2.320 -0.0018 -0.5974 -2.4118
   79SOL    HW2  237   1.251   1.399   2.204  0.6722  0.5651  0.0581
   80SOL     OW  238   1.068   0.326   1.546 -0.2365 -0.6007 -0.1283
   80SOL    HW1  239   1.091   0.425   1.540  2.4319  1.4569  0.3979
   80SOL    HW2  240   1.016   0.306   1.630 -2.3336 -1.5057  4.5930
   81SOL     OW  241   0.369   2.569   0.269 -0.6587 -0.0227 -0.0268
   81SOL    HW1  242   0.404   2.626   0.193  1.9511 -0.6028 -0.7356
   81SOL    HW2  243   0.422   2.479   0.271  1.2351 -2.1437 -0.7894
   82SOL     OW  244   1.307   0.249   1.847  0.2379 -0.7462 -0.4903
   82SOL    HW1  245   1.215   0.245   1.894 -0.5245  2.7613  1.6231
   82SOL    HW2  246   1.342   0.158   1.824 -0.2545  2.1048 -2.2872
   83SOL     OW  247   0.339   2.032   1.013 -0.2130 -0.3293 -0.7597
   83SOL    HW1  248   0.254   2.088   1.032  1.9024  0.3776  0.5687
   83SOL    HW2  249   0.340   2.009   0.914 -1.1232  0.7566  0.4386
   84SOL     OW  250   2.870   1.632   0.788 -0.1998 -0.2790  0.1316
   84SOL    HW1  251   2.819   1.567   0.726  2.9046  1.3338  0.0134
   84SOL    HW2  252   2.964   1.638   0.761 -3.1399  1.3890  2.3754
   85SOL     OW  253   2.269   1.842   1.343  0.5335 -0.4567  0.4331
   85SOL    HW1  254   2.238   1.936   1.356  1.2383 -2.0560 -2.1946
   85SOL    HW2  255   2.193   1.775   1.358 -0.9705 -1.0777  1.6787
   86SOL     OW  256   1.598   2.359   1.858  0.7838 -0.7628 -0.3829
   86SOL    HW1  257   1.553   2.442   1.815 -2.1232  1.2413 -1.6121
   86SOL    HW2  258   1.633   2.388   1.950  0.7083  1.2380 -2.6868
   87SOL     OW  259   2.322   1.538   0.564 -0.2376  0.2525 -0.2064
   87SOL    HW1  260   2.236   1.588   0.546 -1.5159 -2.0081  1.3561
   87SOL    HW2  261   2.384   1.543   0.481  0.6291  0.8631  3.0366
   88SOL     OW  262   0.299   3.009   0.961  0.0402  0.1192 -0.0724
   88SOL    HW1  263   0.353   2.922   0.965  0.7605  1.4239 -0.7103
   88SOL    HW2  264   0.353   3.086   0.995 -2.8229 -2.2699  0.6996
   89SOL     OW  265   0.540   0.629   1.784 -0.1940  0.4058 -0.4413
   89SOL    HW1  266   0.619   0.688   1.768 -0.3037  1.9987  2.6289
   89SOL    HW2  267   0.561   0.562   1.858  0.6629  0.6104 -0.3035
   90SOL     OW  268   2.891   1.944   0.356 -0.0222 -0.3072  0.1793
   90SOL    HW1  269   2.991   1.956   0.384  1.4617 -1.8721 -2.5480
   90SOL    HW2  270   2.835   1.988   0.429  1.9871 -1.2227  1.0488
   91SOL     OW  271   1.203   1.692   0.977  0.4397  0.0553 -0.0923
   91SOL    HW1  272   1.142   1.649   1.050  0.4949 -3.8383 -0.6938
   91SOL    HW2  273   1.298   1.684   0.999 -2.6432 -0.0550 -0.6918
   92SOL     OW  274   2.301   0.062   1.694  0.4939  0.3177  0.0145
   92SOL    HW1  275   2.400   0.055   1.713 -1.3216  0.5901 -1.8604
   92SOL    HW2  276   2.256   3.073   1.679  0.3846 -2.5277 -0.8108
   93SOL     OW  277   0.610   1.364   2.891 -0.1593 -0.2599 -0.2626
   93SOL    HW1  278   0.709   1.369   2.894 -1.9966 -1.7440  1.5971
   93SOL    HW2  279   0.575   1.437   2.829  0.6158  1.7025 -3.7643
   94SOL     OW  280   2.597   0.111   1.737  0.2505  0.5251  0.4893
   94SOL    HW1  281   2.577   0.173   1.818 -2.3645  0.1246  0.8839
   94SOL    HW2  282   2.656   0.037   1.776 -0.6990 -1.1991 -0.7817
   95SOL     OW  283   1.936   0.538   1.771 -0.4781  0.2083 -0.2948
   95SOL    HW1  284   1.963   0.443   1.741 -3.5938  0.8872 -3.2749
   95SOL    HW2  285   1.975   0.561   1.863 -0.3534 -1.1454 -1.0441
   96SOL     OW  286   0.223   0.498   1.823  0.1991 -0.1270 -0.0999
   96SOL    HW1  287   0.190   0.458   1.735  1.0086  0.8359 -0.4441
   96SOL    HW2  288   0.181   0.588   1.835  0.0212 -1.5739 -1.3298
   97SOL     OW  289   1.951   0.289   1.560 -0.2808 -0.3943 -0.3708
   97SOL    HW1  290   1.861   0.293   1.511  1.0478 -3.5087 -1.9787
   97SOL    HW2  291   1.930   0.252   1.652  0.1270 -1.3150  1.1381
   98SOL     OW  292   1.994   2.466   1.723  0.0261  0.0763  0.5266
   98SOL    HW1  293   2.088   2.458   1.677  0.8148  0.7147 -0.2495
   98SOL    HW2  294   2.012   2.461   1.823  1.8287 -3.0258  0.5525
   99SOL     OW  295   0.782   0.998   0.880 -0.1053  0.2594 -0.3334
   99SOL    HW1  296   0.811   1.033   0.789  0.8257 -1.7130 -2.2873
   99SOL    HW2  297   0.698   0.937   0.866 -1.9627 -1.1602  0.1810
  100SOL     OW  298   2.800   1.647   2.107 -0.0659  0.3593 -0.0329
  100SOL    HW1  299   2.715   1.679   2.156 -0.2666 -1.1193  2.6583
  100SOL    HW2  300   2.799   1.699   2.016 -1.7352  2.0754 -1.6032
  101SOL     OW  301   1.783   0.184   0.147  0.3546  0.7974 -0.3549
  101SOL    HW1  302   1.781   0.274   0.100 -0.8255 -3.2612  0.7777
  101SOL    HW2  303   1.711   0.117   0.115 -2.1396  0.7116  0.6620
  102SOL     OW  304   0.032   2.967   1.206  0.1950 -0.6402  0.1212
  102SOL    HW1  305   3.075   3.007   1.131  2.4430  2.4578 -0.9872
  102SOL    HW2  306   0.037   2.865   1.202 -1.6379 -1.2902  0.0173
  103SOL     OW  307   0.050   3.031   2.336 -0.3246  0.3810 -0.5191
  103SOL    HW1  308   3.056   3.065   2.343 -0.8323  0.5193 -0.1886
  103SOL    HW2  309   0.046   2.932   2.342  0.1650  3.0670  0.9893
  104SOL     OW  310   0.360   2.126   1.479  0.1782  0.3191  0.3961
  104SOL    HW1  311   0.281   2.060   1.468 -0.5301 -1.5210 -0.4375
  104SOL    HW2  312   0.433   2.097   1.412 -0.5014 -0.2598 -4.0322
  105SOL     OW  313   0.596   1.926   1.991 -0.3314  0.5142  0.8693
  105SOL    HW1  314   0.693   1.904   1.988 -4.4957  1.3403 -1.9476
  105SOL    HW2  315   0.545   1.926   1.905 -3.0390 -3.2460  2.6481
  106SOL     OW  316   1.974   2.996   0.539 -0.1469  0.4850 -0.3697
  106SOL    HW1  317   2.018   3.044   0.462  0.1582 -0.2839 -0.8638
  106SOL    HW2  318   1.994   3.042   0.626  0.1676  0.8463 -0.4435
  107SOL     OW  319   0.552   1.147   1.358 -1.0085 -0.0087 -0.1774
  107SOL    HW1  320   0.477   1.118   1.295  2.2750  1.4413  2.3541
  107SOL    HW2  321   0.641   1.129   1.307  0.8738  2.4282  0.1385
  108SOL     OW  322   2.769   1.254   2.407  0.2321  0.5062  0.2989
  108SOL    HW1  323   2.868   1.240   2.429  1.1297 -1.2594  2.1260
  108SOL    HW2  324   2.757   1.280   2.307  1.4518  0.8904  1.2878
  109SOL     OW  325   2.011   2.868   3.033 -0.2522 -0.7219  0.6957
  109SOL    HW1  326   2.010   2.970   3.003 -1.6672  2.8357 -0.0953
  109SOL    HW2  327   1.915   2.829   3.038 -1.5778 -1.9793 -1.9860
  110SOL     OW  328   0.137   1.950   3.063 -0.3119  0.4171  0.2620
  110SOL    HW1  329   0.069   1.980   2.993  2.3366 -0.8564  0.0209
  110SOL    HW2  330   0.179   1.855   3.035  1.5909  0.0004 -0.0917
  111SOL     OW  331   2.711   0.759   2.182  0.4414  0.1241 -0.2021
  111SOL    HW1  332   2.800   0.752   2.221  0.6967  0.4841  0.2157
  111SOL    HW2  333   2.650   0.825   2.229 -1.0101 -0.6687 -0.3206
  112SOL     OW  334   2.145   2.609   1.400 -0.2504  0.0758 -0.0685
  112SOL    HW1  335   2.081   2.658   1.457 -1.7661  0.6706 -1.6361
  112SOL    HW2  336   2.179   2.532   1.456  0.6541  0.8140 -2.4057
  113SOL     OW  337   1.983   2.245   2.680  0.0633  0.1514 -0.5483
  113SOL    HW1  338   2.070   2.195   2.681 -0.8141 -2.1681  2.0131
  113SOL    HW2  339   1.972   2.298   2.766  0.2467 -0.7335  0.4610
  114SOL     OW  340   0.556   0.217   0.622  0.5735  0.2175 -0.0233
  114SOL    HW1  341   0.510   0.152   0.560 -2.2096  0.2309 -1.7640
  114SOL    HW2  342   0.623   0.285   0.573  3.1557  3.8917 -0.8014
  115SOL     OW  343   0.006   1.613   0.061  0.1009 -0.1050 -0.0799
  115SOL    HW1  344   0.080   1.571   0.119 -2.2647  1.1551 -1.8130
  115SOL    HW2  345   0.052   1.679   3.102  0.3409  0.0494  1.2152
  116SOL     OW  346   2.970   1.308   1.730  0.4600  0.3040  0.3677
  116SOL    HW1  347   3.002   1.408   1.725  0.5864  2.2548 -0.2236
  116SOL    HW2  348   2.868   1.292   1.726 -2.1727  0.7950  0.4076
  117SOL     OW  349   2.112   0.268   1.325 -0.5854 -0.2630  0.2818
  117SOL    HW1  350   2.184   0.344   1.321  1.2945  2.2107  0.5106
  117SOL    HW2  351   2.048   0.290   1.402 -3.7373 -0.4036  1.9829
  118SOL     OW  352   2.686   2.785   2.033  0.1338 -0.7774 -0.0374
  118SOL    HW1  353   2.655   2.733   1.950 -0.0848  0.5405 -1.5676
  118SOL    HW2  354   2.788   2.780   2.050  1.4081 -1.7774  1.1844
  119SOL     OW  355   0.502   1.667   1.495  0.3113  0.8478 -0.1158
  119SOL    HW1  356   0.570   1.596   1.454 -0.3157  2.1352 -0.6339
  119SOL    HW2  357   0.547   1.749   1.518 -0.2942 -3.3345 -0.0451
  120SOL     OW  358   0.359   1.436   1.764  0.9386 -0.2643 -0.1533
  120SOL    HW1  359   0.389   1.396   1.677  0.2391  1.2749 -1.8571
  120SOL    HW2  360   0.307   1.526   1.745  0.4940  1.1397 -0.7982
  121SOL     OW  361   1.613   0.904   0.699  0.3249  0.4843 -0.0617
  121SOL    HW1  362   1.642   0.894   0.797  1.8670 -2.9130  2.5988
  121SOL    HW2  363   1.582   0.997   0.680 -0.9467 -2.0588  2.5083
  122SOL     OW  364   2.475   2.437   2.678  0.3179  0.1950 -0.3882
  122SOL    HW1  365   2.396   2.500   2.671  1.8202  1.8065  0.7616
  122SOL    HW2  366   2.471   2.364   2.602 -0.2555  0.3614 -2.4472
  123SOL     OW  367   2.989   3.054   0.370 -0.4573 -0.1921 -0.0040
  123SOL    HW1  368   2.892   3.028   0.383 -0.7772 -0.9028 -1.1509
  123SOL    HW2  369   3.044   3.036   0.453 -1.9400  0.8119 -0.1171
  124SOL     OW  370   1.736   1.302   0.269 -0.3213 -0.0264 -0.1534
  124SOL    HW1  371   1.646   1.329   0.216 -2.6887 -0.5927 -0.1202
  124SOL    HW2  372   1.800   1.384   0.274 -1.4768  2.5620  0.5897
  125SOL     OW  373   0.259   0.991   2.256 -0.5316 -0.0480  0.0448
  125SOL    HW1  374   0.246   0.912   2.321  1.3292 -3.0301  0.2201
  125SOL    HW2  375   0.360   0.998   2.232 -0.0077 -0.9165 -0.6465
  126SOL     OW  376   0.001   2.746   0.027 -0.3016  0.4476 -0.0488
  126SOL    HW1  377   3.099   2.745   0.131  2.0662 -1.3789  1.3661
  126SOL    HW2  378   0.054   2.829   3.094  1.7391 -0.5624 -1.5672
  127SOL     OW  379   2.766   1.922   0.118 -0.4895 -1.0525  0.5736
  127SOL    HW1  380   2.815   1.934   0.208  0.8590 -0.7510  2.1349
  127SOL    HW2  381   2.763   2.013   0.076  2.1861 -0.3187 -1.3337
  128SOL     OW  382   1.148   0.967   0.924 -0.2146  0.7670 -0.0285
  128SOL    HW1  383   1.093   1.054   0.937  2.3829  2.5973 -0.6912
  128SOL    HW2  384   1.251   0.972   0.948  0.0695 -0.1320  2.9062
  129SOL     OW  385   2.556   2.161   1.130  0.2862  0.6274 -0.4774
  129SOL    HW1  386   2.485   2.095   1.159  0.8790 -0.8911  2.2536
  129SOL    HW2  387   2.514   2.252   1.111 -2.2931  1.3359 -0.0546
  130SOL     OW  388   2.033   0.972   0.310  0.7360  0.3207  0.1808
  130SOL    HW1  389   2.109   1.021   0.263 -0.0463 -2.7493 -0.8914
  130SOL    HW2  390   1.943   1.011   0.280 -0.7961 -2.7235 -0.2983
  131SOL     OW  391   2.983   1.440   2.685  0.0983  0.1190  0.3290
  131SOL    HW1  392   2.998   1.536   2.650 -1.4119 -2.0082  0.3507
  131SOL    HW2  393   3.014   1.431   2.780 -3.0979 -0.9162  0.5694
  132SOL     OW  394   1.179   1.254   2.137 -0.1310  0.0114  0.5874
  132SOL    HW1  395   1.117   1.325   2.101  0.7007  2.5200  0.0202
  132SOL    HW2  396   1.163   1.176   2.074  2.8042  0.8155  1.4612
  133SOL     OW  397   0.457   1.294   0.678  0.4264  0.9082  0.0543
  133SOL    HW1  398   0.491   1.377   0.635  0.6959 -1.4320  1.1332
  133SOL    HW2  399   0.489   1.286   0.778  1.0611 -1.0734  1.0082
  134SOL     OW  400   2.810   1.337   0.047  0.8577  0.0961 -0.2980
  134SOL    HW1  401   2.836   1.254   0.002 -0.5918  2.1851 -2.3560
  134SOL    HW2  402   2.770   1.392   3.075  0.9283 -1.7249  0.3960
  135SOL     OW  403   1.602   0.661   0.070 -0.5844 -0.0087 -0.0592
  135SOL    HW1  404   1.637   0.700   3.082 -0.9406  0.0181  0.1024
  135SOL    HW2  405   1.673   0.647   0.142  3.0406  1.8536  0.8108
  136SOL     OW  406   2.035   1.697   1.386  0.2126  0.9203  0.6661
  136SOL    HW1  407   2.080   1.653   1.301 -0.2943 -0.5674 -0.7795
  136SOL    HW2  408   1.935   1.674   1.380 -2.8311 -3.1205  0.1897
  137SOL     OW  409   2.337   2.603   0.955 -0.0553  0.4073  0.1339
  137SOL    HW1  410   2.290   2.685   1.000  2.2461  0.3622  0.8085
  137SOL    HW2  411   2.283   2.575   0.871  1.5807 -1.6021  1.3113
  138SOL     OW  412   2.239   0.502   1.867  0.3914 -0.1562  0.5767
  138SOL    HW1  413   2.219   0.477   1.964 -3.3917 -2.8529  0.4199
  138SOL    HW2  414   2.217   0.423   1.803 -0.0933 -1.5439 -1.5654
  139SOL     OW  415   2.599   2.737   3.009  0.0542 -0.3861  0.1142
  139SOL    HW1  416   2.694   2.730   3.054  1.5225 -0.2896  1.7276
  139SOL    HW2  417   2.596   2.703   2.912  1.9749 -3.6671  3.7552
  140SOL     OW  418   1.636   1.789   2.324  0.2660 -0.1818  0.2542
  140SOL    HW1  419   1.709   1.824   2.262 -0.5268  1.1243  1.1851
  140SOL    HW2  420   1.645   1.689   2.340 -0.9215  0.3666  0.2464
  141SOL     OW  421   0.927   1.054   2.429  0.3139 -0.3909 -0.6554
  141SOL    HW1  422   0.888   1.149   2.443  0.5736  1.2698  0.1937
  141SOL    HW2  423   1.002   1.036   2.495 -1.1558  0.0458  0.6772
  142SOL     OW  424   2.349   2.811   1.892 -0.0280 -0.1532 -0.1679
  142SOL    HW1  425   2.374   2.907   1.932 -0.7218  1.3692 -0.8259
  142SOL    HW2  426   2.280   2.758   1.946  2.5482  0.4246 -0.9710
  143SOL     OW  427   1.195   2.339   0.447  0.5412  0.5073 -0.0235
  143SOL    HW1  428   1.224   2.357   0.353  1.5372  0.8163 -0.8466
  143SOL    HW2  429   1.091   2.347   0.447  0.3495  0.3352  1.6978
  144SOL     OW  430   1.032   2.725   0.616 -0.4932 -0.3772 -0.4196
  144SOL    HW1  431   1.104   2.794   0.637 -0.4466 -0.8807  0.3447
  144SOL    HW2  432   0.970   2.752   0.541  1.7715 -0.6092  0.4534
  145SOL     OW  433   1.703   2.558   2.318  0.4303  0.0557 -0.0015
  145SOL    HW1  434   1.603   2.551   2.328 -2.6816 -0.3877  0.9009
  145SOL    HW2  435   1.738   2.652   2.351  3.2970  1.5105  1.1500
  146SOL     OW  436   2.059   2.872   0.188  0.0884 -0.1781  0.3621
  146SOL    HW1  437   1.970   2.826   0.189 -1.9114 -1.5867 -0.3336
  146SOL    HW2  438   2.102   2.857   0.096  0.4046 -1.1689 -3.2345
  147SOL     OW  439   0.237   1.631   1.473 -1.1114  0.4886 -0.5940
  147SOL    HW1  440   0.340   1.632   1.473  1.2027  2.7467 -4.2586
  147SOL    HW2  441   0.204   1.530   1.472  1.1150 -2.7476 -0.4581
  148SOL     OW  442   1.772   2.919   0.362 -0.2524 -0.1968  0.3219
  148SOL    HW1  443   1.842   2.947   0.429 -3.1179 -0.8514 -3.0807
  148SOL    HW2  444   1.795   2.834   0.307  0.0600 -1.1072 -1.4445
  149SOL     OW  445   0.582   1.902   3.071 -0.3803 -0.3295  0.2914
  149SOL    HW1  446   0.679   1.928   3.054 -0.9777  3.3261  1.0381
  149SOL    HW2  447   0.531   1.987   3.099  0.9754 -0.0987  0.6129
  150SOL     OW  448   0.258   2.616   1.050 -0.0189  0.0383  0.4681
  150SOL    HW1  449   0.336   2.678   1.069 -1.5976 -0.7841  0.1325
  150SOL    HW2  450   0.205   2.658   0.978  0.3555 -0.9151 -2.2779
  151SOL     OW  451   0.436   1.179   3.074  0.3285  0.2340  0.7421
  151SOL    HW1  452   0.496   1.248   3.026 -1.7201 -1.7589 -0.9748
  151SOL    HW2  453   0.357   1.231   0.011  1.2722  2.3593 -0.0706
  152SOL     OW  454   3.009   2.190   0.753 -0.7433  0.3928  0.2060
  152SOL    HW1  455   2.953   2.129   0.816 -2.2324 -0.1329 -0.0902
  152SOL    HW2  456   3.059   2.268   0.802  3.8134  1.5662  1.4013
  153SOL     OW  457   1.702   2.352   0.680  0.2859  0.1270 -0.2377
  153SOL    HW1  458   1.765   2.286   0.637 -0.0701 -0.4690 -0.2386
  153SOL    HW2  459   1.629   2.299   0.726  2.6496  0.1696 -0.5108
  154SOL     OW  460   0.550   2.941   1.574 -0.3377  0.4882 -0.0546
  154SOL    HW1  461   0.477   3.006   1.560  1.6685  2.7248  1.0811
  154SOL    HW2  462   0.643   2.981   1.576  1.6606  0.0109  2.9684
  155SOL     OW  463   2.730   2.293   0.373  0.4788 -0.0437  0.1066
  155SOL    HW1  464   2.776   2.346   0.446 -1.1078 -2.3467  1.3555
  155SOL    HW2  465   2.752   2.340   0.282 -0.0740  4.5995 -3.4903
  156SOL     OW  466   2.504   1.830   0.151 -0.0081 -0.2792 -0.4609
  156SOL    HW1  467   2.608   1.840   0.153  2.4591  1.0947 -1.4005
  156SOL    HW2  468   2.466   1.922   0.169  2.2697  0.2959  0.9075
  157SOL     OW  469   0.476   2.883   2.012  0.0371 -0.3144  0.3985
  157SOL    HW1  470   0.409   2.937   1.957 -2.2267  1.1562  0.6184
  157SOL    HW2  471   0.425   2.851   2.093 -1.1187  0.6787  2.1712
  158SOL     OW  472   1.371   0.751   1.052 -0.6059 -0.2414 -0.0053
  158SOL    HW1  473   1.413   0.838   1.024  2.2333 -0.4538  0.4441
  158SOL    HW2  474   1.377   0.740   1.154  0.8871 -0.0630  0.1426
  159SOL     OW  475   1.805   1.076   3.002  0.0830  0.0797 -0.3722
  159SOL    HW1  476   1.849   1.030   2.922  4.8469 -1.6590  0.3428
  159SOL    HW2  477   1.819   1.025   3.092  0.5777  0.7739 -1.6009
  160SOL     OW  478   1.296   1.957   0.466 -0.4297 -0.8430  0.1309
  160SOL    HW1  479   1.333   2.051   0.486  0.9285  0.9644  1.2710
  160SOL    HW2  480   1.264   1.922   0.560 -0.4724 -1.5376  2.3006
  161SOL     OW  481   2.242   2.156   2.700 -0.2179  0.4907  0.1509
  161SOL    HW1  482   2.270   2.206   2.784  3.5188 -0.0557  0.2841
  161SOL    HW2  483   2.222   2.059   2.722 -3.2432 -1.2589 -0.5222
  162SOL     OW  484   0.188   2.445   1.763 -0.3167  0.0288  0.0047
  162SOL    HW1  485   0.131   2.389   1.698  0.8387  1.0734 -2.3008
  162SOL    HW2  486   0.271   2.482   1.719  2.4299 -0.9220 -0.1781
  163SOL     OW  487   0.196   0.550   2.690 -0.6730  0.4414  0.1808
  163SOL    HW1  488   0.252   0.593   2.756 -0.5478  0.6590 -2.9803
  163SOL    HW2  489   0.141   0.620   2.642 -0.3689 -0.4779  0.6848
  164SOL     OW  490   0.171   2.842   2.794  0.2558 -0.5290 -0.5440
  164SOL    HW1  491   0.192   2.926   2.737 -0.0069  1.9006  0.3340
  164SOL    HW2  492   0.192   2.864   2.888  0.3512 -2.3760 -0.0638
  165SOL     OW  493   2.731   0.778   1.628  0.1555 -0.0114  0.3986
  165SOL    HW1  494   2.668   0.778   1.547  0.2468  1.0544 -0.1689
  165SOL    HW2  495   2.809   0.836   1.609 -1.0940 -4.3398 -1.6300
  166SOL     OW  496   2.151   1.559   1.177 -0.3420 -0.2527 -0.0092
  166SOL    HW1  497   2.082   1.483   1.170  0.7628 -0.7316 -1.2085
  166SOL    HW2  498   2.169   1.602   1.086 -3.6003 -0.4081  1.4728
  167SOL     OW  499   0.085   0.769   2.589 -0.0273  0.1009 -0.3221
  167SOL    HW1  500   0.117   0.759   2.490  0.6268 -1.5087 -0.1900
  167SOL    HW2  501   0.075   0.868   2.618  0.5505  1.2778  0.4471
  168SOL     OW  502   2.209   0.221   2.478  0.2343  0.3277 -0.2385
  168SOL    HW1  503   2.132   0.179   2.532 -0.3015 -1.7719  3.5983
  168SOL    HW2  504   2.204   0.321   2.483 -1.3626 -3.7913 -1.0593
  169SOL     OW  505   0.611   0.937   3.064  0.3796  0.0816  0.4900
  169SOL    HW1  506   0.546   0.855   3.079 -2.8122 -3.2837  0.6183
  169SOL    HW2  507   0.575   1.024   0.002  1.3918 -0.0927  0.8049
  170SOL     OW  508   1.055   1.395   1.645  0.0548  0.3947  0.0938
  170SOL    HW1  509   0.959   1.387   1.676  2.1660  1.0605 -2.2873
  170SOL    HW2  510   1.114   1.315   1.666 -0.7756  0.4234 -0.8623
  171SOL     OW  511   1.286   2.674   1.375  0.0070  0.0436 -0.1751
  171SOL    HW1  512   1.195   2.728   1.378 -3.9128  0.0384  0.3103
  171SOL    HW2  513   1.360   2.743   1.390  0.7753  1.6108  0.0585
  172SOL     OW  514   0.915   0.009   1.971  1.0277  0.5006  0.1554
  172SOL    HW1  515   0.948   0.020   2.068 -0.3686  0.4955 -2.7506
  172SOL    HW2  516   0.933   3.014   1.933  2.3817 -2.2223  0.0000
  173SOL     OW  517   0.876   2.669   0.873  0.5226  0.2386  0.1080
  173SOL    HW1  518   0.881   2.651   0.771  0.9997 -0.6843  1.1068
  173SOL    HW2  519   0.850   2.582   0.924 -0.4134 -1.6205 -1.3379
  174SOL     OW  520   2.141   0.265   0.406 -0.6103  0.2976 -0.0729
  174SOL    HW1  521   2.145   0.237   0.503  1.5415 -1.1305 -2.0107
  174SOL    HW2  522   2.071   0.208   0.357  0.1117 -2.2740 -0.6688
  175SOL     OW  523   1.511   1.157   0.628 -0.0551  0.3280  0.2470
  175SOL    HW1  524   1.582   1.213   0.579 -0.0016  2.0763 -3.2169
  175SOL    HW2  525   1.416   1.173   0.589  1.4565 -1.1946  0.8667
  176SOL     OW  526   1.203   1.869   0.719  0.1652 -0.1839 -0.1593
  176SOL    HW1  527   1.121   1.934   0.719  0.8452  1.4588  0.6133
  176SOL    HW2  528   1.225   1.840   0.812  0.6814 -0.3042 -1.9045
  177SOL     OW  529   1.743   1.313   0.990 -0.1324 -0.4936 -0.1038
  177SOL    HW1  530   1.733   1.359   0.894  0.5553  1.8991 -3.9667
  177SOL    HW2  531   1.781   1.224   0.978  0.3230  0.0321  0.7574
  178SOL     OW  532   2.153   1.607   0.165 -0.0520 -0.0924 -0.0960
  178SOL    HW1  533   2.173   1.690   0.221  1.6939  1.7526  2.4854
  178SOL    HW2  534   2.208   1.601   0.079 -0.8215 -0.3137  1.7648
  179SOL     OW  535   1.223   2.837   3.079 -0.2856 -0.3660  0.3822
  179SOL    HW1  536   1.265   2.761   0.035 -0.7704  0.1775  0.6916
  179SOL    HW2  537   1.182   2.799   2.991 -0.1015 -0.1913 -2.3492
  180SOL     OW  538   1.996   1.211   1.381  0.0769 -0.5483 -0.0511
  180SOL    HW1  539   1.948   1.281   1.441 -1.3800  3.0240  0.3366
  180SOL    HW2  540   2.035   1.254   1.300 -0.4674  3.5433  2.7559
  181SOL     OW  541   0.777   0.765   1.812 -0.0668  0.1312  0.9716
  181SOL    HW1  542   0.842   0.809   1.750 -1.1163 -1.5448  0.0353
  181SOL    HW2  543   0.800   0.666   1.827 -3.5246  0.9448 -0.3481
  182SOL     OW  544   3.095   1.011   2.627 -0.4288 -0.2420  0.0726
  182SOL    HW1  545   3.028   0.946   2.590  0.3175  0.8620 -0.0874
  182SOL    HW2  546   3.084   1.100   2.577 -0.9005 -1.7034 -0.8795
  183SOL     OW  547   1.490   0.440   2.276  0.0294  0.0454  0.2780
  183SOL    HW1  548   1.585   0.456   2.311 -0.5277 -1.6675 -0.5947
  183SOL    HW2  549   1.422   0.474   2.347 -2.0863  2.5397  0.0090
  184SOL     OW  550   0.770   0.535   1.175 -0.8005 -0.1934  0.4300
  184SOL    HW1  551   0.800   0.583   1.090  0.2246  1.6470 -1.0327
  184SOL    HW2  552   0.843   0.484   1.221 -2.2805  0.4280 -1.8688
  185SOL     OW  553   2.319   1.179   0.529 -0.1967 -0.0710  0.1019
  185SOL    HW1  554   2.378   1.224   0.454  2.0958 -1.4082  3.5615
  185SOL    HW2  555   2.226   1.222   0.535 -0.9759 -0.5335  2.4104
  186SOL     OW  556   0.151   1.941   0.248  0.6496  0.1577  1.2149
  186SOL    HW1  557   0.195   1.858   0.285 -1.1602 -0.5361  1.5138
  186SOL    HW2  558   0.146   1.938   0.144 -0.7977  0.7719 -2.1016
  187SOL     OW  559   1.815   2.126   2.969 -0.1086  0.2749 -0.3257
  187SOL    HW1  560   1.888   2.079   3.029  3.4091 -2.4026  2.9105
  187SOL    HW2  561   1.847   2.223   2.956 -0.0856  0.6998  2.0071
  188SOL     OW  562   1.568   2.340   1.407 -0.0533 -0.3586 -0.4902
  188SOL    HW1  563   1.574   2.245   1.380 -2.2542 -0.8012  0.8228
  188SOL    HW2  564   1.476   2.369   1.444 -1.0015 -0.2939 -3.2023
  189SOL     OW  565   2.328   1.264   2.472  0.0880  0.0262 -0.3337
  189SOL    HW1  566   2.283   1.322   2.543 -1.7177  1.3651 -0.9054
  189SOL    HW2  567   2.353   1.314   2.392 -1.2862 -3.1213  5.2918
  190SOL     OW  568   0.671   2.726   2.131 -0.1183 -0.8503 -0.1939
  190SOL    HW1  569   0.669   2.632   2.095 -0.1046  0.7855  2.0845
  190SOL    HW2  570   0.602   2.795   2.096 -2.4791  2.5239 -0.4346
  191SOL     OW  571   2.705   1.101   1.174  0.2439 -0.2218  0.6318
  191SOL    HW1  572   2.671   1.109   1.271 -1.2485  0.5880  1.4614
  191SOL    HW2  573   2.651   1.164   1.107 -0.7714  1.4736 -2.4577
  192SOL     OW  574   2.227   0.577   1.044  0.1965 -0.1264 -0.0143
  192SOL    HW1  575   2.201   0.547   1.138 -1.3284  2.0558  2.1178
  192SOL    HW2  576   2.159   0.537   0.983  0.0980 -2.1240 -1.3097
  193SOL     OW  577   0.819   0.294   0.138  0.4321 -0.4378 -0.1029
  193SOL    HW1  578   0.747   0.330   0.070  1.1247 -0.9758  1.0010
  193SOL    HW2  579   0.772   0.223   0.188  3.4703  4.1496 -1.6144
  194SOL     OW  580   1.297   2.452   1.226  0.1535  0.1980  0.1254
  194SOL    HW1  581   1.287   2.532   1.287 -0.9711 -2.5885 -4.4810
  194SOL    HW2  582   1.345   2.478   1.142 -0.8879  0.3657  1.6653
  195SOL     OW  583   2.739   0.927   0.468 -0.0596 -0.2037  0.3486
  195SOL    HW1  584   2.775   0.934   0.566 -0.5012  0.1538  0.9281
  195SOL    HW2  585   2.721   0.827   0.438 -0.4739 -2.3117 -1.3610
  196SOL     OW  586   0.540   2.292   1.653 -0.0246 -0.5271  0.0659
  196SOL    HW1  587   0.456   2.232   1.667 -0.6877 -1.7056  2.5400
  196SOL    HW2  588   0.528   2.353   1.573  2.6034  1.8412 -0.3664
  197SOL     OW  589   3.069   0.593   2.117 -0.2606 -0.6029  0.1704
  197SOL    HW1  590   3.082   0.495   2.099 -1.9693  2.9040  0.1042
  197SOL    HW2  591   3.015   0.641   2.038 -2.0921 -0.7530 -0.0386
  198SOL     OW  592   2.142   1.322   0.221  0.0064  0.2211 -0.0193
  198SOL    HW1  593   2.073   1.304   0.152  5.4861  2.0035  0.1473
  198SOL    HW2  594   2.172   1.419   0.214  0.3328 -0.8585  2.9869
  199SOL     OW  595   2.513   0.394   1.889 -0.2390  0.1863  0.2818
  199SOL    HW1  596   2.423   0.419   1.862  1.8268  0.5547  0.8622
  199SOL    HW2  597   2.584   0.430   1.823  0.4072  1.2427  1.7372
  200SOL     OW  598   2.073   0.028   2.995 -0.2440  0.4025 -0.3238
  200SOL    HW1  599   2.084   0.076   3.084  2.0349  0.9197  0.7261
  200SOL    HW2  600   1.994   0.062   2.947 -1.7671  1.1087 -2.9853
  201SOL     OW  601   2.690   0.070   0.831  0.4879 -0.0459 -0.2558
  201SOL    HW1  602   2.674   0.072   0.933  2.1687  0.3512  1.3336
  201SOL    HW2  603   2.659   0.161   0.790  0.3222  0.8904  2.4125
  202SOL     OW  604   2.828   2.698   0.250 -0.5582 -0.0798  0.8957
  202SOL    HW1  605   2.916   2.732   0.269 -1.6759 -1.9493 -0.7198
  202SOL    HW2  606   2.766   2.745   0.314  3.4216 -0.0329 -0.9211
  203SOL     OW  607   1.814   1.924   0.634 -0.1571 -0.3828  0.8592
  203SOL    HW1  608   1.750   1.954   0.710 -2.4566 -0.5858  2.1250
  203SOL    HW2  609   1.911   1.936   0.666  1.5693  1.4097  1.5495
  204SOL     OW  610   0.194   1.702   2.190 -0.2458  0.4912 -0.7844
  204SOL    HW1  611   0.295   1.687   2.175 -3.1670 -0.2457  0.5572
  204SOL    HW2  612   0.156   1.612   2.229  1.3673  0.1289 -1.7885
  205SOL     OW  613   0.836   0.538   0.727  0.1466  0.3532  0.4023
  205SOL    HW1  614   0.894   0.583   0.657 -3.4029 -3.4807  0.0854
  205SOL    HW2  615   0.856   0.584   0.815 -1.0128 -1.5778 -0.8935
  206SOL     OW  616   0.360   0.747   2.995 -0.0412 -0.8332  0.4860
  206SOL    HW1  617   0.281   0.762   3.061 -3.7621  0.1359  0.7486
  206SOL    HW2  618   0.367   0.833   2.934  4.2391 -1.0786 -0.7937
  207SOL     OW  619   1.154   2.464   1.890  0.2302  0.8072  0.1979
  207SOL    HW1  620   1.129   2.456   1.987  1.2040 -0.2461 -0.4805
  207SOL    HW2  621   1.083   2.425   1.825 -2.2214 -1.4002 -2.2376
  208SOL     OW  622   2.660   0.266   1.506  0.2694 -0.2696  0.2443
  208SOL    HW1  623   2.757   0.242   1.505 -3.3781 -2.3526  0.8978
  208SOL    HW2  624   2.611   0.217   1.576  0.1956 -0.4207  0.1209
  209SOL     OW  625   1.836   0.748   0.633  0.3034  0.0454 -0.2216
  209SOL    HW1  626   1.898   0.749   0.712  0.9082  1.5316  1.3796
  209SOL    HW2  627   1.742   0.771   0.669 -0.5711  0.7778  0.6500
  210SOL     OW  628   2.539   1.018   0.303 -0.3454 -0.0226 -0.5938
  210SOL    HW1  629   2.615   0.979   0.362  0.3647  0.3102 -0.8930
  210SOL    HW2  630   2.532   1.116   0.315  0.5046 -1.9750  1.9043
  211SOL     OW  631   1.111   3.022   0.137 -0.0570  0.0611  0.1882
  211SOL    HW1  632   1.170   3.100   0.166 -3.7303 -1.4511  0.4420
  211SOL    HW2  633   1.160   2.949   0.085 -0.6569  1.4214  2.0393
  212SOL     OW  634   2.057   1.995   0.742 -0.3814  0.1320  0.3801
  212SOL    HW1  635   2.068   2.075   0.799  1.7912 -1.1556  1.7459
  212SOL    HW2  636   2.144   1.978   0.695 -2.2384 -2.3372  3.4527
  213SOL     OW  637   2.595   0.099   0.042  0.2740 -0.2424  0.1826
  213SOL    HW1  638   2.581   0.028   3.068  0.6204 -0.8874 -0.6693
  213SOL    HW2  639   2.584   0.195   0.013 -2.4235 -0.5013 -0.7297
  214SOL     OW  640   1.043   2.429   2.131 -0.4405 -0.3815  0.1812
  214SOL    HW1  641   1.024   2.329   2.140  0.7895  0.4361  0.5238
  214SOL    HW2  642   0.986   2.472   2.207  0.1876  0.7598  0.4412
  215SOL     OW  643   0.328   1.060   0.684 -0.2281 -0.5556 -0.4739
  215SOL    HW1  644   0.293   1.077   0.782 -2.2962 -1.0311  0.0417
  215SOL    HW2  645   0.381   1.146   0.663 -0.0841  0.3075  0.9327
  216SOL     OW  646   0.227   2.559   2.752  0.2711 -0.5076  0.0867
  216SOL    HW1  647   0.323   2.579   2.782  0.3966 -0.2632 -3.0244
  216SOL    HW2  648   0.171   2.643   2.734  2.5588  1.9625  1.2653
  217SOL     OW  649   2.821   1.379   1.338 -0.0231  0.7147  0.3959
  217SOL    HW1  650   2.912   1.421   1.335  1.5513  3.2129 -2.5563
  217SOL    HW2  651   2.810   1.312   1.416 -1.1052 -1.7297  0.2295
  218SOL     OW  652   0.944   2.200   1.742 -0.4338 -0.3669  0.6412
  218SOL    HW1  653   0.884   2.275   1.770 -0.6156  1.3688 -0.3833
  218SOL    HW2  654   0.963   2.137   1.822  0.1592  0.6839 -3.6271
  219SOL     OW  655   1.906   1.529   0.322 -0.0788  0.5628 -0.6552
  219SOL    HW1  656   1.838   1.603   0.322  0.5126 -3.4434  1.0476
  219SOL    HW2  657   1.970   1.542   0.245 -2.1687  0.6881  0.2451
  220SOL     OW  658   2.223   0.397   3.069 -0.6968  0.5353  0.7731
  220SOL    HW1  659   2.314   0.361   3.085  3.5838  3.2068 -0.6746
  220SOL    HW2  660   2.232   0.503   3.067 -0.1685  3.1317  0.3828
  221SOL     OW  661   3.015   0.751   0.197 -0.2299 -0.1941 -0.1585
  221SOL    HW1  662   3.043   0.745   0.297  0.9110 -0.4415  0.5411
  221SOL    HW2  663   3.099   0.753   0.138  2.3564  0.3901  1.6164
  222SOL     OW  664   1.724   1.416   0.755  0.3434 -0.6168 -0.2255
  222SOL    HW1  665   1.711   1.343   0.682 -1.6034  0.6220 -3.4274
  222SOL    HW2  666   1.690   1.508   0.730  0.8791 -0.4740  0.7595
  223SOL     OW  667   1.276   0.174   2.926  0.5167 -0.2026  0.4656
  223SOL    HW1  668   1.328   0.084   2.911  2.3372 -0.6216  0.8152
  223SOL    HW2  669   1.192   0.162   2.985 -0.9536  0.1886 -1.4401
  224SOL     OW  670   0.709   2.930   1.139  0.5136  0.4837  0.1428
  224SOL    HW1  671   0.715   3.026   1.110 -2.5671 -3.9651 -0.8096
  224SOL    HW2  672   0.794   2.881   1.164 -0.2870 -1.9857 -1.4884
  225SOL     OW  673   0.607   3.056   2.185  0.3302  0.1705  0.4482
  225SOL    HW1  674   0.531   3.001   2.142 -2.1801 -1.3610  2.4775
  225SOL    HW2  675   0.691   3.003   2.198 -0.9142  4.7054  1.4539
  226SOL     OW  676   1.470   1.591   0.383  0.8608 -0.0478 -0.1869
  226SOL    HW1  677   1.439   1.620   0.474 -0.8434  0.8431  0.3016
  226SOL    HW2  678   1.565   1.626   0.358 -2.7879 -0.8581  1.0797
  227SOL     OW  679   0.464   1.895   1.214 -0.2647 -0.4269 -0.0111
  227SOL    HW1  680   0.426   1.933   1.126 -2.6691  0.4203 -0.5247
  227SOL    HW2  681   0.510   1.803   1.207 -0.9611 -1.4531  1.9593
  228SOL     OW  682   0.019   1.921   0.513  0.1929 -0.3310  0.0583
  228SOL    HW1  683   0.112   1.902   0.472  0.8797  1.3581  0.4567
  228SOL    HW2  684   0.021   2.017   0.546 -1.8622  0.6875 -0.5266
  229SOL     OW  685   2.786   0.253   2.897 -0.0861 -0.3424 -0.0704
  229SOL    HW1  686   2.722   0.187   2.855 -1.4588  3.2664 -0.0106
  229SOL    HW2  687   2.880   0.215   2.894  3.2769 -1.2252  0.4550
  230SOL     OW  688   2.420   0.668   0.439 -0.6485 -0.1900 -0.3400
  230SOL    HW1  689   2.342   0.603   0.434  1.0226  1.4677  1.3886
  230SOL    HW2  690   2.392   0.762   0.472 -0.6535  0.0236  0.8202
  231SOL     OW  691   1.833   1.518   0.003 -0.2127  0.5867 -0.1234
  231SOL    HW1  692   1.727   1.513   3.100 -2.2678 -1.8679  1.6340
  231SOL    HW2  693   1.877   1.612   3.090 -1.4261  0.6709 -0.1017
  232SOL     OW  694   2.361   1.952   1.105  0.2202 -0.3778 -0.5417
  232SOL    HW1  695   2.414   1.879   1.054  2.6932 -1.8138  1.1881
  232SOL    HW2  696   2.331   1.911   1.197 -0.8558 -1.6838  1.3937
  233SOL     OW  697   0.125   2.713   1.629 -0.0651 -0.2771 -0.0923
  233SOL    HW1  698   0.207   2.658   1.625 -0.8342  0.9878 -0.1404
  233SOL    HW2  699   0.041   2.655   1.622  2.6562 -0.1447 -1.6666
  234SOL     OW  700   0.754   0.205   2.571 -0.2564  0.0043  0.1938
  234SOL    HW1  701   0.829   0.142   2.604  0.0965  0.6334  0.0320
  234SOL    HW2  702   0.716   0.276   2.641  0.5150  3.0764  0.3711
  235SOL     OW  703   2.848   0.990   1.951  0.1899 -0.3762 -0.1023
  235SOL    HW1  704   2.921   1.060   1.959 -2.2999  1.4537  0.4495
  235SOL    HW2  705   2.877   0.897   1.976 -2.5349 -0.0362 -3.3830
  236SOL     OW  706   1.145   2.887   1.823  0.0482 -0.0967  0.3441
  236SOL    HW1  707   1.059   2.858   1.870 -0.7557  0.4663 -1.8326
  236SOL    HW2  708   1.209   2.811   1.809 -3.3407  1.3931  2.9405
  237SOL     OW  709   0.514   1.518   2.689 -0.1176 -0.3062  0.5716
  237SOL    HW1  710   0.531   1.526   2.591  2.2364  0.6971  2.1648
  237SOL    HW2  711   0.516   1.611   2.724 -3.5550 -0.5954 -1.6955
  238SOL     OW  712   1.047   0.570   2.353  0.0182 -0.5614 -0.9528
  238SOL    HW1  713   1.061   0.669   2.326 -0.8164  2.1130 -1.7169
  238SOL    HW2  714   0.959   0.558   2.406  0.1659  1.8833  1.5197
  239SOL     OW  715   0.541   2.093   2.213  0.4462 -0.3082 -0.6117
  239SOL    HW1  716   0.565   2.032   2.132  1.6310 -1.4191 -1.4789
  239SOL    HW2  717   0.581   2.187   2.199  0.9095  0.4437 -0.1615
  240SOL     OW  718   2.445   3.055   0.429  0.6523 -0.2590  0.1065
  240SOL    HW1  719   2.400   3.098   0.509  1.5795 -0.5298  0.0332
  240SOL    HW2  720   2.494   0.031   0.380 -1.8941  3.2116 -3.6989
  241SOL     OW  721   0.213   1.019   0.170  0.1049 -0.6468  0.9463
  241SOL    HW1  722   0.169   1.037   0.256 -0.0419 -1.1351 -2.4980
  241SOL    HW2  723   0.213   1.105   0.116 -1.5650  0.3763  0.7058
  242SOL     OW  724   1.528   2.610   1.724  0.0345  0.7255  0.1711
  242SOL    HW1  725   1.625   2.628   1.702 -1.3693  0.2500  2.6418
  242SOL    HW2  726   1.494   2.554   1.650  2.9506 -0.8171 -1.3028
  243SOL     OW  727   0.765   2.423   1.788  0.2593  0.3466 -0.0075
  243SOL    HW1  728   0.795   2.501   1.736 -2.2395 -0.8053 -0.8954
  243SOL    HW2  729   0.685   2.369   1.745 -0.7768  1.0801  1.3108
  244SOL     OW  730   2.506   0.660   2.540 -0.0327 -0.0624  0.4594
  244SOL    HW1  731   2.482   0.724   2.615 -0.9337  0.8781  2.3006
  244SOL    HW2  732   2.560   0.583   2.569 -1.1719  1.0766 -2.6512
  245SOL     OW  733   1.528   2.826   1.380 -0.5752  0.2040  0.6127
  245SOL    HW1  734   1.563   2.880   1.457  0.4321 -2.1718 -0.5244
  245SOL    HW2  735   1.543   2.881   1.292  0.3459  0.6880 -2.8308
  246SOL     OW  736   1.414   3.082   0.384  0.5369  0.0779  0.6242
  246SOL    HW1  737   1.403   3.097   0.485 -2.2962  0.4998 -0.1295
  246SOL    HW2  738   1.349   0.045   0.338  2.1380  2.1321  2.1119
  247SOL     OW  739   1.675   0.557   1.839 -0.3893  0.0585 -0.1171
  247SOL    HW1  740   1.623   0.483   1.892  0.2438 -0.9980  5.2138
  247SOL    HW2  741   1.776   0.536   1.826 -0.1440  0.9759  0.6757
  248SOL     OW  742   0.064   2.083   1.882  0.0789  0.1235  0.3434
  248SOL    HW1  743   0.159   2.067   1.845 -0.2196 -0.4336  1.8742
  248SOL    HW2  744   3.100   2.024   1.837  0.8435 -0.0329  2.6116
  249SOL     OW  745   0.087   0.246   0.451  0.3043  0.3417 -0.0068
  249SOL    HW1  746   3.101   0.196   0.436 -1.0266 -0.7371 -1.4936
  249SOL    HW2  747   0.099   0.264   0.549 -0.3114  1.2520 -2.1263
  250SOL     OW  748   2.635   3.095   2.428  0.3908 -0.0144 -0.5996
  250SOL    HW1  749   2.630   2.995   2.459 -1.6628 -3.0406 -0.2941
  250SOL    HW2  750   2.539   0.012   2.399  2.3265 -0.5828 -0.7256
  251SOL     OW  751   1.339   0.590   0.048  0.4445  0.3136 -0.2197
  251SOL    HW1  752   1.333   0.490   0.043 -1.2541  0.5891 -0.3710
  251SOL    HW2  753   1.436   0.619   0.061  0.2169  1.4775  2.4335
  252SOL     OW  754   0.730   2.753   2.393  0.4730  0.1748  0.3240
  252SOL    HW1  755   0.659   2.778   2.462 -0.1097  1.7680  1.9585
  252SOL    HW2  756   0.690   2.736   2.301  0.7483  1.1294 -0.3135
  253SOL     OW  757   2.601   2.601   0.844 -0.4289 -0.0258 -0.2064
  253SOL    HW1  758   2.510   2.602   0.886  1.3197 -0.1556  0.4698
  253SOL    HW2  759   2.613   2.614   0.743  0.8911  0.9758  2.8225
  254SOL     OW  760   2.261   1.147   1.068 -0.7714 -0.3213  0.0509
  254SOL    HW1  761   2.327   1.197   1.128  3.1998 -2.7913  0.8959
  254SOL    HW2  762   2.281   1.160   0.966  0.4566 -2.0181 -2.0459
  255SOL     OW  763   0.580   2.617   1.254  0.0419  0.2836  0.2224
  255SOL    HW1  764   0.563   2.716   1.257  1.2372 -1.6227 -0.4514
  255SOL    HW2  765   0.551   2.586   1.160  1.9279  3.0437  1.2396
  256SOL     OW  766   2.049   1.812   1.629  0.2578 -0.4412 -0.3518
  256SOL    HW1  767   2.029   1.783   1.533  0.3304 -3.3889 -0.8095
  256SOL    HW2  768   2.146   1.810   1.657  0.4516  1.4969 -0.3196
  257SOL     OW  769   0.313   2.428   2.548 -0.3452  0.3089  0.4204
  257SOL    HW1  770   0.335   2.333   2.572 -0.2817  1.4737  2.0443
  257SOL    HW2  771   0.266   2.475   2.626 -0.3727  0.8591 -3.2374
  258SOL     OW  772   0.526   2.775   0.984  0.5671  0.0773  0.2851
  258SOL    HW1  773   0.595   2.824   1.045  0.9195  1.3860  2.6910
  258SOL    HW2  774   0.543   2.675   0.977  1.0336  0.9188 -3.6876
  259SOL     OW  775   1.468   0.525   2.839  0.2988 -0.5617 -0.0941
  259SOL    HW1  776   1.434   0.612   2.876 -1.1946  0.2842  0.9973
  259SOL    HW2  777   1.392   0.462   2.824  1.1659  0.1681 -1.3730
  260SOL     OW  778   0.310   0.402   1.224 -0.0281 -0.0846 -0.4646
  260SOL    HW1  779   0.229   0.361   1.181 -2.9355  2.3636 -0.5054
  260SOL    HW2  780   0.385   0.419   1.155  4.3194 -0.0655 -1.5290
  261SOL     OW  781   0.534   0.058   2.434  0.2762  0.1278  0.4558
  261SOL    HW1  782   0.553   0.046   2.331 -0.9049  1.6491  0.4267
  261SOL    HW2  783   0.606   0.110   2.480 -0.0876  4.2364 -0.4755
  262SOL     OW  784   0.882   2.811   1.945  0.7233  0.0461  0.3660
  262SOL    HW1  785   0.851   2.757   1.863 -0.9420 -1.2213 -1.4705
  262SOL    HW2  786   0.844   2.776   2.032 -2.7891  3.0483  2.3412
  263SOL     OW  787   0.849   2.257   0.009  0.2797  0.6840 -0.3230
  263SOL    HW1  788   0.787   2.192   3.056 -3.1956  0.3447  0.3050
  263SOL    HW2  789   0.903   2.205   0.084  1.5063 -1.7968  2.8068
  264SOL     OW  790   1.706   1.582   1.079 -0.3492 -0.2668  0.1748
  264SOL    HW1  791   1.787   1.641   1.072  1.9738 -0.9733  1.3180
  264SOL    HW2  792   1.724   1.486   1.053 -1.6058  2.9773  0.1506
  265SOL     OW  793   0.874   2.374   0.464  0.1499 -0.1762 -0.1681
  265SOL    HW1  794   0.807   2.347   0.538 -0.1889 -0.0190 -3.1271
  265SOL    HW2  795   0.859   2.472   0.437  0.6683  3.6999 -3.1083
  266SOL     OW  796   2.796   0.934   0.755  0.7299  0.2601  0.0170
  266SOL    HW1  797   2.734   0.854   0.782 -1.1405  1.8560  0.9771
  266SOL    HW2  798   2.887   0.925   0.804 -0.0805 -2.9914  0.9143
  267SOL     OW  799   0.238   1.504   0.170  0.4790  0.5070 -0.0999
  267SOL    HW1  800   0.255   1.447   0.250 -1.1636  0.7940  1.0968
  267SOL    HW2  801   0.314   1.572   0.156 -5.1706  1.0427 -0.6174
  268SOL     OW  802   1.555   0.455   0.427  0.0577  0.4556  0.2389
  268SOL    HW1  803   1.558   0.363   0.381  2.1725 -1.2340  2.2143
  268SOL    HW2  804   1.520   0.454   0.524  1.7542  0.1334  1.7080
  269SOL     OW  805   2.970   0.779   2.276 -0.1700 -0.2227  0.1526
  269SOL    HW1  806   3.003   0.856   2.218 -1.5569  1.2979 -0.7099
  269SOL    HW2  807   2.991   0.689   2.234  0.3482  3.0522  0.4248
  270SOL     OW  808   2.902   1.132   0.356 -0.0824 -0.2937  0.0983
  270SOL    HW1  809   2.844   1.062   0.405 -0.7071  0.7050 -0.0827
  270SOL    HW2  810   2.889   1.111   0.256  0.5375  1.2620 -1.2761
  271SOL     OW  811   2.840   1.378   2.147 -0.1517  0.3283 -0.4115
  271SOL    HW1  812   2.826   1.476   2.156 -0.8991 -3.5356 -0.2937
  271SOL    HW2  813   2.912   1.365   2.077  2.1089  1.0993 -1.3901
  272SOL     OW  814   2.390   2.381   1.835 -0.0641  0.2417  0.0701
  272SOL    HW1  815   2.464   2.313   1.811  0.1464 -1.9851 -0.6385
  272SOL    HW2  816   2.371   2.384   1.934  0.0240 -0.7304 -1.8029
  273SOL     OW  817   0.143   2.496   0.381  0.0562  0.2612  0.2833
  273SOL    HW1  818   0.224   2.536   0.331 -0.1032  2.1472  1.1932
  273SOL    HW2  819   0.135   2.396   0.358 -1.6110  0.4824 -1.5412
  274SOL     OW  820   0.715   2.282   0.653  0.5055 -0.5403 -0.4339
  274SOL    HW1  821   0.671   2.193   0.657 -2.7045 -0.3817 -1.2031
  274SOL    HW2  822   0.755   2.306   0.743 -0.9798  0.7398 -2.8167
  275SOL     OW  823   1.670   1.911   2.826  0.2204 -0.3210  0.3776
  275SOL    HW1  824   1.727   1.983   2.877  3.2979  1.1523  1.6649
  275SOL    HW2  825   1.676   1.914   2.725 -0.3364 -1.3065 -0.5758
  276SOL     OW  826   2.369   1.568   2.044  0.4179 -0.3193  0.2075
  276SOL    HW1  827   2.383   1.552   1.941  1.7461 -0.3717 -1.6179
  276SOL    HW2  828   2.443   1.636   2.066  1.8107 -0.4314  0.2901
  277SOL     OW  829   2.135   0.191   0.683  0.2325 -0.1390 -0.0406
  277SOL    HW1  830   2.166   0.228   0.771  1.5688 -1.8586 -1.0569
  277SOL    HW2  831   2.032   0.193   0.672 -0.2351 -0.4607 -2.5359
  278SOL     OW  832   1.618   0.577   2.619 -0.2291 -0.5441  0.1756
  278SOL    HW1  833   1.559   0.541   2.696  2.0986  0.7766  0.4641
  278SOL    HW2  834   1.594   0.673   2.589 -3.3227 -0.9043 -0.4689
  279SOL     OW  835   0.927   2.789   1.184  0.2424  0.2972 -0.8806
  279SOL    HW1  836   0.972   2.788   1.092 -0.9271 -0.6022 -0.2054
  279SOL    HW2  837   0.980   2.760   1.265  0.4657  0.6776 -2.8772
  280SOL     OW  838   1.260   1.190   0.521 -0.5670 -0.0335  0.1970
  280SOL    HW1  839   1.181   1.138   0.555  1.5674  0.1746  1.7721
  280SOL    HW2  840   1.277   1.163   0.423  0.9388  0.3489 -0.1191
  281SOL     OW  841   2.194   1.796   0.365 -0.1056 -0.0588 -0.4239
  281SOL    HW1  842   2.286   1.824   0.406  0.1181  2.4731 -0.9962
  281SOL    HW2  843   2.128   1.756   0.430  1.7255 -1.9656 -2.6688
  282SOL     OW  844   2.840   1.381   0.429 -0.2335 -0.0203 -0.3138
  282SOL    HW1  845   2.863   1.288   0.408  0.4075  0.9649 -0.9918
  282SOL    HW2  846   2.884   1.444   0.361  1.2910 -2.3017  0.8933
  283SOL     OW  847   1.616   2.809   2.632  0.6055 -0.0207 -0.5716
  283SOL    HW1  848   1.692   2.796   2.572 -2.7990  2.0364  2.0554
  283SOL    HW2  849   1.628   2.892   2.693 -0.2365  3.8282  3.3714
  284SOL     OW  850   0.714   0.106   2.947 -0.4301  0.3716  0.0962
  284SOL    HW1  851   0.687   0.193   2.984 -0.0844  0.8147 -1.0029
  284SOL    HW2  852   0.796   0.060   2.981 -0.0300 -0.6588 -1.1761
  285SOL     OW  853   1.906   1.747   2.921  0.4213  0.2378 -0.5956
  285SOL    HW1  854   1.826   1.800   2.889  0.5454 -1.7699  0.1330
  285SOL    HW2  855   1.953   1.691   2.846  0.1028 -4.1820  0.7413
  286SOL     OW  856   1.917   2.048   1.455 -0.2634 -0.1317  0.2050
  286SOL    HW1  857   1.856   1.967   1.470 -0.4046 -0.4029  0.6274
  286SOL    HW2  858   1.907   2.116   1.529  1.8923  0.5877 -1.6237
  287SOL     OW  859   1.885   0.097   1.752  0.2596 -0.1921  0.0966
  287SOL    HW1  860   1.933   0.072   1.835 -1.7888  3.6764  1.0111
  287SOL    HW2  861   1.787   0.119   1.770 -0.3437 -2.7262  2.1450
  288SOL     OW  862   0.381   2.840   2.269 -0.2363  0.2806 -0.6790
  288SOL    HW1  863   0.430   2.841   2.361  0.9689 -0.2308  0.1280
  288SOL    HW2  864   0.280   2.815   2.279 -1.2327  0.6644  0.4393
  289SOL     OW  865   0.401   1.770   0.808  0.5412  0.0893  0.0228
  289SOL    HW1  866   0.318   1.734   0.864 -0.1097  1.0841  1.7940
  289SOL    HW2  867   0.387   1.869   0.786 -1.4733 -0.3833  1.6789
  290SOL     OW  868   1.223   1.825   1.786 -0.3178 -0.2676  0.4082
  290SOL    HW1  869   1.255   1.845   1.882 -0.3126 -1.9467 -0.0064
  290SOL    HW2  870   1.227   1.914   1.737  0.4260 -0.2864 -0.9680
  291SOL     OW  871   1.661   0.182   0.406  0.2920  0.1533  0.4005
  291SOL    HW1  872   1.580   0.116   0.395  1.4873  0.4792  0.0307
  291SOL    HW2  873   1.724   0.175   0.324 -0.8365 -1.6713 -1.0023
  292SOL     OW  874   0.442   0.267   1.430 -0.2908  0.3460 -0.0541
  292SOL    HW1  875   0.486   0.343   1.485  0.5088  0.7704  1.9210
  292SOL    HW2  876   0.386   0.304   1.358 -1.0155 -1.4938 -2.4958
  293SOL     OW  877   2.456   1.739   0.937 -0.1613  0.3942 -1.0122
  293SOL    HW1  878   2.524   1.814   0.909 -2.6447  2.1102 -0.5930
  293SOL    HW2  879   2.481   1.646   0.913 -0.3061 -0.0813  0.2667
  294SOL     OW  880   0.273   0.116   2.390  0.0393 -0.6678 -0.0073
  294SOL    HW1  881   0.212   0.043   2.360  0.4359  1.5207 -0.8039
  294SOL    HW2  882   0.370   0.085   2.398 -2.0272  0.7562 -2.5616
  295SOL     OW  883   0.946   1.441   0.423  0.6198  0.1332 -0.3215
  295SOL    HW1  884   1.033   1.471   0.470  0.4492 -0.8460 -1.6760
  295SOL    HW2  885   0.950   1.456   0.316 -0.8347  0.1033 -2.0723
  296SOL     OW  886   2.202   1.639   0.944  0.2505  0.5205 -0.3977
  296SOL    HW1  887   2.210   1.554   0.885  1.8917 -0.6201 -0.4864
  296SOL    HW2  888   2.290   1.692   0.943  1.6256  4.1821 -0.7359
  297SOL     OW  889   1.816   0.538   2.816  0.6329 -0.0161 -0.2119
  297SOL    HW1  890   1.786   0.594   2.897  1.6851  1.5901 -0.0033
  297SOL    HW2  891   1.762   0.552   2.728  0.4350  0.4550  1.6582
  298SOL     OW  892   1.195   0.050   2.663 -0.0726 -0.1151  0.2730
  298SOL    HW1  893   1.256   0.120   2.631  0.7131 -0.5067  0.5150
  298SOL    HW2  894   1.242   3.065   2.683  0.1330 -1.9852 -0.3616
  299SOL     OW  895   0.931   0.525   1.854  1.0093  0.0725 -0.0246
  299SOL    HW1  896   1.003   0.456   1.887 -0.3147  0.0585  0.5570
  299SOL    HW2  897   0.863   0.481   1.791  0.1425 -2.0296 -2.6277
  300SOL     OW  898   2.948   0.394   1.618  0.5180  0.1586  0.2909
  300SOL    HW1  899   3.041   0.426   1.585 -0.3756 -2.2970 -0.6643
  300SOL    HW2  900   2.954   0.348   1.708 -1.0435  1.0370  1.4635
  301SOL     OW  901   1.839   0.752   1.599  0.2482  0.5915 -0.1350
  301SOL    HW1  902   1.755   0.800   1.634  1.6734 -2.6549 -0.0429
  301SOL    HW2  903   1.864   0.672   1.662  1.0205 -0.3022  0.6348
  302SOL     OW  904   0.884   3.028   3.072 -0.8925 -0.9366 -0.0147
  302SOL    HW1  905   0.981   3.023   0.006  0.4915 -3.0267  1.2281
  302SOL    HW2  906   0.817   3.012   0.049 -0.5940 -2.0292  0.9369
  303SOL     OW  907   2.060   2.049   1.810 -0.0861  0.3745  0.1146
  303SOL    HW1  908   1.985   2.097   1.765 -1.1878  2.0497 -1.9530
  303SOL    HW2  909   2.097   1.980   1.740 -0.1562 -0.3483 -1.8204
  304SOL     OW  910   0.248   3.020   0.639 -0.3591  0.1502  0.3278
  304SOL    HW1  911   0.277   3.099   0.576  1.7226  0.5569 -2.1699
  304SOL    HW2  912   0.306   3.018   0.720 -2.2398  0.2303 -1.3432
  305SOL     OW  913   1.108   0.990   0.271 -0.3650 -0.2398  0.0072
  305SOL    HW1  914   1.195   1.041   0.259 -0.0527 -1.4881 -0.5610
  305SOL    HW2  915   1.141   0.895   0.277 -0.3810  1.0984 -0.4564
  306SOL     OW  916   0.586   1.505   0.214 -0.0040  0.5857  0.4877
  306SOL    HW1  917   0.573   1.402   0.242 -1.3951 -1.8418 -0.9243
  306SOL    HW2  918   0.620   1.560   0.292 -0.1777  3.2837  1.0543
  307SOL     OW  919   0.663   0.488   2.003  0.5571 -0.0101 -0.0249
  307SOL    HW1  920   0.664   0.492   2.105 -0.0300  1.1700 -1.8811
  307SOL    HW2  921   0.756   0.475   1.966  0.5663 -1.3629  0.6127
  308SOL     OW  922   0.466   0.123   1.033  0.2704 -0.3658  0.7109
  308SOL    HW1  923   0.441   0.221   1.013 -1.6875  1.4851 -0.1044
  308SOL    HW2  924   0.567   0.118   1.059 -0.1667 -0.7189 -0.9927
  309SOL     OW  925   2.265   1.102   0.183 -0.2468 -0.0012  0.6174
  309SOL    HW1  926   2.366   1.113   0.189 -2.4516 -0.6965 -1.7242
  309SOL    HW2  927   2.220   1.192   0.197 -0.1308 -2.1783  0.8333
  310SOL     OW  928   1.289   1.516   2.957  0.5362  0.3991 -0.8307
  310SOL    HW1  929   1.264   1.570   2.876 -0.0450  0.3153  0.4037
  310SOL    HW2  930   1.252   1.563   3.037 -0.5649 -3.6822  1.2081
  311SOL     OW  931   1.980   2.462   2.012 -0.5023 -0.0514  0.6047
  311SOL    HW1  932   2.006   2.364   2.026 -2.2023  1.5936  1.3091
  311SOL    HW2  933   1.900   2.480   2.070  0.4748 -1.3192 -0.4158
  312SOL     OW  934   2.355   3.085   0.127  0.2497  0.0283  0.0719
  312SOL    HW1  935   2.283   0.052   0.146 -2.8463  0.9659 -0.3106
  312SOL    HW2  936   2.441   0.032   0.096 -0.8745  0.2735  1.7030
  313SOL     OW  937   0.468   0.576   0.264 -0.3626 -0.2857  0.4241
  313SOL    HW1  938   0.467   0.671   0.217 -0.5583  2.0461 -2.9731
  313SOL    HW2  939   0.564   0.546   0.288 -1.8043 -2.0513  0.9980
  314SOL     OW  940   2.734   1.510   2.957 -0.2661  0.4951 -0.5441
  314SOL    HW1  941   2.707   1.495   2.863  2.8634  0.4938  0.7407
  314SOL    HW2  942   2.793   1.588   2.970 -1.2473 -3.2078 -0.1574
  315SOL     OW  943   1.574   0.750   2.001 -0.1752  0.1988  0.5271
  315SOL    HW1  944   1.614   0.662   1.963  1.2040 -0.0445 -1.0414
  315SOL    HW2  945   1.599   0.759   2.096 -1.4796 -1.8549 -1.6275
  316SOL     OW  946   0.098   0.962   0.592  0.1880 -0.0247 -0.2633
  316SOL    HW1  947   0.038   0.917   0.662  3.3121  0.0160  0.6024
  316SOL    HW2  948   0.180   1.007   0.634  1.8532 -1.2382 -1.2462
  317SOL     OW  949   0.659   0.145   0.288  0.5594 -0.1952 -0.2805
  317SOL    HW1  950   0.573   0.202   0.267 -1.7576  1.2622 -1.8411
  317SOL    HW2  951   0.694   0.162   0.383  1.2096  1.9748  1.7259
  318SOL     OW  952   1.801   2.593   0.986 -0.5567 -0.0935 -0.2790
  318SOL    HW1  953   1.873   2.615   1.058 -0.8344  6.4497  0.7071
  318SOL    HW2  954   1.849   2.533   0.913  0.1460  1.4490 -0.4367
  319SOL     OW  955   1.179   1.473   0.568 -0.1391 -0.1466 -0.2779
  319SOL    HW1  956   1.215   1.383   0.547  2.9031  0.7869  1.0654
  319SOL    HW2  957   1.255   1.540   0.589  0.8056  1.4211  0.5793
  320SOL     OW  958   0.686   2.235   1.117 -0.3710  0.8010  0.1439
  320SOL    HW1  959   0.589   2.222   1.150  0.8888 -1.1395  3.1920
  320SOL    HW2  960   0.748   2.271   1.193  1.3843 -0.2338  0.9602
  321SOL     OW  961   2.372   2.412   2.094  0.0961  1.0610 -0.0650
  321SOL    HW1  962   2.337   2.322   2.132  1.4267 -2.1501 -0.8762
  321SOL    HW2  963   2.333   2.492   2.144  3.4224  0.3769  1.0548
  322SOL     OW  964   2.873   2.350   2.507 -1.0477 -0.3332 -0.6448
  322SOL    HW1  965   2.950   2.337   2.442  0.3351  1.1695  1.8239
  322SOL    HW2  966   2.788   2.322   2.471  2.8183  3.4536  2.5001
  323SOL     OW  967   2.604   0.696   0.734  0.1002 -0.1517 -0.0529
  323SOL    HW1  968   2.614   0.683   0.633 -0.0754 -1.8877 -2.4358
  323SOL    HW2  969   2.506   0.706   0.759  2.1511 -1.1386  3.2000
  324SOL     OW  970   2.348   2.281   2.489  0.1942  0.3060  0.3443
  324SOL    HW1  971   2.285   2.360   2.466 -1.8946 -0.2943  0.2638
  324SOL    HW2  972   2.307   2.217   2.557  0.0234 -0.1917 -2.4046
  325SOL     OW  973   1.282   0.484   2.485 -0.6541 -0.1347  0.1897
  325SOL    HW1  974   1.202   0.537   2.451 -1.4528  0.3493 -0.7651
  325SOL    HW2  975   1.281   0.472   2.587  0.8351 -2.0832  1.5865
  326SOL     OW  976   2.772   2.370   0.932 -0.4293 -0.2296  0.1703
  326SOL    HW1  977   2.733   2.455   0.898 -0.6335  2.5593 -1.5854
  326SOL    HW2  978   2.874   2.374   0.946  2.6224 -1.2767 -0.8497
  327SOL     OW  979   2.805   3.002   0.102 -0.8843 -0.0583 -0.4843
  327SOL    HW1  980   2.740   3.070   0.066  3.4152  0.4521 -0.3187
  327SOL    HW2  981   2.856   2.967   0.022  0.6268  0.7446  3.6873
  328SOL     OW  982   1.116   0.766   0.748 -0.3686  0.3825 -0.5149
  328SOL    HW1  983   1.145   0.689   0.813  0.2188 -0.8301  3.0078
  328SOL    HW2  984   1.109   0.852   0.796 -2.3924 -2.5466 -0.2325
  329SOL     OW  985   2.182   0.748   1.399  0.2758 -0.1102  0.1051
  329SOL    HW1  986   2.249   0.820   1.371  0.0954 -0.1582  0.6751
  329SOL    HW2  987   2.196   0.730   1.500 -0.2510 -0.4959  1.4732
  330SOL     OW  988   0.996   0.640   0.539 -0.8537  0.3906  0.1283
  330SOL    HW1  989   0.974   0.664   0.442  2.0302 -1.2519 -0.0928
  330SOL    HW2  990   1.043   0.713   0.593  3.5947  1.2534 -1.5897
  331SOL     OW  991   0.944   1.796   1.638 -0.4127 -0.1669  0.1089
  331SOL    HW1  992   0.993   1.876   1.598  0.6864 -0.9430 -2.2632
  331SOL    HW2  993   0.969   1.773   1.730 -1.5127 -1.2918  0.9510
  332SOL     OW  994   2.044   2.201   2.077  0.1260  0.2885  0.0282
  332SOL    HW1  995   2.125   2.197   2.142  2.5408  0.1886  0.2541
  332SOL    HW2  996   2.057   2.134   2.003 -0.5905  1.0282  1.3213
  333SOL     OW  997   2.973   3.053   1.005  0.0475  0.1392 -0.2757
  333SOL    HW1  998   2.916   0.017   1.065 -2.3632 -0.5892 -0.5254
  333SOL    HW2  999   2.921   2.976   0.965 -0.6226  0.8022  2.4715
  334SOL     OW 1000   0.024   1.700   0.712 -0.0828  0.5596 -0.7146
  334SOL    HW1 1001   0.112   1.682   0.668  0.7542 -2.6060 -0.5541
  334SOL    HW2 1002   3.086   1.781   0.673 -0.2656 -0.9128  1.4127
  335SOL     OW 1003   0.482   2.628   2.836  0.1801  0.3148 -0.1194
  335SOL    HW1 1004   0.544   2.553   2.811 -0.0635  1.6140 -1.4990
  335SOL    HW2 1005   0.530   2.717   2.809  3.4660  2.1758  0.6645
  336SOL     OW 1006   0.123   2.684   1.963  0.3733  0.3402 -0.1330
  336SOL    HW1 1007   0.093   2.662   1.870  0.1229  0.6566 -2.7775
  336SOL    HW2 1008   0.089   2.778   1.982 -0.3089 -1.5233  1.3471
  337SOL     OW 1009   1.392   1.882   2.229 -0.3625 -0.0724 -0.1290
  337SOL    HW1 1010   1.332   1.817   2.278  0.5690  2.1475  2.0239
  337SOL    HW2 1011   1.491   1.865   2.246 -1.1651  0.4675 -0.3870
  338SOL     OW 1012   0.938   0.017   2.585  0.5953  0.4860  0.3986
  338SOL    HW1 1013   0.937   3.043   2.519 -1.0807 -0.6836  1.2349
  338SOL    HW2 1014   1.031   0.047   2.612 -0.7916  2.3612  0.8666
  339SOL     OW 1015   0.190   1.256   2.737  0.1961  0.6871 -0.3044
  339SOL    HW1 1016   0.120   1.179   2.720 -0.3901 -0.6569 -2.6700
  339SOL    HW2 1017   0.167   1.291   2.830 -0.3778 -1.0354 -0.9860
  340SOL     OW 1018   2.299   0.499   1.306 -0.3632  0.2321  0.5421
  340SOL    HW1 1019   2.258   0.587   1.332  0.2686  1.7577 -2.8458
  340SOL    HW2 1020   2.379   0.480   1.369 -0.5525 -0.5769 -0.1093
  341SOL     OW 1021   1.894   1.089   0.891  0.3396  0.1369  0.3019
  341SOL    HW1 1022   1.929   1.095   0.798 -1.8012  0.1148  0.7604
  341SOL    HW2 1023   1.966   1.063   0.960  0.0327 -3.2164  2.0760
  342SOL     OW 1024   2.274   2.615   2.685 -0.0524 -0.0258 -0.0969
  342SOL    HW1 1025   2.250   2.638   2.782  1.1821 -1.4945 -1.4549
  342SOL    HW2 1026   2.196   2.577   2.631 -2.2240  1.6996 -2.2374
  343SOL     OW 1027   2.976   2.579   1.034  0.6133 -0.2190  0.7480
  343SOL    HW1 1028   3.053   2.621   1.090  0.4173  0.0177 -0.8528
  343SOL    HW2 1029   2.887   2.620   1.060  0.1084  1.1270  0.8998
  344SOL     OW 1030   2.379   2.915   0.841  0.1083 -0.4044  0.0057
  344SOL    HW1 1031   2.462   2.867   0.874  0.5851  0.4232  2.2097
  344SOL    HW2 1032   2.330   2.858   0.775  3.1262  0.6180  0.0391
  345SOL     OW 1033   2.522   2.360   0.194  0.1321 -0.2726 -0.1445
  345SOL    HW1 1034   2.593   2.394   0.128  1.7613  0.1259  2.1572
  345SOL    HW2 1035   2.565   2.340   0.285 -3.8825 -0.1669 -0.0830
  346SOL     OW 1036   1.339   2.058   1.643 -0.0382  0.6070 -0.4087
  346SOL    HW1 1037   1.410   2.069   1.714  3.1791  2.7023 -0.3731
  346SOL    HW2 1038   1.352   1.977   1.585  0.7983 -0.4273  1.0389
  347SOL     OW 1039   1.308   1.989   1.997  0.6667 -0.3274  0.9121
  347SOL    HW1 1040   1.342   1.946   2.084  1.3226 -1.0150 -1.1311
  347SOL    HW2 1041   1.393   2.013   1.945  1.8943  0.8630 -2.9161
  348SOL     OW 1042   0.830   1.710   1.297 -0.0855 -0.0497  0.1221
  348SOL    HW1 1043   0.787   1.628   1.265  2.5298  2.6734 -0.8404
  348SOL    HW2 1044   0.866   1.706   1.392  0.3953  0.5760 -0.2333
  349SOL     OW 1045   1.843   1.403   1.497  0.3682 -0.4583 -0.3283
  349SOL    HW1 1046   1.836   1.476   1.572  0.5232  1.2627 -2.2571
  349SOL    HW2 1047   1.761   1.345   1.490 -1.5297 -3.9613  0.6918
  350SOL     OW 1048   2.391   2.383   0.635 -0.0265  0.6432  0.3592
  350SOL    HW1 1049   2.399   2.463   0.575  0.2910 -2.1041  2.4058
  350SOL    HW2 1050   2.363   2.302   0.577 -1.6602 -1.5405 -1.0019
  351SOL     OW 1051   0.288   3.064   1.936  0.6261  0.1036 -0.5675
  351SOL    HW1 1052   0.219   3.059   1.865 -0.6849 -0.3685  1.6168
  351SOL    HW2 1053   0.236   0.017   2.005 -0.7507  0.1081  0.2545
  352SOL     OW 1054   0.712   0.921   0.258 -0.0512  0.1695 -0.2351
  352SOL    HW1 1055   0.705   0.959   0.352 -2.5325 -0.8692 -0.7447
  352SOL    HW2 1056   0.623   0.869   0.246  1.2567  0.9625  0.5226
  353SOL     OW 1057   1.059   1.765   2.843  0.3507  0.1914  0.4603
  353SOL    HW1 1058   1.059   1.818   2.931 -1.0438  1.1569 -1.0621
  353SOL    HW2 1059   0.961   1.750   2.812 -0.4858  0.9185 -0.3741
  354SOL     OW 1060   1.816   2.744   1.899 -0.2445 -0.3560  0.3281
  354SOL    HW1 1061   1.830   2.647   1.911  0.8235  3.1754 -0.8208
  354SOL    HW2 1062   1.776   2.778   1.810 -0.6748 -0.0402 -2.2772
  355SOL     OW 1063   2.290   0.945   3.044  0.7067  0.4445  0.2309
  355SOL    HW1 1064   2.216   0.945   2.973 -2.0080 -1.4578 -0.1029
  355SOL    HW2 1065   2.266   1.009   0.018  1.3838  1.8984 -0.0361
  356SOL     OW 1066   0.410   2.240   1.208  0.2883  0.1285  0.0488
  356SOL    HW1 1067   0.401   2.156   1.147 -2.2005 -3.4600 -0.2583
  356SOL    HW2 1068   0.321   2.273   1.238  3.2115  2.8550 -1.7019
  357SOL     OW 1069   2.952   2.887   1.783  0.3863 -0.0209 -0.1276
  357SOL    HW1 1070   2.962   2.843   1.692 -0.7821  4.0274 -0.4715
  357SOL    HW2 1071   2.854   2.911   1.808 -0.2590  3.9996 -0.0704
  358SOL     OW 1072   2.506   1.841   1.491 -0.0652  0.0606 -0.1529
  358SOL    HW1 1073   2.432   1.795   1.436  0.8914 -1.4848  1.1848
  358SOL    HW2 1074   2.590   1.837   1.437 -2.1670  0.6627  1.6778
  359SOL     OW 1075   1.938   2.456   2.472  0.0427  0.3131 -0.1226
  359SOL    HW1 1076   1.845   2.487   2.448  0.4353 -3.2858  1.0300
  359SOL    HW2 1077   1.930   2.396   2.554  0.2840  0.7842  1.0629
  360SOL     OW 1078   0.962   2.931   0.896  0.6842  0.4418  0.6748
  360SOL    HW1 1079   0.883   2.989   0.925 -1.8991 -0.3308  1.3478
  360SOL    HW2 1080   0.936   2.836   0.867 -0.7529 -1.3503 -1.3281
  361SOL     OW 1081   1.834   0.187   0.618 -0.2694 -0.5360 -0.6868
  361SOL    HW1 1082   1.774   0.204   0.535  0.0101 -0.0068 -1.5609
  361SOL    HW2 1083   1.818   0.096   0.666 -1.1222 -1.6499  0.7466
  362SOL     OW 1084   1.445   0.783   1.322 -0.1235  0.0443 -0.1784
  362SOL    HW1 1085   1.530   0.832   1.289 -0.1898 -0.7147 -0.8719
  362SOL    HW2 1086   1.381   0.856   1.365  0.2501  1.6843 -0.2542
  363SOL     OW 1087   1.865   1.508   1.947 -0.0493 -0.2362 -0.4781
  363SOL    HW1 1088   1.811   1.439   1.996 -3.2285  0.7177 -2.8680
  363SOL    HW2 1089   1.925   1.554   2.018  3.0153 -1.4774  4.0958
  364SOL     OW 1090   0.582   0.624   1.352 -0.0344 -0.2183 -0.0640
  364SOL    HW1 1091   0.657   0.578   1.299  0.4981  2.3888  0.7790
  364SOL    HW2 1092   0.542   0.702   1.295 -0.1385  1.6870  2.8195
  365SOL     OW 1093   0.362   0.361   2.573 -0.2474 -0.0942 -0.2697
  365SOL    HW1 1094   0.303   0.440   2.600  0.6907 -1.9733 -2.4402
  365SOL    HW2 1095   0.303   0.291   2.532 -1.4876  1.0456 -0.0472
  366SOL     OW 1096   2.156   1.442   2.943 -0.2408  0.0506  0.3631
  366SOL    HW1 1097   2.214   1.514   2.987 -0.6100  0.5968 -0.9567
  366SOL    HW2 1098   2.082   1.405   2.998  2.7782  2.3548 -1.1048
  367SOL     OW 1099   2.849   2.547   2.888 -0.4732  0.2071 -0.1145
  367SOL    HW1 1100   2.863   2.598   2.974  3.3653 -1.4998 -1.4288
  367SOL    HW2 1101   2.786   2.592   2.822 -0.7944  1.0837  2.0873
  368SOL     OW 1102   0.230   1.132   0.923 -0.5809 -0.0983 -0.0262
  368SOL    HW1 1103   0.127   1.129   0.944 -0.1430  1.2740 -1.3343
  368SOL    HW2 1104   0.268   1.224   0.935  0.2153  0.2918  0.2347
  369SOL     OW 1105   0.549   2.900   2.532 -0.0879 -0.1663  0.0979
  369SOL    HW1 1106   0.565   2.892   2.633  0.1196  1.4456 -1.0076
  369SOL    HW2 1107   0.562   2.997   2.494  1.6883  4.6057 -0.7191
  370SOL     OW 1108   3.038   0.559   0.785 -0.0358 -0.1388  0.2355
  370SOL    HW1 1109   3.011   0.592   0.691 -1.7821  2.3822 -1.0904
  370SOL    HW2 1110   2.962   0.578   0.852 -1.1602  2.0385 -1.9131
  371SOL     OW 1111   1.374   2.469   1.543 -0.2282 -0.0522  0.2731
  371SOL    HW1 1112   1.338   2.538   1.481  0.7559 -2.9408  3.0617
  371SOL    HW2 1113   1.302   2.405   1.580  1.0878 -1.7849  0.5991
  372SOL     OW 1114   2.729   0.246   2.502  0.1017  0.0406  0.7167
  372SOL    HW1 1115   2.715   0.148   2.480 -1.2981  0.0077  0.2335
  372SOL    HW2 1116   2.827   0.266   2.521 -2.6881  0.2222 -1.8510
  373SOL     OW 1117   0.059   2.198   0.548 -0.0481  0.1840  0.6665
  373SOL    HW1 1118   0.139   2.249   0.588 -1.5066 -1.5210 -1.3168
  373SOL    HW2 1119   3.085   2.201   0.618 -2.4228 -0.1847  1.9603
  374SOL     OW 1120   0.219   3.079   2.642  0.0345 -0.3433 -0.5681
  374SOL    HW1 1121   0.262   0.042   2.711  0.9425  1.0525 -0.2080
  374SOL    HW2 1122   0.244   3.100   2.547 -1.0925 -0.5947  1.3133
  375SOL     OW 1123   0.631   0.396   2.719 -0.2178 -0.4033  0.4975
  375SOL    HW1 1124   0.629   0.454   2.800 -2.5465 -0.2883  0.3184
  375SOL    HW2 1125   0.538   0.388   2.681  2.4165 -1.5241 -2.3644
  376SOL     OW 1126   2.736   2.320   1.962 -0.2604  0.3223 -0.2204
  376SOL    HW1 1127   2.677   2.369   2.039 -2.8024  3.3947  1.5996
  376SOL    HW2 1128   2.827   2.375   1.957  1.7368  4.0309  0.7678
  377SOL     OW 1129   1.363   3.001   2.897  0.3159 -0.3693 -0.3849
  377SOL    HW1 1130   1.304   2.951   2.964 -1.1386 -0.7059 -0.7883
  377SOL    HW2 1131   1.357   2.958   2.804  1.7725 -1.9734 -0.3262
  378SOL     OW 1132   3.054   0.429   2.719 -0.7679 -0.9546 -0.7019
  378SOL    HW1 1133   0.053   0.458   2.706  2.5437  0.1401  0.0327
  378SOL    HW2 1134   3.032   0.350   2.664 -1.2798  1.9470  1.6363
  379SOL     OW 1135   0.898   1.048   0.106  0.6566  0.5320 -0.3439
  379SOL    HW1 1136   0.806   1.008   0.120 -1.1866 -1.4553 -2.0653
  379SOL    HW2 1137   0.956   1.029   0.190  0.3404  0.0538  2.8580
  380SOL     OW 1138   0.225   1.683   1.751 -0.1328 -0.1057  1.0364
  380SOL    HW1 1139   0.178   1.753   1.811 -1.5513 -2.0366 -0.2351
  380SOL    HW2 1140   0.200   1.689   1.649 -1.5042 -0.8301 -0.1304
  381SOL     OW 1141   3.041   1.241   2.497 -0.0213 -0.3655 -0.2014
  381SOL    HW1 1142   0.016   1.268   2.437 -1.4694 -0.9691  0.2112
  381SOL    HW2 1143   3.017   1.318   2.564 -0.5076  0.5521  0.4583
  382SOL     OW 1144   2.306   2.177   0.464 -0.1235  0.1440  0.1102
  382SOL    HW1 1145   2.340   2.152   0.367 -1.0332 -0.0280 -2.2459
  382SOL    HW2 1146   2.291   2.089   0.511  1.0958  0.1323 -0.3946
  383SOL     OW 1147   0.591   1.932   0.341 -0.2227  0.2494  0.1006
  383SOL    HW1 1148   0.629   1.844   0.371 -2.0855 -2.3181 -0.5860
  383SOL    HW2 1149   0.672   1.987   0.307  0.0027 -1.7047  0.0526
  384SOL     OW 1150   0.626   2.083   2.489 -0.6989  0.1626 -0.7426
  384SOL    HW1 1151   0.724   2.084   2.519 -0.2263 -1.3964 -1.9710
  384SOL    HW2 1152   0.619   2.095   2.390  2.8530  2.2123 -1.1935
  385SOL     OW 1153   2.289   1.955   0.629 -0.0544 -0.4037 -0.4275
  385SOL    HW1 1154   2.349   1.875   0.623 -2.9681  0.9233  0.4776
  385SOL    HW2 1155   2.336   2.008   0.699  1.1044 -0.7810 -2.1420
  386SOL     OW 1156   2.358   0.919   1.307  0.1362  0.1335  0.0866
  386SOL    HW1 1157   2.338   0.907   1.207 -1.9945 -1.2373  0.0036
  386SOL    HW2 1158   2.372   1.013   1.341  2.1875 -2.3343  2.2241
  387SOL     OW 1159   3.051   1.150   1.946  0.2832 -0.0316  0.5115
  387SOL    HW1 1160   0.037   1.184   1.964 -1.8158 -0.5597 -0.0450
  387SOL    HW2 1161   3.017   1.205   1.871  0.7951 -2.0473  1.6613
  388SOL     OW 1162   0.467   1.703   2.130  0.1368  0.3421 -0.3726
  388SOL    HW1 1163   0.514   1.790   2.116  1.0102 -2.2429  0.4617
  388SOL    HW2 1164   0.505   1.629   2.067  2.0455 -1.6399 -0.4433
  389SOL     OW 1165   0.691   1.001   1.928 -0.1262 -0.0663  0.1781
  389SOL    HW1 1166   0.758   1.049   1.988 -1.1976 -1.9205 -1.9269
  389SOL    HW2 1167   0.732   0.922   1.879 -0.3786 -0.3130  0.0436
  390SOL     OW 1168   2.679   2.934   0.656  0.1136 -0.5305  0.3561
  390SOL    HW1 1169   2.667   2.940   0.556  2.1285  1.1718 -0.6675
  390SOL    HW2 1170   2.675   3.034   0.690  0.0550  1.5548  0.7400
  391SOL     OW 1171   1.780   1.616   1.336  0.0172 -0.7287 -0.0760
  391SOL    HW1 1172   1.803   1.522   1.379  0.3003 -2.4149  2.0124
  391SOL    HW2 1173   1.754   1.604   1.236 -1.0455  0.3034 -0.6269
  392SOL     OW 1174   2.845   2.711   3.099 -0.2309 -0.3590  0.2038
  392SOL    HW1 1175   2.932   2.758   3.076 -1.4092  0.7471  1.5510
  392SOL    HW2 1176   2.841   2.696   0.095  0.5067  1.5352  0.5443
  393SOL     OW 1177   1.640   2.428   2.683 -0.5873 -0.2497  0.3751
  393SOL    HW1 1178   1.686   2.476   2.758 -2.0966 -1.5038 -0.6993
  393SOL    HW2 1179   1.572   2.492   2.636 -0.6726 -0.1853  1.8672
  394SOL     OW 1180   3.096   2.568   2.459 -0.3491  0.4708  0.1438
  394SOL    HW1 1181   0.010   2.559   2.559 -1.1521 -0.4485  0.4898
  394SOL    HW2 1182   3.073   2.480   2.409  0.4481 -3.0788 -1.1762
  395SOL     OW 1183   0.117   0.347   0.724 -0.2236  0.2482 -0.1334
  395SOL    HW1 1184   0.054   0.420   0.760  0.1618 -0.2106 -0.3297
  395SOL    HW2 1185   0.111   0.271   0.788  3.4167  1.5139 -3.4141
  396SOL     OW 1186   2.174   0.537   0.403  0.8257 -0.3903  0.2137
  396SOL    HW1 1187   2.100   0.590   0.347 -2.8777  0.2679  0.2679
  396SOL    HW2 1188   2.160   0.435   0.410  0.7896 -2.2372  0.4174
  397SOL     OW 1189   0.184   0.721   2.323 -0.1414  0.7033  0.1302
  397SOL    HW1 1190   0.267   0.657   2.333  1.5180  0.2803  1.9689
  397SOL    HW2 1191   0.110   0.691   2.259  1.6226  0.2580 -1.0958
  398SOL     OW 1192   0.983   2.865   0.314  0.5170 -0.6972  0.4828
  398SOL    HW1 1193   1.013   2.900   0.222 -0.5529 -0.7744  0.7138
  398SOL    HW2 1194   0.960   2.945   0.371 -1.0270  1.9020  0.4030
  399SOL     OW 1195   2.229   0.492   2.192  0.2913 -0.1509 -0.7739
  399SOL    HW1 1196   2.206   0.486   2.292 -0.6227  2.0176 -1.3671
  399SOL    HW2 1197   2.233   0.585   2.155 -1.4426 -0.8313  2.0409
  400SOL     OW 1198   0.892   2.032   2.549 -0.8574 -0.0813 -0.3011
  400SOL    HW1 1199   0.973   2.024   2.486  1.7550 -0.8767  0.0092
  400SOL    HW2 1200   0.925   2.064   2.643  0.9226  1.6118  5.1404
  401SOL     OW 1201   0.387   1.306   2.585 -0.0778  0.3994  0.0923
  401SOL    HW1 1202   0.442   1.374   2.639 -0.4135  1.3663 -2.4047
  401SOL    HW2 1203   0.297   1.298   2.637 -1.4358 -1.3755  0.5619
  402SOL     OW 1204   0.195   2.822   0.426 -0.0070 -0.1223 -0.4368
  402SOL    HW1 1205   0.251   2.735   0.423 -1.5762 -0.3958  1.1431
  402SOL    HW2 1206   0.207   2.870   0.517 -0.8028  4.4028  3.5989
  403SOL     OW 1207   0.606   1.202   1.717  0.0142 -0.0885  0.8785
  403SOL    HW1 1208   0.646   1.127   1.775  2.3058  0.3098 -0.8065
  403SOL    HW2 1209   0.504   1.193   1.730  1.4448 -0.4234  1.1187
  404SOL     OW 1210   2.629   2.440   2.193 -0.1262  0.0458 -0.3049
  404SOL    HW1 1211   2.666   2.533   2.179 -1.4983  0.8312  0.3849
  404SOL    HW2 1212   2.532   2.429   2.166 -0.4329 -4.2905  1.8254
  405SOL     OW 1213   0.073   0.350   2.032 -0.2935 -0.8247  0.2341
  405SOL    HW1 1214   0.134   0.352   2.119 -0.1504  2.2383  1.7968
  405SOL    HW2 1215   0.130   0.384   1.953 -0.4618  0.9814 -1.0054
  406SOL     OW 1216   1.316   1.512   2.573 -0.2634  0.4664  0.6868
  406SOL    HW1 1217   1.340   1.603   2.611  0.2166  1.2212  0.6678
  406SOL    HW2 1218   1.224   1.474   2.606 -1.7162  0.9487 -0.4524
  407SOL     OW 1219   1.885   0.906   2.800 -0.3015  0.1407  0.2274
  407SOL    HW1 1220   1.950   0.858   2.735  0.4233 -2.4058 -1.4415
  407SOL    HW2 1221   1.817   0.962   2.747  0.0232  1.9833 -0.2587
  408SOL     OW 1222   0.096   2.756   2.323 -0.4906  0.0070  0.0455
  408SOL    HW1 1223   0.050   2.692   2.389  0.3340  0.9460  2.8494
  408SOL    HW2 1224   0.124   2.710   2.239 -2.3897  0.4416  3.8482
  409SOL     OW 1225   0.161   2.416   1.228 -0.4935 -0.3075 -0.0244
  409SOL    HW1 1226   0.076   2.434   1.286 -2.0792 -0.4950  2.3286
  409SOL    HW2 1227   0.192   2.502   1.187 -2.1273  2.7080  0.1319
  410SOL     OW 1228   2.768   1.701   0.405 -0.1356 -0.3491  0.4328
  410SOL    HW1 1229   2.822   1.786   0.427  0.8363  1.6040  1.0856
  410SOL    HW2 1230   2.835   1.631   0.377  1.0513 -0.8770  0.5308
  411SOL     OW 1231   2.797   0.124   1.145  0.0038 -0.3465  0.1261
  411SOL    HW1 1232   2.742   0.055   1.197  2.0722 -1.5771  0.7494
  411SOL    HW2 1233   2.740   0.203   1.109 -1.6445  3.3015 -2.3171
  412SOL     OW 1234   2.184   0.312   1.702 -0.2548  0.0291  0.0809
  412SOL    HW1 1235   2.227   0.221   1.720 -0.1509  1.8222 -0.9162
  412SOL    HW2 1236   2.130   0.320   1.616 -1.6547  0.2246  1.8972
  413SOL     OW 1237   0.229   0.363   2.252  0.8111  0.3812 -0.3422
  413SOL    HW1 1238   0.292   0.399   2.179  1.7187  1.7834 -0.3499
  413SOL    HW2 1239   0.257   0.276   2.301  0.6024 -2.0584  1.9257
  414SOL     OW 1240   2.972   1.108   3.014 -0.3837 -0.1195 -0.4756
  414SOL    HW1 1241   2.957   1.051   3.099  0.7314 -1.9885 -1.4373
  414SOL    HW2 1242   2.887   1.104   2.953 -1.7264  0.9832 -0.5691
  415SOL     OW 1243   1.005   2.455   3.032 -0.3670  0.2821 -0.1079
  415SOL    HW1 1244   0.936   2.387   3.058  1.5530 -1.5063 -1.4397
  415SOL    HW2 1245   1.016   2.527   0.002  0.2820  0.8520 -1.6445
  416SOL     OW 1246   1.413   3.059   2.390 -0.3937  0.3032 -0.0020
  416SOL    HW1 1247   1.369   3.093   2.306  0.1652 -0.0401  1.1623
  416SOL    HW2 1248   1.501   3.017   2.363 -2.0864 -0.5456 -2.9042
  417SOL     OW 1249   0.418   0.645   0.992 -0.3141 -0.3500 -0.0708
  417SOL    HW1 1250   0.477   0.558   0.998  0.2824 -2.5019 -1.7642
  417SOL    HW2 1251   0.320   0.629   0.959 -1.2934 -0.2292 -1.0722
  418SOL     OW 1252   2.948   0.130   0.728 -0.1454  0.7133 -0.1694
  418SOL    HW1 1253   2.880   0.105   0.798 -1.8209  1.6341 -0.3301
  418SOL    HW2 1254   2.900   0.193   0.666 -2.4661 -2.2677 -1.1075
  419SOL     OW 1255   0.314   3.004   0.244  0.2145 -0.6450  0.3438
  419SOL    HW1 1256   0.383   2.967   0.178 -1.2305 -1.8621 -0.5527
  419SOL    HW2 1257   0.260   2.936   0.296 -2.2579  0.8158 -2.0489
  420SOL     OW 1258   0.355   1.106   1.818  0.2786  0.7717  0.0745
  420SOL    HW1 1259   0.280   1.129   1.746 -0.6483 -0.4504 -1.0137
  420SOL    HW2 1260   0.360   1.007   1.844 -1.7398  0.0363  2.5301
  421SOL     OW 1261   1.910   2.500   0.725 -0.0562 -0.2432 -0.3339
  421SOL    HW1 1262   1.908   2.584   0.668  0.4584 -2.7252 -1.5520
  421SOL    HW2 1263   1.825   2.445   0.710  1.3808 -0.8632  2.4007
  422SOL     OW 1264   0.119   0.612   1.312 -0.0299  0.2816 -0.0056
  422SOL    HW1 1265   0.193   0.560   1.261 -1.3613 -3.2266  0.1982
  422SOL    HW2 1266   0.059   0.544   1.359 -5.0577  0.7658  1.7317
  423SOL     OW 1267   1.023   1.473   2.010 -0.4675 -0.2968 -0.4121
  423SOL    HW1 1268   1.104   1.476   1.954 -0.1695 -0.8016 -2.0000
  423SOL    HW2 1269   0.946   1.508   1.953 -1.1481  2.0733 -0.4112
  424SOL     OW 1270   1.856   2.181   0.540 -0.4602 -0.1595 -0.2465
  424SOL    HW1 1271   1.854   2.200   0.437 -1.5753  1.8297 -1.9964
  424SOL    HW2 1272   1.819   2.088   0.566  1.1987  1.2432  1.7478
  425SOL     OW 1273   2.731   3.012   1.897  0.2312 -0.0524 -0.7885
  425SOL    HW1 1274   2.784   3.072   1.960 -0.4371  0.4021 -2.5606
  425SOL    HW2 1275   2.701   2.921   1.938  0.1663 -0.7882  2.2094
  426SOL     OW 1276   3.048   2.665   2.740 -0.0885  0.9214  0.3338
  426SOL    HW1 1277   0.004   2.740   2.775 -3.0492 -0.7060  1.0078
  426SOL    HW2 1278   2.977   2.640   2.808  0.1698 -1.7553  0.7870
  427SOL     OW 1279   1.005   0.238   0.348 -0.5040 -0.0371 -0.3705
  427SOL    HW1 1280   0.945   0.272   0.273 -0.3794 -1.8075 -0.7738
  427SOL    HW2 1281   0.968   0.149   0.387  1.1673 -2.5683  1.8623
  428SOL     OW 1282   2.922   0.543   1.245 -0.1262 -0.2843 -0.0511
  428SOL    HW1 1283   2.962   0.451   1.260 -1.3553  3.8195  2.1598
  428SOL    HW2 1284   2.822   0.528   1.237 -1.5145 -0.4006  0.3541
  429SOL     OW 1285   1.956   0.021   1.013  0.4028  0.0708  0.1288
  429SOL    HW1 1286   1.911   0.003   0.920 -0.5709 -2.6027 -1.5303
  429SOL    HW2 1287   2.058   0.009   1.013  2.4204  1.2278 -0.0884
  430SOL     OW 1288   0.847   1.582   2.448 -0.0895 -0.0727  0.0293
  430SOL    HW1 1289   0.844   1.642   2.533  1.7002  1.8904 -0.0222
  430SOL    HW2 1290   0.755   1.577   2.400  2.9435  3.0793 -3.0694
  431SOL     OW 1291   0.016   1.806   1.160  0.1165 -0.2363  0.1117
  431SOL    HW1 1292   0.074   1.817   1.241 -1.3789 -0.6470 -0.4251
  431SOL    HW2 1293   3.047   1.880   1.151  0.5643  2.1030 -1.0318
  432SOL     OW 1294   1.379   2.637   2.295 -0.0489 -0.0200  0.1439
  432SOL    HW1 1295   1.406   2.712   2.234  1.0315  1.9442 -1.0713
  432SOL    HW2 1296   1.364   2.546   2.242  0.7243 -3.0071 -3.1835
  433SOL     OW 1297   1.358   0.199   2.522  0.4169 -0.0752 -0.4940
  433SOL    HW1 1298   1.358   0.140   2.438  2.8519  1.7125  1.5205
  433SOL    HW2 1299   1.315   0.291   2.505 -0.1892  1.5988 -2.3754
  434SOL     OW 1300   0.652   2.456   2.032 -0.6359  0.0672  0.1189
  434SOL    HW1 1301   0.681   2.447   1.935 -1.1475 -0.3820 -1.3985
  434SOL    HW2 1302   0.552   2.478   2.038  0.0480  0.4879  0.7795
  435SOL     OW 1303   0.348   0.095   0.469 -0.3212 -0.6326  0.0998
  435SOL    HW1 1304   0.292   0.178   0.446 -1.0359  0.3874  0.9833
  435SOL    HW2 1305   0.368   0.034   0.385  0.4634  0.0164  0.5131
  436SOL     OW 1306   0.576   1.242   2.405  0.2642  0.0794 -0.1919
  436SOL    HW1 1307   0.518   1.271   2.485  3.3103  1.1839  2.0864
  436SOL    HW2 1308   0.574   1.141   2.399  1.0110  0.9329  0.1430
  437SOL     OW 1309   0.814   2.375   2.670  0.1486  0.5922 -0.2799
  437SOL    HW1 1310   0.806   2.428   2.580 -0.5647  1.6326  1.0161
  437SOL    HW2 1311   0.721   2.360   2.708 -1.5727 -0.1132  0.8002
  438SOL     OW 1312   0.859   1.131   0.672 -0.3730  0.0254 -0.0252
  438SOL    HW1 1313   0.918   1.164   0.743 -1.2869  1.4866 -3.0840
  438SOL    HW2 1314   0.916   1.132   0.585  2.9802 -1.1719  0.2133
  439SOL     OW 1315   2.582   1.518   2.424 -0.5816  0.4015  0.0522
  439SOL    HW1 1316   2.626   1.441   2.480 -0.2696 -3.2490 -0.2127
  439SOL    HW2 1317   2.588   1.608   2.476  3.1070  0.9929  0.1885
  440SOL     OW 1318   2.830   0.828   2.766 -0.5778  0.0924 -0.5358
  440SOL    HW1 1319   2.844   0.831   2.663 -0.0337 -0.1782 -0.4501
  440SOL    HW2 1320   2.911   0.782   2.809  0.9036 -0.1892 -0.7553
  441SOL     OW 1321   1.188   2.274   1.644 -0.1966 -0.5352  0.0021
  441SOL    HW1 1322   1.098   2.249   1.684  3.9966  1.3429 -2.4588
  441SOL    HW2 1323   1.257   2.200   1.646  2.0887  0.8087 -1.0961
  442SOL     OW 1324   2.047   1.398   0.758  0.6809  0.1139 -0.2142
  442SOL    HW1 1325   1.956   1.377   0.799 -2.5534  0.1483 -0.1135
  442SOL    HW2 1326   2.059   1.372   0.662  2.1650  1.8006  2.4432
  443SOL     OW 1327   2.321   2.250   2.962  0.1810  0.1415  0.4100
  443SOL    HW1 1328   2.416   2.279   2.961 -2.9058 -0.7606  3.1382
  443SOL    HW2 1329   2.270   2.328   2.994  1.8308 -2.6447 -2.8204
  444SOL     OW 1330   1.875   1.446   2.586  0.0693 -0.0256  0.2123
  444SOL    HW1 1331   1.869   1.413   2.487 -2.3905  0.9959  2.0150
  444SOL    HW2 1332   1.898   1.546   2.592  1.9839  1.6545 -1.4502
  445SOL     OW 1333   0.284   2.158   2.276 -0.2487  0.1701 -0.1420
  445SOL    HW1 1334   0.371   2.134   2.230 -1.9883 -0.4804  1.3336
  445SOL    HW2 1335   0.272   2.261   2.275 -1.4697 -1.5804 -0.5817
  446SOL     OW 1336   0.985   0.848   1.677  0.3547 -0.1180  0.5679
  446SOL    HW1 1337   1.074   0.806   1.709  0.6082  1.2787  0.1579
  446SOL    HW2 1338   1.001   0.892   1.585 -0.7013  3.5666 -0.0436
  447SOL     OW 1339   1.006   1.175   0.460 -0.0108  0.1970 -0.2105
  447SOL    HW1 1340   0.962   1.261   0.419 -3.3301 -1.3320  0.8658
  447SOL    HW2 1341   1.025   1.108   0.381 -2.0532  1.5649 -2.4930
  448SOL     OW 1342   0.836   1.328   2.487 -0.2466 -0.0614  0.3225
  448SOL    HW1 1343   0.853   1.428   2.483 -2.0541 -1.5649 -1.0282
  448SOL    HW2 1344   0.745   1.313   2.448  1.9071  1.4726  3.3086
  449SOL     OW 1345   0.186   1.712   2.567 -0.0123 -0.0146 -0.7473
  449SOL    HW1 1346   0.217   1.766   2.487  1.3915 -2.0403  0.5162
  449SOL    HW2 1347   0.082   1.704   2.570 -2.8263  2.5525 -1.8543
  450SOL     OW 1348   2.096   1.619   2.100 -0.1584  0.3397 -0.6828
  450SOL    HW1 1349   2.102   1.640   2.201  2.3224 -0.2942  1.2971
  450SOL    HW2 1350   2.188   1.604   2.059 -2.4940  0.8335  1.0505
  451SOL     OW 1351   2.611   1.473   1.190  0.0425 -0.4628 -0.0481
  451SOL    HW1 1352   2.635   1.568   1.164  1.2597  1.1658  4.0087
  451SOL    HW2 1353   2.687   1.436   1.254  3.8720 -1.0116 -0.3374
  452SOL     OW 1354   0.913   1.274   1.148  0.3297 -0.3670  0.3219
  452SOL    HW1 1355   0.867   1.187   1.171  1.9857  1.2212  0.7524
  452SOL    HW2 1356   0.967   1.304   1.222 -0.3922 -2.4894 -3.8694
  453SOL     OW 1357   0.640   1.770   0.942 -0.6389 -0.2324  0.2203
  453SOL    HW1 1358   0.561   1.766   0.877 -1.1624  0.2086 -0.8646
  453SOL    HW2 1359   0.618   1.736   1.033  0.8603  0.8782 -1.0254
  454SOL     OW 1360   1.172   1.637   0.080 -0.3758  0.3049  0.1227
  454SOL    HW1 1361   1.224   1.687   0.154 -0.4179 -0.6910  1.4209
  454SOL    HW2 1362   1.098   1.579   0.118  4.1885 -0.2365 -0.8639
  455SOL     OW 1363   1.651   0.492   1.251  1.0555  0.1769  0.7209
  455SOL    HW1 1364   1.733   0.544   1.263  0.0508 -1.6115 -1.1790
  455SOL    HW2 1365   1.608   0.515   1.156 -0.3949  2.8343 -4.5217
  456SOL     OW 1366   1.734   2.800   0.822  0.3171 -0.2533  0.4430
  456SOL    HW1 1367   1.720   2.783   0.718  0.8336  0.3020 -2.2737
  456SOL    HW2 1368   1.739   2.721   0.880 -2.6957  0.2900  1.8054
  457SOL     OW 1369   2.049   0.578   2.659 -0.2302  0.2558  0.1151
  457SOL    HW1 1370   1.966   0.582   2.717  1.0028  1.3460 -0.2983
  457SOL    HW2 1371   2.111   0.504   2.694 -0.1470  2.6199  0.0562
  458SOL     OW 1372   2.688   0.473   2.652  0.1185  0.2021 -0.8787
  458SOL    HW1 1373   2.684   0.383   2.609  0.8033 -0.4119 -1.4716
  458SOL    HW2 1374   2.767   0.486   2.710  0.2140 -1.6064  1.6550
  459SOL     OW 1375   2.440   1.357   2.237  0.4690  0.2796 -0.6267
  459SOL    HW1 1376   2.402   1.430   2.172 -3.6127  2.5796 -0.0228
  459SOL    HW2 1377   2.520   1.398   2.286  2.1796  2.2908 -0.7551
  460SOL     OW 1378   0.755   0.769   2.892 -0.3833  0.1970 -0.1069
  460SOL    HW1 1379   0.746   0.837   2.964 -1.7448 -1.9754 -1.5534
  460SOL    HW2 1380   0.756   0.822   2.805  2.0415 -1.7363 -1.4035
  461SOL     OW 1381   0.385   2.113   0.009  0.2210 -0.1834 -0.6493
  461SOL    HW1 1382   0.395   2.136   0.104  1.2312 -2.7280  0.0741
  461SOL    HW2 1383   0.291   2.069   3.098 -0.5772 -1.7270  1.0102
  462SOL     OW 1384   0.971   0.018   2.233  0.1512  0.3359 -1.0077
  462SOL    HW1 1385   0.955   3.033   2.289 -1.5009 -1.5999  0.5694
  462SOL    HW2 1386   0.922   0.101   2.269  1.9955  0.6001 -1.5747
  463SOL     OW 1387   1.793   2.179   2.185  0.4466 -0.0745  0.0796
  463SOL    HW1 1388   1.753   2.085   2.184  0.5283 -0.7099  1.6560
  463SOL    HW2 1389   1.889   2.170   2.152 -1.1981  1.1286 -0.6876
  464SOL     OW 1390   2.720   2.679   1.073 -0.4284 -0.5246  0.2343
  464SOL    HW1 1391   2.660   2.761   1.096 -0.3508  2.1374  0.8486
  464SOL    HW2 1392   2.682   2.630   0.993  0.4601  2.1541 -0.8370
  465SOL     OW 1393   0.086   0.180   1.427  0.0955 -0.1415  0.1511
  465SOL    HW1 1394   0.042   0.145   1.507  0.6977  0.3417 -2.0176
  465SOL    HW2 1395   0.161   0.113   1.396 -0.6386  1.2233 -0.5353
  466SOL     OW 1396   1.289   2.228   2.428  0.1774  0.3249 -0.0141
  466SOL    HW1 1397   1.255   2.320   2.403  0.4694 -0.2469  0.9762
  466SOL    HW2 1398   1.391   2.232   2.446  0.9271  0.1413 -0.5214
  467SOL     OW 1399   0.069   2.261   0.283 -0.2968  0.2214 -0.2555
  467SOL    HW1 1400   0.027   2.232   0.373  1.4616  3.1052 -0.9336
  467SOL    HW2 1401   0.104   2.185   0.230  1.5966  2.4308  1.0417
  468SOL     OW 1402   2.008   1.967   0.006  0.5683  0.2350  0.7147
  468SOL    HW1 1403   1.961   1.884   3.080  3.0450  1.6680 -1.9610
  468SOL    HW2 1404   2.105   1.965   3.068  0.2818  0.0305 -0.4927
  469SOL     OW 1405   1.049   2.328   0.811 -0.4463 -0.6249  0.2826
  469SOL    HW1 1406   1.109   2.280   0.883  3.1402 -3.2710 -0.4559
  469SOL    HW2 1407   1.113   2.382   0.753  2.8818 -0.1645  1.3370
  470SOL     OW 1408   1.999   0.727   0.876 -0.2915  0.4285  0.3289
  470SOL    HW1 1409   1.990   0.639   0.930  0.5714  0.9211  1.0012
  470SOL    HW2 1410   2.015   0.809   0.938  1.2574  2.0308 -1.1348
  471SOL     OW 1411   0.382   2.087   0.270 -0.1710 -0.2331 -0.1586
  471SOL    HW1 1412   0.465   2.031   0.294  2.2943  0.3386 -2.4966
  471SOL    HW2 1413   0.298   2.047   0.309  1.1009 -0.5659  0.8806
  472SOL     OW 1414   2.448   1.579   2.756  0.1302 -0.8419 -0.7090
  472SOL    HW1 1415   2.517   1.506   2.730  1.8632 -1.6299 -0.1053
  472SOL    HW2 1416   2.372   1.587   2.694  1.6528  1.1658  2.2562
  473SOL     OW 1417   1.636   2.004   0.822 -0.1726 -0.2388 -0.4360
  473SOL    HW1 1418   1.585   2.092   0.807  0.8133  1.0272  1.5573
  473SOL    HW2 1419   1.647   1.990   0.929  1.3802  2.3583  0.3123
  474SOL     OW 1420   2.746   0.382   0.967 -0.3328  0.1139  0.0319
  474SOL    HW1 1421   2.673   0.361   0.891 -1.3540  0.4016  0.5546
  474SOL    HW2 1422   2.768   0.477   0.978 -0.2798 -1.0620  0.3496
  475SOL     OW 1423   2.386   2.760   1.395  0.0281  0.2725 -0.3680
  475SOL    HW1 1424   2.291   2.746   1.430 -0.6603 -1.2810  4.3188
  475SOL    HW2 1425   2.396   2.742   1.298 -0.0158  2.2164 -0.4976
  476SOL     OW 1426   0.702   0.288   0.853  0.3160 -0.1678 -0.2751
  476SOL    HW1 1427   0.664   0.241   0.779  1.5141  0.6816  4.8346
  476SOL    HW2 1428   0.781   0.350   0.834  0.3735 -0.8030  0.8792
  477SOL     OW 1429   1.121   2.285   1.350  0.2042 -0.8644  0.2160
  477SOL    HW1 1430   1.185   2.329   1.285 -0.9166 -1.9227  0.0247
  477SOL    HW2 1431   1.149   2.300   1.447 -0.8428  0.1243 -2.8129
  478SOL     OW 1432   1.307   2.476   2.811 -0.0219 -0.1994 -0.1205
  478SOL    HW1 1433   1.223   2.531   2.802 -1.0067 -0.2398 -2.4347
  478SOL    HW2 1434   1.359   2.474   2.724  1.1045  0.3015 -3.4774
  479SOL     OW 1435   2.494   0.860   1.708  0.1754  0.1816 -0.4134
  479SOL    HW1 1436   2.492   0.955   1.666 -2.4660  0.3279 -1.1449
  479SOL    HW2 1437   2.588   0.816   1.699  0.9276  0.0151  0.3436
  480SOL     OW 1438   2.839   2.049   2.691  0.0826  0.3482  0.1484
  480SOL    HW1 1439   2.844   2.150   2.715 -1.0709  0.3384  0.6614
  480SOL    HW2 1440   2.786   2.029   2.606  1.3916 -0.1183 -0.5753
  481SOL     OW 1441   1.760   0.026   2.110  0.2384  0.2463 -0.4170
  481SOL    HW1 1442   1.822   0.065   2.179  1.7373 -0.9752 -0.9616
  481SOL    HW2 1443   1.683   0.088   2.086  2.4744 -1.6857 -0.7031
  482SOL     OW 1444   1.570   2.221   2.515 -0.0568 -0.3462  0.2270
  482SOL    HW1 1445   1.587   2.293   2.588  0.4019 -1.7501 -1.9653
  482SOL    HW2 1446   1.634   2.141   2.539 -2.3061  1.3226 -2.3555
  483SOL     OW 1447   1.107   2.509   2.477  0.0552  0.0373  0.4961
  483SOL    HW1 1448   1.097   2.513   2.579  1.3294 -0.1530  0.3754
  483SOL    HW2 1449   1.137   2.600   2.439 -3.2194  1.6113  0.4273
  484SOL     OW 1450   2.666   3.036   1.320 -0.1570 -0.4636 -0.2123
  484SOL    HW1 1451   2.581   3.040   1.379 -2.6234  0.2836 -0.5369
  484SOL    HW2 1452   2.753   3.039   1.374  0.8864 -0.6917  0.7785
  485SOL     OW 1453   1.981   0.731   0.414  0.2467  0.7062 -0.3916
  485SOL    HW1 1454   1.927   0.748   0.501 -2.1331  1.4162  0.4310
  485SOL    HW2 1455   2.006   0.820   0.377  0.2331 -2.9520  0.6249
  486SOL     OW 1456   2.318   2.658   2.224  0.2000 -0.1350  0.4713
  486SOL    HW1 1457   2.312   2.744   2.287  2.1789  0.7704  1.6985
  486SOL    HW2 1458   2.232   2.660   2.165 -3.0092  0.9783 -0.8342
  487SOL     OW 1459   1.420   0.698   0.421 -0.4323 -0.1347  0.5930
  487SOL    HW1 1460   1.443   0.711   0.519 -0.6609 -1.3074 -0.8095
  487SOL    HW2 1461   1.432   0.599   0.400  0.6997  1.3761  2.2808
  488SOL     OW 1462   2.613   2.825   2.529 -0.0150 -0.1315  0.5071
  488SOL    HW1 1463   2.592   2.795   2.433 -1.5272  0.6810 -0.2649
  488SOL    HW2 1464   2.523   2.844   2.568  2.3771 -0.5244 -0.4761
  489SOL     OW 1465   1.612   3.070   0.175  0.0215 -0.1240 -0.7933
  489SOL    HW1 1466   1.523   0.004   0.214 -0.3980  1.1435 -0.0487
  489SOL    HW2 1467   1.663   3.012   0.244  0.1447 -0.6965  2.2682
  490SOL     OW 1468   1.848   0.431   0.052  0.2553 -0.4661  0.5076
  490SOL    HW1 1469   1.787   0.489   0.109  3.1716 -0.5804  0.0389
  490SOL    HW2 1470   1.928   0.485   0.026  1.2214  1.8293 -0.3894
  491SOL     OW 1471   0.494   2.886   1.298  0.2160 -0.2426  0.3234
  491SOL    HW1 1472   0.514   2.893   1.401 -1.2384 -1.0213  0.9102
  491SOL    HW2 1473   0.578   2.913   1.245 -0.8218  0.9869  1.4434
  492SOL     OW 1474   1.641   2.776   0.563 -0.4760 -0.4719 -0.2093
  492SOL    HW1 1475   1.615   2.680   0.535 -2.8185 -1.6170  0.4251
  492SOL    HW2 1476   1.645   2.839   0.476 -0.6910 -0.7453 -3.1997
  493SOL     OW 1477   1.178   2.206   2.904 -0.2206  0.4961 -0.3355
  493SOL    HW1 1478   1.224   2.187   2.811  2.6384  1.4440  1.2768
  493SOL    HW2 1479   1.197   2.295   2.942 -0.5290 -3.6076  1.1950
  494SOL     OW 1480   0.658   1.017   0.510  0.2689  0.0226  0.4554
  494SOL    HW1 1481   0.593   0.947   0.545  3.3618  0.6916  0.3207
  494SOL    HW2 1482   0.730   1.034   0.572 -3.5642 -0.6790 -2.9591
  495SOL     OW 1483   2.706   0.509   1.724  0.3618 -0.2537  0.3200
  495SOL    HW1 1484   2.769   0.455   1.661  2.7036 -2.0461 -0.5833
  495SOL    HW2 1485   2.668   0.590   1.676 -0.7500 -1.3296  0.0132
  496SOL     OW 1486   2.201   2.499   2.429 -0.6029  0.3825  0.5558
  496SOL    HW1 1487   2.243   2.557   2.360 -0.7525 -1.0687 -0.4791
  496SOL    HW2 1488   2.098   2.493   2.429  0.8231  0.1010  0.5747
  497SOL     OW 1489   1.682   1.336   2.734 -0.3915  0.5110 -0.0632
  497SOL    HW1 1490   1.745   1.392   2.674 -0.5682  0.1067  0.0721
  497SOL    HW2 1491   1.665   1.377   2.825  0.2518  0.8579 -0.6173
  498SOL     OW 1492   0.796   2.360   0.901  0.1523  0.2330 -0.1444
  498SOL    HW1 1493   0.900   2.358   0.884  3.9706 -0.2074 -0.2678
  498SOL    HW2 1494   0.765   2.297   0.976  0.4924 -0.1129  0.2604
  499SOL     OW 1495   0.113   2.216   1.075 -0.6315 -0.3823  0.3634
  499SOL    HW1 1496   0.082   2.255   0.988 -1.5461  2.2535 -1.9608
  499SOL    HW2 1497   0.130   2.293   1.139 -4.4385 -2.8942 -1.0095
  500SOL     OW 1498   1.051   2.612   0.161  0.7544 -0.3065 -0.5794
  500SOL    HW1 1499   0.981   2.662   0.223 -2.6250  1.4466  2.9395
  500SOL    HW2 1500   1.146   2.641   0.181 -0.7817  0.5264 -0.0339
  501SOL     OW 1501   1.958   2.722   0.567  0.7944 -0.2667 -0.5092
  501SOL    HW1 1502   1.951   2.820   0.601  0.8203  2.0337  1.0178
  501SOL    HW2 1503   1.972   2.720   0.467  0.8754 -0.9600 -1.1327
  502SOL     OW 1504   0.101   0.313   1.087 -0.0571 -0.0043 -0.0739
  502SOL    HW1 1505   0.018   0.309   1.149 -0.9439  0.3907  3.4992
  502SOL    HW2 1506   0.101   0.241   1.016 -0.4448  3.4628 -1.1238
  503SOL     OW 1507   2.078   0.015   1.945 -0.2058  0.1403 -0.3623
  503SOL    HW1 1508   2.113   0.095   2.008  1.3816  1.6169  2.6976
  503SOL    HW2 1509   2.153   3.082   1.896 -2.7415  0.1225  0.6727
  504SOL     OW 1510   2.072   1.045   1.917  0.0768 -0.1990 -0.1603
  504SOL    HW1 1511   2.086   0.969   1.851  0.0999 -0.8612  0.5475
  504SOL    HW2 1512   2.029   1.125   1.871 -1.7091 -0.7354  0.1951
  505SOL     OW 1513   1.785   2.789   2.417  0.4451 -0.1518 -0.0846
  505SOL    HW1 1514   1.875   2.829   2.387  5.1918  1.8289  0.9732
  505SOL    HW2 1515   1.706   2.840   2.373  0.2863 -0.1460  0.3822
  506SOL     OW 1516   0.396   0.849   1.936 -0.1634  0.2455 -0.3263
  506SOL    HW1 1517   0.442   0.897   2.014  1.7256 -0.9413  1.3437
  506SOL    HW2 1518   0.458   0.775   1.900  0.4211  1.7660  1.4197
  507SOL     OW 1519   1.770   0.603   0.277  0.2106  0.6959 -0.3890
  507SOL    HW1 1520   1.699   0.553   0.331 -2.1592  0.7221  0.4864
  507SOL    HW2 1521   1.840   0.646   0.338  0.0455  3.2668  2.6522
  508SOL     OW 1522   2.031   0.840   2.105 -0.1346  0.0900  0.3901
  508SOL    HW1 1523   2.033   0.931   2.053  0.7762  5.2951 -0.5246
  508SOL    HW2 1524   2.127   0.809   2.120  0.7808  0.2827  2.8882
  509SOL     OW 1525   0.560   1.792   2.812  0.1639  0.0939  0.3396
  509SOL    HW1 1526   0.570   1.824   2.909 -1.9797 -0.6569 -1.2469
  509SOL    HW2 1527   0.497   1.853   2.764 -2.0448 -0.1477 -0.8176
  510SOL     OW 1528   3.052   0.853   0.798 -0.2931  0.4663 -0.2102
  510SOL    HW1 1529   3.001   0.767   0.814  0.5501  0.7707 -2.0365
  510SOL    HW2 1530   0.010   0.862   0.879  3.0911  1.7002  1.1828
  511SOL     OW 1531   1.741   1.116   1.293 -0.5780  0.8324 -0.8524
  511SOL    HW1 1532   1.693   1.166   1.371  0.6695 -1.2826 -2.0615
  511SOL    HW2 1533   1.838   1.138   1.285 -0.5133  2.3065 -0.6084
  512SOL     OW 1534   0.369   2.036   0.741 -0.5999  0.2980  0.1688
  512SOL    HW1 1535   0.456   2.017   0.690 -2.1577  2.0423 -1.0501
  512SOL    HW2 1536   0.340   2.136   0.730  0.0339 -2.0276 -1.0888
  513SOL     OW 1537   0.351   2.370   0.949 -0.4756  0.4327 -0.5029
  513SOL    HW1 1538   0.275   2.433   0.973 -0.7214 -1.7783 -1.4373
  513SOL    HW2 1539   0.372   2.305   1.024  2.3563  1.6428 -0.6083
  514SOL     OW 1540   0.601   1.986   0.633  0.4113  0.4337  0.1260
  514SOL    HW1 1541   0.649   1.915   0.688  2.4210  1.6877 -0.8539
  514SOL    HW2 1542   0.627   1.972   0.531 -0.6297 -0.9275 -3.6145
  515SOL     OW 1543   0.228   0.120   0.131  0.2674  0.0874  0.6338
  515SOL    HW1 1544   0.275   0.046   0.178 -1.8744 -2.4978 -1.7498
  515SOL    HW2 1545   0.138   0.080   0.097 -1.1747 -0.8046  0.6964
  516SOL     OW 1546   1.801   0.007   1.267 -0.4708  0.2603  0.0265
  516SOL    HW1 1547   1.787   0.108   1.290 -2.8299  0.7046 -3.9374
  516SOL    HW2 1548   1.863   3.093   1.190  1.0642  1.8389  1.3119
  517SOL     OW 1549   1.607   1.664   0.791  0.5544  0.3151 -0.0827
  517SOL    HW1 1550   1.619   1.763   0.782 -0.2700 -0.9240  0.6842
  517SOL    HW2 1551   1.626   1.639   0.886 -1.0229  3.0193 -1.1553
  518SOL     OW 1552   1.513   2.845   0.961 -0.3084 -0.1815  0.3024
  518SOL    HW1 1553   1.452   2.772   0.921  1.9655  2.4340 -0.6711
  518SOL    HW2 1554   1.605   2.844   0.911  3.2242  2.1732  1.0181
  519SOL     OW 1555   3.042   2.341   0.045  0.3357 -1.4094  0.2048
  519SOL    HW1 1556   3.087   2.306   0.125  0.9359 -1.2142 -2.4092
  519SOL    HW2 1557   0.007   2.400   3.097  0.5070 -2.2853  1.8695
  520SOL     OW 1558   2.008   1.927   2.331 -0.5333 -0.0552 -0.0001
  520SOL    HW1 1559   1.940   1.974   2.390  0.9273 -0.6041 -2.9855
  520SOL    HW2 1560   1.998   1.952   2.231  1.8581  1.8892  0.0209
  521SOL     OW 1561   1.272   0.003   2.158  0.2512  0.1163 -0.1641
  521SOL    HW1 1562   1.289   0.098   2.125  0.5038  1.2501 -2.0662
  521SOL    HW2 1563   1.171   3.087   2.178 -1.8949 -0.1798  1.0417
  522SOL     OW 1564   0.394   2.520   2.062 -0.2407 -0.4977 -0.2766
  522SOL    HW1 1565   0.312   2.546   2.005  0.3188 -0.7582 -1.3861
  522SOL    HW2 1566   0.370   2.492   2.157 -0.2343  2.2932 -0.3473
  523SOL     OW 1567   1.027   2.065   1.972  0.1063  0.4481  1.2068
  523SOL    HW1 1568   0.994   2.113   2.056 -0.9862  1.2639 -0.0945
  523SOL    HW2 1569   1.124   2.040   1.962 -0.6518 -1.6290 -2.8730
  524SOL     OW 1570   2.407   2.121   0.196 -0.3703  0.2508 -0.4156
  524SOL    HW1 1571   2.446   2.216   0.188 -1.0648  0.8995  0.4439
  524SOL    HW2 1572   2.365   2.092   0.107  1.2636  0.6117  0.0326
  525SOL     OW 1573   2.750   1.082   2.849  0.4978 -0.1340 -0.0765
  525SOL    HW1 1574   2.665   1.117   2.801 -0.9101 -1.2864 -0.5257
  525SOL    HW2 1575   2.767   0.987   2.817  1.3398 -2.4600 -0.9142
  526SOL     OW 1576   0.144   2.790   0.896 -0.2373  0.1841 -0.1467
  526SOL    HW1 1577   0.065   2.797   0.831 -0.6761 -0.4945 -1.9859
  526SOL    HW2 1578   0.187   2.880   0.916  0.4136  0.3970 -0.8723
  527SOL     OW 1579   3.077   1.323   0.612 -0.0455  0.8020  0.1756
  527SOL    HW1 1580   3.053   1.224   0.628 -2.7614  0.6896 -1.4891
  527SOL    HW2 1581   2.998   1.384   0.624  0.5637 -0.8288 -1.1517
  528SOL     OW 1582   0.634   0.970   2.379 -0.4835 -0.5036 -0.0232
  528SOL    HW1 1583   0.592   0.891   2.426 -1.0544  1.3735  0.3340
  528SOL    HW2 1584   0.733   0.960   2.371  0.4599 -2.3084 -0.7791
  529SOL     OW 1585   0.949   1.471   0.126 -0.1855 -0.6126 -0.1084
  529SOL    HW1 1586   0.968   1.386   0.072 -1.8807 -1.1279  1.3868
  529SOL    HW2 1587   0.862   1.517   0.096 -0.3966  1.6612 -1.5379
  530SOL     OW 1588   1.118   1.053   1.935 -0.5888 -0.0317  0.0581
  530SOL    HW1 1589   1.150   1.066   1.841 -2.6264 -0.7003  1.9914
  530SOL    HW2 1590   1.106   0.953   1.957  0.2264 -0.7713  0.5688
  531SOL     OW 1591   1.069   2.151   0.192 -0.5391 -0.2545 -0.3140
  531SOL    HW1 1592   1.095   2.072   0.248  1.0211  0.5023 -0.7464
  531SOL    HW2 1593   1.141   2.224   0.174 -1.2159 -0.3180 -0.8715
  532SOL     OW 1594   2.282   0.757   2.147 -0.0779 -0.2444 -0.9970
  532SOL    HW1 1595   2.337   0.780   2.064  0.6700  2.4255 -0.3288
  532SOL    HW2 1596   2.315   0.796   2.236  0.1333 -0.4292 -2.0311
  533SOL     OW 1597   2.962   0.239   1.838  0.3713 -0.6106 -0.2346
  533SOL    HW1 1598   2.909   0.179   1.902 -0.8271  0.1445  0.5396
  533SOL    HW2 1599   3.029   0.286   1.897 -0.5576  2.0076  0.6522
  534SOL     OW 1600   2.595   0.133   0.313 -0.8285 -0.1133  0.1249
  534SOL    HW1 1601   2.693   0.159   0.334  0.1991  0.3381 -0.6235
  534SOL    HW2 1602   2.589   0.119   0.213  1.5659 -1.2259  0.1765
  535SOL     OW 1603   0.434   0.286   0.233  0.0944  0.0807 -0.2324
  535SOL    HW1 1604   0.417   0.382   0.260  1.0554 -0.5827  0.2846
  535SOL    HW2 1605   0.349   0.240   0.208 -1.1507  2.7407  1.0847
  536SOL     OW 1606   1.041   2.017   1.502  0.7446  0.3368  0.9533
  536SOL    HW1 1607   0.982   2.022   1.418 -2.0718 -0.2464 -0.4791
  536SOL    HW2 1608   1.034   2.089   1.573  0.9662 -0.7617 -0.3172
  537SOL     OW 1609   3.021   2.546   1.622  0.4986  0.4405  0.1584
  537SOL    HW1 1610   2.923   2.584   1.631 -0.1674 -0.5957  0.5990
  537SOL    HW2 1611   3.022   2.446   1.646  1.2771 -0.4203  0.1232
  538SOL     OW 1612   0.543   2.354   0.260 -0.0487 -0.3581 -0.5744
  538SOL    HW1 1613   0.604   2.394   0.189 -2.0985 -1.2286 -1.0477
  538SOL    HW2 1614   0.541   2.256   0.257 -0.9854 -0.7394  2.4305
  539SOL     OW 1615   2.061   1.160   2.260 -0.3938  0.6158 -0.3611
  539SOL    HW1 1616   2.001   1.113   2.332  0.6092 -0.7663  3.9755
  539SOL    HW2 1617   2.147   1.112   2.241 -0.4396  1.6459 -0.5251
  540SOL     OW 1618   1.806   0.726   3.000  0.2622  0.0997  0.4492
  540SOL    HW1 1619   1.878   0.728   3.067 -4.3509  0.8879 -2.3100
  540SOL    HW2 1620   1.823   0.793   2.925 -0.1835 -0.1788 -0.0688
  541SOL     OW 1621   0.521   0.769   2.524  0.3418 -0.8329 -0.1899
  541SOL    HW1 1622   0.446   0.702   2.499  1.9887 -1.9775 -0.2016
  541SOL    HW2 1623   0.481   0.854   2.577 -0.4695  1.9794 -1.5736
  542SOL     OW 1624   1.302   2.681   1.849  0.3513  0.3001  0.1545
  542SOL    HW1 1625   1.255   2.593   1.847 -0.8427 -0.4238  0.2363
  542SOL    HW2 1626   1.392   2.680   1.805 -1.8402  4.2443  1.3717
  543SOL     OW 1627   0.600   2.811   0.377 -0.3080 -0.0982  0.3238
  543SOL    HW1 1628   0.566   2.842   0.288 -0.7182 -1.3026  0.3323
  543SOL    HW2 1629   0.534   2.758   0.437 -1.8132 -1.6785  1.8666
  544SOL     OW 1630   2.718   1.996   2.466 -0.5351  0.0795  0.2791
  544SOL    HW1 1631   2.671   2.077   2.418 -0.9753  1.0165  0.2468
  544SOL    HW2 1632   2.795   1.960   2.406  4.7022  1.3053 -1.2222
  545SOL     OW 1633   1.443   1.454   1.820  0.0607 -0.0809  0.3554
  545SOL    HW1 1634   1.476   1.479   1.908 -0.8700  0.4427 -4.6735
  545SOL    HW2 1635   1.362   1.508   1.798  0.3671 -2.0079  0.4113
  546SOL     OW 1636   3.003   0.234   2.557 -0.7718 -0.1983  0.8846
  546SOL    HW1 1637   3.014   0.142   2.598 -3.2546 -0.6780 -1.7652
  546SOL    HW2 1638   3.042   0.230   2.462  1.2623 -0.6013 -0.2821
  547SOL     OW 1639   1.275   0.023   1.151  0.2825  0.7254  0.1866
  547SOL    HW1 1640   1.325   0.106   1.190  0.5216  2.2190 -0.1576
  547SOL    HW2 1641   1.335   3.038   1.151 -2.6412 -2.1019  2.6566
  548SOL     OW 1642   1.335   2.046   3.065 -0.0291  0.5336 -0.5663
  548SOL    HW1 1643   1.420   2.099   3.091  0.5285  1.2774 -1.0808
  548SOL    HW2 1644   1.274   2.102   3.008  0.0634  0.1533 -2.7889
  549SOL     OW 1645   2.279   0.662   3.093  0.4489 -0.1224  0.2840
  549SOL    HW1 1646   2.351   0.637   0.058 -2.3798 -0.3561 -0.7726
  549SOL    HW2 1647   2.313   0.742   3.042 -0.3390  0.7923  1.6037
  550SOL     OW 1648   2.815   2.072   0.916 -0.0801  0.5692  0.0677
  550SOL    HW1 1649   2.766   2.161   0.911 -2.0156 -0.7023  1.0690
  550SOL    HW2 1650   2.762   1.998   0.873 -0.6677 -0.0289  0.7986
  551SOL     OW 1651   0.885   0.323   1.325 -0.2369  0.7579 -0.4758
  551SOL    HW1 1652   0.797   0.278   1.343 -1.3538  3.0611  0.6114
  551SOL    HW2 1653   0.950   0.320   1.403 -0.1645  0.0352 -0.4649
  552SOL     OW 1654   0.043   1.420   2.936  0.2532  0.3955 -0.2242
  552SOL    HW1 1655   0.111   1.484   2.896  2.4235  0.7630 -0.4175
  552SOL    HW2 1656   3.098   1.458   3.018  1.7828  0.9190  1.1961
  553SOL     OW 1657   2.480   2.589   0.446  0.0525 -0.4412  0.1372
  553SOL    HW1 1658   2.574   2.607   0.480  1.7052  1.1743  0.6002
  553SOL    HW2 1659   2.432   2.676   0.418 -1.3414 -0.1652 -2.4785
  554SOL     OW 1660   2.193   1.105   1.537  0.5155  0.4103  0.4628
  554SOL    HW1 1661   2.115   1.150   1.484  0.5343  1.4463  1.7316
  554SOL    HW2 1662   2.158   1.017   1.580  2.1333  0.8610  2.4654
  555SOL     OW 1663   0.949   2.174   2.184  0.3539 -0.0726  0.3099
  555SOL    HW1 1664   1.006   2.130   2.261 -1.2482 -0.1682  1.6317
  555SOL    HW2 1665   0.860   2.206   2.216 -2.0690  0.6396  0.7985
  556SOL     OW 1666   1.244   1.069   1.697 -0.2289 -0.0223 -0.5595
  556SOL    HW1 1667   1.322   1.128   1.728  2.2889 -2.4844  1.3404
  556SOL    HW2 1668   1.268   1.012   1.616  2.5955 -0.8088  1.3274
  557SOL     OW 1669   1.222   0.088   1.469  0.3180  0.0461  0.1342
  557SOL    HW1 1670   1.245   0.093   1.370 -0.6479 -0.2202 -2.6490
  557SOL    HW2 1671   1.190   0.186   1.505  0.8526  0.9716 -0.8316
  558SOL     OW 1672   0.400   0.563   2.373 -0.2652 -0.7081 -0.0188
  558SOL    HW1 1673   0.395   0.474   2.429 -1.0374 -2.1610 -0.2412
  558SOL    HW2 1674   0.485   0.565   2.317 -1.4342 -0.1695  1.3706
  559SOL     OW 1675   1.325   2.668   0.163  0.2719  0.3571  0.2074
  559SOL    HW1 1676   1.328   2.718   0.251  1.1866  1.6662 -0.4116
  559SOL    HW2 1677   1.418   2.648   0.129 -0.9612  1.0020  1.9960
  560SOL     OW 1678   1.556   2.134   0.290 -0.0275 -0.1167  0.4232
  560SOL    HW1 1679   1.627   2.062   0.315 -0.0809 -1.2876 -1.2605
  560SOL    HW2 1680   1.565   2.152   0.189  0.4774  0.0142 -0.5292
  561SOL     OW 1681   1.372   0.078   0.657 -0.1374 -0.0022 -0.4872
  561SOL    HW1 1682   1.439   0.079   0.734 -1.5427 -0.2510 -1.0258
  561SOL    HW2 1683   1.281   0.041   0.689 -1.3933  0.2203  2.3162
  562SOL     OW 1684   0.533   0.972   2.136 -0.4180  0.0886  0.3425
  562SOL    HW1 1685   0.604   0.981   2.059  1.2131  0.3997 -0.3909
  562SOL    HW2 1686   0.578   0.975   2.230  0.4815 -0.3920 -0.1430
  563SOL     OW 1687   1.278   2.096   2.675 -0.2398 -0.4788 -0.5972
  563SOL    HW1 1688   1.288   2.141   2.586 -0.6085 -0.2629  1.6285
  563SOL    HW2 1689   1.300   1.995   2.665  2.7399  0.2615 -1.5682
  564SOL     OW 1690   2.669   0.851   1.023  0.0124  0.0868 -0.2674
  564SOL    HW1 1691   2.708   0.939   1.062 -0.0202  2.6079  2.3843
  564SOL    HW2 1692   2.565   0.858   1.011 -0.0457 -1.1253  2.1253
  565SOL     OW 1693   1.313   1.322   0.005  0.6787  0.0241  0.2905
  565SOL    HW1 1694   1.292   1.404   3.050 -0.8202 -3.4395 -0.0022
  565SOL    HW2 1695   1.406   1.282   3.079  2.8817  0.3575  2.3350
  566SOL     OW 1696   2.222   2.702   2.948  0.1963  0.2694  0.1117
  566SOL    HW1 1697   2.133   2.761   2.950 -3.8335  3.8021  0.3092
  566SOL    HW2 1698   2.286   2.753   3.011 -0.0145 -0.9493  0.7601
  567SOL     OW 1699   1.687   0.926   0.965 -0.2855  0.0256 -0.3078
  567SOL    HW1 1700   1.775   0.976   0.939 -0.8781 -2.4311  0.3444
  567SOL    HW2 1701   1.696   0.854   1.040 -0.1318 -1.1326  1.3468
  568SOL     OW 1702   1.531   1.375   2.494 -0.2187 -0.3011 -0.0366
  568SOL    HW1 1703   1.450   1.436   2.512  0.8348 -0.1291 -0.5643
  568SOL    HW2 1704   1.583   1.369   2.581  1.1863 -1.4881  1.0861
  569SOL     OW 1705   1.976   1.731   0.801 -0.6891 -0.2525 -0.1778
  569SOL    HW1 1706   2.024   1.825   0.796  0.0335  0.1922 -0.9488
  569SOL    HW2 1707   2.043   1.660   0.835  0.7908  0.7734  2.6579
  570SOL     OW 1708   2.631   2.244   2.398 -0.3717 -0.0040 -0.0943
  570SOL    HW1 1709   2.638   2.322   2.335  1.0644  1.3138 -0.7528
  570SOL    HW2 1710   2.535   2.235   2.426  1.2605  0.1105  0.0682
  571SOL     OW 1711   2.750   1.836   1.898  0.5314 -0.1688 -0.3112
  571SOL    HW1 1712   2.740   1.932   1.940 -0.2128  0.9476  0.4634
  571SOL    HW2 1713   2.661   1.807   1.867  3.0210  1.5152 -0.4129
  572SOL     OW 1714   1.537   2.409   2.946 -0.3209 -0.0693 -0.2100
  572SOL    HW1 1715   1.440   2.447   2.938 -1.0244  1.0838  1.5651
  572SOL    HW2 1716   1.572   2.379   2.851 -0.1039 -1.3589 -2.9178
  573SOL     OW 1717   1.435   2.194   1.172  0.4099  0.1204 -0.0593
  573SOL    HW1 1718   1.483   2.130   1.233 -0.9743 -0.4762  1.5417
  573SOL    HW2 1719   1.417   2.282   1.217  1.5109  2.5943  1.1371
  574SOL     OW 1720   1.022   2.725   1.403 -0.3137  0.0560  0.0831
  574SOL    HW1 1721   0.935   2.675   1.417 -2.5949 -1.3163 -0.5295
  574SOL    HW2 1722   1.026   2.803   1.472 -1.0063  2.6312 -2.9247
  575SOL     OW 1723   0.897   0.643   0.958  0.1578 -0.1586 -0.0153
  575SOL    HW1 1724   0.991   0.610   0.986 -0.3511 -1.0636  0.9741
  575SOL    HW2 1725   0.895   0.746   0.969 -0.6699  0.7867  1.1562
  576SOL     OW 1726   2.540   0.480   1.401 -0.4844  0.0620 -0.1134
  576SOL    HW1 1727   2.593   0.514   1.321  2.4129  0.5181 -1.0571
  576SOL    HW2 1728   2.590   0.405   1.448  0.9780 -0.2936 -0.4858
  577SOL     OW 1729   2.360   0.204   2.717  0.3126 -0.2171 -0.2927
  577SOL    HW1 1730   2.310   0.287   2.752  0.8342 -0.8110  1.5096
  577SOL    HW2 1731   2.330   0.171   2.627 -0.3471 -0.4619  0.8273
  578SOL     OW 1732   1.998   1.915   2.041 -0.2409  0.5689  0.3159
  578SOL    HW1 1733   2.038   1.822   2.032 -0.3091 -3.6642  1.7393
  578SOL    HW2 1734   2.012   1.964   1.952 -0.5890  0.1312  1.2346
  579SOL     OW 1735   0.564   1.629   1.172 -0.1864 -0.1737 -0.0802
  579SOL    HW1 1736   0.628   1.566   1.131  4.1375  2.7389 -0.7979
  579SOL    HW2 1737   0.466   1.590   1.174 -0.4690 -0.5921 -1.7759
  580SOL     OW 1738   1.452   2.599   2.564 -0.3207  0.1603 -0.4256
  580SOL    HW1 1739   1.394   2.596   2.476 -0.7860  0.2959 -0.7663
  580SOL    HW2 1740   1.511   2.684   2.566  0.2824  1.1746 -1.2181
  581SOL     OW 1741   0.639   0.549   2.250  0.3450 -0.1328  0.3510
  581SOL    HW1 1742   0.685   0.531   2.339 -2.3958  0.6821 -0.9663
  581SOL    HW2 1743   0.681   0.628   2.202 -1.0559 -2.8427  0.2397
  582SOL     OW 1744   0.504   0.633   0.618  0.4721  0.0279 -0.0240
  582SOL    HW1 1745   0.592   0.630   0.672 -1.5219 -1.5110  0.8032
  582SOL    HW2 1746   0.455   0.546   0.636  0.2404  0.6901  0.5301
  583SOL     OW 1747   0.791   1.577   1.889  0.0456  0.5204 -0.0426
  583SOL    HW1 1748   0.703   1.548   1.930 -0.3097  2.3651 -0.8837
  583SOL    HW2 1749   0.805   1.677   1.913 -2.2306 -1.1452  0.3830
  584SOL     OW 1750   2.323   2.797   0.386  0.1028  0.0817 -0.5092
  584SOL    HW1 1751   2.249   2.804   0.314 -0.7461 -0.8553  1.2916
  584SOL    HW2 1752   2.361   2.890   0.400 -1.8446  0.5351  0.4785
  585SOL     OW 1753   2.444   0.868   2.721  0.1103  0.2008 -0.3870
  585SOL    HW1 1754   2.362   0.927   2.728  2.4589  1.2921  1.1181
  585SOL    HW2 1755   2.498   0.867   2.804  2.1822 -0.3623 -3.6422
  586SOL     OW 1756   0.688   1.719   0.470  0.1500 -0.0250  0.1153
  586SOL    HW1 1757   0.622   1.648   0.500  0.2862  1.7621  0.4676
  586SOL    HW2 1758   0.773   1.728   0.530  0.7331 -0.1105 -1.1605
  587SOL     OW 1759   1.664   1.972   1.086 -0.0720 -0.2107 -0.0787
  587SOL    HW1 1760   1.750   2.012   1.108  0.8498 -2.1522 -2.8754
  587SOL    HW2 1761   1.597   1.980   1.162 -1.0431 -0.3337 -0.2594
  588SOL     OW 1762   0.561   0.402   1.053 -0.4648 -0.3135  0.9771
  588SOL    HW1 1763   0.635   0.448   1.112  2.3611  0.6695  1.7251
  588SOL    HW2 1764   0.613   0.356   0.976 -0.9775  0.1929 -3.0141
  589SOL     OW 1765   1.557   3.018   1.184  0.8628  0.1244  0.0973
  589SOL    HW1 1766   1.556   2.952   1.109  0.7504  4.0898 -0.2477
  589SOL    HW2 1767   1.655   3.043   1.205  0.0518 -0.4117 -2.1311
  590SOL     OW 1768   1.372   1.094   0.283 -0.6962 -0.4015 -0.4771
  590SOL    HW1 1769   1.435   1.012   0.268  2.6884  1.5068  1.0153
  590SOL    HW2 1770   1.415   1.178   0.238  1.0406 -0.7859 -2.9978
  591SOL     OW 1771   2.302   2.203   2.235  0.2105  0.0727  0.5254
  591SOL    HW1 1772   2.319   2.221   2.333  0.5861 -0.4872 -1.4513
  591SOL    HW2 1773   2.362   2.135   2.198 -0.7783  2.4244  1.0251
  592SOL     OW 1774   1.531   1.991   1.334  1.2257  0.2548 -0.0901
  592SOL    HW1 1775   1.616   1.953   1.368 -5.0579 -0.1320 -2.3602
  592SOL    HW2 1776   1.449   1.932   1.362 -1.5350  1.2249  0.9291
  593SOL     OW 1777   0.895   0.005   0.438  0.1755  0.1558  0.4022
  593SOL    HW1 1778   0.797   3.081   0.446  0.9534 -1.4255 -0.3591
  593SOL    HW2 1779   0.928   0.042   0.524 -1.5794  0.0391  0.3175
  594SOL     OW 1780   0.167   0.770   1.902  0.3539  0.1901 -0.4076
  594SOL    HW1 1781   0.093   0.803   1.965 -0.0094  1.1250  1.5598
  594SOL    HW2 1782   0.256   0.819   1.928  0.4153 -2.6050 -1.4819
  595SOL     OW 1783   3.042   2.782   0.723 -0.4785  0.2121  0.3789
  595SOL    HW1 1784   3.070   2.871   0.672  1.0450  0.6302  0.9023
  595SOL    HW2 1785   2.982   2.806   0.803 -0.0283  0.1969  0.4242
  596SOL     OW 1786   0.160   0.434   1.543  0.6332  0.1837 -0.0216
  596SOL    HW1 1787   0.229   0.465   1.474  1.6225 -1.9067 -0.4526
  596SOL    HW2 1788   0.130   0.338   1.513 -2.2198  1.1086 -0.9100
  597SOL     OW 1789   2.281   0.883   0.506  0.3162 -0.0428 -0.1717
  597SOL    HW1 1790   2.302   0.982   0.505  1.2505  2.2034 -0.4989
  597SOL    HW2 1791   2.191   0.857   0.461 -1.4602  0.4335 -0.5703
  598SOL     OW 1792   0.489   0.149   1.897  0.6171  0.0190  0.1312
  598SOL    HW1 1793   0.426   0.079   1.923  0.5270  3.0930 -0.3844
  598SOL    HW2 1794   0.440   0.239   1.883  0.2274 -0.3687  3.1544
  599SOL     OW 1795   2.578   1.575   0.085  0.3027  0.1737 -0.1489
  599SOL    HW1 1796   2.550   1.676   0.080 -2.7167  2.4004 -0.2367
  599SOL    HW2 1797   2.657   1.542   0.029  0.8587 -2.2843  1.4979
  600SOL     OW 1798   0.938   0.992   2.953  0.3394  0.3930 -0.5833
  600SOL    HW1 1799   0.877   1.060   2.912  1.5638 -1.8443 -1.5591
  600SOL    HW2 1800   0.928   0.991   3.057  2.3260 -0.1401  1.1274
  601SOL     OW 1801   1.197   1.173   2.822  0.6492 -0.3597 -0.0460
  601SOL    HW1 1802   1.193   1.252   2.753 -1.7330  2.2795 -0.8303
  601SOL    HW2 1803   1.138   1.200   2.903 -2.7154 -0.0084  1.6322
  602SOL     OW 1804   1.068   2.956   1.547 -0.0821 -0.2895 -0.2489
  602SOL    HW1 1805   1.108   2.926   1.639 -2.3573 -1.0312  0.0201
  602SOL    HW2 1806   1.119   3.031   1.511 -0.7726  0.0897  0.1418
  603SOL     OW 1807   0.941   2.914   2.416 -0.0448 -0.4534  0.0182
  603SOL    HW1 1808   0.864   2.854   2.392  1.7551  0.4901  1.1682
  603SOL    HW2 1809   1.022   2.855   2.439  0.1989  0.5530 -1.8712
  604SOL     OW 1810   2.856   0.070   2.055  0.3141  0.1211 -0.3521
  604SOL    HW1 1811   2.836   0.166   2.084  0.0764 -3.7335  0.2817
  604SOL    HW2 1812   2.871   0.010   2.135  2.7963  3.7375 -2.3865
  605SOL     OW 1813   2.512   2.500   1.389 -0.4196  0.7673  0.3239
  605SOL    HW1 1814   2.456   2.425   1.433  1.3244 -0.5040 -0.3248
  605SOL    HW2 1815   2.501   2.586   1.439 -2.2971  2.7868 -0.0867
  606SOL     OW 1816   2.848   1.788   2.748  0.1636  0.1590 -0.2450
  606SOL    HW1 1817   2.858   1.887   2.727  0.6904 -4.3359 -0.0806
  606SOL    HW2 1818   2.853   1.776   2.850  0.0468 -1.9637 -1.3875
  607SOL     OW 1819   0.984   0.090   0.676 -0.2981  0.0184  0.3693
  607SOL    HW1 1820   0.998   0.194   0.658  0.7952 -0.3639 -1.3800
  607SOL    HW2 1821   1.045   0.058   0.749 -0.5305 -1.2035  0.5841
  608SOL     OW 1822   1.674   1.514   2.307  0.3413  0.2160  0.1744
  608SOL    HW1 1823   1.615   1.453   2.360  1.9645 -3.1142 -1.9838
  608SOL    HW2 1824   1.766   1.471   2.305 -1.9718  2.1467 -1.2682
  609SOL     OW 1825   2.862   0.661   0.980  0.7256 -0.1894  0.3965
  609SOL    HW1 1826   2.902   0.646   1.072  2.0168  0.1364  0.6370
  609SOL    HW2 1827   2.784   0.723   0.995 -1.1532 -0.4088  1.6728
  610SOL     OW 1828   0.702   2.496   0.100 -0.0919 -0.3657 -0.0912
  610SOL    HW1 1829   0.764   2.565   0.142 -0.9319  2.5127  0.7600
  610SOL    HW2 1830   0.757   2.417   0.073 -2.2372  0.6264  1.5043
  611SOL     OW 1831   2.034   1.266   0.487  1.0912 -0.8909  0.0864
  611SOL    HW1 1832   2.077   1.284   0.395 -0.6224 -2.2501 -0.2584
  611SOL    HW2 1833   1.945   1.315   0.494 -1.0717  3.5235  0.1712
  612SOL     OW 1834   0.836   2.505   2.430 -0.2965  0.1939 -0.0951
  612SOL    HW1 1835   0.934   2.494   2.439  0.1150 -0.6026 -3.0877
  612SOL    HW2 1836   0.801   2.601   2.439 -2.3630 -0.3228  0.7414
  613SOL     OW 1837   1.290   1.779   0.278 -0.3422 -0.1965  0.0098
  613SOL    HW1 1838   1.355   1.702   0.299 -0.1375  1.8185  2.5767
  613SOL    HW2 1839   1.321   1.861   0.335  1.4388  1.5166  0.6225
  614SOL     OW 1840   2.593   2.185   1.774  0.2117  0.2718  0.5299
  614SOL    HW1 1841   2.619   2.167   1.679  1.1640 -1.5305  0.7370
  614SOL    HW2 1842   2.663   2.235   1.833  1.2308  1.6225 -0.4023
  615SOL     OW 1843   2.481   1.285   0.074  0.0700  1.2932 -0.5425
  615SOL    HW1 1844   2.538   1.360   0.064 -2.4091 -0.6614  0.7254
  615SOL    HW2 1845   2.435   1.260   3.090 -3.3489  1.8361  0.7691
  616SOL     OW 1846   1.553   0.042   0.868 -0.1877  0.5600 -0.0527
  616SOL    HW1 1847   1.575   0.112   0.940  3.3572  1.1208  0.9271
  616SOL    HW2 1848   1.517   3.057   0.912 -0.7200  1.2030  0.7569
  617SOL     OW 1849   0.776   0.932   2.675  0.2008 -0.2283  0.0133
  617SOL    HW1 1850   0.865   0.985   2.677  4.6407  1.7881  0.5745
  617SOL    HW2 1851   0.708   0.952   2.599  0.0888  0.8376 -1.8976
  618SOL     OW 1852   0.517   0.473   1.566  0.2513  0.4508 -0.0002
  618SOL    HW1 1853   0.481   0.528   1.652 -1.0462  1.3887  2.5955
  618SOL    HW2 1854   0.521   0.537   1.482  1.1579  2.1250 -0.9749
  619SOL     OW 1855   2.928   0.934   1.547 -0.3129 -0.4043 -0.0230
  619SOL    HW1 1856   2.939   0.885   1.457 -1.4132 -0.8157 -1.1475
  619SOL    HW2 1857   3.011   0.919   1.604  2.0274  1.8528 -2.8181
  620SOL     OW 1858   1.956   1.287   0.019 -0.6546  0.6374 -0.4619
  620SOL    HW1 1859   1.902   1.207   3.085  1.8502 -3.4139 -2.0009
  620SOL    HW2 1860   1.897   1.373   0.013 -1.0562 -0.8327 -0.8676
  621SOL     OW 1861   2.277   0.053   1.240  0.3169 -0.3323 -0.5083
  621SOL    HW1 1862   2.362   0.106   1.237 -2.6991 -1.8940 -1.1214
  621SOL    HW2 1863   2.205   0.102   1.288 -1.5467 -1.0127 -0.2936
  622SOL     OW 1864   1.314   0.659   2.108  0.1006  0.0112 -0.1265
  622SOL    HW1 1865   1.391   0.702   2.059  0.7126 -2.5343 -0.4711
  622SOL    HW2 1866   1.356   0.595   2.178  0.6595 -1.6105  0.8340
  623SOL     OW 1867   1.046   0.552   2.878 -0.0911 -0.4180 -0.4353
  623SOL    HW1 1868   0.947   0.542   2.904 -4.1717 -1.5129  0.7867
  623SOL    HW2 1869   1.075   0.650   2.857  0.2956 -0.7491 -2.2375
  624SOL     OW 1870   1.784   0.417   0.778 -0.0020 -0.2309  0.1847
  624SOL    HW1 1871   1.685   0.427   0.782  1.7935  1.1693  0.6377
  624SOL    HW2 1872   1.809   0.346   0.710 -2.9479 -3.0176 -1.9367
  625SOL     OW 1873   0.855   1.436   0.808 -0.2837 -0.2281 -0.1033
  625SOL    HW1 1874   0.948   1.467   0.825  1.6551 -2.7149 -0.4172
  625SOL    HW2 1875   0.839   1.419   0.705  0.4940  2.4568 -1.5405
  626SOL     OW 1876   1.644   1.047   2.717 -0.2906 -0.3529  0.3282
  626SOL    HW1 1877   1.667   1.148   2.716 -4.3147 -0.0125  0.3129
  626SOL    HW2 1878   1.554   1.027   2.762  0.7462 -0.4558 -1.1988
  627SOL     OW 1879   0.748   0.404   1.719 -0.5308 -0.4811 -0.3890
  627SOL    HW1 1880   0.753   0.311   1.757  0.5451  0.3869 -0.1965
  627SOL    HW2 1881   0.666   0.407   1.665 -0.6399 -1.0270  2.9615
  628SOL     OW 1882   2.225   0.489   2.465 -0.0554 -0.4484  0.2793
  628SOL    HW1 1883   2.164   0.532   2.536 -1.8098  2.2460  1.4384
  628SOL    HW2 1884   2.315   0.533   2.466  0.2650 -1.6568  1.3203
  629SOL     OW 1885   0.916   1.463   2.909  0.1435  0.2180 -0.2769
  629SOL    HW1 1886   0.995   1.444   2.970 -2.8987  0.5669  1.1301
  629SOL    HW2 1887   0.858   1.531   2.953  2.6719 -2.6911 -2.1827
  630SOL     OW 1888   1.054   0.347   2.214 -0.0261  0.0905  0.0094
  630SOL    HW1 1889   1.076   0.422   2.277 -1.4017 -3.2591  0.0513
  630SOL    HW2 1890   0.968   0.299   2.249 -0.8509 -0.0086  0.5149
  631SOL     OW 1891   2.582   1.251   0.979 -0.0548 -0.2778 -0.1873
  631SOL    HW1 1892   2.571   1.346   1.008  0.5345 -0.0013 -0.7011
  631SOL    HW2 1893   2.497   1.213   0.946  1.6936 -0.2492 -2.8096
  632SOL     OW 1894   2.478   1.462   0.761 -0.3905 -0.9268  0.0031
  632SOL    HW1 1895   2.574   1.453   0.730 -2.1089 -1.7310 -0.2895
  632SOL    HW2 1896   2.420   1.497   0.686 -0.8601  0.6589  0.8613
  633SOL     OW 1897   1.037   1.216   0.918  0.6517 -0.2108 -0.3080
  633SOL    HW1 1898   0.976   1.243   0.993  3.1290  0.1342  0.0770
  633SOL    HW2 1899   1.100   1.292   0.906 -1.2185  2.0940  0.0155
  634SOL     OW 1900   1.795   3.056   0.769 -0.2110 -0.4727  0.2951
  634SOL    HW1 1901   1.714   0.011   0.797  0.9973 -2.2232 -3.0296
  634SOL    HW2 1902   1.774   2.960   0.796  0.0599  2.1279 -0.1989
  635SOL     OW 1903   1.862   0.658   1.320 -0.4412 -0.2458 -0.1986
  635SOL    HW1 1904   1.955   0.693   1.291  1.1654 -2.9166 -1.1594
  635SOL    HW2 1905   1.853   0.677   1.421  0.2657 -0.5044  1.7046
  636SOL     OW 1906   1.408   0.731   0.700 -0.2418  0.5585 -0.3923
  636SOL    HW1 1907   1.307   0.751   0.676 -0.8800 -1.9197  0.5239
  636SOL    HW2 1908   1.466   0.814   0.692 -1.7983 -0.1196 -1.4122
  637SOL     OW 1909   1.558   2.205   0.012 -0.0692 -0.5538 -0.1639
  637SOL    HW1 1910   1.544   2.280   3.045  0.3297  0.6741  0.1633
  637SOL    HW2 1911   1.642   2.155   3.084  0.1779  0.5905  1.6273
  638SOL     OW 1912   1.057   2.743   2.884  0.0560 -0.0743  0.6215
  638SOL    HW1 1913   1.027   2.647   2.865 -0.3189 -2.2000  2.1080
  638SOL    HW2 1914   0.984   2.805   2.856  1.6892 -0.8475 -2.0133
  639SOL     OW 1915   1.281   1.869   1.455 -0.1370  0.1053  0.0486
  639SOL    HW1 1916   1.275   1.772   1.417  1.0187  0.7946  0.6649
  639SOL    HW2 1917   1.188   1.912   1.458 -3.2175  0.4809 -0.1536
  640SOL     OW 1918   0.701   3.008   0.168 -0.1446  0.5581 -0.0303
  640SOL    HW1 1919   0.603   3.008   0.138 -0.0046 -3.2146  1.8484
  640SOL    HW2 1920   0.728   3.097   0.209  3.2167  1.3619  0.3556
  641SOL     OW 1921   0.091   0.416   0.255 -0.6871 -0.2070  0.3004
  641SOL    HW1 1922   0.097   0.339   0.329  1.1099 -3.2259  2.8074
  641SOL    HW2 1923   0.109   0.512   0.297 -1.2502  3.4318 -1.9196
  642SOL     OW 1924   0.336   1.482   1.101  0.1007  0.0702 -0.3455
  642SOL    HW1 1925   0.268   1.548   1.059  0.1691  0.2675  0.5856
  642SOL    HW2 1926   0.293   1.401   1.143  0.0509 -0.9414  1.4346
  643SOL     OW 1927   0.496   1.828   2.441 -0.1872  0.2954 -0.2021
  643SOL    HW1 1928   0.525   1.924   2.465  0.4394  1.9710 -0.7657
  643SOL    HW2 1929   0.394   1.828   2.426  0.2627  1.1168  1.0115
  644SOL     OW 1930   1.662   2.504   0.293 -0.1252  0.1750 -0.0411
  644SOL    HW1 1931   1.726   2.423   0.289 -0.2011 -1.4828  0.0804
  644SOL    HW2 1932   1.609   2.503   0.379 -1.6415  1.1096  1.5393
  645SOL     OW 1933   1.880   2.195   1.670 -0.2349 -0.1964  0.0764
  645SOL    HW1 1934   1.789   2.224   1.710 -0.0372 -0.4011 -2.8332
  645SOL    HW2 1935   1.927   2.282   1.650 -1.3833  0.5695  0.4979
  646SOL     OW 1936   0.832   2.656   0.375  0.2849  0.5595  0.3842
  646SOL    HW1 1937   0.904   2.725   0.353 -1.4588  1.1221  0.6342
  646SOL    HW2 1938   0.741   2.706   0.383  1.7357  0.2987  0.3843
  647SOL     OW 1939   0.113   0.082   2.105 -0.1326 -0.2614 -0.0939
  647SOL    HW1 1940   0.084   0.179   2.111  2.4121 -1.0190  2.3643
  647SOL    HW2 1941   0.096   0.036   2.193  1.0366  0.5349  2.1145
  648SOL     OW 1942   2.805   1.188   0.833 -0.6776 -0.2566  0.1597
  648SOL    HW1 1943   2.795   1.091   0.798 -3.8382 -0.6399  0.1903
  648SOL    HW2 1944   2.729   1.217   0.898 -3.3647  1.1787  0.6373
  649SOL     OW 1945   1.979   2.726   2.632  0.5447 -0.6573 -0.3485
  649SOL    HW1 1946   1.904   2.705   2.567 -2.2291 -0.7516  1.3502
  649SOL    HW2 1947   1.994   2.826   2.648  0.1621  1.1319 -2.0110
  650SOL     OW 1948   2.381   1.549   1.766 -0.3449  0.0703 -0.1394
  650SOL    HW1 1949   2.325   1.476   1.735 -1.4211  1.0311  2.6574
  650SOL    HW2 1950   2.479   1.515   1.760 -1.3822 -0.0155 -0.6399
  651SOL     OW 1951   1.281   1.772   2.701 -0.4144 -0.0113 -0.7236
  651SOL    HW1 1952   1.187   1.772   2.745 -1.1111  0.4910 -1.8623
  651SOL    HW2 1953   1.359   1.779   2.769 -0.5065 -0.6194 -1.7594
  652SOL     OW 1954   0.628   2.843   2.798  0.1199 -0.2487  0.0178
  652SOL    HW1 1955   0.727   2.864   2.797 -0.8497  0.8572 -0.3416
  652SOL    HW2 1956   0.579   2.920   2.835 -0.3606 -0.8312 -0.8352
  653SOL     OW 1957   2.397   2.080   0.871 -0.1483  0.3091 -0.2276
  653SOL    HW1 1958   2.484   2.122   0.844 -1.0030 -2.1764  0.4313
  653SOL    HW2 1959   2.390   2.036   0.965  0.0645 -1.4138  0.2832
  654SOL     OW 1960   2.433   3.050   1.997  0.2884 -0.3629  0.9170
  654SOL    HW1 1961   2.433   0.050   2.002 -0.0375  2.1212  0.4979
  654SOL    HW2 1962   2.518   3.013   2.030 -4.9415  0.4247 -1.8192
  655SOL     OW 1963   2.783   2.168   1.295 -0.1734  0.0705  0.2313
  655SOL    HW1 1964   2.803   2.269   1.311  2.4858  1.0556 -1.8603
  655SOL    HW2 1965   2.705   2.164   1.227  0.8653 -1.2401 -1.0325
  656SOL     OW 1966   2.402   1.820   2.906  0.0142 -0.8042  0.4145
  656SOL    HW1 1967   2.493   1.868   2.893  1.5510  0.1218 -0.2877
  656SOL    HW2 1968   2.400   1.734   2.853  0.3639 -0.4076  0.0260
  657SOL     OW 1969   0.081   1.111   0.377  0.7036  0.2634 -0.4458
  657SOL    HW1 1970   3.083   1.143   0.358 -2.0924 -0.7651 -0.1551
  657SOL    HW2 1971   0.077   1.071   0.470 -1.7716 -2.5225  0.1873
  658SOL     OW 1972   1.434   1.416   1.522  0.0863  0.3296  0.6825
  658SOL    HW1 1973   1.413   1.502   1.469  0.3549 -0.6270  2.3246
  658SOL    HW2 1974   1.464   1.444   1.612 -0.6424 -2.5567  0.2048
  659SOL     OW 1975   0.734   0.106   1.119 -0.1519 -0.2595  0.0526
  659SOL    HW1 1976   0.830   0.136   1.093 -1.2001 -0.1931 -2.9732
  659SOL    HW2 1977   0.716   0.117   1.223 -1.5105  0.4587 -0.3573
  660SOL     OW 1978   2.382   0.823   1.033 -0.1503 -0.3975  0.0886
  660SOL    HW1 1979   2.385   0.841   0.936  1.0130  0.9849  0.5526
  660SOL    HW2 1980   2.322   0.743   1.040  3.1993  4.2444  0.8336
  661SOL     OW 1981   0.422   1.698   0.098 -0.3689  0.0750 -0.4842
  661SOL    HW1 1982   0.474   1.623   0.138 -1.4714 -1.0278 -1.1860
  661SOL    HW2 1983   0.479   1.785   0.083 -2.4514  0.3447  3.0247
  662SOL     OW 1984   2.503   0.843   1.979  0.5443  0.0655  0.1236
  662SOL    HW1 1985   2.591   0.844   2.015 -1.3294  0.3787  0.5842
  662SOL    HW2 1986   2.507   0.868   1.879  0.7805  1.2746  2.6712
  663SOL     OW 1987   1.999   1.317   1.125 -0.3903 -0.6967 -0.4301
  663SOL    HW1 1988   1.905   1.327   1.084  1.3104  1.4662 -2.0071
  663SOL    HW2 1989   2.076   1.297   1.061  1.2916 -0.2054  0.4032
  664SOL     OW 1990   0.256   3.098   1.266 -0.1462 -0.1551  0.3250
  664SOL    HW1 1991   0.329   3.046   1.215  1.3272 -1.1514 -1.3332
  664SOL    HW2 1992   0.168   3.067   1.226 -2.7885  0.4936 -2.8367
  665SOL     OW 1993   1.599   0.342   3.029  0.0837 -0.2774 -0.1705
  665SOL    HW1 1994   1.690   0.371   3.067  1.0089 -4.4133  1.9074
  665SOL    HW2 1995   1.568   0.405   2.954  1.0388  0.4521 -0.7605
  666SOL     OW 1996   0.641   0.211   2.120  0.7623  0.0884  0.1481
  666SOL    HW1 1997   0.610   0.249   2.032 -2.2652 -1.4541 -2.7902
  666SOL    HW2 1998   0.617   0.112   2.121 -0.6441  3.1615  2.5235
  667SOL     OW 1999   1.863   1.599   1.705  0.0975 -0.2779  0.8635
  667SOL    HW1 2000   1.935   1.670   1.684 -0.8989  0.5103 -1.4003
  667SOL    HW2 2001   1.865   1.572   1.803 -0.2333  0.1850  0.1168
  668SOL     OW 2002   0.108   1.467   2.285  0.3624 -0.1451 -0.1823
  668SOL    HW1 2003   0.156   1.386   2.320  0.6598  2.8009 -1.2655
  668SOL    HW2 2004   0.065   1.447   2.196  0.8176  1.3437  1.9462
  669SOL     OW 2005   2.357   2.786   0.080  0.6219  0.0858 -0.6506
  669SOL    HW1 2006   2.447   2.768   0.043 -0.8420  1.7058  0.8665
  669SOL    HW2 2007   2.349   2.887   0.101  0.8223  3.6303  2.5786
  670SOL     OW 2008   2.685   1.234   1.971 -0.1279 -0.3908  0.2962
  670SOL    HW1 2009   2.740   1.149   1.959  1.5187 -0.8299 -1.5058
  670SOL    HW2 2010   2.716   1.289   2.048 -0.1717  0.3980 -1.2085
  671SOL     OW 2011   2.550   1.859   0.515  0.4422 -0.1230 -0.9244
  671SOL    HW1 2012   2.601   1.806   0.444 -1.5295  1.0533 -0.1722
  671SOL    HW2 2013   2.596   1.949   0.528  0.9531  1.4718 -1.2361
  672SOL     OW 2014   1.443   1.217   2.089 -0.1095 -0.1097  0.0015
  672SOL    HW1 2015   1.450   1.181   1.991 -1.0926 -0.3872 -2.9722
  672SOL    HW2 2016   1.347   1.233   2.120 -2.0403 -0.3269 -2.7603
  673SOL     OW 2017   2.935   1.957   1.522  0.8022 -0.1281 -0.5097
  673SOL    HW1 2018   2.843   1.994   1.506  0.8652 -0.1081 -1.1583
  673SOL    HW2 2019   2.989   2.006   1.448  1.1675  1.9157 -2.2023
  674SOL     OW 2020   1.206   1.560   1.804 -0.1786 -0.1350  0.3193
  674SOL    HW1 2021   1.135   1.521   1.743 -0.2805  1.2692  0.2112
  674SOL    HW2 2022   1.223   1.656   1.778  0.2671 -1.6422  1.5301
  675SOL     OW 2023   0.129   0.842   1.024 -0.3254 -0.4214 -0.0107
  675SOL    HW1 2024   0.128   0.744   0.994  0.5716 -2.9393  1.3399
  675SOL    HW2 2025   0.222   0.876   1.050 -0.9037  3.1680  1.2786
  676SOL     OW 2026   3.051   1.126   0.970 -0.6081  0.1891  0.0782
  676SOL    HW1 2027   2.964   1.129   0.919  0.4375 -2.1595 -0.8583
  676SOL    HW2 2028   3.036   1.092   1.066  2.6119 -0.2298  1.5433
  677SOL     OW 2029   1.946   1.434   2.271  0.0041 -0.0373 -0.8078
  677SOL    HW1 2030   2.004   1.350   2.245 -1.3186 -4.4663 -1.5083
  677SOL    HW2 2031   2.003   1.516   2.296  0.1650  0.5265 -0.5109
  678SOL     OW 2032   2.813   1.688   1.075  0.0725  0.1961 -0.0588
  678SOL    HW1 2033   2.854   1.664   0.986  2.1278  1.7655  0.7599
  678SOL    HW2 2034   2.878   1.669   1.144 -3.2623 -0.2090 -3.0795
  679SOL     OW 2035   0.438   2.689   0.573  0.4982  0.6868  0.2629
  679SOL    HW1 2036   0.471   2.596   0.553 -0.7692  0.5979 -1.2332
  679SOL    HW2 2037   0.428   2.709   0.672  2.2536  0.1284 -0.1891
  680SOL     OW 2038   0.186   1.689   0.957 -0.0376 -0.1552  0.2670
  680SOL    HW1 2039   0.136   1.741   1.029 -0.9993 -2.4429  0.0960
  680SOL    HW2 2040   0.118   1.669   0.890  1.5851  5.1695  0.1420
  681SOL     OW 2041   0.973   0.184   1.027  0.0122 -0.1250  0.2540
  681SOL    HW1 2042   0.990   0.261   0.965  0.9155  0.5113 -1.4909
  681SOL    HW2 2043   1.056   0.125   1.037 -0.7317  1.4278  0.9333
  682SOL     OW 2044   1.651   2.931   1.582  0.0549 -0.2530  0.0195
  682SOL    HW1 2045   1.622   2.944   1.676  1.2217 -1.7411 -1.6715
  682SOL    HW2 2046   1.752   2.947   1.572  0.8502  1.1511  2.3155
  683SOL     OW 2047   2.360   1.380   1.207  0.4521  0.2354 -0.0669
  683SOL    HW1 2048   2.286   1.448   1.192 -1.4895  1.9450  1.4051
  683SOL    HW2 2049   2.453   1.423   1.213 -0.1158 -0.6305 -0.0828
  684SOL     OW 2050   3.060   1.559   1.702 -0.0782 -0.1962 -0.1358
  684SOL    HW1 2051   2.966   1.600   1.690 -0.6484 -2.1950  0.6217
  684SOL    HW2 2052   3.100   1.600   1.784  1.0540 -0.8492 -4.4123
  685SOL     OW 2053   1.709   1.698   0.309 -0.5039 -0.1230 -0.8040
  685SOL    HW1 2054   1.715   1.790   0.345 -1.5161 -2.4937  2.9282
  685SOL    HW2 2055   1.679   1.707   0.214  1.4668 -0.1938 -0.3464
  686SOL     OW 2056   3.017   0.796   1.321 -0.7048  0.6025  0.2230
  686SOL    HW1 2057   0.009   0.764   1.304  0.9418 -0.4621 -1.1646
  686SOL    HW2 2058   2.967   0.713   1.300  0.1857  0.4466 -1.6874
  687SOL     OW 2059   1.670   3.055   2.745  0.1013  0.0050  0.2915
  687SOL    HW1 2060   1.666   3.055   2.847  0.2853 -0.1900 -2.2062
  687SOL    HW2 2061   1.650   0.046   2.708  0.0474  2.9038 -0.5405
  688SOL     OW 2062   1.103   2.041   2.363  0.2772  0.0944 -0.2104
  688SOL    HW1 2063   1.179   2.107   2.373 -1.2505 -0.8875  1.1965
  688SOL    HW2 2064   1.138   1.943   2.371  0.2305 -2.0693  0.9971
  689SOL     OW 2065   2.230   1.328   1.694 -0.4385  0.2378  0.0572
  689SOL    HW1 2066   2.291   1.307   1.772  0.0431  1.3121  1.1345
  689SOL    HW2 2067   2.206   1.242   1.648  2.1756  2.8349 -0.2017
  690SOL     OW 2068   2.342   2.273   1.458 -0.6943  0.2094  0.7546
  690SOL    HW1 2069   2.425   2.210   1.467  1.8001 -1.7815  1.3303
  690SOL    HW2 2070   2.272   2.214   1.416  0.9545 -0.1548 -1.0750
  691SOL     OW 2071   0.469   1.578   0.573 -0.0098  0.1225 -0.1872
  691SOL    HW1 2072   0.440   1.633   0.654 -0.3032 -0.2000  0.2447
  691SOL    HW2 2073   0.389   1.543   0.520  1.0459  0.0193  0.9662
  692SOL     OW 2074   2.897   2.874   2.667  0.0487  0.1236 -0.0814
  692SOL    HW1 2075   2.818   2.863   2.607 -0.4207  0.1508  1.0265
  692SOL    HW2 2076   2.950   2.787   2.677  2.0228 -4.6835  1.2455
  693SOL     OW 2077   0.002   1.451   2.026 -0.1065 -0.1798  0.0522
  693SOL    HW1 2078   0.023   1.549   2.004  1.1209  1.2461  1.4990
  693SOL    HW2 2079   0.079   1.390   2.010 -0.0052  0.1013 -0.3392
  694SOL     OW 2080   2.406   0.199   2.082 -0.7287  0.1706 -0.9588
  694SOL    HW1 2081   2.450   0.270   2.026 -0.8180 -1.3051 -0.8137
  694SOL    HW2 2082   2.313   0.221   2.108  2.2167 -3.1966 -0.2332
  695SOL     OW 2083   0.813   0.749   2.172 -0.2134  0.3724 -0.4297
  695SOL    HW1 2084   0.909   0.731   2.202 -2.0363 -2.4620  0.2195
  695SOL    HW2 2085   0.794   0.845   2.137 -1.1539  1.9768 -0.8568
  696SOL     OW 2086   2.003   2.787   1.548  0.3919 -0.1151  0.2897
  696SOL    HW1 2087   1.936   2.746   1.615 -1.1857  0.5078 -0.6272
  696SOL    HW2 2088   1.975   2.881   1.530  3.5351  0.1983  1.7012
  697SOL     OW 2089   1.302   0.271   2.156  0.0803  0.6594  0.3610
  697SOL    HW1 2090   1.203   0.298   2.172  1.3678  0.7577  0.2036
  697SOL    HW2 2091   1.374   0.329   2.201  1.2657 -0.3563 -0.9724
  698SOL     OW 2092   2.337   1.737   2.506 -0.0671  0.2657 -0.4035
  698SOL    HW1 2093   2.434   1.748   2.541 -0.1380  0.5882 -0.7065
  698SOL    HW2 2094   2.320   1.785   2.416  1.3096  1.4085  0.2644
  699SOL     OW 2095   2.010   0.710   0.062  0.6059  0.1958  0.5627
  699SOL    HW1 2096   2.109   0.709   0.041  1.2942  2.1343 -1.9282
  699SOL    HW2 2097   1.991   0.752   0.154  1.2303  2.2644 -0.5625
  700SOL     OW 2098   1.176   0.002   0.895  0.4856  0.0917 -0.2836
  700SOL    HW1 2099   1.219   0.010   0.989  0.6669  0.1492  0.1055
  700SOL    HW2 2100   1.105   3.033   0.893  0.0335  1.6552  0.4166
  701SOL     OW 2101   0.043   0.736   0.428 -0.0117 -0.2532 -0.3078
  701SOL    HW1 2102   0.112   0.665   0.457  2.0858 -0.1249 -0.4935
  701SOL    HW2 2103   0.061   0.830   0.466  0.3808  2.3786  1.7671
  702SOL     OW 2104   1.522   0.099   1.527 -0.1340 -0.0530  0.2945
  702SOL    HW1 2105   1.427   0.077   1.499 -2.8916 -3.7329  0.9684
  702SOL    HW2 2106   1.574   0.014   1.540  0.0642 -0.6234 -0.1341
  703SOL     OW 2107   2.978   1.065   1.216 -0.1379 -0.1261 -0.0139
  703SOL    HW1 2108   2.886   1.110   1.205 -0.9689  1.4726  1.0941
  703SOL    HW2 2109   2.975   0.972   1.253  2.4121  0.6286 -1.6520
  704SOL     OW 2110   0.784   2.558   1.416 -0.1412  0.0535  0.1577
  704SOL    HW1 2111   0.819   2.471   1.386 -1.6205  1.6541 -2.4052
  704SOL    HW2 2112   0.719   2.599   1.350 -0.8995 -1.6191 -0.6986
  705SOL     OW 2113   0.218   1.710   2.995  0.0959  0.2609  0.0808
  705SOL    HW1 2114   0.228   1.665   2.901  0.0094  1.3321 -2.3229
  705SOL    HW2 2115   0.308   1.697   3.045  2.7063  1.4354  0.6677
  706SOL     OW 2116   3.094   3.089   0.044 -0.4334  0.0906  0.5926
  706SOL    HW1 2117   3.046   3.099   3.059 -1.3147  1.0395  2.1976
  706SOL    HW2 2118   3.026   3.090   0.118 -0.0112  0.4857 -0.9590
  707SOL     OW 2119   1.607   2.902   2.245  0.2328  0.2199 -0.0786
  707SOL    HW1 2120   1.653   2.988   2.205  0.3325  2.8382 -1.6600
  707SOL    HW2 2121   1.526   2.873   2.190 -2.3514  0.8067 -1.4188
  708SOL     OW 2122   0.173   2.999   1.684  0.6788 -0.3608 -0.9544
  708SOL    HW1 2123   0.234   3.032   1.613 -0.2680  0.2643  2.5173
  708SOL    HW2 2124   0.153   2.901   1.688  0.9309  0.5153  2.3999
  709SOL     OW 2125   0.073   0.863   1.663 -0.2769  0.1651 -0.0071
  709SOL    HW1 2126   0.121   0.833   1.581 -2.0365  0.9365  0.2202
  709SOL    HW2 2127   0.110   0.805   1.737  0.5430 -1.4644 -2.6034
  710SOL     OW 2128   0.568   0.886   0.799  0.1863 -0.1588 -1.3054
  710SOL    HW1 2129   0.500   0.956   0.781  0.8293  0.5762  1.9217
  710SOL    HW2 2130   0.527   0.801   0.845 -1.9674 -3.2967  2.0266
  711SOL     OW 2131   2.465   3.005   1.491  0.3460  0.1970 -0.3572
  711SOL    HW1 2132   2.411   2.917   1.482 -0.5369  0.7056  0.0095
  711SOL    HW2 2133   2.401   3.081   1.508  0.4661 -0.3670 -3.9942
  712SOL     OW 2134   0.259   2.414   2.277  0.0779  0.4672  0.4077
  712SOL    HW1 2135   0.164   2.443   2.261 -0.1508 -1.9258 -0.2786
  712SOL    HW2 2136   0.290   2.438   2.369 -0.2383 -1.5558 -3.3560
  713SOL     OW 2137   2.633   0.303   0.714  0.2846  0.1594 -0.6996
  713SOL    HW1 2138   2.567   0.300   0.635  0.2164 -1.1936 -0.4325
  713SOL    HW2 2139   2.723   0.331   0.681 -1.8834  0.4831  0.9789
  714SOL     OW 2140   1.720   1.916   2.554  0.2216  0.0443  0.0785
  714SOL    HW1 2141   1.694   1.850   2.481  0.4372  1.4207 -0.1451
  714SOL    HW2 2142   1.767   1.999   2.514 -1.8225 -0.8764 -0.5555
  715SOL     OW 2143   0.161   0.572   0.964 -0.0362  0.0185 -0.3451
  715SOL    HW1 2144   0.166   0.476   1.001 -0.6916 -2.8234  1.7799
  715SOL    HW2 2145   0.084   0.578   0.896  0.4312  0.8972  2.8869
  716SOL     OW 2146   0.822   0.652   1.512 -0.1386 -0.0940 -0.4448
  716SOL    HW1 2147   0.762   0.733   1.492  1.4537  3.0507 -1.9120
  716SOL    HW2 2148   0.763   0.568   1.518  0.6413 -0.6151 -1.0644
  717SOL     OW 2149   0.799   0.483   2.478 -0.0423  0.1369 -0.1379
  717SOL    HW1 2150   0.826   0.384   2.465 -0.0365 -0.8499 -1.0754
  717SOL    HW2 2151   0.734   0.493   2.555  1.6292  1.0192 -0.6268
  718SOL     OW 2152   1.035   0.343   0.596  0.5461 -0.7016  0.2753
  718SOL    HW1 2153   0.991   0.433   0.612  2.1940 -2.9005 -1.0650
  718SOL    HW2 2154   1.027   0.321   0.496 -4.1196  0.3866  1.8973
  719SOL     OW 2155   2.864   2.302   2.773 -0.4996  0.2420  0.1328
  719SOL    HW1 2156   2.880   2.330   2.679  0.2506 -0.7746  1.0280
  719SOL    HW2 2157   2.859   2.388   2.824  1.8801  0.2602 -6.4406
  720SOL     OW 2158   1.093   0.602   1.515 -0.4426  0.0739  0.1418
  720SOL    HW1 2159   1.133   0.664   1.582  1.4152  0.1421  0.1750
  720SOL    HW2 2160   0.992   0.609   1.513 -0.5753 -0.3539 -1.1949
  721SOL     OW 2161   2.821   2.856   0.871 -0.2756 -0.1141  0.6297
  721SOL    HW1 2162   2.773   2.780   0.920  0.7656  2.4613 -0.4609
  721SOL    HW2 2163   2.762   2.891   0.792 -1.4400  1.6510  1.6085
  722SOL     OW 2164   1.071   1.421   2.645  0.1036  0.2320 -0.4186
  722SOL    HW1 2165   1.005   1.479   2.696 -2.5242  1.1926  3.5182
  722SOL    HW2 2166   1.021   1.364   2.576  3.0291 -1.1401  1.0667
  723SOL     OW 2167   2.562   0.770   1.418  0.5386  0.2523  0.0748
  723SOL    HW1 2168   2.539   0.673   1.408  0.7587 -2.5819  0.7897
  723SOL    HW2 2169   2.486   0.828   1.374 -0.2982 -2.3524  1.4332
  724SOL     OW 2170   1.018   1.939   0.409 -0.0819  0.4474  0.1954
  724SOL    HW1 2171   0.964   1.895   0.480 -0.3810 -0.5576 -1.7588
  724SOL    HW2 2172   1.115   1.955   0.438  0.6529  2.8739 -0.8015
  725SOL     OW 2173   0.264   0.819   1.437 -0.1496  0.5707 -0.1496
  725SOL    HW1 2174   0.352   0.821   1.484 -0.5346  1.6045  1.1603
  725SOL    HW2 2175   0.253   0.739   1.371  2.0551 -1.5393 -1.2220
  726SOL     OW 2176   2.527   1.199   2.736 -0.3866  0.1717 -0.0705
  726SOL    HW1 2177   2.468   1.208   2.818  0.5816  1.0549 -0.8116
  726SOL    HW2 2178   2.477   1.234   2.649  0.1834  0.9574  0.4165
  727SOL     OW 2179   1.984   1.186   2.656  0.0470  0.4448  0.6568
  727SOL    HW1 2180   1.926   1.266   2.681  1.9513  0.6388 -0.0756
  727SOL    HW2 2181   1.944   1.123   2.584 -0.7358  1.5359 -0.4117
  728SOL     OW 2182   1.703   2.582   1.405 -0.2436  0.0625  0.2117
  728SOL    HW1 2183   1.645   2.666   1.406 -0.7407  0.0833  0.8179
  728SOL    HW2 2184   1.652   2.491   1.401 -2.0151  0.6440 -2.8956
  729SOL     OW 2185   1.830   0.742   2.278  0.3520  0.0100  0.3826
  729SOL    HW1 2186   1.913   0.754   2.216  1.3576 -0.2092  0.9157
  729SOL    HW2 2187   1.779   0.830   2.284  0.7877 -0.2272 -0.0726
  730SOL     OW 2188   1.149   0.578   0.971  0.2867  0.3136 -0.0741
  730SOL    HW1 2189   1.218   0.640   0.997 -1.3429 -4.1923 -2.6503
  730SOL    HW2 2190   1.154   0.503   1.045 -2.6176 -2.5101 -0.1380
  731SOL     OW 2191   0.579   0.593   2.956  0.6502 -0.1901  0.5857
  731SOL    HW1 2192   0.664   0.652   2.946  1.9870  0.3317  2.5216
  731SOL    HW2 2193   0.498   0.657   2.971 -3.2216  3.0976 -0.6215
  732SOL     OW 2194   0.421   0.859   0.508  0.6069 -0.8965  0.2912
  732SOL    HW1 2195   0.357   0.903   0.576 -0.1194  1.8229  0.7375
  732SOL    HW2 2196   0.465   0.772   0.552  1.8705 -0.2006  1.7377
  733SOL     OW 2197   1.509   1.572   2.063 -0.1727 -0.7595 -0.3290
  733SOL    HW1 2198   1.430   1.552   2.124  1.1192 -2.9489 -0.0001
  733SOL    HW2 2199   1.592   1.534   2.110  0.4550  1.5860  1.6109
  734SOL     OW 2200   0.126   2.508   3.023 -0.4326  0.1613 -0.0731
  734SOL    HW1 2201   0.079   2.596   3.054 -3.1813  1.8352  2.5974
  734SOL    HW2 2202   0.146   2.514   2.921 -3.2517  0.5350 -0.3022
  735SOL     OW 2203   2.334   0.388   0.770  0.1567  0.6190 -0.2640
  735SOL    HW1 2204   2.274   0.467   0.738 -1.0066 -0.2353 -1.5811
  735SOL    HW2 2205   2.409   0.377   0.704 -0.9134  0.0555 -1.5572
  736SOL     OW 2206   2.097   1.664   2.365  0.1991  0.2021  0.2200
  736SOL    HW1 2207   2.186   1.661   2.422  1.4582  1.4341  2.1353
  736SOL    HW2 2208   2.057   1.761   2.358 -0.7848  0.9096  1.9404
  737SOL     OW 2209   2.924   0.606   0.547 -0.1761  0.2248 -0.2634
  737SOL    HW1 2210   2.842   0.618   0.490 -1.0522 -0.4983  0.2905
  737SOL    HW2 2211   3.002   0.654   0.500 -1.0097  0.3512 -0.4001
  738SOL     OW 2212   0.739   2.142   1.568 -0.4647 -0.4858  0.1312
  738SOL    HW1 2213   0.809   2.144   1.642  1.0268  0.5396  1.6360
  738SOL    HW2 2214   0.656   2.192   1.597  1.9499 -1.5048 -3.7236
  739SOL     OW 2215   1.382   2.850   2.099  0.4509 -0.3793 -0.3225
  739SOL    HW1 2216   1.353   2.806   2.013  1.4232  0.4498 -0.1110
  739SOL    HW2 2217   1.328   2.932   2.120 -2.2724  0.4053 -0.4602
  740SOL     OW 2218   1.929   2.612   1.230  0.5140 -0.0204 -0.0997
  740SOL    HW1 2219   1.850   2.605   1.299  0.7285 -1.1297  2.3351
  740SOL    HW2 2220   2.015   2.626   1.279 -1.1141  1.1582 -0.3904
  741SOL     OW 2221   2.166   0.187   0.104  0.2940 -0.4048 -0.2252
  741SOL    HW1 2222   2.161   0.285   0.067  0.9548  3.7521 -1.1849
  741SOL    HW2 2223   2.178   0.184   0.205 -0.9670 -0.0844  3.4856
  742SOL     OW 2224   1.293   2.366   0.180 -0.3396 -0.4010  0.0490
  742SOL    HW1 2225   1.310   2.460   0.144 -0.9106  2.9065 -0.8723
  742SOL    HW2 2226   1.371   2.302   0.156  0.5014  0.2496 -1.2864
  743SOL     OW 2227   2.426   1.200   1.871 -0.1402 -0.5969  0.1339
  743SOL    HW1 2228   2.521   1.208   1.909 -1.1357  0.7508  1.1308
  743SOL    HW2 2229   2.370   1.167   1.947  1.8024  1.0439  0.0511
  744SOL     OW 2230   2.878   0.337   0.588 -0.0218  0.1296  0.0613
  744SOL    HW1 2231   2.865   0.304   0.496 -0.1959 -0.2558 -2.2932
  744SOL    HW2 2232   2.905   0.435   0.588 -2.5029 -1.0048  0.9449
  745SOL     OW 2233   2.378   1.171   1.370 -0.3280  0.4460  0.4463
  745SOL    HW1 2234   2.296   1.149   1.421  4.8433  0.6727  0.0582
  745SOL    HW2 2235   2.368   1.258   1.318  0.6123 -2.5630  0.4154
  746SOL     OW 2236   1.126   1.478   0.832  0.3162  0.3167 -0.6316
  746SOL    HW1 2237   1.173   1.555   0.880 -0.2535 -1.9585  0.0204
  746SOL    HW2 2238   1.135   1.476   0.731 -0.0435  0.5689  0.0450
  747SOL     OW 2239   1.072   1.583   1.187  0.4025 -0.0099 -0.1782
  747SOL    HW1 2240   1.002   1.655   1.201 -1.2598 -0.5781  2.9086
  747SOL    HW2 2241   1.041   1.497   1.236  0.3512 -2.8058  3.7450
  748SOL     OW 2242   0.480   2.955   0.023 -0.4637  0.3465 -0.0936
  748SOL    HW1 2243   0.489   2.991   3.031 -2.0497 -0.3232  2.1534
  748SOL    HW2 2244   0.501   2.853   0.029 -0.8137  1.6056  2.7258
  749SOL     OW 2245   0.064   0.970   2.895 -0.0381 -0.9120  0.5555
  749SOL    HW1 2246   0.014   1.035   2.948 -1.0050  2.8708  1.7164
  749SOL    HW2 2247   0.040   0.973   2.796 -1.8826 -1.7377  0.3344
  750SOL     OW 2248   1.631   0.863   1.750  0.0048 -0.4068  0.7516
  750SOL    HW1 2249   1.584   0.799   1.690 -1.4896  2.1794  2.0322
  750SOL    HW2 2250   1.627   0.838   1.848  3.1474 -0.1157 -2.2688
  751SOL     OW 2251   2.692   0.674   0.420 -0.0183 -0.2958 -0.5187
  751SOL    HW1 2252   2.722   0.628   0.335  0.9789 -2.2182 -0.5613
  751SOL    HW2 2253   2.591   0.671   0.416  1.6402  2.4617  0.6883
  752SOL     OW 2254   2.546   2.889   1.126  0.8144 -0.2033 -0.1647
  752SOL    HW1 2255   2.604   2.926   1.194 -2.8064 -0.1666 -0.7438
  752SOL    HW2 2256   2.449   2.914   1.143 -0.6346  2.6423  2.1432
  753SOL     OW 2257   0.835   2.299   1.352 -0.6938  0.4235  0.1968
  753SOL    HW1 2258   0.936   2.309   1.368  0.6563 -0.1758  1.0357
  753SOL    HW2 2259   0.803   2.227   1.422  1.3995 -0.8647  0.7641
  754SOL     OW 2260   2.937   2.768   2.122 -0.4481 -0.4902  0.1414
  754SOL    HW1 2261   2.951   2.772   2.226 -1.8453  0.4568 -0.2844
  754SOL    HW2 2262   3.001   2.838   2.077 -0.9997  2.3839 -3.0883
  755SOL     OW 2263   2.473   0.595   0.167  0.4801  0.5343 -0.0655
  755SOL    HW1 2264   2.577   0.605   0.158  3.4779  2.1167 -1.5802
  755SOL    HW2 2265   2.434   0.621   0.258 -1.7924  1.4943 -0.4678
  756SOL     OW 2266   2.131   2.474   3.061  0.2381 -0.2723  0.1029
  756SOL    HW1 2267   2.145   2.559   3.008  0.9114  3.0067 -1.1458
  756SOL    HW2 2268   2.185   2.471   0.051  1.8313 -1.7897  0.4212
  757SOL     OW 2269   2.495   0.292   0.494  0.1727 -0.4883  0.1855
  757SOL    HW1 2270   2.540   0.232   0.429 -2.0338 -0.5005  0.8280
  757SOL    HW2 2271   2.395   0.307   0.482 -0.0535  0.5887 -1.0918
  758SOL     OW 2272   2.045   0.883   1.697  0.8755  0.4636  0.1769
  758SOL    HW1 2273   1.965   0.831   1.662  0.7262  0.0405  0.8650
  758SOL    HW2 2274   2.123   0.820   1.716  1.1081 -1.4377  0.6327
  759SOL     OW 2275   2.648   0.580   1.168 -0.0480 -1.2607  0.3731
  759SOL    HW1 2276   2.626   0.679   1.152  0.2594 -3.1319 -2.4339
  759SOL    HW2 2277   2.580   0.521   1.118 -1.1625 -1.2289  0.1343
  760SOL     OW 2278   0.173   1.274   1.179 -0.2696 -0.5063  0.3910
  760SOL    HW1 2279   0.145   1.196   1.236  1.9136  1.8739  1.0663
  760SOL    HW2 2280   0.097   1.310   1.123 -1.8934  0.8776  0.1936
  761SOL     OW 2281   0.921   0.727   0.279  0.2854  0.6125  0.6602
  761SOL    HW1 2282   0.861   0.807   0.255  0.8259  1.4004  0.5062
  761SOL    HW2 2283   1.013   0.743   0.240  1.9356 -1.2108  0.4815
  762SOL     OW 2284   0.824   1.994   1.287 -0.7078 -0.3386  0.1175
  762SOL    HW1 2285   0.736   2.041   1.261 -0.9518  0.0065 -0.0343
  762SOL    HW2 2286   0.827   1.898   1.264  1.4840  0.9475  3.2056
  763SOL     OW 2287   1.111   0.643   1.249 -0.2567  0.5187  0.1827
  763SOL    HW1 2288   1.071   0.651   1.343  0.8170 -1.5106  2.0397
  763SOL    HW2 2289   1.139   0.548   1.229  0.6147  0.9768  1.6681
  764SOL     OW 2290   0.441   2.384   3.044 -0.4071  0.2283  0.1066
  764SOL    HW1 2291   0.403   2.291   3.062  2.1239 -0.4730 -1.2666
  764SOL    HW2 2292   0.367   2.449   3.044  0.7994 -1.7081 -0.4394
  765SOL     OW 2293   0.564   2.731   1.760  0.4952  0.0563  0.2023
  765SOL    HW1 2294   0.543   2.761   1.858 -0.4363 -0.4902 -2.3627
  765SOL    HW2 2295   0.531   2.804   1.694  2.0208 -2.0335  1.2854
  766SOL     OW 2296   2.553   1.717   2.217  0.2002  0.1732 -0.0719
  766SOL    HW1 2297   2.477   1.783   2.206 -2.0279 -0.2750  1.0659
  766SOL    HW2 2298   2.527   1.647   2.288  0.9152  0.5911 -0.0749
  767SOL     OW 2299   1.487   1.139   2.345  0.1879 -0.5138  0.2395
  767SOL    HW1 2300   1.505   1.220   2.406 -1.3715  0.8941  1.3345
  767SOL    HW2 2301   1.472   1.171   2.249  0.3949 -2.4474  0.9642
  768SOL     OW 2302   1.766   1.979   0.370  0.2756 -0.2880  0.6161
  768SOL    HW1 2303   1.764   1.946   0.465 -0.0990  2.3801 -0.2607
  768SOL    HW2 2304   1.862   1.994   0.341 -2.2313  0.7713 -0.5155
  769SOL     OW 2305   0.514   1.360   0.951 -0.1488 -1.1902  0.3552
  769SOL    HW1 2306   0.447   1.415   1.008 -0.4811 -1.6277  1.7302
  769SOL    HW2 2307   0.607   1.403   0.964 -1.4632 -1.1992  0.1603
  770SOL     OW 2308   1.325   0.931   2.460  0.2158 -0.1009 -0.3413
  770SOL    HW1 2309   1.374   1.012   2.414  1.7849  4.5864 -1.3459
  770SOL    HW2 2310   1.391   0.855   2.470  2.9497  3.5053 -0.9245
  771SOL     OW 2311   2.873   2.999   2.299  0.3483 -0.0651  0.3884
  771SOL    HW1 2312   2.790   3.044   2.337 -0.6554  0.5520  0.5848
  771SOL    HW2 2313   2.872   2.899   2.324 -0.3123 -2.2410 -0.0149
  772SOL     OW 2314   2.289   1.864   2.257  0.6904  0.5039 -0.4004
  772SOL    HW1 2315   2.199   1.907   2.275  0.7328  1.3410 -1.5280
  772SOL    HW2 2316   2.344   1.918   2.194 -3.2670 -0.2268  2.8336
  773SOL     OW 2317   0.397   1.320   1.518 -0.2937  0.0958 -0.4462
  773SOL    HW1 2318   0.313   1.316   1.463  1.0397 -1.8705  0.0749
  773SOL    HW2 2319   0.462   1.246   1.482  2.6845  0.0448 -1.3846
  774SOL     OW 2320   1.332   0.762   2.924  0.4502 -0.8320 -0.1096
  774SOL    HW1 2321   1.244   0.785   2.878  0.4613 -0.2356  1.3526
  774SOL    HW2 2322   1.321   0.695   2.997  2.0941 -2.0736 -2.5477
  775SOL     OW 2323   1.580   2.587   0.051 -0.5546 -0.6102  0.2109
  775SOL    HW1 2324   1.622   2.545   0.131  0.9802  1.6764 -1.7064
  775SOL    HW2 2325   1.588   2.527   3.071 -2.8808 -0.8029 -0.8247
  776SOL     OW 2326   0.102   1.148   1.688 -0.6954 -0.0596 -0.2859
  776SOL    HW1 2327   0.016   1.185   1.725  0.2446  0.4397 -1.9500
  776SOL    HW2 2328   0.088   1.061   1.641  0.9470  0.7034  0.7104
  777SOL     OW 2329   2.461   2.021   2.124 -0.0691 -0.2696 -0.2035
  777SOL    HW1 2330   2.556   2.062   2.119 -1.2405  0.2634  0.2248
  777SOL    HW2 2331   2.435   1.997   2.027  2.4563  2.2344  0.6241
  778SOL     OW 2332   1.676   0.970   2.275 -0.3813 -0.1160  0.4437
  778SOL    HW1 2333   1.608   1.039   2.300 -1.1988  0.4773 -0.7217
  778SOL    HW2 2334   1.738   1.010   2.199  1.7627  1.1088  0.4176
  779SOL     OW 2335   2.857   0.970   0.115  0.2665 -0.5139 -0.0302
  779SOL    HW1 2336   2.912   0.886   0.135 -2.4922  1.5895  1.7719
  779SOL    HW2 2337   2.764   0.944   0.088  0.3980  0.3688 -0.1272
  780SOL     OW 2338   2.279   3.054   2.837 -0.4056 -0.2311  0.4146
  780SOL    HW1 2339   2.214   3.068   2.914  0.8525  0.0743 -0.5732
  780SOL    HW2 2340   2.314   0.042   2.798  0.4872  3.5412 -1.2901
  781SOL     OW 2341   3.062   1.505   1.312  0.2959 -0.2041 -0.3033
  781SOL    HW1 2342   0.012   1.509   1.227 -0.0313  0.2573 -1.0096
  781SOL    HW2 2343   0.012   1.452   1.384 -1.4901 -0.9425  0.7737
  782SOL     OW 2344   2.632   1.993   2.876  0.4533  0.2459 -0.0423
  782SOL    HW1 2345   2.676   2.046   2.953 -0.8129  3.0251  1.1882
  782SOL    HW2 2346   2.685   2.003   2.793 -0.3510  0.9792  0.8865
  783SOL     OW 2347   0.736   1.458   1.057  0.1815  0.1140 -0.2375
  783SOL    HW1 2348   0.786   1.380   1.102 -1.4080  1.0701 -1.1380
  783SOL    HW2 2349   0.778   1.480   0.968 -1.5771 -0.7493  0.0501
  784SOL     OW 2350   2.592   0.929   0.047  0.1475 -1.1618  0.1624
  784SOL    HW1 2351   2.500   0.914   0.005 -1.3461  0.9509 -1.7691
  784SOL    HW2 2352   2.579   0.936   0.149 -1.0361  0.2970  1.3467
  785SOL     OW 2353   2.159   2.422   0.803  0.7010  0.1087  0.4285
  785SOL    HW1 2354   2.068   2.438   0.754  0.5285 -0.3981 -1.4734
  785SOL    HW2 2355   2.236   2.405   0.736  2.5121 -2.1086 -2.1136
  786SOL     OW 2356   0.451   2.168   2.659 -0.1151  0.3706  0.1496
  786SOL    HW1 2357   0.527   2.137   2.600  0.0804 -0.5234 -3.1573
  786SOL    HW2 2358   0.387   2.093   2.692 -0.8837 -0.5061  0.7679
  787SOL     OW 2359   1.402   0.475   1.382 -0.6074 -0.6551 -0.2529
  787SOL    HW1 2360   1.350   0.541   1.440 -0.4702  2.2631  0.5681
  787SOL    HW2 2361   1.475   0.525   1.336 -0.6625 -0.6393  3.2679
  788SOL     OW 2362   0.450   0.849   0.241  0.2765 -0.2089  0.4048
  788SOL    HW1 2363   0.437   0.855   0.343 -1.5165 -0.1887  1.6220
  788SOL    HW2 2364   0.383   0.909   0.197 -0.9567 -0.2453  0.4802
  789SOL     OW 2365   0.006   2.065   1.347  0.4883 -0.2231 -0.2516
  789SOL    HW1 2366   0.096   2.016   1.353  0.4627  1.0451  0.3318
  789SOL    HW2 2367   3.076   2.076   1.251 -1.0214  0.0440 -2.0506
  790SOL     OW 2368   1.495   0.423   1.974  0.1744 -0.3191  0.0834
  790SOL    HW1 2369   1.497   0.399   2.075 -1.3740  1.2117 -0.5695
  790SOL    HW2 2370   1.396   0.426   1.940 -3.0409 -0.1234 -2.4070
  791SOL     OW 2371   1.204   0.726   0.239 -0.2071 -0.4404  0.6251
  791SOL    HW1 2372   1.243   0.683   0.160 -3.4587  0.7870  2.0051
  791SOL    HW2 2373   1.273   0.738   0.313 -0.5066 -2.2625  1.8287
  792SOL     OW 2374   1.354   3.093   1.806  0.4517  0.2011  0.3421
  792SOL    HW1 2375   1.272   3.038   1.800  3.1367  1.5772 -1.0073
  792SOL    HW2 2376   1.435   3.034   1.830 -0.0537 -0.0634 -2.5887
  793SOL     OW 2377   0.763   0.002   0.846 -0.0359 -0.1472 -0.1170
  793SOL    HW1 2378   0.821   3.099   0.762  0.5740 -0.6742 -2.4335
  793SOL    HW2 2379   0.780   0.090   0.900  1.4675  1.9721 -1.3147
  794SOL     OW 2380   0.446   1.272   2.151 -0.0984  0.2764  0.1576
  794SOL    HW1 2381   0.459   1.184   2.101 -1.2843  1.3395 -0.4962
  794SOL    HW2 2382   0.506   1.277   2.236 -0.0853 -0.5849  0.2942
  795SOL     OW 2383   2.975   1.658   2.312 -0.1567  0.0391 -0.4224
  795SOL    HW1 2384   2.894   1.635   2.255  0.5442  0.5035 -3.2458
  795SOL    HW2 2385   3.038   1.579   2.299  2.4944  0.1738  1.5717
  796SOL     OW 2386   1.843   1.104   2.098  0.1466 -0.0995  0.4097
  796SOL    HW1 2387   1.896   1.076   2.016  2.1369  1.4190 -1.0709
  796SOL    HW2 2388   1.902   1.156   2.156 -0.8905  0.3090 -3.5965
  797SOL     OW 2389   3.048   3.092   2.649 -0.3171 -0.5089 -0.4550
  797SOL    HW1 2390   0.045   3.064   2.649  1.5794 -2.8479 -3.1652
  797SOL    HW2 2391   2.989   3.006   2.644 -0.4221  0.4565 -1.5460
  798SOL     OW 2392   0.032   2.094   2.157  0.8983  0.0166 -0.3864
  798SOL    HW1 2393   0.039   2.104   2.057 -0.5939 -2.7583  2.5795
  798SOL    HW2 2394   0.123   2.119   2.197 -1.0503 -1.5232 -1.7684
  799SOL     OW 2395   2.779   2.199   0.025  0.4477  0.5592 -0.5945
  799SOL    HW1 2396   2.872   2.240   0.041  2.2646  0.5076  0.5441
  799SOL    HW2 2397   2.721   2.265   3.073  0.6309 -0.3661 -0.5934
  800SOL     OW 2398   1.372   1.633   0.669  0.2950  0.0892  0.3710
  800SOL    HW1 2399   1.322   1.716   0.686  2.3611 -1.8714  0.6492
  800SOL    HW2 2400   1.455   1.629   0.722 -3.1092  1.0262 -2.7103
  801SOL     OW 2401   2.155   0.596   0.686  0.1927  0.5411  0.0624
  801SOL    HW1 2402   2.127   0.611   0.590 -2.3581  1.6553  4.0912
  801SOL    HW2 2403   2.076   0.614   0.745 -0.2191  0.9624  0.5207
  802SOL     OW 2404   2.525   1.566   0.379 -0.1393  0.0720 -0.1562
  802SOL    HW1 2405   2.504   1.576   0.281 -1.6109  1.3651  3.8340
  802SOL    HW2 2406   2.616   1.596   0.406 -0.7639 -1.4254  1.9257
  803SOL     OW 2407   1.452   1.828   2.951 -0.1209  0.0868  0.4022
  803SOL    HW1 2408   1.527   1.846   2.886  2.3277 -2.1709 -3.9470
  803SOL    HW2 2409   1.411   1.912   2.992 -1.1013  0.0346  0.6427
  804SOL     OW 2410   2.007   1.978   0.272  0.5952 -0.2823  0.1488
  804SOL    HW1 2411   2.092   1.928   0.297 -3.8591  2.1894  0.9156
  804SOL    HW2 2412   2.003   1.997   0.174  0.0433 -1.6578  1.7681
  805SOL     OW 2413   2.335   1.605   3.074  0.0625 -0.1442 -0.0925
  805SOL    HW1 2414   2.374   1.686   3.027 -0.3964 -3.3440 -1.9142
  805SOL    HW2 2415   2.413   1.554   0.018  1.0443  0.6147 -0.0098
  806SOL     OW 2416   0.732   0.385   0.525  0.1165  0.0724  0.4887
  806SOL    HW1 2417   0.718   0.435   0.438 -2.3599  0.3172  0.2676
  806SOL    HW2 2418   0.743   0.446   0.601  1.0313  1.3833 -0.2930
  807SOL     OW 2419   2.197   1.387   2.663  0.5151  0.9588 -0.3797
  807SOL    HW1 2420   2.158   1.437   2.742  1.6305 -0.2798  3.7029
  807SOL    HW2 2421   2.133   1.316   2.636  1.1480 -2.3425  1.8537
  808SOL     OW 2422   0.189   1.539   0.462 -0.7929  0.1059 -0.7062
  808SOL    HW1 2423   0.226   1.445   0.425 -0.3859  0.2609 -1.9026
  808SOL    HW2 2424   0.096   1.532   0.511 -2.8767  1.3932 -0.7894
  809SOL     OW 2425   2.461   0.850   2.356 -0.7692  0.2460 -0.2244
  809SOL    HW1 2426   2.462   0.758   2.404 -3.5176 -3.1291  0.2576
  809SOL    HW2 2427   2.529   0.914   2.399 -2.2221  0.7937 -0.3996
  810SOL     OW 2428   1.066   1.284   3.088  0.6102 -0.2918 -0.0233
  810SOL    HW1 2429   1.164   1.287   0.005 -0.9505 -1.0290 -2.8426
  810SOL    HW2 2430   1.029   1.195   0.020  0.6599 -2.2044 -0.1127
  811SOL     OW 2431   1.401   2.628   0.824 -0.6587  0.6079  0.2182
  811SOL    HW1 2432   1.345   2.565   0.771  2.5967  0.5719  4.5654
  811SOL    HW2 2433   1.469   2.568   0.876 -0.4435 -0.3553  0.9557
  812SOL     OW 2434   0.386   2.584   1.636 -0.1780 -0.2000  0.0689
  812SOL    HW1 2435   0.424   2.530   1.562 -2.6035  1.3555 -0.3538
  812SOL    HW2 2436   0.460   2.620   1.697  1.1378  2.5059  0.9920
  813SOL     OW 2437   1.030   0.281   1.952  0.0538  0.1044 -0.1840
  813SOL    HW1 2438   0.995   0.182   1.946 -1.1326 -2.8331 -3.4563
  813SOL    HW2 2439   1.030   0.312   2.049  0.3004 -0.6768 -1.0775
  814SOL     OW 2440   1.346   2.923   2.611 -0.3825 -0.0536  0.4255
  814SOL    HW1 2441   1.421   2.862   2.633 -2.4889  2.0146  0.2009
  814SOL    HW2 2442   1.373   2.980   2.530 -0.1148 -0.3351  1.0359
  815SOL     OW 2443   0.388   0.398   2.011  0.2184 -0.0989 -0.4738
  815SOL    HW1 2444   0.340   0.429   1.925 -1.7281  0.8994 -0.1547
  815SOL    HW2 2445   0.474   0.453   2.024  0.1438  2.0177 -0.6549
  816SOL     OW 2446   2.263   0.448   2.795 -0.0706  0.2027 -0.1563
  816SOL    HW1 2447   2.355   0.486   2.812 -1.8876 -1.9693  0.8194
  816SOL    HW2 2448   2.234   0.396   2.881 -0.9299  0.4140  1.4070
  817SOL     OW 2449   2.000   0.180   2.684 -0.0519  0.3763 -0.7159
  817SOL    HW1 2450   1.931   0.228   2.632  1.5939 -1.3718 -1.8109
  817SOL    HW2 2451   2.022   0.230   2.771  1.4511  2.1853  0.3367
  818SOL     OW 2452   1.984   0.024   0.276  0.2867 -0.3302 -0.2928
  818SOL    HW1 2453   1.907   0.069   0.226  1.5103 -1.1703 -1.2588
  818SOL    HW2 2454   1.992   3.025   0.260 -0.4553  0.1819 -0.7916
  819SOL     OW 2455   2.286   2.014   3.067 -0.8570 -0.2703 -0.2968
  819SOL    HW1 2456   2.326   1.944   3.003  2.4147 -0.6233  0.8886
  819SOL    HW2 2457   2.294   2.110   3.036 -0.1749 -0.7706  0.1525
  820SOL     OW 2458   0.261   1.805   0.463 -0.4248 -0.6411 -0.2503
  820SOL    HW1 2459   0.358   1.823   0.442 -1.8886 -0.7873  0.0691
  820SOL    HW2 2460   0.237   1.707   0.444  2.9082 -0.1414 -0.0120
  821SOL     OW 2461   0.034   2.712   1.233 -0.3310  0.1084  0.1233
  821SOL    HW1 2462   0.117   2.740   1.292  2.8732 -0.1339  0.0596
  821SOL    HW2 2463   3.098   2.628   1.279 -1.4683 -1.4660  0.3472
  822SOL     OW 2464   2.634   2.640   2.753 -0.0985  0.0081 -0.2927
  822SOL    HW1 2465   2.570   2.566   2.721  2.4999  0.0742  0.7561
  822SOL    HW2 2466   2.649   2.719   2.691  2.6886  2.4243 -0.4551
  823SOL     OW 2467   1.584   0.217   2.676 -0.6176 -0.5851 -0.1059
  823SOL    HW1 2468   1.575   0.263   2.765 -1.9725 -0.2060 -1.8033
  823SOL    HW2 2469   1.499   0.213   2.622 -0.3796 -0.0569  1.0023
  824SOL     OW 2470   2.879   1.704   1.434  0.2443 -0.0956  0.0343
  824SOL    HW1 2471   2.927   1.795   1.439  1.4976  1.8796 -0.5361
  824SOL    HW2 2472   2.939   1.627   1.399  1.3548 -2.1890 -1.3332
  825SOL     OW 2473   2.621   1.764   2.543  0.0409  0.0585  0.1989
  825SOL    HW1 2474   2.686   1.734   2.618  0.5307  1.6212 -1.7094
  825SOL    HW2 2475   2.648   1.857   2.505 -1.8319 -0.5333  1.2220
  826SOL     OW 2476   2.363   1.087   2.197 -0.3058 -0.3123  0.3195
  826SOL    HW1 2477   2.426   1.010   2.191 -1.2311  1.6519  1.2538
  826SOL    HW2 2478   2.402   1.178   2.224  2.6012 -1.8907  2.3154
  827SOL     OW 2479   2.243   2.463   1.599 -0.6223 -0.3012 -0.2404
  827SOL    HW1 2480   2.313   2.458   1.675  1.1494  0.8138 -0.4589
  827SOL    HW2 2481   2.262   2.386   1.536 -1.6130  1.5806 -0.7450
  828SOL     OW 2482   2.660   2.754   1.476 -0.1024  0.1237  0.2960
  828SOL    HW1 2483   2.731   2.775   1.401  2.1158  0.8753 -0.5431
  828SOL    HW2 2484   2.564   2.773   1.442 -2.0429  0.9295 -0.4825
  829SOL     OW 2485   1.487   2.182   2.243 -0.0948 -0.4704  0.6090
  829SOL    HW1 2486   1.564   2.184   2.309 -2.8332 -0.2797 -1.8117
  829SOL    HW2 2487   1.441   2.092   2.243 -2.6275  0.9919  2.1212
  830SOL     OW 2488   1.329   0.352   0.620 -0.3243 -0.6029  0.4695
  830SOL    HW1 2489   1.243   0.376   0.574  1.8920 -0.6016 -0.6693
  830SOL    HW2 2490   1.348   0.253   0.635 -0.5020 -0.3561  0.1580
  831SOL     OW 2491   2.484   1.283   0.337  0.0503  0.0511  0.4151
  831SOL    HW1 2492   2.473   1.303   0.237  2.8737  0.5406 -2.1611
  831SOL    HW2 2493   2.530   1.364   0.386  1.4982  0.3927  0.5975
  832SOL     OW 2494   1.510   2.095   1.875  0.4328  0.5590  0.6043
  832SOL    HW1 2495   1.582   2.039   1.913 -0.4424  2.8683  1.0371
  832SOL    HW2 2496   1.548   2.189   1.871  0.8041 -2.6308 -0.7544
  833SOL     OW 2497   2.856   2.733   2.379  0.0023 -0.6613  0.2294
  833SOL    HW1 2498   2.905   2.657   2.425 -1.5959 -0.0558  0.4676
  833SOL    HW2 2499   2.762   2.695   2.352 -0.0373 -0.5517 -2.5108
  834SOL     OW 2500   1.028   0.963   1.400  0.1244  0.1361 -0.0982
  834SOL    HW1 2501   0.943   1.012   1.416 -2.2037  1.3579 -2.1832
  834SOL    HW2 2502   1.029   0.924   1.305 -0.1283 -0.4800 -2.7260
  835SOL     OW 2503   2.883   0.861   2.508  0.4226  0.0838 -0.0426
  835SOL    HW1 2504   2.931   0.834   2.419 -2.1780 -2.4060 -2.1750
  835SOL    HW2 2505   2.801   0.919   2.492  2.4963  0.6578  1.5720
  836SOL     OW 2506   1.040   2.117   1.132 -0.0761  0.2240  0.5915
  836SOL    HW1 2507   1.067   2.163   1.217 -2.8634 -2.5104  1.8561
  836SOL    HW2 2508   0.971   2.046   1.158 -1.3417  1.2163 -1.4404
  837SOL     OW 2509   2.080   0.938   1.031  0.9007  0.4284 -0.3516
  837SOL    HW1 2510   2.159   1.001   1.034 -4.0787 -6.5271  3.0788
  837SOL    HW2 2511   2.056   0.930   1.131  1.2671 -1.0577  1.5411
  838SOL     OW 2512   1.162   1.782   2.387  0.1765  0.5182  0.2280
  838SOL    HW1 2513   1.109   1.762   2.299  1.3150  0.0930 -4.3965
  838SOL    HW2 2514   1.130   1.742   2.471 -1.6380  3.3291 -1.6432
  839SOL     OW 2515   0.603   2.343   2.815 -1.1334  0.0171  0.4284
  839SOL    HW1 2516   0.533   2.283   2.770 -0.4525 -1.0497 -1.0817
  839SOL    HW2 2517   0.573   2.346   2.911  3.2808 -2.1164  0.5925
  840SOL     OW 2518   0.509   2.695   0.043 -0.0046 -0.0259 -0.3416
  840SOL    HW1 2519   0.488   2.680   3.044 -2.8243  2.8327 -3.6512
  840SOL    HW2 2520   0.569   2.615   0.078  1.7541 -2.4140  2.2829
  841SOL     OW 2521   1.849   2.314   0.290 -0.4426  0.1012 -0.5848
  841SOL    HW1 2522   1.877   2.243   0.221  2.0437  1.6835 -2.2752
  841SOL    HW2 2523   1.927   2.387   0.298  2.0290  1.3959  0.6984
  842SOL     OW 2524   1.097   0.811   2.805 -0.0163 -0.1426  0.0911
  842SOL    HW1 2525   1.028   0.852   2.868  0.0825  2.0237 -1.6764
  842SOL    HW2 2526   1.085   0.848   2.711 -1.6699  1.4982  0.6038
  843SOL     OW 2527   1.299   2.841   0.685  0.3223  0.2086  0.2945
  843SOL    HW1 2528   1.274   2.915   0.749 -3.9882 -1.2160  0.5837
  843SOL    HW2 2529   1.362   2.776   0.728 -0.4563 -1.0278  1.6892
  844SOL     OW 2530   2.367   2.854   2.639 -0.3605  0.2570 -0.0735
  844SOL    HW1 2531   2.341   2.926   2.708  0.3862  2.7751  1.3876
  844SOL    HW2 2532   2.326   2.760   2.659  0.6491 -4.3135 -0.3804
  845SOL     OW 2533   2.776   2.446   1.326  0.2197  0.0399 -0.0115
  845SOL    HW1 2534   2.684   2.453   1.368  0.3827  0.1806  1.0304
  845SOL    HW2 2535   2.772   2.493   1.238  2.8561 -1.6879  2.1218
  846SOL     OW 2536   2.922   1.926   2.302  0.0450  0.1951 -0.0270
  846SOL    HW1 2537   2.988   1.988   2.260 -0.0969  1.3994 -0.9544
  846SOL    HW2 2538   2.956   1.833   2.297  0.2228  3.6855  1.5766
  847SOL     OW 2539   1.454   0.379   1.654 -0.8713  0.1261  0.1138
  847SOL    HW1 2540   1.441   0.333   1.559  0.2588 -2.4972 -0.4858
  847SOL    HW2 2541   1.404   0.328   1.727  1.6623 -1.2657 -1.8804
  848SOL     OW 2542   2.982   0.294   0.143 -0.3535  0.1007  0.2641
  848SOL    HW1 2543   2.934   0.344   0.069 -0.5687  2.5673 -3.1163
  848SOL    HW2 2544   3.054   0.350   0.185  1.3478  0.4442 -2.6964
  849SOL     OW 2545   0.604   0.363   3.101  0.4186 -0.0100  0.2811
  849SOL    HW1 2546   0.600   0.464   3.072  1.9397  0.4845  0.0132
  849SOL    HW2 2547   0.538   0.346   0.074  0.1496 -1.1902 -2.1407
  850SOL     OW 2548   0.572   2.519   0.966 -0.3922  0.2147  0.2785
  850SOL    HW1 2549   0.659   2.465   0.970  0.0221  0.9138  0.6005
  850SOL    HW2 2550   0.492   2.464   0.939  1.1241  3.3386  1.1813
  851SOL     OW 2551   2.376   0.031   2.344  0.0173  0.0407  0.4056
  851SOL    HW1 2552   2.404   0.067   2.250  0.7890 -1.0940  1.5266
  851SOL    HW2 2553   2.320   0.100   2.396  0.3107  0.6135 -2.3416
  852SOL     OW 2554   1.712   1.314   2.037 -0.0579  0.7211  0.4989
  852SOL    HW1 2555   1.611   1.306   2.057 -0.9608  1.4861  1.7237
  852SOL    HW2 2556   1.759   1.222   2.054 -0.2561 -1.8812  1.6749
  853SOL     OW 2557   2.724   2.617   0.569  0.4503  0.2107 -0.6228
  853SOL    HW1 2558   2.766   2.529   0.606  0.2600  1.2537 -0.3013
  853SOL    HW2 2559   2.776   2.700   0.604 -0.2441  0.2930 -0.7993
  854SOL     OW 2560   2.466   0.452   1.011  0.3126  0.4180 -0.5756
  854SOL    HW1 2561   2.432   0.398   0.930  0.6923 -0.4761 -0.4563
  854SOL    HW2 2562   2.384   0.499   1.055  0.3860 -2.4405 -0.2888
  855SOL     OW 2563   1.492   2.229   0.779 -0.3092 -0.2702 -0.7940
  855SOL    HW1 2564   1.447   2.222   0.687  1.9547  1.6816  1.3970
  855SOL    HW2 2565   1.417   2.240   0.847  3.6198 -1.5618 -0.4411
  856SOL     OW 2566   2.851   0.456   3.068  0.3047 -0.4565  0.1409
  856SOL    HW1 2567   2.873   0.526   3.000 -1.8168 -0.7201  0.4106
  856SOL    HW2 2568   2.810   0.383   3.015 -0.9579 -0.9558  1.7088
  857SOL     OW 2569   1.615   2.968   1.847 -0.4249  0.0462 -0.3259
  857SOL    HW1 2570   1.654   2.888   1.894  3.1906  0.0150  1.1592
  857SOL    HW2 2571   1.650   3.053   1.892 -4.3453 -2.2711 -0.4026
  858SOL     OW 2572   2.644   2.065   1.530  0.1671 -0.2134  0.2679
  858SOL    HW1 2573   2.665   2.084   1.430  2.0749 -0.2756 -0.2982
  858SOL    HW2 2574   2.590   1.979   1.535 -1.8433  2.9643 -1.9493
  859SOL     OW 2575   1.235   2.222   0.976 -0.7645 -0.4029 -0.3729
  859SOL    HW1 2576   1.159   2.173   1.029 -1.6851  1.2852 -1.1351
  859SOL    HW2 2577   1.318   2.236   1.032  1.2297  1.3689  0.6228
  860SOL     OW 2578   2.280   2.517   0.189 -0.0608  0.3101  0.3245
  860SOL    HW1 2579   2.302   2.611   0.161  0.3763 -2.3289 -0.2655
  860SOL    HW2 2580   2.364   2.469   0.214 -0.1677  1.9331 -1.3646
  861SOL     OW 2581   1.562   2.469   1.024 -0.3112 -0.2601 -0.0426
  861SOL    HW1 2582   1.592   2.378   1.060 -1.6101 -1.6000 -0.6527
  861SOL    HW2 2583   1.635   2.544   1.030 -2.7186  0.3839 -0.9433
  862SOL     OW 2584   1.920   2.992   2.686  0.0306 -0.4792  0.5798
  862SOL    HW1 2585   1.984   3.056   2.732 -1.3632  0.7252 -0.4629
  862SOL    HW2 2586   1.828   3.025   2.712  1.5627  0.8793 -2.4585
  863SOL     OW 2587   0.361   0.398   0.634  0.2218 -0.6726 -0.7270
  863SOL    HW1 2588   0.416   0.313   0.630 -0.1389  1.1069 -0.7420
  863SOL    HW2 2589   0.270   0.386   0.678  0.8234  2.1328 -0.6447
  864SOL     OW 2590   2.543   2.614   1.850  0.1262 -0.4508  0.2162
  864SOL    HW1 2591   2.490   2.525   1.847 -0.8536 -1.8942 -1.3351
  864SOL    HW2 2592   2.474   2.690   1.853 -0.7013 -0.1454 -0.4611
  865SOL     OW 2593   3.095   2.058   2.846  0.0274  0.3130 -0.1835
  865SOL    HW1 2594   3.010   2.014   2.812 -0.2407  0.2776 -0.4205
  865SOL    HW2 2595   3.075   2.150   2.870 -1.1636 -2.2004  0.1044
  866SOL     OW 2596   2.515   0.528   2.846  0.6054  0.0809  0.7581
  866SOL    HW1 2597   2.577   0.520   2.760  2.5619  0.9414 -4.9240
  866SOL    HW2 2598   2.523   0.625   2.892  0.1854  4.7311  2.1962
  867SOL     OW 2599   0.498   3.073   2.884  0.3004 -0.1758  0.2043
  867SOL    HW1 2600   0.593   0.004   2.893  0.3921 -0.3417 -0.0611
  867SOL    HW2 2601   0.435   0.049   2.861 -2.5901  3.2451 -0.4513
  868SOL     OW 2602   1.209   2.511   0.661 -0.5037  0.0355 -0.1023
  868SOL    HW1 2603   1.215   2.443   0.583  0.6998  0.1462 -2.2004
  868SOL    HW2 2604   1.139   2.583   0.641 -1.2140  0.3902  0.8724
  869SOL     OW 2605   1.309   1.235   1.337  0.0826 -0.6448 -0.1333
  869SOL    HW1 2606   1.356   1.256   1.247  1.7320 -0.6704 -2.1459
  869SOL    HW2 2607   1.355   1.288   1.411  3.5279  0.8473  0.9259
  870SOL     OW 2608   1.921   2.028   1.145  0.4360 -0.7807  0.0847
  870SOL    HW1 2609   1.981   2.102   1.103  4.0961  1.9390 -0.2025
  870SOL    HW2 2610   1.917   2.026   1.244 -0.6822  0.2806 -3.7832
  871SOL     OW 2611   1.318   1.599   1.319  0.2033  0.2215 -0.6735
  871SOL    HW1 2612   1.234   1.542   1.300 -1.3845 -0.4514  1.1115
  871SOL    HW2 2613   1.365   1.621   1.233  0.2474  2.5244  3.0981
  872SOL     OW 2614   1.409   1.012   0.991  0.0009  0.6133 -0.1490
  872SOL    HW1 2615   1.507   0.984   0.980  0.8130 -1.0429  1.5346
  872SOL    HW2 2616   1.399   1.083   1.060  0.9504 -1.8499 -0.1979
  873SOL     OW 2617   1.068   0.836   2.319  0.2537  0.4368 -0.4613
  873SOL    HW1 2618   0.990   0.898   2.349 -0.6693  0.3545 -0.7189
  873SOL    HW2 2619   1.154   0.866   2.363 -1.0499 -0.9802 -1.0722
  874SOL     OW 2620   0.378   1.045   1.145 -0.0238  0.2724  0.2062
  874SOL    HW1 2621   0.296   1.049   1.206 -0.4219  0.7455 -1.3126
  874SOL    HW2 2622   0.355   1.074   1.050 -0.1326 -0.8723 -0.3491
  875SOL     OW 2623   2.727   2.957   0.354  0.3575 -0.4444  0.0387
  875SOL    HW1 2624   2.625   2.977   0.363 -2.8010 -0.2292  0.1802
  875SOL    HW2 2625   2.758   2.979   0.258  2.5050 -0.8491 -1.4790
  876SOL     OW 2626   1.254   0.393   2.767  0.1166  0.7332 -0.2187
  876SOL    HW1 2627   1.250   0.296   2.811 -0.5319 -3.0682 -0.5183
  876SOL    HW2 2628   1.168   0.441   2.787  0.4489  1.5337 -0.2110
  877SOL     OW 2629   2.921   3.023   1.413 -0.3999  0.3180  0.3255
  877SOL    HW1 2630   2.937   3.064   1.507  1.9317  0.7353  2.1402
  877SOL    HW2 2631   3.010   3.008   1.375 -1.1605  0.2506 -0.1883
  878SOL     OW 2632   1.833   2.595   2.847 -0.0805 -0.0839  0.0583
  878SOL    HW1 2633   1.798   2.661   2.917  0.4085 -0.4780  1.0023
  878SOL    HW2 2634   1.888   2.639   2.774  2.0381 -0.1284  1.2764
  879SOL     OW 2635   2.330   1.818   1.699  0.1171 -0.8516 -0.2315
  879SOL    HW1 2636   2.396   1.818   1.624  1.0267 -0.5491  3.2266
  879SOL    HW2 2637   2.329   1.723   1.733  3.7453  1.9782 -0.0852
  880SOL     OW 2638   0.805   1.030   1.170  0.5849  0.3018  0.6261
  880SOL    HW1 2639   0.886   0.970   1.183 -4.0978  2.3540 -2.0366
  880SOL    HW2 2640   0.780   1.034   1.071  1.7615 -0.5995  0.1843
  881SOL     OW 2641   1.085   1.902   0.000 -0.0731  0.0960  0.5586
  881SOL    HW1 2642   1.169   1.955   3.093  0.5319  1.6937 -1.5653
  881SOL    HW2 2643   1.101   1.809   0.045  0.7376 -0.6784 -1.3926
  882SOL     OW 2644   1.594   0.261   1.067 -0.3441  0.0003 -0.2780
  882SOL    HW1 2645   1.559   0.350   1.035 -1.0205  0.2864 -0.0652
  882SOL    HW2 2646   1.685   0.270   1.108 -0.5123  0.2313  0.3760
  883SOL     OW 2647   1.731   0.520   2.374  0.1867  0.5406  0.6963
  883SOL    HW1 2648   1.713   0.533   2.475 -2.5910 -0.1163  1.6513
  883SOL    HW2 2649   1.770   0.605   2.332  2.7514  1.7252 -0.4470
  884SOL     OW 2650   2.772   0.610   0.169  0.2352  0.1955  0.2800
  884SOL    HW1 2651   2.858   0.664   0.172  1.2121 -2.0708 -0.2087
  884SOL    HW2 2652   2.787   0.549   0.089  0.8494 -1.5071  1.4542
  885SOL     OW 2653   0.989   2.046   0.761  0.0684 -0.4705 -0.0950
  885SOL    HW1 2654   1.000   2.146   0.754 -0.8280  1.6471  0.1222
  885SOL    HW2 2655   0.910   2.027   0.826 -1.4556 -4.5206  1.4480
  886SOL     OW 2656   1.584   1.429   2.989  0.3267  0.2625  0.3148
  886SOL    HW1 2657   1.555   1.334   3.011 -1.0133  0.4904 -1.6429
  886SOL    HW2 2658   1.506   1.486   2.963  0.6855 -1.1662  1.8999
  887SOL     OW 2659   1.636   0.215   1.759  0.5480 -0.0143 -1.1647
  887SOL    HW1 2660   1.606   0.154   1.679  2.4924 -2.6553  2.1605
  887SOL    HW2 2661   1.599   0.313   1.744 -0.2660  1.2313  1.0105
  888SOL     OW 2662   2.815   1.654   1.683  0.0508  0.2064  0.3808
  888SOL    HW1 2663   2.792   1.740   1.733 -2.1537 -0.1132 -0.3817
  888SOL    HW2 2664   2.822   1.682   1.583 -1.2877 -1.8191  0.6380
  889SOL     OW 2665   0.027   2.414   0.871  0.3375 -0.6338  0.0986
  889SOL    HW1 2666   0.042   2.449   0.775 -1.7307 -0.7788  0.3940
  889SOL    HW2 2667   3.070   2.470   0.930 -0.0994 -1.4299  2.4692
  890SOL     OW 2668   0.227   1.901   2.364  0.3849  0.2911  0.8133
  890SOL    HW1 2669   0.206   1.840   2.284 -1.3844 -0.6826 -0.8713
  890SOL    HW2 2670   0.260   1.992   2.333  1.7796 -1.1187  1.9858
  891SOL     OW 2671   0.828   1.796   0.688  0.1015 -0.2586  0.5506
  891SOL    HW1 2672   0.776   1.743   0.760 -1.1043 -1.0741  0.5786
  891SOL    HW2 2673   0.877   1.872   0.732 -0.6599 -2.7250 -2.7880
  892SOL     OW 2674   0.013   2.277   1.622 -0.4964  0.1906 -0.4692
  892SOL    HW1 2675   0.010   2.242   1.531 -0.5038 -1.3879  0.7587
  892SOL    HW2 2676   3.079   2.216   1.695 -0.6055 -0.9436  0.8689
  893SOL     OW 2677   3.050   0.056   1.626 -0.1837 -0.2069 -0.0049
  893SOL    HW1 2678   2.999   0.087   1.710  1.2347  1.2142 -2.5317
  893SOL    HW2 2679   0.022   3.094   1.637 -1.0060  0.8786 -0.3705
  894SOL     OW 2680   2.662   1.864   0.800 -0.1209 -0.2641  0.2582
  894SOL    HW1 2681   2.727   1.785   0.786 -0.2519  0.0662 -0.2478
  894SOL    HW2 2682   2.620   1.877   0.708 -0.1008 -2.6952 -0.5604
  895SOL     OW 2683   1.808   2.642   1.648  0.6249  0.5868 -0.1172
  895SOL    HW1 2684   1.867   2.564   1.673 -2.1800  0.1581  0.3238
  895SOL    HW2 2685   1.759   2.627   1.560  0.8652  0.4415 -1.5268
  896SOL     OW 2686   0.346   0.003   1.503  0.0551  0.4168 -0.0816
  896SOL    HW1 2687   0.308   3.087   1.408  0.4766  2.2569 -1.1117
  896SOL    HW2 2688   0.393   0.095   1.497  1.6124  1.4557  2.0907
  897SOL     OW 2689   1.291   0.978   1.426 -0.9802 -0.1608  0.8019
  897SOL    HW1 2690   1.195   0.954   1.425 -0.8117 -0.2787 -0.5520
  897SOL    HW2 2691   1.304   1.072   1.390 -0.3387 -0.7487 -0.1125
  898SOL     OW 2692   0.791   3.067   1.555  0.6550 -0.4306 -0.3020
  898SOL    HW1 2693   0.784   0.013   1.647  0.5025  2.9938 -0.4530
  898SOL    HW2 2694   0.879   3.021   1.547 -0.6723  1.9562  0.1110
  899SOL     OW 2695   1.360   0.297   0.066  0.1906  0.3309 -0.1262
  899SOL    HW1 2696   1.461   0.281   0.069  0.0077 -0.6611  1.5824
  899SOL    HW2 2697   1.317   0.262   3.080 -1.6195  0.1604  0.0994
  900SOL     OW 2698   0.821   0.231   2.315 -0.2046 -0.6997 -0.2809
  900SOL    HW1 2699   0.796   0.209   2.412  0.6634 -0.3607  2.4467
  900SOL    HW2 2700   0.744   0.225   2.243 -1.2534  2.4645 -1.2828
  901SOL     OW 2701   0.786   2.108   0.311 -0.1735  0.0748  0.0545
  901SOL    HW1 2702   0.867   2.045   0.314  0.7721  0.4767  0.5708
  901SOL    HW2 2703   0.798   2.181   0.381 -0.4599 -0.5290 -2.2179
  902SOL     OW 2704   1.962   0.462   0.976  0.0920 -0.0583  0.5122
  902SOL    HW1 2705   1.900   0.448   0.897 -0.3030  0.8354  2.7829
  902SOL    HW2 2706   1.926   0.406   1.057  0.4509 -2.7469 -0.3949
  903SOL     OW 2707   2.631   1.022   2.516 -0.2382  0.2281 -0.1307
  903SOL    HW1 2708   2.560   1.039   2.585 -0.1770 -0.5827  2.4241
  903SOL    HW2 2709   2.674   1.106   2.485 -3.1506 -5.4758  1.8984
  904SOL     OW 2710   1.489   1.403   0.198  0.1966 -0.5400  0.3416
  904SOL    HW1 2711   1.399   1.385   0.151 -3.3033 -1.7299 -2.5108
  904SOL    HW2 2712   1.480   1.465   0.277 -1.9024  1.3879 -3.1643
  905SOL     OW 2713   1.908   3.045   1.506 -0.5807 -1.0507  0.0335
  905SOL    HW1 2714   1.937   0.013   1.577  0.4565  2.5961  3.5968
  905SOL    HW2 2715   1.865   3.088   1.421  0.6860  1.4911 -0.6619
  906SOL     OW 2716   2.204   3.055   0.997  0.4234  0.4783 -0.4673
  906SOL    HW1 2717   2.253   3.086   1.082  1.0203 -0.8916  1.2263
  906SOL    HW2 2718   2.272   3.010   0.932  0.4997 -1.0639 -0.5322
  907SOL     OW 2719   1.786   1.044   0.185 -0.2125  0.4163  0.5616
  907SOL    HW1 2720   1.705   0.983   0.201  0.3934 -2.9996  1.0219
  907SOL    HW2 2721   1.774   1.134   0.224 -3.5169  0.3635 -1.4755
  908SOL     OW 2722   1.721   0.272   1.398 -0.3772 -0.0725  0.3967
  908SOL    HW1 2723   1.639   0.243   1.446  4.6399  1.6158 -0.3791
  908SOL    HW2 2724   1.714   0.366   1.361 -3.4598  0.0465  0.5322
  909SOL     OW 2725   2.371   0.052   0.668  0.3672  0.1704  0.0343
  909SOL    HW1 2726   2.378   3.070   0.728 -0.2820  1.3477  1.8429
  909SOL    HW2 2727   2.278   0.091   0.686  0.3899 -0.1394  1.0950
  910SOL     OW 2728   2.689   0.517   2.078  0.2479 -0.1174 -0.4627
  910SOL    HW1 2729   2.677   0.610   2.117 -2.2902  0.4367  0.3103
  910SOL    HW2 2730   2.620   0.491   2.007  0.1763 -0.6261 -1.5294
  911SOL     OW 2731   2.595   0.080   2.773 -0.8545  0.6266  0.0145
  911SOL    HW1 2732   2.515   0.141   2.749  1.3498 -0.0899 -1.6778
  911SOL    HW2 2733   2.563   0.002   2.831  0.3161  2.9481 -0.6449
  912SOL     OW 2734   0.799   1.162   1.509  0.1367 -0.2545  0.0487
  912SOL    HW1 2735   0.813   1.193   1.608 -1.0395  1.8103  0.2255
  912SOL    HW2 2736   0.697   1.156   1.492 -0.0622 -0.4596  0.5719
  913SOL     OW 2737   3.040   2.492   1.353  0.0233  0.4963  0.3745
  913SOL    HW1 2738   3.042   2.504   1.453  3.0950  0.4573  1.3347
  913SOL    HW2 2739   2.942   2.475   1.319 -1.2503 -0.2789 -2.3668
  914SOL     OW 2740   1.984   0.927   1.297  0.2927  0.0620 -0.7302
  914SOL    HW1 2741   1.966   1.019   1.335 -0.5243 -0.5969  0.9169
  914SOL    HW2 2742   2.060   0.877   1.337 -1.0165  0.2574  0.9546
  915SOL     OW 2743   0.029   1.392   0.992  0.0654  0.0407  0.6696
  915SOL    HW1 2744   0.089   1.421   0.907  0.7257 -1.4475  0.1170
  915SOL    HW2 2745   3.065   1.320   0.971  1.9022  2.4738  0.2737
  916SOL     OW 2746   2.098   2.261   1.173 -0.6695 -0.7072 -0.5551
  916SOL    HW1 2747   2.111   2.357   1.204  0.8909  3.8715  2.6623
  916SOL    HW2 2748   2.118   2.257   1.073 -0.1310  0.9848 -0.4536
  917SOL     OW 2749   1.731   2.419   2.099  0.0893 -0.2991  0.3137
  917SOL    HW1 2750   1.729   2.484   2.179  1.9176  2.6030  1.5422
  917SOL    HW2 2751   1.761   2.327   2.133  0.3437  0.8233  0.8961
  918SOL     OW 2752   1.872   2.124   2.455 -0.3654 -0.6502  0.3664
  918SOL    HW1 2753   1.844   2.199   2.400 -2.4474 -3.3507  0.5963
  918SOL    HW2 2754   1.902   2.157   2.546 -1.0870 -2.5385 -2.4587
  919SOL     OW 2755   0.668   0.153   1.379  0.4804 -0.4887 -0.0608
  919SOL    HW1 2756   0.569   0.176   1.408 -2.2065  2.3365 -1.2017
  919SOL    HW2 2757   0.706   0.072   1.433 -0.5668 -1.1327  1.0231
  920SOL     OW 2758   2.771   0.290   2.196 -0.2307  0.4189 -0.7202
  920SOL    HW1 2759   2.744   0.381   2.151  1.9038 -0.2237  0.6623
  920SOL    HW2 2760   2.712   0.257   2.269  1.0359 -0.2674  2.0002
  921SOL     OW 2761   2.783   1.179   1.548  0.1890 -0.0087  0.3031
  921SOL    HW1 2762   2.839   1.093   1.556  3.4613 -1.6994 -1.9883
  921SOL    HW2 2763   2.688   1.162   1.583  0.1846  0.0634  0.2704
  922SOL     OW 2764   2.609   2.232   0.770  0.1665 -0.0981  0.1991
  922SOL    HW1 2765   2.524   2.280   0.739  2.0555 -1.5504  0.0313
  922SOL    HW2 2766   2.667   2.295   0.820 -2.1181 -0.3778 -0.5224
  923SOL     OW 2767   0.492   2.426   0.529  0.2474  0.4065 -0.3049
  923SOL    HW1 2768   0.511   2.409   0.430 -1.2660 -0.6714  0.6502
  923SOL    HW2 2769   0.567   2.384   0.591  1.2793 -0.5919 -1.7275
  924SOL     OW 2770   1.125   1.002   2.601  0.2906 -0.2350 -0.0558
  924SOL    HW1 2771   1.143   1.044   2.691  1.7507 -1.3535  0.2381
  924SOL    HW2 2772   1.207   0.979   2.545 -0.0368  2.4135  0.5315
  925SOL     OW 2773   2.744   1.404   0.691 -0.3765 -0.4992  0.1723
  925SOL    HW1 2774   2.773   1.320   0.743 -0.3673  2.1629 -0.0024
  925SOL    HW2 2775   2.714   1.383   0.598 -0.1827  0.6095 -0.8795
  926SOL     OW 2776   0.093   0.089   0.900  0.2223 -0.0561 -0.3752
  926SOL    HW1 2777   0.166   0.015   0.903  1.7386  1.9646  1.8690
  926SOL    HW2 2778   0.011   0.039   0.930  1.6338 -0.9707 -1.5062
  927SOL     OW 2779   0.285   1.940   2.740  0.2342 -0.1314  0.6098
  927SOL    HW1 2780   0.210   1.999   2.777  1.5096 -0.7330 -1.1745
  927SOL    HW2 2781   0.243   1.862   2.690  0.3976 -2.0251 -1.1039
  928SOL     OW 2782   3.070   0.257   2.295 -0.0136 -0.4745  0.2645
  928SOL    HW1 2783   0.058   0.304   2.290  0.9069 -0.8411  0.3986
  928SOL    HW2 2784   2.992   0.309   2.253 -0.4629  1.5398  0.6452
  929SOL     OW 2785   2.922   1.989   1.136 -0.4654  0.5461 -0.2421
  929SOL    HW1 2786   2.877   2.041   1.212  0.8966 -0.6416 -2.3989
  929SOL    HW2 2787   2.862   1.998   1.050 -0.7394 -0.9125 -0.1317
  930SOL     OW 2788   1.784   0.277   2.493 -0.4830  0.1548 -0.2029
  930SOL    HW1 2789   1.716   0.253   2.566 -1.3835  1.5702  0.6921
  930SOL    HW2 2790   1.767   0.372   2.447  0.2012  2.7747 -0.1106
  931SOL     OW 2791   2.331   1.234   2.932 -0.2757  0.1840 -0.3852
  931SOL    HW1 2792   2.267   1.311   2.916  1.0757  0.9617  2.3963
  931SOL    HW2 2793   2.284   1.145   2.922 -1.0387 -1.1203 -0.3380
  932SOL     OW 2794   1.988   1.044   0.633  0.0257 -0.1029  0.0008
  932SOL    HW1 2795   2.058   0.971   0.636 -0.8915  1.9898  0.6878
  932SOL    HW2 2796   1.999   1.113   0.560  1.2686 -0.0092  0.4015
  933SOL     OW 2797   2.345   1.230   0.797 -0.1498  0.1108  0.0235
  933SOL    HW1 2798   2.338   1.181   0.708  2.9676  0.1771 -1.3518
  933SOL    HW2 2799   2.393   1.324   0.788  0.7790 -2.3156  0.5953
  934SOL     OW 2800   2.205   1.055   2.769  0.0137 -0.0150 -0.1271
  934SOL    HW1 2801   2.114   1.102   2.786 -2.4014 -0.1554  2.6722
  934SOL    HW2 2802   2.223   1.029   2.671  2.7705 -0.6250  0.2994
  935SOL     OW 2803   0.202   1.421   0.754 -0.2125  0.2623 -0.3907
  935SOL    HW1 2804   0.297   1.381   0.733 -0.8420  0.6774  0.3940
  935SOL    HW2 2805   0.131   1.391   0.687  1.4457 -1.3972  1.4033
  936SOL     OW 2806   3.091   2.720   0.292  0.0142 -0.1152 -0.3437
  936SOL    HW1 2807   0.045   2.789   0.342 -1.4531  0.0487  0.0398
  936SOL    HW2 2808   0.023   2.627   0.314  0.3301 -1.4563  1.5138
  937SOL     OW 2809   0.005   2.348   1.913  0.1680 -0.4972  0.1256
  937SOL    HW1 2810   0.078   2.396   1.864  1.4496 -1.4219 -0.2634
  937SOL    HW2 2811   0.013   2.245   1.915 -3.0569 -2.5051  0.0473
  938SOL     OW 2812   2.564   2.372   2.959 -0.0134  0.5338  0.6616
  938SOL    HW1 2813   2.567   2.468   2.988  2.3169 -0.7050  1.0583
  938SOL    HW2 2814   2.588   2.360   2.857 -1.5542  0.3129 -1.7681
  939SOL     OW 2815   1.016   0.863   1.144 -0.1577  0.2553 -0.0283
  939SOL    HW1 2816   1.063   0.778   1.178  0.5172  0.5609  1.9859
  939SOL    HW2 2817   1.064   0.898   1.060 -0.9028 -1.5945 -1.0271
  940SOL     OW 2818   2.530   2.991   2.996  0.0662  0.6228  0.2077
  940SOL    HW1 2819   2.430   2.993   2.990  0.8092 -0.7085  1.2480
  940SOL    HW2 2820   2.572   2.898   2.997  2.3291 -3.2397  0.0839
  941SOL     OW 2821   2.568   2.733   2.282 -0.3856 -0.4651 -0.0591
  941SOL    HW1 2822   2.617   2.755   2.195 -1.6281 -0.5241  3.6603
  941SOL    HW2 2823   2.478   2.693   2.263  0.5447  0.1641  1.4107
  942SOL     OW 2824   1.360   0.263   1.245 -0.1555  0.5047 -0.6674
  942SOL    HW1 2825   1.454   0.263   1.204  2.6481 -0.7712  2.4327
  942SOL    HW2 2826   1.358   0.345   1.309 -1.1193 -0.7245 -0.0021
  943SOL     OW 2827   0.576   1.582   2.427 -0.3792  0.2000 -0.1256
  943SOL    HW1 2828   0.516   1.560   2.347  2.5037 -0.0130  0.4223
  943SOL    HW2 2829   0.559   1.680   2.445  1.4301 -2.2593  0.9196
  944SOL     OW 2830   2.344   0.784   0.771  0.2366 -0.9202 -0.0420
  944SOL    HW1 2831   2.285   0.701   0.764 -0.3758  0.9503  0.7181
  944SOL    HW2 2832   2.343   0.830   0.677 -0.1219 -0.3958  2.5644
  945SOL     OW 2833   3.022   0.095   2.903  0.2078  0.5999  0.2518
  945SOL    HW1 2834   3.032   0.073   2.806 -3.5043  0.0336 -1.5646
  945SOL    HW2 2835   3.088   0.166   2.933  0.1800 -0.0706  0.4218
  946SOL     OW 2836   0.111   1.384   1.542  0.7729  0.0002  0.4681
  946SOL    HW1 2837   0.127   1.306   1.604  0.4157  0.4718  0.8854
  946SOL    HW2 2838   0.071   1.465   1.593  0.0829  0.9022  0.8403
  947SOL     OW 2839   1.070   0.160   3.080  0.0263 -0.3960  0.3288
  947SOL    HW1 2840   1.048   0.093   0.047 -1.5407  1.6859 -0.1051
  947SOL    HW2 2841   1.003   0.233   3.071  1.8453  2.7290  1.5337
  948SOL     OW 2842   2.707   1.856   1.313  0.3057  0.3967 -0.3519
  948SOL    HW1 2843   2.768   1.791   1.367  1.6200 -0.5237 -1.0410
  948SOL    HW2 2844   2.705   1.829   1.213 -3.3124  1.0113 -1.0313
  949SOL     OW 2845   0.355   0.988   2.891 -0.0011  0.0063 -0.1288
  949SOL    HW1 2846   0.408   1.053   2.952 -1.5362  0.5480  0.1529
  949SOL    HW2 2847   0.254   0.988   2.914  0.9485  2.0026 -0.7968
  950SOL     OW 2848   0.252   2.774   1.372  0.2345 -0.2825  0.2354
  950SOL    HW1 2849   0.236   2.748   1.466  0.3303 -0.2695  0.1412
  950SOL    HW2 2850   0.350   2.801   1.354 -1.0944  0.3576  1.0738
  951SOL     OW 2851   0.832   1.775   2.683 -0.2928  0.2214  0.0564
  951SOL    HW1 2852   0.740   1.770   2.729 -0.3585 -0.2760 -0.4185
  951SOL    HW2 2853   0.841   1.869   2.644  2.4439 -1.5423  1.6018
  952SOL     OW 2854   0.728   1.364   0.557 -0.2588 -0.4003  0.4705
  952SOL    HW1 2855   0.751   1.281   0.605  0.2283  2.6073 -1.1268
  952SOL    HW2 2856   0.804   1.395   0.499 -3.0580  0.8982 -1.3189
  953SOL     OW 2857   2.192   1.878   2.684 -0.0256 -0.2450 -0.0301
  953SOL    HW1 2858   2.239   1.833   2.604  0.2461 -0.6004  0.5310
  953SOL    HW2 2859   2.233   1.855   2.772 -0.6117  0.2775 -1.8686
  954SOL     OW 2860   1.530   0.485   0.758  0.1683  0.4465 -0.0104
  954SOL    HW1 2861   1.471   0.413   0.710  0.1589 -0.9531  0.4750
  954SOL    HW2 2862   1.483   0.576   0.761 -0.5353 -1.1193 -0.7796
  955SOL     OW 2863   0.844   1.939   3.005 -0.0232  0.3062 -0.8401
  955SOL    HW1 2864   0.877   1.994   2.927 -0.1980  1.6862  1.9822
  955SOL    HW2 2865   0.918   1.918   3.072 -3.2498  2.1471 -2.2245
  956SOL     OW 2866   2.877   0.662   1.945  0.1313 -0.2480  0.5845
  956SOL    HW1 2867   2.870   0.619   1.855 -0.6881  0.8993 -2.3034
  956SOL    HW2 2868   2.785   0.660   1.991  0.2320 -1.0779  0.8951
  957SOL     OW 2869   1.742   1.927   2.116  0.9074  0.4378  0.0212
  957SOL    HW1 2870   1.837   1.897   2.093 -0.9625 -1.9203  1.1283
  957SOL    HW2 2871   1.679   1.886   2.049  2.0581 -2.1346 -1.3479
  958SOL     OW 2872   1.701   0.831   1.225 -0.0833 -0.3947 -0.3054
  958SOL    HW1 2873   1.726   0.921   1.269  0.5838  0.1556 -1.1220
  958SOL    HW2 2874   1.764   0.755   1.256  1.6742 -0.3223  0.7040
  959SOL     OW 2875   1.552   1.815   1.950 -0.1243  0.6252 -0.0733
  959SOL    HW1 2876   1.599   1.808   1.859  0.4750  1.4088 -2.5900
  959SOL    HW2 2877   1.533   1.726   1.994  1.1390  0.2863  0.0405
  960SOL     OW 2878   0.470   1.013   2.644  0.1737  0.2386  0.1045
  960SOL    HW1 2879   0.437   1.105   2.608 -2.5625  1.8094 -2.3144
  960SOL    HW2 2880   0.448   1.007   2.739 -1.6259 -1.8770  0.0417
  961SOL     OW 2881   0.181   1.274   0.031  0.2852  0.1591 -0.3238
  961SOL    HW1 2882   0.099   1.250   3.082 -1.6280 -1.1098  1.8111
  961SOL    HW2 2883   0.162   1.364   0.081  0.0829  1.8788 -0.1196
  962SOL     OW 2884   0.942   2.136   2.805  0.1732  0.1493  0.2943
  962SOL    HW1 2885   0.898   2.220   2.765  5.4371 -1.9632 -0.4028
  962SOL    HW2 2886   1.028   2.156   2.856 -2.0559  1.1976  1.7802
  963SOL     OW 2887   2.876   1.734   3.037  0.1832 -0.6632  0.3986
  963SOL    HW1 2888   2.930   1.678   0.001 -0.6253 -0.7976 -0.2612
  963SOL    HW2 2889   2.826   1.807   3.081  0.2062 -0.7195  0.0181
  964SOL     OW 2890   0.701   2.319   2.236 -0.1487 -0.2941 -0.3424
  964SOL    HW1 2891   0.674   2.388   2.164  1.4654 -1.5254  1.2022
  964SOL    HW2 2892   0.727   2.368   2.323  0.6057 -3.3462  0.9512
  965SOL     OW 2893   1.741   1.841   1.468  0.0848  0.4204 -0.2192
  965SOL    HW1 2894   1.777   1.772   1.408 -1.8972  2.8439  0.9216
  965SOL    HW2 2895   1.683   1.811   1.547 -1.1374 -1.2331  3.1149
  966SOL     OW 2896   2.929   1.535   0.236 -0.0091 -0.3139  0.2420
  966SOL    HW1 2897   3.001   1.580   0.175  2.7166  0.4570  0.8980
  966SOL    HW2 2898   2.870   1.474   0.177  1.6313 -0.6115 -1.8194
  967SOL     OW 2899   2.127   2.671   2.040 -0.5105 -0.4041 -0.4823
  967SOL    HW1 2900   2.071   2.590   2.016 -0.8674  3.0923 -2.0792
  967SOL    HW2 2901   2.068   2.758   2.044 -1.4968  2.3476  2.3521
  968SOL     OW 2902   1.544   1.171   3.044 -0.1953  0.0452  0.6496
  968SOL    HW1 2903   1.641   1.140   3.055 -0.2818 -1.3790 -1.4430
  968SOL    HW2 2904   1.489   1.112   2.982  2.8531 -0.0556 -2.3874
  969SOL     OW 2905   0.199   1.231   2.379  0.0525  0.4232 -0.1432
  969SOL    HW1 2906   0.208   1.151   2.321  1.3498 -1.4826  0.0319
  969SOL    HW2 2907   0.255   1.239   2.461 -0.8602  0.0147 -1.1152
  970SOL     OW 2908   2.219   2.765   0.657 -0.3281  0.1534 -0.0333
  970SOL    HW1 2909   2.255   2.769   0.561 -3.4016 -1.6700  2.6931
  970SOL    HW2 2910   2.118   2.742   0.648 -2.9965 -1.2547 -1.3552
  971SOL     OW 2911   2.149   2.184   0.926 -0.7199 -0.1517  0.1329
  971SOL    HW1 2912   2.242   2.151   0.899  0.2883  0.1603  0.1921
  971SOL    HW2 2913   2.139   2.277   0.888 -3.0729  0.3604 -1.7568
  972SOL     OW 2914   0.246   1.549   2.786 -0.1114  0.4177 -0.2835
  972SOL    HW1 2915   0.222   1.607   2.702 -1.9870  2.8565 -1.3183
  972SOL    HW2 2916   0.322   1.488   2.763 -2.2290 -0.3350 -2.2412
  973SOL     OW 2917   0.708   0.516   0.289 -0.3326 -0.2677  0.3145
  973SOL    HW1 2918   0.721   0.437   0.228 -0.7261 -0.5676 -0.2835
  973SOL    HW2 2919   0.780   0.586   0.264  2.8544  2.4640 -2.0501
  974SOL     OW 2920   2.261   0.726   1.712 -0.3998  0.1601  0.0500
  974SOL    HW1 2921   2.263   0.638   1.759 -0.8515 -1.7340  0.7941
  974SOL    HW2 2922   2.353   0.771   1.718 -2.0725 -1.2838  0.0780
  975SOL     OW 2923   3.097   3.035   0.607  0.1870 -0.4569 -0.3602
  975SOL    HW1 2924   0.097   3.040   0.617 -0.0564 -0.3630 -1.0058
  975SOL    HW2 2925   3.044   0.003   0.655 -0.2974 -3.4372  0.5713
  976SOL     OW 2926   0.695   1.471   1.392  0.5264  0.1440 -0.3834
  976SOL    HW1 2927   0.755   1.425   1.457  0.3568  0.7815 -0.4721
  976SOL    HW2 2928   0.631   1.406   1.343  1.4741  0.2002 -0.1507
  977SOL     OW 2929   1.422   2.217   0.516 -0.1757  0.3002  1.0214
  977SOL    HW1 2930   1.473   2.201   0.429  0.7939  1.3093 -0.8202
  977SOL    HW2 2931   1.333   2.266   0.494 -1.8785 -2.0573 -1.1583
  978SOL     OW 2932   0.136   0.818   0.029 -0.3698  0.2343  0.0419
  978SOL    HW1 2933   0.094   0.846   3.046  0.1100  0.1439  2.1989
  978SOL    HW2 2934   0.167   0.897   0.088  2.2834  1.5506 -0.1870
  979SOL     OW 2935   2.045   1.637   0.546  0.4149  0.3074 -0.1369
  979SOL    HW1 2936   1.973   1.585   0.494 -0.6856  0.6106  0.8015
  979SOL    HW2 2937   2.013   1.665   0.635 -0.0171  0.1833 -1.9138
  980SOL     OW 2938   0.696   1.866   1.612  0.1732 -0.4973  0.0444
  980SOL    HW1 2939   0.789   1.825   1.622  0.2921  0.5559 -1.3073
  980SOL    HW2 2940   0.705   1.963   1.582  0.2397 -1.3604 -2.5922
  981SOL     OW 2941   2.677   1.418   2.716  0.1187 -0.0481 -0.0837
  981SOL    HW1 2942   2.780   1.416   2.700  2.2037  0.8392  0.1856
  981SOL    HW2 2943   2.633   1.325   2.734 -2.2676 -0.1277 -0.3359
  982SOL     OW 2944   0.266   2.038   1.726 -0.0185 -0.1115  0.1337
  982SOL    HW1 2945   0.274   2.099   1.645 -0.7830  2.6334 -0.1083
  982SOL    HW2 2946   0.343   1.969   1.733 -3.5252 -0.9288 -0.7225
  983SOL     OW 2947   1.547   0.148   2.016 -0.1537  0.0946 -0.1250
  983SOL    HW1 2948   1.455   0.191   2.016  0.9740  0.4752  0.2559
  983SOL    HW2 2949   1.595   0.183   1.929  0.0766 -1.0405 -4.5175
  984SOL     OW 2950   2.903   2.961   2.949 -0.0204 -0.0881 -0.2078
  984SOL    HW1 2951   2.929   3.057   2.925 -0.3544  0.1992 -0.2589
  984SOL    HW2 2952   2.858   2.912   2.871  0.7262  2.6388  0.8253
  985SOL     OW 2953   1.456   1.181   1.816  0.2455  0.1580  0.1866
  985SOL    HW1 2954   1.440   1.284   1.816  2.1709 -0.9171  1.2509
  985SOL    HW2 2955   1.551   1.162   1.780  0.3754  0.5887 -0.3944
  986SOL     OW 2956   1.976   0.288   2.915  0.0106  0.1653  0.2551
  986SOL    HW1 2957   2.006   0.294   3.009 -2.2398 -1.3150 -1.7838
  986SOL    HW2 2958   1.913   0.366   2.890 -1.4248 -1.2265  0.5839
  987SOL     OW 2959   3.035   1.677   2.591  0.1761  0.7599  0.2787
  987SOL    HW1 2960   2.987   1.745   2.643  0.2219 -0.3506 -2.3955
  987SOL    HW2 2961   3.018   1.668   2.490  0.4874  0.1708  0.7436
  988SOL     OW 2962   2.987   0.282   1.262 -0.3116 -0.0136 -0.3087
  988SOL    HW1 2963   3.056   0.235   1.320  0.9626 -1.0181  2.8669
  988SOL    HW2 2964   2.907   0.227   1.235 -0.7544  0.6642 -0.8695
  989SOL     OW 2965   1.910   0.266   1.141  0.6155  0.1726  0.7952
  989SOL    HW1 2966   1.919   0.185   1.077  0.7819 -0.9422 -2.0681
  989SOL    HW2 2967   1.983   0.252   1.214 -2.6364 -1.3147  0.1311
  990SOL     OW 2968   2.608   0.783   2.934  0.2343 -0.2350 -0.1907
  990SOL    HW1 2969   2.695   0.787   2.882 -1.4015 -1.0425 -0.8288
  990SOL    HW2 2970   2.623   0.840   3.018  0.2815  0.6108 -0.2054
  991SOL     OW 2971   0.301   1.317   0.351 -0.7775 -0.1247  0.5845
  991SOL    HW1 2972   0.240   1.238   0.370  1.6712  2.3146 -2.1422
  991SOL    HW2 2973   0.400   1.283   0.338  1.6401 -1.6656  1.2205
  992SOL     OW 2974   1.972   1.278   1.797 -0.5042 -0.4450 -0.4721
  992SOL    HW1 2975   1.917   1.347   1.840  3.0574  2.0307  1.4116
  992SOL    HW2 2976   2.053   1.328   1.761 -1.3201  0.4834  0.9576
  993SOL     OW 2977   0.296   2.321   0.695 -0.2288 -0.3636 -0.2966
  993SOL    HW1 2978   0.315   2.332   0.796 -0.4104  0.8980 -1.2004
  993SOL    HW2 2979   0.352   2.386   0.640 -3.2938  0.0169 -0.7634
  994SOL     OW 2980   3.005   1.917   1.775  0.4893 -0.1620 -0.7783
  994SOL    HW1 2981   2.921   1.881   1.819 -0.1945 -3.1361 -0.4022
  994SOL    HW2 2982   2.988   1.939   1.672 -0.3576  0.7639 -2.6476
  995SOL     OW 2983   1.936   1.722   2.643  0.4115 -0.8012  0.6796
  995SOL    HW1 2984   1.869   1.795   2.618 -3.2770 -1.1821 -0.5884
  995SOL    HW2 2985   2.029   1.762   2.655 -2.0811  0.4431  1.3094
  996SOL     OW 2986   2.092   2.324   0.542 -0.3250  0.8197 -0.0640
  996SOL    HW1 2987   2.014   2.268   0.574 -3.9374 -0.4641  0.7972
  996SOL    HW2 2988   2.166   2.264   0.505 -1.6316  0.4744 -0.4127
  997SOL     OW 2989   0.990   1.661   2.194  0.4932  0.1178  0.6752
  997SOL    HW1 2990   0.963   1.641   2.289 -0.9498 -0.8382  0.2576
  997SOL    HW2 2991   1.015   1.579   2.135  2.0725  0.7970 -0.9580
  998SOL     OW 2992   2.866   2.378   0.603  0.1281 -0.5212  0.0763
  998SOL    HW1 2993   2.893   2.302   0.660 -0.5912  0.9224 -0.6387
  998SOL    HW2 2994   2.937   2.446   0.582 -0.0416 -2.2268  0.6280
  999SOL     OW 2995   0.643   3.034   0.515 -0.3004 -0.5180 -0.1263
  999SOL    HW1 2996   0.636   2.966   0.445 -0.4160  1.0220  0.9018
  999SOL    HW2 2997   0.607   2.993   0.603  2.2842 -3.1683 -0.4807
 1000SOL     OW 2998   1.256   0.142   0.251  0.2164  0.6948  0.6351
 1000SOL    HW1 2999   1.292   0.210   0.182  0.1286  0.2570 -0.2998
 1000SOL    HW2 3000   1.163   0.167   0.283 -0.2870 -0.4069 -1.5166
   3.10284   3.10284   3.10284
