1000 SPC/Fw water molecules t=  95.00000 step= 95000
 3000
    1SOL     OW    1   1.790   2.636   0.661  0.1012 -0.1769  0.3121
    1SOL    HW1    2   1.717   2.576   0.717 -2.8664 -1.5788  3.0790
    1SOL    HW2    3   1.880   2.613   0.688 -2.4268 -0.6195 -1.3335
    2SOL     OW    4   1.185   1.200   2.015 -0.1993 -0.4369 -0.4149
    2SOL    HW1    5   1.212   1.140   1.940 -0.5172 -0.4987  0.2900
    2SOL    HW2    6   1.258   1.265   2.049  1.9657  0.7493  1.9600
    3SOL     OW    7   1.260   2.493   2.386  0.0267  0.6481 -0.4563
    3SOL    HW1    8   1.347   2.496   2.333 -0.7450  1.8467 -1.2558
    3SOL    HW2    9   1.215   2.402   2.396 -3.9216  0.3448 -0.4973
    4SOL     OW   10   1.296   1.892   2.628 -0.2110  0.2718 -0.0069
    4SOL    HW1   11   1.369   1.888   2.699 -0.3548 -0.3211 -0.4255
    4SOL    HW2   12   1.329   1.941   2.543  1.5815  0.0147  0.2611
    5SOL     OW   13   0.532   0.770   1.837 -0.4654 -0.1186 -0.1190
    5SOL    HW1   14   0.578   0.842   1.896  1.1725  1.0203  2.5519
    5SOL    HW2   15   0.604   0.724   1.778  0.4055 -1.3137 -2.2273
    6SOL     OW   16   1.869   0.754   2.671 -0.3189  0.5329  0.2900
    6SOL    HW1   17   1.845   0.838   2.615 -1.9038 -0.2959 -0.5202
    6SOL    HW2   18   1.971   0.731   2.674  1.8157  0.1590  4.0378
    7SOL     OW   19   0.498   0.483   1.646 -0.2289  0.1363  0.0456
    7SOL    HW1   20   0.559   0.562   1.642 -0.3582  0.3728 -0.4983
    7SOL    HW2   21   0.414   0.486   1.582 -1.2614  0.0992 -0.6600
    8SOL     OW   22   1.884   3.047   1.902 -0.3452  1.0504  0.7233
    8SOL    HW1   23   1.972   3.058   1.953  2.3858 -0.9489 -1.7721
    8SOL    HW2   24   1.880   2.960   1.849 -0.0437 -2.0521  1.0928
    9SOL     OW   25   0.224   0.448   0.552  0.2719  0.4543  0.0597
    9SOL    HW1   26   0.259   0.362   0.599  0.6196 -0.1334  2.3735
    9SOL    HW2   27   0.255   0.536   0.597  1.8419  3.0341 -0.4538
   10SOL     OW   28   0.502   2.012   2.406 -0.5747 -0.1117  0.3897
   10SOL    HW1   29   0.514   2.023   2.308  0.9229  0.4345  0.9984
   10SOL    HW2   30   0.574   2.060   2.459  1.9444 -1.6008 -3.6889
   11SOL     OW   31   0.703   1.739   0.209  0.0760  0.0494 -0.3349
   11SOL    HW1   32   0.789   1.791   0.194 -1.4536 -0.4548 -1.5402
   11SOL    HW2   33   0.719   1.640   0.236  0.1830  0.6866  1.8640
   12SOL     OW   34   0.057   2.895   1.405 -0.4421 -0.1254 -0.3068
   12SOL    HW1   35   0.007   2.974   1.438 -0.6341 -1.5450 -2.8877
   12SOL    HW2   36   0.103   2.912   1.316  1.3258 -0.6440 -0.8780
   13SOL     OW   37   0.938   0.006   0.426  0.2123  0.0516  0.3214
   13SOL    HW1   38   1.036   0.022   0.443  1.8768  1.2199  0.1532
   13SOL    HW2   39   0.906   0.065   0.346  0.5164 -0.8941  1.4405
   14SOL     OW   40   1.532   1.470   0.892  0.2002 -0.1493 -0.0492
   14SOL    HW1   41   1.440   1.459   0.936 -1.7428 -0.6682  0.5649
   14SOL    HW2   42   1.603   1.448   0.962 -2.3108  1.0422 -0.6313
   15SOL     OW   43   3.004   1.535   2.462  0.1011  0.0218  0.2283
   15SOL    HW1   44   2.989   1.467   2.537 -1.4380 -1.6432  0.7778
   15SOL    HW2   45   3.025   1.625   2.494 -0.8471  0.5287 -0.2350
   16SOL     OW   46   1.506   0.424   2.717  0.9683 -0.7995  0.3598
   16SOL    HW1   47   1.420   0.467   2.750  0.6903  0.4410  0.2483
   16SOL    HW2   48   1.581   0.496   2.726  2.6638  0.6020 -1.6695
   17SOL     OW   49   0.212   2.070   2.164 -0.2991  0.1192 -0.1197
   17SOL    HW1   50   0.264   2.074   2.253 -0.3640  0.8221 -0.0448
   17SOL    HW2   51   0.108   2.079   2.171 -0.5582  0.0504 -0.0643
   18SOL     OW   52   1.138   1.499   0.519  0.2158 -0.0606 -0.8934
   18SOL    HW1   53   1.193   1.537   0.596 -2.9615 -0.0122  0.1667
   18SOL    HW2   54   1.170   1.406   0.492  0.1427 -0.7980  1.1515
   19SOL     OW   55   2.484   1.395   2.526 -0.3965  0.2692  0.6484
   19SOL    HW1   56   2.471   1.345   2.617 -0.0639 -1.8112  0.1668
   19SOL    HW2   57   2.403   1.383   2.466  1.1799 -1.0741 -0.7933
   20SOL     OW   58   2.530   2.027   2.449  0.1221  0.4531  0.6525
   20SOL    HW1   59   2.483   2.027   2.360  1.8242 -0.1145  1.1537
   20SOL    HW2   60   2.558   2.120   2.485 -0.0700  2.5335  0.3711
   21SOL     OW   61   1.011   2.253   0.341 -0.1841  0.1322 -0.0616
   21SOL    HW1   62   1.091   2.229   0.283 -0.6486  0.0989 -0.5383
   21SOL    HW2   63   0.997   2.194   0.426  0.0679  0.6876 -0.3147
   22SOL     OW   64   2.238   2.205   1.315  0.1709  0.0171  0.2383
   22SOL    HW1   65   2.234   2.305   1.307 -0.0389  2.2169 -2.0035
   22SOL    HW2   66   2.149   2.173   1.281 -1.5755 -1.4225 -0.4691
   23SOL     OW   67   0.269   1.183   1.529  0.4483  0.3487  0.1068
   23SOL    HW1   68   0.281   1.211   1.623 -0.5134 -0.4057 -3.1149
   23SOL    HW2   69   0.328   1.110   1.502 -0.8971 -2.0408 -0.2336
   24SOL     OW   70   2.146   1.720   2.108  0.0980  0.4343  0.4187
   24SOL    HW1   71   2.087   1.648   2.139  3.8053 -0.1753 -3.0083
   24SOL    HW2   72   2.242   1.705   2.138 -3.0550 -1.2418 -1.4594
   25SOL     OW   73   1.907   0.634   2.324 -0.4260 -0.1507 -0.7147
   25SOL    HW1   74   1.894   0.563   2.248  0.3645 -1.0940 -0.1232
   25SOL    HW2   75   1.859   0.599   2.406 -0.7022 -1.7535 -0.3976
   26SOL     OW   76   1.484   0.307   0.577  0.4304 -0.3297  0.7740
   26SOL    HW1   77   1.450   0.403   0.568 -1.3911  0.6498  2.3332
   26SOL    HW2   78   1.589   0.303   0.569  3.4073  0.0952 -0.0765
   27SOL     OW   79   0.847   1.810   0.513 -0.1376  0.4296 -0.0398
   27SOL    HW1   80   0.773   1.874   0.488 -2.3122  0.1051 -1.0651
   27SOL    HW2   81   0.821   1.750   0.594 -0.9982 -3.2680  2.2715
   28SOL     OW   82   2.614   1.790   1.052  0.0259 -0.3614  0.0350
   28SOL    HW1   83   2.590   1.719   1.125  0.0435  1.7639  0.9316
   28SOL    HW2   84   2.537   1.855   1.041  1.9969  0.0826  0.8041
   29SOL     OW   85   2.337   2.797   1.640 -0.4571 -0.4584 -0.1840
   29SOL    HW1   86   2.251   2.844   1.652 -0.8978 -1.9976  0.2126
   29SOL    HW2   87   2.392   2.799   1.727 -3.8982 -1.4927 -0.7385
   30SOL     OW   88   0.790   0.098   1.299  0.1278 -0.1982 -0.1072
   30SOL    HW1   89   0.839   0.017   1.259 -0.9423 -3.2552 -0.0427
   30SOL    HW2   90   0.846   0.183   1.288 -0.6156  0.3806  2.3856
   31SOL     OW   91   2.905   2.307   1.803  0.1534  0.4067  0.8705
   31SOL    HW1   92   2.968   2.296   1.877 -1.5043  1.0993 -1.5545
   31SOL    HW2   93   2.927   2.394   1.753 -0.1346 -3.1757  0.6761
   32SOL     OW   94   1.512   1.465   1.737  0.6604  0.6037 -0.0011
   32SOL    HW1   95   1.427   1.509   1.708  0.3136 -0.3638 -1.8242
   32SOL    HW2   96   1.588   1.535   1.716  0.5577 -0.6292  1.9614
   33SOL     OW   97   0.201   0.251   2.961 -0.3433 -0.0826  0.1098
   33SOL    HW1   98   0.292   0.299   2.955 -0.5940  1.6289 -3.4351
   33SOL    HW2   99   0.198   0.187   3.042 -1.1973  0.0592 -3.1063
   34SOL     OW  100   2.350   0.127   0.778  0.4467 -0.5070 -0.3572
   34SOL    HW1  101   2.407   0.166   0.854  2.6495  4.4047 -0.2436
   34SOL    HW2  102   2.388   0.041   0.737  2.0446 -2.3546  0.2583
   35SOL     OW  103   2.625   0.064   1.634  0.1121 -0.9412  0.1908
   35SOL    HW1  104   2.622   3.057   1.602  0.3407  1.6391  2.5058
   35SOL    HW2  105   2.677   0.074   1.721  2.3212  0.7310 -0.6305
   36SOL     OW  106   2.732   2.619   2.602  0.1813  0.3229 -0.3069
   36SOL    HW1  107   2.727   2.722   2.618  1.9594  1.4001 -1.1956
   36SOL    HW2  108   2.829   2.591   2.605  0.5212  0.0028 -0.0204
   37SOL     OW  109   1.237   2.786   3.022  0.2379  1.0737 -0.0480
   37SOL    HW1  110   1.284   2.844   2.955  0.0605 -1.7419  0.6735
   37SOL    HW2  111   1.252   2.814   0.028  0.2959 -0.5901  0.4007
   38SOL     OW  112   2.665   1.074   2.870  0.4797 -0.1588  0.1978
   38SOL    HW1  113   2.721   1.070   2.957 -0.7116  0.9478 -1.2306
   38SOL    HW2  114   2.672   0.984   2.821 -1.7110  0.9163 -1.4070
   39SOL     OW  115   2.245   1.965   2.018 -0.0932  0.2330  0.1870
   39SOL    HW1  116   2.213   1.881   2.068  0.2462  2.9194  0.5210
   39SOL    HW2  117   2.198   2.049   2.050  0.2406 -2.1630 -0.6577
   40SOL     OW  118   0.398   0.152   2.658  0.2884 -0.2097 -0.0582
   40SOL    HW1  119   0.415   0.085   2.735  1.0719  0.3989  0.0175
   40SOL    HW2  120   0.476   0.210   2.632  1.4264  4.1428  1.8685
   41SOL     OW  121   1.474   1.166   1.261  0.0377 -0.1725 -0.0276
   41SOL    HW1  122   1.393   1.227   1.269  1.8143 -2.3814  1.4687
   41SOL    HW2  123   1.544   1.182   1.329 -0.6887 -1.3919 -3.0769
   42SOL     OW  124   0.055   0.278   1.895 -0.3164 -0.5108 -0.4940
   42SOL    HW1  125   0.004   0.341   1.837  0.3281 -1.6122  0.7046
   42SOL    HW2  126   0.032   0.275   1.995  0.0408 -0.6332 -1.1256
   43SOL     OW  127   1.443   1.301   2.027 -0.6245  0.0125 -0.2326
   43SOL    HW1  128   1.479   1.205   2.020  0.3680 -0.9015 -1.0321
   43SOL    HW2  129   1.496   1.367   1.973  1.3310  0.4485  1.1697
   44SOL     OW  130   3.002   0.120   0.068 -0.9408  0.0413 -0.0459
   44SOL    HW1  131   3.034   0.070   3.076 -1.4532 -0.8859  1.6365
   44SOL    HW2  132   3.079   0.124   0.133  0.1724  0.0894 -1.4295
   45SOL     OW  133   0.569   2.054   1.190  0.2736  0.2013 -0.3093
   45SOL    HW1  134   0.572   2.111   1.276  1.0689  3.0702  1.7407
   45SOL    HW2  135   0.503   1.975   1.206 -2.6740 -0.7184  0.9715
   46SOL     OW  136   2.506   2.501   1.830 -0.0569 -0.3582 -0.1894
   46SOL    HW1  137   2.490   2.602   1.838 -0.1883 -1.1225 -2.0380
   46SOL    HW2  138   2.521   2.481   1.730  3.5454 -1.0497 -0.2353
   47SOL     OW  139   0.880   1.887   1.320 -0.0051  0.2612  0.0885
   47SOL    HW1  140   0.891   1.930   1.409 -1.6416  1.3564  0.7846
   47SOL    HW2  141   0.795   1.825   1.321 -0.5272 -2.7148  0.5195
   48SOL     OW  142   0.415   2.534   0.253 -0.6900  0.0980  0.3011
   48SOL    HW1  143   0.379   2.453   0.307  2.4477 -2.4083  0.1515
   48SOL    HW2  144   0.383   2.619   0.297  2.7186 -0.4390  0.6828
   49SOL     OW  145   2.865   1.583   1.934 -0.1621 -0.2136 -0.5788
   49SOL    HW1  146   2.876   1.586   2.036 -1.4265  1.5471 -0.3109
   49SOL    HW2  147   2.765   1.602   1.912 -0.9976 -0.5733  0.9904
   50SOL     OW  148   2.055   0.945   0.618 -0.5367 -0.3991 -0.0671
   50SOL    HW1  149   2.015   0.908   0.532  0.6877 -0.3619  0.2382
   50SOL    HW2  150   2.041   0.891   0.698 -0.6175  2.7982 -1.6202
   51SOL     OW  151   1.126   0.889   1.023 -0.5092  0.1092  0.3047
   51SOL    HW1  152   1.139   0.893   1.123 -0.0982  1.3952 -4.4528
   51SOL    HW2  153   1.053   0.823   0.998 -1.2377  0.1306  0.6088
   52SOL     OW  154   1.053   1.584   0.278  0.2159 -0.2467  0.3137
   52SOL    HW1  155   1.100   1.557   0.365 -1.6480 -0.1427  1.7408
   52SOL    HW2  156   0.966   1.632   0.305 -4.2726  3.0270  1.8608
   53SOL     OW  157   1.008   2.430   2.605  0.1697 -0.5393 -0.1212
   53SOL    HW1  158   1.032   2.334   2.629 -0.0273  1.4080  0.6226
   53SOL    HW2  159   1.082   2.488   2.640  1.9698 -0.7226 -1.0216
   54SOL     OW  160   1.685   0.598   1.609  0.2311 -0.1099  0.0254
   54SOL    HW1  161   1.647   0.516   1.656 -0.0374 -1.6668  3.2397
   54SOL    HW2  162   1.758   0.569   1.544  1.9666  0.4387 -1.9459
   55SOL     OW  163   2.538   2.510   0.097 -0.2619  0.6510  0.3079
   55SOL    HW1  164   2.495   2.601   0.098  1.1835  0.0263  0.1683
   55SOL    HW2  165   2.632   2.528   0.120 -5.4296 -0.0242  0.9216
   56SOL     OW  166   0.745   2.343   1.790  0.2709 -0.4639 -0.0322
   56SOL    HW1  167   0.647   2.339   1.827 -0.9507  2.3367  1.6127
   56SOL    HW2  168   0.759   2.422   1.728  0.3695  1.2984 -2.7064
   57SOL     OW  169   1.512   0.881   2.423 -0.5477  0.0669  0.1340
   57SOL    HW1  170   1.527   0.789   2.396 -2.0427  1.4644 -0.2210
   57SOL    HW2  171   1.501   0.885   2.521  2.3678  1.0840 -2.4016
   58SOL     OW  172   3.029   1.155   1.994  0.5721  0.0514 -0.1376
   58SOL    HW1  173   0.017   1.167   2.056  2.1513  0.2318  0.1353
   58SOL    HW2  174   3.036   1.208   1.908 -4.2045  2.0920  2.1788
   59SOL     OW  175   0.482   2.850   2.478  0.3718  0.4960 -0.1545
   59SOL    HW1  176   0.538   2.834   2.393 -0.7369  1.8175 -0.6479
   59SOL    HW2  177   0.415   2.775   2.496 -1.1610  1.0634  0.4269
   60SOL     OW  178   2.637   2.285   0.384 -0.1225 -0.2326  0.1888
   60SOL    HW1  179   2.650   2.180   0.388  2.3195 -1.4298 -0.2819
   60SOL    HW2  180   2.702   2.332   0.326  1.6238 -1.8463  0.6054
   61SOL     OW  181   0.843   2.824   0.439  0.4549 -0.1124 -0.2590
   61SOL    HW1  182   0.879   2.765   0.363  1.7054  0.1072  0.3322
   61SOL    HW2  183   0.889   2.912   0.427  2.4557  0.2288 -3.1922
   62SOL     OW  184   1.876   2.571   2.609 -0.4628  0.1268  0.3952
   62SOL    HW1  185   1.883   2.520   2.520 -0.9366  0.6476 -4.6867
   62SOL    HW2  186   1.930   2.656   2.599 -0.9705 -0.9131  0.7648
   63SOL     OW  187   2.091   0.497   3.016  0.3172  0.1748 -0.1866
   63SOL    HW1  188   2.082   0.447   2.923 -1.4974  0.8883 -1.9916
   63SOL    HW2  189   2.127   0.439   0.001  3.5156 -1.5473  0.1363
   64SOL     OW  190   0.853   1.153   2.708 -0.4342 -0.3827  0.1251
   64SOL    HW1  191   0.944   1.130   2.750 -2.1954  0.2440  0.5462
   64SOL    HW2  192   0.784   1.112   2.771 -1.6535 -0.5572  0.8383
   65SOL     OW  193   1.379   3.042   0.813  0.2332  0.0325 -0.2983
   65SOL    HW1  194   1.410   2.996   0.726  0.0637  1.3897  0.0636
   65SOL    HW2  195   1.412   0.049   0.830  2.4025 -1.2109  4.5307
   66SOL     OW  196   0.612   1.532   1.735  0.4267 -0.3325  0.2626
   66SOL    HW1  197   0.692   1.561   1.681 -1.8223 -0.2649  1.1230
   66SOL    HW2  198   0.608   1.580   1.828  1.9330  0.1958  2.0201
   67SOL     OW  199   2.244   2.796   2.143  0.5941 -0.6200  0.4602
   67SOL    HW1  200   2.265   2.700   2.115 -0.2846  1.4161 -0.4520
   67SOL    HW2  201   2.322   2.858   2.128 -1.3463  0.7904 -0.1356
   68SOL     OW  202   0.702   0.692   1.622 -1.1325  0.1026 -0.6105
   68SOL    HW1  203   0.761   0.779   1.629 -0.8005  0.1080  1.3713
   68SOL    HW2  204   0.653   0.696   1.534  1.0509 -1.2478  1.7553
   69SOL     OW  205   2.157   2.441   0.123 -0.1508 -0.3506  0.1279
   69SOL    HW1  206   2.173   2.521   0.184 -0.9002  0.1755  1.4464
   69SOL    HW2  207   2.236   2.402   0.075 -0.3892 -0.7588 -0.5416
   70SOL     OW  208   2.404   0.779   2.789  0.0320  0.0552 -0.0817
   70SOL    HW1  209   2.503   0.799   2.791 -2.7572 -1.0127 -2.1356
   70SOL    HW2  210   2.382   0.715   2.862  0.9853 -0.9036 -0.9562
   71SOL     OW  211   3.023   2.200   0.295 -0.1329 -0.4206  0.6387
   71SOL    HW1  212   2.999   2.137   0.367  1.5691  0.5767  1.2113
   71SOL    HW2  213   2.943   2.230   0.241 -1.3305 -1.3238 -1.2090
   72SOL     OW  214   3.003   1.994   0.469 -0.1577  1.0007  0.4747
   72SOL    HW1  215   2.973   2.068   0.532  0.8521 -0.0964 -1.3320
   72SOL    HW2  216   2.977   1.899   0.504 -0.2424 -1.1471  1.6417
   73SOL     OW  217   1.000   0.826   0.584 -0.1249  0.7289  0.3748
   73SOL    HW1  218   0.922   0.766   0.543 -3.2591 -1.3660  0.4359
   73SOL    HW2  219   0.970   0.921   0.606  2.2013  1.4191 -0.4536
   74SOL     OW  220   0.204   1.698   1.958 -0.3280 -0.6424  0.2754
   74SOL    HW1  221   0.255   1.671   2.038 -1.2632 -0.2971 -0.7201
   74SOL    HW2  222   0.191   1.800   1.945 -0.2655  2.4573  1.1812
   75SOL     OW  223   1.720   1.516   1.273 -0.1760  0.0378  0.3186
   75SOL    HW1  224   1.813   1.546   1.245  0.8748  0.9843  0.8426
   75SOL    HW2  225   1.727   1.494   1.367  0.5183  1.6174  0.9426
   76SOL     OW  226   1.679   1.968   0.933  0.2564 -0.3803  0.3023
   76SOL    HW1  227   1.668   1.886   0.868  1.2970  1.0547  0.6457
   76SOL    HW2  228   1.640   1.945   1.023  1.6470  0.6174  1.0472
   77SOL     OW  229   2.364   1.602   1.949 -0.0688 -0.0581  0.7149
   77SOL    HW1  230   2.397   1.608   2.044 -2.5513 -0.5298 -1.2630
   77SOL    HW2  231   2.344   1.695   1.911 -1.5117  0.0174  1.5425
   78SOL     OW  232   1.472   0.834   0.752  0.3575 -0.2558  0.2251
   78SOL    HW1  233   1.460   0.902   0.681  1.1072  4.2124  0.6235
   78SOL    HW2  234   1.481   0.743   0.711 -2.1007  3.8524 -0.2979
   79SOL     OW  235   2.180   1.841   1.552  0.6238 -0.3062 -0.1271
   79SOL    HW1  236   2.243   1.780   1.502 -1.5756  3.6163  0.5515
   79SOL    HW2  237   2.220   1.933   1.553 -1.4740 -0.2892 -0.4929
   80SOL     OW  238   1.008   0.279   1.327 -0.0845  0.2929 -0.2495
   80SOL    HW1  239   0.976   0.290   1.424 -1.3035 -1.3816 -2.2479
   80SOL    HW2  240   1.057   0.192   1.309  3.0425 -1.4377  0.0329
   81SOL     OW  241   0.349   2.418   0.727 -0.4449 -0.2962 -0.5643
   81SOL    HW1  242   0.354   2.321   0.758 -0.1893  1.8771 -0.9390
   81SOL    HW2  243   0.433   2.475   0.736  0.0943 -1.5778  2.8933
   82SOL     OW  244   1.315   0.181   1.743  0.4912  0.6734 -0.0558
   82SOL    HW1  245   1.236   0.153   1.805  1.0808 -1.5895  1.1912
   82SOL    HW2  246   1.298   0.274   1.698 -1.0033 -0.9168  0.4048
   83SOL     OW  247   0.636   1.660   0.622 -0.0496 -0.1759  0.2177
   83SOL    HW1  248   0.569   1.735   0.624 -3.4855 -0.5154 -0.5670
   83SOL    HW2  249   0.681   1.641   0.710 -0.0104 -1.0299  0.8724
   84SOL     OW  250   2.664   1.244   0.297 -0.5839  0.0235 -0.2055
   84SOL    HW1  251   2.595   1.292   0.241  0.6837  0.5939  2.5576
   84SOL    HW2  252   2.672   1.146   0.279  0.7728  2.4732 -1.2427
   85SOL     OW  253   3.009   2.665   1.206  0.1513 -0.0387 -0.2681
   85SOL    HW1  254   3.032   2.761   1.238 -0.3955  2.4864  0.5895
   85SOL    HW2  255   2.966   2.606   1.282  0.6780  0.0156 -1.3805
   86SOL     OW  256   1.861   2.699   0.957 -0.3826  0.2693 -0.7538
   86SOL    HW1  257   1.896   2.660   1.044  3.4350 -2.1188  2.3247
   86SOL    HW2  258   1.793   2.642   0.909 -0.3608 -1.0778  0.1814
   87SOL     OW  259   2.933   1.740   0.549  0.2480  0.4192  0.3253
   87SOL    HW1  260   2.865   1.680   0.592 -1.0081 -2.1921 -2.1412
   87SOL    HW2  261   2.959   1.706   0.457  0.4222 -0.7732  3.6448
   88SOL     OW  262   1.130   0.779   1.278  0.4619  0.0446 -0.5272
   88SOL    HW1  263   1.118   0.679   1.265  0.9405 -1.7960 -1.0167
   88SOL    HW2  264   1.218   0.806   1.321 -1.3396  0.0045 -0.2206
   89SOL     OW  265   0.838   2.694   1.884  0.2575 -0.3386  0.0033
   89SOL    HW1  266   0.806   2.788   1.859  0.7276 -1.7330  2.5514
   89SOL    HW2  267   0.775   2.662   1.954 -3.0296  2.1893  1.0149
   90SOL     OW  268   2.962   1.765   1.194  0.0609  0.3447 -0.2353
   90SOL    HW1  269   3.041   1.737   1.134  0.6558  3.0320  0.0743
   90SOL    HW2  270   2.957   1.864   1.181 -0.0817 -0.2665 -2.0800
   91SOL     OW  271   1.096   2.135   0.991 -0.3367 -0.2176 -0.0285
   91SOL    HW1  272   1.162   2.215   0.972  1.2350  1.0305  0.2919
   91SOL    HW2  273   1.078   2.077   0.911  0.6338  2.2021  0.4164
   92SOL     OW  274   2.887   2.780   1.833 -0.1549 -0.3124 -0.1020
   92SOL    HW1  275   2.977   2.816   1.841 -2.0756  0.3028 -0.7440
   92SOL    HW2  276   2.815   2.843   1.873 -2.8633  0.7621 -0.2195
   93SOL     OW  277   2.993   1.233   0.008  0.2510  0.1362  0.3673
   93SOL    HW1  278   3.024   1.205   3.005 -0.2340 -0.9835 -0.7353
   93SOL    HW2  279   2.917   1.169   0.036 -1.5869 -1.9685  0.2766
   94SOL     OW  280   2.471   2.775   1.876 -0.6802 -0.1396 -0.4278
   94SOL    HW1  281   2.547   2.838   1.912 -0.0675  1.3183 -0.0169
   94SOL    HW2  282   2.382   2.792   1.924  0.1000  1.0344 -0.1432
   95SOL     OW  283   1.476   0.612   1.942 -0.6993 -0.0994  0.0783
   95SOL    HW1  284   1.381   0.609   1.976  1.0737  0.2857 -0.6812
   95SOL    HW2  285   1.528   0.529   1.962 -1.1532 -1.2876 -2.9956
   96SOL     OW  286   2.630   0.352   1.686  0.3076  0.5149 -0.2216
   96SOL    HW1  287   2.608   0.447   1.652 -3.0645  0.4027 -1.3759
   96SOL    HW2  288   2.671   0.295   1.614 -1.3516 -0.5693 -0.8192
   97SOL     OW  289   2.574   2.903   1.534 -0.3867  0.2731  0.1686
   97SOL    HW1  290   2.644   2.835   1.562 -0.8913 -1.6506  0.4566
   97SOL    HW2  291   2.485   2.871   1.560 -1.8107  3.5858 -1.7071
   98SOL     OW  292   1.990   2.773   1.258  0.0291  0.5632 -0.1663
   98SOL    HW1  293   2.030   2.717   1.335 -0.3079  2.6520 -2.4662
   98SOL    HW2  294   1.891   2.786   1.262  0.3942  0.9967  1.0170
   99SOL     OW  295   2.734   0.359   1.958 -0.1406  0.2935  0.3798
   99SOL    HW1  296   2.730   0.454   1.997 -0.2000  3.8657  3.2808
   99SOL    HW2  297   2.703   0.360   1.861  0.4593  0.3521  0.2298
  100SOL     OW  298   1.936   1.466   1.805  0.1613  0.3335  0.2636
  100SOL    HW1  299   1.861   1.483   1.878 -1.0315  1.8926 -1.9149
  100SOL    HW2  300   1.975   1.373   1.814 -1.8494  1.8067 -1.2643
  101SOL     OW  301   1.971   0.324   0.344 -0.4741  0.0471  0.5857
  101SOL    HW1  302   1.981   0.265   0.425 -1.3348  1.8986  0.1229
  101SOL    HW2  303   2.061   0.363   0.325 -0.3380  0.0677  1.1379
  102SOL     OW  304   0.393   0.590   1.270 -0.5457  0.1327 -0.8114
  102SOL    HW1  305   0.293   0.587   1.245 -1.1567 -0.9390 -0.1765
  102SOL    HW2  306   0.446   0.509   1.236 -0.1069  0.0936 -0.6482
  103SOL     OW  307   2.458   0.184   2.569 -0.3352  0.2683  0.2633
  103SOL    HW1  308   2.548   0.232   2.585 -1.3774  1.8206 -0.4916
  103SOL    HW2  309   2.409   0.177   2.654  2.8448 -1.7603 -1.1663
  104SOL     OW  310   0.065   2.907   1.754  0.7413  0.0707 -0.3910
  104SOL    HW1  311   0.110   2.837   1.700  0.1169  1.2277 -2.2357
  104SOL    HW2  312   0.090   3.002   1.734 -0.6322 -0.0543  1.3337
  105SOL     OW  313   1.659   0.834   2.026 -0.2040  0.1809  0.3766
  105SOL    HW1  314   1.619   0.920   2.055 -0.3230 -0.5711 -4.7685
  105SOL    HW2  315   1.589   0.757   2.032  1.6055 -1.6268  1.7283
  106SOL     OW  316   1.674   0.368   0.820 -0.0625  0.0528 -0.2197
  106SOL    HW1  317   1.738   0.329   0.888 -0.3958  2.1326  0.9116
  106SOL    HW2  318   1.702   0.351   0.721  4.1539 -0.5361 -2.0374
  107SOL     OW  319   0.674   1.238   1.168  0.1644  0.5443  0.4724
  107SOL    HW1  320   0.637   1.235   1.264 -1.2591  0.0040  1.1023
  107SOL    HW2  321   0.744   1.171   1.150 -1.1366  0.0268  0.7915
  108SOL     OW  322   2.964   0.429   2.721 -0.0750 -0.5494  0.1062
  108SOL    HW1  323   2.925   0.342   2.690 -3.0120  0.7447  0.9134
  108SOL    HW2  324   3.019   0.418   2.808  0.0124  0.9775  0.7723
  109SOL     OW  325   2.038   0.191   0.108  0.4535  0.1807  0.0169
  109SOL    HW1  326   2.004   0.093   0.118  1.9759 -1.6084 -2.3047
  109SOL    HW2  327   2.007   0.250   0.183  3.8258 -0.9077 -3.4578
  110SOL     OW  328   0.025   1.823   2.846  0.0296 -0.4040 -0.2750
  110SOL    HW1  329   0.061   1.902   2.901  0.3043 -2.8670  2.1034
  110SOL    HW2  330   0.039   1.738   2.898 -0.0919  3.6381 -3.0882
  111SOL     OW  331   2.349   0.305   2.353 -0.1073 -0.0890  0.2943
  111SOL    HW1  332   2.393   0.265   2.272  2.3495  1.8193 -0.8227
  111SOL    HW2  333   2.396   0.256   2.433 -1.1184  0.6957 -3.5982
  112SOL     OW  334   2.594   2.934   1.273 -0.3430 -0.6442  0.2553
  112SOL    HW1  335   2.550   2.857   1.222  1.1723  0.4768 -1.6808
  112SOL    HW2  336   2.587   2.926   1.371 -0.8941  1.6783  0.6267
  113SOL     OW  337   2.572   2.358   2.066  0.2027 -0.0366 -0.7718
  113SOL    HW1  338   2.568   2.386   1.970  1.2879 -0.5132  1.5810
  113SOL    HW2  339   2.566   2.437   2.134 -0.3529 -0.1504  0.7991
  114SOL     OW  340   2.625   0.117   0.598 -0.0509 -0.6939  0.2495
  114SOL    HW1  341   2.632   0.070   0.688 -1.5741  2.3261  0.4002
  114SOL    HW2  342   2.664   0.211   0.614  3.3490  0.1617 -1.5498
  115SOL     OW  343   2.771   1.774   0.163  0.1453 -0.5677 -0.8031
  115SOL    HW1  344   2.867   1.808   0.167 -0.2915 -2.8311  3.3469
  115SOL    HW2  345   2.777   1.681   0.209  0.4242  0.6830  2.7630
  116SOL     OW  346   0.152   1.435   1.889 -0.1771 -0.2995  0.0593
  116SOL    HW1  347   0.156   1.537   1.905  0.2786 -0.7487  0.1108
  116SOL    HW2  348   0.054   1.412   1.865 -1.5909 -1.8032  1.6195
  117SOL     OW  349   2.449   2.736   1.148 -0.4232 -0.1523  0.0463
  117SOL    HW1  350   2.497   2.678   1.075  0.8978 -0.7925 -2.4753
  117SOL    HW2  351   2.344   2.737   1.151 -2.7525  0.1148  1.5274
  118SOL     OW  352   0.226   2.173   1.729 -0.4391  0.2265  0.3422
  118SOL    HW1  353   0.193   2.115   1.655  0.5564  1.2358  0.3271
  118SOL    HW2  354   0.294   2.237   1.691  0.9869  0.5377  2.5656
  119SOL     OW  355   1.254   2.328   1.283 -0.1127  0.0609  0.3160
  119SOL    HW1  356   1.218   2.414   1.237  1.0784 -1.3722  0.5255
  119SOL    HW2  357   1.180   2.266   1.317  2.1890  1.9520  0.2090
  120SOL     OW  358   0.183   1.970   1.534  0.0994  0.2442  0.3402
  120SOL    HW1  359   0.094   1.927   1.548 -1.0525 -1.4060  3.2845
  120SOL    HW2  360   0.256   1.915   1.577 -4.6274 -0.3767 -0.6170
  121SOL     OW  361   2.558   1.502   0.934  0.4313  0.0817 -0.0240
  121SOL    HW1  362   2.611   1.532   1.019 -1.2089  0.7418 -0.0778
  121SOL    HW2  363   2.472   1.552   0.917 -0.9148 -0.3627 -0.4453
  122SOL     OW  364   2.202   1.710   2.515  0.1079 -0.5356 -0.1540
  122SOL    HW1  365   2.168   1.687   2.608 -1.3963  0.4506  0.8979
  122SOL    HW2  366   2.186   1.809   2.507  0.8597  1.5789  0.4675
  123SOL     OW  367   2.538   2.779   0.593  0.3031  0.4884 -0.7504
  123SOL    HW1  368   2.622   2.746   0.642  0.6967  0.8026  1.9007
  123SOL    HW2  369   2.473   2.706   0.554 -2.0661  0.4239 -2.1129
  124SOL     OW  370   1.411   1.220   2.982 -0.2383 -0.0234  0.5877
  124SOL    HW1  371   1.355   1.218   3.067 -0.7293  0.4429 -1.6449
  124SOL    HW2  372   1.365   1.278   2.911 -0.6180 -0.8027  0.4083
  125SOL     OW  373   0.225   1.408   2.843  0.5419  0.2654  0.0901
  125SOL    HW1  374   0.224   1.460   2.756 -1.0775  1.2857  3.7476
  125SOL    HW2  375   0.316   1.368   2.856 -0.2587  1.2058 -0.6353
  126SOL     OW  376   0.207   2.224   0.252  0.0730  0.1345  0.0700
  126SOL    HW1  377   0.237   2.286   0.327  0.4352  1.7251  3.8313
  126SOL    HW2  378   0.108   2.199   0.261 -2.1526 -1.8519 -0.8155
  127SOL     OW  379   0.260   1.620   0.818  0.0015 -0.7450  0.0991
  127SOL    HW1  380   0.245   1.532   0.868 -1.7738  2.4057  0.1695
  127SOL    HW2  381   0.257   1.601   0.719  1.0097  2.6953  1.9288
  128SOL     OW  382   1.237   1.161   0.106  0.5758 -0.4240  0.2679
  128SOL    HW1  383   1.314   1.152   0.166 -0.9317  1.3722 -4.5366
  128SOL    HW2  384   1.177   1.078   0.109  1.1115  0.4336 -0.9219
  129SOL     OW  385   2.263   1.888   1.257  0.4602  0.3379  0.3358
  129SOL    HW1  386   2.193   1.950   1.288 -1.0819  0.0407 -1.6329
  129SOL    HW2  387   2.304   1.836   1.331  1.7281 -0.5003  2.0112
  130SOL     OW  388   1.663   0.967   0.426 -0.4977  0.4529  0.2370
  130SOL    HW1  389   1.675   1.010   0.515 -2.5676 -0.2374 -3.3450
  130SOL    HW2  390   1.701   0.873   0.424 -0.2140 -1.0334  0.7753
  131SOL     OW  391   2.779   1.201   2.668  0.9938  0.1652 -0.6220
  131SOL    HW1  392   2.740   1.162   2.757 -2.5614 -0.7770  2.2000
  131SOL    HW2  393   2.784   1.302   2.673 -0.6388  0.7453 -0.4496
  132SOL     OW  394   1.803   1.703   1.919 -0.0220  0.2831  0.1069
  132SOL    HW1  395   1.830   1.687   1.822  1.1498 -1.4798  1.7316
  132SOL    HW2  396   1.855   1.784   1.957  2.0774  0.9603  0.1026
  133SOL     OW  397   0.131   1.338   0.097 -0.3009  0.1782  0.2839
  133SOL    HW1  398   0.052   1.285   0.067  1.3946  1.0794  2.3282
  133SOL    HW2  399   0.135   1.359   0.197  0.8545 -1.3364  0.5109
  134SOL     OW  400   2.727   0.969   0.606 -0.3653 -0.4312  0.1595
  134SOL    HW1  401   2.672   1.024   0.539  0.7136  1.0342 -2.4507
  134SOL    HW2  402   2.810   1.020   0.638 -0.1100 -0.3911 -0.8801
  135SOL     OW  403   2.373   1.033   0.118 -0.0902 -0.1155  0.1065
  135SOL    HW1  404   2.314   1.108   0.144  0.3604 -2.5394 -1.7975
  135SOL    HW2  405   2.345   1.004   0.022  0.8110 -1.5707  0.2618
  136SOL     OW  406   1.918   1.899   1.592  0.2842 -0.3806 -0.1233
  136SOL    HW1  407   1.913   1.950   1.678 -1.3296  2.8718  0.8383
  136SOL    HW2  408   2.007   1.870   1.560 -3.1989 -1.0232 -1.2717
  137SOL     OW  409   2.381   2.606   0.475  0.2076 -0.0608 -0.0857
  137SOL    HW1  410   2.372   2.533   0.405 -1.1894 -0.7375 -0.9464
  137SOL    HW2  411   2.357   2.572   0.568 -1.8142 -2.7094 -2.2145
  138SOL     OW  412   2.143   0.223   1.780  0.2890 -0.2360  0.2632
  138SOL    HW1  413   2.083   0.307   1.781  0.2192 -2.6227 -1.0504
  138SOL    HW2  414   2.240   0.242   1.798 -1.0240 -0.6344 -3.8239
  139SOL     OW  415   2.630   0.336   2.745 -0.3514  0.3197  0.2691
  139SOL    HW1  416   2.600   0.247   2.788  0.0330  1.2521  3.2544
  139SOL    HW2  417   2.657   0.404   2.817  2.1239 -3.0404 -1.5531
  140SOL     OW  418   1.327   1.428   2.506 -0.0995  0.1447 -0.5537
  140SOL    HW1  419   1.385   1.443   2.426  1.9960  0.6625 -0.0878
  140SOL    HW2  420   1.252   1.497   2.529 -0.9263  1.4039  1.1342
  141SOL     OW  421   0.648   0.544   2.048  0.4605  0.2187 -0.2354
  141SOL    HW1  422   0.603   0.460   2.084  0.8738 -0.5244  0.7347
  141SOL    HW2  423   0.574   0.617   2.038  1.5824  0.7555  0.9867
  142SOL     OW  424   2.446   2.667   2.891 -0.6440 -0.9929 -0.4610
  142SOL    HW1  425   2.487   2.734   2.959  0.8464 -1.3508  2.6571
  142SOL    HW2  426   2.403   2.720   2.813  0.5839 -1.1754 -2.8520
  143SOL     OW  427   0.946   2.131   0.609  0.1780  0.4695 -0.0372
  143SOL    HW1  428   0.849   2.156   0.626  2.1699  1.8800  0.1510
  143SOL    HW2  429   0.983   2.053   0.666 -0.4852  2.0744 -2.2083
  144SOL     OW  430   1.096   2.674   0.328  0.0818  0.1415  0.1182
  144SOL    HW1  431   1.029   2.608   0.359  0.5527  1.3037  1.1151
  144SOL    HW2  432   1.051   2.734   0.261 -2.3537 -4.7812  1.4997
  145SOL     OW  433   1.772   1.965   2.403 -0.2882  0.3552 -0.2546
  145SOL    HW1  434   1.773   2.013   2.492  2.4033 -0.8499  1.6022
  145SOL    HW2  435   1.700   1.891   2.398 -0.8422 -0.3720  1.8099
  146SOL     OW  436   2.805   2.546   2.928 -0.0351  0.0316  0.3858
  146SOL    HW1  437   2.798   2.644   2.943  0.0917 -2.2171 -0.6100
  146SOL    HW2  438   2.712   2.525   2.891  0.3013  1.8873  0.1906
  147SOL     OW  439   3.043   1.341   1.356 -0.1092  0.0283  0.2987
  147SOL    HW1  440   0.045   1.372   1.386 -0.5583 -0.0952 -1.5301
  147SOL    HW2  441   2.996   1.417   1.306 -0.6188  4.4729  1.7866
  148SOL     OW  442   1.903   3.045   0.108 -0.3504  0.2280 -0.1628
  148SOL    HW1  443   1.815   3.004   0.150 -1.1061 -1.1769 -0.4246
  148SOL    HW2  444   1.909   3.016   0.011 -0.1769  0.4110  1.6899
  149SOL     OW  445   0.648   1.825   2.688 -0.1398 -0.1036  0.1880
  149SOL    HW1  446   0.554   1.800   2.662  0.4864  0.5514 -1.0966
  149SOL    HW2  447   0.653   1.872   2.780  1.8922  0.4915  0.2069
  150SOL     OW  448   0.355   2.355   0.451  0.1422  0.1657  0.0478
  150SOL    HW1  449   0.449   2.331   0.432 -1.2606  1.1485  1.3016
  150SOL    HW2  450   0.335   2.392   0.547 -1.8553 -2.5684  0.7962
  151SOL     OW  451   0.509   1.322   0.334  0.2708  0.0928  0.8876
  151SOL    HW1  452   0.446   1.245   0.362 -1.3077 -0.4501  1.3505
  151SOL    HW2  453   0.488   1.369   0.245  2.4376  3.2551 -0.7564
  152SOL     OW  454   2.552   1.988   0.623 -0.3168 -0.1350  0.0651
  152SOL    HW1  455   2.455   2.018   0.610 -0.9636 -0.3951  0.9824
  152SOL    HW2  456   2.609   1.987   0.539 -0.2668  1.4011 -0.7106
  153SOL     OW  457   1.865   2.343   0.475  0.5639  0.0949 -0.6385
  153SOL    HW1  458   1.815   2.297   0.398 -2.3926 -0.2204  0.6997
  153SOL    HW2  459   1.951   2.382   0.442 -2.7387  0.7791 -0.4498
  154SOL     OW  460   0.779   2.761   0.886  0.0252 -0.1042 -0.2553
  154SOL    HW1  461   0.753   2.746   0.789 -0.2441  1.7676  2.4267
  154SOL    HW2  462   0.700   2.806   0.935  0.0108  0.1852  0.6021
  155SOL     OW  463   3.021   1.796   0.808  0.0775  0.2564  0.0783
  155SOL    HW1  464   3.021   1.757   0.712  1.7290  0.7107 -1.8066
  155SOL    HW2  465   0.001   1.868   0.813 -0.4481  0.8603 -2.5497
  156SOL     OW  466   2.364   2.337   0.007  0.2109 -0.1231  0.0337
  156SOL    HW1  467   2.419   2.253   3.078 -0.4962 -0.4080 -0.0827
  156SOL    HW2  468   2.426   2.408   0.044 -1.7361 -1.3906 -0.2120
  157SOL     OW  469   0.418   1.846   1.617  0.2214 -0.2158 -0.5465
  157SOL    HW1  470   0.444   1.874   1.713  1.6031  0.2874  0.2171
  157SOL    HW2  471   0.492   1.855   1.546  0.8223 -0.3275 -2.0368
  158SOL     OW  472   1.628   0.825   0.076 -0.3538 -0.1473  0.0097
  158SOL    HW1  473   1.555   0.791   0.136 -1.1473 -0.1830 -0.3887
  158SOL    HW2  474   1.707   0.758   0.079  0.4302 -3.3682  3.0737
  159SOL     OW  475   1.056   0.969   0.121  0.5287  0.4634  0.6628
  159SOL    HW1  476   0.979   1.000   0.174  0.5116 -1.2026  1.9571
  159SOL    HW2  477   1.051   0.869   0.111 -0.9026 -0.6784 -2.2000
  160SOL     OW  478   0.875   1.492   0.557  0.1677 -0.1126 -0.3400
  160SOL    HW1  479   0.841   1.509   0.650 -1.8282 -2.9618  0.8179
  160SOL    HW2  480   0.975   1.512   0.544  1.8475  0.7233 -1.1116
  161SOL     OW  481   0.146   2.166   2.687 -0.5395  0.4158 -0.0432
  161SOL    HW1  482   0.043   2.176   2.680  0.8383  1.6874  1.9606
  161SOL    HW2  483   0.170   2.107   2.769 -0.6180  0.2543  2.4300
  162SOL     OW  484   0.025   2.365   1.009 -0.2691 -0.9936  0.2154
  162SOL    HW1  485   0.009   2.268   1.037 -1.1407 -0.9458  2.6111
  162SOL    HW2  486   0.079   2.417   1.076 -1.0424 -1.5678  0.9429
  163SOL     OW  487   2.880   0.659   2.828  0.4017 -0.0021 -0.0032
  163SOL    HW1  488   2.910   0.576   2.778 -2.2553 -1.8118  2.1861
  163SOL    HW2  489   2.939   0.678   2.913 -0.4604 -1.2266  2.0686
  164SOL     OW  490   0.489   3.074   2.851 -0.4050  0.2672 -0.2690
  164SOL    HW1  491   0.456   3.009   2.921  0.4064  0.2107  1.3491
  164SOL    HW2  492   0.551   3.020   2.788 -1.2699 -2.7323 -0.8407
  165SOL     OW  493   2.374   0.363   1.802 -0.2391  0.3312  0.2668
  165SOL    HW1  494   2.370   0.404   1.898  0.4530 -0.0799  2.3399
  165SOL    HW2  495   2.468   0.349   1.775 -1.5951 -0.4242  0.3428
  166SOL     OW  496   2.039   2.470   1.669  0.2056  0.6300  0.0800
  166SOL    HW1  497   2.050   2.367   1.678 -0.5612  1.8026  0.1802
  166SOL    HW2  498   2.043   2.515   1.758  1.4158  0.3122 -0.6819
  167SOL     OW  499   1.160   0.813   2.237 -0.3251  0.2241  0.3475
  167SOL    HW1  500   1.147   0.900   2.295  1.7669  0.7063  1.0880
  167SOL    HW2  501   1.207   0.737   2.288  0.8110  3.3038  1.1984
  168SOL     OW  502   2.402   3.010   2.083 -0.2073  0.3176 -0.0990
  168SOL    HW1  503   2.417   3.021   1.984 -0.1542 -0.4258 -2.0828
  168SOL    HW2  504   2.433   0.004   2.128 -0.5638 -2.2903 -0.6926
  169SOL     OW  505   0.331   1.114   0.366  0.1599 -0.3259 -0.2227
  169SOL    HW1  506   0.282   1.079   0.454 -3.6858 -1.0707 -2.1509
  169SOL    HW2  507   0.325   1.052   0.285  1.4122  0.9808  1.4678
  170SOL     OW  508   2.884   1.498   1.678 -0.2155  0.4474  0.3925
  170SOL    HW1  509   2.907   1.578   1.618  0.1447  0.7706  4.0219
  170SOL    HW2  510   2.879   1.525   1.778 -0.9688  0.6781  2.9679
  171SOL     OW  511   1.100   2.308   2.091 -0.4771 -0.0847 -0.4241
  171SOL    HW1  512   1.003   2.339   2.080 -0.7049 -0.7979  0.6585
  171SOL    HW2  513   1.117   2.257   2.176 -1.3209 -2.9701 -2.7617
  172SOL     OW  514   0.827   2.379   2.051  0.2441 -0.0323  0.3161
  172SOL    HW1  515   0.780   2.378   1.964  3.2338 -0.5397  2.2135
  172SOL    HW2  516   0.813   2.465   2.108 -2.5252  1.2353  3.5525
  173SOL     OW  517   1.243   2.634   0.872 -0.1640 -0.6472  0.4432
  173SOL    HW1  518   1.324   2.676   0.921 -2.0161  0.0420 -0.2996
  173SOL    HW2  519   1.273   2.619   0.773  0.8084  2.2970  1.3448
  174SOL     OW  520   2.221   0.435   0.407  0.2635 -0.1205  0.0489
  174SOL    HW1  521   2.192   0.527   0.447  0.0901  2.0863  0.8882
  174SOL    HW2  522   2.259   0.371   0.478  1.0717 -0.8500  1.9285
  175SOL     OW  523   1.076   1.892   0.431 -0.2250  0.6019 -0.3840
  175SOL    HW1  524   1.130   1.864   0.511  1.3000  0.3635 -1.8931
  175SOL    HW2  525   0.977   1.868   0.445  0.6857  0.4200 -1.5121
  176SOL     OW  526   0.826   1.545   0.829  0.0167  0.0888  0.2084
  176SOL    HW1  527   0.883   1.470   0.867 -0.5280  2.2296 -0.9464
  176SOL    HW2  528   0.761   1.580   0.897 -0.4954  1.8139 -2.3621
  177SOL     OW  529   1.347   0.909   1.357  0.4488  0.2069 -0.2652
  177SOL    HW1  530   1.391   0.991   1.313  0.3683 -0.5408  0.2759
  177SOL    HW2  531   1.417   0.848   1.397  0.7563 -0.8641 -1.3992
  178SOL     OW  532   2.477   1.513   0.385 -0.2004 -0.1293  0.2666
  178SOL    HW1  533   2.556   1.507   0.451 -1.9073  2.6055  0.6130
  178SOL    HW2  534   2.389   1.487   0.423 -0.0262  1.4799  1.4080
  179SOL     OW  535   0.821   2.297   3.055 -0.2021 -0.0931  0.7891
  179SOL    HW1  536   0.820   2.397   3.085 -0.5817  1.8990  0.6605
  179SOL    HW2  537   0.730   2.266   3.074  1.9749 -1.6940  1.4221
  180SOL     OW  538   1.861   1.430   1.528 -0.0658  0.1837 -0.2021
  180SOL    HW1  539   1.860   1.490   1.615  0.7937  0.4470 -1.3111
  180SOL    HW2  540   1.955   1.385   1.516  1.6576 -0.1446 -0.0785
  181SOL     OW  541   0.889   1.110   2.274  0.4191  0.1559 -0.0221
  181SOL    HW1  542   0.893   1.087   2.177  0.1554 -0.9133  3.5443
  181SOL    HW2  543   0.967   1.069   2.326 -0.1061  2.4543  1.7744
  182SOL     OW  544   2.902   1.096   2.334 -0.0982  0.2665  0.7307
  182SOL    HW1  545   2.821   1.116   2.391  3.2923 -3.6015  0.0652
  182SOL    HW2  546   2.858   1.052   2.251 -0.8028  1.8087  1.1528
  183SOL     OW  547   1.487   0.390   2.216 -0.8404  0.5622  0.3480
  183SOL    HW1  548   1.552   0.374   2.141  0.0568  1.3919 -0.2067
  183SOL    HW2  549   1.396   0.348   2.203 -1.0192  0.1106  0.4178
  184SOL     OW  550   0.301   0.650   1.766 -0.6643 -0.0694  0.3951
  184SOL    HW1  551   0.286   0.571   1.829 -1.3930 -0.8328 -1.3409
  184SOL    HW2  552   0.385   0.697   1.795  0.1193  0.0526  2.3790
  185SOL     OW  553   2.220   1.943   0.529 -0.1181  0.3415 -0.0582
  185SOL    HW1  554   2.274   1.895   0.458  0.1626 -0.5123  1.2086
  185SOL    HW2  555   2.248   1.904   0.624 -1.4985  0.0239  1.9257
  186SOL     OW  556   0.392   1.840   3.008 -0.7343 -0.0923 -0.0080
  186SOL    HW1  557   0.476   1.898   2.994  1.3760 -0.4744 -1.5091
  186SOL    HW2  558   0.388   1.787   0.006 -1.3184 -2.2080 -2.1449
  187SOL     OW  559   2.375   1.816   2.979 -0.3264  0.4782 -0.5704
  187SOL    HW1  560   2.371   1.762   2.891  0.6621 -0.2583  0.6069
  187SOL    HW2  561   2.471   1.848   2.995  1.1260  0.5243 -0.0461
  188SOL     OW  562   0.974   2.556   0.904  0.7462 -0.0108  0.0904
  188SOL    HW1  563   1.060   2.601   0.872 -0.2163  1.3036  0.0282
  188SOL    HW2  564   0.907   2.631   0.920 -0.4830  1.0892  1.6451
  189SOL     OW  565   1.851   0.961   2.500 -0.2106  0.5242  0.0724
  189SOL    HW1  566   1.823   0.929   2.404  0.5686 -1.1997 -0.8181
  189SOL    HW2  567   1.876   1.058   2.505 -0.7779  0.5222 -0.5910
  190SOL     OW  568   0.918   1.952   2.304 -1.0170 -0.1713 -0.1399
  190SOL    HW1  569   0.866   1.866   2.282 -1.1622 -0.5639  3.3084
  190SOL    HW2  570   0.881   1.999   2.385  0.3630  0.7384 -1.3020
  191SOL     OW  571   2.376   0.604   1.447  0.1110  0.0194 -0.2638
  191SOL    HW1  572   2.322   0.613   1.531  1.1308  2.0613 -2.9648
  191SOL    HW2  573   2.469   0.580   1.477 -0.7225  0.4177  0.0098
  192SOL     OW  574   2.369   0.574   2.336  0.4073 -0.2964 -0.2397
  192SOL    HW1  575   2.450   0.599   2.391  0.5841  0.8373  0.0840
  192SOL    HW2  576   2.338   0.475   2.345 -1.2835 -0.9651 -0.7170
  193SOL     OW  577   0.745   0.377   0.732  0.2901  0.2758 -0.2975
  193SOL    HW1  578   0.759   0.395   0.632  0.9520  0.2137  0.8429
  193SOL    HW2  579   0.699   0.291   0.745 -1.8837  2.1313  0.2858
  194SOL     OW  580   1.403   2.490   1.608 -0.7977 -0.9107 -0.6541
  194SOL    HW1  581   1.305   2.509   1.623  1.5826  1.1112 -0.8524
  194SOL    HW2  582   1.437   2.431   1.686  2.1080 -0.1355 -2.1200
  195SOL     OW  583   2.663   0.864   0.899  0.2372 -0.2267  0.4307
  195SOL    HW1  584   2.596   0.922   0.950  1.6185 -0.1744 -0.0392
  195SOL    HW2  585   2.646   0.884   0.800 -1.1948  0.2295 -2.0374
  196SOL     OW  586   1.246   1.852   1.728 -0.0547 -0.2835 -0.2265
  196SOL    HW1  587   1.225   1.921   1.657 -0.6118 -0.7780  0.4542
  196SOL    HW2  588   1.170   1.838   1.795  1.4375 -2.6455  1.2169
  197SOL     OW  589   0.399   0.738   2.398  0.2538  0.0488 -0.0289
  197SOL    HW1  590   0.371   0.730   2.300 -2.5942  0.7029  1.2547
  197SOL    HW2  591   0.344   0.665   2.443  0.3238 -0.5772 -1.5053
  198SOL     OW  592   1.483   1.120   0.261  0.1876 -0.2042  0.1170
  198SOL    HW1  593   1.558   1.085   0.318 -0.5709  2.2477  0.7738
  198SOL    HW2  594   1.516   1.191   0.194 -0.3023  1.1228  0.2308
  199SOL     OW  595   2.625   0.615   2.139 -0.4902  0.0220  0.6017
  199SOL    HW1  596   2.561   0.548   2.180  0.5204 -1.0857 -0.3734
  199SOL    HW2  597   2.601   0.709   2.171  1.2182  0.4745  1.0513
  200SOL     OW  598   2.268   2.625   2.500  0.0416 -0.7604  0.0656
  200SOL    HW1  599   2.361   2.644   2.474 -2.6170 -0.5735 -0.3486
  200SOL    HW2  600   2.248   2.537   2.546 -0.3232 -0.4370  0.0677
  201SOL     OW  601   2.232   0.105   1.421 -0.1439 -0.1092 -0.1688
  201SOL    HW1  602   2.155   0.110   1.488 -0.0951 -0.1977  1.3976
  201SOL    HW2  603   2.217   0.023   1.361  0.1962 -2.7315  2.1436
  202SOL     OW  604   2.267   3.090   3.056 -0.0882  0.5084 -0.0045
  202SOL    HW1  605   2.305   0.014   0.059  0.0610 -3.1491  0.7939
  202SOL    HW2  606   2.213   0.076   3.024 -0.2604 -2.2799 -0.1081
  203SOL     OW  607   0.802   2.037   2.555  0.3028 -0.3832  0.3614
  203SOL    HW1  608   0.762   1.959   2.607  2.2029 -3.2314  1.4224
  203SOL    HW2  609   0.800   2.119   2.616 -3.8018  0.8926  0.7804
  204SOL     OW  610   0.827   1.415   2.630  0.1455  0.0777 -0.2607
  204SOL    HW1  611   0.740   1.459   2.665 -1.2129 -2.1629  0.4055
  204SOL    HW2  612   0.836   1.323   2.670 -2.1125  2.9645 -0.5862
  205SOL     OW  613   0.888   1.021   1.366 -0.8213  0.4222 -0.1468
  205SOL    HW1  614   0.864   0.943   1.308 -1.4014 -0.8434  0.6187
  205SOL    HW2  615   0.987   1.041   1.352 -0.6532  1.4657  1.0340
  206SOL     OW  616   0.191   0.777   2.704  0.2178 -0.5084  0.5066
  206SOL    HW1  617   0.268   0.835   2.739 -1.7650  3.0489  0.5296
  206SOL    HW2  618   0.219   0.714   2.628  1.3753 -1.4187 -2.7855
  207SOL     OW  619   1.862   2.317   2.006 -0.0931 -0.2819  0.2871
  207SOL    HW1  620   1.917   2.404   1.999 -2.5667 -1.7168 -0.1276
  207SOL    HW2  621   1.801   2.308   1.925  1.4461  1.6593  0.8649
  208SOL     OW  622   0.935   2.702   1.203  0.3907 -0.3568 -0.2204
  208SOL    HW1  623   0.855   2.658   1.253 -2.7757 -1.2887  1.5663
  208SOL    HW2  624   1.009   2.634   1.189 -0.1909 -0.2148  1.2841
  209SOL     OW  625   1.219   1.482   2.816  0.2311 -0.1810 -0.3240
  209SOL    HW1  626   1.210   1.537   2.733 -3.4224 -1.7604  0.8043
  209SOL    HW2  627   1.129   1.446   2.850  1.1410  0.0854  0.3591
  210SOL     OW  628   2.354   0.807   0.818  0.1336 -0.5951  0.0697
  210SOL    HW1  629   2.390   0.846   0.902  0.8000 -2.4438 -0.3959
  210SOL    HW2  630   2.370   0.868   0.736  0.6576  2.5598 -3.2552
  211SOL     OW  631   1.223   2.821   0.515  0.5001 -0.4031 -0.1607
  211SOL    HW1  632   1.315   2.831   0.468  0.3677  1.7581 -0.1398
  211SOL    HW2  633   1.158   2.753   0.472 -4.4087  0.9468 -1.7634
  212SOL     OW  634   2.206   2.211   0.586  0.0254 -0.3111  0.3049
  212SOL    HW1  635   2.226   2.111   0.580  0.2997  1.3534 -2.2664
  212SOL    HW2  636   2.250   2.256   0.505  2.4056 -0.2155 -3.6670
  213SOL     OW  637   1.670   0.624   2.779  0.8412 -0.2113 -0.2014
  213SOL    HW1  638   1.661   0.610   2.883  0.2011  1.3069  0.4263
  213SOL    HW2  639   1.744   0.691   2.754  0.5465  2.3573 -0.0097
  214SOL     OW  640   1.034   1.825   1.912 -0.3986  0.1365  0.0071
  214SOL    HW1  641   0.935   1.852   1.907 -2.7536 -0.7918 -2.2427
  214SOL    HW2  642   1.050   1.732   1.948  0.5508  0.6844 -1.2401
  215SOL     OW  643   0.483   1.436   0.563 -0.3159  0.3046 -0.0278
  215SOL    HW1  644   0.494   1.395   0.471  0.6867  0.4415  2.5512
  215SOL    HW2  645   0.537   1.520   0.582  1.5347  1.6833  0.9198
  216SOL     OW  646   0.105   3.027   2.395 -0.0897 -0.4907 -0.0313
  216SOL    HW1  647   0.197   3.067   2.382  0.0217  0.3761 -0.4608
  216SOL    HW2  648   0.098   2.956   2.319  3.9476  0.4083 -0.2197
  217SOL     OW  649   2.436   0.829   1.272  0.2210  0.4242 -0.2141
  217SOL    HW1  650   2.411   0.748   1.323  1.8594  0.0834 -2.6045
  217SOL    HW2  651   2.531   0.853   1.269 -2.7188  2.4680 -0.4480
  218SOL     OW  652   1.355   1.799   2.032  0.2069  0.1166 -0.1910
  218SOL    HW1  653   1.389   1.859   1.958 -0.3574  0.3587  1.8697
  218SOL    HW2  654   1.290   1.854   2.082  1.3036  1.6129 -4.5989
  219SOL     OW  655   1.759   1.564   0.083 -0.0242 -0.3405  0.0783
  219SOL    HW1  656   1.809   1.489   0.132 -2.3358 -1.4682 -0.8477
  219SOL    HW2  657   1.780   1.655   0.123 -2.8681 -0.4243 -0.4447
  220SOL     OW  658   2.064   0.853   0.128 -0.4817  0.1369  0.3900
  220SOL    HW1  659   2.084   0.948   0.151 -0.3871 -0.6931 -4.3915
  220SOL    HW2  660   2.036   0.855   0.030 -0.0886  0.5951  0.2656
  221SOL     OW  661   3.078   0.540   0.134  0.0340 -0.0308 -0.2988
  221SOL    HW1  662   2.995   0.592   0.157  1.1186 -3.5848 -1.5228
  221SOL    HW2  663   3.085   0.522   0.037  2.2612  1.0503  1.3589
  222SOL     OW  664   1.537   1.895   0.640 -0.0121 -0.4634  0.1822
  222SOL    HW1  665   1.587   1.830   0.697  1.4269  0.9941 -2.5934
  222SOL    HW2  666   1.533   1.983   0.691  1.4431  1.2687 -2.1871
  223SOL     OW  667   0.883   0.020   3.007  0.4137  0.1364  0.0935
  223SOL    HW1  668   0.956   0.056   3.070 -2.8580 -3.5567  1.6238
  223SOL    HW2  669   0.918   3.025   2.959  0.4470 -2.0924 -1.6401
  224SOL     OW  670   1.920   0.089   1.228 -0.0980 -0.0783  0.4338
  224SOL    HW1  671   1.867   0.037   1.303 -1.2584 -0.0095 -2.7514
  224SOL    HW2  672   2.011   0.045   1.217 -1.3059 -2.0540 -0.7925
  225SOL     OW  673   0.364   2.347   1.230  0.4172  0.3270 -0.6338
  225SOL    HW1  674   0.397   2.304   1.146  0.1788  1.0982  2.3063
  225SOL    HW2  675   0.295   2.417   1.219  0.8205 -2.7593  2.8182
  226SOL     OW  676   0.939   1.861   0.163 -0.6419  0.5643 -0.2661
  226SOL    HW1  677   0.930   1.893   0.070 -2.1481 -2.1752 -0.9537
  226SOL    HW2  678   1.025   1.903   0.207  1.6973  0.1224 -1.7808
  227SOL     OW  679   0.863   1.711   1.059  0.4507 -0.4750  0.5783
  227SOL    HW1  680   0.765   1.678   1.055  1.1617 -1.5230 -0.6432
  227SOL    HW2  681   0.872   1.772   1.136 -0.8043 -1.1457 -1.3582
  228SOL     OW  682   0.166   1.630   0.549  0.3597 -0.1745  0.0689
  228SOL    HW1  683   0.093   1.603   0.484  0.3333 -1.1564 -1.1625
  228SOL    HW2  684   0.167   1.732   0.566  0.1418  0.9032  0.7835
  229SOL     OW  685   1.835   0.228   2.582  0.7921  0.1615 -0.5701
  229SOL    HW1  686   1.911   0.180   2.532 -0.1807 -0.0180 -1.7623
  229SOL    HW2  687   1.746   0.215   2.534 -2.2917  1.2271 -0.9006
  230SOL     OW  688   1.819   1.158   2.864 -0.1609 -0.3226  0.3796
  230SOL    HW1  689   1.800   1.254   2.832  1.3347 -1.6086  1.3837
  230SOL    HW2  690   1.773   1.143   2.954  1.6682 -0.7866  1.3277
  231SOL     OW  691   1.165   1.662   2.610 -0.6513  0.5695 -0.0717
  231SOL    HW1  692   1.070   1.693   2.611 -2.5307 -0.1261 -0.9175
  231SOL    HW2  693   1.217   1.747   2.590 -0.4329 -1.7568 -0.6987
  232SOL     OW  694   2.367   2.317   0.360  0.1016  0.2022 -0.1538
  232SOL    HW1  695   2.462   2.340   0.379 -0.1391 -2.0487  0.8103
  232SOL    HW2  696   2.368   2.255   0.276  1.2152  0.1083 -2.9797
  233SOL     OW  697   2.966   2.523   0.314  0.2718  0.4422 -0.1505
  233SOL    HW1  698   2.982   2.423   0.302  0.6282  0.9139  0.5822
  233SOL    HW2  699   2.913   2.556   0.230 -1.8382 -1.8099 -0.3919
  234SOL     OW  700   0.648   0.669   2.735  0.2681  0.1581  0.0686
  234SOL    HW1  701   0.629   0.731   2.653 -1.8151  3.2688 -0.0467
  234SOL    HW2  702   0.692   0.719   2.810  0.0997  0.5788 -1.7627
  235SOL     OW  703   2.686   0.426   2.486  0.4210  0.4954 -0.0017
  235SOL    HW1  704   2.659   0.519   2.477  2.2910 -0.4669 -1.6051
  235SOL    HW2  705   2.683   0.397   2.586  0.8037  1.2895  2.8561
  236SOL     OW  706   1.926   2.491   1.163  0.8959  0.1555  0.0511
  236SOL    HW1  707   1.901   2.477   1.261  0.6056 -0.8425  1.1369
  236SOL    HW2  708   1.999   2.421   1.134 -1.1735 -0.1075 -0.2195
  237SOL     OW  709   0.783   1.711   2.294  0.4110  0.4938 -0.1558
  237SOL    HW1  710   0.793   1.642   2.219 -0.4957  1.0103  1.1486
  237SOL    HW2  711   0.847   1.676   2.368 -1.5660  2.2642 -2.5347
  238SOL     OW  712   1.228   0.167   2.410  0.2127 -0.7286  0.2782
  238SOL    HW1  713   1.192   0.096   2.475  2.3018  4.8174 -0.8395
  238SOL    HW2  714   1.279   0.126   2.329 -0.3901  0.7820  1.7562
  239SOL     OW  715   0.247   1.973   1.920  0.4250 -0.0108  0.6239
  239SOL    HW1  716   0.232   2.001   2.018 -0.6331 -0.1941  1.2495
  239SOL    HW2  717   0.250   2.055   1.856 -1.4924  0.7124 -0.4523
  240SOL     OW  718   2.450   2.756   0.143  0.8833 -0.7074  0.0237
  240SOL    HW1  719   2.349   2.749   0.169 -2.7490 -0.0330  1.5782
  240SOL    HW2  720   2.503   2.791   0.221  0.5485 -2.8464 -2.1515
  241SOL     OW  721   2.477   0.999   1.019 -0.0432  0.2733  0.6442
  241SOL    HW1  722   2.464   0.969   1.110  0.8741  0.6863  0.7764
  241SOL    HW2  723   2.480   1.098   1.015  0.2203 -0.0538 -0.2123
  242SOL     OW  724   2.318   2.398   2.231  0.0628  0.2806 -0.3023
  242SOL    HW1  725   2.303   2.307   2.189 -0.2490  3.4131 -1.1748
  242SOL    HW2  726   2.247   2.424   2.293 -0.8714  1.2200 -1.7764
  243SOL     OW  727   0.711   2.585   1.667 -0.3186 -0.1198 -0.0363
  243SOL    HW1  728   0.633   2.650   1.638 -1.0352  3.0893 -1.0926
  243SOL    HW2  729   0.744   2.617   1.762  3.6572 -1.2704  2.9904
  244SOL     OW  730   2.090   0.451   2.732  0.1702  0.0445  0.6495
  244SOL    HW1  731   2.055   0.381   2.666 -0.3602 -0.2291  1.7591
  244SOL    HW2  732   2.118   0.537   2.684  1.4945 -0.3141 -3.2259
  245SOL     OW  733   1.493   0.209   1.277  0.1274  0.4028 -0.2183
  245SOL    HW1  734   1.431   0.288   1.301  0.3553  2.5486  1.2626
  245SOL    HW2  735   1.441   0.128   1.241 -1.1940 -2.7204 -0.9042
  246SOL     OW  736   1.770   2.513   2.979 -0.4819 -0.0698  0.0513
  246SOL    HW1  737   1.839   2.503   2.904  0.8224  0.1521 -0.8229
  246SOL    HW2  738   1.682   2.557   2.949 -1.3735 -1.7728 -0.3250
  247SOL     OW  739   1.267   0.626   2.388 -0.3834 -0.0017  0.7081
  247SOL    HW1  740   1.215   0.548   2.424 -1.2355  2.6706  0.1654
  247SOL    HW2  741   1.365   0.620   2.416  1.1841 -0.3524 -0.2685
  248SOL     OW  742   0.522   1.881   1.870  0.1101 -0.1871 -0.2544
  248SOL    HW1  743   0.526   1.784   1.907  1.5845  2.2186  2.2660
  248SOL    HW2  744   0.443   1.937   1.901  0.2679  0.5102 -0.0877
  249SOL     OW  745   2.464   0.353   0.506  0.3552 -0.0917  0.6432
  249SOL    HW1  746   2.441   0.398   0.417 -1.8233  0.0078 -1.2916
  249SOL    HW2  747   2.454   0.251   0.502 -0.0806  0.7151 -2.1751
  250SOL     OW  748   2.696   0.498   2.938 -0.3176  0.5450 -0.3812
  250SOL    HW1  749   2.749   0.455   3.015 -0.6245  1.4754  0.3955
  250SOL    HW2  750   2.742   0.589   2.917 -0.5111  0.8006  3.1916
  251SOL     OW  751   1.306   0.673   0.073  0.0621 -0.2248  0.0347
  251SOL    HW1  752   1.333   0.633   3.071  0.2217 -0.8921 -0.1805
  251SOL    HW2  753   1.207   0.665   0.087  0.4068 -1.9244 -0.5746
  252SOL     OW  754   1.890   2.060   1.842  0.5989 -0.0054 -0.8980
  252SOL    HW1  755   1.810   2.118   1.879 -1.6608  1.9538  0.4261
  252SOL    HW2  756   1.923   1.997   1.920 -1.3687 -2.3639  1.3404
  253SOL     OW  757   2.249   2.421   1.031  0.0306  0.7072  0.0705
  253SOL    HW1  758   2.243   2.516   0.993 -3.0914  0.4090 -0.3968
  253SOL    HW2  759   2.233   2.409   1.129 -0.6111 -2.1819 -2.1344
  254SOL     OW  760   2.552   1.340   0.703  0.1766 -0.2514 -0.3736
  254SOL    HW1  761   2.616   1.390   0.641 -0.1798  1.5970 -0.1590
  254SOL    HW2  762   2.550   1.390   0.794 -0.0707  4.6358  0.0512
  255SOL     OW  763   1.386   3.088   1.118  0.3129  0.0673  0.1424
  255SOL    HW1  764   1.298   3.074   1.163  0.6147  0.2481 -1.9251
  255SOL    HW2  765   1.388   0.049   1.029 -0.5850  0.0665 -0.2567
  256SOL     OW  766   1.496   2.428   1.351 -0.1378  0.1739 -0.5075
  256SOL    HW1  767   1.461   2.462   1.442  0.2446 -0.2701  0.3739
  256SOL    HW2  768   1.416   2.380   1.314  1.9004  1.5363  0.4131
  257SOL     OW  769   0.650   2.962   2.657 -0.0974 -0.5522 -0.1470
  257SOL    HW1  770   0.709   3.027   2.603  0.7156  0.6028 -0.1167
  257SOL    HW2  771   0.580   2.916   2.604  1.5601 -0.2647  1.9052
  258SOL     OW  772   0.858   2.428   0.665  0.3714 -0.4190 -0.2647
  258SOL    HW1  773   0.926   2.466   0.735  2.6961  0.5672 -0.9325
  258SOL    HW2  774   0.897   2.454   0.571  2.0358  3.6216 -1.2436
  259SOL     OW  775   1.575   0.167   2.800  0.1970 -0.0154 -0.5580
  259SOL    HW1  776   1.487   0.142   2.840  0.2269 -1.0168  0.4157
  259SOL    HW2  777   1.562   0.257   2.756  0.4014 -0.7080 -0.2979
  260SOL     OW  778   2.494   0.200   1.436  0.4915 -0.4859 -0.3438
  260SOL    HW1  779   2.394   0.179   1.450 -0.2693  1.5878 -0.3800
  260SOL    HW2  780   2.543   0.149   1.506  2.1334 -1.2824  1.6017
  261SOL     OW  781   0.786   0.449   2.640  0.2770  0.3998 -0.2343
  261SOL    HW1  782   0.714   0.522   2.636 -0.3998  0.2341  1.1482
  261SOL    HW2  783   0.857   0.463   2.568  0.6608  0.7609  0.9886
  262SOL     OW  784   0.571   2.336   2.205  0.1726 -0.4250  0.0155
  262SOL    HW1  785   0.498   2.329   2.136  0.6979  0.2283  0.8792
  262SOL    HW2  786   0.664   2.327   2.166  0.6900  0.0102 -3.1831
  263SOL     OW  787   0.252   1.536   2.616 -0.2744  0.0707  0.1236
  263SOL    HW1  788   0.202   1.616   2.586  0.5438 -0.8274 -0.9149
  263SOL    HW2  789   0.304   1.490   2.545 -0.5686  1.1371  0.4791
  264SOL     OW  790   1.291   1.547   0.740 -0.4746 -0.5103  0.6769
  264SOL    HW1  791   1.366   1.486   0.764 -0.7197  1.5620 -3.6178
  264SOL    HW2  792   1.247   1.581   0.820  3.5155 -0.3417 -2.4176
  265SOL     OW  793   1.474   2.908   0.617 -0.2805  0.4376 -0.1333
  265SOL    HW1  794   1.474   2.805   0.646 -0.3589 -1.9384  1.8609
  265SOL    HW2  795   1.565   2.955   0.607 -2.7695 -0.7013  3.4367
  266SOL     OW  796   1.837   0.485   1.394 -0.2205 -0.3023  0.0926
  266SOL    HW1  797   1.776   0.438   1.323 -1.1935  2.3840 -0.4951
  266SOL    HW2  798   1.926   0.501   1.350  0.1799  1.3228  1.8953
  267SOL     OW  799   2.446   1.253   2.767 -0.3429 -0.5779 -0.0598
  267SOL    HW1  800   2.377   1.186   2.739  2.0189 -3.4814  1.0762
  267SOL    HW2  801   2.515   1.195   2.816  1.9320  0.0029  0.5813
  268SOL     OW  802   1.354   0.281   0.086  0.4101 -0.0696 -0.1465
  268SOL    HW1  803   1.389   0.258   0.179  0.5117  0.1838  1.3976
  268SOL    HW2  804   1.260   0.324   0.086 -3.6062  0.2707  1.0724
  269SOL     OW  805   2.772   0.865   2.507 -0.4644  0.1386 -0.3909
  269SOL    HW1  806   2.875   0.871   2.515 -3.9653  1.1823  1.8692
  269SOL    HW2  807   2.725   0.947   2.467 -2.7451  1.5982 -1.2775
  270SOL     OW  808   3.055   1.614   0.308  0.2673  0.0589 -0.2282
  270SOL    HW1  809   3.085   1.516   0.333  1.3717 -1.3320  0.6929
  270SOL    HW2  810   0.017   1.649   0.227 -0.6932  1.2477  0.2198
  271SOL     OW  811   2.259   0.987   2.948  0.0380  0.0182  0.8488
  271SOL    HW1  812   2.275   1.008   2.847 -0.1324 -1.9904 -1.8284
  271SOL    HW2  813   2.228   0.888   2.957 -0.7822  0.0704 -1.3780
  272SOL     OW  814   3.053   2.470   2.385  0.1903 -0.2872  0.3304
  272SOL    HW1  815   0.051   2.423   2.373 -0.0066 -1.4321  0.3450
  272SOL    HW2  816   2.976   2.403   2.381 -1.8231  2.1375 -2.6581
  273SOL     OW  817   0.297   0.009   0.467  0.4051 -0.3156 -0.5892
  273SOL    HW1  818   0.323   3.018   0.409 -0.1013 -1.5468  0.1580
  273SOL    HW2  819   0.206   0.049   0.438 -2.6035  0.9973 -1.9221
  274SOL     OW  820   0.716   2.124   0.961 -0.3021  0.1794 -0.2820
  274SOL    HW1  821   0.676   2.073   1.044 -1.4961  1.9769  2.4358
  274SOL    HW2  822   0.790   2.183   0.991 -1.1356 -1.6382 -0.1867
  275SOL     OW  823   2.331   0.940   0.568  0.2718 -0.0127  0.1001
  275SOL    HW1  824   2.236   0.973   0.582  0.6152 -0.1158 -0.6943
  275SOL    HW2  825   2.388   1.020   0.540 -3.2531 -1.9006 -1.1267
  276SOL     OW  826   2.467   1.458   1.362  0.4168  0.7102 -0.0632
  276SOL    HW1  827   2.389   1.394   1.344 -1.9713  0.5006  1.9201
  276SOL    HW2  828   2.528   1.432   1.439 -0.7621 -2.5518  1.9086
  277SOL     OW  829   2.429   2.921   0.943 -0.3072 -0.3696  0.9493
  277SOL    HW1  830   2.450   3.007   0.992 -0.7345  0.5011  0.5204
  277SOL    HW2  831   2.447   2.847   1.007  0.2784  2.7728 -2.0845
  278SOL     OW  832   1.585   0.004   2.285 -0.2328  0.3166 -0.1907
  278SOL    HW1  833   1.586   3.012   2.348 -2.1211 -2.2208  1.4927
  278SOL    HW2  834   1.619   0.083   2.336 -0.6286 -0.1041  1.6846
  279SOL     OW  835   1.497   2.674   0.946  1.0823 -0.3678  0.5184
  279SOL    HW1  836   1.548   2.748   0.991  0.6737  0.9344  2.2096
  279SOL    HW2  837   1.558   2.598   0.922 -1.1116  1.5847 -1.7539
  280SOL     OW  838   0.759   1.165   0.872  0.0750 -0.2015  0.3080
  280SOL    HW1  839   0.830   1.231   0.901 -1.1225 -1.1589 -1.0651
  280SOL    HW2  840   0.665   1.202   0.863 -1.7698 -2.6838 -1.2444
  281SOL     OW  841   2.430   1.448   2.950 -0.3712 -0.0409  0.2238
  281SOL    HW1  842   2.429   1.370   2.884  1.0035 -0.3623 -1.9706
  281SOL    HW2  843   2.435   1.537   2.894  0.9384  1.0282 -2.2351
  282SOL     OW  844   0.049   1.376   0.390  0.3696 -0.3570  0.2645
  282SOL    HW1  845   3.054   1.319   0.395  0.6071  1.5742  2.1324
  282SOL    HW2  846   0.125   1.353   0.457  1.4156  1.2990  2.9173
  283SOL     OW  847   1.630   2.715   2.635  0.3421 -0.0468  0.0280
  283SOL    HW1  848   1.617   2.746   2.539  0.3665  2.5896 -1.2961
  283SOL    HW2  849   1.727   2.682   2.643  1.8006  0.6080 -0.4834
  284SOL     OW  850   1.074   0.112   0.080  0.3386  0.1668 -0.1238
  284SOL    HW1  851   1.157   0.059   0.100 -0.4098  1.4186 -0.0243
  284SOL    HW2  852   1.080   0.211   0.086 -0.9750 -0.3940  2.1369
  285SOL     OW  853   2.243   1.437   2.429  0.7663 -0.0373  0.1787
  285SOL    HW1  854   2.224   1.536   2.441  0.5729 -0.3687 -0.9769
  285SOL    HW2  855   2.228   1.411   2.334  3.8830 -1.2015  1.5534
  286SOL     OW  856   1.672   2.470   0.869 -0.3513 -0.2169  0.7081
  286SOL    HW1  857   1.681   2.434   0.962 -1.4995  4.6680  0.1167
  286SOL    HW2  858   1.645   2.399   0.798 -0.5637 -1.5268 -0.5864
  287SOL     OW  859   1.709   0.909   0.880 -0.5914  0.9659 -0.1215
  287SOL    HW1  860   1.720   0.987   0.814 -4.3606 -1.1165 -0.8365
  287SOL    HW2  861   1.626   0.853   0.847  1.2245  0.6875 -0.0838
  288SOL     OW  862   0.880   2.774   2.460 -0.7179 -0.7632 -0.0258
  288SOL    HW1  863   0.873   2.778   2.563 -0.2901  0.9019 -3.3702
  288SOL    HW2  864   0.964   2.724   2.435  1.7991 -0.8382  1.7231
  289SOL     OW  865   0.195   1.338   0.875 -0.4036 -0.4373 -0.2891
  289SOL    HW1  866   0.232   1.271   0.943  1.0976 -0.9977  2.6898
  289SOL    HW2  867   0.093   1.343   0.884  0.9501 -1.9499 -2.2818
  290SOL     OW  868   1.296   2.327   0.852 -0.1072 -0.5724 -0.5361
  290SOL    HW1  869   1.288   2.423   0.871  1.1096 -3.1483  2.0570
  290SOL    HW2  870   1.262   2.313   0.761 -0.8802  0.6667  3.6285
  291SOL     OW  871   1.533   3.027   0.337 -0.6925  0.2820 -0.5418
  291SOL    HW1  872   1.505   2.976   0.423 -0.6151 -0.6159  1.6082
  291SOL    HW2  873   1.511   0.033   0.342  0.4101 -4.0409 -0.4370
  292SOL     OW  874   0.431   0.331   2.367  0.6544 -0.0203 -0.5198
  292SOL    HW1  875   0.347   0.322   2.424  0.6391 -0.3999  0.8442
  292SOL    HW2  876   0.513   0.293   2.410 -0.2130  1.3922 -0.5872
  293SOL     OW  877   2.605   1.732   0.711  0.3964 -0.1097  0.2327
  293SOL    HW1  878   2.594   1.830   0.685  0.2627  1.2280 -3.6453
  293SOL    HW2  879   2.551   1.716   0.799 -0.9075  1.5893  2.7020
  294SOL     OW  880   0.828   3.083   2.202  0.4536  0.0380 -0.5253
  294SOL    HW1  881   0.741   0.030   2.162 -1.2741  1.3754 -1.4003
  294SOL    HW2  882   0.903   3.079   2.132  0.0894  0.3100  2.1549
  295SOL     OW  883   1.109   1.681   0.911 -0.5014  0.1457  0.3075
  295SOL    HW1  884   1.183   1.668   0.982 -0.6337 -2.1311 -3.3904
  295SOL    HW2  885   1.020   1.648   0.945 -0.6587 -0.0130  1.1301
  296SOL     OW  886   2.358   1.766   0.375 -0.0733  0.0306  0.4795
  296SOL    HW1  887   2.333   1.784   0.280  1.3794 -0.1381  2.8044
  296SOL    HW2  888   2.423   1.687   0.380 -1.7518  3.2642 -1.7340
  297SOL     OW  889   2.548   0.103   2.863 -0.0099  0.4111 -0.4037
  297SOL    HW1  890   2.453   0.095   2.828 -1.8617  1.6688  2.4872
  297SOL    HW2  891   2.559   0.052   2.952  1.0794 -2.6659 -0.0698
  298SOL     OW  892   1.071   0.178   2.816  0.4195  0.0556 -0.0214
  298SOL    HW1  893   0.990   0.240   2.827  1.6933  0.5956 -0.4027
  298SOL    HW2  894   1.070   0.095   2.876  0.5855 -1.3869 -1.1027
  299SOL     OW  895   0.788   2.584   2.214 -0.3660  0.4746  0.3775
  299SOL    HW1  896   0.714   2.644   2.243  2.2600 -0.3031 -2.5431
  299SOL    HW2  897   0.873   2.624   2.247 -2.9389 -0.8678  1.2993
  300SOL     OW  898   2.686   2.933   1.942  0.3737 -0.6127  0.7132
  300SOL    HW1  899   2.693   2.934   2.046 -1.4804 -2.7727  2.0761
  300SOL    HW2  900   2.712   3.016   1.889 -2.0496 -0.7681  1.8229
  301SOL     OW  901   1.596   0.357   1.716 -0.5452 -0.0213  0.8607
  301SOL    HW1  902   1.497   0.360   1.682 -2.8917 -3.0030  1.5953
  301SOL    HW2  903   1.651   0.283   1.669  0.6917 -1.5712  0.4752
  302SOL     OW  904   0.310   2.569   3.089 -0.1674 -0.6371 -0.0329
  302SOL    HW1  905   0.343   2.562   0.094 -1.3143 -0.5551 -0.3889
  302SOL    HW2  906   0.391   2.565   3.024  3.4478 -0.0700  1.2231
  303SOL     OW  907   1.861   2.462   1.448  0.2436 -0.2830  0.3403
  303SOL    HW1  908   1.802   2.388   1.477  2.1812  1.0765  1.4472
  303SOL    HW2  909   1.944   2.466   1.505 -4.8642  0.3451 -0.3704
  304SOL     OW  910   2.693   0.875   1.293 -0.4739 -0.3158  0.2688
  304SOL    HW1  911   2.750   0.808   1.245 -2.7963  0.2093  1.5585
  304SOL    HW2  912   2.743   0.944   1.343 -1.9628 -0.8243  0.0839
  305SOL     OW  913   0.505   1.303   0.827  0.1838 -0.6308 -0.0795
  305SOL    HW1  914   0.503   1.375   0.904  0.4177  3.8920  1.5258
  305SOL    HW2  915   0.509   1.338   0.730 -0.3233 -2.8165  1.7793
  306SOL     OW  916   0.472   1.282   2.831  0.4469  0.0006  0.0171
  306SOL    HW1  917   0.519   1.231   2.907 -1.2457 -0.5327  0.9114
  306SOL    HW2  918   0.474   1.231   2.742 -0.8756  0.3368  1.4904
  307SOL     OW  919   0.963   3.068   1.665  0.0274  0.2928 -0.2899
  307SOL    HW1  920   0.922   3.010   1.593 -0.9572 -1.0123  0.2884
  307SOL    HW2  921   0.958   3.016   1.754  1.2708  0.1668 -0.5372
  308SOL     OW  922   0.108   0.738   1.011 -0.1609 -0.2167  0.2955
  308SOL    HW1  923   0.031   0.724   0.946 -0.1693  0.8066 -0.8078
  308SOL    HW2  924   0.194   0.697   0.973  1.1215 -1.1897 -0.7662
  309SOL     OW  925   2.463   1.265   1.073  0.0927 -0.5777 -0.2728
  309SOL    HW1  926   2.374   1.305   1.067  1.7251  0.1207  0.3820
  309SOL    HW2  927   2.521   1.323   1.011 -1.5718  1.0589  1.3562
  310SOL     OW  928   0.391   1.705   2.748  0.1164 -0.3909  0.1351
  310SOL    HW1  929   0.329   1.639   2.697 -0.7804 -1.8841 -0.9779
  310SOL    HW2  930   0.358   1.729   2.838 -1.2515 -1.1121 -3.5108
  311SOL     OW  931   2.536   2.605   2.431 -0.0469 -0.1043 -0.1047
  311SOL    HW1  932   2.566   2.583   2.339 -1.6344 -1.4587  0.4858
  311SOL    HW2  933   2.626   2.614   2.486  2.4950 -0.2806  2.4162
  312SOL     OW  934   2.177   2.046   3.022 -0.0492 -0.1533  0.1307
  312SOL    HW1  935   2.114   1.976   3.055  1.0139  0.6002  0.1110
  312SOL    HW2  936   2.259   1.996   2.997  1.3935 -1.5030 -0.3598
  313SOL     OW  937   0.532   0.152   0.548  0.6128  0.0938  0.3995
  313SOL    HW1  938   0.575   0.236   0.504  0.8926  1.8876  1.2994
  313SOL    HW2  939   0.469   0.104   0.481  0.4496  2.3722  0.5750
  314SOL     OW  940   2.085   1.314   2.620  0.2936 -0.0394 -0.2283
  314SOL    HW1  941   2.055   1.389   2.685  0.1639 -0.3921 -0.8535
  314SOL    HW2  942   2.156   1.347   2.559 -0.4287 -0.3685 -0.9810
  315SOL     OW  943   1.576   0.241   2.429 -0.6332 -0.1319 -0.2876
  315SOL    HW1  944   1.525   0.292   2.501  2.5755  0.6011 -3.4304
  315SOL    HW2  945   1.544   0.282   2.339 -0.0092  2.2577 -1.2946
  316SOL     OW  946   3.089   0.941   0.695  0.1295  0.2693  0.0022
  316SOL    HW1  947   0.002   0.852   0.640 -0.0462  0.0153  0.7793
  316SOL    HW2  948   3.047   0.919   0.781  1.8182  0.6678 -5.1554
  317SOL     OW  949   0.624   2.775   2.977  0.0741  0.2077  0.1880
  317SOL    HW1  950   0.525   2.788   2.979  1.7128  0.8727  1.6364
  317SOL    HW2  951   0.674   2.843   3.034  0.2547 -0.6816  0.6704
  318SOL     OW  952   2.305   2.622   0.789  0.0904 -0.8887 -0.6708
  318SOL    HW1  953   2.342   2.532   0.760 -0.1045  0.8939 -0.1136
  318SOL    HW2  954   2.382   2.681   0.815 -2.0231 -0.4331  0.1227
  319SOL     OW  955   0.984   1.476   2.982 -0.0748 -0.2463 -0.1198
  319SOL    HW1  956   1.021   1.571   2.983 -1.5905 -1.2885 -0.5839
  319SOL    HW2  957   1.000   1.430   3.070 -2.0929  1.6509 -0.2701
  320SOL     OW  958   0.662   1.751   1.329  0.4743  0.0596 -0.0109
  320SOL    HW1  959   0.674   1.652   1.341 -1.6362  0.9689  0.8762
  320SOL    HW2  960   0.572   1.775   1.284 -0.1512 -1.3613  2.0781
  321SOL     OW  961   1.108   2.666   1.965 -0.1583 -0.0261 -0.0379
  321SOL    HW1  962   1.021   2.657   1.916  0.4088  0.6993 -0.9405
  321SOL    HW2  963   1.143   2.757   1.984  1.1290 -2.6432  1.9198
  322SOL     OW  964   2.439   1.675   2.191 -0.0921 -0.2027 -0.5992
  322SOL    HW1  965   2.466   1.597   2.254 -0.5814  0.2928  0.7524
  322SOL    HW2  966   2.517   1.740   2.176 -1.0438  1.2441  0.7890
  323SOL     OW  967   2.823   0.338   0.728  0.5515  0.0711  0.6780
  323SOL    HW1  968   2.903   0.375   0.774  0.5267 -0.0087 -2.6550
  323SOL    HW2  969   2.771   0.280   0.791  0.1531  0.9726  1.9604
  324SOL     OW  970   3.067   2.615   2.621 -0.2602  0.1407 -0.0263
  324SOL    HW1  971   3.089   2.562   2.705  1.4138 -1.1811  1.8651
  324SOL    HW2  972   3.080   2.553   2.538 -0.8788  0.8209 -0.6890
  325SOL     OW  973   1.126   0.420   2.515 -0.8948 -0.1390 -0.4027
  325SOL    HW1  974   1.182   0.348   2.476 -3.0491  1.9688  0.5351
  325SOL    HW2  975   1.159   0.452   2.610 -0.2587  2.7115  2.6765
  326SOL     OW  976   2.129   2.673   1.486  0.2673 -0.2904  0.0588
  326SOL    HW1  977   2.211   2.718   1.524  0.0592 -1.6689 -4.4241
  326SOL    HW2  978   2.066   2.632   1.553  0.0287  0.9597 -0.5486
  327SOL     OW  979   2.408   0.077   0.228  0.4403 -0.4082  0.1775
  327SOL    HW1  980   2.427   0.174   0.225 -0.4444 -2.0022  1.5042
  327SOL    HW2  981   2.344   0.052   0.300 -1.6087  0.7618 -2.8742
  328SOL     OW  982   0.325   1.266   1.766 -0.1610 -0.1577 -0.2429
  328SOL    HW1  983   0.367   1.220   1.850 -3.0852 -0.7361 -2.7923
  328SOL    HW2  984   0.254   1.343   1.789  0.5441  1.1371  2.7288
  329SOL     OW  985   2.222   0.545   1.664  0.5415 -0.2556  0.2332
  329SOL    HW1  986   2.122   0.516   1.660  0.0031 -2.5727 -0.0436
  329SOL    HW2  987   2.284   0.472   1.700  1.3025 -0.1498 -0.5207
  330SOL     OW  988   0.145   0.996   1.169  0.3482 -0.4566  1.3252
  330SOL    HW1  989   0.070   1.052   1.133 -0.2539 -1.7630 -0.5876
  330SOL    HW2  990   0.138   0.900   1.140 -0.4397  0.5538 -0.5858
  331SOL     OW  991   0.814   1.518   2.090  0.0749  0.1136 -0.4607
  331SOL    HW1  992   0.882   1.496   2.022  2.0341 -0.2259  0.2786
  331SOL    HW2  993   0.819   1.456   2.173  1.1556 -4.8548 -1.2648
  332SOL     OW  994   0.164   2.724   1.574  0.8401 -0.2507 -0.2017
  332SOL    HW1  995   0.110   2.783   1.509 -1.9096 -3.2010 -0.4560
  332SOL    HW2  996   0.153   2.624   1.547 -1.0681 -0.9588 -1.1801
  333SOL     OW  997   2.687   0.037   0.853 -0.5848  0.1660 -0.0793
  333SOL    HW1  998   2.723   0.099   0.921 -0.2006  1.3111 -1.8899
  333SOL    HW2  999   2.717   3.033   0.856 -2.4829 -1.5475 -3.0295
  334SOL     OW 1000   0.218   1.323   0.601  0.2401 -0.0125  0.4136
  334SOL    HW1 1001   0.276   1.404   0.581 -0.8964 -1.4484  0.1565
  334SOL    HW2 1002   0.197   1.328   0.700  2.7177  0.5554 -0.7617
  335SOL     OW 1003   0.302   2.616   2.727  0.2237 -0.0212 -0.4210
  335SOL    HW1 1004   0.259   2.706   2.728 -0.3456 -2.3242 -0.0398
  335SOL    HW2 1005   0.396   2.623   2.774  0.3800 -0.4488  0.9515
  336SOL     OW 1006   2.955   2.648   2.190 -0.4260 -0.0345  0.7218
  336SOL    HW1 1007   2.968   2.579   2.258 -1.0554  1.8501 -3.4575
  336SOL    HW2 1008   2.890   2.614   2.119  0.6523  1.8143  1.0486
  337SOL     OW 1009   2.097   2.218   1.773  0.1010  0.0558 -0.2834
  337SOL    HW1 1010   2.008   2.174   1.780  2.1353  0.6322 -3.3450
  337SOL    HW2 1011   2.162   2.158   1.726  3.0183  2.3682 -1.5504
  338SOL     OW 1012   0.855   0.326   2.873 -0.0312  0.8285 -0.2088
  338SOL    HW1 1013   0.777   0.294   2.930 -0.1325 -1.0152 -0.1936
  338SOL    HW2 1014   0.816   0.357   2.784  0.2147 -1.4614  3.3869
  339SOL     OW 1015   0.489   1.176   1.972  0.4001 -0.3142 -0.1081
  339SOL    HW1 1016   0.482   1.204   2.068  1.4650  2.9163  1.6877
  339SOL    HW2 1017   0.565   1.222   1.927  0.7131 -3.5387 -0.1200
  340SOL     OW 1018   1.997   2.984   0.520  0.7138  0.9684 -0.7045
  340SOL    HW1 1019   2.051   2.904   0.552  1.3799 -2.3253 -0.1415
  340SOL    HW2 1020   1.900   2.979   0.543 -1.1172  2.7281 -1.6075
  341SOL     OW 1021   2.007   1.073   1.037  0.6536 -0.1076  0.2998
  341SOL    HW1 1022   2.026   1.121   0.952  0.9538 -0.2623  1.3472
  341SOL    HW2 1023   2.050   0.981   1.039 -1.4426 -0.2806  1.1088
  342SOL     OW 1024   2.515   2.910   3.022  0.5189  0.2234  0.1484
  342SOL    HW1 1025   2.422   2.951   3.001 -0.2457  0.2831  2.4409
  342SOL    HW2 1026   2.505   2.877   0.027 -1.4316  0.4538  2.4453
  343SOL     OW 1027   0.892   2.096   1.501 -0.1202 -0.0830  0.1107
  343SOL    HW1 1028   0.912   2.175   1.563  1.2416  2.7299  0.3207
  343SOL    HW2 1029   0.845   2.124   1.415  0.7742  1.4102  0.2620
  344SOL     OW 1030   2.250   2.473   1.322  0.0840 -0.0194  0.1868
  344SOL    HW1 1031   2.202   2.525   1.394  2.7399  0.5160 -1.3567
  344SOL    HW2 1032   2.343   2.513   1.317 -2.3400  0.7808  1.5555
  345SOL     OW 1033   2.628   1.882   3.029  0.2869 -0.2456 -0.0267
  345SOL    HW1 1034   2.698   1.870   2.956  0.2013  1.1987 -2.3170
  345SOL    HW2 1035   2.663   1.855   0.032  0.1727 -1.3411 -0.9404
  346SOL     OW 1036   1.883   2.171   0.976  0.2854 -0.4203 -0.1130
  346SOL    HW1 1037   1.916   2.230   0.902 -1.2321 -0.1816  3.1722
  346SOL    HW2 1038   1.780   2.155   0.969  2.4337  2.0897  1.2183
  347SOL     OW 1039   1.402   1.967   1.131  0.2345  0.2210 -0.1792
  347SOL    HW1 1040   1.424   2.066   1.115 -0.1256  0.4947  0.2567
  347SOL    HW2 1041   1.303   1.952   1.157 -1.1909  0.6433 -1.7658
  348SOL     OW 1042   0.527   1.758   2.364 -0.7436  0.1759 -0.4422
  348SOL    HW1 1043   0.519   1.861   2.370  0.1650  0.2773 -2.5159
  348SOL    HW2 1044   0.620   1.735   2.330 -1.1044  0.8367  0.6391
  349SOL     OW 1045   1.931   1.652   0.754  0.5306  0.0678  0.4013
  349SOL    HW1 1046   1.971   1.737   0.789 -0.2803 -1.9656  0.4960
  349SOL    HW2 1047   1.965   1.564   0.803 -0.2136 -2.7820  2.6317
  350SOL     OW 1048   2.767   2.483   0.532  0.0103 -0.0979  0.0158
  350SOL    HW1 1049   2.713   2.419   0.483 -0.2520  1.2364  0.2472
  350SOL    HW2 1050   2.851   2.502   0.479 -2.6195 -1.3012 -0.5721
  351SOL     OW 1051   0.523   2.780   1.614  0.0330  0.5702 -0.4415
  351SOL    HW1 1052   0.580   2.862   1.598 -2.2926 -0.4670  1.5742
  351SOL    HW2 1053   0.463   2.765   1.532  1.9371 -0.7349 -0.8469
  352SOL     OW 1054   0.323   1.590   1.223 -0.1221 -0.0759  0.4859
  352SOL    HW1 1055   0.369   1.522   1.157 -0.8355 -1.8057 -0.4112
  352SOL    HW2 1056   0.284   1.543   1.300 -1.2358 -1.0255  0.4257
  353SOL     OW 1057   1.096   1.427   2.270 -0.1924  0.3796  0.0028
  353SOL    HW1 1058   1.001   1.438   2.298  1.5105 -0.4830 -0.1112
  353SOL    HW2 1059   1.133   1.329   2.280  0.9781 -1.5765 -0.1427
  354SOL     OW 1060   1.462   3.080   1.900  0.1786 -0.0392  0.5792
  354SOL    HW1 1061   1.416   0.037   1.824  0.7330 -0.3392 -0.2877
  354SOL    HW2 1062   1.539   0.045   1.946  1.9353  1.9530  1.3016
  355SOL     OW 1063   2.512   1.142   0.529 -0.0238  0.3045  0.0406
  355SOL    HW1 1064   2.542   1.199   0.609 -1.4141  0.9475  1.8582
  355SOL    HW2 1065   2.534   1.185   0.442  0.4744  1.4555  4.0918
  356SOL     OW 1066   2.884   1.721   1.477  0.5363  0.6976  0.2277
  356SOL    HW1 1067   2.801   1.773   1.493  1.3819 -0.6679 -0.7133
  356SOL    HW2 1068   2.923   1.729   1.385  1.5517  1.9499  0.7411
  357SOL     OW 1069   0.346   2.745   1.396  0.1927  0.1160 -0.4130
  357SOL    HW1 1070   0.261   2.728   1.453 -1.0427 -1.6695 -2.4069
  357SOL    HW2 1071   0.351   2.842   1.359  0.1007 -0.7537 -3.0430
  358SOL     OW 1072   2.613   1.566   1.824 -0.0896 -0.1563 -0.0263
  358SOL    HW1 1073   2.624   1.533   1.730  0.9389 -1.8661  2.8308
  358SOL    HW2 1074   2.511   1.575   1.843 -1.3263  1.6494  3.2035
  359SOL     OW 1075   2.361   2.800   2.678  0.0395 -0.0198 -0.2999
  359SOL    HW1 1076   2.349   2.746   2.597 -0.5945  1.1255 -0.7058
  359SOL    HW2 1077   2.293   2.871   2.695  3.3129 -1.3323  1.6083
  360SOL     OW 1078   0.930   0.446   0.918 -0.6331  0.7331 -0.1363
  360SOL    HW1 1079   1.025   0.444   0.875 -0.9197 -1.0070 -1.0165
  360SOL    HW2 1080   0.861   0.414   0.851  0.3337 -2.8220  2.7326
  361SOL     OW 1081   2.122   0.266   0.823 -1.2741  0.3499  0.3045
  361SOL    HW1 1082   2.134   0.336   0.889 -2.5684 -2.0677  0.3889
  361SOL    HW2 1083   2.211   0.212   0.806  1.9810 -1.8183  0.1610
  362SOL     OW 1084   1.894   1.189   1.255  0.2508 -0.2417 -0.4298
  362SOL    HW1 1085   1.912   1.143   1.166 -1.0936 -0.8897 -1.1248
  362SOL    HW2 1086   1.960   1.264   1.263 -1.8235 -1.7187 -0.0079
  363SOL     OW 1087   2.082   1.294   2.213  0.2304  0.3804  0.0097
  363SOL    HW1 1088   2.040   1.390   2.203 -0.4678 -2.4785  0.3461
  363SOL    HW2 1089   2.173   1.295   2.175 -0.2090 -0.5366  3.5578
  364SOL     OW 1090   0.380   0.226   1.120  0.3835 -0.0534  0.1119
  364SOL    HW1 1091   0.330   0.230   1.212  1.6243  2.0821  3.4710
  364SOL    HW2 1092   0.359   0.142   1.067 -0.1178  0.5790  1.0033
  365SOL     OW 1093   0.662   0.163   2.953  0.1348  0.0535 -0.6932
  365SOL    HW1 1094   0.586   0.100   2.912 -1.4459 -2.6964  0.1868
  365SOL    HW2 1095   0.745   0.109   2.962  0.4429 -0.0647 -0.9755
  366SOL     OW 1096   1.981   2.434   2.808 -0.2060 -0.0585 -0.1479
  366SOL    HW1 1097   1.952   2.485   2.726  1.6473 -1.4173  2.2489
  366SOL    HW2 1098   2.072   2.458   2.844  0.4784 -1.9061  4.4917
  367SOL     OW 1099   2.959   2.333   3.022  0.3287 -0.6080 -0.1641
  367SOL    HW1 1100   2.917   2.412   2.972 -0.3051  0.7304 -1.5931
  367SOL    HW2 1101   3.065   2.334   3.023  0.5191 -1.9001  2.0133
  368SOL     OW 1102   3.076   1.129   1.525  0.0576 -0.0763 -0.7787
  368SOL    HW1 1103   3.054   1.213   1.472 -0.5195 -1.4147  0.7498
  368SOL    HW2 1104   0.084   1.116   1.537  0.0618  3.3718 -1.8294
  369SOL     OW 1105   1.016   2.897   2.909  0.4643  0.0221  0.2927
  369SOL    HW1 1106   1.080   2.843   2.963 -1.6488  0.4494 -0.6641
  369SOL    HW2 1107   0.962   2.840   2.842 -2.2864 -0.0614 -0.1587
  370SOL     OW 1108   2.851   0.751   0.448  0.4410 -0.0679  0.2981
  370SOL    HW1 1109   2.774   0.801   0.486 -0.8469  0.3480  0.7301
  370SOL    HW2 1110   2.847   0.655   0.488 -1.3306  1.5212 -0.1261
  371SOL     OW 1111   1.598   2.379   0.613 -0.2064  0.0453 -0.2436
  371SOL    HW1 1112   1.578   2.286   0.582  0.0565  0.7324 -0.1804
  371SOL    HW2 1113   1.675   2.418   0.569 -1.3992  2.7256  0.4282
  372SOL     OW 1114   3.040   0.863   2.586  0.3375 -0.3810 -0.2064
  372SOL    HW1 1115   0.038   0.838   2.624 -3.2450 -0.3295  1.0173
  372SOL    HW2 1116   3.030   0.969   2.594 -1.0817  1.9651 -2.7349
  373SOL     OW 1117   2.914   1.490   1.170  0.0413  0.2394 -0.3869
  373SOL    HW1 1118   2.933   1.587   1.178  4.1864 -0.1538  0.4990
  373SOL    HW2 1119   2.943   1.456   1.079 -2.0990  0.9966  0.4087
  374SOL     OW 1120   0.709   2.975   0.073  0.2455  0.4907  0.5346
  374SOL    HW1 1121   0.648   3.019   0.135  2.3572 -0.6051 -2.6615
  374SOL    HW2 1122   0.767   3.033   0.017 -1.4751 -1.1975  1.2463
  375SOL     OW 1123   0.223   2.923   0.113 -0.1821  0.2744 -0.9156
  375SOL    HW1 1124   0.236   3.017   0.068 -0.9830 -0.4074 -1.2783
  375SOL    HW2 1125   0.129   2.900   0.145 -1.7415 -0.1092  1.8420
  376SOL     OW 1126   3.083   2.282   1.416  0.3418 -0.7863 -0.0540
  376SOL    HW1 1127   3.021   2.242   1.483  1.6349 -0.9688 -0.4085
  376SOL    HW2 1128   0.045   2.210   1.371  0.9964  0.8945 -1.2105
  377SOL     OW 1129   1.651   2.324   2.729  0.2842  0.7774  0.1715
  377SOL    HW1 1130   1.673   2.223   2.729 -3.5638  0.2339 -0.8642
  377SOL    HW2 1131   1.716   2.374   2.670  1.2945 -2.0771 -0.1478
  378SOL     OW 1132   0.471   0.348   2.975  0.1243  0.2450  0.2858
  378SOL    HW1 1133   0.497   0.440   2.943  0.4514 -3.3562 -1.8772
  378SOL    HW2 1134   0.538   0.272   2.964  0.4729  1.5022 -4.1323
  379SOL     OW 1135   0.604   1.004   0.451 -0.3003 -0.6648  0.2182
  379SOL    HW1 1136   0.674   1.076   0.484  1.7871  3.4171 -1.2414
  379SOL    HW2 1137   0.518   1.054   0.424 -0.1735  1.9868  0.6064
  380SOL     OW 1138   3.046   1.757   1.851  0.2174 -0.2106 -0.4532
  380SOL    HW1 1139   2.988   1.680   1.878 -0.8158 -2.3489  0.0526
  380SOL    HW2 1140   0.051   1.734   1.863 -0.2309  1.6610 -0.3432
  381SOL     OW 1141   0.233   0.963   1.947 -0.8744  0.3762  0.1154
  381SOL    HW1 1142   0.313   1.022   1.965  1.1492  0.3712  1.1113
  381SOL    HW2 1143   0.220   0.943   1.850  0.0408 -0.8826 -0.1717
  382SOL     OW 1144   2.388   2.095   0.218 -0.2665 -0.2031 -0.6160
  382SOL    HW1 1145   2.301   2.049   0.239  1.4747  2.3014 -1.3095
  382SOL    HW2 1146   2.408   2.088   0.119 -0.5570 -2.1640  0.2452
  383SOL     OW 1147   2.854   1.888   2.870  0.2156 -0.0408  0.1626
  383SOL    HW1 1148   2.951   1.861   2.858 -0.5674  2.1740  1.5013
  383SOL    HW2 1149   2.844   1.985   2.850 -1.6305 -2.4722 -1.5409
  384SOL     OW 1150   0.602   2.319   2.483  0.1045 -0.3934 -0.6197
  384SOL    HW1 1151   0.517   2.319   2.541  0.5336  1.9035  1.4689
  384SOL    HW2 1152   0.584   2.308   2.383  0.5626 -0.9859  0.9870
  385SOL     OW 1153   3.015   1.182   1.092 -0.7006 -0.1579 -0.6936
  385SOL    HW1 1154   3.005   1.225   1.187 -2.7493 -0.3616  3.1921
  385SOL    HW2 1155   3.002   1.241   1.003 -2.0967  3.7758 -0.6014
  386SOL     OW 1156   1.991   1.586   1.250  0.1474 -0.3380  0.0547
  386SOL    HW1 1157   2.057   1.581   1.330  1.9208  0.0049 -0.0001
  386SOL    HW2 1158   2.042   1.615   1.168 -0.7555  0.6553  0.0909
  387SOL     OW 1159   2.685   1.170   1.938  0.1751  0.4010 -0.3008
  387SOL    HW1 1160   2.775   1.217   1.943  1.7887 -2.9223  3.5741
  387SOL    HW2 1161   2.642   1.170   1.843  3.0172 -0.7936 -2.1782
  388SOL     OW 1162   2.565   1.245   2.194 -0.4661  0.0423  0.4866
  388SOL    HW1 1163   2.627   1.211   2.263 -1.4560 -3.7742 -0.3380
  388SOL    HW2 1164   2.599   1.223   2.103  1.6806  1.7008  3.5456
  389SOL     OW 1165   2.039   1.230   1.873 -0.0136  0.0218 -0.6695
  389SOL    HW1 1166   2.009   1.164   1.943 -0.3082  1.2857  1.0045
  389SOL    HW2 1167   2.140   1.239   1.874 -0.1524 -0.8781 -1.8689
  390SOL     OW 1168   1.772   2.638   0.371 -0.0839  0.1899 -0.1909
  390SOL    HW1 1169   1.817   2.566   0.312 -0.3910 -0.7882  1.9811
  390SOL    HW2 1170   1.796   2.627   0.472 -0.1645 -2.2361  1.9914
  391SOL     OW 1171   2.252   1.873   0.826  0.2085 -0.4074  0.2970
  391SOL    HW1 1172   2.318   1.888   0.903  1.7243  0.9940  1.6778
  391SOL    HW2 1173   2.160   1.905   0.846  1.2197 -0.8307  1.0335
  392SOL     OW 1174   2.871   2.474   1.007  0.3942  0.0403 -0.1338
  392SOL    HW1 1175   2.964   2.432   0.992  2.8775 -1.7348  1.4539
  392SOL    HW2 1176   2.876   2.570   1.041  1.9216 -0.5744 -0.3733
  393SOL     OW 1177   1.741   1.877   2.859 -0.7418 -0.2241  0.0183
  393SOL    HW1 1178   1.735   1.775   2.872 -0.2728 -1.8570 -2.3219
  393SOL    HW2 1179   1.764   1.919   2.946  0.8139  0.4062  3.7536
  394SOL     OW 1180   0.051   0.121   2.751  0.0446  0.0970 -0.2364
  394SOL    HW1 1181   0.006   0.085   2.838  0.5097 -1.5791  1.8913
  394SOL    HW2 1182   0.148   0.147   2.767 -0.7932 -1.3533 -1.0753
  395SOL     OW 1183   0.788   0.921   0.986 -0.0450  0.2352  0.2769
  395SOL    HW1 1184   0.846   0.854   0.936  1.5336 -2.8108  1.1681
  395SOL    HW2 1185   0.776   1.006   0.934 -1.3796  4.1643  1.1288
  396SOL     OW 1186   1.243   1.253   0.440 -0.5045  0.5007  0.2281
  396SOL    HW1 1187   1.189   1.166   0.458 -3.7371 -3.7595 -1.5677
  396SOL    HW2 1188   1.339   1.237   0.409  1.7387  1.7767 -1.7970
  397SOL     OW 1189   0.403   0.701   2.118 -0.0954  0.3538 -0.2282
  397SOL    HW1 1190   0.328   0.632   2.105 -1.4272 -3.6462 -2.1008
  397SOL    HW2 1191   0.386   0.779   2.057  0.5843 -0.2632  0.3403
  398SOL     OW 1192   1.217   0.278   0.575  0.0625  0.1347 -0.3004
  398SOL    HW1 1193   1.313   0.272   0.602 -0.5484  0.7198 -3.3395
  398SOL    HW2 1194   1.197   0.187   0.532  0.5380  0.1849 -2.6731
  399SOL     OW 1195   2.111   2.920   1.742  0.0935  0.2619 -0.6385
  399SOL    HW1 1196   2.043   2.866   1.795 -0.0329 -0.9569 -1.7478
  399SOL    HW2 1197   2.072   3.002   1.692  0.4924  0.9124  0.8355
  400SOL     OW 1198   1.123   1.606   2.043 -0.6167 -0.0214  0.4973
  400SOL    HW1 1199   1.201   1.670   2.035 -0.7382  0.6755 -1.2619
  400SOL    HW2 1200   1.112   1.585   2.143  0.9075 -0.4306 -0.1694
  401SOL     OW 1201   0.678   1.039   2.871  0.5584  0.5488 -0.6653
  401SOL    HW1 1202   0.707   0.943   2.890  0.7459  0.7650  2.2715
  401SOL    HW2 1203   0.626   1.086   2.951 -2.5212 -0.8841  3.7747
  402SOL     OW 1204   2.802   1.929   0.907  0.0035 -0.1197 -0.8098
  402SOL    HW1 1205   2.886   1.880   0.880  0.7194  1.1416 -0.8323
  402SOL    HW2 1206   2.733   1.866   0.947  0.1155 -0.8281  0.8896
  403SOL     OW 1207   0.121   0.820   2.172  0.1771  0.0854  0.5626
  403SOL    HW1 1208   0.099   0.907   2.211  1.2414 -2.3353 -0.0388
  403SOL    HW2 1209   0.128   0.830   2.071  0.9427  2.0062 -0.4387
  404SOL     OW 1210   0.196   2.608   1.841 -0.3980  0.1160  0.3474
  404SOL    HW1 1211   0.272   2.647   1.905 -0.1059  2.1858  0.1576
  404SOL    HW2 1212   0.188   2.664   1.754 -1.8126  2.4259 -0.4285
  405SOL     OW 1213   0.484   0.319   2.125  0.4973 -0.5123 -0.7405
  405SOL    HW1 1214   0.410   0.364   2.066 -0.7030 -0.8461  2.5336
  405SOL    HW2 1215   0.460   0.334   2.225 -0.1063  0.9275 -1.4204
  406SOL     OW 1216   1.556   2.037   2.192  0.3408  0.2324  0.3961
  406SOL    HW1 1217   1.588   2.050   2.096  1.0161  1.1465 -0.9234
  406SOL    HW2 1218   1.571   1.943   2.228 -0.3925  0.1673 -0.9591
  407SOL     OW 1219   1.256   1.207   2.331  0.1194  0.6648 -0.9006
  407SOL    HW1 1220   1.293   1.266   2.403 -0.8466  0.0391 -0.3677
  407SOL    HW2 1221   1.321   1.148   2.292 -0.9972  2.0053  0.3903
  408SOL     OW 1222   0.832   0.044   2.494 -0.1433  0.0661  0.2122
  408SOL    HW1 1223   0.811   0.024   2.396 -1.5297 -0.3230 -1.9770
  408SOL    HW2 1224   0.930   0.029   2.508 -0.2294  2.7608 -3.7941
  409SOL     OW 1225   0.450   2.052   0.579  0.1692 -0.0827 -0.1178
  409SOL    HW1 1226   0.505   1.995   0.522  0.9475 -0.0299  1.8985
  409SOL    HW2 1227   0.475   2.147   0.563  4.1740  1.0729 -1.3726
  410SOL     OW 1228   2.915   1.219   0.419 -0.4589  0.4428  0.0642
  410SOL    HW1 1229   2.949   1.122   0.416  0.1242  1.7117 -0.7738
  410SOL    HW2 1230   2.823   1.238   0.371  0.7703  3.8369 -1.1356
  411SOL     OW 1231   0.065   3.086   0.991  0.1594  0.1850 -0.0723
  411SOL    HW1 1232   0.023   0.035   0.906 -3.0239  0.8416 -1.9648
  411SOL    HW2 1233   0.007   0.018   1.075  0.4136  0.4497  1.4709
  412SOL     OW 1234   1.586   0.796   1.451  0.0671  0.4874 -0.6119
  412SOL    HW1 1235   1.651   0.834   1.388 -2.5617 -0.1422  2.1872
  412SOL    HW2 1236   1.617   0.707   1.484  0.8343  2.9962 -0.5901
  413SOL     OW 1237   0.676   2.995   1.566 -0.3768 -0.7661 -0.5414
  413SOL    HW1 1238   0.629   3.079   1.542 -1.3755 -0.8202  0.9238
  413SOL    HW2 1239   0.739   2.959   1.494 -1.2783 -1.5176  1.1387
  414SOL     OW 1240   2.812   1.473   2.741 -0.1797  0.9148 -0.1202
  414SOL    HW1 1241   2.766   1.557   2.715 -1.2481 -1.5644  3.1446
  414SOL    HW2 1242   2.853   1.495   2.832 -1.4494  0.8914  0.2463
  415SOL     OW 1243   0.557   2.558   2.834 -0.2760 -0.1593  0.0607
  415SOL    HW1 1244   0.615   2.527   2.759 -1.8913  1.0971  2.3006
  415SOL    HW2 1245   0.605   2.632   2.884  0.8691  0.5117 -1.5823
  416SOL     OW 1246   2.099   2.928   0.270  0.0888 -0.0466 -0.0956
  416SOL    HW1 1247   2.042   2.956   0.187 -2.3362  1.3806 -2.0696
  416SOL    HW2 1248   2.063   2.980   0.353 -4.2912 -1.3311 -1.2602
  417SOL     OW 1249   0.345   0.625   0.922 -0.1310 -0.0671  0.2859
  417SOL    HW1 1250   0.425   0.690   0.918 -0.1541  0.7060  0.3501
  417SOL    HW2 1251   0.382   0.530   0.918 -0.5942  3.0814 -0.5329
  418SOL     OW 1252   2.463   0.395   1.239 -0.8382  0.1142  0.1084
  418SOL    HW1 1253   2.444   0.476   1.297  0.0091 -2.2531 -0.8736
  418SOL    HW2 1254   2.471   0.320   1.304  0.4375  1.3397 -2.9809
  419SOL     OW 1255   0.040   0.103   0.421  0.6521 -0.2473  0.7360
  419SOL    HW1 1256   0.011   0.202   0.413 -1.2272  3.3074 -1.4367
  419SOL    HW2 1257   3.059   0.048   0.465  0.6675  1.8579  0.4117
  420SOL     OW 1258   0.394   1.569   1.575 -0.1843  0.2588  0.8441
  420SOL    HW1 1259   0.389   1.671   1.586  0.2055 -0.1609 -0.0374
  420SOL    HW2 1260   0.470   1.538   1.630  0.1157  0.2801  0.1555
  421SOL     OW 1261   1.222   0.044   0.416  0.3027  0.4644  0.0252
  421SOL    HW1 1262   1.195   3.047   0.451 -1.5991 -1.1480 -1.2414
  421SOL    HW2 1263   1.261   0.040   0.321 -1.0580 -1.8065 -3.9202
  422SOL     OW 1264   0.259   0.520   1.536 -0.1133 -0.1936 -0.4211
  422SOL    HW1 1265   0.266   0.560   1.631 -0.3459  1.6896  2.2106
  422SOL    HW2 1266   0.283   0.590   1.469 -2.3514  2.1410 -3.7803
  423SOL     OW 1267   1.149   1.101   1.380  0.4043  0.1478  0.0056
  423SOL    HW1 1268   1.115   1.110   1.480 -1.5770 -1.6372  3.2774
  423SOL    HW2 1269   1.217   1.019   1.376  1.3092  1.9132 -0.0471
  424SOL     OW 1270   2.002   1.511   2.798  0.0471  0.2272 -0.0828
  424SOL    HW1 1271   2.056   1.472   2.875  0.7973 -1.4759  2.5954
  424SOL    HW2 1272   1.903   1.483   2.800  1.5018 -0.5542 -0.8372
  425SOL     OW 1273   3.080   0.337   2.202 -0.0742 -0.3625  0.0448
  425SOL    HW1 1274   3.076   0.266   2.275  0.6997 -0.0707  2.0279
  425SOL    HW2 1275   3.007   0.409   2.204  2.0678 -0.1900  0.5272
  426SOL     OW 1276   0.377   2.893   2.985 -0.2447  0.2482 -0.5728
  426SOL    HW1 1277   0.343   2.878   3.075  0.4180  2.0565 -3.7620
  426SOL    HW2 1278   0.301   2.918   2.922 -0.5978  2.8792  2.3639
  427SOL     OW 1279   1.163   1.044   2.710  0.2643  0.4922  0.4137
  427SOL    HW1 1280   1.253   1.089   2.701 -1.0511  0.3451 -0.0123
  427SOL    HW2 1281   1.116   1.089   2.786  0.1015 -4.7850 -0.3165
  428SOL     OW 1282   2.541   1.154   1.698 -0.2192  0.0376 -0.5329
  428SOL    HW1 1283   2.525   1.060   1.738 -1.8214  0.3705 -1.6670
  428SOL    HW2 1284   2.527   1.150   1.599 -0.6693  1.4783  3.1590
  429SOL     OW 1285   2.139   2.771   0.602  0.6515 -0.4372  0.1111
  429SOL    HW1 1286   2.238   2.789   0.615  0.0082  1.3117 -0.3478
  429SOL    HW2 1287   2.112   2.688   0.661  0.7557 -2.8760  2.7425
  430SOL     OW 1288   0.831   1.369   2.341 -0.2150  0.3274 -0.4991
  430SOL    HW1 1289   0.827   1.274   2.307 -0.6884  0.6642 -1.3186
  430SOL    HW2 1290   0.815   1.373   2.443 -3.4440 -1.0486  0.0638
  431SOL     OW 1291   2.623   1.395   1.565 -0.3047 -0.1664 -0.5163
  431SOL    HW1 1292   2.718   1.414   1.594 -1.1091 -1.9470  1.0892
  431SOL    HW2 1293   2.580   1.311   1.609  1.0841  0.2333  1.7391
  432SOL     OW 1294   1.052   2.632   2.271 -0.2192 -0.2305 -0.4624
  432SOL    HW1 1295   1.077   2.636   2.176  0.3856 -2.6942  2.4629
  432SOL    HW2 1296   1.123   2.569   2.316  1.8008 -1.1780 -0.5487
  433SOL     OW 1297   2.106   0.247   2.464 -0.2964  0.0182 -0.2318
  433SOL    HW1 1298   2.203   0.251   2.447  0.6449 -5.2317  1.2271
  433SOL    HW2 1299   2.059   0.224   2.378  0.5627 -1.4912  2.4984
  434SOL     OW 1300   0.401   2.581   2.272  0.0112 -0.3083  0.1920
  434SOL    HW1 1301   0.347   2.517   2.326 -1.3163  1.7163  1.7705
  434SOL    HW2 1302   0.494   2.547   2.254 -2.5713 -1.2938  0.5239
  435SOL     OW 1303   0.031   2.724   0.438  0.1393  0.1421  0.4938
  435SOL    HW1 1304   3.088   2.763   0.529 -0.3534 -0.3504  1.3233
  435SOL    HW2 1305   3.071   2.642   0.412  0.2766 -1.8379  1.8011
  436SOL     OW 1306   0.915   0.533   2.090 -0.3926 -0.5023 -0.2201
  436SOL    HW1 1307   0.822   0.545   2.048 -0.2076  0.4091 -0.5616
  436SOL    HW2 1308   0.915   0.477   2.177 -0.0653 -1.5570 -1.2890
  437SOL     OW 1309   0.209   2.355   2.363  0.4696  0.1891 -0.1613
  437SOL    HW1 1310   0.248   2.371   2.456 -1.4649 -2.7077  0.4750
  437SOL    HW2 1311   0.175   2.259   2.363  0.8296 -1.0858 -0.9960
  438SOL     OW 1312   0.698   1.298   1.829  0.0041 -0.1765 -0.2152
  438SOL    HW1 1313   0.643   1.375   1.799 -0.1168 -0.7351  0.3463
  438SOL    HW2 1314   0.780   1.321   1.891  3.9536 -0.2994  0.8329
  439SOL     OW 1315   2.323   1.011   2.121  0.0997 -0.4785  0.5810
  439SOL    HW1 1316   2.260   0.998   2.200  0.1485 -0.5094  2.4368
  439SOL    HW2 1317   2.315   1.106   2.086 -2.1989 -1.5939 -0.1514
  440SOL     OW 1318   0.452   0.776   0.392  0.0017  0.1364 -0.0846
  440SOL    HW1 1319   0.480   0.756   0.294 -3.2715 -2.3023  0.4855
  440SOL    HW2 1320   0.503   0.857   0.426  0.2619  0.1017 -2.3512
  441SOL     OW 1321   0.790   2.545   1.398  0.7123 -0.0325  0.5144
  441SOL    HW1 1322   0.789   2.572   1.496  1.9224 -1.0140  2.2815
  441SOL    HW2 1323   0.701   2.566   1.355  0.6808  1.6918  0.5902
  442SOL     OW 1324   2.275   1.390   0.671  0.1715  0.1285  0.4008
  442SOL    HW1 1325   2.245   1.423   0.582 -1.6692 -3.6948  0.3861
  442SOL    HW2 1326   2.374   1.370   0.668 -1.3359  1.0478  2.3800
  443SOL     OW 1327   2.696   1.813   2.466 -0.2844  0.2944 -0.6524
  443SOL    HW1 1328   2.631   1.893   2.464  1.0340  0.4553 -1.8114
  443SOL    HW2 1329   2.699   1.767   2.375  2.1271  2.5389  3.2186
  444SOL     OW 1330   1.648   1.634   2.932  0.3275  0.1231 -0.0532
  444SOL    HW1 1331   1.686   1.602   3.021  1.2932  0.7487  0.2104
  444SOL    HW2 1332   1.549   1.648   2.949 -0.0715 -1.0207  0.0551
  445SOL     OW 1333   2.645   2.604   2.168 -0.4752  0.2367  0.3948
  445SOL    HW1 1334   2.695   2.570   2.087 -0.0170 -0.3056  0.9198
  445SOL    HW2 1335   2.652   2.706   2.172 -1.1074  1.0796 -0.2510
  446SOL     OW 1336   0.435   0.964   1.491 -0.1360 -0.0673 -0.4203
  446SOL    HW1 1337   0.491   0.886   1.453  0.1375  0.2205 -0.2150
  446SOL    HW2 1338   0.493   1.021   1.553  0.4263  0.7051 -1.0583
  447SOL     OW 1339   0.972   1.327   0.935 -0.1024 -0.0245 -0.6284
  447SOL    HW1 1340   1.064   1.295   0.907 -0.1862  1.5745  0.1504
  447SOL    HW2 1341   0.977   1.356   1.034  0.0100 -0.6106  0.0213
  448SOL     OW 1342   1.134   1.117   1.634  0.0503  0.5865 -0.3942
  448SOL    HW1 1343   1.224   1.146   1.677  1.2639  0.4712  1.0092
  448SOL    HW2 1344   1.108   1.027   1.675  1.3318  1.7511 -0.7952
  449SOL     OW 1345   3.089   1.932   2.372  0.2556  0.2358  0.1728
  449SOL    HW1 1346   3.057   1.980   2.292  1.4256 -1.9327  4.0519
  449SOL    HW2 1347   0.087   1.971   2.402 -1.5381 -1.0416 -1.5966
  450SOL     OW 1348   2.852   1.953   1.950 -0.6536 -0.0258  0.5738
  450SOL    HW1 1349   2.913   2.005   2.014  0.3775 -0.9274 -0.6760
  450SOL    HW2 1350   2.906   1.888   1.891  0.6925 -0.0938  0.2041
  451SOL     OW 1351   2.223   0.972   1.289 -0.3319 -0.5214 -0.0865
  451SOL    HW1 1352   2.170   0.920   1.357 -0.3322 -0.4509 -2.5704
  451SOL    HW2 1353   2.314   0.925   1.284  0.1548  3.0569 -1.2936
  452SOL     OW 1354   0.552   1.288   1.420 -0.2523 -0.0238  0.1116
  452SOL    HW1 1355   0.600   1.231   1.486 -0.2846  0.6396 -3.2112
  452SOL    HW2 1356   0.452   1.290   1.442 -1.7037  1.4090 -0.4058
  453SOL     OW 1357   0.474   1.416   1.085  0.0707  0.4946 -0.3123
  453SOL    HW1 1358   0.399   1.341   1.086 -2.7665  0.4515  0.7311
  453SOL    HW2 1359   0.557   1.373   1.130 -1.7430 -1.8031  1.6262
  454SOL     OW 1360   0.433   1.647   0.144  0.0553 -0.2151 -0.1898
  454SOL    HW1 1361   0.520   1.688   0.176  0.3710  0.0169  0.3523
  454SOL    HW2 1362   0.441   1.554   0.104  2.1134 -0.4468 -0.1080
  455SOL     OW 1363   2.020   0.773   0.842 -0.3100  0.0411  0.6761
  455SOL    HW1 1364   2.089   0.785   0.917  1.5533 -0.4091 -2.1221
  455SOL    HW2 1365   1.983   0.680   0.860  1.5649  0.5903 -0.6162
  456SOL     OW 1366   2.019   2.586   0.758 -0.1996  0.0350  0.3758
  456SOL    HW1 1367   2.018   2.640   0.845 -0.3714  0.3825  1.8892
  456SOL    HW2 1368   2.054   2.492   0.777  0.8616 -1.7155 -4.0271
  457SOL     OW 1369   1.930   2.896   2.681  0.4238 -0.6592 -0.1204
  457SOL    HW1 1370   1.834   2.941   2.671 -2.1502 -1.5134  2.2206
  457SOL    HW2 1371   1.974   2.857   2.598  0.5559 -2.1137  2.0966
  458SOL     OW 1372   2.417   0.349   0.214  0.2916 -0.0130  0.0470
  458SOL    HW1 1373   2.401   0.357   0.112  1.4574  0.1877  1.5579
  458SOL    HW2 1374   2.335   0.384   0.264  1.0454 -0.1065 -0.7171
  459SOL     OW 1375   0.069   1.084   2.297 -0.1192  0.1577 -0.0339
  459SOL    HW1 1376   3.062   1.084   2.271  1.0953  1.1414  0.3756
  459SOL    HW2 1377   0.113   1.169   2.271  0.2197 -0.7533 -3.8465
  460SOL     OW 1378   0.136   0.800   0.039  0.0793 -0.2006  0.2791
  460SOL    HW1 1379   0.157   0.719   3.080 -0.4350 -0.7400  2.2103
  460SOL    HW2 1380   0.134   0.889   3.072  0.8454  2.0760  0.6670
  461SOL     OW 1381   2.652   2.349   0.901 -0.0527  0.4494  0.2644
  461SOL    HW1 1382   2.724   2.398   0.951 -0.9618  2.6359  3.5963
  461SOL    HW2 1383   2.692   2.261   0.862 -1.6321  0.1996 -0.1062
  462SOL     OW 1384   0.336   0.096   1.546 -0.4521 -0.0064 -0.2754
  462SOL    HW1 1385   0.423   0.151   1.550  0.2819 -0.8222  1.4117
  462SOL    HW2 1386   0.357   0.012   1.492 -2.5862 -0.5089  0.5103
  463SOL     OW 1387   2.159   2.204   2.083 -0.2477 -0.7896  0.0138
  463SOL    HW1 1388   2.085   2.186   2.146  0.0047  1.0731  0.1645
  463SOL    HW2 1389   2.123   2.233   1.994 -0.6560  1.7887  1.4215
  464SOL     OW 1390   0.388   3.000   1.322  0.4667 -0.0554 -0.6304
  464SOL    HW1 1391   0.473   3.035   1.281 -1.1039  1.4569  0.7449
  464SOL    HW2 1392   0.307   2.999   1.258  0.0520 -1.1648 -2.1960
  465SOL     OW 1393   0.610   0.223   1.537 -0.2259  0.0295  0.2942
  465SOL    HW1 1394   0.708   0.204   1.522  2.7891 -0.7317  0.7907
  465SOL    HW2 1395   0.590   0.318   1.571 -3.3409 -0.3562  0.1631
  466SOL     OW 1396   1.505   1.889   1.790  0.4352  0.0465 -0.4056
  466SOL    HW1 1397   1.557   1.826   1.728 -2.1031  1.7429  2.0086
  466SOL    HW2 1398   1.408   1.901   1.760 -0.8893 -3.2377 -1.7407
  467SOL     OW 1399   0.104   1.715   1.077  0.7550 -0.0303 -0.6012
  467SOL    HW1 1400   0.182   1.690   1.144  2.7307  1.1218  2.2926
  467SOL    HW2 1401   0.124   1.678   0.985  0.8365 -0.8993  1.6419
  468SOL     OW 1402   2.327   2.106   2.650 -0.9660  0.0283  0.2353
  468SOL    HW1 1403   2.397   2.053   2.600 -0.2676  1.2307 -0.1175
  468SOL    HW2 1404   2.238   2.061   2.643  0.4395  0.4259  0.7666
  469SOL     OW 1405   1.156   2.318   0.624 -0.6486  0.0846  0.8205
  469SOL    HW1 1406   1.089   2.245   0.618  1.4503 -0.4544 -1.5061
  469SOL    HW2 1407   1.165   2.383   0.546  0.1209 -1.3723  1.9267
  470SOL     OW 1408   2.198   1.639   1.085  0.7857  0.4131  0.0378
  470SOL    HW1 1409   2.207   1.722   1.147 -0.6603  0.6028 -1.1292
  470SOL    HW2 1410   2.216   1.668   0.991  1.7894  1.5501  0.4171
  471SOL     OW 1411   0.693   2.519   0.219  0.3703 -0.1814 -0.2389
  471SOL    HW1 1412   0.588   2.515   0.220 -2.7197 -0.4081  0.9033
  471SOL    HW2 1413   0.728   2.537   0.125  2.4929 -1.6780 -0.5788
  472SOL     OW 1414   2.661   1.838   2.177  0.2574  0.1691  0.1364
  472SOL    HW1 1415   2.760   1.834   2.167 -0.3365 -0.1243 -0.5759
  472SOL    HW2 1416   2.622   1.931   2.156 -0.8593  0.0605 -0.9373
  473SOL     OW 1417   1.133   2.923   0.750 -0.4364 -0.1488 -0.5512
  473SOL    HW1 1418   1.145   2.886   0.662 -1.7863  0.8929  3.3477
  473SOL    HW2 1419   1.225   2.961   0.782  1.7742 -0.7035  0.5872
  474SOL     OW 1420   3.009   0.036   1.224 -0.1233  0.0700  0.3672
  474SOL    HW1 1421   2.910   0.056   1.232  1.1794 -3.4293 -0.7115
  474SOL    HW2 1422   3.036   3.089   1.315  0.2340 -1.3062 -0.8909
  475SOL     OW 1423   1.650   2.644   1.835  0.3378  0.3334  0.2828
  475SOL    HW1 1424   1.655   2.548   1.857 -0.2545  2.8111 -0.8432
  475SOL    HW2 1425   1.621   2.657   1.739  1.8912  1.8526  1.9356
  476SOL     OW 1426   0.468   0.376   0.915  0.2779  0.3597  0.2027
  476SOL    HW1 1427   0.568   0.396   0.928  0.4363  1.1005 -2.6250
  476SOL    HW2 1428   0.414   0.329   0.990 -2.5582  1.1510  0.4251
  477SOL     OW 1429   0.883   2.312   1.040 -0.4758  0.7185 -0.2059
  477SOL    HW1 1430   0.959   2.241   1.039  1.5997 -1.8298  0.0251
  477SOL    HW2 1431   0.911   2.401   1.003  1.0436  0.8377  1.1369
  478SOL     OW 1432   0.857   2.775   2.728  0.6448  0.0937 -0.4521
  478SOL    HW1 1433   0.834   2.679   2.744  0.7179  0.7464  0.1760
  478SOL    HW2 1434   0.770   2.829   2.714  1.3123 -0.6679 -0.4953
  479SOL     OW 1435   0.283   0.454   1.946  0.0909  0.9424 -0.2967
  479SOL    HW1 1436   0.247   0.483   2.037  1.5227  0.3660  0.0010
  479SOL    HW2 1437   0.223   0.377   1.914  0.9185  0.4351 -2.8826
  480SOL     OW 1438   0.022   2.077   3.079  0.3562 -0.0584 -0.7947
  480SOL    HW1 1439   0.012   1.998   0.055  0.7873  0.6051 -1.7714
  480SOL    HW2 1440   3.026   2.136   3.077 -4.6643  0.3844  4.0943
  481SOL     OW 1441   1.464   2.448   2.217  0.3786 -0.2282  0.3478
  481SOL    HW1 1442   1.523   2.369   2.220  0.7013  0.1267  1.3095
  481SOL    HW2 1443   1.399   2.463   2.143  1.0550  0.6802  2.5993
  482SOL     OW 1444   1.460   2.129   2.952 -0.6863 -0.0273  0.3930
  482SOL    HW1 1445   1.450   2.220   2.906  1.4695 -0.9070 -1.1809
  482SOL    HW2 1446   1.456   2.049   2.893  2.9253 -2.0490  0.1855
  483SOL     OW 1447   0.741   2.484   2.641 -0.5622 -0.2266  0.0492
  483SOL    HW1 1448   0.693   2.418   2.580 -0.1906 -3.1990 -1.6642
  483SOL    HW2 1449   0.840   2.466   2.626  0.4345 -2.0842 -0.3410
  484SOL     OW 1450   0.349   0.024   0.926  0.1522  0.0444  0.0146
  484SOL    HW1 1451   0.395   3.086   0.838  0.1448  0.3719 -0.2187
  484SOL    HW2 1452   0.249   0.012   0.923 -0.7862  1.3145 -0.5712
  485SOL     OW 1453   1.773   0.614   0.698 -0.0002 -0.5523 -0.9495
  485SOL    HW1 1454   1.712   0.556   0.755 -0.5249 -0.1721 -0.8082
  485SOL    HW2 1455   1.845   0.659   0.757  3.5226 -1.0554  0.5157
  486SOL     OW 1456   2.016   2.563   1.982  0.1290 -0.1904 -0.4187
  486SOL    HW1 1457   2.116   2.571   1.983 -4.8021 -1.3944  1.5392
  486SOL    HW2 1458   1.975   2.561   2.079  0.9467  0.5016 -0.3928
  487SOL     OW 1459   1.488   2.117   0.768  0.6475 -0.0241 -0.1120
  487SOL    HW1 1460   1.431   2.197   0.762  1.4566 -4.4109 -0.8129
  487SOL    HW2 1461   1.543   2.114   0.855  1.9746 -1.2817  1.1094
  488SOL     OW 1462   1.821   0.626   0.148 -0.5981  0.1598 -0.1787
  488SOL    HW1 1463   1.828   0.646   0.243 -0.5862  0.3438 -1.3528
  488SOL    HW2 1464   1.916   0.608   0.120 -0.0555 -2.3872  1.6462
  489SOL     OW 1465   2.286   0.070   0.464  0.0620  0.0714  0.4938
  489SOL    HW1 1466   2.200   0.099   0.500  1.7123 -0.4136  2.3577
  489SOL    HW2 1467   2.339   0.031   0.542  1.8132 -1.7468  3.4398
  490SOL     OW 1468   1.530   2.673   2.889  0.0433 -0.2028  0.0259
  490SOL    HW1 1469   1.570   2.761   2.932  1.6688  1.6174  1.0323
  490SOL    HW2 1470   1.525   2.684   2.789 -1.8391 -3.1513  1.5572
  491SOL     OW 1471   1.101   0.496   1.197  0.1433  0.5156 -0.2021
  491SOL    HW1 1472   1.101   0.505   1.092 -0.8245 -1.4560 -1.2253
  491SOL    HW2 1473   1.056   0.415   1.232 -1.7204  0.4718  2.2703
  492SOL     OW 1474   1.704   0.343   0.219 -0.5950 -0.2167 -0.2362
  492SOL    HW1 1475   1.708   0.305   0.128 -0.8256 -0.6730  5.0225
  492SOL    HW2 1476   1.805   0.350   0.253  1.4169 -1.9667  0.4268
  493SOL     OW 1477   1.994   2.142   2.829 -0.1004  0.4806 -0.7364
  493SOL    HW1 1478   1.978   2.240   2.818  2.3665 -2.3449  2.4276
  493SOL    HW2 1479   2.064   2.122   2.902  0.8360 -0.5580 -2.4766
  494SOL     OW 1480   0.320   1.151   1.039  0.0038  0.9483 -0.3952
  494SOL    HW1 1481   0.348   1.099   0.955  0.1161 -0.2361 -0.1955
  494SOL    HW2 1482   0.261   1.090   1.103 -1.0189 -1.3650  1.3386
  495SOL     OW 1483   2.995   0.007   1.511  0.0459  0.0865 -0.1344
  495SOL    HW1 1484   2.963   0.103   1.537 -0.4889 -0.3351  0.1546
  495SOL    HW2 1485   3.002   3.044   1.596 -0.2837  1.7459 -1.7897
  496SOL     OW 1486   2.818   2.545   1.969  0.2817 -0.1125 -0.9675
  496SOL    HW1 1487   2.850   2.625   1.914 -0.4330 -1.7580  1.2872
  496SOL    HW2 1488   2.837   2.457   1.918 -0.6848 -1.1498  1.3566
  497SOL     OW 1489   1.599   1.765   2.314  0.2050 -0.2929 -0.7980
  497SOL    HW1 1490   1.519   1.729   2.262  0.0967 -0.6687 -0.3479
  497SOL    HW2 1491   1.665   1.693   2.335 -0.2271  1.7304  1.3035
  498SOL     OW 1492   0.408   1.823   0.923 -0.3274 -0.3802  0.1539
  498SOL    HW1 1493   0.344   1.762   0.873  2.0936 -2.0133 -2.1806
  498SOL    HW2 1494   0.372   1.913   0.911 -2.4564 -1.9263  0.4746
  499SOL     OW 1495   0.215   1.434   1.426  0.1374 -0.0976  0.0408
  499SOL    HW1 1496   0.234   1.344   1.463  2.9726  1.0196 -1.0525
  499SOL    HW2 1497   0.259   1.507   1.481 -1.0668  1.4702 -0.9695
  500SOL     OW 1498   1.252   2.465   0.391 -0.2032 -0.6789 -0.8091
  500SOL    HW1 1499   1.330   2.415   0.340  0.0754 -0.1975 -1.3267
  500SOL    HW2 1500   1.196   2.526   0.331 -2.2669 -1.3965 -1.3388
  501SOL     OW 1501   2.094   2.336   0.809 -0.1376  0.5600 -0.2253
  501SOL    HW1 1502   2.158   2.340   0.890  1.4493  2.1860  2.0490
  501SOL    HW2 1503   2.132   2.283   0.733 -0.8680 -1.1201  1.9434
  502SOL     OW 1504   0.174   0.887   1.708  0.5777  0.3816  0.0958
  502SOL    HW1 1505   0.166   0.894   1.606 -0.1115  1.4309  0.7666
  502SOL    HW2 1506   0.216   0.796   1.724 -0.3457 -1.5707  0.0683
  503SOL     OW 1507   2.332   3.076   1.837  0.3217 -0.5525 -0.4475
  503SOL    HW1 1508   2.244   3.048   1.799  1.5803 -1.2495 -0.5356
  503SOL    HW2 1509   2.399   0.017   1.772 -1.5161 -2.1784  0.2995
  504SOL     OW 1510   2.039   0.597   1.945  0.2821  0.2785  0.2050
  504SOL    HW1 1511   1.969   0.641   1.885  0.1865  0.7335  2.0839
  504SOL    HW2 1512   2.126   0.652   1.947  0.4878 -0.9866  0.0104
  505SOL     OW 1513   1.221   2.835   2.376  0.0166  0.3954 -0.4812
  505SOL    HW1 1514   1.237   2.858   2.476 -1.5877  0.6100  2.5163
  505SOL    HW2 1515   1.155   2.759   2.374  0.6225 -2.3297  2.3638
  506SOL     OW 1516   0.547   0.289   1.841  0.0730  0.5214  0.2084
  506SOL    HW1 1517   0.529   0.297   1.942 -1.5742 -0.4786  0.3229
  506SOL    HW2 1518   0.523   0.377   1.791 -0.3024  1.1855 -0.1268
  507SOL     OW 1519   1.629   0.245   3.065 -0.2754  0.7179  0.5768
  507SOL    HW1 1520   1.629   0.176   2.990 -1.0769  0.6113 -0.1227
  507SOL    HW2 1521   1.537   0.264   0.010 -1.3486  0.4908  0.2182
  508SOL     OW 1522   2.599   0.671   2.491  0.0588  0.1108 -0.5062
  508SOL    HW1 1523   2.549   0.671   2.580  1.9358 -1.7631 -2.0843
  508SOL    HW2 1524   2.673   0.737   2.481  0.6411 -0.3202  1.8262
  509SOL     OW 1525   1.014   1.375   1.945  0.0626  0.4954  0.1785
  509SOL    HW1 1526   1.064   1.295   1.988 -2.0045  1.6502  0.6320
  509SOL    HW2 1527   1.065   1.457   1.960 -1.5840  0.1987  0.4888
  510SOL     OW 1528   3.015   0.639   0.834 -0.2066 -0.7322 -0.1501
  510SOL    HW1 1529   3.047   0.655   0.737  0.5625  1.3823 -1.8871
  510SOL    HW2 1530   2.914   0.631   0.832 -0.8919 -2.0241  1.2554
  511SOL     OW 1531   1.576   1.305   0.644 -0.0614 -0.1016  0.0002
  511SOL    HW1 1532   1.573   1.354   0.552 -0.0031  0.9479 -0.4251
  511SOL    HW2 1533   1.566   1.375   0.715  2.2519 -1.5879 -1.7469
  512SOL     OW 1534   0.714   1.499   0.314  0.0346  0.1626 -0.0986
  512SOL    HW1 1535   0.647   1.421   0.334 -1.3110 -1.4774  0.8682
  512SOL    HW2 1536   0.760   1.525   0.401 -0.4449  2.7959  1.7097
  513SOL     OW 1537   0.353   2.737   0.741 -0.1586  0.3337 -0.0275
  513SOL    HW1 1538   0.421   2.767   0.673 -0.2379 -2.3203 -0.8283
  513SOL    HW2 1539   0.325   2.646   0.714  0.8224  2.3408  2.2351
  514SOL     OW 1540   0.401   2.059   0.170 -0.2719  0.1127  0.3375
  514SOL    HW1 1541   0.324   2.117   0.195  0.2389  0.4160  0.6945
  514SOL    HW2 1542   0.449   2.036   0.256 -1.6765  3.2186  0.0519
  515SOL     OW 1543   2.694   0.412   0.243 -0.2537  0.6641 -0.0084
  515SOL    HW1 1544   2.599   0.378   0.259 -1.3656  1.5115 -1.2502
  515SOL    HW2 1545   2.754   0.404   0.323 -3.0755 -1.3502 -2.1277
  516SOL     OW 1546   2.187   2.717   1.110  0.1986  0.3313  0.1982
  516SOL    HW1 1547   2.106   2.711   1.177 -2.1277  1.1096 -1.7084
  516SOL    HW2 1548   2.155   2.753   1.024 -1.8051  0.1129 -1.0287
  517SOL     OW 1549   1.368   1.644   2.969 -0.2024 -0.3476  0.2628
  517SOL    HW1 1550   1.334   1.642   3.065 -2.2797  1.7357  1.2251
  517SOL    HW2 1551   1.319   1.591   2.898  2.3993  2.6347 -1.1125
  518SOL     OW 1552   1.332   0.382   1.597 -0.1489  0.0754 -0.6912
  518SOL    HW1 1553   1.330   0.397   1.495  0.1594  0.0042  0.5119
  518SOL    HW2 1554   1.270   0.451   1.643 -0.7620  1.0407  0.6359
  519SOL     OW 1555   2.908   2.206   0.610 -0.0484 -0.4994 -0.1114
  519SOL    HW1 1556   2.989   2.254   0.653 -1.7263 -0.0274 -0.5491
  519SOL    HW2 1557   2.833   2.208   0.675 -0.3753  1.1512 -0.5223
  520SOL     OW 1558   2.404   2.162   1.790 -0.5786  0.5261 -0.0410
  520SOL    HW1 1559   2.359   2.238   1.838 -2.1062 -0.3687 -1.6974
  520SOL    HW2 1560   2.499   2.180   1.763  0.5951  0.5026 -1.4683
  521SOL     OW 1561   1.252   2.878   2.632  0.0345  0.2654 -0.2478
  521SOL    HW1 1562   1.228   2.781   2.652  1.7445 -3.0134 -3.6021
  521SOL    HW2 1563   1.309   2.927   2.702  0.8098  2.7760 -0.4854
  522SOL     OW 1564   2.786   0.100   1.865  0.3154 -0.5312 -0.3701
  522SOL    HW1 1565   2.855   0.064   1.928 -3.7934 -0.4612 -2.6376
  522SOL    HW2 1566   2.781   0.202   1.881  1.3625 -2.1932 -1.9555
  523SOL     OW 1567   1.286   2.170   1.685 -0.0678  0.0116 -0.1589
  523SOL    HW1 1568   1.220   2.138   1.755  2.4288  1.5623 -1.5829
  523SOL    HW2 1569   1.265   2.129   1.596  1.2713 -0.9760 -0.0441
  524SOL     OW 1570   2.026   2.197   0.128 -0.1826 -0.0028 -0.9641
  524SOL    HW1 1571   2.062   2.289   0.151 -2.2842  0.9467 -1.5279
  524SOL    HW2 1572   2.087   2.156   0.057 -3.1477 -1.7165  0.1147
  525SOL     OW 1573   2.990   0.965   0.400 -0.2649 -0.0456  0.0066
  525SOL    HW1 1574   3.080   0.929   0.371 -2.0806  0.8801  0.2547
  525SOL    HW2 1575   2.936   0.885   0.431  0.3581  0.1675  0.6414
  526SOL     OW 1576   0.939   2.962   1.186  0.0720  0.4676  0.1661
  526SOL    HW1 1577   0.916   2.985   1.090 -2.6104  1.4834 -1.5825
  526SOL    HW2 1578   0.957   2.864   1.199  0.7689  1.5306 -0.7582
  527SOL     OW 1579   2.701   1.519   0.546 -0.3230 -0.1139 -0.1369
  527SOL    HW1 1580   2.671   1.594   0.603 -0.2784 -2.0358 -1.1729
  527SOL    HW2 1581   2.746   1.540   0.453  0.9420  1.8941 -0.7671
  528SOL     OW 1582   0.648   0.807   2.496 -0.1107  0.3556  0.1305
  528SOL    HW1 1583   0.659   0.908   2.490  1.1844 -0.8857  0.5547
  528SOL    HW2 1584   0.556   0.780   2.458 -1.1177 -1.6097 -1.4394
  529SOL     OW 1585   0.713   1.578   2.968 -0.4810 -0.1988 -0.3736
  529SOL    HW1 1586   0.787   1.509   2.968 -1.0623 -1.2133  0.4870
  529SOL    HW2 1587   0.673   1.583   2.873 -0.1184  0.9757  1.5520
  530SOL     OW 1588   1.653   1.216   2.233  0.2921 -0.0647  0.6266
  530SOL    HW1 1589   1.719   1.209   2.309 -0.9581 -0.3060 -0.8173
  530SOL    HW2 1590   1.582   1.138   2.248 -2.0829 -2.9838  1.5564
  531SOL     OW 1591   0.769   2.190   2.784 -0.1178  0.0524  0.9044
  531SOL    HW1 1592   0.674   2.163   2.793 -0.3186  1.5650 -0.9640
  531SOL    HW2 1593   0.807   2.223   2.875  0.8491 -0.1190  0.0932
  532SOL     OW 1594   2.374   0.754   0.236  0.0895 -0.0020 -0.3510
  532SOL    HW1 1595   2.348   0.849   0.236  0.7737 -1.3778 -0.8586
  532SOL    HW2 1596   2.349   0.702   0.151 -2.6490 -0.2590  0.5753
  533SOL     OW 1597   3.070   0.449   1.715  0.1421  0.1965  0.0912
  533SOL    HW1 1598   0.069   0.454   1.663  1.1932 -0.9329  0.2175
  533SOL    HW2 1599   2.999   0.519   1.690 -0.6586 -0.2070 -0.3852
  534SOL     OW 1600   1.644   0.518   3.035 -0.7206 -0.2705 -1.3799
  534SOL    HW1 1601   1.643   0.417   3.034  0.7222 -1.4136 -0.3914
  534SOL    HW2 1602   1.710   0.552   0.012  1.0352  0.2913 -0.0951
  535SOL     OW 1603   0.828   0.178   0.250  0.3885  0.4729  0.1664
  535SOL    HW1 1604   0.889   0.167   0.171  0.0474 -0.6880  0.7128
  535SOL    HW2 1605   0.736   0.154   0.214 -2.8448 -1.4696 -2.4322
  536SOL     OW 1606   0.582   1.626   1.983 -0.1270  0.1905  0.1318
  536SOL    HW1 1607   0.511   1.622   2.057  1.3273 -1.2694 -0.3333
  536SOL    HW2 1608   0.672   1.598   2.020  0.9165 -0.7743 -0.1196
  537SOL     OW 1609   0.491   2.420   1.850 -0.1125 -0.2097 -0.5831
  537SOL    HW1 1610   0.470   2.412   1.751 -2.1565  2.1106 -0.7845
  537SOL    HW2 1611   0.415   2.384   1.911  0.1510  0.3759  0.0612
  538SOL     OW 1612   3.029   1.883   0.200 -0.2789  0.8141  0.4906
  538SOL    HW1 1613   0.025   1.836   0.176  2.7973 -0.1279 -3.9452
  538SOL    HW2 1614   3.031   1.929   0.288 -1.7123  2.3858 -1.9366
  539SOL     OW 1615   2.341   0.488   2.817 -0.5082 -0.5824  0.2549
  539SOL    HW1 1616   2.243   0.481   2.803 -1.4625 -3.2616 -0.1746
  539SOL    HW2 1617   2.387   0.448   2.740 -3.1998  2.0396  6.2733
  540SOL     OW 1618   1.265   0.795   2.800  0.3909  0.4718 -0.2825
  540SOL    HW1 1619   1.212   0.880   2.771 -0.5200  2.2877 -1.1097
  540SOL    HW2 1620   1.353   0.833   2.834 -2.9102  0.8780 -1.3116
  541SOL     OW 1621   0.862   0.472   1.746 -0.6022 -0.1855  0.1004
  541SOL    HW1 1622   0.805   0.470   1.830  0.6843  0.3903 -0.8401
  541SOL    HW2 1623   0.830   0.545   1.684  0.9914 -0.6805  4.1422
  542SOL     OW 1624   1.857   2.435   2.369 -0.0580  0.0911  0.1740
  542SOL    HW1 1625   1.791   2.381   2.311  2.0888  2.4123 -2.1069
  542SOL    HW2 1626   1.875   2.512   2.308  0.6449 -1.8233  0.3776
  543SOL     OW 1627   0.575   2.857   1.007  0.2184  0.1978  0.3758
  543SOL    HW1 1628   0.474   2.866   0.993 -1.6426 -0.9453 -0.0127
  543SOL    HW2 1629   0.612   2.913   1.084  0.1542  0.9321  0.2876
  544SOL     OW 1630   2.875   1.571   2.198 -0.0262  0.2931 -0.0116
  544SOL    HW1 1631   2.782   1.530   2.221 -2.9459 -2.1834 -0.7235
  544SOL    HW2 1632   2.930   1.572   2.281  1.7505 -1.1081  0.0507
  545SOL     OW 1633   1.779   2.037   1.395  0.5246 -0.0462  0.0239
  545SOL    HW1 1634   1.823   1.984   1.467 -1.6453  0.5082 -2.3736
  545SOL    HW2 1635   1.715   1.973   1.350 -1.0688 -0.4720  1.9120
  546SOL     OW 1636   0.206   0.300   2.519 -0.0224  0.1804  0.4688
  546SOL    HW1 1637   0.122   0.261   2.488  1.6651  2.0086 -1.0054
  546SOL    HW2 1638   0.259   0.226   2.569  0.0908 -2.3488  2.4187
  547SOL     OW 1639   1.420   0.549   0.887 -0.1961 -0.1314  0.0319
  547SOL    HW1 1640   1.507   0.503   0.884 -2.2403  0.5761 -1.5375
  547SOL    HW2 1641   1.427   0.630   0.949  1.1263 -1.7407 -0.0189
  548SOL     OW 1642   1.174   2.335   2.879  0.3037 -0.3998  0.2625
  548SOL    HW1 1643   1.124   2.279   2.951 -1.9532 -1.4424  0.1959
  548SOL    HW2 1644   1.271   2.362   2.897  1.3474 -0.5594 -0.9719
  549SOL     OW 1645   2.146   0.712   2.673 -0.3907  0.2953 -0.4126
  549SOL    HW1 1646   2.228   0.726   2.731 -0.0943  0.6177  0.9042
  549SOL    HW2 1647   2.155   0.750   2.578  0.8501 -1.7574  3.5079
  550SOL     OW 1648   2.627   2.021   0.357  0.2125 -0.1715  0.3914
  550SOL    HW1 1649   2.543   2.037   0.303 -1.4346  1.8171  3.2728
  550SOL    HW2 1650   2.690   1.946   0.312  0.6013 -0.6172 -0.1981
  551SOL     OW 1651   1.235   2.881   2.108  0.4794  0.1815  1.4853
  551SOL    HW1 1652   1.312   2.819   2.082 -1.7996  0.5060 -0.9660
  551SOL    HW2 1653   1.224   2.890   2.214 -0.8375  0.6286  2.8251
  552SOL     OW 1654   2.978   2.189   2.672  0.4042  0.0941 -0.5962
  552SOL    HW1 1655   2.944   2.106   2.622  0.8841  0.6856 -1.5604
  552SOL    HW2 1656   2.923   2.211   2.761 -0.3159 -1.3575  2.3631
  553SOL     OW 1657   0.163   2.542   1.177 -0.2856 -0.0939  0.3253
  553SOL    HW1 1658   0.220   2.607   1.123  0.5513  0.7686  0.7091
  553SOL    HW2 1659   0.069   2.574   1.182  4.0197  0.3036  0.3292
  554SOL     OW 1660   2.379   1.862   1.820  0.1372  0.2823 -0.4846
  554SOL    HW1 1661   2.331   1.910   1.899 -0.2813  0.4414  2.2408
  554SOL    HW2 1662   2.333   1.879   1.732 -0.2306  1.2697  1.3625
  555SOL     OW 1663   1.613   2.108   1.913  0.1805  0.0697  0.1139
  555SOL    HW1 1664   1.584   2.022   1.873  2.5731 -1.8471 -1.1472
  555SOL    HW2 1665   1.555   2.184   1.879 -1.2968 -0.0127 -0.4207
  556SOL     OW 1666   1.344   1.694   1.071  0.1165  0.1665  0.1410
  556SOL    HW1 1667   1.372   1.643   1.157 -0.9350 -2.8313 -2.4143
  556SOL    HW2 1668   1.371   1.793   1.071 -0.3827  1.2383  4.2382
  557SOL     OW 1669   1.212   3.083   1.561 -0.3928  0.7389  0.5497
  557SOL    HW1 1670   1.261   0.062   1.615 -0.9928  0.9430  0.0133
  557SOL    HW2 1671   1.114   3.081   1.597 -0.5797 -0.6970 -0.3165
  558SOL     OW 1672   0.511   0.014   1.903  0.2224 -1.0819 -0.1107
  558SOL    HW1 1673   0.537   0.031   2.003 -1.6093  0.2756  1.3393
  558SOL    HW2 1674   0.493   0.098   1.858 -1.5625 -2.2571 -0.3831
  559SOL     OW 1675   2.205   2.690   0.280  0.0268 -0.4667 -0.1762
  559SOL    HW1 1676   2.153   2.781   0.281 -2.3450 -0.3359 -4.4141
  559SOL    HW2 1677   2.263   2.674   0.364  1.1367 -2.4745  0.6570
  560SOL     OW 1678   1.405   2.601   0.598 -0.1357 -0.0202 -0.7034
  560SOL    HW1 1679   1.345   2.610   0.518  1.4759  1.0822 -0.6025
  560SOL    HW2 1680   1.447   2.509   0.609 -1.9921 -1.4938 -0.9287
  561SOL     OW 1681   1.081   0.379   0.096  0.2145  0.0872  0.3363
  561SOL    HW1 1682   1.036   0.444   0.039 -1.6699 -2.6143 -0.3984
  561SOL    HW2 1683   1.088   0.413   0.190  1.2319 -0.8085 -2.1363
  562SOL     OW 1684   0.428   1.288   2.215  0.4439 -0.1690  0.4578
  562SOL    HW1 1685   0.419   1.200   2.265  0.6811  0.3595 -4.0894
  562SOL    HW2 1686   0.422   1.375   2.274 -0.3912  0.5310  1.1455
  563SOL     OW 1687   1.351   2.037   2.400 -0.3393 -0.5061 -0.2314
  563SOL    HW1 1688   1.288   2.111   2.417  0.9081 -2.8706  1.5084
  563SOL    HW2 1689   1.423   2.076   2.341  0.1236  2.1613  1.0286
  564SOL     OW 1690   2.952   0.917   0.926 -0.3491  0.1394  0.4523
  564SOL    HW1 1691   2.852   0.895   0.924  3.6372  1.2291 -2.3540
  564SOL    HW2 1692   2.972   1.001   0.976  0.1515  0.1104 -1.4550
  565SOL     OW 1693   0.494   0.755   0.116  0.1176  0.2593 -0.3889
  565SOL    HW1 1694   0.484   0.697   0.031  0.5037  0.6411  1.7548
  565SOL    HW2 1695   0.587   0.786   0.124 -2.4491  0.1811  1.2736
  566SOL     OW 1696   2.649   2.889   2.630 -0.1885  0.6740  0.5830
  566SOL    HW1 1697   2.653   2.949   2.546  0.0087  1.8187 -0.5020
  566SOL    HW2 1698   2.557   2.860   2.655  0.6606  0.5315  1.0563
  567SOL     OW 1699   1.455   1.138   0.809 -0.2704 -1.2966 -0.3212
  567SOL    HW1 1700   1.483   1.217   0.744 -0.9005 -0.1746 -0.2215
  567SOL    HW2 1701   1.511   1.144   0.895 -0.6710  1.3892 -0.9253
  568SOL     OW 1702   1.466   1.881   2.846  0.1345  0.1884  0.4239
  568SOL    HW1 1703   1.416   1.802   2.884 -1.0601 -1.4294  1.0727
  568SOL    HW2 1704   1.568   1.865   2.844 -0.6126 -0.2888 -1.3348
  569SOL     OW 1705   2.159   1.404   2.999  0.8561 -0.1481 -0.4649
  569SOL    HW1 1706   2.263   1.411   3.004 -2.1210  0.2894 -1.0129
  569SOL    HW2 1707   2.128   1.309   3.016  2.5050 -1.3225  0.2243
  570SOL     OW 1708   0.052   2.246   1.935 -0.4629  0.3561 -0.1492
  570SOL    HW1 1709   0.080   2.332   1.977 -2.6415  1.1916 -1.8671
  570SOL    HW2 1710   0.102   2.227   1.845  0.3922 -0.7756 -1.8915
  571SOL     OW 1711   2.649   1.857   1.522 -0.0893 -0.0008  0.2387
  571SOL    HW1 1712   2.674   1.944   1.472 -0.3453 -0.9937 -1.4280
  571SOL    HW2 1713   2.646   1.863   1.621  1.0105  0.7230 -1.1686
  572SOL     OW 1714   1.765   2.223   0.242  0.2507 -0.2620 -0.2844
  572SOL    HW1 1715   1.711   2.270   0.162 -0.9123  2.4045 -0.2216
  572SOL    HW2 1716   1.867   2.220   0.221  3.4426  0.2872 -1.5856
  573SOL     OW 1717   1.617   2.149   0.446  0.3311 -0.1081  0.3795
  573SOL    HW1 1718   1.678   2.142   0.364  1.0507  0.2704 -0.2291
  573SOL    HW2 1719   1.642   2.073   0.509 -0.4645 -1.1085  0.8542
  574SOL     OW 1720   1.151   0.016   1.282  0.0644 -0.3263 -0.4437
  574SOL    HW1 1721   1.173   3.073   1.374 -1.0186 -0.4797  0.5012
  574SOL    HW2 1722   1.065   3.061   1.239 -3.1456 -3.1429 -3.6508
  575SOL     OW 1723   0.645   1.108   1.608  0.0029  0.0314  0.6196
  575SOL    HW1 1724   0.681   1.175   1.678  0.8087 -0.1184 -0.0117
  575SOL    HW2 1725   0.704   1.021   1.595  1.4126 -2.9410 -0.6672
  576SOL     OW 1726   2.624   0.610   1.544 -0.2478  0.0843 -0.0772
  576SOL    HW1 1727   2.714   0.581   1.579  1.2513 -2.8516  0.0359
  576SOL    HW2 1728   2.618   0.707   1.549 -1.1339 -2.3006  1.8125
  577SOL     OW 1729   1.442   1.038   2.231  0.0407  0.2851 -0.1130
  577SOL    HW1 1730   1.454   0.964   2.302 -0.0900 -0.6681  2.1305
  577SOL    HW2 1731   1.385   1.004   2.152  2.7964  0.0952  1.2324
  578SOL     OW 1732   1.941   1.198   2.425 -0.6463  0.5298 -0.7350
  578SOL    HW1 1733   1.978   1.227   2.517 -2.0750 -0.9149  0.6371
  578SOL    HW2 1734   1.989   1.247   2.351 -0.1443 -0.9951 -1.3363
  579SOL     OW 1735   1.166   2.019   1.491 -0.3449 -0.5222  0.5200
  579SOL    HW1 1736   1.068   2.039   1.507 -0.9211  0.4586 -0.5110
  579SOL    HW2 1737   1.193   2.000   1.394 -1.2915  3.9651 -2.1835
  580SOL     OW 1738   1.467   2.322   0.286  0.8800  0.6769  0.7264
  580SOL    HW1 1739   1.515   2.342   0.199 -0.1209  1.2034  0.1335
  580SOL    HW2 1740   1.527   2.289   0.360  1.3260  1.0902  2.0491
  581SOL     OW 1741   1.008   0.776   2.023 -0.0744 -0.0632  0.0425
  581SOL    HW1 1742   0.946   0.692   2.036  0.5516 -0.1586  0.0990
  581SOL    HW2 1743   1.057   0.796   2.108  0.2636  1.6479 -0.6146
  582SOL     OW 1744   0.863   0.896   1.600 -0.5716 -0.0697 -0.1189
  582SOL    HW1 1745   0.944   0.896   1.662 -0.7582  1.1115 -0.2701
  582SOL    HW2 1746   0.877   0.934   1.507  1.3181 -0.8649 -1.6947
  583SOL     OW 1747   0.902   1.025   2.004 -0.0504  0.1359 -0.1737
  583SOL    HW1 1748   0.945   0.934   2.019 -0.9021  2.4759 -0.9032
  583SOL    HW2 1749   0.970   1.092   1.965 -2.6113 -2.6737  2.4219
  584SOL     OW 1750   2.405   2.402   0.698 -0.5258 -0.0758 -0.0037
  584SOL    HW1 1751   2.500   2.375   0.733  0.9645 -1.0502 -0.7131
  584SOL    HW2 1752   2.347   2.328   0.675 -0.0653  2.4261  0.6620
  585SOL     OW 1753   1.870   0.196   2.873  0.1579  0.3406 -0.0721
  585SOL    HW1 1754   1.817   0.269   2.913 -0.1619  1.2561 -2.9472
  585SOL    HW2 1755   1.837   0.184   2.778  0.9225 -1.0119 -2.1596
  586SOL     OW 1756   0.049   2.037   0.817  0.2885 -0.2150  0.0274
  586SOL    HW1 1757   3.087   2.112   0.776 -0.5754 -0.3166 -0.5148
  586SOL    HW2 1758   0.040   2.035   0.918 -1.9973  1.6575 -1.6572
  587SOL     OW 1759   1.748   1.981   0.038  0.2481 -0.5524  0.3274
  587SOL    HW1 1760   1.781   2.068   0.078  0.8712 -0.0029  1.0093
  587SOL    HW2 1761   1.649   1.962   0.057 -4.3053  0.4573  2.3904
  588SOL     OW 1762   0.032   0.150   0.784 -0.1208 -0.0535 -0.5968
  588SOL    HW1 1763   0.016   0.226   0.843  0.2589  0.8054 -0.8168
  588SOL    HW2 1764   0.117   0.168   0.730 -0.2881 -1.1139  2.9820
  589SOL     OW 1765   1.383   0.798   1.008 -0.3629  0.1534  0.2269
  589SOL    HW1 1766   1.283   0.815   1.014 -1.8385 -0.4118 -2.3955
  589SOL    HW2 1767   1.420   0.816   0.916 -0.9780  1.0494 -2.9644
  590SOL     OW 1768   1.552   1.369   0.106 -0.3015  0.1157 -0.1730
  590SOL    HW1 1769   1.594   1.463   0.104 -0.5903  1.6039 -0.2397
  590SOL    HW2 1770   1.556   1.323   0.018 -0.7121 -0.1792  1.6657
  591SOL     OW 1771   2.565   2.297   2.539 -0.0864 -0.0743  0.1644
  591SOL    HW1 1772   2.564   2.352   2.628  0.3302  1.5049  0.1027
  591SOL    HW2 1773   2.491   2.339   2.482 -1.2008 -2.1058 -0.0075
  592SOL     OW 1774   1.701   2.260   1.513 -0.2909 -0.3619 -0.3965
  592SOL    HW1 1775   1.617   2.304   1.476  0.1914 -2.4364 -3.0419
  592SOL    HW2 1776   1.723   2.170   1.466 -0.7686  1.4713  0.7511
  593SOL     OW 1777   0.712   0.087   0.903 -0.0676  0.2405  0.8263
  593SOL    HW1 1778   0.731   0.181   0.933  1.5450  0.3626 -0.6676
  593SOL    HW2 1779   0.796   0.022   0.915  3.1344 -4.1246  2.5022
  594SOL     OW 1780   2.975   0.601   2.475  0.0823  0.8975  0.0664
  594SOL    HW1 1781   3.001   0.685   2.525 -2.7203 -3.8913 -2.7916
  594SOL    HW2 1782   2.963   0.516   2.534 -1.2262 -0.9756  2.1222
  595SOL     OW 1783   0.558   2.598   1.276  0.3740 -0.4942 -0.1736
  595SOL    HW1 1784   0.538   2.566   1.180  1.1378 -2.5264  1.3118
  595SOL    HW2 1785   0.482   2.663   1.300 -2.4634  0.9292  1.5564
  596SOL     OW 1786   0.202   0.872   1.418  0.3337  0.1685  0.2481
  596SOL    HW1 1787   0.172   0.923   1.332 -1.3974 -0.4525  0.4563
  596SOL    HW2 1788   0.298   0.888   1.432 -0.7396 -0.0764 -0.2569
  597SOL     OW 1789   1.473   1.987   0.114 -0.5351  0.3853 -0.1138
  597SOL    HW1 1790   1.464   2.020   0.016  2.6044  1.0701  0.8535
  597SOL    HW2 1791   1.384   1.957   0.155 -0.0161 -1.4361 -0.4452
  598SOL     OW 1792   0.435   2.845   1.871 -0.2000 -0.1396  0.0212
  598SOL    HW1 1793   0.466   2.821   1.777 -0.9381  3.1662  1.1470
  598SOL    HW2 1794   0.441   2.948   1.887 -2.6506  0.1375 -0.2986
  599SOL     OW 1795   2.425   1.640   2.758 -0.1228 -0.1067  0.1073
  599SOL    HW1 1796   2.401   1.603   2.669  0.1669  1.2075 -0.6145
  599SOL    HW2 1797   2.524   1.664   2.748 -3.3990 -1.7762  1.6273
  600SOL     OW 1798   0.862   1.102   0.244  0.3562 -0.3860 -0.4665
  600SOL    HW1 1799   0.821   1.136   0.336 -1.1385  1.2057 -0.0535
  600SOL    HW2 1800   0.877   1.183   0.181 -0.1680  1.1687  0.4260
  601SOL     OW 1801   0.557   0.815   0.837 -0.0767 -0.2463 -0.0523
  601SOL    HW1 1802   0.503   0.905   0.836 -1.3675  1.1275 -1.1988
  601SOL    HW2 1803   0.642   0.822   0.886  0.4910  0.1991  0.3006
  602SOL     OW 1804   1.409   0.204   0.877 -0.4009  0.3489  0.4527
  602SOL    HW1 1805   1.314   0.239   0.878 -0.9176  1.6318  3.8150
  602SOL    HW2 1806   1.472   0.257   0.821 -2.2845  0.8311  0.3092
  603SOL     OW 1807   0.689   2.871   2.293  0.1837  0.3280  0.0371
  603SOL    HW1 1808   0.754   2.821   2.350  1.7018  2.0609 -3.1220
  603SOL    HW2 1809   0.735   2.951   2.252 -0.0916 -0.8438 -0.6364
  604SOL     OW 1810   3.040   2.907   2.577  0.0226  0.1818 -0.6241
  604SOL    HW1 1811   0.012   2.973   2.528 -1.5924 -1.7740  0.4047
  604SOL    HW2 1812   3.070   2.811   2.568  1.7671  2.5156 -0.5307
  605SOL     OW 1813   2.652   1.557   1.190 -0.4640 -0.1077 -0.2857
  605SOL    HW1 1814   2.594   1.501   1.249  1.2111  0.2737 -1.8525
  605SOL    HW2 1815   2.746   1.520   1.182  2.7402 -2.0564  0.8205
  606SOL     OW 1816   0.595   1.499   2.705  0.0186  0.2814 -0.0493
  606SOL    HW1 1817   0.542   1.580   2.726  2.8552 -1.9819 -0.9214
  606SOL    HW2 1818   0.556   1.415   2.746  1.5805  2.2816 -0.6873
  607SOL     OW 1819   0.718   0.349   0.472  0.4764  0.1773 -0.0522
  607SOL    HW1 1820   0.784   0.308   0.410 -0.6106 -1.2759  0.7968
  607SOL    HW2 1821   0.650   0.417   0.436  0.2426  0.2134  0.1455
  608SOL     OW 1822   1.745   1.393   2.054  0.0584 -0.0154 -0.0096
  608SOL    HW1 1823   1.708   1.323   2.123 -1.0777  0.0201  2.9976
  608SOL    HW2 1824   1.674   1.467   2.044 -0.8887 -0.3881  0.2609
  609SOL     OW 1825   2.808   0.215   1.007  0.7963  0.5635  0.4257
  609SOL    HW1 1826   2.789   0.210   1.106 -1.1824 -1.2668  1.1190
  609SOL    HW2 1827   2.893   0.259   0.994 -1.0493 -0.6265  0.1835
  610SOL     OW 1828   0.636   2.803   0.631  0.6403 -0.3062 -0.4671
  610SOL    HW1 1829   0.712   2.801   0.562  0.1845  0.1950  0.0217
  610SOL    HW2 1830   0.608   2.900   0.647  0.4630  0.2216 -0.1548
  611SOL     OW 1831   1.473   0.950   2.937 -0.2816  0.6029 -0.2345
  611SOL    HW1 1832   1.463   1.049   2.975 -1.4502  2.0944 -0.3686
  611SOL    HW2 1833   1.524   0.891   2.998 -1.4783  1.8468 -2.8237
  612SOL     OW 1834   0.778   2.128   2.106 -0.1894  0.0490 -0.3180
  612SOL    HW1 1835   0.813   2.084   2.193 -0.9750  0.0798  1.3206
  612SOL    HW2 1836   0.813   2.223   2.088  0.8264  1.7073 -0.9968
  613SOL     OW 1837   0.606   2.539   0.747 -0.1006  0.0573  0.4752
  613SOL    HW1 1838   0.667   2.481   0.693 -0.8838  1.6954 -2.3864
  613SOL    HW2 1839   0.603   2.631   0.707 -1.6346 -1.4809 -0.7407
  614SOL     OW 1840   2.714   2.701   1.629 -0.0524 -0.2182  0.5589
  614SOL    HW1 1841   2.689   2.605   1.634  0.2888  1.0343  0.4760
  614SOL    HW2 1842   2.770   2.725   1.710  0.3911  1.0477  1.3629
  615SOL     OW 1843   1.826   1.145   0.278 -0.3842 -0.0398  0.1392
  615SOL    HW1 1844   1.765   1.068   0.314 -3.2373 -1.4139 -2.0930
  615SOL    HW2 1845   1.925   1.121   0.268  1.9962  1.1819 -1.1261
  616SOL     OW 1846   1.747   0.693   0.443 -0.1877  0.0750  0.0871
  616SOL    HW1 1847   1.758   0.641   0.530  0.1132 -0.7484 -0.9437
  616SOL    HW2 1848   1.675   0.647   0.391  1.3985 -0.3412 -0.5609
  617SOL     OW 1849   1.056   1.157   2.953  0.3054  0.1299 -0.6759
  617SOL    HW1 1850   1.129   1.103   3.005  2.6220  1.7815 -1.9443
  617SOL    HW2 1851   1.005   1.211   3.021 -0.4787  0.8530 -1.1329
  618SOL     OW 1852   0.791   0.145   1.924 -0.6807 -0.4706  0.3579
  618SOL    HW1 1853   0.730   0.063   1.925 -1.7589  1.9557  0.1493
  618SOL    HW2 1854   0.738   0.226   1.916  0.4705 -2.4585  0.9058
  619SOL     OW 1855   2.832   1.034   1.459  0.2530 -0.1880 -0.2048
  619SOL    HW1 1856   2.922   1.073   1.460 -0.7541 -0.3963 -1.1441
  619SOL    HW2 1857   2.819   1.006   1.558  1.6008  1.3918 -0.6116
  620SOL     OW 1858   2.236   1.096   2.668  0.1131 -0.3338  0.6733
  620SOL    HW1 1859   2.277   1.069   2.580 -0.7779  0.4173 -2.8262
  620SOL    HW2 1860   2.169   1.172   2.659  0.5108 -0.3629  1.8742
  621SOL     OW 1861   2.509   2.533   1.335  0.5707  0.4819  0.0512
  621SOL    HW1 1862   2.495   2.623   1.291  1.4318  0.6212 -0.7259
  621SOL    HW2 1863   2.602   2.495   1.307 -1.1639  0.3949  0.2721
  622SOL     OW 1864   0.988   0.733   2.763  0.3436 -0.5508  0.2340
  622SOL    HW1 1865   0.959   0.732   2.664  2.4211  2.8011  0.4487
  622SOL    HW2 1866   1.089   0.744   2.771  0.8210 -1.0812 -1.9160
  623SOL     OW 1867   1.010   0.526   2.933 -0.0480 -0.1444  0.6525
  623SOL    HW1 1868   0.949   0.446   2.911 -2.2502 -2.7820 -1.4861
  623SOL    HW2 1869   0.994   0.592   2.861  1.2749 -3.3652 -0.2524
  624SOL     OW 1870   1.996   0.801   2.947 -0.3642 -0.2537  0.2885
  624SOL    HW1 1871   1.946   0.835   2.865 -1.2702 -0.7051  0.6384
  624SOL    HW2 1872   2.023   0.705   2.937  0.4874  0.5556 -0.8247
  625SOL     OW 1873   1.299   1.344   0.988  0.5326  0.6378  0.1842
  625SOL    HW1 1874   1.311   1.252   0.953 -0.6185  0.0646  0.9678
  625SOL    HW2 1875   1.277   1.345   1.090 -1.2023  2.1125  1.9203
  626SOL     OW 1876   1.664   1.161   2.636 -0.2329  0.4070 -0.1106
  626SOL    HW1 1877   1.650   1.069   2.589 -2.0412 -0.2677 -1.6270
  626SOL    HW2 1878   1.708   1.149   2.729  0.0054 -1.1485  1.9470
  627SOL     OW 1879   1.089   0.005   2.580 -0.1425  0.2772  0.0070
  627SOL    HW1 1880   1.120   3.002   2.586 -1.5503 -2.0389  0.5899
  627SOL    HW2 1881   1.097   0.045   2.671  0.6167 -2.3080 -1.0184
  628SOL     OW 1882   2.667   3.055   2.405  0.0009  0.3664 -0.0736
  628SOL    HW1 1883   2.586   0.020   2.421 -0.7669  1.2438 -0.9433
  628SOL    HW2 1884   2.733   0.025   2.353 -0.4123 -1.4313 -0.4285
  629SOL     OW 1885   0.778   0.787   2.933  0.0571 -0.2089 -0.1215
  629SOL    HW1 1886   0.867   0.795   2.882  2.1284 -1.1022 -0.2043
  629SOL    HW2 1887   0.786   0.812   3.027  1.3846  0.3908 -3.2012
  630SOL     OW 1888   1.242   0.319   2.151 -0.0356 -0.0327 -0.0674
  630SOL    HW1 1889   1.174   0.315   2.229 -1.3116  0.4828 -0.1733
  630SOL    HW2 1890   1.289   0.230   2.141  1.1451  2.0120 -0.5598
  631SOL     OW 1891   0.023   0.691   0.596 -0.1627  0.2567  0.1914
  631SOL    HW1 1892   3.078   0.692   0.497 -1.3398  0.5047  0.8089
  631SOL    HW2 1893   0.125   0.702   0.603  2.0002  2.1155  1.4871
  632SOL     OW 1894   2.057   0.766   1.433 -0.3078  0.2067  0.0437
  632SOL    HW1 1895   2.030   0.791   1.528  2.6067 -2.2927  0.5020
  632SOL    HW2 1896   2.094   0.668   1.426  2.0922 -3.0399 -1.9673
  633SOL     OW 1897   1.195   1.100   0.837  0.2471  0.1907 -0.0428
  633SOL    HW1 1898   1.173   1.009   0.878  0.1521 -2.0187 -0.9432
  633SOL    HW2 1899   1.295   1.106   0.825 -0.9298  2.8131 -2.6172
  634SOL     OW 1900   1.870   2.955   0.924 -0.5293  0.1524  0.0082
  634SOL    HW1 1901   1.962   2.991   0.921  0.4188 -2.3058  2.3411
  634SOL    HW2 1902   1.872   2.857   0.938 -2.2279  2.1510  0.4251
  635SOL     OW 1903   1.759   0.756   1.101  0.2208  0.4148  0.2318
  635SOL    HW1 1904   1.746   0.795   1.010  1.0024  1.9433  2.2382
  635SOL    HW2 1905   1.767   0.827   1.171  0.3577 -2.4482 -1.0649
  636SOL     OW 1906   0.961   1.088   0.693 -0.1021  0.2996  0.0441
  636SOL    HW1 1907   0.872   1.093   0.746 -1.1527  0.2555  0.6024
  636SOL    HW2 1908   1.040   1.108   0.750 -0.9408 -1.5229 -0.0776
  637SOL     OW 1909   2.486   2.110   3.049 -0.4715 -0.0547  0.1356
  637SOL    HW1 1910   2.537   2.021   3.050  1.9622  1.9195 -0.0542
  637SOL    HW2 1911   2.506   2.146   2.953  1.0788 -2.5293 -2.6895
  638SOL     OW 1912   1.277   2.574   2.652 -0.1168 -0.0756  0.1267
  638SOL    HW1 1913   1.268   2.547   2.554  1.7254  3.1935 -0.6519
  638SOL    HW2 1914   1.367   2.531   2.692  3.2352 -0.9877 -0.2651
  639SOL     OW 1915   0.786   2.292   1.303  0.5456  0.0279 -0.5175
  639SOL    HW1 1916   0.794   2.389   1.340  0.4092 -1.7503 -2.6372
  639SOL    HW2 1917   0.797   2.291   1.205 -2.2088  0.3921  0.6117
  640SOL     OW 1918   2.688   2.784   0.339 -0.4334  0.3071  0.3869
  640SOL    HW1 1919   2.687   2.879   0.375  0.1024 -1.3644  0.8764
  640SOL    HW2 1920   2.669   2.717   0.413  0.9138 -0.9232  3.3963
  641SOL     OW 1921   0.430   0.318   0.165 -0.4269 -0.3624 -0.3679
  641SOL    HW1 1922   0.449   0.389   0.239  1.3232 -0.6082 -3.1136
  641SOL    HW2 1923   0.457   0.344   0.068  2.6482  1.0821 -3.0488
  642SOL     OW 1924   2.899   0.711   1.151 -0.4351  0.2198  0.1162
  642SOL    HW1 1925   2.820   0.645   1.141 -1.9362  0.0971 -1.9016
  642SOL    HW2 1926   2.927   0.734   1.056  0.7246 -3.6725 -3.1295
  643SOL     OW 1927   0.779   1.937   1.904  0.0415 -0.3337 -0.0128
  643SOL    HW1 1928   0.690   1.933   1.858  0.0586  0.2375  0.4773
  643SOL    HW2 1929   0.780   2.017   1.961 -0.6181 -0.5988  0.4265
  644SOL     OW 1930   1.546   2.610   0.208 -0.0077  0.0379  0.7920
  644SOL    HW1 1931   1.542   2.527   0.154 -0.0992  0.8322  0.9862
  644SOL    HW2 1932   1.622   2.609   0.275  0.8617  1.3767 -0.8727
  645SOL     OW 1933   1.888   2.091   0.582 -0.4407 -0.3153 -0.2454
  645SOL    HW1 1934   1.925   2.046   0.498 -1.8466  1.1803  3.8366
  645SOL    HW2 1935   1.881   2.195   0.573  2.4127  2.2118  1.8087
  646SOL     OW 1936   1.324   2.770   0.190 -0.1465  0.0591 -0.5146
  646SOL    HW1 1937   1.241   2.721   0.228  1.9731  2.2263  1.4738
  646SOL    HW2 1938   1.411   2.712   0.196  0.9507  2.6271 -1.3116
  647SOL     OW 1939   0.578   2.627   1.999 -0.6589 -0.7938  0.1397
  647SOL    HW1 1940   0.534   2.703   1.949 -0.5198 -1.6276 -1.1438
  647SOL    HW2 1941   0.555   2.536   1.958 -1.8476  1.0196 -1.5668
  648SOL     OW 1942   1.831   0.913   1.339  0.5311  0.3038  0.4088
  648SOL    HW1 1943   1.843   1.008   1.303 -2.6881 -0.3191  0.0536
  648SOL    HW2 1944   1.915   0.863   1.353 -2.2383  2.3189  0.0621
  649SOL     OW 1945   1.446   2.404   2.873  0.6551 -0.0091 -0.5160
  649SOL    HW1 1946   1.523   2.367   2.812 -0.6293 -0.2123 -0.9072
  649SOL    HW2 1947   1.463   2.505   2.891 -0.6819  0.5355  3.5196
  650SOL     OW 1948   2.219   1.525   1.726 -0.0458  0.1723 -0.7102
  650SOL    HW1 1949   2.273   1.562   1.802  3.2755  1.6981 -1.9911
  650SOL    HW2 1950   2.119   1.520   1.741  1.7463  0.9188  2.1213
  651SOL     OW 1951   1.210   2.174   0.188  0.0456  0.2063 -0.0795
  651SOL    HW1 1952   1.218   2.075   0.216 -0.2141  0.6526  2.0389
  651SOL    HW2 1953   1.301   2.221   0.209  2.0872  3.3259  0.1248
  652SOL     OW 1954   0.804   2.564   3.068  0.1337 -0.1305  0.2368
  652SOL    HW1 1955   0.887   2.561   3.006  0.8991 -1.6389  0.2616
  652SOL    HW2 1956   0.736   2.625   3.032  1.8132 -1.9858 -3.4134
  653SOL     OW 1957   2.402   1.957   1.043 -0.5195  0.4945  0.0607
  653SOL    HW1 1958   2.431   2.050   1.056 -0.5760 -1.5331  2.5205
  653SOL    HW2 1959   2.354   1.920   1.125 -2.7000 -0.9527  0.8701
  654SOL     OW 1960   2.948   2.527   1.684  0.4730  0.2994 -0.0276
  654SOL    HW1 1961   2.960   2.627   1.709 -1.0718  4.6757  1.1897
  654SOL    HW2 1962   2.932   2.517   1.584  0.1936 -2.6256  1.1209
  655SOL     OW 1963   2.867   2.035   1.166 -0.3801  0.2253 -0.0869
  655SOL    HW1 1964   2.806   2.001   1.099  1.7336  1.9846  2.1005
  655SOL    HW2 1965   2.815   2.071   1.250 -0.7546 -0.8780 -0.8928
  656SOL     OW 1966   0.174   2.852   2.782 -0.1442 -0.2529  0.0411
  656SOL    HW1 1967   0.108   2.894   2.717  1.8759 -3.3194  0.3728
  656SOL    HW2 1968   0.123   2.790   2.846 -3.1935  0.4925  2.3071
  657SOL     OW 1969   0.143   0.821   0.347  0.3003 -0.4437  0.0800
  657SOL    HW1 1970   0.133   0.804   0.248  0.2260 -0.1668  1.1246
  657SOL    HW2 1971   0.237   0.809   0.372 -0.6452 -2.5294 -0.6216
  658SOL     OW 1972   1.996   1.928   0.852  0.4817  0.3327 -0.0531
  658SOL    HW1 1973   1.940   1.956   0.932 -2.1287 -0.6820 -0.0370
  658SOL    HW2 1974   1.965   1.980   0.767 -2.6114 -2.6323 -2.5397
  659SOL     OW 1975   1.702   0.357   1.172 -0.0800 -0.7544  1.1778
  659SOL    HW1 1976   1.751   0.294   1.107 -0.9479 -1.7784  0.8396
  659SOL    HW2 1977   1.636   0.296   1.220 -0.1610 -0.1839 -1.6740
  660SOL     OW 1978   1.271   1.655   0.117  0.2085 -0.1704  0.1656
  660SOL    HW1 1979   1.178   1.619   0.133  2.3449  1.4945 -1.9697
  660SOL    HW2 1980   1.327   1.655   0.200 -2.0197  0.5235 -1.1005
  661SOL     OW 1981   0.213   1.880   0.630 -0.1243  0.1970 -0.0515
  661SOL    HW1 1982   0.288   1.930   0.582  0.0113  1.2094 -1.5018
  661SOL    HW2 1983   0.159   1.950   0.675 -0.7924 -0.1495 -2.4217
  662SOL     OW 1984   0.174   0.545   2.181 -0.3063  0.3871  0.6439
  662SOL    HW1 1985   0.119   0.462   2.209 -1.2775 -1.3929 -0.8167
  662SOL    HW2 1986   0.120   0.628   2.202 -0.9869  0.4515 -0.7895
  663SOL     OW 1987   2.219   1.376   1.055  0.3010 -0.5871 -0.1388
  663SOL    HW1 1988   2.133   1.358   1.007  0.1913  1.0898  1.4861
  663SOL    HW2 1989   2.231   1.480   1.073  1.1995  0.7239  1.4473
  664SOL     OW 1990   0.732   0.330   1.060 -0.1811  0.4802  1.1789
  664SOL    HW1 1991   0.820   0.386   1.039 -1.4491 -1.8628 -4.3173
  664SOL    HW2 1992   0.684   0.362   1.145  0.2863  0.8012  0.9969
  665SOL     OW 1993   1.387   2.988   2.844  0.4120  0.5725 -0.1699
  665SOL    HW1 1994   1.469   2.964   2.900  0.7676  0.9877 -3.8821
  665SOL    HW2 1995   1.363   3.081   2.869  2.0145 -0.8725  0.1375
  666SOL     OW 1996   0.191   0.594   2.512  0.4000 -0.4958  0.3561
  666SOL    HW1 1997   0.210   0.494   2.519  2.4970 -0.1905 -1.2972
  666SOL    HW2 1998   0.097   0.608   2.477  0.3524  1.9174  1.2809
  667SOL     OW 1999   1.949   1.532   2.199 -0.2912  0.7692 -0.0038
  667SOL    HW1 2000   1.895   1.555   2.281  0.9453 -0.5886 -1.3818
  667SOL    HW2 2001   1.888   1.498   2.121  1.1328  0.7546 -1.2219
  668SOL     OW 2002   0.054   1.590   3.002  0.1187 -0.4190 -0.1460
  668SOL    HW1 2003   0.115   1.516   2.965 -0.3117  3.5607 -1.3211
  668SOL    HW2 2004   3.057   1.559   3.045 -2.6779  0.7018  1.9908
  669SOL     OW 2005   2.036   2.754   2.481 -0.0207  0.1613 -0.4016
  669SOL    HW1 2006   2.024   2.784   2.385  0.9080  1.5880 -2.0517
  669SOL    HW2 2007   2.126   2.708   2.488  2.1448 -1.5276 -0.6762
  670SOL     OW 2008   2.400   1.046   2.422 -0.7981  0.3944  0.1581
  670SOL    HW1 2009   2.447   0.962   2.397 -0.1248  0.6818  0.0436
  670SOL    HW2 2010   2.303   1.038   2.388 -0.9160 -1.0054  2.1855
  671SOL     OW 2011   2.291   1.297   0.245  0.1230  0.4603 -0.1422
  671SOL    HW1 2012   2.370   1.339   0.194  0.8235  2.6903 -0.1648
  671SOL    HW2 2013   2.251   1.368   0.309 -1.2552  1.1218 -0.5141
  672SOL     OW 2014   2.653   1.115   2.448  0.0117  0.0770  0.3553
  672SOL    HW1 2015   2.678   1.145   2.543 -1.9217  1.9351  2.3519
  672SOL    HW2 2016   2.551   1.106   2.441  0.5379 -1.0014  0.3132
  673SOL     OW 2017   2.568   1.134   1.427  0.3584 -0.2038 -0.1248
  673SOL    HW1 2018   2.533   1.108   1.336  0.1634 -1.1347 -0.1556
  673SOL    HW2 2019   2.672   1.132   1.426 -0.1626  0.1547  1.0256
  674SOL     OW 2020   1.700   1.717   1.635  0.3148  0.2338 -0.1764
  674SOL    HW1 2021   1.794   1.758   1.629  1.6903 -2.0001  0.0216
  674SOL    HW2 2022   1.652   1.715   1.548  1.6839  1.0574  0.8330
  675SOL     OW 2023   3.024   0.364   0.935 -0.4491 -0.3968  0.1326
  675SOL    HW1 2024   3.030   0.462   0.909  0.6836  0.5405  0.9313
  675SOL    HW2 2025   3.075   0.349   1.025  0.8525 -0.9804 -3.4124
  676SOL     OW 2026   2.098   0.828   1.107 -0.1027  0.5764 -0.3882
  676SOL    HW1 2027   2.159   0.879   1.170  0.4442 -1.3646  0.0120
  676SOL    HW2 2028   2.022   0.775   1.162 -4.4715 -1.4753  1.1852
  677SOL     OW 2029   1.573   1.619   2.050 -0.2181 -0.3117 -0.0525
  677SOL    HW1 2030   1.485   1.667   2.035  2.6363  0.2029 -1.3006
  677SOL    HW2 2031   1.650   1.672   2.011  2.3114  1.2787  1.2156
  678SOL     OW 2032   2.867   1.597   0.882  0.2178  0.2135  0.3537
  678SOL    HW1 2033   2.933   1.673   0.879 -0.2717  0.1744 -0.2594
  678SOL    HW2 2034   2.768   1.629   0.892 -0.7194  0.4941 -0.9902
  679SOL     OW 2035   2.996   2.881   0.673 -0.3478 -0.3576 -0.0204
  679SOL    HW1 2036   2.948   2.971   0.649 -0.3435 -0.8658 -1.3352
  679SOL    HW2 2037   0.004   2.894   0.692  0.7130 -2.4567 -0.8650
  680SOL     OW 2038   0.016   2.111   1.091  1.2604  0.0591  0.3249
  680SOL    HW1 2039   0.093   2.114   1.159 -1.0192  0.9045 -2.1880
  680SOL    HW2 2040   3.020   2.064   1.129 -0.0078 -1.0984 -1.2464
  681SOL     OW 2041   0.821   0.771   1.232 -0.1209 -0.5359 -0.5144
  681SOL    HW1 2042   0.918   0.761   1.255 -1.4795 -1.4807  0.5151
  681SOL    HW2 2043   0.819   0.802   1.133  1.4850  0.7500 -1.8239
  682SOL     OW 2044   1.770   2.905   0.681  0.2094 -0.2063  0.2779
  682SOL    HW1 2045   1.795   2.927   0.778 -2.5353 -1.6211 -2.3296
  682SOL    HW2 2046   1.789   2.807   0.661 -1.1338 -0.7885 -1.1372
  683SOL     OW 2047   2.153   1.499   1.465 -0.2319  0.0604  0.4422
  683SOL    HW1 2048   2.195   1.519   1.553  0.4113 -2.8488 -3.3354
  683SOL    HW2 2049   2.192   1.413   1.434 -2.5843 -2.4487  0.0976
  684SOL     OW 2050   3.055   1.860   1.619 -0.1485  0.0740 -0.3562
  684SOL    HW1 2051   2.983   1.816   1.564  0.4132  1.6669 -1.0484
  684SOL    HW2 2052   3.053   1.828   1.715 -1.3583  0.5689 -1.0543
  685SOL     OW 2053   2.256   1.808   0.137  0.1927 -0.0647  0.8442
  685SOL    HW1 2054   2.168   1.765   0.126 -0.0865 -0.0203 -0.0453
  685SOL    HW2 2055   2.310   1.817   0.048 -1.6527  1.0369 -2.3008
  686SOL     OW 2056   2.908   0.028   0.615  0.2818  0.6473 -0.6528
  686SOL    HW1 2057   2.829   0.086   0.604 -0.2058 -0.0441 -1.3153
  686SOL    HW2 2058   2.982   0.069   0.670 -0.8716  1.6492 -0.4339
  687SOL     OW 2059   1.617   2.930   2.999 -0.4200 -0.5032 -0.0808
  687SOL    HW1 2060   1.649   2.905   0.004 -0.1304 -2.0510  4.6591
  687SOL    HW2 2061   1.706   2.951   2.952  1.8245 -1.1978 -1.2051
  688SOL     OW 2062   1.948   1.906   2.071  0.6624  0.4494 -0.4447
  688SOL    HW1 2063   2.022   1.832   2.065  2.5699 -1.3372 -0.7938
  688SOL    HW2 2064   1.966   1.968   2.146  1.1501  0.3623 -2.1723
  689SOL     OW 2065   2.770   0.986   2.114  0.3469 -0.4181  0.2075
  689SOL    HW1 2066   2.700   1.045   2.064  1.0939  2.3733  1.4923
  689SOL    HW2 2067   2.829   0.944   2.043  0.5870 -0.6235 -1.4234
  690SOL     OW 2068   1.959   1.420   0.877  0.0055 -0.6146 -0.4513
  690SOL    HW1 2069   1.989   1.330   0.831  2.5994 -3.2634 -0.0950
  690SOL    HW2 2070   1.889   1.403   0.946 -1.0591  0.6951 -2.1217
  691SOL     OW 2071   1.207   1.329   1.256  0.6326  0.4743 -0.2014
  691SOL    HW1 2072   1.187   1.247   1.312 -0.0451  0.8881 -2.9094
  691SOL    HW2 2073   1.117   1.376   1.239  2.1990  0.4248  0.5905
  692SOL     OW 2074   1.963   0.208   2.220 -0.0299  0.2303 -0.2047
  692SOL    HW1 2075   2.027   0.174   2.149 -0.9422  1.0355 -3.2203
  692SOL    HW2 2076   1.919   0.295   2.196 -0.5884 -1.5973 -1.7460
  693SOL     OW 2077   0.007   1.175   2.875  0.0423 -0.0560 -0.4589
  693SOL    HW1 2078   0.077   1.242   2.849 -1.7166 -2.4089  0.8140
  693SOL    HW2 2079   3.059   1.132   2.793  0.6296  0.1766  1.9128
  694SOL     OW 2080   2.158   2.893   0.899  0.4444 -0.5838  0.4049
  694SOL    HW1 2081   2.139   2.886   0.800 -2.4570 -1.9869 -1.9155
  694SOL    HW2 2082   2.258   2.911   0.917 -1.1877 -0.7782  0.2111
  695SOL     OW 2083   1.388   1.190   2.645  0.2035  0.1713  0.0729
  695SOL    HW1 2084   1.489   1.177   2.651 -2.1691 -2.4094  0.1268
  695SOL    HW2 2085   1.357   1.285   2.624 -0.2462  2.6729  0.9083
  696SOL     OW 2086   2.013   0.067   1.586 -0.3977  0.3622 -0.3921
  696SOL    HW1 2087   1.922   0.108   1.563 -3.4729 -0.7256 -2.4699
  696SOL    HW2 2088   2.054   0.127   1.659 -0.0747  0.5932 -0.8328
  697SOL     OW 2089   1.671   0.366   1.991 -0.5822 -0.5574  0.0209
  697SOL    HW1 2090   1.680   0.270   2.013 -1.9835  3.1373 -0.0139
  697SOL    HW2 2091   1.647   0.369   1.891  1.7144 -0.8505 -0.4425
  698SOL     OW 2092   1.667   1.409   2.518 -0.0190 -0.6351 -1.0040
  698SOL    HW1 2093   1.664   1.311   2.553 -4.0735 -1.8358  0.1587
  698SOL    HW2 2094   1.613   1.418   2.437  2.3793  1.1865  1.2238
  699SOL     OW 2095   1.749   1.092   0.651 -0.3951 -0.0099 -0.5420
  699SOL    HW1 2096   1.688   1.172   0.654 -0.7759  0.5729  0.9595
  699SOL    HW2 2097   1.845   1.110   0.638  1.0780  0.4611  0.7124
  700SOL     OW 2098   1.698   2.879   0.178  0.2211  0.6474  0.3971
  700SOL    HW1 2099   1.680   2.779   0.196 -2.5716 -0.7283  0.1680
  700SOL    HW2 2100   1.652   2.928   0.251  2.0448  0.6150 -0.0333
  701SOL     OW 2101   0.202   0.261   1.360 -0.4208  0.3815 -0.4807
  701SOL    HW1 2102   0.216   0.346   1.414  1.0035  1.2023 -0.2078
  701SOL    HW2 2103   0.221   0.180   1.422 -0.5064  0.6386  0.3673
  702SOL     OW 2104   1.749   3.011   1.428  0.2349  0.4953  0.0064
  702SOL    HW1 2105   1.786   2.923   1.456  0.3563 -0.6624 -2.3261
  702SOL    HW2 2106   1.647   3.003   1.413 -1.2577 -2.5539 -2.1889
  703SOL     OW 2107   2.514   0.157   2.126 -0.2695 -0.3861  0.0779
  703SOL    HW1 2108   2.546   0.188   2.032  0.3911 -1.5742 -1.6455
  703SOL    HW2 2109   2.591   0.171   2.191  0.9482  0.8004 -0.7520
  704SOL     OW 2110   1.463   2.247   1.054  0.3569 -0.3686  0.1894
  704SOL    HW1 2111   1.531   2.313   1.092 -0.4383  2.2728 -2.7188
  704SOL    HW2 2112   1.400   2.286   0.983 -2.8796  4.0455  0.4883
  705SOL     OW 2113   0.385   1.632   2.176  0.2663 -0.7444  0.6889
  705SOL    HW1 2114   0.410   1.685   2.254  0.6588 -2.9207 -1.1159
  705SOL    HW2 2115   0.309   1.570   2.194  0.2589  2.7854  1.2368
  706SOL     OW 2116   2.119   0.213   2.947 -0.2097 -0.1850 -0.3387
  706SOL    HW1 2117   2.027   0.226   2.899 -1.5033 -0.8162  1.1859
  706SOL    HW2 2118   2.101   0.201   3.046  0.0219 -1.0179  0.6349
  707SOL     OW 2119   1.616   2.678   2.175 -0.2210 -0.4563  0.4177
  707SOL    HW1 2120   1.569   2.591   2.209 -0.2150 -1.0298 -2.9701
  707SOL    HW2 2121   1.567   2.717   2.093  2.3279  1.4853 -4.0496
  708SOL     OW 2122   0.546   2.246   1.406 -0.0316 -0.1426  0.1189
  708SOL    HW1 2123   0.486   2.290   1.332  1.7612  1.5235 -1.1794
  708SOL    HW2 2124   0.644   2.270   1.393 -2.1355  1.5700 -0.5476
  709SOL     OW 2125   2.628   0.684   1.868 -0.0584 -0.1267 -0.0105
  709SOL    HW1 2126   2.606   0.647   1.960  2.0750 -1.3741 -1.2818
  709SOL    HW2 2127   2.727   0.703   1.864 -2.4547  1.7786  0.9591
  710SOL     OW 2128   2.937   0.272   1.558  0.6774  0.0864  0.6421
  710SOL    HW1 2129   2.917   0.312   1.465  0.6007  2.1465 -1.3559
  710SOL    HW2 2130   2.981   0.341   1.619 -0.7368 -1.1455 -0.3565
  711SOL     OW 2131   0.042   2.320   0.717 -0.0709  0.2237 -0.2096
  711SOL    HW1 2132   0.014   2.378   0.797  3.8202 -0.6217 -0.3883
  711SOL    HW2 2133   0.131   2.353   0.686 -1.0602 -1.6557  5.2747
  712SOL     OW 2134   0.376   0.003   2.368  0.1596 -0.0704 -0.8797
  712SOL    HW1 2135   0.416   0.085   2.417 -0.5772  1.0761 -1.1197
  712SOL    HW2 2136   0.399   3.008   2.415 -2.0081  2.1340  0.4408
  713SOL     OW 2137   2.082   0.589   0.208 -0.1374  0.2193  0.2928
  713SOL    HW1 2138   2.129   0.531   0.279  0.1878  0.2016 -1.3767
  713SOL    HW2 2139   2.133   0.674   0.198 -2.0274 -0.4449  1.3232
  714SOL     OW 2140   1.625   1.865   0.379 -1.2223 -0.7508  0.2514
  714SOL    HW1 2141   1.571   1.933   0.325 -3.2025  2.4927  0.4567
  714SOL    HW2 2142   1.593   1.878   0.478 -0.9343 -4.1297 -0.1439
  715SOL     OW 2143   0.030   0.382   0.373  0.5090 -0.3818  0.3438
  715SOL    HW1 2144   0.022   0.447   0.292 -0.2960  0.0865  0.2471
  715SOL    HW2 2145   0.103   0.418   0.436 -0.9619  2.8009  0.1510
  716SOL     OW 2146   1.018   3.031   2.026 -0.0292  0.6069 -0.3078
  716SOL    HW1 2147   1.098   2.970   2.040  1.7290  2.1020 -1.1485
  716SOL    HW2 2148   1.042   0.024   1.973 -0.7032  0.4021  0.1648
  717SOL     OW 2149   0.201   0.628   2.940  0.5708  0.3673  0.1831
  717SOL    HW1 2150   0.188   0.689   2.866  0.5336 -1.4719  2.3209
  717SOL    HW2 2151   0.147   0.541   2.924  0.8276 -1.1555 -0.2924
  718SOL     OW 2152   1.435   0.574   0.517  0.4331 -0.2029  0.0858
  718SOL    HW1 2153   1.481   0.568   0.425  1.1145 -1.2143 -1.6688
  718SOL    HW2 2154   1.342   0.608   0.498  0.1413 -1.4192  1.4917
  719SOL     OW 2155   2.528   2.214   2.812  0.0289  0.4497  0.3064
  719SOL    HW1 2156   2.447   2.187   2.755 -0.3253 -1.3752  0.2770
  719SOL    HW2 2157   2.552   2.311   2.788 -0.9489  0.8815 -0.2670
  720SOL     OW 2158   1.365   0.782   1.730 -0.3493 -0.1794  0.3269
  720SOL    HW1 2159   1.413   0.799   1.644  0.9294  2.0716  1.7289
  720SOL    HW2 2160   1.420   0.719   1.788 -0.5833 -0.8561  1.3645
  721SOL     OW 2161   0.178   2.913   1.164 -0.1554 -1.2097  0.2530
  721SOL    HW1 2162   0.142   2.964   1.087  2.0991  0.1130 -1.3382
  721SOL    HW2 2163   0.228   2.828   1.139 -0.3865 -1.5806  0.5308
  722SOL     OW 2164   1.016   1.895   2.707  0.0183 -0.0830 -0.0151
  722SOL    HW1 2165   1.114   1.897   2.685 -1.3472  0.0383  1.9302
  722SOL    HW2 2166   0.952   1.920   2.634  0.3337 -0.4318  0.4422
  723SOL     OW 2167   1.755   0.301   0.570  0.1303  0.5122 -0.1650
  723SOL    HW1 2168   1.801   0.394   0.549  0.7180  3.2154 -0.0407
  723SOL    HW2 2169   1.807   0.213   0.544  3.6322 -3.6141  0.6058
  724SOL     OW 2170   0.497   2.095   2.753 -0.1473 -0.0458  0.0942
  724SOL    HW1 2171   0.400   2.107   2.786  0.0216  1.4448  2.0513
  724SOL    HW2 2172   0.499   2.018   2.686 -2.7102  0.3502 -0.6539
  725SOL     OW 2173   3.049   0.737   1.418  0.0121  0.5805 -0.0905
  725SOL    HW1 2174   3.003   0.740   1.328 -0.6626 -1.7404  0.1946
  725SOL    HW2 2175   0.032   0.809   1.425 -1.3951  0.2255  0.1142
  726SOL     OW 2176   2.028   0.191   0.575  0.5530 -0.2830 -0.1896
  726SOL    HW1 2177   1.983   0.098   0.584 -0.7122 -0.6438 -1.1354
  726SOL    HW2 2178   2.059   0.225   0.666  0.6205 -2.2571  0.6861
  727SOL     OW 2179   1.946   1.092   2.066 -0.5033  0.4710 -0.2008
  727SOL    HW1 2180   1.915   1.015   2.125 -3.4814  0.4546  1.0047
  727SOL    HW2 2181   1.970   1.173   2.122 -1.6264 -1.3465 -0.2568
  728SOL     OW 2182   1.470   3.019   1.458  0.2988  0.1524 -0.6595
  728SOL    HW1 2183   1.389   3.057   1.508  1.1346 -0.1571 -0.2492
  728SOL    HW2 2184   1.441   2.940   1.400 -1.5979 -0.5651  0.4949
  729SOL     OW 2185   1.890   0.459   2.131 -0.3364  0.2848 -0.1596
  729SOL    HW1 2186   1.955   0.511   2.066  1.7083  0.8092 -2.3546
  729SOL    HW2 2187   1.809   0.428   2.081  1.9088  0.2722  2.0670
  730SOL     OW 2188   0.572   0.747   1.381  0.4688 -0.2104  0.5412
  730SOL    HW1 2189   0.511   0.684   1.328  1.3607  0.5923  3.7832
  730SOL    HW2 2190   0.656   0.772   1.330 -0.2293 -0.3901  1.5139
  731SOL     OW 2191   0.209   0.149   0.147  0.0050  0.4492 -0.0890
  731SOL    HW1 2192   0.161   0.142   0.232  2.5690  2.5819 -0.9018
  731SOL    HW2 2193   0.298   0.195   0.167 -0.2741  1.2051 -0.5492
  732SOL     OW 2194   0.754   0.742   0.497 -0.5205 -0.1968 -0.7451
  732SOL    HW1 2195   0.694   0.685   0.557  1.2092 -0.3320 -1.8372
  732SOL    HW2 2196   0.715   0.832   0.487  0.4358  1.0430 -2.3343
  733SOL     OW 2197   1.492   1.481   2.258  0.0883  0.3415 -0.5339
  733SOL    HW1 2198   1.528   1.540   2.182  0.1542 -1.4924 -0.4053
  733SOL    HW2 2199   1.483   1.384   2.226 -0.0897 -2.5901  1.0816
  734SOL     OW 2200   3.033   2.079   2.132  0.2149  0.1342 -0.3887
  734SOL    HW1 2201   3.070   2.125   2.049 -1.6162 -1.0085  0.3186
  734SOL    HW2 2202   2.953   2.133   2.171 -0.3830 -0.1053  2.8538
  735SOL     OW 2203   1.878   0.244   1.004  0.1453 -0.2445  0.0106
  735SOL    HW1 2204   1.950   0.220   0.936  2.8779 -2.0585  1.4272
  735SOL    HW2 2205   1.898   0.191   1.088 -2.0742  0.5031 -1.0899
  736SOL     OW 2206   1.020   1.322   0.124  0.4094 -0.6171  0.2273
  736SOL    HW1 2207   1.026   1.393   0.198  1.9079  2.3117  2.4143
  736SOL    HW2 2208   1.106   1.269   0.125 -2.4157 -0.1389  2.5502
  737SOL     OW 2209   2.845   0.467   0.482  0.8263 -0.1334  0.0180
  737SOL    HW1 2210   2.945   0.443   0.478 -1.1903 -0.6712 -0.8167
  737SOL    HW2 2211   2.799   0.439   0.572 -1.1651 -2.5532 -0.0543
  738SOL     OW 2212   0.393   2.366   1.608  0.2959 -0.4201  0.1243
  738SOL    HW1 2213   0.335   2.442   1.565  0.1984  2.2616 -1.6244
  738SOL    HW2 2214   0.455   2.334   1.541 -2.3112  1.6221  2.1793
  739SOL     OW 2215   1.034   2.583   2.917 -0.1189  0.4966  0.0294
  739SOL    HW1 2216   1.106   2.650   2.934 -2.5925 -2.9487 -0.5560
  739SOL    HW2 2217   1.077   2.492   2.909  0.2441 -2.1225  0.0691
  740SOL     OW 2218   1.750   2.720   1.440 -0.2005  0.6123  0.3661
  740SOL    HW1 2219   1.670   2.735   1.502 -1.1149 -0.5352  1.2460
  740SOL    HW2 2220   1.781   2.622   1.459 -0.1524 -1.4291 -0.3146
  741SOL     OW 2221   2.139   0.663   0.560 -0.0668 -0.0560 -0.0185
  741SOL    HW1 2222   2.050   0.692   0.525 -0.5932 -0.0517  1.2129
  741SOL    HW2 2223   2.170   0.722   0.638  0.1616  0.0167 -4.6789
  742SOL     OW 2224   1.121   2.231   2.394 -0.5315 -0.6919 -0.2207
  742SOL    HW1 2225   1.124   2.228   2.497 -1.0033  3.6659  2.9615
  742SOL    HW2 2226   1.028   2.247   2.364  2.4958  0.8440  1.0284
  743SOL     OW 2227   2.520   0.907   1.773 -0.1896  0.2929 -0.1273
  743SOL    HW1 2228   2.428   0.883   1.733  0.8955 -0.4705  3.0412
  743SOL    HW2 2229   2.556   0.824   1.821  0.2667  0.0342  1.1948
  744SOL     OW 2230   2.304   0.542   0.813 -0.0191 -0.4867 -0.7458
  744SOL    HW1 2231   2.327   0.645   0.803  1.8540  2.8569 -1.3646
  744SOL    HW2 2232   2.260   0.500   0.732 -0.2199  0.2361 -6.3058
  745SOL     OW 2233   2.331   1.299   1.844  0.1904  0.5633 -0.0333
  745SOL    HW1 2234   2.305   1.373   1.783  1.5379  0.8265  1.6384
  745SOL    HW2 2235   2.415   1.254   1.808 -1.2084  0.2910  0.4080
  746SOL     OW 2236   1.287   1.784   0.591  0.0687 -0.1542 -1.0238
  746SOL    HW1 2237   1.361   1.853   0.594  0.6404  0.8853 -1.8980
  746SOL    HW2 2238   1.309   1.713   0.662  0.5378 -1.6027 -0.7726
  747SOL     OW 2239   1.645   1.860   1.244 -0.1733 -0.3831 -0.0687
  747SOL    HW1 2240   1.558   1.902   1.216 -0.5597  1.3108  0.2419
  747SOL    HW2 2241   1.638   1.763   1.271  0.3724  1.5369  2.3090
  748SOL     OW 2242   0.295   2.779   0.352 -0.0856 -0.3587 -0.0671
  748SOL    HW1 2243   0.209   2.752   0.397 -0.2293 -0.0447  0.3533
  748SOL    HW2 2244   0.274   2.828   0.265  1.3251  0.6558  2.3843
  749SOL     OW 2245   0.301   1.011   2.441  0.2577 -0.0496  0.3744
  749SOL    HW1 2246   0.337   0.918   2.420  1.4659 -1.7991 -1.4402
  749SOL    HW2 2247   0.208   1.019   2.392 -0.7454 -0.1877  1.9163
  750SOL     OW 2248   1.486   2.799   1.968  0.1124 -0.0808  0.0624
  750SOL    HW1 2249   1.540   2.743   1.905 -0.6449  1.2798 -0.1998
  750SOL    HW2 2250   1.469   2.892   1.936  0.4076  2.2974  0.0729
  751SOL     OW 2251   2.806   0.665   0.184  0.4644  0.3832 -0.0718
  751SOL    HW1 2252   2.751   0.578   0.195  0.0127  0.8464  0.6179
  751SOL    HW2 2253   2.810   0.715   0.273 -0.2192  1.2475 -2.0084
  752SOL     OW 2254   0.325   2.152   0.789 -0.0436 -0.2420 -0.5646
  752SOL    HW1 2255   0.388   2.101   0.721 -0.6431 -0.5508 -1.3751
  752SOL    HW2 2256   0.229   2.124   0.782  2.6618 -1.6451 -1.2546
  753SOL     OW 2257   0.922   3.000   0.897  0.1892  0.4369 -0.4143
  753SOL    HW1 2258   1.003   3.000   0.834 -0.0713  0.4291 -2.6015
  753SOL    HW2 2259   0.871   2.916   0.873 -0.7167 -0.9415 -1.3839
  754SOL     OW 2260   0.551   0.058   2.157  0.4986  0.1331 -0.1067
  754SOL    HW1 2261   0.546   0.157   2.159  2.3249 -1.3672 -2.5142
  754SOL    HW2 2262   0.492   0.007   2.222  3.3974 -2.2796 -0.8485
  755SOL     OW 2263   1.709   1.094   0.027  0.2203  0.2812  0.0443
  755SOL    HW1 2264   1.748   1.129   0.114 -0.4814  1.4154 -1.6397
  755SOL    HW2 2265   1.679   1.003   0.049  0.9785  3.3485  0.2441
  756SOL     OW 2266   2.219   2.363   2.623 -0.1659  0.0723 -0.1661
  756SOL    HW1 2267   2.278   2.279   2.625 -0.6629 -1.2887  0.6435
  756SOL    HW2 2268   2.222   2.412   2.714 -0.7879  2.4561  2.1990
  757SOL     OW 2269   1.978   0.800   0.382  0.2733  0.4674  0.0149
  757SOL    HW1 2270   1.991   0.805   0.278  1.0465 -0.4510 -0.0736
  757SOL    HW2 2271   1.884   0.774   0.410  1.6402 -1.9556  1.6950
  758SOL     OW 2272   2.202   0.483   1.079 -0.1447  0.1753  0.1939
  758SOL    HW1 2273   2.231   0.539   1.002 -1.8265 -1.0222  2.1065
  758SOL    HW2 2274   2.253   0.394   1.076  0.7640 -2.3248 -2.2434
  759SOL     OW 2275   2.676   0.553   1.139  0.0586  0.2131 -0.3881
  759SOL    HW1 2276   2.618   0.471   1.151 -0.8100  1.7755 -1.7667
  759SOL    HW2 2277   2.677   0.575   1.039 -2.4206  0.2866  1.6648
  760SOL     OW 2278   2.249   1.270   1.297 -0.2165 -0.0024 -0.0534
  760SOL    HW1 2279   2.247   1.300   1.199 -0.2819 -0.1339 -0.9622
  760SOL    HW2 2280   2.266   1.168   1.304 -2.0602  2.8291  0.0410
  761SOL     OW 2281   0.485   0.482   0.384 -0.0291  0.4047  0.1126
  761SOL    HW1 2282   0.482   0.585   0.391  2.6003  0.1118  0.1192
  761SOL    HW2 2283   0.407   0.449   0.433  0.2670  1.4653 -2.0465
  762SOL     OW 2284   1.128   1.969   1.213  0.7786  0.0536 -0.2357
  762SOL    HW1 2285   1.127   2.016   1.122  1.3148 -1.1349 -1.4604
  762SOL    HW2 2286   1.035   1.947   1.245 -0.7888  2.0242 -0.2435
  763SOL     OW 2287   1.368   1.182   1.727 -0.4774  0.1753 -0.2491
  763SOL    HW1 2288   1.411   1.258   1.777 -0.1435 -2.8900 -1.5527
  763SOL    HW2 2289   1.434   1.124   1.676  0.5191  0.8836  0.3313
  764SOL     OW 2290   0.068   1.744   2.550  0.1182  0.4821  0.5987
  764SOL    HW1 2291   0.049   1.812   2.474 -1.8605 -0.4389 -0.0325
  764SOL    HW2 2292   0.054   1.777   2.646  3.2265  1.3873  0.1122
  765SOL     OW 2293   1.381   2.785   1.314 -0.0439 -0.1727  0.0369
  765SOL    HW1 2294   1.453   2.712   1.302  0.6696  1.7862  0.4789
  765SOL    HW2 2295   1.325   2.801   1.227 -1.4041 -0.6412  0.0222
  766SOL     OW 2296   2.818   2.311   2.453  1.1023  0.2830  0.3482
  766SOL    HW1 2297   2.718   2.299   2.473 -2.1156 -0.4613  2.7993
  766SOL    HW2 2298   2.871   2.255   2.521  0.5043 -0.1444  2.5376
  767SOL     OW 2299   1.086   1.016   2.424  0.1506  0.0481 -0.1011
  767SOL    HW1 2300   1.087   0.985   2.520  1.1004 -0.2455  0.4675
  767SOL    HW2 2301   1.153   1.090   2.414 -0.7013 -0.0680  0.4275
  768SOL     OW 2302   1.056   2.184   3.059 -0.1609 -1.0820  0.1375
  768SOL    HW1 2303   1.086   2.182   0.062 -2.8455  0.3428 -3.3496
  768SOL    HW2 2304   0.964   2.228   3.059  1.9240 -0.0569 -0.2232
  769SOL     OW 2305   0.444   2.244   1.004 -0.4036 -0.0105 -0.4048
  769SOL    HW1 2306   0.513   2.175   1.032 -0.7835  0.9051 -0.0012
  769SOL    HW2 2307   0.388   2.204   0.931  1.7134  3.1225  5.2360
  770SOL     OW 2308   1.583   0.883   2.700  0.0827  0.4897 -0.0175
  770SOL    HW1 2309   1.601   0.781   2.720 -0.1362 -3.0526  1.5127
  770SOL    HW2 2310   1.549   0.931   2.784  0.5907 -1.2727  0.2898
  771SOL     OW 2311   0.064   2.841   2.212 -0.1031  0.0571 -0.1994
  771SOL    HW1 2312   0.153   2.815   2.170  0.8445  0.1605 -0.2090
  771SOL    HW2 2313   3.079   2.779   2.181 -0.0166 -2.0935 -1.8020
  772SOL     OW 2314   2.272   2.552   1.998 -0.5032  0.2972 -0.3032
  772SOL    HW1 2315   2.284   2.503   2.086  1.7318  2.1192  0.9166
  772SOL    HW2 2316   2.365   2.552   1.949  1.6631  0.9864 -1.3735
  773SOL     OW 2317   0.873   1.882   1.650 -0.1240  1.1029 -0.5255
  773SOL    HW1 2318   0.877   1.968   1.595  0.2000  0.4706  0.4534
  773SOL    HW2 2319   0.845   1.893   1.749 -2.8279 -0.5750  2.8583
  774SOL     OW 2320   1.077   0.165   1.907  0.3457 -0.3270  0.1726
  774SOL    HW1 2321   1.126   0.249   1.936  1.8961 -0.2328  0.7449
  774SOL    HW2 2322   0.981   0.178   1.879 -1.6243  1.6260 -0.2466
  775SOL     OW 2323   1.903   3.023   2.931 -0.1483 -0.0610 -0.1943
  775SOL    HW1 2324   1.901   0.038   2.924  3.3519  4.0458  0.0169
  775SOL    HW2 2325   1.893   2.985   2.840 -1.5728  2.9803  0.4498
  776SOL     OW 2326   2.898   0.535   2.227 -0.0484  0.4673  0.1248
  776SOL    HW1 2327   2.926   0.553   2.326  2.6935 -0.9479  2.4829
  776SOL    HW2 2328   2.808   0.578   2.208  2.9177 -0.0751 -1.1390
  777SOL     OW 2329   2.498   2.088   2.127  0.0383 -0.1985 -0.0813
  777SOL    HW1 2330   2.410   2.054   2.084 -0.1432  0.7593  0.2450
  777SOL    HW2 2331   2.509   2.183   2.093  1.3041  3.7524 -2.9421
  778SOL     OW 2332   1.878   0.869   2.208 -0.0663 -0.7392 -0.2935
  778SOL    HW1 2333   1.910   0.779   2.249 -2.3680  0.9228  1.6359
  778SOL    HW2 2334   1.810   0.852   2.133  0.5237  3.4675 -0.6125
  779SOL     OW 2335   2.583   0.556   0.659 -0.4498  0.2448  0.0359
  779SOL    HW1 2336   2.534   0.465   0.649 -0.2336 -2.4274 -1.2257
  779SOL    HW2 2337   2.551   0.618   0.587 -0.3277 -2.0328 -0.8453
  780SOL     OW 2338   2.401   0.354   3.034 -0.3766  0.0578  0.0515
  780SOL    HW1 2339   2.476   0.292   3.006 -1.7570  0.2960 -1.1811
  780SOL    HW2 2340   2.373   0.415   2.953 -2.5906  0.4751 -2.2538
  781SOL     OW 2341   0.198   2.480   1.456  0.2028  0.1177 -0.6693
  781SOL    HW1 2342   0.229   2.481   1.360  1.5819 -0.4881  0.5314
  781SOL    HW2 2343   0.109   2.433   1.461  1.5117  1.1564  2.6832
  782SOL     OW 2344   2.251   2.471   2.873 -0.4304 -0.1514 -0.6347
  782SOL    HW1 2345   2.299   2.558   2.890  0.3720  2.3956  0.5499
  782SOL    HW2 2346   2.277   2.409   2.946  1.9320  1.2519 -2.9130
  783SOL     OW 2347   0.720   1.493   1.342 -0.2618 -0.2088  0.3351
  783SOL    HW1 2348   0.658   1.416   1.361  2.7639  2.0897  1.0022
  783SOL    HW2 2349   0.762   1.519   1.435 -1.1279 -1.8510 -2.1394
  784SOL     OW 2350   1.267   0.503   2.810 -0.3634 -0.9059  0.0878
  784SOL    HW1 2351   1.177   0.496   2.859 -0.0447  0.4969  0.2146
  784SOL    HW2 2352   1.283   0.604   2.795  0.9021  2.3664  1.0290
  785SOL     OW 2353   2.439   0.056   1.092  0.3132 -0.4042 -0.4346
  785SOL    HW1 2354   2.460   0.053   1.194  0.9524  0.6268  1.2923
  785SOL    HW2 2355   2.446   0.149   1.057 -1.5000 -1.2680  1.3757
  786SOL     OW 2356   1.099   2.097   1.877 -0.2222 -0.0521  0.5397
  786SOL    HW1 2357   1.062   2.003   1.898 -1.6946 -0.0900  0.8996
  786SOL    HW2 2358   1.097   2.155   1.957  4.2422 -2.4071 -0.1651
  787SOL     OW 2359   1.566   0.581   1.201 -0.2355 -0.3735 -0.1708
  787SOL    HW1 2360   1.619   0.650   1.151 -0.8879 -1.0746  0.9819
  787SOL    HW2 2361   1.597   0.486   1.181 -0.5547  3.1540  0.2545
  788SOL     OW 2362   0.302   0.716   0.627  0.4452 -0.9858 -0.3965
  788SOL    HW1 2363   0.321   0.756   0.721  2.1540  1.9693  2.5690
  788SOL    HW2 2364   0.389   0.726   0.576 -2.1547 -1.3908  1.2092
  789SOL     OW 2365   0.189   2.140   1.300  0.2455 -0.3588  0.0686
  789SOL    HW1 2366   0.244   2.231   1.303  1.9085  2.3024  1.4869
  789SOL    HW2 2367   0.205   2.072   1.375 -1.6533  0.2304 -0.1734
  790SOL     OW 2368   0.896   0.689   2.509  0.1492  0.3522 -0.3956
  790SOL    HW1 2369   0.956   0.673   2.428 -1.8017 -1.5566 -1.4894
  790SOL    HW2 2370   0.802   0.727   2.490 -2.8024 -1.2585  1.2535
  791SOL     OW 2371   1.917   0.562   0.970  0.6642 -0.4267  0.1128
  791SOL    HW1 2372   1.876   0.631   1.031  0.5294  0.1493 -0.6729
  791SOL    HW2 2373   1.935   0.468   1.005 -2.8595  1.0621  1.1392
  792SOL     OW 2374   1.307   2.457   2.006  0.1032  0.7171 -0.7073
  792SOL    HW1 2375   1.267   2.548   2.004 -0.8727 -2.2363  0.9910
  792SOL    HW2 2376   1.239   2.388   2.040 -0.4132 -1.9235 -1.6344
  793SOL     OW 2377   1.218   0.712   0.466 -0.1771 -0.0765 -0.3790
  793SOL    HW1 2378   1.254   0.776   0.394 -0.7520 -2.8112  0.2422
  793SOL    HW2 2379   1.152   0.761   0.522  0.8118 -1.0659  0.0264
  794SOL     OW 2380   0.641   0.957   1.982  0.4544  0.2946  0.6600
  794SOL    HW1 2381   0.578   1.034   1.959  2.4082 -0.3197 -0.6756
  794SOL    HW2 2382   0.737   0.984   1.985 -0.9993 -0.6568  1.1387
  795SOL     OW 2383   0.218   2.063   2.430  0.0267 -0.0574  0.7937
  795SOL    HW1 2384   0.317   2.044   2.419 -0.9598 -0.7463 -1.1259
  795SOL    HW2 2385   0.190   2.094   2.522 -2.7305 -1.7601 -0.1417
  796SOL     OW 2386   2.550   0.877   2.256  0.0569 -0.0462  0.1223
  796SOL    HW1 2387   2.496   0.900   2.175  1.5532  3.3360 -0.8385
  796SOL    HW2 2388   2.642   0.916   2.239 -0.4471  0.4500 -0.2012
  797SOL     OW 2389   2.798   2.174   2.861 -0.2530  0.1020  1.1035
  797SOL    HW1 2390   2.699   2.191   2.837  0.3222  0.3447 -0.1223
  797SOL    HW2 2391   2.827   2.237   2.934 -1.7035 -2.2824  1.5379
  798SOL     OW 2392   0.341   2.306   2.057  0.3990 -0.9635 -0.0367
  798SOL    HW1 2393   0.259   2.363   2.072 -1.6489 -1.2400 -2.7692
  798SOL    HW2 2394   0.322   2.211   2.087  0.6341  0.3257  1.8904
  799SOL     OW 2395   0.326   2.379   2.599 -0.3505 -0.3008  0.3945
  799SOL    HW1 2396   0.263   2.307   2.640 -2.2293  0.0756  1.8628
  799SOL    HW2 2397   0.317   2.462   2.654  0.6233  0.4642  1.3673
  800SOL     OW 2398   0.600   2.153   0.018  0.0850  0.3772  0.6225
  800SOL    HW1 2399   0.518   2.122   0.061  0.4274 -2.0342  1.0237
  800SOL    HW2 2400   0.599   2.112   3.016  1.1993  0.9078 -1.2231
  801SOL     OW 2401   1.723   1.354   1.026  0.1163  0.4015 -0.3820
  801SOL    HW1 2402   1.682   1.256   1.028 -2.9057 -1.2087  0.8222
  801SOL    HW2 2403   1.718   1.389   1.121  1.3683 -0.0326  1.4962
  802SOL     OW 2404   2.931   1.169   0.689  0.1841  0.3807  0.6123
  802SOL    HW1 2405   2.936   1.212   0.595  2.2474 -1.5865  1.7203
  802SOL    HW2 2406   2.986   1.081   0.687 -1.8451 -1.0699 -1.4540
  803SOL     OW 2407   1.171   1.932   2.183  0.2590 -0.0735  0.1824
  803SOL    HW1 2408   1.247   1.936   2.245  0.0061  0.1929  0.7420
  803SOL    HW2 2409   1.082   1.951   2.229  1.3433  1.8446 -0.7915
  804SOL     OW 2410   1.423   1.679   0.341 -0.2971 -0.0078  0.7003
  804SOL    HW1 2411   1.504   1.741   0.341 -2.1707  1.5022  0.2973
  804SOL    HW2 2412   1.357   1.708   0.413  1.9065 -2.2418 -2.3798
  805SOL     OW 2413   2.506   1.402   0.110  0.1581 -0.3964  0.1977
  805SOL    HW1 2414   2.527   1.482   0.173  1.3063  0.9604 -0.7534
  805SOL    HW2 2415   2.479   1.433   0.017  1.6421  1.2512  0.8923
  806SOL     OW 2416   0.554   2.956   0.361 -0.2084  0.4006  0.0437
  806SOL    HW1 2417   0.651   2.926   0.359  0.0965  2.2672 -0.6226
  806SOL    HW2 2418   0.492   2.879   0.382  0.0212 -1.4297  0.7320
  807SOL     OW 2419   1.931   1.731   2.669  0.0192  0.2272  0.4203
  807SOL    HW1 2420   1.891   1.792   2.740  2.4983 -0.4822  0.2998
  807SOL    HW2 2421   1.968   1.652   2.723 -0.3490 -0.5864 -0.4764
  808SOL     OW 2422   0.600   1.623   0.976 -0.1980 -0.2898  0.2493
  808SOL    HW1 2423   0.549   1.540   1.013 -2.5749 -1.8923  0.3134
  808SOL    HW2 2424   0.533   1.698   0.957 -1.1039  1.4421  0.7846
  809SOL     OW 2425   2.519   0.768   0.465 -0.3638 -0.0118 -0.0344
  809SOL    HW1 2426   2.459   0.840   0.511 -0.0150  2.2924 -0.7508
  809SOL    HW2 2427   2.474   0.733   0.380 -0.6779 -0.9337  0.4516
  810SOL     OW 2428   0.801   1.214   0.508  0.5426 -0.2281  0.3730
  810SOL    HW1 2429   0.880   1.187   0.564 -0.6749 -1.2681 -3.4940
  810SOL    HW2 2430   0.784   1.316   0.517 -0.5808  2.4369 -1.4997
  811SOL     OW 2431   1.670   2.411   1.143  0.4734  0.4364  0.2603
  811SOL    HW1 2432   1.759   2.455   1.149  1.7154 -0.4867  2.3710
  811SOL    HW2 2433   1.613   2.425   1.228  0.7873 -1.5755  0.8330
  812SOL     OW 2434   1.129   2.511   1.653 -0.1202 -0.1253  0.4662
  812SOL    HW1 2435   1.109   2.561   1.740 -0.6247  4.3732  1.3828
  812SOL    HW2 2436   1.095   2.417   1.654 -1.7975 -1.0539  1.3269
  813SOL     OW 2437   0.736   2.933   1.838  0.1644  0.4436 -0.2019
  813SOL    HW1 2438   0.652   2.947   1.895  4.0828  0.3524  1.9023
  813SOL    HW2 2439   0.721   2.945   1.737  0.1358 -1.9360 -5.0352
  814SOL     OW 2440   0.867   2.315   2.343  0.1713  0.3963 -0.3944
  814SOL    HW1 2441   0.842   2.404   2.300  2.9654 -1.2765 -0.0399
  814SOL    HW2 2442   0.815   2.297   2.432  1.2035  0.6620  0.7388
  815SOL     OW 2443   0.637   0.226   2.521 -0.5447 -0.2261 -0.1053
  815SOL    HW1 2444   0.712   0.152   2.521 -2.6764  3.1558 -2.3293
  815SOL    HW2 2445   0.673   0.306   2.575 -0.5994  1.3814 -1.0825
  816SOL     OW 2446   2.307   0.130   2.777 -0.0823 -0.2394 -0.3436
  816SOL    HW1 2447   2.247   0.188   2.836  1.0720  0.4858  0.3274
  816SOL    HW2 2448   2.256   0.048   2.738  0.5214 -3.1964  1.4836
  817SOL     OW 2449   2.112   0.059   1.988  0.6341  0.1099 -0.2854
  817SOL    HW1 2450   2.209   0.036   2.011  0.6274 -0.6195  0.1809
  817SOL    HW2 2451   2.105   0.135   1.916 -0.1479 -1.3109 -0.8122
  818SOL     OW 2452   1.544   0.554   0.268 -0.1407 -0.2552  0.1197
  818SOL    HW1 2453   1.483   0.590   0.196  2.6769 -1.2359  2.2129
  818SOL    HW2 2454   1.590   0.467   0.227 -0.0709 -4.2052 -2.7480
  819SOL     OW 2455   1.820   1.608   2.429  0.4101  0.1871  0.2311
  819SOL    HW1 2456   1.774   1.529   2.481 -1.1161 -2.2692  3.1396
  819SOL    HW2 2457   1.872   1.662   2.498 -1.7826 -3.0954  0.6561
  820SOL     OW 2458   0.164   1.728   0.115 -0.6815  0.0503 -0.5107
  820SOL    HW1 2459   0.130   1.667   0.041  1.5540  0.0461 -0.3391
  820SOL    HW2 2460   0.261   1.710   0.145  0.6412 -0.5933  1.6795
  821SOL     OW 2461   0.173   2.953   0.692  0.4966 -0.0264 -0.1949
  821SOL    HW1 2462   0.226   3.031   0.658  0.9685  0.5204  0.5796
  821SOL    HW2 2463   0.241   2.892   0.735 -3.1817 -1.4170  0.7189
  822SOL     OW 2464   2.572   2.468   2.760  0.0608  0.2239 -0.1079
  822SOL    HW1 2465   2.505   2.530   2.810 -1.4941  2.7782  0.7734
  822SOL    HW2 2466   2.625   2.524   2.691  1.5769  0.2541  3.8276
  823SOL     OW 2467   1.344   0.073   2.170  0.8381 -0.0078 -0.2565
  823SOL    HW1 2468   1.316   0.012   2.093  0.9584 -0.3244 -1.5987
  823SOL    HW2 2469   1.438   0.049   2.198 -0.4782 -1.9875 -1.1407
  824SOL     OW 2470   2.817   2.222   2.196  0.0773  0.6138  0.1851
  824SOL    HW1 2471   2.806   2.257   2.291  0.1883  3.2032 -1.0114
  824SOL    HW2 2472   2.731   2.241   2.138 -0.2056 -0.2963 -2.1603
  825SOL     OW 2473   2.892   1.987   2.541  0.3126  0.3210  0.5084
  825SOL    HW1 2474   2.799   1.943   2.534 -1.5557  0.5663 -2.3075
  825SOL    HW2 2475   2.945   1.945   2.465 -1.8690  0.1068  2.2136
  826SOL     OW 2476   2.149   1.010   2.344  0.6250 -0.2582  0.0151
  826SOL    HW1 2477   2.138   0.911   2.370 -1.3237 -0.1935 -1.2770
  826SOL    HW2 2478   2.067   1.070   2.373  0.6714 -0.6534 -0.1177
  827SOL     OW 2479   2.517   2.225   1.299 -0.2782  0.5515  0.2274
  827SOL    HW1 2480   2.485   2.241   1.202  3.0382 -0.1871 -1.4516
  827SOL    HW2 2481   2.432   2.216   1.364  0.1405  2.7623 -1.2502
  828SOL     OW 2482   0.132   0.068   1.726  0.1661 -0.1178 -0.0126
  828SOL    HW1 2483   0.222   0.086   1.680 -1.2010  0.3923  1.3752
  828SOL    HW2 2484   0.092   0.146   1.776 -1.1457 -0.1515 -1.4133
  829SOL     OW 2485   1.122   2.190   2.663  0.5344  0.4620 -0.6287
  829SOL    HW1 2486   1.148   2.257   2.737  1.5921 -0.2466  2.0346
  829SOL    HW2 2487   1.111   2.097   2.703 -1.4738 -0.8572 -0.1957
  830SOL     OW 2488   0.940   0.734   0.847 -0.6314  0.0148  0.6639
  830SOL    HW1 2489   0.930   0.635   0.863  0.3148  0.4667 -1.7324
  830SOL    HW2 2490   0.980   0.746   0.755  3.8301 -0.2180  1.0350
  831SOL     OW 2491   2.889   1.489   3.021 -0.2542 -0.2003  0.3699
  831SOL    HW1 2492   2.806   1.527   3.055  0.9150 -3.0034 -0.5706
  831SOL    HW2 2493   2.909   1.398   3.058  1.3724 -0.7658 -0.8215
  832SOL     OW 2494   1.691   2.293   2.216  0.0087 -0.1712  0.4327
  832SOL    HW1 2495   1.662   2.199   2.236  1.0848  1.9078  0.2545
  832SOL    HW2 2496   1.741   2.318   2.127  0.1007  2.0597 -0.0551
  833SOL     OW 2497   0.950   0.383   2.309  0.4898  0.6580  0.7300
  833SOL    HW1 2498   0.997   0.387   2.400  0.4889  3.5004  0.1556
  833SOL    HW2 2499   0.910   0.291   2.300  2.1487 -2.3066 -0.1690
  834SOL     OW 2500   3.088   0.293   1.186 -0.1808  0.1558  0.1262
  834SOL    HW1 2501   3.065   0.196   1.201 -0.2148  0.1658  0.3372
  834SOL    HW2 2502   0.068   0.323   1.257  0.5268  0.9831 -1.6159
  835SOL     OW 2503   2.318   0.659   3.064 -0.0010 -0.1537 -0.3804
  835SOL    HW1 2504   2.219   0.632   3.054 -1.2525 -1.4661 -1.5195
  835SOL    HW2 2505   2.379   0.587   3.033  0.0616  0.8465  0.5755
  836SOL     OW 2506   1.228   1.919   0.215 -0.1901 -0.1857  0.0636
  836SOL    HW1 2507   1.179   1.922   0.301 -0.1727  0.3465 -2.4121
  836SOL    HW2 2508   1.215   1.825   0.177  0.4704 -2.6043  0.6169
  837SOL     OW 2509   1.674   1.728   0.804 -0.3742  0.4708 -0.2129
  837SOL    HW1 2510   1.624   1.643   0.838 -0.4391 -0.8577  0.0424
  837SOL    HW2 2511   1.767   1.699   0.771  2.0646  0.8942 -1.3554
  838SOL     OW 2512   1.325   0.924   2.024  0.0708  0.2009  0.6693
  838SOL    HW1 2513   1.341   0.875   1.937  0.1723  1.8204  0.5009
  838SOL    HW2 2514   1.259   0.873   2.083 -3.4447 -1.6256 -0.1873
  839SOL     OW 2515   0.892   1.647   2.526  0.0456 -0.3417 -1.1108
  839SOL    HW1 2516   0.845   1.709   2.589  2.5117 -1.8110  0.3754
  839SOL    HW2 2517   0.904   1.550   2.572  0.9758 -3.1266 -0.0794
  840SOL     OW 2518   0.710   2.218   0.717  0.6381  0.0372 -0.0901
  840SOL    HW1 2519   0.777   2.294   0.705  1.2322 -0.3388  2.3452
  840SOL    HW2 2520   0.706   2.199   0.815 -1.6411 -2.5685  0.2594
  841SOL     OW 2521   1.881   2.504   0.149 -0.0986 -0.6600 -0.0859
  841SOL    HW1 2522   1.981   2.480   0.148 -0.8555 -2.0148 -1.2414
  841SOL    HW2 2523   1.833   2.480   0.062  0.6295  0.1657 -1.6199
  842SOL     OW 2524   0.471   0.643   2.955 -0.6831 -0.4875  0.5125
  842SOL    HW1 2525   0.496   0.644   2.857  1.5783 -0.8773  0.6259
  842SOL    HW2 2526   0.367   0.649   2.962 -0.3643  1.0999 -0.3761
  843SOL     OW 2527   1.187   0.462   0.796 -0.5263  0.2483 -0.0262
  843SOL    HW1 2528   1.196   0.410   0.708 -1.2793  1.1871 -2.3820
  843SOL    HW2 2529   1.278   0.496   0.827  1.8059  1.1838  1.3910
  844SOL     OW 2530   2.872   3.003   2.758  0.2299  0.2939  0.1379
  844SOL    HW1 2531   2.781   2.974   2.726 -1.0837 -0.4209 -0.2242
  844SOL    HW2 2532   2.940   2.964   2.691  0.0031 -0.0985  0.4389
  845SOL     OW 2533   2.733   2.100   1.385  0.1223 -0.1321  0.6686
  845SOL    HW1 2534   2.637   2.134   1.357 -1.2229  1.0643 -1.7517
  845SOL    HW2 2535   2.771   2.141   1.470  1.0363 -2.4340 -3.0225
  846SOL     OW 2536   2.650   1.478   2.321  0.5044  0.0692  0.0923
  846SOL    HW1 2537   2.613   1.447   2.409  0.3157  1.1099 -1.4457
  846SOL    HW2 2538   2.649   1.402   2.255 -1.0188 -0.7581 -0.7018
  847SOL     OW 2539   1.143   0.513   1.771  0.2070 -0.0102 -0.3678
  847SOL    HW1 2540   1.176   0.521   1.867 -1.7599  0.2164 -0.3286
  847SOL    HW2 2541   1.045   0.506   1.761 -0.0060 -1.3392  0.2630
  848SOL     OW 2542   2.750   2.801   3.015 -0.1201  0.3206 -0.6920
  848SOL    HW1 2543   2.656   2.842   3.009 -0.4008 -0.1722  1.5879
  848SOL    HW2 2544   2.814   2.861   3.065  1.6813 -0.4957  1.0413
  849SOL     OW 2545   0.574   0.100   0.203 -0.1102  0.2707 -0.1083
  849SOL    HW1 2546   0.544   0.037   0.281 -0.7889 -1.3701  0.0965
  849SOL    HW2 2547   0.505   0.172   0.188  0.6489  1.8562  1.1180
  850SOL     OW 2548   1.245   2.834   1.083 -0.3392 -0.4842 -0.6186
  850SOL    HW1 2549   1.311   2.900   1.050 -0.1533 -0.8046 -1.6479
  850SOL    HW2 2550   1.178   2.803   1.009 -1.1863 -3.2855 -1.3906
  851SOL     OW 2551   2.722   0.224   2.313 -0.3559 -0.0946  0.2310
  851SOL    HW1 2552   2.789   0.236   2.235  0.2485  1.4473  0.0051
  851SOL    HW2 2553   2.723   0.301   2.377 -1.7372  0.3415 -1.2465
  852SOL     OW 2554   1.555   0.593   2.396 -0.2302 -0.2895  0.1860
  852SOL    HW1 2555   1.627   0.587   2.467 -1.4950  1.1469  0.4284
  852SOL    HW2 2556   1.567   0.522   2.325  1.5182  1.5678  0.3757
  853SOL     OW 2557   2.852   2.987   0.160  0.0500 -0.2020  0.5904
  853SOL    HW1 2558   2.791   3.002   0.240  1.4576  0.4911  0.1393
  853SOL    HW2 2559   2.874   3.075   0.120 -2.5854 -1.4684  1.9073
  854SOL     OW 2560   2.320   1.314   2.110  0.0280  0.2807 -0.4553
  854SOL    HW1 2561   2.414   1.304   2.146  0.8702  1.5367 -1.4294
  854SOL    HW2 2562   2.317   1.312   2.008  0.8090 -0.1555  1.0527
  855SOL     OW 2563   0.886   2.773   0.156  0.3790 -0.4418 -0.4797
  855SOL    HW1 2564   0.827   2.857   0.147  0.7043  0.3180 -0.7369
  855SOL    HW2 2565   0.864   2.707   0.085  0.1622 -2.5103 -0.9199
  856SOL     OW 2566   3.052   3.056   2.950  0.1385  0.3164  0.1108
  856SOL    HW1 2567   2.975   3.037   2.883 -2.6005 -2.5201  0.7896
  856SOL    HW2 2568   0.011   2.966   2.963  1.4399 -0.9453 -0.8407
  857SOL     OW 2569   1.102   2.743   1.501  0.2885  0.0847 -0.0421
  857SOL    HW1 2570   1.181   2.767   1.441  0.0280  2.9945 -1.0205
  857SOL    HW2 2571   1.124   2.665   1.561  0.5872  1.2466 -1.5867
  858SOL     OW 2572   2.659   2.182   1.721 -0.5091  0.2154  0.2874
  858SOL    HW1 2573   2.732   2.239   1.759 -2.5119  0.9352 -0.4535
  858SOL    HW2 2574   2.665   2.088   1.746 -2.0864 -0.8472 -2.1189
  859SOL     OW 2575   1.692   2.368   1.782  0.3743  0.1667 -0.0106
  859SOL    HW1 2576   1.717   2.304   1.707  1.4513 -0.5448  1.5006
  859SOL    HW2 2577   1.594   2.351   1.810  0.6093  0.2090  2.3228
  860SOL     OW 2578   2.167   2.982   2.787 -0.3973  0.2990  0.2039
  860SOL    HW1 2579   2.086   2.952   2.730  0.1814  1.2378  0.5790
  860SOL    HW2 2580   2.144   2.991   2.884  0.9358 -1.9187 -2.3219
  861SOL     OW 2581   2.396   2.991   0.667  0.3721 -0.2328  0.1153
  861SOL    HW1 2582   2.441   2.961   0.582 -0.0750  1.2200 -0.8587
  861SOL    HW2 2583   2.437   2.952   0.750  2.0311 -1.7115  1.0444
  862SOL     OW 2584   1.673   3.001   2.697  0.0060 -0.1566  0.1991
  862SOL    HW1 2585   1.600   2.940   2.659 -2.3799  1.2320  0.8062
  862SOL    HW2 2586   1.644   0.006   2.727  2.5741  2.6494 -2.1302
  863SOL     OW 2587   0.119   0.565   1.237  0.2110  0.1990  0.3981
  863SOL    HW1 2588   0.111   0.592   1.139  0.6098  0.6954  0.4369
  863SOL    HW2 2589   0.095   0.646   1.296 -0.8542 -1.0146 -1.4427
  864SOL     OW 2590   0.280   2.732   2.067 -0.0051  0.2993 -0.0097
  864SOL    HW1 2591   0.335   2.796   2.007 -0.1334  2.5085  0.1860
  864SOL    HW2 2592   0.342   2.679   2.126  2.2962  2.0534 -2.2414
  865SOL     OW 2593   0.565   1.181   3.068 -0.3284 -0.6820  0.6103
  865SOL    HW1 2594   0.629   1.251   0.015  1.9665 -0.3987 -0.3643
  865SOL    HW2 2595   0.517   1.125   0.050 -1.2718 -0.1593 -0.8568
  866SOL     OW 2596   2.937   0.801   3.070  0.8698 -0.2458 -0.1251
  866SOL    HW1 2597   3.030   0.785   0.020  2.5452 -0.1841 -0.1594
  866SOL    HW2 2598   2.870   0.761   0.046  0.9972  1.4116  0.1890
  867SOL     OW 2599   0.000   2.780   3.008 -0.0714  0.1554  0.1129
  867SOL    HW1 2600   3.086   2.774   0.019  0.4272  2.0633 -0.1823
  867SOL    HW2 2601   3.036   2.702   2.968 -1.9606 -2.1703 -1.3384
  868SOL     OW 2602   1.481   0.218   0.325  0.5183  0.7952 -0.2551
  868SOL    HW1 2603   1.473   0.255   0.416  1.8077 -1.2575 -2.2903
  868SOL    HW2 2604   1.559   0.267   0.288 -2.1445 -0.9017  0.0405
  869SOL     OW 2605   2.189   1.497   0.418 -0.2121  0.1236 -0.1128
  869SOL    HW1 2606   2.203   1.589   0.373 -1.8410  1.3522 -0.4185
  869SOL    HW2 2607   2.093   1.507   0.448  2.3909  1.6287 -2.6216
  870SOL     OW 2608   1.946   1.585   0.479  0.0894  0.2241 -0.1843
  870SOL    HW1 2609   1.951   1.607   0.574  2.1073  1.6657 -3.5484
  870SOL    HW2 2610   1.918   1.666   0.419 -0.0869  0.3906 -0.7532
  871SOL     OW 2611   1.449   1.531   1.252 -0.2298 -0.0408  0.4518
  871SOL    HW1 2612   1.400   1.440   1.253 -0.6247  1.1788 -0.3699
  871SOL    HW2 2613   1.553   1.526   1.255  0.0221 -2.9956 -0.1193
  872SOL     OW 2614   1.276   1.606   1.662 -0.2931  0.0873  0.6242
  872SOL    HW1 2615   1.190   1.552   1.673 -0.0748  0.2069  1.0939
  872SOL    HW2 2616   1.255   1.705   1.665  2.0090 -0.7184  0.2455
  873SOL     OW 2617   0.456   1.479   2.425  0.1680  0.4836 -0.1446
  873SOL    HW1 2618   0.519   1.474   2.504 -1.1852  0.1944 -0.2864
  873SOL    HW2 2619   0.469   1.570   2.383 -2.6958  1.9294 -1.6953
  874SOL     OW 2620   0.958   1.437   1.185  0.0974  0.9995 -0.1583
  874SOL    HW1 2621   0.979   1.538   1.176  1.3255  4.1511 -2.7855
  874SOL    HW2 2622   0.869   1.423   1.238 -2.6561  0.3422  2.1108
  875SOL     OW 2623   2.430   0.312   0.980 -0.0426  0.2563  0.5737
  875SOL    HW1 2624   2.426   0.392   0.913 -1.1809  0.6206 -2.5543
  875SOL    HW2 2625   2.461   0.350   1.069  1.2633  1.1713  2.6232
  876SOL     OW 2626   0.740   0.838   0.135  0.1110 -0.3686 -0.5964
  876SOL    HW1 2627   0.795   0.763   0.180  1.2470  0.1880  1.9760
  876SOL    HW2 2628   0.762   0.927   0.178 -0.6218 -3.9454  2.9608
  877SOL     OW 2629   2.889   0.420   1.325  0.7501  0.3751  0.1931
  877SOL    HW1 2630   2.851   0.497   1.272  0.3456 -2.2657  0.9345
  877SOL    HW2 2631   2.971   0.383   1.280 -3.8130  1.9848  2.3168
  878SOL     OW 2632   1.607   2.366   0.050  0.8395  0.1375 -0.1925
  878SOL    HW1 2633   1.683   2.409   3.089 -0.1437  0.1996  0.1041
  878SOL    HW2 2634   1.570   2.295   3.075  1.5541  1.6126  0.7127
  879SOL     OW 2635   2.308   2.073   1.557 -0.1436  0.0137 -0.4657
  879SOL    HW1 2636   2.290   2.146   1.486 -0.4933  0.0612  1.2169
  879SOL    HW2 2637   2.349   2.104   1.648  1.8216 -0.6310  1.6240
  880SOL     OW 2638   0.897   2.895   1.453 -0.1784 -0.0118  0.3885
  880SOL    HW1 2639   0.954   2.816   1.480  0.9060  0.9620 -0.0887
  880SOL    HW2 2640   0.911   2.915   1.358  0.5586  2.3849 -1.3388
  881SOL     OW 2641   0.924   1.963   2.964  0.0838  0.2918  0.3608
  881SOL    HW1 2642   0.970   1.921   2.880  3.1028 -3.7016 -0.1517
  881SOL    HW2 2643   0.966   2.058   2.979  1.4332  1.1326  1.9382
  882SOL     OW 2644   2.261   0.753   1.967  0.1170  0.3879  0.1999
  882SOL    HW1 2645   2.290   0.823   2.037  2.7803 -0.1885  2.3206
  882SOL    HW2 2646   2.262   0.791   1.873 -2.8186  1.3407 -1.9729
  883SOL     OW 2647   1.211   0.576   2.024  0.0883  0.1027 -0.5765
  883SOL    HW1 2648   1.130   0.628   2.056 -1.7085  1.1620  0.8223
  883SOL    HW2 2649   1.218   0.487   2.071  0.9178 -1.0331 -1.3334
  884SOL     OW 2650   2.837   0.347   0.025  0.4955 -0.1893 -0.1271
  884SOL    HW1 2651   2.903   0.272   0.048 -0.9605  0.2709 -1.5698
  884SOL    HW2 2652   2.768   0.365   0.097 -0.3449 -0.5393 -1.3211
  885SOL     OW 2653   0.600   2.259   0.463 -0.1509  0.5780  0.3243
  885SOL    HW1 2654   0.642   2.235   0.549 -2.4012 -3.8184 -1.9271
  885SOL    HW2 2655   0.660   2.239   0.380  0.5395  0.6961  2.2568
  886SOL     OW 2656   1.754   1.419   2.780 -0.0394 -0.1733  0.4080
  886SOL    HW1 2657   1.740   1.429   2.679  2.7612 -0.1373  0.1669
  886SOL    HW2 2658   1.698   1.487   2.826  2.1913  0.4828 -0.6707
  887SOL     OW 2659   1.943   0.428   1.671 -0.0721 -0.0361 -0.0545
  887SOL    HW1 2660   1.849   0.413   1.706  1.1638 -0.3758  1.9715
  887SOL    HW2 2661   1.939   0.440   1.575 -0.8635 -0.0940  3.0610
  888SOL     OW 2662   2.813   0.952   1.713 -0.5122 -0.1210 -0.0225
  888SOL    HW1 2663   2.722   0.952   1.758 -1.6228  1.4142 -1.0589
  888SOL    HW2 2664   2.893   0.948   1.776 -0.3865 -0.5505  0.9043
  889SOL     OW 2665   2.782   2.706   0.706  0.0255 -0.1876 -0.2658
  889SOL    HW1 2666   2.816   2.618   0.665  3.0290  2.2902 -0.4377
  889SOL    HW2 2667   2.848   2.776   0.679  0.1594 -0.8422 -0.6475
  890SOL     OW 2668   0.065   2.511   2.881 -0.3548  0.5189  0.2740
  890SOL    HW1 2669   0.089   2.439   2.945  0.7980  2.4619  0.4563
  890SOL    HW2 2670   0.151   2.551   2.844 -3.0786 -2.3603 -1.5814
  891SOL     OW 2671   0.657   1.890   2.964 -0.7152 -0.8332  0.1764
  891SOL    HW1 2672   0.738   1.949   2.959  3.3585  0.8243 -1.8283
  891SOL    HW2 2673   0.680   1.810   3.025 -1.2876 -1.5153  0.6137
  892SOL     OW 2674   0.309   2.712   1.028 -0.6008  0.3921  0.3708
  892SOL    HW1 2675   0.386   2.639   1.026  2.6419 -3.5987  1.1506
  892SOL    HW2 2676   0.302   2.742   0.929  1.2691 -0.5157  0.5513
  893SOL     OW 2677   0.584   0.007   1.162 -0.0976  0.3045 -0.2163
  893SOL    HW1 2678   0.661   0.065   1.199 -2.6778 -1.0236 -0.2044
  893SOL    HW2 2679   0.549   0.045   1.074 -0.5094  0.3961 -1.3894
  894SOL     OW 2680   2.996   1.353   0.900 -0.2893 -0.1771  0.1630
  894SOL    HW1 2681   2.956   1.288   0.834 -0.3074  1.4160  1.4288
  894SOL    HW2 2682   2.967   1.449   0.870 -2.2008  0.7101 -2.2222
  895SOL     OW 2683   2.569   2.433   1.592  0.2372  0.3370  0.4387
  895SOL    HW1 2684   2.569   2.336   1.573  2.3210 -0.2646 -0.6992
  895SOL    HW2 2685   2.546   2.486   1.505 -3.1594  1.4468  2.6872
  896SOL     OW 2686   0.888   0.248   1.565  0.0301 -0.2388 -0.1818
  896SOL    HW1 2687   0.917   0.160   1.600  1.4253  1.9397 -0.2196
  896SOL    HW2 2688   0.851   0.307   1.638 -1.5725 -1.9731  0.3383
  897SOL     OW 2689   0.842   1.590   1.593  0.0116  0.0338 -0.5396
  897SOL    HW1 2690   0.923   1.536   1.619  2.4132  1.0145  1.9521
  897SOL    HW2 2691   0.864   1.691   1.599  0.8389  0.5034 -1.3459
  898SOL     OW 2692   1.526   2.747   1.606  0.4865  0.1972 -0.6075
  898SOL    HW1 2693   1.467   2.666   1.599  0.7620 -0.1324  0.3764
  898SOL    HW2 2694   1.478   2.836   1.600  0.5014  0.1157  1.0274
  899SOL     OW 2695   0.881   0.666   0.274 -0.0797 -0.2882 -0.4526
  899SOL    HW1 2696   0.826   0.694   0.356 -0.9344  0.5258  0.1877
  899SOL    HW2 2697   0.968   0.613   0.300  2.7707 -0.3919  1.8096
  900SOL     OW 2698   1.444   2.315   1.835 -0.0593 -0.8907  0.1476
  900SOL    HW1 2699   1.390   2.374   1.899  2.3940 -0.3907 -1.7871
  900SOL    HW2 2700   1.390   2.246   1.777  2.9163 -3.0746 -1.6632
  901SOL     OW 2701   0.905   2.503   0.384  0.2785  0.0307 -0.6846
  901SOL    HW1 2702   0.812   2.496   0.347 -1.2191  0.5059 -0.2644
  901SOL    HW2 2703   0.957   2.415   0.368  0.4628 -2.5795 -0.1436
  902SOL     OW 2704   1.898   1.422   0.256 -0.2943 -0.0385  0.4772
  902SOL    HW1 2705   1.863   1.483   0.333 -0.4854  2.0581 -1.0103
  902SOL    HW2 2706   1.861   1.324   0.263 -0.0022  0.2172  0.3226
  903SOL     OW 2707   2.086   1.114   0.190 -0.4423 -0.4024 -0.5512
  903SOL    HW1 2708   2.147   1.192   0.219 -0.0959  1.6059 -2.0012
  903SOL    HW2 2709   2.045   1.132   0.100 -0.5100 -0.6837  0.8886
  904SOL     OW 2710   0.731   1.382   0.075 -0.3414 -0.6140 -0.5262
  904SOL    HW1 2711   0.721   1.461   0.015 -1.4958 -0.6373  0.0413
  904SOL    HW2 2712   0.752   1.413   0.172 -1.9672  0.5025  0.6832
  905SOL     OW 2713   2.138   3.002   1.233  0.1956  0.0547  0.0305
  905SOL    HW1 2714   2.182   2.964   1.153 -0.6687  4.1559  0.2283
  905SOL    HW2 2715   2.069   2.938   1.258  0.5132  2.9647 -0.0526
  906SOL     OW 2716   2.723   2.399   1.245 -0.3368 -0.7011  0.1400
  906SOL    HW1 2717   2.775   2.401   1.156  3.2450 -2.9936 -0.7620
  906SOL    HW2 2718   2.687   2.307   1.263 -2.6308 -0.9527  0.8225
  907SOL     OW 2719   1.326   0.871   0.277 -0.0660 -0.3952  0.0790
  907SOL    HW1 2720   1.303   0.848   0.181  1.4216 -2.2792  0.0504
  907SOL    HW2 2721   1.355   0.967   0.287 -1.8805 -1.5117  0.3032
  908SOL     OW 2722   1.603   2.920   1.048 -0.2077 -0.3142  0.2386
  908SOL    HW1 2723   1.670   2.964   0.992 -1.0662  0.5366  1.5046
  908SOL    HW2 2724   1.523   2.980   1.069 -1.3858 -0.2930  0.3606
  909SOL     OW 2725   1.829   1.087   1.736  0.2236 -0.7790 -0.3063
  909SOL    HW1 2726   1.897   1.147   1.793  1.4830 -1.3843 -1.5067
  909SOL    HW2 2727   1.727   1.104   1.755 -0.0401  0.2140  0.4435
  910SOL     OW 2728   1.667   0.083   2.020 -0.0311  0.3090  0.0278
  910SOL    HW1 2729   1.664   0.053   2.118  0.7516  1.0750 -1.0651
  910SOL    HW2 2730   1.751   0.045   1.978  1.3948 -2.5065 -0.2194
  911SOL     OW 2731   2.679   0.830   2.761 -0.2574 -0.6384  0.6285
  911SOL    HW1 2732   2.685   0.837   2.659 -0.9466 -0.3116 -1.5451
  911SOL    HW2 2733   2.759   0.769   2.788  1.3148 -3.3242  1.4804
  912SOL     OW 2734   3.052   1.298   1.742  0.1149  0.2190 -0.1300
  912SOL    HW1 2735   2.999   1.372   1.708 -1.0649  0.7558 -2.1651
  912SOL    HW2 2736   3.053   1.217   1.674 -1.3783 -1.1664  0.4730
  913SOL     OW 2737   2.919   2.508   1.401  0.3859 -0.2393  0.5072
  913SOL    HW1 2738   2.983   2.429   1.400  0.0884  0.2747  0.1197
  913SOL    HW2 2739   2.830   2.471   1.356 -0.9332  0.5797  2.3346
  914SOL     OW 2740   1.561   1.036   1.582  0.0411  0.2048  0.1263
  914SOL    HW1 2741   1.593   0.943   1.551  2.0319  0.0228  2.2126
  914SOL    HW2 2742   1.616   1.101   1.528  3.3150  1.5958 -0.4481
  915SOL     OW 2743   2.123   0.517   1.333  0.0647 -0.4491  0.7456
  915SOL    HW1 2744   2.197   0.479   1.382 -2.9800  1.5668  0.0803
  915SOL    HW2 2745   2.145   0.514   1.234 -0.3200  1.3254  1.5939
  916SOL     OW 2746   2.461   2.240   1.045 -0.1929  0.4181  0.6423
  916SOL    HW1 2747   2.380   2.299   1.021 -2.3857 -1.4393 -1.2648
  916SOL    HW2 2748   2.539   2.274   0.994  1.0480  0.3373 -0.6856
  917SOL     OW 2749   1.778   2.071   2.652 -0.4337  0.3216 -0.5459
  917SOL    HW1 2750   1.874   2.102   2.664  1.5670  1.7854 -0.2295
  917SOL    HW2 2751   1.759   2.003   2.721 -0.2171 -0.3234 -2.1370
  918SOL     OW 2752   1.877   2.632   2.194 -0.4633 -0.5096  0.3072
  918SOL    HW1 2753   1.933   2.717   2.196  2.3760  0.8038  1.5883
  918SOL    HW2 2754   1.774   2.654   2.185  0.3909 -0.2087 -3.0260
  919SOL     OW 2755   1.193   2.556   1.150 -0.3225 -0.8323 -0.2913
  919SOL    HW1 2756   1.169   2.565   1.051 -1.0005 -0.8271 -0.9152
  919SOL    HW2 2757   1.273   2.616   1.173  0.0243 -1.8675 -1.9255
  920SOL     OW 2758   3.073   0.184   2.410 -0.2252 -0.6094  0.7336
  920SOL    HW1 2759   0.019   0.089   2.417  0.8077 -1.0045 -3.3573
  920SOL    HW2 2760   3.001   0.196   2.480 -0.4488 -0.8976 -0.4026
  921SOL     OW 2761   3.040   0.912   1.862  0.4024  0.8898  0.1166
  921SOL    HW1 2762   3.050   0.997   1.920  1.9515 -0.4906 -2.7676
  921SOL    HW2 2763   0.017   0.910   1.787 -1.4850  2.6630 -1.0926
  922SOL     OW 2764   2.021   1.996   0.356  0.6171 -0.5366 -0.2075
  922SOL    HW1 2765   2.063   1.999   0.263 -0.2483 -0.3179 -0.8066
  922SOL    HW2 2766   2.087   1.957   0.424 -0.4919  0.1451  0.2192
  923SOL     OW 2767   0.615   1.954   0.357  0.5035  0.2216  0.1051
  923SOL    HW1 2768   0.640   1.871   0.302 -2.4779  0.1304 -0.3533
  923SOL    HW2 2769   0.654   2.039   0.318 -2.2603  0.0797 -0.0068
  924SOL     OW 2770   1.038   0.695   0.060  0.5223 -0.1745  0.2134
  924SOL    HW1 2771   0.963   0.693   0.123  1.8940  2.0651  0.8893
  924SOL    HW2 2772   1.022   0.641   3.064  1.0148  0.6061  0.5862
  925SOL     OW 2773   2.719   0.611   0.881 -0.3599  0.3409  0.1399
  925SOL    HW1 2774   2.704   0.710   0.893 -0.2615 -1.4316  2.6575
  925SOL    HW2 2775   2.666   0.581   0.799  0.8173  0.7236  0.9687
  926SOL     OW 2776   0.541   0.352   1.271 -0.4742 -0.3549  0.2329
  926SOL    HW1 2777   0.501   0.287   1.210 -2.1209  2.5696  1.4106
  926SOL    HW2 2778   0.553   0.309   1.365  0.6811 -2.4593  1.7753
  927SOL     OW 2779   0.142   1.544   2.254  0.0064 -0.5877  0.3080
  927SOL    HW1 2780   0.101   1.580   2.340  0.2738 -0.5406 -1.1638
  927SOL    HW2 2781   0.079   1.490   2.202  1.6582  0.4596 -3.3013
  928SOL     OW 2782   2.914   0.186   2.615 -0.5703 -0.4248 -0.2603
  928SOL    HW1 2783   2.832   0.142   2.644 -0.4358  0.9346  1.3096
  928SOL    HW2 2784   3.000   0.150   2.661  2.5026 -0.7113  1.5912
  929SOL     OW 2785   2.737   0.090   1.286 -0.1305  0.3401 -0.0976
  929SOL    HW1 2786   2.694   0.004   1.263  0.6918  1.3639  1.2776
  929SOL    HW2 2787   2.675   0.144   1.348 -2.3887  1.3959  1.4798
  930SOL     OW 2788   1.821   0.691   1.819  0.0396 -0.2739 -0.0804
  930SOL    HW1 2789   1.767   0.666   1.738 -1.5291 -0.3834  1.0734
  930SOL    HW2 2790   1.766   0.748   1.884 -2.0320 -1.7477 -1.0052
  931SOL     OW 2791   2.044   1.142   3.019 -0.5549  0.8408  0.0757
  931SOL    HW1 2792   2.123   1.084   2.980 -1.3087 -0.2878 -0.2188
  931SOL    HW2 2793   1.960   1.125   2.967  0.1833 -0.1302 -1.9508
  932SOL     OW 2794   2.073   1.187   0.742 -0.0207  0.4760  0.0036
  932SOL    HW1 2795   2.156   1.246   0.731  0.4045  3.4384 -0.0071
  932SOL    HW2 2796   2.086   1.094   0.701 -1.8643 -1.5531 -0.0241
  933SOL     OW 2797   2.327   1.605   0.839 -0.4604  0.1457 -0.2219
  933SOL    HW1 2798   2.275   1.527   0.805 -0.0892  1.7057  0.7112
  933SOL    HW2 2799   2.304   1.698   0.799  0.2636 -1.4914 -3.5378
  934SOL     OW 2800   2.167   0.755   2.403 -0.1250  0.0883  0.0186
  934SOL    HW1 2801   2.245   0.704   2.366 -1.2914  2.2954 -0.9338
  934SOL    HW2 2802   2.083   0.711   2.358 -1.4550 -1.7102 -3.2691
  935SOL     OW 2803   0.237   1.057   0.632 -0.0430  0.0113  0.3095
  935SOL    HW1 2804   0.233   1.157   0.613 -1.3911 -0.8939 -1.5259
  935SOL    HW2 2805   0.145   1.019   0.660 -0.6705  1.4428 -2.5418
  936SOL     OW 2806   0.316   0.244   0.708 -0.3942  0.6857 -0.2970
  936SOL    HW1 2807   0.394   0.190   0.677 -0.0221  2.8422  2.6726
  936SOL    HW2 2808   0.323   0.286   0.796 -0.2479 -2.5817 -0.6697
  937SOL     OW 2809   2.993   3.016   2.062  0.4692 -0.2517  0.3248
  937SOL    HW1 2810   3.015   2.983   2.157 -1.2118  1.1779 -2.9970
  937SOL    HW2 2811   3.066   3.026   1.995 -1.8300  1.3642 -0.7607
  938SOL     OW 2812   0.150   2.355   0.004 -0.3966  0.0464  0.6588
  938SOL    HW1 2813   0.179   2.280   0.075 -0.0557 -2.6960  3.5625
  938SOL    HW2 2814   0.213   2.432   0.002 -0.0477  1.8407 -0.2636
  939SOL     OW 2815   0.767   1.880   0.848  0.2776 -0.0472  0.2979
  939SOL    HW1 2816   0.740   1.971   0.886 -0.4037  0.2384  0.3647
  939SOL    HW2 2817   0.804   1.817   0.918 -1.3886  0.4659 -1.7059
  940SOL     OW 2818   3.056   0.425   2.977 -0.5549  0.0936  0.3377
  940SOL    HW1 2819   2.964   0.387   3.005 -1.2505  0.2788  1.8574
  940SOL    HW2 2820   0.033   0.355   2.994  0.3018  0.1881  1.5132
  941SOL     OW 2821   1.814   0.505   2.541 -0.2176 -0.5529  0.1479
  941SOL    HW1 2822   1.844   0.412   2.566  0.6703  2.1241 -0.0842
  941SOL    HW2 2823   1.784   0.562   2.619  0.6257 -0.7719  1.7620
  942SOL     OW 2824   1.364   0.477   1.330  0.1122 -0.2184  0.3071
  942SOL    HW1 2825   1.449   0.519   1.287 -0.1117  1.6112  0.0123
  942SOL    HW2 2826   1.279   0.486   1.267 -1.8521 -3.2818 -1.9621
  943SOL     OW 2827   1.109   0.865   1.759  0.1882  0.0987  0.2682
  943SOL    HW1 2828   1.199   0.828   1.732 -0.9068 -2.4168  2.6778
  943SOL    HW2 2829   1.079   0.821   1.848 -0.3651 -2.2672  3.1548
  944SOL     OW 2830   2.018   0.879   1.696  0.2014  0.1259 -0.4630
  944SOL    HW1 2831   1.975   0.806   1.752  0.0334 -1.3759 -1.0389
  944SOL    HW2 2832   1.962   0.963   1.688 -0.8631 -1.2559  0.2412
  945SOL     OW 2833   2.654   3.059   0.339  0.4322  0.6009 -0.2031
  945SOL    HW1 2834   2.666   0.035   0.411  2.8603 -3.4475 -3.0162
  945SOL    HW2 2835   2.564   3.062   0.293  1.1612  0.9926 -0.4542
  946SOL     OW 2836   2.884   0.705   1.956  0.0018 -0.2300 -0.2201
  946SOL    HW1 2837   2.925   0.660   2.035  1.6471  0.1969  0.7282
  946SOL    HW2 2838   2.941   0.779   1.922 -0.3814 -2.0967 -0.0827
  947SOL     OW 2839   1.316   3.059   0.109  0.2628  0.3385  0.6482
  947SOL    HW1 2840   1.401   0.023   0.102  0.6482  0.9687  0.1886
  947SOL    HW2 2841   1.343   2.961   0.125 -2.5992  1.4703  2.0556
  948SOL     OW 2842   2.397   1.729   1.430  0.3373 -0.6413  0.0291
  948SOL    HW1 2843   2.497   1.762   1.446 -1.5300  0.8573 -1.6015
  948SOL    HW2 2844   2.395   1.637   1.401 -1.4732  1.9475  0.0355
  949SOL     OW 2845   0.405   1.391   0.078 -0.2506 -0.1674 -0.4510
  949SOL    HW1 2846   0.309   1.353   0.078 -0.4749 -0.0045  0.6168
  949SOL    HW2 2847   0.458   1.355   0.002 -0.2874  2.2165  0.9390
  950SOL     OW 2848   0.479   2.516   0.982  0.4937  0.0800  0.0975
  950SOL    HW1 2849   0.531   2.538   0.896 -1.1337 -1.2180  1.1278
  950SOL    HW2 2850   0.465   2.415   0.990  0.0622 -1.6370  3.2935
  951SOL     OW 2851   0.702   1.081   2.479  0.0569 -0.0253  0.3807
  951SOL    HW1 2852   0.769   1.107   2.555  0.5021  0.3123  0.5168
  951SOL    HW2 2853   0.752   1.081   2.388  0.0779  0.1563  0.8108
  952SOL     OW 2854   0.417   1.037   0.828  0.0897  0.0386 -0.8608
  952SOL    HW1 2855   0.439   1.133   0.839 -0.3435 -3.8194  1.0514
  952SOL    HW2 2856   0.347   1.031   0.756 -2.5932 -0.8894 -1.6765
  953SOL     OW 2857   2.745   2.860   2.209  0.2387  0.0100 -0.0117
  953SOL    HW1 2858   2.709   2.888   2.297  0.9884  0.2328 -3.0165
  953SOL    HW2 2859   2.828   2.804   2.224  0.6823 -0.1143  0.7148
  954SOL     OW 2860   1.546   1.425   0.390  0.1474  0.0767  0.3576
  954SOL    HW1 2861   1.501   1.514   0.393 -0.9428 -0.6040  2.1271
  954SOL    HW2 2862   1.569   1.389   0.296  1.3480  0.5544  2.7157
  955SOL     OW 2863   0.751   2.162   0.250 -0.0155 -0.1328 -0.6292
  955SOL    HW1 2864   0.846   2.202   0.266 -0.5338  3.0094  0.2607
  955SOL    HW2 2865   0.708   2.184   0.164 -2.4971 -0.4687  1.5855
  956SOL     OW 2866   2.351   0.503   2.050  0.3122 -0.5709 -0.2186
  956SOL    HW1 2867   2.351   0.528   2.148 -1.1471 -0.0612 -0.0396
  956SOL    HW2 2868   2.317   0.591   2.005 -1.0094  0.6342  0.7931
  957SOL     OW 2869   2.013   2.220   2.522  0.3023  0.3259  0.0434
  957SOL    HW1 2870   1.931   2.269   2.481 -1.7992  1.7633 -0.3145
  957SOL    HW2 2871   2.079   2.283   2.566 -1.9257 -0.7407  0.7005
  958SOL     OW 2872   1.621   1.117   1.025  0.1453 -0.1958 -0.0716
  958SOL    HW1 2873   1.652   1.030   0.983  0.7407  1.2804  1.8037
  958SOL    HW2 2874   1.576   1.099   1.114 -0.6307 -0.9483  1.0564
  959SOL     OW 2875   1.978   2.109   2.269 -0.0959 -0.6494 -0.0393
  959SOL    HW1 2876   2.015   2.166   2.344  0.1277  0.9448  1.3848
  959SOL    HW2 2877   1.893   2.062   2.298 -1.6219 -1.1118 -0.1854
  960SOL     OW 2878   0.414   0.927   2.751  0.0695  0.0901 -0.0057
  960SOL    HW1 2879   0.402   0.997   2.678 -2.1898  1.1212 -0.7281
  960SOL    HW2 2880   0.509   0.933   2.785  4.3743  2.5937 -0.7075
  961SOL     OW 2881   0.207   1.008   2.965  0.0546 -0.0569 -0.3091
  961SOL    HW1 2882   0.247   1.006   2.867  1.2728  0.8207 -4.3801
  961SOL    HW2 2883   0.121   1.062   2.981  0.8525 -1.5385  0.3823
  962SOL     OW 2884   0.462   1.169   2.588 -0.2347  0.6080 -0.0964
  962SOL    HW1 2885   0.384   1.128   2.537  0.7632  3.4189  1.4275
  962SOL    HW2 2886   0.550   1.167   2.536 -0.6785 -3.3771 -0.2907
  963SOL     OW 2887   2.810   2.309   0.154  0.4023 -0.4044 -0.3461
  963SOL    HW1 2888   2.879   2.334   0.085 -1.8921  1.3387  0.6220
  963SOL    HW2 2889   2.720   2.326   0.112 -1.4270 -1.1196  0.1703
  964SOL     OW 2890   0.986   2.265   1.686 -0.4956  0.2997  0.5404
  964SOL    HW1 2891   1.024   2.202   1.756 -1.8875  0.7790  0.2659
  964SOL    HW2 2892   0.894   2.295   1.719 -0.2669 -1.0835 -0.9151
  965SOL     OW 2893   1.849   1.774   0.290 -0.4341 -0.5329  0.3910
  965SOL    HW1 2894   1.750   1.790   0.307 -1.8627 -1.5983 -1.3614
  965SOL    HW2 2895   1.906   1.858   0.308  3.4395  4.0997  1.1129
  966SOL     OW 2896   2.774   1.532   0.271  0.7904 -0.1960  0.5007
  966SOL    HW1 2897   2.762   1.434   0.275  1.9273  0.6727  0.7861
  966SOL    HW2 2898   2.873   1.553   0.279 -2.7137 -0.7327  0.3253
  967SOL     OW 2899   1.917   2.774   1.842  0.6010 -0.0482  0.3590
  967SOL    HW1 2900   1.823   2.733   1.835 -3.2742 -1.3898  0.4694
  967SOL    HW2 2901   1.975   2.716   1.903  0.1807 -1.6155  0.0959
  968SOL     OW 2902   1.102   0.494   0.350 -0.0141  0.0226 -0.7331
  968SOL    HW1 2903   1.106   0.403   0.392  0.4281 -1.0444  1.5254
  968SOL    HW2 2904   1.158   0.562   0.405  1.2362  0.4003 -0.0872
  969SOL     OW 2905   0.177   1.260   2.111  0.2278  0.1801  0.2087
  969SOL    HW1 2906   0.278   1.273   2.147  0.5451  1.2831  1.2522
  969SOL    HW2 2907   0.177   1.313   2.026  0.8894  2.2071 -2.5923
  970SOL     OW 2908   1.985   2.136   1.222  0.6875 -0.6364  0.4066
  970SOL    HW1 2909   1.925   2.071   1.271  1.2597  0.7557 -0.4841
  970SOL    HW2 2910   1.954   2.153   1.124 -0.8969  0.9943  0.9162
  971SOL     OW 2911   2.581   2.621   0.926  0.4585 -0.3012 -0.3235
  971SOL    HW1 2912   2.570   2.518   0.925 -0.1826 -0.7227 -0.4922
  971SOL    HW2 2913   2.643   2.648   0.850 -0.6941 -0.4527  2.0041
  972SOL     OW 2914   3.030   1.120   2.597  0.1117  0.4455  0.4141
  972SOL    HW1 2915   3.038   1.123   2.493  0.9574  0.7640 -1.7690
  972SOL    HW2 2916   2.938   1.152   2.627 -0.3869 -1.0345  1.4044
  973SOL     OW 2917   0.561   0.635   0.644 -0.2054 -0.2334 -0.1909
  973SOL    HW1 2918   0.555   0.709   0.711 -1.8742  1.3460  0.0302
  973SOL    HW2 2919   0.572   0.543   0.687 -1.1566  2.3458  1.0078
  974SOL     OW 2920   2.272   0.817   1.699  0.1450 -0.1843  1.1115
  974SOL    HW1 2921   2.180   0.859   1.693 -1.4695  0.6095 -2.2600
  974SOL    HW2 2922   2.265   0.716   1.688  1.1087  0.7991  0.6718
  975SOL     OW 2923   3.070   2.841   0.191 -0.1595 -0.5805  0.3188
  975SOL    HW1 2924   2.980   2.889   0.198 -0.6063 -0.9900  0.4303
  975SOL    HW2 2925   0.008   2.796   0.279 -0.8848 -1.4648  1.5347
  976SOL     OW 2926   0.406   1.846   1.215  0.1286  0.2456  0.4861
  976SOL    HW1 2927   0.381   1.753   1.241  0.4110  2.0354 -1.2985
  976SOL    HW2 2928   0.402   1.855   1.112 -0.3020 -0.9363 -2.0759
  977SOL     OW 2929   1.040   1.936   0.776 -0.0819 -0.3978 -0.4124
  977SOL    HW1 2930   0.938   1.917   0.801 -1.8221 -1.5515 -3.9029
  977SOL    HW2 2931   1.100   1.859   0.800  0.1318 -0.1763 -2.7768
  978SOL     OW 2932   0.409   1.009   0.099 -0.1213 -0.1169 -0.6202
  978SOL    HW1 2933   0.429   0.907   0.111  3.0121 -3.2088  0.8917
  978SOL    HW2 2934   0.342   1.030   0.025  0.2816  0.1173 -1.8564
  979SOL     OW 2935   2.095   1.578   0.097 -0.0442  0.1252 -0.3575
  979SOL    HW1 2936   2.117   1.510   0.022 -0.1064 -1.3987 -2.8475
  979SOL    HW2 2937   2.029   1.537   0.158 -0.4598  1.8050 -2.2094
  980SOL     OW 2938   0.524   2.025   2.129 -0.2532 -0.9822  0.1354
  980SOL    HW1 2939   0.608   2.086   2.109  0.6816  0.9199 -1.1129
  980SOL    HW2 2940   0.501   1.972   2.051 -1.0936  2.2364  3.0394
  981SOL     OW 2941   2.609   0.983   0.232  0.0934 -0.1172 -0.1695
  981SOL    HW1 2942   2.617   0.880   0.240  3.8972 -2.1925  0.2395
  981SOL    HW2 2943   2.527   1.010   0.174  0.0823  0.4611 -2.0004
  982SOL     OW 2944   0.095   2.470   2.047  0.1051  0.3231  0.3655
  982SOL    HW1 2945   0.083   2.532   2.125 -2.6961  0.3758  0.1218
  982SOL    HW2 2946   0.117   2.522   1.959  1.6505 -0.4481  0.7253
  983SOL     OW 2947   1.715   0.156   1.559 -0.1828  0.1031 -0.2467
  983SOL    HW1 2948   1.730   0.065   1.517  0.8731  3.1578  2.3289
  983SOL    HW2 2949   1.638   0.202   1.508 -2.2259 -0.4915 -1.0938
  984SOL     OW 2950   1.548   2.833   2.395 -0.0079 -0.1082 -0.4613
  984SOL    HW1 2951   1.568   2.790   2.309  0.5767  1.3454  1.6031
  984SOL    HW2 2952   1.450   2.851   2.409  1.9150  1.5949 -0.6236
  985SOL     OW 2953   1.448   1.682   1.477 -0.2195 -0.0434 -0.1700
  985SOL    HW1 2954   1.434   1.623   1.397 -1.6675  0.4652 -0.3562
  985SOL    HW2 2955   1.381   1.656   1.550 -0.8243 -0.0592  0.6384
  986SOL     OW 2956   1.987   2.871   2.194  0.1474 -0.4169  0.4221
  986SOL    HW1 2957   2.082   2.865   2.157  1.4833  0.9647  3.0669
  986SOL    HW2 2958   1.957   2.966   2.190  2.6799  2.2291  0.0501
  987SOL     OW 2959   2.684   1.723   2.722  0.4142 -0.3937  0.2258
  987SOL    HW1 2960   2.741   1.781   2.783  1.2960  2.5865 -1.9253
  987SOL    HW2 2961   2.686   1.755   2.626  0.9523  0.3897 -0.5610
  988SOL     OW 2962   2.898   0.646   1.628 -0.4412 -0.1679  0.0528
  988SOL    HW1 2963   2.885   0.737   1.669 -2.8565 -0.8895 -0.9774
  988SOL    HW2 2964   2.947   0.661   1.538  1.5406  1.7934  1.3118
  989SOL     OW 2965   1.666   1.238   1.433  0.3724 -0.3463  0.1796
  989SOL    HW1 2966   1.696   1.311   1.496 -1.7302  2.1671  0.1883
  989SOL    HW2 2967   1.746   1.241   1.366  2.5315  1.4883  0.1531
  990SOL     OW 2968   2.800   1.042   0.010 -0.2693 -0.5852 -0.3974
  990SOL    HW1 2969   2.738   1.040   0.092  0.8211 -1.9608  0.6813
  990SOL    HW2 2970   2.854   0.955   3.088  1.4070 -1.7525  1.5492
  991SOL     OW 2971   0.244   2.041   2.898  0.0910 -0.5629  0.0462
  991SOL    HW1 2972   0.189   2.093   2.960  0.8123 -1.5951 -0.7765
  991SOL    HW2 2973   0.282   1.961   2.946 -2.0574  1.1567 -1.2366
  992SOL     OW 2974   2.664   1.908   1.776  0.1010 -0.3392  0.5746
  992SOL    HW1 2975   2.572   1.882   1.815  2.1087 -2.1024  3.0525
  992SOL    HW2 2976   2.735   1.924   1.849  2.9996  0.3508  1.4272
  993SOL     OW 2977   0.556   3.042   0.726 -0.6864 -0.4191 -1.1350
  993SOL    HW1 2978   0.612   3.087   0.802  1.7210  2.9935  0.0257
  993SOL    HW2 2979   0.543   0.021   0.652 -1.0492 -2.4931  0.1077
  994SOL     OW 2980   2.962   2.129   1.600 -0.6468  0.0572  0.1435
  994SOL    HW1 2981   2.945   2.179   1.688 -0.3737  0.1960  0.5167
  994SOL    HW2 2982   3.015   2.046   1.624  1.6816 -0.1003 -0.6008
  995SOL     OW 2983   2.083   1.944   2.559 -0.6302 -1.2055 -0.0359
  995SOL    HW1 2984   2.016   1.874   2.587  2.2913 -0.6676 -2.9809
  995SOL    HW2 2985   2.043   2.040   2.540  1.1070  0.3658  2.1837
  996SOL     OW 2986   1.995   1.872   0.048  0.3869 -0.2764  0.9524
  996SOL    HW1 2987   1.903   1.920   0.061  0.4743 -1.3286 -0.3841
  996SOL    HW2 2988   1.981   1.771   0.030  0.6517 -2.8764 -3.1745
  997SOL     OW 2989   1.076   1.397   1.681  0.6250  0.0761 -0.0241
  997SOL    HW1 2990   1.061   1.390   1.780  0.5796  1.5175 -1.8024
  997SOL    HW2 2991   1.089   1.308   1.632  1.3681  1.6704  0.8055
  998SOL     OW 2992   2.712   2.126   0.785 -0.6086 -0.6576  0.0785
  998SOL    HW1 2993   2.650   2.082   0.710  0.5561  1.0229 -0.7271
  998SOL    HW2 2994   2.746   2.055   0.851 -5.3625 -2.4025 -0.0766
  999SOL     OW 2995   2.787   2.643   0.151  0.5906 -0.5983 -0.7705
  999SOL    HW1 2996   2.767   2.694   0.066 -1.5006 -0.3391  2.0849
  999SOL    HW2 2997   2.767   2.709   0.229 -1.3739  1.9468  1.5815
 1000SOL     OW 2998   1.342   0.158   2.917  0.6577 -0.1929  0.3584
 1000SOL    HW1 2999   1.338   0.191   3.012  2.2147  0.7288  2.3757
 1000SOL    HW2 3000   1.268   0.202   2.859  0.6303  0.3636  0.0570
   3.09099   3.09099   3.09099
