1000 SPC/Fw water molecules t= 261.00000 step= 261000
 3000
    1SOL     OW    1   2.771   2.518   0.980 -0.0374  0.4560  0.1818
    1SOL    HW1    2   2.772   2.577   1.065 -1.4039 -2.1602  0.8411
    1SOL    HW2    3   2.713   2.569   0.913  2.5744  0.9768  0.5674
    2SOL     OW    4   1.838   2.075   1.273  0.0874  0.2301  0.3180
    2SOL    HW1    5   1.770   2.071   1.348 -1.3526 -1.3318 -1.3593
    2SOL    HW2    6   1.935   2.097   1.307  1.7863  1.5357 -0.6136
    3SOL     OW    7   0.922   2.637   2.892 -0.0505  0.2267 -0.2185
    3SOL    HW1    8   0.879   2.573   2.826 -1.7353  0.0266 -3.8905
    3SOL    HW2    9   1.014   2.670   2.863 -0.2639  0.9640  1.8426
    4SOL     OW   10   2.008   2.098   1.646 -0.1870  0.7085 -0.1637
    4SOL    HW1   11   2.063   2.055   1.716 -4.9605 -0.7598 -2.6497
    4SOL    HW2   12   1.995   2.199   1.661 -2.5157  0.0397 -0.5802
    5SOL     OW   13   1.290   0.951   1.390  0.6773 -0.1189 -0.4780
    5SOL    HW1   14   1.290   1.053   1.386 -1.2949 -0.4248 -0.4084
    5SOL    HW2   15   1.361   0.910   1.455  1.5271 -2.2882  1.5639
    6SOL     OW   16   2.494   3.092   0.225 -1.2015  0.1794  0.1315
    6SOL    HW1   17   2.439   3.058   0.147  0.0881 -1.1098 -0.6540
    6SOL    HW2   18   2.567   0.056   0.190 -0.9742  1.8192  1.7573
    7SOL     OW   19   2.854   1.215   1.158  0.3765  0.1597 -0.1786
    7SOL    HW1   20   2.926   1.257   1.222  2.2596 -1.5989  1.5428
    7SOL    HW2   21   2.757   1.234   1.192  0.9707 -2.4764 -0.9442
    8SOL     OW   22   1.280   3.036   0.903  0.1276 -0.5282 -0.1608
    8SOL    HW1   23   1.337   3.053   0.987 -0.4753  0.7456 -0.6904
    8SOL    HW2   24   1.331   2.978   0.837 -0.9375  0.4997 -0.0011
    9SOL     OW   25   1.629   3.051   2.257 -0.3634  0.3885  0.0301
    9SOL    HW1   26   1.626   3.006   2.172  0.5137  0.5121  0.5872
    9SOL    HW2   27   1.705   0.022   2.263 -2.4484  0.9924  1.1754
   10SOL     OW   28   0.733   2.295   0.675 -0.0612 -0.5894 -0.4768
   10SOL    HW1   29   0.687   2.211   0.710 -0.4852  1.0010  1.1408
   10SOL    HW2   30   0.828   2.271   0.647  1.0951  0.8281 -0.0374
   11SOL     OW   31   1.409   1.314   0.291  0.0404  0.3354 -0.4826
   11SOL    HW1   32   1.413   1.406   0.254  0.2957 -1.7462 -0.3875
   11SOL    HW2   33   1.321   1.266   0.277 -0.5254 -1.5706  1.6779
   12SOL     OW   34   2.731   3.037   1.857 -0.2733 -0.0577  0.0256
   12SOL    HW1   35   2.667   3.080   1.925  0.3033  0.5454 -0.5607
   12SOL    HW2   36   2.709   2.939   1.838 -1.2386 -0.1029 -0.7737
   13SOL     OW   37   1.866   0.173   0.609  0.0335  0.0091 -0.5869
   13SOL    HW1   38   1.837   0.268   0.595 -2.1732 -1.4724  0.0036
   13SOL    HW2   39   1.942   0.163   0.672  0.5302 -0.6346  0.3780
   14SOL     OW   40   1.301   2.338   0.948 -0.3909  0.1779  0.1006
   14SOL    HW1   41   1.255   2.429   0.936 -0.2764 -1.6762  1.4743
   14SOL    HW2   42   1.399   2.354   0.948 -0.8266 -1.0592  1.7680
   15SOL     OW   43   2.757   1.473   1.461  0.3774 -0.2501 -0.2612
   15SOL    HW1   44   2.771   1.510   1.368 -0.8295  0.7214  2.7414
   15SOL    HW2   45   2.843   1.447   1.510  0.7215  2.9520  0.3665
   16SOL     OW   46   2.262   2.472   0.297  0.1813 -0.3483 -0.2009
   16SOL    HW1   47   2.175   2.472   0.350 -2.3874 -4.2801  3.0116
   16SOL    HW2   48   2.252   2.447   0.196  1.6286 -1.0437  0.5381
   17SOL     OW   49   0.858   3.022   1.385  0.3558 -0.1998  0.6652
   17SOL    HW1   50   0.860   0.026   1.370 -0.9679  1.2908  1.4790
   17SOL    HW2   51   0.763   2.988   1.392  2.8369  0.8468  1.7566
   18SOL     OW   52   1.429   0.873   2.865  0.0632 -0.0091 -0.3922
   18SOL    HW1   53   1.416   0.922   2.954 -2.3994 -1.2908  1.2959
   18SOL    HW2   54   1.507   0.811   2.879  2.0215 -1.2526 -0.8702
   19SOL     OW   55   1.891   1.889   3.009 -0.1806  0.1251 -0.2562
   19SOL    HW1   56   1.943   1.879   2.922 -1.8123 -0.5402 -0.1562
   19SOL    HW2   57   1.888   1.986   3.043 -0.4686  0.4272  1.2790
   20SOL     OW   58   2.159   1.924   1.856  0.1730  0.5065  0.1124
   20SOL    HW1   59   2.244   1.975   1.825  0.7829  0.7852 -1.4025
   20SOL    HW2   60   2.176   1.822   1.861  2.4758  0.4989  1.2250
   21SOL     OW   61   0.956   1.731   0.115 -0.7154 -0.2893  0.4096
   21SOL    HW1   62   0.965   1.643   0.064  0.9074 -1.4252 -1.1510
   21SOL    HW2   63   0.934   1.722   0.212  0.2422  2.9071  0.6482
   22SOL     OW   64   1.935   0.068   1.552 -0.4155  0.1171  0.5511
   22SOL    HW1   65   1.998   0.083   1.476  1.8390 -1.0463  0.9967
   22SOL    HW2   66   1.892   0.153   1.585  0.9746 -0.3896  1.8671
   23SOL     OW   67   2.732   0.745   1.894  0.1349  0.1787  0.3081
   23SOL    HW1   68   2.667   0.822   1.875  0.6583 -1.8002 -0.4776
   23SOL    HW2   69   2.725   0.707   1.987  1.3665  1.3987 -0.2628
   24SOL     OW   70   2.386   2.722   0.354 -0.3218 -0.7118 -0.2996
   24SOL    HW1   71   2.395   2.752   0.257  1.2530  1.8930  2.3475
   24SOL    HW2   72   2.345   2.631   0.358  1.1628  1.8032  0.8987
   25SOL     OW   73   1.498   2.974   2.476  0.3384 -0.3642 -0.0102
   25SOL    HW1   74   1.542   2.998   2.389 -0.7078 -2.9581 -1.0506
   25SOL    HW2   75   1.575   2.941   2.531  0.1474  0.8965 -4.1771
   26SOL     OW   76   1.841   2.705   0.075  1.2034  0.2750  0.1550
   26SOL    HW1   77   1.743   2.726   0.040 -2.6596  2.5246 -1.8756
   26SOL    HW2   78   1.844   2.638   0.154 -0.7403  1.3879 -1.0951
   27SOL     OW   79   2.926   1.956   3.064 -0.6599  0.3264  0.6564
   27SOL    HW1   80   2.864   2.026   0.004  1.1671 -2.3159  1.8706
   27SOL    HW2   81   2.954   1.986   2.968  2.0968 -0.0161 -3.4988
   28SOL     OW   82   0.033   1.236   1.832 -0.0635  0.0748  0.4375
   28SOL    HW1   83   3.038   1.227   1.792  4.5464  1.1062  0.3015
   28SOL    HW2   84   0.112   1.223   1.770  1.8753 -0.7998  0.0780
   29SOL     OW   85   2.461   2.433   1.222 -0.1994  0.0506  0.2513
   29SOL    HW1   86   2.471   2.474   1.314  0.5611 -1.2019 -3.0210
   29SOL    HW2   87   2.545   2.383   1.191 -0.6064 -0.2150  0.9579
   30SOL     OW   88   1.572   0.285   0.290  0.1204  0.3960 -0.2523
   30SOL    HW1   89   1.598   0.363   0.348 -1.3028 -1.4526 -1.7435
   30SOL    HW2   90   1.621   0.281   0.199 -0.0169  1.3278  0.9767
   31SOL     OW   91   2.691   2.738   1.806 -0.1566 -0.0023  0.5699
   31SOL    HW1   92   2.596   2.733   1.840 -0.9151 -0.9063  1.3333
   31SOL    HW2   93   2.697   2.684   1.717  2.1783 -0.7830 -1.1559
   32SOL     OW   94   0.852   1.875   1.033  0.0833 -0.9048  0.1520
   32SOL    HW1   95   0.875   1.832   0.942 -0.4280 -0.5440  0.7527
   32SOL    HW2   96   0.816   1.973   1.018  0.8593  4.4352 -1.1084
   33SOL     OW   97   0.617   2.907   2.743 -0.0031 -0.0191  0.5442
   33SOL    HW1   98   0.685   2.896   2.818  2.9204  2.2270  0.8096
   33SOL    HW2   99   0.548   2.831   2.757 -2.4046  2.4487  1.0664
   34SOL     OW  100   1.442   2.947   0.728 -0.3616  0.2442  0.0573
   34SOL    HW1  101   1.495   3.034   0.739  1.1299 -0.1382 -0.1049
   34SOL    HW2  102   1.500   2.867   0.727  0.9209 -1.6163  1.8604
   35SOL     OW  103   2.236   2.933   1.225  0.8492 -0.9310 -0.1145
   35SOL    HW1  104   2.173   2.879   1.158 -1.6673 -0.7588 -1.5911
   35SOL    HW2  105   2.188   3.015   1.265 -0.7155 -2.6005  0.3354
   36SOL     OW  106   1.761   2.740   2.154 -0.0582 -0.3834  0.0467
   36SOL    HW1  107   1.733   2.806   2.083 -2.1308 -2.0251  0.1901
   36SOL    HW2  108   1.685   2.717   2.218  1.1893  0.6207 -2.2378
   37SOL     OW  109   0.737   0.033   2.354  0.3379  0.1639 -0.0633
   37SOL    HW1  110   0.740   0.029   2.252 -0.4113 -1.5177 -1.6100
   37SOL    HW2  111   0.779   0.120   2.395  3.6241  0.2026 -0.5481
   38SOL     OW  112   0.264   2.508   2.704  0.3891 -0.0372  0.4566
   38SOL    HW1  113   0.341   2.576   2.733  3.0605  0.9799 -0.2589
   38SOL    HW2  114   0.248   2.499   2.602  0.5244 -3.6591 -3.3742
   39SOL     OW  115   2.233   1.186   1.791  0.5232 -0.2954 -0.0440
   39SOL    HW1  116   2.240   1.195   1.690 -1.6925  0.8068  2.4968
   39SOL    HW2  117   2.248   1.270   1.851  0.5034  0.0293  0.5300
   40SOL     OW  118   0.698   2.998   0.147  0.5731 -0.6211 -0.0893
   40SOL    HW1  119   0.731   2.998   0.244 -1.3098 -1.6611 -1.6096
   40SOL    HW2  120   0.725   3.089   0.108 -0.2401  2.2347 -0.2643
   41SOL     OW  121   2.125   1.060   1.044 -0.1003 -0.0774  0.0236
   41SOL    HW1  122   2.195   1.131   1.067  0.7737  1.1778 -1.0610
   41SOL    HW2  123   2.036   1.105   1.029 -0.3343  0.0750 -0.8797
   42SOL     OW  124   0.589   0.561   1.023  0.4757  0.5070  0.4578
   42SOL    HW1  125   0.513   0.627   0.995 -1.7351  1.4463  0.5456
   42SOL    HW2  126   0.659   0.607   1.079 -1.2805 -2.9526  1.2326
   43SOL     OW  127   2.135   1.534   2.572  0.1387 -0.0502 -0.3240
   43SOL    HW1  128   2.088   1.460   2.627  1.8464 -0.5327  2.7868
   43SOL    HW2  129   2.181   1.502   2.484  2.5775  0.4658 -3.8038
   44SOL     OW  130   3.053   2.901   1.582  0.1694 -0.1719  0.4494
   44SOL    HW1  131   0.037   2.923   1.527 -0.6027 -1.4307 -1.3536
   44SOL    HW2  132   3.028   2.972   1.647  0.9492 -1.0273 -1.0716
   45SOL     OW  133   0.386   2.736   1.227  0.3502  0.0160 -0.2293
   45SOL    HW1  134   0.372   2.836   1.249  0.7514  4.7783  0.0165
   45SOL    HW2  135   0.479   2.706   1.257 -1.0577 -1.8609  0.7167
   46SOL     OW  136   2.181   2.918   2.669 -0.5025  0.0531 -0.0351
   46SOL    HW1  137   2.131   2.834   2.646 -2.6436  2.4672 -0.3437
   46SOL    HW2  138   2.274   2.924   2.623 -2.1813  0.7187 -1.6601
   47SOL     OW  139   2.038   1.905   0.727 -0.2336 -0.2322  0.1240
   47SOL    HW1  140   2.033   1.818   0.776  0.2041  0.8305 -0.5693
   47SOL    HW2  141   1.986   1.891   0.640 -2.3724 -3.0318 -1.2962
   48SOL     OW  142   0.559   1.846   0.369 -0.0472  0.4479  0.6151
   48SOL    HW1  143   0.642   1.912   0.377  0.2692  1.7114  0.6167
   48SOL    HW2  144   0.539   1.828   0.271 -2.8225  1.5765 -1.0359
   49SOL     OW  145   2.722   0.507   2.588  0.4091 -0.1275  0.3801
   49SOL    HW1  146   2.645   0.567   2.556 -0.3296  0.9187 -2.1621
   49SOL    HW2  147   2.747   0.441   2.513 -0.5839 -0.2386 -2.0846
   50SOL     OW  148   2.066   0.776   0.430 -0.1935  0.0337  0.4964
   50SOL    HW1  149   2.152   0.765   0.377 -0.7137  1.2456 -0.3348
   50SOL    HW2  150   1.983   0.771   0.372  1.1420 -2.8872  1.3641
   51SOL     OW  151   2.242   0.937   0.795  0.1067  0.4287  0.5255
   51SOL    HW1  152   2.190   0.959   0.884 -1.1026 -0.4643 -1.2510
   51SOL    HW2  153   2.196   0.865   0.744  0.3522  3.4210  1.3504
   52SOL     OW  154   1.438   1.651   2.057 -0.1619 -0.6289 -0.6518
   52SOL    HW1  155   1.499   1.625   1.984  0.5605 -0.9795  2.0095
   52SOL    HW2  156   1.361   1.590   2.067  1.4238 -2.2540  1.5964
   53SOL     OW  157   0.610   1.800   2.083  0.4297  0.6590  0.1347
   53SOL    HW1  158   0.672   1.755   2.021 -0.5322  1.2265  2.4302
   53SOL    HW2  159   0.598   1.898   2.055 -0.0037  0.1987  1.2000
   54SOL     OW  160   2.219   0.394   1.289 -0.1953  0.5676  0.0536
   54SOL    HW1  161   2.262   0.320   1.234  2.6356  0.8046  1.2293
   54SOL    HW2  162   2.202   0.485   1.234  4.7637  2.3079 -1.2207
   55SOL     OW  163   2.338   2.023   0.966  0.1939  0.0220  0.0442
   55SOL    HW1  164   2.440   2.022   0.980  4.9403 -2.9350 -0.7510
   55SOL    HW2  165   2.316   1.986   0.873  0.3577  0.4609 -1.6820
   56SOL     OW  166   1.218   3.043   1.891  0.2319  0.2937 -0.3222
   56SOL    HW1  167   1.214   3.023   1.995  0.1381 -0.3573 -0.1090
   56SOL    HW2  168   1.247   0.043   1.884  0.4751 -1.8514 -0.2973
   57SOL     OW  169   1.431   1.641   0.194  0.1509 -0.0767 -0.6799
   57SOL    HW1  170   1.492   1.632   0.277 -1.0587  0.5073 -2.5735
   57SOL    HW2  171   1.345   1.704   0.205 -0.6294  3.2782 -0.6618
   58SOL     OW  172   0.004   1.036   2.500  0.6206 -0.0484  0.0275
   58SOL    HW1  173   0.070   1.000   2.567 -1.1646 -0.6469 -0.4025
   58SOL    HW2  174   0.038   1.015   2.407 -0.5858  0.5554  1.3078
   59SOL     OW  175   0.998   0.018   2.641  0.6211  0.2883 -0.2685
   59SOL    HW1  176   1.000   0.118   2.621 -0.6153  0.4893  2.5120
   59SOL    HW2  177   0.969   0.005   2.740 -1.9293  0.1678 -0.8684
   60SOL     OW  178   2.814   2.151   0.493 -0.1506  0.6348  0.5167
   60SOL    HW1  179   2.833   2.084   0.422  1.3096  0.1114 -0.9542
   60SOL    HW2  180   2.793   2.098   0.580  4.4442 -0.3305  1.6219
   61SOL     OW  181   1.183   2.055   0.313 -0.5371 -0.0399  0.0275
   61SOL    HW1  182   1.123   2.079   0.240 -0.1988 -1.2908  1.5088
   61SOL    HW2  183   1.179   2.125   0.386 -4.1152 -1.4400 -2.1732
   62SOL     OW  184   2.083   2.226   2.379 -0.0382  0.3957  0.1814
   62SOL    HW1  185   2.099   2.124   2.369  1.3593  0.6159  0.5747
   62SOL    HW2  186   1.999   2.252   2.334  1.3051 -1.1388 -1.4639
   63SOL     OW  187   2.126   2.156   3.060 -0.3797 -0.1396 -0.2230
   63SOL    HW1  188   2.167   2.070   3.073 -1.9571  1.9956  0.2052
   63SOL    HW2  189   2.147   2.173   2.962  1.6392  1.5105 -1.2771
   64SOL     OW  190   1.735   1.018   2.529  0.1806  0.1249 -0.2365
   64SOL    HW1  191   1.700   0.998   2.435  2.7706 -0.2384 -1.9351
   64SOL    HW2  192   1.663   1.014   2.602  0.4561 -1.7734 -0.0680
   65SOL     OW  193   1.191   2.240   2.756  0.2750 -0.3504  0.1775
   65SOL    HW1  194   1.189   2.185   2.670  4.4428 -2.4164  0.3841
   65SOL    HW2  195   1.277   2.223   2.810  1.1962 -0.1287 -0.6328
   66SOL     OW  196   0.156   1.650   2.019 -0.0454 -0.4108  0.0227
   66SOL    HW1  197   0.250   1.656   2.059 -1.3052  1.6052 -1.9334
   66SOL    HW2  198   0.124   1.554   2.019 -1.6446  1.6626 -2.4832
   67SOL     OW  199   2.824   2.700   2.844  0.1752  0.1571  0.0034
   67SOL    HW1  200   2.770   2.748   2.916  0.6382 -1.9804  1.3965
   67SOL    HW2  201   2.874   2.756   2.776 -0.3242 -0.5114  1.2427
   68SOL     OW  202   0.856   2.604   1.408 -0.7849  0.5464  0.4617
   68SOL    HW1  203   0.880   2.700   1.442  0.9855  1.1754 -2.3169
   68SOL    HW2  204   0.940   2.546   1.396  1.9061  0.3870 -0.6810
   69SOL     OW  205   0.629   2.605   0.588  0.3605  0.9134  0.7240
   69SOL    HW1  206   0.552   2.569   0.640  0.2731 -0.9442 -1.2473
   69SOL    HW2  207   0.712   2.547   0.584  2.1670 -2.5424 -0.0273
   70SOL     OW  208   2.574   0.865   2.995  0.2209 -0.0369 -0.4742
   70SOL    HW1  209   2.664   0.822   2.975  1.7350  0.8555  0.4650
   70SOL    HW2  210   2.495   0.816   2.946 -1.7129 -2.6096 -0.7046
   71SOL     OW  211   0.776   1.018   2.240 -0.4415 -0.1255 -0.3253
   71SOL    HW1  212   0.844   0.957   2.291  4.0005 -0.1311  0.7791
   71SOL    HW2  213   0.737   1.096   2.296  0.3013  0.5862 -0.3084
   72SOL     OW  214   0.075   1.975   0.468 -0.5220 -0.0311 -0.3596
   72SOL    HW1  215   0.051   1.877   0.454 -0.5798  0.8091 -0.5488
   72SOL    HW2  216   0.020   2.017   0.545 -2.1458  1.0993 -0.9400
   73SOL     OW  217   1.113   1.542   0.282 -0.7808 -0.0762  0.3067
   73SOL    HW1  218   1.152   1.507   0.200 -0.5891 -0.0586  3.2563
   73SOL    HW2  219   1.013   1.561   0.287  1.4277 -1.0745  0.2236
   74SOL     OW  220   2.470   2.818   0.122 -0.2424 -0.9989 -0.2178
   74SOL    HW1  221   2.563   2.791   0.095 -0.8771 -0.3430  0.5974
   74SOL    HW2  222   2.446   2.898   0.067  1.3395  0.1014 -0.4054
   75SOL     OW  223   2.231   1.659   1.863 -0.2800  0.1977  0.2315
   75SOL    HW1  224   2.321   1.626   1.893  1.4030 -0.9443  0.6550
   75SOL    HW2  225   2.163   1.583   1.846 -4.7541 -0.3585 -0.5997
   76SOL     OW  226   1.915   2.486   1.930 -0.9786  0.4879 -0.1332
   76SOL    HW1  227   1.940   2.487   2.027  0.3600  2.2150  0.9434
   76SOL    HW2  228   1.862   2.567   1.910  2.9116 -2.7968  1.6438
   77SOL     OW  229   2.464   0.239   1.758 -0.3979 -0.3458 -0.0399
   77SOL    HW1  230   2.551   0.266   1.808  0.9347 -1.2710  1.5796
   77SOL    HW2  231   2.439   0.305   1.679 -0.7917  0.7941 -0.5225
   78SOL     OW  232   1.681   0.762   2.874 -0.6690  0.6667 -0.0552
   78SOL    HW1  233   1.702   0.719   2.963 -1.3178  1.8805  2.9920
   78SOL    HW2  234   1.726   0.852   2.877 -0.3759 -1.8057 -0.4316
   79SOL     OW  235   2.486   1.573   1.899  0.0889  0.2392  0.5202
   79SOL    HW1  236   2.469   1.541   1.804 -0.7914 -1.3173  0.0687
   79SOL    HW2  237   2.576   1.533   1.930  0.1276  0.0526  2.0399
   80SOL     OW  238   1.829   1.212   1.252  0.4167 -0.2381  0.1989
   80SOL    HW1  239   1.851   1.203   1.152  1.2897  1.5661 -3.8226
   80SOL    HW2  240   1.906   1.260   1.303 -0.8028  1.0523  0.0684
   81SOL     OW  241   1.408   0.600   1.652 -0.2750 -0.1397  0.0188
   81SOL    HW1  242   1.460   0.685   1.646 -4.4993 -4.1518 -0.5991
   81SOL    HW2  243   1.468   0.522   1.631 -1.4061  1.3576  1.2315
   82SOL     OW  244   1.415   2.519   1.722  0.1730  0.1145 -0.2162
   82SOL    HW1  245   1.428   2.419   1.739  2.0785  0.6058 -0.6765
   82SOL    HW2  246   1.342   2.536   1.655 -0.6756 -1.7073  2.0325
   83SOL     OW  247   0.286   0.109   0.642  0.1779 -0.4515 -0.3204
   83SOL    HW1  248   0.285   0.005   0.643 -0.6855  0.4894 -0.0473
   83SOL    HW2  249   0.274   0.155   0.547  2.7632 -1.2576 -3.4161
   84SOL     OW  250   0.075   0.785   2.877 -0.2033  0.0554  0.3327
   84SOL    HW1  251   0.097   0.692   2.842 -0.5364  2.0014  0.1800
   84SOL    HW2  252   0.090   0.801   2.975 -1.1526  1.8410 -1.1294
   85SOL     OW  253   2.795   1.866   1.800 -0.0391 -0.5097 -0.0098
   85SOL    HW1  254   2.758   1.823   1.711 -3.3622  1.3152 -1.6982
   85SOL    HW2  255   2.865   1.941   1.791  0.7522 -0.8702 -1.7414
   86SOL     OW  256   2.909   2.130   1.774  0.0264 -0.3442  0.9600
   86SOL    HW1  257   2.933   2.198   1.708  1.8314 -0.4084  1.3062
   86SOL    HW2  258   2.881   2.165   1.867  2.1498 -1.3099  0.8449
   87SOL     OW  259   0.570   0.068   2.680  0.0738  1.1371  0.1948
   87SOL    HW1  260   0.575   3.064   2.670  1.2806  1.1523 -1.5642
   87SOL    HW2  261   0.594   0.101   2.774  0.2088 -0.3538  1.1558
   88SOL     OW  262   0.366   2.055   0.990 -0.8972  0.9566  0.2743
   88SOL    HW1  263   0.271   2.047   0.964  1.9565  0.2899  0.3612
   88SOL    HW2  264   0.393   1.979   1.055  1.8433 -0.4114  1.6008
   89SOL     OW  265   0.848   0.639   1.780  0.7694 -0.1294 -0.0005
   89SOL    HW1  266   0.890   0.663   1.690 -2.4491 -0.7229  0.9868
   89SOL    HW2  267   0.910   0.607   1.854 -0.1767 -1.7757 -0.1039
   90SOL     OW  268   2.375   1.659   1.457  0.3772  0.4975  0.1489
   90SOL    HW1  269   2.424   1.740   1.441 -1.3846 -0.9557  1.8046
   90SOL    HW2  270   2.278   1.674   1.431 -0.6770 -0.4659 -0.1044
   91SOL     OW  271   1.338   1.487   0.755 -0.2752 -0.6540  0.7037
   91SOL    HW1  272   1.312   1.531   0.665  0.6803 -0.2324  0.7708
   91SOL    HW2  273   1.320   1.386   0.745  0.8495  3.1194 -1.3518
   92SOL     OW  274   2.140   0.514   0.841 -0.6625  0.1575  0.2443
   92SOL    HW1  275   2.122   0.582   0.764 -0.8469  1.7888 -2.7031
   92SOL    HW2  276   2.141   0.564   0.932 -0.4609  3.1994  1.0804
   93SOL     OW  277   2.170   1.191   3.075 -0.0134 -0.6075 -0.0601
   93SOL    HW1  278   2.111   1.230   0.053  0.5662 -0.8336  1.0813
   93SOL    HW2  279   2.148   1.231   2.986  1.4518  0.7729 -0.4440
   94SOL     OW  280   2.549   2.146   2.361  0.0243 -0.2141 -0.5013
   94SOL    HW1  281   2.531   2.245   2.339  0.2217 -0.2107  1.9175
   94SOL    HW2  282   2.505   2.090   2.288 -0.0309 -0.4562 -0.7190
   95SOL     OW  283   1.942   0.322   0.912  0.5111  0.2325  0.0776
   95SOL    HW1  284   2.020   0.382   0.883 -0.0825 -1.3145 -0.8640
   95SOL    HW2  285   1.971   0.226   0.917 -3.7614  1.2702  0.3539
   96SOL     OW  286   2.950   0.009   1.716  0.6304 -0.0392  0.4675
   96SOL    HW1  287   2.886   3.093   1.794 -1.7428  3.0896 -0.1075
   96SOL    HW2  288   2.897   0.026   1.631  0.1890 -0.2178  0.8910
   97SOL     OW  289   2.326   0.215   1.123  0.0754  0.0103  0.1082
   97SOL    HW1  290   2.333   0.273   1.038  1.2599  0.3026 -1.7807
   97SOL    HW2  291   2.329   0.118   1.097 -0.5754  0.0944 -2.5520
   98SOL     OW  292   1.665   2.327   1.589 -0.2835  0.0385  0.4723
   98SOL    HW1  293   1.767   2.326   1.606 -0.7485  0.9375  0.8239
   98SOL    HW2  294   1.643   2.412   1.540 -1.1838 -0.6767 -0.9282
   99SOL     OW  295   2.608   2.335   1.616  0.2191 -0.2023 -0.4313
   99SOL    HW1  296   2.664   2.418   1.599  1.3759  1.1845 -0.2896
   99SOL    HW2  297   2.508   2.361   1.631 -3.0055  0.0970  0.8395
  100SOL     OW  298   0.411   0.776   2.814  0.0886  0.1389  0.8858
  100SOL    HW1  299   0.442   0.809   2.724 -1.5486 -0.1719 -0.9522
  100SOL    HW2  300   0.312   0.745   2.807 -2.3324 -1.8232  0.3828
  101SOL     OW  301   1.852   0.459   0.006  0.2147 -0.4025 -0.1803
  101SOL    HW1  302   1.898   0.544   3.070 -0.3433  0.2383  0.2509
  101SOL    HW2  303   1.918   0.399   0.055  1.2663 -5.2638  0.5600
  102SOL     OW  304   0.130   0.677   1.852  0.3204 -0.3130  0.5085
  102SOL    HW1  305   0.134   0.769   1.803  0.5771  1.4109 -1.7567
  102SOL    HW2  306   0.117   0.603   1.783 -0.1840 -1.1238 -2.0763
  103SOL     OW  307   2.734   1.181   2.294  0.4602  0.1013  0.1547
  103SOL    HW1  308   2.702   1.250   2.364 -0.5666  3.0821  1.9950
  103SOL    HW2  309   2.768   1.099   2.345 -0.6627 -0.6418 -0.1903
  104SOL     OW  310   0.626   0.320   2.530 -0.7038 -0.1469 -0.3070
  104SOL    HW1  311   0.605   0.232   2.578  1.2690  1.2365  0.4840
  104SOL    HW2  312   0.705   0.310   2.466  0.9128  0.4947 -0.5557
  105SOL     OW  313   2.114   1.729   1.443 -0.2074 -0.2337  0.1809
  105SOL    HW1  314   2.055   1.802   1.484  1.4677  0.6120  0.5822
  105SOL    HW2  315   2.058   1.685   1.365 -0.1185 -1.4255 -3.1850
  106SOL     OW  316   2.225   0.219   0.602 -0.2479  0.0030  0.3443
  106SOL    HW1  317   2.246   0.147   0.532 -3.3746 -1.6468  0.0338
  106SOL    HW2  318   2.186   0.172   0.683 -1.3377 -0.0083 -0.6483
  107SOL     OW  319   3.094   1.364   1.226  0.1839  0.5750 -0.0401
  107SOL    HW1  320   3.053   1.456   1.249  2.3050  0.0042 -1.0309
  107SOL    HW2  321   0.077   1.369   1.160  2.4086 -0.0617 -2.7403
  108SOL     OW  322   2.867   2.628   1.961  0.6236 -0.0591 -0.1902
  108SOL    HW1  323   2.904   2.545   1.921  2.3399  2.3675  2.0706
  108SOL    HW2  324   2.791   2.666   1.906 -1.8630  0.1708  0.8714
  109SOL     OW  325   2.084   0.092   0.880  0.1259  0.1398 -0.3929
  109SOL    HW1  326   2.163   0.065   0.946  0.6895 -1.0530  0.9201
  109SOL    HW2  327   2.074   0.020   0.810 -1.6502  0.1796  0.3629
  110SOL     OW  328   0.378   2.165   2.431  0.2629 -0.4330  0.0463
  110SOL    HW1  329   0.376   2.136   2.525  2.0954  0.8437  1.2339
  110SOL    HW2  330   0.367   2.085   2.372  1.6676  2.7471  2.1768
  111SOL     OW  331   1.507   2.365   2.038  0.3332 -0.0574 -0.1941
  111SOL    HW1  332   1.606   2.348   2.030 -2.0483 -4.7517 -0.6483
  111SOL    HW2  333   1.468   2.274   2.008 -0.1976 -3.1891  1.8407
  112SOL     OW  334   1.601   2.704   3.058 -0.4485  0.3483 -0.4367
  112SOL    HW1  335   1.554   2.611   3.060  0.7616 -0.9905  0.3491
  112SOL    HW2  336   1.585   2.756   2.972  1.5157 -2.0012 -0.3555
  113SOL     OW  337   1.982   2.539   1.433 -0.3611 -0.8463  0.3008
  113SOL    HW1  338   1.918   2.615   1.459 -0.9809  0.6589 -1.0112
  113SOL    HW2  339   1.985   2.520   1.333  0.8678 -0.4740  2.6289
  114SOL     OW  340   3.046   1.043   0.618 -0.3711 -0.4345  0.1512
  114SOL    HW1  341   2.966   1.105   0.634  0.5522 -0.7507 -3.4336
  114SOL    HW2  342   0.028   1.104   0.619  2.1500 -2.1845  1.8326
  115SOL     OW  343   0.732   0.963   2.989 -0.0087  0.4486 -0.0428
  115SOL    HW1  344   0.705   1.010   2.903  1.4274 -2.4862  1.8580
  115SOL    HW2  345   0.656   0.912   3.036 -1.9621  0.4591 -2.3219
  116SOL     OW  346   2.556   1.877   1.927 -0.0271  0.7038 -0.3887
  116SOL    HW1  347   2.542   1.778   1.941  0.1014  1.6998  1.0577
  116SOL    HW2  348   2.645   1.890   1.879 -2.5678 -1.5417  1.6579
  117SOL     OW  349   2.635   2.642   0.779 -0.2808 -0.0310 -0.5763
  117SOL    HW1  350   2.616   2.641   0.672 -0.2369 -1.7708 -1.7272
  117SOL    HW2  351   2.662   2.737   0.806 -3.0448  2.5923 -0.7873
  118SOL     OW  352   1.174   2.219   1.600 -0.0762 -0.4340  0.1412
  118SOL    HW1  353   1.276   2.203   1.615  2.2670 -1.9356 -0.6375
  118SOL    HW2  354   1.155   2.311   1.567  1.3393 -1.0854  1.6628
  119SOL     OW  355   0.199   1.888   2.948  0.8027 -1.1240 -0.3141
  119SOL    HW1  356   0.177   1.819   2.875  2.4275 -1.4474  1.5166
  119SOL    HW2  357   0.187   1.844   3.040 -1.1353 -2.0764  2.2468
  120SOL     OW  358   0.979   0.858   3.062  0.1456  0.6326 -0.1957
  120SOL    HW1  359   0.888   0.883   3.025  0.2600 -2.1671 -0.4691
  120SOL    HW2  360   1.039   0.819   2.989 -2.4350  0.4242 -0.5797
  121SOL     OW  361   1.664   2.672   0.950 -0.5162  0.2357  0.1504
  121SOL    HW1  362   1.625   2.582   0.966 -1.6912  0.8456 -3.4549
  121SOL    HW2  363   1.652   2.697   0.854  0.0209  0.9312  1.0545
  122SOL     OW  364   2.210   2.486   1.645  0.5556  0.1560  0.0220
  122SOL    HW1  365   2.203   2.515   1.741 -2.4592 -0.1084  0.1084
  122SOL    HW2  366   2.125   2.501   1.591 -1.0001 -0.4887 -1.7301
  123SOL     OW  367   0.274   2.986   0.967 -0.0906 -0.0378 -0.3252
  123SOL    HW1  368   0.370   2.954   0.945 -0.1984  0.2633 -1.0542
  123SOL    HW2  369   0.199   2.936   0.928 -1.9651 -0.4759 -0.2697
  124SOL     OW  370   2.236   1.207   2.584  0.4136 -0.6501  0.0741
  124SOL    HW1  371   2.246   1.112   2.617 -1.6152 -3.1543 -0.7432
  124SOL    HW2  372   2.150   1.251   2.622  0.3591 -0.1525  1.6628
  125SOL     OW  373   0.666   0.938   0.375  0.0022 -1.0758 -0.0639
  125SOL    HW1  374   0.620   0.987   0.450  0.2547 -1.9288  0.4696
  125SOL    HW2  375   0.712   1.007   0.320 -2.4661  1.3887  1.0869
  126SOL     OW  376   2.977   1.195   0.935  0.3808  0.3967 -0.4519
  126SOL    HW1  377   2.900   1.162   0.872 -1.0010 -1.6516  0.0392
  126SOL    HW2  378   2.942   1.202   1.036 -0.0962 -1.0692  5.2347
  127SOL     OW  379   0.207   1.839   1.838 -0.3445 -0.2399 -0.2278
  127SOL    HW1  380   0.179   1.767   1.906 -1.4130 -2.1270 -0.6381
  127SOL    HW2  381   0.287   1.804   1.780  3.4410 -1.6228  1.5413
  128SOL     OW  382   1.119   1.165   2.922  0.4237  0.4316 -0.2218
  128SOL    HW1  383   1.179   1.088   2.956  1.3146 -2.2756  2.0278
  128SOL    HW2  384   1.181   1.248   2.912  2.1314  0.8745 -1.1175
  129SOL     OW  385   2.768   1.102   0.776 -0.2115  0.2684 -0.0785
  129SOL    HW1  386   2.676   1.107   0.825 -2.9387 -0.1479  0.4197
  129SOL    HW2  387   2.767   1.019   0.716 -0.3521  0.7463  0.9264
  130SOL     OW  388   2.268   0.984   1.377 -0.1006  0.3443 -0.3388
  130SOL    HW1  389   2.338   0.914   1.406  0.8924 -1.4589 -2.0780
  130SOL    HW2  390   2.305   1.038   1.297  1.3515 -2.3459 -0.0866
  131SOL     OW  391   3.006   3.024   2.925  0.1216  0.2052 -0.7595
  131SOL    HW1  392   2.991   3.001   2.829 -0.8169  1.3200  1.7735
  131SOL    HW2  393   3.024   0.028   2.936 -1.2246  0.4842 -2.6975
  132SOL     OW  394   3.015   1.673   1.370  0.3658  0.4523 -0.8304
  132SOL    HW1  395   3.059   1.708   1.286  1.5550 -0.9689  1.4674
  132SOL    HW2  396   3.073   1.593   1.405  0.7506  0.1454 -0.6857
  133SOL     OW  397   1.259   0.104   1.326 -0.3017 -0.1850 -0.0903
  133SOL    HW1  398   1.209   0.060   1.404 -0.9917 -1.9740 -0.2388
  133SOL    HW2  399   1.358   0.100   1.353  0.5341 -0.8201  1.7442
  134SOL     OW  400   0.018   1.287   0.096 -0.5972  0.6280  0.5925
  134SOL    HW1  401   3.015   1.281   0.116 -1.6908  1.8711  3.0352
  134SOL    HW2  402   0.034   1.359   0.020  0.3623 -0.2876  1.0869
  135SOL     OW  403   2.275   1.213   1.520 -0.6098 -0.4137 -0.2159
  135SOL    HW1  404   2.280   1.133   1.459 -1.8732  2.4894  1.4164
  135SOL    HW2  405   2.359   1.269   1.509 -0.8795 -1.1115  0.5575
  136SOL     OW  406   0.113   0.893   0.327 -0.5775 -0.4316 -0.0585
  136SOL    HW1  407   0.017   0.910   0.352  0.9204 -0.6369 -0.5525
  136SOL    HW2  408   0.155   0.982   0.300  0.6397  0.0727 -1.8876
  137SOL     OW  409   2.741   0.969   1.127 -0.0396 -0.4434 -0.3038
  137SOL    HW1  410   2.804   0.916   1.068  0.9441  0.2919  0.7388
  137SOL    HW2  411   2.758   1.070   1.120 -0.1465 -0.2676  0.0077
  138SOL     OW  412   1.506   1.063   1.149  0.7375  0.3066 -0.0232
  138SOL    HW1  413   1.472   0.983   1.098 -0.5381 -0.3887  0.1132
  138SOL    HW2  414   1.562   1.033   1.228  0.4317  0.1872  1.9289
  139SOL     OW  415   1.805   0.018   0.097 -0.0231 -0.1227  0.4387
  139SOL    HW1  416   1.875   3.042   0.082 -1.2855 -2.7977  0.4042
  139SOL    HW2  417   1.815   0.041   0.195 -1.2642 -1.9136  0.9693
  140SOL     OW  418   1.636   1.833   1.552  0.4622  0.0699  0.3557
  140SOL    HW1  419   1.685   1.757   1.504  1.7312  1.0160 -0.3965
  140SOL    HW2  420   1.559   1.797   1.608 -1.2333  0.3724  1.9006
  141SOL     OW  421   2.003   2.394   0.427 -0.7688  0.0375 -0.5969
  141SOL    HW1  422   2.036   2.388   0.522 -0.3167  2.4357 -1.4960
  141SOL    HW2  423   1.981   2.302   0.386  0.3014 -1.4574 -1.4715
  142SOL     OW  424   0.531   0.812   3.086 -0.0923 -0.4813  0.1151
  142SOL    HW1  425   0.559   0.749   0.065  1.8992  1.3953  1.2235
  142SOL    HW2  426   0.493   0.771   2.999 -1.1877  0.1108  0.2618
  143SOL     OW  427   0.375   2.173   0.057 -0.2544 -0.0211 -0.0938
  143SOL    HW1  428   0.299   2.217   0.112  0.3635  1.2668 -0.4054
  143SOL    HW2  429   0.346   2.187   3.057 -0.5607  1.1666  3.7009
  144SOL     OW  430   1.433   3.090   1.101  0.7841 -0.4151 -0.1442
  144SOL    HW1  431   1.470   0.070   1.162 -0.5017 -0.6052 -1.0127
  144SOL    HW2  432   1.495   3.012   1.107 -0.1118  4.3745 -0.9885
  145SOL     OW  433   2.396   1.319   0.570 -0.9493  0.6144 -0.4605
  145SOL    HW1  434   2.480   1.341   0.516  2.6780  0.9965 -0.3083
  145SOL    HW2  435   2.381   1.216   0.583 -1.9359  0.3579  0.4312
  146SOL     OW  436   2.895   1.959   0.298 -0.8568 -0.4939 -0.1012
  146SOL    HW1  437   2.854   2.006   0.217  1.3133 -1.2300  0.4246
  146SOL    HW2  438   2.987   1.923   0.272 -1.6265  0.6069 -1.5488
  147SOL     OW  439   2.298   2.889   1.678  0.3065  0.7000 -0.1246
  147SOL    HW1  440   2.201   2.875   1.650 -3.4800 -0.9265  1.4266
  147SOL    HW2  441   2.342   2.966   1.625 -0.1742 -1.3540  0.6351
  148SOL     OW  442   1.353   2.792   2.094 -0.2212  0.0926 -0.1257
  148SOL    HW1  443   1.422   2.747   2.036  2.6065 -0.8206 -0.1622
  148SOL    HW2  444   1.271   2.731   2.084  3.2215 -0.3213 -0.5414
  149SOL     OW  445   1.792   0.461   2.305  0.2360 -0.1216 -0.2753
  149SOL    HW1  446   1.799   0.502   2.214 -0.3943  0.7066 -0.3064
  149SOL    HW2  447   1.723   0.515   2.362 -1.8105 -0.5307 -0.6189
  150SOL     OW  448   0.377   2.941   0.643  0.4806  0.1118 -0.3989
  150SOL    HW1  449   0.420   2.898   0.729 -0.3793  1.1223  3.0889
  150SOL    HW2  450   0.361   2.874   0.567 -0.1532  0.4186 -0.5658
  151SOL     OW  451   3.085   1.492   3.036 -0.5015  0.0083 -0.1554
  151SOL    HW1  452   3.042   1.572   3.080  0.8534  0.0791 -1.3737
  151SOL    HW2  453   3.060   1.492   2.937 -4.0235 -1.5631  1.4549
  152SOL     OW  454   2.976   0.190   0.694  0.0443  0.2923 -0.1061
  152SOL    HW1  455   3.033   0.157   0.772  0.6872  0.4331 -0.6047
  152SOL    HW2  456   2.880   0.205   0.723 -1.9955  2.3056 -1.8661
  153SOL     OW  457   2.588   3.080   1.171 -0.0045  0.0373  0.0615
  153SOL    HW1  458   2.563   3.066   1.266  2.3861 -0.9637 -1.0372
  153SOL    HW2  459   2.621   2.989   1.128  0.2483 -2.1686  0.2413
  154SOL     OW  460   1.046   0.585   1.963 -0.0838  0.3837 -0.4557
  154SOL    HW1  461   1.139   0.545   1.951 -0.6999 -0.6396 -0.1871
  154SOL    HW2  462   1.009   0.552   2.053  1.7785 -0.4433 -1.5932
  155SOL     OW  463   0.018   0.939   1.233 -0.6419  0.0120 -0.1812
  155SOL    HW1  464   0.064   0.930   1.140  0.7531 -0.4174 -1.0787
  155SOL    HW2  465   0.033   1.038   1.261 -1.0985  3.8524 -1.7623
  156SOL     OW  466   0.022   1.904   0.158 -0.6398  0.0205 -0.3753
  156SOL    HW1  467   0.066   1.989   0.192 -0.9785 -0.7113 -0.9802
  156SOL    HW2  468   3.071   1.929   0.074  0.0362 -2.6722  2.8031
  157SOL     OW  469   0.871   0.606   0.332  0.1290 -0.1374  0.1531
  157SOL    HW1  470   0.849   0.649   0.425  3.1125  1.8507  2.0481
  157SOL    HW2  471   0.856   0.504   0.343  2.6675 -2.3493  1.3375
  158SOL     OW  472   2.632   0.160   2.795  0.1182  0.2404 -0.1001
  158SOL    HW1  473   2.648   0.258   2.808  1.9251 -2.3004  1.6667
  158SOL    HW2  474   2.661   0.137   2.700 -1.0157 -0.4575  0.8912
  159SOL     OW  475   0.783   0.155   0.083 -0.0526 -0.0665 -0.1279
  159SOL    HW1  476   0.881   0.145   0.064 -0.0419  0.6533 -2.8391
  159SOL    HW2  477   0.759   0.248   0.122 -2.2467  0.8210 -2.1525
  160SOL     OW  478   1.251   1.854   2.942 -0.0923  0.3515 -0.1815
  160SOL    HW1  479   1.187   1.928   2.961  1.5591 -0.6402  0.7269
  160SOL    HW2  480   1.331   1.861   3.007  1.1337 -0.1060 -1.4674
  161SOL     OW  481   2.921   1.735   2.707 -0.4195  0.7031 -0.9869
  161SOL    HW1  482   2.826   1.747   2.688  1.4626  1.7236  1.2550
  161SOL    HW2  483   2.952   1.818   2.755 -1.0888  2.0448  0.2688
  162SOL     OW  484   0.493   2.449   1.511  0.0722  0.0122 -0.0709
  162SOL    HW1  485   0.515   2.427   1.608 -1.2227 -0.2256  4.1465
  162SOL    HW2  486   0.472   2.543   1.502 -1.4497 -3.0661 -2.3301
  163SOL     OW  487   2.011   0.235   2.816 -0.1513 -0.6868 -0.0840
  163SOL    HW1  488   1.949   0.293   2.762 -3.0970  0.0708  1.1278
  163SOL    HW2  489   2.068   0.189   2.743  0.4885  0.5089 -3.2136
  164SOL     OW  490   2.821   1.316   0.604  0.1852 -0.2065  0.3063
  164SOL    HW1  491   2.753   1.338   0.525 -3.7373  2.9902 -1.6564
  164SOL    HW2  492   2.792   1.243   0.666 -1.1076  0.0411  1.1984
  165SOL     OW  493   0.352   0.034   1.775  0.4484  0.1101  0.0324
  165SOL    HW1  494   0.283   3.073   1.812  0.8272  4.2158 -0.7517
  165SOL    HW2  495   0.389   0.100   1.843  2.0103  0.3081  0.9430
  166SOL     OW  496   2.064   0.723   0.695 -0.3716  0.0751  0.2540
  166SOL    HW1  497   2.073   0.724   0.595 -0.5682 -2.0653  1.9606
  166SOL    HW2  498   1.969   0.741   0.724 -0.7213  3.6846  0.4639
  167SOL     OW  499   0.381   0.521   0.259  0.4573 -0.2618  0.1943
  167SOL    HW1  500   0.476   0.563   0.241 -1.0285  0.1091  1.3772
  167SOL    HW2  501   0.354   0.539   0.358  0.7942  1.1918  3.3796
  168SOL     OW  502   1.936   2.957   1.896 -0.1160 -0.3030 -0.3142
  168SOL    HW1  503   1.934   3.054   1.902  0.9005 -2.6218 -1.0420
  168SOL    HW2  504   1.990   2.922   1.815 -1.5743 -1.7381 -2.0598
  169SOL     OW  505   0.947   1.186   0.689 -0.4185 -0.6761  0.1886
  169SOL    HW1  506   0.918   1.089   0.691  0.0369 -0.0274  1.7026
  169SOL    HW2  507   1.026   1.199   0.752 -0.6987 -2.0777 -1.7260
  170SOL     OW  508   0.046   0.375   1.331 -0.2804  0.3647  0.1545
  170SOL    HW1  509   0.122   0.319   1.368 -0.8279  2.1885  0.5410
  170SOL    HW2  510   3.077   0.405   1.401  1.3768 -0.8360 -1.9845
  171SOL     OW  511   0.861   2.816   2.090 -0.0288  0.1480  0.1163
  171SOL    HW1  512   0.811   2.759   2.158 -1.3714 -1.8417 -1.5573
  171SOL    HW2  513   0.952   2.776   2.068  1.0219  2.1220 -0.1237
  172SOL     OW  514   0.634   2.331   1.311 -0.5265  0.4619 -0.1216
  172SOL    HW1  515   0.721   2.384   1.295  2.3954  1.8905 -0.4882
  172SOL    HW2  516   0.576   2.375   1.382  0.8750  0.8986 -1.2680
  173SOL     OW  517   1.463   1.038   2.667  0.1229 -0.2541  0.3894
  173SOL    HW1  518   1.431   0.999   2.579 -2.0149 -0.2495  1.4848
  173SOL    HW2  519   1.454   0.965   2.742 -1.8517 -1.7406 -0.7774
  174SOL     OW  520   1.814   0.106   2.929  0.2463 -0.1197 -0.7385
  174SOL    HW1  521   1.814   0.096   3.032 -2.7575 -0.1289  1.4255
  174SOL    HW2  522   1.891   0.154   2.897 -0.3408 -0.7866  1.0998
  175SOL     OW  523   1.820   2.526   0.302 -0.0510 -0.1257  0.5542
  175SOL    HW1  524   1.733   2.490   0.332  2.1644  0.4076 -3.8781
  175SOL    HW2  525   1.896   2.482   0.358  0.8792 -0.6048  1.9862
  176SOL     OW  526   1.580   0.137   2.811  0.2241 -0.0434 -0.0341
  176SOL    HW1  527   1.514   0.193   2.867 -0.8425  0.2690 -0.7774
  176SOL    HW2  528   1.666   0.119   2.862 -0.1039  0.6162  2.2521
  177SOL     OW  529   1.286   1.573   0.505 -0.2711  0.7858  0.2407
  177SOL    HW1  530   1.254   1.665   0.539 -0.3504  2.9107  1.4258
  177SOL    HW2  531   1.233   1.550   0.420 -0.5771 -3.0832 -1.3173
  178SOL     OW  532   2.981   1.980   2.778 -0.1340 -0.1939  0.3798
  178SOL    HW1  533   2.926   2.064   2.783 -0.9684  1.1322 -0.0460
  178SOL    HW2  534   3.031   1.975   2.690 -2.1358  2.2229  2.4694
  179SOL     OW  535   0.460   2.665   2.799 -0.5579  0.2053  0.4841
  179SOL    HW1  536   0.521   2.612   2.734  1.2054  0.7781  0.5660
  179SOL    HW2  537   0.467   2.629   2.894 -0.1775 -0.0080  0.0935
  180SOL     OW  538   1.468   1.665   0.896 -0.1705 -0.1099  0.2179
  180SOL    HW1  539   1.473   1.749   0.845 -1.8514  0.8036  0.3955
  180SOL    HW2  540   1.409   1.599   0.839  0.7635 -1.2042 -1.1843
  181SOL     OW  541   2.158   0.811   2.126  0.1236 -0.4381  0.2980
  181SOL    HW1  542   2.092   0.826   2.204 -0.6365 -0.1497 -2.0868
  181SOL    HW2  543   2.209   0.898   2.105  0.0647  0.9692 -1.0543
  182SOL     OW  544   2.965   3.071   2.593  0.6954 -0.3820 -0.4914
  182SOL    HW1  545   2.890   0.041   2.567 -1.1573 -1.4331 -1.2611
  182SOL    HW2  546   3.040   0.028   2.632 -0.3512  1.8099  1.3825
  183SOL     OW  547   1.426   0.745   2.323  0.0342  0.4996  0.2288
  183SOL    HW1  548   1.464   0.674   2.389 -1.0177  0.3460  1.3093
  183SOL    HW2  549   1.348   0.711   2.271 -1.6225  1.5775 -1.8019
  184SOL     OW  550   0.599   0.587   1.882 -0.1763 -0.5227 -0.6472
  184SOL    HW1  551   0.551   0.677   1.889 -3.1150  0.7688  0.0312
  184SOL    HW2  552   0.695   0.605   1.844  0.6359 -0.8195 -4.1697
  185SOL     OW  553   1.907   0.987   0.540  0.4319 -0.3675 -0.3487
  185SOL    HW1  554   1.919   1.089   0.528  1.2682  1.0069 -1.1878
  185SOL    HW2  555   1.963   0.936   0.473  2.5790 -1.8785 -1.1409
  186SOL     OW  556   0.162   2.156   2.948 -0.3491 -0.0751  0.2452
  186SOL    HW1  557   0.173   2.058   2.931  1.2053  5.7435 -2.0752
  186SOL    HW2  558   0.091   2.183   3.018  3.4451  0.2560 -1.4875
  187SOL     OW  559   2.525   1.452   0.208 -0.6259  0.3653 -0.1449
  187SOL    HW1  560   2.447   1.515   0.242 -2.7852  0.5234 -2.0435
  187SOL    HW2  561   2.488   1.379   0.143  0.5318 -3.5137 -2.1205
  188SOL     OW  562   0.076   1.590   0.833  0.4973 -0.2178 -0.0239
  188SOL    HW1  563   0.155   1.646   0.797  1.0114 -1.9230 -1.4839
  188SOL    HW2  564   3.093   1.609   0.773  1.2575  0.5618 -0.0374
  189SOL     OW  565   2.381   0.366   0.441 -0.0925 -0.5684  0.6673
  189SOL    HW1  566   2.325   0.308   0.504 -1.5746  0.0236  0.8911
  189SOL    HW2  567   2.475   0.324   0.432  5.5066  1.9714 -3.5831
  190SOL     OW  568   1.002   1.709   1.894 -0.1051  0.4432  0.4767
  190SOL    HW1  569   0.902   1.686   1.896 -3.2520 -0.4938  1.1930
  190SOL    HW2  570   1.057   1.639   1.846  0.0565  1.7817 -1.2883
  191SOL     OW  571   2.733   0.391   1.683 -0.7229 -0.7987 -0.4028
  191SOL    HW1  572   2.744   0.359   1.780 -0.1591 -1.2084  0.4460
  191SOL    HW2  573   2.824   0.387   1.639 -1.1407  0.5248 -0.4501
  192SOL     OW  574   1.624   1.338   1.389 -0.0505 -0.4980  0.3908
  192SOL    HW1  575   1.695   1.271   1.356  2.3257  1.7395 -0.7877
  192SOL    HW2  576   1.629   1.337   1.490 -1.2743  1.3378 -3.3988
  193SOL     OW  577   0.880   0.931   0.707 -0.6031 -0.3360 -0.1016
  193SOL    HW1  578   0.803   0.891   0.659  1.2338 -0.5071  0.9792
  193SOL    HW2  579   0.901   0.877   0.793  0.3529  0.4404  0.9094
  194SOL     OW  580   1.060   2.420   1.350  0.7166 -0.7270  0.7681
  194SOL    HW1  581   1.145   2.464   1.381  0.8318 -1.4847 -2.0907
  194SOL    HW2  582   1.069   2.350   1.278  2.0164 -0.9960 -0.2764
  195SOL     OW  583   2.254   0.323   2.935  0.8585 -0.0863  0.8745
  195SOL    HW1  584   2.246   0.272   3.021  0.0883  1.4786 -1.2681
  195SOL    HW2  585   2.165   0.319   2.884 -0.2828  1.0906  1.1502
  196SOL     OW  586   1.040   2.474   1.845 -0.2533  0.0701 -0.3017
  196SOL    HW1  587   1.063   2.426   1.933  0.4496  1.4576 -0.2974
  196SOL    HW2  588   0.972   2.419   1.789 -1.1531 -0.4950 -2.8417
  197SOL     OW  589   0.759   2.789   0.768  0.1291 -0.0136 -0.5280
  197SOL    HW1  590   0.739   2.740   0.679 -2.0268 -3.9402 -3.5628
  197SOL    HW2  591   0.838   2.850   0.762  1.1322  3.7437 -0.9085
  198SOL     OW  592   0.751   0.762   0.574  0.3187  0.3477  0.0202
  198SOL    HW1  593   0.672   0.714   0.628 -2.8800  0.4653  3.7283
  198SOL    HW2  594   0.709   0.822   0.500 -0.5647 -0.3875  0.3209
  199SOL     OW  595   0.241   2.727   1.666 -0.1138 -0.2524 -0.2331
  199SOL    HW1  596   0.162   2.696   1.608  3.1030  1.4529 -1.4721
  199SOL    HW2  597   0.267   2.660   1.739  0.1606  1.4173  1.4350
  200SOL     OW  598   2.327   1.899   2.560 -0.0568  0.0089 -0.7087
  200SOL    HW1  599   2.398   1.851   2.512 -0.1423  1.0625  3.3980
  200SOL    HW2  600   2.293   1.836   2.634  0.6232 -0.9937 -2.0269
  201SOL     OW  601   2.795   2.158   1.316 -0.0357 -0.1087 -0.1354
  201SOL    HW1  602   2.796   2.056   1.302  1.2015 -0.0648 -0.1951
  201SOL    HW2  603   2.759   2.188   1.402  0.6673 -0.1300  0.4727
  202SOL     OW  604   2.792   0.070   0.422  0.3966 -0.4440  0.3724
  202SOL    HW1  605   2.862   0.138   0.458  0.6862  0.6026  4.3674
  202SOL    HW2  606   2.825   0.026   0.339  0.5585  0.6074  1.2535
  203SOL     OW  607   1.165   2.107   1.988 -0.8385 -0.5003 -0.7996
  203SOL    HW1  608   1.121   2.020   2.019  0.4376  1.7602  0.1224
  203SOL    HW2  609   1.266   2.100   1.985 -0.0361  0.2329  0.0035
  204SOL     OW  610   1.263   1.891   1.668 -0.4490 -0.4829  0.0430
  204SOL    HW1  611   1.285   1.984   1.696 -1.7397  0.7426 -2.7597
  204SOL    HW2  612   1.163   1.881   1.667  3.6588  1.3376  0.6923
  205SOL     OW  613   0.980   2.123   1.763 -0.2276  0.1499  0.2422
  205SOL    HW1  614   1.024   2.173   1.683  2.4869  0.4318 -1.0782
  205SOL    HW2  615   1.033   2.121   1.849  0.1395  0.4326  3.2555
  206SOL     OW  616   0.219   0.565   2.790  0.0621 -0.2443  0.4677
  206SOL    HW1  617   0.276   0.535   2.709  0.0658  0.1715  0.2560
  206SOL    HW2  618   0.141   0.502   2.796  0.6946 -0.3250  1.5710
  207SOL     OW  619   1.208   0.006   1.575  0.4120  0.0445  0.3312
  207SOL    HW1  620   1.112   0.044   1.576  1.4639 -1.5904  0.4318
  207SOL    HW2  621   1.227   3.058   1.664 -1.2014 -0.3658  0.4278
  208SOL     OW  622   0.699   2.552   1.981  0.5890  0.1282 -0.4691
  208SOL    HW1  623   0.695   2.603   2.070 -0.1759  3.1275  0.3431
  208SOL    HW2  624   0.779   2.586   1.927 -1.0639  0.5599  1.3796
  209SOL     OW  625   1.670   0.660   0.049  0.3952 -0.0780 -0.1485
  209SOL    HW1  626   1.728   0.580   0.040 -1.5416  0.3881 -1.8658
  209SOL    HW2  627   1.583   0.646   0.104  0.2047 -1.8118  2.0968
  210SOL     OW  628   0.042   0.562   0.806 -0.4441  0.1940 -0.4972
  210SOL    HW1  629   0.093   0.650   0.787 -0.3627 -1.8407 -1.1421
  210SOL    HW2  630   0.111   0.485   0.818 -2.4897  0.0952  0.2383
  211SOL     OW  631   0.815   0.696   1.188 -0.2143 -0.1236  0.2013
  211SOL    HW1  632   0.890   0.628   1.198 -1.2737  0.3309 -2.9151
  211SOL    HW2  633   0.763   0.697   1.276  1.4733 -0.0249  2.4030
  212SOL     OW  634   1.545   1.893   0.768  0.0693 -0.2564 -0.5991
  212SOL    HW1  635   1.465   1.954   0.751 -0.1122  1.2977 -0.6918
  212SOL    HW2  636   1.589   1.909   0.857  1.0513  2.0478  0.2834
  213SOL     OW  637   1.934   0.158   1.836  0.1452  0.1152 -0.3442
  213SOL    HW1  638   1.905   0.241   1.792  3.2582 -4.3230 -0.3952
  213SOL    HW2  639   2.036   0.145   1.834 -0.1198 -1.8639 -1.2196
  214SOL     OW  640   1.161   2.621   2.596 -0.5089 -0.0625  0.1606
  214SOL    HW1  641   1.179   2.632   2.696 -1.7839  0.7794  0.9861
  214SOL    HW2  642   1.210   2.693   2.541  1.6464 -3.1257 -1.6412
  215SOL     OW  643   2.745   1.600   1.196  0.0242  0.5303  0.3987
  215SOL    HW1  644   2.684   1.682   1.169  0.1889 -0.3010  1.4357
  215SOL    HW2  645   2.813   1.569   1.124  1.8476 -1.2985 -0.7757
  216SOL     OW  646   0.165   0.269   2.339 -0.1539 -0.0235 -0.0989
  216SOL    HW1  647   0.242   0.244   2.408  3.3313 -0.0819  0.6925
  216SOL    HW2  648   0.206   0.316   2.261 -1.3789  2.3890  1.8850
  217SOL     OW  649   2.919   0.414   0.311 -0.2897 -0.2573  0.6525
  217SOL    HW1  650   2.834   0.455   0.279  2.1493  0.1580 -0.8248
  217SOL    HW2  651   2.948   0.452   0.397 -0.9400 -1.0607 -1.9689
  218SOL     OW  652   1.887   1.886   1.929  0.1602  0.5065  0.3926
  218SOL    HW1  653   1.988   1.888   1.914 -0.6000  0.6287 -0.6334
  218SOL    HW2  654   1.855   1.809   1.983  0.1372  1.6460 -0.0148
  219SOL     OW  655   1.843   0.751   0.282 -0.5977  0.8045  0.4392
  219SOL    HW1  656   1.802   0.727   0.193  2.7339 -2.0944 -0.0190
  219SOL    HW2  657   1.769   0.769   0.339  3.1411  0.6535 -3.6020
  220SOL     OW  658   1.611   1.998   1.010 -0.2152  0.2906 -0.0820
  220SOL    HW1  659   1.571   2.066   1.076 -0.6698  0.2296 -0.2319
  220SOL    HW2  660   1.690   1.943   1.049  2.0076 -1.2807 -2.3933
  221SOL     OW  661   0.202   0.596   0.051 -0.3765 -0.2850 -0.6262
  221SOL    HW1  662   0.261   0.571   0.134 -0.2088  0.7414  3.3504
  221SOL    HW2  663   0.200   0.698   0.039 -0.4434 -1.2942  2.1747
  222SOL     OW  664   0.963   2.826   1.531  0.1413  0.8479 -0.1402
  222SOL    HW1  665   0.951   2.868   1.624  1.4643  0.4156  1.0870
  222SOL    HW2  666   0.942   2.896   1.461  2.2372 -2.5852  1.0184
  223SOL     OW  667   1.602   0.525   2.758 -0.3732 -0.3616  0.5109
  223SOL    HW1  668   1.560   0.479   2.839  2.4382  1.9473 -2.6831
  223SOL    HW2  669   1.638   0.620   2.787  1.6045  3.0954  1.2597
  224SOL     OW  670   2.779   0.545   1.377 -0.5625  0.0091  0.3277
  224SOL    HW1  671   2.787   0.465   1.432  1.2944  2.9550 -2.0793
  224SOL    HW2  672   2.798   0.516   1.278  0.0424 -0.8046  0.6622
  225SOL     OW  673   1.010   1.229   1.434 -0.5106  0.1922  1.0643
  225SOL    HW1  674   0.946   1.204   1.358  0.5296  2.4365 -0.0703
  225SOL    HW2  675   1.078   1.300   1.399  1.9789  1.3819 -0.2159
  226SOL     OW  676   1.019   0.081   0.468  0.0213  0.0620  0.3368
  226SOL    HW1  677   1.079   0.035   0.405 -3.4129 -0.3164  1.7228
  226SOL    HW2  678   1.066   0.089   0.557 -1.2199  0.7304 -1.2559
  227SOL     OW  679   0.834   1.644   1.228  1.1326 -0.3626 -0.4284
  227SOL    HW1  680   0.792   1.718   1.171 -1.1723 -1.5831 -1.1835
  227SOL    HW2  681   0.917   1.680   1.270 -1.6321 -0.3547 -2.1887
  228SOL     OW  682   0.608   2.963   1.424 -0.0387 -0.3064 -0.3422
  228SOL    HW1  683   0.613   2.866   1.392  0.1039  0.9456 -1.6074
  228SOL    HW2  684   0.533   2.961   1.495  2.1291 -2.5171  0.4516
  229SOL     OW  685   2.550   0.931   0.462  0.2716  0.1361 -0.0140
  229SOL    HW1  686   2.528   0.830   0.452  0.9243  0.7889 -1.1017
  229SOL    HW2  687   2.589   0.982   0.385  1.2091  2.3166 -1.1859
  230SOL     OW  688   0.517   1.179   1.774 -0.2139 -0.0185  0.5879
  230SOL    HW1  689   0.487   1.082   1.765 -0.1977  2.0449 -0.3977
  230SOL    HW2  690   0.532   1.209   1.869 -1.6596 -0.1768  1.4892
  231SOL     OW  691   1.326   2.497   1.388  0.3858 -0.6004  0.1063
  231SOL    HW1  692   1.426   2.480   1.376  2.4127  0.0316  3.1560
  231SOL    HW2  693   1.300   2.583   1.341  0.9875  2.3371 -0.1299
  232SOL     OW  694   2.493   2.327   0.245 -0.0865 -0.2674 -0.7032
  232SOL    HW1  695   2.415   2.395   0.246 -0.1682  0.7764  0.4965
  232SOL    HW2  696   2.496   2.267   0.158  1.1227 -1.1366  0.2915
  233SOL     OW  697   0.938   2.502   0.049  0.6962  0.2325  0.7360
  233SOL    HW1  698   0.884   2.563   0.112  0.7868 -2.1512 -1.7038
  233SOL    HW2  699   0.960   2.552   3.061 -1.2086 -3.3159  0.8054
  234SOL     OW  700   1.144   0.589   2.316 -0.0830  0.1503 -0.4190
  234SOL    HW1  701   1.225   0.571   2.256 -2.7015 -0.3520  0.6008
  234SOL    HW2  702   1.068   0.534   2.284  0.2070  0.0113  4.2784
  235SOL     OW  703   0.130   2.166   0.268  0.0752  0.1466  0.2095
  235SOL    HW1  704   0.140   2.254   0.325 -0.5008  1.8266  0.8951
  235SOL    HW2  705   0.132   2.087   0.330 -2.5180 -0.9509 -0.8031
  236SOL     OW  706   1.903   2.873   2.366  0.4510 -0.3754 -0.2930
  236SOL    HW1  707   1.846   2.850   2.285  0.8468  1.4132 -0.2818
  236SOL    HW2  708   1.962   2.791   2.394  0.5345 -0.2530  0.8086
  237SOL     OW  709   1.855   1.178   1.551  0.8942  0.3045  0.4812
  237SOL    HW1  710   1.914   1.217   1.476  1.2427 -0.8650  0.0461
  237SOL    HW2  711   1.912   1.136   1.626  0.3427  0.1018 -0.0795
  238SOL     OW  712   1.991   0.046   2.371  0.0153  0.5160  0.3489
  238SOL    HW1  713   1.920   0.108   2.329  0.2295 -1.2320 -1.8942
  238SOL    HW2  714   1.962   3.048   2.359  0.7516  1.3030  0.0651
  239SOL     OW  715   0.647   2.019   1.589 -0.0420  0.4409 -0.0295
  239SOL    HW1  716   0.584   2.080   1.540  4.7965 -3.5420  2.2756
  239SOL    HW2  717   0.628   1.923   1.578 -2.2049  3.7680 -0.2180
  240SOL     OW  718   0.057   2.530   0.979 -0.0485  0.2898  0.1705
  240SOL    HW1  719   0.105   2.606   0.930  1.3170 -1.0778  0.0623
  240SOL    HW2  720   3.078   2.487   0.926  0.0668  0.2671 -0.2666
  241SOL     OW  721   1.601   2.121   0.098  0.1830 -0.5571 -0.2627
  241SOL    HW1  722   1.621   2.124   0.197 -1.7291  1.4247  1.3850
  241SOL    HW2  723   1.686   2.130   0.041  1.1418 -0.6730  0.4337
  242SOL     OW  724   2.143   1.099   0.318  0.1360  0.4002 -0.3001
  242SOL    HW1  725   2.208   1.021   0.310  0.5452  1.5532  0.5702
  242SOL    HW2  726   2.055   1.079   0.272  0.0165  0.4401 -0.0594
  243SOL     OW  727   0.904   0.177   1.856  0.2808 -0.1310 -0.4909
  243SOL    HW1  728   0.937   0.204   1.761 -0.7782 -1.3007  0.1788
  243SOL    HW2  729   0.978   0.195   1.925  4.0348  0.7845 -1.5232
  244SOL     OW  730   1.778   2.965   2.837  0.4500  0.1184  0.5357
  244SOL    HW1  731   1.681   2.931   2.844 -1.4708  0.6091 -1.0464
  244SOL    HW2  732   1.776   3.064   2.862  0.5546 -0.7529  1.1520
  245SOL     OW  733   1.528   3.034   0.152  0.1783 -0.3475 -0.5981
  245SOL    HW1  734   1.616   3.080   0.120 -0.1870 -1.5238  0.4328
  245SOL    HW2  735   1.525   3.045   0.252 -0.8357 -1.8610 -0.4258
  246SOL     OW  736   1.142   1.181   2.202  0.2949  0.2331  0.5055
  246SOL    HW1  737   1.225   1.193   2.257 -0.3574  1.8785 -0.1089
  246SOL    HW2  738   1.064   1.223   2.253  0.4814 -3.3830 -0.5156
  247SOL     OW  739   2.928   0.814   2.216  0.3250  0.7052 -0.0640
  247SOL    HW1  740   3.013   0.757   2.217  0.6312 -1.9376 -1.3714
  247SOL    HW2  741   2.856   0.755   2.174 -0.6139  0.4286  0.6738
  248SOL     OW  742   0.492   0.855   1.924  0.3791 -0.2612 -0.3105
  248SOL    HW1  743   0.543   0.934   1.968 -1.2012  3.7194  1.9692
  248SOL    HW2  744   0.443   0.878   1.839  1.5436 -3.3136  0.0093
  249SOL     OW  745   2.240   0.542   0.296  0.4764 -0.6589  0.1024
  249SOL    HW1  746   2.141   0.532   0.317  0.8775 -1.4612 -1.2636
  249SOL    HW2  747   2.290   0.473   0.355 -0.3366  4.1697  0.5392
  250SOL     OW  748   3.022   0.446   0.595 -0.5586  1.0045  0.2981
  250SOL    HW1  749   3.071   0.500   0.665 -1.1779 -2.0695  0.6369
  250SOL    HW2  750   2.993   0.356   0.636 -2.2573 -0.1852 -2.1210
  251SOL     OW  751   0.994   0.820   2.321  0.0581 -0.6835 -0.1199
  251SOL    HW1  752   1.040   0.728   2.333 -0.0981 -0.0433 -0.6575
  251SOL    HW2  753   1.030   0.860   2.233  2.7500 -2.6826 -0.7724
  252SOL     OW  754   1.440   1.687   1.681 -0.5384 -0.1821  0.1638
  252SOL    HW1  755   1.361   1.755   1.695  0.7620  0.4403 -0.6730
  252SOL    HW2  756   1.406   1.595   1.640 -2.2952 -3.0132 -1.0550
  253SOL     OW  757   1.520   2.657   1.930  0.3336 -0.6827  0.2075
  253SOL    HW1  758   1.471   2.626   1.844  0.9602 -2.6746 -0.0677
  253SOL    HW2  759   1.501   2.590   2.001  0.3630  0.4272 -1.6358
  254SOL     OW  760   0.762   2.154   2.305 -0.4953  0.5713 -0.2395
  254SOL    HW1  761   0.852   2.109   2.340 -1.6155 -1.8003 -0.7285
  254SOL    HW2  762   0.767   2.182   2.209  2.5363 -0.3964  1.8543
  255SOL     OW  763   1.313   0.474   0.556 -0.2166 -0.7549 -0.3015
  255SOL    HW1  764   1.276   0.510   0.642  2.3324  1.3066  0.5552
  255SOL    HW2  765   1.244   0.487   0.477 -2.8382 -0.3762 -2.0270
  256SOL     OW  766   1.775   2.335   1.215 -0.0391  0.5414  0.5063
  256SOL    HW1  767   1.866   2.375   1.199  3.5871  0.1797  0.7808
  256SOL    HW2  768   1.777   2.232   1.204 -1.8379 -0.4631  1.3509
  257SOL     OW  769   0.309   2.090   2.699  0.0932 -0.9623  0.1081
  257SOL    HW1  770   0.236   2.164   2.713 -1.5333  2.6982 -0.2115
  257SOL    HW2  771   0.279   2.003   2.736  2.6252  2.9511  1.2181
  258SOL     OW  772   0.551   0.503   2.358 -0.2728 -0.1492 -0.0498
  258SOL    HW1  773   0.562   0.586   2.419 -2.0456 -0.3777  0.3599
  258SOL    HW2  774   0.578   0.422   2.420 -0.5088  1.1218  1.6947
  259SOL     OW  775   1.362   0.979   2.429  0.6762  0.5345  0.1514
  259SOL    HW1  776   1.269   0.985   2.465 -1.2593 -0.1742 -1.2765
  259SOL    HW2  777   1.378   0.882   2.402 -1.3805  0.3164 -0.8435
  260SOL     OW  778   1.616   0.751   0.732  0.4303  0.2229  0.2679
  260SOL    HW1  779   1.524   0.794   0.729 -0.7951 -0.1566  0.0560
  260SOL    HW2  780   1.613   0.651   0.753  1.4690 -0.0822 -0.7077
  261SOL     OW  781   0.994   0.431   3.072  0.2114 -0.4015 -0.3123
  261SOL    HW1  782   0.998   0.334   3.070 -2.7797  2.5723  1.7518
  261SOL    HW2  783   0.939   0.468   0.057  0.7802  2.5533 -0.6291
  262SOL     OW  784   2.483   3.053   2.885  0.4074 -0.2420 -0.4265
  262SOL    HW1  785   2.555   0.027   2.862  1.3439  1.7246  2.1618
  262SOL    HW2  786   2.429   3.021   2.807 -2.4310  4.0050  1.8860
  263SOL     OW  787   0.655   1.922   0.062  0.2847 -0.4183  0.1494
  263SOL    HW1  788   0.710   1.874   3.086  2.0536  0.0304 -0.8213
  263SOL    HW2  789   0.649   2.022   0.032 -0.3068  0.3854 -1.3709
  264SOL     OW  790   0.428   1.439   1.630  0.4329  0.4426 -0.3320
  264SOL    HW1  791   0.476   1.377   1.694 -0.1792 -1.0988  2.7912
  264SOL    HW2  792   0.409   1.534   1.670  0.5331  2.2239  0.6060
  265SOL     OW  793   0.551   1.229   0.277 -0.6282  0.0573  0.2994
  265SOL    HW1  794   0.507   1.151   0.225  0.0400  0.7507 -2.3544
  265SOL    HW2  795   0.654   1.219   0.287  1.7783 -3.1380  0.3923
  266SOL     OW  796   1.968   1.601   0.334 -0.5024  0.0612 -0.9884
  266SOL    HW1  797   1.969   1.684   0.396 -1.7993  2.3366  0.0632
  266SOL    HW2  798   2.019   1.529   0.383 -0.7835 -0.8299 -0.0299
  267SOL     OW  799   2.795   0.161   3.038  0.0378  0.2121  0.2980
  267SOL    HW1  800   2.891   0.180   2.998  0.4179  1.0082  1.0429
  267SOL    HW2  801   2.733   0.133   2.964  0.6899  0.2938 -1.4504
  268SOL     OW  802   0.617   0.213   2.949  0.5716  0.2044  0.0724
  268SOL    HW1  803   0.671   0.143   2.999  1.8854  4.0394  2.3705
  268SOL    HW2  804   0.624   0.302   3.000 -0.2714  1.3138 -0.5072
  269SOL     OW  805   1.806   0.361   2.655 -0.1402  0.1839 -0.0022
  269SOL    HW1  806   1.753   0.314   2.585  0.5838 -1.1760  1.2620
  269SOL    HW2  807   1.748   0.430   2.711 -1.4964  0.5508  2.5976
  270SOL     OW  808   1.115   0.945   2.528 -0.6398 -0.3306  0.0242
  270SOL    HW1  809   1.059   0.908   2.454 -0.2432  1.8960  1.9841
  270SOL    HW2  810   1.057   1.004   2.591 -0.0155  0.3328 -0.3549
  271SOL     OW  811   2.550   1.020   0.133  0.2937  0.1495 -0.0789
  271SOL    HW1  812   2.500   1.109   0.109 -3.0552 -0.5321  0.0987
  271SOL    HW2  813   2.555   0.962   0.051  0.6577 -1.5229  0.7570
  272SOL     OW  814   2.629   2.014   2.899 -0.5035 -0.6187  0.1133
  272SOL    HW1  815   2.706   2.052   2.846 -4.1521 -0.3215 -2.3977
  272SOL    HW2  816   2.567   2.093   2.911  1.0256 -4.3188  0.8814
  273SOL     OW  817   2.435   0.535   2.910  0.9656  0.4892  0.0632
  273SOL    HW1  818   2.366   0.460   2.909  1.3563 -0.2153  1.5094
  273SOL    HW2  819   2.530   0.493   2.889  3.3492 -1.0949  3.0879
  274SOL     OW  820   0.165   2.942   1.454  0.0695  0.1107  0.1518
  274SOL    HW1  821   0.205   2.967   1.360  0.3693  0.6339 -2.1434
  274SOL    HW2  822   0.228   2.877   1.495  0.3607 -1.4684 -2.2769
  275SOL     OW  823   2.066   1.588   0.745 -0.5032  0.3384  0.2623
  275SOL    HW1  824   2.016   1.500   0.753  0.8069 -2.2749 -4.1684
  275SOL    HW2  825   2.102   1.595   0.651  3.1859 -0.0800 -0.7268
  276SOL     OW  826   0.316   1.444   2.676  0.0426 -0.1390 -0.1677
  276SOL    HW1  827   0.411   1.451   2.645 -1.2406 -0.4218  3.6449
  276SOL    HW2  828   0.255   1.500   2.614 -1.6788 -0.8792 -1.4235
  277SOL     OW  829   1.777   2.702   1.837 -0.1687 -0.4104 -0.6054
  277SOL    HW1  830   1.829   2.784   1.868 -1.1293  1.7284  0.9954
  277SOL    HW2  831   1.680   2.704   1.875 -1.2215  0.6846  1.7657
  278SOL     OW  832   1.565   0.379   1.594 -0.5510  0.1724 -0.0380
  278SOL    HW1  833   1.519   0.290   1.582 -0.4585 -1.2862 -1.1254
  278SOL    HW2  834   1.644   0.390   1.531 -0.8529  0.0513 -0.5203
  279SOL     OW  835   1.937   1.256   0.106  0.0509 -0.8192  0.6940
  279SOL    HW1  836   1.928   1.162   0.134 -1.7505  1.5217  2.0205
  279SOL    HW2  837   1.869   1.314   0.155  0.3310  1.3013  0.3627
  280SOL     OW  838   0.633   1.392   0.960  0.0492  0.1752 -0.3267
  280SOL    HW1  839   0.636   1.398   0.859  0.4257  0.4204  2.1243
  280SOL    HW2  840   0.572   1.460   0.993  2.8057 -1.2900 -2.0518
  281SOL     OW  841   0.065   0.172   2.604 -0.4528  0.3726 -0.3004
  281SOL    HW1  842   0.078   0.167   2.504 -0.2466  1.3254  0.0057
  281SOL    HW2  843   0.151   0.155   2.651 -1.0971 -1.1737 -0.5317
  282SOL     OW  844   0.456   0.882   1.408 -0.3831  0.1534  0.3016
  282SOL    HW1  845   0.479   0.980   1.437 -0.4718 -1.0702  0.5774
  282SOL    HW2  846   0.356   0.885   1.384 -5.2588  0.2077  0.2056
  283SOL     OW  847   1.760   2.321   2.839  0.2678  0.0651 -0.0961
  283SOL    HW1  848   1.787   2.405   2.788  1.7834 -0.2315  0.5225
  283SOL    HW2  849   1.707   2.257   2.782  1.2162 -0.6107  0.8971
  284SOL     OW  850   1.962   1.253   0.477  0.7503  0.0489  0.3109
  284SOL    HW1  851   1.909   1.290   0.396 -1.4223 -0.3468 -1.2182
  284SOL    HW2  852   2.046   1.210   0.441 -0.6796  0.5163  4.9356
  285SOL     OW  853   3.053   0.183   2.963 -0.0946  0.2035  0.3489
  285SOL    HW1  854   3.091   0.224   3.047  0.2303  1.5726 -0.9760
  285SOL    HW2  855   3.071   0.240   2.879  0.3281 -2.5718  3.2138
  286SOL     OW  856   1.666   3.045   1.558 -0.2612 -0.3125 -0.3288
  286SOL    HW1  857   1.660   2.974   1.488  0.9652  2.9039  0.9728
  286SOL    HW2  858   1.761   3.081   1.553  0.8397 -1.8385  0.1429
  287SOL     OW  859   0.937   1.147   1.148 -0.0293 -0.1431 -0.3334
  287SOL    HW1  860   0.853   1.112   1.199 -0.0509 -2.3327  0.6458
  287SOL    HW2  861   0.929   1.246   1.127 -1.8531 -0.7737 -1.5829
  288SOL     OW  862   1.317   2.557   0.231  0.0999 -0.0941 -0.0124
  288SOL    HW1  863   1.389   2.631   0.249  1.2102  2.3583  1.5419
  288SOL    HW2  864   1.303   2.508   0.320  1.4202  1.5787  2.2412
  289SOL     OW  865   3.009   1.492   2.776  0.3293 -0.3867  0.5567
  289SOL    HW1  866   2.976   1.581   2.731 -1.0818  3.3572 -0.8787
  289SOL    HW2  867   3.015   1.418   2.705  0.0740 -0.3154  1.6801
  290SOL     OW  868   0.909   2.551   0.507  0.4366 -0.0408  0.2882
  290SOL    HW1  869   0.951   2.623   0.449  0.6111 -0.3835  0.5766
  290SOL    HW2  870   0.980   2.498   0.558  0.8885 -3.3195  1.2848
  291SOL     OW  871   2.141   2.549   2.883  0.1227 -0.4599  0.0506
  291SOL    HW1  872   2.164   2.475   2.819 -2.7620 -1.4674  3.4253
  291SOL    HW2  873   2.050   2.589   2.868 -0.8360  1.2197 -3.1559
  292SOL     OW  874   0.851   1.246   1.896  0.0714 -0.2651  0.1746
  292SOL    HW1  875   0.932   1.248   1.961  2.7811  0.8568  2.8149
  292SOL    HW2  876   0.871   1.222   1.798  0.1998 -1.2646 -1.3218
  293SOL     OW  877   2.436   2.761   1.278 -0.4233 -0.1475 -0.7767
  293SOL    HW1  878   2.356   2.819   1.253 -0.5832  1.8236  0.3012
  293SOL    HW2  879   2.499   2.765   1.199 -1.6650 -0.2803 -1.4441
  294SOL     OW  880   2.994   0.632   2.642 -0.2361  0.1339  0.0732
  294SOL    HW1  881   2.902   0.603   2.627  1.8431  0.0403 -0.1558
  294SOL    HW2  882   3.007   0.731   2.620  2.2836  2.9346  0.6489
  295SOL     OW  883   1.247   1.817   0.222 -0.3291 -0.1663 -0.4167
  295SOL    HW1  884   1.163   1.767   0.190 -3.0281  0.0163  1.1801
  295SOL    HW2  885   1.226   1.910   0.256 -0.2494 -1.7584 -0.9309
  296SOL     OW  886   2.025   1.920   2.778  0.1338 -0.3279  0.0343
  296SOL    HW1  887   2.045   2.018   2.753  0.7642  0.9877  0.6023
  296SOL    HW2  888   2.110   1.866   2.771  0.6744  2.9255 -1.8268
  297SOL     OW  889   2.443   0.496   0.087  0.7640 -0.1620  0.0034
  297SOL    HW1  890   2.436   0.516   3.083 -0.8800  1.5611 -1.6057
  297SOL    HW2  891   2.355   0.517   0.131 -0.5066  0.0002 -1.3148
  298SOL     OW  892   0.867   2.032   2.738  0.5486  0.4681 -0.2345
  298SOL    HW1  893   0.857   2.135   2.753 -3.6836 -0.0104 -0.3588
  298SOL    HW2  894   0.779   1.990   2.711 -1.6071  1.7201  0.1162
  299SOL     OW  895   1.255   2.818   2.448 -0.9992 -0.0124 -0.4392
  299SOL    HW1  896   1.341   2.875   2.457  1.6352 -2.2674  2.1881
  299SOL    HW2  897   1.184   2.884   2.418  1.4668  1.7435 -0.3222
  300SOL     OW  898   2.610   0.266   0.108 -0.1007  0.2770  0.3320
  300SOL    HW1  899   2.553   0.349   0.084  0.8048  2.6433 -0.6793
  300SOL    HW2  900   2.686   0.253   0.048 -3.9025  0.2001  1.0364
  301SOL     OW  901   1.067   0.977   1.523 -0.1264  0.0958  0.3621
  301SOL    HW1  902   1.149   0.945   1.475 -0.0331 -0.4545 -0.6736
  301SOL    HW2  903   1.037   1.065   1.478 -1.5932 -1.0299 -2.3124
  302SOL     OW  904   3.079   2.246   0.039  0.4290  0.0549  0.2317
  302SOL    HW1  905   0.020   2.244   0.129 -2.8006 -1.9188 -1.4108
  302SOL    HW2  906   2.982   2.280   0.048 -0.7886 -3.6698 -2.3680
  303SOL     OW  907   2.963   2.801   2.610  0.7610  0.4868  0.4659
  303SOL    HW1  908   2.955   2.903   2.589 -1.9205  0.2035  1.4968
  303SOL    HW2  909   3.061   2.785   2.628  1.2429  1.0309 -0.8268
  304SOL     OW  910   2.691   0.686   2.152  0.2961  0.5913  0.3294
  304SOL    HW1  911   2.611   0.746   2.169  1.1162 -1.6239 -1.5370
  304SOL    HW2  912   2.667   0.584   2.158 -3.0971 -1.4019  0.2576
  305SOL     OW  913   0.489   2.533   2.376  0.3649  0.5668 -0.4326
  305SOL    HW1  914   0.562   2.581   2.324 -2.2340  0.4492  1.6109
  305SOL    HW2  915   0.532   2.456   2.431 -0.1640 -1.9401  0.3839
  306SOL     OW  916   2.555   0.960   1.865  0.7405  0.2420  0.0397
  306SOL    HW1  917   2.547   1.058   1.833 -0.3216  0.1784  0.2362
  306SOL    HW2  918   2.496   0.906   1.801 -1.1070 -0.0599  1.2460
  307SOL     OW  919   1.669   0.639   1.319  0.2903  0.2062  0.2407
  307SOL    HW1  920   1.749   0.699   1.296 -0.3103  1.7879  1.5446
  307SOL    HW2  921   1.581   0.658   1.271 -0.0314  1.4438  0.5527
  308SOL     OW  922   2.521   1.791   1.145  0.0307 -0.3964  0.0717
  308SOL    HW1  923   2.422   1.807   1.165 -0.0047  0.4142  0.7542
  308SOL    HW2  924   2.528   1.736   1.059 -1.5168  0.6280  1.8425
  309SOL     OW  925   2.088   1.533   1.628  0.4239 -0.3146 -0.3823
  309SOL    HW1  926   2.083   1.613   1.569  0.1847 -0.7912 -1.9548
  309SOL    HW2  927   2.187   1.508   1.640 -0.1526 -2.1073  0.8234
  310SOL     OW  928   2.646   1.779   2.709  0.0665  0.4468  0.7134
  310SOL    HW1  929   2.599   1.844   2.769 -3.2923  1.0268  0.2020
  310SOL    HW2  930   2.630   1.685   2.734 -0.2033  2.4067 -0.2206
  311SOL     OW  931   2.405   2.131   2.658 -0.0493  0.0859 -0.2957
  311SOL    HW1  932   2.386   2.035   2.625  0.5978 -0.2627  0.7615
  311SOL    HW2  933   2.434   2.190   2.580 -1.2949 -0.0761 -0.8033
  312SOL     OW  934   2.086   2.130   1.381 -0.1159 -0.0684  0.6385
  312SOL    HW1  935   2.061   2.122   1.484 -0.6884 -0.5078  0.4005
  312SOL    HW2  936   2.183   2.142   1.364  2.4627 -0.1883 -0.6983
  313SOL     OW  937   2.288   2.596   1.077  0.0991 -0.2391  0.0811
  313SOL    HW1  938   2.314   2.591   0.978 -1.2504  0.9060 -1.1750
  313SOL    HW2  939   2.359   2.571   1.144 -0.7721  1.1101 -0.6491
  314SOL     OW  940   0.878   1.971   0.679  0.1947  0.8429  0.3928
  314SOL    HW1  941   0.904   1.903   0.754 -3.1357 -0.6420  2.5889
  314SOL    HW2  942   0.782   1.946   0.647 -2.6737  0.3340 -0.7803
  315SOL     OW  943   0.650   2.540   2.652  0.1096 -0.5586  0.2292
  315SOL    HW1  944   0.626   2.466   2.588  1.0861 -0.4483  0.7732
  315SOL    HW2  945   0.742   2.583   2.628  0.2387  1.1313  1.5568
  316SOL     OW  946   0.058   0.673   0.499  0.1887 -0.2447 -0.4765
  316SOL    HW1  947   0.072   0.747   0.437 -1.2657 -1.3648 -0.1042
  316SOL    HW2  948   3.077   0.693   0.560  3.9775 -1.5821 -1.3940
  317SOL     OW  949   1.197   0.573   0.766 -0.0306  0.5828  0.9431
  317SOL    HW1  950   1.212   0.519   0.847 -0.5641  0.6493  1.8636
  317SOL    HW2  951   1.093   0.581   0.749 -2.3466  0.2443 -0.7688
  318SOL     OW  952   3.002   2.508   0.580  0.1336 -0.1033 -0.0056
  318SOL    HW1  953   2.956   2.597   0.553  1.5452  0.9616  0.7893
  318SOL    HW2  954   2.959   2.459   0.662 -1.8837 -0.5113  2.3874
  319SOL     OW  955   0.307   1.628   2.419 -0.2283 -0.2845  0.3099
  319SOL    HW1  956   0.388   1.664   2.470 -3.4565 -1.4689  0.3814
  319SOL    HW2  957   0.225   1.685   2.458 -2.9139  1.7197  1.6443
  320SOL     OW  958   0.660   2.699   2.251  0.3824  0.2050  0.1135
  320SOL    HW1  959   0.580   2.746   2.204  0.0554 -2.2840 -0.5333
  320SOL    HW2  960   0.683   2.738   2.340  0.7615 -1.1948 -0.8209
  321SOL     OW  961   1.166   2.781   0.132  0.0702  0.4525  0.0971
  321SOL    HW1  962   1.226   2.697   0.133 -0.1115  1.4551 -1.5682
  321SOL    HW2  963   1.094   2.779   0.202  2.1041  1.2940 -0.3924
  322SOL     OW  964   2.488   1.229   2.119 -0.0997 -0.3892  0.6198
  322SOL    HW1  965   2.583   1.255   2.151  0.5977 -0.9498  2.0745
  322SOL    HW2  966   2.432   1.222   2.203  3.2430  0.0016 -0.8846
  323SOL     OW  967   2.480   0.680   0.449 -0.1116 -0.1630 -0.1892
  323SOL    HW1  968   2.415   0.655   0.374  1.4106 -1.0811 -0.3415
  323SOL    HW2  969   2.515   0.604   0.503  1.2759  0.2950 -0.7218
  324SOL     OW  970   0.455   2.884   0.016 -0.3554  0.1220  0.2962
  324SOL    HW1  971   0.534   2.926   0.072  1.9010  0.2842  1.5978
  324SOL    HW2  972   0.434   2.782   0.026 -3.2404  0.1023 -2.0455
  325SOL     OW  973   1.611   0.161   2.529 -0.7936  0.8424  0.0547
  325SOL    HW1  974   1.603   0.161   2.630  0.9250  1.2189  0.3306
  325SOL    HW2  975   1.541   0.108   2.484  1.0330  0.4318 -3.4116
  326SOL     OW  976   2.463   2.550   1.450  0.4993  0.4795  0.4939
  326SOL    HW1  977   2.396   2.547   1.527  2.9010  2.0001 -2.0957
  326SOL    HW2  978   2.457   2.636   1.396  0.0955 -0.9362 -1.2749
  327SOL     OW  979   1.476   0.311   2.962 -0.0221 -0.1627  0.5674
  327SOL    HW1  980   1.397   0.363   2.998 -0.3537 -1.1287  0.5021
  327SOL    HW2  981   1.543   0.301   3.036 -0.5903 -1.5214 -0.7128
  328SOL     OW  982   2.584   1.381   2.455  0.0435 -0.0193 -0.0319
  328SOL    HW1  983   2.523   1.458   2.478  0.0717  3.1375  1.1453
  328SOL    HW2  984   2.676   1.420   2.474 -0.9338 -1.8923  0.4922
  329SOL     OW  985   1.523   3.029   1.786  0.0088 -0.2466 -0.3689
  329SOL    HW1  986   1.602   3.048   1.721  1.8432 -0.1199 -0.6680
  329SOL    HW2  987   1.470   2.945   1.757 -2.0116 -0.8863 -1.8690
  330SOL     OW  988   2.505   1.326   1.428  0.8380  0.4357 -0.7942
  330SOL    HW1  989   2.516   1.301   1.330  1.2776 -1.0568 -0.2371
  330SOL    HW2  990   2.590   1.376   1.456 -0.7234  0.6301  3.9512
  331SOL     OW  991   0.491   1.337   1.365  0.8301 -0.0745  0.0660
  331SOL    HW1  992   0.461   1.391   1.285  0.5537 -2.5379  1.0649
  331SOL    HW2  993   0.477   1.389   1.452 -0.8051 -2.1842 -1.9375
  332SOL     OW  994   0.878   0.203   1.347 -0.0617 -0.0729  0.6724
  332SOL    HW1  995   0.919   0.217   1.255  1.0092  0.7461  1.3614
  332SOL    HW2  996   0.786   0.238   1.351  2.5251 -0.4633  1.7170
  333SOL     OW  997   2.245   2.528   1.920  0.0141  0.1543 -0.2200
  333SOL    HW1  998   2.269   2.459   1.989  1.8318 -0.5050  1.3904
  333SOL    HW2  999   2.203   2.607   1.972  0.5693  0.6038  0.3245
  334SOL     OW 1000   1.178   1.449   1.344 -0.2498 -0.2547 -0.2274
  334SOL    HW1 1001   1.128   1.533   1.368  0.7574  0.6536 -0.5309
  334SOL    HW2 1002   1.225   1.464   1.256 -1.7229  0.9316 -1.2301
  335SOL     OW 1003   0.791   2.865   2.977  0.0697 -0.2885  0.4483
  335SOL    HW1 1004   0.737   2.886   3.061 -0.7132 -1.0900 -0.1898
  335SOL    HW2 1005   0.824   2.768   2.973  0.3568  0.5029  0.0042
  336SOL     OW 1006   3.036   2.826   2.043  0.3319 -0.0732  0.5622
  336SOL    HW1 1007   2.979   2.863   2.118  2.0472  0.9521 -0.4343
  336SOL    HW2 1008   2.977   2.767   1.989  0.6829 -1.0274 -1.0767
  337SOL     OW 1009   2.621   1.822   0.618 -0.2101  0.9561 -0.1943
  337SOL    HW1 1010   2.544   1.762   0.646 -0.2439  1.2741 -1.1373
  337SOL    HW2 1011   2.667   1.773   0.545 -1.5021  2.0646 -3.0527
  338SOL     OW 1012   1.080   2.029   1.180  0.1596 -0.1332 -0.3710
  338SOL    HW1 1013   1.178   1.994   1.186  1.1920  0.2714 -0.3715
  338SOL    HW2 1014   1.021   1.966   1.120 -1.4673  0.8654 -0.1047
  339SOL     OW 1015   2.854   0.956   2.435  0.4064  0.2802  0.3069
  339SOL    HW1 1016   2.857   0.896   2.350  1.1116 -4.7441 -1.3616
  339SOL    HW2 1017   2.947   0.988   2.462 -1.2931 -2.3812 -0.9023
  340SOL     OW 1018   1.627   2.886   1.118 -0.4283 -0.3600 -0.2000
  340SOL    HW1 1019   1.719   2.938   1.127  4.2423  0.6064 -0.4746
  340SOL    HW2 1020   1.629   2.806   1.055 -1.9340  1.3474 -1.9477
  341SOL     OW 1021   1.824   1.873   1.107  0.3651  0.1481 -0.3323
  341SOL    HW1 1022   1.912   1.846   1.067  1.0309 -2.1601  2.2811
  341SOL    HW2 1023   1.838   1.959   1.161  1.0510 -1.5264 -2.1861
  342SOL     OW 1024   0.226   1.360   1.049 -0.4879 -0.6590  0.0016
  342SOL    HW1 1025   0.271   1.278   1.079  1.0336  1.9865 -3.3977
  342SOL    HW2 1026   0.205   1.350   0.949 -1.9629  4.0239  2.1569
  343SOL     OW 1027   2.383   0.387   1.515  0.2154 -0.2208  0.2380
  343SOL    HW1 1028   2.423   0.469   1.558  4.3347 -1.3482 -3.2168
  343SOL    HW2 1029   2.356   0.405   1.417  2.3644  0.8796  2.2084
  344SOL     OW 1030   2.078   2.382   0.701  0.3586 -0.3091  0.2973
  344SOL    HW1 1031   2.029   2.313   0.756 -0.6303  2.1858 -0.8859
  344SOL    HW2 1032   2.175   2.381   0.725  0.0800  0.1487 -1.1995
  345SOL     OW 1033   0.099   2.734   2.748 -0.1070  0.0192 -0.6464
  345SOL    HW1 1034   0.055   2.739   2.840 -1.2201 -0.4610 -0.5502
  345SOL    HW2 1035   0.140   2.642   2.729  0.6783  2.2408 -0.5431
  346SOL     OW 1036   0.170   1.200   0.597 -0.1089  0.2347 -0.3050
  346SOL    HW1 1037   0.150   1.267   0.664  0.7895 -3.4696 -2.9004
  346SOL    HW2 1038   0.191   1.237   0.505  1.5923  0.1926 -1.2147
  347SOL     OW 1039   2.103   2.799   1.063  0.0703 -0.2884  0.1806
  347SOL    HW1 1040   2.037   2.762   0.995 -1.4656 -1.8888  0.7837
  347SOL    HW2 1041   2.170   2.722   1.081 -2.3857  0.3637  0.8388
  348SOL     OW 1042   1.467   1.410   2.458  0.5365  0.0158  0.1099
  348SOL    HW1 1043   1.470   1.324   2.398  0.4139 -5.2450 -0.6972
  348SOL    HW2 1044   1.502   1.492   2.405 -0.9250 -0.4429  1.6815
  349SOL     OW 1045   2.294   1.216   2.295  0.1343  0.4646  0.3786
  349SOL    HW1 1046   2.222   1.161   2.248 -3.2735 -0.1178 -2.7919
  349SOL    HW2 1047   2.287   1.215   2.395 -0.3645  0.4370 -1.9415
  350SOL     OW 1048   3.041   1.890   1.036 -0.0516  0.1796  0.3627
  350SOL    HW1 1049   3.093   1.804   1.046  1.3170 -1.1707 -2.1154
  350SOL    HW2 1050   0.008   1.968   1.031  2.2449 -0.1980  4.2483
  351SOL     OW 1051   0.862   0.286   2.391  0.4766 -0.0064 -0.3495
  351SOL    HW1 1052   0.929   0.280   2.472 -0.1542 -0.7607  1.4987
  351SOL    HW2 1053   0.907   0.333   2.310 -1.5990  1.0098 -3.4360
  352SOL     OW 1054   0.805   2.471   1.660 -0.0390  0.1123  0.0085
  352SOL    HW1 1055   0.791   2.567   1.682 -0.6478 -1.5613  0.5971
  352SOL    HW2 1056   0.803   2.468   1.559 -0.8740 -1.8571 -0.7783
  353SOL     OW 1057   0.457   1.367   2.155  0.3925 -0.3380 -0.5875
  353SOL    HW1 1058   0.386   1.304   2.185  1.9760  0.9087 -2.2558
  353SOL    HW2 1059   0.423   1.461   2.170 -1.4329  2.9025 -0.2975
  354SOL     OW 1060   1.918   1.353   0.729 -0.0895  0.0413 -0.3285
  354SOL    HW1 1061   1.829   1.398   0.741 -2.1347  0.6350 -0.9990
  354SOL    HW2 1062   1.930   1.304   0.644  0.0653  0.6308  1.1415
  355SOL     OW 1063   2.517   0.097   0.809  0.3989 -0.4766 -0.3895
  355SOL    HW1 1064   2.558   0.025   0.760  0.6510  2.4383  0.3424
  355SOL    HW2 1065   2.588   0.169   0.823 -1.6430  0.2566  1.1428
  356SOL     OW 1066   3.010   1.315   2.563 -0.4277 -0.1593  0.4442
  356SOL    HW1 1067   3.085   1.354   2.501 -0.6832 -1.2406  0.4887
  356SOL    HW2 1068   3.010   1.214   2.566  0.7821 -0.7563  0.1122
  357SOL     OW 1069   0.427   2.934   1.615 -0.0210  0.1301  0.8025
  357SOL    HW1 1070   0.375   2.849   1.631  1.1605  2.2221  0.2397
  357SOL    HW2 1071   0.386   3.014   1.665  1.5309 -0.2808  0.9701
  358SOL     OW 1072   2.808   1.515   2.423  0.1712  0.6965 -0.4812
  358SOL    HW1 1073   2.846   1.487   2.335  2.5029  2.1467  0.9161
  358SOL    HW2 1074   2.858   1.595   2.457  0.7790 -0.7573 -0.9678
  359SOL     OW 1075   2.705   2.433   2.884  0.3741 -0.7598  0.1747
  359SOL    HW1 1076   2.727   2.517   2.836  0.1316 -0.7646 -1.2255
  359SOL    HW2 1077   2.606   2.424   2.892 -1.9154  1.5294 -0.0828
  360SOL     OW 1078   1.330   1.414   1.077 -0.4922 -0.5133 -0.2144
  360SOL    HW1 1079   1.387   1.350   1.025  0.5635 -1.6251  1.1468
  360SOL    HW2 1080   1.400   1.491   1.092  0.8727  0.9458  0.1225
  361SOL     OW 1081   2.044   2.464   1.183 -0.3672 -0.0136  0.1536
  361SOL    HW1 1082   2.144   2.459   1.193 -1.0583 -0.6083 -0.1132
  361SOL    HW2 1083   2.021   2.508   1.096  0.4659 -1.6589  0.6494
  362SOL     OW 1084   1.647   1.656   1.111 -0.4527 -0.6523 -0.2843
  362SOL    HW1 1085   1.699   1.742   1.117 -1.9004 -0.3564  0.0844
  362SOL    HW2 1086   1.585   1.656   1.030  0.9438  0.1464 -1.4830
  363SOL     OW 1087   2.739   2.091   0.112 -0.8791  0.4007 -0.4638
  363SOL    HW1 1088   2.645   2.058   0.113 -1.2330  0.2544  0.0198
  363SOL    HW2 1089   2.739   2.191   0.090  1.4872 -1.8434  1.4521
  364SOL     OW 1090   2.137   0.413   1.661 -0.1737  0.0583  0.0798
  364SOL    HW1 1091   2.216   0.394   1.595  4.1746 -1.6501 -1.1197
  364SOL    HW2 1092   2.169   0.422   1.756 -2.5428  2.3437 -0.9578
  365SOL     OW 1093   2.935   2.510   1.443  0.6021  0.1281  0.6210
  365SOL    HW1 1094   2.981   2.535   1.527 -0.2839  0.0195 -1.1832
  365SOL    HW2 1095   2.983   2.437   1.389  0.9870  2.7608 -1.0907
  366SOL     OW 1096   2.847   1.256   0.108 -0.1289 -0.1061  0.0287
  366SOL    HW1 1097   2.812   1.264   0.010 -0.3468  0.7543 -0.8812
  366SOL    HW2 1098   2.810   1.173   0.152  0.0863  0.7922 -1.4088
  367SOL     OW 1099   2.439   2.520   3.007 -0.1521 -0.1949  0.4944
  367SOL    HW1 1100   2.473   2.592   2.947  1.9570 -0.6374  0.7042
  367SOL    HW2 1101   2.382   2.555   3.083 -0.2225  0.2021 -1.3199
  368SOL     OW 1102   2.516   1.900   1.417 -0.0666 -0.9376 -0.0628
  368SOL    HW1 1103   2.551   1.965   1.491 -1.2905  1.4223  0.3659
  368SOL    HW2 1104   2.563   1.908   1.326  2.4085  2.3937 -1.0389
  369SOL     OW 1105   0.545   0.106   0.765 -0.0662  0.9300 -0.5627
  369SOL    HW1 1106   0.540   0.178   0.836 -0.6407 -2.7741  1.9206
  369SOL    HW2 1107   0.450   0.082   0.736  1.4717 -1.4764  1.5628
  370SOL     OW 1108   0.814   0.375   0.890  0.6107 -0.2219  0.0276
  370SOL    HW1 1109   0.711   0.376   0.878 -0.6164  0.6165 -0.0239
  370SOL    HW2 1110   0.861   0.447   0.836  1.6569 -2.1958 -1.4668
  371SOL     OW 1111   2.536   1.827   0.264 -0.2082  0.4293  0.1323
  371SOL    HW1 1112   2.620   1.789   0.307  0.7321 -0.2233  1.7950
  371SOL    HW2 1113   2.533   1.818   0.165  1.2278 -0.8973 -1.5353
  372SOL     OW 1114   0.166   0.944   2.673  0.0678  0.4586 -0.1974
  372SOL    HW1 1115   0.129   0.895   2.755 -1.2678  0.4755  1.4346
  372SOL    HW2 1116   0.248   0.998   2.702 -0.1133 -0.3528 -0.8671
  373SOL     OW 1117   2.961   0.930   0.400  0.2456 -0.1592 -0.0755
  373SOL    HW1 1118   2.993   0.978   0.488 -0.2911  1.2944 -1.9621
  373SOL    HW2 1119   2.917   0.841   0.420  1.4277  0.6665  1.5986
  374SOL     OW 1120   0.653   2.207   0.014  0.5142  0.4163 -0.7009
  374SOL    HW1 1121   0.555   2.189   0.035 -2.0422 -0.9218  0.3203
  374SOL    HW2 1122   0.670   2.258   3.021 -0.2501  1.7497 -0.3227
  375SOL     OW 1123   1.271   0.454   0.033 -0.0041 -0.1031 -0.6779
  375SOL    HW1 1124   1.188   0.450   3.070 -2.2247  1.8820 -0.7283
  375SOL    HW2 1125   1.278   0.372   0.092  3.1179  0.5163  0.3530
  376SOL     OW 1126   0.165   2.959   1.846 -0.3918  0.3098 -0.0833
  376SOL    HW1 1127   0.092   2.943   1.908  3.3331 -0.1718 -1.1626
  376SOL    HW2 1128   0.202   2.875   1.800 -0.1304 -0.4250 -0.3003
  377SOL     OW 1129   0.093   2.267   2.603 -0.6646 -0.1491 -0.4279
  377SOL    HW1 1130   0.139   2.330   2.532  1.5589 -1.1133 -1.2462
  377SOL    HW2 1131   0.033   2.329   2.659  1.6704 -1.3205 -0.1331
  378SOL     OW 1132   1.674   0.828   0.493  0.0156 -0.4160  0.0744
  378SOL    HW1 1133   1.724   0.918   0.504  2.7182 -2.2950 -0.6687
  378SOL    HW2 1134   1.662   0.789   0.585  2.0525 -0.4245  1.9891
  379SOL     OW 1135   1.175   1.197   0.195  0.0697  0.3016  0.0191
  379SOL    HW1 1136   1.158   1.155   0.103 -1.2491 -0.1289 -0.6713
  379SOL    HW2 1137   1.092   1.226   0.241  2.9306  0.3154  0.1654
  380SOL     OW 1138   2.344   2.341   2.086 -0.1263 -0.1466 -0.3417
  380SOL    HW1 1139   2.413   2.305   2.024 -2.1197 -0.4924  0.9950
  380SOL    HW2 1140   2.267   2.272   2.089  4.0233 -2.9522 -1.9860
  381SOL     OW 1141   0.071   0.997   2.241  0.2310  0.1884 -0.1720
  381SOL    HW1 1142   0.013   1.003   2.154 -3.4009  2.8959 -1.0038
  381SOL    HW2 1143   0.134   0.914   2.227  4.0429 -1.9200 -0.4687
  382SOL     OW 1144   2.817   2.338   0.045  0.1493 -0.2231  0.2285
  382SOL    HW1 1145   2.787   2.372   3.049  0.7288  1.2098 -0.1730
  382SOL    HW2 1146   2.795   2.396   0.122  2.1668 -3.4815 -1.8238
  383SOL     OW 1147   1.390   1.117   2.008  0.0738 -0.3679 -0.0138
  383SOL    HW1 1148   1.370   1.020   1.980 -0.5593 -2.3314  0.4379
  383SOL    HW2 1149   1.441   1.160   1.932 -0.7841  1.7292 -2.2730
  384SOL     OW 1150   0.681   1.865   2.345  0.7159 -0.0633 -0.4038
  384SOL    HW1 1151   0.718   1.961   2.354 -0.8846  0.4855  1.2664
  384SOL    HW2 1152   0.667   1.837   2.249  1.7717 -2.3278  1.0334
  385SOL     OW 1153   2.771   2.008   0.716 -0.6654 -0.4416  0.2602
  385SOL    HW1 1154   2.715   1.929   0.696 -0.5511 -0.2329  1.2895
  385SOL    HW2 1155   2.765   2.030   0.815 -1.2981  2.2768  0.5849
  386SOL     OW 1156   1.390   1.070   3.060 -0.3402 -0.2185  1.0113
  386SOL    HW1 1157   1.452   1.139   3.010 -0.6329 -0.8159 -0.2685
  386SOL    HW2 1158   1.441   1.031   0.039  2.5426  2.3626 -2.4217
  387SOL     OW 1159   0.135   0.416   1.713  0.3724 -0.8673 -0.1303
  387SOL    HW1 1160   0.221   0.420   1.656 -1.1864 -0.5373  2.6361
  387SOL    HW2 1161   0.135   0.338   1.780 -1.0463 -1.7205  1.0010
  388SOL     OW 1162   2.719   0.820   1.387 -0.0804 -0.1872 -0.2209
  388SOL    HW1 1163   2.764   0.871   1.312  0.4263 -0.1638  1.8112
  388SOL    HW2 1164   2.738   0.717   1.390 -1.2911 -0.4803  2.1436
  389SOL     OW 1165   1.895   1.218   2.481 -0.0315 -0.2556  0.2959
  389SOL    HW1 1166   1.842   1.142   2.520 -0.1254  3.8133  1.4116
  389SOL    HW2 1167   1.850   1.279   2.412  0.9986 -3.9096 -1.0642
  390SOL     OW 1168   1.968   2.180   0.261 -0.2822 -0.1369 -0.4988
  390SOL    HW1 1169   1.929   2.180   0.169 -2.5858 -1.7647 -1.5004
  390SOL    HW2 1170   2.061   2.131   0.260  2.4885 -2.2015  2.3080
  391SOL     OW 1171   1.180   2.580   0.978  0.1206 -0.3826 -0.1810
  391SOL    HW1 1172   1.215   2.622   1.069  0.2174  2.2784  2.1194
  391SOL    HW2 1173   1.076   2.576   0.970 -2.0672 -1.2190 -1.1526
  392SOL     OW 1174   2.706   2.601   1.561  0.0087 -0.2300 -0.0162
  392SOL    HW1 1175   2.788   2.556   1.514 -0.0103  0.1661 -1.1504
  392SOL    HW2 1176   2.628   2.595   1.498 -1.2224 -0.3217  0.7842
  393SOL     OW 1177   1.816   2.351   2.337 -0.0697 -0.6547 -0.6989
  393SOL    HW1 1178   1.751   2.287   2.295  1.3128 -0.7682  3.2065
  393SOL    HW2 1179   1.763   2.406   2.410  1.4366 -1.3936 -2.3222
  394SOL     OW 1180   0.316   2.947   2.545  0.5713  0.1765  0.0237
  394SOL    HW1 1181   0.331   2.947   2.645  0.9247 -0.0124 -3.0559
  394SOL    HW2 1182   0.385   2.997   2.493 -4.1985 -0.5148  1.0128
  395SOL     OW 1183   0.754   1.036   1.320  0.8370  0.7402 -0.4511
  395SOL    HW1 1184   0.695   1.056   1.400  1.4324  1.8306 -1.1235
  395SOL    HW2 1185   0.802   0.945   1.328 -0.5008 -1.8755 -0.7932
  396SOL     OW 1186   2.030   1.123   2.275 -0.2232  0.7044  0.3277
  396SOL    HW1 1187   2.008   1.028   2.287  0.1800  2.3320  0.9667
  396SOL    HW2 1188   2.012   1.169   2.365  2.6901  1.2702  0.1243
  397SOL     OW 1189   2.689   0.426   2.868 -0.2863  0.2709  0.5885
  397SOL    HW1 1190   2.762   0.442   2.941  2.1873  0.6788  2.1920
  397SOL    HW2 1191   2.709   0.468   2.775  1.5214 -1.7237  1.7942
  398SOL     OW 1192   1.647   0.036   0.771  0.1923  0.2796 -0.2509
  398SOL    HW1 1193   1.733   3.088   0.810 -0.3799 -0.8860  0.9588
  398SOL    HW2 1194   1.669   0.087   0.688  0.7165  0.0498  0.1270
  399SOL     OW 1195   2.409   2.734   1.870  0.3373  0.1618  0.5164
  399SOL    HW1 1196   2.358   2.789   1.795 -1.1830  2.1328 -0.5759
  399SOL    HW2 1197   2.349   2.652   1.893  0.4526 -0.1531  1.9278
  400SOL     OW 1198   3.056   2.348   2.103  0.2163  0.3462 -0.3873
  400SOL    HW1 1199   3.016   2.355   2.196  2.1558 -0.3345  2.1085
  400SOL    HW2 1200   0.052   2.309   2.098  0.0481 -0.1245 -0.8054
  401SOL     OW 1201   0.558   0.289   0.375  0.6039 -0.2524  0.1375
  401SOL    HW1 1202   0.577   0.189   0.358 -1.4629  1.1602 -0.3098
  401SOL    HW2 1203   0.459   0.304   0.387  0.5263 -1.2209  0.0543
  402SOL     OW 1204   0.802   2.745   1.782  0.4147  0.6164  0.2274
  402SOL    HW1 1205   0.880   2.806   1.801 -2.4531  0.6881 -0.9552
  402SOL    HW2 1206   0.711   2.782   1.805 -2.7057  0.8035 -2.2878
  403SOL     OW 1207   0.136   1.393   2.001 -0.0249 -0.2066  0.2213
  403SOL    HW1 1208   0.091   1.335   1.932 -0.9125 -1.1756  0.5797
  403SOL    HW2 1209   0.167   1.327   2.075  0.4385  0.2257  0.6513
  404SOL     OW 1210   2.786   2.567   2.222 -0.2234 -0.3228  0.0896
  404SOL    HW1 1211   2.818   2.588   2.126  1.2743 -2.2724  1.2508
  404SOL    HW2 1212   2.838   2.490   2.256  1.7183  3.2654 -1.9988
  405SOL     OW 1213   2.351   0.267   2.683  0.5610  0.0802 -0.0759
  405SOL    HW1 1214   2.283   0.189   2.665  0.1266 -2.1499 -0.7431
  405SOL    HW2 1215   2.358   0.281   2.784  0.5367  1.5047 -0.0148
  406SOL     OW 1216   1.579   2.401   0.413  0.4085 -0.5807  0.3130
  406SOL    HW1 1217   1.482   2.413   0.440  0.7428  0.5184  1.0269
  406SOL    HW2 1218   1.608   2.304   0.380 -2.9035 -2.1959 -0.4642
  407SOL     OW 1219   1.789   1.384   0.300  0.3097 -0.1465 -0.4180
  407SOL    HW1 1220   1.808   1.469   0.251  1.8544 -3.3016  2.3695
  407SOL    HW2 1221   1.731   1.402   0.385 -2.4155 -1.7369  3.0384
  408SOL     OW 1222   0.102   0.705   2.214  0.2327  0.2156  0.3129
  408SOL    HW1 1223   0.132   0.715   2.311  1.3266  0.7709 -0.1908
  408SOL    HW2 1224   0.182   0.696   2.150  1.6552 -0.9943  1.9849
  409SOL     OW 1225   2.786   1.390   2.957 -0.1851 -0.0347 -0.0190
  409SOL    HW1 1226   2.847   1.470   2.950 -0.6216  1.9300 -1.4227
  409SOL    HW2 1227   2.786   1.334   2.870  1.7712  0.0467  1.8123
  410SOL     OW 1228   2.626   1.367   1.143  0.0258  0.3001  0.2770
  410SOL    HW1 1229   2.591   1.357   1.045 -0.2002  0.9888 -0.6721
  410SOL    HW2 1230   2.654   1.465   1.158  0.0979  0.8489  2.6316
  411SOL     OW 1231   2.878   0.665   0.512 -0.0239  1.0352 -0.2249
  411SOL    HW1 1232   2.941   0.593   0.548  2.5937  0.2131  1.9431
  411SOL    HW2 1233   2.783   0.650   0.546  0.6500  0.0411 -0.3305
  412SOL     OW 1234   1.865   0.118   0.350  0.6275 -0.1824  0.0686
  412SOL    HW1 1235   1.848   0.137   0.447 -0.1063  1.0235  1.7155
  412SOL    HW2 1236   1.933   0.188   0.323  0.2202 -1.0008 -1.9652
  413SOL     OW 1237   1.283   0.483   1.877  0.1546  0.0600  0.0596
  413SOL    HW1 1238   1.262   0.386   1.859  0.8812 -0.6936  1.8405
  413SOL    HW2 1239   1.327   0.528   1.798 -4.2561 -0.8479  0.5729
  414SOL     OW 1240   0.465   1.054   0.073 -0.6456  0.2412  0.4685
  414SOL    HW1 1241   0.488   0.962   0.028 -1.5599 -0.4995 -1.7560
  414SOL    HW2 1242   0.480   1.130   0.011 -0.0922 -0.9165 -1.1553
  415SOL     OW 1243   0.203   1.332   0.374  0.9548 -0.0193  0.1542
  415SOL    HW1 1244   0.102   1.359   0.392 -3.6129 -0.7429  1.1507
  415SOL    HW2 1245   0.204   1.254   0.307 -0.3724 -0.5712 -1.0450
  416SOL     OW 1246   2.304   0.894   0.259 -0.5072 -0.3027  0.0214
  416SOL    HW1 1247   2.288   0.825   0.187  1.6336  2.5460  1.6883
  416SOL    HW2 1248   2.398   0.935   0.244 -0.1424 -1.0866  0.4702
  417SOL     OW 1249   2.720   2.755   0.027  0.5219  0.3620  0.0951
  417SOL    HW1 1250   2.818   2.773   0.022 -1.5205  0.7750  2.0927
  417SOL    HW2 1251   2.709   2.662   0.070 -0.7925 -1.0431  2.4061
  418SOL     OW 1252   2.669   0.583   0.200  0.6455  0.3225 -0.0419
  418SOL    HW1 1253   2.661   0.631   0.291 -1.8675  1.6585  1.2079
  418SOL    HW2 1254   2.580   0.556   0.157  1.4096  2.1442  2.6422
  419SOL     OW 1255   0.944   0.381   0.528 -0.7301 -0.3155 -0.4496
  419SOL    HW1 1256   0.847   0.362   0.547  1.3097  0.3268 -1.7837
  419SOL    HW2 1257   0.983   0.308   0.476 -1.0132  3.0711  1.3371
  420SOL     OW 1258   0.553   1.003   0.646 -0.2648  0.2236 -0.3355
  420SOL    HW1 1259   0.459   0.964   0.631  1.5562 -0.7912  0.2684
  420SOL    HW2 1260   0.584   0.989   0.741 -1.2430  0.1588 -2.6541
  421SOL     OW 1261   0.347   1.916   0.548  0.4263 -0.0837 -0.1650
  421SOL    HW1 1262   0.411   1.889   0.473  1.0904  0.4774  0.4818
  421SOL    HW2 1263   0.255   1.931   0.499 -0.7749 -2.2237 -1.2589
  422SOL     OW 1264   2.989   0.356   1.549  0.5065 -0.0633 -0.5508
  422SOL    HW1 1265   3.049   0.398   1.620  0.6688  1.2465 -1.1372
  422SOL    HW2 1266   3.006   0.255   1.538 -1.3479 -1.6758 -0.4736
  423SOL     OW 1267   2.169   1.996   0.278  0.4580  0.5959  0.1856
  423SOL    HW1 1268   2.234   2.021   0.350 -0.4407 -0.3042  0.5510
  423SOL    HW2 1269   2.207   1.960   0.191 -2.2392 -0.1037 -0.9634
  424SOL     OW 1270   1.726   1.532   2.841  0.4032  0.0594 -0.3355
  424SOL    HW1 1271   1.687   1.624   2.845 -0.3616 -2.1395  1.7080
  424SOL    HW2 1272   1.820   1.527   2.800  2.6540 -1.6087 -0.1209
  425SOL     OW 1273   0.470   2.848   2.063 -0.2034 -0.4417  0.1577
  425SOL    HW1 1274   0.386   2.897   2.057  1.5627  0.8867  1.0407
  425SOL    HW2 1275   0.533   2.882   1.986  0.7721 -0.6702 -0.3354
  426SOL     OW 1276   2.341   3.040   3.089  0.0146 -0.5628 -0.1599
  426SOL    HW1 1277   2.411   3.046   3.011 -1.8779 -1.0142 -0.3766
  426SOL    HW2 1278   2.263   2.985   3.051  0.9765  0.5236  0.4508
  427SOL     OW 1279   0.399   1.643   2.157 -0.4838 -0.1685  0.0698
  427SOL    HW1 1280   0.482   1.705   2.128  2.5094 -0.7813 -0.6393
  427SOL    HW2 1281   0.381   1.654   2.254 -1.8318  0.8010  0.8961
  428SOL     OW 1282   2.281   1.474   2.352  0.2352 -0.0941 -0.2083
  428SOL    HW1 1283   2.199   1.508   2.296 -3.3085 -0.1378 -2.7787
  428SOL    HW2 1284   2.301   1.376   2.328  2.5062  0.9908 -0.6894
  429SOL     OW 1285   2.655   3.029   0.633  0.1705 -0.1846  0.0297
  429SOL    HW1 1286   2.692   0.003   0.571  2.1332  1.2350 -0.3485
  429SOL    HW2 1287   2.577   2.974   0.600 -1.7095  0.4059 -0.9508
  430SOL     OW 1288   1.896   2.138   2.145 -0.0152 -0.1409 -0.0503
  430SOL    HW1 1289   1.833   2.079   2.198  0.3064 -2.1089  2.5718
  430SOL    HW2 1290   1.846   2.216   2.102  0.9080  3.2891 -0.1387
  431SOL     OW 1291   2.913   1.625   1.854 -0.7337 -0.2347 -0.4807
  431SOL    HW1 1292   2.855   1.709   1.847 -0.4258  1.0141 -0.7979
  431SOL    HW2 1293   2.987   1.618   1.789 -2.5112 -0.8043  1.6455
  432SOL     OW 1294   1.045   2.303   2.138 -0.2436  0.3171 -0.2626
  432SOL    HW1 1295   1.092   2.230   2.088 -1.4845  2.5887  0.2019
  432SOL    HW2 1296   0.951   2.276   2.152  1.3068  3.6405 -2.3804
  433SOL     OW 1297   0.984   2.961   0.845 -0.4884  0.4886  0.4303
  433SOL    HW1 1298   1.049   2.939   0.922 -2.3602 -1.4359 -0.3528
  433SOL    HW2 1299   0.958   3.058   0.851  0.6351 -1.5377  4.3695
  434SOL     OW 1300   0.285   2.352   2.163 -0.4925  0.0982  0.0787
  434SOL    HW1 1301   0.290   2.437   2.108  1.4880 -1.4076 -3.0100
  434SOL    HW2 1302   0.377   2.329   2.197 -0.0820  0.2039 -1.9502
  435SOL     OW 1303   0.533   1.259   0.543 -0.2477  0.4543  0.1542
  435SOL    HW1 1304   0.513   1.175   0.595  0.1027  1.9801  2.5116
  435SOL    HW2 1305   0.536   1.248   0.437 -0.2224  0.5505 -3.2572
  436SOL     OW 1306   0.394   1.709   1.656 -0.0484  0.4874  0.7489
  436SOL    HW1 1307   0.490   1.728   1.658 -0.2554  0.9002  0.9711
  436SOL    HW2 1308   0.344   1.766   1.587 -4.6167  0.4671  1.3571
  437SOL     OW 1309   1.153   0.597   0.386 -0.1042 -0.0340  0.1768
  437SOL    HW1 1310   1.060   0.593   0.344  1.3775  1.1152 -0.1471
  437SOL    HW2 1311   1.196   0.691   0.381  0.6004 -1.0634 -3.2976
  438SOL     OW 1312   0.940   1.746   0.828  0.4767  0.1216 -0.3791
  438SOL    HW1 1313   0.897   1.707   0.742  0.9355 -0.9778 -1.9552
  438SOL    HW2 1314   1.005   1.678   0.861  0.3769  0.7425 -1.1791
  439SOL     OW 1315   1.323   1.871   2.162  0.4323  0.3103 -0.7325
  439SOL    HW1 1316   1.289   1.827   2.246  2.5775  0.5292  2.2095
  439SOL    HW2 1317   1.366   1.798   2.110 -0.2016  3.7495  2.6373
  440SOL     OW 1318   1.538   0.184   1.261 -0.2530 -0.3082  0.1353
  440SOL    HW1 1319   1.533   0.183   1.361  0.5212 -1.5529 -2.2152
  440SOL    HW2 1320   1.628   0.138   1.229  0.0597  0.2003 -0.0481
  441SOL     OW 1321   0.529   0.035   1.249  0.1030 -0.3696 -0.2778
  441SOL    HW1 1322   0.538   0.137   1.277  0.4020  2.3062 -1.1814
  441SOL    HW2 1323   0.579   3.079   1.320 -0.6239  0.3898  0.2603
  442SOL     OW 1324   2.321   1.948   0.689  0.3377  0.0857  0.4393
  442SOL    HW1 1325   2.220   1.945   0.680 -2.1933 -0.2662 -1.4926
  442SOL    HW2 1326   2.367   1.974   0.598  0.8083  4.0702  0.1098
  443SOL     OW 1327   2.666   0.422   2.131 -0.0489 -0.4543 -0.2301
  443SOL    HW1 1328   2.570   0.431   2.167  1.7116  2.0581 -1.0912
  443SOL    HW2 1329   2.673   0.370   2.046  2.9913 -2.5007  0.4162
  444SOL     OW 1330   2.019   1.286   2.059 -0.0358 -1.0136  0.1549
  444SOL    HW1 1331   1.960   1.233   1.997  0.0669 -0.4130 -0.2962
  444SOL    HW2 1332   2.023   1.238   2.144 -1.1119  1.0194 -3.7176
  445SOL     OW 1333   2.636   2.073   1.596 -0.6548 -0.2967  0.2433
  445SOL    HW1 1334   2.720   2.069   1.650 -0.9407 -1.8216 -1.5983
  445SOL    HW2 1335   2.590   2.166   1.595 -3.3131 -3.6440 -0.4411
  446SOL     OW 1336   0.276   0.923   0.586 -0.7374  0.6145 -0.5552
  446SOL    HW1 1337   0.233   0.885   0.500  0.2607 -3.7514 -3.2488
  446SOL    HW2 1338   0.244   1.021   0.601  0.5253  0.8914  2.1784
  447SOL     OW 1339   0.802   1.606   0.635 -0.9163  0.4078  0.0164
  447SOL    HW1 1340   0.763   1.521   0.669  0.9834 -0.9907  0.9363
  447SOL    HW2 1341   0.722   1.673   0.633  0.5663  0.3983 -2.4800
  448SOL     OW 1342   1.143   1.101   1.784  0.6074  0.1938 -1.1088
  448SOL    HW1 1343   1.067   1.097   1.716 -0.7304  0.6054  0.8145
  448SOL    HW2 1344   1.161   1.012   1.826  0.6353  1.6657  0.7520
  449SOL     OW 1345   0.280   1.558   3.035 -0.4314 -0.5799  0.1298
  449SOL    HW1 1346   0.245   1.464   3.013  3.1872 -1.6026 -0.1377
  449SOL    HW2 1347   0.217   1.592   0.011  2.0304 -0.1524  0.4357
  450SOL     OW 1348   2.517   2.420   2.297 -0.2498  0.7390 -0.7351
  450SOL    HW1 1349   2.465   2.396   2.214 -1.5824  3.7667  1.3164
  450SOL    HW2 1350   2.590   2.481   2.274  1.0431  2.6258  2.1882
  451SOL     OW 1351   2.041   0.323   2.162 -0.2596  0.6566  0.1536
  451SOL    HW1 1352   2.060   0.226   2.124  0.0326 -0.3530 -2.1630
  451SOL    HW2 1353   1.978   0.363   2.091  0.0924  1.2235  0.2244
  452SOL     OW 1354   0.728   2.848   1.101 -0.1172  0.0934  0.1092
  452SOL    HW1 1355   0.696   2.927   1.042  3.0729 -0.7896 -3.5874
  452SOL    HW2 1356   0.830   2.842   1.089 -1.5520  0.2863  1.6125
  453SOL     OW 1357   1.146   1.226   0.940 -0.2847  0.1469 -0.1292
  453SOL    HW1 1358   1.192   1.287   1.006  0.7797  0.5196  1.3813
  453SOL    HW2 1359   1.072   1.169   0.984 -0.3532  0.2054 -0.7736
  454SOL     OW 1360   0.124   1.003   0.983  0.2137  0.5927  0.4001
  454SOL    HW1 1361   0.195   1.047   1.036 -0.4655 -0.8725  0.0250
  454SOL    HW2 1362   0.045   1.061   0.960 -2.8054  2.2538 -2.3017
  455SOL     OW 1363   0.083   2.931   0.312 -0.1389 -0.1232  0.2259
  455SOL    HW1 1364   0.127   2.948   0.220 -0.9067 -0.0806  0.7473
  455SOL    HW2 1365   0.040   3.017   0.350 -1.2290 -0.5329  1.1536
  456SOL     OW 1366   2.333   2.259   0.702  0.1785  0.0699  0.2198
  456SOL    HW1 1367   2.350   2.158   0.711 -2.4376 -2.4386 -0.7701
  456SOL    HW2 1368   2.383   2.288   0.617  2.8246 -0.6730 -2.4801
  457SOL     OW 1369   1.184   0.002   2.929 -0.0202  0.9746 -0.3660
  457SOL    HW1 1370   1.225   3.022   2.979  4.1534  0.5866 -1.0747
  457SOL    HW2 1371   1.225   0.009   2.831 -1.2142  1.4875 -5.0866
  458SOL     OW 1372   2.915   2.755   0.506 -0.2875  0.3671 -0.5370
  458SOL    HW1 1373   2.970   2.766   0.423 -1.5337 -3.7294 -0.2779
  458SOL    HW2 1374   2.820   2.788   0.488  0.0411 -0.4145 -0.1889
  459SOL     OW 1375   2.414   0.447   2.243  0.7593 -0.3623  0.2336
  459SOL    HW1 1376   2.383   0.483   2.331 -0.7268  1.1473 -0.2830
  459SOL    HW2 1377   2.393   0.347   2.236  2.2030 -0.9364  2.3411
  460SOL     OW 1378   0.071   0.322   0.189  0.1758 -0.0894  0.0949
  460SOL    HW1 1379   0.095   0.372   0.100  1.1572  1.3922  1.8034
  460SOL    HW2 1380   3.074   0.347   0.218  1.7840 -2.2648  1.3881
  461SOL     OW 1381   0.508   1.833   1.130  0.1475  0.3150  0.1764
  461SOL    HW1 1382   0.551   1.785   1.047  0.8205 -2.9525 -0.9820
  461SOL    HW2 1383   0.569   1.908   1.164 -0.8542 -3.5259  3.3832
  462SOL     OW 1384   3.066   2.633   1.640 -0.5384 -0.0812  0.7279
  462SOL    HW1 1385   3.061   2.729   1.619  0.0837 -1.0560  0.3997
  462SOL    HW2 1386   3.017   2.608   1.729 -0.0246 -0.7322  2.9455
  463SOL     OW 1387   2.586   1.147   2.946  0.5808 -0.1592  0.3709
  463SOL    HW1 1388   2.570   1.047   2.925 -1.1173 -0.5118  1.3759
  463SOL    HW2 1389   2.674   1.164   2.905 -1.1997  1.5687 -0.1168
  464SOL     OW 1390   0.360   2.296   1.158 -0.0154 -0.4754  0.0951
  464SOL    HW1 1391   0.388   2.222   1.100  0.2566  0.1342  1.3800
  464SOL    HW2 1392   0.427   2.314   1.237  0.8383 -0.0824  0.6633
  465SOL     OW 1393   0.552   0.627   0.672 -0.2972  0.0249  0.0444
  465SOL    HW1 1394   0.472   0.574   0.634 -1.6671  1.5607  1.7476
  465SOL    HW2 1395   0.527   0.660   0.766 -2.9068 -0.9136  1.0300
  466SOL     OW 1396   1.233   3.016   2.172 -0.3128 -0.2315 -0.5657
  466SOL    HW1 1397   1.297   2.938   2.155  1.0371  2.6460  0.5341
  466SOL    HW2 1398   1.175   2.992   2.254 -1.1100  0.2567 -0.4360
  467SOL     OW 1399   0.695   0.518   2.136  0.2559 -0.2325  0.1190
  467SOL    HW1 1400   0.665   0.532   2.041  0.4250 -1.2621 -0.4317
  467SOL    HW2 1401   0.635   0.543   2.214 -1.8036 -3.2966  2.0045
  468SOL     OW 1402   0.208   1.234   2.216  0.6737 -0.0366  0.0892
  468SOL    HW1 1403   0.158   1.150   2.241 -0.7067  0.8600  0.9745
  468SOL    HW2 1404   0.180   1.306   2.286  0.2165  0.9746  2.1736
  469SOL     OW 1405   0.299   1.677   0.703 -0.0237  0.0992  0.3027
  469SOL    HW1 1406   0.327   1.766   0.665  0.2968  1.4277  1.5656
  469SOL    HW2 1407   0.322   1.599   0.634 -0.9333 -0.0507 -2.4346
  470SOL     OW 1408   2.651   1.751   2.273 -0.6829  0.3293 -0.1783
  470SOL    HW1 1409   2.582   1.691   2.230  2.7929 -0.1941  0.9760
  470SOL    HW2 1410   2.694   1.812   2.198  0.6878  1.9659 -1.2231
  471SOL     OW 1411   1.513   0.534   2.482  0.3370  0.4639  0.1230
  471SOL    HW1 1412   1.446   0.457   2.484  0.4403 -0.4646  2.3758
  471SOL    HW2 1413   1.558   0.535   2.575  0.7340 -1.1651  3.1743
  472SOL     OW 1414   0.576   2.302   1.730  0.4662 -0.0044  0.4367
  472SOL    HW1 1415   0.605   2.214   1.775  2.0433 -1.0810 -0.3786
  472SOL    HW2 1416   0.661   2.359   1.716  0.1563  1.5007 -0.2115
  473SOL     OW 1417   0.376   0.211   2.475  0.5643  0.0198  0.6437
  473SOL    HW1 1418   0.456   0.264   2.486 -0.7715 -0.4006  1.3754
  473SOL    HW2 1419   0.394   0.120   2.424  0.0681 -0.7176  1.4287
  474SOL     OW 1420   1.810   0.100   1.227 -0.0286  0.5271  0.7629
  474SOL    HW1 1421   1.859   0.189   1.224 -0.9403  1.9254 -0.6056
  474SOL    HW2 1422   1.868   0.028   1.182 -0.0741 -1.7533 -0.0495
  475SOL     OW 1423   2.002   0.823   1.034  0.6441  0.5113  0.4342
  475SOL    HW1 1424   1.947   0.843   0.947 -0.8774 -0.3430 -3.2482
  475SOL    HW2 1425   2.047   0.908   1.062  1.2347  1.9550  1.4315
  476SOL     OW 1426   0.610   0.934   0.915 -0.2202 -0.4396  0.1106
  476SOL    HW1 1427   0.603   0.992   0.999  2.3698  1.3536 -2.1947
  476SOL    HW2 1428   0.693   0.878   0.918 -2.1137 -0.0055  0.3346
  477SOL     OW 1429   1.312   2.453   0.483 -0.1972  0.7783  0.2434
  477SOL    HW1 1430   1.242   2.381   0.494  0.9054  1.8633  3.0113
  477SOL    HW2 1431   1.296   2.527   0.548  3.1832  0.0161 -1.0015
  478SOL     OW 1432   0.196   2.440   2.428  0.1828 -0.2952 -0.9028
  478SOL    HW1 1433   0.189   2.538   2.406 -1.5871  0.1936  0.6154
  478SOL    HW2 1434   0.217   2.378   2.355  0.1927  1.5503  1.9276
  479SOL     OW 1435   2.574   0.198   1.449 -0.5836 -0.2089  0.5598
  479SOL    HW1 1436   2.509   0.272   1.472  0.8472 -0.9288  0.6384
  479SOL    HW2 1437   2.569   0.172   1.353 -2.0799  0.0945 -1.4851
  480SOL     OW 1438   0.336   2.354   0.549  0.4575  0.5474 -0.3560
  480SOL    HW1 1439   0.419   2.309   0.510  1.5995  0.1337 -1.2238
  480SOL    HW2 1440   0.263   2.386   0.484  1.8481  1.0645 -0.2656
  481SOL     OW 1441   2.326   2.246   1.566 -0.9052  0.1247  0.5877
  481SOL    HW1 1442   2.278   2.327   1.612 -0.6955  0.6706  2.1654
  481SOL    HW2 1443   2.341   2.168   1.629  1.1799  0.1936 -1.4915
  482SOL     OW 1444   1.232   2.696   2.840 -0.1466 -0.7558 -0.2182
  482SOL    HW1 1445   1.272   2.775   2.889 -1.0943 -0.4089  2.2176
  482SOL    HW2 1446   1.299   2.617   2.848 -3.6470 -0.6546  0.5493
  483SOL     OW 1447   0.713   2.099   1.832  0.0007  0.5368  0.1518
  483SOL    HW1 1448   0.815   2.098   1.838  0.6121  1.7420 -2.0768
  483SOL    HW2 1449   0.683   2.046   1.751 -0.1153  0.1685  1.4488
  484SOL     OW 1450   1.235   0.359   1.562  0.0015 -0.1960  0.4886
  484SOL    HW1 1451   1.331   0.353   1.598 -0.0136 -1.6113  1.3054
  484SOL    HW2 1452   1.220   0.442   1.499 -2.8497  4.1631 -3.1093
  485SOL     OW 1453   1.791   0.995   2.859 -0.2324 -0.1845  0.0021
  485SOL    HW1 1454   1.875   0.988   2.805  0.1772 -3.6553  2.1972
  485SOL    HW2 1455   1.764   1.091   2.869  3.8320 -1.0735 -0.9731
  486SOL     OW 1456   2.172   0.075   1.371 -0.0427  0.2063  0.1554
  486SOL    HW1 1457   2.186   0.151   1.309  1.2760  0.3359  0.3032
  486SOL    HW2 1458   2.242   0.072   1.440 -1.0891 -0.9037 -1.3318
  487SOL     OW 1459   0.737   2.117   0.981  0.5967 -0.3528 -0.4290
  487SOL    HW1 1460   0.796   2.201   0.967 -2.7749 -2.6420 -0.1777
  487SOL    HW2 1461   0.700   2.107   1.078 -0.5571  0.9898 -2.5625
  488SOL     OW 1462   2.470   2.121   0.051  0.0808 -0.0258  0.2511
  488SOL    HW1 1463   2.466   2.179   3.064 -1.2439  0.5724  3.3756
  488SOL    HW2 1464   2.389   2.057   0.053 -1.3409  1.4019 -2.2076
  489SOL     OW 1465   2.077   3.056   0.621  0.2453  0.0680  0.1721
  489SOL    HW1 1466   2.154   2.993   0.633  1.2545  1.7053  1.9735
  489SOL    HW2 1467   2.045   3.059   0.522  0.7748  0.5896 -0.0551
  490SOL     OW 1468   0.835   1.821   2.979 -0.0881 -0.2637  0.1401
  490SOL    HW1 1469   0.898   1.896   2.962  0.2312  0.0625  2.3215
  490SOL    HW2 1470   0.861   1.780   3.069 -1.9684 -0.8477 -2.3824
  491SOL     OW 1471   0.261   1.933   1.517 -0.6863 -0.2194  0.5280
  491SOL    HW1 1472   0.178   1.952   1.574  2.1416  0.5372  1.1734
  491SOL    HW2 1473   0.319   2.016   1.519 -0.2296 -1.1950  0.0343
  492SOL     OW 1474   0.827   1.512   1.653 -0.1810  0.7413  0.3438
  492SOL    HW1 1475   0.929   1.498   1.665 -0.9785  1.0783  1.2497
  492SOL    HW2 1476   0.787   1.469   1.570  0.7450 -4.1019 -2.6255
  493SOL     OW 1477   2.556   1.609   0.914  0.5450  0.1516  0.1504
  493SOL    HW1 1478   2.494   1.654   0.848  1.0069  1.0852  0.8479
  493SOL    HW2 1479   2.645   1.582   0.873 -1.2253 -1.7655 -0.7524
  494SOL     OW 1480   2.781   1.570   0.749 -0.4140  0.0684 -0.0559
  494SOL    HW1 1481   2.788   1.482   0.697  0.9199 -0.9040 -1.0373
  494SOL    HW2 1482   2.848   1.642   0.717  2.0246 -0.9828 -1.8176
  495SOL     OW 1483   2.407   2.908   0.575  0.2388  0.1984 -0.0588
  495SOL    HW1 1484   2.376   3.002   0.549  1.2451 -0.2015 -3.0270
  495SOL    HW2 1485   2.403   2.839   0.494  0.4294 -2.8344 -0.5905
  496SOL     OW 1486   2.389   0.028   1.578  0.3127 -0.6527  0.3405
  496SOL    HW1 1487   2.452   0.005   1.502  0.0126  1.2774 -2.9206
  496SOL    HW2 1488   2.437   0.090   1.645  1.0881  4.0101  2.2272
  497SOL     OW 1489   2.434   1.274   2.766 -0.0820  0.2107  0.5162
  497SOL    HW1 1490   2.369   1.239   2.697  2.4844 -1.1743 -0.6620
  497SOL    HW2 1491   2.490   1.199   2.808  1.1690  0.9624 -0.8371
  498SOL     OW 1492   2.878   1.899   1.270  0.3291  0.1022 -0.0045
  498SOL    HW1 1493   2.895   1.810   1.314  1.5641  3.5288 -2.6909
  498SOL    HW2 1494   2.918   1.903   1.179  0.6356  0.6425  0.3947
  499SOL     OW 1495   0.941   2.312   2.739 -0.1134 -0.4362 -0.5928
  499SOL    HW1 1496   1.040   2.291   2.736 -0.8495  0.4309  2.3375
  499SOL    HW2 1497   0.914   2.392   2.680  0.3816  1.5083  1.8341
  500SOL     OW 1498   1.624   1.394   0.530  0.0982 -0.1770 -0.3671
  500SOL    HW1 1499   1.532   1.356   0.506 -0.7630  0.2194  0.5811
  500SOL    HW2 1500   1.631   1.395   0.631  0.6827  2.4043  1.3871
  501SOL     OW 1501   1.468   0.125   1.519 -0.3129  0.5899 -0.0569
  501SOL    HW1 1502   1.377   0.105   1.566 -0.6229  3.8811  1.1249
  501SOL    HW2 1503   1.548   0.066   1.546 -1.5691  2.1391 -2.8382
  502SOL     OW 1504   2.536   0.575   1.611 -0.5114  0.0375 -0.3341
  502SOL    HW1 1505   2.616   0.512   1.630 -0.3501  0.6731  2.6319
  502SOL    HW2 1506   2.522   0.634   1.694  1.0164  1.0614  1.5704
  503SOL     OW 1507   2.423   1.650   2.166  0.0484 -0.5071  0.0228
  503SOL    HW1 1508   2.330   1.692   2.170  0.4296 -1.9544 -2.6751
  503SOL    HW2 1509   2.428   1.585   2.089 -1.0313 -0.2686 -1.9586
  504SOL     OW 1510   1.137   1.301   1.958  0.3248 -0.2027  0.0113
  504SOL    HW1 1511   1.151   1.265   2.057 -0.4919  0.1676 -0.2382
  504SOL    HW2 1512   1.159   1.228   1.892 -2.1537 -2.5790 -0.1551
  505SOL     OW 1513   0.364   0.348   1.540 -0.1647 -0.0684  0.2075
  505SOL    HW1 1514   0.396   0.428   1.488 -0.3442  0.1727 -1.2639
  505SOL    HW2 1515   0.418   0.338   1.632  1.3278 -2.3415  0.9800
  506SOL     OW 1516   0.193   0.110   0.054 -0.7540 -0.1758 -0.2604
  506SOL    HW1 1517   0.160   0.180   0.122 -1.0916  3.8214  1.6151
  506SOL    HW2 1518   0.255   0.151   3.078  0.0612 -1.4828 -0.6698
  507SOL     OW 1519   0.546   2.539   3.070  0.0099 -0.6325  0.6205
  507SOL    HW1 1520   0.526   2.498   0.064  3.1234  1.4812  1.9596
  507SOL    HW2 1521   0.495   2.481   3.004 -2.4880  0.4272  2.1356
  508SOL     OW 1522   0.956   0.453   2.184  0.0107 -0.2543  0.2109
  508SOL    HW1 1523   0.858   0.468   2.162  3.0197  0.0747  1.8757
  508SOL    HW2 1524   0.983   0.361   2.146  1.6042  1.6296 -1.1895
  509SOL     OW 1525   1.494   2.150   1.182  0.0276 -0.2009 -0.5737
  509SOL    HW1 1526   1.521   2.156   1.281  0.3950  2.1673  3.1894
  509SOL    HW2 1527   1.393   2.133   1.175 -2.3030  2.3578 -0.4843
  510SOL     OW 1528   2.880   1.137   1.737  0.1242 -0.0925 -0.4891
  510SOL    HW1 1529   2.788   1.175   1.771 -0.1530 -0.9085  0.4691
  510SOL    HW2 1530   2.869   1.038   1.721  1.1208  3.2824  0.6991
  511SOL     OW 1531   1.327   1.944   1.207  0.4703 -0.2266  0.4764
  511SOL    HW1 1532   1.418   1.942   1.158 -2.4190  1.8190  1.5991
  511SOL    HW2 1533   1.329   1.894   1.296 -1.8444  2.1864 -1.5283
  512SOL     OW 1534   0.073   1.698   0.438 -0.4863  0.1435  0.3732
  512SOL    HW1 1535   0.044   1.604   0.473 -3.5667  1.4790 -0.5501
  512SOL    HW2 1536   0.131   1.683   0.356 -0.7952 -0.8484 -2.2627
  513SOL     OW 1537   0.218   1.308   2.933  0.2365  0.2239 -0.7640
  513SOL    HW1 1538   0.244   1.346   2.842  1.5891  1.5305  1.8841
  513SOL    HW2 1539   0.160   1.225   2.928  1.2404  2.0925  0.2665
  514SOL     OW 1540   2.296   2.381   2.451 -0.0169 -0.1122 -0.3455
  514SOL    HW1 1541   2.218   2.329   2.402 -3.3337 -0.9073 -1.7384
  514SOL    HW2 1542   2.382   2.388   2.396  2.6058 -1.3708  0.5020
  515SOL     OW 1543   2.532   0.842   0.727 -0.4978 -0.7101 -0.1121
  515SOL    HW1 1544   2.448   0.867   0.780  1.0258  1.4924  0.0705
  515SOL    HW2 1545   2.518   0.869   0.631 -0.4809  1.3374 -0.2089
  516SOL     OW 1546   2.679   2.551   0.196  0.1421 -0.5069  0.3894
  516SOL    HW1 1547   2.601   2.500   0.235 -1.6535 -4.2554 -2.3466
  516SOL    HW2 1548   2.754   2.574   0.264 -0.2646 -0.0463  3.0103
  517SOL     OW 1549   0.729   1.578   2.856 -0.1579 -0.0006  0.5276
  517SOL    HW1 1550   0.756   1.675   2.840  3.3400 -1.6587 -0.9864
  517SOL    HW2 1551   0.689   1.575   2.946  0.4711  2.0014 -2.1386
  518SOL     OW 1552   2.732   0.258   1.919  0.6536 -0.0839 -0.1195
  518SOL    HW1 1553   2.699   0.164   1.949  0.6971 -1.0110  0.7034
  518SOL    HW2 1554   2.823   0.267   1.960 -0.7358  0.2091  0.9078
  519SOL     OW 1555   1.919   1.017   0.203 -0.7755 -0.3702 -0.6183
  519SOL    HW1 1556   1.927   0.919   0.190  0.8251  1.6907  0.3772
  519SOL    HW2 1557   1.826   1.058   0.213 -0.8919  0.8822 -1.2590
  520SOL     OW 1558   2.723   2.914   2.222 -0.2381 -0.7012  0.1592
  520SOL    HW1 1559   2.816   2.946   2.245  0.6783  0.8285 -0.0188
  520SOL    HW2 1560   2.703   2.830   2.275 -0.3580  0.1045  0.3622
  521SOL     OW 1561   0.083   2.073   2.077 -0.2063 -0.1951 -0.4285
  521SOL    HW1 1562   0.105   2.041   1.986 -0.4244 -0.7088 -2.3927
  521SOL    HW2 1563   0.153   2.043   2.143 -0.3683  1.5390 -0.1505
  522SOL     OW 1564   1.312   2.839   1.744  0.1017 -0.2099 -0.5504
  522SOL    HW1 1565   1.272   2.907   1.809 -1.9338 -0.0893 -2.6290
  522SOL    HW2 1566   1.254   2.758   1.745  2.7923 -0.9078  2.2954
  523SOL     OW 1567   2.182   2.253   1.003  0.0489 -0.5483  0.1969
  523SOL    HW1 1568   2.244   2.173   0.998 -0.5886  1.8095 -0.7976
  523SOL    HW2 1569   2.164   2.277   1.100 -1.4256 -1.4632  0.1396
  524SOL     OW 1570   1.011   2.209   0.716  0.3648  0.4875 -0.2179
  524SOL    HW1 1571   0.991   2.244   0.807  1.7702 -2.6286 -1.3435
  524SOL    HW2 1572   0.964   2.117   0.710 -0.3366 -0.4295  2.6509
  525SOL     OW 1573   2.881   0.485   0.860 -0.0021  0.3523  0.4761
  525SOL    HW1 1574   2.817   0.563   0.853  1.7904 -0.8852  2.9277
  525SOL    HW2 1575   2.972   0.516   0.837 -1.4484 -2.1236 -0.4684
  526SOL     OW 1576   1.543   0.083   0.473 -0.0156  0.5151  0.6481
  526SOL    HW1 1577   1.481   0.131   0.541  1.8271 -0.4866  0.4050
  526SOL    HW2 1578   1.584   0.150   0.408  0.4802 -2.1182  1.5326
  527SOL     OW 1579   1.958   1.608   1.237  0.1772  0.0761 -0.3257
  527SOL    HW1 1580   1.920   1.511   1.235  2.1831 -1.1929 -0.2165
  527SOL    HW2 1581   1.942   1.654   1.149 -0.7553 -0.2722 -1.7801
  528SOL     OW 1582   2.759   2.716   2.451  0.0693 -1.1163 -0.1326
  528SOL    HW1 1583   2.848   2.742   2.502  0.7468  0.2832  1.4692
  528SOL    HW2 1584   2.781   2.657   2.371 -2.1941 -0.8324  1.4299
  529SOL     OW 1585   0.962   1.318   2.335 -0.0483  0.9843  0.2037
  529SOL    HW1 1586   1.030   1.357   2.397  0.5630  0.7024  0.8771
  529SOL    HW2 1587   0.899   1.254   2.379 -1.2119  1.6496 -1.3022
  530SOL     OW 1588   1.928   0.810   2.554 -0.3215 -0.0422  0.8217
  530SOL    HW1 1589   1.843   0.867   2.558  0.5411  1.7420  1.5266
  530SOL    HW2 1590   1.979   0.831   2.641 -3.2217  0.5839 -1.4415
  531SOL     OW 1591   0.122   0.849   0.042  0.6305 -0.0593 -0.5891
  531SOL    HW1 1592   0.125   0.941   3.091  0.8056  2.0734 -0.4727
  531SOL    HW2 1593   0.122   0.867   0.145  0.9949  1.1413  0.8257
  532SOL     OW 1594   1.646   1.451   0.793  0.0630 -0.9294 -0.3641
  532SOL    HW1 1595   1.595   1.384   0.848  1.7537  0.2612 -0.0515
  532SOL    HW2 1596   1.617   1.548   0.809 -1.4983  1.4800 -3.7884
  533SOL     OW 1597   0.236   0.774   2.444 -0.3752  0.0684 -0.5272
  533SOL    HW1 1598   0.207   0.818   2.530  2.0033 -2.2353 -1.7236
  533SOL    HW2 1599   0.311   0.710   2.461 -2.0474 -0.0728  0.0570
  534SOL     OW 1600   1.035   0.279   2.606  0.4515 -0.2133  0.8379
  534SOL    HW1 1601   1.100   0.354   2.583  1.1220  0.2834  1.6844
  534SOL    HW2 1602   0.966   0.312   2.673  0.8662  0.6345 -1.8745
  535SOL     OW 1603   0.565   0.466   3.073  0.0995 -0.1278  0.1917
  535SOL    HW1 1604   0.596   0.526   2.995  2.8841  2.2994 -1.2026
  535SOL    HW2 1605   0.467   0.468   3.077  1.8731  1.7788  2.1539
  536SOL     OW 1606   0.522   0.949   2.630 -0.0702  0.0211  0.6109
  536SOL    HW1 1607   0.438   1.006   2.635  0.1017 -0.0089 -0.0571
  536SOL    HW2 1608   0.603   0.999   2.670  0.2131 -1.4771  1.7508
  537SOL     OW 1609   1.351   2.858   1.477  0.7109  0.2741 -0.0992
  537SOL    HW1 1610   1.294   2.943   1.483 -0.1754 -1.1952  1.3089
  537SOL    HW2 1611   1.336   2.808   1.561  1.3736  2.0996 -2.1731
  538SOL     OW 1612   0.837   2.171   0.191 -0.2253  0.4745  0.5193
  538SOL    HW1 1613   0.755   2.177   0.126 -0.6632  0.1353 -0.7970
  538SOL    HW2 1614   0.921   2.196   0.145 -2.7604 -0.5369 -1.5023
  539SOL     OW 1615   2.639   1.246   1.786  0.4947  0.0910  0.3841
  539SOL    HW1 1616   2.558   1.273   1.732  0.4459 -0.7212 -2.7441
  539SOL    HW2 1617   2.652   1.313   1.861 -2.0474  0.8073 -0.4072
  540SOL     OW 1618   1.923   1.870   1.580  0.0163  0.0347 -0.6892
  540SOL    HW1 1619   1.826   1.851   1.604  0.4613 -1.0983 -3.8102
  540SOL    HW2 1620   1.945   1.964   1.614 -0.4820 -2.1481  0.5797
  541SOL     OW 1621   0.658   1.749   1.571 -0.5137 -0.1058  0.1060
  541SOL    HW1 1622   0.673   1.666   1.629  0.0566 -1.1047  1.2692
  541SOL    HW2 1623   0.751   1.776   1.535 -1.1371  0.2491  1.1080
  542SOL     OW 1624   1.766   1.192   1.931  0.7808 -0.2049  0.1380
  542SOL    HW1 1625   1.680   1.230   1.887  1.8001  0.3463 -2.5062
  542SOL    HW2 1626   1.782   1.095   1.905 -1.4918 -0.7998 -0.8454
  543SOL     OW 1627   0.915   0.573   0.709 -0.1358  0.1606  0.0695
  543SOL    HW1 1628   0.875   0.645   0.654 -0.7675 -2.4758  1.5713
  543SOL    HW2 1629   0.947   0.501   0.649 -1.2698 -4.6015  1.2308
  544SOL     OW 1630   2.143   1.946   2.338  0.0616 -0.1095  0.1336
  544SOL    HW1 1631   2.159   1.968   2.239 -2.4345  0.1036  1.3719
  544SOL    HW2 1632   2.226   1.919   2.388 -0.6702 -0.1322  0.7331
  545SOL     OW 1633   1.551   1.605   1.362  0.0285  0.4643 -0.6233
  545SOL    HW1 1634   1.589   1.617   1.270  3.4304  2.6557 -1.6836
  545SOL    HW2 1635   1.587   1.517   1.391 -0.1906  2.2005 -0.0094
  546SOL     OW 1636   0.331   0.228   2.960 -0.8405 -0.8124  1.0569
  546SOL    HW1 1637   0.295   0.217   2.862  0.3365 -1.7362 -1.6745
  546SOL    HW2 1638   0.431   0.201   2.966 -0.5059 -2.5942 -0.9046
  547SOL     OW 1639   2.213   0.694   0.078 -0.1279 -0.7209 -0.3211
  547SOL    HW1 1640   2.147   0.650   0.013 -0.7761  1.7000  0.7906
  547SOL    HW2 1641   2.208   0.648   0.172  2.6214 -0.3443  3.7514
  548SOL     OW 1642   2.420   2.023   2.155  0.0118  0.2022  0.5212
  548SOL    HW1 1643   2.327   2.042   2.121 -1.6692 -0.2137 -2.3603
  548SOL    HW2 1644   2.482   1.978   2.088 -1.5826  1.3552 -1.3876
  549SOL     OW 1645   2.331   3.079   0.965 -0.0593  0.2969  0.1277
  549SOL    HW1 1646   2.370   3.008   1.028  1.3297  0.7206 -0.6597
  549SOL    HW2 1647   2.402   0.028   0.905  1.7143  0.0155  0.3044
  550SOL     OW 1648   2.334   1.637   0.267 -0.5165  0.0955  0.4883
  550SOL    HW1 1649   2.255   1.647   0.205 -0.0529  1.4388 -1.9488
  550SOL    HW2 1650   2.389   1.723   0.263 -0.9073 -1.5592  1.4455
  551SOL     OW 1651   1.372   0.151   1.857  0.2628  0.6980  0.0858
  551SOL    HW1 1652   1.419   0.195   1.934 -0.4968  1.1532  2.0448
  551SOL    HW2 1653   1.432   0.096   1.794 -1.3016 -1.8257 -2.8592
  552SOL     OW 1654   3.030   2.469   2.727  0.0051 -0.0542  0.6293
  552SOL    HW1 1655   2.951   2.536   2.717 -0.1625  3.6131  0.9949
  552SOL    HW2 1656   3.043   2.432   2.821 -2.0996  0.4219  1.9589
  553SOL     OW 1657   0.804   3.022   0.399  0.3839  0.2008 -0.7573
  553SOL    HW1 1658   0.871   3.093   0.417  0.2080 -1.2973  1.2836
  553SOL    HW2 1659   0.710   3.049   0.436 -1.0331  2.1489  0.7747
  554SOL     OW 1660   1.915   2.370   1.672  0.0772  0.4088 -0.0242
  554SOL    HW1 1661   1.954   2.421   1.593 -0.5183 -0.2861  1.8038
  554SOL    HW2 1662   1.882   2.432   1.741  0.3170 -0.0502 -2.6817
  555SOL     OW 1663   1.441   2.205   1.668  0.4880  0.2951 -0.1324
  555SOL    HW1 1664   1.528   2.244   1.633 -2.2825  0.4507 -1.3161
  555SOL    HW2 1665   1.439   2.175   1.763 -2.1515 -1.8205 -3.5819
  556SOL     OW 1666   1.653   1.861   0.511  0.1058 -0.4036  0.1448
  556SOL    HW1 1667   1.615   1.780   0.468  1.7759  2.5121  0.8569
  556SOL    HW2 1668   1.641   1.862   0.613 -0.0283  1.3611 -2.8998
  557SOL     OW 1669   1.444   2.060   1.950 -0.0567 -0.1105  0.2391
  557SOL    HW1 1670   1.522   2.027   1.896 -3.5333  0.8318 -0.1886
  557SOL    HW2 1671   1.429   1.995   2.027 -1.3588 -1.5280  0.6498
  558SOL     OW 1672   2.984   0.300   1.989  0.0961 -0.1041 -0.5888
  558SOL    HW1 1673   2.994   0.401   1.975  0.4846  0.6146  1.7774
  558SOL    HW2 1674   3.056   0.253   1.936  1.4877 -1.0208 -1.2674
  559SOL     OW 1675   2.563   2.971   1.429  0.3617  0.7093 -0.3144
  559SOL    HW1 1676   2.499   2.903   1.394 -0.7978  0.9452  0.0225
  559SOL    HW2 1677   2.648   2.921   1.475  1.5065 -0.7184  4.0913
  560SOL     OW 1678   0.740   2.679   0.145 -0.4012  0.3941  0.2396
  560SOL    HW1 1679   0.685   2.643   0.068  1.3640 -0.2202  1.3634
  560SOL    HW2 1680   0.674   2.705   0.217  0.1135  0.4192 -1.1632
  561SOL     OW 1681   1.213   0.946   0.306  0.1324 -0.1495 -0.3097
  561SOL    HW1 1682   1.136   0.888   0.270  1.2404  0.9753  1.3752
  561SOL    HW2 1683   1.207   1.038   0.261 -1.4432  0.3832  0.5658
  562SOL     OW 1684   0.833   0.701   2.658 -0.2716  0.1841  0.0275
  562SOL    HW1 1685   0.874   0.723   2.567 -1.6792  0.6177 -0.5018
  562SOL    HW2 1686   0.898   0.658   2.727  0.2563  0.7435  1.6760
  563SOL     OW 1687   2.064   2.364   2.646  0.3113  0.3628  0.1533
  563SOL    HW1 1688   2.094   2.361   2.552  2.5955 -0.8931  1.1234
  563SOL    HW2 1689   1.974   2.415   2.658  0.5114  2.3164  0.4561
  564SOL     OW 1690   0.199   1.111   0.196 -0.3628  0.5557 -0.2237
  564SOL    HW1 1691   0.283   1.104   0.146 -0.7139 -0.0792  0.9551
  564SOL    HW2 1692   0.140   1.166   0.137  0.9021 -0.1665  2.4406
  565SOL     OW 1693   1.397   3.060   2.700 -0.3050  0.3973 -0.0527
  565SOL    HW1 1694   1.430   3.021   2.612  1.7327  1.9805  0.3528
  565SOL    HW2 1695   1.462   0.032   2.740  3.1847 -3.5575  1.0663
  566SOL     OW 1696   1.749   2.900   2.584 -1.0737 -0.3172 -0.2767
  566SOL    HW1 1697   1.831   2.898   2.518 -0.5906  1.6812  0.2810
  566SOL    HW2 1698   1.769   2.912   2.687 -1.5591 -1.4651 -0.6272
  567SOL     OW 1699   2.532   1.126   0.934 -0.8687  0.3618  0.1844
  567SOL    HW1 1700   2.520   1.035   0.980 -0.4392 -1.7711  0.7892
  567SOL    HW2 1701   2.445   1.168   0.914  0.3510 -0.0622  0.5376
  568SOL     OW 1702   2.095   1.731   0.108  0.0916 -0.5850  0.2324
  568SOL    HW1 1703   2.032   1.770   0.037 -1.1298 -2.2898  0.9071
  568SOL    HW2 1704   2.047   1.682   0.185 -0.7516 -2.4332  0.9684
  569SOL     OW 1705   2.225   1.735   2.738 -0.3495  0.0132 -0.0228
  569SOL    HW1 1706   2.264   1.719   2.829 -0.6778  0.3474  0.7675
  569SOL    HW2 1707   2.188   1.653   2.686  1.0696  1.2162  2.0935
  570SOL     OW 1708   3.010   2.434   1.850  0.0286 -0.2565  0.6148
  570SOL    HW1 1709   3.021   2.393   1.940  1.1339 -0.7745 -1.4664
  570SOL    HW2 1710   3.040   2.372   1.775  1.1194 -2.2679  0.6983
  571SOL     OW 1711   3.048   0.489   2.298 -0.6016  0.0251  0.0679
  571SOL    HW1 1712   0.039   0.451   2.319  1.8713  1.2653 -3.1718
  571SOL    HW2 1713   3.064   0.565   2.229  2.5843  1.6003 -2.6111
  572SOL     OW 1714   1.087   1.567   0.934  0.5074  0.4471  0.0040
  572SOL    HW1 1715   1.162   1.494   0.930  2.1161  1.7914  0.9051
  572SOL    HW2 1716   1.001   1.518   0.956 -0.7900  1.9376  0.8755
  573SOL     OW 1717   1.045   0.143   0.043  0.0047  0.3047  0.0320
  573SOL    HW1 1718   1.099   0.109   3.056  1.6465  0.1136 -3.9113
  573SOL    HW2 1719   1.083   0.114   0.129 -0.6797  0.2282 -0.8430
  574SOL     OW 1720   0.697   0.269   0.609  0.7129 -0.7616 -0.4812
  574SOL    HW1 1721   0.632   0.294   0.537  1.8946  4.0235  1.0162
  574SOL    HW2 1722   0.656   0.187   0.655 -1.0214 -1.5554  0.6169
  575SOL     OW 1723   0.239   1.218   1.645  0.4945  0.1109  0.2437
  575SOL    HW1 1724   0.254   1.319   1.620 -3.2218 -1.7630 -1.5590
  575SOL    HW2 1725   0.319   1.171   1.679 -0.7428  1.6862 -0.3202
  576SOL     OW 1726   2.217   0.414   1.931 -0.2749  0.5151 -0.3823
  576SOL    HW1 1727   2.296   0.470   1.952 -1.2464 -0.8016 -0.6674
  576SOL    HW2 1728   2.174   0.388   2.020  0.3570  0.0138  0.5589
  577SOL     OW 1729   2.718   1.440   1.956  0.1237  0.4639 -0.0521
  577SOL    HW1 1730   2.785   1.383   2.008  2.8870 -4.6943 -1.8584
  577SOL    HW2 1731   2.772   1.493   1.891  0.1490  0.1767 -1.4712
  578SOL     OW 1732   1.546   2.693   2.301 -0.4474 -0.3081 -0.0557
  578SOL    HW1 1733   1.477   2.625   2.273  0.5989  3.8396 -0.3756
  578SOL    HW2 1734   1.504   2.786   2.305 -0.9755  2.6399  0.4576
  579SOL     OW 1735   2.154   2.122   2.062  0.0209  0.2130  0.3899
  579SOL    HW1 1736   2.056   2.128   2.096 -1.1694 -0.6219  1.4606
  579SOL    HW2 1737   2.153   2.074   1.973  1.8847  2.4843  0.7557
  580SOL     OW 1738   1.720   1.456   2.067  0.1307  0.4713  0.0493
  580SOL    HW1 1739   1.688   1.523   1.991 -0.4179  0.3516  0.5124
  580SOL    HW2 1740   1.777   1.381   2.029 -1.4099  2.5895 -1.5036
  581SOL     OW 1741   1.399   1.203   2.290  0.7178  0.0485 -0.6762
  581SOL    HW1 1742   1.423   1.182   2.192  0.1309 -1.3452 -0.9923
  581SOL    HW2 1743   1.400   1.120   2.351  0.6241 -0.2705  2.2074
  582SOL     OW 1744   0.047   2.003   1.695 -0.2801  0.0859 -0.2345
  582SOL    HW1 1745   0.093   1.936   1.761  0.4689 -0.7433  1.8414
  582SOL    HW2 1746   3.050   2.020   1.726 -2.4870  0.2590  2.0913
  583SOL     OW 1747   1.475   1.242   0.924 -0.6119 -0.0219 -0.7391
  583SOL    HW1 1748   1.420   1.218   0.844  0.3359  1.4708  2.1119
  583SOL    HW2 1749   1.514   1.162   0.972  0.5274  0.1974  0.1188
  584SOL     OW 1750   1.143   2.255   0.494  0.3004 -0.4089 -0.5465
  584SOL    HW1 1751   1.050   2.272   0.453  0.5939  0.6040 -0.6884
  584SOL    HW2 1752   1.123   2.221   0.594 -0.9562 -1.2431  2.3752
  585SOL     OW 1753   0.106   2.483   3.048  0.6200  0.5762  0.1033
  585SOL    HW1 1754   0.070   2.388   3.076 -0.6576 -1.9593  0.4849
  585SOL    HW2 1755   0.193   2.481   2.994  0.6814  0.9578 -0.2811
  586SOL     OW 1756   2.630   1.329   0.417  0.2638 -0.3096 -0.2261
  586SOL    HW1 1757   2.666   1.239   0.385  1.6198 -1.1174 -2.1647
  586SOL    HW2 1758   2.604   1.382   0.338 -1.5795 -0.2807  1.6854
  587SOL     OW 1759   1.071   1.459   2.698 -1.1985  0.2089 -0.1885
  587SOL    HW1 1760   1.139   1.414   2.756 -2.1458  1.1734 -0.4749
  587SOL    HW2 1761   1.056   1.556   2.730  0.0142 -1.5257 -1.0319
  588SOL     OW 1762   0.270   0.372   0.771 -0.1955  0.2618  0.0329
  588SOL    HW1 1763   0.232   0.279   0.746  0.7603  3.2005  0.8203
  588SOL    HW2 1764   0.357   0.360   0.826 -1.4795 -0.2214  0.0792
  589SOL     OW 1765   1.383   0.219   0.620 -0.2041 -0.3758  0.0832
  589SOL    HW1 1766   1.361   0.315   0.598 -2.5216  0.2851  1.2055
  589SOL    HW2 1767   1.301   0.167   0.648  2.1548  0.3165 -0.3257
  590SOL     OW 1768   2.557   2.256   0.489  0.5694 -0.1299  0.1397
  590SOL    HW1 1769   2.655   2.246   0.518 -0.5347  3.8907  0.7221
  590SOL    HW2 1770   2.541   2.285   0.389  0.2915  2.8388 -1.6440
  591SOL     OW 1771   0.285   2.600   2.059 -0.5441  0.3092  0.3259
  591SOL    HW1 1772   0.353   2.584   1.981  0.6829  1.4009 -3.8440
  591SOL    HW2 1773   0.304   2.691   2.099 -1.4280  0.1910 -0.4584
  592SOL     OW 1774   3.007   1.943   2.262  0.2401  0.3955  0.2684
  592SOL    HW1 1775   2.977   1.852   2.226 -1.2572  0.6119  2.9153
  592SOL    HW2 1776   3.043   2.002   2.188 -1.0050  1.3567  2.5854
  593SOL     OW 1777   1.368   1.228   1.332 -0.3603  0.1450  0.9258
  593SOL    HW1 1778   1.461   1.259   1.348 -0.9324  1.5181 -0.4829
  593SOL    HW2 1779   1.333   1.273   1.245  0.6757  1.5279  0.0660
  594SOL     OW 1780   0.634   1.168   2.816  0.1913 -0.7062  0.3191
  594SOL    HW1 1781   0.585   1.203   2.900  1.2277  1.9476 -1.8422
  594SOL    HW2 1782   0.699   1.231   2.770 -0.8264  0.0529 -0.2279
  595SOL     OW 1783   1.325   0.820   0.746 -0.2419 -0.0706 -0.6751
  595SOL    HW1 1784   1.258   0.742   0.750 -1.1694  3.0099  1.0690
  595SOL    HW2 1785   1.280   0.893   0.690 -2.6909 -0.2108 -0.0804
  596SOL     OW 1786   0.305   1.121   1.122  0.7216 -0.1695 -0.5652
  596SOL    HW1 1787   0.405   1.126   1.096  1.9354 -0.3263  0.9447
  596SOL    HW2 1788   0.289   1.132   1.220  1.6699 -0.9498  0.9233
  597SOL     OW 1789   0.752   2.265   2.064 -0.1843  0.4182  0.0909
  597SOL    HW1 1790   0.714   2.358   2.060 -0.0289 -2.8162  0.8053
  597SOL    HW2 1791   0.744   2.218   1.980 -2.0050  1.2665  3.8292
  598SOL     OW 1792   1.947   2.559   2.194 -0.5296 -0.1840 -0.3691
  598SOL    HW1 1793   1.878   2.632   2.173  4.3145 -0.0208  1.3608
  598SOL    HW2 1794   1.905   2.487   2.257 -2.7871 -0.5135 -2.4456
  599SOL     OW 1795   0.815   1.163   0.274  0.1330  0.3125 -0.1683
  599SOL    HW1 1796   0.885   1.197   0.335 -2.0193 -0.2134 -2.2543
  599SOL    HW2 1797   0.834   1.196   0.179 -1.4793 -2.4976  2.1167
  600SOL     OW 1798   1.462   0.625   0.203  0.5936 -0.3733 -0.4008
  600SOL    HW1 1799   1.375   0.595   0.154  0.0464  1.2140 -0.3787
  600SOL    HW2 1800   1.484   0.562   0.276 -1.6656  1.0895 -3.4943
  601SOL     OW 1801   0.595   0.306   1.254 -0.2499  0.3372 -0.2514
  601SOL    HW1 1802   0.554   0.381   1.305  0.3812  0.3987 -4.3125
  601SOL    HW2 1803   0.609   0.324   1.157 -0.7475  1.1148  2.1423
  602SOL     OW 1804   0.301   2.119   0.706 -0.6121 -0.4908 -0.7305
  602SOL    HW1 1805   0.324   2.034   0.649  1.0823 -1.1662  1.7443
  602SOL    HW2 1806   0.310   2.204   0.655  1.5999  1.6036 -2.0650
  603SOL     OW 1807   0.890   2.658   2.574  0.3747  0.7153 -0.0650
  603SOL    HW1 1808   0.993   2.669   2.574  0.9150  1.5784  2.1795
  603SOL    HW2 1809   0.838   2.740   2.545  0.4073 -0.1133  2.0436
  604SOL     OW 1810   0.557   2.237   0.451  0.2609  0.0347 -0.2520
  604SOL    HW1 1811   0.587   2.145   0.426 -2.1717  1.9771  0.0211
  604SOL    HW2 1812   0.623   2.282   0.515  0.2187  1.1705  0.0387
  605SOL     OW 1813   1.839   1.499   1.726  0.1677  0.8243 -0.2262
  605SOL    HW1 1814   1.848   1.398   1.727  0.3556 -0.6816 -2.5186
  605SOL    HW2 1815   1.927   1.544   1.704 -0.1756 -2.0027 -0.4645
  606SOL     OW 1816   0.951   1.106   2.705 -0.4066  0.3092  0.1522
  606SOL    HW1 1817   0.916   1.198   2.692  0.4997  0.0785 -0.3370
  606SOL    HW2 1818   0.995   1.092   2.795 -2.1273 -0.1674  0.8653
  607SOL     OW 1819   1.117   0.892   1.142 -0.3175  0.1907 -0.0159
  607SOL    HW1 1820   1.161   0.904   1.234 -1.6456 -1.7081  1.0829
  607SOL    HW2 1821   1.038   0.956   1.134 -1.3987 -0.7714 -0.2057
  608SOL     OW 1822   2.802   2.218   2.003 -0.5784  0.3811 -0.0213
  608SOL    HW1 1823   2.772   2.148   2.073  2.7189  0.2588  1.4042
  608SOL    HW2 1824   2.890   2.256   2.028  0.5868  0.8307  0.5804
  609SOL     OW 1825   2.285   0.029   0.422  0.5496 -0.2460 -0.2256
  609SOL    HW1 1826   2.352   0.030   0.345 -0.1360  1.0590  2.3514
  609SOL    HW2 1827   2.212   3.064   0.397 -0.7647  0.9511  0.1928
  610SOL     OW 1828   0.170   2.300   1.424 -0.1182  0.7303 -0.1528
  610SOL    HW1 1829   0.204   2.387   1.400 -0.3378 -3.6397  1.9788
  610SOL    HW2 1830   0.076   2.283   1.381 -2.6893 -1.2952 -0.4708
  611SOL     OW 1831   1.681   2.134   0.357 -0.3355 -0.0443 -0.0668
  611SOL    HW1 1832   1.783   2.145   0.365 -1.0238 -1.3772  0.3951
  611SOL    HW2 1833   1.649   2.050   0.399 -0.4221 -0.9469 -1.2782
  612SOL     OW 1834   0.660   0.094   1.947  0.4471 -0.8582  0.1489
  612SOL    HW1 1835   0.732   0.142   1.896  0.4861 -0.3570  1.5564
  612SOL    HW2 1836   0.570   0.148   1.964 -1.9607  1.5149  1.4515
  613SOL     OW 1837   3.044   1.429   0.467 -0.1810 -0.5086 -0.7498
  613SOL    HW1 1838   2.986   1.381   0.542 -2.7304 -3.7304  0.8663
  613SOL    HW2 1839   2.985   1.461   0.392  1.1739 -2.6757 -0.9930
  614SOL     OW 1840   1.874   0.525   2.025 -0.2717  0.1943  0.1449
  614SOL    HW1 1841   1.901   0.617   1.990 -1.8998  1.1811 -0.3256
  614SOL    HW2 1842   1.822   0.489   1.945  2.0319 -0.5634  0.6519
  615SOL     OW 1843   0.893   1.390   1.060 -0.7332  0.2530  0.0860
  615SOL    HW1 1844   0.894   1.465   1.132  0.0559  0.7158 -1.0007
  615SOL    HW2 1845   0.800   1.388   1.020  0.4923  0.4638  2.7608
  616SOL     OW 1846   1.645   1.779   2.919  0.0224  0.0426  0.2620
  616SOL    HW1 1847   1.568   1.809   2.983 -2.4180  3.2617  0.1914
  616SOL    HW2 1848   1.732   1.810   2.959  0.6340  0.3292 -1.3746
  617SOL     OW 1849   2.048   2.955   0.348 -0.3361 -0.6096 -0.1624
  617SOL    HW1 1850   2.039   2.955   0.245  0.0646 -0.5889  1.2594
  617SOL    HW2 1851   2.012   2.872   0.390  3.0594  0.8464  2.5912
  618SOL     OW 1852   0.573   0.701   2.536  0.7927  0.1278  0.5990
  618SOL    HW1 1853   0.549   0.795   2.565 -0.3847 -1.2012  1.4355
  618SOL    HW2 1854   0.660   0.677   2.582  1.7638  2.1096  1.3899
  619SOL     OW 1855   2.896   1.508   0.999 -0.7004  0.5316  0.0975
  619SOL    HW1 1856   2.895   1.526   0.901  0.3199  0.4458 -0.3483
  619SOL    HW2 1857   2.954   1.424   1.017  2.9727 -3.4433 -0.3737
  620SOL     OW 1858   2.090   2.979   2.933 -0.2294 -0.0397 -0.4214
  620SOL    HW1 1859   2.156   2.943   2.858  2.0006 -0.3885  0.8527
  620SOL    HW2 1860   2.009   3.024   2.894 -1.2929 -0.8260  0.2515
  621SOL     OW 1861   2.357   1.641   2.972 -0.3180 -0.1337 -0.8201
  621SOL    HW1 1862   2.360   1.557   2.919 -0.9196  0.7443  3.4588
  621SOL    HW2 1863   2.449   1.679   2.991  0.5710 -0.1154  1.2747
  622SOL     OW 1864   1.677   2.955   1.992 -0.3044 -0.0676 -0.1332
  622SOL    HW1 1865   1.603   2.972   1.916 -1.9105  4.5003 -0.6203
  622SOL    HW2 1866   1.774   2.986   1.967  3.2140 -2.1145 -3.2454
  623SOL     OW 1867   1.197   1.832   0.540 -0.6375 -0.2309  0.3578
  623SOL    HW1 1868   1.233   1.897   0.611 -1.2942  2.9132  1.3927
  623SOL    HW2 1869   1.153   1.879   0.462 -0.9181  0.1604  0.9091
  624SOL     OW 1870   0.174   2.930   0.049 -0.0513 -0.0776 -0.3335
  624SOL    HW1 1871   0.262   2.889   0.016  2.3106  0.2867  0.4205
  624SOL    HW2 1872   0.178   3.031   0.041  2.9140  1.3588  2.5204
  625SOL     OW 1873   0.855   1.595   0.358  0.2842 -0.7879 -0.0760
  625SOL    HW1 1874   0.759   1.587   0.329  0.0877 -0.3425 -0.8544
  625SOL    HW2 1875   0.858   1.614   0.458  0.7489  1.2727  1.6931
  626SOL     OW 1876   2.988   2.869   0.062  0.0785  0.0506  0.2267
  626SOL    HW1 1877   3.075   2.852   0.117  1.4435 -0.7780  0.5100
  626SOL    HW2 1878   3.021   2.929   3.081  3.6444 -0.1749  3.5551
  627SOL     OW 1879   1.303   1.923   2.684  0.0222 -0.2940 -0.6222
  627SOL    HW1 1880   1.212   1.925   2.641  0.0852  0.1902 -0.8067
  627SOL    HW2 1881   1.294   1.881   2.778 -4.0269 -0.4943  1.3725
  628SOL     OW 1882   0.295   0.094   2.729 -0.3734  0.3885 -0.5802
  628SOL    HW1 1883   0.391   0.115   2.705  0.1505  2.8268 -0.4808
  628SOL    HW2 1884   0.286   0.007   2.784  0.1795 -1.5410  1.8457
  629SOL     OW 1885   0.452   3.097   2.360 -0.1207  0.4087 -0.4540
  629SOL    HW1 1886   0.546   3.085   2.334 -2.9424  2.6795  1.1309
  629SOL    HW2 1887   0.384   3.097   2.283  1.0261 -0.5438  1.2071
  630SOL     OW 1888   1.343   1.219   1.613  0.6488 -0.5653  0.2664
  630SOL    HW1 1889   1.323   1.206   1.514 -2.8045 -0.4147  2.5195
  630SOL    HW2 1890   1.281   1.154   1.668 -4.0389 -1.7256 -0.4600
  631SOL     OW 1891   2.358   1.061   0.594 -0.0006 -0.0803 -0.3800
  631SOL    HW1 1892   2.338   1.020   0.687 -0.6286  0.9720  0.7036
  631SOL    HW2 1893   2.427   1.007   0.542  0.2692  1.3250 -0.0959
  632SOL     OW 1894   2.389   0.660   2.052  0.1601  0.2952  0.5603
  632SOL    HW1 1895   2.315   0.713   2.095  3.0888 -1.6155 -1.1476
  632SOL    HW2 1896   2.424   0.586   2.116 -0.8238 -0.3728  1.9933
  633SOL     OW 1897   0.764   2.032   0.405  0.0822 -0.3336 -0.4926
  633SOL    HW1 1898   0.788   2.086   0.324  1.4050 -0.0411 -0.3470
  633SOL    HW2 1899   0.818   2.066   0.482 -2.0853  0.8254 -1.0399
  634SOL     OW 1900   1.670   2.517   2.494  0.3168 -0.2338 -0.1771
  634SOL    HW1 1901   1.610   2.588   2.447 -0.5879 -1.2741 -0.9744
  634SOL    HW2 1902   1.610   2.462   2.562 -1.2880 -1.4189  3.8162
  635SOL     OW 1903   2.017   0.309   0.194 -0.4834  0.4839  0.4274
  635SOL    HW1 1904   2.098   0.258   0.149 -0.5347  1.0057 -0.9545
  635SOL    HW2 1905   2.028   0.332   0.293  0.0862  1.4327  1.7978
  636SOL     OW 1906   0.723   1.353   0.712  0.1463 -0.0338 -0.1284
  636SOL    HW1 1907   0.646   1.336   0.648  0.6398  0.6072 -1.0448
  636SOL    HW2 1908   0.782   1.268   0.719 -1.8732 -1.0807  0.4513
  637SOL     OW 1909   3.053   2.033   0.704 -0.5523  0.3363 -0.0078
  637SOL    HW1 1910   3.094   2.073   0.785 -0.9490  0.0198  0.0652
  637SOL    HW2 1911   2.958   2.056   0.690  1.6871 -2.5894  0.5326
  638SOL     OW 1912   0.912   3.094   2.902  0.3427 -0.0138  0.6029
  638SOL    HW1 1913   0.858   3.009   2.927 -0.4978  1.4210 -0.0282
  638SOL    HW2 1914   1.000   0.008   2.950  1.6086 -2.4372  0.3996
  639SOL     OW 1915   1.487   1.864   0.005  0.2923 -0.6413 -0.2839
  639SOL    HW1 1916   1.461   1.790   0.068  2.4129  0.5001  0.1402
  639SOL    HW2 1917   1.539   1.931   0.054  0.7906 -0.6783  2.4485
  640SOL     OW 1918   1.854   2.902   0.803 -0.2496 -0.5461 -0.4975
  640SOL    HW1 1919   1.935   2.892   0.740  2.8013  0.3931  0.0681
  640SOL    HW2 1920   1.774   2.852   0.768 -0.6705  1.1435 -0.0915
  641SOL     OW 1921   3.094   2.918   0.642  0.2469 -0.2349  0.5986
  641SOL    HW1 1922   3.022   2.857   0.595 -1.1350  0.7540 -1.5561
  641SOL    HW2 1923   0.007   3.004   0.587 -1.0270  0.4215 -0.1475
  642SOL     OW 1924   1.008   0.214   1.597 -0.3279  0.3103  0.3092
  642SOL    HW1 1925   0.964   0.207   1.502 -4.2993 -0.7165 -3.4366
  642SOL    HW2 1926   1.097   0.264   1.593  1.6976  0.8358 -1.0889
  643SOL     OW 1927   0.505   2.033   1.983 -0.3754  0.2957  0.6071
  643SOL    HW1 1928   0.579   2.078   1.935 -0.2173  2.8035  0.0041
  643SOL    HW2 1929   0.421   2.044   1.922 -1.7863  2.4317 -2.4157
  644SOL     OW 1930   0.558   2.724   0.345  0.0025  0.5047  0.1055
  644SOL    HW1 1931   0.471   2.777   0.349 -1.1684 -1.1777 -2.8817
  644SOL    HW2 1932   0.597   2.709   0.439 -1.7759 -1.0447 -2.7470
  645SOL     OW 1933   1.420   2.151   2.885 -0.7109  0.1052  0.2379
  645SOL    HW1 1934   1.418   2.051   2.908 -1.5599 -0.6061  0.3960
  645SOL    HW2 1935   1.444   2.211   2.963  0.5616  0.3315  1.1573
  646SOL     OW 1936   0.477   1.269   3.025  0.0047  0.1187  0.7646
  646SOL    HW1 1937   0.380   1.278   3.002 -0.3321 -1.0016  1.8118
  646SOL    HW2 1938   0.520   1.353   3.061  1.9448  1.5112  0.3612
  647SOL     OW 1939   0.911   0.153   0.776 -0.5796  0.2257 -0.4730
  647SOL    HW1 1940   0.884   0.156   0.677  0.5754 -1.3607 -0.1881
  647SOL    HW2 1941   0.858   0.221   0.829 -2.3390  2.1046 -1.1902
  648SOL     OW 1942   1.886   0.317   1.617 -0.1103 -0.2930 -0.1946
  648SOL    HW1 1943   1.851   0.367   1.537  0.6166  0.9155 -1.2654
  648SOL    HW2 1944   1.980   0.358   1.634  0.6570 -1.1957  0.1411
  649SOL     OW 1945   1.053   1.898   2.603  0.2388  0.0349  0.0821
  649SOL    HW1 1946   0.973   1.950   2.647 -0.7251  1.6834  1.8304
  649SOL    HW2 1947   1.068   1.811   2.653 -1.9607 -2.3337  2.8490
  650SOL     OW 1948   2.680   1.731   1.572 -0.6793 -0.3535 -0.8413
  650SOL    HW1 1949   2.635   1.792   1.510  2.1422 -2.4412  2.6665
  650SOL    HW2 1950   2.704   1.646   1.522  1.7928 -2.8271 -0.5921
  651SOL     OW 1951   1.181   3.054   0.264 -0.3398 -0.0697  0.8784
  651SOL    HW1 1952   1.126   2.994   0.205  1.2685  1.7919 -0.8323
  651SOL    HW2 1953   1.233   2.996   0.334 -0.8123 -0.5983  0.9489
  652SOL     OW 1954   2.896   1.676   0.022 -0.4637 -0.4887 -0.0068
  652SOL    HW1 1955   2.810   1.630   0.021  0.0439 -1.8146 -2.0268
  652SOL    HW2 1956   2.888   1.777   3.089 -1.2875 -1.4597 -0.0850
  653SOL     OW 1957   3.094   0.360   1.056  0.4476 -0.1375 -0.0625
  653SOL    HW1 1958   3.092   0.386   1.156  0.5735  0.7254  0.7591
  653SOL    HW2 1959   3.033   0.423   1.000  0.5557 -1.1448  1.2425
  654SOL     OW 1960   2.129   0.096   2.628 -0.4775  0.0114  0.1307
  654SOL    HW1 1961   2.070   0.091   2.551  3.6022  1.3448  3.4468
  654SOL    HW2 1962   2.167   3.096   2.648  3.3713 -0.7007  1.2468
  655SOL     OW 1963   0.398   2.530   1.014 -0.4968  0.4273 -0.2081
  655SOL    HW1 1964   0.369   2.615   1.066 -0.9567 -2.0889  3.1812
  655SOL    HW2 1965   0.377   2.446   1.072  2.5219  2.2450  3.2130
  656SOL     OW 1966   0.263   0.019   2.139  0.2489  0.0506 -0.5065
  656SOL    HW1 1967   0.165   0.050   2.128 -2.5980  2.3091 -0.2346
  656SOL    HW2 1968   0.261   3.017   2.162 -1.2824  0.0421 -1.5222
  657SOL     OW 1969   2.332   0.492   2.534  0.3597  0.2589  0.1927
  657SOL    HW1 1970   2.243   0.485   2.491 -3.0211  2.1503  2.0444
  657SOL    HW2 1971   2.345   0.416   2.606 -0.6558 -1.3995 -0.0932
  658SOL     OW 1972   2.260   1.861   1.190 -0.2209  0.0350 -0.4178
  658SOL    HW1 1973   2.262   1.926   1.108  2.3394  1.1780 -2.1254
  658SOL    HW2 1974   2.210   1.897   1.273 -2.6350  0.0802 -2.5544
  659SOL     OW 1975   2.236   0.173   0.083  0.2573  0.0460 -0.3125
  659SOL    HW1 1976   2.319   0.202   0.132 -2.7888  2.1701  0.9222
  659SOL    HW2 1977   2.258   0.086   0.037 -0.8122 -1.7149 -0.3800
  660SOL     OW 1978   1.483   1.520   3.005 -0.5612  0.1536  0.1544
  660SOL    HW1 1979   1.569   1.527   2.950 -1.4925 -0.6476 -2.5534
  660SOL    HW2 1980   1.482   1.594   3.079 -1.2004  1.8657  1.0008
  661SOL     OW 1981   2.401   2.519   0.817 -0.6445  0.1111 -0.3834
  661SOL    HW1 1982   2.389   2.420   0.802  0.0127  2.5247 -1.2746
  661SOL    HW2 1983   2.495   2.555   0.796 -0.6171 -0.7846  1.7792
  662SOL     OW 1984   0.613   0.696   0.242  0.1899 -0.9455  0.6063
  662SOL    HW1 1985   0.701   0.650   0.236 -1.5617 -0.3612  0.0447
  662SOL    HW2 1986   0.613   0.789   0.288  1.7877  1.8165  2.5516
  663SOL     OW 1987   1.849   2.175   3.066  0.0599 -0.6769 -0.6733
  663SOL    HW1 1988   1.802   2.227   2.994  2.5303  0.6358  0.2954
  663SOL    HW2 1989   1.949   2.187   3.050 -2.0756 -0.4180  0.2835
  664SOL     OW 1990   0.657   2.058   1.242  0.2402 -0.1212 -0.2460
  664SOL    HW1 1991   0.643   2.155   1.266 -0.9925  1.0807 -0.0259
  664SOL    HW2 1992   0.712   2.001   1.307 -3.4010  0.1210 -0.0402
  665SOL     OW 1993   1.731   2.262   1.952  0.2676  0.2202  0.5405
  665SOL    HW1 1994   1.809   2.314   1.913 -2.1171  2.6201 -0.1056
  665SOL    HW2 1995   1.725   2.162   1.926 -0.8743 -3.8505 -1.8269
  666SOL     OW 1996   0.496   2.483   0.239 -0.3842 -0.1709  0.2997
  666SOL    HW1 1997   0.525   2.572   0.281  2.3747  1.9761  2.6196
  666SOL    HW2 1998   0.525   2.404   0.294 -1.2776 -1.1182 -1.2852
  667SOL     OW 1999   2.281   1.380   2.001  0.4790  0.0529  0.0888
  667SOL    HW1 2000   2.363   1.344   2.054  3.1707  0.5889  1.6667
  667SOL    HW2 2001   2.192   1.348   2.036  0.7200  1.6312  2.0410
  668SOL     OW 2002   0.336   0.478   2.584 -0.4829 -0.4640  0.1510
  668SOL    HW1 2003   0.441   0.470   2.587 -1.2419 -1.8485 -1.2650
  668SOL    HW2 2004   0.304   0.407   2.518  0.8717  0.5794  0.9167
  669SOL     OW 2005   1.664   2.176   2.624  0.0791 -0.7545  0.3473
  669SOL    HW1 2006   1.641   2.078   2.640 -0.9352 -2.4967  2.1837
  669SOL    HW2 2007   1.731   2.183   2.548  0.1602 -1.5499 -2.1066
  670SOL     OW 2008   2.458   2.271   2.910  0.1905  0.4721 -0.0438
  670SOL    HW1 2009   2.416   2.357   2.953 -1.1766  2.1373 -3.2441
  670SOL    HW2 2010   2.422   2.250   2.817 -2.3176  0.0057 -3.1029
  671SOL     OW 2011   0.592   1.134   1.094 -0.1026 -0.2182 -0.0013
  671SOL    HW1 2012   0.636   1.126   1.184  1.2806  0.8731 -1.1608
  671SOL    HW2 2013   0.612   1.226   1.054  0.5874  1.9976 -0.6390
  672SOL     OW 2014   2.433   0.903   2.393 -0.0487 -0.0036  0.2599
  672SOL    HW1 2015   2.436   0.926   2.292 -0.4253 -0.4040 -2.3102
  672SOL    HW2 2016   2.486   0.970   2.447 -0.3872 -0.4997 -0.3122
  673SOL     OW 2017   2.499   2.752   2.130 -0.0495 -0.1854  1.2137
  673SOL    HW1 2018   2.586   2.806   2.139  2.2193 -0.4867  3.0169
  673SOL    HW2 2019   2.463   2.732   2.032 -3.5825 -0.7519 -1.3008
  674SOL     OW 2020   0.989   2.563   2.236 -0.6520 -0.0851  0.0656
  674SOL    HW1 2021   1.015   2.476   2.187  1.7421  0.7999 -1.5829
  674SOL    HW2 2022   1.015   2.559   2.335  2.2577  1.2037  0.8006
  675SOL     OW 2023   0.680   0.851   1.674 -0.0562 -0.3938 -1.1779
  675SOL    HW1 2024   0.735   0.776   1.720  0.6683 -2.0653  1.2082
  675SOL    HW2 2025   0.732   0.936   1.680  0.3706  2.2866  1.3519
  676SOL     OW 2026   1.864   0.877   0.808  0.0078 -0.1202  0.0992
  676SOL    HW1 2027   1.769   0.843   0.819 -1.6472  2.7729  0.7002
  676SOL    HW2 2028   1.877   0.927   0.723 -0.7570 -0.3756  1.3210
  677SOL     OW 2029   2.763   1.902   2.488 -0.3964  0.5933  0.1437
  677SOL    HW1 2030   2.712   1.873   2.570 -0.3035  0.2592  1.7667
  677SOL    HW2 2031   2.732   1.851   2.409  0.5021  3.0248  2.0493
  678SOL     OW 2032   2.588   2.059   1.064 -0.6027  0.2360 -0.0630
  678SOL    HW1 2033   2.598   2.152   1.099 -2.7194 -2.4411  0.1818
  678SOL    HW2 2034   2.543   1.995   1.129  1.2877 -0.2562  1.8188
  679SOL     OW 2035   1.661   2.775   0.677  0.3559  0.7766  0.4634
  679SOL    HW1 2036   1.686   2.673   0.664 -1.6531 -2.4371  2.0574
  679SOL    HW2 2037   1.646   2.829   0.591 -1.4387  0.2960 -1.1119
  680SOL     OW 2038   0.269   2.714   2.392  0.4091  0.7823  0.0059
  680SOL    HW1 2039   0.275   2.795   2.461  1.1279  1.9160 -0.0215
  680SOL    HW2 2040   0.355   2.656   2.389  0.2831 -0.1040 -1.8359
  681SOL     OW 2041   2.973   1.359   1.591  0.0548 -0.2040 -0.6300
  681SOL    HW1 2042   3.021   1.421   1.656 -0.4200  0.4317 -1.3631
  681SOL    HW2 2043   2.935   1.272   1.630  1.0002 -0.5135 -3.5409
  682SOL     OW 2044   0.309   1.780   1.292  0.5484  0.0740 -0.1170
  682SOL    HW1 2045   0.281   1.845   1.365  1.0166  0.6814  1.6909
  682SOL    HW2 2046   0.378   1.814   1.230  0.2944 -0.2078 -3.1955
  683SOL     OW 2047   2.231   1.429   1.233 -0.0690 -0.0492 -0.3399
  683SOL    HW1 2048   2.272   1.437   1.144 -1.1093 -0.6165  3.1041
  683SOL    HW2 2049   2.294   1.470   1.299  2.3055  0.7891 -0.2878
  684SOL     OW 2050   2.626   1.562   3.089 -0.1865  0.1764 -0.1435
  684SOL    HW1 2051   2.649   1.480   3.040 -2.7308 -0.2381  1.5331
  684SOL    HW2 2052   2.592   1.531   0.083 -0.4858  3.1845 -2.9186
  685SOL     OW 2053   1.548   1.259   2.928 -0.0362  0.0158  0.3178
  685SOL    HW1 2054   1.522   1.334   2.988  1.7319 -0.0652 -0.4501
  685SOL    HW2 2055   1.514   1.264   2.830  1.3397  0.2601  0.4631
  686SOL     OW 2056   0.268   0.242   1.088  0.2437  0.3503  0.0638
  686SOL    HW1 2057   0.284   0.182   1.168 -0.1259  0.6575 -1.6556
  686SOL    HW2 2058   0.176   0.288   1.089 -1.8864 -1.2116  0.9360
  687SOL     OW 2059   0.961   2.004   2.369  0.1092  0.1729 -0.2027
  687SOL    HW1 2060   0.990   1.964   2.280 -0.7428 -0.1914 -1.4862
  687SOL    HW2 2061   1.004   1.949   2.446  0.6397  0.9210  1.0466
  688SOL     OW 2062   0.097   1.705   1.139 -0.5713  0.7259  0.2112
  688SOL    HW1 2063   0.181   1.723   1.191 -0.6710  0.8035  1.3517
  688SOL    HW2 2064   0.120   1.646   1.058 -0.3480 -0.3895  2.1292
  689SOL     OW 2065   1.682   0.704   1.576  0.2554 -0.2382 -0.0428
  689SOL    HW1 2066   1.676   0.805   1.582  1.1655  1.6281  0.7481
  689SOL    HW2 2067   1.678   0.660   1.485  0.0853  1.5374 -0.0664
  690SOL     OW 2068   2.504   0.897   1.076  0.0335 -0.5408 -0.2621
  690SOL    HW1 2069   2.450   0.824   1.129 -0.1912  0.8514 -1.3943
  690SOL    HW2 2070   2.592   0.933   1.116 -1.5718  2.2749  1.6170
  691SOL     OW 2071   0.302   2.225   1.876  0.8375  0.0838 -0.4104
  691SOL    HW1 2072   0.256   2.272   1.955 -1.5428 -0.6209  3.3109
  691SOL    HW2 2073   0.253   2.231   1.790 -0.9647 -1.7334 -2.6906
  692SOL     OW 2074   1.879   2.963   1.071 -0.0508 -0.0072  0.4269
  692SOL    HW1 2075   1.867   2.947   0.971 -1.6663 -2.0513 -0.4043
  692SOL    HW2 2076   1.970   2.920   1.088  0.1822  0.2379 -1.9755
  693SOL     OW 2077   0.086   1.433   2.408  0.2360 -0.1699 -0.5491
  693SOL    HW1 2078   0.152   1.511   2.417 -3.2582  1.5458 -2.7910
  693SOL    HW2 2079   0.015   1.448   2.337 -0.6178  2.0239 -1.7069
  694SOL     OW 2080   2.166   0.615   1.117 -0.0531  0.3405  0.1979
  694SOL    HW1 2081   2.244   0.669   1.158  2.1172 -1.3443 -2.5866
  694SOL    HW2 2082   2.086   0.673   1.107  4.2173 -3.0412  0.9240
  695SOL     OW 2083   1.108   1.489   1.761 -0.0467 -0.4624 -0.0774
  695SOL    HW1 2084   1.192   1.493   1.708 -1.4691  2.0151 -0.1638
  695SOL    HW2 2085   1.113   1.414   1.834 -1.7529 -0.5673  2.7718
  696SOL     OW 2086   1.334   2.918   3.064 -0.8018 -0.1513 -0.0355
  696SOL    HW1 2087   1.280   2.864   0.033  0.6380 -0.7053  1.6647
  696SOL    HW2 2088   1.397   2.979   0.018  0.5089  0.9835 -0.3614
  697SOL     OW 2089   0.971   0.283   1.115  0.3583  0.3308  0.2197
  697SOL    HW1 2090   0.907   0.300   1.034 -0.3053  1.8764 -1.3987
  697SOL    HW2 2091   1.030   0.197   1.108 -1.0493  1.6292  0.0443
  698SOL     OW 2092   1.191   1.539   2.123  0.4346 -0.0049  0.2988
  698SOL    HW1 2093   1.184   1.450   2.074 -0.5845  0.0344 -2.3511
  698SOL    HW2 2094   1.097   1.576   2.139  1.3669 -0.7706 -0.2298
  699SOL     OW 2095   1.367   0.858   1.020 -0.2051  0.7906 -0.5050
  699SOL    HW1 2096   1.274   0.872   1.054 -1.0937 -1.0621 -1.6102
  699SOL    HW2 2097   1.361   0.822   0.924  0.9874 -2.2286 -0.6939
  700SOL     OW 2098   1.020   2.809   0.405 -0.2973 -0.1537 -0.1896
  700SOL    HW1 2099   0.938   2.868   0.411  0.7218 -0.0961 -1.8155
  700SOL    HW2 2100   1.075   2.824   0.489 -0.9859  0.4129 -0.5286
  701SOL     OW 2101   2.428   2.975   2.619 -0.0240 -0.4929 -0.0655
  701SOL    HW1 2102   2.481   2.889   2.599  1.4490 -0.5195 -0.6655
  701SOL    HW2 2103   2.461   3.055   2.555 -0.2006  0.4247 -1.0878
  702SOL     OW 2104   1.313   0.240   0.221 -0.2845 -0.2933 -0.0637
  702SOL    HW1 2105   1.296   0.141   0.222 -2.2125  0.3658 -2.0066
  702SOL    HW2 2106   1.408   0.262   0.246 -0.4988  1.2120 -1.2253
  703SOL     OW 2107   2.467   0.109   2.469 -0.8426  0.0904  0.5478
  703SOL    HW1 2108   2.391   0.081   2.410 -1.0747  1.0641  1.6020
  703SOL    HW2 2109   2.443   0.193   2.525  2.3204  2.7818  0.2442
  704SOL     OW 2110   3.015   1.735   0.671  0.2638 -0.0676  0.5714
  704SOL    HW1 2111   3.059   1.721   0.580  1.4021  1.2993 -0.5871
  704SOL    HW2 2112   3.020   1.837   0.704  1.3746  2.1129  0.2877
  705SOL     OW 2113   2.984   3.006   2.262 -0.6410 -0.4492  0.7333
  705SOL    HW1 2114   3.028   3.087   2.216 -0.4413 -0.0325 -4.3399
  705SOL    HW2 2115   3.024   2.987   2.352  0.0748  2.4061 -0.8611
  706SOL     OW 2116   2.023   2.631   0.687 -0.0366  0.1511 -0.6291
  706SOL    HW1 2117   2.117   2.662   0.701 -2.5532 -1.3753 -2.6319
  706SOL    HW2 2118   2.020   2.527   0.681  0.5580 -2.6336  1.8557
  707SOL     OW 2119   0.885   1.934   1.384 -0.0933 -0.1001 -0.4702
  707SOL    HW1 2120   0.874   1.964   1.479  0.4358  2.0073  2.2808
  707SOL    HW2 2121   0.952   1.988   1.332  0.3169 -3.1885 -1.0791
  708SOL     OW 2122   0.003   2.256   1.621 -0.0054 -0.7537 -0.3649
  708SOL    HW1 2123   0.073   2.294   1.552  1.1697  0.7999 -2.8201
  708SOL    HW2 2124   0.019   2.158   1.632 -1.6429  2.5647  1.8124
  709SOL     OW 2125   2.141   0.074   2.035 -0.4338 -0.1817 -0.7048
  709SOL    HW1 2126   2.158   0.028   2.124  0.9977 -0.0185 -1.0181
  709SOL    HW2 2127   2.221   0.061   1.975 -1.0924 -0.3765  1.6438
  710SOL     OW 2128   2.049   0.943   2.760  0.3411 -0.3716  0.8482
  710SOL    HW1 2129   2.057   0.942   2.861 -1.0446  0.1376 -3.4387
  710SOL    HW2 2130   2.142   0.950   2.717  1.6663 -0.6945  1.7126
  711SOL     OW 2131   1.064   2.059   2.960 -0.1152 -0.3755 -0.3697
  711SOL    HW1 2132   1.073   2.125   3.036  0.0097 -0.0315 -0.4182
  711SOL    HW2 2133   1.050   2.110   2.875  2.2184  1.1129  0.1687
  712SOL     OW 2134   0.598   2.320   2.505  0.1836  0.2961  0.4750
  712SOL    HW1 2135   0.652   2.272   2.431  1.8297  1.5525  1.8986
  712SOL    HW2 2136   0.501   2.286   2.514 -2.8181  1.0086  3.9424
  713SOL     OW 2137   1.869   1.298   2.936 -0.3931 -0.1273  0.3460
  713SOL    HW1 2138   1.776   1.343   2.933 -1.1117 -0.6077 -2.1062
  713SOL    HW2 2139   1.889   1.268   3.033 -0.7847  0.2946 -1.8765
  714SOL     OW 2140   1.058   1.702   1.397 -0.4867  0.3996  0.9255
  714SOL    HW1 2141   1.148   1.747   1.384 -2.3917  0.1054 -1.7950
  714SOL    HW2 2142   0.993   1.769   1.438  0.8465  2.2623 -1.9625
  715SOL     OW 2143   1.681   0.275   0.040 -0.3798 -0.3853  0.9385
  715SOL    HW1 2144   1.764   0.334   0.030 -0.1318 -3.7094  0.5159
  715SOL    HW2 2145   1.710   0.178   0.048  0.1845  0.4881  0.5916
  716SOL     OW 2146   0.181   2.851   2.160 -0.0310 -0.2322 -0.1755
  716SOL    HW1 2147   0.093   2.839   2.115  2.6604 -3.0947 -1.5229
  716SOL    HW2 2148   0.199   2.777   2.228 -0.1465 -0.3423 -0.0985
  717SOL     OW 2149   3.032   0.683   1.233  0.1608 -0.5409  0.1654
  717SOL    HW1 2150   3.066   0.781   1.247 -3.4561  3.2617  1.7048
  717SOL    HW2 2151   2.941   0.664   1.279  0.8619  0.6221 -0.8512
  718SOL     OW 2152   0.668   1.235   2.391 -0.0044  0.2305  0.4557
  718SOL    HW1 2153   0.638   1.285   2.472 -0.3108  2.7656 -0.1269
  718SOL    HW2 2154   0.610   1.261   2.309  0.7359 -0.8838  0.0493
  719SOL     OW 2155   2.441   1.263   0.038 -0.4085  0.4013 -0.1358
  719SOL    HW1 2156   2.347   1.221   0.029 -2.2184 -1.6751  1.0709
  719SOL    HW2 2157   2.506   1.234   3.060  0.7141 -0.7322 -0.4213
  720SOL     OW 2158   0.841   0.774   0.923 -0.1109 -0.3471 -0.2144
  720SOL    HW1 2159   0.894   0.703   0.883 -1.1240 -0.0761 -1.6427
  720SOL    HW2 2160   0.828   0.756   1.021  1.3790 -1.5867 -1.3922
  721SOL     OW 2161   2.624   0.271   0.381  0.1686 -0.5711  0.0695
  721SOL    HW1 2162   2.591   0.258   0.284 -1.7012 -0.6448 -1.3442
  721SOL    HW2 2163   2.686   0.194   0.402 -0.9240  0.0151 -0.1326
  722SOL     OW 2164   2.040   0.622   2.989  0.6272 -0.3266 -0.1894
  722SOL    HW1 2165   2.052   0.717   2.966  0.2270 -2.2894 -0.1365
  722SOL    HW2 2166   2.029   0.572   2.902  0.5006  1.4505  1.2246
  723SOL     OW 2167   2.648   0.495   0.599 -0.5464 -0.3631  0.1944
  723SOL    HW1 2168   2.657   0.425   0.523 -2.8000 -0.1370 -0.1121
  723SOL    HW2 2169   2.611   0.457   0.687 -2.1460  1.5230 -0.2036
  724SOL     OW 2170   0.728   1.652   1.865  0.5028 -0.2443 -0.3447
  724SOL    HW1 2171   0.697   1.578   1.922 -0.6547  1.3809 -0.6962
  724SOL    HW2 2172   0.753   1.619   1.773 -1.2252  1.5373 -0.4285
  725SOL     OW 2173   1.763   0.404   1.386 -0.0726  0.2165 -0.2914
  725SOL    HW1 2174   1.729   0.496   1.359  1.7032 -1.7221  0.0972
  725SOL    HW2 2175   1.822   0.371   1.313 -0.7098  3.1635 -2.5077
  726SOL     OW 2176   1.905   2.751   0.452 -0.4984 -0.3739  0.2411
  726SOL    HW1 2177   1.937   2.730   0.550  0.3541 -2.1905  3.5072
  726SOL    HW2 2178   1.894   2.668   0.394  0.1734 -0.9596 -0.6964
  727SOL     OW 2179   1.811   1.704   2.117  0.0695  0.0290 -0.3540
  727SOL    HW1 2180   1.852   1.744   2.202  2.0881  3.1237 -2.0598
  727SOL    HW2 2181   1.811   1.601   2.120  0.3268 -3.3618 -1.8258
  728SOL     OW 2182   2.009   2.905   1.642  0.3041 -0.0819 -0.2809
  728SOL    HW1 2183   2.033   2.958   1.561  1.6493  0.0859  1.4638
  728SOL    HW2 2184   1.930   2.843   1.625 -1.5167  2.0370  0.6451
  729SOL     OW 2185   2.235   1.298   0.811 -0.2545 -0.0603 -0.1870
  729SOL    HW1 2186   2.157   1.235   0.802  1.0042  0.2646  2.1556
  729SOL    HW2 2187   2.276   1.307   0.721  1.6806 -0.9203 -2.1295
  730SOL     OW 2188   0.367   1.149   2.696 -0.1686  0.4501 -0.7504
  730SOL    HW1 2189   0.310   1.234   2.685  0.1384  1.0226 -0.4982
  730SOL    HW2 2190   0.458   1.166   2.744  2.1259 -0.6819 -0.3920
  731SOL     OW 2191   0.044   0.115   0.909  0.5397 -0.3551  0.3709
  731SOL    HW1 2192   0.138   0.091   0.915 -4.0381  2.3559 -1.2862
  731SOL    HW2 2193   0.022   0.184   0.981 -1.6206 -1.2356 -0.4721
  732SOL     OW 2194   1.468   0.907   0.203  0.1930 -0.0605 -0.4406
  732SOL    HW1 2195   1.371   0.924   0.239  0.0843  1.0959  0.5986
  732SOL    HW2 2196   1.485   0.807   0.203 -0.2571 -0.5457  1.9066
  733SOL     OW 2197   0.519   1.728   0.886 -0.2695  0.2732  0.0959
  733SOL    HW1 2198   0.577   1.789   0.825  0.0860 -0.8273  1.4597
  733SOL    HW2 2199   0.433   1.696   0.837 -4.5498  0.5704 -2.6815
  734SOL     OW 2200   0.121   2.413   0.405 -0.0650  0.2250  0.0987
  734SOL    HW1 2201   0.119   2.482   0.329 -1.1409  0.4133 -1.1762
  734SOL    HW2 2202   0.060   2.437   0.486  0.1864  1.2417  3.8608
  735SOL     OW 2203   1.210   0.391   0.974 -0.3525  0.1645 -0.5565
  735SOL    HW1 2204   1.132   0.351   1.018  2.4982  0.5291 -0.2828
  735SOL    HW2 2205   1.294   0.393   1.040  1.5142 -0.1111  2.7237
  736SOL     OW 2206   2.201   2.411   0.042  0.4444 -0.3506  0.1738
  736SOL    HW1 2207   2.188   2.468   3.058  2.2674 -0.6801 -0.5153
  736SOL    HW2 2208   2.159   2.319   0.022 -0.7397 -0.9263  0.1564
  737SOL     OW 2209   0.176   0.802   0.802  0.4633  0.2415  0.6548
  737SOL    HW1 2210   0.147   0.879   0.859 -1.4373 -3.3281 -1.7298
  737SOL    HW2 2211   0.191   0.835   0.703 -0.2990  1.8837 -3.7345
  738SOL     OW 2212   2.848   2.908   1.376 -0.0481  0.1755 -0.0160
  738SOL    HW1 2213   2.827   2.813   1.342 -0.9802 -2.4524 -0.6188
  738SOL    HW2 2214   2.906   2.899   1.461 -0.5134 -0.4273  0.3419
  739SOL     OW 2215   1.426   2.514   2.965  0.2918  0.4293  0.4808
  739SOL    HW1 2216   1.486   2.464   2.901 -0.5237 -0.7136  2.0232
  739SOL    HW2 2217   1.371   2.454   3.027 -1.2538 -1.4473  0.1368
  740SOL     OW 2218   1.442   0.391   1.109 -0.3670  0.3544  0.3207
  740SOL    HW1 2219   1.464   0.314   1.170 -0.0558 -0.1386 -0.0024
  740SOL    HW2 2220   1.498   0.374   1.024 -1.3585  2.7028  4.1305
  741SOL     OW 2221   2.931   0.828   0.958 -0.5209 -0.2318 -0.3986
  741SOL    HW1 2222   2.865   0.782   0.895 -2.4417 -2.3087  0.2331
  741SOL    HW2 2223   3.001   0.769   0.999 -1.2047  1.0978  2.0150
  742SOL     OW 2224   0.578   1.430   2.580 -0.1026  0.2277  0.3112
  742SOL    HW1 2225   0.649   1.405   2.648 -1.5510  2.9464  2.1962
  742SOL    HW2 2226   0.580   1.530   2.559  0.0880  0.4488  0.6904
  743SOL     OW 2227   1.334   0.530   2.137 -0.0071  0.3101 -0.3623
  743SOL    HW1 2228   1.326   0.550   2.037 -0.2606  0.1357  0.6142
  743SOL    HW2 2229   1.397   0.450   2.148  3.2241 -0.8191 -0.2906
  744SOL     OW 2230   2.025   0.899   1.458  0.2295  0.8984  0.0575
  744SOL    HW1 2231   2.114   0.938   1.421  0.8853 -0.4489  0.8549
  744SOL    HW2 2232   2.001   0.951   1.544 -1.1853 -2.0479  0.1365
  745SOL     OW 2233   1.317   1.472   1.577 -0.1456  0.1362  0.3232
  745SOL    HW1 2234   1.280   1.479   1.482  1.1311  2.2558  1.4555
  745SOL    HW2 2235   1.321   1.372   1.601  0.6313 -1.6172 -1.4996
  746SOL     OW 2236   2.058   1.706   0.994  0.1893 -0.6096  0.0249
  746SOL    HW1 2237   2.133   1.677   1.055 -1.1232 -0.8768 -0.7528
  746SOL    HW2 2238   2.051   1.648   0.914 -2.9743  2.2255  2.3486
  747SOL     OW 2239   2.375   1.416   0.993  0.0191  0.0811 -0.5982
  747SOL    HW1 2240   2.423   1.499   0.955 -1.1758  0.6013  3.2931
  747SOL    HW2 2241   2.324   1.365   0.919 -2.0426  0.7642  0.6028
  748SOL     OW 2242   0.567   2.091   0.755 -0.1854  0.2870  0.3691
  748SOL    HW1 2243   0.469   2.109   0.769  1.0329 -1.1687 -0.0529
  748SOL    HW2 2244   0.625   2.109   0.835  0.5112 -0.8144 -3.3868
  749SOL     OW 2245   2.265   2.865   2.221 -0.3444 -0.4489 -0.5973
  749SOL    HW1 2246   2.194   2.811   2.175  0.2681  1.5408 -0.5042
  749SOL    HW2 2247   2.356   2.833   2.183  2.7079 -2.7218 -0.3586
  750SOL     OW 2248   2.336   0.337   0.890  0.3669 -0.0206  0.1960
  750SOL    HW1 2249   2.374   0.266   0.825 -1.0285 -2.7795 -2.3193
  750SOL    HW2 2250   2.278   0.412   0.849 -0.9071  1.0873  0.8921
  751SOL     OW 2251   2.714   2.883   0.357 -0.4477  0.4794 -0.5513
  751SOL    HW1 2252   2.636   2.850   0.303 -1.7635 -5.0531  0.9074
  751SOL    HW2 2253   2.746   2.973   0.319 -2.5432 -0.4478  1.3463
  752SOL     OW 2254   3.017   2.962   0.926 -0.0862  0.4623  0.8513
  752SOL    HW1 2255   3.044   2.965   0.827 -0.6004  1.2225 -2.4303
  752SOL    HW2 2256   3.018   3.052   0.969  0.2118  2.6355 -0.4214
  753SOL     OW 2257   1.669   0.917   2.283 -0.2918  0.1120  0.0493
  753SOL    HW1 2258   1.676   0.955   2.189 -2.6371 -0.0776  0.8638
  753SOL    HW2 2259   1.586   0.855   2.292 -3.3737 -0.9130  0.1464
  754SOL     OW 2260   1.660   2.001   1.812  0.1597 -0.0731  0.1233
  754SOL    HW1 2261   1.658   1.969   1.713 -0.3057  0.3479 -1.9199
  754SOL    HW2 2262   1.746   1.976   1.861  0.6665  1.5687  0.4077
  755SOL     OW 2263   2.697   0.681   0.872  0.2949  0.1117 -0.2767
  755SOL    HW1 2264   2.652   0.662   0.959  3.4583  1.9392  0.1698
  755SOL    HW2 2265   2.634   0.735   0.809 -0.9714  2.9504 -2.5260
  756SOL     OW 2266   0.809   1.369   2.701  0.7827 -0.2073 -0.0462
  756SOL    HW1 2267   0.901   1.393   2.661  0.4971  0.1534 -0.0258
  756SOL    HW2 2268   0.781   1.454   2.755 -1.2232  1.3436  0.9936
  757SOL     OW 2269   1.145   2.850   0.663 -0.3524 -0.3168  0.6745
  757SOL    HW1 2270   1.086   2.889   0.736 -0.8473 -2.3407 -1.1370
  757SOL    HW2 2271   1.232   2.897   0.654 -2.9992  0.5148 -0.7804
  758SOL     OW 2272   1.224   2.734   1.246  0.1901  0.0069  0.2020
  758SOL    HW1 2273   1.150   2.796   1.221  3.9469 -0.6545 -0.0034
  758SOL    HW2 2274   1.279   2.772   1.322  0.7291 -1.4257  2.1283
  759SOL     OW 2275   0.283   0.504   0.529 -0.0577 -0.6782 -0.1081
  759SOL    HW1 2276   0.267   0.450   0.611  0.8328  3.3893 -0.7751
  759SOL    HW2 2277   0.216   0.578   0.519  2.1947  0.5110 -0.0028
  760SOL     OW 2278   2.340   1.189   1.211  1.2537  0.0154 -0.4762
  760SOL    HW1 2279   2.408   1.187   1.137 -2.7792 -0.0479  2.8369
  760SOL    HW2 2280   2.296   1.282   1.229  1.4872  1.3184  0.1765
  761SOL     OW 2281   1.722   0.487   0.816 -0.0476  0.8208 -0.0221
  761SOL    HW1 2282   1.644   0.429   0.836 -3.0137  2.4317  1.1157
  761SOL    HW2 2283   1.806   0.466   0.869  1.2322 -0.7432  0.1359
  762SOL     OW 2284   2.389   2.021   0.443  0.5804  0.0407  0.0917
  762SOL    HW1 2285   2.419   1.951   0.371 -0.8420 -1.9566 -3.1062
  762SOL    HW2 2286   2.443   2.104   0.457 -0.6568 -1.3083 -2.3589
  763SOL     OW 2287   0.723   1.456   1.396  0.5991 -0.0268  0.5969
  763SOL    HW1 2288   0.642   1.408   1.368  0.3644 -0.6776  1.3997
  763SOL    HW2 2289   0.759   1.529   1.331  0.2658 -2.0276 -0.9335
  764SOL     OW 2290   2.756   2.194   2.510 -0.6004 -0.0313  0.6156
  764SOL    HW1 2291   2.662   2.174   2.469 -0.3489 -0.0321 -0.5269
  764SOL    HW2 2292   2.791   2.099   2.521 -3.1522 -2.3733  2.1315
  765SOL     OW 2293   0.892   2.612   0.973  0.5184  0.2584 -0.4532
  765SOL    HW1 2294   0.834   2.653   0.899  0.6742  1.5393  0.3140
  765SOL    HW2 2295   0.836   2.618   1.060 -4.8742  1.1145  3.5462
  766SOL     OW 2296   0.024   1.981   2.528 -1.0927  0.0119 -0.4001
  766SOL    HW1 2297   3.078   1.963   2.437  1.6710 -1.2158 -1.5031
  766SOL    HW2 2298   0.037   2.077   2.543 -0.2381 -1.9749 -0.2199
  767SOL     OW 2299   2.295   0.943   2.631  0.7219  0.0964 -0.0977
  767SOL    HW1 2300   2.311   0.919   2.532  0.2149 -2.8695  1.0896
  767SOL    HW2 2301   2.326   0.868   2.694 -1.1882  2.5660  1.6189
  768SOL     OW 2302   1.271   0.188   2.513 -0.3291  0.5752  0.2636
  768SOL    HW1 2303   1.196   0.219   2.568  0.9566 -1.6459 -0.8301
  768SOL    HW2 2304   1.312   0.108   2.558  1.6299 -1.7640 -2.8508
  769SOL     OW 2305   0.092   2.303   1.106  0.5192  0.2661  0.3958
  769SOL    HW1 2306   0.071   2.390   1.057 -2.7618  0.0770 -1.4106
  769SOL    HW2 2307   0.190   2.302   1.135 -2.7973  0.4033 -0.8920
  770SOL     OW 2308   0.717   0.408   0.191 -0.3280 -0.0913  0.2127
  770SOL    HW1 2309   0.661   0.430   0.107  1.2526  1.5829 -0.6343
  770SOL    HW2 2310   0.651   0.374   0.264  0.3925 -0.0061 -3.6966
  771SOL     OW 2311   1.182   1.737   2.376  0.0434 -0.7015 -0.2565
  771SOL    HW1 2312   1.082   1.730   2.388  0.8511  3.7196  0.2172
  771SOL    HW2 2313   1.229   1.649   2.377  3.0194  0.7876 -0.6140
  772SOL     OW 2314   2.248   0.026   2.312  0.3649  0.2063 -0.1153
  772SOL    HW1 2315   2.260   3.025   2.302 -2.8752  2.8820  2.6892
  772SOL    HW2 2316   2.154   0.044   2.345  0.5959 -3.5118  0.8494
  773SOL     OW 2317   1.455   0.843   1.756  0.4533  0.5037  0.6034
  773SOL    HW1 2318   1.529   0.906   1.723  1.6548  0.2387  0.1853
  773SOL    HW2 2319   1.499   0.770   1.812 -0.9741  2.5122  2.4467
  774SOL     OW 2320   1.219   0.590   1.425 -0.4039 -0.6227  0.4741
  774SOL    HW1 2321   1.291   0.608   1.352 -0.7550 -0.0128 -2.8580
  774SOL    HW2 2322   1.259   0.621   1.512 -2.2478  1.9797 -2.5996
  775SOL     OW 2323   1.998   2.925   0.082 -0.0927  0.1227 -0.5118
  775SOL    HW1 2324   1.938   2.840   0.087 -0.8336 -1.1094  1.0844
  775SOL    HW2 2325   2.042   2.928   3.089  1.5006 -0.0370 -0.7535
  776SOL     OW 2326   2.008   1.015   1.700  0.6179  0.0965  0.2110
  776SOL    HW1 2327   1.934   0.984   1.766 -0.9453  1.2686  2.0856
  776SOL    HW2 2328   2.088   1.063   1.747  2.0081  0.6745 -2.7907
  777SOL     OW 2329   3.014   1.471   2.205  0.9978 -0.4224  0.3259
  777SOL    HW1 2330   2.969   1.413   2.131  0.9953 -0.4541 -0.8571
  777SOL    HW2 2331   2.997   1.568   2.180 -2.4546 -1.2859 -2.6046
  778SOL     OW 2332   2.563   1.095   2.523 -0.0402 -0.0811 -0.6049
  778SOL    HW1 2333   2.660   1.087   2.549  0.4695 -2.1096 -1.3143
  778SOL    HW2 2334   2.539   1.197   2.517 -2.2783  2.7027 -1.9589
  779SOL     OW 2335   2.831   0.468   3.097  0.1122  0.0180  0.3256
  779SOL    HW1 2336   2.931   0.482   0.002 -0.0288  2.0828 -2.4785
  779SOL    HW2 2337   2.809   0.423   0.090  1.9705  0.3734 -1.1572
  780SOL     OW 2338   2.299   2.674   2.436 -0.1594  0.5346  0.2219
  780SOL    HW1 2339   2.301   2.744   2.362  0.9492 -1.2974 -2.4895
  780SOL    HW2 2340   2.292   2.576   2.402 -0.1633 -4.3092 -0.5767
  781SOL     OW 2341   3.008   1.004   2.033  0.1439 -0.1200 -0.3796
  781SOL    HW1 2342   2.939   0.942   2.084 -2.6014 -1.2262  1.9768
  781SOL    HW2 2343   2.996   1.012   1.934  0.7085 -2.3789  1.4214
  782SOL     OW 2344   1.465   2.402   2.702  0.1413 -0.2502 -0.5115
  782SOL    HW1 2345   1.471   2.307   2.721 -1.3036  3.3009 -5.7661
  782SOL    HW2 2346   1.396   2.417   2.628  0.9349 -1.2405 -1.1002
  783SOL     OW 2347   0.917   2.329   0.947  0.3325 -0.2497  0.0470
  783SOL    HW1 2348   0.994   2.318   1.019  1.8675  2.9091  0.0974
  783SOL    HW2 2349   0.886   2.428   0.927 -1.3041  1.2574 -1.4008
  784SOL     OW 2350   2.072   0.447   2.394  0.2410 -0.1308 -0.4250
  784SOL    HW1 2351   1.977   0.465   2.412 -0.7980 -2.2316 -1.4528
  784SOL    HW2 2352   2.080   0.417   2.299  1.1024 -0.7821  0.6792
  785SOL     OW 2353   0.176   0.164   1.445  0.3877 -0.0640  0.6369
  785SOL    HW1 2354   0.171   0.065   1.466  1.0924 -2.0515  0.8754
  785SOL    HW2 2355   0.247   0.215   1.499  2.4651  2.4159  0.5699
  786SOL     OW 2356   1.357   2.345   0.084 -0.0088 -0.0887 -0.5939
  786SOL    HW1 2357   1.427   2.296   0.138 -1.7219  0.5698 -1.6384
  786SOL    HW2 2358   1.343   2.440   0.129 -1.1857  1.4984  0.4652
  787SOL     OW 2359   1.154   0.104   0.694  0.5232  1.1204  0.0156
  787SOL    HW1 2360   1.060   0.141   0.732 -1.8753  0.7097 -0.2065
  787SOL    HW2 2361   1.203   0.035   0.750  0.5782  2.6247 -0.1261
  788SOL     OW 2362   0.156   1.179   1.363  0.1226 -0.3668  0.2372
  788SOL    HW1 2363   0.172   1.176   1.463  0.2777 -2.6544 -2.4346
  788SOL    HW2 2364   0.088   1.256   1.340 -1.7998 -0.4240  1.3909
  789SOL     OW 2365   2.568   0.951   2.145  0.6738  0.4579  0.1905
  789SOL    HW1 2366   2.550   0.953   2.041  0.7069 -1.2862 -0.1585
  789SOL    HW2 2367   2.627   1.035   2.173  2.4151  3.5733  0.8377
  790SOL     OW 2368   1.215   0.735   2.702  0.0007 -0.6238  0.1720
  790SOL    HW1 2369   1.200   0.805   2.632 -0.4673 -2.9327  0.7283
  790SOL    HW2 2370   1.300   0.757   2.756  2.0297  0.2546  0.0760
  791SOL     OW 2371   0.180   2.578   0.213 -0.4197 -0.2484 -0.5264
  791SOL    HW1 2372   0.140   2.588   0.122  2.8142  2.0692  1.2377
  791SOL    HW2 2373   0.278   2.543   0.199 -0.5549  0.2877 -0.7377
  792SOL     OW 2374   1.190   0.841   1.877  0.6509  0.2333  0.0016
  792SOL    HW1 2375   1.281   0.837   1.832  0.2393  0.4635  0.6615
  792SOL    HW2 2376   1.129   0.758   1.877  3.4218 -0.4951 -1.6587
  793SOL     OW 2377   2.816   0.425   1.134  0.4404  0.0813 -0.4053
  793SOL    HW1 2378   2.863   0.471   1.056  0.1938  1.8392 -0.2364
  793SOL    HW2 2379   2.811   0.327   1.125  2.5019  1.7088 -0.5359
  794SOL     OW 2380   2.795   0.372   2.368 -0.0223 -0.0864 -0.0556
  794SOL    HW1 2381   2.740   0.384   2.284  1.6718 -0.2312  1.8756
  794SOL    HW2 2382   2.882   0.423   2.356 -0.5215 -0.4667 -1.0185
  795SOL     OW 2383   0.567   1.543   3.081 -0.2878  0.4635 -0.2714
  795SOL    HW1 2384   0.591   1.557   0.084 -1.2273 -2.1425  2.1181
  795SOL    HW2 2385   0.469   1.561   3.061  0.9341  0.6198  0.3681
  796SOL     OW 2386   2.805   0.737   2.974 -0.2465 -0.5205  0.2828
  796SOL    HW1 2387   2.833   0.644   3.007  4.0843 -1.0450 -4.0248
  796SOL    HW2 2388   2.877   0.783   2.913  1.0177 -0.5050  0.7419
  797SOL     OW 2389   2.063   2.715   2.547 -0.0154 -0.2192 -0.1073
  797SOL    HW1 2390   2.017   2.626   2.555 -0.4975 -2.9084  1.0112
  797SOL    HW2 2391   2.155   2.714   2.508  1.2571 -1.3608 -1.6185
  798SOL     OW 2392   3.037   0.048   1.211 -0.2777  0.2147  0.4128
  798SOL    HW1 2393   3.009   3.078   1.279 -2.3418  1.4040  0.2337
  798SOL    HW2 2394   0.011   0.110   1.245  2.8467 -0.6539 -2.3167
  799SOL     OW 2395   2.855   0.868   1.687 -0.2107 -0.6704 -0.5983
  799SOL    HW1 2396   2.827   0.850   1.591  0.6295  0.2699  1.4673
  799SOL    HW2 2397   2.826   0.794   1.752  0.5210  0.4529 -1.3980
  800SOL     OW 2398   0.578   1.542   0.309  0.1590  0.4086 -0.2123
  800SOL    HW1 2399   0.582   1.441   0.324  1.8443 -3.3952  2.2034
  800SOL    HW2 2400   0.517   1.585   0.376  0.7684 -1.2063  0.0372
  801SOL     OW 2401   1.952   1.852   0.460 -0.0084  0.7943 -0.7088
  801SOL    HW1 2402   1.997   1.886   0.376 -0.3257 -0.7495  1.1339
  801SOL    HW2 2403   1.855   1.876   0.460 -1.2692 -1.1460  0.9795
  802SOL     OW 2404   1.409   1.298   2.687 -0.0943 -0.1917  0.3920
  802SOL    HW1 2405   1.424   1.352   2.599  0.8191  2.6610 -1.1792
  802SOL    HW2 2406   1.423   1.197   2.685 -0.2600 -0.5656  1.1365
  803SOL     OW 2407   0.975   1.868   1.673  0.6826 -0.1681 -0.4169
  803SOL    HW1 2408   0.970   1.964   1.703  0.3929  0.5441 -2.2629
  803SOL    HW2 2409   0.987   1.803   1.755 -1.3276  1.3843  2.1328
  804SOL     OW 2410   1.705   2.511   0.635  0.9064  0.4260  0.0824
  804SOL    HW1 2411   1.729   2.420   0.676 -1.6301 -0.5242 -3.0210
  804SOL    HW2 2412   1.667   2.492   0.544 -0.1724 -1.5453  1.2447
  805SOL     OW 2413   2.921   2.342   2.335 -0.4164 -0.2325 -0.3556
  805SOL    HW1 2414   2.858   2.294   2.396  0.8173  0.6743 -2.6282
  805SOL    HW2 2415   3.004   2.364   2.394  1.5878 -1.5603 -1.5918
  806SOL     OW 2416   0.005   0.054   0.483  0.2989 -0.0083  0.2269
  806SOL    HW1 2417   3.068   0.095   0.570  0.8647 -2.4093 -0.9467
  806SOL    HW2 2418   0.048   0.120   0.422 -2.2629 -0.7661  2.2906
  807SOL     OW 2419   2.344   0.782   2.843 -0.2642 -0.0948 -0.4777
  807SOL    HW1 2420   2.361   0.683   2.866  0.1790 -0.6191  0.4029
  807SOL    HW2 2421   2.279   0.822   2.907 -0.5132 -1.3685 -0.9005
  808SOL     OW 2422   1.225   2.594   0.705  0.5284 -0.2052 -0.7343
  808SOL    HW1 2423   1.211   2.593   0.807  1.4103  1.4411 -0.1457
  808SOL    HW2 2424   1.195   2.683   0.661  1.0069 -1.2246  1.7302
  809SOL     OW 2425   2.820   3.060   0.176 -0.5208 -0.6239 -0.3572
  809SOL    HW1 2426   2.887   2.988   0.150  1.2498  0.8220  0.0362
  809SOL    HW2 2427   2.790   0.012   0.093  1.1012 -1.3715  0.7887
  810SOL     OW 2428   1.284   1.220   0.714  0.6582 -0.0473 -0.0731
  810SOL    HW1 2429   1.227   1.214   0.799  2.4148 -1.1548 -0.2200
  810SOL    HW2 2430   1.240   1.156   0.644  1.8984 -0.0129 -0.8780
  811SOL     OW 2431   1.810   2.723   1.559 -0.1053  0.1682 -0.0801
  811SOL    HW1 2432   1.730   2.757   1.503  0.6898 -2.1389 -0.3273
  811SOL    HW2 2433   1.780   2.711   1.656 -1.0203 -1.4082  1.7085
  812SOL     OW 2434   1.645   2.916   0.436  0.2128  0.8734 -0.3727
  812SOL    HW1 2435   1.637   3.017   0.445  0.5487 -1.3388  0.9232
  812SOL    HW2 2436   1.740   2.882   0.418  0.4157  0.9735 -1.2678
  813SOL     OW 2437   1.047   0.206   2.099  0.3124 -0.0120  0.1425
  813SOL    HW1 2438   0.981   0.124   2.122 -1.4554 -0.5380  0.8185
  813SOL    HW2 2439   1.132   0.199   2.153  3.1479  1.8669  1.4033
  814SOL     OW 2440   0.280   3.015   1.224 -0.4559  0.2303  0.4043
  814SOL    HW1 2441   0.259   3.011   1.126  2.7938 -1.9500  3.6411
  814SOL    HW2 2442   0.370   3.061   1.242 -1.3418 -0.6145 -1.7756
  815SOL     OW 2443   0.149   2.746   0.820 -0.0003 -0.4861  0.3345
  815SOL    HW1 2444   0.090   2.807   0.764  1.2468 -0.8686  3.6178
  815SOL    HW2 2445   0.228   2.724   0.763 -0.9786  0.4325 -0.2391
  816SOL     OW 2446   2.470   1.535   2.712  0.1681 -0.6827 -0.4863
  816SOL    HW1 2447   2.447   1.435   2.732  0.2146  0.3295  0.6005
  816SOL    HW2 2448   2.424   1.562   2.629 -0.2371  0.5173  2.5816
  817SOL     OW 2449   1.515   2.873   2.860  0.2293  0.2883 -0.0029
  817SOL    HW1 2450   1.455   2.859   2.940 -1.3038  1.7256 -0.3276
  817SOL    HW2 2451   1.460   2.927   2.792  0.6011  2.4566 -0.8956
  818SOL     OW 2452   1.662   1.111   0.237 -0.2795  0.3945  0.0511
  818SOL    HW1 2453   1.623   1.199   0.263  3.2309 -1.0480 -0.2571
  818SOL    HW2 2454   1.588   1.039   0.223 -0.4817 -1.7830 -2.3197
  819SOL     OW 2455   1.851   2.529   2.687 -0.1294  0.2152 -0.2006
  819SOL    HW1 2456   1.782   2.537   2.611 -0.7504  0.4425 -0.2448
  819SOL    HW2 2457   1.858   2.614   2.746 -0.4411  1.6622 -4.2730
  820SOL     OW 2458   1.008   0.809   0.224  0.0932 -0.9924  0.0837
  820SOL    HW1 2459   0.995   0.822   0.123 -0.8988  2.7105 -0.1733
  820SOL    HW2 2460   0.940   0.749   0.266  0.8003 -0.2316 -3.4337
  821SOL     OW 2461   0.479   0.526   1.373  0.5746  0.3622 -0.1645
  821SOL    HW1 2462   0.554   0.589   1.374 -3.1232 -1.0111  0.3206
  821SOL    HW2 2463   0.393   0.564   1.333  0.6981 -1.3164  0.5718
  822SOL     OW 2464   1.382   2.492   2.224 -0.2506  0.4850  0.3314
  822SOL    HW1 2465   1.355   2.449   2.312 -0.5816  1.3381 -2.8505
  822SOL    HW2 2466   1.443   2.436   2.167  0.6501  1.7435  0.7652
  823SOL     OW 2467   0.670   1.074   2.007 -0.3703  0.2686 -0.4236
  823SOL    HW1 2468   0.742   1.089   1.936  2.0341 -2.2539  2.8151
  823SOL    HW2 2469   0.709   1.055   2.098  0.0941  1.7153 -0.4952
  824SOL     OW 2470   2.361   0.009   1.882  1.0145 -0.1140  0.3155
  824SOL    HW1 2471   2.352   3.037   1.811  1.8512  0.4340  0.5559
  824SOL    HW2 2472   2.362   0.103   1.839 -2.2819  1.1853  0.9165
  825SOL     OW 2473   1.020   1.480   3.097 -0.1909  0.2104  0.0269
  825SOL    HW1 2474   0.955   1.401   0.001  0.7006 -2.1154 -0.7528
  825SOL    HW2 2475   1.058   1.505   3.007 -1.4561  2.6948  0.0224
  826SOL     OW 2476   2.008   0.536   2.691 -0.1805  0.3410 -0.8086
  826SOL    HW1 2477   2.038   0.583   2.603 -1.5107  1.7166  1.6814
  826SOL    HW2 2478   1.930   0.470   2.672 -1.4655 -2.1089 -0.1197
  827SOL     OW 2479   0.576   2.086   2.805  0.2531  0.2208  0.4570
  827SOL    HW1 2480   0.625   2.174   2.828  1.8092 -0.2751 -2.6993
  827SOL    HW2 2481   0.489   2.105   2.754 -3.0374 -0.3685 -0.8118
  828SOL     OW 2482   2.802   0.048   1.501  0.0472  0.0157  0.4680
  828SOL    HW1 2483   2.717   0.107   1.490  2.1305 -0.1737  1.9044
  828SOL    HW2 2484   2.805   3.075   1.430 -0.4371  0.1648  2.6534
  829SOL     OW 2485   1.336   1.794   1.426 -0.2606  0.7993 -0.2655
  829SOL    HW1 2486   1.305   1.819   1.520  0.5981  2.4533 -0.6859
  829SOL    HW2 2487   1.431   1.758   1.432  2.3878 -2.2834  2.7834
  830SOL     OW 2488   0.373   0.969   1.689 -0.9047 -0.4184 -0.5047
  830SOL    HW1 2489   0.427   0.908   1.620  1.2068 -0.2176 -0.2528
  830SOL    HW2 2490   0.276   0.945   1.679 -0.1628 -0.6678  1.3292
  831SOL     OW 2491   0.212   1.705   0.190  0.3849  0.3070 -0.0863
  831SOL    HW1 2492   0.128   1.757   0.171 -1.8759  0.6891  0.8096
  831SOL    HW2 2493   0.292   1.766   0.181 -2.3161 -1.0536 -4.3152
  832SOL     OW 2494   0.874   0.313   2.812  0.0314  0.9895  0.4822
  832SOL    HW1 2495   0.802   0.244   2.825  0.7348 -0.8151  0.5335
  832SOL    HW2 2496   0.870   0.393   2.871 -2.6703 -0.1804  0.7742
  833SOL     OW 2497   2.984   0.551   1.907  0.0891 -0.7401  0.2534
  833SOL    HW1 2498   3.067   0.608   1.915  0.9748 -0.8801 -0.6705
  833SOL    HW2 2499   2.899   0.606   1.891 -0.2948 -0.6258 -0.7148
  834SOL     OW 2500   0.250   0.616   1.247  0.3690  0.1414  0.5694
  834SOL    HW1 2501   0.289   0.607   1.151  1.8033 -0.0571 -1.8001
  834SOL    HW2 2502   0.151   0.580   1.251  1.2209 -3.8771 -1.0644
  835SOL     OW 2503   2.638   2.810   1.101 -0.2485 -0.8596 -0.3156
  835SOL    HW1 2504   2.684   2.834   1.012 -0.5827 -4.4716 -0.3863
  835SOL    HW2 2505   2.701   2.748   1.158 -1.4064  0.8766 -0.6433
  836SOL     OW 2506   0.494   1.845   2.769  0.2871  0.8400  0.0795
  836SOL    HW1 2507   0.451   1.824   2.859 -1.8313  0.5328  1.2098
  836SOL    HW2 2508   0.545   1.928   2.776 -3.2078 -2.3153 -0.3415
  837SOL     OW 2509   2.184   2.174   2.806 -0.4244 -0.2179 -0.1564
  837SOL    HW1 2510   2.134   2.252   2.758  0.7833 -1.0127  0.4086
  837SOL    HW2 2511   2.261   2.159   2.739  1.1066  1.9989 -0.2190
  838SOL     OW 2512   2.865   1.249   2.082  0.2754  0.1951  0.0160
  838SOL    HW1 2513   2.813   1.214   2.170  0.2122 -1.3057 -0.5072
  838SOL    HW2 2514   2.956   1.202   2.075  1.8634  0.2461 -0.2494
  839SOL     OW 2515   0.897   1.179   3.091  0.3311  0.1329 -0.2382
  839SOL    HW1 2516   0.851   1.097   3.046 -0.2405 -0.4155 -3.5822
  839SOL    HW2 2517   0.989   1.186   3.050  0.9923  0.1403 -0.4718
  840SOL     OW 2518   1.571   0.535   0.460  0.3411 -0.0611  0.5747
  840SOL    HW1 2519   1.590   0.633   0.460 -0.6835  1.1182 -0.2254
  840SOL    HW2 2520   1.494   0.513   0.525  0.0898  1.2902  0.8301
  841SOL     OW 2521   0.486   2.802   0.832 -0.2855  0.0589 -0.1652
  841SOL    HW1 2522   0.578   2.790   0.871 -4.3348  0.1512  1.7589
  841SOL    HW2 2523   0.448   2.714   0.795 -0.4031  0.6597 -0.6608
  842SOL     OW 2524   0.249   0.272   0.380 -0.2453 -0.0235 -0.2078
  842SOL    HW1 2525   0.187   0.281   0.302 -3.5377  1.3137 -1.8004
  842SOL    HW2 2526   0.262   0.359   0.426 -1.1215 -1.0249 -0.3000
  843SOL     OW 2527   0.418   0.388   1.795  0.3201  0.2201  0.3128
  843SOL    HW1 2528   0.473   0.467   1.831 -0.2772 -2.3993  3.3535
  843SOL    HW2 2529   0.389   0.329   1.875 -7.0321 -2.1539  3.8227
  844SOL     OW 2530   1.866   2.685   2.893  0.3185 -0.7694  0.3720
  844SOL    HW1 2531   1.874   2.782   2.873  1.4085 -0.5683  2.4130
  844SOL    HW2 2532   1.850   2.667   2.993 -1.4892 -0.0528 -1.8767
  845SOL     OW 2533   2.576   0.051   2.051 -0.0003 -0.3368  0.3643
  845SOL    HW1 2534   2.485   0.028   2.009  0.0783 -1.5539  1.3857
  845SOL    HW2 2535   2.601   3.085   2.125  0.0394  0.7491  1.3096
  846SOL     OW 2536   1.912   1.819   2.353  0.4282 -0.5367 -0.9382
  846SOL    HW1 2537   1.899   1.774   2.443 -1.6899  1.5790 -0.0914
  846SOL    HW2 2538   2.001   1.870   2.348  0.6205  1.2333 -3.2819
  847SOL     OW 2539   2.067   2.778   2.044 -0.3405 -0.1950 -0.0817
  847SOL    HW1 2540   2.023   2.714   2.110 -2.8068  2.7200  0.7282
  847SOL    HW2 2541   2.005   2.840   2.002  0.6860 -0.0814  2.3713
  848SOL     OW 2542   0.302   2.773   0.433 -0.0657  0.1084  0.0848
  848SOL    HW1 2543   0.224   2.820   0.392 -0.5750 -0.1327  2.3668
  848SOL    HW2 2544   0.291   2.671   0.433  0.1509 -2.8016  1.5274
  849SOL     OW 2545   0.635   2.718   1.316  0.0751  0.1773  0.5933
  849SOL    HW1 2546   0.697   2.642   1.340 -2.6343 -0.9794 -0.3261
  849SOL    HW2 2547   0.678   2.776   1.241  0.0369  0.0653 -2.4099
  850SOL     OW 2548   0.094   1.333   0.818 -0.0160  0.0277 -0.2437
  850SOL    HW1 2549   0.005   1.288   0.845  2.6298  0.7090 -2.0985
  850SOL    HW2 2550   0.087   1.434   0.809 -1.5768  1.4544 -1.1001
  851SOL     OW 2551   0.007   0.456   3.048  0.1213  0.5250 -0.0831
  851SOL    HW1 2552   0.077   0.515   3.093 -2.3769 -2.9832  0.3796
  851SOL    HW2 2553   0.025   0.453   2.951  0.4841 -5.3805  1.0494
  852SOL     OW 2554   1.624   1.913   2.130  0.1117 -0.1810 -0.2124
  852SOL    HW1 2555   1.683   1.843   2.082 -1.7149 -1.1193  1.0677
  852SOL    HW2 2556   1.618   1.878   2.225 -1.6225 -0.4403  0.4178
  853SOL     OW 2557   0.632   1.840   0.641  0.4149 -0.0070 -0.4612
  853SOL    HW1 2558   0.564   1.915   0.670 -4.3669  3.5810 -1.7728
  853SOL    HW2 2559   0.599   1.808   0.555 -1.8898  0.6387  1.8235
  854SOL     OW 2560   1.651   0.991   1.582  0.0492  0.0304  0.3766
  854SOL    HW1 2561   1.716   1.069   1.601  0.5098  2.5035 -3.2205
  854SOL    HW2 2562   1.638   1.000   1.480 -0.4124  1.8482 -0.2516
  855SOL     OW 2563   0.403   1.890   0.098 -0.2525 -0.1135  0.2780
  855SOL    HW1 2564   0.497   1.882   0.057  0.5369 -0.0951 -0.4730
  855SOL    HW2 2565   0.374   1.988   0.085 -1.0161  0.3345  0.3955
  856SOL     OW 2566   0.057   0.150   1.823 -0.4489  0.3623 -0.2000
  856SOL    HW1 2567   0.139   0.092   1.811  1.2796  0.4966  2.7322
  856SOL    HW2 2568   3.070   0.090   1.811 -1.3515 -0.2717  0.5093
  857SOL     OW 2569   0.407   0.209   2.002 -0.7551  0.5567  0.7233
  857SOL    HW1 2570   0.360   0.126   2.035  1.0938 -0.6299 -2.1556
  857SOL    HW2 2571   0.372   0.290   2.049  0.3014 -1.2801  0.4361
  858SOL     OW 2572   2.754   2.034   2.203 -0.2469  0.0576  0.3533
  858SOL    HW1 2573   2.833   1.994   2.254  0.0156 -1.1679 -1.3139
  858SOL    HW2 2574   2.692   2.093   2.262 -0.6921 -0.5680  0.6938
  859SOL     OW 2575   2.264   2.726   0.723 -0.3348 -0.3610  0.2378
  859SOL    HW1 2576   2.330   2.794   0.682 -1.4484  0.6360 -4.5435
  859SOL    HW2 2577   2.318   2.652   0.772 -1.5748 -1.9624  0.4096
  860SOL     OW 2578   1.802   0.452   0.547  0.6967  0.5625  0.2740
  860SOL    HW1 2579   1.784   0.485   0.642  0.3432 -0.1453 -0.5862
  860SOL    HW2 2580   1.724   0.477   0.487 -0.1730  1.3447  0.1779
  861SOL     OW 2581   0.491   0.306   0.952  0.0553 -0.7498 -0.5242
  861SOL    HW1 2582   0.535   0.398   0.978 -2.0993  0.1915  1.3357
  861SOL    HW2 2583   0.428   0.265   1.019 -1.0611 -0.2037  1.7368
  862SOL     OW 2584   2.150   0.695   1.691  0.0253  0.2778  0.5164
  862SOL    HW1 2585   2.126   0.596   1.679  0.5844 -0.7584  2.5407
  862SOL    HW2 2586   2.138   0.741   1.597  0.8092 -1.3318 -0.6092
  863SOL     OW 2587   0.440   1.507   1.135 -0.2334  0.0471 -0.2273
  863SOL    HW1 2588   0.345   1.482   1.108  0.0135 -0.7688  1.2017
  863SOL    HW2 2589   0.454   1.608   1.145 -1.1881 -0.1348  0.6030
  864SOL     OW 2590   2.389   0.203   2.161 -0.1831  0.3744  0.2839
  864SOL    HW1 2591   2.474   0.162   2.127 -1.4950  0.1453 -0.5487
  864SOL    HW2 2592   2.336   0.146   2.229 -0.2821 -3.6235  1.1850
  865SOL     OW 2593   1.660   0.428   1.892  0.4380 -0.0167  0.4147
  865SOL    HW1 2594   1.628   0.387   1.804 -0.3129 -0.4361  1.9783
  865SOL    HW2 2595   1.618   0.379   1.971  1.9218  1.6582 -2.8020
  866SOL     OW 2596   2.713   2.910   0.854 -0.5296  0.1900 -0.0679
  866SOL    HW1 2597   2.816   2.910   0.851 -0.8629  2.6360  0.7907
  866SOL    HW2 2598   2.675   2.953   0.767  1.2791 -0.4312  1.4031
  867SOL     OW 2599   2.603   2.694   0.513  0.3918 -0.7089 -0.5889
  867SOL    HW1 2600   2.525   2.660   0.457  0.6771 -1.0725  0.2202
  867SOL    HW2 2601   2.660   2.759   0.461 -1.2486 -1.9223  0.0908
  868SOL     OW 2602   1.578   1.932   2.684  0.0054  0.5828  0.6367
  868SOL    HW1 2603   1.476   1.934   2.669 -1.6013  2.5060  0.4183
  868SOL    HW2 2604   1.606   1.897   2.775  0.7954 -1.4185  2.2074
  869SOL     OW 2605   2.399   1.701   0.726  0.5483  0.1900  0.0196
  869SOL    HW1 2606   2.348   1.638   0.667 -1.2331 -1.9646  1.4016
  869SOL    HW2 2607   2.346   1.783   0.733  0.4123 -2.3308 -2.4161
  870SOL     OW 2608   2.754   1.717   0.373 -0.0502 -0.0106 -0.8205
  870SOL    HW1 2609   2.779   1.635   0.314 -0.3226 -1.3062  0.0235
  870SOL    HW2 2610   2.822   1.793   0.367 -0.3404 -0.5387 -1.0558
  871SOL     OW 2611   0.101   0.883   1.678 -0.4867 -0.0421 -0.0420
  871SOL    HW1 2612   0.113   0.861   1.574  0.1755 -0.7875 -7.9600
  871SOL    HW2 2613   0.017   0.938   1.690 -2.1044  1.1465 -0.2172
  872SOL     OW 2614   0.327   1.969   2.188  0.4816  0.0659  0.3980
  872SOL    HW1 2615   0.348   1.870   2.167  0.2123 -1.8803 -0.0500
  872SOL    HW2 2616   0.393   2.026   2.137  1.3930 -0.3046 -2.0141
  873SOL     OW 2617   0.439   2.522   1.856  0.1496 -0.6022 -0.2826
  873SOL    HW1 2618   0.441   2.431   1.809  0.2229 -0.0266 -0.5859
  873SOL    HW2 2619   0.528   2.561   1.873 -0.9735 -1.4432  0.1313
  874SOL     OW 2620   1.121   0.912   2.119 -0.0352 -0.2736 -0.2659
  874SOL    HW1 2621   1.101   1.012   2.129  2.2969 -0.1307  0.3571
  874SOL    HW2 2622   1.139   0.885   2.022 -1.5618 -2.1855  0.9544
  875SOL     OW 2623   2.810   2.648   1.227 -0.2940  0.1460 -0.6244
  875SOL    HW1 2624   2.847   2.580   1.296 -1.4199 -2.1950  2.3532
  875SOL    HW2 2625   2.894   2.697   1.182  0.0815  2.0105 -1.0325
  876SOL     OW 2626   1.008   1.270   0.419 -0.4221  1.1756 -0.3373
  876SOL    HW1 2627   0.986   1.238   0.515 -2.4246  1.1408 -1.7484
  876SOL    HW2 2628   1.008   1.368   0.414  0.1806 -1.4358  0.7130
  877SOL     OW 2629   1.032   0.511   1.228  0.0974 -0.3140  0.3055
  877SOL    HW1 2630   1.101   0.524   1.301  0.8170  2.2269  3.3648
  877SOL    HW2 2631   1.032   0.414   1.204 -0.2223  4.7238  3.3536
  878SOL     OW 2632   2.556   1.833   3.083 -0.0613 -0.2178  0.0083
  878SOL    HW1 2633   2.604   1.740   3.070  1.4278 -1.9390  1.7644
  878SOL    HW2 2634   2.591   1.907   3.024 -2.0822  0.1564  0.8990
  879SOL     OW 2635   2.397   2.083   1.807 -0.5222 -0.2925 -0.1021
  879SOL    HW1 2636   2.452   1.994   1.799 -0.1043 -0.8170  1.5923
  879SOL    HW2 2637   2.462   2.158   1.823  0.2887  0.3859 -0.0589
  880SOL     OW 2638   1.094   2.274   1.137 -0.0607 -0.0600 -0.5830
  880SOL    HW1 2639   1.175   2.299   1.083  0.2793 -0.2621  0.2987
  880SOL    HW2 2640   1.091   2.172   1.153  0.1620 -1.5130 -4.7337
  881SOL     OW 2641   1.244   1.973   0.764 -0.0509 -0.5778 -0.7095
  881SOL    HW1 2642   1.195   2.062   0.784 -2.5798  2.8670  2.2569
  881SOL    HW2 2643   1.244   1.911   0.847 -1.4472 -2.2442 -1.4300
  882SOL     OW 2644   1.928   1.713   2.615  0.3481 -0.5841 -0.3700
  882SOL    HW1 2645   2.016   1.666   2.620  0.1087  4.2596 -2.2381
  882SOL    HW2 2646   1.927   1.793   2.678  2.1904  0.1457 -0.8357
  883SOL     OW 2647   1.428   0.652   1.217  0.5189 -0.1909 -0.1123
  883SOL    HW1 2648   1.396   0.729   1.160 -0.5751 -2.6781 -2.5190
  883SOL    HW2 2649   1.413   0.566   1.166 -1.0107  1.3362  0.8429
  884SOL     OW 2650   3.002   2.748   1.100 -0.3563  0.3862  0.2279
  884SOL    HW1 2651   2.990   2.833   1.040  1.8390  2.1063 -2.1523
  884SOL    HW2 2652   0.008   2.720   1.094  5.8805  0.4939 -0.1147
  885SOL     OW 2653   0.689   1.446   2.021  0.4426 -0.3379 -0.4291
  885SOL    HW1 2654   0.599   1.436   2.065  1.8078  0.7128  0.0023
  885SOL    HW2 2655   0.734   1.361   1.993  0.0392  1.5266 -0.9813
  886SOL     OW 2656   1.195   1.415   2.474 -0.3321 -0.2244 -0.3703
  886SOL    HW1 2657   1.157   1.423   2.569  2.4980  1.5931 -0.5403
  886SOL    HW2 2658   1.299   1.413   2.467 -1.4704 -1.5261 -0.5814
  887SOL     OW 2659   1.532   0.306   0.867 -0.8335 -0.6151 -0.4889
  887SOL    HW1 2660   1.571   0.213   0.855  0.0075 -0.3564 -1.9789
  887SOL    HW2 2661   1.442   0.304   0.823  1.3986  1.7546  0.9088
  888SOL     OW 2662   1.952   0.860   2.300  0.2173 -0.1520 -0.1637
  888SOL    HW1 2663   1.958   0.835   2.399 -1.1211  0.2601 -2.1686
  888SOL    HW2 2664   1.857   0.862   2.276  3.3035  1.8406  2.1361
  889SOL     OW 2665   2.839   2.125   0.965 -0.0210  0.1183  0.1913
  889SOL    HW1 2666   2.908   2.050   0.979  1.1185  1.2816 -0.0585
  889SOL    HW2 2667   2.751   2.098   1.011  1.9132  0.7006  0.1924
  890SOL     OW 2668   1.078   2.255   0.080 -0.5587  0.1890  0.1065
  890SOL    HW1 2669   1.009   2.330   0.070  1.7620  0.9761  0.0958
  890SOL    HW2 2670   1.174   2.289   0.084 -1.6937 -0.5865  0.7171
  891SOL     OW 2671   2.737   0.866   2.646 -0.2859 -0.0579 -0.6061
  891SOL    HW1 2672   2.780   0.882   2.551 -0.8108 -2.3078 -0.7788
  891SOL    HW2 2673   2.653   0.813   2.646  0.9412 -1.0156  1.6233
  892SOL     OW 2674   3.025   2.306   1.302  0.4431 -0.4643 -0.4617
  892SOL    HW1 2675   3.093   2.291   1.224  3.3285 -2.6114  1.2517
  892SOL    HW2 2676   2.962   2.229   1.313  1.6143 -0.2890 -0.4631
  893SOL     OW 2677   1.122   0.060   1.096  0.0308  0.2986 -0.2970
  893SOL    HW1 2678   1.198   0.037   1.034 -0.7442  2.3754 -0.2945
  893SOL    HW2 2679   1.161   0.087   1.186  1.6584  3.4517  2.1356
  894SOL     OW 2680   2.788   0.138   1.098 -0.9470 -0.4005  0.1747
  894SOL    HW1 2681   2.719   0.075   1.136  3.0545 -0.7321 -0.8258
  894SOL    HW2 2682   2.881   0.116   1.132 -1.5089 -0.3373 -2.1695
  895SOL     OW 2683   1.602   1.884   2.415 -0.1068  0.3015  0.3262
  895SOL    HW1 2684   1.698   1.903   2.390 -0.8031 -1.8128  1.1824
  895SOL    HW2 2685   1.590   1.881   2.515 -0.3646  0.2188  0.1432
  896SOL     OW 2686   1.886   0.798   1.272  0.5386 -0.6743 -0.5019
  896SOL    HW1 2687   1.951   0.844   1.338  1.6247  0.1798  0.5934
  896SOL    HW2 2688   1.918   0.802   1.177 -1.9625  0.9926  0.1355
  897SOL     OW 2689   0.559   1.122   1.488  0.0645 -0.2906 -0.1275
  897SOL    HW1 2690   0.528   1.198   1.428  1.6654 -2.6611  0.0204
  897SOL    HW2 2691   0.525   1.146   1.586 -3.5808  3.6265  0.6070
  898SOL     OW 2692   1.615   2.152   2.283  0.3746  0.3593 -0.2675
  898SOL    HW1 2693   1.613   2.074   2.215  3.2916  0.8666 -1.0440
  898SOL    HW2 2694   1.523   2.161   2.322 -4.2528 -1.8576 -0.9048
  899SOL     OW 2695   1.226   1.810   0.975  0.0483 -0.3198  0.0517
  899SOL    HW1 2696   1.322   1.800   1.003 -2.3603 -1.6015 -2.3537
  899SOL    HW2 2697   1.184   1.720   0.955  0.5461 -0.1186 -0.8632
  900SOL     OW 2698   0.736   2.878   2.479 -0.0543  0.4787  0.7678
  900SOL    HW1 2699   0.694   2.874   2.569  1.2383 -0.8591  0.0396
  900SOL    HW2 2700   0.726   2.979   2.452 -1.3865  0.1158 -0.1196
  901SOL     OW 2701   0.932   1.516   2.143  0.2807  0.0619 -0.4768
  901SOL    HW1 2702   0.860   1.499   2.076  4.0898 -0.8766  2.4931
  901SOL    HW2 2703   0.956   1.437   2.200  1.7060  1.2199  2.6085
  902SOL     OW 2704   2.136   0.925   3.031  0.5009 -0.4688  0.6286
  902SOL    HW1 2705   2.167   1.021   3.044 -0.6499  0.7839 -0.4831
  902SOL    HW2 2706   2.143   0.870   0.021  1.1930  0.1645  0.4253
  903SOL     OW 2707   1.979   1.347   2.698  0.2707 -0.0302 -0.1315
  903SOL    HW1 2708   1.944   1.329   2.795  1.2592 -1.0921 -0.3401
  903SOL    HW2 2709   1.935   1.298   2.619 -2.5188  0.3145 -0.9084
  904SOL     OW 2710   1.542   1.284   1.811  0.4837 -0.7456  0.6003
  904SOL    HW1 2711   1.498   1.269   1.718 -0.6095  0.5594  2.2943
  904SOL    HW2 2712   1.562   1.380   1.831 -0.3287 -5.1594 -2.4691
  905SOL     OW 2713   2.532   0.515   1.090  0.0112  0.3646  0.3715
  905SOL    HW1 2714   2.484   0.463   1.016 -0.1050 -0.0451 -1.0547
  905SOL    HW2 2715   2.617   0.463   1.120 -0.8480  2.5812  0.9550
  906SOL     OW 2716   0.377   1.497   0.527 -0.0459 -0.5713  0.6927
  906SOL    HW1 2717   0.432   1.416   0.551 -0.8441  2.2005 -0.1927
  906SOL    HW2 2718   0.293   1.466   0.473 -0.2074  2.2178 -1.5827
  907SOL     OW 2719   1.330   2.910   0.449  0.2686  0.1814 -0.3585
  907SOL    HW1 2720   1.380   2.960   0.524  2.9929  0.1758 -0.9697
  907SOL    HW2 2721   1.382   2.836   0.415 -0.0275  1.6012 -3.9803
  908SOL     OW 2722   1.160   2.638   1.656  0.5733  0.2495  0.6759
  908SOL    HW1 2723   1.101   2.584   1.717  0.3775  1.6454  1.8281
  908SOL    HW2 2724   1.099   2.667   1.579 -1.1680  0.8522 -2.6544
  909SOL     OW 2725   2.400   0.731   1.797 -0.6684 -0.1097 -0.2524
  909SOL    HW1 2726   2.412   0.727   1.899  0.2534 -0.7004 -0.5107
  909SOL    HW2 2727   2.298   0.734   1.778 -1.9338 -0.2856 -0.7153
  910SOL     OW 2728   1.314   0.152   2.249  0.4169 -0.1210  0.4562
  910SOL    HW1 2729   1.297   0.166   2.347  1.4656 -0.5808 -1.9797
  910SOL    HW2 2730   1.281   0.060   2.220 -0.9151 -1.1692 -1.7006
  911SOL     OW 2731   2.449   1.644   2.457  0.2315  0.2051  0.0513
  911SOL    HW1 2732   2.522   1.688   2.403  1.0908  1.7490  4.1392
  911SOL    HW2 2733   2.378   1.595   2.405  1.4484 -1.4573  1.2173
  912SOL     OW 2734   2.359   2.185   1.317 -0.1455 -0.3037 -0.0758
  912SOL    HW1 2735   2.389   2.271   1.270  1.4874 -0.2393  0.6925
  912SOL    HW2 2736   2.334   2.209   1.417  0.6991  3.0872  0.1555
  913SOL     OW 2737   2.559   2.288   1.934  0.1618 -0.5737  0.3062
  913SOL    HW1 2738   2.655   2.262   1.956 -0.1869  1.4130  1.2947
  913SOL    HW2 2739   2.547   2.386   1.925  1.7313 -0.3637  1.5129
  914SOL     OW 2740   1.978   2.172   0.828 -0.1047 -0.3906  0.2423
  914SOL    HW1 2741   2.044   2.195   0.905  1.0523  2.7984 -0.7880
  914SOL    HW2 2742   2.000   2.080   0.785  1.2098  1.4425  0.5436
  915SOL     OW 2743   1.092   2.672   2.024 -0.1568  0.0114  0.0414
  915SOL    HW1 2744   1.059   2.634   2.113 -0.9944 -1.2697 -1.5585
  915SOL    HW2 2745   1.085   2.598   1.954  1.0549 -0.5626 -2.0947
  916SOL     OW 2746   0.107   2.120   0.913  0.4926 -0.1457 -0.0920
  916SOL    HW1 2747   0.109   2.206   0.972  0.1622  0.7942  2.5008
  916SOL    HW2 2748   0.172   2.128   0.839 -2.1899 -1.3220  0.9147
  917SOL     OW 2749   2.850   1.198   2.765  0.5818 -0.5213  0.5300
  917SOL    HW1 2750   2.909   1.114   2.786 -0.8075 -0.3025  0.4560
  917SOL    HW2 2751   2.887   1.256   2.688  2.0639 -0.8827  0.2602
  918SOL     OW 2752   1.217   2.149   2.445 -0.5746 -0.6643  0.3522
  918SOL    HW1 2753   1.266   2.061   2.461  1.7562  1.9521  0.2337
  918SOL    HW2 2754   1.125   2.134   2.402 -2.5003  1.0778  0.5785
  919SOL     OW 2755   1.706   2.230   0.813 -0.9699 -0.1992 -0.1796
  919SOL    HW1 2756   1.658   2.145   0.836  1.7522  1.5582 -0.8000
  919SOL    HW2 2757   1.807   2.220   0.837 -1.4019 -0.9020  0.3233
  920SOL     OW 2758   1.134   0.525   2.563 -0.5020  0.4845  0.3625
  920SOL    HW1 2759   1.165   0.612   2.610  0.3979 -0.4340  2.1831
  920SOL    HW2 2760   1.140   0.534   2.457  0.2275 -0.0559 -2.2024
  921SOL     OW 2761   3.089   0.395   2.771 -0.5638  0.1823  0.0795
  921SOL    HW1 2762   3.069   0.485   2.732 -1.3868 -3.1208 -0.1794
  921SOL    HW2 2763   3.078   0.328   2.694 -0.0919  0.8500  0.4227
  922SOL     OW 2764   2.423   1.484   1.657  0.1327 -0.7947  0.1676
  922SOL    HW1 2765   2.407   1.562   1.590  0.8434  3.0365 -1.9869
  922SOL    HW2 2766   2.466   1.413   1.599  0.2741 -0.5658 -1.7247
  923SOL     OW 2767   0.134   1.756   2.562  0.3093 -0.1235 -0.0529
  923SOL    HW1 2768   0.105   1.851   2.546  1.6918 -1.5474 -1.2426
  923SOL    HW2 2769   0.118   1.723   2.661 -0.1738 -2.0247  4.0965
  924SOL     OW 2770   1.764   0.192   2.319 -0.0211 -0.2463  0.5000
  924SOL    HW1 2771   1.705   0.176   2.399 -0.7811 -1.6619 -1.8108
  924SOL    HW2 2772   1.780   0.293   2.304 -1.4767  3.2207  0.6340
  925SOL     OW 2773   2.934   0.971   0.096 -0.6870  0.1780  0.4482
  925SOL    HW1 2774   2.880   0.952   0.015  0.1607 -0.0600  1.2121
  925SOL    HW2 2775   2.968   0.888   0.140 -1.5678 -0.8659 -0.9536
  926SOL     OW 2776   2.737   0.258   0.831  0.0024 -0.0091 -0.4567
  926SOL    HW1 2777   2.776   0.351   0.837 -0.3503  0.9699  0.3258
  926SOL    HW2 2778   2.736   0.211   0.919  1.4912  0.9881 -2.4316
  927SOL     OW 2779   1.189   0.972   0.577 -0.4783  0.9472  0.2361
  927SOL    HW1 2780   1.191   0.955   0.476  0.8143  0.4422  0.2868
  927SOL    HW2 2781   1.101   0.939   0.619 -2.0193  2.2501  0.6953
  928SOL     OW 2782   0.027   0.127   2.165  0.1432  0.0356  0.1156
  928SOL    HW1 2783   3.046   0.188   2.145 -0.6016 -1.3524 -1.3239
  928SOL    HW2 2784   0.075   0.169   2.245  1.4304  0.4485 -2.3878
  929SOL     OW 2785   2.460   0.808   1.475  0.2693  0.3720 -0.6261
  929SOL    HW1 2786   2.557   0.837   1.447  0.0903  0.5154  1.5844
  929SOL    HW2 2787   2.478   0.724   1.532 -1.2651 -0.7795 -0.4583
  930SOL     OW 2788   1.939   2.594   0.951  0.0045  0.2771  0.0729
  930SOL    HW1 2789   1.844   2.631   0.944 -1.8353 -0.9992 -0.2662
  930SOL    HW2 2790   1.986   2.582   0.861  1.4940  1.7530 -2.6766
  931SOL     OW 2791   1.892   1.177   0.964 -0.1471  0.1115 -0.3109
  931SOL    HW1 2792   1.935   1.252   0.910 -0.6734 -0.8546 -1.2541
  931SOL    HW2 2793   1.800   1.162   0.922 -1.9978 -0.3224  0.4129
  932SOL     OW 2794   0.194   0.852   1.404  0.2991  0.2288  0.7263
  932SOL    HW1 2795   0.121   0.887   1.344 -1.9518 -0.4442  0.7812
  932SOL    HW2 2796   0.219   0.759   1.368  1.8267 -1.5367 -2.8960
  933SOL     OW 2797   2.162   1.733   2.138  0.2774  0.4728  0.2005
  933SOL    HW1 2798   2.088   1.671   2.178 -3.1987 -0.1275  0.4157
  933SOL    HW2 2799   2.157   1.730   2.039 -2.8379  0.4697 -2.8619
  934SOL     OW 2800   1.606   2.832   1.377  0.2652 -0.1439  0.4431
  934SOL    HW1 2801   1.601   2.815   1.277 -1.6050 -3.4045  0.0657
  934SOL    HW2 2802   1.507   2.842   1.411 -1.6568 -2.7298  3.4813
  935SOL     OW 2803   0.663   0.725   1.398  0.0162  0.4779 -0.4224
  935SOL    HW1 2804   0.587   0.795   1.401  2.2334 -0.7116  0.5101
  935SOL    HW2 2805   0.700   0.703   1.489 -2.5622 -1.8655  2.6208
  936SOL     OW 2806   2.382   0.699   1.230 -0.1891  0.2826  0.7501
  936SOL    HW1 2807   2.437   0.630   1.178  0.7742 -0.2718  0.2184
  936SOL    HW2 2808   2.410   0.714   1.326 -2.5815 -0.6794  1.6322
  937SOL     OW 2809   1.024   2.908   1.185 -0.1749 -0.6336 -0.3603
  937SOL    HW1 2810   0.952   2.949   1.241 -0.3983 -0.2212  2.0300
  937SOL    HW2 2811   1.067   2.982   1.132  0.9027 -2.3632 -0.3376
  938SOL     OW 2812   2.955   2.375   0.850 -0.1843  0.3522 -0.5708
  938SOL    HW1 2813   2.934   2.278   0.854  0.0518  2.2922 -1.8409
  938SOL    HW2 2814   2.880   2.425   0.897  0.6858 -3.3657 -1.0182
  939SOL     OW 2815   0.122   1.671   2.811 -0.1600  0.7969 -0.1501
  939SOL    HW1 2816   0.058   1.599   2.795  0.2926  1.9132  1.6862
  939SOL    HW2 2817   0.195   1.647   2.880  1.3343 -0.3184  0.9551
  940SOL     OW 2818   2.491   2.754   2.855  0.2446 -0.1437 -0.4781
  940SOL    HW1 2819   2.514   2.738   2.758  0.1720 -0.1499  1.4466
  940SOL    HW2 2820   2.496   2.849   2.885 -0.8055 -2.9396 -1.6338
  941SOL     OW 2821   1.519   2.761   0.258 -0.7189  0.4244 -0.1381
  941SOL    HW1 2822   1.547   2.797   0.166  1.5766  0.9532  0.2070
  941SOL    HW2 2823   1.576   2.802   0.332 -0.4121 -0.6115  0.7989
  942SOL     OW 2824   1.618   2.086   1.442  0.5099  0.1161 -0.2509
  942SOL    HW1 2825   1.602   1.996   1.491 -0.3157 -0.0516 -1.4539
  942SOL    HW2 2826   1.639   2.161   1.504 -0.5719 -0.5886 -3.0693
  943SOL     OW 2827   1.805   0.937   1.877 -0.2660 -0.9734 -0.2954
  943SOL    HW1 2828   1.733   0.864   1.873  0.7731  0.0685 -1.6514
  943SOL    HW2 2829   1.889   0.900   1.917  0.5281  0.7438  0.0751
  944SOL     OW 2830   1.656   0.692   1.843 -0.4037 -0.2199  0.2468
  944SOL    HW1 2831   1.671   0.685   1.745 -1.1708 -0.5009  4.4890
  944SOL    HW2 2832   1.639   0.598   1.878  1.9454  4.0873  0.8370
  945SOL     OW 2833   2.683   2.303   1.135  0.4192  0.3040 -0.0514
  945SOL    HW1 2834   2.737   2.364   1.074  2.2129 -1.9519  1.6831
  945SOL    HW2 2835   2.747   2.239   1.183  1.8806 -1.4313 -0.1877
  946SOL     OW 2836   0.804   1.151   1.634  0.0581  0.2946  0.8929
  946SOL    HW1 2837   0.856   1.219   1.577  0.3282  0.0849 -0.8926
  946SOL    HW2 2838   0.728   1.116   1.577  0.2795  1.1807 -0.6965
  947SOL     OW 2839   0.399   2.578   0.733  0.3121 -0.0991  0.1780
  947SOL    HW1 2840   0.395   2.537   0.826 -1.1867 -1.3254  2.5452
  947SOL    HW2 2841   0.370   2.501   0.663  1.5246 -3.0931 -1.8951
  948SOL     OW 2842   0.076   1.539   1.715 -0.8691 -0.0446  0.0501
  948SOL    HW1 2843   0.144   1.568   1.780  1.6104  0.7697  1.5982
  948SOL    HW2 2844   0.120   1.526   1.626 -0.8775  3.0947  0.2146
  949SOL     OW 2845   0.344   0.416   2.162 -0.1646 -0.0133  0.1507
  949SOL    HW1 2846   0.422   0.426   2.231  3.4786  0.0494  1.6146
  949SOL    HW2 2847   0.325   0.507   2.119 -0.8851  0.9657 -0.4377
  950SOL     OW 2848   0.414   0.764   0.912 -0.0600 -0.3885 -0.3909
  950SOL    HW1 2849   0.485   0.837   0.928 -0.5996  2.7240  4.1422
  950SOL    HW2 2850   0.324   0.802   0.907  2.1176  0.3620 -0.2064
  951SOL     OW 2851   0.881   1.678   2.374 -0.9532 -0.4670 -0.4281
  951SOL    HW1 2852   0.899   1.631   2.285  3.8753 -0.6798 -0.1985
  951SOL    HW2 2853   0.790   1.713   2.384  0.9503  0.1934  2.1927
  952SOL     OW 2854   1.269   1.400   2.885  0.0679 -0.0636 -0.1054
  952SOL    HW1 2855   1.326   1.370   2.809  0.4963  4.7631  1.5075
  952SOL    HW2 2856   1.317   1.480   2.929 -0.5606  2.7224  0.3818
  953SOL     OW 2857   1.053   3.012   2.388  0.0636 -0.4079 -0.0168
  953SOL    HW1 2858   0.974   3.043   2.335 -2.6573 -1.8557  0.4724
  953SOL    HW2 2859   1.036   3.015   2.488 -1.2228  1.8403  1.6666
  954SOL     OW 2860   2.262   1.549   0.517  0.9002 -0.3498  0.2512
  954SOL    HW1 2861   2.266   1.578   0.416  0.8813  0.2426 -1.5041
  954SOL    HW2 2862   2.321   1.465   0.541  0.3641 -0.7240  0.2643
  955SOL     OW 2863   0.335   2.380   2.915 -0.2125  0.4027  0.8768
  955SOL    HW1 2864   0.312   2.431   2.828 -2.5044 -0.7146 -3.4565
  955SOL    HW2 2865   0.270   2.300   2.922  0.8895 -1.7941 -0.8196
  956SOL     OW 2866   0.993   0.708   1.580  0.0046 -0.0531 -0.9097
  956SOL    HW1 2867   1.050   0.649   1.528  0.5580  2.5794  0.6514
  956SOL    HW2 2868   1.028   0.805   1.576  0.7796  0.6090  0.2559
  957SOL     OW 2869   2.024   1.515   2.254 -0.1027 -0.2544  0.0024
  957SOL    HW1 2870   2.004   1.437   2.197  0.3365  1.4608 -1.1732
  957SOL    HW2 2871   1.942   1.525   2.315  0.6465  2.9227 -1.2359
  958SOL     OW 2872   1.594   2.479   1.347  0.2735 -0.2290  0.5215
  958SOL    HW1 2873   1.638   2.570   1.325  1.7484  1.4719 -2.0298
  958SOL    HW2 2874   1.657   2.407   1.307 -0.1061 -0.8641  1.3918
  959SOL     OW 2875   1.609   1.554   1.823 -0.4245  0.2969 -0.2482
  959SOL    HW1 2876   1.705   1.554   1.789  0.7186  0.2505  2.0615
  959SOL    HW2 2877   1.545   1.610   1.767 -0.4284 -0.1484  1.3787
  960SOL     OW 2878   2.959   0.947   2.808 -0.2682  0.2974 -0.0089
  960SOL    HW1 2879   2.895   0.920   2.732  0.3553 -1.5152  1.3146
  960SOL    HW2 2880   3.025   0.878   2.841 -0.5529  2.0728 -0.0957
  961SOL     OW 2881   0.322   0.668   2.053 -0.6863  0.4442  0.0978
  961SOL    HW1 2882   0.258   0.643   1.978 -1.4479  1.1490 -2.4635
  961SOL    HW2 2883   0.399   0.735   2.022  2.8597  2.0673  0.2452
  962SOL     OW 2884   1.559   1.635   0.429  0.2266 -0.1991  0.7425
  962SOL    HW1 2885   1.464   1.636   0.467  1.4087 -0.0054  1.3038
  962SOL    HW2 2886   1.612   1.556   0.464 -2.9378  0.0550 -0.8391
  963SOL     OW 2887   1.301   2.407   2.460  0.0709 -0.3773 -0.3707
  963SOL    HW1 2888   1.228   2.464   2.503  0.6172  2.0622 -0.0701
  963SOL    HW2 2889   1.277   2.310   2.446 -1.4093 -0.8653  0.3101
  964SOL     OW 2890   0.892   2.313   0.427 -0.5961  0.1393  0.0343
  964SOL    HW1 2891   0.857   2.291   0.336  0.7193 -2.1014  1.2910
  964SOL    HW2 2892   0.869   2.409   0.454  1.5584 -1.5858 -1.7197
  965SOL     OW 2893   0.621   3.058   0.994 -0.0527 -0.4487  0.4976
  965SOL    HW1 2894   0.567   0.008   1.064 -2.3026 -2.6053 -2.8942
  965SOL    HW2 2895   0.607   0.008   0.900 -0.7031  2.2503  0.8797
  966SOL     OW 2896   0.031   1.110   2.969 -0.0206 -0.0380 -0.2605
  966SOL    HW1 2897   3.061   1.063   2.910 -1.8489  1.1570 -0.5611
  966SOL    HW2 2898   3.081   1.155   3.050 -1.6331 -0.4770  1.4274
  967SOL     OW 2899   0.965   2.967   1.804 -0.5890 -0.1424  0.2810
  967SOL    HW1 2900   0.911   3.050   1.831  1.0132 -0.1035 -0.6070
  967SOL    HW2 2901   1.050   2.964   1.860 -0.6860 -1.1434  0.8510
  968SOL     OW 2902   2.043   0.364   0.453  0.0347 -0.0098  0.5918
  968SOL    HW1 2903   2.086   0.310   0.530  0.7891 -1.1948  0.5103
  968SOL    HW2 2904   1.947   0.400   0.482  0.4599 -0.4408  3.5417
  969SOL     OW 2905   3.003   1.725   2.120 -0.2133 -0.2531 -0.3267
  969SOL    HW1 2906   2.942   1.718   2.039 -0.5901 -0.1177  2.0384
  969SOL    HW2 2907   0.003   1.723   2.091 -1.7153  1.6338  1.7713
  970SOL     OW 2908   2.050   1.314   1.383 -0.7064  0.3218  0.3442
  970SOL    HW1 2909   2.092   1.387   1.318  1.5649  2.0619 -0.8211
  970SOL    HW2 2910   2.124   1.278   1.448  1.4348 -1.0638  1.6325
  971SOL     OW 2911   1.951   0.330   1.192  0.6337  0.1496 -0.2323
  971SOL    HW1 2912   2.036   0.371   1.232  0.3759 -0.4732 -0.2189
  971SOL    HW2 2913   1.964   0.315   1.094  1.8799  2.5100  3.2081
  972SOL     OW 2914   0.597   2.930   1.832 -0.3551  0.1515 -0.1092
  972SOL    HW1 2915   0.628   3.017   1.868 -1.6523  0.4110  1.4594
  972SOL    HW2 2916   0.542   2.937   1.750  0.5339  1.7499  0.7640
  973SOL     OW 2917   2.746   1.094   0.325 -0.1348 -0.8549 -0.2965
  973SOL    HW1 2918   2.700   1.040   0.258  2.4459 -0.5066  2.4795
  973SOL    HW2 2919   2.834   1.057   0.355 -0.9635 -2.2831  0.7684
  974SOL     OW 2920   1.773   1.415   2.344  0.4529 -0.4884 -0.2751
  974SOL    HW1 2921   1.745   1.419   2.246 -0.8103 -1.7154  0.0820
  974SOL    HW2 2922   1.685   1.432   2.397  0.3332  0.5895  0.0752
  975SOL     OW 2923   0.229   2.600   1.404 -0.0185  0.3347  0.1877
  975SOL    HW1 2924   0.289   2.664   1.360 -2.3153  0.6166  0.1997
  975SOL    HW2 2925   0.135   2.623   1.374 -0.2089 -1.1935 -1.7050
  976SOL     OW 2926   0.178   1.529   1.440  0.4940  0.0783 -0.9371
  976SOL    HW1 2927   0.215   1.613   1.407  0.5126 -0.7272 -0.1268
  976SOL    HW2 2928   0.206   1.453   1.387  1.9564  3.7059  0.2679
  977SOL     OW 2929   0.696   2.330   2.845 -0.0550 -0.5121 -0.3677
  977SOL    HW1 2930   0.655   2.406   2.788 -1.0662  1.3104 -2.3598
  977SOL    HW2 2931   0.794   2.324   2.824 -3.8260 -1.3640 -1.9884
  978SOL     OW 2932   0.536   1.695   2.541  0.3026 -0.4767  0.0449
  978SOL    HW1 2933   0.589   1.765   2.488  2.1844  1.7720 -0.2945
  978SOL    HW2 2934   0.522   1.733   2.637 -0.2113  2.8418  0.3305
  979SOL     OW 2935   1.577   2.420   0.992  0.0774  0.1406  0.1402
  979SOL    HW1 2936   1.589   2.358   1.072 -1.6264 -1.3535  1.3019
  979SOL    HW2 2937   1.635   2.377   0.918 -0.2604 -0.2355 -0.0260
  980SOL     OW 2938   1.048   1.684   2.830  0.6225  0.0228 -0.8667
  980SOL    HW1 2939   0.956   1.709   2.865 -1.8305  0.2302  0.8965
  980SOL    HW2 2940   1.124   1.736   2.877  2.4082 -0.1858 -1.7214
  981SOL     OW 2941   2.732   0.145   2.531 -0.3694  0.1929 -0.2117
  981SOL    HW1 2942   2.760   0.219   2.465  2.2087  1.2924  2.5676
  981SOL    HW2 2943   2.654   0.100   2.493 -0.9218  1.1856 -1.4356
  982SOL     OW 2944   0.290   2.941   2.826 -0.0965 -0.5361  0.1771
  982SOL    HW1 2945   0.237   2.860   2.802 -0.2622  1.5581  0.4821
  982SOL    HW2 2946   0.356   2.922   2.898 -2.9377  0.6643  1.4584
  983SOL     OW 2947   2.279   1.066   2.033  0.4122  0.0929 -0.5210
  983SOL    HW1 2948   2.372   1.095   2.069  1.3710  2.6294  1.1686
  983SOL    HW2 2949   2.257   1.114   1.946 -0.9132 -0.0427 -0.6790
  984SOL     OW 2950   1.496   0.270   2.086  0.0055  0.7062 -0.0469
  984SOL    HW1 2951   1.428   0.223   2.150  0.2655  0.4456  2.3485
  984SOL    HW2 2952   1.589   0.224   2.090  0.3157 -1.4524 -0.1479
  985SOL     OW 2953   1.049   1.885   2.095 -0.1785 -0.2911 -0.0609
  985SOL    HW1 2954   1.036   1.814   2.024  1.8397 -1.7337 -0.7130
  985SOL    HW2 2955   1.137   1.865   2.136 -0.2276 -0.6275  0.6852
  986SOL     OW 2956   1.768   0.171   2.035 -0.7150 -0.1885  0.2817
  986SOL    HW1 2957   1.845   0.153   1.969 -0.0507 -3.2643  1.5351
  986SOL    HW2 2958   1.798   0.168   2.132 -1.3421 -2.1688  2.5248
  987SOL     OW 2959   1.992   0.763   1.928 -0.1250 -0.0396 -0.2438
  987SOL    HW1 2960   2.044   0.736   1.843 -1.1116  1.9003  1.5751
  987SOL    HW2 2961   2.056   0.767   2.009 -2.2207 -3.2504  0.4588
  988SOL     OW 2962   2.505   0.693   2.538 -0.4165 -0.4211 -0.1389
  988SOL    HW1 2963   2.479   0.768   2.468 -3.5826 -0.0621 -0.5008
  988SOL    HW2 2964   2.426   0.631   2.538  1.2786  3.4144 -1.9784
  989SOL     OW 2965   2.516   2.730   2.592 -0.4398 -0.5020  0.9629
  989SOL    HW1 2966   2.449   2.661   2.553 -0.5035  1.4451  1.0243
  989SOL    HW2 2967   2.612   2.719   2.546  4.0951 -2.1991 -1.2868
  990SOL     OW 2968   0.626   0.605   2.839  0.5085 -0.3199 -0.0136
  990SOL    HW1 2969   0.704   0.623   2.776  1.8061  2.9175  0.4803
  990SOL    HW2 2970   0.541   0.662   2.823 -1.3205 -0.6807 -2.4267
  991SOL     OW 2971   1.000   0.608   2.866  0.0909  0.6245 -0.0956
  991SOL    HW1 2972   1.000   0.545   2.945  1.3930 -0.1979 -1.5571
  991SOL    HW2 2973   1.094   0.641   2.838  1.2843  2.0514 -0.5312
  992SOL     OW 2974   2.815   2.211   2.754  0.1754 -0.2155 -0.6913
  992SOL    HW1 2975   2.787   2.210   2.655 -1.3345 -0.6472 -2.1357
  992SOL    HW2 2976   2.786   2.299   2.797 -1.2785  2.4284 -0.8880
  993SOL     OW 2977   0.555   3.097   0.463 -0.1904  0.5210 -0.0323
  993SOL    HW1 2978   0.540   3.092   0.565 -0.8118  1.1344 -3.6154
  993SOL    HW2 2979   0.525   3.023   0.401  0.8898  0.9722 -1.2919
  994SOL     OW 2980   0.382   2.161   1.564 -0.2964 -0.5394 -0.2239
  994SOL    HW1 2981   0.440   2.217   1.630 -0.4373 -0.1842  2.9256
  994SOL    HW2 2982   0.313   2.228   1.534 -0.4187  2.0089 -1.5941
  995SOL     OW 2983   2.284   1.927   0.013  0.5845  0.5292 -0.6260
  995SOL    HW1 2984   2.377   1.891   3.096 -1.6285 -0.8767 -3.2746
  995SOL    HW2 2985   2.216   1.847   0.017  0.5721 -1.5781  2.4772
  996SOL     OW 2986   1.555   1.630   2.340  0.3217 -0.1115 -0.7719
  996SOL    HW1 2987   1.543   1.639   2.240 -0.6549 -1.5362 -0.5018
  996SOL    HW2 2988   1.558   1.723   2.387 -2.3239  2.1179  1.4065
  997SOL     OW 2989   1.701   1.005   1.327  0.9696  0.3533 -0.1872
  997SOL    HW1 2990   1.739   1.091   1.294 -2.8391 -5.1936 -2.1417
  997SOL    HW2 2991   1.777   0.937   1.339 -2.0460  0.8962 -0.2973
  998SOL     OW 2992   2.905   1.529   0.249  0.1829  0.3176 -0.2218
  998SOL    HW1 2993   2.867   1.440   0.215 -0.2284 -0.2649 -0.0250
  998SOL    HW2 2994   2.927   1.589   0.174 -0.5844  0.8360  0.4242
  999SOL     OW 2995   2.887   2.394   0.360  0.3521  0.2567 -0.2601
  999SOL    HW1 2996   2.932   2.416   0.447 -0.3634 -0.5949  0.3607
  999SOL    HW2 2997   2.840   2.303   0.364 -0.7188 -1.1173 -0.2071
 1000SOL     OW 2998   0.859   3.090   2.100  0.3150  0.0622 -0.1911
 1000SOL    HW1 2999   0.787   0.019   2.030  0.5657 -0.6917  0.8826
 1000SOL    HW2 3000   0.868   2.984   2.105 -0.7776 -0.2568 -2.3136
   3.09757   3.09757   3.09757
