1000 SPC/Fw water molecules t= 432.00000 step= 432000
 3000
    1SOL     OW    1   0.078   0.197   1.190 -0.1337  0.2060 -0.2529
    1SOL    HW1    2   0.123   0.150   1.109 -1.0204  3.1200 -0.8574
    1SOL    HW2    3   0.137   0.180   1.271 -0.9686  0.7957  1.4162
    2SOL     OW    4   2.791   3.000   3.059 -0.4220 -0.1067 -0.2721
    2SOL    HW1    5   2.790   2.930   0.003  0.7562 -1.0344 -1.8477
    2SOL    HW2    6   2.741   2.969   2.975 -0.6531 -1.4972  0.4323
    3SOL     OW    7   1.358   2.829   3.112  0.1348 -0.2184 -0.0178
    3SOL    HW1    8   1.327   2.736   3.085 -0.9410  1.9519 -0.4085
    3SOL    HW2    9   1.411   2.825   0.073  0.6941  0.2091 -1.0793
    4SOL     OW   10   1.222   2.788   2.377 -0.5025  0.3020 -0.4271
    4SOL    HW1   11   1.265   2.707   2.421  0.4630  0.3276 -0.8537
    4SOL    HW2   12   1.124   2.800   2.403 -2.5362  1.8673 -1.7103
    5SOL     OW   13   2.220   0.043   2.115  0.4709 -0.1162 -0.1732
    5SOL    HW1   14   2.221   0.145   2.123  0.0775  0.7209 -0.3918
    5SOL    HW2   15   2.128   0.009   2.080 -1.3576  0.4984 -0.0648
    6SOL     OW   16   2.670   2.230   1.086  0.2999 -0.2835 -0.1912
    6SOL    HW1   17   2.751   2.206   1.145 -2.6286  1.0050 -2.5988
    6SOL    HW2   18   2.612   2.285   1.146  2.6759 -2.9947 -0.4667
    7SOL     OW   19   1.558   1.812   0.639 -0.5498  0.2388 -0.4677
    7SOL    HW1   20   1.517   1.778   0.554  0.4394  4.7167  1.7697
    7SOL    HW2   21   1.486   1.858   0.695  0.5404 -1.1903 -1.9673
    8SOL     OW   22   0.429   1.442   0.974  0.2492  0.1907 -0.8564
    8SOL    HW1   23   0.410   1.503   0.892 -2.0748  0.5155 -1.1079
    8SOL    HW2   24   0.490   1.487   1.045  0.0723 -0.1994  2.4563
    9SOL     OW   25   3.123   2.871   1.535  0.6077  0.0248  0.0982
    9SOL    HW1   26   3.027   2.904   1.537 -1.5443 -0.0894 -0.3170
    9SOL    HW2   27   0.004   2.775   1.503  3.2628 -2.1045 -0.5551
   10SOL     OW   28   1.074   2.412   0.575  0.0596 -0.1975  0.0577
   10SOL    HW1   29   1.156   2.398   0.630 -0.4754  2.4013 -0.2973
   10SOL    HW2   30   1.013   2.472   0.623  1.3628  2.8479 -0.6574
   11SOL     OW   31   1.793   1.785   1.201 -0.1048  0.6694  0.0394
   11SOL    HW1   32   1.740   1.770   1.113 -1.4990 -1.2281  0.1937
   11SOL    HW2   33   1.741   1.752   1.281 -3.6689 -1.6385  1.5301
   12SOL     OW   34   0.012   0.872   2.091  0.5181 -0.1624 -0.0066
   12SOL    HW1   35   3.117   0.877   1.992  0.3468  0.0497  3.6624
   12SOL    HW2   36   0.113   0.870   2.106 -2.4412 -2.4452 -1.3707
   13SOL     OW   37   2.348   3.006   0.001 -0.1070  0.5607  0.3117
   13SOL    HW1   38   2.379   2.907   3.113 -1.1393 -0.9013 -0.8321
   13SOL    HW2   39   2.422   3.069   3.093 -0.5020 -3.0852 -0.0216
   14SOL     OW   40   1.541   1.829   0.217  0.1471  0.2389  0.1897
   14SOL    HW1   41   1.465   1.845   0.155  3.5929 -0.6645  0.6514
   14SOL    HW2   42   1.552   1.909   0.281  0.1429  3.1534 -0.0486
   15SOL     OW   43   0.053   2.857   2.014 -0.0183  0.4471 -0.6135
   15SOL    HW1   44   0.133   2.842   1.953  0.2366  0.3795 -2.8260
   15SOL    HW2   45   3.091   2.877   1.964  0.4670 -3.2566  0.3125
   16SOL     OW   46   2.747   0.440   0.803  0.2759 -0.4484 -0.0158
   16SOL    HW1   47   2.829   0.386   0.836  1.2688 -2.6266 -0.4627
   16SOL    HW2   48   2.700   0.397   0.724  1.4938 -2.0128  1.4261
   17SOL     OW   49   0.660   0.406   0.673 -0.6905  0.0579 -0.1599
   17SOL    HW1   50   0.742   0.410   0.739  4.0678  0.1472  0.6601
   17SOL    HW2   51   0.696   0.381   0.581  1.8130 -1.6285  1.9347
   18SOL     OW   52   0.938   0.170   0.777  0.0777 -0.0562  0.0518
   18SOL    HW1   53   0.928   0.154   0.681 -1.3355  1.5946  1.5349
   18SOL    HW2   54   0.914   0.262   0.801 -1.7041 -1.0173 -3.7208
   19SOL     OW   55   2.002   1.113   0.818  0.2237 -0.1057 -0.1658
   19SOL    HW1   56   2.100   1.097   0.798  0.4722  1.6070 -1.7298
   19SOL    HW2   57   1.935   1.050   0.773 -0.3737  1.5880  1.3721
   20SOL     OW   58   2.352   1.754   3.048  0.2463 -0.0062 -0.6086
   20SOL    HW1   59   2.270   1.739   2.990 -0.3807  1.1896 -1.0748
   20SOL    HW2   60   2.405   1.841   3.021  1.9316  0.0116  0.3403
   21SOL     OW   61   1.516   3.076   0.251  0.1702 -0.1980  0.4652
   21SOL    HW1   62   1.491   0.046   0.222 -0.3845 -0.6742 -1.0755
   21SOL    HW2   63   1.613   3.051   0.226 -1.4823  0.4002  0.9054
   22SOL     OW   64   2.932   0.945   0.573 -0.6332  0.3921  0.1375
   22SOL    HW1   65   2.867   1.012   0.611  0.0536 -2.7418  0.5626
   22SOL    HW2   66   2.879   0.864   0.556 -1.9023  0.4134 -0.1704
   23SOL     OW   67   0.683   0.204   1.903 -0.9241 -0.0023 -0.1122
   23SOL    HW1   68   0.741   0.207   1.820  0.0135  3.4081  0.3425
   23SOL    HW2   69   0.611   0.277   1.896  2.6859 -2.5782 -0.6958
   24SOL     OW   70   1.905   2.254   0.619  0.0413  1.1474 -1.3987
   24SOL    HW1   71   1.978   2.231   0.690  1.0024  0.7712 -0.3831
   24SOL    HW2   72   1.825   2.202   0.645  0.3369 -2.5820 -0.4068
   25SOL     OW   73   1.719   0.179   2.395 -0.0876  0.3369  0.3062
   25SOL    HW1   74   1.759   0.173   2.487  1.7263 -1.2001 -0.9912
   25SOL    HW2   75   1.762   0.111   2.331  0.5573  0.2575  3.0336
   26SOL     OW   76   1.723   2.535   2.928  0.3385  0.0058 -0.2045
   26SOL    HW1   77   1.727   2.619   2.870 -1.0168  0.1984 -1.8431
   26SOL    HW2   78   1.632   2.489   2.928  0.3315  0.0029  1.1806
   27SOL     OW   79   1.193   0.400   1.351 -0.0011  0.0692 -0.6049
   27SOL    HW1   80   1.161   0.415   1.254  2.7128  0.2033 -0.3407
   27SOL    HW2   81   1.282   0.351   1.345 -0.4155 -0.3217 -0.6124
   28SOL     OW   82   0.815   1.643   0.814 -0.3534 -0.2306 -0.8334
   28SOL    HW1   83   0.805   1.638   0.716 -3.1379  0.7787  0.2258
   28SOL    HW2   84   0.910   1.626   0.846 -3.1773  1.1363  1.7476
   29SOL     OW   85   2.368   0.563   1.537 -0.1553  0.0646  0.3855
   29SOL    HW1   86   2.295   0.553   1.470 -0.5825  2.1298 -1.8599
   29SOL    HW2   87   2.423   0.480   1.544 -2.5837  3.8711  0.5799
   30SOL     OW   88   1.509   2.386   1.393  0.2090  0.1959 -0.3450
   30SOL    HW1   89   1.594   2.431   1.369 -2.0108 -0.2701 -1.7784
   30SOL    HW2   90   1.442   2.392   1.319  1.3658  0.4186  0.1245
   31SOL     OW   91   1.864   2.697   1.538  0.0983 -0.1752  0.2154
   31SOL    HW1   92   1.811   2.620   1.498 -2.2738  1.7365 -0.0456
   31SOL    HW2   93   1.948   2.717   1.482 -2.1031 -0.0653 -0.0691
   32SOL     OW   94   2.053   1.423   2.301  0.6296  0.1606  0.3773
   32SOL    HW1   95   2.032   1.324   2.314  1.4579  1.6097 -0.3403
   32SOL    HW2   96   2.123   1.450   2.227  3.6984  1.2019 -2.0983
   33SOL     OW   97   2.485   0.444   2.604 -0.1860  0.4061 -0.1278
   33SOL    HW1   98   2.423   0.519   2.574 -2.7976 -1.7142  1.4012
   33SOL    HW2   99   2.449   0.412   2.693 -1.2977  0.5018  1.0831
   34SOL     OW  100   1.662   0.142   0.718 -0.4621  0.0073  0.9169
   34SOL    HW1  101   1.618   0.223   0.682  1.2320 -0.6905  1.0544
   34SOL    HW2  102   1.658   0.069   0.647 -0.7101 -2.6182 -0.9001
   35SOL     OW  103   0.304   2.034   2.070  0.1361 -0.0397 -0.4702
   35SOL    HW1  104   0.352   2.104   2.127  2.8575  2.6297 -1.0714
   35SOL    HW2  105   0.210   2.023   2.106  1.9176 -1.2664 -0.7683
   36SOL     OW  106   2.528   1.945   2.980  0.3866 -0.2565  0.3356
   36SOL    HW1  107   2.562   1.990   3.065 -1.0293  0.4598  0.2901
   36SOL    HW2  108   2.591   1.966   2.903  0.8315  1.3337  0.1902
   37SOL     OW  109   1.443   3.101   1.577 -0.3652 -0.0563 -0.7475
   37SOL    HW1  110   1.503   0.042   1.627  1.0886 -2.9069 -0.3155
   37SOL    HW2  111   1.431   3.018   1.639  0.5031  1.7992  2.6473
   38SOL     OW  112   0.780   0.828   2.697  1.2061  0.1005  0.2018
   38SOL    HW1  113   0.712   0.903   2.689  1.3035 -2.2286 -0.8106
   38SOL    HW2  114   0.824   0.835   2.789  0.9466  0.0376 -3.2598
   39SOL     OW  115   1.957   0.755   1.426 -0.1466  0.3134  0.3817
   39SOL    HW1  116   1.891   0.743   1.348  1.8350 -2.5996 -1.3006
   39SOL    HW2  117   1.970   0.855   1.448 -2.3362 -0.2787  0.3002
   40SOL     OW  118   1.038   2.495   0.842 -0.4664 -0.1634  0.0457
   40SOL    HW1  119   1.018   2.585   0.806 -1.2194  1.2509 -0.4792
   40SOL    HW2  120   1.130   2.485   0.888  5.1418 -0.7735 -1.9244
   41SOL     OW  121   2.164   2.197   1.392  0.1274 -0.2580 -0.3733
   41SOL    HW1  122   2.143   2.291   1.432  3.4033  1.0901 -3.1173
   41SOL    HW2  123   2.200   2.208   1.301 -0.0844  1.8700  5.2785
   42SOL     OW  124   2.386   0.601   0.494  0.2020  0.2470 -0.4251
   42SOL    HW1  125   2.408   0.695   0.469  2.0689 -1.9851  0.6014
   42SOL    HW2  126   2.301   0.567   0.449 -1.8019 -0.4010 -1.7930
   43SOL     OW  127   1.040   1.352   2.533  0.5069 -0.3116  0.6591
   43SOL    HW1  128   0.979   1.278   2.567 -0.8157 -0.0945 -0.9995
   43SOL    HW2  129   0.984   1.410   2.466 -2.5227  2.7873  1.9938
   44SOL     OW  130   1.732   2.540   1.306 -0.7240 -0.2520 -0.1494
   44SOL    HW1  131   1.673   2.538   1.229  0.0234 -1.0203  2.2152
   44SOL    HW2  132   1.823   2.510   1.272  0.4914  2.1912  0.7707
   45SOL     OW  133   1.053   2.760   2.723 -0.4339  0.7930 -0.3493
   45SOL    HW1  134   1.081   2.853   2.750  0.4980 -2.1628 -1.8593
   45SOL    HW2  135   0.994   2.759   2.640 -1.1471 -0.9974  1.4690
   46SOL     OW  136   0.635   2.542   1.882  0.4024  0.3805 -0.0385
   46SOL    HW1  137   0.637   2.606   1.802  2.3624  0.3596 -0.6518
   46SOL    HW2  138   0.723   2.540   1.929  0.5667 -1.8282  0.0015
   47SOL     OW  139   0.705   1.944   0.620  0.5164  0.1891  0.5370
   47SOL    HW1  140   0.793   1.893   0.607  2.4483  2.0537 -1.0919
   47SOL    HW2  141   0.677   1.950   0.716 -1.6284 -1.2903 -2.5399
   48SOL     OW  142   0.815   2.827   1.235  0.8999  0.3677  0.6507
   48SOL    HW1  143   0.859   2.865   1.319 -0.6144 -0.2436 -2.9280
   48SOL    HW2  144   0.742   2.760   1.260  0.8482  0.1919 -0.5468
   49SOL     OW  145   3.057   3.026   2.692 -0.0360 -0.1868  0.3376
   49SOL    HW1  146   2.969   2.982   2.676  0.3458  1.4539 -0.1790
   49SOL    HW2  147   3.042   3.100   2.758 -0.1451 -1.6420  0.1296
   50SOL     OW  148   1.552   0.980   0.668 -0.3873 -0.0020 -0.2102
   50SOL    HW1  149   1.457   0.990   0.625 -1.2085 -1.7865 -0.6859
   50SOL    HW2  150   1.630   1.013   0.613 -2.5066 -0.0266 -2.0792
   51SOL     OW  151   2.055   3.081   0.409  0.0434 -0.2150 -0.2969
   51SOL    HW1  152   2.055   2.982   0.417  0.9857  2.8141  2.1727
   51SOL    HW2  153   2.007   0.003   0.487 -1.3063 -0.6892  0.6487
   52SOL     OW  154   0.961   1.827   0.532 -0.4497 -0.2517  0.2758
   52SOL    HW1  155   0.944   1.827   0.429  0.4300 -0.7321 -0.5741
   52SOL    HW2  156   1.054   1.793   0.554  0.2928 -2.3873 -0.3026
   53SOL     OW  157   0.275   1.349   2.712  0.0840  0.0387 -0.2995
   53SOL    HW1  158   0.354   1.304   2.668 -0.8920 -0.1142 -2.2186
   53SOL    HW2  159   0.302   1.437   2.750 -2.1998 -0.0476  0.8067
   54SOL     OW  160   2.613   2.083   0.142 -0.9791  0.5801 -0.2228
   54SOL    HW1  161   2.678   2.038   0.209 -0.7473 -0.7135 -0.0038
   54SOL    HW2  162   2.516   2.060   0.175  0.9122  0.6424  0.6119
   55SOL     OW  163   2.437   2.359   1.523 -0.2459 -0.4436  0.0999
   55SOL    HW1  164   2.481   2.452   1.521 -3.7656 -1.4173  0.4493
   55SOL    HW2  165   2.335   2.366   1.547 -2.6039  0.6555  2.2654
   56SOL     OW  166   1.488   3.059   1.307  0.0845 -0.0567  0.2451
   56SOL    HW1  167   1.456   3.069   1.404 -2.2068  0.7883 -0.7345
   56SOL    HW2  168   1.557   2.984   1.311  0.0893 -0.3957  0.1958
   57SOL     OW  169   1.687   1.791   0.936  0.2133  0.2496  0.4962
   57SOL    HW1  170   1.767   1.852   0.903  0.5214 -0.7027 -0.2828
   57SOL    HW2  171   1.664   1.727   0.860 -0.8437  2.2162  1.2855
   58SOL     OW  172   2.441   0.215   1.734 -0.5545 -0.9483  0.1280
   58SOL    HW1  173   2.443   0.270   1.821 -0.1243 -1.5730  0.9451
   58SOL    HW2  174   2.361   0.151   1.720 -1.9035  0.4292 -0.8620
   59SOL     OW  175   1.169   2.609   2.175  0.5838 -0.3793 -0.1075
   59SOL    HW1  176   1.199   2.681   2.242  2.8041 -2.5841 -0.2268
   59SOL    HW2  177   1.076   2.581   2.191  0.2789  1.2743 -1.3026
   60SOL     OW  178   0.705   0.187   2.533 -0.4248  0.6264  0.0017
   60SOL    HW1  179   0.620   0.190   2.477  0.8228  2.8364  0.0630
   60SOL    HW2  180   0.693   0.244   2.612 -0.0009 -0.5606 -5.2321
   61SOL     OW  181   0.728   2.233   0.625  0.1192 -0.5930 -0.1676
   61SOL    HW1  182   0.757   2.274   0.539 -0.7455 -0.4745  0.4556
   61SOL    HW2  183   0.696   2.139   0.606 -1.4840  1.5249 -1.6193
   62SOL     OW  184   1.213   1.631   2.217  0.3284 -0.3805 -0.8180
   62SOL    HW1  185   1.120   1.626   2.175  0.9764 -1.9344 -0.9365
   62SOL    HW2  186   1.211   1.663   2.315 -0.3035  2.5192  0.9236
   63SOL     OW  187   1.093   1.592   0.841  0.0440  0.1414 -0.1369
   63SOL    HW1  188   1.092   1.659   0.920 -2.0432  0.4895 -1.4295
   63SOL    HW2  189   1.125   1.632   0.757  2.6485  0.3063  1.1581
   64SOL     OW  190   1.547   1.346   3.039 -0.2671  0.1241  0.0811
   64SOL    HW1  191   1.545   1.445   3.005 -0.8387  0.3711  0.5612
   64SOL    HW2  192   1.509   1.345   0.005  0.5203  1.1302  0.2575
   65SOL     OW  193   1.656   2.153   2.352 -0.4851 -0.6446  0.3233
   65SOL    HW1  194   1.572   2.103   2.340 -0.0519  0.9787  2.3935
   65SOL    HW2  195   1.729   2.121   2.287 -1.4098 -0.8249 -2.3450
   66SOL     OW  196   0.105   0.929   0.974  0.0682 -0.0365 -0.3944
   66SOL    HW1  197   0.186   0.871   1.007  0.2686 -3.0768  0.3387
   66SOL    HW2  198   0.092   0.918   0.874  1.8567  0.0255  1.0751
   67SOL     OW  199   2.206   2.547   0.360  0.3572 -0.1546  0.1300
   67SOL    HW1  200   2.137   2.501   0.421  0.4654 -0.1325 -2.2664
   67SOL    HW2  201   2.205   2.501   0.268  1.2244 -0.9646  0.7245
   68SOL     OW  202   2.599   2.591   1.562 -0.4676  0.2821 -1.1443
   68SOL    HW1  203   2.660   2.650   1.501 -0.9310  3.4452 -0.6895
   68SOL    HW2  204   2.620   2.602   1.659  1.9264  0.1431  1.0605
   69SOL     OW  205   2.601   2.498   2.848  0.4445 -0.2932 -0.1017
   69SOL    HW1  206   2.637   2.534   2.766  0.7248  2.2901  0.7658
   69SOL    HW2  207   2.497   2.511   2.854 -1.6847  1.5294 -1.0990
   70SOL     OW  208   0.565   1.420   2.538 -0.2625  0.1695 -0.3799
   70SOL    HW1  209   0.565   1.498   2.472 -1.4275  0.9512 -2.5868
   70SOL    HW2  210   0.526   1.339   2.491  2.2632  1.4033  3.1921
   71SOL     OW  211   0.986   1.071   2.155 -0.2291  0.2116 -0.4989
   71SOL    HW1  212   0.901   1.033   2.192  2.3216  1.1061  1.8157
   71SOL    HW2  213   0.963   1.140   2.080  0.0147  0.8293  0.5634
   72SOL     OW  214   2.560   1.478   1.982 -0.0289  0.4174 -0.0542
   72SOL    HW1  215   2.580   1.378   2.001 -0.9576 -1.9548 -0.4882
   72SOL    HW2  216   2.645   1.535   1.968 -1.8705 -0.2530 -1.4983
   73SOL     OW  217   0.771   1.850   2.929 -0.3048  0.7046  0.0804
   73SOL    HW1  218   0.720   1.882   2.846  0.1205 -0.9763  0.4042
   73SOL    HW2  219   0.734   1.757   2.951 -0.1126  3.3946 -0.9713
   74SOL     OW  220   1.442   2.906   1.761 -0.3264  0.0474 -0.2406
   74SOL    HW1  221   1.403   2.817   1.775  1.4430  1.2286 -1.9169
   74SOL    HW2  222   1.454   2.949   1.853  0.0043  0.2542  0.7570
   75SOL     OW  223   1.138   2.797   0.473  0.1220 -0.0895  0.0569
   75SOL    HW1  224   1.225   2.789   0.527 -0.6072 -0.7513 -2.7725
   75SOL    HW2  225   1.130   2.893   0.438  0.2575 -1.0279 -1.8114
   76SOL     OW  226   0.217   1.778   2.687 -0.3839 -0.1566  0.2976
   76SOL    HW1  227   0.215   1.844   2.767 -0.7484  0.5737  0.2406
   76SOL    HW2  228   0.281   1.705   2.716 -0.2814  1.8412  0.0081
   77SOL     OW  229   0.145   2.814   1.185 -0.4030 -0.0686  0.0511
   77SOL    HW1  230   0.052   2.862   1.188 -4.1070  0.6714 -2.1847
   77SOL    HW2  231   0.200   2.859   1.253 -3.5485 -0.4863 -0.0338
   78SOL     OW  232   2.593   0.981   0.188 -0.3378 -0.0041  0.5930
   78SOL    HW1  233   2.642   1.001   0.102 -0.2243  1.1431  0.7773
   78SOL    HW2  234   2.598   1.055   0.254 -2.0653 -2.5953  0.6044
   79SOL     OW  235   0.650   1.639   3.015  0.2372  0.1272 -0.1291
   79SOL    HW1  236   0.546   1.629   3.013  1.5421  2.0545  0.3167
   79SOL    HW2  237   0.697   1.555   3.039  1.9605  0.0579 -1.1892
   80SOL     OW  238   1.644   1.734   1.405  0.2853  0.6275  0.1237
   80SOL    HW1  239   1.664   1.738   1.505  1.2813 -1.6838 -2.3464
   80SOL    HW2  240   1.574   1.661   1.395 -0.3547 -0.1323  0.0746
   81SOL     OW  241   2.088   0.792   2.179  0.4151 -0.0484 -0.0605
   81SOL    HW1  242   2.150   0.711   2.173 -0.6895 -1.1781  0.9256
   81SOL    HW2  243   2.031   0.792   2.264 -0.4449  0.3170  1.2810
   82SOL     OW  244   1.663   1.396   1.517 -0.3706 -0.0619  0.2624
   82SOL    HW1  245   1.582   1.407   1.460 -0.7896 -2.1009 -1.6839
   82SOL    HW2  246   1.652   1.446   1.605 -1.1016  1.0465  1.4121
   83SOL     OW  247   0.166   0.487   2.971 -0.0350  0.1539  0.3787
   83SOL    HW1  248   0.133   0.397   2.935  0.0693 -1.3846 -1.1912
   83SOL    HW2  249   0.202   0.488   3.068 -0.9011  0.5989  1.2639
   84SOL     OW  250   0.598   1.431   0.106  0.2433  0.9501 -0.5608
   84SOL    HW1  251   0.641   1.397   0.020  0.9690  0.2218  1.5004
   84SOL    HW2  252   0.565   1.525   0.100  0.7143  2.8231 -2.7679
   85SOL     OW  253   2.136   1.789   1.894 -0.0882 -0.2173 -0.3917
   85SOL    HW1  254   2.203   1.719   1.885 -0.2535  2.4536 -1.1029
   85SOL    HW2  255   2.179   1.882   1.902 -0.4170 -0.4771 -1.1595
   86SOL     OW  256   0.645   0.819   1.130 -0.5227  0.5566  0.1902
   86SOL    HW1  257   0.718   0.838   1.064 -3.0229 -2.2541  0.1678
   86SOL    HW2  258   0.583   0.747   1.088 -1.6209 -0.3817  1.0625
   87SOL     OW  259   2.656   2.147   2.551  0.2647  0.4315  0.0366
   87SOL    HW1  260   2.714   2.140   2.468  0.6720  1.8831 -1.6925
   87SOL    HW2  261   2.557   2.165   2.527  1.2406  1.1497 -1.2389
   88SOL     OW  262   0.199   2.917   0.094  0.5216  0.2282 -0.5130
   88SOL    HW1  263   0.271   2.952   0.155  0.7069  1.5348 -0.4275
   88SOL    HW2  264   0.208   2.962   0.007  3.9244 -0.2721  2.8159
   89SOL     OW  265   1.444   0.602   0.333  0.7331  0.2697 -0.0776
   89SOL    HW1  266   1.413   0.595   0.235 -0.7937 -2.3649  0.6777
   89SOL    HW2  267   1.402   0.682   0.375  0.0892 -1.1773  1.0506
   90SOL     OW  268   2.962   1.452   2.359  0.8603 -0.0810  0.3093
   90SOL    HW1  269   2.892   1.444   2.434 -0.9982  0.9736  0.5347
   90SOL    HW2  270   3.052   1.480   2.390 -1.4371  3.6463  0.2749
   91SOL     OW  271   2.189   2.836   1.109  0.1776 -0.1120  0.2870
   91SOL    HW1  272   2.240   2.922   1.108  0.3328 -2.0710 -0.8092
   91SOL    HW2  273   2.094   2.854   1.139  4.9170 -0.9500 -0.2051
   92SOL     OW  274   2.307   1.107   1.026 -0.1958 -0.3613 -0.3715
   92SOL    HW1  275   2.297   1.137   0.930  1.2589  1.1018 -0.1277
   92SOL    HW2  276   2.258   1.021   1.046  1.5707  1.0936 -1.6039
   93SOL     OW  277   0.415   1.396   0.380 -0.1426 -0.7113  0.1554
   93SOL    HW1  278   0.470   1.391   0.296  0.9025  0.7412  0.6775
   93SOL    HW2  279   0.353   1.317   0.390  2.5153  1.1218 -1.1963
   94SOL     OW  280   1.227   2.392   1.492  0.0750 -0.2324  0.3912
   94SOL    HW1  281   1.200   2.333   1.569 -2.2720 -3.1235 -2.7798
   94SOL    HW2  282   1.303   2.452   1.516 -0.0215 -1.1056  0.6628
   95SOL     OW  283   0.290   0.639   0.468 -0.4856 -0.0227  0.3935
   95SOL    HW1  284   0.356   0.721   0.483  0.2026 -1.0186  0.7683
   95SOL    HW2  285   0.242   0.622   0.556 -0.8594  2.6197 -1.9233
   96SOL     OW  286   0.008   3.052   1.730  0.2185  0.1350  0.5649
   96SOL    HW1  287   3.066   3.002   1.784  1.8344  0.6750 -1.0952
   96SOL    HW2  288   0.034   2.997   1.650 -3.1826  4.4504 -3.0366
   97SOL     OW  289   2.217   0.261   1.012 -0.0959  0.7401 -0.0151
   97SOL    HW1  290   2.141   0.311   1.063 -0.6086  2.8463 -1.2831
   97SOL    HW2  291   2.311   0.273   1.045 -3.0521  2.0359 -0.6600
   98SOL     OW  292   2.875   2.284   1.601  0.1469  0.3696 -0.2667
   98SOL    HW1  293   2.876   2.375   1.652  0.0199  1.7884  0.2337
   98SOL    HW2  294   2.941   2.225   1.647 -0.6010  3.9104 -0.3092
   99SOL     OW  295   3.064   0.392   1.348 -0.2744  0.0105  0.1029
   99SOL    HW1  296   3.118   0.318   1.295  0.0819 -1.0813  0.3413
   99SOL    HW2  297   3.107   0.418   1.435 -1.4643  0.4054  0.2170
  100SOL     OW  298   2.096   0.340   2.636 -0.7065 -0.1598  0.3805
  100SOL    HW1  299   2.167   0.315   2.569 -2.4698  1.1455 -1.4120
  100SOL    HW2  300   2.094   0.439   2.658 -2.0409  0.7170  1.7482
  101SOL     OW  301   0.711   3.021   2.251 -0.0623 -0.1422  0.1050
  101SOL    HW1  302   0.758   2.937   2.213 -1.1481 -1.6180 -0.3139
  101SOL    HW2  303   0.731   3.029   2.348 -0.6796  0.2808 -0.0573
  102SOL     OW  304   0.543   0.587   1.643 -0.2632 -0.5284  0.2741
  102SOL    HW1  305   0.629   0.614   1.586  1.2637  0.5302 -1.2362
  102SOL    HW2  306   0.471   0.663   1.630 -1.8087  3.1367  0.5536
  103SOL     OW  307   1.228   0.957   2.693  0.6119  0.2953  0.7541
  103SOL    HW1  308   1.236   0.855   2.704  0.4771 -0.1613 -0.9462
  103SOL    HW2  309   1.181   0.988   2.602 -0.0522  0.4317 -1.7519
  104SOL     OW  310   0.267   0.346   1.802 -0.3532  0.5100  0.3464
  104SOL    HW1  311   0.222   0.345   1.895 -1.6208  2.4321  0.1558
  104SOL    HW2  312   0.227   0.278   1.740 -1.4395  0.1418 -1.6346
  105SOL     OW  313   2.353   2.077   1.816  0.3444 -0.1919 -0.1735
  105SOL    HW1  314   2.446   2.034   1.819  0.0439  0.1161 -0.4126
  105SOL    HW2  315   2.335   2.128   1.901  1.5191 -0.6190 -1.7478
  106SOL     OW  316   1.140   3.102   0.385 -0.3487  0.0113 -0.1311
  106SOL    HW1  317   1.128   0.021   0.296  1.2861 -2.6578  2.1561
  106SOL    HW2  318   1.221   0.019   0.429  0.7889 -1.1985  0.7908
  107SOL     OW  319   2.685   1.960   1.375 -0.4329 -0.2922 -0.4848
  107SOL    HW1  320   2.667   2.028   1.456  2.0486  0.4522  4.5079
  107SOL    HW2  321   2.618   1.977   1.301  0.7408 -0.2463  0.5335
  108SOL     OW  322   3.028   2.162   0.754 -0.2678  0.3975  0.3601
  108SOL    HW1  323   3.073   2.167   0.662  0.0918  0.7325 -2.0831
  108SOL    HW2  324   3.079   2.210   0.834  0.6843 -1.0408  0.8038
  109SOL     OW  325   1.548   3.048   0.520  0.8583 -0.1396  0.3280
  109SOL    HW1  326   1.530   3.046   0.417  0.5469 -0.1936 -0.1148
  109SOL    HW2  327   1.636   3.008   0.552 -1.5428  2.3782  0.9788
  110SOL     OW  328   2.043   1.357   0.962 -0.1040  0.4648 -0.2100
  110SOL    HW1  329   2.055   1.317   1.057  1.3981 -0.8477 -0.0490
  110SOL    HW2  330   2.026   1.278   0.900 -1.6470  0.3904  0.7758
  111SOL     OW  331   1.592   2.530   1.854 -0.0406  0.0730 -0.0408
  111SOL    HW1  332   1.638   2.441   1.848  0.7125  2.6149 -0.9318
  111SOL    HW2  333   1.545   2.552   1.946  0.7016  1.0804  1.0714
  112SOL     OW  334   2.056   2.243   3.055  0.7248  0.1832  0.3010
  112SOL    HW1  335   2.121   2.210   2.985 -1.1892  2.1804  0.2398
  112SOL    HW2  336   2.050   2.169   3.121  1.5469 -1.5782  0.6436
  113SOL     OW  337   1.940   1.907   1.759 -0.3248 -0.3841  0.3556
  113SOL    HW1  338   2.015   1.848   1.793  1.2757 -1.0418  0.6928
  113SOL    HW2  339   1.958   1.936   1.662 -1.2724 -0.0337  0.2795
  114SOL     OW  340   0.041   1.070   1.488  0.7109 -0.4553 -0.9635
  114SOL    HW1  341   3.066   1.044   1.466 -0.7046  0.2049  0.3417
  114SOL    HW2  342   0.056   1.169   1.471  0.7139 -0.0776 -0.2942
  115SOL     OW  343   2.939   0.675   2.958  0.0692 -0.4699 -0.7961
  115SOL    HW1  344   2.901   0.733   2.886  0.5489 -1.5685  1.1558
  115SOL    HW2  345   2.901   0.700   3.050  2.6996  2.2133  3.3132
  116SOL     OW  346   2.887   0.411   2.985  0.5924 -0.3503 -0.1079
  116SOL    HW1  347   2.927   0.503   2.990  0.7862  0.3885 -1.0518
  116SOL    HW2  348   2.875   0.379   2.885  1.8105  1.2333 -2.5357
  117SOL     OW  349   2.655   2.429   0.293  0.1244 -0.1412  0.1469
  117SOL    HW1  350   2.698   2.415   0.203 -1.9556 -1.7626 -2.9895
  117SOL    HW2  351   2.662   2.350   0.359  1.6702  1.2034  0.9035
  118SOL     OW  352   0.593   2.192   2.397 -0.1675  0.4466 -0.0931
  118SOL    HW1  353   0.590   2.242   2.484 -0.3854 -0.1913 -0.8242
  118SOL    HW2  354   0.516   2.212   2.338  0.5210 -2.9334 -0.3514
  119SOL     OW  355   0.682   2.831   0.355  0.7434 -0.0052 -0.8941
  119SOL    HW1  356   0.668   2.744   0.411  1.8068 -0.1437  0.5679
  119SOL    HW2  357   0.669   2.908   0.424 -1.4399  3.5996 -0.2485
  120SOL     OW  358   1.232   0.755   0.477 -0.0629  0.1985  0.2200
  120SOL    HW1  359   1.290   0.751   0.559 -0.4577 -0.7169  1.2764
  120SOL    HW2  360   1.140   0.722   0.487  2.9408  0.9250  0.6254
  121SOL     OW  361   1.549   0.159   0.974  0.9489  0.2257  0.6895
  121SOL    HW1  362   1.519   0.069   1.008  0.2766 -2.5798 -1.3077
  121SOL    HW2  363   1.616   0.144   0.895 -1.3244 -2.3811 -1.1693
  122SOL     OW  364   2.251   1.455   2.077  0.1880  0.2698  0.4008
  122SOL    HW1  365   2.223   1.502   1.990  0.3724  0.3898  1.0664
  122SOL    HW2  366   2.295   1.529   2.137  0.2410 -1.3336  1.9736
  123SOL     OW  367   1.360   1.097   1.126 -0.5258  0.7446 -0.2616
  123SOL    HW1  368   1.420   1.055   1.053 -2.6156  0.1098  1.4611
  123SOL    HW2  369   1.329   1.030   1.194  1.1009  1.4782  0.5698
  124SOL     OW  370   0.597   0.847   2.986 -0.3106 -0.2296  0.0626
  124SOL    HW1  371   0.554   0.807   2.898  2.3899 -0.6870  1.1001
  124SOL    HW2  372   0.690   0.874   2.972 -1.3773 -0.2009  0.5313
  125SOL     OW  373   0.674   0.369   0.230 -0.2120 -0.5552  0.4895
  125SOL    HW1  374   0.730   0.374   0.313 -2.8269 -1.1463 -0.8329
  125SOL    HW2  375   0.633   0.277   0.230  1.7683 -0.1981  1.3772
  126SOL     OW  376   0.285   1.756   0.513 -0.0930 -0.1120  0.2361
  126SOL    HW1  377   0.297   1.845   0.568 -0.9760  0.5869 -0.6121
  126SOL    HW2  378   0.373   1.708   0.503  1.6035 -0.1088  0.2236
  127SOL     OW  379   0.903   2.685   1.698 -0.0681  0.3074 -0.1970
  127SOL    HW1  380   0.811   2.727   1.681 -1.8476 -0.8637 -1.0703
  127SOL    HW2  381   0.975   2.726   1.641 -0.6670 -0.9290  0.9322
  128SOL     OW  382   1.233   1.879   0.351  0.2419 -0.2881 -0.4303
  128SOL    HW1  383   1.147   1.884   0.295 -1.6757  0.8660 -3.5832
  128SOL    HW2  384   1.240   1.956   0.418 -3.4530 -1.9434  0.7133
  129SOL     OW  385   1.682   1.479   1.775 -0.3621 -0.5037  0.5164
  129SOL    HW1  386   1.686   1.579   1.758 -0.9710 -2.9687 -1.5328
  129SOL    HW2  387   1.760   1.452   1.832 -3.3266  2.0386 -2.0419
  130SOL     OW  388   1.974   2.064   1.518 -0.7119  0.6532 -0.0058
  130SOL    HW1  389   2.060   2.085   1.462  4.1788 -0.7104 -2.1521
  130SOL    HW2  390   1.898   2.032   1.460  0.5603 -1.4141  2.1321
  131SOL     OW  391   0.269   2.412   2.079  0.2101 -0.1743 -0.5552
  131SOL    HW1  392   0.235   2.472   2.156  2.0416  0.9503 -0.9752
  131SOL    HW2  393   0.186   2.364   2.042  0.8421  0.7383  0.2263
  132SOL     OW  394   2.645   1.935   0.846  0.1269  0.0767  0.4334
  132SOL    HW1  395   2.744   1.952   0.845 -2.5813 -1.1674  0.3170
  132SOL    HW2  396   2.590   2.022   0.848  0.0915 -2.5007  0.6551
  133SOL     OW  397   0.540   0.997   1.550  0.4637  0.3723  0.0229
  133SOL    HW1  398   0.514   1.091   1.542 -1.7530  0.4387  1.9213
  133SOL    HW2  399   0.621   0.981   1.614  0.8966 -0.1594  0.5270
  134SOL     OW  400   2.642   1.469   0.270  0.3950  0.0971  0.4405
  134SOL    HW1  401   2.649   1.523   0.186 -1.2984 -0.2782  2.4587
  134SOL    HW2  402   2.695   1.512   0.342 -0.2777  0.6899 -1.1530
  135SOL     OW  403   1.968   1.044   2.559  0.1885  0.0472  0.0396
  135SOL    HW1  404   1.867   1.052   2.536 -0.2454 -0.0844 -1.6957
  135SOL    HW2  405   1.982   0.956   2.616 -1.2886 -2.8101 -0.3754
  136SOL     OW  406   2.994   1.799   1.356 -0.2345 -0.3159 -0.3432
  136SOL    HW1  407   3.075   1.793   1.419 -1.3500  2.0070 -0.1444
  136SOL    HW2  408   2.907   1.772   1.401  0.2774 -0.9742 -2.3298
  137SOL     OW  409   2.469   1.829   0.656 -0.0643  0.2000  0.2015
  137SOL    HW1  410   2.432   1.733   0.668  0.0411 -1.0731  0.2847
  137SOL    HW2  411   2.540   1.846   0.725 -0.1489  1.0995  1.6633
  138SOL     OW  412   2.761   0.712   0.524  0.6835 -0.0109 -0.1288
  138SOL    HW1  413   2.725   0.732   0.429 -1.3437 -0.5980 -1.6512
  138SOL    HW2  414   2.856   0.680   0.525 -1.0487 -0.4782  1.4342
  139SOL     OW  415   3.036   3.107   2.976  0.1324  0.9569  0.2222
  139SOL    HW1  416   2.947   3.065   3.012  1.1757  1.3385 -0.3959
  139SOL    HW2  417   3.063   0.064   3.031 -2.1996 -0.8200 -1.1278
  140SOL     OW  418   0.794   1.098   1.672 -0.0305 -0.2399 -0.3149
  140SOL    HW1  419   0.767   1.116   1.771 -0.9581 -1.5312 -1.2718
  140SOL    HW2  420   0.787   1.181   1.618  2.5788 -1.2070 -1.3554
  141SOL     OW  421   1.454   1.533   0.961  0.0762 -0.4884  0.0120
  141SOL    HW1  422   1.414   1.481   1.038  1.6383  2.4852 -0.4745
  141SOL    HW2  423   1.400   1.620   0.962 -2.4174 -0.2241  2.6568
  142SOL     OW  424   1.434   0.616   1.140 -0.6741  0.0114  0.4146
  142SOL    HW1  425   1.500   0.552   1.105 -3.1497  0.4897 -1.7583
  142SOL    HW2  426   1.468   0.657   1.225  2.9991 -1.2337  1.8493
  143SOL     OW  427   0.854   1.181   2.722 -0.1290  0.0082  0.0308
  143SOL    HW1  428   0.819   1.272   2.732 -0.6910  0.2638  0.0566
  143SOL    HW2  429   0.777   1.115   2.721 -1.2534 -0.8072  1.6642
  144SOL     OW  430   2.514   3.080   0.251 -0.5427 -0.1345 -0.2407
  144SOL    HW1  431   2.578   0.028   0.218 -0.9122 -0.3135 -0.3961
  144SOL    HW2  432   2.456   3.044   0.181 -1.0360 -1.3229  1.2966
  145SOL     OW  433   2.455   0.361   2.870 -0.2417 -0.4503 -0.2890
  145SOL    HW1  434   2.368   0.381   2.920  0.1799 -0.7514 -0.6535
  145SOL    HW2  435   2.523   0.414   2.922  1.1868  0.1924  0.7148
  146SOL     OW  436   0.035   2.770   0.261  0.5798  0.7648 -0.3455
  146SOL    HW1  437   0.093   2.692   0.281  0.6543  5.4529  1.0703
  146SOL    HW2  438   0.054   2.810   0.168 -0.6099  3.5848 -1.1387
  147SOL     OW  439   1.348   1.172   2.958  0.6364 -0.2619 -0.1057
  147SOL    HW1  440   1.430   1.232   2.953  0.6820  2.2074  2.2432
  147SOL    HW2  441   1.257   1.216   2.947  1.4388  0.0807  1.3720
  148SOL     OW  442   1.415   0.174   0.150  0.0266  0.3924 -0.6885
  148SOL    HW1  443   1.467   0.254   0.115 -1.2251 -1.4308 -1.6439
  148SOL    HW2  444   1.323   0.207   0.184 -0.0568  1.5528  1.5178
  149SOL     OW  445   1.706   0.442   1.945 -0.0363  0.5317  0.2781
  149SOL    HW1  446   1.645   0.398   2.014  0.7082 -2.1882  2.6788
  149SOL    HW2  447   1.743   0.523   1.990 -0.0178 -1.5611  0.3646
  150SOL     OW  448   1.977   2.948   2.915  0.0097 -0.1719  0.0606
  150SOL    HW1  449   1.980   2.978   3.012 -1.1429  2.9236  1.3821
  150SOL    HW2  450   2.063   2.975   2.868 -0.9539 -1.4846  3.3008
  151SOL     OW  451   0.547   1.744   0.264 -0.0570 -0.4510 -0.6022
  151SOL    HW1  452   0.466   1.714   0.207  1.7147 -2.0268  0.3996
  151SOL    HW2  453   0.532   1.718   0.361 -1.3205  2.0793 -0.2655
  152SOL     OW  454   0.366   0.429   1.261  0.0277 -0.5892 -0.3839
  152SOL    HW1  455   0.300   0.495   1.294  2.0717  0.9374 -0.0828
  152SOL    HW2  456   0.420   0.394   1.343  4.6516  0.7141  1.0972
  153SOL     OW  457   2.528   2.835   2.417 -0.0817  0.1134  0.6108
  153SOL    HW1  458   2.543   2.936   2.416  1.8966  1.0495  1.2418
  153SOL    HW2  459   2.452   2.805   2.351  2.2405  0.4046  3.6943
  154SOL     OW  460   2.024   0.056   2.419 -0.1151  0.2555 -0.3001
  154SOL    HW1  461   1.979   0.051   2.327 -1.7962  1.4521  1.3778
  154SOL    HW2  462   1.965   0.093   2.492  1.7367  0.6767  0.9347
  155SOL     OW  463   0.439   1.082   0.704  0.0125  0.3200  0.5694
  155SOL    HW1  464   0.342   1.105   0.701  1.1700  1.3007 -1.6081
  155SOL    HW2  465   0.483   1.087   0.794 -0.6385  0.4207  1.5818
  156SOL     OW  466   2.369   1.574   0.665  0.0058 -0.6475 -0.2781
  156SOL    HW1  467   2.442   1.508   0.692  4.3325  0.4487 -1.0163
  156SOL    HW2  468   2.285   1.531   0.621 -1.0872  2.1001 -0.2455
  157SOL     OW  469   0.863   0.451   0.066 -0.3479 -0.0471 -0.0423
  157SOL    HW1  470   0.849   0.399   3.107 -1.1025  0.6259  0.5983
  157SOL    HW2  471   0.785   0.439   0.130  1.7571  1.5934  0.8492
  158SOL     OW  472   1.846   0.975   1.141 -0.2835 -0.0695 -0.1317
  158SOL    HW1  473   1.806   1.025   1.065  0.9395 -1.2862  1.1473
  158SOL    HW2  474   1.838   0.873   1.126  0.5199  1.6684 -1.2374
  159SOL     OW  475   0.028   0.421   0.181 -0.0306 -0.1859  0.0809
  159SOL    HW1  476   0.049   0.515   0.212  1.6520 -0.3908 -1.5387
  159SOL    HW2  477   0.112   0.372   0.193 -0.4165  1.5499  0.0480
  160SOL     OW  478   2.310   2.212   2.058 -0.0318  0.0161  0.8763
  160SOL    HW1  479   2.211   2.196   2.061  1.5483  1.8596 -0.3606
  160SOL    HW2  480   2.334   2.305   2.031  0.9074 -3.8587  1.7589
  161SOL     OW  481   0.460   1.071   2.889  0.7750 -0.0075  0.0189
  161SOL    HW1  482   0.528   1.034   2.956  0.7432  0.5350  1.7607
  161SOL    HW2  483   0.371   1.018   2.906 -2.1442 -1.2979 -3.3119
  162SOL     OW  484   0.505   0.414   1.858  0.0549 -0.3129  0.2467
  162SOL    HW1  485   0.543   0.483   1.799 -0.9821 -1.6732  2.6538
  162SOL    HW2  486   0.411   0.385   1.826 -3.9130 -3.3217 -0.3905
  163SOL     OW  487   2.586   0.259   2.440 -0.1352 -0.4561  0.1144
  163SOL    HW1  488   2.558   0.334   2.503 -0.3585 -0.8109  1.9753
  163SOL    HW2  489   2.673   0.217   2.466 -2.3492  3.6520 -0.9061
  164SOL     OW  490   2.356   2.014   0.248 -0.5155  0.2741  0.2607
  164SOL    HW1  491   2.290   1.937   0.226 -3.3923 -0.7989  0.8532
  164SOL    HW2  492   2.435   1.976   0.307  0.0842  1.5772 -1.8818
  165SOL     OW  493   0.321   0.028   1.087 -0.0795  0.5755 -0.0439
  165SOL    HW1  494   0.379   0.044   1.007 -0.2022 -2.1221  0.4830
  165SOL    HW2  495   0.383   0.034   1.169  2.8755 -0.0602 -0.4391
  166SOL     OW  496   2.528   0.305   0.123 -0.0935 -0.3337 -0.3069
  166SOL    HW1  497   2.605   0.237   0.110 -0.6640 -0.9464  2.5341
  166SOL    HW2  498   2.551   0.367   0.201 -2.7450  4.1792  3.4647
  167SOL     OW  499   2.319   0.709   0.116 -0.0710  0.7524 -0.0484
  167SOL    HW1  500   2.372   0.657   0.048 -0.5035 -1.4840  1.4339
  167SOL    HW2  501   2.221   0.712   0.092 -3.1363  0.3320 -2.6478
  168SOL     OW  502   1.388   2.985   2.280  0.2435 -0.2517 -0.0271
  168SOL    HW1  503   1.325   2.924   2.338  2.9514 -0.7228 -0.3644
  168SOL    HW2  504   1.405   3.067   2.337 -0.4284  2.9912  0.9905
  169SOL     OW  505   0.298   1.967   0.662  0.1446 -0.2241  0.7382
  169SOL    HW1  506   0.231   1.968   0.739  0.3069 -1.3116  1.1664
  169SOL    HW2  507   0.393   1.992   0.696  0.4124  3.1777 -1.1523
  170SOL     OW  508   3.108   0.576   1.093 -0.5107  0.2408 -0.0818
  170SOL    HW1  509   0.015   0.574   0.997  1.7964  0.5684  0.5821
  170SOL    HW2  510   3.093   0.482   1.125 -1.1665 -2.6819  1.6595
  171SOL     OW  511   2.668   1.461   2.448 -0.0934 -0.3630 -0.7439
  171SOL    HW1  512   2.693   1.363   2.430  2.4631 -0.8047  0.0818
  171SOL    HW2  513   2.568   1.472   2.458  0.0242 -0.0888  0.9358
  172SOL     OW  514   0.752   1.665   1.243  0.2073  0.2011  0.0019
  172SOL    HW1  515   0.734   1.599   1.171  0.3303  3.5639  0.2324
  172SOL    HW2  516   0.825   1.626   1.304  2.7086 -2.0436 -0.1568
  173SOL     OW  517   2.045   2.020   0.080  0.2082 -0.3228 -0.0291
  173SOL    HW1  518   2.117   1.953   0.106  2.7106  0.3144  0.9656
  173SOL    HW2  519   1.966   1.993   0.138  0.5714  3.8853  1.1896
  174SOL     OW  520   1.803   0.767   2.936  0.7541  0.2650  1.0371
  174SOL    HW1  521   1.747   0.831   2.875 -3.5432  1.1926 -0.6930
  174SOL    HW2  522   1.761   0.768   3.030  0.6861  2.1016  0.4698
  175SOL     OW  523   0.647   1.780   1.702  0.2896 -0.1892  0.1741
  175SOL    HW1  524   0.700   1.866   1.684 -1.3108 -0.3164  2.8975
  175SOL    HW2  525   0.593   1.786   1.793  0.1773 -0.2369 -0.6918
  176SOL     OW  526   0.579   0.103   0.220 -0.2060  0.1110  0.0955
  176SOL    HW1  527   0.559   0.105   0.321 -1.2206 -3.7606  1.7547
  176SOL    HW2  528   0.489   0.074   0.180  1.9064 -0.2149 -1.3008
  177SOL     OW  529   0.186   1.531   0.381 -0.2363 -0.0820  0.3522
  177SOL    HW1  530   0.207   1.617   0.433 -0.5604 -0.0941  0.4556
  177SOL    HW2  531   0.260   1.462   0.386  0.1516  0.8601 -3.1607
  178SOL     OW  532   2.966   2.389   2.659  0.1290 -0.2423  0.2246
  178SOL    HW1  533   3.039   2.418   2.723 -3.4625  0.3693 -0.4657
  178SOL    HW2  534   2.991   2.349   2.569 -0.0631 -1.8431 -2.6230
  179SOL     OW  535   2.650   3.008   2.812 -0.2121 -0.4055  0.0761
  179SOL    HW1  536   2.697   3.036   2.728  0.3738  1.0829 -0.4313
  179SOL    HW2  537   2.595   3.085   2.858  0.0626  1.2014  0.8640
  180SOL     OW  538   2.393   0.563   0.771 -0.1775 -0.0683 -0.4606
  180SOL    HW1  539   2.297   0.548   0.802  0.5266 -2.8762  0.3135
  180SOL    HW2  540   2.401   0.584   0.671 -0.9434 -0.4398  0.7312
  181SOL     OW  541   2.962   0.210   2.515  0.0196 -0.4638  0.4529
  181SOL    HW1  542   3.003   0.118   2.514 -1.6434 -0.5214 -2.1431
  181SOL    HW2  543   2.931   0.242   2.426  0.5293 -2.0353  3.9927
  182SOL     OW  544   2.391   2.220   2.453 -0.4424 -0.3152 -0.1074
  182SOL    HW1  545   2.334   2.178   2.523 -0.2639 -2.5055 -1.6236
  182SOL    HW2  546   2.361   2.316   2.431  0.4809 -3.3778  0.3920
  183SOL     OW  547   2.717   0.984   1.925 -0.0664  0.9190 -0.3809
  183SOL    HW1  548   2.633   0.937   1.892 -3.9174 -1.8774  0.4601
  183SOL    HW2  549   2.776   1.013   1.841  3.0406  0.2808 -0.1896
  184SOL     OW  550   2.723   1.439   0.584  0.3907 -0.6783  0.0573
  184SOL    HW1  551   2.797   1.405   0.651 -0.8893 -2.2382 -1.6701
  184SOL    HW2  552   2.754   1.524   0.535  0.0410 -3.1031  1.2451
  185SOL     OW  553   2.960   0.239   0.522 -0.1456 -0.0864  0.2024
  185SOL    HW1  554   3.058   0.219   0.530  0.3626 -1.0668 -0.5327
  185SOL    HW2  555   2.915   0.211   0.608 -1.8005  0.6909 -0.9612
  186SOL     OW  556   2.085   2.623   2.683  0.0441  0.3092  0.6796
  186SOL    HW1  557   2.152   2.664   2.618  1.5379 -1.2677 -1.1596
  186SOL    HW2  558   1.994   2.667   2.666  1.3852  2.4913 -0.2840
  187SOL     OW  559   0.396   1.621   0.764  0.8980 -0.5235 -0.1052
  187SOL    HW1  560   0.441   1.602   0.677 -0.3127 -1.8064  0.9012
  187SOL    HW2  561   0.451   1.693   0.816  0.8991  3.2508 -0.4834
  188SOL     OW  562   1.809   1.761   0.646  0.2908 -0.2934 -0.0744
  188SOL    HW1  563   1.847   1.670   0.665  0.9354 -2.8924  0.1899
  188SOL    HW2  564   1.708   1.762   0.624  0.2713  0.5934 -0.4627
  189SOL     OW  565   3.124   1.457   2.912 -0.2436 -0.1757  0.0171
  189SOL    HW1  566   0.033   1.365   2.880  1.3325  0.8094  0.1234
  189SOL    HW2  567   3.059   1.439   2.984  1.0220  0.0102  2.0906
  190SOL     OW  568   2.449   0.341   2.198  0.4621 -0.0349  0.1014
  190SOL    HW1  569   2.354   0.337   2.217  2.7461 -0.6785  1.0896
  190SOL    HW2  570   2.505   0.329   2.279  1.9311  1.7380 -0.6652
  191SOL     OW  571   1.038   0.709   2.329  0.1903  0.1052 -0.1157
  191SOL    HW1  572   1.095   0.733   2.411  1.4189  0.3558 -3.0065
  191SOL    HW2  573   1.084   0.711   2.238 -0.3297 -0.5225  0.2211
  192SOL     OW  574   1.328   1.392   2.140  0.0076 -0.2035 -0.0083
  192SOL    HW1  575   1.351   1.405   2.043  0.8471 -1.6686 -1.9787
  192SOL    HW2  576   1.295   1.479   2.181  2.1161  0.8002  0.6487
  193SOL     OW  577   1.304   2.689   0.995  0.0579 -0.0387 -0.1236
  193SOL    HW1  578   1.238   2.671   1.066  0.1356  0.7358  0.0080
  193SOL    HW2  579   1.278   2.783   0.960  0.7469  0.3065  1.9452
  194SOL     OW  580   1.450   1.670   2.072 -0.5685 -0.0189  0.0941
  194SOL    HW1  581   1.518   1.625   2.131  0.0997 -0.8195  0.7056
  194SOL    HW2  582   1.368   1.693   2.127  0.9685 -0.2470  1.3223
  195SOL     OW  583   1.924   0.064   0.645  0.3551 -0.4246 -0.4204
  195SOL    HW1  584   2.006   0.070   0.708  0.4059 -0.9102  0.2540
  195SOL    HW2  585   1.850   0.123   0.679 -0.8031 -1.2780  2.8852
  196SOL     OW  586   1.552   1.494   2.522  0.4572 -0.5366 -0.7369
  196SOL    HW1  587   1.452   1.479   2.533 -1.9191 -0.0763  0.2443
  196SOL    HW2  588   1.604   1.413   2.556  2.1701 -1.1375  0.6196
  197SOL     OW  589   0.448   0.099   2.048 -0.0453  0.0798  0.2385
  197SOL    HW1  590   0.457   0.015   2.106 -1.9143  2.0422  2.0987
  197SOL    HW2  591   0.534   0.148   2.043 -0.5657 -0.2492  0.7460
  198SOL     OW  592   0.088   1.206   1.046 -0.0653 -0.3930  0.3236
  198SOL    HW1  593   0.080   1.103   1.039 -2.6553  0.2146  0.8888
  198SOL    HW2  594   0.061   1.262   0.964 -1.0718 -0.5441 -0.1896
  199SOL     OW  595   0.300   2.250   0.973 -0.2839  0.0875  0.1690
  199SOL    HW1  596   0.364   2.291   0.904  3.0148 -0.9095 -0.9164
  199SOL    HW2  597   0.344   2.237   1.064 -1.6904 -1.1840 -1.5064
  200SOL     OW  598   1.953   1.442   0.052 -0.2780  0.1788 -0.3043
  200SOL    HW1  599   2.014   1.472   0.128  0.1824  2.6765  0.2488
  200SOL    HW2  600   1.932   1.343   0.054  0.8416  0.8483  1.8301
  201SOL     OW  601   0.565   2.114   1.385  0.2625 -0.1420  0.7562
  201SOL    HW1  602   0.662   2.098   1.356  0.4636  0.1437 -0.7805
  201SOL    HW2  603   0.501   2.034   1.377 -0.8034  0.4791  1.5614
  202SOL     OW  604   1.201   2.622   3.028 -0.6502  0.1756 -0.1543
  202SOL    HW1  605   1.132   2.696   3.046 -1.4668  0.7033  0.9150
  202SOL    HW2  606   1.169   2.530   3.048  1.0176 -0.0269  0.2366
  203SOL     OW  607   1.481   0.338   2.110 -0.4932 -0.0021  0.1982
  203SOL    HW1  608   1.381   0.348   2.104 -1.6194  1.0418 -0.5616
  203SOL    HW2  609   1.521   0.377   2.196 -3.6293  1.9590  2.3672
  204SOL     OW  610   0.367   1.227   1.312  0.3396  0.0452  0.0026
  204SOL    HW1  611   0.316   1.297   1.265  1.1561 -0.9872  0.9520
  204SOL    HW2  612   0.426   1.181   1.241 -1.3758 -0.4216 -1.1274
  205SOL     OW  613   2.370   1.209   2.444 -0.0921  0.2257 -0.3627
  205SOL    HW1  614   2.379   1.307   2.476 -0.0408  1.7188  0.9616
  205SOL    HW2  615   2.368   1.203   2.341  2.2517  3.4904  1.4994
  206SOL     OW  616   0.155   2.158   2.423  0.1297  0.1850  0.3167
  206SOL    HW1  617   0.143   2.152   2.520  0.8295  1.9848 -1.9279
  206SOL    HW2  618   0.164   2.064   2.384 -0.9252  0.8517 -0.8180
  207SOL     OW  619   0.669   3.033   1.874 -0.4807 -0.1615  0.3268
  207SOL    HW1  620   0.765   2.997   1.870  2.1346 -3.1922  0.5785
  207SOL    HW2  621   0.653   0.002   1.844 -1.8334  0.1009 -0.4843
  208SOL     OW  622   0.569   2.357   1.522 -1.0432  0.1755 -0.1123
  208SOL    HW1  623   0.477   2.403   1.524 -1.4466 -1.5940 -1.0382
  208SOL    HW2  624   0.560   2.256   1.498 -0.3290 -1.2214  1.4379
  209SOL     OW  625   1.376   2.722   2.711 -0.2523  0.8948  0.4549
  209SOL    HW1  626   1.285   2.754   2.742 -1.5540 -0.7283 -0.7915
  209SOL    HW2  627   1.366   2.672   2.621 -1.1501  0.3388  1.6770
  210SOL     OW  628   2.815   1.594   1.937 -0.2854  0.2241  0.4710
  210SOL    HW1  629   2.847   1.502   1.902 -1.9953 -1.1499 -0.5616
  210SOL    HW2  630   2.851   1.613   2.028 -3.8079  0.5089 -1.1872
  211SOL     OW  631   1.064   0.111   1.826 -0.1589 -0.3852 -0.8301
  211SOL    HW1  632   1.106   0.158   1.909  0.0037  2.0854  0.8622
  211SOL    HW2  633   1.108   0.128   1.735  1.3586 -1.8492 -0.3771
  212SOL     OW  634   1.171   2.215   1.688 -0.8315 -0.4082  0.2042
  212SOL    HW1  635   1.211   2.273   1.763  1.8146 -0.0225  0.4933
  212SOL    HW2  636   1.190   2.116   1.701 -1.6986 -2.3054 -2.2251
  213SOL     OW  637   2.477   0.852   1.910 -0.5396  0.2318  0.6015
  213SOL    HW1  638   2.437   0.924   1.972 -3.5521 -0.3442 -1.5633
  213SOL    HW2  639   2.398   0.800   1.871  1.8684  0.8605 -0.0220
  214SOL     OW  640   0.929   1.742   1.610  0.4128 -0.6733  0.1615
  214SOL    HW1  641   1.024   1.760   1.579 -1.6857  1.9620 -0.1675
  214SOL    HW2  642   0.881   1.831   1.621 -1.3451  0.6274 -1.1323
  215SOL     OW  643   2.489   2.334   1.258 -0.3993 -0.0256 -0.3953
  215SOL    HW1  644   2.407   2.297   1.216  2.9070 -0.0622  5.2459
  215SOL    HW2  645   2.475   2.337   1.359 -1.1533  0.5579 -0.0725
  216SOL     OW  646   3.014   0.878   1.152 -0.2118 -0.2298  0.2541
  216SOL    HW1  647   3.018   0.777   1.143  0.3085 -3.1267  0.9117
  216SOL    HW2  648   3.100   0.918   1.111  2.5058 -1.9962  0.2267
  217SOL     OW  649   2.120   0.129   1.480  0.6218 -0.3426 -0.1771
  217SOL    HW1  650   2.188   0.152   1.414 -1.2708 -0.0350 -1.0221
  217SOL    HW2  651   2.062   0.053   1.442  2.1378 -0.6985  2.3504
  218SOL     OW  652   1.572   2.546   1.059  0.1993  0.1828 -0.2906
  218SOL    HW1  653   1.578   2.500   0.971  0.5609  0.6566  2.5760
  218SOL    HW2  654   1.478   2.556   1.104 -0.5443 -1.7219 -0.9484
  219SOL     OW  655   1.688   2.228   0.144 -0.5297  0.2541 -0.3947
  219SOL    HW1  656   1.761   2.186   0.087  1.2277 -0.3743  1.4982
  219SOL    HW2  657   1.612   2.257   0.085  2.8079 -0.7580  4.2128
  220SOL     OW  658   1.876   2.310   2.857  0.3478 -0.4907 -0.1866
  220SOL    HW1  659   1.812   2.391   2.871 -0.4761 -0.4137 -0.6041
  220SOL    HW2  660   1.946   2.306   2.939  2.0301  0.3543  3.1346
  221SOL     OW  661   3.111   2.534   1.214  0.6092  0.0788 -0.3870
  221SOL    HW1  662   0.017   2.438   1.238  0.1546 -1.8048 -0.1036
  221SOL    HW2  663   0.064   2.598   1.204  0.8913  0.8592  0.0658
  222SOL     OW  664   2.134   2.632   0.788 -0.3510  0.3157  0.7362
  222SOL    HW1  665   2.188   2.702   0.734  1.6380  0.6287  0.5213
  222SOL    HW2  666   2.191   2.628   0.875  1.7023  1.5698  2.1274
  223SOL     OW  667   0.571   2.613   2.206  0.5032 -0.1282  0.2040
  223SOL    HW1  668   0.503   2.671   2.157 -1.2347  0.1449  0.4407
  223SOL    HW2  669   0.614   2.548   2.144 -0.3572  3.7953  0.2916
  224SOL     OW  670   2.864   2.506   1.099 -0.5011 -0.1205  0.4005
  224SOL    HW1  671   2.951   2.530   1.147 -0.9754  1.7015  2.0892
  224SOL    HW2  672   2.874   2.515   0.999 -1.7200 -1.2749 -0.7808
  225SOL     OW  673   2.155   2.192   0.737  0.5402 -0.5069 -0.4485
  225SOL    HW1  674   2.219   2.270   0.745 -0.3379  0.2717  2.1951
  225SOL    HW2  675   2.197   2.118   0.682 -1.5162  1.4773 -1.2223
  226SOL     OW  676   1.290   2.603   0.332  0.0609 -0.0491  0.4291
  226SOL    HW1  677   1.226   2.668   0.379 -0.6285  0.1727 -0.8439
  226SOL    HW2  678   1.372   2.655   0.296 -3.0345 -0.8920  1.1436
  227SOL     OW  679   1.908   0.567   1.004  0.1156 -0.0841 -0.0717
  227SOL    HW1  680   1.841   0.523   0.940 -1.1608 -0.7649  2.3508
  227SOL    HW2  681   1.983   0.607   0.949 -1.0291  0.0618  3.2889
  228SOL     OW  682   1.270   0.638   2.168  0.8458 -0.3432  0.4960
  228SOL    HW1  683   1.324   0.639   2.251  0.0923  2.0101  2.6827
  228SOL    HW2  684   1.258   0.733   2.128 -2.2310 -0.5012  0.6803
  229SOL     OW  685   0.022   1.085   3.093 -0.1247  0.7173  0.2514
  229SOL    HW1  686   0.031   1.093   2.989 -1.4926 -0.3710 -0.6634
  229SOL    HW2  687   0.017   1.172   0.022 -4.0601  1.0817  0.5615
  230SOL     OW  688   0.973   1.166   1.222 -0.0482 -0.3176 -0.5104
  230SOL    HW1  689   0.986   1.083   1.280  1.2701  0.8864  1.6266
  230SOL    HW2  690   1.026   1.245   1.269  2.6784  2.1363  2.0390
  231SOL     OW  691   2.560   3.112   2.402 -0.0265 -0.0420 -0.4348
  231SOL    HW1  692   2.560   3.117   2.302  1.6621  2.5388  1.0076
  231SOL    HW2  693   2.553   0.085   2.439 -0.5103  3.0760  1.2006
  232SOL     OW  694   0.372   2.389   0.199  0.1984 -0.2543 -0.3823
  232SOL    HW1  695   0.372   2.318   0.276  3.2645 -2.1898  0.6417
  232SOL    HW2  696   0.358   2.332   0.117 -0.6515  1.1506  0.0608
  233SOL     OW  697   1.183   2.366   2.305  0.1442 -0.6561 -0.4896
  233SOL    HW1  698   1.154   2.449   2.255  0.0231  0.8899 -0.3648
  233SOL    HW2  699   1.282   2.367   2.311  0.3284 -0.4103 -0.0756
  234SOL     OW  700   0.928   1.555   1.839 -0.0653 -0.0779 -0.2225
  234SOL    HW1  701   1.013   1.505   1.807  0.7909  0.1400  0.0374
  234SOL    HW2  702   0.903   1.634   1.775  1.2393  1.8432  1.8858
  235SOL     OW  703   0.834   1.987   1.672 -0.5682  0.5052  0.0246
  235SOL    HW1  704   0.855   2.069   1.616 -0.8636  0.0467  2.2888
  235SOL    HW2  705   0.834   2.003   1.775 -0.6280  2.3708  1.6557
  236SOL     OW  706   1.522   2.880   2.859  0.0696  0.1592  1.0814
  236SOL    HW1  707   1.549   2.852   2.956 -0.9417 -0.0970 -0.5301
  236SOL    HW2  708   1.462   2.815   2.816  0.4114 -3.4316 -0.2558
  237SOL     OW  709   1.280   0.213   0.960 -0.4409 -0.1133 -0.2165
  237SOL    HW1  710   1.205   0.150   0.990  1.2871 -0.7521 -2.8617
  237SOL    HW2  711   1.370   0.174   0.983 -0.7635 -1.0830  0.2511
  238SOL     OW  712   1.477   0.679   2.856 -0.4287 -0.8955  0.1431
  238SOL    HW1  713   1.393   0.672   2.798  1.7720  1.7776 -2.9836
  238SOL    HW2  714   1.470   0.754   2.921  3.6057 -0.0603  1.6654
  239SOL     OW  715   0.133   0.613   2.177 -0.4232  0.3730 -0.3060
  239SOL    HW1  716   0.208   0.668   2.141 -1.9548 -1.9328  0.7818
  239SOL    HW2  717   0.063   0.680   2.206  2.2059 -0.9388 -1.2884
  240SOL     OW  718   2.273   2.790   0.630  0.0802  0.6080 -0.0221
  240SOL    HW1  719   2.355   2.734   0.635 -4.4834 -0.4590 -0.6914
  240SOL    HW2  720   2.256   2.822   0.533 -0.8158 -1.3993 -1.6250
  241SOL     OW  721   1.634   1.017   1.346 -0.1481  0.4024 -0.0017
  241SOL    HW1  722   1.588   1.090   1.296 -0.2315 -1.3659  2.3538
  241SOL    HW2  723   1.733   1.022   1.324  0.5391  1.0888  0.5057
  242SOL     OW  724   0.696   0.888   0.797 -0.1386 -0.4007 -0.0291
  242SOL    HW1  725   0.654   0.972   0.836  1.2575  0.2223 -0.9723
  242SOL    HW2  726   0.627   0.840   0.740 -1.9948  2.2602  1.0838
  243SOL     OW  727   0.315   0.783   1.045 -0.2792  0.0877 -0.6569
  243SOL    HW1  728   0.308   0.745   1.139  0.0169 -0.8434 -0.0363
  243SOL    HW2  729   0.388   0.743   0.988 -2.4497  0.5251 -0.6412
  244SOL     OW  730   1.139   0.405   0.104 -0.0791  0.4294 -0.9967
  244SOL    HW1  731   1.043   0.447   0.109 -1.8648  2.3712 -0.3999
  244SOL    HW2  732   1.146   0.339   0.189 -0.4714 -2.4323  1.9845
  245SOL     OW  733   2.063   0.994   0.035  0.1660 -0.3469 -0.8825
  245SOL    HW1  734   2.084   1.018   3.066  0.9613  2.6147  0.6188
  245SOL    HW2  735   2.132   1.038   0.092 -2.2102  1.1003 -3.8002
  246SOL     OW  736   3.050   0.904   1.817 -0.0362 -0.6219  0.0457
  246SOL    HW1  737   0.018   0.934   1.784  0.5376  2.7265 -0.6808
  246SOL    HW2  738   3.045   0.804   1.829  0.8886  1.4491  0.4715
  247SOL     OW  739   0.400   2.954   1.788  0.4432  0.0364  0.3189
  247SOL    HW1  740   0.330   3.025   1.815 -1.5072 -2.6032  0.8655
  247SOL    HW2  741   0.488   2.982   1.827  0.9100 -0.4822 -1.6345
  248SOL     OW  742   0.728   1.361   2.221  0.5445  0.4410  0.5465
  248SOL    HW1  743   0.800   1.401   2.276 -0.2101  0.2329 -1.2738
  248SOL    HW2  744   0.752   1.261   2.213 -0.9762 -1.3943  0.7086
  249SOL     OW  745   0.457   2.963   2.833 -0.4872 -0.1884  0.1870
  249SOL    HW1  746   0.506   2.942   2.921  0.5030  1.4476  3.6728
  249SOL    HW2  747   0.517   2.939   2.754  1.2028  1.4127  1.1440
  250SOL     OW  748   0.251   0.204   2.489 -0.0409  0.2008  0.1729
  250SOL    HW1  749   0.312   0.275   2.528 -0.2258 -0.2578 -2.2519
  250SOL    HW2  750   0.263   0.198   2.387  0.5280 -0.4803  1.6694
  251SOL     OW  751   3.088   1.577   1.195 -0.2519 -0.0667  0.1713
  251SOL    HW1  752   2.995   1.535   1.193  1.0751  0.9587  0.6120
  251SOL    HW2  753   3.077   1.675   1.230 -2.5306  1.5135  0.9248
  252SOL     OW  754   1.760   2.734   2.084 -0.3356 -0.0791  0.2876
  252SOL    HW1  755   1.783   2.737   1.982 -0.2834 -1.0635 -2.2755
  252SOL    HW2  756   1.844   2.723   2.139 -0.3438 -0.2009 -2.0173
  253SOL     OW  757   1.906   1.664   3.025  0.4943  0.0440 -0.0602
  253SOL    HW1  758   1.850   1.732   3.076  1.3472  0.2168 -0.9652
  253SOL    HW2  759   1.913   1.578   3.081  1.4751 -2.0468  0.3533
  254SOL     OW  760   0.514   1.462   1.639  0.0840  0.2575 -0.4330
  254SOL    HW1  761   0.541   1.536   1.576 -0.6871 -0.3900  2.4530
  254SOL    HW2  762   0.565   1.480   1.727  0.4879 -0.2954  0.8273
  255SOL     OW  763   0.918   2.931   1.466 -0.0311 -0.3486  0.1192
  255SOL    HW1  764   0.956   3.014   1.420  0.0028 -1.3266 -0.6970
  255SOL    HW2  765   0.991   2.877   1.519  0.6723 -0.5135  2.4867
  256SOL     OW  766   0.001   2.294   0.962 -0.4329 -0.0614 -0.1195
  256SOL    HW1  767   0.100   2.282   0.937 -0.2204  0.1142 -1.5568
  256SOL    HW2  768   3.119   2.296   1.063  1.7222  0.6423  2.3871
  257SOL     OW  769   0.255   2.654   2.559  0.0552 -0.1297 -0.2024
  257SOL    HW1  770   0.237   2.740   2.613 -1.5556  1.3279  0.0201
  257SOL    HW2  771   0.313   2.592   2.620  0.7607 -0.8376 -0.8387
  258SOL     OW  772   1.373   2.037   2.001  0.3626 -0.2018 -0.5839
  258SOL    HW1  773   1.404   1.966   1.936  1.3904 -0.2759  0.2923
  258SOL    HW2  774   1.431   2.118   1.990  0.3243 -0.8902  0.5610
  259SOL     OW  775   1.211   1.708   2.497  0.4880 -0.4808 -0.2743
  259SOL    HW1  776   1.225   1.621   2.549  1.2435  1.6181  1.2044
  259SOL    HW2  777   1.111   1.739   2.510  0.0062 -1.8435  2.5917
  260SOL     OW  778   2.263   0.989   2.037 -0.6480 -0.2057  0.1343
  260SOL    HW1  779   2.198   0.912   2.051 -0.1814  0.6536 -1.1951
  260SOL    HW2  780   2.249   1.035   1.947 -1.0982  0.6160  1.3738
  261SOL     OW  781   1.379   0.810   0.953  0.4072  0.0532 -0.0330
  261SOL    HW1  782   1.391   0.743   1.031  0.6430 -1.6057  0.0826
  261SOL    HW2  783   1.465   0.859   0.934  0.5870  1.1678 -0.0506
  262SOL     OW  784   2.234   2.091   2.632  0.3947  0.1506  0.3847
  262SOL    HW1  785   2.174   2.171   2.631  1.0794 -1.5438  1.8212
  262SOL    HW2  786   2.267   2.063   2.725  2.0218 -0.4918  1.4155
  263SOL     OW  787   0.914   2.254   0.818  0.2275  0.4850 -0.6129
  263SOL    HW1  788   0.954   2.346   0.823 -2.6728 -3.4997 -2.5720
  263SOL    HW2  789   0.832   2.259   0.758 -0.4563  2.1700 -1.4617
  264SOL     OW  790   0.307   2.303   0.602 -0.0164  0.2889  0.0189
  264SOL    HW1  791   0.278   2.401   0.623  1.0615 -1.1191  1.7788
  264SOL    HW2  792   0.226   2.244   0.594 -1.0620 -0.6433 -0.7272
  265SOL     OW  793   1.107   1.422   0.166  0.1309  0.1919  0.1348
  265SOL    HW1  794   1.145   1.334   0.131 -0.0724  2.2100  1.4195
  265SOL    HW2  795   1.045   1.402   0.245  0.0890 -0.9435  0.1947
  266SOL     OW  796   0.764   2.001   2.282 -0.2438 -0.8492  0.1963
  266SOL    HW1  797   0.860   2.034   2.308 -0.1807  2.2135  1.0675
  266SOL    HW2  798   0.693   2.070   2.308 -3.2738  2.2179 -1.2821
  267SOL     OW  799   1.852   0.765   2.371  0.0559 -0.1473 -0.0897
  267SOL    HW1  800   1.788   0.715   2.434  2.3472 -0.0187  1.7714
  267SOL    HW2  801   1.804   0.847   2.337  0.8559 -1.3504  0.2031
  268SOL     OW  802   0.722   1.404   0.354  0.2176  0.1627  0.3656
  268SOL    HW1  803   0.665   1.417   0.268 -1.8362  0.8924  0.1647
  268SOL    HW2  804   0.813   1.368   0.325 -2.4820 -0.4309 -0.1106
  269SOL     OW  805   2.477   1.790   2.595 -0.2373 -0.5306 -0.1625
  269SOL    HW1  806   2.531   1.825   2.673  1.8494  0.2957  1.3072
  269SOL    HW2  807   2.538   1.769   2.517 -0.2499 -3.0438 -0.3042
  270SOL     OW  808   1.032   2.112   3.116 -0.0326 -0.4586  0.0459
  270SOL    HW1  809   0.996   2.015   3.111  0.7520 -0.8450 -0.3739
  270SOL    HW2  810   0.969   2.173   3.073  1.3360  1.5792 -2.2715
  271SOL     OW  811   0.286   0.310   0.138 -0.8351 -0.4042 -0.4264
  271SOL    HW1  812   0.334   0.388   0.096 -0.4143 -1.8216  0.9265
  271SOL    HW2  813   0.325   0.224   0.102  1.5602  0.7336  1.2837
  272SOL     OW  814   2.913   0.333   0.269  0.0079  0.0323 -0.5395
  272SOL    HW1  815   2.939   0.293   0.359  0.2514  0.8466 -2.0219
  272SOL    HW2  816   3.002   0.354   0.224  1.1712  1.2691 -0.1626
  273SOL     OW  817   0.242   0.049   1.840  0.4747 -0.1405  0.4607
  273SOL    HW1  818   0.279   0.066   1.935  0.8846 -0.6878 -0.0638
  273SOL    HW2  819   0.147   0.008   1.837  1.1639 -0.1435  0.7876
  274SOL     OW  820   2.820   0.577   1.386  0.1668 -0.2831 -0.1912
  274SOL    HW1  821   2.911   0.539   1.358  1.7215 -1.2464  1.5181
  274SOL    HW2  822   2.755   0.546   1.312 -0.1107  0.2162 -3.3005
  275SOL     OW  823   0.711   1.486   1.044  0.2628  0.7627 -0.8060
  275SOL    HW1  824   0.740   1.545   0.968 -2.8718 -3.1332  1.1179
  275SOL    HW2  825   0.740   1.391   1.030  0.0160  0.4544 -0.0477
  276SOL     OW  826   0.749   1.196   1.900 -0.2057 -0.0983  0.1856
  276SOL    HW1  827   0.715   1.296   1.897  2.6139  1.6483 -1.3842
  276SOL    HW2  828   0.699   1.138   1.972  1.0464 -2.5163 -1.5439
  277SOL     OW  829   1.257   2.388   1.878  0.1990  0.0066  0.0717
  277SOL    HW1  830   1.311   2.464   1.918 -1.6337 -2.3406 -2.9632
  277SOL    HW2  831   1.164   2.392   1.910 -0.6897  0.4355 -0.2092
  278SOL     OW  832   2.337   2.754   2.249 -0.4299 -0.0461  0.2477
  278SOL    HW1  833   2.268   2.829   2.244 -2.0145  2.7633  1.0282
  278SOL    HW2  834   2.294   2.665   2.237 -1.0309  3.0208  1.6545
  279SOL     OW  835   1.342   1.853   3.125 -0.0059  0.0054 -0.1103
  279SOL    HW1  836   1.384   1.865   3.034  0.2770 -0.3020 -0.1927
  279SOL    HW2  837   1.312   1.947   0.031  1.4014  1.7569  2.5358
  280SOL     OW  838   1.283   0.342   0.368  0.0430 -0.2338  0.2227
  280SOL    HW1  839   1.301   0.267   0.437 -0.3279 -2.5628 -1.9548
  280SOL    HW2  840   1.360   0.408   0.358  1.7302  0.4240 -0.5196
  281SOL     OW  841   0.461   0.363   1.517 -0.2502 -0.0291 -0.1520
  281SOL    HW1  842   0.488   0.447   1.568 -0.7517 -2.0267 -1.9447
  281SOL    HW2  843   0.414   0.292   1.572  1.7519 -1.6820  0.8990
  282SOL     OW  844   0.208   2.535   0.684 -0.0011 -0.5941  0.2776
  282SOL    HW1  845   0.217   2.591   0.767 -0.4371  0.1208 -1.1420
  282SOL    HW2  846   0.118   2.553   0.636 -0.0967  2.4485 -1.4917
  283SOL     OW  847   1.494   1.836   1.851  0.0260 -0.1201 -0.1828
  283SOL    HW1  848   1.485   1.774   1.932  1.4100  1.3528  0.5649
  283SOL    HW2  849   1.570   1.902   1.872  0.3809  0.3385 -2.1066
  284SOL     OW  850   2.870   2.868   1.613 -0.5569  0.7641 -0.1982
  284SOL    HW1  851   2.792   2.934   1.617  1.5789 -1.6837  2.9864
  284SOL    HW2  852   2.840   2.788   1.552 -1.2252 -2.3383  0.8956
  285SOL     OW  853   0.200   2.546   0.299  0.1959 -0.4688 -0.1175
  285SOL    HW1  854   0.118   2.486   0.306  0.0254 -0.1068 -1.0729
  285SOL    HW2  855   0.282   2.505   0.260 -0.8427  1.7736 -1.5043
  286SOL     OW  856   0.485   2.785   1.033  0.1670 -0.1719 -0.2668
  286SOL    HW1  857   0.543   2.863   1.066  1.2949 -1.6440  1.0339
  286SOL    HW2  858   0.387   2.809   1.028 -0.7001  0.1484  1.2622
  287SOL     OW  859   0.808   1.580   0.558  0.1285 -0.3576  0.2144
  287SOL    HW1  860   0.796   1.495   0.507 -1.2856  0.3786 -0.2764
  287SOL    HW2  861   0.888   1.629   0.524  0.0628  1.6046 -1.2143
  288SOL     OW  862   1.983   1.950   2.932 -0.0024  0.3876  0.1638
  288SOL    HW1  863   2.039   1.869   2.912  0.4445 -0.0452 -2.4506
  288SOL    HW2  864   1.989   1.973   3.026 -0.5105 -0.1966 -4.9370
  289SOL     OW  865   2.728   1.798   0.212  0.2027  0.3794 -0.0978
  289SOL    HW1  866   2.714   1.790   0.111 -0.6098 -3.0961  1.7845
  289SOL    HW2  867   2.638   1.795   0.259 -0.8432 -1.5194  0.4603
  290SOL     OW  868   1.444   1.442   1.377  0.1943  0.0575 -0.5578
  290SOL    HW1  869   1.392   1.494   1.451 -2.0486  0.2754  1.2884
  290SOL    HW2  870   1.389   1.419   1.295  2.1450 -0.6706  2.4172
  291SOL     OW  871   1.266   1.172   0.131 -0.1465  0.2970 -0.5567
  291SOL    HW1  872   1.245   1.098   0.198  1.6512  0.6657  1.6710
  291SOL    HW2  873   1.257   1.137   0.038 -0.9934  0.5902  0.7303
  292SOL     OW  874   1.340   1.427   0.320 -1.1765 -0.1105  0.5493
  292SOL    HW1  875   1.263   1.449   0.258  0.1208 -1.1024  0.7979
  292SOL    HW2  876   1.423   1.386   0.275 -0.7664  1.9869  0.3648
  293SOL     OW  877   1.089   3.123   0.926 -0.2272 -0.2856 -0.1218
  293SOL    HW1  878   1.020   3.053   0.947  0.4510 -0.3199 -0.0166
  293SOL    HW2  879   1.050   0.077   0.874 -1.9402  1.0311  1.6104
  294SOL     OW  880   1.965   1.157   2.293  0.7441  0.1837  0.1442
  294SOL    HW1  881   1.951   1.101   2.205  0.2451 -1.4000 -3.3454
  294SOL    HW2  882   2.001   1.105   2.371  1.4715 -0.4017 -2.6551
  295SOL     OW  883   1.722   1.827   0.016 -0.1462  0.0535 -0.0812
  295SOL    HW1  884   1.672   1.831   0.106 -2.3386 -0.1904 -1.9605
  295SOL    HW2  885   1.705   1.906   3.078  1.0953 -3.0795  3.5213
  296SOL     OW  886   1.214   0.766   1.667 -0.9144 -0.7307 -0.3421
  296SOL    HW1  887   1.120   0.736   1.685 -0.0071  0.3169 -0.9708
  296SOL    HW2  888   1.262   0.725   1.585  0.1470  0.0879 -1.7711
  297SOL     OW  889   3.056   0.619   1.904 -0.1638 -0.2041  0.7521
  297SOL    HW1  890   3.003   0.532   1.909  1.4590 -0.8512  0.0737
  297SOL    HW2  891   0.031   0.610   1.890  0.3355 -0.4396  2.2204
  298SOL     OW  892   1.393   1.824   1.260  0.7187 -0.5330  0.3258
  298SOL    HW1  893   1.347   1.792   1.342 -0.4091 -0.2443  1.8201
  298SOL    HW2  894   1.471   1.870   1.297 -0.8651  1.6541 -1.9104
  299SOL     OW  895   1.078   0.208   2.546 -0.3294 -0.6372 -0.4148
  299SOL    HW1  896   1.051   0.118   2.584 -1.1356 -0.0694 -0.5480
  299SOL    HW2  897   1.027   0.225   2.458 -0.8170 -1.1146 -0.1292
  300SOL     OW  898   2.761   2.069   0.407  0.2246 -0.2828  0.0331
  300SOL    HW1  899   2.854   2.094   0.382  0.3526 -0.2942  2.1806
  300SOL    HW2  900   2.722   2.128   0.480 -0.7563 -3.0175  1.2556
  301SOL     OW  901   2.039   0.613   2.628 -0.1386  0.2883  0.3818
  301SOL    HW1  902   1.960   0.606   2.570 -0.1755 -1.4566  1.3737
  301SOL    HW2  903   2.048   0.705   2.671 -1.4186  0.2359  1.8401
  302SOL     OW  904   2.486   2.229   3.079  0.5611  0.2376  0.1481
  302SOL    HW1  905   2.547   2.183   0.025 -0.4995 -2.6295  3.4624
  302SOL    HW2  906   2.523   2.224   2.984 -3.8592 -1.8704 -2.7427
  303SOL     OW  907   3.058   2.332   0.135 -0.3769 -0.7149 -0.2352
  303SOL    HW1  908   2.958   2.332   0.148  1.2297  0.1220 -0.2443
  303SOL    HW2  909   3.082   2.361   0.040  1.5296  1.5026  1.8008
  304SOL     OW  910   0.137   1.707   1.024  0.0426  0.1283 -0.5568
  304SOL    HW1  911   0.085   1.665   1.099  1.9992  0.7269 -0.5544
  304SOL    HW2  912   0.235   1.720   1.042 -0.5881 -0.6021  0.5824
  305SOL     OW  913   2.769   0.529   1.652 -0.0321  0.5587  0.5580
  305SOL    HW1  914   2.784   0.562   1.557 -0.0316 -0.9347 -0.7118
  305SOL    HW2  915   2.829   0.453   1.671 -0.6867 -0.1877 -2.5050
  306SOL     OW  916   1.716   1.437   0.983 -0.4760  0.2166 -0.3526
  306SOL    HW1  917   1.625   1.485   0.982  0.5453  1.6581  2.0684
  306SOL    HW2  918   1.756   1.464   1.073 -0.7574 -0.0756  0.3917
  307SOL     OW  919   0.122   0.231   0.820  0.2366 -0.4924 -0.4851
  307SOL    HW1  920   0.103   0.262   0.727  1.0612 -0.7488  1.6330
  307SOL    HW2  921   0.213   0.184   0.827  1.6196  1.5499 -1.1387
  308SOL     OW  922   0.060   1.374   1.993 -0.4831 -0.1418 -0.1071
  308SOL    HW1  923   3.091   1.347   1.970  0.6326  0.8577  2.1565
  308SOL    HW2  924   0.115   1.371   1.906 -0.4919 -0.9749 -0.3778
  309SOL     OW  925   2.871   1.856   2.422  0.2255 -0.4271 -0.5869
  309SOL    HW1  926   2.878   1.953   2.391 -1.6336 -1.0116  2.6891
  309SOL    HW2  927   2.944   1.833   2.490 -1.5078 -0.4177  2.0482
  310SOL     OW  928   2.625   1.142   2.869  0.0579 -0.4659  0.0127
  310SOL    HW1  929   2.679   1.179   2.790 -0.2762  0.4729 -0.0760
  310SOL    HW2  930   2.551   1.073   2.853 -3.3943  2.2554 -0.3022
  311SOL     OW  931   1.998   0.857   2.758  0.2650  0.0679  0.3544
  311SOL    HW1  932   2.053   0.918   2.825  0.2156  0.4206  1.3546
  311SOL    HW2  933   1.921   0.815   2.812  1.1331 -0.2167  0.4900
  312SOL     OW  934   1.424   2.334   2.673  0.3122 -0.7399  0.2503
  312SOL    HW1  935   1.512   2.277   2.691  1.2052 -1.2659 -1.9864
  312SOL    HW2  936   1.429   2.380   2.584 -0.8057  0.2052  3.6221
  313SOL     OW  937   0.292   0.379   0.406 -0.6041  0.2168 -0.3443
  313SOL    HW1  938   0.297   0.356   0.306 -0.6724 -0.6602 -1.2677
  313SOL    HW2  939   0.295   0.481   0.417 -0.1911  0.7749  0.5883
  314SOL     OW  940   0.700   1.913   1.166  1.0018  0.2910  0.5103
  314SOL    HW1  941   0.744   1.990   1.212 -1.9190  0.3228  0.2558
  314SOL    HW2  942   0.741   1.823   1.196  3.9416 -3.2469  0.2878
  315SOL     OW  943   0.708   1.802   2.061  0.4973 -0.0755  0.5655
  315SOL    HW1  944   0.617   1.781   2.023  0.7417 -0.0526 -0.6701
  315SOL    HW2  945   0.703   1.860   2.144 -0.1729 -0.5118  0.6108
  316SOL     OW  946   0.507   2.489   0.576  0.1896 -0.2070 -0.1622
  316SOL    HW1  947   0.449   2.405   0.582  0.1434 -1.2291  1.1791
  316SOL    HW2  948   0.515   2.535   0.666  1.8454 -0.3060  1.4360
  317SOL     OW  949   2.452   0.150   1.339  0.3249  0.0854 -0.7915
  317SOL    HW1  950   2.492   0.219   1.399  0.4309 -2.5858 -0.0795
  317SOL    HW2  951   2.450   0.188   1.243 -0.9993  2.1849  1.4095
  318SOL     OW  952   1.965   2.735   0.458 -0.6191 -0.2048  0.1397
  318SOL    HW1  953   1.945   2.781   0.551 -0.7251  2.0317 -1.1277
  318SOL    HW2  954   1.972   2.634   0.472 -3.2979 -0.4668 -0.0738
  319SOL     OW  955   1.641   0.455   2.797  0.0038  0.1229 -0.1836
  319SOL    HW1  956   1.585   0.537   2.816  0.1764  0.2814  0.4145
  319SOL    HW2  957   1.581   0.380   2.826  0.3652  1.9842 -0.1030
  320SOL     OW  958   2.898   2.330   2.060  0.2033  0.2170 -0.7794
  320SOL    HW1  959   2.801   2.298   2.079 -2.3596  0.3491  0.1845
  320SOL    HW2  960   2.924   2.414   2.119  3.0869 -0.5229  1.3515
  321SOL     OW  961   0.451   2.503   3.035 -0.3765  0.0943  0.1442
  321SOL    HW1  962   0.543   2.524   3.081  1.0158  0.4627  0.5551
  321SOL    HW2  963   0.371   2.557   3.059  0.0348  0.1772  2.1056
  322SOL     OW  964   2.453   0.638   2.279 -0.2655  0.5150 -0.5560
  322SOL    HW1  965   2.403   0.582   2.210 -0.1929  1.5477  0.2124
  322SOL    HW2  966   2.431   0.606   2.375 -3.1315  2.9711  0.6774
  323SOL     OW  967   2.576   1.159   0.835  0.5459 -0.0583  0.8275
  323SOL    HW1  968   2.492   1.102   0.860 -1.0599 -3.0147  2.5570
  323SOL    HW2  969   2.661   1.107   0.851 -0.2772  1.7556  0.7373
  324SOL     OW  970   2.766   0.493   1.125 -0.0623  0.5295 -0.2635
  324SOL    HW1  971   2.843   0.481   1.058  1.9685  0.8939  0.1875
  324SOL    HW2  972   2.677   0.512   1.075 -3.3641  0.4633 -0.9357
  325SOL     OW  973   2.709   3.095   1.618  0.1859 -0.1115  0.0858
  325SOL    HW1  974   2.676   3.124   1.714 -0.6163  0.0356  3.2545
  325SOL    HW2  975   2.783   0.035   1.596 -1.0937  0.0024 -0.9038
  326SOL     OW  976   1.953   2.821   0.141  0.3586  0.2463 -0.6282
  326SOL    HW1  977   1.941   2.728   0.096 -1.8467  0.3058 -0.3936
  326SOL    HW2  978   1.967   2.800   0.241  0.1399 -0.0834  2.2484
  327SOL     OW  979   1.918   1.768   0.399 -0.2934  0.2994  0.1520
  327SOL    HW1  980   1.907   1.856   0.353  1.2385  0.9445  1.4000
  327SOL    HW2  981   1.886   1.771   0.497  0.4174  0.3333  1.1440
  328SOL     OW  982   3.030   2.290   2.409 -0.0105  0.3030 -0.1874
  328SOL    HW1  983   3.012   2.383   2.370  0.5693  1.5649 -1.1137
  328SOL    HW2  984   3.115   2.257   2.371 -0.7778 -1.1764  0.1087
  329SOL     OW  985   0.067   2.314   1.546 -0.2880  0.4606  0.4232
  329SOL    HW1  986   0.142   2.272   1.489  4.4187 -0.9039  0.7603
  329SOL    HW2  987   0.027   2.237   1.597  0.3975 -0.6681 -3.6767
  330SOL     OW  988   2.837   0.817   2.759 -0.0882 -0.4898 -0.4843
  330SOL    HW1  989   2.874   0.909   2.754 -0.8744 -0.1729 -0.5583
  330SOL    HW2  990   2.858   0.759   2.678 -0.5646 -1.8824  0.2086
  331SOL     OW  991   2.247   2.322   1.145  0.0898 -0.6838  0.3975
  331SOL    HW1  992   2.206   2.244   1.091 -1.0492  0.7995 -1.5490
  331SOL    HW2  993   2.256   2.413   1.091 -1.1416  1.5719  0.8783
  332SOL     OW  994   0.556   2.657   0.779 -0.3224  0.4664  0.4025
  332SOL    HW1  995   0.584   2.753   0.758  1.5386  2.1484 -0.5141
  332SOL    HW2  996   0.501   2.657   0.864 -0.8875  0.0237 -0.7590
  333SOL     OW  997   2.224   1.843   2.531 -0.7075 -0.5757  0.1858
  333SOL    HW1  998   2.190   1.938   2.557  1.3675  0.8205 -1.9235
  333SOL    HW2  999   2.323   1.828   2.555  0.9213  1.3403  1.5183
  334SOL     OW 1000   0.610   1.136   0.899  0.0078 -0.1396  0.4104
  334SOL    HW1 1001   0.697   1.177   0.939  3.7731  1.5512 -2.0133
  334SOL    HW2 1002   0.522   1.157   0.948 -0.9996 -0.0533 -1.4142
  335SOL     OW 1003   0.081   1.912   2.347 -0.6715  0.1822 -0.3885
  335SOL    HW1 1004   0.023   1.852   2.399  0.7571 -1.7333 -2.1133
  335SOL    HW2 1005   0.063   1.920   2.245  1.9965 -0.3150  0.8846
  336SOL     OW 1006   2.161   2.969   2.255 -0.0350 -0.2008  0.1337
  336SOL    HW1 1007   2.194   3.045   2.196  0.8402  1.0734  0.4102
  336SOL    HW2 1008   2.141   3.003   2.351 -0.5339  1.0993  1.1046
  337SOL     OW 1009   0.966   0.865   0.724 -0.6333  0.4476 -0.6146
  337SOL    HW1 1010   0.872   0.867   0.769  0.3082 -1.5480 -1.8322
  337SOL    HW2 1011   1.040   0.901   0.791  1.3254  1.7139  1.5217
  338SOL     OW 1012   1.519   2.112   1.266  0.2139 -0.2428  0.3184
  338SOL    HW1 1013   1.428   2.125   1.312 -0.3249  0.3378  2.1603
  338SOL    HW2 1014   1.582   2.180   1.310  0.0574  1.3578  1.4792
  339SOL     OW 1015   0.398   1.829   1.130 -0.0496 -0.1783 -0.4835
  339SOL    HW1 1016   0.490   1.835   1.095 -2.8822 -0.9695  1.0394
  339SOL    HW2 1017   0.375   1.880   1.211  0.1024  1.1359 -0.0207
  340SOL     OW 1018   0.960   2.959   1.884  0.1826 -0.1765 -0.3812
  340SOL    HW1 1019   0.977   3.057   1.855  4.6760  2.0885  0.4515
  340SOL    HW2 1020   1.045   2.902   1.875 -0.2385 -1.6461  0.7456
  341SOL     OW 1021   2.162   1.599   1.034 -0.6441  0.1520  0.0407
  341SOL    HW1 1022   2.263   1.591   1.017  0.0466  1.6499  2.4435
  341SOL    HW2 1023   2.110   1.513   1.009 -1.4781  0.7894  0.0329
  342SOL     OW 1024   2.584   1.453   0.813  0.5624  0.4995  0.1434
  342SOL    HW1 1025   2.568   1.349   0.829 -0.5285 -2.6328  0.0522
  342SOL    HW2 1026   2.648   1.465   0.732  0.0355  4.0358 -1.0557
  343SOL     OW 1027   2.110   0.076   0.832 -0.2108 -0.3583 -0.4494
  343SOL    HW1 1028   2.157   0.125   0.911  1.2182  0.2951  1.6407
  343SOL    HW2 1029   2.174   0.009   0.795 -1.8838 -1.5319  1.1798
  344SOL     OW 1030   2.261   0.249   0.230 -0.1085  0.6266 -0.6771
  344SOL    HW1 1031   2.350   0.253   0.187 -0.0118 -0.4578 -0.1708
  344SOL    HW2 1032   2.253   0.174   0.299  0.9981 -1.4623  1.7991
  345SOL     OW 1033   0.932   2.600   1.948 -0.6989  0.0256 -0.4963
  345SOL    HW1 1034   0.927   2.619   1.846 -1.4652 -0.5748 -0.9319
  345SOL    HW2 1035   0.960   2.503   1.975  0.5310  2.4327  2.2734
  346SOL     OW 1036   2.365   2.380   0.798 -0.2773 -0.0529  0.3690
  346SOL    HW1 1037   2.361   2.435   0.883  1.4246 -0.7829 -2.2331
  346SOL    HW2 1038   2.393   2.441   0.720  0.0232 -2.1593 -0.4901
  347SOL     OW 1039   2.381   3.039   1.089  0.4214  0.2910  0.2788
  347SOL    HW1 1040   2.465   2.994   1.060 -2.9484  2.0730  1.3449
  347SOL    HW2 1041   2.397   0.004   1.131  0.2812  1.1786  2.4124
  348SOL     OW 1042   0.762   0.612   1.494  0.2420 -0.0500  0.4431
  348SOL    HW1 1043   0.748   0.704   1.454 -0.8918  0.2178 -0.4780
  348SOL    HW2 1044   0.794   0.552   1.415 -0.0332 -0.4925  1.1168
  349SOL     OW 1045   2.328   0.648   2.555  0.4931  0.4028  0.0128
  349SOL    HW1 1046   2.228   0.647   2.575 -1.8329 -2.0774  2.9245
  349SOL    HW2 1047   2.367   0.738   2.565 -1.1757 -2.1670 -2.3122
  350SOL     OW 1048   2.294   2.411   0.045  0.4769 -0.0756 -0.0226
  350SOL    HW1 1049   2.204   2.367   0.014 -0.5065 -3.4008 -1.3870
  350SOL    HW2 1050   2.372   2.346   0.041 -0.7733  0.2357 -0.3471
  351SOL     OW 1051   1.063   0.376   0.533 -0.2847 -0.3211  0.2986
  351SOL    HW1 1052   1.048   0.469   0.580 -0.4894  3.3786 -0.5728
  351SOL    HW2 1053   1.143   0.384   0.469 -1.1714  1.2282  3.0598
  352SOL     OW 1054   1.782   2.002   2.746 -0.8248 -0.0564 -0.2385
  352SOL    HW1 1055   1.742   1.910   2.726 -0.6134  0.7230 -1.5831
  352SOL    HW2 1056   1.872   1.990   2.793 -0.5886 -0.0554 -2.9354
  353SOL     OW 1057   0.719   1.426   2.764 -0.1448 -0.0042 -0.4274
  353SOL    HW1 1058   0.673   1.412   2.673  1.9161  1.5231  0.0276
  353SOL    HW2 1059   0.792   1.496   2.759  1.6900 -2.3035  1.4560
  354SOL     OW 1060   0.830   2.660   2.872  0.0990 -0.4837 -0.0636
  354SOL    HW1 1061   0.843   2.610   2.964 -0.4219 -0.2572 -0.1007
  354SOL    HW2 1062   0.919   2.700   2.840 -0.8143 -0.7604 -2.6488
  355SOL     OW 1063   2.379   2.790   1.573 -0.2441 -0.2530  0.0691
  355SOL    HW1 1064   2.413   2.881   1.545 -1.5348  1.3115 -0.0404
  355SOL    HW2 1065   2.457   2.725   1.566  0.6066  2.0321  1.2778
  356SOL     OW 1066   2.789   0.967   0.970 -0.1641  0.3331 -0.2575
  356SOL    HW1 1067   2.852   0.919   1.032 -0.8870  2.3120  1.2474
  356SOL    HW2 1068   2.752   0.899   0.905  2.2964 -2.1431 -0.4650
  357SOL     OW 1069   2.814   0.232   1.523 -0.0287  0.4562  0.0015
  357SOL    HW1 1070   2.907   0.241   1.559 -0.3782  0.1610  0.7949
  357SOL    HW2 1071   2.828   0.242   1.422 -0.8278  1.3624 -2.6137
  358SOL     OW 1072   0.257   1.905   1.698  0.1619  0.0385 -0.4208
  358SOL    HW1 1073   0.267   1.824   1.760  1.7444  0.5411  3.0426
  358SOL    HW2 1074   0.252   1.988   1.761  1.8315  0.3497  3.2436
  359SOL     OW 1075   2.816   2.957   2.559  0.0666  0.6616  0.4284
  359SOL    HW1 1076   2.739   2.899   2.531 -1.8671  0.7549  0.4564
  359SOL    HW2 1077   2.885   2.960   2.483 -1.4975  0.0193  1.6691
  360SOL     OW 1078   1.001   0.386   1.543 -0.4667 -0.7197 -0.3987
  360SOL    HW1 1079   1.077   0.382   1.474  0.4791 -1.3673 -0.6707
  360SOL    HW2 1080   1.002   0.476   1.598 -0.0231  0.3052  1.4839
  361SOL     OW 1081   2.311   2.630   0.993 -0.0753 -0.0467  0.1961
  361SOL    HW1 1082   2.257   2.700   1.043 -2.1419  1.0821 -0.8681
  361SOL    HW2 1083   2.413   2.651   0.990 -0.9253  0.7766 -0.0511
  362SOL     OW 1084   0.882   0.030   0.500  0.3418 -0.1509 -0.2750
  362SOL    HW1 1085   0.813   3.084   0.511 -1.0660  2.7099 -1.6872
  362SOL    HW2 1086   0.958   0.003   0.432  0.8005  1.8159 -2.4781
  363SOL     OW 1087   1.365   1.322   0.784 -0.1423 -0.1571 -0.1337
  363SOL    HW1 1088   1.408   1.334   0.690 -1.3008  0.1911  2.3355
  363SOL    HW2 1089   1.409   1.397   0.839  1.7929  0.7297 -0.0077
  364SOL     OW 1090   0.356   0.744   1.595 -0.4122 -0.4246 -0.2689
  364SOL    HW1 1091   0.353   0.847   1.593  0.4662 -0.7077  0.5585
  364SOL    HW2 1092   0.320   0.701   1.510  2.1476 -2.3902  1.3123
  365SOL     OW 1093   2.726   0.705   0.799  0.4783 -0.0312 -0.1569
  365SOL    HW1 1094   2.733   0.720   0.700 -0.9695 -1.5369  1.8881
  365SOL    HW2 1095   2.742   0.604   0.813 -0.7598  0.5708 -0.0327
  366SOL     OW 1096   2.731   1.662   1.043 -0.2851 -0.5916  0.2160
  366SOL    HW1 1097   2.638   1.694   1.028  1.6298  3.0117 -0.3650
  366SOL    HW2 1098   2.786   1.652   0.956 -0.5396  0.3226  0.9425
  367SOL     OW 1099   1.889   1.998   2.266  0.3401 -0.1257  0.0605
  367SOL    HW1 1100   1.962   1.928   2.242  1.4397 -0.1530  0.7842
  367SOL    HW2 1101   1.898   2.020   2.366  1.7105 -2.2747 -1.5198
  368SOL     OW 1102   2.457   1.943   1.090  0.0019  0.3580 -0.0104
  368SOL    HW1 1103   2.539   1.941   1.037 -1.4154 -1.5770 -0.9111
  368SOL    HW2 1104   2.378   1.976   1.039  2.4797 -0.6400 -1.4007
  369SOL     OW 1105   2.051   2.874   2.555 -0.7007  0.2255  0.3655
  369SOL    HW1 1106   1.962   2.922   2.548 -4.0877  3.2786 -0.4566
  369SOL    HW2 1107   2.103   2.915   2.634 -0.8357 -0.4734  0.7286
  370SOL     OW 1108   0.380   0.365   0.997  0.6431  0.1357 -0.4691
  370SOL    HW1 1109   0.364   0.400   1.095 -0.8333 -1.4035 -1.4763
  370SOL    HW2 1110   0.424   0.273   0.989  1.6745  1.9987 -2.5041
  371SOL     OW 1111   0.547   1.974   0.399 -0.1812 -0.2707 -0.4751
  371SOL    HW1 1112   0.571   1.895   0.340  0.5851 -0.2228 -1.7546
  371SOL    HW2 1113   0.598   1.977   0.487  0.2343  2.6727  0.6906
  372SOL     OW 1114   0.913   1.180   3.116  0.0426  0.4409  0.4097
  372SOL    HW1 1115   0.945   1.121   0.068 -0.8776  0.9067 -1.9902
  372SOL    HW2 1116   0.970   1.163   3.030  3.1958 -2.3583  0.1569
  373SOL     OW 1117   1.345   2.558   2.494  0.0381 -0.1544  0.1514
  373SOL    HW1 1118   1.399   2.498   2.429 -3.0834 -0.4438  0.0709
  373SOL    HW2 1119   1.263   2.510   2.524  3.4892 -1.4207  0.2542
  374SOL     OW 1120   0.374   2.183   0.357  0.4704  0.2540  0.1891
  374SOL    HW1 1121   0.342   2.210   0.450  2.6681 -1.0604 -2.1920
  374SOL    HW2 1122   0.428   2.100   0.369 -2.3961 -0.0221  1.3605
  375SOL     OW 1123   0.630   0.780   1.869 -0.7027 -0.1499 -0.9449
  375SOL    HW1 1124   0.716   0.725   1.888  0.3637 -0.4747 -1.4540
  375SOL    HW2 1125   0.545   0.723   1.854 -0.4791  0.0149 -1.3620
  376SOL     OW 1126   0.310   2.499   1.588 -0.1817 -0.9568 -0.5473
  376SOL    HW1 1127   0.223   2.450   1.566 -3.4623  0.4248 -0.5550
  376SOL    HW2 1128   0.324   2.507   1.687  0.9308  0.8922 -0.2234
  377SOL     OW 1129   2.986   1.616   2.751 -0.1371 -0.0852  0.1461
  377SOL    HW1 1130   3.048   1.551   2.801  2.5856  0.2352  1.0591
  377SOL    HW2 1131   2.893   1.568   2.757  0.5548 -1.2587 -0.9980
  378SOL     OW 1132   1.680   2.807   3.090 -0.0955 -0.5267 -0.1242
  378SOL    HW1 1133   1.682   2.711   3.105  1.5415 -0.9365 -1.1618
  378SOL    HW2 1134   1.734   2.857   0.032 -0.2089  0.8116 -1.2050
  379SOL     OW 1135   1.705   0.719   0.674 -0.4203  0.0619  0.0642
  379SOL    HW1 1136   1.702   0.665   0.760 -1.0439  3.5899  0.8516
  379SOL    HW2 1137   1.659   0.808   0.676  0.9901 -2.4212  0.5105
  380SOL     OW 1138   0.368   1.911   1.428  0.0880  0.3493 -0.5099
  380SOL    HW1 1139   0.423   1.825   1.424  2.3066 -0.3861  1.2905
  380SOL    HW2 1140   0.317   1.912   1.513 -1.5721  0.7173  0.7832
  381SOL     OW 1141   2.399   1.527   2.496 -0.2226 -0.1187  0.1243
  381SOL    HW1 1142   2.418   1.619   2.530  0.0684  0.4326 -0.5982
  381SOL    HW2 1143   2.342   1.478   2.560  2.8192 -2.2996 -0.2492
  382SOL     OW 1144   0.171   0.021   2.674  0.2612 -0.5808  1.0641
  382SOL    HW1 1145   0.085   3.102   2.627 -2.1553  1.0014 -0.2588
  382SOL    HW2 1146   0.219   0.085   2.613  0.9166  0.3670 -0.9456
  383SOL     OW 1147   1.765   1.169   2.951  0.7989  0.1273 -0.7623
  383SOL    HW1 1148   1.808   1.234   2.883  0.5612 -0.2242 -0.5526
  383SOL    HW2 1149   1.691   1.222   2.992 -0.1344  2.6024 -2.3476
  384SOL     OW 1150   1.085   2.003   1.279  0.8891  0.4706  0.1499
  384SOL    HW1 1151   1.000   2.050   1.301  0.9791 -1.0143 -3.0742
  384SOL    HW2 1152   1.161   2.063   1.311 -1.5732  1.1546  0.0596
  385SOL     OW 1153   1.812   2.785   0.857  0.3999  0.2136  0.1565
  385SOL    HW1 1154   1.783   2.857   0.922 -0.0318 -0.4679  0.8765
  385SOL    HW2 1155   1.842   2.695   0.904 -0.6640 -0.7062 -0.6560
  386SOL     OW 1156   1.530   2.052   0.990 -0.8043 -0.1258 -0.0166
  386SOL    HW1 1157   1.506   2.047   1.087  0.5363  2.3998 -2.1529
  386SOL    HW2 1158   1.555   1.961   0.952 -2.1939 -1.3018  1.7568
  387SOL     OW 1159   2.658   2.151   1.551  0.4147 -0.6158  0.6182
  387SOL    HW1 1160   2.584   2.221   1.552  1.8083  1.2932 -1.3979
  387SOL    HW2 1161   2.744   2.203   1.582 -1.2786  0.1352 -0.8787
  388SOL     OW 1162   2.632   1.011   1.623 -0.2374 -0.0146 -0.0263
  388SOL    HW1 1163   2.651   0.918   1.583  0.1441 -2.1648 -3.2876
  388SOL    HW2 1164   2.718   1.066   1.641 -0.2357 -0.9890 -1.6033
  389SOL     OW 1165   1.903   0.917   0.217  0.3057 -0.4747 -0.1269
  389SOL    HW1 1166   1.975   0.927   0.145 -0.0743 -1.0781  0.4499
  389SOL    HW2 1167   1.932   0.847   0.290  0.2384  1.6894 -0.5127
  390SOL     OW 1168   1.658   1.784   2.675 -0.8793  0.6311 -0.2015
  390SOL    HW1 1169   1.590   1.789   2.594 -0.2064  3.3941 -2.8269
  390SOL    HW2 1170   1.738   1.724   2.649  0.1698 -0.0057 -0.8123
  391SOL     OW 1171   1.281   2.100   0.074  0.2234  0.0393  0.5901
  391SOL    HW1 1172   1.290   2.142   0.163  0.9154 -3.0310 -2.4211
  391SOL    HW2 1173   1.186   2.108   0.039  2.5809  3.1587 -0.8965
  392SOL     OW 1174   0.229   2.764   1.835  0.0252 -0.1902 -0.4175
  392SOL    HW1 1175   0.293   2.828   1.789  0.0197 -0.4426 -0.9579
  392SOL    HW2 1176   0.282   2.676   1.837  1.7878  0.6160  1.4325
  393SOL     OW 1177   1.473   2.242   3.072 -0.7151 -0.1138 -0.8635
  393SOL    HW1 1178   1.396   2.224   0.013  1.6517  2.0356 -0.4688
  393SOL    HW2 1179   1.448   2.321   3.008 -0.6813 -0.8808  1.7704
  394SOL     OW 1180   0.340   0.782   2.412  0.4136 -0.3462  0.4139
  394SOL    HW1 1181   0.351   0.847   2.488  0.0925  0.7217 -2.4222
  394SOL    HW2 1182   0.291   0.695   2.437 -0.8089  3.6466  0.0581
  395SOL     OW 1183   0.349   1.183   0.973  0.3110 -0.1442 -0.1927
  395SOL    HW1 1184   0.377   1.278   0.976 -1.1042 -0.0279  0.4151
  395SOL    HW2 1185   0.246   1.180   0.962 -4.0442 -1.7067 -0.4699
  396SOL     OW 1186   1.699   0.961   2.202 -0.0065  0.3299 -0.0641
  396SOL    HW1 1187   1.778   0.991   2.148  0.5242  0.2932  0.6001
  396SOL    HW2 1188   1.613   1.012   2.180 -0.3592  0.2430  1.5972
  397SOL     OW 1189   0.814   0.050   0.092 -0.4629  0.1711  0.0971
  397SOL    HW1 1190   0.804   0.094   3.124 -2.2618  2.5252 -2.0901
  397SOL    HW2 1191   0.720   0.063   0.136  1.3673  1.9039 -2.3622
  398SOL     OW 1192   0.773   2.202   2.715 -0.1588  0.5846  0.1101
  398SOL    HW1 1193   0.814   2.235   2.800  0.0680  1.6276 -2.8180
  398SOL    HW2 1194   0.736   2.107   2.719 -0.0675 -0.4112 -2.3297
  399SOL     OW 1195   2.227   1.486   2.758 -0.3265  0.2451 -0.1442
  399SOL    HW1 1196   2.205   1.386   2.768  0.7984  0.4961 -0.6724
  399SOL    HW2 1197   2.178   1.523   2.677  0.2990 -1.2405  0.1572
  400SOL     OW 1198   2.034   1.417   1.484  0.0188  0.8284 -0.0510
  400SOL    HW1 1199   2.008   1.323   1.455  0.3601 -2.6526 -1.5336
  400SOL    HW2 1200   2.032   1.486   1.406  1.6230  2.5177  0.2206
  401SOL     OW 1201   1.303   1.360   1.123 -0.6025 -0.2874 -0.4351
  401SOL    HW1 1202   1.303   1.265   1.092  1.5600  1.0822 -0.2488
  401SOL    HW2 1203   1.223   1.387   1.179  1.1107  0.1845  2.5123
  402SOL     OW 1204   0.003   2.606   1.782  0.0366  0.3494 -0.6761
  402SOL    HW1 1205   3.102   2.615   1.684 -2.4477 -3.0262 -3.3093
  402SOL    HW2 1206   0.061   2.687   1.811  1.2666  1.1703 -0.1986
  403SOL     OW 1207   0.256   1.337   2.174 -0.3867  0.1660  0.4317
  403SOL    HW1 1208   0.227   1.392   2.253 -0.0976  1.5005 -0.3050
  403SOL    HW2 1209   0.175   1.323   2.116  0.2770  0.4835 -3.0175
  404SOL     OW 1210   2.236   1.767   1.431 -0.3147 -0.2602  0.3199
  404SOL    HW1 1211   2.244   1.853   1.473 -2.6565 -2.8610 -4.1338
  404SOL    HW2 1212   2.304   1.755   1.358  1.8835  0.9416  2.9987
  405SOL     OW 1213   2.844   0.410   2.724 -0.4427 -0.3098  0.1476
  405SOL    HW1 1214   2.840   0.504   2.678  0.7791  3.3724 -1.4677
  405SOL    HW2 1215   2.878   0.340   2.659 -0.7183  1.9357 -1.5236
  406SOL     OW 1216   1.157   1.395   2.976  0.1046  0.6400  0.4947
  406SOL    HW1 1217   1.204   1.481   2.944  0.2171 -0.4758  1.0816
  406SOL    HW2 1218   1.092   1.416   3.048  1.2357 -1.4009 -2.2587
  407SOL     OW 1219   1.901   2.585   0.024 -0.2805  0.2255  0.5249
  407SOL    HW1 1220   1.854   2.542   0.105  1.4083  0.6959  0.3705
  407SOL    HW2 1221   1.859   2.560   3.061 -0.1240 -0.1553 -0.0586
  408SOL     OW 1222   0.362   0.059   0.058 -0.2781  0.3641  0.5721
  408SOL    HW1 1223   0.283   0.050   3.119  1.0291 -0.5443 -0.3343
  408SOL    HW2 1224   0.450   0.070   0.005  0.0499  2.2258  0.8550
  409SOL     OW 1225   2.383   1.720   1.219 -0.0255  0.1241 -0.4839
  409SOL    HW1 1226   2.414   1.643   1.157 -3.2581  0.0898 -0.0502
  409SOL    HW2 1227   2.379   1.806   1.169  0.2767 -0.0418  0.0095
  410SOL     OW 1228   2.256   2.182   2.885 -0.2818 -0.3672  0.5327
  410SOL    HW1 1229   2.324   2.144   2.952 -0.1858 -1.9387  3.5702
  410SOL    HW2 1230   2.281   2.267   2.838 -2.1857  1.2139  0.4858
  411SOL     OW 1231   0.156   1.122   0.628 -0.1714  0.2038  0.4968
  411SOL    HW1 1232   0.114   1.028   0.644 -1.7044  1.4540  1.4976
  411SOL    HW2 1233   0.092   1.188   0.673  1.1323 -0.0065  1.0204
  412SOL     OW 1234   1.484   2.794   0.241 -0.4626 -0.2133  0.2339
  412SOL    HW1 1235   1.557   2.750   0.302  0.8659 -0.1005  3.2570
  412SOL    HW2 1236   1.468   2.896   0.245  0.4038 -0.0914 -2.9720
  413SOL     OW 1237   1.570   0.414   2.342 -0.2379  0.1813 -0.2233
  413SOL    HW1 1238   1.481   0.415   2.396 -0.3411 -1.0426  0.6359
  413SOL    HW2 1239   1.625   0.329   2.365  1.5901 -0.7791  0.9311
  414SOL     OW 1240   3.016   0.559   0.492  0.1158  0.2944 -0.0088
  414SOL    HW1 1241   3.057   0.591   0.404  1.2385 -0.9080 -2.5469
  414SOL    HW2 1242   2.951   0.487   0.471  1.8120 -0.0684  2.5681
  415SOL     OW 1243   0.902   1.528   1.419 -0.2048 -0.1309  0.0217
  415SOL    HW1 1244   0.905   1.603   1.488  3.1419  0.2377  0.7066
  415SOL    HW2 1245   0.853   1.446   1.459  1.6856  3.2564  0.4173
  416SOL     OW 1246   0.530   0.105   2.927 -0.3025  0.1181  0.0797
  416SOL    HW1 1247   0.509   0.202   2.898  3.2293  1.7380 -1.3702
  416SOL    HW2 1248   0.472   0.030   2.888 -2.7252 -1.1210  1.7095
  417SOL     OW 1249   2.657   2.998   1.044  0.3193  0.0410  0.4056
  417SOL    HW1 1250   2.619   2.911   1.007 -0.9650  3.6533  0.4551
  417SOL    HW2 1251   2.740   2.974   1.100  1.6011 -2.4562 -1.8036
  418SOL     OW 1252   0.688   0.555   2.620  0.9310 -0.3143 -0.2729
  418SOL    HW1 1253   0.729   0.560   2.524  0.8138 -1.7270  0.2185
  418SOL    HW2 1254   0.706   0.644   2.659 -1.1869 -1.9567 -1.5340
  419SOL     OW 1255   0.159   1.395   1.209  0.2962  0.3554  0.0493
  419SOL    HW1 1256   0.125   1.304   1.168  0.3787  0.5932  0.1979
  419SOL    HW2 1257   0.087   1.466   1.200 -2.2687 -3.1412 -1.7741
  420SOL     OW 1258   1.011   1.999   0.792 -0.0755 -0.1281 -0.1043
  420SOL    HW1 1259   0.963   2.088   0.796  0.3268  1.7864  2.0949
  420SOL    HW2 1260   1.007   1.956   0.699  0.0481  0.1201  0.9013
  421SOL     OW 1261   1.964   2.188   2.066 -0.1212  0.5645 -0.2824
  421SOL    HW1 1262   1.903   2.144   1.996 -0.3274  0.3635 -0.6363
  421SOL    HW2 1263   1.971   2.139   2.155 -2.8608  0.1167  1.9794
  422SOL     OW 1264   0.042   0.487   2.650  0.0524 -0.2269 -0.5353
  422SOL    HW1 1265   0.040   0.573   2.700  0.5432 -0.4168 -4.2222
  422SOL    HW2 1266   0.025   0.408   2.709 -1.3849  3.4803  2.4558
  423SOL     OW 1267   1.215   2.114   0.964  0.2169 -0.4563  0.6094
  423SOL    HW1 1268   1.144   2.061   0.917  1.5144 -0.9014 -0.4148
  423SOL    HW2 1269   1.256   2.057   1.037 -0.0402 -2.1439 -1.4666
  424SOL     OW 1270   0.731   1.338   1.514  0.4184 -0.1334  0.1795
  424SOL    HW1 1271   0.702   1.310   1.419 -1.6270 -0.5806 -1.7319
  424SOL    HW2 1272   0.652   1.345   1.575 -0.6560  2.1508 -0.8609
  425SOL     OW 1273   0.019   2.738   2.256 -0.2857  0.4366 -0.1956
  425SOL    HW1 1274   0.093   2.670   2.273  1.8338 -1.3102 -0.3196
  425SOL    HW2 1275   0.033   2.789   2.168  1.4864  0.3664  1.8001
  426SOL     OW 1276   1.774   2.954   0.629 -0.3545  0.2988  0.3504
  426SOL    HW1 1277   1.781   2.889   0.710  0.4376  1.9325 -1.0669
  426SOL    HW2 1278   1.848   3.027   0.627  2.0572  2.5944  0.6336
  427SOL     OW 1279   0.890   0.882   2.935  0.4757  0.3740 -0.0503
  427SOL    HW1 1280   0.916   0.832   3.024 -2.5840  1.4767  0.3621
  427SOL    HW2 1281   0.949   0.960   2.911 -0.7934 -3.0229  0.7384
  428SOL     OW 1282   1.847   1.283   0.355 -0.5969  0.2447  0.1700
  428SOL    HW1 1283   1.785   1.308   0.432  1.4384 -1.3409  2.1541
  428SOL    HW2 1284   1.804   1.287   0.261 -1.8479  0.4540 -0.0224
  429SOL     OW 1285   3.121   2.857   0.531  0.2364 -0.3297 -0.1880
  429SOL    HW1 1286   0.074   2.906   0.573  0.5984 -1.3532  1.6161
  429SOL    HW2 1287   0.004   2.847   0.429  0.6907 -0.3763 -1.9722
  430SOL     OW 1288   0.374   2.749   2.086 -0.4121  0.0883 -0.4587
  430SOL    HW1 1289   0.398   2.835   2.140  0.5496  1.5080 -2.7521
  430SOL    HW2 1290   0.346   2.775   1.994 -3.3264 -1.1262  1.6709
  431SOL     OW 1291   2.454   0.977   1.350  0.1361  0.7440  0.3285
  431SOL    HW1 1292   2.507   1.051   1.299  2.1938  1.9224 -1.9951
  431SOL    HW2 1293   2.522   0.917   1.408 -1.7641 -0.1022  1.5995
  432SOL     OW 1294   1.918   2.440   2.166 -0.1593 -0.3107 -0.0411
  432SOL    HW1 1295   1.852   2.508   2.137  0.8472 -1.2783 -1.1103
  432SOL    HW2 1296   1.928   2.354   2.111 -2.0613 -0.0270  0.6883
  433SOL     OW 1297   1.140   2.143   0.510 -0.1738 -0.5382 -0.4737
  433SOL    HW1 1298   1.203   2.157   0.587  0.9190  3.7057 -0.5782
  433SOL    HW2 1299   1.090   2.227   0.502  2.2833  0.0507 -2.9827
  434SOL     OW 1300   0.375   2.236   2.264 -0.1752  0.1183 -0.3910
  434SOL    HW1 1301   0.305   2.228   2.345  0.9530 -0.7999  1.5358
  434SOL    HW2 1302   0.344   2.309   2.199 -2.8957 -1.8628 -2.8702
  435SOL     OW 1303   0.492   0.884   0.237 -0.4929  0.1386 -0.2543
  435SOL    HW1 1304   0.439   0.825   0.171 -2.9042  0.1724  0.0047
  435SOL    HW2 1305   0.546   0.953   0.184 -1.0522  1.0510 -2.1596
  436SOL     OW 1306   0.236   2.932   1.416 -0.1648 -0.0642 -0.2390
  436SOL    HW1 1307   0.298   2.870   1.461 -0.9125 -0.3036  1.2587
  436SOL    HW2 1308   0.146   2.920   1.462 -1.5504 -1.5937  2.9678
  437SOL     OW 1309   1.530   2.170   1.591 -0.1473 -0.0698 -0.3042
  437SOL    HW1 1310   1.582   2.223   1.659 -3.9170  0.2884  0.1785
  437SOL    HW2 1311   1.494   2.236   1.523 -0.4874  0.7878  0.4708
  438SOL     OW 1312   3.039   1.657   0.561  0.5447  0.3065  0.1749
  438SOL    HW1 1313   3.089   1.634   0.648  1.5193  0.9671  3.0301
  438SOL    HW2 1314   3.091   1.734   0.514  0.0296  0.1708 -2.1983
  439SOL     OW 1315   0.092   0.630   0.655  0.0522 -0.3175  0.8875
  439SOL    HW1 1316   0.119   0.569   0.731  1.0878  1.3178  2.9456
  439SOL    HW2 1317   0.009   0.600   0.606 -0.5428 -0.0653 -1.2985
  440SOL     OW 1318   0.367   2.845   2.412 -0.8407  0.1248  0.3646
  440SOL    HW1 1319   0.303   2.768   2.416  0.7852 -0.7412 -0.1644
  440SOL    HW2 1320   0.450   2.828   2.468 -0.9815 -1.1514  0.8315
  441SOL     OW 1321   2.962   0.334   0.932 -0.2261 -0.1185 -0.7889
  441SOL    HW1 1322   2.883   0.270   0.950 -0.5619 -1.1264 -0.3301
  441SOL    HW2 1323   3.051   0.280   0.937  2.8781 -1.7491 -3.1577
  442SOL     OW 1324   1.694   2.303   2.641  0.6772 -0.5203  0.0735
  442SOL    HW1 1325   1.759   2.272   2.708 -0.5132  0.8216 -3.4035
  442SOL    HW2 1326   1.708   2.256   2.551 -1.3769 -2.2806 -0.2665
  443SOL     OW 1327   0.735   1.354   3.025  0.4689 -0.4077 -0.0578
  443SOL    HW1 1328   0.747   1.371   2.927 -1.4888 -3.9073  3.1513
  443SOL    HW2 1329   0.807   1.294   3.065  0.5617  0.7351 -0.2863
  444SOL     OW 1330   1.563   1.499   2.269 -0.2281  0.3465 -0.3973
  444SOL    HW1 1331   1.482   1.450   2.231  0.2812  0.0447  1.6551
  444SOL    HW2 1332   1.557   1.509   2.372 -3.6107 -0.5024 -0.0994
  445SOL     OW 1333   0.227   2.953   0.903  0.2719  0.5248  0.0208
  445SOL    HW1 1334   0.256   3.010   0.983  1.2464 -0.4342  0.1351
  445SOL    HW2 1335   0.133   2.976   0.879  3.7939 -2.5290  2.1239
  446SOL     OW 1336   2.152   0.570   1.364  0.7266 -0.1194  0.2410
  446SOL    HW1 1337   2.102   0.660   1.383 -2.1509  2.0982  0.6404
  446SOL    HW2 1338   2.109   0.512   1.290  0.3545 -3.1168 -0.4787
  447SOL     OW 1339   0.200   0.935   2.893  0.0168  0.0114 -0.0131
  447SOL    HW1 1340   0.179   0.847   2.850 -1.7027  1.9432  2.1650
  447SOL    HW2 1341   0.157   0.946   2.980  0.4855 -0.3800 -0.0132
  448SOL     OW 1342   1.341   1.950   1.626  0.0771 -0.2398 -0.0975
  448SOL    HW1 1343   1.401   2.013   1.575 -0.5736  1.3366  3.0862
  448SOL    HW2 1344   1.398   1.920   1.706  2.8997  1.4154 -1.4339
  449SOL     OW 1345   1.102   1.319   0.837 -0.4307  0.0710  0.6309
  449SOL    HW1 1346   1.199   1.310   0.811 -2.6534 -0.4533  0.4193
  449SOL    HW2 1347   1.083   1.421   0.836  1.0516  1.0787  1.6222
  450SOL     OW 1348   2.969   1.945   1.825 -0.4384  0.0339 -0.1161
  450SOL    HW1 1349   2.998   1.998   1.743 -2.4585  1.7050 -0.2765
  450SOL    HW2 1350   2.892   1.888   1.804  0.0829  1.9772  1.1871
  451SOL     OW 1351   2.476   1.583   2.888 -0.5385 -0.2341  0.5278
  451SOL    HW1 1352   2.400   1.579   2.823  0.1536 -0.1577  3.2493
  451SOL    HW2 1353   2.437   1.652   2.960 -2.6965  1.2022  4.6513
  452SOL     OW 1354   1.558   0.758   1.355  0.0928  0.4072 -0.1667
  452SOL    HW1 1355   1.468   0.724   1.390  1.8109  1.2125 -1.5305
  452SOL    HW2 1356   1.569   0.858   1.369 -1.7936  1.7128 -1.3622
  453SOL     OW 1357   1.981   1.104   1.474  0.0991 -0.1371 -0.3062
  453SOL    HW1 1358   1.918   1.144   1.548  0.3605  0.5457  3.0021
  453SOL    HW2 1359   1.977   1.154   1.383 -1.4445 -0.1276 -0.8469
  454SOL     OW 1360   2.850   0.796   0.078  0.3984  0.8626  0.3251
  454SOL    HW1 1361   2.928   0.841   0.113 -1.6996 -1.4109 -1.3315
  454SOL    HW2 1362   2.776   0.788   0.144  0.7863  0.3035 -1.2763
  455SOL     OW 1363   2.800   1.510   1.267 -0.6934  0.1092  1.0340
  455SOL    HW1 1364   2.767   1.572   1.187 -0.2076  1.1668  1.6342
  455SOL    HW2 1365   2.811   1.568   1.349 -0.5819  2.5882  0.5790
  456SOL     OW 1366   0.708   0.246   1.430  0.3459 -0.3591  0.5733
  456SOL    HW1 1367   0.626   0.299   1.465 -1.8801  1.9563  0.7225
  456SOL    HW2 1368   0.763   0.208   1.503  1.3400 -2.0016 -0.2458
  457SOL     OW 1369   1.745   2.971   1.033  0.4512  0.5777  0.0953
  457SOL    HW1 1370   1.643   2.965   1.039  0.9614 -2.0143  1.0595
  457SOL    HW2 1371   1.788   3.060   1.011 -0.8847  1.6244  0.3400
  458SOL     OW 1372   2.670   0.425   0.319  0.3362 -1.0510  0.3849
  458SOL    HW1 1373   2.764   0.390   0.296 -2.3288  1.4423 -0.5593
  458SOL    HW2 1374   2.639   0.373   0.405 -0.6809 -3.0450  1.6127
  459SOL     OW 1375   1.734   0.727   0.064 -0.0578  0.4090 -0.1098
  459SOL    HW1 1376   1.806   0.794   0.088 -1.3368  0.3834 -0.6221
  459SOL    HW2 1377   1.733   0.643   0.122  1.4731 -0.8819  0.6166
  460SOL     OW 1378   0.004   2.669   2.745  0.2623 -0.0262 -0.0479
  460SOL    HW1 1379   3.026   2.669   2.758 -3.1509 -1.9229  0.0891
  460SOL    HW2 1380   0.041   2.762   2.770  0.4132  0.8491  0.4409
  461SOL     OW 1381   0.743   1.874   0.102 -0.0697  0.7649 -0.0414
  461SOL    HW1 1382   0.664   1.828   0.153  0.6956 -2.4864  1.3388
  461SOL    HW2 1383   0.741   1.853   0.003 -0.5710 -1.4897  0.8189
  462SOL     OW 1384   2.006   2.494   0.574  0.5685 -0.4051 -0.2433
  462SOL    HW1 1385   1.946   2.416   0.591  2.1712  4.4714  0.1657
  462SOL    HW2 1386   2.033   2.533   0.664 -0.7826 -0.8117  1.5379
  463SOL     OW 1387   0.060   0.680   0.282  0.3804  0.3688 -0.2242
  463SOL    HW1 1388   0.126   0.694   0.356 -0.8357  0.4246  0.1830
  463SOL    HW2 1389   0.037   0.767   0.237 -0.4170 -1.6728 -0.4890
  464SOL     OW 1390   0.717   2.586   0.450  0.1948 -0.3078 -0.4057
  464SOL    HW1 1391   0.639   2.546   0.508  0.0897  1.1703  1.7819
  464SOL    HW2 1392   0.728   2.524   0.374 -2.2743  3.8295  2.2671
  465SOL     OW 1393   2.258   0.899   0.520 -0.2457 -0.2980 -0.3966
  465SOL    HW1 1394   2.164   0.875   0.510  1.4020  0.1764  2.0476
  465SOL    HW2 1395   2.313   0.907   0.437  1.6192 -2.1636 -1.4487
  466SOL     OW 1396   2.094   0.180   0.028 -0.0429  0.4786  0.5549
  466SOL    HW1 1397   2.157   0.193   0.113  1.2099  0.2996 -0.1590
  466SOL    HW2 1398   2.059   0.085   0.029  0.2389  2.5082  1.7485
  467SOL     OW 1399   1.194   0.491   1.818  0.3650 -0.4488  0.6175
  467SOL    HW1 1400   1.116   0.546   1.795  1.9606 -2.0234  1.4720
  467SOL    HW2 1401   1.276   0.537   1.855  0.3276 -1.3944  0.2424
  468SOL     OW 1402   2.773   0.642   2.342 -0.6059 -0.3522  0.3340
  468SOL    HW1 1403   2.791   0.729   2.285  0.2142 -0.7875 -0.8535
  468SOL    HW2 1404   2.674   0.629   2.360  0.2192  0.2893 -0.5924
  469SOL     OW 1405   0.906   2.604   2.266  0.6062  0.4361  0.3277
  469SOL    HW1 1406   0.848   2.521   2.259  0.5891  2.1383  0.2203
  469SOL    HW2 1407   0.884   2.670   2.191 -1.4389  0.1780  1.6668
  470SOL     OW 1408   1.866   1.352   1.933 -0.0659  0.7787  0.3354
  470SOL    HW1 1409   1.939   1.410   1.888 -0.1732  0.9737  0.4893
  470SOL    HW2 1410   1.843   1.385   2.026  0.1916 -0.7940 -1.9253
  471SOL     OW 1411   2.754   1.039   3.099  0.1209 -0.1501 -0.2635
  471SOL    HW1 1412   2.705   1.057   3.012  3.2831  0.7568  0.1629
  471SOL    HW2 1413   2.780   0.938   3.107  0.9550  0.5270 -0.1111
  472SOL     OW 1414   0.359   2.707   0.458 -0.1413  0.3699  0.4178
  472SOL    HW1 1415   0.415   2.639   0.507  2.1147 -1.4072 -0.1478
  472SOL    HW2 1416   0.283   2.662   0.407 -1.1432  1.5501  1.6118
  473SOL     OW 1417   0.951   2.819   2.457 -0.3479 -0.2801 -0.4982
  473SOL    HW1 1418   0.908   2.748   2.401  0.9201  0.3881 -0.7403
  473SOL    HW2 1419   0.894   2.900   2.474  2.0372 -0.3638 -0.1370
  474SOL     OW 1420   1.533   0.124   1.953 -0.3584  0.4730  0.2850
  474SOL    HW1 1421   1.633   0.107   1.952 -2.1025  1.1700  1.2292
  474SOL    HW2 1422   1.510   0.210   1.994 -1.1931 -3.8777 -2.3070
  475SOL     OW 1423   0.864   2.534   0.009 -0.3184 -0.1489 -0.0764
  475SOL    HW1 1424   0.936   2.582   0.064  0.0471  0.8870 -0.3581
  475SOL    HW2 1425   0.792   2.499   0.069  0.7310 -1.7584  1.3351
  476SOL     OW 1426   0.505   0.624   0.940 -0.2911 -0.1101 -0.1268
  476SOL    HW1 1427   0.542   0.643   0.849  0.7352  0.2132  1.5390
  476SOL    HW2 1428   0.454   0.536   0.932  0.9742 -1.1066 -0.5403
  477SOL     OW 1429   1.767   2.025   1.367  0.4763 -0.1943 -0.0004
  477SOL    HW1 1430   1.668   2.037   1.348 -2.8985 -1.2952  1.6786
  477SOL    HW2 1431   1.781   1.922   1.365 -1.7677 -1.1405  0.3646
  478SOL     OW 1432   0.493   1.164   2.428  0.2959  0.5157 -0.5534
  478SOL    HW1 1433   0.560   1.126   2.362 -0.3943  1.4480  0.7300
  478SOL    HW2 1434   0.395   1.156   2.402  0.1617  1.3348 -2.6806
  479SOL     OW 1435   0.577   2.945   0.792 -0.2055  0.0877 -0.3522
  479SOL    HW1 1436   0.665   2.966   0.838  1.2820  0.9183 -0.0329
  479SOL    HW2 1437   0.511   2.977   0.862  0.4503 -2.0981 -1.4814
  480SOL     OW 1438   2.597   2.565   3.121 -0.0389 -0.7478  0.3439
  480SOL    HW1 1439   2.590   2.541   3.024 -0.0455 -0.3053  0.6706
  480SOL    HW2 1440   2.581   2.489   0.056 -0.8459  3.2582 -3.3257
  481SOL     OW 1441   2.499   0.524   1.055  0.4181 -0.2695 -0.4967
  481SOL    HW1 1442   2.458   0.594   1.113  1.8436 -2.9678 -2.5080
  481SOL    HW2 1443   2.468   0.536   0.956  1.2961  1.7847 -4.8218
  482SOL     OW 1444   1.432   2.548   1.608 -0.1022  0.1015 -0.6481
  482SOL    HW1 1445   1.482   2.484   1.548  0.6587 -0.0301  0.6851
  482SOL    HW2 1446   1.464   2.557   1.703  0.1280 -0.7901  0.8556
  483SOL     OW 1447   0.391   1.576   2.992 -0.0816  0.1692 -0.3332
  483SOL    HW1 1448   0.296   1.610   3.008  2.5446 -0.1362 -1.2249
  483SOL    HW2 1449   0.384   1.475   3.011  0.1813  2.5037  0.3632
  484SOL     OW 1450   1.472   1.825   2.497 -0.0468  0.1851  0.6605
  484SOL    HW1 1451   1.399   1.753   2.488  3.4599  0.3839  0.7770
  484SOL    HW2 1452   1.492   1.875   2.409  0.1738  0.3520 -1.7840
  485SOL     OW 1453   0.273   0.228   2.217  0.3999 -0.5595 -0.4208
  485SOL    HW1 1454   0.193   0.273   2.171 -0.3025  1.9516  0.4149
  485SOL    HW2 1455   0.334   0.175   2.157  2.6970 -2.6245 -0.4265
  486SOL     OW 1456   1.341   0.105   0.507  0.0832  0.3671 -0.0873
  486SOL    HW1 1457   1.304   0.166   0.583 -3.4793  3.9839  2.1387
  486SOL    HW2 1458   1.409   0.036   0.534 -2.4298  2.6719 -0.9987
  487SOL     OW 1459   1.247   2.914   0.862 -0.9042  0.1280 -0.2915
  487SOL    HW1 1460   1.257   2.902   0.764  0.8020  1.3043  2.2070
  487SOL    HW2 1461   1.182   2.993   0.882  0.4687  1.0984  1.3196
  488SOL     OW 1462   2.110   0.607   0.816  0.8716  0.0199 -0.7973
  488SOL    HW1 1463   2.143   0.696   0.798  0.4050  2.4287 -0.5013
  488SOL    HW2 1464   2.075   0.563   0.732  2.4512  1.8087  3.1196
  489SOL     OW 1465   1.163   2.728   1.250  0.3756  0.3310 -0.3296
  489SOL    HW1 1466   1.245   2.731   1.305 -3.7841  2.0048 -1.1414
  489SOL    HW2 1467   1.086   2.674   1.292 -1.7359  0.5199 -0.2873
  490SOL     OW 1468   0.817   0.957   0.493 -0.2559 -0.5135 -0.5683
  490SOL    HW1 1469   0.770   1.049   0.503  1.7601  0.6521  1.9760
  490SOL    HW2 1470   0.864   0.923   0.582 -1.1190  1.1649  0.0176
  491SOL     OW 1471   1.017   2.835   3.044  0.6609 -0.0769  0.0824
  491SOL    HW1 1472   0.966   2.824   0.007  1.1643  0.2399  0.2666
  491SOL    HW2 1473   1.079   2.914   3.044  1.7745 -0.7353 -2.2127
  492SOL     OW 1474   1.209   1.186   2.275 -0.4878  1.2568 -0.3942
  492SOL    HW1 1475   1.246   1.276   2.246 -0.8839 -3.3664 -1.9342
  492SOL    HW2 1476   1.134   1.154   2.212  1.1981 -1.1879 -0.1792
  493SOL     OW 1477   2.964   1.906   0.142  0.6518  0.0989 -0.2842
  493SOL    HW1 1478   2.978   1.880   0.044 -2.2654  1.4024 -0.5558
  493SOL    HW2 1479   2.876   1.866   0.175  1.8997  1.4153 -2.6393
  494SOL     OW 1480   2.161   1.414   0.567  0.5407  0.0428  0.2589
  494SOL    HW1 1481   2.080   1.453   0.611  0.3031 -1.6464 -1.3914
  494SOL    HW2 1482   2.142   1.325   0.524 -0.5562 -0.5118  0.6400
  495SOL     OW 1483   0.220   1.135   2.361  0.0023  0.2956  0.0223
  495SOL    HW1 1484   0.123   1.111   2.376 -1.6711  0.8252 -0.1840
  495SOL    HW2 1485   0.243   1.189   2.275 -1.9683  0.3897 -0.3837
  496SOL     OW 1486   2.827   3.118   2.187  0.0993 -0.3874 -0.3404
  496SOL    HW1 1487   2.785   3.039   2.140  0.5947  1.0340  0.4095
  496SOL    HW2 1488   2.882   3.091   2.272  0.5876  0.9152  1.0807
  497SOL     OW 1489   2.435   1.090   0.605 -0.4076  0.4420 -0.6671
  497SOL    HW1 1490   2.513   1.084   0.670  0.0396  2.4061  0.1707
  497SOL    HW2 1491   2.387   0.997   0.590 -1.5687 -0.2194  3.3000
  498SOL     OW 1492   3.068   2.395   3.001 -0.5375  0.2872  0.0594
  498SOL    HW1 1493   2.998   2.471   2.992 -1.7599  3.0642 -0.5242
  498SOL    HW2 1494   0.016   2.413   2.930 -0.0784  0.9861  0.9393
  499SOL     OW 1495   1.537   2.618   0.618  0.0108 -0.8924 -0.3556
  499SOL    HW1 1496   1.571   2.612   0.523 -2.5593  1.1769  0.9974
  499SOL    HW2 1497   1.595   2.570   0.683 -0.3466 -0.8189 -0.8521
  500SOL     OW 1498   1.251   0.670   2.661  0.3828  0.1535 -0.1477
  500SOL    HW1 1499   1.213   0.579   2.685 -2.5889  1.0710 -1.0848
  500SOL    HW2 1500   1.304   0.658   2.573  1.1903 -0.4719 -0.8641
  501SOL     OW 1501   0.806   0.090   1.242  0.0384 -0.5636  0.6066
  501SOL    HW1 1502   0.893   0.072   1.288  1.3077  0.5299  2.0800
  501SOL    HW2 1503   0.754   0.166   1.288 -0.2654 -2.6835 -1.4858
  502SOL     OW 1504   0.006   0.092   2.071 -0.0844  0.1575 -0.4481
  502SOL    HW1 1505   0.044   0.019   2.132  1.2017 -0.5138  1.5838
  502SOL    HW2 1506   0.034   0.187   2.096  1.2749  0.6396 -0.9511
  503SOL     OW 1507   1.466   2.367   2.344 -0.4792  0.2398 -0.6109
  503SOL    HW1 1508   1.512   2.427   2.277 -1.4041 -1.5271  1.8736
  503SOL    HW2 1509   1.529   2.291   2.377 -0.4496 -1.0342 -1.9679
  504SOL     OW 1510   2.030   2.968   1.775  0.5432 -0.1374 -0.3596
  504SOL    HW1 1511   2.116   3.009   1.745 -3.1984 -2.0901  1.9734
  504SOL    HW2 1512   1.975   2.935   1.700  0.3868 -0.6244  1.6591
  505SOL     OW 1513   2.381   1.157   1.612 -0.6561 -0.1598  0.0164
  505SOL    HW1 1514   2.470   1.108   1.609  1.4192  1.9656 -0.3176
  505SOL    HW2 1515   2.311   1.100   1.565  0.1028  0.6640  1.2632
  506SOL     OW 1516   0.527   1.474   2.103 -0.3829  0.6075  0.0315
  506SOL    HW1 1517   0.439   1.428   2.122  3.0558 -0.3189  0.7957
  506SOL    HW2 1518   0.604   1.433   2.163  2.2184 -0.6714  0.0932
  507SOL     OW 1519   0.203   0.077   1.406  0.0113 -0.1755 -0.4080
  507SOL    HW1 1520   0.291   0.089   1.453 -0.6950  3.6664  0.3517
  507SOL    HW2 1521   0.189   3.104   1.380  3.4882 -2.3710 -0.9942
  508SOL     OW 1522   1.303   0.648   1.420 -0.4135  0.3600  0.2595
  508SOL    HW1 1523   1.270   0.720   1.358  1.1333  0.2360 -1.9421
  508SOL    HW2 1524   1.271   0.558   1.389  2.2621 -1.9026 -0.5251
  509SOL     OW 1525   1.272   2.184   1.324 -0.1590  0.2465  0.3014
  509SOL    HW1 1526   1.294   2.212   1.230  0.3331  0.7122 -0.2905
  509SOL    HW2 1527   1.253   2.266   1.384 -0.3462  1.3506  1.3652
  510SOL     OW 1528   2.753   1.516   0.020  0.3298 -0.9631  0.0891
  510SOL    HW1 1529   2.683   1.453   3.101 -1.3901 -0.3937  0.7568
  510SOL    HW2 1530   2.830   1.460   0.063  1.4763  0.2878 -0.2864
  511SOL     OW 1531   0.690   1.255   1.240  0.2922 -0.2538 -0.4657
  511SOL    HW1 1532   0.770   1.196   1.221  0.5474  2.4064  1.0265
  511SOL    HW2 1533   0.640   1.290   1.162  1.2263 -1.1160 -0.0976
  512SOL     OW 1534   2.902   2.360   0.505  0.1780 -0.1002 -0.9778
  512SOL    HW1 1535   2.969   2.292   0.532 -1.8676  0.9080  1.4617
  512SOL    HW2 1536   2.810   2.321   0.503  1.6939  1.1374  1.9623
  513SOL     OW 1537   0.965   1.557   2.812  0.3567 -0.1837  0.4544
  513SOL    HW1 1538   0.976   1.641   2.867 -1.7952 -2.5423  1.3892
  513SOL    HW2 1539   1.050   1.501   2.811  3.0056  0.0363  0.0942
  514SOL     OW 1540   0.114   2.427   2.785 -0.5770 -0.2563  0.1955
  514SOL    HW1 1541   0.212   2.435   2.779 -2.5181  1.2332 -1.2837
  514SOL    HW2 1542   0.075   2.517   2.753  0.3572  0.6319 -1.1388
  515SOL     OW 1543   1.438   1.104   1.876 -0.0791 -0.2377 -0.7280
  515SOL    HW1 1544   1.521   1.068   1.829  1.6822  0.6979 -0.0302
  515SOL    HW2 1545   1.352   1.046   1.868  0.7328 -0.6185  0.6801
  516SOL     OW 1546   2.014   2.279   0.383  0.4524 -0.3669 -0.0717
  516SOL    HW1 1547   2.105   2.239   0.402 -1.2401  0.3898  0.7909
  516SOL    HW2 1548   1.959   2.285   0.471  0.5514  2.4854  3.5874
  517SOL     OW 1549   1.222   1.751   0.622  0.5236 -0.2104 -0.1007
  517SOL    HW1 1550   1.297   1.703   0.573 -1.4194 -2.2848  0.8960
  517SOL    HW2 1551   1.262   1.836   0.657  0.4905  1.6508 -0.8739
  518SOL     OW 1552   2.202   2.483   2.175 -0.3572 -0.4160 -0.1880
  518SOL    HW1 1553   2.220   2.454   2.272 -0.9602 -1.0945  0.1162
  518SOL    HW2 1554   2.100   2.482   2.160 -1.5188 -0.5463 -0.1820
  519SOL     OW 1555   1.677   2.460   0.799 -0.4773  0.0843 -0.1304
  519SOL    HW1 1556   1.750   2.506   0.853 -1.8929  0.3463  0.5326
  519SOL    HW2 1557   1.702   2.360   0.794  3.2482  0.2516  3.7157
  520SOL     OW 1558   2.746   2.576   2.632  0.1347  0.3304  0.3692
  520SOL    HW1 1559   2.719   2.590   2.537  1.3766  1.1982  1.1552
  520SOL    HW2 1560   2.820   2.509   2.643  1.8517 -1.8754  1.1706
  521SOL     OW 1561   3.090   1.037   2.341  0.6295 -0.2177 -0.5042
  521SOL    HW1 1562   3.027   1.112   2.315 -1.8575  1.8135 -0.4973
  521SOL    HW2 1563   3.090   0.973   2.268 -2.6751  3.3939  2.5463
  522SOL     OW 1564   0.595   0.425   2.141 -0.2157  0.0905  0.2860
  522SOL    HW1 1565   0.554   0.434   2.048 -1.3110  3.0476  0.1740
  522SOL    HW2 1566   0.581   0.512   2.191 -0.4823  0.5168 -1.5994
  523SOL     OW 1567   0.649   2.026   0.913  0.2884  0.2436 -0.0019
  523SOL    HW1 1568   0.698   1.995   0.999  2.0350  0.2685 -3.3590
  523SOL    HW2 1569   0.626   2.124   0.916  0.7922 -0.4073 -0.1380
  524SOL     OW 1570   1.677   2.667   0.376 -0.3507  0.2698 -0.2256
  524SOL    HW1 1571   1.759   2.709   0.425 -1.0496 -1.9390  0.6198
  524SOL    HW2 1572   1.708   2.594   0.307  3.2718 -0.0735 -0.5860
  525SOL     OW 1573   2.235   0.968   1.509  0.0843 -0.1229  0.0574
  525SOL    HW1 1574   2.150   1.027   1.497  1.3482 -0.4751 -0.1909
  525SOL    HW2 1575   2.287   0.960   1.423 -0.5261  0.7625 -1.4784
  526SOL     OW 1576   0.941   2.657   0.604  0.2507  0.1665  0.4874
  526SOL    HW1 1577   1.007   2.706   0.543 -0.4881  2.2345  1.1318
  526SOL    HW2 1578   0.863   2.621   0.548  2.0889  1.5577  0.6093
  527SOL     OW 1579   2.495   2.610   0.675  0.7018 -0.2883 -0.1886
  527SOL    HW1 1580   2.584   2.644   0.714 -2.0406 -1.2072 -1.0113
  527SOL    HW2 1581   2.501   2.569   0.580  0.5935 -1.6206 -0.7768
  528SOL     OW 1582   1.764   0.475   0.189  0.0607  0.3929  0.3526
  528SOL    HW1 1583   1.754   0.500   0.286  0.3492  2.5129  1.6592
  528SOL    HW2 1584   1.776   0.376   0.189 -0.8713  4.8925  0.6892
  529SOL     OW 1585   1.898   1.686   2.666  0.5109  0.4496 -0.1150
  529SOL    HW1 1586   1.966   1.744   2.712 -0.0468 -2.4689 -2.4576
  529SOL    HW2 1587   1.940   1.630   2.598  2.0721  1.2854  0.8483
  530SOL     OW 1588   2.150   0.465   0.359 -0.4914 -0.0773 -0.6025
  530SOL    HW1 1589   2.116   0.526   0.287  0.4445  2.2647 -0.8471
  530SOL    HW2 1590   2.197   0.384   0.311 -0.4644  2.1826  1.5710
  531SOL     OW 1591   1.624   0.952   2.832 -0.2724  0.2321  0.0467
  531SOL    HW1 1592   1.680   1.021   2.881 -1.5344 -4.1608  2.0123
  531SOL    HW2 1593   1.559   0.908   2.895 -1.5301 -0.2980 -0.0278
  532SOL     OW 1594   1.728   0.585   0.430  0.2678  0.0515 -0.2326
  532SOL    HW1 1595   1.639   0.600   0.388  2.5704 -1.7011  0.6441
  532SOL    HW2 1596   1.733   0.655   0.506 -0.2366  1.1404  0.5086
  533SOL     OW 1597   0.715   1.041   2.257 -0.4139 -0.4440 -0.0604
  533SOL    HW1 1598   0.654   1.012   2.180 -1.0383  1.4560  1.8830
  533SOL    HW2 1599   0.733   0.969   2.325 -2.4232  0.0301 -1.0059
  534SOL     OW 1600   1.448   0.102   2.426 -0.0197 -0.3010 -0.1246
  534SOL    HW1 1601   1.411   0.191   2.464 -1.3773  1.6710 -1.9453
  534SOL    HW2 1602   1.549   0.116   2.414 -1.2365 -1.4615 -2.3380
  535SOL     OW 1603   0.198   3.080   2.995  0.0929  0.4262 -0.1416
  535SOL    HW1 1604   0.095   3.078   2.989  0.8786  0.0519 -1.3592
  535SOL    HW2 1605   0.242   3.073   2.902 -0.5750 -0.3438  0.3420
  536SOL     OW 1606   0.473   0.115   0.878 -0.1300 -0.1895 -0.3097
  536SOL    HW1 1607   0.463   0.159   0.788 -0.7980  1.2829  6.7052
  536SOL    HW2 1608   0.569   0.130   0.909  0.2750 -1.0043  0.1319
  537SOL     OW 1609   1.315   0.681   0.726 -0.0722  0.1723  0.0529
  537SOL    HW1 1610   1.341   0.736   0.807 -0.3753 -2.2131  0.8731
  537SOL    HW2 1611   1.382   0.605   0.712  1.7239  0.1398 -1.0055
  538SOL     OW 1612   2.867   2.187   2.952 -0.7307 -0.5462 -0.5293
  538SOL    HW1 1613   2.928   2.272   2.961  3.0177  2.6271  0.4237
  538SOL    HW2 1614   2.792   2.202   2.888  3.7428  0.5246  1.1196
  539SOL     OW 1615   2.061   1.581   0.256  0.0728  0.0900  0.0920
  539SOL    HW1 1616   2.007   1.648   0.316  0.0522  0.0946  0.4944
  539SOL    HW2 1617   2.092   1.505   0.315  0.3978 -0.5555 -0.7383
  540SOL     OW 1618   0.438   2.710   1.472  0.6814  0.0731  0.3679
  540SOL    HW1 1619   0.364   2.648   1.494  2.1816  3.7398 -1.0763
  540SOL    HW2 1620   0.485   2.681   1.381  0.3855  1.8008  0.3296
  541SOL     OW 1621   1.856   0.011   2.200  0.0077 -0.6288 -0.0298
  541SOL    HW1 1622   1.830   3.043   2.228  1.8338  1.4534 -0.2053
  541SOL    HW2 1623   1.905   0.013   2.106  1.4623 -1.6348 -1.6389
  542SOL     OW 1624   0.301   0.946   2.629  0.1389 -0.4031 -0.1312
  542SOL    HW1 1625   0.273   0.958   2.730  0.0362 -2.2829  1.1973
  542SOL    HW2 1626   0.286   1.036   2.587  1.0664 -2.6783  2.9962
  543SOL     OW 1627   0.255   0.923   1.376  0.4845 -0.4914  0.3026
  543SOL    HW1 1628   0.311   0.976   1.310 -0.1359  0.6392  2.0127
  543SOL    HW2 1629   0.191   0.987   1.426 -0.8883 -0.2710  2.7404
  544SOL     OW 1630   2.486   0.263   1.080 -0.1709  0.1719 -0.7104
  544SOL    HW1 1631   2.482   0.363   1.092 -1.9193 -3.0273 -0.0341
  544SOL    HW2 1632   2.529   0.233   0.994  1.2735 -2.8572 -0.3501
  545SOL     OW 1633   1.590   2.201   0.578  0.7704 -0.1675 -0.1700
  545SOL    HW1 1634   1.528   2.280   0.598 -0.7434  3.6756  0.1037
  545SOL    HW2 1635   1.638   2.178   0.667  2.3654  0.1927  4.1343
  546SOL     OW 1636   2.263   2.788   1.821  0.4909 -0.0282  0.3528
  546SOL    HW1 1637   2.295   2.804   1.726 -1.2716 -0.0226 -0.9706
  546SOL    HW2 1638   2.159   2.806   1.830 -2.7103  1.2057 -2.4774
  547SOL     OW 1639   0.455   2.968   2.187  0.2379 -0.3414  0.2356
  547SOL    HW1 1640   0.552   2.992   2.192 -1.4943 -2.1951  0.9910
  547SOL    HW2 1641   0.430   2.925   2.277 -0.0398  1.1160  1.0490
  548SOL     OW 1642   1.828   1.188   0.091 -0.2340 -0.9748  0.1624
  548SOL    HW1 1643   1.807   1.153   3.126  1.5850 -0.0481  1.4481
  548SOL    HW2 1644   1.863   1.110   0.146 -0.0032  1.7616  0.5369
  549SOL     OW 1645   2.998   1.130   0.381 -0.5736 -0.1531 -0.4157
  549SOL    HW1 1646   2.992   1.066   0.462  2.4430  0.8445  2.1077
  549SOL    HW2 1647   3.046   1.217   0.406  1.4503  0.3167 -0.3095
  550SOL     OW 1648   1.877   1.964   0.831  0.6228 -0.4157 -0.1971
  550SOL    HW1 1649   1.869   1.924   0.738  2.3212 -3.3559  0.2323
  550SOL    HW2 1650   1.943   1.905   0.884 -0.4745 -1.0956 -1.0546
  551SOL     OW 1651   1.274   0.293   0.680 -0.4924 -0.3479  0.0843
  551SOL    HW1 1652   1.282   0.291   0.783  2.2973 -0.1285  1.3373
  551SOL    HW2 1653   1.183   0.323   0.648  0.0055 -1.6165 -0.5767
  552SOL     OW 1654   3.008   2.951   2.364  0.0234  0.7630  0.4498
  552SOL    HW1 1655   3.069   3.016   2.416  2.1442  0.8259  0.9441
  552SOL    HW2 1656   3.059   2.867   2.345 -1.4316  1.0165 -0.3103
  553SOL     OW 1657   0.057   0.032   2.415  0.1048  0.5477 -0.0727
  553SOL    HW1 1658   0.105   0.120   2.441  0.8810  2.3176 -2.1532
  553SOL    HW2 1659   0.123   3.093   2.363 -1.5499 -1.1973 -1.6171
  554SOL     OW 1660   0.610   2.965   1.477 -0.5579  0.2909 -0.1069
  554SOL    HW1 1661   0.556   2.879   1.488  1.2968  0.0445  0.4153
  554SOL    HW2 1662   0.708   2.950   1.504  0.7041  1.2242  0.8520
  555SOL     OW 1663   2.696   2.630   2.359 -0.1242  0.5177 -0.3090
  555SOL    HW1 1664   2.632   2.704   2.392  2.3257 -0.7255  0.4896
  555SOL    HW2 1665   2.658   2.599   2.269  0.1232  4.0131  3.0102
  556SOL     OW 1666   1.184   0.387   2.717 -0.7089  0.2559 -0.1346
  556SOL    HW1 1667   1.165   0.344   2.810 -0.4002 -1.3308  1.6984
  556SOL    HW2 1668   1.136   0.338   2.640  0.3382 -0.7494 -1.1871
  557SOL     OW 1669   0.517   1.632   2.351 -0.1880 -0.2181  0.3089
  557SOL    HW1 1670   0.433   1.685   2.372  1.0521 -2.4738  0.2185
  557SOL    HW2 1671   0.524   1.601   2.252  0.7626  1.2599  2.4309
  558SOL     OW 1672   2.334   0.937   2.574 -0.0489 -0.5795  0.0764
  558SOL    HW1 1673   2.300   1.030   2.579  1.6491 -2.1544  1.7413
  558SOL    HW2 1674   2.376   0.918   2.482  0.5848 -2.2351 -1.4979
  559SOL     OW 1675   2.465   2.071   2.219 -0.0537 -0.4981  0.1295
  559SOL    HW1 1676   2.396   2.119   2.161  1.7027  2.9171 -1.4079
  559SOL    HW2 1677   2.429   2.058   2.315  2.9017  1.1353 -0.0501
  560SOL     OW 1678   2.452   0.896   2.321 -0.1473  0.3995  0.2972
  560SOL    HW1 1679   2.400   0.936   2.241  1.0646  1.0250 -0.1138
  560SOL    HW2 1680   2.453   0.799   2.300  2.5882 -2.0069  2.0053
  561SOL     OW 1681   0.058   0.266   2.818  0.2663  0.2921  0.0660
  561SOL    HW1 1682   0.108   0.195   2.761  0.7689  0.9816 -2.5787
  561SOL    HW2 1683   0.042   0.234   2.912  0.8477 -0.9010 -0.2667
  562SOL     OW 1684   1.033   1.061   1.576 -0.0345 -0.3251  0.0473
  562SOL    HW1 1685   1.053   0.974   1.527 -1.2524  1.9362  2.1971
  562SOL    HW2 1686   0.938   1.058   1.616 -1.7777  1.5034 -2.0380
  563SOL     OW 1687   1.519   0.012   2.954 -0.2469 -0.4648 -0.1842
  563SOL    HW1 1688   1.531   3.062   2.884  1.2981 -0.6506  0.5795
  563SOL    HW2 1689   1.472   3.107   3.037  0.1277  1.8101  0.8079
  564SOL     OW 1690   3.108   2.239   1.234  0.6482  0.0014  0.1268
  564SOL    HW1 1691   0.047   2.167   1.266 -0.0925 -3.8669  1.6959
  564SOL    HW2 1692   3.010   2.216   1.261  0.0746 -0.8144 -2.5162
  565SOL     OW 1693   0.663   2.233   1.998  0.0456 -0.3841  0.9150
  565SOL    HW1 1694   0.732   2.166   1.993 -0.8820  2.3713 -4.1702
  565SOL    HW2 1695   0.606   2.226   1.916 -0.4739  2.3067  2.7513
  566SOL     OW 1696   1.435   2.599   2.053  0.0524  0.3190 -0.3967
  566SOL    HW1 1697   1.369   2.560   2.123 -1.6812 -0.7015  2.0089
  566SOL    HW2 1698   1.435   2.701   2.062 -0.9343 -2.6894  0.2901
  567SOL     OW 1699   1.877   2.545   0.941  0.0522 -0.1616  0.1640
  567SOL    HW1 1700   1.890   2.523   1.040 -0.6626  0.5705 -0.0872
  567SOL    HW2 1701   1.966   2.556   0.897 -0.5017  0.9827 -0.6895
  568SOL     OW 1702   2.000   0.813   0.496  0.0392 -0.7945  0.4101
  568SOL    HW1 1703   1.954   0.885   0.554 -0.8196 -0.7964  2.4221
  568SOL    HW2 1704   1.984   0.723   0.529 -0.4495  4.1034 -1.5919
  569SOL     OW 1705   3.083   1.785   2.569  0.8239 -0.0605  0.3979
  569SOL    HW1 1706   0.051   1.806   2.603  0.8626  1.2908  1.3482
  569SOL    HW2 1707   3.048   1.707   2.633  1.6012 -0.6803 -1.2041
  570SOL     OW 1708   2.975   0.064   1.148  0.1357 -0.1955  0.2671
  570SOL    HW1 1709   3.050   0.120   1.171 -2.6879 -2.6605  0.9594
  570SOL    HW2 1710   2.885   0.109   1.154  2.8786  0.2288  2.2987
  571SOL     OW 1711   3.093   0.460   1.622  0.1903 -0.5247  0.3782
  571SOL    HW1 1712   3.043   0.522   1.688 -1.1051 -1.2537  0.4217
  571SOL    HW2 1713   3.104   0.370   1.663 -0.2208 -2.5203 -0.2175
  572SOL     OW 1714   2.972   2.543   0.848 -0.8115  0.4704  0.2850
  572SOL    HW1 1715   3.016   2.570   0.760  1.6932  1.5231  1.5412
  572SOL    HW2 1716   3.027   2.462   0.882  2.5434 -2.2532 -0.3166
  573SOL     OW 1717   0.953   0.704   0.071  0.5072 -0.3142  0.7700
  573SOL    HW1 1718   0.889   0.751   0.131  0.4194  0.1946 -1.8973
  573SOL    HW2 1719   0.923   0.604   0.070  0.9739  1.8079  0.5150
  574SOL     OW 1720   2.932   2.612   3.073  0.4683 -0.2624  0.2175
  574SOL    HW1 1721   2.929   2.668   0.027  0.2242 -1.8262 -1.8804
  574SOL    HW2 1722   2.877   2.655   2.999 -1.9738  0.6673 -1.4319
  575SOL     OW 1723   1.344   2.315   1.107 -0.6386 -0.2576  0.0426
  575SOL    HW1 1724   1.255   2.364   1.106  1.7270 -1.6774 -1.1894
  575SOL    HW2 1725   1.347   2.249   1.028  0.9895 -0.2640  1.8923
  576SOL     OW 1726   0.811   2.536   1.097 -0.2443 -0.2852  0.3184
  576SOL    HW1 1727   0.832   2.573   1.005 -1.3025 -0.4583  0.8555
  576SOL    HW2 1728   0.872   2.574   1.166  1.4073 -0.1559  1.0240
  577SOL     OW 1729   2.433   1.548   1.002 -0.3482 -0.0740 -0.7530
  577SOL    HW1 1730   2.397   1.464   1.049  0.0366 -1.5095 -0.6545
  577SOL    HW2 1731   2.482   1.515   0.919 -1.2577 -0.5879  0.5627
  578SOL     OW 1732   1.589   0.269   0.455 -0.1456  0.1017  0.1491
  578SOL    HW1 1733   1.658   0.233   0.386  2.5171 -0.4474 -2.3416
  578SOL    HW2 1734   1.501   0.216   0.454  1.0546 -1.9344 -0.1180
  579SOL     OW 1735   2.424   0.951   2.837 -0.1912 -0.4507 -0.0640
  579SOL    HW1 1736   2.492   0.878   2.870  1.7885 -0.8595  1.5981
  579SOL    HW2 1737   2.401   0.937   2.736  1.0392 -0.0295  1.9276
  580SOL     OW 1738   1.958   0.631   1.902 -0.0263  0.0079 -0.1900
  580SOL    HW1 1739   2.056   0.601   1.891  0.7849 -0.7848  0.1696
  580SOL    HW2 1740   1.929   0.632   2.003  0.3195 -0.9286  0.6087
  581SOL     OW 1741   0.474   1.025   1.182 -0.2957  0.5101 -0.4620
  581SOL    HW1 1742   0.421   1.008   1.099  0.1477 -2.2341  3.0344
  581SOL    HW2 1743   0.541   0.952   1.194 -1.2982  1.6214  0.9536
  582SOL     OW 1744   2.623   0.041   1.863  0.4268  0.5348 -0.3322
  582SOL    HW1 1745   2.591   0.045   1.960  0.2333  2.3068 -2.1126
  582SOL    HW2 1746   2.577   0.116   1.815  0.6182 -4.0204 -0.1729
  583SOL     OW 1747   2.935   0.381   1.927  0.1257  0.3555  0.3470
  583SOL    HW1 1748   2.859   0.414   1.986  2.2745  1.6884 -1.1829
  583SOL    HW2 1749   2.925   0.282   1.913 -0.0594  1.7862 -1.3473
  584SOL     OW 1750   1.437   1.901   2.849  0.3315  0.1628  0.3553
  584SOL    HW1 1751   1.519   1.952   2.874  0.2329  0.0478 -2.4388
  584SOL    HW2 1752   1.466   1.829   2.784  2.4717 -0.0609 -1.9839
  585SOL     OW 1753   0.215   2.861   2.762 -0.4828  0.2185  0.2715
  585SOL    HW1 1754   0.311   2.880   2.789 -3.8981 -1.3505 -3.6144
  585SOL    HW2 1755   0.162   2.946   2.756 -1.9406  1.0061 -3.8501
  586SOL     OW 1756   2.094   1.570   2.514 -0.9313 -0.2973  0.3588
  586SOL    HW1 1757   2.069   1.504   2.435 -0.2078 -2.2638 -0.5555
  586SOL    HW2 1758   2.147   1.655   2.490  3.6041 -1.9803  2.2315
  587SOL     OW 1759   2.370   2.384   0.502  0.4075 -0.9150  0.1367
  587SOL    HW1 1760   2.311   2.458   0.466 -1.1627 -1.6001 -0.5455
  587SOL    HW2 1761   2.326   2.291   0.492 -0.2396 -1.2172 -0.0655
  588SOL     OW 1762   2.583   0.328   0.585  0.0771  0.5940  0.5651
  588SOL    HW1 1763   2.536   0.417   0.585  0.0526  2.4352 -0.9692
  588SOL    HW2 1764   2.515   0.260   0.625 -1.9586  1.3276 -0.9094
  589SOL     OW 1765   0.511   0.663   0.670 -0.1061 -0.8760  0.3292
  589SOL    HW1 1766   0.561   0.574   0.668  0.7184  0.1520  1.4648
  589SOL    HW2 1767   0.515   0.712   0.580 -3.1199  0.1910 -0.4187
  590SOL     OW 1768   2.258   2.162   0.425  0.5753  0.3926 -0.4627
  590SOL    HW1 1769   2.237   2.086   0.496 -1.6957 -1.5345  0.9094
  590SOL    HW2 1770   2.307   2.120   0.346 -0.5225 -1.2631 -2.2458
  591SOL     OW 1771   0.429   2.274   1.205 -0.0258  0.0242  0.6501
  591SOL    HW1 1772   0.504   2.226   1.257 -1.1248  3.3524 -1.5443
  591SOL    HW2 1773   0.461   2.365   1.174 -0.0483  2.7129 -0.2006
  592SOL     OW 1774   0.823   0.453   1.276  0.2824 -0.6984 -0.4224
  592SOL    HW1 1775   0.800   0.371   1.339 -1.8328 -0.2570 -0.8151
  592SOL    HW2 1776   0.756   0.459   1.201  2.2969  2.7627 -1.7563
  593SOL     OW 1777   1.116   1.359   1.339  0.5560  0.1715  0.1139
  593SOL    HW1 1778   1.168   1.335   1.423  1.5303  2.9981  2.7311
  593SOL    HW2 1779   1.059   1.445   1.360 -1.1091  1.6933  1.2149
  594SOL     OW 1780   0.881   2.317   0.387 -0.3804  0.1125  0.0075
  594SOL    HW1 1781   0.900   2.310   0.289  0.4608 -0.9507  0.0664
  594SOL    HW2 1782   0.946   2.373   0.444  0.3311 -1.0299 -0.1714
  595SOL     OW 1783   1.710   0.332   1.367 -0.0215 -0.1943 -0.1151
  595SOL    HW1 1784   1.757   0.394   1.437  0.1063 -0.9216 -1.5573
  595SOL    HW2 1785   1.609   0.331   1.376 -0.2470 -1.1732 -0.5535
  596SOL     OW 1786   2.926   1.002   1.409 -0.2465 -0.2341 -0.1198
  596SOL    HW1 1787   2.941   0.911   1.367 -0.9183  1.4779  0.1773
  596SOL    HW2 1788   2.913   1.065   1.336  1.4622  0.2732  1.1793
  597SOL     OW 1789   0.623   2.719   2.471 -0.5227 -0.0828 -0.4517
  597SOL    HW1 1790   0.634   2.632   2.528  2.0917  4.6293  2.9742
  597SOL    HW2 1791   0.582   2.702   2.377 -0.8527  0.2737 -0.1367
  598SOL     OW 1792   2.641   2.186   2.053 -0.1896  0.6187 -0.2525
  598SOL    HW1 1793   2.617   2.132   1.967  1.3582  0.1634  1.4649
  598SOL    HW2 1794   2.583   2.154   2.135 -1.3225 -1.1389  2.0628
  599SOL     OW 1795   0.894   0.197   2.961  0.4860 -0.1263  0.1552
  599SOL    HW1 1796   0.834   0.248   2.895  0.9269  4.1333 -2.7649
  599SOL    HW2 1797   0.897   0.099   2.931  0.0001 -0.1946  0.3547
  600SOL     OW 1798   0.145   2.131   2.706  0.0558  0.7000 -0.9917
  600SOL    HW1 1799   0.103   2.220   2.732  2.4152  0.7680  4.3835
  600SOL    HW2 1800   0.138   2.056   2.776  2.6604  0.1761  0.7560
  601SOL     OW 1801   0.701   0.842   1.384 -0.1637 -0.2362 -0.3565
  601SOL    HW1 1802   0.666   0.842   1.289  0.8815 -2.0191  1.4697
  601SOL    HW2 1803   0.638   0.885   1.451 -1.3294  0.8981  2.4016
  602SOL     OW 1804   0.920   2.912   0.991 -0.7809 -0.3595 -0.3674
  602SOL    HW1 1805   0.905   2.828   0.937 -0.6207  2.3808 -1.5679
  602SOL    HW2 1806   0.892   2.892   1.087  2.3502  1.0215  1.0528
  603SOL     OW 1807   0.420   0.501   2.664  0.1794 -0.0092  0.0419
  603SOL    HW1 1808   0.509   0.512   2.612  2.4159  1.1410 -1.9607
  603SOL    HW2 1809   0.348   0.510   2.598  3.7664 -0.9233  1.3389
  604SOL     OW 1810   0.620   2.736   1.686  0.2894  0.0004 -0.2614
  604SOL    HW1 1811   0.558   2.804   1.728  0.8923  0.4275  0.2913
  604SOL    HW2 1812   0.575   2.685   1.615  2.5849  2.3446 -1.0805
  605SOL     OW 1813   1.559   0.701   2.133 -0.3053  0.2187  0.1246
  605SOL    HW1 1814   1.472   0.688   2.083 -1.3843 -1.5623 -0.5175
  605SOL    HW2 1815   1.581   0.797   2.153 -1.1315  1.5302 -2.0947
  606SOL     OW 1816   2.428   2.859   2.788 -0.3353  0.4778  0.1730
  606SOL    HW1 1817   2.412   2.822   2.878  0.3808  0.5199 -0.2083
  606SOL    HW2 1818   2.518   2.911   2.789  1.6121  3.4957 -1.1421
  607SOL     OW 1819   0.674   0.383   1.074 -0.8023  0.9379  0.1823
  607SOL    HW1 1820   0.601   0.424   1.021  1.0436 -0.8073  1.7356
  607SOL    HW2 1821   0.686   0.285   1.045  1.8465 -0.0342 -2.0938
  608SOL     OW 1822   0.308   1.801   2.423 -0.5862  0.0182  0.5187
  608SOL    HW1 1823   0.297   1.784   2.521  1.7250  2.2923  0.3978
  608SOL    HW2 1824   0.232   1.856   2.391  0.3600 -1.6954 -0.3151
  609SOL     OW 1825   1.448   1.289   0.522 -0.4310 -0.3106  0.6796
  609SOL    HW1 1826   1.394   1.325   0.439 -0.6854  2.8477 -1.6488
  609SOL    HW2 1827   1.409   1.199   0.548  1.1695  0.4043  0.2581
  610SOL     OW 1828   0.191   0.516   0.872 -0.2895  0.1652 -0.3091
  610SOL    HW1 1829   0.198   0.422   0.904 -1.1120 -0.1608 -0.6682
  610SOL    HW2 1830   0.236   0.578   0.939 -0.9558 -1.1950  0.0973
  611SOL     OW 1831   1.562   1.027   0.944 -0.4138  0.0868 -0.3965
  611SOL    HW1 1832   1.620   1.105   0.960  1.4902 -1.4828  0.1252
  611SOL    HW2 1833   1.555   1.004   0.845  0.2939  2.7152  0.6402
  612SOL     OW 1834   1.684   1.432   0.522  0.0373 -0.0623 -0.3822
  612SOL    HW1 1835   1.693   1.496   0.440 -2.5469 -1.0893 -2.4313
  612SOL    HW2 1836   1.595   1.376   0.520 -0.2992  0.7935  1.5653
  613SOL     OW 1837   1.689   1.012   0.381  0.5775  0.7998 -0.0206
  613SOL    HW1 1838   1.763   0.980   0.320 -2.3096  0.4776 -1.0226
  613SOL    HW2 1839   1.596   1.001   0.340  0.7024  2.0215  1.1967
  614SOL     OW 1840   2.843   0.284   2.265 -0.2216  0.0178 -0.5831
  614SOL    HW1 1841   2.858   0.187   2.235  0.4529  0.8321  0.1936
  614SOL    HW2 1842   2.788   0.332   2.195  0.9664 -0.3025 -3.3149
  615SOL     OW 1843   0.576   1.772   0.860  0.3721  0.6771 -0.3757
  615SOL    HW1 1844   0.663   1.718   0.856 -1.2994  2.0197  1.6372
  615SOL    HW2 1845   0.595   1.869   0.884 -2.9220 -0.6036  1.5119
  616SOL     OW 1846   1.671   1.265   2.629  0.2816 -0.1731  0.3629
  616SOL    HW1 1847   1.730   1.203   2.574  1.6219  0.8847 -0.2021
  616SOL    HW2 1848   1.584   1.217   2.652  0.4685  1.9281 -3.6644
  617SOL     OW 1849   1.331   0.581   0.101 -0.5064 -0.3401  0.0326
  617SOL    HW1 1850   1.246   0.525   0.100 -0.5203 -0.6197 -1.7761
  617SOL    HW2 1851   1.408   0.524   0.066 -1.3573 -0.4495  0.1968
  618SOL     OW 1852   1.991   2.463   2.441  0.7051  0.2667  0.5021
  618SOL    HW1 1853   1.972   2.412   2.351 -1.7531 -1.7292 -2.5519
  618SOL    HW2 1854   1.920   2.536   2.448 -2.1751  0.9024 -0.8963
  619SOL     OW 1855   2.107   2.105   1.028  0.2251  0.4059 -0.5429
  619SOL    HW1 1856   2.133   2.122   0.931  0.2019  1.1683 -0.3642
  619SOL    HW2 1857   2.083   2.007   1.042  1.7155 -1.8318 -0.9976
  620SOL     OW 1858   1.987   2.758   2.262  0.2209  0.0281  0.5968
  620SOL    HW1 1859   2.033   2.848   2.253  1.9300  3.0083 -0.0945
  620SOL    HW2 1860   2.030   2.699   2.330 -2.8145  2.8021  1.2939
  621SOL     OW 1861   0.045   1.322   0.809  0.0913 -0.3414 -0.2133
  621SOL    HW1 1862   0.066   1.423   0.803 -0.3095 -2.3763 -0.4654
  621SOL    HW2 1863   3.069   1.304   0.809  0.8556  0.7326 -1.4777
  622SOL     OW 1864   1.572   1.601   2.937  0.6300  0.1291  0.1010
  622SOL    HW1 1865   1.592   1.639   2.847 -1.3068 -2.7721  5.4250
  622SOL    HW2 1866   1.619   1.659   3.008  0.0956  4.0428  0.3859
  623SOL     OW 1867   2.956   2.530   2.292 -0.2073 -0.2755 -0.1077
  623SOL    HW1 1868   2.861   2.556   2.322  0.1150  2.0293 -1.3362
  623SOL    HW2 1869   3.016   2.616   2.292 -0.9594  1.1579 -1.1703
  624SOL     OW 1870   0.646   2.443   0.134  0.0402  0.4573 -0.1310
  624SOL    HW1 1871   0.673   2.350   0.097 -0.9689  1.3045 -0.7380
  624SOL    HW2 1872   0.558   2.434   0.191 -4.1381  1.2409  2.7395
  625SOL     OW 1873   0.472   1.831   1.927 -0.3040 -0.5483 -0.1587
  625SOL    HW1 1874   0.425   1.892   1.990 -0.9738  1.9924  0.3698
  625SOL    HW2 1875   0.412   1.756   1.894  0.4316  1.5757  0.2304
  626SOL     OW 1876   0.867   3.056   2.917 -0.4151  0.2025 -0.2933
  626SOL    HW1 1877   0.910   2.969   2.954  3.4413 -2.1480  1.8395
  626SOL    HW2 1878   0.799   3.030   2.845 -0.8199 -0.3693 -2.3742
  627SOL     OW 1879   1.574   1.373   0.195  0.2458 -0.4956  0.4664
  627SOL    HW1 1880   1.656   1.337   0.151 -1.7864 -1.3144 -2.9209
  627SOL    HW2 1881   1.583   1.468   0.227  0.9526  0.1395 -0.2734
  628SOL     OW 1882   1.288   2.247   0.750 -0.2689 -0.2391  0.5589
  628SOL    HW1 1883   1.253   2.199   0.834 -0.4347 -1.2994 -1.5445
  628SOL    HW2 1884   1.315   2.344   0.770 -1.5790  0.1726 -1.1530
  629SOL     OW 1885   0.022   0.163   1.605 -0.1741  0.2726  0.0560
  629SOL    HW1 1886   0.084   0.166   1.522 -1.6819 -1.3335 -1.7884
  629SOL    HW2 1887   0.010   0.078   1.658  0.9571 -0.0826  2.1105
  630SOL     OW 1888   2.281   0.774   1.706  0.5133 -0.1274 -0.6458
  630SOL    HW1 1889   2.268   0.850   1.639 -2.2493 -0.3611  1.1422
  630SOL    HW2 1890   2.332   0.697   1.662 -0.9423  0.5152 -0.5264
  631SOL     OW 1891   1.227   0.454   1.065  0.3005  0.3070 -0.3730
  631SOL    HW1 1892   1.306   0.514   1.087  1.4039  2.5052  0.0516
  631SOL    HW2 1893   1.254   0.366   1.020  1.5830 -0.6162 -0.0713
  632SOL     OW 1894   2.812   0.857   2.143 -0.0854 -0.0935 -0.1267
  632SOL    HW1 1895   2.765   0.917   2.074 -0.6429  1.3167  2.6105
  632SOL    HW2 1896   2.909   0.844   2.117 -3.2912  1.0362  1.0175
  633SOL     OW 1897   1.418   0.903   2.998 -0.1896 -0.4906  0.0021
  633SOL    HW1 1898   1.400   0.998   2.968  1.5740  0.8910  0.2927
  633SOL    HW2 1899   1.352   0.872   3.069 -2.6305 -1.4801 -0.5314
  634SOL     OW 1900   0.614   2.883   3.046  0.2219 -0.8993 -0.2000
  634SOL    HW1 1901   0.709   2.868   3.075 -1.5643 -0.0058  0.0394
  634SOL    HW2 1902   0.548   2.828   3.099  1.0754  0.0710 -3.2877
  635SOL     OW 1903   0.002   1.359   1.470  0.3195 -0.2045 -0.5050
  635SOL    HW1 1904   3.057   1.313   1.410 -5.0198 -0.5510 -1.0260
  635SOL    HW2 1905   0.064   1.416   1.412  2.1752 -0.9336  0.3920
  636SOL     OW 1906   0.269   1.659   0.158 -0.6297 -0.5126  0.5691
  636SOL    HW1 1907   0.219   1.608   0.235  1.9537 -2.2402  0.0013
  636SOL    HW2 1908   0.207   1.667   0.074 -0.8526 -0.6830 -1.3931
  637SOL     OW 1909   3.072   2.596   0.600 -0.8957  0.8090 -0.0605
  637SOL    HW1 1910   3.080   2.693   0.581  3.2293 -1.3947 -0.2473
  637SOL    HW2 1911   3.023   2.551   0.524 -0.1112  0.6342 -1.0707
  638SOL     OW 1912   2.702   2.673   0.389  0.9234 -0.5031  0.4699
  638SOL    HW1 1913   2.747   2.660   0.475 -0.6925  1.0304 -3.4003
  638SOL    HW2 1914   2.680   2.580   0.349  0.6012 -0.5299  0.6076
  639SOL     OW 1915   1.472   0.267   2.916  0.0255 -0.4126  0.5361
  639SOL    HW1 1916   1.372   0.282   2.911  1.1022 -2.2592  1.7579
  639SOL    HW2 1917   1.497   0.167   2.942 -0.8603 -3.6130  0.9658
  640SOL     OW 1918   2.300   1.996   1.547  0.5785  0.0020  0.0603
  640SOL    HW1 1919   2.253   2.074   1.497  1.2336 -0.5359 -1.5510
  640SOL    HW2 1920   2.324   2.024   1.639 -0.1711  0.1179 -0.3015
  641SOL     OW 1921   3.048   3.049   0.895 -0.1696 -0.2997  0.7818
  641SOL    HW1 1922   3.023   3.107   0.975  0.2917 -0.4758 -1.1640
  641SOL    HW2 1923   2.992   3.068   0.811 -2.2671  0.3265 -1.8687
  642SOL     OW 1924   1.201   0.990   1.828 -0.0464  0.3307 -0.6283
  642SOL    HW1 1925   1.129   1.063   1.820 -1.1863 -1.4336 -1.8086
  642SOL    HW2 1926   1.200   0.918   1.754  3.3000 -0.4561  0.7316
  643SOL     OW 1927   0.657   1.818   2.475  0.3246  0.2159 -0.1509
  643SOL    HW1 1928   0.595   1.737   2.444 -1.9278 -2.7917 -1.0364
  643SOL    HW2 1929   0.670   1.887   2.398 -2.3305  1.2913  0.7165
  644SOL     OW 1930   1.606   2.868   2.368 -0.6302  0.7751 -0.3169
  644SOL    HW1 1931   1.527   2.910   2.324  1.6169 -0.3667  2.0788
  644SOL    HW2 1932   1.591   2.770   2.381 -1.1611 -0.5737 -0.7091
  645SOL     OW 1933   1.425   0.689   1.861  0.1180 -0.1235  0.5066
  645SOL    HW1 1934   1.521   0.708   1.826 -0.9519 -0.5489 -0.3846
  645SOL    HW2 1935   1.356   0.743   1.808  1.2547 -1.8746 -1.0197
  646SOL     OW 1936   1.131   2.311   2.834 -0.3203  0.1983  0.2915
  646SOL    HW1 1937   1.187   2.365   2.771 -2.1464  0.4980  0.8834
  646SOL    HW2 1938   1.153   2.211   2.830  1.9424  0.8440  0.6207
  647SOL     OW 1939   1.388   2.854   0.618  0.7808  0.4258 -0.2993
  647SOL    HW1 1940   1.443   2.769   0.616  1.0240  0.4159 -0.1299
  647SOL    HW2 1941   1.451   2.927   0.585 -0.4592 -1.4446  2.2924
  648SOL     OW 1942   2.805   2.726   1.390 -0.4753  0.6326  0.1881
  648SOL    HW1 1943   2.751   2.685   1.316  1.7393  2.0414  0.1812
  648SOL    HW2 1944   2.879   2.784   1.353 -0.7555 -0.2075 -2.2987
  649SOL     OW 1945   0.851   2.359   2.515  0.2970  0.2030 -0.2430
  649SOL    HW1 1946   0.899   2.334   2.428 -1.7336  1.6428 -1.6933
  649SOL    HW2 1947   0.839   2.279   2.581  1.2832  0.5150  1.0447
  650SOL     OW 1948   2.707   1.937   2.756  0.2744  0.2586  0.2417
  650SOL    HW1 1949   2.778   1.863   2.751 -0.8292  2.3012  1.2667
  650SOL    HW2 1950   2.709   2.003   2.680 -0.0790  0.8125 -1.7548
  651SOL     OW 1951   2.613   2.548   2.119  0.0748 -0.0553  0.4033
  651SOL    HW1 1952   2.575   2.613   2.053  0.4657  2.4721  3.7752
  651SOL    HW2 1953   2.574   2.457   2.105  0.1706  1.3921 -0.7623
  652SOL     OW 1954   2.627   2.569   1.213 -0.2184  0.0776  0.0894
  652SOL    HW1 1955   2.715   2.539   1.169 -1.6155  0.4300 -1.1478
  652SOL    HW2 1956   2.568   2.497   1.248 -2.5273  2.3602  0.7148
  653SOL     OW 1957   2.851   1.234   0.999 -0.0913  0.2838 -0.3006
  653SOL    HW1 1958   2.769   1.263   1.056 -1.9978  1.4287  0.8600
  653SOL    HW2 1959   2.842   1.132   0.980 -0.0075  0.1023 -1.0946
  654SOL     OW 1960   1.191   0.237   2.945  0.4517 -0.0379  0.2466
  654SOL    HW1 1961   1.213   0.250   3.044 -0.5597 -0.1986  1.1890
  654SOL    HW2 1962   1.095   0.201   2.948 -1.1335 -0.4014 -1.1834
  655SOL     OW 1963   0.728   0.129   0.982  0.4354  0.5209  0.2612
  655SOL    HW1 1964   0.814   0.112   0.929  2.6796 -3.2592  0.1135
  655SOL    HW2 1965   0.747   0.087   1.076  0.2127 -0.0342  0.2038
  656SOL     OW 1966   0.358   2.517   1.848 -0.0143 -0.4931  0.3294
  656SOL    HW1 1967   0.327   2.477   1.936 -2.5540 -2.7633  1.0719
  656SOL    HW2 1968   0.459   2.519   1.841  2.9521  0.8899 -1.2904
  657SOL     OW 1969   2.429   0.829   0.334 -0.5010  0.5603  0.1188
  657SOL    HW1 1970   2.373   0.788   0.255 -0.4567  1.1057 -2.4701
  657SOL    HW2 1971   2.489   0.903   0.298 -3.8773  2.4308 -0.4479
  658SOL     OW 1972   1.916   2.203   1.187  1.1677  0.3357 -0.3917
  658SOL    HW1 1973   1.981   2.171   1.120 -1.6027  0.1409  1.2085
  658SOL    HW2 1974   1.868   2.128   1.238 -0.1777  1.1538  1.2825
  659SOL     OW 1975   2.743   1.773   3.055 -0.5934 -0.2353  0.4802
  659SOL    HW1 1976   2.655   1.802   3.007 -1.7025 -3.1838 -2.5270
  659SOL    HW2 1977   2.741   1.674   3.089 -0.6136 -2.0047  1.4197
  660SOL     OW 1978   0.812   0.292   0.467 -0.7990  0.6965  0.1199
  660SOL    HW1 1979   0.811   0.186   0.460 -0.3321 -3.6324  0.6262
  660SOL    HW2 1980   0.907   0.323   0.491  0.9617  0.3316 -1.9279
  661SOL     OW 1981   1.755   3.035   0.176  0.3388 -0.3607  0.4310
  661SOL    HW1 1982   1.820   2.958   0.164  2.3166  1.3821  0.0885
  661SOL    HW2 1983   1.757   3.102   0.093 -0.7562  2.5623  2.2438
  662SOL     OW 1984   0.659   3.021   0.541  0.1563 -0.1229 -0.1420
  662SOL    HW1 1985   0.614   3.109   0.509 -3.1655  1.3527  0.2968
  662SOL    HW2 1986   0.617   2.987   0.629  2.0959 -1.3850 -1.7708
  663SOL     OW 1987   1.296   3.032   1.969 -0.5022 -0.1278 -0.8114
  663SOL    HW1 1988   1.278   3.059   2.066 -1.7069  1.2717  0.7407
  663SOL    HW2 1989   1.313   3.111   1.910 -0.1387 -1.8390  0.1899
  664SOL     OW 1990   0.822   2.461   1.563  1.0650 -0.4125  0.1127
  664SOL    HW1 1991   0.725   2.437   1.546 -1.3939  5.6631 -0.4366
  664SOL    HW2 1992   0.829   2.545   1.619  1.3498 -1.5069  1.1515
  665SOL     OW 1993   0.943   2.213   1.548  0.1695 -0.7324  0.2019
  665SOL    HW1 1994   1.040   2.214   1.571  0.1264 -0.3917 -2.0707
  665SOL    HW2 1995   0.900   2.306   1.579 -1.5859  0.5822 -0.3502
  666SOL     OW 1996   0.753   3.042   2.503  0.3127 -0.2067 -0.2233
  666SOL    HW1 1997   0.721   0.011   2.517 -0.5072 -1.3583  0.8341
  666SOL    HW2 1998   0.717   2.982   2.578 -1.7771  2.8381 -0.3792
  667SOL     OW 1999   2.046   1.485   1.755  0.1608  0.4578  0.2500
  667SOL    HW1 2000   2.048   1.451   1.655 -0.8053  1.3152  0.8479
  667SOL    HW2 2001   2.104   1.566   1.761  1.1864  0.3226 -1.6553
  668SOL     OW 2002   1.795   2.949   1.590 -0.0205  0.0234  0.0605
  668SOL    HW1 2003   1.796   2.848   1.593  0.6786 -0.4009  2.1418
  668SOL    HW2 2004   1.749   2.998   1.667  2.7030 -1.9645 -0.3649
  669SOL     OW 2005   2.574   2.744   1.013 -0.7345  0.0338 -0.0730
  669SOL    HW1 2006   2.581   2.696   1.103  1.4118  2.8376 -1.8123
  669SOL    HW2 2007   2.652   2.722   0.953 -1.7797  1.5279  1.2748
  670SOL     OW 2008   1.425   2.463   2.919  0.9703  0.1608  0.1793
  670SOL    HW1 2009   1.358   2.539   2.923 -0.2838  1.6121 -1.0161
  670SOL    HW2 2010   1.428   2.419   2.822 -2.1643 -2.5210 -1.4504
  671SOL     OW 2011   0.707   1.201   0.588 -0.0303  0.4455 -0.0248
  671SOL    HW1 2012   0.684   1.270   0.518 -1.0879  1.6712 -0.6664
  671SOL    HW2 2013   0.626   1.184   0.648  0.6601  1.5046  1.4864
  672SOL     OW 2014   2.800   1.269   2.682 -0.2480  0.2944 -0.0793
  672SOL    HW1 2015   2.779   1.357   2.725  1.2056 -0.3049 -2.6514
  672SOL    HW2 2016   2.731   1.237   2.612  0.2935  0.9613 -1.8294
  673SOL     OW 2017   0.005   2.044   1.620  0.1942 -0.7132 -0.3967
  673SOL    HW1 2018   0.093   2.056   1.672  3.2132 -2.8388  0.8240
  673SOL    HW2 2019   0.013   1.984   1.538  1.3590 -1.6846 -1.3030
  674SOL     OW 2020   0.760   2.356   2.225 -0.0240 -0.1198  0.0368
  674SOL    HW1 2021   0.696   2.333   2.297  0.6456  2.3070 -1.3677
  674SOL    HW2 2022   0.733   2.295   2.147 -0.1384  1.8095  2.6243
  675SOL     OW 2023   0.959   0.653   1.678 -0.1706  0.5384 -0.1870
  675SOL    HW1 2024   0.912   0.664   1.769 -0.7859 -0.1090 -1.9214
  675SOL    HW2 2025   0.891   0.662   1.605 -1.5654 -2.1976  3.0905
  676SOL     OW 2026   1.940   3.076   1.400 -0.0051 -0.2267  0.0088
  676SOL    HW1 2027   1.959   2.998   1.340 -1.0918 -0.6065 -1.0201
  676SOL    HW2 2028   1.874   3.050   1.473  0.4684  0.3953 -2.4247
  677SOL     OW 2029   2.568   1.369   3.004  0.3686  0.4335  0.1968
  677SOL    HW1 2030   2.524   1.441   2.945 -2.8576 -0.7411  2.1462
  677SOL    HW2 2031   2.579   1.281   2.951 -1.6146  2.0080  0.4320
  678SOL     OW 2032   2.656   1.303   1.158 -0.5268  0.0610  0.4270
  678SOL    HW1 2033   2.701   1.366   1.225  0.4751 -1.7390 -0.4363
  678SOL    HW2 2034   2.568   1.340   1.134  2.6938  3.2634  3.4328
  679SOL     OW 2035   2.578   0.511   3.061 -0.3244 -0.4005  0.7099
  679SOL    HW1 2036   2.550   0.439   0.000 -0.7845 -0.9153 -1.1403
  679SOL    HW2 2037   2.678   0.515   3.060 -1.0048 -1.6530  0.5212
  680SOL     OW 2038   0.685   1.452   1.851  0.0516  0.1137 -0.0304
  680SOL    HW1 2039   0.784   1.473   1.872 -0.9605  0.3093  0.4031
  680SOL    HW2 2040   0.625   1.483   1.922 -0.1472 -1.5710 -2.0931
  681SOL     OW 2041   2.614   2.009   1.778  0.2081 -0.7829 -0.1148
  681SOL    HW1 2042   2.637   2.071   1.699  0.5412  0.3665  1.1912
  681SOL    HW2 2043   2.663   1.918   1.774 -1.3410 -1.8135 -1.6024
  682SOL     OW 2044   0.196   2.183   0.016 -0.5661 -0.0392  0.0470
  682SOL    HW1 2045   0.239   2.110   0.076  1.3065  0.5192  2.7739
  682SOL    HW2 2046   0.099   2.186   0.035  0.8121  0.9174 -1.4343
  683SOL     OW 2047   2.864   2.161   1.325  0.2673  0.0631 -0.3171
  683SOL    HW1 2048   2.798   2.087   1.338  0.0553 -0.8662  0.2835
  683SOL    HW2 2049   2.874   2.216   1.407 -1.8888 -1.5564 -2.6976
  684SOL     OW 2050   2.926   1.211   2.247  0.3084 -0.2631  0.0663
  684SOL    HW1 2051   2.959   1.302   2.281 -0.2216 -3.1000  2.3490
  684SOL    HW2 2052   2.831   1.207   2.209 -1.3062 -1.4940 -0.4282
  685SOL     OW 2053   1.492   0.496   0.643 -0.3167 -0.7224 -0.0331
  685SOL    HW1 2054   1.543   0.507   0.559 -0.9215 -1.1276  2.1503
  685SOL    HW2 2055   1.431   0.418   0.639  2.4280  2.6787  2.4169
  686SOL     OW 2056   0.400   0.282   0.664 -0.4650  0.0649  0.1794
  686SOL    HW1 2057   0.477   0.336   0.711  4.6949  0.9399  3.6573
  686SOL    HW2 2058   0.365   0.330   0.581 -0.0769 -1.3677  2.0996
  687SOL     OW 2059   0.624   1.954   2.728 -0.3161 -0.0031 -0.5290
  687SOL    HW1 2060   0.637   1.898   2.642 -2.5977 -2.1147  0.6315
  687SOL    HW2 2061   0.554   2.025   2.714 -1.2963 -3.2236  0.4362
  688SOL     OW 2062   2.055   0.392   1.548 -0.1523 -0.0573  0.4400
  688SOL    HW1 2063   2.068   0.292   1.537 -0.3020 -1.8992 -1.1870
  688SOL    HW2 2064   2.113   0.453   1.491 -0.5091 -1.0507 -1.2174
  689SOL     OW 2065   1.678   0.508   0.856  0.4237  0.4325  0.2144
  689SOL    HW1 2066   1.657   0.448   0.931  0.1928  0.7323 -3.9498
  689SOL    HW2 2067   1.602   0.507   0.789 -1.1969  0.2852 -0.7286
  690SOL     OW 2068   2.997   1.253   1.229 -0.0090  0.1726 -0.4146
  690SOL    HW1 2069   2.926   1.244   1.157 -0.3409 -0.2893  0.6900
  690SOL    HW2 2070   3.090   1.246   1.184  5.7425  1.2810 -2.8590
  691SOL     OW 2071   0.207   2.137   1.364  0.3309 -0.5506 -0.6197
  691SOL    HW1 2072   0.261   2.189   1.298  0.2274 -2.1536  0.3456
  691SOL    HW2 2073   0.239   2.038   1.379 -0.6414  0.2259  0.4095
  692SOL     OW 2074   1.221   0.121   1.571  0.1417 -0.3317 -0.7213
  692SOL    HW1 2075   1.299   0.057   1.563 -1.1347  1.5094  1.1457
  692SOL    HW2 2076   1.252   0.210   1.608 -0.6221  2.3050  2.7457
  693SOL     OW 2077   0.919   1.607   2.112 -0.0545 -0.3236 -1.2908
  693SOL    HW1 2078   0.854   1.682   2.109 -0.6663  0.0282 -0.3040
  693SOL    HW2 2079   0.942   1.578   2.016 -0.4939 -0.3255  0.9905
  694SOL     OW 2080   1.869   1.478   0.703  0.4513  0.4110 -0.0003
  694SOL    HW1 2081   1.841   1.453   0.801  1.6297 -0.2080  0.7573
  694SOL    HW2 2082   1.798   1.449   0.633  1.5994  0.3619 -0.1517
  695SOL     OW 2083   0.975   0.871   1.324 -0.1804  0.1319  0.2135
  695SOL    HW1 2084   0.965   0.868   1.221 -0.5541  1.5491 -1.3959
  695SOL    HW2 2085   0.880   0.865   1.363 -0.8951 -1.8396 -1.3281
  696SOL     OW 2086   0.262   3.120   0.438 -0.1423  0.6067  0.4514
  696SOL    HW1 2087   0.251   3.075   0.343  0.6729 -2.6062 -2.6526
  696SOL    HW2 2088   0.260   3.053   0.513 -0.6616 -0.4314  0.0356
  697SOL     OW 2089   2.042   0.399   1.183 -0.0934 -0.5239 -0.7259
  697SOL    HW1 2090   1.976   0.453   1.129  2.1853 -0.9017  0.5703
  697SOL    HW2 2091   1.987   0.334   1.234 -0.1874 -0.3457 -0.6189
  698SOL     OW 2092   1.410   1.401   1.869 -0.1273  0.0642 -0.0834
  698SOL    HW1 2093   1.498   1.437   1.833  0.6621  0.7659 -1.0061
  698SOL    HW2 2094   1.412   1.300   1.864  1.8336  1.4110  1.1528
  699SOL     OW 2095   0.079   0.353   2.068  0.1361  0.2550 -0.2548
  699SOL    HW1 2096   3.111   0.348   2.039 -0.9182  0.9177  2.5457
  699SOL    HW2 2097   0.092   0.447   2.108 -2.9442 -1.5155 -0.9721
  700SOL     OW 2098   1.366   2.512   0.808  0.0139 -0.6761 -0.5281
  700SOL    HW1 2099   1.428   2.543   0.735  1.3962  0.8856 -3.0632
  700SOL    HW2 2100   1.344   2.592   0.871  0.8487 -3.9396 -1.8143
  701SOL     OW 2101   0.100   1.483   2.438  0.3584  0.1720  0.3670
  701SOL    HW1 2102   0.109   1.582   2.413 -0.8433 -0.8487  0.5867
  701SOL    HW2 2103   0.179   1.434   2.479  2.9016 -1.0811 -0.1344
  702SOL     OW 2104   0.506   0.101   0.479 -0.1423 -0.1253  0.2475
  702SOL    HW1 2105   0.478   0.179   0.538  0.1008  0.2152 -2.0180
  702SOL    HW2 2106   0.431   0.036   0.468  1.2458  1.7940  1.3325
  703SOL     OW 2107   1.760   3.102   2.788  0.8062 -1.1201  0.4809
  703SOL    HW1 2108   1.844   3.050   2.825  0.4128  0.5543  1.5226
  703SOL    HW2 2109   1.706   0.028   2.857  2.3386  1.0587 -3.7921
  704SOL     OW 2110   2.553   1.902   0.396 -0.1714  0.0523  0.7361
  704SOL    HW1 2111   2.634   1.966   0.384 -1.1314 -1.3856 -1.0716
  704SOL    HW2 2112   2.543   1.872   0.493 -0.1579 -0.6445  0.6321
  705SOL     OW 2113   2.826   2.113   2.335 -0.0074  0.2466 -0.1939
  705SOL    HW1 2114   2.778   2.134   2.243 -0.7822  0.2264 -1.1760
  705SOL    HW2 2115   2.898   2.182   2.353  0.7782 -1.8594  1.1238
  706SOL     OW 2116   2.843   2.876   0.599 -0.2562 -0.0431  0.0807
  706SOL    HW1 2117   2.794   2.948   0.547 -0.8843  1.3754 -2.8297
  706SOL    HW2 2118   2.934   2.853   0.562  0.5786  0.4285 -1.0964
  707SOL     OW 2119   1.104   0.068   0.129  0.3526 -0.2214  0.0898
  707SOL    HW1 2120   1.162   0.016   0.063 -2.0609 -1.4653  0.7269
  707SOL    HW2 2121   1.009   0.086   0.092 -0.3875 -1.8782 -0.6376
  708SOL     OW 2122   0.227   2.138   1.826 -0.4631 -0.0943 -0.2014
  708SOL    HW1 2123   0.180   2.228   1.841  1.0198  1.6799 -1.7301
  708SOL    HW2 2124   0.269   2.107   1.913 -2.9542  0.3537  1.3850
  709SOL     OW 2125   1.158   2.804   1.898  0.1226 -0.2596  0.1734
  709SOL    HW1 2126   1.130   2.737   1.971 -1.4670 -0.2505  2.0436
  709SOL    HW2 2127   1.216   2.877   1.937  1.5563  1.5769  1.7973
  710SOL     OW 2128   1.774   2.583   2.568  0.1417 -0.0601  0.2006
  710SOL    HW1 2129   1.751   2.658   2.633 -0.9806 -2.1145 -0.9509
  710SOL    HW2 2130   1.731   2.496   2.590  1.1743 -0.4751 -1.3589
  711SOL     OW 2131   1.094   2.495   2.597  0.0925  0.1780 -0.4114
  711SOL    HW1 2132   1.016   2.436   2.574  1.2580  0.6997  2.5000
  711SOL    HW2 2133   1.066   2.563   2.670 -2.6857  1.0864  3.7312
  712SOL     OW 2134   1.194   1.995   2.808  0.0956 -0.1249  0.6425
  712SOL    HW1 2135   1.288   1.958   2.821 -1.3561 -0.5472 -0.2228
  712SOL    HW2 2136   1.128   1.935   2.858 -1.4058  0.5396  1.7237
  713SOL     OW 2137   1.659   0.997   1.788 -0.2117  1.1670  0.2465
  713SOL    HW1 2138   1.704   0.907   1.790 -1.9263 -2.1715 -0.2403
  713SOL    HW2 2139   1.709   1.057   1.724 -0.9755  0.4904  0.0389
  714SOL     OW 2140   1.144   1.390   1.784  0.6129  0.6508 -0.3453
  714SOL    HW1 2141   1.237   1.382   1.828 -0.4819  0.3533  5.1541
  714SOL    HW2 2142   1.153   1.364   1.689 -1.5562 -0.5467  1.0628
  715SOL     OW 2143   2.731   0.100   0.118 -0.1326  0.2080  0.0164
  715SOL    HW1 2144   2.815   0.133   0.163  0.7983 -2.0121 -1.7905
  715SOL    HW2 2145   2.740   0.008   0.079  0.9417  0.4069  1.4504
  716SOL     OW 2146   0.565   2.633   1.238  0.6989 -0.3226 -0.3500
  716SOL    HW1 2147   0.639   2.571   1.201 -0.0097  0.8791  0.5971
  716SOL    HW2 2148   0.521   2.695   1.170 -0.5148  2.0217  1.5058
  717SOL     OW 2149   2.663   0.688   0.279 -0.1601  0.0414 -0.2142
  717SOL    HW1 2150   2.644   0.588   0.251 -0.6807 -0.8105  0.2259
  717SOL    HW2 2151   2.579   0.736   0.304 -0.8503 -1.1345  2.0907
  718SOL     OW 2152   1.783   1.475   1.254 -0.9826 -0.0914 -0.0023
  718SOL    HW1 2153   1.854   1.547   1.225  3.8484 -1.0880 -0.9072
  718SOL    HW2 2154   1.745   1.490   1.349  1.2072 -0.0588  0.9737
  719SOL     OW 2155   2.792   2.791   0.140  0.2393 -0.4579  0.3171
  719SOL    HW1 2156   2.713   2.738   0.112  1.9212  1.5443  3.0201
  719SOL    HW2 2157   2.803   2.786   0.238 -1.4345 -1.2530 -1.1889
  720SOL     OW 2158   0.970   0.526   1.068 -0.4656 -0.1368 -0.0938
  720SOL    HW1 2159   1.069   0.492   1.071  2.2715 -0.9181 -0.7197
  720SOL    HW2 2160   0.922   0.499   1.154  2.5501 -2.2374 -1.0835
  721SOL     OW 2161   1.872   0.074   0.993 -0.0610  0.4545  0.2356
  721SOL    HW1 2162   1.950   0.097   0.933 -0.4693 -2.2523 -2.9877
  721SOL    HW2 2163   1.868   0.121   1.083 -0.9128  0.4741 -2.3747
  722SOL     OW 2164   0.849   2.003   1.947  0.2910  0.2258  0.5350
  722SOL    HW1 2165   0.795   1.918   1.969 -1.0347 -2.7090 -0.9590
  722SOL    HW2 2166   0.945   1.996   1.982  0.0640  1.2746  1.6321
  723SOL     OW 2167   1.027   0.029   1.381 -0.1841 -0.0134 -0.6733
  723SOL    HW1 2168   1.093   0.003   1.306  1.5290  1.0797  0.2197
  723SOL    HW2 2169   1.079   0.090   1.445  1.4610  0.2420  0.2287
  724SOL     OW 2170   1.723   2.011   1.914 -0.0567 -0.1756  0.7790
  724SOL    HW1 2171   1.801   1.973   1.859  0.0182 -1.4532  0.2382
  724SOL    HW2 2172   1.716   1.972   2.005 -2.0517  3.7135 -2.1697
  725SOL     OW 2173   1.354   2.752   1.429 -0.5733 -0.9441 -0.3882
  725SOL    HW1 2174   1.425   2.819   1.397 -4.0219  1.6809  2.0186
  725SOL    HW2 2175   1.378   2.690   1.511 -0.4044 -2.6864  1.4305
  726SOL     OW 2176   1.823   0.220   0.289 -0.3442  0.0215 -0.4095
  726SOL    HW1 2177   1.902   0.238   0.348  0.9016 -1.2361 -1.6051
  726SOL    HW2 2178   1.823   0.130   0.248 -2.8052 -0.3242  0.3513
  727SOL     OW 2179   1.363   1.938   0.760 -0.3571 -1.1897  0.6805
  727SOL    HW1 2180   1.354   1.893   0.851 -0.0612 -0.9694  2.1268
  727SOL    HW2 2181   1.375   2.036   0.780 -3.6879  3.1226 -0.1829
  728SOL     OW 2182   1.794   3.001   2.511  0.7123  0.0714 -0.5555
  728SOL    HW1 2183   1.715   2.955   2.466  0.7979  1.2460  2.2862
  728SOL    HW2 2184   1.771   3.021   2.606 -0.3231 -0.3913 -0.6299
  729SOL     OW 2185   2.231   2.341   1.709  0.2686 -0.3640 -0.3966
  729SOL    HW1 2186   2.239   2.392   1.799  0.0308 -1.9414 -0.9707
  729SOL    HW2 2187   2.307   2.276   1.709 -2.4474  2.5925  0.8693
  730SOL     OW 2188   1.704   0.574   2.553  0.1762  0.4838  0.9939
  730SOL    HW1 2189   1.697   0.527   2.648 -2.0813 -0.5487  3.1549
  730SOL    HW2 2190   1.693   0.509   2.476 -0.8727  1.2443  2.0338
  731SOL     OW 2191   0.516   0.041   1.320  0.7247  0.5003  0.2681
  731SOL    HW1 2192   0.538   0.139   1.341  1.6526 -0.5554 -1.6427
  731SOL    HW2 2193   0.560   3.104   1.386 -1.2106 -0.7681 -2.6126
  732SOL     OW 2194   1.917   2.861   1.215 -0.1073  0.1822 -0.7917
  732SOL    HW1 2195   1.876   2.914   1.146  0.6138 -0.8089  2.1220
  732SOL    HW2 2196   1.859   2.777   1.221 -0.7762 -1.5872 -2.4043
  733SOL     OW 2197   1.237   0.907   1.267 -0.1357 -0.0184 -0.4985
  733SOL    HW1 2198   1.137   0.873   1.257 -0.4127 -3.3002  2.1860
  733SOL    HW2 2199   1.257   0.962   1.350 -1.9285 -0.6578  2.1358
  734SOL     OW 2200   2.622   2.275   0.553 -0.4035 -0.2378  0.1797
  734SOL    HW1 2201   2.538   2.317   0.520  1.9258  0.5387  0.1442
  734SOL    HW2 2202   2.616   2.253   0.656 -0.6465 -1.7949  1.4720
  735SOL     OW 2203   0.436   0.483   0.039  0.1739  0.0010  0.2144
  735SOL    HW1 2204   0.436   0.587   0.037  2.7363  1.2838 -1.7382
  735SOL    HW2 2205   0.509   0.459   0.108  2.0457  1.2181  2.1174
  736SOL     OW 2206   2.054   2.293   2.647 -0.4745 -0.3207 -0.0435
  736SOL    HW1 2207   2.024   2.362   2.581 -0.3974  1.1173  0.1824
  736SOL    HW2 2208   2.008   2.314   2.734  1.4708 -0.0305 -0.0620
  737SOL     OW 2209   1.066   2.374   1.116 -0.4134  0.0970 -0.2495
  737SOL    HW1 2210   1.044   2.406   1.213 -2.7283  1.8965  0.4770
  737SOL    HW2 2211   0.988   2.322   1.076  1.2228 -0.9202 -0.4151
  738SOL     OW 2212   1.516   2.883   2.055  0.1461 -0.5143 -0.1720
  738SOL    HW1 2213   1.480   2.940   2.131  0.2379  2.6645 -0.2516
  738SOL    HW2 2214   1.598   2.825   2.080  0.4333 -0.3602  0.0052
  739SOL     OW 2215   1.098   2.095   2.071 -0.8731 -0.6851  0.0697
  739SOL    HW1 2216   1.199   2.086   2.056  0.6844 -3.3139  0.0993
  739SOL    HW2 2217   1.075   2.077   2.167  2.1575 -2.2108 -1.2832
  740SOL     OW 2218   1.980   2.236   1.746 -0.3256 -0.2820 -0.2313
  740SOL    HW1 2219   1.972   2.186   1.663  1.3958  3.1291  0.9387
  740SOL    HW2 2220   2.071   2.275   1.757 -0.7243  1.8176 -0.7941
  741SOL     OW 2221   2.222   1.786   0.157 -0.1604  0.2317 -0.0087
  741SOL    HW1 2222   2.170   1.704   0.188  1.5903 -1.9440 -3.2580
  741SOL    HW2 2223   2.278   1.771   0.076 -1.6475 -1.9125  1.8227
  742SOL     OW 2224   1.053   1.082   2.878 -0.4659  0.4059 -0.6572
  742SOL    HW1 2225   0.990   1.141   2.817  0.1845 -0.8610 -0.6576
  742SOL    HW2 2226   1.142   1.057   2.831 -0.1304 -2.5277 -1.7477
  743SOL     OW 2227   2.641   1.161   2.508  0.2277 -0.0891  0.2677
  743SOL    HW1 2228   2.677   1.077   2.453 -0.3354 -0.6989  1.2318
  743SOL    HW2 2229   2.540   1.174   2.503  0.9807  0.2421 -1.0533
  744SOL     OW 2230   2.306   2.485   1.932  0.0144  0.4528  0.4417
  744SOL    HW1 2231   2.266   2.492   2.024  0.3557  1.3372 -3.9521
  744SOL    HW2 2232   2.314   2.582   1.895 -1.1206 -0.3367  0.5317
  745SOL     OW 2233   2.740   1.718   1.470  0.6720 -0.3587 -0.7299
  745SOL    HW1 2234   2.717   1.807   1.430  0.6547  0.3117 -0.1997
  745SOL    HW2 2235   2.653   1.677   1.506  2.1290  0.3457  0.4346
  746SOL     OW 2236   2.911   1.392   0.799 -0.2366  0.2640  0.6309
  746SOL    HW1 2237   2.902   1.491   0.818  2.3685 -0.1309 -0.3865
  746SOL    HW2 2238   2.900   1.332   0.885  0.2683 -0.8108 -0.9719
  747SOL     OW 2239   1.801   2.456   0.256  0.0112 -0.1285  0.2473
  747SOL    HW1 2240   1.881   2.437   0.312 -1.4699  0.0247  0.9479
  747SOL    HW2 2241   1.758   2.365   0.230 -0.3799  1.1287 -1.0236
  748SOL     OW 2242   0.739   2.193   0.064 -0.2977  0.5932 -0.2650
  748SOL    HW1 2243   0.742   2.186   3.089  3.7426 -0.1323  2.3204
  748SOL    HW2 2244   0.744   2.104   0.112  0.4552  0.0571  1.4768
  749SOL     OW 2245   2.758   0.493   2.105  0.3456 -0.2587 -0.7077
  749SOL    HW1 2246   2.766   0.555   2.187  0.7166  0.0806  1.6561
  749SOL    HW2 2247   2.702   0.541   2.036 -0.6388 -1.5638  0.9869
  750SOL     OW 2248   1.430   0.277   1.381 -0.1325  0.5102 -0.0745
  750SOL    HW1 2249   1.408   0.284   1.479 -1.2933 -1.9303 -0.2078
  750SOL    HW2 2250   1.450   0.182   1.346  3.5920 -2.3124  0.8219
  751SOL     OW 2251   2.277   2.466   2.434 -0.3229  0.8622  0.3356
  751SOL    HW1 2252   2.182   2.445   2.471  0.8300  1.3197 -0.9632
  751SOL    HW2 2253   2.315   2.539   2.493 -0.9078  1.3712 -0.4989
  752SOL     OW 2254   2.030   1.855   1.022 -0.7613  0.0049  0.1302
  752SOL    HW1 2255   1.965   1.842   1.097  2.7788 -0.4781  0.6038
  752SOL    HW2 2256   2.086   1.770   1.013 -3.2869 -0.6558 -0.7988
  753SOL     OW 2257   1.433   0.693   2.396  0.6532 -0.3743  0.1238
  753SOL    HW1 2258   1.463   0.784   2.425 -1.0676 -2.4154 -1.6314
  753SOL    HW2 2259   1.512   0.642   2.361  0.2200 -2.5979  0.2898
  754SOL     OW 2260   0.198   2.688   0.919 -0.3961  0.0196  0.5622
  754SOL    HW1 2261   0.225   2.786   0.906 -1.3387 -0.3413 -0.4002
  754SOL    HW2 2262   0.124   2.681   0.987  0.1940  1.8178 -1.2500
  755SOL     OW 2263   2.264   0.024   1.687 -0.1312 -0.0373 -0.0318
  755SOL    HW1 2264   2.343   3.109   1.637 -0.3642  1.5561 -2.4571
  755SOL    HW2 2265   2.203   0.070   1.615  0.1099 -0.2568  0.2510
  756SOL     OW 2266   1.716   1.041   2.466  0.0522 -0.7016 -0.3122
  756SOL    HW1 2267   1.666   0.960   2.496  0.7614 -1.2186 -1.2407
  756SOL    HW2 2268   1.707   1.068   2.367  1.5569  0.0632 -1.3622
  757SOL     OW 2269   2.949   2.907   1.870 -0.2136 -0.1497 -0.2093
  757SOL    HW1 2270   2.874   2.915   1.939  1.5687  0.2915 -0.4380
  757SOL    HW2 2271   2.909   2.862   1.788  0.6932  3.1597  1.3554
  758SOL     OW 2272   0.392   0.085   1.603 -0.0413 -0.4878  0.1591
  758SOL    HW1 2273   0.347   0.079   1.697  1.8095  1.1238 -0.7216
  758SOL    HW2 2274   0.455   0.005   1.587 -2.3874 -1.2349  1.6610
  759SOL     OW 2275   2.265   1.208   0.785  0.6268  0.3756  0.0225
  759SOL    HW1 2276   2.322   1.180   0.703  1.3664  2.1982 -3.0839
  759SOL    HW2 2277   2.243   1.305   0.783  0.4334 -2.8792  0.1645
  760SOL     OW 2278   1.599   0.147   1.692 -0.1285  0.8469 -0.0030
  760SOL    HW1 2279   1.628   0.245   1.686  0.7763  0.3094  1.7204
  760SOL    HW2 2280   1.550   0.131   1.783 -2.6169 -3.3149  0.7434
  761SOL     OW 2281   1.979   0.513   0.590 -0.1405 -0.1795  0.1386
  761SOL    HW1 2282   2.034   0.477   0.511  1.4940  1.6115 -2.5528
  761SOL    HW2 2283   1.884   0.518   0.556  1.2660  1.4306  0.7374
  762SOL     OW 2284   2.428   2.767   3.054  0.3286  0.2877  0.2326
  762SOL    HW1 2285   2.481   2.706   3.120  3.5683 -1.4793  0.6144
  762SOL    HW2 2286   2.340   2.724   3.027  0.7513  0.1738  1.6651
  763SOL     OW 2287   0.960   0.803   1.067 -0.1247 -0.6237  0.5167
  763SOL    HW1 2288   0.953   0.701   1.069 -0.1064  1.8693  2.0184
  763SOL    HW2 2289   1.038   0.838   1.014  0.6680 -3.0673  0.2193
  764SOL     OW 2290   2.311   2.480   2.830  0.4470  0.1574  0.1943
  764SOL    HW1 2291   2.251   2.511   2.902  0.2900 -1.7019  1.4577
  764SOL    HW2 2292   2.279   2.518   2.740  0.9077 -0.4251 -1.2448
  765SOL     OW 2293   0.287   0.869   2.162 -0.2050  0.5828  0.1030
  765SOL    HW1 2294   0.310   0.847   2.260  0.4291 -0.1633 -0.0286
  765SOL    HW2 2295   0.361   0.927   2.120 -1.4834  1.5919 -0.6917
  766SOL     OW 2296   2.711   1.538   2.740 -0.0141  0.0080 -0.0140
  766SOL    HW1 2297   2.632   1.592   2.786 -3.1141  2.3440  1.5076
  766SOL    HW2 2298   2.696   1.545   2.643  1.2849 -1.0623  1.5839
  767SOL     OW 2299   0.074   1.658   2.079 -0.2995 -0.0820 -0.2816
  767SOL    HW1 2300   3.105   1.666   2.091  3.1068 -1.0154 -2.3776
  767SOL    HW2 2301   0.099   1.563   2.047  0.5443  1.6605 -1.5303
  768SOL     OW 2302   0.971   1.029   0.201  0.0605 -0.4531 -0.1619
  768SOL    HW1 2303   0.901   0.953   0.196 -1.6841  0.6553 -2.6584
  768SOL    HW2 2304   1.054   0.995   0.246  0.2582  0.5835  1.0796
  769SOL     OW 2305   1.780   2.775   2.776  0.5946 -1.0281  0.4578
  769SOL    HW1 2306   1.694   2.820   2.771  2.4421 -1.6819  1.6074
  769SOL    HW2 2307   1.837   2.830   2.847 -1.3763 -0.6868  1.1993
  770SOL     OW 2308   0.515   0.254   2.335  0.5167  0.6276 -0.3322
  770SOL    HW1 2309   0.420   0.244   2.302 -0.4290  0.9513 -0.0231
  770SOL    HW2 2310   0.563   0.321   2.277 -0.8569  0.4199  2.7246
  771SOL     OW 2311   0.799   2.273   1.070  0.4964  0.2099 -0.2204
  771SOL    HW1 2312   0.797   2.371   1.072 -0.1940 -0.9465  1.5172
  771SOL    HW2 2313   0.825   2.243   0.977  3.4410 -1.2865  2.3227
  772SOL     OW 2314   0.401   0.751   0.026 -0.9461  0.0434  0.4662
  772SOL    HW1 2315   0.457   0.800   3.079 -0.0042  0.7307  0.3457
  772SOL    HW2 2316   0.307   0.741   0.006  1.5515 -0.2036  1.8362
  773SOL     OW 2317   2.052   0.867   1.870  0.1933 -0.3100 -0.4049
  773SOL    HW1 2318   2.131   0.844   1.805 -0.8559 -0.2271  1.0425
  773SOL    HW2 2319   1.994   0.785   1.898  0.8724  0.2366  0.0130
  774SOL     OW 2320   0.984   1.247   0.600  0.2625  0.2101 -0.2745
  774SOL    HW1 2321   0.903   1.191   0.622  2.3715  0.6888 -1.2107
  774SOL    HW2 2322   1.009   1.308   0.677  1.1271  1.7573  0.5801
  775SOL     OW 2323   1.767   0.088   3.087 -0.1995  0.0923  0.6010
  775SOL    HW1 2324   1.672   0.074   3.054  3.0238 -1.6959 -3.5031
  775SOL    HW2 2325   1.814   0.149   3.024 -1.8425 -1.1821 -2.0111
  776SOL     OW 2326   2.299   0.223   2.476  0.0479  0.3858 -0.2604
  776SOL    HW1 2327   2.400   0.235   2.476  2.9056 -1.0529  0.4592
  776SOL    HW2 2328   2.276   0.129   2.497 -0.0047  1.3597  0.5816
  777SOL     OW 2329   0.978   1.834   0.254 -0.4423  0.3355  0.6126
  777SOL    HW1 2330   1.030   1.764   0.200  0.0844  3.1379 -2.0436
  777SOL    HW2 2331   0.884   1.843   0.211  1.2166 -4.4388 -0.0684
  778SOL     OW 2332   0.398   2.916   0.290 -0.1135  0.4096 -0.2617
  778SOL    HW1 2333   0.369   2.837   0.353 -0.0218 -2.5449 -0.0556
  778SOL    HW2 2334   0.497   2.919   0.290 -0.8533  2.1881 -2.6055
  779SOL     OW 2335   0.363   1.317   3.058 -0.4091  0.0271 -0.0828
  779SOL    HW1 2336   0.295   1.301   0.007 -2.6757  0.4430 -1.1213
  779SOL    HW2 2337   0.359   1.236   2.991  0.2954 -2.1689  1.1220
  780SOL     OW 2338   2.188   0.302   2.254  0.4440  0.8363 -0.1432
  780SOL    HW1 2339   2.090   0.321   2.232  2.0794  1.3794 -0.1406
  780SOL    HW2 2340   2.202   0.261   2.344 -0.6391  0.5043  0.6302
  781SOL     OW 2341   1.759   0.714   1.756  0.5624 -0.0036  0.2081
  781SOL    HW1 2342   1.829   0.692   1.822  0.1613 -0.4986 -1.0012
  781SOL    HW2 2343   1.779   0.669   1.667 -0.4022 -0.6883 -3.2721
  782SOL     OW 2344   1.710   1.846   2.138 -0.1613 -0.1870  0.2613
  782SOL    HW1 2345   1.758   1.900   2.210 -0.0753 -1.0191 -0.5832
  782SOL    HW2 2346   1.772   1.773   2.094  0.8263 -4.0559  2.1038
  783SOL     OW 2347   1.169   3.015   1.188  0.6845 -0.1091 -0.5484
  783SOL    HW1 2348   1.150   2.923   1.222  1.4461  1.8165 -1.9812
  783SOL    HW2 2349   1.154   3.015   1.091  0.3446 -0.1390  4.9115
  784SOL     OW 2350   1.598   0.831   2.592  0.2064 -0.9260 -0.7334
  784SOL    HW1 2351   1.630   0.735   2.597  0.5933 -1.5226  1.7382
  784SOL    HW2 2352   1.591   0.867   2.690 -1.6590 -0.4532  3.8758
  785SOL     OW 2353   1.832   0.296   2.931 -0.4478 -0.2279  0.0532
  785SOL    HW1 2354   1.911   0.346   2.964 -0.6026 -3.4324  2.2027
  785SOL    HW2 2355   1.766   0.354   2.878  0.2730 -1.4935 -1.3985
  786SOL     OW 2356   2.881   1.697   0.809 -0.1274  0.3956 -0.0218
  786SOL    HW1 2357   2.890   1.688   0.706  2.7869  0.5147 -0.7496
  786SOL    HW2 2358   2.892   1.795   0.837 -2.0589  1.4035  1.3682
  787SOL     OW 2359   1.568   2.056   0.355  0.3729  0.4058  0.4676
  787SOL    HW1 2360   1.560   2.076   0.455 -1.2596 -0.0878  2.1252
  787SOL    HW2 2361   1.555   2.139   0.298  2.0622  3.1489  0.0363
  788SOL     OW 2362   2.042   1.610   1.282 -0.0528 -0.5507 -0.1624
  788SOL    HW1 2363   2.113   1.614   1.207 -0.2570  2.1685  3.2009
  788SOL    HW2 2364   2.070   1.683   1.350 -1.2647  0.9701  2.6194
  789SOL     OW 2365   0.061   1.212   2.828 -0.9336  0.3702  0.5497
  789SOL    HW1 2366   0.145   1.242   2.779  0.7702 -1.1011 -0.7665
  789SOL    HW2 2367   0.004   1.152   2.768  0.0395 -1.6579  1.7018
  790SOL     OW 2368   0.488   0.383   2.925 -0.0519  0.7483  0.0268
  790SOL    HW1 2369   0.462   0.420   3.015 -0.1911 -1.1192  0.2119
  790SOL    HW2 2370   0.430   0.424   2.851  1.4158 -1.6221 -1.7186
  791SOL     OW 2371   0.902   0.238   2.341 -0.1549  0.2229  0.0652
  791SOL    HW1 2372   0.824   0.215   2.404  0.4892  3.2470  0.1129
  791SOL    HW2 2373   0.875   0.228   2.242  1.7053  0.8857  1.3819
  792SOL     OW 2374   1.824   0.629   2.141 -0.1445  0.1789 -0.4421
  792SOL    HW1 2375   1.849   0.703   2.213 -3.1347  0.1472  0.2367
  792SOL    HW2 2376   1.724   0.633   2.132 -1.1493 -0.4486 -1.9946
  793SOL     OW 2377   2.617   0.770   1.475  0.0102 -0.3808  0.5602
  793SOL    HW1 2378   2.680   0.712   1.427 -3.8445  0.0390  1.3792
  793SOL    HW2 2379   2.547   0.709   1.523  1.1164  1.1134 -0.4965
  794SOL     OW 2380   0.179   0.610   1.815 -0.0147 -0.0273  0.4553
  794SOL    HW1 2381   0.234   0.685   1.776  2.9822  0.2939  0.8015
  794SOL    HW2 2382   0.204   0.522   1.763 -2.0915 -2.0790 -0.6570
  795SOL     OW 2383   3.075   1.398   0.364  0.1591  0.0857  0.2608
  795SOL    HW1 2384   3.011   1.473   0.369  2.5871  1.6482 -3.0893
  795SOL    HW2 2385   0.039   1.437   0.398 -3.3691 -0.3207 -1.3512
  796SOL     OW 2386   0.252   2.719   3.011  0.1244  0.8067  0.6510
  796SOL    HW1 2387   0.205   2.760   3.091  0.7446 -1.4126  1.4031
  796SOL    HW2 2388   0.240   2.774   2.927  0.4475 -1.5590  1.0042
  797SOL     OW 2389   2.162   2.655   3.011  0.1705  0.1512  0.4287
  797SOL    HW1 2390   2.090   2.610   3.069 -1.2915 -0.4133 -0.4932
  797SOL    HW2 2391   2.129   2.672   2.917  1.1087  1.4386  1.4849
  798SOL     OW 2392   0.203   1.054   1.712 -0.5354 -0.5787  0.1295
  798SOL    HW1 2393   0.280   1.101   1.671 -4.1153 -0.1490  1.6177
  798SOL    HW2 2394   0.125   1.058   1.647  1.1514  1.3242 -0.8791
  799SOL     OW 2395   2.920   0.635   2.579  0.2865  0.4933  0.6021
  799SOL    HW1 2396   2.861   0.631   2.496  1.7609  2.1827 -1.3953
  799SOL    HW2 2397   3.006   0.584   2.567  0.0002  3.1334  1.5034
  800SOL     OW 2398   2.895   1.998   0.916 -0.4796 -0.2764  0.1338
  800SOL    HW1 2399   2.938   2.071   0.864  0.0196  0.1473 -2.7696
  800SOL    HW2 2400   2.883   2.026   1.013  1.2845 -0.5441  0.0146
  801SOL     OW 2401   1.802   1.169   0.980  0.1498  1.0141 -0.2995
  801SOL    HW1 2402   1.886   1.154   0.921  0.6603 -0.9273 -3.8610
  801SOL    HW2 2403   1.774   1.269   0.975  0.6272 -0.7706 -1.6657
  802SOL     OW 2404   1.168   1.811   1.480  0.0400  0.4386 -0.0732
  802SOL    HW1 2405   1.234   1.870   1.533  0.1773 -0.1293  2.2979
  802SOL    HW2 2406   1.123   1.865   1.403  1.6432  0.8058 -0.4026
  803SOL     OW 2407   0.056   1.850   0.432 -0.0558  0.2084 -0.4226
  803SOL    HW1 2408   0.147   1.817   0.470  0.6050  0.7662  1.7182
  803SOL    HW2 2409   0.068   1.880   0.337 -0.8482  0.4577 -0.8076
  804SOL     OW 2410   1.019   2.494   1.373 -0.3037 -0.6582  0.0050
  804SOL    HW1 2411   1.099   2.460   1.428 -0.0395 -0.1894  0.8246
  804SOL    HW2 2412   0.939   2.503   1.434 -2.3886  4.2961 -0.3625
  805SOL     OW 2413   1.515   0.991   0.147  0.1503 -0.0928 -0.1098
  805SOL    HW1 2414   1.501   1.092   0.143  0.0199 -0.2065  1.9520
  805SOL    HW2 2415   1.515   0.951   0.050 -1.6388 -0.9880 -2.2664
  806SOL     OW 2416   1.464   3.007   1.027 -0.1257  0.2181 -0.3887
  806SOL    HW1 2417   1.402   2.963   0.964  2.7373  3.0973  3.1554
  806SOL    HW2 2418   1.420   3.009   1.119  0.6285 -0.8861 -1.5312
  807SOL     OW 2419   2.197   2.988   2.764  0.5288 -0.1749  0.1175
  807SOL    HW1 2420   2.193   3.088   2.776  0.9351 -0.6329 -0.3298
  807SOL    HW2 2421   2.289   2.954   2.768 -2.5937  2.5107  1.7084
  808SOL     OW 2422   0.152   1.313   0.155 -0.5962  0.2301 -0.2072
  808SOL    HW1 2423   0.096   1.381   0.205  0.6824 -0.2639  3.9192
  808SOL    HW2 2424   0.201   1.244   0.215 -0.6275 -2.9680  0.2197
  809SOL     OW 2425   2.702   0.968   2.358  0.2342  0.2164  0.1987
  809SOL    HW1 2426   2.768   0.946   2.281  2.4924 -1.1960 -2.4159
  809SOL    HW2 2427   2.612   0.931   2.343  3.2039 -1.6862  0.1685
  810SOL     OW 2428   2.457   2.772   1.998 -0.1937  0.2039 -0.0661
  810SOL    HW1 2429   2.386   2.783   1.924 -1.4750  1.5943  0.8761
  810SOL    HW2 2430   2.415   2.793   2.090 -0.1874 -0.0455  1.0704
  811SOL     OW 2431   2.691   2.642   1.832 -0.3560  0.6190 -0.0851
  811SOL    HW1 2432   2.686   2.714   1.900  1.1164 -0.1049 -1.2438
  811SOL    HW2 2433   2.768   2.580   1.850  0.5984 -1.3452 -0.4952
  812SOL     OW 2434   1.529   0.405   0.049  0.0461 -0.4577  0.4566
  812SOL    HW1 2435   1.527   0.357   3.089  0.0200  1.9512  0.9488
  812SOL    HW2 2436   1.625   0.424   0.080  1.6566 -0.2584 -1.0187
  813SOL     OW 2437   2.002   0.027   1.974  0.2257  1.0209 -0.3120
  813SOL    HW1 2438   2.019   3.081   1.904  2.3822  2.4442 -0.9167
  813SOL    HW2 2439   2.007   0.115   1.921  2.4680  2.1336 -0.5613
  814SOL     OW 2440   1.794   1.216   1.652 -0.4655  0.0300 -0.2544
  814SOL    HW1 2441   1.811   1.246   1.747 -0.3433  1.1940  1.1357
  814SOL    HW2 2442   1.732   1.281   1.604 -3.3674  0.2600 -2.4473
  815SOL     OW 2443   0.439   0.871   0.496  0.6787  0.0520 -0.1258
  815SOL    HW1 2444   0.456   0.888   0.397 -1.6055  2.7028 -2.2121
  815SOL    HW2 2445   0.453   0.954   0.557 -3.4633  2.5913  2.3093
  816SOL     OW 2446   2.137   1.715   2.894 -0.0035 -0.0883 -0.4521
  816SOL    HW1 2447   2.166   1.641   2.832 -0.7548  0.6078  0.5399
  816SOL    HW2 2448   2.052   1.688   2.940 -0.4526  1.2140 -0.5147
  817SOL     OW 2449   0.240   2.931   0.634 -0.5770  0.8483  0.2525
  817SOL    HW1 2450   0.269   2.839   0.604 -0.3661 -4.2382 -1.6847
  817SOL    HW2 2451   0.262   2.938   0.736  0.9897  3.1440  2.2263
  818SOL     OW 2452   1.878   0.205   2.608 -0.2388 -0.6806  0.1621
  818SOL    HW1 2453   1.964   0.261   2.616  0.0249 -0.5374  1.2580
  818SOL    HW2 2454   1.827   0.191   2.693 -1.5036 -0.1458 -0.6311
  819SOL     OW 2455   1.304   1.039   0.573  0.1326  0.1412 -0.3313
  819SOL    HW1 2456   1.242   1.037   0.490  1.2583  0.0733 -2.4479
  819SOL    HW2 2457   1.269   1.104   0.649  0.0880  0.8969  1.0795
  820SOL     OW 2458   2.217   0.890   0.809  0.3800 -0.2578  0.1148
  820SOL    HW1 2459   2.308   0.875   0.849 -1.0385  0.0722 -1.8110
  820SOL    HW2 2460   2.223   0.908   0.708 -2.5019 -1.1643 -0.2543
  821SOL     OW 2461   2.323   0.046   0.422 -0.3425  0.3390 -0.3828
  821SOL    HW1 2462   2.399   0.002   0.366  0.4639 -3.4454  4.1240
  821SOL    HW2 2463   2.236   3.119   0.413 -0.0376  1.9464  0.6403
  822SOL     OW 2464   0.677   2.848   2.688 -0.0540  0.5918  0.0545
  822SOL    HW1 2465   0.721   2.788   2.758  4.0707  2.0799  0.7877
  822SOL    HW2 2466   0.657   2.790   2.610  1.7168 -0.5230  1.7687
  823SOL     OW 2467   0.040   2.369   1.940  0.0891  0.1011 -0.1458
  823SOL    HW1 2468   3.079   2.350   1.998 -1.5551  0.2869 -0.3952
  823SOL    HW2 2469   0.036   2.453   1.884 -0.3770  2.4065  1.6426
  824SOL     OW 2470   0.852   2.836   2.112  0.1281 -0.1467 -0.0556
  824SOL    HW1 2471   0.879   2.914   2.051 -1.5635  1.0168  0.8965
  824SOL    HW2 2472   0.842   2.754   2.048  1.0153  0.0589  0.3489
  825SOL     OW 2473   1.402   1.662   0.407  0.0483  0.5759  0.3072
  825SOL    HW1 2474   1.365   1.566   0.392 -1.4810 -0.5354  0.5592
  825SOL    HW2 2475   1.340   1.734   0.374  3.2281  0.4213  2.2693
  826SOL     OW 2476   1.224   3.041   3.019  0.9502 -0.1176  0.5226
  826SOL    HW1 2477   1.203   3.032   2.919 -1.7945 -0.7664  1.7910
  826SOL    HW2 2478   1.284   2.964   3.049  0.5925  0.2309  1.5739
  827SOL     OW 2479   0.291   1.567   1.435  0.0091 -0.0183 -0.1705
  827SOL    HW1 2480   0.375   1.623   1.441 -0.6290 -1.9476  0.8288
  827SOL    HW2 2481   0.277   1.519   1.349  0.1393  0.2320  2.5671
  828SOL     OW 2482   2.305   1.352   1.437 -0.5577  0.3760 -0.2711
  828SOL    HW1 2483   2.210   1.381   1.448  0.0745 -1.1837  0.6381
  828SOL    HW2 2484   2.340   1.299   1.519 -0.0266  1.5566  0.5649
  829SOL     OW 2485   3.033   2.119   0.314 -0.4222 -0.0483  0.9621
  829SOL    HW1 2486   3.015   2.029   0.268 -1.1987  0.5278  1.2115
  829SOL    HW2 2487   3.057   2.187   0.239 -0.2126 -0.3903 -1.1408
  830SOL     OW 2488   1.052   0.609   0.682 -0.7610  0.1261 -0.2428
  830SOL    HW1 2489   1.149   0.609   0.715  3.0333 -1.2110 -1.5189
  830SOL    HW2 2490   1.012   0.701   0.682 -1.8124 -3.7950 -0.0917
  831SOL     OW 2491   3.012   1.945   2.985  0.5210 -0.1529  0.0247
  831SOL    HW1 2492   2.946   1.872   2.958 -2.4999 -0.4132  0.3152
  831SOL    HW2 2493   2.976   2.035   2.957  0.9351 -1.8153  0.5047
  832SOL     OW 2494   0.991   2.708   0.187  0.2012 -0.4665  0.5453
  832SOL    HW1 2495   0.918   2.779   0.181  0.2933  2.2604 -0.3770
  832SOL    HW2 2496   1.051   2.708   0.269 -2.1317 -0.1208  1.1732
  833SOL     OW 2497   1.125   0.408   2.292 -0.2592  0.1769  0.2497
  833SOL    HW1 2498   1.039   0.367   2.327  1.0800 -3.9064 -0.0725
  833SOL    HW2 2499   1.130   0.507   2.298 -0.4534 -1.9739 -0.6904
  834SOL     OW 2500   0.049   0.891   0.716  0.5394  0.6901 -0.0334
  834SOL    HW1 2501   3.081   0.910   0.684  1.1689 -0.0326  2.5045
  834SOL    HW2 2502   0.059   0.789   0.701  1.9724 -1.8205 -0.6293
  835SOL     OW 2503   2.450   0.402   1.941 -0.2403  0.6788 -0.0256
  835SOL    HW1 2504   2.514   0.479   1.925  1.9539 -2.5027  6.0363
  835SOL    HW2 2505   2.456   0.373   2.043  1.8982  0.9440  2.5764
  836SOL     OW 2506   0.499   2.250   0.786  0.2636  0.5231 -0.1048
  836SOL    HW1 2507   0.415   2.244   0.728 -2.0546  0.4392 -1.1008
  836SOL    HW2 2508   0.580   2.278   0.734  0.9958 -1.9066  0.4254
  837SOL     OW 2509   2.140   1.849   2.247  0.2181  0.5531  0.3238
  837SOL    HW1 2510   2.219   1.814   2.189  2.9521 -1.4140 -1.3315
  837SOL    HW2 2511   2.170   1.840   2.344  1.8530  3.2766  1.6397
  838SOL     OW 2512   0.376   1.246   1.568  0.4404 -0.1418  0.5696
  838SOL    HW1 2513   0.372   1.233   1.467  0.2610 -1.1472  2.2702
  838SOL    HW2 2514   0.444   1.323   1.584 -2.8154  0.8175  0.5626
  839SOL     OW 2515   0.097   0.218   0.509 -0.7021  0.2221  0.2334
  839SOL    HW1 2516   0.156   0.290   0.465 -0.0256  1.7423 -0.4820
  839SOL    HW2 2517   0.139   0.130   0.494 -2.5337  2.0622 -2.0305
  840SOL     OW 2518   0.221   0.528   2.462  0.1045  0.5077 -0.0107
  840SOL    HW1 2519   0.177   0.540   2.374  2.6081 -2.2409  2.0779
  840SOL    HW2 2520   0.147   0.498   2.527  1.6435 -0.8919 -1.3714
  841SOL     OW 2521   0.388   2.531   2.763 -0.3275 -0.0981 -0.1344
  841SOL    HW1 2522   0.487   2.515   2.734 -3.1269 -0.4960 -0.7430
  841SOL    HW2 2523   0.376   2.583   2.847 -2.3669  0.3397 -0.3829
  842SOL     OW 2524   0.598   3.029   1.108 -0.4449  0.0171 -0.3866
  842SOL    HW1 2525   0.701   3.015   1.104  3.1710 -1.8357  1.4461
  842SOL    HW2 2526   0.560   3.078   1.192 -2.0016 -0.5146  2.1202
  843SOL     OW 2527   0.426   1.598   2.728 -0.0268  0.4590  0.5455
  843SOL    HW1 2528   0.426   1.617   2.829  2.9137  1.0239  2.5763
  843SOL    HW2 2529   0.511   1.547   2.699 -1.8953  0.0240  0.4105
  844SOL     OW 2530   1.016   2.158   2.330 -0.5584  0.1559 -0.2231
  844SOL    HW1 2531   1.077   2.240   2.316  0.5635  0.2855 -0.1428
  844SOL    HW2 2532   1.048   2.103   2.410 -2.3362 -0.7886  0.2450
  845SOL     OW 2533   2.337   2.703   2.574  0.2629 -0.3707 -0.1406
  845SOL    HW1 2534   2.396   2.738   2.497  1.7672 -0.0750 -0.9466
  845SOL    HW2 2535   2.365   2.755   2.657  3.0175  1.4101 -0.4114
  846SOL     OW 2536   2.120   1.236   2.723  0.2811 -0.5849  0.5210
  846SOL    HW1 2537   2.040   1.269   2.775  2.2254 -2.0795 -2.0160
  846SOL    HW2 2538   2.080   1.192   2.640 -0.1616  1.1541 -1.1128
  847SOL     OW 2539   2.661   0.202   2.750  0.3309 -0.0028 -0.0795
  847SOL    HW1 2540   2.723   0.280   2.763  0.6680  1.0074  0.6546
  847SOL    HW2 2541   2.570   0.233   2.779 -0.7116 -3.0365  0.8243
  848SOL     OW 2542   3.049   0.952   0.165 -0.4238 -0.1766  0.0357
  848SOL    HW1 2543   3.031   1.026   0.229 -1.5733 -2.8387 -2.4991
  848SOL    HW2 2544   3.090   0.989   0.082  0.5964 -0.5279  1.2204
  849SOL     OW 2545   1.360   0.371   2.486 -0.2841  0.1121 -0.1641
  849SOL    HW1 2546   1.322   0.374   2.582  0.3496  1.4969 -0.9652
  849SOL    HW2 2547   1.288   0.390   2.418  0.8119 -1.5219  0.3657
  850SOL     OW 2548   0.260   1.171   0.381 -0.0280 -0.0295  0.5838
  850SOL    HW1 2549   0.268   1.081   0.329  3.4311  1.0394  0.7303
  850SOL    HW2 2550   0.229   1.155   0.480  0.0187  2.4094 -1.1606
  851SOL     OW 2551   0.525   1.618   0.519 -0.2112 -0.9960 -0.2987
  851SOL    HW1 2552   0.628   1.610   0.533  2.1431 -1.4576 -0.5628
  851SOL    HW2 2553   0.493   1.528   0.487  0.2396 -2.0883  2.1617
  852SOL     OW 2554   1.225   1.254   1.554 -0.0919 -0.5049 -0.5467
  852SOL    HW1 2555   1.153   1.186   1.567  2.5633 -0.5599  0.7655
  852SOL    HW2 2556   1.312   1.199   1.553  1.8468  0.7304  0.6132
  853SOL     OW 2557   2.577   1.169   0.386  0.9833  0.2920 -0.0442
  853SOL    HW1 2558   2.611   1.266   0.395  1.6622 -0.6927 -0.2047
  853SOL    HW2 2559   2.506   1.147   0.458 -0.6931  0.9455  0.4512
  854SOL     OW 2560   1.475   1.074   2.161 -0.4107 -0.8037 -0.0655
  854SOL    HW1 2561   1.481   1.091   2.061 -0.6436  0.7847  0.3386
  854SOL    HW2 2562   1.394   1.123   2.203 -1.3945 -0.0603  0.6838
  855SOL     OW 2563   0.651   2.539   2.661  0.2875 -0.1648 -0.1719
  855SOL    HW1 2564   0.707   2.476   2.604  0.4409 -0.6357 -0.0658
  855SOL    HW2 2565   0.712   2.565   2.740 -0.9955  2.7282  0.2774
  856SOL     OW 2566   1.169   0.874   2.071 -0.6964  0.3265  0.1529
  856SOL    HW1 2567   1.195   0.907   1.973  1.2667  0.2108 -2.5434
  856SOL    HW2 2568   1.122   0.943   2.126 -2.4714 -1.9874  1.0652
  857SOL     OW 2569   1.085   1.065   2.488 -0.1936 -0.4204  0.2889
  857SOL    HW1 2570   0.985   1.053   2.454 -1.9195  0.7492 -3.1566
  857SOL    HW2 2571   1.142   1.126   2.430 -0.1546  2.2383 -0.2770
  858SOL     OW 2572   2.887   1.100   1.714 -0.5721  0.1220  0.0987
  858SOL    HW1 2573   2.901   1.112   1.614  2.9233 -1.7504 -0.5639
  858SOL    HW2 2574   2.949   1.031   1.750 -1.8543  0.3589 -2.8950
  859SOL     OW 2575   2.618   0.096   0.883  0.2425  0.3975  0.0051
  859SOL    HW1 2576   2.553   0.102   0.803 -2.0933  3.2768  0.1232
  859SOL    HW2 2577   2.622   0.005   0.931  1.4452 -0.1572 -2.1467
  860SOL     OW 2578   1.589   0.390   1.093  0.0295 -0.3278 -0.6308
  860SOL    HW1 2579   1.580   0.297   1.050 -2.0799  0.5746  1.0336
  860SOL    HW2 2580   1.611   0.383   1.193  0.6493 -0.1243 -0.7117
  861SOL     OW 2581   1.776   0.699   1.210  0.1905 -0.2647  0.2876
  861SOL    HW1 2582   1.686   0.712   1.261 -0.5196  1.0950  1.1551
  861SOL    HW2 2583   1.775   0.627   1.133 -1.0823  0.5528 -0.1835
  862SOL     OW 2584   1.380   3.063   2.647 -0.2759  0.6068 -0.4075
  862SOL    HW1 2585   1.435   2.975   2.646  0.3250 -3.4624 -0.5767
  862SOL    HW2 2586   1.407   0.010   2.579 -1.5333  2.4497 -1.3337
  863SOL     OW 2587   2.992   2.919   1.256 -0.1049 -0.3761  0.2766
  863SOL    HW1 2588   2.990   3.013   1.217 -1.0426 -1.6291  1.7697
  863SOL    HW2 2589   2.984   2.853   1.180 -0.2429  0.6522 -2.2346
  864SOL     OW 2590   2.496   0.050   2.121 -0.0736  0.5447 -0.2521
  864SOL    HW1 2591   2.516   0.141   2.154  1.5942 -3.2793 -0.7174
  864SOL    HW2 2592   2.395   0.038   2.099 -1.2430 -2.6479 -0.4117
  865SOL     OW 2593   1.279   1.455   2.597  0.1865  0.0498 -0.1446
  865SOL    HW1 2594   1.188   1.413   2.571  0.6812  0.0180  0.5062
  865SOL    HW2 2595   1.285   1.471   2.696 -1.8627  3.1646 -1.9986
  866SOL     OW 2596   2.315   3.038   0.790 -0.6483 -0.2067 -0.5077
  866SOL    HW1 2597   2.275   2.960   0.739 -1.0299 -0.2207  1.1901
  866SOL    HW2 2598   2.331   3.022   0.888  1.8054 -1.4816 -0.9007
  867SOL     OW 2599   3.041   2.802   1.003  0.2461  0.1058  0.0114
  867SOL    HW1 2600   3.053   2.894   0.967 -2.8981  0.9726 -0.6199
  867SOL    HW2 2601   3.018   2.730   0.932  0.9839 -1.7979 -1.0275
  868SOL     OW 2602   0.114   1.770   1.491  0.4426  0.2615  0.5052
  868SOL    HW1 2603   0.168   1.695   1.453 -0.5994  1.9292 -0.0038
  868SOL    HW2 2604   0.155   1.797   1.584 -0.1004 -0.0139 -0.4327
  869SOL     OW 2605   1.912   2.096   2.523 -0.4058 -0.5874 -0.7458
  869SOL    HW1 2606   1.982   2.156   2.566  1.3810 -1.1431  0.0356
  869SOL    HW2 2607   1.867   2.044   2.593 -0.5580  0.5325 -1.8885
  870SOL     OW 2608   1.152   0.940   0.918  0.4542  0.0763 -0.3572
  870SOL    HW1 2609   1.246   0.904   0.941  2.0426 -1.3077 -0.4748
  870SOL    HW2 2610   1.151   1.042   0.922 -1.8211  0.7756 -0.5026
  871SOL     OW 2611   2.914   1.661   2.191  0.1110 -0.1288 -0.6076
  871SOL    HW1 2612   2.881   1.740   2.244 -2.1237  0.2610  0.4533
  871SOL    HW2 2613   2.935   1.576   2.245  0.2390 -0.5248  2.0630
  872SOL     OW 2614   1.032   1.795   2.940 -0.2359  0.0323  0.2647
  872SOL    HW1 2615   1.049   1.754   3.032  0.7918 -0.7424  1.2967
  872SOL    HW2 2616   0.938   1.832   2.938 -3.1232 -0.7656  0.7614
  873SOL     OW 2617   0.999   1.224   1.935 -0.2774  0.2196 -0.7709
  873SOL    HW1 2618   0.900   1.222   1.911 -0.0753  0.3002 -2.0574
  873SOL    HW2 2619   1.045   1.302   1.888 -0.2617 -0.4852 -1.0758
  874SOL     OW 2620   1.391   1.055   1.497  0.5321 -0.5718 -0.0810
  874SOL    HW1 2621   1.399   0.996   1.576 -0.2592  1.9912  0.4957
  874SOL    HW2 2622   1.481   1.054   1.448 -1.5694 -0.2587  2.6351
  875SOL     OW 2623   3.064   0.233   3.069 -0.0959  0.2868 -0.0387
  875SOL    HW1 2624   3.107   0.290   0.012 -3.1815 -2.8565 -3.3267
  875SOL    HW2 2625   2.984   0.284   3.032 -1.6545 -2.0038 -1.2816
  876SOL     OW 2626   0.957   1.270   0.333  0.4722  0.2062 -0.0812
  876SOL    HW1 2627   0.969   1.262   0.435  0.6015  2.1462  0.8456
  876SOL    HW2 2628   0.938   1.180   0.287 -0.7657 -1.5716  0.2721
  877SOL     OW 2629   2.275   2.815   0.355  0.1108  0.2180 -0.5769
  877SOL    HW1 2630   2.248   2.718   0.370  2.7718 -2.3190 -2.7356
  877SOL    HW2 2631   2.335   2.817   0.271 -2.2566  1.6980 -1.9326
  878SOL     OW 2632   1.848   2.040   0.314 -0.0117  0.7596  0.3342
  878SOL    HW1 2633   1.899   2.123   0.338  1.1766 -0.4327  0.5256
  878SOL    HW2 2634   1.746   2.046   0.320  1.7253 -1.8634  0.8161
  879SOL     OW 2635   0.031   1.956   2.077  0.1031 -0.5817 -0.5435
  879SOL    HW1 2636   0.064   1.867   2.047  3.8211  2.0104 -0.5515
  879SOL    HW2 2637   3.063   1.978   2.042 -0.8901 -1.4296 -0.7594
  880SOL     OW 2638   0.098   1.947   0.849 -0.1861  0.8224  0.0090
  880SOL    HW1 2639   0.105   1.858   0.900  0.9894 -0.1139  3.3132
  880SOL    HW2 2640   0.005   1.985   0.856 -1.4236  1.6475  0.0975
  881SOL     OW 2641   1.181   0.296   1.995  0.0307  0.4030 -0.5924
  881SOL    HW1 2642   1.175   0.319   2.092 -0.6363 -0.6705 -1.4469
  881SOL    HW2 2643   1.185   0.371   1.928 -0.5543  1.2384  1.8300
  882SOL     OW 2644   2.488   0.852   0.889  0.0600 -0.0541  0.4743
  882SOL    HW1 2645   2.530   0.776   0.838  1.0044 -0.2389 -1.1597
  882SOL    HW2 2646   2.467   0.829   0.985 -3.6668  0.3592  0.9433
  883SOL     OW 2647   1.631   0.420   1.696 -0.0313  0.3349  0.3633
  883SOL    HW1 2648   1.641   0.436   1.797  1.3239 -1.9050 -1.8972
  883SOL    HW2 2649   1.691   0.477   1.636 -0.5713  2.9785  2.9796
  884SOL     OW 2650   2.926   0.121   1.900  1.0603  0.1662 -0.1250
  884SOL    HW1 2651   2.848   0.060   1.880  4.2371 -0.0116  0.7384
  884SOL    HW2 2652   2.984   0.078   1.967 -1.8034  2.2584 -0.6669
  885SOL     OW 2653   1.875   1.357   2.803  0.3361  0.2454  0.1857
  885SOL    HW1 2654   1.878   1.433   2.869  1.5203 -1.4109 -0.3322
  885SOL    HW2 2655   1.795   1.366   2.741 -0.0566 -0.8736 -0.2665
  886SOL     OW 2656   2.217   0.390   2.991  0.3079  0.2485  0.3897
  886SOL    HW1 2657   2.162   0.331   3.046 -0.3966  1.2686  1.4495
  886SOL    HW2 2658   2.168   0.480   2.997 -1.4068 -0.1791  0.7566
  887SOL     OW 2659   1.115   2.809   1.597 -0.8989 -0.8284 -0.4069
  887SOL    HW1 2660   1.141   2.813   1.692 -2.0039 -3.8345 -3.2840
  887SOL    HW2 2661   1.192   2.799   1.526 -0.5443 -0.3085 -1.5327
  888SOL     OW 2662   1.865   1.658   1.960  0.3316  0.2637 -0.1022
  888SOL    HW1 2663   1.859   1.583   2.029 -0.5569  2.1550 -1.2181
  888SOL    HW2 2664   1.961   1.676   1.936  2.0982  0.6053 -0.1535
  889SOL     OW 2665   1.970   2.464   1.208 -0.0517  0.1713  0.0116
  889SOL    HW1 2666   2.051   2.454   1.264 -3.4874  1.8387  1.3338
  889SOL    HW2 2667   1.945   2.370   1.182  1.7093  0.8818  0.5223
  890SOL     OW 2668   1.325   1.815   1.007  0.4700  0.6641 -0.4059
  890SOL    HW1 2669   1.364   1.800   1.102  0.7669 -0.6736 -4.0174
  890SOL    HW2 2670   1.220   1.818   1.004  0.1549  1.5504 -2.9601
  891SOL     OW 2671   2.923   1.255   0.096 -0.0377 -0.7988 -0.5060
  891SOL    HW1 2672   2.866   1.185   0.053  0.7529 -1.2076 -2.4772
  891SOL    HW2 2673   2.940   1.240   0.195  0.4776 -1.3458  0.3183
  892SOL     OW 2674   2.450   1.314   0.139  0.7365 -0.2789  0.6111
  892SOL    HW1 2675   2.500   1.310   0.048  0.0432  3.5144 -1.5449
  892SOL    HW2 2676   2.497   1.370   0.206 -0.9151 -2.5647 -4.0015
  893SOL     OW 2677   2.098   2.433   1.487  0.6848 -0.0911  0.1212
  893SOL    HW1 2678   2.098   2.531   1.478 -0.6512 -2.3476 -0.4391
  893SOL    HW2 2679   2.124   2.403   1.576 -0.5589  0.7254 -0.5427
  894SOL     OW 2680   2.648   3.062   0.523 -0.4076 -0.6889  0.1189
  894SOL    HW1 2681   2.637   3.061   0.421 -0.6987 -1.1021  2.7007
  894SOL    HW2 2682   2.569   3.113   0.570 -0.5741  1.1849 -0.6589
  895SOL     OW 2683   2.863   2.756   2.801  0.3656 -0.9037  0.9021
  895SOL    HW1 2684   2.839   2.855   2.767 -2.9295  4.5034 -3.3016
  895SOL    HW2 2685   2.806   2.690   2.749 -0.2300  2.1306  1.4970
  896SOL     OW 2686   2.223   0.117   2.816 -0.5602 -0.1398  0.2459
  896SOL    HW1 2687   2.160   0.158   2.755  1.5187 -2.1754  3.2232
  896SOL    HW2 2688   2.230   0.169   2.901 -0.0843  2.0300 -1.1310
  897SOL     OW 2689   0.250   1.695   1.845 -0.0395  0.3082 -0.3245
  897SOL    HW1 2690   0.184   1.697   1.924  2.3266 -1.5363  0.1875
  897SOL    HW2 2691   0.233   1.609   1.786 -2.1831  0.8691 -2.5947
  898SOL     OW 2692   2.772   1.784   1.754 -0.3497  0.1839  0.0506
  898SOL    HW1 2693   2.787   1.714   1.825 -0.5589  1.9678 -0.8131
  898SOL    HW2 2694   2.768   1.730   1.668  3.5470 -1.9116  0.3108
  899SOL     OW 2695   1.624   2.819   1.366  0.3153  0.2196 -0.4483
  899SOL    HW1 2696   1.658   2.735   1.322 -0.1607  0.8404 -0.6899
  899SOL    HW2 2697   1.680   2.850   1.446 -1.2641 -1.5787 -0.8160
  900SOL     OW 2698   1.205   0.935   0.298 -1.0466  0.2139  0.0385
  900SOL    HW1 2699   1.235   0.901   0.208  1.1922 -2.2033  0.7716
  900SOL    HW2 2700   1.225   0.867   0.371  0.7583  0.1091 -3.4161
  901SOL     OW 2701   1.443   1.118   2.698  0.1923 -0.6450 -0.2133
  901SOL    HW1 2702   1.499   1.063   2.768 -0.0630 -0.6236  2.7529
  901SOL    HW2 2703   1.356   1.074   2.668  0.7775 -0.1942  1.1524
  902SOL     OW 2704   2.534   2.172   0.859 -0.6199 -0.1645 -0.1644
  902SOL    HW1 2705   2.465   2.244   0.835  0.4835  0.9207  2.2634
  902SOL    HW2 2706   2.582   2.203   0.940 -1.9108  0.0141 -1.1462
  903SOL     OW 2707   2.926   1.332   1.926  0.4075  0.0187 -0.5496
  903SOL    HW1 2708   2.911   1.288   2.016  0.6289  0.7207  1.4644
  903SOL    HW2 2709   2.873   1.283   1.855  2.3616  0.2784 -0.1396
  904SOL     OW 2710   1.867   1.050   0.589 -0.0269  0.3981  0.1206
  904SOL    HW1 2711   1.793   1.047   0.510 -2.7190  0.4234 -2.8622
  904SOL    HW2 2712   1.920   1.134   0.579 -3.4897 -1.4045  0.5162
  905SOL     OW 2713   2.110   2.702   1.435 -0.2702 -1.0322  1.0168
  905SOL    HW1 2714   2.112   2.750   1.345  0.8930  0.0518  1.2443
  905SOL    HW2 2715   2.193   2.729   1.491  1.4805 -1.0879  3.9978
  906SOL     OW 2716   1.649   2.051   2.994  0.4029 -0.3370 -0.3259
  906SOL    HW1 2717   1.580   2.121   3.016  0.4476  0.1928  2.7644
  906SOL    HW2 2718   1.710   2.080   2.917  4.1201 -1.1730 -1.3767
  907SOL     OW 2719   0.848   2.704   0.845  0.0325 -0.0801 -0.3191
  907SOL    HW1 2720   0.900   2.714   0.756  1.2908 -1.7232 -0.7596
  907SOL    HW2 2721   0.754   2.659   0.830 -2.2929  1.3634 -2.4484
  908SOL     OW 2722   0.809   0.132   2.120  0.8905 -0.1888  0.5479
  908SOL    HW1 2723   0.775   0.043   2.156 -1.9756  2.1194 -0.6155
  908SOL    HW2 2724   0.761   0.154   2.033 -0.0170 -0.2801 -0.6081
  909SOL     OW 2725   2.038   0.266   1.874  0.7464 -0.7433 -0.0665
  909SOL    HW1 2726   2.032   0.322   1.790 -1.4434  0.1104  3.6078
  909SOL    HW2 2727   2.006   0.325   1.949  0.0786 -0.0964 -0.5231
  910SOL     OW 2728   1.229   0.812   0.052 -0.6364  0.3466  0.1383
  910SOL    HW1 2729   1.133   0.786   0.029 -0.5914  0.1432  0.9475
  910SOL    HW2 2730   1.270   0.726   0.089 -0.9539 -0.7843 -0.3665
  911SOL     OW 2731   0.047   0.688   2.829 -0.1836  0.2930  0.0715
  911SOL    HW1 2732   3.085   0.694   2.879  0.9456  0.7508 -0.9793
  911SOL    HW2 2733   0.105   0.628   2.884 -1.2774  3.8341 -0.4456
  912SOL     OW 2734   2.782   2.354   0.054  0.2469 -0.9658 -0.6115
  912SOL    HW1 2735   2.828   2.436   0.016  3.3345  2.3493  2.4410
  912SOL    HW2 2736   2.791   2.267   0.001 -0.6160  1.4098 -0.0582
  913SOL     OW 2737   2.614   2.231   2.836 -0.6137  0.4245  0.5984
  913SOL    HW1 2738   2.645   2.194   2.745  0.5726 -0.2454 -2.2558
  913SOL    HW2 2739   2.606   2.333   2.829 -3.5936 -0.2134  1.9618
  914SOL     OW 2740   1.692   1.756   1.665  0.0850 -0.6241 -0.0974
  914SOL    HW1 2741   1.621   1.764   1.737 -0.0567 -1.0863 -1.6678
  914SOL    HW2 2742   1.775   1.812   1.688  3.1115  1.6447  0.7002
  915SOL     OW 2743   0.224   2.561   2.312 -0.0167  0.1471  0.3385
  915SOL    HW1 2744   0.313   2.570   2.260  2.6485 -4.7070 -1.4176
  915SOL    HW2 2745   0.233   2.593   2.409 -0.3597  0.5229  2.6644
  916SOL     OW 2746   0.172   1.393   1.746  0.0154  0.1170  0.3127
  916SOL    HW1 2747   0.245   1.341   1.696 -1.1530 -0.7323  0.4841
  916SOL    HW2 2748   0.087   1.392   1.685  0.0362  0.9601 -0.8133
  917SOL     OW 2749   2.474   0.061   2.937  0.0216 -0.2341  0.6661
  917SOL    HW1 2750   2.400   0.072   2.873  2.2533 -0.4166  3.4184
  917SOL    HW2 2751   2.474   0.147   2.995  1.6679 -1.7333 -0.2830
  918SOL     OW 2752   1.622   2.587   2.328 -0.2034 -0.2015 -0.2684
  918SOL    HW1 2753   1.665   2.590   2.420  0.0950  1.5057 -1.5373
  918SOL    HW2 2754   1.667   2.650   2.260  0.2082  0.4367 -4.3631
  919SOL     OW 2755   1.707   2.292   1.843 -0.4953 -0.2326 -0.2813
  919SOL    HW1 2756   1.801   2.287   1.805 -0.5748 -1.4049 -0.7693
  919SOL    HW2 2757   1.691   2.195   1.863  0.7063 -0.5570 -1.2520
  920SOL     OW 2758   0.577   1.117   0.052  0.0549 -0.6796  0.1700
  920SOL    HW1 2759   0.671   1.134   0.020 -0.1246 -0.3080  0.0256
  920SOL    HW2 2760   0.506   1.180   0.013  0.5635 -0.2855  1.5617
  921SOL     OW 2761   2.981   1.042   2.682 -0.0187  0.3248  0.2195
  921SOL    HW1 2762   2.916   1.123   2.670  0.0915 -1.1333  1.8468
  921SOL    HW2 2763   3.015   1.009   2.589  1.9249 -1.3763 -1.0332
  922SOL     OW 2764   0.315   1.942   0.120  0.2320 -0.2643  0.2373
  922SOL    HW1 2765   0.291   1.843   0.108  2.2604  2.4044 -1.8307
  922SOL    HW2 2766   0.406   1.959   0.164 -1.3088 -0.2415  1.1732
  923SOL     OW 2767   0.555   0.996   2.035 -0.0067  0.1092  0.1878
  923SOL    HW1 2768   0.464   1.037   2.004 -0.0929  0.7092 -0.9212
  923SOL    HW2 2769   0.593   0.937   1.959  1.5990 -1.4034  1.3771
  924SOL     OW 2770   1.143   3.012   2.762 -0.8865 -0.0640 -0.2655
  924SOL    HW1 2771   1.227   3.042   2.706  1.5974  1.0303 -1.7021
  924SOL    HW2 2772   1.089   3.090   2.783  2.0289 -0.2672 -0.2317
  925SOL     OW 2773   2.380   1.335   1.155 -0.3554  0.6024 -0.5265
  925SOL    HW1 2774   2.361   1.247   1.112  1.2531 -0.6778  1.6212
  925SOL    HW2 2775   2.364   1.334   1.255 -0.6337 -2.1789 -1.7339
  926SOL     OW 2776   1.939   0.335   2.197  0.1699 -0.8829  0.5246
  926SOL    HW1 2777   1.875   0.252   2.203 -0.7816  3.8537  1.4286
  926SOL    HW2 2778   1.890   0.424   2.197 -1.7231  0.8616  1.4257
  927SOL     OW 2779   2.902   2.471   1.818 -0.0047  0.0363 -0.1803
  927SOL    HW1 2780   2.993   2.519   1.806 -0.0818 -0.7213  2.9390
  927SOL    HW2 2781   2.898   2.404   1.897  1.0594 -0.4117  2.2810
  928SOL     OW 2782   0.631   1.046   2.674  0.1595  0.4044  0.2009
  928SOL    HW1 2783   0.559   1.059   2.747  0.8466  1.0524 -2.2427
  928SOL    HW2 2784   0.597   1.056   2.579  2.0703  3.0547 -1.7295
  929SOL     OW 2785   2.845   0.049   0.726 -0.4016  0.3511 -0.0673
  929SOL    HW1 2786   2.762   0.088   0.774  1.8891 -1.0449 -0.9121
  929SOL    HW2 2787   2.823   0.009   0.639  0.7786  2.8909  2.3034
  930SOL     OW 2788   2.541   0.350   1.528  0.6942 -0.0851  0.6261
  930SOL    HW1 2789   2.493   0.304   1.601  1.3063 -1.5409 -3.0756
  930SOL    HW2 2790   2.641   0.358   1.546  0.3558 -1.3905  0.8087
  931SOL     OW 2791   2.306   1.097   0.127  0.0912  0.1828  0.4010
  931SOL    HW1 2792   2.338   1.191   0.140  2.4666  0.6172  2.5879
  931SOL    HW2 2793   2.388   1.036   0.132  0.5456  2.5037  1.5589
  932SOL     OW 2794   2.345   1.588   1.579  0.1321  0.1793  0.4291
  932SOL    HW1 2795   2.349   1.505   1.516 -0.5240 -3.6675 -1.6261
  932SOL    HW2 2796   2.321   1.669   1.521  0.0248 -1.4953  1.9870
  933SOL     OW 2797   3.097   2.587   1.496 -0.1981  0.5219  0.3543
  933SOL    HW1 2798   3.097   2.488   1.515 -0.4560  3.4360 -0.4676
  933SOL    HW2 2799   3.105   2.604   1.398 -2.0845  1.3643  0.2272
  934SOL     OW 2800   0.836   2.108   1.307 -0.4995  0.2233 -0.6096
  934SOL    HW1 2801   0.824   2.177   1.238 -0.8120 -0.1543  2.4083
  934SOL    HW2 2802   0.859   2.151   1.398  1.6750  1.7839  1.6068
  935SOL     OW 2803   2.374   1.680   2.181  0.1350 -0.3867 -0.2691
  935SOL    HW1 2804   2.444   1.637   2.120  4.7622  0.1818 -0.3765
  935SOL    HW2 2805   2.433   1.731   2.247  0.9371 -3.0631  1.7652
  936SOL     OW 2806   2.355   1.589   1.856  0.2558  0.0469  0.1723
  936SOL    HW1 2807   2.362   1.572   1.756  0.5995 -2.5356  0.4329
  936SOL    HW2 2808   2.429   1.539   1.903 -0.2084 -1.5717 -1.7474
  937SOL     OW 2809   1.900   1.065   2.038  0.3074  0.2407 -0.2733
  937SOL    HW1 2810   1.875   1.144   1.988 -1.4970 -0.5851 -0.8894
  937SOL    HW2 2811   1.972   1.007   1.987  1.0040 -1.6008 -1.0058
  938SOL     OW 2812   0.886   2.298   2.971 -0.3325 -0.2296 -0.4049
  938SOL    HW1 2813   0.879   2.366   3.045 -0.6018 -0.7524 -2.7999
  938SOL    HW2 2814   0.976   2.310   2.920 -1.9276  0.6686  0.5339
  939SOL     OW 2815   2.605   0.734   2.878  0.4108 -0.1951  0.5465
  939SOL    HW1 2816   2.701   0.751   2.852 -0.1115  1.3176  1.0947
  939SOL    HW2 2817   2.581   0.653   2.937  1.8924 -2.5364  1.1538
  940SOL     OW 2818   1.037   1.822   1.014  0.2019 -0.6209  0.2809
  940SOL    HW1 2819   1.030   1.881   1.096 -2.3945 -0.7396 -0.9182
  940SOL    HW2 2820   1.020   1.877   0.924 -0.9407 -1.4597  0.1240
  941SOL     OW 2821   0.995   2.354   2.041  0.0481  0.3199  0.8333
  941SOL    HW1 2822   0.919   2.374   2.098  2.4174 -2.5325 -2.4959
  941SOL    HW2 2823   1.042   2.268   2.075  1.0668  1.2501 -0.8979
  942SOL     OW 2824   0.383   2.245   2.931  0.2014 -0.3879  0.1667
  942SOL    HW1 2825   0.298   2.228   2.979  1.0138  0.4554 -0.2780
  942SOL    HW2 2826   0.423   2.332   2.960 -1.3329  1.2444 -0.4579
  943SOL     OW 2827   1.784   2.705   1.802 -0.0820  0.5993  0.4446
  943SOL    HW1 2828   1.724   2.625   1.828  2.3761 -0.8776 -0.3527
  943SOL    HW2 2829   1.820   2.701   1.701  1.3278 -1.2691 -2.2865
  944SOL     OW 2830   1.130   1.665   0.041  0.2105 -0.4363 -0.1838
  944SOL    HW1 2831   1.224   1.708   0.028 -1.1210 -0.8737 -0.8857
  944SOL    HW2 2832   1.126   1.579   0.097  0.1728 -0.6080  0.4086
  945SOL     OW 2833   2.739   2.694   0.797  0.4492 -1.2375  0.3646
  945SOL    HW1 2834   2.812   2.625   0.813 -0.4837  1.4136 -0.6757
  945SOL    HW2 2835   2.774   2.763   0.727  1.1981  4.5432  0.9520
  946SOL     OW 2836   1.255   1.618   2.851  0.0533  0.4125 -0.1768
  946SOL    HW1 2837   1.341   1.628   2.905  2.3023 -0.4063 -1.0938
  946SOL    HW2 2838   1.193   1.701   2.859  0.0849 -3.0468 -0.2825
  947SOL     OW 2839   2.620   0.593   1.877  0.4189 -0.2374 -0.1594
  947SOL    HW1 2840   2.618   0.693   1.899  0.2486  0.1818 -0.1304
  947SOL    HW2 2841   2.662   0.576   1.784 -1.0254  0.4379 -0.4655
  948SOL     OW 2842   0.107   1.607   0.777  0.2096 -0.2381  0.1294
  948SOL    HW1 2843   0.202   1.627   0.733  3.8943 -0.5139 -1.0586
  948SOL    HW2 2844   0.091   1.649   0.873 -1.9413  0.1935  0.4080
  949SOL     OW 2845   0.801   0.838   2.420  0.4056  0.0848 -0.1739
  949SOL    HW1 2846   0.874   0.783   2.378  0.0094  0.3099  0.8742
  949SOL    HW2 2847   0.795   0.831   2.521  2.4345 -0.1033  2.5907
  950SOL     OW 2848   0.218   0.674   1.284  0.0147  0.4197 -0.2068
  950SOL    HW1 2849   0.225   0.766   1.327  2.1768 -3.1421  1.7928
  950SOL    HW2 2850   0.126   0.666   1.238  0.0224 -0.8745 -2.3811
  951SOL     OW 2851   0.912   1.488   2.362 -0.4721 -0.8538  0.5172
  951SOL    HW1 2852   0.906   1.583   2.402  1.5662  1.3058 -2.2788
  951SOL    HW2 2853   0.934   1.497   2.262  0.7883 -0.1252  1.3295
  952SOL     OW 2854   1.695   2.164   0.815  0.2987  0.3001 -0.4130
  952SOL    HW1 2855   1.778   2.103   0.831 -0.6576 -3.3032  2.4036
  952SOL    HW2 2856   1.621   2.133   0.878  0.9983 -1.9073  0.1459
  953SOL     OW 2857   0.790   0.840   0.241  0.3849 -0.5099 -0.0390
  953SOL    HW1 2858   0.812   0.864   0.337 -2.2914 -2.8855  0.3128
  953SOL    HW2 2859   0.690   0.838   0.235  2.3358  0.0947  2.5379
  954SOL     OW 2860   2.156   0.873   1.084  0.1658  0.2947  0.0466
  954SOL    HW1 2861   2.168   0.853   0.987  0.0422 -1.5948 -0.5979
  954SOL    HW2 2862   2.059   0.911   1.098  0.2456 -0.0860 -0.9432
  955SOL     OW 2863   2.117   1.255   0.348 -0.1472  0.0930  0.0271
  955SOL    HW1 2864   2.176   1.225   0.269  3.4820 -0.6408 -2.1251
  955SOL    HW2 2865   2.023   1.267   0.318  1.2341  2.5101  1.5437
  956SOL     OW 2866   0.879   0.704   1.934 -0.0319  0.5992  0.7975
  956SOL    HW1 2867   0.887   0.604   1.961  0.1932 -0.6644  1.0291
  956SOL    HW2 2868   0.960   0.760   1.954 -0.8005  0.4751 -2.0045
  957SOL     OW 2869   1.882   0.170   1.257 -0.2753  0.5184 -0.3590
  957SOL    HW1 2870   1.817   0.233   1.304 -1.0295 -2.3006  1.5819
  957SOL    HW2 2871   1.892   0.083   1.309 -1.7503 -1.8810  0.9506
  958SOL     OW 2872   0.071   2.158   0.526  0.2228 -0.2362 -0.0547
  958SOL    HW1 2873   0.008   2.148   0.446  0.0937  0.1972  0.9460
  958SOL    HW2 2874   0.124   2.071   0.531 -1.2373 -0.8415  0.3283
  959SOL     OW 2875   2.234   1.128   1.818 -0.1774  0.3457 -0.2731
  959SOL    HW1 2876   2.145   1.157   1.781  1.7752 -1.3351  1.4400
  959SOL    HW2 2877   2.303   1.143   1.740 -0.0140  0.3058  0.2653
  960SOL     OW 2878   0.155   1.924   2.930  0.5873 -0.8054  0.2376
  960SOL    HW1 2879   0.212   1.961   3.004 -1.6903  0.3616  0.3506
  960SOL    HW2 2880   0.056   1.938   2.954 -0.2093 -0.8707  0.7917
  961SOL     OW 2881   0.552   1.697   1.457  0.7185 -0.2567  0.0255
  961SOL    HW1 2882   0.621   1.712   1.383 -0.1311 -1.3782  0.6677
  961SOL    HW2 2883   0.599   1.717   1.545  0.9393  2.4866 -1.4262
  962SOL     OW 2884   0.864   1.270   0.980  0.2245 -0.4960  0.0472
  962SOL    HW1 2885   0.900   1.229   1.063  2.2248  2.0400 -3.3104
  962SOL    HW2 2886   0.942   1.303   0.923  0.9633  0.5326  1.0141
  963SOL     OW 2887   1.124   1.981   2.544 -0.6657  0.0286  0.1330
  963SOL    HW1 2888   1.193   1.913   2.514  4.8632 -2.3974  0.6315
  963SOL    HW2 2889   1.148   2.010   2.638 -0.0949  0.8466 -1.7292
  964SOL     OW 2890   0.181   3.032   2.211  0.4017 -0.4707 -0.4660
  964SOL    HW1 2891   0.127   2.972   2.141 -2.8262  0.6019 -2.9186
  964SOL    HW2 2892   0.273   3.003   2.240 -0.7863  1.5835  1.3755
  965SOL     OW 2893   0.426   2.173   2.689 -0.2353  0.0444 -0.1161
  965SOL    HW1 2894   0.336   2.165   2.654  0.2342  2.2025  3.5603
  965SOL    HW2 2895   0.427   2.198   2.793 -0.5958  0.6289  3.2268
  966SOL     OW 2896   0.128   1.663   3.049 -0.4258  0.1289 -0.2805
  966SOL    HW1 2897   0.081   1.591   2.993  0.3603 -0.4482 -0.7340
  966SOL    HW2 2898   0.161   1.747   2.994  0.1095  2.9262 -0.9066
  967SOL     OW 2899   2.080   3.014   0.026 -0.1030 -0.4674  0.3031
  967SOL    HW1 2900   2.186   3.013   0.026  0.7150  1.5181  0.9756
  967SOL    HW2 2901   2.050   2.942   0.095  1.6484 -1.0070 -1.0894
  968SOL     OW 2902   2.434   0.103   0.665 -0.1958  0.0673  0.4474
  968SOL    HW1 2903   2.380   0.033   0.721 -1.6281 -4.2346  1.8177
  968SOL    HW2 2904   2.382   0.117   0.578  0.9621  2.5966  0.4192
  969SOL     OW 2905   0.337   1.094   1.954 -0.2028  0.0665  0.3901
  969SOL    HW1 2906   0.277   1.156   2.003  0.2460 -4.0311 -0.1732
  969SOL    HW2 2907   0.298   1.080   1.859 -0.9663 -1.2633 -2.6508
  970SOL     OW 2908   1.674   1.618   0.323 -0.1082  0.2023  0.0284
  970SOL    HW1 2909   1.752   1.681   0.348  0.2951  0.2855 -2.5878
  970SOL    HW2 2910   1.599   1.673   0.281  1.3155 -1.2564  2.2303
  971SOL     OW 2911   2.450   3.055   1.509 -0.0548  0.6431  0.1911
  971SOL    HW1 2912   2.549   3.050   1.536  0.5888 -0.7291  1.7541
  971SOL    HW2 2913   2.439   0.008   1.448 -0.9884 -1.4627  0.1457
  972SOL     OW 2914   2.746   0.232   1.229  0.0675 -0.4588 -0.1373
  972SOL    HW1 2915   2.662   0.208   1.174  0.7679 -0.1685 -1.1975
  972SOL    HW2 2916   2.754   0.332   1.234  0.5716 -0.1784  0.2699
  973SOL     OW 2917   0.461   0.772   2.768  0.0868 -0.3281  0.3500
  973SOL    HW1 2918   0.438   0.676   2.759 -0.0739  0.1621  1.1707
  973SOL    HW2 2919   0.398   0.834   2.711 -1.3129 -3.6050 -2.4328
  974SOL     OW 2920   2.656   1.202   2.091  0.3027  0.0961  0.1486
  974SOL    HW1 2921   2.678   1.118   2.040  2.8309 -0.5247 -0.1708
  974SOL    HW2 2922   2.563   1.205   2.130  0.6888 -0.1787 -2.2193
  975SOL     OW 2923   0.846   0.201   1.695 -0.0031 -0.2163 -0.5291
  975SOL    HW1 2924   0.885   0.263   1.621 -0.8981  0.1996 -2.6395
  975SOL    HW2 2925   0.923   0.166   1.750 -0.8247  2.9498  1.8964
  976SOL     OW 2926   1.313   1.577   1.563 -0.5410 -0.4296  0.0983
  976SOL    HW1 2927   1.263   1.657   1.531  0.1359  0.0265  1.0961
  976SOL    HW2 2928   1.325   1.572   1.665  1.1420  0.0494  0.9986
  977SOL     OW 2929   0.817   2.913   0.122  0.1004 -0.1313  0.1693
  977SOL    HW1 2930   0.769   2.886   0.210  0.1104 -0.7938 -1.5693
  977SOL    HW2 2931   0.826   3.015   0.118  1.1964  2.9844  0.9206
  978SOL     OW 2932   2.374   1.227   2.166  0.4377  0.8943 -0.2308
  978SOL    HW1 2933   2.330   1.140   2.124  0.2458 -0.3423  0.1449
  978SOL    HW2 2934   2.330   1.312   2.120 -2.8034  3.9043 -0.7875
  979SOL     OW 2935   1.366   0.351   1.641 -0.1486 -0.6681 -0.2758
  979SOL    HW1 2936   1.293   0.416   1.676 -1.6337  3.2381 -1.7827
  979SOL    HW2 2937   1.461   0.370   1.670  1.2304 -0.1940  2.3510
  980SOL     OW 2938   1.808   1.477   2.172  0.4515  0.4244 -0.3334
  980SOL    HW1 2939   1.876   1.452   2.244 -2.1648  0.6528  2.2348
  980SOL    HW2 2940   1.713   1.483   2.216  0.1946  0.6184 -0.8734
  981SOL     OW 2941   1.827   0.539   1.537 -0.0290 -0.2314  0.1740
  981SOL    HW1 2942   1.864   0.619   1.481  1.7148 -0.8606 -1.8635
  981SOL    HW2 2943   1.903   0.470   1.546 -2.2862 -0.7396  1.1157
  982SOL     OW 2944   0.730   0.334   2.806 -0.4072  0.0586  0.1677
  982SOL    HW1 2945   0.768   0.415   2.761 -1.1979 -0.0771 -0.1296
  982SOL    HW2 2946   0.643   0.356   2.857 -1.1453 -0.3269 -0.4103
  983SOL     OW 2947   2.008   0.585   0.107 -0.2861 -0.4884 -0.2925
  983SOL    HW1 2948   1.924   0.532   0.124  1.2590  1.4127  0.4973
  983SOL    HW2 2949   2.022   0.608   0.008 -0.5582 -0.7407  1.4934
  984SOL     OW 2950   0.903   0.461   2.022 -0.0007 -0.6850  0.2395
  984SOL    HW1 2951   0.966   0.384   2.004  0.0888 -1.5993 -1.0940
  984SOL    HW2 2952   0.821   0.432   2.079  1.4061  0.2758  0.5424
  985SOL     OW 2953   1.480   1.952   2.244  0.8135 -0.3502  0.3453
  985SOL    HW1 2954   1.426   2.009   2.179 -1.7476 -2.7789 -1.4526
  985SOL    HW2 2955   1.548   1.897   2.194  0.3389  3.7850  1.7794
  986SOL     OW 2956   2.716   2.911   2.016  0.1611  0.2684  0.2705
  986SOL    HW1 2957   2.636   2.866   2.061 -1.5234 -0.1946  0.0463
  986SOL    HW2 2958   2.677   2.984   1.958  2.0852  0.8907  0.1597
  987SOL     OW 2959   1.936   1.234   1.228  0.7170 -0.3477  0.6345
  987SOL    HW1 2960   1.899   1.138   1.216 -2.4052  0.8871  0.3468
  987SOL    HW2 2961   1.865   1.306   1.219  0.7611  1.3499 -2.3116
  988SOL     OW 2962   2.627   1.735   2.382  0.5048  0.0313 -0.3428
  988SOL    HW1 2963   2.706   1.802   2.391  0.4861 -0.4408  0.3910
  988SOL    HW2 2964   2.666   1.639   2.373 -0.9371  0.7103 -0.6860
  989SOL     OW 2965   1.298   2.259   0.282 -0.4200 -0.5285  0.3031
  989SOL    HW1 2966   1.317   2.357   0.308 -0.5115 -0.5383  0.3169
  989SOL    HW2 2967   1.229   2.220   0.350 -1.4243 -0.3423 -2.2991
  990SOL     OW 2968   2.068   0.632   2.981 -0.0868  0.1749 -0.4024
  990SOL    HW1 2969   1.976   0.622   2.932 -2.7050  1.7862 -1.9180
  990SOL    HW2 2970   2.112   0.720   2.961 -1.0291 -2.2426 -0.0520
  991SOL     OW 2971   0.889   0.427   0.827 -0.6123 -0.6597  0.5351
  991SOL    HW1 2972   0.898   0.457   0.925 -1.5986  3.7233 -1.3832
  991SOL    HW2 2973   0.941   0.488   0.758  0.1298  1.6983 -3.1425
  992SOL     OW 2974   2.402   0.778   1.154  0.4514  0.0715  0.2526
  992SOL    HW1 2975   2.437   0.837   1.229 -0.4102 -0.0390  3.5261
  992SOL    HW2 2976   2.298   0.797   1.156 -0.2773 -1.9315  1.0249
  993SOL     OW 2977   2.212   0.525   1.854  0.5010 -0.3100 -0.1876
  993SOL    HW1 2978   2.216   0.559   1.761 -1.5794 -0.5763  1.4789
  993SOL    HW2 2979   2.294   0.466   1.876  0.2143 -0.9652  0.1238
  994SOL     OW 2980   0.932   1.753   2.505 -0.0058  0.1418  0.2100
  994SOL    HW1 2981   0.981   1.838   2.513  0.4415 -1.9666  1.4250
  994SOL    HW2 2982   0.830   1.768   2.491 -2.9961 -0.8103  0.2559
  995SOL     OW 2983   2.157   1.004   2.892 -0.6835  0.1257  0.4955
  995SOL    HW1 2984   2.148   1.098   2.847 -1.9137  2.4102 -1.7465
  995SOL    HW2 2985   2.256   0.985   2.916  2.1051  2.1042  1.0169
  996SOL     OW 2986   2.232   1.959   0.609  0.1442  0.9700 -0.0886
  996SOL    HW1 2987   2.168   1.886   0.586 -1.6749 -0.5567 -0.5651
  996SOL    HW2 2988   2.322   1.915   0.631  1.7808 -1.0807  0.9323
  997SOL     OW 2989   2.235   0.543   2.134 -0.3268 -0.2757 -0.2503
  997SOL    HW1 2990   2.233   0.459   2.193  0.8486 -1.0942  0.1459
  997SOL    HW2 2991   2.229   0.525   2.033  1.1576  1.8102 -1.5676
  998SOL     OW 2992   2.764   1.139   0.592  0.5639  0.1287 -0.0982
  998SOL    HW1 2993   2.690   1.206   0.623 -1.4109  1.3449  0.6379
  998SOL    HW2 2994   2.816   1.166   0.508  0.7078  0.9179  0.3001
  999SOL     OW 2995   2.812   1.625   0.427 -0.0369  0.2747  0.4008
  999SOL    HW1 2996   2.797   1.697   0.352 -0.2505  0.1476  1.7132
  999SOL    HW2 2997   2.898   1.642   0.478 -1.6635 -2.1272  2.3760
 1000SOL     OW 2998   0.573   0.647   2.323  0.0293 -0.0065 -0.0063
 1000SOL    HW1 2999   0.644   0.712   2.350  0.3760  0.1700 -1.2644
 1000SOL    HW2 3000   0.473   0.677   2.335  0.4271 -0.0017 -0.4952
   3.12568   3.12568   3.12568
