1000 SPC/Fw water molecules t=  21.00000 step= 21000
 3000
    1SOL     OW    1   1.952   2.740   0.298 -0.4278  0.3153  0.1302
    1SOL    HW1    2   2.023   2.691   0.348 -1.0872  0.7246 -1.2229
    1SOL    HW2    3   1.878   2.675   0.270  0.0977 -0.1869  0.6071
    2SOL     OW    4   1.189   0.861   2.077  0.5712 -0.4153 -0.4582
    2SOL    HW1    5   1.284   0.832   2.093  0.3132 -0.6709  2.3870
    2SOL    HW2    6   1.135   0.850   2.164 -0.4707 -1.0525 -1.0551
    3SOL     OW    7   0.775   3.006   2.776  0.0219 -0.2064 -0.3127
    3SOL    HW1    8   0.835   3.014   2.696  0.7383  0.2303  5.8545
    3SOL    HW2    9   0.828   2.969   2.855  0.7300  0.3485  1.4560
    4SOL     OW   10   1.655   1.756   2.988 -0.8492  0.7246 -0.3221
    4SOL    HW1   11   1.630   1.657   3.003 -1.6378 -1.0164  1.0428
    4SOL    HW2   12   1.578   1.807   2.942 -1.2056 -0.1766 -1.8098
    5SOL     OW   13   0.786   0.969   2.059 -0.4578  0.3802  0.2259
    5SOL    HW1   14   0.878   0.968   2.022 -1.4330 -0.7815  0.1442
    5SOL    HW2   15   0.784   0.992   2.157 -0.5328  1.1649  0.8245
    6SOL     OW   16   2.067   0.899   2.711  0.0544 -0.3565 -0.5549
    6SOL    HW1   17   2.049   0.803   2.675 -0.3479 -0.2034  0.8211
    6SOL    HW2   18   2.163   0.932   2.700 -0.3585 -1.5454  1.3125
    7SOL     OW   19   0.571   0.873   1.175  0.2213 -1.0465  0.2264
    7SOL    HW1   20   0.645   0.842   1.112 -1.9359  0.3462  0.0039
    7SOL    HW2   21   0.485   0.875   1.120  0.6638 -0.7257 -0.0308
    8SOL     OW   22   1.952   2.919   2.111  0.3591 -0.3407  0.1688
    8SOL    HW1   23   1.855   2.923   2.084 -0.2924 -1.2738  1.0802
    8SOL    HW2   24   2.007   2.993   2.064  1.1544  1.7525 -0.6111
    9SOL     OW   25   0.098   2.600   0.778  0.6380 -0.4844 -0.0014
    9SOL    HW1   26   0.038   2.559   0.709  0.5980  0.2945 -1.6657
    9SOL    HW2   27   0.106   2.702   0.758 -0.7665  1.1145  1.0843
   10SOL     OW   28   2.944   2.303   2.422  0.1072  0.4740 -0.4093
   10SOL    HW1   29   2.977   2.331   2.327  0.3904  0.7439  0.2467
   10SOL    HW2   30   2.957   2.201   2.434  0.5248 -0.3697  1.0659
   11SOL     OW   31   0.620   1.465   3.032  0.8073  0.2660  0.0777
   11SOL    HW1   32   0.608   1.385   3.093  2.8165 -1.6723  1.6203
   11SOL    HW2   33   0.574   1.539   3.080  1.3137 -1.9858  1.3330
   12SOL     OW   34   2.130   2.747   0.785  0.6741  0.0075  0.3180
   12SOL    HW1   35   2.127   2.812   0.865 -0.9190  1.9519 -1.8560
   12SOL    HW2   36   2.062   2.775   0.715  1.5589  1.6547 -1.6297
   13SOL     OW   37   0.223   0.369   2.740  0.5572 -0.2034 -0.3217
   13SOL    HW1   38   0.190   0.355   2.835  0.4566 -1.4320  1.6148
   13SOL    HW2   39   0.262   0.462   2.722  0.7814 -0.6254  1.3407
   14SOL     OW   40   1.363   1.074   1.682  0.2428 -0.3213  0.0562
   14SOL    HW1   41   1.418   1.075   1.764 -0.2591  0.1266 -2.4836
   14SOL    HW2   42   1.291   1.147   1.694 -1.3993  2.8636 -0.4131
   15SOL     OW   43   0.515   1.446   1.919  0.2749  0.2407 -0.2586
   15SOL    HW1   44   0.471   1.425   1.827 -1.9008 -0.3329  0.6241
   15SOL    HW2   45   0.517   1.363   1.980  0.2176  5.2551 -2.2555
   16SOL     OW   46   1.622   0.951   2.737  0.2079  0.3937  0.4646
   16SOL    HW1   47   1.591   1.036   2.694 -2.6135 -2.4763  0.0933
   16SOL    HW2   48   1.709   0.972   2.789  1.6923 -0.6717  0.0872
   17SOL     OW   49   3.049   2.374   2.189 -0.2753 -0.1152 -0.2157
   17SOL    HW1   50   3.008   2.461   2.175  0.0420 -1.8855  0.3129
   17SOL    HW2   51   3.057   2.335   2.097 -0.8181 -0.7626  0.7118
   18SOL     OW   52   1.684   1.335   0.507  0.7332  0.0076  0.1182
   18SOL    HW1   53   1.663   1.236   0.526 -1.9066 -2.4789  0.7863
   18SOL    HW2   54   1.737   1.342   0.418 -1.4028 -2.0655 -1.2600
   19SOL     OW   55   0.222   1.264   1.801  0.2668  0.3298  0.0064
   19SOL    HW1   56   0.251   1.210   1.880 -2.0365 -1.0806  2.5675
   19SOL    HW2   57   0.301   1.323   1.767  0.1326  2.2537 -1.4430
   20SOL     OW   58   1.950   2.395   2.861 -0.2320  0.4423 -0.2302
   20SOL    HW1   59   2.029   2.389   2.922  0.0923 -0.5777  0.5631
   20SOL    HW2   60   1.918   2.493   2.847 -1.4602  2.6714 -0.9271
   21SOL     OW   61   1.863   1.798   1.057 -0.6688 -0.3247 -0.0027
   21SOL    HW1   62   1.840   1.887   1.099  1.2299  1.6256  0.0616
   21SOL    HW2   63   1.943   1.804   0.993 -2.5085 -2.9485 -0.8455
   22SOL     OW   64   2.173   2.045   1.388  0.0300  0.2689 -0.1878
   22SOL    HW1   65   2.115   2.081   1.464 -0.0667 -0.5206  1.7114
   22SOL    HW2   66   2.134   2.047   1.294 -0.8153 -1.4588  2.6289
   23SOL     OW   67   0.114   1.104   1.283 -0.5163 -0.4025 -0.0958
   23SOL    HW1   68   0.137   1.085   1.378  1.3517  1.2535 -2.3618
   23SOL    HW2   69   0.023   1.063   1.257 -2.9624  0.0147 -2.5143
   24SOL     OW   70   1.719   1.186   1.820  0.1465 -0.1369 -0.5566
   24SOL    HW1   71   1.710   1.093   1.865 -0.7118 -1.5020  2.3853
   24SOL    HW2   72   1.804   1.232   1.853 -1.2150  1.9679  3.1657
   25SOL     OW   73   1.931   0.111   2.312 -0.0281  0.0935  0.4663
   25SOL    HW1   74   1.958   0.011   2.321 -1.0790 -1.5991 -0.9388
   25SOL    HW2   75   1.924   0.153   2.407 -2.0624 -1.6422 -0.7369
   26SOL     OW   76   0.591   2.966   0.667  0.3185 -0.0810 -0.1611
   26SOL    HW1   77   0.676   2.995   0.714 -2.8649 -2.1093  0.0259
   26SOL    HW2   78   0.580   2.867   0.688 -2.9823  0.0446  0.8283
   27SOL     OW   79   1.471   1.323   1.111  0.3458 -0.0446 -0.5928
   27SOL    HW1   80   1.564   1.289   1.130 -1.1239 -1.9291 -1.0963
   27SOL    HW2   81   1.441   1.296   1.017  0.0541 -1.1893  0.1235
   28SOL     OW   82   2.417   2.249   1.023  0.4308  0.5554 -0.3232
   28SOL    HW1   83   2.409   2.324   1.090 -1.7343 -3.5065 -1.4039
   28SOL    HW2   84   2.420   2.291   0.931 -0.0742  1.5188  2.5808
   29SOL     OW   85   2.014   2.948   2.370 -0.2269 -0.2044 -0.0508
   29SOL    HW1   86   1.990   2.932   2.270 -0.2376  0.1979  0.4210
   29SOL    HW2   87   2.116   2.956   2.378 -1.6492  1.9044 -1.3773
   30SOL     OW   88   0.011   2.739   1.926  0.2953 -0.1620 -0.1482
   30SOL    HW1   89   3.081   2.763   1.828 -1.1559  0.2956 -0.7255
   30SOL    HW2   90   0.043   2.821   1.978 -1.3581 -0.6941  3.4439
   31SOL     OW   91   3.059   1.707   2.072  0.1176 -0.0976  0.3521
   31SOL    HW1   92   0.042   1.724   2.126  0.7204 -2.2780  1.6164
   31SOL    HW2   93   3.053   1.771   1.990 -0.6522  0.7828 -4.0108
   32SOL     OW   94   1.327   2.147   2.127 -0.5191  0.4870  0.3615
   32SOL    HW1   95   1.277   2.060   2.134  0.5309  1.7083  0.0635
   32SOL    HW2   96   1.411   2.129   2.183 -3.2453  1.3314  2.6565
   33SOL     OW   97   0.129   0.297   2.980  0.1825  0.2246 -0.2758
   33SOL    HW1   98   0.193   0.234   3.031  1.5765 -2.0211 -0.8139
   33SOL    HW2   99   0.089   0.367   3.041  1.8739 -0.8468  1.2871
   34SOL     OW  100   2.791   0.044   0.326 -0.1463 -0.1615 -0.2240
   34SOL    HW1  101   2.871   3.099   0.364 -2.0913  2.4949 -2.7877
   34SOL    HW2  102   2.768   3.101   0.237  1.6253 -2.9816  3.2874
   35SOL     OW  103   2.807   2.680   1.618  0.1046 -0.3170  0.0827
   35SOL    HW1  104   2.723   2.703   1.676 -2.6143 -0.3832  1.7409
   35SOL    HW2  105   2.781   2.674   1.521 -1.0608 -0.2781  0.0540
   36SOL     OW  106   2.280   2.960   2.380  0.1781  0.1046 -0.1706
   36SOL    HW1  107   2.336   2.946   2.463 -1.2154  0.5649 -2.8278
   36SOL    HW2  108   2.282   3.060   2.356  0.4855 -0.1573  0.2426
   37SOL     OW  109   1.541   0.027   3.088 -0.2351  0.0872 -0.2341
   37SOL    HW1  110   1.519   3.069   0.063  1.0393  0.3594  0.2090
   37SOL    HW2  111   1.457   0.051   3.039  1.5067 -2.4266  2.9849
   38SOL     OW  112   0.277   0.645   0.323  0.3561 -0.4759 -0.0401
   38SOL    HW1  113   0.332   0.581   0.374 -1.7616  1.3173 -0.7548
   38SOL    HW2  114   0.336   0.720   0.286  0.0900 -1.0791 -0.5682
   39SOL     OW  115   0.843   1.858   2.034 -0.1121  0.3322 -0.1820
   39SOL    HW1  116   0.881   1.771   2.073 -1.6315 -0.8468 -0.1661
   39SOL    HW2  117   0.851   1.929   2.106 -1.3013 -0.0983 -1.5872
   40SOL     OW  118   3.013   0.630   2.924 -0.0437  0.2306  0.3778
   40SOL    HW1  119   3.029   0.643   2.821  1.8338 -0.7911 -1.5272
   40SOL    HW2  120   3.084   0.579   2.973 -2.0059  0.0861 -0.4615
   41SOL     OW  121   1.194   0.758   1.833 -0.5771  0.1425 -0.0619
   41SOL    HW1  122   1.282   0.744   1.789  0.9015  1.4844 -1.6681
   41SOL    HW2  123   1.217   0.777   1.934  4.5534 -2.5468  2.0924
   42SOL     OW  124   2.427   0.168   1.093 -0.4013  0.3929 -0.0029
   42SOL    HW1  125   2.358   0.227   1.049  3.2243 -0.0161 -2.2569
   42SOL    HW2  126   2.430   0.193   1.195 -0.6510  0.8650  1.4547
   43SOL     OW  127   1.468   0.763   1.757 -0.2399 -0.0617 -0.3527
   43SOL    HW1  128   1.483   0.798   1.663 -0.3810  1.1092  3.0191
   43SOL    HW2  129   1.502   0.668   1.753 -2.0975  3.2589  1.4537
   44SOL     OW  130   0.075   0.507   0.051  0.5029 -0.5160 -0.5050
   44SOL    HW1  131   0.130   0.469   0.125 -3.1946  0.6367  0.1153
   44SOL    HW2  132   0.073   0.612   0.050 -1.9613  3.2599 -2.4721
   45SOL     OW  133   0.523   1.803   1.757  0.0937  0.4468  0.0607
   45SOL    HW1  134   0.551   1.808   1.663  0.3967  0.1591  1.2747
   45SOL    HW2  135   0.562   1.716   1.800 -1.6527  0.3357  0.3685
   46SOL     OW  136   2.242   2.923   1.615 -0.4209  0.3440  0.5135
   46SOL    HW1  137   2.264   2.883   1.704 -1.4305  4.1651  0.3140
   46SOL    HW2  138   2.147   2.899   1.579 -0.5774  0.9983 -1.4130
   47SOL     OW  139   0.220   1.855   1.306 -0.0022 -0.2191 -0.7677
   47SOL    HW1  140   0.228   1.766   1.356 -1.3008  1.1299  0.2894
   47SOL    HW2  141   0.281   1.922   1.353  2.0350  2.7131  0.6698
   48SOL     OW  142   0.985   2.524   2.863 -0.2123 -0.5846 -0.3373
   48SOL    HW1  143   0.904   2.482   2.821  1.2805  2.2778  2.5673
   48SOL    HW2  144   0.986   2.502   2.962 -1.3955  2.2523  0.4668
   49SOL     OW  145   2.587   1.418   1.666  0.6995 -0.3269  1.0052
   49SOL    HW1  146   2.625   1.488   1.600  2.4006  1.7470 -2.2207
   49SOL    HW2  147   2.647   1.409   1.749  1.2483  1.4361  0.4485
   50SOL     OW  148   1.141   2.923   0.450 -0.0674  0.0872 -0.0759
   50SOL    HW1  149   1.176   2.972   0.529 -1.7828 -0.9587 -0.2717
   50SOL    HW2  150   1.162   2.970   0.358  1.1941 -0.1944  2.9027
   51SOL     OW  151   1.148   0.345   1.175  0.5640  0.0552  0.8595
   51SOL    HW1  152   1.081   0.303   1.241  0.3533  1.0881 -1.6423
   51SOL    HW2  153   1.241   0.356   1.217 -0.3438  1.5129  0.5390
   52SOL     OW  154   0.594   1.160   0.293 -0.1858  0.4742 -0.1639
   52SOL    HW1  155   0.648   1.084   0.254  1.9879 -0.2609 -0.9501
   52SOL    HW2  156   0.630   1.186   0.381 -4.4526 -1.3153  0.4594
   53SOL     OW  157   1.138   2.846   2.654  0.1601  0.1703 -0.1573
   53SOL    HW1  158   1.101   2.827   2.746  0.5352 -1.3287 -0.9113
   53SOL    HW2  159   1.213   2.915   2.657  1.1130 -1.6463 -0.2553
   54SOL     OW  160   2.112   0.215   2.149 -0.4916  0.1612  0.3142
   54SOL    HW1  161   2.045   0.183   2.223 -0.4943 -0.2599 -2.0913
   54SOL    HW2  162   2.122   0.316   2.143  0.1539 -1.8212  1.9994
   55SOL     OW  163   2.939   2.379   0.173 -0.1614 -0.1388  0.2428
   55SOL    HW1  164   3.027   2.340   0.148 -1.7221 -1.7807 -0.5588
   55SOL    HW2  165   2.947   2.476   0.209  0.1981  0.6522  2.3743
   56SOL     OW  166   0.773   0.031   1.796 -0.1045  0.0203  0.5236
   56SOL    HW1  167   0.685   0.050   1.846 -1.9252 -0.1059  1.9842
   56SOL    HW2  168   0.831   3.075   1.854  1.8378 -2.3854  2.6002
   57SOL     OW  169   1.930   1.081   2.539 -0.3567  0.3142  0.1845
   57SOL    HW1  170   1.953   1.022   2.620  0.6998 -0.2393  2.0534
   57SOL    HW2  171   1.880   1.038   2.462 -1.3945  1.1956 -2.2040
   58SOL     OW  172   2.822   0.964   1.990  0.2042 -0.6864 -0.1509
   58SOL    HW1  173   2.923   0.988   1.985  1.5640 -2.9870  0.9618
   58SOL    HW2  174   2.808   0.866   1.993  0.5303  0.3434  1.0799
   59SOL     OW  175   0.782   2.633   1.636 -0.4060 -1.0266 -0.4594
   59SOL    HW1  176   0.707   2.700   1.661 -0.4458  1.3270  0.3059
   59SOL    HW2  177   0.799   2.646   1.537  2.6779 -0.5071 -0.1234
   60SOL     OW  178   2.154   2.573   0.413  0.3003 -0.4273  0.0511
   60SOL    HW1  179   2.125   2.503   0.485 -1.4543  1.5926  1.1465
   60SOL    HW2  180   2.173   2.522   0.328  1.9953 -1.0298  0.1955
   61SOL     OW  181   1.626   2.574   0.508  0.3704  0.2173 -0.2783
   61SOL    HW1  182   1.640   2.518   0.592  1.9562  0.8334  0.7494
   61SOL    HW2  183   1.546   2.531   0.455 -1.0536 -1.0557  0.3975
   62SOL     OW  184   1.755   2.860   2.967  0.3033 -0.7889  0.8982
   62SOL    HW1  185   1.694   2.895   2.894 -1.0235 -0.1247 -0.0910
   62SOL    HW2  186   1.714   2.813   3.046 -0.9744  2.0490  2.4104
   63SOL     OW  187   2.292   0.447   0.252 -0.5576  0.0450 -0.0372
   63SOL    HW1  188   2.348   0.525   0.222 -1.0670 -1.8860  0.1429
   63SOL    HW2  189   2.340   0.396   0.328 -0.0305 -1.3505 -0.7336
   64SOL     OW  190   1.388   1.113   0.018 -0.3739  0.0980  0.2672
   64SOL    HW1  191   1.369   1.024   3.075  0.5033 -2.7204 -1.6195
   64SOL    HW2  192   1.319   1.182   3.092  1.4740  0.4333 -2.4410
   65SOL     OW  193   0.518   2.373   1.447  0.6314 -0.1755  0.3960
   65SOL    HW1  194   0.446   2.320   1.397  1.4385  0.4731 -2.5196
   65SOL    HW2  195   0.558   2.439   1.377  2.3798 -0.5753  1.6971
   66SOL     OW  196   1.188   1.209   1.332 -0.4144  0.0007  0.0637
   66SOL    HW1  197   1.276   1.260   1.350  0.1637  0.8819 -2.8786
   66SOL    HW2  198   1.109   1.252   1.381  1.4408 -0.1234  1.9604
   67SOL     OW  199   2.414   2.019   1.770  0.1703 -0.0550 -0.6222
   67SOL    HW1  200   2.463   2.102   1.736  0.3959 -0.2157 -2.2852
   67SOL    HW2  201   2.468   1.934   1.743  0.1789  0.8250 -0.3112
   68SOL     OW  202   0.814   1.485   1.652  0.0650  0.0681  0.2369
   68SOL    HW1  203   0.727   1.435   1.621  0.1019 -2.0669  0.6442
   68SOL    HW2  204   0.803   1.544   1.734 -0.4988 -1.4918  0.3836
   69SOL     OW  205   0.099   2.857   3.068  0.2921 -0.3220 -0.3383
   69SOL    HW1  206   0.189   2.842   0.016  1.2340 -1.2351 -1.6129
   69SOL    HW2  207   0.053   2.944   3.101 -2.4705  0.2226 -1.9202
   70SOL     OW  208   2.260   1.089   2.606  0.0008 -0.0034  0.1002
   70SOL    HW1  209   2.229   1.048   2.518  0.8838 -0.3253 -1.6802
   70SOL    HW2  210   2.268   1.192   2.596  0.8390 -0.2025 -2.1184
   71SOL     OW  211   0.741   1.998   0.930  0.6924 -0.2540  0.4407
   71SOL    HW1  212   0.668   2.069   0.953 -0.3528 -0.7421 -0.5081
   71SOL    HW2  213   0.705   1.945   0.847 -2.7470 -1.4374 -0.1074
   72SOL     OW  214   2.755   2.136   0.574  0.1026 -0.7963  0.4477
   72SOL    HW1  215   2.742   2.213   0.507  0.2587  0.9763  0.3844
   72SOL    HW2  216   2.755   2.164   0.672  0.8007  0.7653 -0.1033
   73SOL     OW  217   1.675   0.610   1.138 -0.5944  0.2277  0.0508
   73SOL    HW1  218   1.739   0.680   1.103  0.6700 -0.5040  0.7712
   73SOL    HW2  219   1.584   0.649   1.162 -0.7108 -1.7604  0.4934
   74SOL     OW  220   2.743   2.067   2.138  0.4718 -0.3166 -0.1460
   74SOL    HW1  221   2.782   2.113   2.060 -1.2724  0.0109  0.1683
   74SOL    HW2  222   2.691   2.125   2.197  3.5206  1.7474 -3.8371
   75SOL     OW  223   1.647   1.719   1.780 -0.1782 -0.7981  0.2396
   75SOL    HW1  224   1.569   1.682   1.721 -2.6177 -0.7106 -0.9697
   75SOL    HW2  225   1.727   1.656   1.779 -1.4716 -0.8867 -0.8012
   76SOL     OW  226   1.519   1.675   1.181  0.0144  0.3330  0.1113
   76SOL    HW1  227   1.523   1.754   1.125 -1.8065 -1.4268  2.3599
   76SOL    HW2  228   1.597   1.614   1.165 -0.3147 -2.6092 -0.4750
   77SOL     OW  229   2.551   1.147   1.589 -0.3517  0.4921  0.0456
   77SOL    HW1  230   2.541   1.247   1.605  3.1495 -3.4348  0.0989
   77SOL    HW2  231   2.468   1.108   1.545 -1.9082 -1.0543  1.0223
   78SOL     OW  232   1.633   0.904   0.296 -0.2665  0.2357  0.4752
   78SOL    HW1  233   1.602   0.885   0.201  2.4505 -1.0526  2.8634
   78SOL    HW2  234   1.585   0.847   0.364 -1.6136  0.5541  0.5458
   79SOL     OW  235   1.176   1.485   2.237 -0.0176  0.9510 -0.0272
   79SOL    HW1  236   1.183   1.437   2.328  1.3719  0.0225  0.8651
   79SOL    HW2  237   1.164   1.413   2.167 -2.6655 -1.0691  1.6753
   80SOL     OW  238   1.082   0.269   1.618  0.0287 -0.1122  0.0091
   80SOL    HW1  239   1.076   0.347   1.691  0.0792  4.5697  1.6926
   80SOL    HW2  240   1.143   0.194   1.650 -0.0791  2.3633 -1.9516
   81SOL     OW  241   0.282   2.563   0.201 -1.0234 -0.4121 -0.2893
   81SOL    HW1  242   0.290   2.658   0.178  0.1006 -0.7315  0.3125
   81SOL    HW2  243   0.370   2.512   0.180  1.1142  1.1986 -0.1801
   82SOL     OW  244   1.264   0.097   1.732 -0.6616 -0.1901 -0.1836
   82SOL    HW1  245   1.194   0.086   1.808  1.7931  0.4778 -0.0186
   82SOL    HW2  246   1.327   0.015   1.741  0.9558 -0.2125  1.4101
   83SOL     OW  247   0.382   2.032   1.065  0.0214  0.2829  0.0244
   83SOL    HW1  248   0.285   2.053   1.075  1.2352 -0.6671  3.0811
   83SOL    HW2  249   0.418   2.034   0.968  1.5692  1.5591 -0.9888
   84SOL     OW  250   2.899   1.561   0.792 -0.7215  0.6425  0.3608
   84SOL    HW1  251   2.836   1.495   0.750  0.9021  3.1995 -0.1654
   84SOL    HW2  252   2.962   1.597   0.723  0.0837 -0.2119  0.9358
   85SOL     OW  253   2.308   1.803   1.453  0.2412  0.2867 -0.2770
   85SOL    HW1  254   2.277   1.898   1.426  1.1408  0.2630  0.0075
   85SOL    HW2  255   2.228   1.745   1.464  3.6758  1.2769 -2.2070
   86SOL     OW  256   1.599   2.347   2.009  0.1854 -0.3607 -0.0357
   86SOL    HW1  257   1.508   2.390   1.998  2.7199 -2.6621  1.8494
   86SOL    HW2  258   1.598   2.285   2.087  0.0520  2.0854 -1.7890
   87SOL     OW  259   2.287   1.651   0.593 -0.1579  0.7349  0.0399
   87SOL    HW1  260   2.197   1.677   0.625  1.4588 -0.4659  0.0540
   87SOL    HW2  261   2.352   1.728   0.588 -0.1792  2.2863 -0.8832
   88SOL     OW  262   0.342   3.084   0.962 -0.2136  0.5921 -0.5962
   88SOL    HW1  263   0.341   2.981   0.934 -3.2976 -1.5226  0.7954
   88SOL    HW2  264   0.434   0.029   0.952  0.6626  1.6927 -1.1399
   89SOL     OW  265   0.448   0.671   1.784  0.3031  0.1406 -0.1523
   89SOL    HW1  266   0.492   0.759   1.812  0.9398  0.4726  0.7713
   89SOL    HW2  267   0.521   0.602   1.806  1.0347  2.3323 -1.0658
   90SOL     OW  268   2.916   1.991   0.426 -0.0988  0.0275 -0.5395
   90SOL    HW1  269   3.004   1.957   0.468  0.1872 -1.2471  0.9598
   90SOL    HW2  270   2.863   2.054   0.491  1.5412 -0.3896 -0.5227
   91SOL     OW  271   1.225   1.473   1.060 -0.4822  0.4406 -0.7097
   91SOL    HW1  272   1.171   1.479   1.146 -1.6156 -0.1337  1.1559
   91SOL    HW2  273   1.325   1.442   1.087  3.0335  0.2317  1.6223
   92SOL     OW  274   2.269   0.050   1.770  0.0542  0.0759 -0.0645
   92SOL    HW1  275   2.368   0.069   1.790  2.9656  2.5513  0.7650
   92SOL    HW2  276   2.253   3.077   1.707  1.6949  1.9330 -0.1084
   93SOL     OW  277   0.509   1.358   2.802 -0.8367 -0.1211  0.3908
   93SOL    HW1  278   0.539   1.395   2.890 -1.8606 -0.1052 -1.2702
   93SOL    HW2  279   0.479   1.435   2.742  0.0103  0.9361  0.7041
   94SOL     OW  280   2.595   0.043   1.722  0.1455  0.4554  0.2294
   94SOL    HW1  281   2.549   0.131   1.753 -2.8028  3.5934  0.0435
   94SOL    HW2  282   2.660   0.007   1.789  0.3635  3.2121  0.0018
   95SOL     OW  283   1.900   0.357   1.976  0.2637 -0.6009 -0.2840
   95SOL    HW1  284   1.840   0.297   2.039 -0.1827 -1.6318 -1.7610
   95SOL    HW2  285   1.960   0.303   1.913  1.2674 -0.3168  0.6339
   96SOL     OW  286   0.420   0.348   1.659 -0.9591  0.4758  0.6485
   96SOL    HW1  287   0.324   0.344   1.621 -1.0623  2.1798 -1.0264
   96SOL    HW2  288   0.480   0.416   1.612 -0.8084  0.1981  0.3949
   97SOL     OW  289   1.873   0.134   1.612 -0.3527 -0.0360  0.2232
   97SOL    HW1  290   1.794   0.160   1.553  1.4577  0.2905 -2.3029
   97SOL    HW2  291   1.836   0.121   1.704  0.5457 -2.3099 -3.1440
   98SOL     OW  292   2.047   2.369   1.695  1.0351  0.0847  0.0596
   98SOL    HW1  293   2.134   2.388   1.654 -1.1681  0.7745 -2.3318
   98SOL    HW2  294   2.041   2.405   1.793 -0.0081  0.6330  0.2949
   99SOL     OW  295   0.843   0.759   0.797  0.1621  0.2914  1.1194
   99SOL    HW1  296   0.876   0.717   0.707 -0.5190  0.8408 -2.0388
   99SOL    HW2  297   0.744   0.772   0.790 -0.2003 -1.4562  0.5526
  100SOL     OW  298   2.806   1.810   2.202  0.4699  0.3191 -0.3171
  100SOL    HW1  299   2.764   1.900   2.179 -1.0471 -0.8043  1.8083
  100SOL    HW2  300   2.896   1.800   2.155 -0.2103 -0.1822 -0.3373
  101SOL     OW  301   1.700   0.225   0.100  0.4172  0.5338 -0.2945
  101SOL    HW1  302   1.705   0.314   0.047 -1.7814 -3.1600 -0.2003
  101SOL    HW2  303   1.640   0.153   0.062  1.3798  1.4995 -0.0822
  102SOL     OW  304   0.021   2.995   1.196 -0.2138  0.5083  0.0131
  102SOL    HW1  305   3.074   3.045   1.120  0.0893  2.1241 -1.9235
  102SOL    HW2  306   0.010   2.895   1.187  0.3488  0.2890  0.0815
  103SOL     OW  307   0.072   2.860   2.229 -0.5001  0.0248 -0.5007
  103SOL    HW1  308   3.075   2.867   2.256 -1.8363  3.1273 -1.2017
  103SOL    HW2  309   0.107   2.771   2.255 -1.2889  1.0771  0.8040
  104SOL     OW  310   0.279   2.077   1.521  0.0547  0.6097 -0.0222
  104SOL    HW1  311   0.181   2.099   1.541  1.0135  1.0494 -2.5101
  104SOL    HW2  312   0.308   2.147   1.445  2.3167  2.7662 -0.2387
  105SOL     OW  313   0.569   1.852   2.036  0.2336 -0.3360 -0.4161
  105SOL    HW1  314   0.670   1.863   2.035  1.1236 -1.9470  1.4391
  105SOL    HW2  315   0.523   1.884   1.948 -0.8502 -0.4033 -0.9336
  106SOL     OW  316   2.050   3.043   0.477 -0.9301 -0.2604  0.1399
  106SOL    HW1  317   2.090   0.006   0.549  0.9608  1.7162  1.4256
  106SOL    HW2  318   2.044   3.085   0.384  0.5118  1.6296  0.2610
  107SOL     OW  319   0.681   1.146   0.992 -0.3417 -0.0534 -0.1285
  107SOL    HW1  320   0.727   1.060   1.017 -1.3830  0.5843 -0.8924
  107SOL    HW2  321   0.588   1.124   0.960 -1.5065  1.2614 -1.2693
  108SOL     OW  322   2.775   1.156   2.183 -0.0760  0.2385  0.0124
  108SOL    HW1  323   2.778   1.067   2.132 -0.7552 -1.8442  3.3993
  108SOL    HW2  324   2.848   1.219   2.155  1.3404  0.1636  1.0243
  109SOL     OW  325   2.011   2.949   3.000 -0.6491  0.1784 -0.4885
  109SOL    HW1  326   2.008   3.049   2.989  0.1891 -0.4655  0.2089
  109SOL    HW2  327   1.921   2.910   2.993  1.3445  2.6090  0.5332
  110SOL     OW  328   0.247   2.016   3.064  0.5194 -0.5117 -0.9714
  110SOL    HW1  329   0.149   2.027   3.042  0.4174 -2.5302 -0.7306
  110SOL    HW2  330   0.278   1.923   3.049 -2.2879 -1.4346  0.3235
  111SOL     OW  331   2.612   0.948   2.266  0.1561  0.1125  0.0442
  111SOL    HW1  332   2.663   1.029   2.232 -0.2487 -0.4989 -0.2776
  111SOL    HW2  333   2.608   0.958   2.367 -1.7065  1.2316  2.5594
  112SOL     OW  334   2.197   2.630   1.421  0.4462  0.0980  0.0075
  112SOL    HW1  335   2.115   2.686   1.460 -0.0996 -0.6941  0.1962
  112SOL    HW2  336   2.224   2.563   1.493 -0.4611  0.8272  0.3471
  113SOL     OW  337   1.978   2.268   2.595 -0.1353  0.1007  0.2123
  113SOL    HW1  338   2.066   2.214   2.596  0.4733 -1.2766  0.9915
  113SOL    HW2  339   1.961   2.315   2.685 -0.4751  0.9314  2.4502
  114SOL     OW  340   0.545   0.257   0.481  0.0092  0.6094 -0.2894
  114SOL    HW1  341   0.519   0.239   0.386 -0.0467 -0.3107  4.0085
  114SOL    HW2  342   0.630   0.202   0.489  1.8615  1.0842 -1.1710
  115SOL     OW  343   0.114   1.621   0.057 -0.2935  0.0658 -0.0008
  115SOL    HW1  344   0.146   1.528   0.083  1.6687 -0.6213 -0.3777
  115SOL    HW2  345   0.194   1.663   0.008  1.6437 -0.4218 -2.0258
  116SOL     OW  346   2.989   1.250   1.699  0.1024 -0.1075 -0.0612
  116SOL    HW1  347   3.009   1.349   1.688 -0.3753  1.2694  1.0332
  116SOL    HW2  348   2.909   1.223   1.637 -0.4562  1.0587  0.4658
  117SOL     OW  349   2.041   0.110   1.365 -0.0772  0.8047  0.0940
  117SOL    HW1  350   2.081   0.201   1.365 -1.1256 -2.0160  0.1199
  117SOL    HW2  351   2.003   0.090   1.455 -1.1215  2.1474 -1.9908
  118SOL     OW  352   2.694   2.729   2.042 -0.4484 -0.2475  0.0670
  118SOL    HW1  353   2.655   2.741   1.947  0.6481 -0.8092  0.3715
  118SOL    HW2  354   2.783   2.693   2.052 -1.7880  0.6462  1.6813
  119SOL     OW  355   0.516   1.572   1.362  0.1622 -0.0339 -0.1886
  119SOL    HW1  356   0.574   1.493   1.352  0.8495  1.6989  1.5109
  119SOL    HW2  357   0.565   1.648   1.408  1.4505  1.4320 -0.7213
  120SOL     OW  358   0.428   1.418   1.645  0.0651  0.5195 -0.3370
  120SOL    HW1  359   0.501   1.360   1.600 -0.7911 -3.9345 -2.2242
  120SOL    HW2  360   0.369   1.453   1.565 -2.0386 -1.1061  0.7113
  121SOL     OW  361   1.516   1.012   0.902 -0.4429 -0.2684  0.0852
  121SOL    HW1  362   1.615   1.002   0.916  2.3717 -0.8978 -0.4742
  121SOL    HW2  363   1.500   1.092   0.854  1.4986 -1.7108  2.5549
  122SOL     OW  364   2.353   2.533   2.556  0.1696 -0.2046  0.6383
  122SOL    HW1  365   2.304   2.571   2.635 -2.1596 -1.9663  1.4553
  122SOL    HW2  366   2.300   2.550   2.469  1.6969 -0.3696  1.7793
  123SOL     OW  367   3.037   3.028   0.393 -0.1120  0.5086  0.2740
  123SOL    HW1  368   3.048   3.074   0.484 -1.3366  2.1919  2.2498
  123SOL    HW2  369   3.079   2.937   0.390  1.3375  0.3399  0.2778
  124SOL     OW  370   1.783   1.350   0.277 -0.4943 -0.0820  0.3705
  124SOL    HW1  371   1.692   1.390   0.255  1.9390 -0.2127  1.5123
  124SOL    HW2  372   1.858   1.396   0.223  0.3090  0.6352  0.3831
  125SOL     OW  373   0.146   1.055   2.136 -0.5206 -0.0800  0.4652
  125SOL    HW1  374   0.097   0.970   2.156  2.2472 -0.6384  0.4267
  125SOL    HW2  375   0.241   1.029   2.110  0.8875  0.3105  2.3335
  126SOL     OW  376   0.013   2.623   2.971  0.1058 -0.0486  0.5235
  126SOL    HW1  377   3.015   2.626   2.973 -2.3987 -3.4554 -0.4968
  126SOL    HW2  378   0.046   2.702   3.020  0.1802 -1.9387 -2.1078
  127SOL     OW  379   2.916   1.990   0.156 -0.4684  0.2337  0.0184
  127SOL    HW1  380   2.940   2.002   0.252 -0.0695  0.8693 -2.2265
  127SOL    HW2  381   2.814   2.009   0.138  0.0450  0.1615 -0.8335
  128SOL     OW  382   1.173   0.915   0.920 -0.2117  0.4525  0.5963
  128SOL    HW1  383   1.106   0.991   0.909  5.0272 -0.7541 -0.3079
  128SOL    HW2  384   1.245   0.945   0.981 -0.8724  1.4863 -1.3347
  129SOL     OW  385   2.524   2.075   1.190 -0.5362 -0.5618  0.0549
  129SOL    HW1  386   2.461   1.991   1.184 -0.7588 -0.3256  0.5723
  129SOL    HW2  387   2.486   2.143   1.125  1.6853 -3.3502  0.9544
  130SOL     OW  388   2.036   0.906   0.339  0.1694 -0.4632 -0.0726
  130SOL    HW1  389   2.130   0.940   0.345 -3.6006  4.1507  0.9915
  130SOL    HW2  390   1.968   0.981   0.351  1.9341 -4.8911  3.3826
  131SOL     OW  391   2.925   1.458   2.596  0.1932 -0.3078  0.2086
  131SOL    HW1  392   2.930   1.511   2.506 -0.9800  1.7936  2.0911
  131SOL    HW2  393   3.009   1.475   2.658  0.0554  0.3831  0.7007
  132SOL     OW  394   1.124   1.252   2.093 -0.4598 -0.1624 -0.0311
  132SOL    HW1  395   1.052   1.321   2.065  0.2342 -1.1746  2.3867
  132SOL    HW2  396   1.115   1.175   2.026 -1.4180 -0.4390  0.0565
  133SOL     OW  397   0.473   1.320   0.590  0.0432 -0.5796 -0.1032
  133SOL    HW1  398   0.575   1.289   0.578  0.6990  1.4849  1.4439
  133SOL    HW2  399   0.463   1.382   0.675  1.5321  0.4739  2.0581
  134SOL     OW  400   3.019   1.342   3.066  0.1356  0.3475  0.1209
  134SOL    HW1  401   3.010   1.254   3.025 -0.1669  0.0985  1.8350
  134SOL    HW2  402   3.039   1.325   0.062  1.1908  0.4713 -2.0516
  135SOL     OW  403   1.548   0.806   0.019 -0.5826 -0.4201  0.1107
  135SOL    HW1  404   1.493   0.857   3.056  1.0199 -3.3593  0.1395
  135SOL    HW2  405   1.627   0.768   3.066  1.6501  1.2482  0.1282
  136SOL     OW  406   2.070   1.650   1.436 -0.0876  0.2929  0.2320
  136SOL    HW1  407   2.087   1.584   1.356 -0.6379 -2.5875  0.9868
  136SOL    HW2  408   1.970   1.649   1.456 -0.4167  0.3996 -1.1766
  137SOL     OW  409   2.301   2.518   0.820  0.2446 -0.2375 -0.3855
  137SOL    HW1  410   2.230   2.587   0.788 -1.5923  0.0202  0.8874
  137SOL    HW2  411   2.249   2.427   0.838 -2.0330 -0.9011  0.9324
  138SOL     OW  412   2.245   0.434   1.897 -0.3961 -0.2341 -0.6739
  138SOL    HW1  413   2.226   0.460   1.996  1.2784 -1.3714  2.0965
  138SOL    HW2  414   2.170   0.381   1.859  2.1945  1.0714  3.2226
  139SOL     OW  415   2.559   2.779   2.986 -0.2784  0.9597 -0.6374
  139SOL    HW1  416   2.646   2.764   3.041 -2.2066  0.3762 -2.1957
  139SOL    HW2  417   2.566   2.723   2.895  1.6473  0.6429  0.5530
  140SOL     OW  418   1.720   1.765   2.377 -0.0747 -0.3800 -0.2877
  140SOL    HW1  419   1.690   1.836   2.314  2.3333 -2.8305  0.4397
  140SOL    HW2  420   1.699   1.676   2.335  1.1083  1.3987 -0.3612
  141SOL     OW  421   0.927   1.154   2.565  0.2060 -0.1028  0.2961
  141SOL    HW1  422   0.908   1.248   2.527  0.4901 -0.7012  0.1213
  141SOL    HW2  423   0.993   1.144   2.641  1.8044 -0.9474  2.1265
  142SOL     OW  424   2.315   2.841   1.857  0.3136 -0.1531  0.2241
  142SOL    HW1  425   2.378   2.906   1.903  3.4424  0.5764 -0.7413
  142SOL    HW2  426   2.237   2.817   1.917  1.4906 -0.1124 -1.6600
  143SOL     OW  427   1.109   2.379   0.441 -0.1948  0.1406  0.3775
  143SOL    HW1  428   1.114   2.469   0.493  1.1802  0.9903  0.2619
  143SOL    HW2  429   1.011   2.354   0.428 -0.5643 -1.6433 -0.6981
  144SOL     OW  430   1.055   2.637   0.525 -0.4147 -0.4335 -0.0717
  144SOL    HW1  431   1.085   2.728   0.497 -1.4448 -1.2540 -0.7988
  144SOL    HW2  432   0.958   2.627   0.506  1.2230  2.5174  1.0039
  145SOL     OW  433   1.731   2.627   2.318 -0.4712 -0.7119  0.3519
  145SOL    HW1  434   1.644   2.582   2.342  0.1325  2.8696 -0.8349
  145SOL    HW2  435   1.743   2.721   2.360  0.1204  0.5094 -0.4794
  146SOL     OW  436   2.068   2.965   0.170  0.0433  0.4958  0.4400
  146SOL    HW1  437   2.072   2.952   0.070 -0.1134  0.8964 -0.5100
  146SOL    HW2  438   2.033   2.879   0.212  1.5780 -0.0610  0.9280
  147SOL     OW  439   0.256   1.599   1.433  0.4155 -0.6163  0.1326
  147SOL    HW1  440   0.360   1.586   1.424 -0.9752 -2.3930  2.7796
  147SOL    HW2  441   0.208   1.518   1.394  0.2894  1.8079  1.0876
  148SOL     OW  442   1.719   2.932   0.317  0.5844  0.2520 -0.5732
  148SOL    HW1  443   1.768   3.005   0.279 -0.0092 -1.2999  0.6725
  148SOL    HW2  444   1.772   2.844   0.299 -2.9372  0.0459  3.0203
  149SOL     OW  445   0.749   1.916   3.062 -0.2090  0.4411  0.7145
  149SOL    HW1  446   0.847   1.911   3.041 -0.1181  0.8342  1.7645
  149SOL    HW2  447   0.712   2.010   3.089 -0.1448  0.8577  0.9678
  150SOL     OW  448   0.251   2.578   1.118 -0.2185 -0.1382 -0.4727
  150SOL    HW1  449   0.299   2.631   1.194 -1.8389 -1.6532  3.7104
  150SOL    HW2  450   0.235   2.637   1.039  1.1961  0.4151  0.5186
  151SOL     OW  451   0.455   1.140   2.972 -0.5711 -0.2863 -0.0116
  151SOL    HW1  452   0.468   1.211   2.897  1.4681  2.2022 -2.4389
  151SOL    HW2  453   0.368   1.162   3.022 -0.6748  3.0451 -0.4440
  152SOL     OW  454   3.077   2.136   0.867  0.1801 -0.2697  0.5966
  152SOL    HW1  455   2.986   2.094   0.863  1.5324 -1.2337  0.8892
  152SOL    HW2  456   3.069   2.237   0.878  0.0511 -1.8477  1.0602
  153SOL     OW  457   1.714   2.362   0.685  0.1962  0.0536 -0.3925
  153SOL    HW1  458   1.765   2.324   0.604  0.2533 -0.5750  2.5099
  153SOL    HW2  459   1.637   2.304   0.713  0.2013  0.1005  1.9313
  154SOL     OW  460   0.571   2.985   1.489 -0.3089  0.4042 -0.2288
  154SOL    HW1  461   0.497   3.049   1.450 -1.8632 -1.1963 -0.9253
  154SOL    HW2  462   0.653   3.039   1.520 -1.7668 -1.0800 -1.7965
  155SOL     OW  463   2.749   2.353   0.418  0.5469  0.0129  0.0173
  155SOL    HW1  464   2.767   2.443   0.452  2.6687 -0.9614 -2.4963
  155SOL    HW2  465   2.781   2.342   0.316  1.7746 -1.3790 -2.8226
  156SOL     OW  466   2.647   1.989   0.100 -0.3758 -0.0492  0.0803
  156SOL    HW1  467   2.628   2.011   0.004 -1.6363 -0.1773  0.7576
  156SOL    HW2  468   2.574   2.022   0.167 -0.7732  0.0769  1.4023
  157SOL     OW  469   0.561   2.894   1.910 -0.1937  0.6222 -0.6244
  157SOL    HW1  470   0.561   2.997   1.918  0.0425  2.1780  1.4255
  157SOL    HW2  471   0.578   2.856   1.998  0.7270  0.9104 -2.6568
  158SOL     OW  472   1.420   0.731   1.219 -0.2762 -0.3701  0.1863
  158SOL    HW1  473   1.409   0.828   1.195  0.6646 -3.5715  0.3165
  158SOL    HW2  474   1.353   0.708   1.291  1.6170 -0.3827  0.7135
  159SOL     OW  475   1.909   1.056   0.054 -0.3901  0.6686 -0.3619
  159SOL    HW1  476   1.981   1.022   3.091  1.8790 -1.5447 -2.7345
  159SOL    HW2  477   1.862   0.980   0.097 -1.1620  2.1549  0.8794
  160SOL     OW  478   1.255   1.914   0.538 -0.0762  0.6492  0.5046
  160SOL    HW1  479   1.298   2.004   0.523 -2.3795 -4.0715  0.2189
  160SOL    HW2  480   1.212   1.909   0.631  1.4843  1.2992 -0.3216
  161SOL     OW  481   2.221   2.148   2.587 -0.4622  0.0038  0.3037
  161SOL    HW1  482   2.304   2.190   2.632  2.7526 -2.7480  0.3878
  161SOL    HW2  483   2.235   2.044   2.589 -0.6916 -1.2007  1.7097
  162SOL     OW  484   0.155   2.405   1.654 -0.4487 -0.7673 -0.4179
  162SOL    HW1  485   0.107   2.336   1.594  0.6833 -1.3560 -0.0650
  162SOL    HW2  486   0.220   2.468   1.609  2.0418  2.7238  1.0601
  163SOL     OW  487   0.327   0.607   2.615  0.2411  0.4661  0.1380
  163SOL    HW1  488   0.354   0.616   2.715 -0.5154 -1.4110  2.0055
  163SOL    HW2  489   0.279   0.690   2.579 -0.7429  1.5151  4.0631
  164SOL     OW  490   0.116   2.864   2.769 -0.0523 -0.1683  0.0250
  164SOL    HW1  491   0.140   2.948   2.718 -0.0082 -1.4828  0.5163
  164SOL    HW2  492   0.089   2.881   2.869 -2.6272 -1.0540  0.6431
  165SOL     OW  493   2.609   0.788   1.664  0.0223  0.8892  0.1344
  165SOL    HW1  494   2.564   0.728   1.598 -1.5401  0.5620  0.8467
  165SOL    HW2  495   2.696   0.822   1.620  0.7182 -1.5248 -1.6602
  166SOL     OW  496   2.152   1.537   1.185 -0.3410 -0.0712 -0.0409
  166SOL    HW1  497   2.069   1.486   1.161 -0.8640  1.2090 -1.9299
  166SOL    HW2  498   2.204   1.561   1.099  0.8558 -0.5300 -0.5139
  167SOL     OW  499   0.211   0.807   2.461 -0.1592 -0.0179  0.2372
  167SOL    HW1  500   0.167   0.809   2.370 -1.4702  0.1530 -0.3071
  167SOL    HW2  501   0.155   0.859   2.529  2.8634 -2.1549 -3.7478
  168SOL     OW  502   2.179   0.320   2.460  0.4310  0.1543 -0.0508
  168SOL    HW1  503   2.081   0.308   2.496 -2.7101 -0.9429  0.3160
  168SOL    HW2  504   2.206   0.418   2.456 -0.9837  0.7135  2.0173
  169SOL     OW  505   0.573   0.932   3.092  0.1664 -0.0925  0.3199
  169SOL    HW1  506   0.507   0.906   0.063 -0.8641  0.3514  0.8839
  169SOL    HW2  507   0.535   1.014   3.045  1.5384 -1.5791  0.5860
  170SOL     OW  508   1.024   1.373   1.505  0.0819 -0.1097 -0.1080
  170SOL    HW1  509   0.950   1.441   1.525 -0.6501  1.1509 -1.6915
  170SOL    HW2  510   1.041   1.319   1.589 -0.4612 -1.1928 -0.4586
  171SOL     OW  511   1.198   2.565   1.375 -0.6957 -0.0412  0.3850
  171SOL    HW1  512   1.127   2.637   1.355 -0.3815 -0.7601  0.6893
  171SOL    HW2  513   1.288   2.594   1.334  1.0458 -0.9497 -2.0040
  172SOL     OW  514   0.903   2.923   1.916 -0.2937  0.8278  0.1066
  172SOL    HW1  515   0.833   2.923   1.995 -2.8317  0.3785  0.0059
  172SOL    HW2  516   0.944   2.831   1.889  2.2105  0.4510  1.9843
  173SOL     OW  517   0.469   2.603   0.723  0.6717 -0.4277 -0.6827
  173SOL    HW1  518   0.476   2.526   0.662 -1.4591  4.4497  1.5532
  173SOL    HW2  519   0.509   2.591   0.817 -1.5377  2.4299 -1.6031
  174SOL     OW  520   2.009   0.221   0.399  0.2261 -0.1669 -0.4963
  174SOL    HW1  521   2.050   0.234   0.494  0.1517  0.7093  2.8739
  174SOL    HW2  522   1.921   0.171   0.400  1.1135  1.7373  1.9799
  175SOL     OW  523   1.458   1.301   0.836  0.0469  0.5142 -0.0733
  175SOL    HW1  524   1.460   1.402   0.853 -2.4761 -0.4153 -0.5285
  175SOL    HW2  525   1.384   1.276   0.767 -0.5276  1.5408  1.6652
  176SOL     OW  526   1.183   1.675   0.860  0.4794  0.2226 -0.2323
  176SOL    HW1  527   1.161   1.768   0.883  1.9976 -3.1535  1.1837
  176SOL    HW2  528   1.150   1.611   0.931  1.6663 -1.3312 -3.6748
  177SOL     OW  529   1.726   1.213   1.150 -0.3879  0.0390  0.4517
  177SOL    HW1  530   1.751   1.187   1.058  0.2775  1.2638  0.4516
  177SOL    HW2  531   1.750   1.144   1.222  0.4027  0.2010  0.1066
  178SOL     OW  532   2.166   1.602   0.278 -1.1948 -0.1621 -0.0916
  178SOL    HW1  533   2.200   1.635   0.371  0.1944  1.3333  4.1924
  178SOL    HW2  534   2.216   1.644   0.200  0.1102 -1.1249  0.9591
  179SOL     OW  535   1.268   2.887   3.079 -0.1003 -0.4218 -0.3192
  179SOL    HW1  536   1.363   2.876   0.009 -1.3169  1.8091 -0.0413
  179SOL    HW2  537   1.232   2.805   3.030 -0.0630  0.3236 -0.3704
  180SOL     OW  538   1.972   1.246   1.440 -0.3633 -0.0804  0.1399
  180SOL    HW1  539   1.910   1.303   1.494  0.4618 -0.3466 -0.8712
  180SOL    HW2  540   1.980   1.289   1.351 -1.2515 -0.6407 -0.9563
  181SOL     OW  541   0.757   0.797   1.707 -0.3560 -0.3770 -0.3291
  181SOL    HW1  542   0.851   0.837   1.700 -0.5165 -0.8897  0.4314
  181SOL    HW2  543   0.754   0.700   1.737  0.2613 -0.9806 -0.9764
  182SOL     OW  544   0.035   0.925   2.629  0.4198 -0.2366 -0.1190
  182SOL    HW1  545   3.065   0.858   2.605  2.3452  1.2933 -0.2921
  182SOL    HW2  546   0.007   1.022   2.607 -0.3003  0.2505 -1.0169
  183SOL     OW  547   1.463   0.497   2.332  0.7050  0.3324 -0.1671
  183SOL    HW1  548   1.560   0.490   2.371  2.5106 -0.8693  1.9812
  183SOL    HW2  549   1.396   0.491   2.408  1.0586 -2.9313 -1.8035
  184SOL     OW  550   0.814   0.472   1.160  0.1760 -0.3744 -0.2539
  184SOL    HW1  551   0.863   0.498   1.074 -2.7510 -2.2234  1.3531
  184SOL    HW2  552   0.871   0.403   1.208 -0.5789 -0.7350  1.7297
  185SOL     OW  553   2.322   1.258   0.512  0.2186 -0.1467  0.0261
  185SOL    HW1  554   2.409   1.292   0.477 -1.0148  0.9316  1.5741
  185SOL    HW2  555   2.250   1.308   0.459 -0.3370 -0.6494 -0.8788
  186SOL     OW  556   0.260   2.000   0.225 -0.5915  0.1514 -0.9873
  186SOL    HW1  557   0.214   1.917   0.264  0.1917  1.4056 -0.0661
  186SOL    HW2  558   0.258   1.998   0.127 -1.4681 -2.9358  3.7511
  187SOL     OW  559   1.821   2.195   2.947 -0.7456  0.1358 -0.2101
  187SOL    HW1  560   1.889   2.132   2.987 -0.3608  0.0505  1.2202
  187SOL    HW2  561   1.863   2.277   2.916 -2.0616  0.1562  1.4867
  188SOL     OW  562   1.422   2.304   1.582  0.5078 -0.0752 -0.1145
  188SOL    HW1  563   1.362   2.250   1.638  2.7699  0.6663 -2.8971
  188SOL    HW2  564   1.485   2.242   1.533 -2.9748 -1.2144  0.7742
  189SOL     OW  565   2.306   1.346   2.613 -0.1111  0.1633  0.2090
  189SOL    HW1  566   2.276   1.436   2.648 -0.3871 -1.7106 -1.4628
  189SOL    HW2  567   2.344   1.358   2.519 -3.1742 -0.5352 -4.0930
  190SOL     OW  568   0.672   2.698   2.132  0.7784  0.3316  0.4511
  190SOL    HW1  569   0.683   2.633   2.054 -1.6882  0.7476  1.7041
  190SOL    HW2  570   0.572   2.721   2.151 -2.0494 -2.5841 -0.4688
  191SOL     OW  571   2.777   0.999   1.066 -0.0779 -0.2945 -1.1591
  191SOL    HW1  572   2.764   1.079   1.131 -1.7266  1.0613  0.4272
  191SOL    HW2  573   2.758   1.023   0.969 -0.0234  1.1998 -2.1961
  192SOL     OW  574   2.169   0.582   1.124  0.3547 -0.2851  0.4639
  192SOL    HW1  575   2.158   0.521   1.200  1.5392  3.7339 -0.4096
  192SOL    HW2  576   2.077   0.599   1.078 -1.5794  0.6761  3.4933
  193SOL     OW  577   0.757   0.288   0.127 -0.0232  0.2611  0.2657
  193SOL    HW1  578   0.703   0.340   0.059 -2.6285  1.8409  1.2189
  193SOL    HW2  579   0.718   0.194   0.131  0.3391 -0.5602 -1.1230
  194SOL     OW  580   1.480   2.411   1.074 -0.0887 -0.0355  0.7748
  194SOL    HW1  581   1.489   2.499   1.130  0.2191  0.5645  0.1662
  194SOL    HW2  582   1.557   2.344   1.093  2.1833 -1.4128  0.4885
  195SOL     OW  583   2.816   0.871   0.464  0.4003  0.2319 -0.0051
  195SOL    HW1  584   2.879   0.866   0.545  0.0936 -2.2737 -1.3470
  195SOL    HW2  585   2.763   0.784   0.447 -0.3313  0.5942 -2.6709
  196SOL     OW  586   0.511   2.220   1.669  0.3094 -0.7153 -0.3171
  196SOL    HW1  587   0.412   2.198   1.681  0.3826  0.3256 -0.9847
  196SOL    HW2  588   0.525   2.284   1.588 -0.4114  1.5051 -1.3023
  197SOL     OW  589   3.048   0.586   2.117 -0.2213 -0.1640  0.5403
  197SOL    HW1  590   3.001   0.512   2.168 -1.2091  0.7626 -0.9942
  197SOL    HW2  591   2.989   0.617   2.038  1.0220  0.2658 -0.6823
  198SOL     OW  592   2.117   1.350   0.353  0.0762 -0.2383 -0.1149
  198SOL    HW1  593   2.049   1.297   0.300 -2.2446 -2.5839  1.3892
  198SOL    HW2  594   2.154   1.424   0.294 -3.6694 -2.2373 -0.5190
  199SOL     OW  595   2.454   0.265   1.834  0.7923 -0.3095 -0.3272
  199SOL    HW1  596   2.361   0.301   1.863 -2.3257  2.8799 -1.9521
  199SOL    HW2  597   2.497   0.335   1.778 -1.1660  0.9084 -0.8049
  200SOL     OW  598   2.016   0.129   3.067 -0.2514  0.4042  0.4631
  200SOL    HW1  599   2.055   0.171   0.048  0.5181 -0.7300  0.6050
  200SOL    HW2  600   1.977   0.203   3.009 -1.5709  1.3388 -1.3152
  201SOL     OW  601   2.663   0.164   0.943 -0.0120  0.0203  0.0477
  201SOL    HW1  602   2.569   0.170   0.985  1.5437 -0.0612 -0.1229
  201SOL    HW2  603   2.680   0.261   0.916 -0.2624  1.0663  1.1495
  202SOL     OW  604   2.963   2.688   0.196  0.2173  0.1975  0.5431
  202SOL    HW1  605   3.045   2.728   0.242 -1.2912  2.0984 -0.9712
  202SOL    HW2  606   2.879   2.739   0.233  1.0406 -2.0864  1.1027
  203SOL     OW  607   1.806   1.896   0.607 -0.0684  0.1817  0.3383
  203SOL    HW1  608   1.709   1.898   0.637  0.8525 -0.8158 -2.3614
  203SOL    HW2  609   1.865   1.964   0.645  0.3423 -0.6762 -2.1429
  204SOL     OW  610   0.212   1.709   2.172 -0.4276 -0.3062  0.1211
  204SOL    HW1  611   0.299   1.683   2.126 -0.4485  0.6373  0.4236
  204SOL    HW2  612   0.161   1.625   2.197 -0.1400  0.6667 -1.4670
  205SOL     OW  613   0.882   0.359   0.713 -0.7629 -0.3127  0.1384
  205SOL    HW1  614   0.878   0.433   0.643 -0.3928 -0.6563  2.2628
  205SOL    HW2  615   0.953   0.387   0.785 -0.9061 -1.7073  1.5420
  206SOL     OW  616   0.351   0.636   2.875 -0.1441  0.3511 -0.1083
  206SOL    HW1  617   0.358   0.596   2.972  1.6847 -0.1486  0.3624
  206SOL    HW2  618   0.353   0.738   2.877 -0.9135  0.9886  0.3270
  207SOL     OW  619   1.087   2.438   1.910 -0.3530  0.0938 -0.3479
  207SOL    HW1  620   1.081   2.441   2.011 -1.6684 -0.3356  1.5561
  207SOL    HW2  621   1.061   2.345   1.883  0.9247  1.8712  2.6047
  208SOL     OW  622   2.632   0.190   1.480 -0.1385 -0.6173 -0.0826
  208SOL    HW1  623   2.680   0.275   1.509  0.2223 -2.0888  3.2774
  208SOL    HW2  624   2.649   0.112   1.547  1.2293  1.2098  2.8385
  209SOL     OW  625   1.831   0.768   0.672 -0.0630  0.2269 -0.3986
  209SOL    HW1  626   1.919   0.786   0.720 -1.4218 -1.8896 -0.9318
  209SOL    HW2  627   1.755   0.722   0.728  1.3428 -0.6581  1.1638
  210SOL     OW  628   2.579   1.021   0.408 -0.2027  0.0802  0.6486
  210SOL    HW1  629   2.656   0.973   0.449 -1.1959  0.2889 -0.5913
  210SOL    HW2  630   2.577   1.117   0.434  0.8380  1.7483 -0.4562
  211SOL     OW  631   1.147   3.024   0.183  0.7595  0.0203 -0.2997
  211SOL    HW1  632   1.182   0.019   0.193  1.7701  0.0042  2.2614
  211SOL    HW2  633   1.192   2.977   0.103 -2.1363 -0.9022  1.1486
  212SOL     OW  634   2.020   2.064   0.637  0.2830 -0.3435 -0.3035
  212SOL    HW1  635   2.078   2.065   0.722 -0.5602 -1.5148  0.2808
  212SOL    HW2  636   2.067   2.036   0.551  0.4840  3.9343  0.7604
  213SOL     OW  637   2.500   0.147   0.041 -0.1145 -0.2054 -0.2987
  213SOL    HW1  638   2.449   0.073   3.092  1.8980 -2.4407 -1.1077
  213SOL    HW2  639   2.472   0.236   0.005 -0.5182 -0.0981  1.2020
  214SOL     OW  640   1.082   2.366   2.161 -0.3074 -0.3443 -0.2957
  214SOL    HW1  641   1.016   2.346   2.236 -1.6360  0.5009 -0.8723
  214SOL    HW2  642   1.149   2.291   2.146  1.3893  1.5764  1.5595
  215SOL     OW  643   0.448   1.076   0.844 -0.1993 -0.5841  0.4038
  215SOL    HW1  644   0.390   1.076   0.929 -1.9153  0.8457  0.9213
  215SOL    HW2  645   0.413   1.154   0.783 -1.6268  1.8849 -1.7798
  216SOL     OW  646   0.232   2.693   2.574 -0.3187 -0.3748 -0.0095
  216SOL    HW1  647   0.331   2.695   2.599  0.9124 -0.3037  1.3502
  216SOL    HW2  648   0.180   2.758   2.639 -6.1831  1.4368  2.0912
  217SOL     OW  649   2.809   1.205   1.231 -0.5228 -0.2477 -0.4196
  217SOL    HW1  650   2.889   1.263   1.205  0.1042  1.3569 -0.8132
  217SOL    HW2  651   2.813   1.173   1.329 -1.5026 -2.6679  0.9584
  218SOL     OW  652   0.948   2.211   1.856  0.0269 -0.3069 -0.0896
  218SOL    HW1  653   0.859   2.247   1.826  0.5937 -1.0984 -0.4073
  218SOL    HW2  654   0.944   2.161   1.945 -0.9218  0.2209  0.4205
  219SOL     OW  655   1.872   1.579   0.117  0.2206 -0.2510 -0.1873
  219SOL    HW1  656   1.790   1.631   0.151  0.1512 -0.1988 -0.3562
  219SOL    HW2  657   1.951   1.602   0.170 -2.7826  1.4669  1.8307
  220SOL     OW  658   2.089   0.472   3.039  0.3976 -0.5789  0.1497
  220SOL    HW1  659   2.071   0.411   0.014  1.5293 -0.7945 -2.5324
  220SOL    HW2  660   2.119   0.568   3.069  1.2631 -0.0361  1.4075
  221SOL     OW  661   2.932   0.727   0.170  0.3001  0.8488  0.2186
  221SOL    HW1  662   2.996   0.692   0.245  2.1671  1.3063 -0.1519
  221SOL    HW2  663   2.994   0.738   0.089  1.9018  0.3470  1.1761
  222SOL     OW  664   1.750   1.419   0.857  0.0799 -0.0461 -0.5627
  222SOL    HW1  665   1.673   1.352   0.836 -0.6764  1.5354 -1.9752
  222SOL    HW2  666   1.730   1.520   0.839 -1.6936  0.7593  0.8218
  223SOL     OW  667   1.128   0.266   2.824 -0.2506 -0.3572 -0.2221
  223SOL    HW1  668   1.223   0.260   2.859 -0.8216 -0.0146 -2.0278
  223SOL    HW2  669   1.062   0.233   2.892  1.3829  3.4877 -2.0779
  224SOL     OW  670   0.708   2.868   1.041 -0.1340 -0.0820 -0.4527
  224SOL    HW1  671   0.722   2.957   0.996  0.7213 -1.9744 -1.8399
  224SOL    HW2  672   0.788   2.809   1.030 -2.9323  0.1934 -0.2341
  225SOL     OW  673   0.761   3.002   2.143 -0.3250 -0.0077 -0.4280
  225SOL    HW1  674   0.690   3.073   2.147 -2.0491  0.1144  0.7069
  225SOL    HW2  675   0.729   2.908   2.166  1.8547  1.1849 -1.5768
  226SOL     OW  676   1.516   1.541   0.556  0.0421 -0.2641  0.1284
  226SOL    HW1  677   1.491   1.550   0.654  0.1108 -1.3625  3.9857
  226SOL    HW2  678   1.591   1.473   0.544 -1.6974  0.4628  2.4957
  227SOL     OW  679   0.553   1.899   1.208  0.0913 -0.5647  0.2140
  227SOL    HW1  680   0.482   1.948   1.154  0.7703  1.0807  1.9808
  227SOL    HW2  681   0.591   1.821   1.148  0.7287  0.1522 -0.6749
  228SOL     OW  682   0.057   1.869   0.519 -0.1901  0.4237 -0.6500
  228SOL    HW1  683   0.139   1.835   0.471  1.6061  0.7589 -1.4558
  228SOL    HW2  684   0.086   1.919   0.602  1.2825  0.7027  0.3295
  229SOL     OW  685   2.763   0.289   2.814  0.3421  0.2477  0.1832
  229SOL    HW1  686   2.687   0.221   2.793 -0.5046 -1.0100  1.3279
  229SOL    HW2  687   2.844   0.241   2.840 -1.4715  0.3639 -0.6187
  230SOL     OW  688   2.366   0.750   0.429  0.1959  0.0230  0.4684
  230SOL    HW1  689   2.329   0.731   0.520 -0.1186 -1.8255 -1.9439
  230SOL    HW2  690   2.351   0.848   0.408  2.1596  1.0653  0.0131
  231SOL     OW  691   1.907   1.431   2.979 -0.3935  0.3972  0.0554
  231SOL    HW1  692   1.903   1.485   2.892 -0.3421 -0.9604 -1.8545
  231SOL    HW2  693   1.882   1.483   3.067 -1.9404  1.3391  0.3869
  232SOL     OW  694   2.345   1.871   1.137  0.5633  0.3049  0.1838
  232SOL    HW1  695   2.396   1.789   1.162 -1.1406 -0.3309 -0.5487
  232SOL    HW2  696   2.264   1.889   1.196  0.1213  3.8595 -0.9323
  233SOL     OW  697   0.217   2.765   1.528  0.3691  0.2117  0.5084
  233SOL    HW1  698   0.285   2.715   1.579  0.1506 -0.6426 -0.9885
  233SOL    HW2  699   0.127   2.750   1.573  0.2690  2.2105 -1.1958
  234SOL     OW  700   0.712   0.151   2.520  0.1896 -0.1274 -0.7195
  234SOL    HW1  701   0.779   0.083   2.525 -3.0377  0.4828 -0.7330
  234SOL    HW2  702   0.677   0.182   2.614 -0.3795  2.0345  2.3577
  235SOL     OW  703   2.612   1.107   1.848  0.4688 -0.7398 -0.1464
  235SOL    HW1  704   2.686   1.053   1.889  0.5639 -0.0587 -0.2253
  235SOL    HW2  705   2.605   1.096   1.748  0.6916  1.5027  0.4959
  236SOL     OW  706   1.175   2.804   1.644 -0.3252  0.2902 -0.5249
  236SOL    HW1  707   1.109   2.761   1.710  1.2143  2.3418  0.9642
  236SOL    HW2  708   1.238   2.738   1.592  1.4637 -0.5169 -2.9526
  237SOL     OW  709   0.490   1.605   2.676  0.2203 -0.2772 -0.3979
  237SOL    HW1  710   0.502   1.619   2.576 -0.4080  0.0295 -0.2484
  237SOL    HW2  711   0.547   1.665   2.738 -0.3683  0.5584  1.7016
  238SOL     OW  712   1.060   0.618   2.366  0.6698 -0.4772 -0.3073
  238SOL    HW1  713   1.069   0.716   2.333  0.2208 -0.1607 -1.9714
  238SOL    HW2  714   0.973   0.580   2.343  1.5410  0.8284  1.9058
  239SOL     OW  715   0.593   1.998   2.287 -0.1683 -0.9080 -0.4467
  239SOL    HW1  716   0.572   1.937   2.213 -2.1530  0.5477 -0.6256
  239SOL    HW2  717   0.633   2.086   2.243  0.9007  0.1565 -1.7225
  240SOL     OW  718   2.319   2.992   0.258  0.2523  0.2848  0.7627
  240SOL    HW1  719   2.219   3.012   0.244 -3.1387 -1.7753  0.7470
  240SOL    HW2  720   2.380   3.074   0.272 -1.7764 -2.5300  1.2672
  241SOL     OW  721   0.196   0.990   0.207  0.6102 -0.1005 -0.0196
  241SOL    HW1  722   0.134   1.028   0.285 -2.1393  1.0417  2.9066
  241SOL    HW2  723   0.199   1.055   0.128  0.4785  0.1351  0.9293
  242SOL     OW  724   1.411   2.582   1.623  0.7275 -0.3348  0.3663
  242SOL    HW1  725   1.467   2.650   1.571 -0.5637  0.5793 -0.2614
  242SOL    HW2  726   1.429   2.487   1.604  0.8130 -0.7130 -1.2222
  243SOL     OW  727   0.709   2.384   1.773 -0.1315 -0.1739  0.0743
  243SOL    HW1  728   0.740   2.455   1.706  0.1830  0.3492 -2.8533
  243SOL    HW2  729   0.629   2.334   1.736  0.4896 -0.2145 -0.3256
  244SOL     OW  730   2.340   0.699   2.557 -0.4295 -0.1285 -0.6311
  244SOL    HW1  731   2.315   0.677   2.655  0.9566 -0.0777 -0.3540
  244SOL    HW2  732   2.408   0.773   2.548  0.8384 -1.7584 -0.2012
  245SOL     OW  733   1.503   2.606   1.259  0.1770  0.5644  0.5158
  245SOL    HW1  734   1.574   2.536   1.292  2.1865 -3.2253 -0.0329
  245SOL    HW2  735   1.542   2.702   1.262  0.4241  0.5760 -3.3631
  246SOL     OW  736   1.434   0.089   0.329 -0.3819 -0.5829  0.0524
  246SOL    HW1  737   1.405   0.041   0.415 -1.2065  0.2065  0.6152
  246SOL    HW2  738   1.353   0.135   0.286  0.0733  1.0049 -1.4299
  247SOL     OW  739   1.758   0.579   1.873 -0.0842  0.2963 -0.3857
  247SOL    HW1  740   1.664   0.554   1.839 -1.5409 -0.0903 -0.5432
  247SOL    HW2  741   1.811   0.498   1.909 -2.1306 -2.8089 -1.7040
  248SOL     OW  742   0.071   1.955   1.921 -0.0449  0.3565 -0.2515
  248SOL    HW1  743   0.153   1.920   1.870 -0.7057 -2.5036  0.9904
  248SOL    HW2  744   3.094   1.904   1.885 -2.9095 -3.2009  1.6484
  249SOL     OW  745   0.019   0.208   0.405 -0.2757  0.0640 -0.2897
  249SOL    HW1  746   0.007   0.128   0.343 -1.2563 -1.4539  0.0165
  249SOL    HW2  747   0.005   0.177   0.500  1.6356  0.8263 -0.4883
  250SOL     OW  748   2.590   0.077   2.465  0.3115 -0.0211  0.1481
  250SOL    HW1  749   2.594   0.106   2.565  0.2379  2.8929  2.0003
  250SOL    HW2  750   2.491   0.080   2.430 -1.5081  2.2951  1.8402
  251SOL     OW  751   1.349   0.616   0.108  0.0806 -0.1013 -0.4868
  251SOL    HW1  752   1.388   0.524   0.100 -1.1851  0.1389 -0.7454
  251SOL    HW2  753   1.414   0.678   0.061 -1.6214  1.9105  1.7352
  252SOL     OW  754   0.884   2.601   2.281 -0.6019  0.0464  0.3018
  252SOL    HW1  755   0.800   2.625   2.231  2.3269 -0.4903  2.7637
  252SOL    HW2  756   0.938   2.551   2.214 -1.6833  2.7195  2.1665
  253SOL     OW  757   2.546   2.659   0.814  0.7639  0.6552  0.1953
  253SOL    HW1  758   2.450   2.624   0.840 -3.7188 -1.2492  0.6664
  253SOL    HW2  759   2.535   2.739   0.756 -0.2310 -0.5764 -2.5470
  254SOL     OW  760   2.208   1.214   1.042 -0.2831 -0.4658 -0.4570
  254SOL    HW1  761   2.264   1.246   1.123  0.6371 -0.0379  1.4185
  254SOL    HW2  762   2.249   1.245   0.951 -0.7668 -0.2988 -2.2608
  255SOL     OW  763   0.557   2.598   1.288  0.1146  0.4942 -0.3659
  255SOL    HW1  764   0.473   2.658   1.287 -0.4957  1.7174  0.0990
  255SOL    HW2  765   0.577   2.548   1.200 -1.3134  0.1370  0.0360
  256SOL     OW  766   2.117   1.667   1.715  0.0662  0.4689 -0.2446
  256SOL    HW1  767   2.107   1.669   1.614 -0.0382 -0.0517  0.0162
  256SOL    HW2  768   2.204   1.619   1.747  1.3005  4.3591  0.7076
  257SOL     OW  769   0.173   2.414   2.612 -0.8680  0.6380 -0.1064
  257SOL    HW1  770   0.212   2.361   2.694 -3.4455  0.9947  1.4137
  257SOL    HW2  771   0.199   2.511   2.614 -2.2739 -3.0029  2.0081
  258SOL     OW  772   0.629   2.638   0.936  0.4065 -0.7249 -0.4876
  258SOL    HW1  773   0.654   2.733   0.961  0.1811 -0.0953  0.8156
  258SOL    HW2  774   0.630   2.568   1.009  0.2260 -1.1217 -2.2240
  259SOL     OW  775   1.380   0.660   2.851  0.2755  0.7977 -0.1629
  259SOL    HW1  776   1.367   0.752   2.890  0.0923 -3.7003 -0.5465
  259SOL    HW2  777   1.292   0.626   2.814 -0.9431  1.3365  1.6401
  260SOL     OW  778   0.226   0.381   1.170 -0.1048  0.0700 -0.0578
  260SOL    HW1  779   0.306   0.319   1.179 -4.7278  0.3542  3.0326
  260SOL    HW2  780   0.169   0.361   1.089 -0.3967  1.2742  0.1113
  261SOL     OW  781   0.504   3.061   2.409  0.5128 -0.3746 -0.8621
  261SOL    HW1  782   0.562   2.977   2.403  0.4829 -0.3465  1.8312
  261SOL    HW2  783   0.552   0.038   2.456  0.6361  3.8436  0.2954
  262SOL     OW  784   0.995   2.680   1.816 -0.0327  0.4844 -0.0617
  262SOL    HW1  785   0.917   2.649   1.758 -0.7832 -0.5038  1.4578
  262SOL    HW2  786   1.037   2.592   1.861  2.3493 -2.2437  1.2648
  263SOL     OW  787   0.782   2.193   0.008  0.4248 -0.5760  0.0784
  263SOL    HW1  788   0.856   2.177   3.040  1.5067  0.2369  0.0094
  263SOL    HW2  789   0.816   2.178   0.101 -0.5488  2.8898  0.8305
  264SOL     OW  790   1.807   1.582   1.175 -0.5087 -0.0774 -0.3493
  264SOL    HW1  791   1.835   1.666   1.127 -1.2050  0.6941  1.0373
  264SOL    HW2  792   1.858   1.499   1.142  0.9723 -3.3512  0.9002
  265SOL     OW  793   0.834   2.344   0.385 -0.0770  0.4751  0.9322
  265SOL    HW1  794   0.777   2.308   0.462  0.1932  0.1801  0.0915
  265SOL    HW2  795   0.813   2.446   0.363 -0.2283  1.4153 -1.0863
  266SOL     OW  796   2.920   0.876   0.730 -0.4626  0.0133  0.0739
  266SOL    HW1  797   2.862   0.792   0.735  1.4586 -1.1752 -1.4609
  266SOL    HW2  798   3.010   0.861   0.777 -0.7023  1.3252 -1.2379
  267SOL     OW  799   0.208   1.391   0.170  0.3544  0.3419  0.4194
  267SOL    HW1  800   0.183   1.388   0.271  0.8313 -1.1033  3.6295
  267SOL    HW2  801   0.309   1.386   0.155 -0.4857 -0.4784  0.5011
  268SOL     OW  802   1.519   0.461   0.463 -0.6522 -0.7017 -0.2263
  268SOL    HW1  803   1.538   0.363   0.444 -1.0800 -0.0296  0.7629
  268SOL    HW2  804   1.443   0.469   0.525  0.4813  1.0776 -2.2882
  269SOL     OW  805   2.860   0.745   2.265  0.2404  0.6932 -0.5002
  269SOL    HW1  806   2.814   0.820   2.218 -2.5842  1.4252  3.5507
  269SOL    HW2  807   2.919   0.687   2.209  2.2972 -1.0118 -0.8071
  270SOL     OW  808   2.916   1.066   0.321  0.1482 -0.3755 -0.1191
  270SOL    HW1  809   2.879   0.994   0.382  2.7949  0.9380 -1.0644
  270SOL    HW2  810   2.892   1.030   0.226 -2.4444 -1.8889  0.2645
  271SOL     OW  811   2.895   1.386   2.083 -0.1594  0.2429 -0.8577
  271SOL    HW1  812   2.880   1.463   2.150  0.1677 -0.6007  0.1051
  271SOL    HW2  813   2.988   1.399   2.043  0.3235 -0.6893  0.1254
  272SOL     OW  814   2.517   2.481   1.739 -0.3458 -0.3691  0.2567
  272SOL    HW1  815   2.559   2.385   1.732 -1.1657 -1.0127  0.1065
  272SOL    HW2  816   2.453   2.479   1.817  0.2212  1.3247  3.3020
  273SOL     OW  817   0.138   2.525   0.412 -0.3455 -0.3073  0.2427
  273SOL    HW1  818   0.175   2.543   0.321 -1.3303  2.6769  3.6438
  273SOL    HW2  819   0.133   2.422   0.428  1.2139 -1.0195  0.0032
  274SOL     OW  820   0.734   2.304   0.632  0.0099 -0.3443  0.1564
  274SOL    HW1  821   0.727   2.207   0.659 -1.9869  2.1967 -0.2847
  274SOL    HW2  822   0.776   2.357   0.704 -1.1801 -0.9243  0.5388
  275SOL     OW  823   1.623   2.079   2.780 -0.3045  0.0222 -0.3254
  275SOL    HW1  824   1.695   2.116   2.840 -1.3842  0.2719 -1.1388
  275SOL    HW2  825   1.671   2.046   2.695 -2.1262  1.8681 -0.1988
  276SOL     OW  826   2.377   1.434   2.072  0.2708  0.2406  0.7273
  276SOL    HW1  827   2.436   1.366   2.022  0.4823 -1.3963  0.3223
  276SOL    HW2  828   2.424   1.525   2.080  0.4145 -0.0961 -0.8834
  277SOL     OW  829   2.009   0.286   0.684  0.1659  0.3815 -0.2468
  277SOL    HW1  830   2.038   0.376   0.639 -0.9705 -0.2389 -0.0577
  277SOL    HW2  831   1.909   0.264   0.681 -0.7081 -1.3579 -2.5037
  278SOL     OW  832   1.579   0.681   2.661 -0.3244  0.0747 -0.0230
  278SOL    HW1  833   1.496   0.663   2.715  1.7270  0.3596 -1.7030
  278SOL    HW2  834   1.602   0.782   2.668 -0.2257  1.9498 -1.0691
  279SOL     OW  835   0.972   2.796   1.034  0.1287  0.2894 -0.5366
  279SOL    HW1  836   1.046   2.747   0.987 -1.7657 -1.8889  1.2731
  279SOL    HW2  837   0.981   2.791   1.135  1.3298  1.2303  0.8761
  280SOL     OW  838   1.281   1.195   0.662 -0.5982  0.4949  0.0976
  280SOL    HW1  839   1.182   1.201   0.654 -0.5474  0.4200 -1.7153
  280SOL    HW2  840   1.327   1.147   0.584  1.8851 -1.1941 -1.3441
  281SOL     OW  841   2.080   1.923   0.404 -0.1038 -0.0212 -0.0176
  281SOL    HW1  842   2.179   1.922   0.411 -3.3557 -0.5029 -0.8291
  281SOL    HW2  843   2.039   1.852   0.458  0.0128 -2.7068 -0.2861
  282SOL     OW  844   2.855   1.297   0.445  0.6648  0.0862  0.5338
  282SOL    HW1  845   2.854   1.205   0.397 -1.1862 -1.8558 -1.2069
  282SOL    HW2  846   2.904   1.370   0.389  1.5733 -0.9093 -2.7840
  283SOL     OW  847   1.587   2.933   2.620 -0.0129  0.3739  0.0117
  283SOL    HW1  848   1.651   2.917   2.544  1.0449 -0.7568 -1.0582
  283SOL    HW2  849   1.622   3.004   2.684 -2.7333 -0.1498 -0.4058
  284SOL     OW  850   0.669   0.162   2.791 -0.5421 -0.1492  0.3835
  284SOL    HW1  851   0.669   0.179   2.889 -0.4882 -1.8867 -2.9628
  284SOL    HW2  852   0.709   0.070   2.780 -1.3135 -1.8617  1.0008
  285SOL     OW  853   1.917   1.808   2.957  0.4413  0.4586  0.2240
  285SOL    HW1  854   1.824   1.779   2.987 -0.8412  2.3976  0.7152
  285SOL    HW2  855   1.927   1.819   2.856  0.6040 -0.4090 -0.0727
  286SOL     OW  856   1.786   2.105   1.427  0.0859 -0.2729 -0.2968
  286SOL    HW1  857   1.759   2.014   1.461 -3.2673  1.9218  1.7263
  286SOL    HW2  858   1.879   2.131   1.455  1.3997 -1.8315  0.4793
  287SOL     OW  859   1.718   0.099   1.846 -0.3662  0.3198 -0.6305
  287SOL    HW1  860   1.766   0.121   1.935  1.6416  2.8850  0.5122
  287SOL    HW2  861   1.624   0.140   1.836 -0.2344  0.7605 -2.4631
  288SOL     OW  862   0.405   2.744   2.159 -0.4223  0.3359  0.3891
  288SOL    HW1  863   0.366   2.759   2.071  1.1746 -0.4356 -2.3517
  288SOL    HW2  864   0.336   2.699   2.220 -2.3232  0.5119  3.9283
  289SOL     OW  865   0.344   1.837   0.650  0.0944  0.1184  0.0031
  289SOL    HW1  866   0.301   1.774   0.717  1.1730 -1.6761  0.6405
  289SOL    HW2  867   0.300   1.933   0.660  0.5177 -0.5169  0.1923
  290SOL     OW  868   1.013   1.790   1.829  0.7808  0.0614 -0.3065
  290SOL    HW1  869   0.935   1.814   1.895  0.6606 -0.3661  0.6380
  290SOL    HW2  870   1.084   1.861   1.818 -0.4396 -1.6381 -0.8486
  291SOL     OW  871   1.644   0.236   0.399  0.1501  0.1070 -0.5211
  291SOL    HW1  872   1.576   0.165   0.371  1.7799  2.1121 -2.4893
  291SOL    HW2  873   1.714   0.251   0.329 -2.8140 -0.3056  2.5108
  292SOL     OW  874   0.565   0.304   1.351  0.1806  0.1293  0.5497
  292SOL    HW1  875   0.539   0.384   1.406  0.4906 -1.4371 -1.4839
  292SOL    HW2  876   0.566   0.329   1.252  0.4724 -0.3928  1.9458
  293SOL     OW  877   2.605   1.558   0.961  0.2609  0.1590 -0.5465
  293SOL    HW1  878   2.617   1.656   0.938 -0.7506  1.1919  0.4511
  293SOL    HW2  879   2.573   1.511   0.875  0.4520  0.4537 -1.2224
  294SOL     OW  880   0.239   3.055   2.362 -0.5098  0.4500  0.2624
  294SOL    HW1  881   0.194   2.965   2.338 -2.7526  0.8720 -0.9329
  294SOL    HW2  882   0.340   3.046   2.338  1.3875 -2.6715 -3.4282
  295SOL     OW  883   0.889   1.469   0.453 -0.0231 -0.1559 -0.2325
  295SOL    HW1  884   0.955   1.503   0.526 -0.2312  0.5823  0.7034
  295SOL    HW2  885   0.888   1.528   0.370  1.7489  0.3566 -3.2380
  296SOL     OW  886   2.256   1.569   0.902 -0.1110  0.2354  0.0001
  296SOL    HW1  887   2.167   1.528   0.864 -3.6706 -3.1384  1.1161
  296SOL    HW2  888   2.328   1.549   0.838  0.0423  2.3313 -1.3272
  297SOL     OW  889   1.796   0.559   2.795  0.2589  0.0561 -0.7387
  297SOL    HW1  890   1.810   0.626   2.873  2.0113  1.1571 -0.6241
  297SOL    HW2  891   1.702   0.574   2.756  0.1834  1.8635  1.0976
  298SOL     OW  892   1.081   0.153   2.593 -0.0795  0.0912 -0.1502
  298SOL    HW1  893   1.081   0.187   2.692 -0.8424 -0.0160  0.1169
  298SOL    HW2  894   1.170   0.180   2.552 -0.0065  0.2033  1.9667
  299SOL     OW  895   0.873   0.365   1.906 -0.2212  0.2987  0.0117
  299SOL    HW1  896   0.948   0.419   1.872 -0.2957 -2.1433 -0.8232
  299SOL    HW2  897   0.834   0.304   1.826  0.3286 -1.6326 -1.8617
  300SOL     OW  898   2.770   0.412   1.584  0.4801  0.3912  0.5469
  300SOL    HW1  899   2.789   0.466   1.498  0.3903  0.8482  0.7339
  300SOL    HW2  900   2.859   0.391   1.626  4.4177 -0.0077 -1.2105
  301SOL     OW  901   1.840   0.770   1.708  0.2714  0.0525 -0.3919
  301SOL    HW1  902   1.779   0.844   1.749 -0.2466  0.8586  3.0679
  301SOL    HW2  903   1.843   0.681   1.757  1.6767 -4.3007  0.5273
  302SOL     OW  904   0.879   2.948   3.044 -0.3067 -0.5791 -0.2339
  302SOL    HW1  905   0.904   2.924   0.044 -0.1561  0.4972  3.8533
  302SOL    HW2  906   0.809   3.025   3.050  0.5985  0.3164  1.4594
  303SOL     OW  907   2.013   1.901   1.782  0.6653 -0.7344  0.5515
  303SOL    HW1  908   2.072   1.956   1.838  0.6685 -3.1364 -2.1246
  303SOL    HW2  909   2.059   1.812   1.763 -0.2195  0.3652 -0.1871
  304SOL     OW  910   0.369   0.012   0.603  0.0878  0.0780  0.5021
  304SOL    HW1  911   0.399   0.108   0.593 -0.2609 -1.3774  1.1242
  304SOL    HW2  912   0.436   3.054   0.644 -3.2869  1.3204 -1.0466
  305SOL     OW  913   1.170   0.921   0.352  0.0783  0.0160 -0.0873
  305SOL    HW1  914   1.258   0.974   0.365  1.8438  2.8175 -1.4243
  305SOL    HW2  915   1.178   0.832   0.399 -0.8311  4.2469 -1.2700
  306SOL     OW  916   0.488   1.377   0.157  0.3920  0.1588 -0.1371
  306SOL    HW1  917   0.523   1.285   0.184 -1.5161 -1.0832 -0.7839
  306SOL    HW2  918   0.532   1.453   0.206 -1.1064  0.5863  1.9412
  307SOL     OW  919   0.655   0.538   1.898  0.0300 -0.0884  0.3605
  307SOL    HW1  920   0.665   0.589   1.988  0.5155 -2.2428  0.3742
  307SOL    HW2  921   0.739   0.485   1.876 -1.0974 -2.6889  0.0918
  308SOL     OW  922   0.583   0.122   0.941 -0.3478  0.7329  0.1664
  308SOL    HW1  923   0.574   0.176   0.853 -1.3681 -0.3366  2.6062
  308SOL    HW2  924   0.681   0.090   0.958  0.5510  0.8264  2.0208
  309SOL     OW  925   2.319   1.206   0.113 -0.3200 -0.0565 -0.2937
  309SOL    HW1  926   2.397   1.249   0.066 -1.1564 -2.0941  0.0916
  309SOL    HW2  927   2.239   1.259   0.106  2.0781  0.9777  1.4713
  310SOL     OW  928   1.342   1.551   0.014  0.4482  0.9866  0.2766
  310SOL    HW1  929   1.303   1.624   3.054  1.2398  1.2291 -0.3568
  310SOL    HW2  930   1.331   1.586   0.108  1.4262 -0.4293  0.3324
  311SOL     OW  931   2.018   2.451   1.948  0.3733  0.2138 -0.6767
  311SOL    HW1  932   2.044   2.382   2.017  1.6988 -1.5172  1.1437
  311SOL    HW2  933   1.926   2.485   1.975 -0.4046 -1.3374  2.7355
  312SOL     OW  934   2.267   0.003   2.998 -0.3703  0.2366  0.0319
  312SOL    HW1  935   2.234   3.080   2.906  1.5970 -1.3539  0.4805
  312SOL    HW2  936   2.189   0.043   3.048 -1.0483  1.0882  0.5082
  313SOL     OW  937   0.576   0.646   0.227 -0.2481  0.6938 -0.0931
  313SOL    HW1  938   0.547   0.741   0.249 -0.1066 -2.3324 -0.3124
  313SOL    HW2  939   0.677   0.640   0.245  3.3679  1.3069  1.9882
  314SOL     OW  940   2.732   1.583   3.077 -0.1390 -0.0348  0.2367
  314SOL    HW1  941   2.743   1.530   2.994 -1.2905  1.4247  2.3445
  314SOL    HW2  942   2.819   1.603   0.023 -0.8749 -0.1847  0.8545
  315SOL     OW  943   1.677   0.736   2.070 -0.3225  0.1830 -0.1345
  315SOL    HW1  944   1.697   0.674   1.988 -0.4987 -1.4276 -1.1435
  315SOL    HW2  945   1.742   0.727   2.149  1.9528  1.8210  0.1439
  316SOL     OW  946   0.020   0.822   0.560  0.3220 -0.2627 -0.3896
  316SOL    HW1  947   0.024   0.802   0.661  1.3542 -1.0717 -1.6306
  316SOL    HW2  948   0.053   0.915   0.533  0.4288  3.6091  1.3265
  317SOL     OW  949   0.610   0.078   0.218 -0.4437  0.7260 -0.2293
  317SOL    HW1  950   0.517   0.121   0.212  1.2006 -0.3910 -0.4818
  317SOL    HW2  951   0.612   0.001   0.282 -0.1606 -1.0817 -1.2353
  318SOL     OW  952   2.057   2.359   1.118 -0.2438  0.6290 -0.3206
  318SOL    HW1  953   2.102   2.448   1.116 -0.1270 -0.3005 -0.6451
  318SOL    HW2  954   1.985   2.365   1.043  0.1330 -0.1940  0.5282
  319SOL     OW  955   1.064   1.564   0.637 -0.3165 -0.1644  0.3079
  319SOL    HW1  956   1.122   1.587   0.554 -1.4375 -2.0766  0.2531
  319SOL    HW2  957   1.118   1.601   0.717 -0.3997 -0.7298 -3.2443
  320SOL     OW  958   0.649   2.157   1.210 -0.6010  0.0662 -0.4961
  320SOL    HW1  959   0.623   2.059   1.217  0.4086  1.3333 -2.4977
  320SOL    HW2  960   0.697   2.183   1.295 -2.7257 -1.8619 -1.8322
  321SOL     OW  961   2.375   2.458   1.955 -0.0307 -0.5178  0.0566
  321SOL    HW1  962   2.347   2.367   1.997  0.4983  0.8994  0.8861
  321SOL    HW2  963   2.326   2.536   1.998  0.3908  0.7482  0.3222
  322SOL     OW  964   2.701   2.350   2.617  0.3718  0.6441 -0.2129
  322SOL    HW1  965   2.716   2.283   2.538  0.7359  0.8178  1.1650
  322SOL    HW2  966   2.789   2.385   2.643 -1.5194 -1.4344  2.5514
  323SOL     OW  967   2.725   0.682   0.700  0.5680 -1.0541 -0.1612
  323SOL    HW1  968   2.732   0.653   0.604 -1.2941 -0.5599  0.4328
  323SOL    HW2  969   2.635   0.658   0.744  1.9545 -0.6437  1.9014
  324SOL     OW  970   2.326   2.245   2.359 -0.2396  0.2763  0.2126
  324SOL    HW1  971   2.294   2.339   2.373 -0.0306  0.7361  1.3385
  324SOL    HW2  972   2.287   2.196   2.436  2.0613  1.4990  0.7797
  325SOL     OW  973   1.221   0.500   2.548 -0.2885  0.1640  0.1120
  325SOL    HW1  974   1.142   0.530   2.494  3.1023 -0.6649 -0.0275
  325SOL    HW2  975   1.198   0.509   2.647  0.5642  1.3293 -0.6405
  326SOL     OW  976   2.744   2.466   0.884  0.3854  0.0191 -0.0734
  326SOL    HW1  977   2.671   2.535   0.854 -1.4742  1.7043  0.2093
  326SOL    HW2  978   2.836   2.505   0.906  1.2418 -1.5314 -0.5845
  327SOL     OW  979   2.708   3.022   0.065  0.4004  0.5636 -0.6206
  327SOL    HW1  980   2.656   0.008   0.060  2.3208  1.1664 -1.0558
  327SOL    HW2  981   2.763   3.007   3.087 -2.5402  1.3554  1.5391
  328SOL     OW  982   1.231   0.669   0.796 -0.2299  0.1367  0.0177
  328SOL    HW1  983   1.218   0.619   0.882  1.1057  2.9090 -1.6696
  328SOL    HW2  984   1.225   0.768   0.826  2.9396  2.7329 -0.0458
  329SOL     OW  985   2.187   0.618   1.502  0.5343  0.1145  0.2298
  329SOL    HW1  986   2.226   0.692   1.447 -2.5937 -2.4776  1.8433
  329SOL    HW2  987   2.234   0.617   1.592 -1.9813  1.6786 -0.6748
  330SOL     OW  988   1.238   0.493   0.586 -0.0237  0.3882 -0.2335
  330SOL    HW1  989   1.233   0.542   0.499  1.8047 -2.1962  2.1175
  330SOL    HW2  990   1.216   0.560   0.659 -0.8251  0.4675  0.1069
  331SOL     OW  991   0.897   1.831   1.547  0.1345  0.3004  0.4676
  331SOL    HW1  992   0.935   1.924   1.552 -1.2967 -1.3046 -0.1340
  331SOL    HW2  993   0.900   1.789   1.637  0.4991 -0.4611  0.3209
  332SOL     OW  994   2.181   2.096   1.883  0.5333 -0.0467  0.5281
  332SOL    HW1  995   2.199   2.170   1.949 -0.3197 -2.4920 -0.0515
  332SOL    HW2  996   2.258   2.088   1.810  0.6391  1.4678 -2.8993
  333SOL     OW  997   2.993   3.072   0.967 -0.0894 -0.6172  0.2062
  333SOL    HW1  998   2.910   0.024   0.982 -0.1262  0.3850 -1.2805
  333SOL    HW2  999   2.976   2.983   0.922 -0.6460 -0.5933  1.3357
  334SOL     OW 1000   0.021   1.646   0.664 -0.0159  0.3027 -0.2067
  334SOL    HW1 1001   0.090   1.639   0.737  1.2981  2.2596 -0.3737
  334SOL    HW2 1002   0.039   1.734   0.614 -1.3128 -2.5274  0.1710
  335SOL     OW 1003   0.494   2.738   2.637 -0.3259  0.3978 -0.3141
  335SOL    HW1 1004   0.535   2.673   2.704  0.2223  0.1627  0.6866
  335SOL    HW2 1005   0.491   2.830   2.676  0.9638 -1.4330 -1.5269
  336SOL     OW 1006   0.123   2.455   1.903 -0.0043 -0.2921  0.8421
  336SOL    HW1 1007   0.146   2.433   1.803  0.5605 -2.2082 -0.2901
  336SOL    HW2 1008   0.094   2.555   1.908 -1.2666 -0.3193  1.6942
  337SOL     OW 1009   1.101   1.969   2.313  0.5928 -0.1403 -0.2154
  337SOL    HW1 1010   1.051   1.905   2.376 -0.0926  2.4021  0.8554
  337SOL    HW2 1011   1.140   1.919   2.233  1.3634 -2.0685 -0.4449
  338SOL     OW 1012   0.903   3.072   2.560  0.1249 -0.1081  0.1041
  338SOL    HW1 1013   0.918   3.020   2.475 -0.3444  0.3536  0.0175
  338SOL    HW2 1014   0.978   0.037   2.572  0.8340 -1.9106  0.1408
  339SOL     OW 1015   0.170   1.237   2.840  0.5323 -0.3990 -0.6758
  339SOL    HW1 1016   0.152   1.175   2.765  1.2478  1.7015  0.7047
  339SOL    HW2 1017   0.110   1.318   2.842 -1.4528  0.6506  2.6359
  340SOL     OW 1018   2.172   0.383   1.331  0.0584 -0.3481 -0.1263
  340SOL    HW1 1019   2.169   0.470   1.394 -1.9239  3.5416  2.9773
  340SOL    HW2 1020   2.268   0.348   1.326 -0.5317 -0.6472 -1.1646
  341SOL     OW 1021   1.860   1.079   0.903  0.3344 -0.5372 -0.2891
  341SOL    HW1 1022   1.858   1.078   0.800  0.3749 -2.0272  0.3600
  341SOL    HW2 1023   1.941   1.034   0.935 -2.5992  0.2038  1.3351
  342SOL     OW 1024   2.193   2.676   2.717 -0.0218 -0.1778  0.6318
  342SOL    HW1 1025   2.163   2.673   2.819 -2.1240 -0.2387 -0.1090
  342SOL    HW2 1026   2.126   2.724   2.661  0.4270  1.6813 -1.0631
  343SOL     OW 1027   2.887   2.707   1.015 -0.1212 -0.0093 -0.2686
  343SOL    HW1 1028   2.948   2.698   1.097  0.1662  0.0886 -4.5068
  343SOL    HW2 1029   2.799   2.748   1.043  1.4794 -2.1432 -0.0337
  344SOL     OW 1030   2.361   3.072   0.822  0.1886 -0.2426 -0.2946
  344SOL    HW1 1031   2.438   3.073   0.893  2.0042  0.9732  0.6308
  344SOL    HW2 1032   2.365   2.992   0.754 -1.3969 -2.6948 -2.5366
  345SOL     OW 1033   2.533   2.377   0.161 -0.0449 -0.3501  0.2072
  345SOL    HW1 1034   2.598   2.356   0.083 -0.1875 -0.9352  0.9401
  345SOL    HW2 1035   2.567   2.446   0.232 -1.8414 -0.8946  0.8210
  346SOL     OW 1036   1.245   1.960   1.764  0.1979  0.1595 -0.0180
  346SOL    HW1 1037   1.319   2.023   1.784 -0.6240 -0.7706 -0.0498
  346SOL    HW2 1038   1.243   1.936   1.662  1.4585 -0.0077 -4.7007
  347SOL     OW 1039   1.222   1.896   2.076  0.3229  0.1870  0.2669
  347SOL    HW1 1040   1.281   1.812   2.081  0.6349 -1.5793 -0.1873
  347SOL    HW2 1041   1.190   1.912   1.981 -2.8354  0.1230 -0.1338
  348SOL     OW 1042   0.868   1.702   1.256  0.5509  0.2428 -0.0019
  348SOL    HW1 1043   0.786   1.718   1.196 -2.6931  0.6007 -0.4920
  348SOL    HW2 1044   0.855   1.739   1.349  0.5641  0.5393  2.0564
  349SOL     OW 1045   1.797   1.386   1.604 -0.1816  0.5781 -0.1384
  349SOL    HW1 1046   1.818   1.466   1.669  1.4775 -0.2724  1.0750
  349SOL    HW2 1047   1.761   1.310   1.660 -3.5246 -0.8054  1.3136
  350SOL     OW 1048   2.509   2.284   0.651  0.2190 -0.1679 -0.0298
  350SOL    HW1 1049   2.420   2.232   0.644 -0.9115 -1.8140  1.8923
  350SOL    HW2 1050   2.526   2.331   0.563 -0.7628 -4.5464 -1.7295
  351SOL     OW 1051   0.280   0.012   1.858  0.0690  0.0268  0.7083
  351SOL    HW1 1052   0.269   3.082   1.764  0.4419  0.1156  3.4059
  351SOL    HW2 1053   0.213   3.078   1.922  1.1002 -1.9267 -0.2394
  352SOL     OW 1054   0.840   0.941   0.074 -0.7576  0.4700  0.1088
  352SOL    HW1 1055   0.831   0.964   0.174  0.7900  2.0433 -0.7979
  352SOL    HW2 1056   0.760   0.912   0.026  2.1303 -0.0755  2.8718
  353SOL     OW 1057   0.995   1.697   2.779 -0.0339  0.4309  0.0905
  353SOL    HW1 1058   1.053   1.773   2.812  0.3359 -0.6460 -0.9676
  353SOL    HW2 1059   0.934   1.722   2.706  2.1605  0.6058  1.4516
  354SOL     OW 1060   1.693   2.679   1.789 -0.1802  0.0164 -0.2189
  354SOL    HW1 1061   1.731   2.659   1.884  0.6033  1.4794  2.6691
  354SOL    HW2 1062   1.752   2.639   1.713  0.8246  1.5942  0.5062
  355SOL     OW 1063   2.164   1.017   3.065  0.2861  0.0123  0.1197
  355SOL    HW1 1064   2.159   1.084   2.987  1.0993  0.9662 -0.3801
  355SOL    HW2 1065   2.221   1.064   0.035  1.4095  0.9518  0.9765
  356SOL     OW 1066   0.346   2.230   1.314 -0.0660 -0.2204  0.4966
  356SOL    HW1 1067   0.398   2.167   1.253 -0.9569 -0.3897  1.0553
  356SOL    HW2 1068   0.286   2.290   1.258  1.5748  1.2622  1.6784
  357SOL     OW 1069   3.059   2.773   1.668  0.0411  0.2776 -0.1769
  357SOL    HW1 1070   2.967   2.743   1.646  0.5625  0.8840  1.8302
  357SOL    HW2 1071   3.053   2.872   1.674 -0.5704 -0.9401  1.6123
  358SOL     OW 1072   2.587   1.798   1.446 -0.6903  0.0364  0.1255
  358SOL    HW1 1073   2.487   1.799   1.436  3.6480  3.0541 -1.8075
  358SOL    HW2 1074   2.636   1.764   1.362 -0.1574 -2.1772 -0.3464
  359SOL     OW 1075   1.959   2.481   2.369 -0.0144 -0.3822 -0.3384
  359SOL    HW1 1076   1.871   2.519   2.334 -2.0373  0.2384 -1.3544
  359SOL    HW2 1077   1.947   2.400   2.428  1.6593 -0.4201 -0.1676
  360SOL     OW 1078   1.202   2.717   0.916 -0.6472  0.4702  0.0687
  360SOL    HW1 1079   1.176   2.645   0.844 -1.2273 -0.5835 -1.9691
  360SOL    HW2 1080   1.237   2.801   0.871 -1.0532  2.8510  0.0411
  361SOL     OW 1081   1.735   0.264   0.661 -0.2084  0.0960  0.3919
  361SOL    HW1 1082   1.687   0.254   0.570 -1.9795  1.1057  1.4309
  361SOL    HW2 1083   1.721   0.183   0.726  1.7310  2.5991  0.3401
  362SOL     OW 1084   1.522   0.837   1.494 -0.2465  0.6055  0.3877
  362SOL    HW1 1085   1.603   0.898   1.483 -2.1472  0.2283  0.6515
  362SOL    HW2 1086   1.436   0.885   1.474  0.2570 -0.5663  1.5220
  363SOL     OW 1087   1.844   1.484   2.037 -0.0014 -1.4446  0.6090
  363SOL    HW1 1088   1.749   1.463   2.062 -0.7563  0.5683 -0.0157
  363SOL    HW2 1089   1.910   1.497   2.117  0.1358 -1.4304 -0.3841
  364SOL     OW 1090   0.853   0.634   1.391 -0.1578 -0.2904 -0.4471
  364SOL    HW1 1091   0.815   0.602   1.303  0.1547  0.8182 -0.2106
  364SOL    HW2 1092   0.892   0.730   1.387  2.4718  2.9792 -1.3516
  365SOL     OW 1093   0.340   0.438   2.388  0.1461  0.0126  0.5243
  365SOL    HW1 1094   0.328   0.472   2.482 -0.2644 -1.9244 -3.4813
  365SOL    HW2 1095   0.286   0.353   2.366 -0.1622  1.6156 -1.5079
  366SOL     OW 1096   2.136   1.633   3.014 -0.6206  0.2377  0.6125
  366SOL    HW1 1097   2.205   1.683   3.065 -2.4835 -2.7169 -1.8200
  366SOL    HW2 1098   2.052   1.687   3.007  0.0869  1.5635  0.3520
  367SOL     OW 1099   2.797   2.493   2.886 -0.1349 -0.0133 -0.5666
  367SOL    HW1 1100   2.828   2.569   2.951  1.1768  1.9387 -0.4298
  367SOL    HW2 1101   2.749   2.528   2.805  0.1526 -0.4414 -0.4685
  368SOL     OW 1102   0.080   1.055   0.980  0.1403 -0.2074 -0.4220
  368SOL    HW1 1103   0.024   1.038   1.063  1.9599 -1.2852 -1.3796
  368SOL    HW2 1104   0.075   1.153   0.948  0.6658  1.7402  1.1408
  369SOL     OW 1105   0.687   2.850   2.427 -0.6584  0.4611  0.2603
  369SOL    HW1 1106   0.768   2.794   2.439  0.0412 -1.4804 -0.0174
  369SOL    HW2 1107   0.613   2.823   2.492 -1.8851  1.2058  3.7954
  370SOL     OW 1108   3.059   0.433   0.615 -0.0283 -0.3341  0.6252
  370SOL    HW1 1109   3.008   0.414   0.530  1.6737  2.2660 -0.8245
  370SOL    HW2 1110   2.992   0.465   0.690 -2.7053  0.4339  3.8201
  371SOL     OW 1111   1.120   2.372   1.600  0.4013  0.4033  0.1345
  371SOL    HW1 1112   1.214   2.381   1.555  0.7867  1.3327  1.0150
  371SOL    HW2 1113   1.127   2.412   1.690 -1.5560 -1.0234 -5.0436
  372SOL     OW 1114   2.817   0.274   2.437  0.0794 -0.1254 -0.1464
  372SOL    HW1 1115   2.742   0.212   2.436  0.9971  4.9280 -1.5987
  372SOL    HW2 1116   2.820   0.323   2.525 -2.3046 -0.1843  1.3347
  373SOL     OW 1117   0.173   2.066   0.690  0.2440 -0.3239 -0.4271
  373SOL    HW1 1118   0.252   2.132   0.702  0.9436 -1.0811 -0.4263
  373SOL    HW2 1119   0.104   2.091   0.760 -0.5239 -0.5213  1.9183
  374SOL     OW 1120   0.183   3.094   2.644  0.2802  0.2185  0.6312
  374SOL    HW1 1121   0.239   0.063   2.690 -0.0269 -2.2950 -0.3434
  374SOL    HW2 1122   0.228   3.068   2.555  3.6785 -0.1964  0.1496
  375SOL     OW 1123   0.621   0.578   2.488  0.0205 -0.1053  0.0493
  375SOL    HW1 1124   0.532   0.524   2.478 -0.6074 -2.7930 -1.2025
  375SOL    HW2 1125   0.636   0.593   2.590  0.2238  1.2968 -0.3535
  376SOL     OW 1126   2.812   2.234   1.910  0.6110  0.6554  0.0105
  376SOL    HW1 1127   2.784   2.325   1.945 -1.3211 -2.3883  2.4873
  376SOL    HW2 1128   2.914   2.225   1.913 -0.9450 -0.9449  0.1466
  377SOL     OW 1129   1.293   0.054   2.922  0.3489  0.1342 -0.1453
  377SOL    HW1 1130   1.238   3.099   2.984 -0.5234 -2.1689 -0.3385
  377SOL    HW2 1131   1.285   0.029   2.823 -0.5391  1.0723  2.3118
  378SOL     OW 1132   3.014   0.647   2.634 -0.5768 -0.4338 -0.0434
  378SOL    HW1 1133   2.924   0.678   2.601  0.8313 -0.3322 -0.4290
  378SOL    HW2 1134   3.036   0.548   2.609 -1.7576 -2.2245  1.7543
  379SOL     OW 1135   1.110   0.869   0.091 -0.0143 -0.4688 -0.2239
  379SOL    HW1 1136   1.004   0.876   0.093 -2.3699 -0.7255 -1.1889
  379SOL    HW2 1137   1.139   0.867   0.190 -1.0371 -0.2893 -0.5944
  380SOL     OW 1138   0.088   1.718   1.582  0.6008 -0.2133 -0.4905
  380SOL    HW1 1139   0.133   1.798   1.624 -1.1390 -0.4961 -0.9551
  380SOL    HW2 1140   0.151   1.682   1.518  0.1195  3.0770  0.7329
  381SOL     OW 1141   3.089   1.197   2.562 -0.2358 -0.3643  0.2846
  381SOL    HW1 1142   0.076   1.221   2.516  0.1540 -2.1766  0.6281
  381SOL    HW2 1143   3.026   1.276   2.552 -0.5430  1.5374  1.0999
  382SOL     OW 1144   2.321   2.123   0.509 -0.3653  0.7738  0.3213
  382SOL    HW1 1145   2.380   2.140   0.426  3.3178  0.5041 -1.5045
  382SOL    HW2 1146   2.356   2.039   0.556  0.4520 -2.0848 -0.4524
  383SOL     OW 1147   0.707   1.955   0.326 -0.5514  0.1517 -0.3321
  383SOL    HW1 1148   0.741   1.865   0.357 -2.2780  3.4662 -2.2213
  383SOL    HW2 1149   0.785   2.008   0.279  3.0269  2.5264  0.1240
  384SOL     OW 1150   0.624   2.090   2.546  0.0305  0.4165  0.5698
  384SOL    HW1 1151   0.714   2.074   2.591 -2.8266 -0.3013 -0.1140
  384SOL    HW2 1152   0.634   2.064   2.447  0.6267 -0.6147 -1.3902
  385SOL     OW 1153   2.409   1.900   0.631 -0.1937  0.0473 -0.1527
  385SOL    HW1 1154   2.495   1.862   0.585 -0.8205 -1.0311  0.7166
  385SOL    HW2 1155   2.427   1.917   0.733 -0.7254  1.0100  0.1980
  386SOL     OW 1156   2.267   0.833   1.353 -0.1669 -0.3920  0.2001
  386SOL    HW1 1157   2.314   0.833   1.263  0.2858 -0.0157  2.6657
  386SOL    HW2 1158   2.292   0.913   1.409 -0.1623 -1.1818 -2.4717
  387SOL     OW 1159   3.046   1.078   1.892 -0.3056  0.4305 -0.7889
  387SOL    HW1 1160   0.021   1.107   1.952  0.6369  0.2931 -2.4627
  387SOL    HW2 1161   3.027   1.151   1.820 -0.5128 -1.4936  0.0111
  388SOL     OW 1162   0.469   1.616   2.134  0.3301  0.1352  0.3649
  388SOL    HW1 1163   0.516   1.702   2.107  1.3344 -3.6799  0.4030
  388SOL    HW2 1164   0.503   1.549   2.068 -0.4097 -1.0025  1.5286
  389SOL     OW 1165   0.600   0.937   1.855  0.0946  0.6659 -0.3047
  389SOL    HW1 1166   0.668   0.982   1.917 -0.9724 -1.6803 -1.8342
  389SOL    HW2 1167   0.651   0.876   1.785 -0.4445 -1.8862 -2.5571
  390SOL     OW 1168   2.784   2.868   0.585 -0.1588  0.6634 -0.8661
  390SOL    HW1 1169   2.730   2.952   0.608  0.4707 -1.3385 -1.6366
  390SOL    HW2 1170   2.840   2.886   0.501  1.5902  0.2798 -2.0883
  391SOL     OW 1171   1.807   1.630   1.436  0.0233  0.0583 -0.7348
  391SOL    HW1 1172   1.778   1.545   1.485 -3.0151 -0.9023  1.7105
  391SOL    HW2 1173   1.770   1.624   1.340 -0.1373 -1.7552  0.0928
  392SOL     OW 1174   2.855   2.716   3.063 -0.0809 -0.1606 -0.0525
  392SOL    HW1 1175   2.883   2.811   3.040  0.6549  1.1509 -2.6050
  392SOL    HW2 1176   2.893   2.691   0.055 -0.1327 -0.3320  4.9689
  393SOL     OW 1177   1.698   2.486   2.696  0.8739 -0.2095  0.2325
  393SOL    HW1 1178   1.761   2.526   2.765  0.2599  0.7011  0.2131
  393SOL    HW2 1179   1.620   2.548   2.671  0.9346 -0.4402  1.1697
  394SOL     OW 1180   3.003   2.476   2.624  0.2217 -0.5343 -0.2116
  394SOL    HW1 1181   3.101   2.452   2.647 -3.2714 -1.1430 -0.5015
  394SOL    HW2 1182   2.966   2.417   2.549  0.1770 -0.3794 -1.7147
  395SOL     OW 1183   0.187   0.353   0.707  0.3366 -0.3215 -0.1753
  395SOL    HW1 1184   0.099   0.397   0.662 -1.2946  1.0165 -1.0918
  395SOL    HW2 1185   0.167   0.272   0.755  0.1461  2.1900  0.0096
  396SOL     OW 1186   2.086   0.507   0.507  0.2741 -0.3689 -0.3736
  396SOL    HW1 1187   2.018   0.582   0.485 -0.9215  2.0745 -1.2912
  396SOL    HW2 1188   2.139   0.481   0.423  1.8399 -0.3792 -0.8642
  397SOL     OW 1189   0.140   0.779   2.177 -0.2156  0.3125  0.0787
  397SOL    HW1 1190   0.225   0.728   2.213  0.3366  1.6467 -1.0046
  397SOL    HW2 1191   0.064   0.716   2.148  0.5744 -0.0868  0.0485
  398SOL     OW 1192   0.916   2.888   0.225 -0.1647 -0.4546  0.2724
  398SOL    HW1 1193   0.999   2.949   0.233 -0.4004  0.7366 -2.8384
  398SOL    HW2 1194   0.839   2.928   0.277  0.9265 -1.6434 -1.3559
  399SOL     OW 1195   2.141   0.469   2.155 -0.1154 -0.4760  0.2867
  399SOL    HW1 1196   2.183   0.492   2.240  0.2453  0.0509 -4.6122
  399SOL    HW2 1197   2.053   0.513   2.147  0.0403  0.7037 -1.4871
  400SOL     OW 1198   0.929   2.045   2.658 -0.0489  0.1054 -0.2966
  400SOL    HW1 1199   1.026   2.053   2.631 -1.9605  3.3420  0.3368
  400SOL    HW2 1200   0.914   2.105   2.739 -0.4548  0.5019  0.0403
  401SOL     OW 1201   0.399   1.216   2.524 -0.0211 -0.0521  0.3478
  401SOL    HW1 1202   0.400   1.282   2.603 -1.5988 -1.2049 -0.4872
  401SOL    HW2 1203   0.409   1.121   2.555 -1.8944 -1.6483  0.4626
  402SOL     OW 1204   0.300   2.919   0.376 -0.0901 -0.3890 -0.9313
  402SOL    HW1 1205   0.332   2.855   0.449  1.1419  3.1096 -2.1363
  402SOL    HW2 1206   0.302   3.013   0.414  3.3251  0.0706 -4.1516
  403SOL     OW 1207   0.629   1.029   1.539 -0.6318 -0.4125 -0.3588
  403SOL    HW1 1208   0.687   0.955   1.581 -0.1205 -0.8955  0.1885
  403SOL    HW2 1209   0.533   0.995   1.528  1.8832 -4.2741  0.4437
  404SOL     OW 1210   2.630   2.453   2.118 -0.0008 -0.2316  0.3330
  404SOL    HW1 1211   2.631   2.555   2.122 -0.0608 -1.7493  3.0702
  404SOL    HW2 1212   2.549   2.424   2.063 -2.9275 -1.1654  1.7980
  405SOL     OW 1213   3.008   0.362   1.700 -0.3220 -0.0585  0.1471
  405SOL    HW1 1214   3.064   0.379   1.788  0.6733 -0.2723 -0.3847
  405SOL    HW2 1215   3.080   0.350   1.626 -0.8252 -1.6093  0.4467
  406SOL     OW 1216   1.172   1.442   2.767  0.2936  0.4214  0.0405
  406SOL    HW1 1217   1.157   1.535   2.798  3.7408  0.8432  0.6417
  406SOL    HW2 1218   1.223   1.398   2.841  2.8709 -0.8235 -0.8104
  407SOL     OW 1219   1.855   0.952   2.874 -0.4223 -0.4603 -0.5242
  407SOL    HW1 1220   1.940   0.924   2.828 -2.2871 -0.4173  1.1603
  407SOL    HW2 1221   1.857   1.054   2.890 -1.3470 -0.9364 -0.1267
  408SOL     OW 1222   0.203   2.637   2.289  0.1622  0.1834 -0.0211
  408SOL    HW1 1223   0.216   2.655   2.388  0.4629 -1.3569 -0.3697
  408SOL    HW2 1224   0.190   2.532   2.278 -1.0218 -4.9264  0.4652
  409SOL     OW 1225   0.078   2.397   1.229  0.3638 -0.4185 -0.4095
  409SOL    HW1 1226   3.101   2.401   1.298  2.8808 -1.0435  0.9702
  409SOL    HW2 1227   0.136   2.485   1.229 -0.6299 -0.0847 -2.4849
  410SOL     OW 1228   2.851   1.728   0.401  0.4108  0.3433 -0.7608
  410SOL    HW1 1229   2.877   1.826   0.395 -0.0589  0.4852 -0.9757
  410SOL    HW2 1230   2.865   1.678   0.312  0.8789 -0.6509 -1.8740
  411SOL     OW 1231   2.776   0.096   1.195 -0.4842 -0.2678 -0.2187
  411SOL    HW1 1232   2.722   0.064   1.272  2.0516  2.3415 -1.3279
  411SOL    HW2 1233   2.715   0.115   1.118 -0.5481  3.0362  2.4489
  412SOL     OW 1234   2.080   0.253   1.790  0.6454  0.6858  0.0342
  412SOL    HW1 1235   2.152   0.187   1.805 -2.7613  1.7045 -1.7856
  412SOL    HW2 1236   2.006   0.220   1.723  0.0436 -0.4883 -1.4090
  413SOL     OW 1237   0.072   0.476   1.904  0.3756  0.3339 -0.2845
  413SOL    HW1 1238   0.160   0.431   1.935 -0.1955  1.9902 -3.5164
  413SOL    HW2 1239   0.019   0.506   1.985 -0.1231 -1.5958  1.2326
  414SOL     OW 1240   2.965   1.107   2.961 -0.0640  0.0708 -0.1249
  414SOL    HW1 1241   2.915   1.058   3.033 -1.4994 -0.5750  1.0468
  414SOL    HW2 1242   2.894   1.111   2.893  0.4256  4.8778  1.5874
  415SOL     OW 1243   1.041   2.462   0.014 -0.5454 -0.4762 -0.0130
  415SOL    HW1 1244   1.100   2.410   0.079  0.7797  0.5182 -0.6274
  415SOL    HW2 1245   1.046   2.560   0.036  1.1039 -0.6212 -3.1680
  416SOL     OW 1246   1.324   2.952   2.297  0.1523  0.1578  0.4737
  416SOL    HW1 1247   1.296   2.910   2.208 -0.5079 -0.6016 -1.2398
  416SOL    HW2 1248   1.425   2.940   2.315  2.9620  1.5567  1.5482
  417SOL     OW 1249   0.465   0.642   0.984  0.1650  0.2658 -0.0576
  417SOL    HW1 1250   0.521   0.579   1.044  0.2794  0.2748  0.1560
  417SOL    HW2 1251   0.412   0.586   0.920  1.6234  0.6524  1.3843
  418SOL     OW 1252   2.772   0.077   0.692 -0.3290  0.2975  0.1440
  418SOL    HW1 1253   2.717   0.102   0.771 -1.4912  0.2178 -1.8955
  418SOL    HW2 1254   2.766   0.147   0.621  0.4980 -0.6124 -0.7162
  419SOL     OW 1255   0.321   2.824   0.133  0.1825 -0.2462 -0.4866
  419SOL    HW1 1256   0.394   2.852   0.070 -0.9297  0.8736  1.9245
  419SOL    HW2 1257   0.331   2.871   0.227 -4.0388 -1.3240 -1.6541
  420SOL     OW 1258   0.369   1.009   1.535 -0.5295  0.5831 -0.3723
  420SOL    HW1 1259   0.367   0.913   1.505 -2.1248 -0.3773  1.9985
  420SOL    HW2 1260   0.277   1.041   1.560  2.3271  1.9968  1.9643
  421SOL     OW 1261   1.868   2.432   0.923  0.0800  0.7205  0.2343
  421SOL    HW1 1262   1.825   2.491   0.996  0.2035 -0.4029 -0.1306
  421SOL    HW2 1263   1.811   2.427   0.843  1.7588  0.4160  1.0327
  422SOL     OW 1264   0.185   0.587   1.337 -0.0455 -0.2598 -0.6185
  422SOL    HW1 1265   0.177   0.497   1.288 -0.1558  0.9870  0.6053
  422SOL    HW2 1266   0.179   0.659   1.264  0.3376 -3.0475  2.0354
  423SOL     OW 1267   0.906   1.395   2.035 -0.3541  0.2412  0.5769
  423SOL    HW1 1268   0.850   1.436   1.961 -0.2497 -0.3247 -2.2622
  423SOL    HW2 1269   0.907   1.458   2.112 -0.5394 -1.5355 -1.9588
  424SOL     OW 1270   1.838   2.229   0.508 -0.0789 -1.0334 -0.6258
  424SOL    HW1 1271   1.811   2.191   0.418 -1.4190  3.8062  1.5518
  424SOL    HW2 1272   1.902   2.170   0.562  2.1568  0.6296  0.3792
  425SOL     OW 1273   2.743   3.029   1.977 -0.0494  0.4960  0.0124
  425SOL    HW1 1274   2.769   0.004   2.033  0.7589 -1.0380 -0.4348
  425SOL    HW2 1275   2.746   2.940   2.021 -0.0560  0.4728 -0.1315
  426SOL     OW 1276   3.028   2.758   2.620  0.0610 -0.2690 -1.0313
  426SOL    HW1 1277   3.098   2.792   2.692 -0.9916 -0.5590  2.6642
  426SOL    HW2 1278   3.028   2.658   2.627 -1.1805  3.6681 -1.1033
  427SOL     OW 1279   0.945   0.241   0.323  0.2094  0.3897 -0.9739
  427SOL    HW1 1280   0.866   0.259   0.262  1.5600  0.3345  1.0519
  427SOL    HW2 1281   0.914   0.221   0.417 -1.4789 -0.1153 -0.3921
  428SOL     OW 1282   2.820   0.493   1.314  0.0103  0.7847 -0.2955
  428SOL    HW1 1283   2.876   0.418   1.276  0.2984  1.1159 -0.0885
  428SOL    HW2 1284   2.725   0.495   1.277  2.6929  1.7354  0.9291
  429SOL     OW 1285   1.860   0.013   1.007 -0.2977  0.2900  0.0398
  429SOL    HW1 1286   1.776   0.019   0.948 -3.1753 -0.1154  0.4027
  429SOL    HW2 1287   1.938   3.058   0.974  0.0333  1.9632 -0.7217
  430SOL     OW 1288   0.780   1.650   2.419  0.6472 -0.1838 -0.1650
  430SOL    HW1 1289   0.790   1.720   2.495  0.9860 -1.1728  3.6176
  430SOL    HW2 1290   0.684   1.628   2.402 -0.2157  1.0827 -2.2741
  431SOL     OW 1291   0.069   1.809   1.085  0.6737 -0.1834 -0.5213
  431SOL    HW1 1292   0.133   1.826   1.165  2.8209  2.6907 -0.3842
  431SOL    HW2 1293   3.098   1.876   1.083  2.4729 -5.3586  1.1097
  432SOL     OW 1294   1.489   2.557   2.372 -0.3104  0.0740 -0.4542
  432SOL    HW1 1295   1.471   2.620   2.294  0.7992 -1.7723  0.4265
  432SOL    HW2 1296   1.400   2.507   2.394  0.6262  1.0103  1.1524
  433SOL     OW 1297   1.329   0.225   2.524 -0.4859  0.1829 -0.0700
  433SOL    HW1 1298   1.336   0.179   2.433  0.1195  1.5206  0.5695
  433SOL    HW2 1299   1.300   0.327   2.512  1.6954  0.5681 -1.2169
  434SOL     OW 1300   0.616   2.432   2.024 -0.4885  0.3750  0.6023
  434SOL    HW1 1301   0.635   2.426   1.923 -0.2077 -1.6160  1.4739
  434SOL    HW2 1302   0.516   2.409   2.043  1.2750 -0.1527 -0.8946
  435SOL     OW 1303   0.389   0.226   0.223  0.6158  0.6682  0.1593
  435SOL    HW1 1304   0.322   0.301   0.248 -1.7218  2.5149  1.7604
  435SOL    HW2 1305   0.339   0.176   0.148 -3.8077  2.6107 -1.9940
  436SOL     OW 1306   0.604   1.258   2.318 -0.0529 -0.3869  0.0042
  436SOL    HW1 1307   0.513   1.292   2.355  0.1367  0.3066 -0.3547
  436SOL    HW2 1308   0.628   1.167   2.350 -2.7112 -0.1658 -1.3832
  437SOL     OW 1309   0.791   2.336   2.774 -0.0568  0.4503  0.5613
  437SOL    HW1 1310   0.817   2.359   2.677  2.5615  1.3242 -0.6800
  437SOL    HW2 1311   0.691   2.334   2.790  2.6378  1.2805 -0.3273
  438SOL     OW 1312   0.881   1.042   0.638  0.3182  0.4288 -0.2101
  438SOL    HW1 1313   0.909   1.032   0.737  0.9646 -1.1311  1.7435
  438SOL    HW2 1314   0.959   1.069   0.578  1.5564  0.1541  0.3799
  439SOL     OW 1315   2.714   1.397   2.347  0.1295  0.1599 -0.1436
  439SOL    HW1 1316   2.732   1.328   2.274  1.3350 -1.3918  1.5268
  439SOL    HW2 1317   2.770   1.481   2.330 -1.6515  0.0170  1.2782
  440SOL     OW 1318   2.755   0.760   2.899  0.4157  0.1012  0.1880
  440SOL    HW1 1319   2.706   0.679   2.857 -0.6080 -2.0724 -0.6120
  440SOL    HW2 1320   2.852   0.732   2.926 -0.0324 -1.3278 -0.2740
  441SOL     OW 1321   0.990   2.070   1.618  0.1181  0.5100  0.0771
  441SOL    HW1 1322   0.963   2.101   1.714 -1.5690 -0.5347  1.1683
  441SOL    HW2 1323   1.055   2.139   1.578  0.2846  0.6955 -1.3980
  442SOL     OW 1324   2.044   1.444   0.781  0.0843  0.1538 -0.0464
  442SOL    HW1 1325   1.967   1.432   0.842  1.6807  1.9579 -0.3423
  442SOL    HW2 1326   2.017   1.459   0.688 -0.1050 -0.8695 -1.3032
  443SOL     OW 1327   2.247   2.277   2.941  0.0124 -0.0535 -0.3259
  443SOL    HW1 1328   2.292   2.309   2.854 -0.7223  0.1706 -0.7414
  443SOL    HW2 1329   2.218   2.356   2.999 -0.7032  0.1343  0.0351
  444SOL     OW 1330   1.884   1.558   2.738  0.1654 -0.3437  0.5918
  444SOL    HW1 1331   1.922   1.503   2.657  1.8648  2.2033  1.9493
  444SOL    HW2 1332   1.921   1.652   2.729 -0.4429 -0.2698  2.4493
  445SOL     OW 1333   0.338   2.117   2.275  0.5732  0.0806  0.3419
  445SOL    HW1 1334   0.440   2.114   2.280 -0.3996  0.3971 -0.4494
  445SOL    HW2 1335   0.292   2.207   2.273  0.1145 -2.5813  5.3556
  446SOL     OW 1336   1.003   0.882   1.690 -0.3359  0.8780 -0.0617
  446SOL    HW1 1337   1.075   0.853   1.759 -0.4589 -2.2582  3.4968
  446SOL    HW2 1338   1.043   0.908   1.600  1.1959  0.1599 -0.8296
  447SOL     OW 1339   1.053   1.156   0.452 -0.3589  0.2947 -0.0418
  447SOL    HW1 1340   1.060   1.237   0.390 -0.3008 -0.9842 -0.4837
  447SOL    HW2 1341   1.091   1.072   0.405  0.4882 -1.1358 -2.7754
  448SOL     OW 1342   0.854   1.372   2.433  0.6598  0.3180  0.0016
  448SOL    HW1 1343   0.814   1.467   2.457 -1.0436  2.4619  1.9019
  448SOL    HW2 1344   0.802   1.318   2.368  0.8096  1.7864 -1.4915
  449SOL     OW 1345   0.142   1.843   2.619  0.2482  0.5304 -0.0235
  449SOL    HW1 1346   0.181   1.830   2.523 -0.8298 -1.5262 -3.5425
  449SOL    HW2 1347   0.045   1.826   2.624  1.9518  2.4401 -1.1476
  450SOL     OW 1348   2.120   1.563   2.135  0.1224  0.3989 -0.0954
  450SOL    HW1 1349   2.148   1.613   2.215  0.4157 -1.6791 -1.5881
  450SOL    HW2 1350   2.194   1.498   2.105  2.8964  0.3477 -1.4616
  451SOL     OW 1351   2.576   1.313   1.095 -0.4596  0.0244 -0.1995
  451SOL    HW1 1352   2.570   1.398   1.049  0.6016 -1.6542  0.0896
  451SOL    HW2 1353   2.654   1.306   1.162  0.4928  2.1853 -2.3920
  452SOL     OW 1354   0.962   1.185   1.143  0.0993 -0.5181  0.6412
  452SOL    HW1 1355   0.895   1.131   1.198 -0.0260  0.0468  0.7911
  452SOL    HW2 1356   1.039   1.203   1.205 -1.9752  0.8917 -0.4870
  453SOL     OW 1357   0.572   1.798   0.823  0.0956  0.2093  0.2011
  453SOL    HW1 1358   0.477   1.825   0.796 -1.4854  1.4024  2.0778
  453SOL    HW2 1359   0.618   1.746   0.747  0.1086 -0.5964  2.2655
  454SOL     OW 1360   1.205   1.713   0.226 -0.1707  0.2943  0.6285
  454SOL    HW1 1361   1.223   1.683   0.316 -0.9501  0.9514 -1.4396
  454SOL    HW2 1362   1.108   1.684   0.203 -1.9216 -0.2095  1.2655
  455SOL     OW 1363   1.758   0.443   1.319  0.5827  0.3895  0.6462
  455SOL    HW1 1364   1.829   0.485   1.375  1.1161  0.4718 -1.2682
  455SOL    HW2 1365   1.727   0.502   1.238  0.1434  0.7412  0.7820
  456SOL     OW 1366   1.740   2.917   0.731  0.3547 -0.6201  0.3432
  456SOL    HW1 1367   1.663   2.913   0.667  3.2802 -0.5730  1.4504
  456SOL    HW2 1368   1.829   2.888   0.688  1.4516 -2.9101 -3.5359
  457SOL     OW 1369   2.023   0.628   2.645 -0.1560 -0.4641  0.1522
  457SOL    HW1 1370   1.941   0.591   2.691  0.1558  2.5535 -2.4253
  457SOL    HW2 1371   2.105   0.615   2.704 -0.8238 -3.0736  0.3144
  458SOL     OW 1372   2.670   0.538   2.737 -1.3134 -0.3447 -0.6039
  458SOL    HW1 1373   2.701   0.573   2.645  1.0430 -1.0729  2.1968
  458SOL    HW2 1374   2.697   0.442   2.757  0.6819  1.3122 -0.2683
  459SOL     OW 1375   2.406   1.355   2.348  0.1301 -0.0548 -0.7307
  459SOL    HW1 1376   2.365   1.390   2.266  0.4973  0.0635  1.5365
  459SOL    HW2 1377   2.506   1.360   2.347  0.6658 -0.8242 -0.8554
  460SOL     OW 1378   0.740   0.817   2.932 -0.1524  0.3086  0.7749
  460SOL    HW1 1379   0.670   0.850   3.001 -0.3107 -1.3172  1.8420
  460SOL    HW2 1380   0.744   0.887   2.857 -3.3394  5.2674 -1.7227
  461SOL     OW 1381   0.452   2.213   3.066  0.4073 -0.2877 -0.5509
  461SOL    HW1 1382   0.512   2.178   0.039 -1.0905 -1.6480 -0.7393
  461SOL    HW2 1383   0.373   2.150   3.061  1.8087 -0.7715 -1.0439
  462SOL     OW 1384   1.032   2.955   2.190  0.1939 -0.3521 -0.1710
  462SOL    HW1 1385   1.045   2.903   2.277  1.3118  3.2077  1.0112
  462SOL    HW2 1386   0.936   2.991   2.179  0.8119  2.0414 -1.4631
  463SOL     OW 1387   1.863   2.182   2.022 -0.6381 -0.2866 -0.3222
  463SOL    HW1 1388   1.772   2.224   1.995 -1.8525  0.3596 -1.2442
  463SOL    HW2 1389   1.919   2.159   1.939 -0.2672  0.8959 -1.2432
  464SOL     OW 1390   2.641   2.828   1.030  0.0927  0.2646 -0.3641
  464SOL    HW1 1391   2.577   2.881   1.092  3.7650 -1.1522 -0.3616
  464SOL    HW2 1392   2.601   2.759   0.964 -0.2045 -0.8685 -2.3807
  465SOL     OW 1393   0.053   0.159   1.385 -0.3163 -0.1303 -0.7198
  465SOL    HW1 1394   0.019   0.077   1.431  1.1921  1.6188 -0.9115
  465SOL    HW2 1395   0.121   0.133   1.315 -1.5796 -0.0376 -0.7585
  466SOL     OW 1396   1.269   2.405   2.440 -0.2132 -0.4995  0.4247
  466SOL    HW1 1397   1.202   2.447   2.503  0.2845  1.3690 -0.8397
  466SOL    HW2 1398   1.215   2.351   2.370  0.9578 -1.0656  0.5000
  467SOL     OW 1399   0.114   2.262   0.417 -0.2836  0.1024  0.3580
  467SOL    HW1 1400   0.158   2.188   0.468  1.7694  0.9489  2.3524
  467SOL    HW2 1401   0.118   2.246   0.317 -0.1396 -1.8634  1.8901
  468SOL     OW 1402   2.009   2.025   3.078 -0.0707  0.1345  0.1516
  468SOL    HW1 1403   1.976   1.941   3.031 -0.1535 -1.4256  1.5346
  468SOL    HW2 1404   2.115   2.032   3.074  2.1024 -1.2930  0.0655
  469SOL     OW 1405   1.154   2.113   0.772 -0.0173 -0.2725 -0.0244
  469SOL    HW1 1406   1.208   2.171   0.835  0.3822 -1.3480  1.8433
  469SOL    HW2 1407   1.123   2.161   0.687  1.8507  0.3058  0.1762
  470SOL     OW 1408   2.049   0.764   0.854 -0.0302  0.4973 -0.1732
  470SOL    HW1 1409   2.028   0.672   0.894  0.2643  0.8481  1.0293
  470SOL    HW2 1410   2.046   0.833   0.922 -0.1358 -3.8772 -1.0069
  471SOL     OW 1411   0.505   2.128   0.243  0.0905 -0.3229  0.3098
  471SOL    HW1 1412   0.566   2.057   0.284 -0.9222 -0.1450  0.0279
  471SOL    HW2 1413   0.410   2.096   0.231 -0.0136 -0.4791 -1.3331
  472SOL     OW 1414   2.546   1.631   2.793 -0.0598 -0.3369  0.1017
  472SOL    HW1 1415   2.630   1.575   2.794  0.0897  0.0455  1.3462
  472SOL    HW2 1416   2.473   1.570   2.762  0.4366 -0.0018 -0.2763
  473SOL     OW 1417   1.595   1.947   0.797  0.2591  0.1443  0.3931
  473SOL    HW1 1418   1.553   2.032   0.763  3.2254 -2.5375  0.4625
  473SOL    HW2 1419   1.584   1.949   0.899 -2.0481 -0.2006 -0.2486
  474SOL     OW 1420   2.665   0.446   0.943 -0.1323  0.0995 -0.6952
  474SOL    HW1 1421   2.597   0.502   0.895  0.4015 -2.0120 -1.0646
  474SOL    HW2 1422   2.761   0.472   0.905  2.2947  1.0939 -0.0997
  475SOL     OW 1423   2.445   2.695   1.280 -0.0918 -0.1596  0.6055
  475SOL    HW1 1424   2.384   2.692   1.365  0.8261  0.6309  1.8604
  475SOL    HW2 1425   2.454   2.788   1.239 -1.9933 -0.6549 -1.3108
  476SOL     OW 1426   0.612   0.280   0.732 -0.1993 -0.3427 -0.5538
  476SOL    HW1 1427   0.578   0.272   0.634 -0.2410  0.9719 -1.4092
  476SOL    HW2 1428   0.688   0.346   0.746  1.0948 -0.4444  0.9973
  477SOL     OW 1429   1.223   2.335   1.220  0.1387  0.1316  1.0738
  477SOL    HW1 1430   1.314   2.311   1.178  1.4512  0.9866  1.8918
  477SOL    HW2 1431   1.223   2.408   1.287  0.3373  0.4714  0.3069
  478SOL     OW 1432   1.362   2.673   2.865 -0.1511  0.1803 -0.0158
  478SOL    HW1 1433   1.280   2.724   2.838  1.8620 -1.7177 -0.9079
  478SOL    HW2 1434   1.420   2.670   2.779  1.2259 -0.3962 -1.2292
  479SOL     OW 1435   2.391   0.897   1.806  0.2517 -0.3447 -0.3342
  479SOL    HW1 1436   2.344   0.971   1.753 -2.6278  0.6057 -0.3013
  479SOL    HW2 1437   2.485   0.869   1.770  1.4546 -0.5958  3.2969
  480SOL     OW 1438   2.808   2.051   2.752 -0.0119 -0.2494  0.1047
  480SOL    HW1 1439   2.788   2.069   2.653  0.3752  0.7859 -1.7542
  480SOL    HW2 1440   2.823   1.958   2.785 -0.6639 -1.1113  2.8030
  481SOL     OW 1441   1.755   0.176   2.113 -0.1142  0.0190  0.0425
  481SOL    HW1 1442   1.809   0.139   2.193  0.5188 -1.1253  0.9312
  481SOL    HW2 1443   1.655   0.178   2.127 -0.3524 -0.6516  0.6462
  482SOL     OW 1444   1.599   2.323   2.475  0.2525 -0.0799  0.1809
  482SOL    HW1 1445   1.566   2.403   2.431 -0.6807 -0.6290 -0.5628
  482SOL    HW2 1446   1.665   2.339   2.551  0.8417 -0.4607 -2.5885
  483SOL     OW 1447   1.141   2.553   2.614 -0.3630  0.2178  0.0702
  483SOL    HW1 1448   1.163   2.521   2.710 -1.2099  0.6823  2.9054
  483SOL    HW2 1449   1.151   2.652   2.602 -0.4562 -2.5259 -0.1928
  484SOL     OW 1450   2.672   3.004   1.384 -0.4797  0.1658 -0.3597
  484SOL    HW1 1451   2.612   2.978   1.462  1.2314  0.6488 -0.1330
  484SOL    HW2 1452   2.769   2.966   1.395 -0.4885  0.3592  2.3066
  485SOL     OW 1453   1.895   0.676   0.430  0.7155 -0.2546 -0.3611
  485SOL    HW1 1454   1.852   0.702   0.523  0.8337  2.4940 -0.3063
  485SOL    HW2 1455   1.946   0.759   0.394  0.5133 -1.4477  1.1871
  486SOL     OW 1456   2.314   2.756   2.222 -0.4219  0.3906 -0.6692
  486SOL    HW1 1457   2.299   2.832   2.294 -1.8517 -0.2570 -0.4541
  486SOL    HW2 1458   2.255   2.770   2.143 -2.1460  2.2287 -2.0271
  487SOL     OW 1459   1.517   0.753   0.465  0.2110 -0.1364  0.0909
  487SOL    HW1 1460   1.508   0.792   0.559  0.2379  0.7692  2.4446
  487SOL    HW2 1461   1.565   0.663   0.475 -1.8215  0.4451 -0.2260
  488SOL     OW 1462   2.633   2.862   2.554 -0.3845  0.2263 -0.3463
  488SOL    HW1 1463   2.631   2.826   2.458 -2.6940  0.4031 -0.4654
  488SOL    HW2 1464   2.540   2.881   2.585  1.4760  2.0079  0.8214
  489SOL     OW 1465   1.465   2.963   0.167 -0.1468 -0.0578 -0.4189
  489SOL    HW1 1466   1.439   3.043   0.224 -1.2846 -1.9226 -2.1635
  489SOL    HW2 1467   1.557   2.921   0.196  1.6495  1.3027 -1.1323
  490SOL     OW 1468   1.721   0.488   0.017 -0.0646 -0.4469  0.6188
  490SOL    HW1 1469   1.709   0.516   0.117  0.4929  0.7265  1.3318
  490SOL    HW2 1470   1.773   0.554   3.063 -1.6280  0.0332  1.7749
  491SOL     OW 1471   0.500   2.951   1.206 -0.4349  0.0017 -0.6705
  491SOL    HW1 1472   0.563   2.964   1.285  0.2889 -0.0159  0.2453
  491SOL    HW2 1473   0.548   2.936   1.119 -1.0126 -0.9433  2.2387
  492SOL     OW 1474   1.579   2.848   0.515 -0.6633  0.2858  0.3238
  492SOL    HW1 1475   1.583   2.746   0.515  0.5934  0.6890  3.3974
  492SOL    HW2 1476   1.636   2.891   0.442 -1.9695  0.0406  2.7181
  493SOL     OW 1477   1.228   2.314   2.883 -0.8483  0.1719 -0.1967
  493SOL    HW1 1478   1.292   2.315   2.804 -0.4693 -1.3019  0.3485
  493SOL    HW2 1479   1.220   2.406   2.930 -1.8033 -1.0439  2.7639
  494SOL     OW 1480   0.798   0.945   0.326 -0.2417 -0.2947 -0.1035
  494SOL    HW1 1481   0.717   0.937   0.386  0.0298 -0.6570  0.5310
  494SOL    HW2 1482   0.885   0.904   0.356 -1.8555  3.1047 -1.0587
  495SOL     OW 1483   2.676   0.549   1.840  0.3474 -0.5531 -0.0545
  495SOL    HW1 1484   2.726   0.489   1.782 -4.6222  1.8780  0.2302
  495SOL    HW2 1485   2.639   0.629   1.783  1.7543 -1.6306  0.2328
  496SOL     OW 1486   2.222   2.525   2.330 -0.5209 -0.0239  0.3904
  496SOL    HW1 1487   2.245   2.609   2.278 -0.0976  0.0662  0.1520
  496SOL    HW2 1488   2.121   2.505   2.334 -1.5699  0.6495  0.6009
  497SOL     OW 1489   1.611   1.476   2.724  0.5556  0.0944  0.0995
  497SOL    HW1 1490   1.696   1.526   2.721 -1.4534  0.5863 -1.2356
  497SOL    HW2 1491   1.593   1.458   2.819  1.8042 -0.3986 -1.5452
  498SOL     OW 1492   0.846   2.460   0.871 -0.7912  0.4878  0.2056
  498SOL    HW1 1493   0.761   2.504   0.904  1.8936  0.3490  0.6795
  498SOL    HW2 1494   0.888   2.410   0.949 -0.5833 -2.4349 -0.2864
  499SOL     OW 1495   0.130   2.142   1.081 -0.4402 -0.2515 -0.0768
  499SOL    HW1 1496   0.077   2.110   0.996 -3.8217  0.2635  1.4382
  499SOL    HW2 1497   0.075   2.211   1.131 -3.1625  1.2635  1.8843
  500SOL     OW 1498   1.077   2.715   0.096  0.5617  0.0431 -0.1962
  500SOL    HW1 1499   1.005   2.770   0.141  2.9721 -0.6045 -0.7343
  500SOL    HW2 1500   1.161   2.708   0.148  0.6650 -1.0916 -0.3069
  501SOL     OW 1501   1.972   2.810   0.588 -0.0528 -0.5479  0.2955
  501SOL    HW1 1502   2.012   2.900   0.559 -0.9846  0.8717  0.0498
  501SOL    HW2 1503   1.964   2.751   0.511  1.2582  3.6876  3.4479
  502SOL     OW 1504   0.017   0.354   0.973  0.1111 -0.2310 -0.4655
  502SOL    HW1 1505   3.086   0.349   1.070  0.6974 -0.3053 -0.4498
  502SOL    HW2 1506   0.044   0.259   0.948  0.5040  3.4464  1.3488
  503SOL     OW 1507   2.102   3.097   1.989  0.1720  0.0820 -0.4358
  503SOL    HW1 1508   2.101   0.083   2.036 -0.2685 -2.1560 -2.0341
  503SOL    HW2 1509   2.176   3.087   1.925 -1.5191  0.6397 -5.4853
  504SOL     OW 1510   1.953   0.997   1.945 -0.4303  0.6121  0.2987
  504SOL    HW1 1511   1.980   0.955   1.852 -1.4717  0.5579 -4.1120
  504SOL    HW2 1512   1.973   1.093   1.950  0.8517 -2.7075 -0.4839
  505SOL     OW 1513   1.751   2.900   2.412  0.2752  0.5173  0.5563
  505SOL    HW1 1514   1.847   2.914   2.394 -2.3709 -2.7392  0.7287
  505SOL    HW2 1515   1.694   2.933   2.333  1.3044 -0.3798 -2.7056
  506SOL     OW 1516   0.193   0.716   1.753 -0.2080  0.3517 -0.1038
  506SOL    HW1 1517   0.145   0.630   1.778  0.6316  0.9326 -3.3970
  506SOL    HW2 1518   0.293   0.693   1.752  1.3746 -0.2667  0.3367
  507SOL     OW 1519   1.700   0.534   0.278  0.1754 -0.3365 -0.2940
  507SOL    HW1 1520   1.631   0.532   0.354 -0.8039 -0.6955  0.0371
  507SOL    HW2 1521   1.778   0.586   0.323 -2.8090 -1.1554 -0.8667
  508SOL     OW 1522   2.072   0.927   2.204  0.0534  0.2423  0.1589
  508SOL    HW1 1523   2.013   0.943   2.124 -1.7513  0.1958 -0.4442
  508SOL    HW2 1524   2.171   0.946   2.185  1.4046  1.0395 -1.0277
  509SOL     OW 1525   0.598   1.859   2.804 -0.1666  0.0754  0.2112
  509SOL    HW1 1526   0.649   1.875   2.890  0.1081 -2.2626 -0.6681
  509SOL    HW2 1527   0.525   1.926   2.794  1.7699 -1.0043  1.3598
  510SOL     OW 1528   0.068   0.824   0.840  0.1816  0.3907 -0.1386
  510SOL    HW1 1529   0.138   0.753   0.868 -0.6597 -1.5194  2.4198
  510SOL    HW2 1530   0.079   0.916   0.891  2.3010  3.2819  1.0320
  511SOL     OW 1531   1.652   1.086   1.589 -0.1316  0.2161  0.0678
  511SOL    HW1 1532   1.553   1.110   1.584 -1.5614  0.9543 -0.8880
  511SOL    HW2 1533   1.695   1.101   1.679 -2.4531 -0.7255  0.0454
  512SOL     OW 1534   0.504   2.092   0.802  0.3667 -0.7229 -0.1990
  512SOL    HW1 1535   0.552   2.055   0.720 -2.9198  1.6114 -1.1514
  512SOL    HW2 1536   0.446   2.174   0.783  0.2285  2.9592 -0.2964
  513SOL     OW 1537   0.312   2.353   1.013  0.5029  0.6631  0.3442
  513SOL    HW1 1538   0.282   2.432   1.060  2.1696 -1.3016 -0.3053
  513SOL    HW2 1539   0.245   2.277   1.023  0.8055 -0.2023  0.5789
  514SOL     OW 1540   0.640   2.003   0.591 -0.0549  0.2800 -0.8868
  514SOL    HW1 1541   0.716   1.942   0.631 -2.2456 -1.3094 -0.1845
  514SOL    HW2 1542   0.634   1.994   0.489 -0.8008  0.4083 -3.1059
  515SOL     OW 1543   0.268   0.091   0.030  0.1511 -0.0650 -0.3547
  515SOL    HW1 1544   0.304   0.012   3.080 -2.3125 -1.1891  0.2027
  515SOL    HW2 1545   0.182   0.061   0.079 -1.1706 -0.0404  2.6809
  516SOL     OW 1546   1.722   3.089   1.259  0.5571  0.0383 -0.4895
  516SOL    HW1 1547   1.703   0.063   1.318  0.7505 -1.9238 -2.7545
  516SOL    HW2 1548   1.791   0.015   1.186  1.9296 -1.9053  2.5947
  517SOL     OW 1549   1.696   1.701   0.850 -0.1559  0.1449  0.3148
  517SOL    HW1 1550   1.659   1.783   0.802 -0.9571 -0.6967  0.5022
  517SOL    HW2 1551   1.762   1.727   0.921  0.2534  2.4702 -4.5376
  518SOL     OW 1552   1.673   2.751   0.970 -0.3282 -0.3697 -0.3255
  518SOL    HW1 1553   1.617   2.687   0.914  0.2348  1.0385 -3.2869
  518SOL    HW2 1554   1.695   2.826   0.912 -2.3072 -2.8367 -0.1298
  519SOL     OW 1555   0.118   2.336   0.144 -0.5314 -0.5562  0.0685
  519SOL    HW1 1556   0.121   2.306   0.046  0.1536  0.6427  2.1651
  519SOL    HW2 1557   0.203   2.388   0.169 -1.1584  3.4783  0.2122
  520SOL     OW 1558   2.063   1.918   2.287  0.9191 -0.2431  0.2473
  520SOL    HW1 1559   2.005   1.988   2.336  1.5436 -2.4680  1.0159
  520SOL    HW2 1560   2.011   1.885   2.207 -0.9893  0.2109  1.5773
  521SOL     OW 1561   1.257   2.885   2.045  0.1664  0.0077  0.3107
  521SOL    HW1 1562   1.294   2.919   1.963  0.1622 -1.7823  3.5685
  521SOL    HW2 1563   1.159   2.909   2.066 -0.6021 -1.0568 -1.8144
  522SOL     OW 1564   0.356   2.386   2.088  0.9711 -0.1160  0.2076
  522SOL    HW1 1565   0.284   2.392   2.016 -3.0496  2.8524  1.9496
  522SOL    HW2 1566   0.314   2.386   2.180 -0.0356 -2.4253  0.3121
  523SOL     OW 1567   0.921   2.090   2.156  0.4734 -0.0668  0.7912
  523SOL    HW1 1568   0.877   2.162   2.209  1.7072 -0.9842  0.1652
  523SOL    HW2 1569   0.995   2.036   2.204  1.7752 -2.1837 -0.8009
  524SOL     OW 1570   2.403   2.129   0.238 -0.2414 -0.0354  0.1289
  524SOL    HW1 1571   2.446   2.212   0.205  1.9067 -1.2721  1.6014
  524SOL    HW2 1572   2.337   2.092   0.178  1.8143 -0.2435  4.3659
  525SOL     OW 1573   2.748   1.065   2.813 -0.0756 -0.1174 -0.2718
  525SOL    HW1 1574   2.695   1.124   2.743  2.3049  1.1099 -1.0498
  525SOL    HW2 1575   2.718   0.971   2.828  1.6627 -3.8233 -1.7834
  526SOL     OW 1576   0.331   2.825   0.868 -0.0696 -0.6808 -0.2880
  526SOL    HW1 1577   0.385   2.749   0.832  0.5633  0.6918  3.9311
  526SOL    HW2 1578   0.254   2.853   0.811 -1.8472 -1.5581  2.5314
  527SOL     OW 1579   3.048   1.222   0.698 -0.1497  0.0855  0.0852
  527SOL    HW1 1580   3.010   1.152   0.761  2.4350  2.3551 -1.7699
  527SOL    HW2 1581   2.980   1.295   0.683 -1.6601 -3.4798  1.1984
  528SOL     OW 1582   0.786   0.996   2.363 -0.2640  0.1012 -0.0613
  528SOL    HW1 1583   0.709   0.931   2.376  2.2430 -2.3296 -1.0589
  528SOL    HW2 1584   0.822   1.023   2.453 -1.1972 -1.5860 -0.4774
  529SOL     OW 1585   0.993   1.545   0.163 -0.1608 -0.4467  0.2133
  529SOL    HW1 1586   1.034   1.457   0.197 -4.0870 -1.5718 -0.0800
  529SOL    HW2 1587   0.995   1.550   0.064 -0.5649 -3.4263  2.0784
  530SOL     OW 1588   1.090   1.042   1.907 -0.4656 -0.1850  0.1064
  530SOL    HW1 1589   1.053   1.011   1.816  2.9237 -1.1531  1.1078
  530SOL    HW2 1590   1.131   0.966   1.955 -1.0296 -0.1282 -2.4390
  531SOL     OW 1591   1.211   2.312   0.183 -0.3021 -0.2630  0.3211
  531SOL    HW1 1592   1.240   2.215   0.184 -2.5119 -0.3786  0.2286
  531SOL    HW2 1593   1.179   2.345   0.275 -0.5800  2.6398 -0.0364
  532SOL     OW 1594   2.481   0.704   2.251 -0.2318  0.2708  0.5202
  532SOL    HW1 1595   2.540   0.787   2.268 -1.3057  0.2568  0.8865
  532SOL    HW2 1596   2.443   0.671   2.340 -1.2911 -1.0511  3.6414
  533SOL     OW 1597   2.964   0.103   1.839 -0.0199 -0.7907  0.0199
  533SOL    HW1 1598   2.920   0.119   1.929 -0.1741 -1.6141  0.7675
  533SOL    HW2 1599   2.965   0.185   1.781  1.3460  1.7371  0.0419
  534SOL     OW 1600   2.533   0.130   0.299 -0.0678 -0.0261 -0.0797
  534SOL    HW1 1601   2.628   0.092   0.320 -0.1890 -2.1675 -2.8400
  534SOL    HW2 1602   2.523   0.155   0.201 -0.2581  1.9640  1.2554
  535SOL     OW 1603   0.414   0.550   0.045 -0.1422  0.1907 -0.2217
  535SOL    HW1 1604   0.480   0.569   0.122  0.1264 -2.3521  1.9463
  535SOL    HW2 1605   0.316   0.581   0.064 -1.1208  1.7873 -1.7177
  536SOL     OW 1606   1.116   2.109   1.364 -0.2706 -0.3139 -0.5612
  536SOL    HW1 1607   1.039   2.097   1.307  0.8514 -0.1018  0.8178
  536SOL    HW2 1608   1.159   2.199   1.344  1.2365  2.6083  2.3458
  537SOL     OW 1609   2.966   2.420   1.655 -0.5012  0.7377  0.0321
  537SOL    HW1 1610   2.892   2.489   1.661 -1.6196 -1.2717  1.7186
  537SOL    HW2 1611   3.036   2.424   1.730  1.2636 -0.0793  1.9349
  538SOL     OW 1612   0.507   2.403   0.250 -0.1657 -0.3603  0.7202
  538SOL    HW1 1613   0.559   2.424   0.167 -0.1749  1.4761 -0.3844
  538SOL    HW2 1614   0.503   2.302   0.270  0.8345  0.4128 -0.6432
  539SOL     OW 1615   2.075   1.233   2.362  0.5695  0.1212 -0.0980
  539SOL    HW1 1616   2.039   1.189   2.448  1.3790 -1.6757  0.6462
  539SOL    HW2 1617   2.172   1.208   2.338  1.7093 -0.3806  0.4656
  540SOL     OW 1618   1.795   0.738   3.007 -0.2903  0.2037 -0.4089
  540SOL    HW1 1619   1.843   0.745   3.100  1.8274 -0.1224 -1.0127
  540SOL    HW2 1620   1.803   0.822   2.949 -0.6923 -1.3595 -0.2118
  541SOL     OW 1621   0.535   0.827   2.423 -0.3689 -0.4320 -0.1829
  541SOL    HW1 1622   0.569   0.734   2.446  1.1879  0.1887 -0.7941
  541SOL    HW2 1623   0.458   0.820   2.361  0.1614 -0.5811 -2.8799
  542SOL     OW 1624   1.361   2.506   1.931  0.3800  0.3320  0.2838
  542SOL    HW1 1625   1.260   2.487   1.924 -1.2712  1.8088  0.8763
  542SOL    HW2 1626   1.397   2.528   1.838 -0.7074 -0.4231  1.8309
  543SOL     OW 1627   0.550   2.693   0.337 -0.1498 -0.3910  0.1058
  543SOL    HW1 1628   0.551   2.671   0.238 -0.8304 -3.2793 -0.8751
  543SOL    HW2 1629   0.457   2.685   0.380 -1.4879 -0.9165  0.2749
  544SOL     OW 1630   2.723   2.059   2.470  0.1671  0.0362  0.0265
  544SOL    HW1 1631   2.654   2.102   2.410 -1.5162  0.4215 -0.2710
  544SOL    HW2 1632   2.816   2.073   2.435  1.0268 -3.3542 -0.4713
  545SOL     OW 1633   1.316   1.430   1.936 -0.3575  0.4025  0.4765
  545SOL    HW1 1634   1.341   1.470   2.024 -0.9057  0.0150  0.3712
  545SOL    HW2 1635   1.262   1.491   1.879  1.9575 -0.7836  0.4390
  546SOL     OW 1636   3.082   0.384   2.583  0.1055 -0.1306 -0.6067
  546SOL    HW1 1637   3.028   0.312   2.544  1.5264 -3.0103  0.4588
  546SOL    HW2 1638   0.073   0.353   2.616 -0.2010 -0.6346 -0.2151
  547SOL     OW 1639   1.394   3.033   1.287  0.2183 -0.0126  0.0184
  547SOL    HW1 1640   1.419   3.089   1.372 -0.4498  0.6364 -0.1654
  547SOL    HW2 1641   1.470   2.967   1.259  0.2487  0.0710  2.4274
  548SOL     OW 1642   1.395   2.118   3.021 -0.1128  0.1342  0.2928
  548SOL    HW1 1643   1.473   2.168   3.067  1.2683  1.8342  0.2360
  548SOL    HW2 1644   1.331   2.177   2.973  2.9269  0.4357  2.5731
  549SOL     OW 1645   2.182   0.721   3.057  0.5248 -0.4351  0.1049
  549SOL    HW1 1646   2.250   0.694   0.030 -0.9811  0.0136 -0.1812
  549SOL    HW2 1647   2.155   0.821   3.065 -1.8108 -1.1000 -0.5142
  550SOL     OW 1648   2.837   1.983   0.894 -0.2863  0.6348 -1.3137
  550SOL    HW1 1649   2.768   2.058   0.891 -0.0449  1.7071 -1.4145
  550SOL    HW2 1650   2.799   1.897   0.851 -0.5448  0.1976  0.8491
  551SOL     OW 1651   0.957   0.280   1.341  0.3017  0.4325 -0.6227
  551SOL    HW1 1652   0.885   0.220   1.304  1.0926 -0.4236 -2.7668
  551SOL    HW2 1653   0.951   0.291   1.442 -0.4433 -0.8992  0.6171
  552SOL     OW 1654   0.014   1.468   2.812  0.2607  0.4248  0.3672
  552SOL    HW1 1655   0.102   1.522   2.831  1.4990  0.9784 -2.1257
  552SOL    HW2 1656   3.069   1.444   2.902  0.0030  0.2728  0.1663
  553SOL     OW 1657   2.582   2.630   0.326  0.3105 -0.1914  0.4867
  553SOL    HW1 1658   2.646   2.642   0.404 -3.9374 -1.9003 -0.2096
  553SOL    HW2 1659   2.485   2.666   0.343 -1.3761 -0.4626  0.0439
  554SOL     OW 1660   2.149   1.143   1.629 -0.4920 -0.0732  0.7108
  554SOL    HW1 1661   2.075   1.196   1.585  1.9110 -3.1620  0.6417
  554SOL    HW2 1662   2.110   1.048   1.644  1.9346  0.5462  1.0528
  555SOL     OW 1663   0.905   2.314   2.343  0.7742  0.0355  0.2028
  555SOL    HW1 1664   0.902   2.328   2.446 -0.6430  1.8851  3.0454
  555SOL    HW2 1665   0.804   2.314   2.324  0.5023 -0.4103 -0.6511
  556SOL     OW 1666   1.129   1.250   1.751 -0.0168  0.0918  0.0265
  556SOL    HW1 1667   1.135   1.180   1.824 -1.9822  2.9384 -2.1091
  556SOL    HW2 1668   1.159   1.348   1.778 -1.2680 -0.7368 -0.8128
  557SOL     OW 1669   1.263   0.177   1.401  0.0581 -0.4553 -0.4501
  557SOL    HW1 1670   1.322   0.234   1.345 -1.7969 -3.6226  2.4874
  557SOL    HW2 1671   1.190   0.231   1.446 -5.0665 -1.3519 -0.7316
  558SOL     OW 1672   0.380   0.652   2.208 -0.2930 -0.1442 -0.0808
  558SOL    HW1 1673   0.365   0.579   2.275  1.3433 -3.2048 -0.2770
  558SOL    HW2 1674   0.470   0.649   2.163 -2.3823 -0.5328 -0.4718
  559SOL     OW 1675   1.285   2.748   0.275 -0.0548 -0.3044 -0.0995
  559SOL    HW1 1676   1.218   2.799   0.331  3.3821 -1.1263  0.0182
  559SOL    HW2 1677   1.357   2.812   0.241 -2.3628  0.5830 -1.0915
  560SOL     OW 1678   1.506   2.139   0.280 -0.2144  0.1003  0.1294
  560SOL    HW1 1679   1.569   2.070   0.320 -0.4464  0.0031 -0.3431
  560SOL    HW2 1680   1.549   2.185   0.199  1.1024 -2.2732  1.5067
  561SOL     OW 1681   1.316   3.022   0.818  0.1277  0.2470  0.1371
  561SOL    HW1 1682   1.337   3.068   0.905  0.2504 -3.5073  0.0479
  561SOL    HW2 1683   1.228   3.064   0.787 -1.5811  0.6903  1.1260
  562SOL     OW 1684   0.382   0.945   2.040  0.1716  0.3082  0.6339
  562SOL    HW1 1685   0.455   0.930   1.968 -0.7522 -2.6424 -1.5404
  562SOL    HW2 1686   0.366   0.852   2.083 -3.5146  0.3302 -0.4808
  563SOL     OW 1687   1.431   2.273   2.694  0.0687  0.2254  0.0912
  563SOL    HW1 1688   1.451   2.308   2.601 -1.5292 -1.3042  1.3613
  563SOL    HW2 1689   1.507   2.235   2.744  0.0385  0.0433  0.6024
  564SOL     OW 1690   2.630   0.778   1.134 -0.2676 -0.2958  0.1011
  564SOL    HW1 1691   2.679   0.853   1.078  1.0657  0.7592 -2.4402
  564SOL    HW2 1692   2.528   0.786   1.136 -0.9232  0.4177  0.0110
  565SOL     OW 1693   1.381   1.298   0.210  0.6522 -0.2359 -0.0738
  565SOL    HW1 1694   1.399   1.230   0.135  2.3154  2.5000  0.7078
  565SOL    HW2 1695   1.448   1.372   0.204  1.7810 -0.6188  0.9447
  566SOL     OW 1696   2.144   2.712   2.999  0.1887 -1.0940  0.7299
  566SOL    HW1 1697   2.088   2.797   3.008 -2.2115 -3.3395 -0.1529
  566SOL    HW2 1698   2.236   2.737   3.020 -1.4391  2.5659 -1.6852
  567SOL     OW 1699   1.768   0.864   1.086 -0.6232  0.1528 -0.1641
  567SOL    HW1 1700   1.813   0.930   1.022 -0.6706  0.4080  1.1096
  567SOL    HW2 1701   1.755   0.908   1.173  0.6288 -0.3869 -2.6566
  568SOL     OW 1702   1.409   1.468   2.514  0.5315  0.0920 -0.2538
  568SOL    HW1 1703   1.305   1.451   2.516 -2.8722 -0.6168 -1.0807
  568SOL    HW2 1704   1.447   1.467   2.606 -0.6535 -1.8160  1.2358
  569SOL     OW 1705   2.094   1.813   0.909 -0.0379  0.2053 -0.3489
  569SOL    HW1 1706   2.145   1.888   0.869 -3.4671 -0.1316  1.4852
  569SOL    HW2 1707   2.149   1.724   0.913  2.8262  1.1910 -0.3761
  570SOL     OW 1708   2.584   2.227   2.295 -0.0719  0.1077  0.2165
  570SOL    HW1 1709   2.618   2.295   2.228 -3.2826 -0.5858  0.4420
  570SOL    HW2 1710   2.485   2.225   2.316  1.1437 -0.9114 -1.2363
  571SOL     OW 1711   2.737   1.657   1.831 -0.3824  0.4466 -0.0218
  571SOL    HW1 1712   2.717   1.583   1.898 -0.1028 -1.0751  1.3113
  571SOL    HW2 1713   2.652   1.699   1.797  0.3927  1.6039 -1.2102
  572SOL     OW 1714   1.532   2.508   2.995 -0.0345 -0.1298 -0.5070
  572SOL    HW1 1715   1.454   2.570   2.983  2.0447  0.1524 -0.4933
  572SOL    HW2 1716   1.559   2.471   2.906  0.3182  0.1358  0.0458
  573SOL     OW 1717   1.652   2.234   1.194 -0.3833 -0.7579  0.6342
  573SOL    HW1 1718   1.625   2.183   1.276 -1.2260 -1.3900 -0.2432
  573SOL    HW2 1719   1.724   2.184   1.144  0.5124 -1.4086  0.0873
  574SOL     OW 1720   1.041   2.786   1.301 -0.7800 -0.2219  0.2203
  574SOL    HW1 1721   0.961   2.736   1.329  2.1204  2.0817  0.6951
  574SOL    HW2 1722   1.048   2.869   1.357 -0.4884 -0.0390 -1.0924
  575SOL     OW 1723   0.980   0.521   0.951  0.2952  0.2179  0.1476
  575SOL    HW1 1724   1.076   0.511   0.991  0.5315 -0.4832 -0.2286
  575SOL    HW2 1725   0.977   0.614   0.904 -0.4899  0.5032 -1.9996
  576SOL     OW 1726   2.445   0.311   1.324 -0.6382 -0.0597 -0.1418
  576SOL    HW1 1727   2.483   0.398   1.282  1.8614  1.9272 -1.5458
  576SOL    HW2 1728   2.507   0.275   1.397 -0.0422 -0.3634  1.6195
  577SOL     OW 1729   2.298   0.201   2.762 -0.0934 -0.5497 -0.3419
  577SOL    HW1 1730   2.324   0.238   2.852 -0.8840  1.6044 -0.6974
  577SOL    HW2 1731   2.221   0.252   2.719 -0.3524 -0.8854  0.2767
  578SOL     OW 1732   1.957   1.824   2.042 -0.4138 -0.1427  0.2594
  578SOL    HW1 1733   2.011   1.736   2.058  0.5293 -1.3837  1.8615
  578SOL    HW2 1734   1.947   1.841   1.945  3.4681  0.2687 -0.0930
  579SOL     OW 1735   0.677   1.685   1.048  0.0675 -0.1191  0.6992
  579SOL    HW1 1736   0.638   1.733   0.964 -1.2163  1.8038 -2.5048
  579SOL    HW2 1737   0.715   1.595   1.031 -0.8452  0.3375 -0.3329
  580SOL     OW 1738   1.505   2.674   2.629  0.0130  0.7502  0.8819
  580SOL    HW1 1739   1.505   2.639   2.532  0.9807  3.2514 -1.3311
  580SOL    HW2 1740   1.530   2.771   2.627 -1.0254 -3.2354  1.2864
  581SOL     OW 1741   0.649   0.678   2.136 -0.0740  0.1869  0.0056
  581SOL    HW1 1742   0.702   0.609   2.193 -1.7214  0.3274  0.0630
  581SOL    HW2 1743   0.685   0.773   2.138  1.0582 -1.2654  0.9111
  582SOL     OW 1744   0.540   0.668   0.595  0.1922 -0.0335  0.4112
  582SOL    HW1 1745   0.522   0.716   0.684 -4.3794  0.1673  3.9099
  582SOL    HW2 1746   0.496   0.579   0.585  1.3791 -3.0704  0.9095
  583SOL     OW 1747   0.717   1.616   1.877  0.5132 -0.2033 -0.0203
  583SOL    HW1 1748   0.649   1.542   1.891 -0.2926 -1.6418  0.7928
  583SOL    HW2 1749   0.701   1.697   1.934 -2.3797 -1.8466 -0.4693
  584SOL     OW 1750   2.363   2.746   0.393 -0.1912  0.3598  0.3080
  584SOL    HW1 1751   2.279   2.689   0.417  0.0547 -1.5095  1.3702
  584SOL    HW2 1752   2.344   2.833   0.347  0.3862  0.0937  1.7518
  585SOL     OW 1753   2.251   0.622   2.817 -0.1089 -0.2979  0.0521
  585SOL    HW1 1754   2.206   0.681   2.887 -1.6189 -0.0956 -1.6232
  585SOL    HW2 1755   2.336   0.590   2.860 -0.5651  1.8395 -0.8612
  586SOL     OW 1756   0.640   1.573   0.304 -0.0659 -0.2278  0.8413
  586SOL    HW1 1757   0.585   1.648   0.347  0.7381  0.4456 -0.9862
  586SOL    HW2 1758   0.711   1.531   0.368 -0.3311 -2.6056  1.3337
  587SOL     OW 1759   1.548   1.949   1.077  0.2589 -0.0014 -0.2919
  587SOL    HW1 1760   1.651   1.957   1.077 -0.2611  1.4113 -0.1322
  587SOL    HW2 1761   1.512   1.945   1.172 -1.6143  0.3658 -0.6294
  588SOL     OW 1762   0.563   0.376   1.102 -0.6807 -0.2335 -0.3413
  588SOL    HW1 1763   0.662   0.411   1.115  1.2377  0.3759  0.8319
  588SOL    HW2 1764   0.564   0.293   1.043 -1.7554 -0.6404  1.5699
  589SOL     OW 1765   1.588   2.859   1.210 -0.3378  0.8916 -0.1264
  589SOL    HW1 1766   1.588   2.829   1.114 -1.0134  0.7004 -1.4453
  589SOL    HW2 1767   1.658   2.932   1.232  1.8354  1.0134 -1.9749
  590SOL     OW 1768   1.397   1.091   0.411  0.4012 -0.1825 -0.2165
  590SOL    HW1 1769   1.464   1.026   0.378  1.3016  0.8568  0.3258
  590SOL    HW2 1770   1.396   1.177   0.357  2.4681 -1.0670 -0.7637
  591SOL     OW 1771   2.300   2.233   2.085  0.6613  0.1463 -0.4072
  591SOL    HW1 1772   2.296   2.257   2.182 -1.2718  0.3066 -0.4161
  591SOL    HW2 1773   2.346   2.145   2.074 -1.2093  1.1135 -0.7429
  592SOL     OW 1774   1.495   2.015   1.367  0.5796  0.1824  0.4691
  592SOL    HW1 1775   1.548   1.958   1.432 -2.6685  0.7546 -1.7136
  592SOL    HW2 1776   1.392   1.998   1.369 -4.7275 -2.6880 -0.9674
  593SOL     OW 1777   0.812   0.166   0.546  0.2768 -0.4535 -0.2204
  593SOL    HW1 1778   0.835   0.066   0.576  0.2155 -3.1604  2.3605
  593SOL    HW2 1779   0.835   0.232   0.619  1.6384  1.4025  0.0338
  594SOL     OW 1780   3.034   0.860   1.742 -0.8578  0.2380  0.4427
  594SOL    HW1 1781   3.050   0.949   1.791  0.7068  1.4700 -1.4862
  594SOL    HW2 1782   0.016   0.805   1.723  0.2026 -1.7831 -0.8465
  595SOL     OW 1783   0.112   2.880   0.715 -0.2267 -0.2731 -0.1853
  595SOL    HW1 1784   0.116   2.955   0.651 -2.3292  1.2104 -0.7277
  595SOL    HW2 1785   0.023   2.878   0.758  1.6055  3.3847 -0.4646
  596SOL     OW 1786   0.145   0.381   1.549 -0.0287  0.8681  0.1386
  596SOL    HW1 1787   0.164   0.462   1.496 -1.4082 -1.8047 -0.9802
  596SOL    HW2 1788   0.140   0.297   1.496  0.7430 -1.3866  1.8555
  597SOL     OW 1789   2.277   1.012   0.354  0.7033  0.6076  0.4931
  597SOL    HW1 1790   2.317   1.052   0.265  0.5829 -0.3319 -2.6686
  597SOL    HW2 1791   2.309   1.070   0.431  0.0493  1.7757 -1.7104
  598SOL     OW 1792   0.531   0.063   1.953  0.7214 -0.0206  0.7435
  598SOL    HW1 1793   0.443   0.060   1.900  2.3154  1.4874  1.8363
  598SOL    HW2 1794   0.536   0.144   2.011  0.0988 -1.0333  1.1486
  599SOL     OW 1795   2.547   1.726   0.096 -0.1964  0.3567  0.0149
  599SOL    HW1 1796   2.590   1.813   0.125 -0.2714  0.7206 -1.8716
  599SOL    HW2 1797   2.617   1.663   0.055 -1.9206  1.4139  0.5413
  600SOL     OW 1798   1.076   1.160   0.044 -0.3187  0.5876  0.3654
  600SOL    HW1 1799   0.997   1.172   3.082 -2.5451 -0.3624  0.7297
  600SOL    HW2 1800   1.093   1.061   0.066  1.4222  0.8333 -2.2183
  601SOL     OW 1801   1.242   1.337   3.000  0.2462  0.4965  0.5781
  601SOL    HW1 1802   1.267   1.413   3.063 -3.8658 -2.0109  2.3720
  601SOL    HW2 1803   1.157   1.292   3.025 -2.2558  0.0566 -0.6247
  602SOL     OW 1804   1.081   3.006   1.445 -0.5151  0.1452  0.0749
  602SOL    HW1 1805   1.127   2.956   1.519 -2.5660  1.8896 -3.2910
  602SOL    HW2 1806   1.138   3.088   1.414  0.3605  2.7476 -1.8870
  603SOL     OW 1807   1.001   2.813   2.421  0.1205 -0.2764  0.1720
  603SOL    HW1 1808   0.967   2.721   2.394  1.3910  0.2452  1.4979
  603SOL    HW2 1809   1.056   2.820   2.502  1.0054 -1.2867 -0.3894
  604SOL     OW 1810   2.892   0.094   2.121  0.0711  0.0974  0.5829
  604SOL    HW1 1811   2.878   0.190   2.139  0.6146 -1.6279 -0.3018
  604SOL    HW2 1812   2.889   0.039   2.212 -0.1256 -0.9061  3.4697
  605SOL     OW 1813   2.421   2.440   1.211  0.1951 -0.1213  0.5152
  605SOL    HW1 1814   2.398   2.376   1.288 -0.4567  2.5954  0.5466
  605SOL    HW2 1815   2.425   2.540   1.240  0.0828  1.8782  1.8001
  606SOL     OW 1816   2.912   1.839   2.892  0.2101  0.1619  0.2498
  606SOL    HW1 1817   2.965   1.918   2.933  0.5313 -2.2424  0.8872
  606SOL    HW2 1818   2.901   1.766   2.956 -0.8856 -0.4194  0.4491
  607SOL     OW 1819   1.113   0.075   0.725 -0.5979 -0.8942  0.0340
  607SOL    HW1 1820   1.133   0.132   0.641  0.3357 -1.6275  0.4324
  607SOL    HW2 1821   1.119   0.125   0.813 -0.7913  0.8295  4.0480
  608SOL     OW 1822   1.554   1.556   2.302 -0.4460 -0.6155  0.4592
  608SOL    HW1 1823   1.524   1.534   2.396 -1.5747  1.0374 -1.7050
  608SOL    HW2 1824   1.591   1.472   2.253  1.4972 -0.0201 -1.9737
  609SOL     OW 1825   2.936   0.522   0.840  0.2663  0.3308  0.2527
  609SOL    HW1 1826   3.020   0.474   0.869  2.6160  1.9107  1.1200
  609SOL    HW2 1827   2.910   0.601   0.903 -0.3050 -0.0997  1.6361
  610SOL     OW 1828   0.781   2.448   0.036  0.6832  0.6832  0.2260
  610SOL    HW1 1829   0.884   2.445   0.033 -1.7768 -0.8602 -0.7863
  610SOL    HW2 1830   0.752   2.351   0.018  1.0037 -2.6154  0.2474
  611SOL     OW 1831   1.942   1.474   0.529  0.5630 -0.1061  0.4475
  611SOL    HW1 1832   2.006   1.430   0.464 -0.0265  2.2343 -3.7209
  611SOL    HW2 1833   1.844   1.450   0.512  3.9209  0.0074 -0.7113
  612SOL     OW 1834   0.848   2.490   2.552  0.1624 -0.2072 -0.6664
  612SOL    HW1 1835   0.925   2.534   2.605  1.1147 -0.3111  1.7260
  612SOL    HW2 1836   0.849   2.508   2.449  2.4258  1.0485  2.3897
  613SOL     OW 1837   1.288   1.635   0.476 -0.1721 -0.1994  0.5284
  613SOL    HW1 1838   1.371   1.589   0.517  0.8835  1.4368  3.6515
  613SOL    HW2 1839   1.287   1.738   0.501 -0.4586  2.3027  0.3144
  614SOL     OW 1840   2.604   2.218   1.697 -0.1310  0.5585 -0.0483
  614SOL    HW1 1841   2.626   2.143   1.626  1.2514 -1.2175  0.0732
  614SOL    HW2 1842   2.679   2.213   1.765 -0.9741 -0.4509  1.1381
  615SOL     OW 1843   2.537   1.319   3.060 -0.3136 -0.1311  0.4504
  615SOL    HW1 1844   2.619   1.379   3.082  2.1249  0.2640 -1.5555
  615SOL    HW2 1845   2.454   1.372   3.028 -0.3563  1.5667 -0.2033
  616SOL     OW 1846   1.459   0.064   1.021 -0.1729  0.5790  0.0104
  616SOL    HW1 1847   1.495   0.158   1.024 -0.3745  2.1187  0.2205
  616SOL    HW2 1848   1.428   0.032   1.110  2.2852  0.0502 -1.9008
  617SOL     OW 1849   0.736   1.038   2.775  0.0718  0.5921 -0.1662
  617SOL    HW1 1850   0.800   1.066   2.697 -0.6779  0.4692  1.0880
  617SOL    HW2 1851   0.642   1.050   2.747  1.8861 -1.3955  2.7702
  618SOL     OW 1852   0.549   0.538   1.479  0.4990  0.4611  0.2388
  618SOL    HW1 1853   0.495   0.624   1.463 -0.8500 -2.6505  1.0962
  618SOL    HW2 1854   0.647   0.562   1.502  2.1115 -0.9925  1.4984
  619SOL     OW 1855   2.854   0.867   1.555  0.0541 -0.2520 -0.2253
  619SOL    HW1 1856   2.849   0.809   1.469  1.3164 -0.4782  0.9440
  619SOL    HW2 1857   2.929   0.842   1.618  0.1942  2.4655  0.1961
  620SOL     OW 1858   2.061   1.282   0.073  0.2752  0.2025 -0.6690
  620SOL    HW1 1859   2.006   1.194   0.067 -1.9752  0.6579  1.6052
  620SOL    HW2 1860   2.014   1.356   0.025 -0.6898 -1.4329  0.0226
  621SOL     OW 1861   2.238   3.099   1.209  0.6642  0.3285  0.4407
  621SOL    HW1 1862   2.293   0.069   1.167  0.1198 -4.9374  1.1891
  621SOL    HW2 1863   2.147   0.025   1.244  0.6342  0.4516 -1.9229
  622SOL     OW 1864   1.424   0.739   2.139  0.0582  0.6079  0.0460
  622SOL    HW1 1865   1.526   0.742   2.112  3.2702  3.7006 -0.8805
  622SOL    HW2 1866   1.418   0.666   2.211 -0.3716 -0.5964 -1.7215
  623SOL     OW 1867   0.996   0.704   2.952  0.3342 -0.2937  0.0654
  623SOL    HW1 1868   0.909   0.744   2.986  1.3701 -1.0481 -0.9348
  623SOL    HW2 1869   1.044   0.767   2.888 -0.3002 -0.5000  0.8030
  624SOL     OW 1870   1.705   0.541   0.804  0.3530  0.2726 -0.2464
  624SOL    HW1 1871   1.608   0.524   0.830 -4.0443 -1.0864  0.7862
  624SOL    HW2 1872   1.721   0.467   0.735 -2.4716  0.6091 -2.3013
  625SOL     OW 1873   0.705   1.570   0.652  0.2443 -0.2009  0.5638
  625SOL    HW1 1874   0.747   1.512   0.582 -1.4234  0.2166  4.3226
  625SOL    HW2 1875   0.640   1.520   0.719 -0.6429  2.3245 -1.3778
  626SOL     OW 1876   1.699   1.207   2.628 -0.6433  0.3360  0.4816
  626SOL    HW1 1877   1.707   1.181   2.526  0.6579 -0.2895 -0.0062
  626SOL    HW2 1878   1.668   1.303   2.646  0.1404  1.1558 -0.1167
  627SOL     OW 1879   0.704   0.279   1.671  0.2420  0.3685 -0.3891
  627SOL    HW1 1880   0.736   0.203   1.616 -1.1983 -0.8464  0.8483
  627SOL    HW2 1881   0.608   0.267   1.678  1.5583 -1.4538  0.4998
  628SOL     OW 1882   2.168   0.586   2.410  0.0420  0.3687 -0.3708
  628SOL    HW1 1883   2.083   0.614   2.462 -0.1940 -0.1526 -1.0254
  628SOL    HW2 1884   2.247   0.642   2.450 -2.5081 -0.6371  1.6201
  629SOL     OW 1885   0.899   1.489   2.966  0.0633  0.0753 -0.8685
  629SOL    HW1 1886   0.944   1.540   2.891  2.7537 -2.1982  0.1484
  629SOL    HW2 1887   0.801   1.519   2.979 -2.1016  1.0206  2.1989
  630SOL     OW 1888   0.960   0.211   2.107 -0.6977 -0.5671  0.2129
  630SOL    HW1 1889   0.924   0.266   2.027  1.4863  0.8828 -0.5917
  630SOL    HW2 1890   0.879   0.194   2.167 -2.2464  0.7998 -1.0772
  631SOL     OW 1891   2.506   1.155   0.876  0.2350 -0.3325  0.6121
  631SOL    HW1 1892   2.540   1.218   0.948 -0.4927  0.1874  1.0174
  631SOL    HW2 1893   2.412   1.182   0.842  0.5903 -1.5695 -1.3458
  632SOL     OW 1894   2.495   1.489   0.713 -0.0613  0.3903  0.4088
  632SOL    HW1 1895   2.571   1.431   0.678  3.0781 -0.6217 -3.2573
  632SOL    HW2 1896   2.430   1.511   0.638  0.9312 -0.9615  1.2802
  633SOL     OW 1897   1.014   1.129   0.880 -0.1143  0.3858 -0.1876
  633SOL    HW1 1898   0.958   1.140   0.967  0.1338  2.2384  1.2022
  633SOL    HW2 1899   1.055   1.219   0.858 -1.8303  0.7939  1.9246
  634SOL     OW 1900   1.653   0.065   0.824  0.4317 -0.2993 -0.2931
  634SOL    HW1 1901   1.575   0.047   0.890  1.6659 -1.2371  0.1443
  634SOL    HW2 1902   1.684   3.081   0.781  2.5934  1.6008  0.2773
  635SOL     OW 1903   1.920   0.631   1.464  0.1428 -0.0148 -0.3268
  635SOL    HW1 1904   2.020   0.609   1.481 -1.9552  0.6990  1.0945
  635SOL    HW2 1905   1.877   0.680   1.541  0.8582  0.8553 -2.2998
  636SOL     OW 1906   1.470   0.794   0.720 -0.3526 -0.1948 -0.4699
  636SOL    HW1 1907   1.410   0.721   0.752 -2.4878 -1.9625 -1.0239
  636SOL    HW2 1908   1.483   0.868   0.789 -2.9658  2.2425  0.4115
  637SOL     OW 1909   1.615   2.276   0.037 -0.4394  0.5901 -0.1429
  637SOL    HW1 1910   1.585   2.370   0.014 -0.5393 -0.8242  0.1883
  637SOL    HW2 1911   1.689   2.240   3.079 -0.3455  0.5172  1.8910
  638SOL     OW 1912   1.056   2.796   2.908  0.1133 -0.2458  0.9038
  638SOL    HW1 1913   1.033   2.698   2.920  0.5866 -0.2468 -0.5646
  638SOL    HW2 1914   0.990   2.850   2.962  1.0144 -0.2438 -1.5703
  639SOL     OW 1915   1.262   1.932   1.502  0.2745 -0.4258  0.1589
  639SOL    HW1 1916   1.279   1.837   1.466  0.6513 -2.3692  0.8385
  639SOL    HW2 1917   1.196   1.986   1.443  0.1041  0.5362 -3.4698
  640SOL     OW 1918   0.661   0.012   3.054  0.3309 -0.0202  0.4996
  640SOL    HW1 1919   0.595   3.049   3.008 -0.7459 -1.5519 -1.4966
  640SOL    HW2 1920   0.639   0.027   0.049  0.1740 -1.5828 -0.1123
  641SOL     OW 1921   0.190   0.391   0.294  0.6277 -0.5015  0.0789
  641SOL    HW1 1922   0.121   0.346   0.352  1.6255 -0.1259 -0.0994
  641SOL    HW2 1923   0.186   0.489   0.299 -4.3581 -1.4615  0.1936
  642SOL     OW 1924   0.397   1.533   1.048 -0.0499 -0.5168  0.0925
  642SOL    HW1 1925   0.473   1.551   1.115 -0.2954  1.4980 -2.2709
  642SOL    HW2 1926   0.331   1.459   1.080 -0.2707  0.1710  1.1447
  643SOL     OW 1927   0.374   2.013   2.706 -0.1634  0.2240 -0.4331
  643SOL    HW1 1928   0.404   2.015   2.609  0.4111 -2.8077  0.5544
  643SOL    HW2 1929   0.292   1.959   2.715  3.7311 -0.1198  0.8864
  644SOL     OW 1930   1.759   2.558   0.256  0.0474 -0.2567 -0.0023
  644SOL    HW1 1931   1.805   2.467   0.242  0.1784  1.0255  0.6268
  644SOL    HW2 1932   1.726   2.551   0.354  0.1953  3.3104  0.3877
  645SOL     OW 1933   2.021   2.140   1.580 -0.0813  0.2603 -0.3814
  645SOL    HW1 1934   2.032   2.225   1.635 -1.8940 -1.3346 -2.8449
  645SOL    HW2 1935   1.980   2.064   1.640  2.7582 -1.4496  1.7075
  646SOL     OW 1936   0.800   2.620   0.371  0.3188 -0.0478  0.1448
  646SOL    HW1 1937   0.845   2.702   0.323 -0.5726 -0.4748 -0.0782
  646SOL    HW2 1938   0.697   2.630   0.364 -0.6063  0.2305 -0.1520
  647SOL     OW 1939   0.068   3.023   1.997  0.2564 -0.4568  0.0863
  647SOL    HW1 1940   0.010   0.003   1.969 -0.0576 -0.8564 -0.5448
  647SOL    HW2 1941   0.082   3.013   2.095  1.1837  1.9838  0.6484
  648SOL     OW 1942   2.765   1.089   0.772 -0.0591  0.4623  0.1401
  648SOL    HW1 1943   2.814   0.995   0.754  0.9741 -0.6479 -0.6645
  648SOL    HW2 1944   2.668   1.089   0.743 -2.8747 -0.4262 -2.1563
  649SOL     OW 1945   2.002   2.856   2.625  0.3785 -0.0326 -0.3226
  649SOL    HW1 1946   2.014   2.881   2.531 -0.3027 -1.5629  1.5909
  649SOL    HW2 1947   1.968   2.934   2.679  2.7091 -1.5364 -0.6285
  650SOL     OW 1948   2.346   1.524   1.763 -0.0903 -0.5812 -0.5563
  650SOL    HW1 1949   2.290   1.447   1.796  0.5866  0.8954  2.1840
  650SOL    HW2 1950   2.438   1.488   1.737 -2.2714  1.1198  0.7807
  651SOL     OW 1951   1.258   1.727   2.936 -0.3893 -0.1986  0.4078
  651SOL    HW1 1952   1.184   1.792   2.960 -0.1439  0.1358  0.1894
  651SOL    HW2 1953   1.341   1.775   2.902 -0.4525  0.1327  0.8913
  652SOL     OW 1954   0.496   2.981   2.768 -0.4228 -0.5776  0.3886
  652SOL    HW1 1955   0.596   2.987   2.788 -1.3084 -0.9533 -1.9863
  652SOL    HW2 1956   0.459   3.075   2.740  1.4481  0.0008  1.4462
  653SOL     OW 1957   2.452   1.961   0.902  0.2817 -0.1742  0.8134
  653SOL    HW1 1958   2.501   2.032   0.953  2.1722  0.3342 -2.0772
  653SOL    HW2 1959   2.405   1.894   0.969 -1.0254 -3.2744  3.4694
  654SOL     OW 1960   2.443   3.032   1.984 -0.0388  0.3645  0.6977
  654SOL    HW1 1961   2.425   0.023   2.020  1.5117 -0.7600  0.5491
  654SOL    HW2 1962   2.543   3.001   1.992 -1.4624  1.0810 -0.1896
  655SOL     OW 1963   2.773   2.143   1.267  0.1976  0.0414 -0.2183
  655SOL    HW1 1964   2.790   2.244   1.247  1.4194  0.1439  0.0870
  655SOL    HW2 1965   2.679   2.112   1.242 -2.1443 -0.7476 -0.0871
  656SOL     OW 1966   2.436   1.907   2.914  0.1394 -0.0165 -0.2764
  656SOL    HW1 1967   2.515   1.969   2.937  0.7853  0.2868  2.0168
  656SOL    HW2 1968   2.473   1.808   2.911  2.3533 -0.9927  0.5765
  657SOL     OW 1969   0.040   1.106   0.469 -0.0330  0.0934 -0.0709
  657SOL    HW1 1970   3.067   1.098   0.398 -0.7780  1.2668 -2.5643
  657SOL    HW2 1971   0.005   1.157   0.553  0.9744 -0.4515  1.2792
  658SOL     OW 1972   1.436   1.601   1.651  0.1433  0.0129 -0.4431
  658SOL    HW1 1973   1.390   1.620   1.562 -1.8143 -0.4294 -1.7269
  658SOL    HW2 1974   1.365   1.594   1.727 -2.5956  1.1223  1.9370
  659SOL     OW 1975   0.838   0.054   1.009 -0.3587 -0.0970 -0.3171
  659SOL    HW1 1976   0.930   0.102   1.004 -1.6381  2.3784 -0.8450
  659SOL    HW2 1977   0.808   0.048   1.106 -0.9288 -2.7569  0.2577
  660SOL     OW 1978   2.369   0.749   1.122  0.2235 -0.3275  0.0817
  660SOL    HW1 1979   2.375   0.802   1.037 -0.6319 -2.2831  1.7375
  660SOL    HW2 1980   2.296   0.676   1.110 -0.1111 -3.4648  0.2683
  661SOL     OW 1981   0.574   1.719   0.093 -0.0808  0.8208  0.0163
  661SOL    HW1 1982   0.609   1.659   0.171 -0.6075  1.3875  3.7467
  661SOL    HW2 1983   0.645   1.785   0.059 -1.7078  0.4339 -2.5617
  662SOL     OW 1984   2.349   0.907   2.108  0.5182  0.8553  0.2025
  662SOL    HW1 1985   2.370   0.820   2.160 -0.4391 -1.8466  1.9182
  662SOL    HW2 1986   2.368   0.888   2.010  1.3062  1.7950  1.5917
  663SOL     OW 1987   1.961   1.354   1.112  0.3973  0.2788  0.1289
  663SOL    HW1 1988   1.877   1.295   1.118 -0.2805 -1.7906 -2.0096
  663SOL    HW2 1989   2.027   1.303   1.053  0.3252  1.1159  0.1952
  664SOL     OW 1990   0.245   0.067   1.210  0.4169 -0.6067 -0.1724
  664SOL    HW1 1991   0.314   0.050   1.126  2.3189 -3.1128 -2.9587
  664SOL    HW2 1992   0.173   3.096   1.203 -1.3435 -0.3563  0.1811
  665SOL     OW 1993   1.491   0.408   2.922  0.1741 -0.0191 -0.6499
  665SOL    HW1 1994   1.574   0.424   2.981 -0.0924 -0.4729  2.4372
  665SOL    HW2 1995   1.459   0.495   2.888  1.3006 -2.7602 -0.5339
  666SOL     OW 1996   0.472   0.278   2.165  0.3159  0.4058  0.1153
  666SOL    HW1 1997   0.441   0.308   2.254  0.2328 -0.1045 -3.8569
  666SOL    HW2 1998   0.432   0.333   2.087 -0.8867 -1.3651 -0.5763
  667SOL     OW 1999   1.871   1.552   1.789 -0.3344 -0.3552 -0.6990
  667SOL    HW1 2000   1.964   1.599   1.778  2.0781 -0.4304  2.0374
  667SOL    HW2 2001   1.850   1.540   1.888 -1.8881  0.2809  3.0999
  668SOL     OW 2002   0.071   1.482   2.227 -0.1269 -0.3763 -0.4451
  668SOL    HW1 2003   0.099   1.404   2.283 -0.9522  1.3455 -1.7004
  668SOL    HW2 2004   0.066   1.457   2.130  1.8977  1.6809  2.7264
  669SOL     OW 2005   2.357   2.749   0.064  0.7687  0.6754  0.3730
  669SOL    HW1 2006   2.433   2.775   3.099  4.0853  1.1018 -4.4815
  669SOL    HW2 2007   2.357   2.814   0.143 -0.0693 -1.2686  1.2050
  670SOL     OW 2008   2.677   1.369   1.923  0.0762 -0.4743  0.1494
  670SOL    HW1 2009   2.644   1.274   1.908 -0.1178 -0.8003  0.4407
  670SOL    HW2 2010   2.769   1.370   1.971  1.2055  1.1377 -0.8137
  671SOL     OW 2011   2.675   1.863   0.552 -0.0917  0.5894  0.0648
  671SOL    HW1 2012   2.747   1.797   0.510  3.7638 -0.4540 -1.6082
  671SOL    HW2 2013   2.704   1.954   0.538 -1.8243 -3.9644 -1.2918
  672SOL     OW 2014   1.357   1.150   2.184  0.4952  0.1813  0.0104
  672SOL    HW1 2015   1.411   1.146   2.100 -1.2144  1.6391 -0.1260
  672SOL    HW2 2016   1.271   1.195   2.158 -1.4792 -2.8098 -0.7736
  673SOL     OW 2017   2.939   2.004   1.593 -0.0487  0.4289  0.7401
  673SOL    HW1 2018   2.845   2.025   1.561  1.0267 -0.4151 -1.4541
  673SOL    HW2 2019   3.001   1.949   1.531 -0.8563 -1.0361 -1.0314
  674SOL     OW 2020   1.172   1.571   1.763 -0.0237  0.2253 -0.1305
  674SOL    HW1 2021   1.186   1.578   1.662 -1.2421 -0.5079  1.6867
  674SOL    HW2 2022   1.114   1.643   1.796  1.0313 -0.5782 -0.3700
  675SOL     OW 2023   0.191   0.777   1.162 -0.0645  0.5722 -0.0581
  675SOL    HW1 2024   0.247   0.724   1.095  0.8242 -0.3395 -1.4014
  675SOL    HW2 2025   0.206   0.877   1.143  0.0502 -2.4260 -0.5802
  676SOL     OW 2026   3.008   0.974   1.192  0.0868 -0.1382  0.1386
  676SOL    HW1 2027   2.921   0.979   1.138  0.2556 -0.6079  0.1237
  676SOL    HW2 2028   2.999   0.893   1.257 -1.4848  2.0258 -1.0667
  677SOL     OW 2029   1.983   1.462   2.506  0.0443 -0.0309  0.0455
  677SOL    HW1 2030   2.018   1.381   2.455  0.1262  1.3709 -1.8110
  677SOL    HW2 2031   2.020   1.541   2.456  0.2779 -3.1528 -0.1160
  678SOL     OW 2032   3.071   1.565   1.007 -0.4305  0.4011  0.2328
  678SOL    HW1 2033   2.998   1.563   0.936 -0.8302 -0.8492  1.5722
  678SOL    HW2 2034   3.082   1.666   1.034  0.8938  1.2446  0.0974
  679SOL     OW 2035   0.342   2.687   0.515 -0.0722  0.8669 -0.1124
  679SOL    HW1 2036   0.388   2.669   0.603  0.2260  1.8415 -6.4846
  679SOL    HW2 2037   0.279   2.612   0.483 -0.6321 -0.9449  0.1182
  680SOL     OW 2038   0.211   1.712   0.879  0.3394 -0.0660 -0.0184
  680SOL    HW1 2039   0.152   1.779   0.928  1.3933 -1.1894 -1.9985
  680SOL    HW2 2040   0.239   1.628   0.931 -1.6997  0.2643 -1.9121
  681SOL     OW 2041   1.115   0.177   0.978  0.2551 -0.1987 -0.1061
  681SOL    HW1 2042   1.114   0.250   1.048  2.7856  1.7090  1.3527
  681SOL    HW2 2043   1.156   0.095   1.024  0.1650 -0.0946 -0.0980
  682SOL     OW 2044   1.624   2.916   1.643  0.3853 -0.1366  0.4790
  682SOL    HW1 2045   1.660   2.847   1.705  0.9338  1.6795 -2.8562
  682SOL    HW2 2046   1.700   2.946   1.582  0.8839 -1.1766  1.2584
  683SOL     OW 2047   2.369   1.286   1.261  0.1699 -0.5095  0.1239
  683SOL    HW1 2048   2.331   1.380   1.265  0.8209  1.2705 -2.9614
  683SOL    HW2 2049   2.451   1.287   1.196 -0.8836 -1.5004 -1.4563
  684SOL     OW 2050   3.052   1.491   1.640 -0.4753  0.1185  0.0423
  684SOL    HW1 2051   2.956   1.520   1.618  0.0422  3.4501 -1.4816
  684SOL    HW2 2052   0.011   1.570   1.629 -0.7822 -0.8088 -0.9107
  685SOL     OW 2053   1.650   1.749   0.158 -0.1120 -0.4230  0.1185
  685SOL    HW1 2054   1.634   1.840   0.211  2.1814  2.5149  0.6970
  685SOL    HW2 2055   1.657   1.773   0.054  0.7602 -0.0424 -0.8830
  686SOL     OW 2056   2.964   0.740   1.331 -0.9903  0.2173 -0.2186
  686SOL    HW1 2057   3.039   0.746   1.402 -2.7608  0.9362 -2.1892
  686SOL    HW2 2058   2.916   0.652   1.320 -3.8056 -0.6997  0.8073
  687SOL     OW 2059   1.643   0.006   2.835 -0.5040 -0.1058  0.0140
  687SOL    HW1 2060   1.624   0.014   2.935 -1.9370 -0.0373 -0.0847
  687SOL    HW2 2061   1.607   0.089   2.789  2.8293 -0.6745  1.7730
  688SOL     OW 2062   1.199   2.082   2.549 -0.1479 -0.2881  0.0803
  688SOL    HW1 2063   1.294   2.114   2.581  1.1150 -3.8228 -0.7123
  688SOL    HW2 2064   1.199   2.050   2.451  2.2673  3.4980 -0.1490
  689SOL     OW 2065   2.211   1.287   1.837 -0.1137  0.2970  0.4949
  689SOL    HW1 2066   2.287   1.256   1.902  1.6280  3.2350  0.4699
  689SOL    HW2 2067   2.204   1.226   1.760  2.1841  1.1784  1.3576
  690SOL     OW 2068   2.393   2.227   1.400  0.1792 -0.1622  0.2683
  690SOL    HW1 2069   2.489   2.194   1.386  2.0942 -1.3291  0.8431
  690SOL    HW2 2070   2.321   2.154   1.386  0.0851 -3.0794 -1.3842
  691SOL     OW 2071   0.466   1.769   0.428  0.6749 -0.7207  0.5547
  691SOL    HW1 2072   0.441   1.801   0.524 -0.0615 -0.0644 -0.9681
  691SOL    HW2 2073   0.404   1.803   0.352 -0.9042 -0.6021  0.4010
  692SOL     OW 2074   2.850   2.961   2.675 -0.2461  0.0401 -0.1131
  692SOL    HW1 2075   2.757   2.935   2.642  0.4528  0.9324 -0.2961
  692SOL    HW2 2076   2.915   2.881   2.670  2.2770  1.7230 -1.2885
  693SOL     OW 2077   0.035   1.432   1.946  0.3314  0.4180  0.2930
  693SOL    HW1 2078   0.018   1.525   1.915 -0.3866 -0.6016  2.4387
  693SOL    HW2 2079   0.109   1.377   1.893  3.5016 -0.9294  0.7134
  694SOL     OW 2080   2.403   0.188   2.098  0.0348  0.4265 -0.3327
  694SOL    HW1 2081   2.447   0.218   2.013 -0.4268 -1.6522  1.3357
  694SOL    HW2 2082   2.302   0.201   2.098  2.2821 -1.1489  1.6631
  695SOL     OW 2083   1.041   0.900   2.335  0.0215 -0.5917  0.0489
  695SOL    HW1 2084   1.097   0.895   2.417  2.1056 -0.8227 -2.4575
  695SOL    HW2 2085   0.958   0.955   2.356 -1.2127 -1.0822  1.9853
  696SOL     OW 2086   1.986   2.792   1.552 -0.3727  0.2700 -0.1063
  696SOL    HW1 2087   1.940   2.705   1.573  1.2810 -2.2436 -2.3986
  696SOL    HW2 2088   1.923   2.866   1.530  1.5901 -1.7655  0.2640
  697SOL     OW 2089   1.210   0.101   2.263 -0.0925  0.1708 -0.3160
  697SOL    HW1 2090   1.184   0.004   2.238 -1.2638 -0.6461  2.2091
  697SOL    HW2 2091   1.133   0.160   2.233  2.7274 -1.8255 -2.1701
  698SOL     OW 2092   2.402   1.767   2.455  0.3201 -0.0758  0.3100
  698SOL    HW1 2093   2.384   1.802   2.359 -0.7162 -0.7505 -1.7036
  698SOL    HW2 2094   2.503   1.765   2.470  1.1814  3.7581  0.4337
  699SOL     OW 2095   1.881   0.775   0.157  1.1212  0.1308  0.0397
  699SOL    HW1 2096   1.955   0.833   0.198  4.0090  2.3439 -0.8770
  699SOL    HW2 2097   1.825   0.723   0.223  2.7375 -0.6273  1.8435
  700SOL     OW 2098   1.184   3.027   1.098 -0.1248  0.0378 -0.5372
  700SOL    HW1 2099   1.256   3.010   1.172 -1.5518 -1.0939 -0.0847
  700SOL    HW2 2100   1.105   2.961   1.111  0.7789  0.3506 -0.9844
  701SOL     OW 2101   0.014   0.653   0.355 -0.1384 -0.1427 -0.2624
  701SOL    HW1 2102   0.116   0.657   0.334  1.3149 -1.2352 -0.0943
  701SOL    HW2 2103   3.101   0.721   0.431  2.4765 -0.6019  2.4899
  702SOL     OW 2104   1.466   0.047   1.517  0.4122 -0.4196 -0.6096
  702SOL    HW1 2105   1.374   0.063   1.556  2.1497  0.5617 -1.2039
  702SOL    HW2 2106   1.515   3.080   1.571 -1.4318  0.7174 -1.6808
  703SOL     OW 2107   2.879   0.698   1.043 -0.0320 -0.1973 -0.2103
  703SOL    HW1 2108   2.785   0.719   1.078  0.8101  1.6896  0.2596
  703SOL    HW2 2109   2.951   0.714   1.119  0.9923  2.8422  2.4335
  704SOL     OW 2110   0.834   2.635   1.369 -0.1800 -0.8256  0.2851
  704SOL    HW1 2111   0.869   2.541   1.381 -0.3077 -0.4472  0.7252
  704SOL    HW2 2112   0.742   2.638   1.320 -3.3615  0.6299 -0.7886
  705SOL     OW 2113   0.343   1.762   3.059 -0.4792 -0.5551  0.3899
  705SOL    HW1 2114   0.337   1.729   2.962  2.3831 -0.5044 -1.1776
  705SOL    HW2 2115   0.435   1.751   0.003 -3.2140 -1.2246  2.3667
  706SOL     OW 2116   0.032   0.008   0.141  0.4753  0.3711 -0.1348
  706SOL    HW1 2117   3.081   0.098   0.131 -3.0659 -1.2370 -1.4848
  706SOL    HW2 2118   3.096   3.063   0.225 -1.7303 -1.4306 -2.0927
  707SOL     OW 2119   1.604   2.984   2.232 -0.3228 -0.7440 -0.3922
  707SOL    HW1 2120   1.544   3.069   2.208 -2.1001  2.4985 -0.8471
  707SOL    HW2 2121   1.645   2.941   2.146 -1.0255  0.3706  0.9588
  708SOL     OW 2122   0.244   3.037   1.578  0.3665 -0.2258  0.5198
  708SOL    HW1 2123   0.312   3.102   1.539 -3.0795  0.9920  0.2451
  708SOL    HW2 2124   0.259   2.940   1.545 -0.5797  1.1027  0.6639
  709SOL     OW 2125   0.084   0.782   1.478  0.2156  0.5261  0.3481
  709SOL    HW1 2126   0.122   0.686   1.461  1.9034 -1.6942 -2.8495
  709SOL    HW2 2127   0.156   0.831   1.526  0.1394  0.5186 -1.9271
  710SOL     OW 2128   0.572   0.825   0.813  0.1847  0.6066 -0.1755
  710SOL    HW1 2129   0.533   0.918   0.817 -0.7302 -0.3450 -0.5165
  710SOL    HW2 2130   0.541   0.764   0.893 -0.2337  0.3263 -0.3641
  711SOL     OW 2131   2.520   2.905   1.596 -0.6793 -0.1096  0.0052
  711SOL    HW1 2132   2.418   2.891   1.584 -0.6306 -0.7605  0.2775
  711SOL    HW2 2133   2.543   2.993   1.639 -2.4776  1.3148 -1.8169
  712SOL     OW 2134   0.180   2.352   2.330 -0.2533  0.0947  0.1121
  712SOL    HW1 2135   0.086   2.347   2.286  2.3305 -1.9168  1.2781
  712SOL    HW2 2136   0.175   2.352   2.430  2.1612 -0.0671  0.5539
  713SOL     OW 2137   2.499   0.413   0.581  0.2567 -0.4690 -0.0928
  713SOL    HW1 2138   2.425   0.361   0.538 -0.9740  1.9937  1.0025
  713SOL    HW2 2139   2.589   0.368   0.568  0.8234  2.2740 -0.6434
  714SOL     OW 2140   1.760   1.953   2.555  0.7479 -0.5922 -0.2207
  714SOL    HW1 2141   1.734   1.868   2.507  1.0521 -2.7929 -0.3299
  714SOL    HW2 2142   1.804   2.025   2.500 -1.3936 -2.7360  2.3413
  715SOL     OW 2143   0.226   0.572   0.860  0.4015 -0.1025 -0.0633
  715SOL    HW1 2144   0.157   0.546   0.930 -1.6856 -1.3547 -1.4774
  715SOL    HW2 2145   0.224   0.498   0.795  1.8322  0.3346  2.7904
  716SOL     OW 2146   0.852   0.504   1.625  0.0874  0.0115 -0.0030
  716SOL    HW1 2147   0.846   0.543   1.530 -1.1896  2.4590  2.4368
  716SOL    HW2 2148   0.818   0.406   1.632 -2.3707 -3.0316  1.1949
  717SOL     OW 2149   0.795   0.513   2.304 -0.2857  0.1408  0.2845
  717SOL    HW1 2150   0.781   0.419   2.273 -0.0854  1.2939  3.8791
  717SOL    HW2 2151   0.729   0.544   2.378  1.3742  0.9399  0.6347
  718SOL     OW 2152   1.194   0.240   0.522 -0.3310 -0.1510  0.1848
  718SOL    HW1 2153   1.203   0.335   0.561  1.8210 -0.2064  1.4555
  718SOL    HW2 2154   1.158   0.250   0.425 -1.2484  0.9626  1.8237
  719SOL     OW 2155   2.938   2.251   2.897  0.1270  0.2933  0.1719
  719SOL    HW1 2156   2.899   2.188   2.828 -2.9787 -1.8554  0.0992
  719SOL    HW2 2157   2.886   2.341   2.904 -0.9356  0.5008  1.5080
  720SOL     OW 2158   1.082   0.518   1.761 -0.1712  0.3302  0.4975
  720SOL    HW1 2159   1.124   0.607   1.787  0.5113 -0.7794  0.8801
  720SOL    HW2 2160   0.988   0.528   1.718  1.8808  0.3305  0.8646
  721SOL     OW 2161   2.967   2.859   0.823 -0.1965  0.0853 -0.5820
  721SOL    HW1 2162   2.952   2.782   0.890  2.7987 -1.7847 -0.3615
  721SOL    HW2 2163   2.907   2.835   0.738 -1.1030 -1.1707 -1.3560
  722SOL     OW 2164   0.901   1.214   2.950  0.2088 -0.5993  0.1651
  722SOL    HW1 2165   0.878   1.314   2.957 -0.9751 -0.1299 -1.7403
  722SOL    HW2 2166   0.828   1.150   2.914 -1.1498 -1.3063 -1.5154
  723SOL     OW 2167   2.491   0.643   1.459  0.1293 -0.0443 -0.4379
  723SOL    HW1 2168   2.561   0.583   1.413  1.3620 -1.1046 -0.6693
  723SOL    HW2 2169   2.425   0.681   1.389  1.4437 -0.1489 -2.5276
  724SOL     OW 2170   1.134   2.034   0.311 -0.5145  0.2696  0.0755
  724SOL    HW1 2171   1.163   1.997   0.222  0.1928  0.4594  1.2003
  724SOL    HW2 2172   1.160   1.985   0.395  0.1068  0.0645 -0.5008
  725SOL     OW 2173   0.425   0.767   1.396 -0.2988  0.4051  0.2909
  725SOL    HW1 2174   0.483   0.823   1.336  2.1842 -0.6461  2.1354
  725SOL    HW2 2175   0.344   0.731   1.356  2.8362  1.3241  1.4993
  726SOL     OW 2176   2.513   1.282   2.776  0.6138 -0.1898 -0.1830
  726SOL    HW1 2177   2.491   1.248   2.868  1.6017 -0.3230 -3.5574
  726SOL    HW2 2178   2.429   1.297   2.726  0.1525 -2.3088  4.1886
  727SOL     OW 2179   1.889   1.210   2.812  0.4683 -0.0765  0.0586
  727SOL    HW1 2180   1.881   1.300   2.867 -0.9327  2.4116  1.2724
  727SOL    HW2 2181   1.808   1.202   2.745 -0.3046 -1.5131 -1.2887
  728SOL     OW 2182   1.742   2.493   1.401 -0.0050 -0.3008  0.3302
  728SOL    HW1 2183   1.781   2.540   1.318 -0.9163 -0.0375  0.1664
  728SOL    HW2 2184   1.727   2.394   1.386  1.8414  2.1679  1.4784
  729SOL     OW 2185   1.821   0.789   2.311  0.7424  0.0717  0.9440
  729SOL    HW1 2186   1.915   0.824   2.282  4.7802 -0.7518 -0.1669
  729SOL    HW2 2187   1.760   0.871   2.334 -2.8336  2.2664 -0.3375
  730SOL     OW 2188   1.255   0.545   1.036  0.1526  0.0989 -0.5392
  730SOL    HW1 2189   1.325   0.608   1.086 -2.0403  0.2300 -0.7017
  730SOL    HW2 2190   1.211   0.478   1.099  0.8714 -0.2948 -2.0765
  731SOL     OW 2191   0.645   0.625   2.763 -0.1662  0.0109 -0.0619
  731SOL    HW1 2192   0.698   0.688   2.823  0.2732  0.0744 -1.2766
  731SOL    HW2 2193   0.601   0.547   2.808 -0.7763  4.2029 -2.4911
  732SOL     OW 2194   0.602   0.920   0.517 -0.1889  0.0542  0.3365
  732SOL    HW1 2195   0.639   0.949   0.608  0.3218  0.5950  1.0123
  732SOL    HW2 2196   0.584   0.823   0.527  1.1949  1.4131  0.1363
  733SOL     OW 2197   1.365   1.664   2.158  0.6940 -0.0295  0.1122
  733SOL    HW1 2198   1.280   1.636   2.208  2.1244  2.5683  0.5760
  733SOL    HW2 2199   1.455   1.635   2.201  1.0632 -0.7960 -2.2056
  734SOL     OW 2200   0.099   2.364   2.971  0.1388  0.7195 -0.0730
  734SOL    HW1 2201   0.094   2.465   2.973 -1.3508 -0.8830  1.9762
  734SOL    HW2 2202   0.009   2.329   2.935 -1.6331 -1.1637 -1.0367
  735SOL     OW 2203   2.446   0.583   0.775 -0.2402  0.4430 -0.3719
  735SOL    HW1 2204   2.365   0.640   0.751  0.3412  2.2995  1.9510
  735SOL    HW2 2205   2.460   0.517   0.697 -0.4153 -0.5485 -1.5501
  736SOL     OW 2206   2.124   1.668   2.415 -0.1822 -0.6238  0.1223
  736SOL    HW1 2207   2.219   1.660   2.445  0.6016  0.7157 -0.2330
  736SOL    HW2 2208   2.099   1.765   2.408 -1.0441 -0.4478 -1.2491
  737SOL     OW 2209   2.918   0.439   0.375  0.0403  0.1496  0.0520
  737SOL    HW1 2210   2.864   0.450   0.291 -0.3147 -2.0201  0.9636
  737SOL    HW2 2211   2.986   0.514   0.385  0.2095 -0.6054  1.7270
  738SOL     OW 2212   0.763   2.176   1.493 -0.2463 -0.0908  0.2149
  738SOL    HW1 2213   0.698   2.191   1.572  0.4670 -1.6058 -2.4229
  738SOL    HW2 2214   0.832   2.109   1.525  1.8062 -1.2577 -1.6477
  739SOL     OW 2215   1.415   2.674   2.143 -0.0423  0.0677  0.2470
  739SOL    HW1 2216   1.404   2.605   2.066 -2.4967 -1.8150  0.2597
  739SOL    HW2 2217   1.380   2.767   2.113  0.5055  0.6553  0.6406
  740SOL     OW 2218   2.118   2.637   1.167 -0.2494  0.2058 -0.3886
  740SOL    HW1 2219   2.155   2.638   1.264 -0.4881  0.4256  3.7719
  740SOL    HW2 2220   2.168   2.700   1.109 -0.0396  0.1675 -2.2892
  741SOL     OW 2221   2.128   0.263   0.175  0.2813 -0.4071  0.1298
  741SOL    HW1 2222   2.195   0.333   0.209  0.7596 -0.0512 -1.6674
  741SOL    HW2 2223   2.071   0.244   0.256  1.4924 -1.3156 -1.8144
  742SOL     OW 2224   1.417   2.504   0.348 -0.8469  0.4853  0.1105
  742SOL    HW1 2225   1.376   2.594   0.335  0.2158 -2.6376  2.7428
  742SOL    HW2 2226   1.394   2.436   0.279 -0.2853 -0.7491 -0.9069
  743SOL     OW 2227   2.408   1.153   2.013 -0.1072 -0.2080  0.2076
  743SOL    HW1 2228   2.485   1.133   1.954  0.1385  0.2923  0.3463
  743SOL    HW2 2229   2.377   1.069   2.056  3.1711  0.5451  0.4632
  744SOL     OW 2230   2.748   0.264   0.491 -0.4091 -0.4008  0.9010
  744SOL    HW1 2231   2.750   0.185   0.426 -0.2285  3.0893  0.5480
  744SOL    HW2 2232   2.815   0.335   0.464 -2.3512 -0.2068  0.1586
  745SOL     OW 2233   2.331   1.087   1.435  0.2674 -0.3398 -0.2287
  745SOL    HW1 2234   2.259   1.117   1.502  1.6563 -0.0263 -1.3346
  745SOL    HW2 2235   2.337   1.157   1.358 -2.6437  1.3521 -3.0873
  746SOL     OW 2236   1.020   1.416   0.872 -0.1093 -0.4820  0.0893
  746SOL    HW1 2237   1.092   1.442   0.941  0.6116  0.6366 -2.4142
  746SOL    HW2 2238   1.044   1.456   0.780  1.7938  0.8339  0.9662
  747SOL     OW 2239   1.108   1.538   1.299 -0.4065  0.0442 -0.7868
  747SOL    HW1 2240   1.030   1.586   1.262  0.9970 -2.3117  2.4148
  747SOL    HW2 2241   1.073   1.478   1.373  0.1860 -1.6138 -0.1338
  748SOL     OW 2242   0.497   2.897   3.056  0.4324 -0.3258  0.0526
  748SOL    HW1 2243   0.458   2.889   2.961  0.6663 -0.7496 -1.6439
  748SOL    HW2 2244   0.543   2.809   3.078 -3.1377  2.3872  0.5642
  749SOL     OW 2245   0.055   0.929   2.912 -0.0037  0.3704 -0.4579
  749SOL    HW1 2246   3.096   1.008   2.932 -0.8925 -3.0387  0.8621
  749SOL    HW2 2247   0.042   0.884   2.823  2.6993 -0.2460  1.0647
  750SOL     OW 2248   1.650   0.917   1.860 -0.0823 -0.2447  0.1540
  750SOL    HW1 2249   1.568   0.865   1.828  2.4838  0.5275  0.3809
  750SOL    HW2 2250   1.685   0.878   1.947 -1.2115 -0.4398  1.4791
  751SOL     OW 2251   2.644   0.676   0.429 -0.7278 -0.2971 -0.2617
  751SOL    HW1 2252   2.656   0.621   0.337 -3.2551 -0.6923 -2.1652
  751SOL    HW2 2253   2.546   0.684   0.453  2.1306 -1.6468  0.1441
  752SOL     OW 2254   2.479   2.958   1.187  0.1023  0.2396 -0.3512
  752SOL    HW1 2255   2.560   2.996   1.240  0.9172 -0.8954  0.2223
  752SOL    HW2 2256   2.399   3.022   1.197 -0.8851 -0.7813  1.1903
  753SOL     OW 2257   0.909   2.383   1.417  0.4712  0.5968  0.1677
  753SOL    HW1 2258   0.989   2.392   1.477  0.8942  3.7186 -0.8152
  753SOL    HW2 2259   0.848   2.305   1.444  0.0821  0.3626 -0.2688
  754SOL     OW 2260   2.947   2.635   2.129 -0.0870  0.1633 -0.0001
  754SOL    HW1 2261   2.920   2.696   2.202 -0.7404  0.7980  1.3704
  754SOL    HW2 2262   3.004   2.688   2.063  0.1815 -1.8981 -0.4447
  755SOL     OW 2263   2.387   0.675   0.163 -0.2749  0.6002 -0.0928
  755SOL    HW1 2264   2.471   0.702   0.114 -2.1446  0.8913 -0.1994
  755SOL    HW2 2265   2.388   0.690   0.265  1.0221  1.8356 -0.1939
  756SOL     OW 2266   2.090   2.458   3.092  0.2791 -0.5013 -0.4311
  756SOL    HW1 2267   2.096   2.551   3.049  2.3209 -2.1445  1.0213
  756SOL    HW2 2268   2.153   2.463   0.071  1.5956 -1.9260  2.3919
  757SOL     OW 2269   2.315   0.226   0.441  0.3966 -0.0217 -0.6123
  757SOL    HW1 2270   2.380   0.182   0.374 -1.2883 -0.0332  1.6671
  757SOL    HW2 2271   2.266   0.162   0.502  1.9772  0.0622 -4.4604
  758SOL     OW 2272   2.068   0.909   1.714  0.2387 -1.0352  0.0238
  758SOL    HW1 2273   1.974   0.871   1.688 -1.1758  0.3158 -1.8225
  758SOL    HW2 2274   2.130   0.837   1.747  1.6409  0.0958  1.6230
  759SOL     OW 2275   2.581   0.515   1.195  0.1164 -0.0521 -0.1519
  759SOL    HW1 2276   2.587   0.614   1.182 -0.7444  1.2978 -1.2203
  759SOL    HW2 2277   2.605   0.470   1.107  1.2215  0.1578  0.6802
  760SOL     OW 2278   0.317   1.299   1.220 -0.2192 -0.1933  0.3590
  760SOL    HW1 2279   0.250   1.292   1.301  0.0046 -1.3771  0.1017
  760SOL    HW2 2280   0.263   1.310   1.134 -0.2240 -1.6718  2.2652
  761SOL     OW 2281   1.096   0.514   0.053 -0.2297 -0.0327 -0.2447
  761SOL    HW1 2282   1.068   0.576   3.079  1.1351 -0.6760 -0.0595
  761SOL    HW2 2283   1.186   0.551   0.091  0.8950  0.4164 -0.5996
  762SOL     OW 2284   0.918   2.049   1.152 -0.0316 -0.4340 -0.7385
  762SOL    HW1 2285   0.824   2.086   1.151  0.0496 -1.2151 -0.5809
  762SOL    HW2 2286   0.923   1.958   1.108  0.4485  0.5878 -2.7701
  763SOL     OW 2287   1.216   0.716   1.393  0.0805 -0.6323  0.2750
  763SOL    HW1 2288   1.239   0.811   1.419  0.7709  3.2402  1.8523
  763SOL    HW2 2289   1.144   0.676   1.449 -1.2198 -1.7100 -0.8874
  764SOL     OW 2290   0.370   2.482   3.027  0.3314 -0.1885  0.2323
  764SOL    HW1 2291   0.404   2.388   3.023  0.4490 -0.3048 -1.1242
  764SOL    HW2 2292   0.271   2.488   3.035  0.0142  1.7201 -1.9217
  765SOL     OW 2293   0.568   2.784   1.666 -0.0253  0.7558 -0.1604
  765SOL    HW1 2294   0.552   2.826   1.761  1.4948  0.7404  3.8629
  765SOL    HW2 2295   0.579   2.850   1.588 -1.9810 -0.6398 -1.2483
  766SOL     OW 2296   2.505   1.679   2.111 -0.1359 -0.0857 -0.3388
  766SOL    HW1 2297   2.460   1.765   2.142 -1.9607  1.5819 -2.4445
  766SOL    HW2 2298   2.604   1.686   2.118 -0.6185  0.6322  0.2796
  767SOL     OW 2299   1.514   1.236   2.389 -0.0090 -0.4826  0.0734
  767SOL    HW1 2300   1.464   1.312   2.437  0.8664  1.8339  0.2758
  767SOL    HW2 2301   1.446   1.178   2.337 -0.3904  1.7566 -1.4082
  768SOL     OW 2302   1.714   1.972   0.344 -0.0271  0.3948  0.3636
  768SOL    HW1 2303   1.753   1.944   0.431  1.0327 -1.0316 -2.0992
  768SOL    HW2 2304   1.784   2.012   0.284 -2.3649  0.8466  0.9807
  769SOL     OW 2305   0.513   1.436   0.835 -0.2706 -0.0198  0.1322
  769SOL    HW1 2306   0.451   1.469   0.905  0.7850  0.5726  0.4923
  769SOL    HW2 2307   0.600   1.419   0.881 -0.2771  0.6763 -1.5322
  770SOL     OW 2308   1.439   0.903   2.385 -0.2480  0.3394 -0.0257
  770SOL    HW1 2309   1.410   0.861   2.296  1.0338  2.0523  0.8502
  770SOL    HW2 2310   1.525   0.951   2.372 -0.3613  0.8993  0.9266
  771SOL     OW 2311   2.824   3.065   2.374 -0.4206  0.1307 -0.2052
  771SOL    HW1 2312   2.727   3.073   2.396 -0.4339  0.1889 -1.5608
  771SOL    HW2 2313   2.881   0.020   2.438  2.2438  0.7702  2.1782
  772SOL     OW 2314   2.326   1.879   2.226  0.0376  0.3059 -0.3816
  772SOL    HW1 2315   2.232   1.904   2.252  0.0693  1.1825 -0.4878
  772SOL    HW2 2316   2.364   1.937   2.147  1.9362  1.3828 -0.7691
  773SOL     OW 2317   0.640   1.293   1.514  0.3814 -0.4503  0.2508
  773SOL    HW1 2318   0.644   1.195   1.530 -1.7087 -1.7484 -1.8342
  773SOL    HW2 2319   0.684   1.321   1.423  1.5627 -0.9032 -4.3609
  774SOL     OW 2320   1.303   0.889   2.986  0.4003 -0.5339  0.0299
  774SOL    HW1 2321   1.242   0.898   2.901 -2.8304 -4.3129 -2.8529
  774SOL    HW2 2322   1.239   0.862   3.060 -0.1985 -1.8576 -2.0972
  775SOL     OW 2323   1.657   2.695   0.047  0.7585 -0.6509 -0.1155
  775SOL    HW1 2324   1.689   2.644   0.124  1.0395  0.2981 -5.2932
  775SOL    HW2 2325   1.607   2.634   3.086 -0.5730 -0.5298 -0.8166
  776SOL     OW 2326   0.111   1.093   1.550  0.3464 -0.5942 -0.1562
  776SOL    HW1 2327   0.132   1.151   1.628 -1.1425 -1.6576  0.0124
  776SOL    HW2 2328   0.010   1.076   1.549  1.2189  1.1181 -1.0515
  777SOL     OW 2329   2.460   2.031   2.044  0.2759 -0.2937 -0.0138
  777SOL    HW1 2330   2.558   2.056   2.069 -3.5483 -0.6653 -0.9589
  777SOL    HW2 2331   2.438   2.020   1.944 -2.1995 -1.5334 -2.0244
  778SOL     OW 2332   1.714   1.052   2.347 -0.3850 -0.2654  0.1234
  778SOL    HW1 2333   1.639   1.114   2.371  3.5562 -2.2250  1.9095
  778SOL    HW2 2334   1.779   1.094   2.288 -0.7061 -1.9345  0.9532
  779SOL     OW 2335   2.856   0.986   0.056 -0.1643 -0.7007  0.3776
  779SOL    HW1 2336   2.868   0.892   0.094  2.0140  2.7264 -1.5410
  779SOL    HW2 2337   2.761   1.011   0.040  3.1011 -2.7011 -0.2613
  780SOL     OW 2338   2.186   3.068   2.741 -0.4899 -0.1080 -0.0156
  780SOL    HW1 2339   2.085   3.082   2.725  0.6679  2.0353 -1.0984
  780SOL    HW2 2340   2.233   0.061   2.733 -0.3277  1.7335  2.2306
  781SOL     OW 2341   2.993   1.419   1.218 -0.6763 -0.1100 -0.5665
  781SOL    HW1 2342   3.015   1.469   1.132  0.9427  0.3915  0.3220
  781SOL    HW2 2343   3.078   1.416   1.277 -2.6424  0.1969 -0.2700
  782SOL     OW 2344   2.625   2.106   2.967 -0.1738 -0.0646 -0.3607
  782SOL    HW1 2345   2.652   2.194   3.008 -1.4054 -2.7775 -0.7826
  782SOL    HW2 2346   2.686   2.089   2.893 -0.4037  0.5323 -1.0478
  783SOL     OW 2347   0.757   1.401   0.970  0.5052 -0.5191  0.1147
  783SOL    HW1 2348   0.745   1.296   0.969  1.7851 -0.6496 -3.4188
  783SOL    HW2 2349   0.850   1.425   0.931  0.0855  0.4704 -1.2158
  784SOL     OW 2350   2.583   1.021   0.123 -0.8136  0.5745  0.0729
  784SOL    HW1 2351   2.514   1.090   0.095 -1.1143 -1.2303 -0.2139
  784SOL    HW2 2352   2.599   1.019   0.224  1.5565  0.2506 -2.7589
  785SOL     OW 2353   2.107   2.324   0.824 -0.0784  0.2512 -0.4757
  785SOL    HW1 2354   2.013   2.351   0.853 -0.6099  2.4163  1.5848
  785SOL    HW2 2355   2.125   2.346   0.728 -2.1000 -1.1654  3.0965
  786SOL     OW 2356   0.527   2.283   2.721 -0.0599  0.2055 -0.0375
  786SOL    HW1 2357   0.570   2.195   2.685 -0.8445 -0.1257  0.0541
  786SOL    HW2 2358   0.425   2.278   2.722  2.4574  1.8837  1.7779
  787SOL     OW 2359   1.530   0.534   1.455 -0.3652  0.4116 -0.3711
  787SOL    HW1 2360   1.531   0.636   1.448  0.7670 -0.1318 -1.1031
  787SOL    HW2 2361   1.622   0.504   1.425  2.5647  0.3211  0.3382
  788SOL     OW 2362   0.452   0.881   0.291  0.6974 -0.3085 -0.1130
  788SOL    HW1 2363   0.496   0.908   0.383 -0.8491 -0.7151  4.9584
  788SOL    HW2 2364   0.362   0.930   0.278 -2.2014  0.4858  3.1336
  789SOL     OW 2365   3.093   1.994   1.351  0.5981 -0.6335 -0.0573
  789SOL    HW1 2366   0.077   1.937   1.354  1.4352  2.5591  0.1436
  789SOL    HW2 2367   3.038   2.005   1.266  1.1152  2.6345  1.4562
  790SOL     OW 2368   1.434   0.388   2.089  0.4928  0.1054 -0.6690
  790SOL    HW1 2369   1.441   0.431   2.186  0.7490  0.9093  3.9987
  790SOL    HW2 2370   1.365   0.441   2.031 -0.7557 -1.0199 -3.1055
  791SOL     OW 2371   1.277   0.668   0.379  0.4536  0.1777 -0.1408
  791SOL    HW1 2372   1.281   0.636   0.284 -0.4208  0.4863  0.7058
  791SOL    HW2 2373   1.371   0.689   0.406 -0.3525  0.8512 -1.1386
  792SOL     OW 2374   1.372   2.971   1.780 -0.1261  0.0580  0.4842
  792SOL    HW1 2375   1.290   2.934   1.731 -3.3827  0.5876 -3.3417
  792SOL    HW2 2376   1.461   2.936   1.747 -0.3038  1.0091  2.0060
  793SOL     OW 2377   0.838   3.040   0.749  0.1579  0.1009  0.1234
  793SOL    HW1 2378   0.925   3.006   0.706  0.7191  3.0566 -0.5061
  793SOL    HW2 2379   0.858   3.102   0.827  1.1327 -0.8271 -2.0261
  794SOL     OW 2380   0.484   1.209   2.058 -0.2825 -0.0890 -0.0340
  794SOL    HW1 2381   0.444   1.114   2.047  0.5009 -2.8855 -1.4324
  794SOL    HW2 2382   0.543   1.212   2.143  0.3610 -1.0236  0.9824
  795SOL     OW 2383   2.905   1.565   2.303  0.4719 -0.3250 -0.6112
  795SOL    HW1 2384   2.887   1.664   2.283 -3.1967 -1.3142  0.9083
  795SOL    HW2 2385   2.998   1.539   2.269 -0.5652 -1.8169 -0.9504
  796SOL     OW 2386   1.879   1.202   2.195 -0.3996 -0.1818 -0.1099
  796SOL    HW1 2387   1.905   1.223   2.100 -0.0368 -0.7581  0.4646
  796SOL    HW2 2388   1.956   1.211   2.262  1.3683  0.9752  0.8694
  797SOL     OW 2389   3.027   0.071   2.612  0.6348  0.1484  0.1390
  797SOL    HW1 2390   0.018   0.028   2.621  0.5312  0.4327  0.3013
  797SOL    HW2 2391   2.953   0.001   2.632 -2.1720  0.6616 -0.7277
  798SOL     OW 2392   0.062   2.059   2.210  0.2861  0.3013 -0.6753
  798SOL    HW1 2393   0.072   1.985   2.139 -3.0021 -1.2527  2.6121
  798SOL    HW2 2394   0.145   2.106   2.239 -0.6639 -0.6273 -2.8317
  799SOL     OW 2395   2.737   2.316   3.093  0.0885  0.5548  0.1698
  799SOL    HW1 2396   2.812   2.331   0.062  1.0269 -0.1504  3.1583
  799SOL    HW2 2397   2.739   2.389   3.026  1.2111  1.6585 -0.2350
  800SOL     OW 2398   1.458   1.586   0.809  0.1552 -0.3732 -0.0470
  800SOL    HW1 2399   1.371   1.631   0.837  1.4507 -0.5993 -1.3717
  800SOL    HW2 2400   1.538   1.638   0.828  1.0631 -2.2412  0.0273
  801SOL     OW 2401   2.221   0.685   0.669 -0.0017 -0.2352 -0.7803
  801SOL    HW1 2402   2.178   0.606   0.626  0.6319  2.9465  1.3433
  801SOL    HW2 2403   2.159   0.733   0.735  0.9745  0.6012 -2.3296
  802SOL     OW 2404   2.598   1.591   0.393 -0.1887 -0.3775  0.4697
  802SOL    HW1 2405   2.553   1.642   0.316 -0.9499  1.1895  1.7631
  802SOL    HW2 2406   2.675   1.646   0.422 -1.2014 -0.7468 -1.6292
  803SOL     OW 2407   1.455   1.887   2.887  0.2503 -0.0063 -0.3411
  803SOL    HW1 2408   1.503   1.936   2.812  0.8281 -0.8881  0.8285
  803SOL    HW2 2409   1.424   1.957   2.957 -2.4860 -0.2667  0.5562
  804SOL     OW 2410   1.942   2.067   0.237 -0.5041  0.0015  0.1855
  804SOL    HW1 2411   2.001   2.002   0.296  1.0201  0.7817 -2.0330
  804SOL    HW2 2412   1.960   2.054   0.137 -0.0909 -0.1740  1.6685
  805SOL     OW 2413   2.291   1.771   0.102  0.2930 -0.0254 -0.1374
  805SOL    HW1 2414   2.266   1.864   0.070 -0.2318  1.3166 -2.6760
  805SOL    HW2 2415   2.392   1.759   0.108 -1.8124 -0.1192  0.4985
  806SOL     OW 2416   0.807   0.562   0.528  0.1134  0.0137 -0.0595
  806SOL    HW1 2417   0.848   0.554   0.439  0.3491  1.8582  0.6308
  806SOL    HW2 2418   0.716   0.604   0.530  0.4990 -0.8322 -0.0264
  807SOL     OW 2419   2.229   1.583   2.722  0.1061 -0.3993  0.7567
  807SOL    HW1 2420   2.211   1.562   2.822  0.5294  0.9972  0.5278
  807SOL    HW2 2421   2.162   1.652   2.691  1.7193  1.6385  3.0778
  808SOL     OW 2422   0.096   1.513   0.445 -0.1710  0.0582  0.4605
  808SOL    HW1 2423   0.176   1.453   0.459  0.4920 -1.4383 -0.1910
  808SOL    HW2 2424   0.063   1.541   0.537 -1.1240 -1.3102 -0.9890
  809SOL     OW 2425   2.539   0.948   2.566  0.3181 -0.0016 -0.3170
  809SOL    HW1 2426   2.449   0.993   2.558  2.2346 -4.0103 -1.2974
  809SOL    HW2 2427   2.599   1.031   2.563 -0.2511  0.8524  2.1473
  810SOL     OW 2428   1.113   1.335   0.236 -0.3669  0.1157  0.4683
  810SOL    HW1 2429   1.214   1.333   0.247  1.7070  0.4181 -1.4576
  810SOL    HW2 2430   1.085   1.261   0.172 -0.0372  0.0042  2.3935
  811SOL     OW 2431   1.495   2.591   0.840 -0.0767  0.0131  0.3556
  811SOL    HW1 2432   1.422   2.627   0.897 -1.6217  3.4853 -1.8216
  811SOL    HW2 2433   1.493   2.487   0.847  1.9944 -0.8390  1.0798
  812SOL     OW 2434   0.399   2.580   1.616 -0.0429 -0.4080 -0.3136
  812SOL    HW1 2435   0.460   2.510   1.577 -1.4910  1.2303 -3.5225
  812SOL    HW2 2436   0.458   2.659   1.638 -2.3140  1.3463  0.4248
  813SOL     OW 2437   1.068   0.044   1.916 -0.1576 -0.0775  0.1293
  813SOL    HW1 2438   1.025   3.055   1.902  2.1736  0.0497 -1.3743
  813SOL    HW2 2439   1.024   0.087   2.000 -0.2981 -0.3485 -1.5675
  814SOL     OW 2440   1.339   3.063   2.662  0.0884  0.1363  0.1522
  814SOL    HW1 2441   1.431   3.021   2.636  1.9851  0.2777  2.5717
  814SOL    HW2 2442   1.315   0.028   2.592  0.0025 -4.6532  1.6136
  815SOL     OW 2443   0.354   0.409   1.945  0.3603 -0.4948  0.0304
  815SOL    HW1 2444   0.362   0.350   1.859 -0.7908 -2.1878 -1.7028
  815SOL    HW2 2445   0.386   0.507   1.929  4.3142  2.2843  0.1175
  816SOL     OW 2446   2.351   0.342   2.990 -0.2062  0.0094 -0.2838
  816SOL    HW1 2447   2.423   0.411   2.973 -1.2039 -0.3587 -0.9842
  816SOL    HW2 2448   2.266   0.392   3.004  3.2774  1.8400  0.8253
  817SOL     OW 2449   1.971   0.238   2.607 -0.5810  0.0612  0.7610
  817SOL    HW1 2450   1.878   0.271   2.567  1.4279  1.8540 -0.2688
  817SOL    HW2 2451   1.978   0.268   2.702 -0.5766  1.4146 -1.5651
  818SOL     OW 2452   1.853   0.042   0.230 -0.0125  0.4154  0.0341
  818SOL    HW1 2453   1.814   0.122   0.180 -0.5330 -2.5265 -0.7975
  818SOL    HW2 2454   1.938   0.004   0.177  3.8059 -2.6710 -0.7054
  819SOL     OW 2455   2.283   2.038   3.101  0.5109  0.2487  0.1544
  819SOL    HW1 2456   2.337   1.982   3.037  1.5832  0.5963 -0.7355
  819SOL    HW2 2457   2.265   2.129   3.062  0.1572 -0.3431 -0.5488
  820SOL     OW 2458   0.171   1.741   0.314 -0.0583  0.5315  0.1755
  820SOL    HW1 2459   0.142   1.731   0.217 -1.4033  1.4198  1.4176
  820SOL    HW2 2460   0.141   1.653   0.362  1.5764 -1.6278  2.3116
  821SOL     OW 2461   3.023   2.683   1.276 -0.2576 -0.0988  0.5220
  821SOL    HW1 2462   3.004   2.587   1.306  3.0191  0.4653  1.0055
  821SOL    HW2 2463   2.989   2.749   1.344  5.4573 -0.2795 -1.8918
  822SOL     OW 2464   2.629   2.630   2.733 -0.0260  0.1235  0.2167
  822SOL    HW1 2465   2.592   2.554   2.669 -1.4941 -1.9579 -1.3985
  822SOL    HW2 2466   2.640   2.714   2.675  0.1997 -1.5122  0.2210
  823SOL     OW 2467   1.524   0.229   2.711  0.6133 -0.0214  0.4269
  823SOL    HW1 2468   1.513   0.288   2.791 -0.3205 -1.3021 -0.4030
  823SOL    HW2 2469   1.438   0.211   2.653 -2.7382 -0.5721 -0.6578
  824SOL     OW 2470   2.868   1.673   1.291 -0.1204 -0.1376 -0.3791
  824SOL    HW1 2471   2.886   1.760   1.236  3.3073  2.0949  0.8522
  824SOL    HW2 2472   2.920   1.585   1.262  0.4878 -1.4794 -1.8652
  825SOL     OW 2473   2.671   1.791   2.525 -0.2588 -0.0129  0.1852
  825SOL    HW1 2474   2.611   1.819   2.600  0.5119  0.5423  0.9652
  825SOL    HW2 2475   2.691   1.869   2.462  1.0944  1.3641 -1.1627
  826SOL     OW 2476   2.328   1.083   2.324  0.6856  0.0921 -0.7117
  826SOL    HW1 2477   2.343   1.041   2.237 -0.2393  2.3080  0.1416
  826SOL    HW2 2478   2.380   1.169   2.337 -0.1987  1.4855 -1.3718
  827SOL     OW 2479   2.288   2.439   1.592  0.4229 -0.6328 -0.0940
  827SOL    HW1 2480   2.378   2.460   1.637  0.8881  0.7009 -0.3540
  827SOL    HW2 2481   2.310   2.374   1.519  3.4836 -1.8535  0.5092
  828SOL     OW 2482   2.672   2.618   1.376  0.4928 -0.2897 -0.0284
  828SOL    HW1 2483   2.700   2.555   1.303  2.1444 -3.1990 -0.6752
  828SOL    HW2 2484   2.577   2.651   1.354  1.2206 -0.0299 -0.5755
  829SOL     OW 2485   1.574   2.174   2.229 -0.0379  0.1741  0.6322
  829SOL    HW1 2486   1.587   2.202   2.323 -1.4586 -3.1758 -1.8682
  829SOL    HW2 2487   1.633   2.090   2.210  2.3840 -0.3423 -1.5089
  830SOL     OW 2488   1.434   0.240   0.722  0.4537 -0.5568 -0.0360
  830SOL    HW1 2489   1.354   0.212   0.671  3.0232  0.2618  0.8791
  830SOL    HW2 2490   1.510   0.172   0.718 -0.6472 -1.9064 -0.0389
  831SOL     OW 2491   2.576   1.323   0.429 -0.1232  0.3061 -0.1264
  831SOL    HW1 2492   2.675   1.295   0.449 -2.1316 -2.0888 -0.6125
  831SOL    HW2 2493   2.574   1.416   0.396  2.3756 -2.8895 -1.1729
  832SOL     OW 2494   1.460   2.111   1.845 -0.2452 -0.2214 -0.4883
  832SOL    HW1 2495   1.521   2.040   1.870 -0.8182  1.8159 -0.7025
  832SOL    HW2 2496   1.447   2.174   1.927  2.8692 -0.2002  1.0790
  833SOL     OW 2497   2.912   2.789   2.347 -0.6387 -0.0778  0.4564
  833SOL    HW1 2498   2.930   2.756   2.443  0.2648 -1.2468  1.7200
  833SOL    HW2 2499   2.861   2.877   2.346  0.1048 -2.5410  0.3089
  834SOL     OW 2500   0.942   0.896   1.368 -0.3850 -0.2022 -0.1357
  834SOL    HW1 2501   0.865   0.961   1.343  0.1485  0.4362 -0.1146
  834SOL    HW2 2502   1.006   0.876   1.289 -1.9654  2.9147  1.6924
  835SOL     OW 2503   2.758   0.687   2.522  0.1686 -0.0586  0.1068
  835SOL    HW1 2504   2.799   0.701   2.429  1.1940 -1.9365  0.5385
  835SOL    HW2 2505   2.708   0.771   2.550  0.9721  3.8542  0.8933
  836SOL     OW 2506   0.969   2.349   1.086 -0.0947 -0.7570 -0.2341
  836SOL    HW1 2507   0.965   2.249   1.101  0.9653  2.3009 -1.0590
  836SOL    HW2 2508   1.044   2.376   1.149  3.2349 -2.5605  1.2902
  837SOL     OW 2509   2.070   0.980   1.026  0.2899 -0.5461 -0.4350
  837SOL    HW1 2510   2.119   1.067   1.019 -3.7907 -4.0787  1.1679
  837SOL    HW2 2511   2.076   0.935   1.118 -0.7091  1.9008 -2.0863
  838SOL     OW 2512   1.101   1.425   2.503 -0.8752 -0.0539 -0.1543
  838SOL    HW1 2513   1.001   1.430   2.480 -1.2115  0.1227 -0.1693
  838SOL    HW2 2514   1.124   1.461   2.598 -0.6241 -1.6610 -0.5051
  839SOL     OW 2515   0.544   2.542   2.820 -0.4747  0.0857 -0.1551
  839SOL    HW1 2516   0.553   2.462   2.761 -0.8769  0.6768  1.7679
  839SOL    HW2 2517   0.464   2.544   2.881  0.1037  0.2065 -0.8701
  840SOL     OW 2518   0.579   2.649   0.020 -0.3253  0.4849  0.4103
  840SOL    HW1 2519   0.498   2.609   3.072 -1.5905  1.1192  0.7010
  840SOL    HW2 2520   0.661   2.588   0.008 -0.3065 -0.5580  1.3545
  841SOL     OW 2521   1.926   2.360   0.207 -0.1095 -0.3026  0.1755
  841SOL    HW1 2522   1.931   2.259   0.215  0.1664  2.4327  1.6718
  841SOL    HW2 2523   1.983   2.392   0.130  0.2162  2.7677  1.3783
  842SOL     OW 2524   1.139   0.908   2.788 -0.2347  0.2478  0.1303
  842SOL    HW1 2525   1.123   1.006   2.797 -0.9549 -1.2889 -2.0388
  842SOL    HW2 2526   1.177   0.881   2.694  1.2057  1.2377 -1.9384
  843SOL     OW 2527   1.403   3.050   0.542  0.3726 -0.0941 -0.3198
  843SOL    HW1 2528   1.458   2.964   0.527  0.3638 -3.9538  1.4967
  843SOL    HW2 2529   1.376   3.060   0.642  1.5985 -1.2278 -1.3903
  844SOL     OW 2530   2.360   2.903   2.630  0.2963 -0.0511  0.0840
  844SOL    HW1 2531   2.287   2.966   2.673 -4.3453  2.9377 -0.2893
  844SOL    HW2 2532   2.318   2.812   2.619 -1.3628 -0.3114 -0.9662
  845SOL     OW 2533   2.688   2.422   1.174 -0.1192  0.3279  0.3794
  845SOL    HW1 2534   2.591   2.451   1.175 -0.5411  0.7930 -0.7670
  845SOL    HW2 2535   2.719   2.416   1.079  0.5402  1.1936 -1.9130
  846SOL     OW 2536   3.005   2.036   2.439 -0.1377 -0.1559 -0.5957
  846SOL    HW1 2537   3.073   2.032   2.362  1.0001  2.6049 -2.4280
  846SOL    HW2 2538   3.019   1.964   2.510 -2.8138  2.9296  0.0068
  847SOL     OW 2539   1.532   0.483   1.743  0.1782 -0.2930  0.7487
  847SOL    HW1 2540   1.512   0.497   1.642  0.0576  2.0068  0.7099
  847SOL    HW2 2541   1.516   0.388   1.771  1.1134 -0.3485 -2.4184
  848SOL     OW 2542   3.001   0.241   0.131 -0.0008  0.3098 -0.1926
  848SOL    HW1 2543   2.933   0.281   0.064 -0.5190  2.1130  1.0619
  848SOL    HW2 2544   3.001   0.293   0.221 -2.1782  0.4506 -1.3385
  849SOL     OW 2545   0.618   0.414   3.027 -0.1410 -0.1362 -0.0954
  849SOL    HW1 2546   0.676   0.494   2.999  0.4881  1.6143 -3.0492
  849SOL    HW2 2547   0.526   0.449   3.055 -0.7895 -0.9462 -0.2040
  850SOL     OW 2548   0.577   2.408   1.091  0.3737 -0.4223 -0.4860
  850SOL    HW1 2549   0.633   2.331   1.121 -2.4053  1.1624 -0.2790
  850SOL    HW2 2550   0.500   2.377   1.037 -0.5371  3.1387  0.1887
  851SOL     OW 2551   2.341   0.106   2.344 -0.5079 -0.0626 -0.0142
  851SOL    HW1 2552   2.380   0.141   2.257 -0.3770 -2.5313  1.2645
  851SOL    HW2 2553   2.281   0.177   2.384 -1.6542  0.1219 -1.8155
  852SOL     OW 2554   1.628   1.341   2.161 -0.4830 -0.5109 -0.4765
  852SOL    HW1 2555   1.561   1.294   2.220  1.4084 -1.4159  0.2979
  852SOL    HW2 2556   1.718   1.292   2.172  0.7087  2.7838 -1.6648
  853SOL     OW 2557   2.803   2.608   0.504  0.1442 -1.0646  0.7770
  853SOL    HW1 2558   2.889   2.569   0.539 -1.8006  3.6957 -1.5439
  853SOL    HW2 2559   2.781   2.694   0.549 -0.5674 -2.3283  0.7751
  854SOL     OW 2560   2.278   0.369   0.995  0.6625 -0.0235  0.0610
  854SOL    HW1 2561   2.348   0.408   0.932 -0.4767 -0.4797  1.0236
  854SOL    HW2 2562   2.207   0.440   1.024 -1.4594  0.8583 -1.1947
  855SOL     OW 2563   1.465   2.204   0.735  0.0203 -0.2105  0.8384
  855SOL    HW1 2564   1.418   2.199   0.644 -1.2428  0.4979  1.3243
  855SOL    HW2 2565   1.403   2.248   0.799 -0.5251 -0.0769 -0.9276
  856SOL     OW 2566   2.820   0.450   3.045  0.3550 -0.4332 -0.3662
  856SOL    HW1 2567   2.877   0.526   3.012 -0.7784 -0.6191 -1.2252
  856SOL    HW2 2568   2.782   0.393   2.969  0.9759 -2.1725 -0.2227
  857SOL     OW 2569   1.669   2.943   1.932  0.7059  0.1699  0.2242
  857SOL    HW1 2570   1.619   2.868   1.889  2.3442 -3.5929  0.1395
  857SOL    HW2 2571   1.669   3.026   1.867 -2.1028  2.1120 -2.5628
  858SOL     OW 2572   2.674   2.055   1.506 -0.3737 -0.1769  0.3980
  858SOL    HW1 2573   2.706   2.107   1.420 -1.1929 -1.8736 -0.8065
  858SOL    HW2 2574   2.642   1.962   1.477 -1.4440 -4.5728 -1.1400
  859SOL     OW 2575   1.294   2.346   0.870  0.0505  0.1464  0.5415
  859SOL    HW1 2576   1.219   2.409   0.840 -2.9384  0.5139 -1.7201
  859SOL    HW2 2577   1.342   2.375   0.957  0.4665  2.9560  2.6397
  860SOL     OW 2578   2.277   2.491   0.175 -0.1760  0.2322  0.2376
  860SOL    HW1 2579   2.288   2.575   0.124 -0.7297 -0.4644 -0.0542
  860SOL    HW2 2580   2.367   2.440   0.184  0.8624  1.2500  0.6419
  861SOL     OW 2581   1.812   2.628   1.184 -0.3453 -0.4141  0.4814
  861SOL    HW1 2582   1.908   2.655   1.185 -2.4774  0.4753  1.4555
  861SOL    HW2 2583   1.750   2.691   1.132  0.1554 -1.2241 -1.6902
  862SOL     OW 2584   1.919   0.007   2.722  0.0209  0.3524  0.2208
  862SOL    HW1 2585   1.933   0.093   2.668  1.5918  1.1446 -1.5559
  862SOL    HW2 2586   1.846   0.019   2.790  2.1010  2.3292  1.6356
  863SOL     OW 2587   0.389   0.459   0.557  0.2276  0.9577 -0.1390
  863SOL    HW1 2588   0.458   0.387   0.539 -2.7311  1.5676  2.5997
  863SOL    HW2 2589   0.305   0.421   0.605 -0.8613 -0.3682  1.3325
  864SOL     OW 2590   2.614   2.732   1.797  0.0630  0.3057 -0.2914
  864SOL    HW1 2591   2.576   2.646   1.760 -0.8568  2.9913  0.3259
  864SOL    HW2 2592   2.558   2.806   1.763  0.1480  0.1213  0.7061
  865SOL     OW 2593   3.038   2.036   3.030  0.2614 -0.8502 -0.0276
  865SOL    HW1 2594   3.002   2.026   0.026 -1.5708 -0.2115 -0.9450
  865SOL    HW2 2595   3.013   2.123   2.986  2.4298 -1.9600  1.8117
  866SOL     OW 2596   2.487   0.574   2.948 -0.1667 -0.5017 -0.2846
  866SOL    HW1 2597   2.557   0.562   2.878 -2.3799 -1.7257  1.9828
  866SOL    HW2 2598   2.513   0.639   3.024 -0.6720  0.2765  1.0495
  867SOL     OW 2599   0.400   0.157   2.736  0.0241 -0.0044  0.1429
  867SOL    HW1 2600   0.486   0.195   2.775 -1.3766 -2.5558 -0.6384
  867SOL    HW2 2601   0.329   0.225   2.738  1.2946  0.2378 -1.6695
  868SOL     OW 2602   1.088   2.516   0.782  0.5396 -0.4341 -0.3378
  868SOL    HW1 2603   0.996   2.501   0.823 -0.1616 -1.4957 -0.2171
  868SOL    HW2 2604   1.082   2.558   0.686 -0.3070  1.9652 -0.3231
  869SOL     OW 2605   1.421   1.343   1.361 -0.1388  0.7354  0.6627
  869SOL    HW1 2606   1.445   1.334   1.266 -0.1811  1.9038  1.3153
  869SOL    HW2 2607   1.498   1.380   1.412 -0.4863  1.3484 -0.9880
  870SOL     OW 2608   1.843   2.041   1.164  0.8768 -0.2092 -0.1823
  870SOL    HW1 2609   1.943   2.055   1.157 -3.9448 -0.3226 -1.1257
  870SOL    HW2 2610   1.800   2.063   1.258 -2.3929  2.9743  0.2818
  871SOL     OW 2611   1.317   1.682   1.398  0.2417 -0.1994 -0.0892
  871SOL    HW1 2612   1.235   1.621   1.379 -1.4057 -2.4021 -1.3770
  871SOL    HW2 2613   1.378   1.667   1.315  0.7768 -0.4701 -0.6619
  872SOL     OW 2614   1.352   0.986   1.128 -0.0299  0.2005 -0.0659
  872SOL    HW1 2615   1.418   1.000   1.051 -1.6706 -0.8207  0.8829
  872SOL    HW2 2616   1.326   1.070   1.178  0.2141  0.0275 -0.0395
  873SOL     OW 2617   1.241   0.815   2.542  0.2789 -0.0473 -1.4352
  873SOL    HW1 2618   1.241   0.711   2.544  2.7720 -3.6925  0.0300
  873SOL    HW2 2619   1.335   0.846   2.523  2.0148  1.8652 -1.0673
  874SOL     OW 2620   0.321   1.036   1.105  0.5848 -0.1811 -0.1059
  874SOL    HW1 2621   0.321   1.091   1.191 -0.6255 -1.1327 -0.2082
  874SOL    HW2 2622   0.234   1.058   1.061  0.0780 -1.4959 -0.2337
  875SOL     OW 2623   2.755   2.836   0.250  0.3642  0.6660 -0.1179
  875SOL    HW1 2624   2.681   2.762   0.246 -2.8338 -0.8515 -0.6534
  875SOL    HW2 2625   2.733   2.912   0.187  1.0495 -0.9326  0.0094
  876SOL     OW 2626   1.143   0.550   2.790 -0.3832  0.7517 -0.7091
  876SOL    HW1 2627   1.106   0.455   2.803  2.3550 -1.9484 -0.1218
  876SOL    HW2 2628   1.083   0.612   2.842 -0.0886  0.5981  2.8461
  877SOL     OW 2629   2.941   2.974   1.409 -0.0066 -0.2966 -0.5976
  877SOL    HW1 2630   2.995   2.996   1.494 -0.1803 -0.7182 -0.2670
  877SOL    HW2 2631   2.996   2.994   1.330 -1.4994  0.8903 -0.4011
  878SOL     OW 2632   1.874   2.659   2.828  0.1817  0.0739  0.2618
  878SOL    HW1 2633   1.829   2.725   2.891  0.4527  1.2893 -0.0133
  878SOL    HW2 2634   1.909   2.708   2.737  2.9093  1.9043 -0.1012
  879SOL     OW 2635   2.522   1.775   1.717 -0.3012 -0.2487 -0.1585
  879SOL    HW1 2636   2.539   1.761   1.618 -2.6974 -1.7622  1.3339
  879SOL    HW2 2637   2.430   1.735   1.738  0.4545  0.9204  1.4166
  880SOL     OW 2638   0.796   0.780   1.065 -0.0510  0.0955 -0.2847
  880SOL    HW1 2639   0.887   0.771   1.108 -1.7230  1.3579 -0.9989
  880SOL    HW2 2640   0.798   0.769   0.962  0.8742 -1.0769 -1.1586
  881SOL     OW 2641   1.219   1.945   0.063 -0.2195 -0.6717  0.6027
  881SOL    HW1 2642   1.296   2.004   0.031 -0.3937 -4.2355 -0.7533
  881SOL    HW2 2643   1.251   1.857   0.103 -0.9269 -1.1837  0.5635
  882SOL     OW 2644   1.609   0.322   1.094  0.0521 -0.2776  0.3475
  882SOL    HW1 2645   1.589   0.401   1.029 -0.8220  1.8635 -0.1955
  882SOL    HW2 2646   1.710   0.322   1.104 -1.8292  4.1163 -0.2318
  883SOL     OW 2647   1.698   0.572   2.453 -0.0569  0.3103  0.7036
  883SOL    HW1 2648   1.663   0.610   2.544 -0.9987  0.8985  1.7628
  883SOL    HW2 2649   1.758   0.640   2.404  0.9028 -1.1964 -1.1829
  884SOL     OW 2650   2.730   0.552   0.208  0.3793 -0.1476  0.3974
  884SOL    HW1 2651   2.789   0.633   0.198 -3.7760 -5.7103 -1.5069
  884SOL    HW2 2652   2.733   0.500   0.124  1.8851  0.7548  0.6042
  885SOL     OW 2653   1.004   1.897   0.857  0.1165 -0.6071 -0.3051
  885SOL    HW1 2654   1.060   1.979   0.827 -0.0993  2.4435 -2.2764
  885SOL    HW2 2655   0.921   1.917   0.908 -1.0660 -1.1635  1.7617
  886SOL     OW 2656   1.595   1.482   3.002 -0.4635 -0.2993  0.0128
  886SOL    HW1 2657   1.644   1.403   3.050 -0.5271 -1.7489  2.1511
  886SOL    HW2 2658   1.492   1.486   3.021 -4.4796 -2.1655 -3.9748
  887SOL     OW 2659   1.461   0.248   1.837  0.2910 -0.6607 -0.1330
  887SOL    HW1 2660   1.386   0.201   1.784 -2.1734 -1.7999 -1.3115
  887SOL    HW2 2661   1.433   0.257   1.935 -0.2605 -1.2390 -0.8418
  888SOL     OW 2662   2.787   1.563   1.558 -0.2982 -0.1886  0.3172
  888SOL    HW1 2663   2.756   1.623   1.633 -2.9605 -0.5248 -0.7863
  888SOL    HW2 2664   2.807   1.615   1.475  0.5775  3.3825 -0.7384
  889SOL     OW 2665   3.069   2.397   0.943 -0.0632 -0.6169 -0.2750
  889SOL    HW1 2666   0.001   2.468   0.880 -1.9578  1.2499 -1.1242
  889SOL    HW2 2667   0.004   2.415   1.036 -1.5694  0.4597 -1.3064
  890SOL     OW 2668   0.297   1.840   2.408 -0.0273  0.6092 -0.1174
  890SOL    HW1 2669   0.249   1.802   2.322  0.3197 -1.6121 -2.2851
  890SOL    HW2 2670   0.321   1.940   2.389  1.7377  1.9155 -2.5320
  891SOL     OW 2671   0.826   1.815   0.680  0.1220  0.1166 -0.1583
  891SOL    HW1 2672   0.800   1.722   0.653 -1.8104  1.3039 -0.2996
  891SOL    HW2 2673   0.901   1.810   0.750  0.9838 -1.6348  1.6417
  892SOL     OW 2674   0.028   2.197   1.524 -0.1076  0.2441 -0.2453
  892SOL    HW1 2675   3.066   2.201   1.599 -1.1031  0.3910 -0.0039
  892SOL    HW2 2676   0.006   2.127   1.456 -0.3744  1.1095 -0.7015
  893SOL     OW 2677   3.074   3.046   1.633  0.0633 -0.2916  0.1111
  893SOL    HW1 2678   3.040   3.096   1.715 -1.3463  0.5631  0.2609
  893SOL    HW2 2679   0.075   3.051   1.632 -1.8898  2.4704  0.8703
  894SOL     OW 2680   2.724   1.765   0.811  0.2892  0.4009 -0.6424
  894SOL    HW1 2681   2.786   1.685   0.810  2.6021  0.5992  1.5867
  894SOL    HW2 2682   2.692   1.793   0.722 -2.6238 -0.4574  3.2788
  895SOL     OW 2683   1.859   2.559   1.632  0.8283  0.3423  0.5205
  895SOL    HW1 2684   1.940   2.500   1.633 -1.9666  1.7414 -0.5551
  895SOL    HW2 2685   1.796   2.518   1.559 -0.4591 -2.7527 -2.4274
  896SOL     OW 2686   0.409   0.103   1.418 -0.0704 -0.4786  0.0169
  896SOL    HW1 2687   0.334   0.085   1.348 -0.8847 -1.9429 -1.4500
  896SOL    HW2 2688   0.459   0.186   1.395 -2.1761 -1.2219 -0.7129
  897SOL     OW 2689   1.281   0.976   1.446 -0.0388  0.2020  0.1090
  897SOL    HW1 2690   1.225   1.048   1.398 -1.9075  1.7070  0.5023
  897SOL    HW2 2691   1.322   1.013   1.533 -1.4636  0.2194 -0.9414
  898SOL     OW 2692   0.828   3.085   1.512  0.5860 -0.1218  0.4109
  898SOL    HW1 2693   0.815   3.085   1.614  1.2225  1.0607 -1.1650
  898SOL    HW2 2694   0.917   3.046   1.478 -0.8906 -3.8913 -0.9656
  899SOL     OW 2695   1.420   0.333   0.106 -0.4466 -0.1115 -0.3821
  899SOL    HW1 2696   1.495   0.301   0.172 -2.7744 -4.6713  0.9954
  899SOL    HW2 2697   1.459   0.331   0.016  0.4005  0.6462  1.2881
  900SOL     OW 2698   0.732   0.216   2.257  0.4711 -0.3929  0.0845
  900SOL    HW1 2699   0.739   0.190   2.358  3.1634  0.1816  0.9402
  900SOL    HW2 2700   0.631   0.220   2.224 -0.5705  1.9680 -1.5786
  901SOL     OW 2701   0.904   2.134   0.237  0.2027 -0.4846 -0.0643
  901SOL    HW1 2702   0.995   2.107   0.271  1.6806  0.4167  1.5955
  901SOL    HW2 2703   0.870   2.217   0.291  1.1236 -1.1083  2.0936
  902SOL     OW 2704   1.931   0.545   0.973 -0.5878 -0.2159 -0.6382
  902SOL    HW1 2705   1.856   0.575   0.913  3.0149  1.5454  0.4752
  902SOL    HW2 2706   1.908   0.452   1.009 -0.4458  0.9711 -0.6521
  903SOL     OW 2707   2.662   1.203   2.539  0.2823 -0.3402  0.1150
  903SOL    HW1 2708   2.590   1.251   2.591 -3.2529  0.8757  0.3155
  903SOL    HW2 2709   2.718   1.266   2.488 -0.1568 -0.6690 -0.4658
  904SOL     OW 2710   1.562   1.494   0.273 -0.6218 -0.0470  0.2216
  904SOL    HW1 2711   1.567   1.577   0.212 -0.4606  1.5967  0.0394
  904SOL    HW2 2712   1.524   1.523   0.363  0.4297  0.4344 -2.5710
  905SOL     OW 2713   1.839   3.007   1.488  0.7027 -0.8759 -0.0885
  905SOL    HW1 2714   1.853   3.095   1.535 -1.3763  0.0714  1.2751
  905SOL    HW2 2715   1.790   3.028   1.398  0.7070  1.6120 -4.6723
  906SOL     OW 2716   2.184   2.940   0.993 -0.2017  0.8264 -0.2685
  906SOL    HW1 2717   2.208   2.981   1.083  0.7160 -1.6484 -1.3223
  906SOL    HW2 2718   2.247   2.975   0.920 -1.7291 -2.5652 -1.8789
  907SOL     OW 2719   1.818   1.080   0.355 -0.5256 -0.6952 -0.7415
  907SOL    HW1 2720   1.749   1.009   0.336  0.5619 -0.6382  1.2905
  907SOL    HW2 2721   1.803   1.168   0.306 -0.2744  1.8774  1.5309
  908SOL     OW 2722   1.682   0.183   1.422  0.8972  0.3560 -0.8313
  908SOL    HW1 2723   1.587   0.169   1.453  0.3602 -0.4576  1.2458
  908SOL    HW2 2724   1.694   0.274   1.382  0.0519 -1.5318 -0.4510
  909SOL     OW 2725   2.174   0.089   0.651  0.1483  0.5404  0.3180
  909SOL    HW1 2726   2.233   0.051   0.722 -3.1862 -1.3956 -1.0670
  909SOL    HW2 2727   2.114   0.164   0.680  0.6572 -0.2567 -2.0918
  910SOL     OW 2728   2.692   0.498   2.120  0.0600  0.1791 -0.4461
  910SOL    HW1 2729   2.676   0.488   2.016  0.1631 -1.0048 -4.7969
  910SOL    HW2 2730   2.623   0.558   2.168 -0.9029  1.5141  2.4079
  911SOL     OW 2731   2.567   0.143   2.737 -0.1502  1.1322  0.1067
  911SOL    HW1 2732   2.474   0.177   2.708  1.3947 -1.0351  1.1885
  911SOL    HW2 2733   2.557   0.069   2.809  0.2323  1.1746  0.4269
  912SOL     OW 2734   0.767   1.066   1.302 -0.1285  0.4943 -0.2020
  912SOL    HW1 2735   0.714   1.061   1.393 -1.7870 -0.6020 -0.2009
  912SOL    HW2 2736   0.700   1.040   1.235  0.4960  2.5168  0.6928
  913SOL     OW 2737   2.928   2.425   1.380 -0.3929  0.2167 -0.4215
  913SOL    HW1 2738   2.948   2.420   1.483  0.7602  0.4279  1.1989
  913SOL    HW2 2739   2.828   2.437   1.361  1.0491  0.9413 -2.0329
  914SOL     OW 2740   2.006   0.886   1.328  0.3797 -0.0487  0.0461
  914SOL    HW1 2741   1.956   0.793   1.331  0.2878  0.4166  1.0919
  914SOL    HW2 2742   2.104   0.869   1.347 -2.5171  0.9731  0.4353
  915SOL     OW 2743   0.169   1.371   0.992  0.6176  0.2943  0.0632
  915SOL    HW1 2744   0.181   1.334   0.903 -0.9045  1.3313  1.9917
  915SOL    HW2 2745   0.087   1.434   0.989  0.2870  1.4862 -1.1430
  916SOL     OW 2746   2.095   2.078   1.128  0.0052 -0.2399  0.1223
  916SOL    HW1 2747   2.083   2.179   1.112  1.4894 -1.3358 -0.8005
  916SOL    HW2 2748   2.105   2.033   1.039  3.1910  2.2918 -0.7405
  917SOL     OW 2749   1.783   2.547   2.021  0.0701  0.1893 -0.2053
  917SOL    HW1 2750   1.765   2.577   2.119  2.9689  1.1987  2.6425
  917SOL    HW2 2751   1.714   2.478   1.992  2.6139 -1.2690 -0.0876
  918SOL     OW 2752   1.894   2.130   2.377 -0.2999 -0.3584 -0.3706
  918SOL    HW1 2753   1.851   2.180   2.297  1.7448  1.5291 -1.4273
  918SOL    HW2 2754   1.934   2.190   2.453  1.2457  1.5126  1.2105
  919SOL     OW 2755   0.755   0.080   1.278  0.2423  0.0809 -0.4317
  919SOL    HW1 2756   0.681   0.146   1.269  0.2616 -2.7260 -0.8688
  919SOL    HW2 2757   0.761   0.038   1.371 -1.2066 -0.2533  2.3691
  920SOL     OW 2758   2.904   0.377   2.212 -0.2617 -0.1202  0.3541
  920SOL    HW1 2759   2.824   0.435   2.180 -1.3411  0.0186 -0.3289
  920SOL    HW2 2760   2.888   0.335   2.307 -1.5812  0.7505  0.8822
  921SOL     OW 2761   2.815   1.123   1.508 -0.2079  0.3137  0.8156
  921SOL    HW1 2762   2.837   1.025   1.522  1.3128  0.2214  0.8472
  921SOL    HW2 2763   2.716   1.138   1.539  0.3588  3.1184 -2.2991
  922SOL     OW 2764   2.699   2.216   0.833 -0.0990  0.2489 -0.2888
  922SOL    HW1 2765   2.621   2.232   0.770 -0.2547 -1.4164 -0.0500
  922SOL    HW2 2766   2.731   2.310   0.863 -3.8050  0.2915  0.6500
  923SOL     OW 2767   0.485   2.388   0.527  0.4750 -0.0842 -0.1996
  923SOL    HW1 2768   0.493   2.423   0.431 -1.3704  0.3470 -1.3700
  923SOL    HW2 2769   0.574   2.341   0.557  2.7389 -1.5334  1.1932
  924SOL     OW 2770   1.097   1.177   2.773  0.1659  0.2209  0.9835
  924SOL    HW1 2771   1.028   1.184   2.848  3.0952 -1.0371 -0.1087
  924SOL    HW2 2772   1.141   1.266   2.751  2.0092 -2.4204 -0.3515
  925SOL     OW 2773   2.754   1.367   0.695 -0.6415 -0.1764 -0.1251
  925SOL    HW1 2774   2.749   1.284   0.752 -0.9909  3.3427 -0.1691
  925SOL    HW2 2775   2.767   1.353   0.593  0.1140  1.0297  0.4309
  926SOL     OW 2776   0.118   0.094   0.858  0.1552 -0.0335  0.5468
  926SOL    HW1 2777   0.215   0.055   0.872  4.2249 -0.4414 -1.3584
  926SOL    HW2 2778   0.052   0.038   0.910 -1.9360 -2.8478 -0.0301
  927SOL     OW 2779   0.257   2.251   2.803 -0.0020  0.1030  0.4605
  927SOL    HW1 2780   0.203   2.277   2.885  0.3861 -2.1497  0.7458
  927SOL    HW2 2781   0.296   2.155   2.808  0.1584 -1.5958  0.6029
  928SOL     OW 2782   0.191   0.217   2.343  0.1310 -0.1396 -0.2651
  928SOL    HW1 2783   0.097   0.233   2.380  2.4338  0.1674 -2.0715
  928SOL    HW2 2784   0.222   0.120   2.356 -0.6472  0.0466 -1.2449
  929SOL     OW 2785   2.907   1.929   1.158 -0.4075 -0.3306  0.0248
  929SOL    HW1 2786   2.849   1.986   1.217 -0.2006 -2.5200 -3.4389
  929SOL    HW2 2787   2.884   1.953   1.060  3.4547 -1.7144 -0.5496
  930SOL     OW 2788   1.726   0.311   2.522 -0.1007 -0.4026  0.4856
  930SOL    HW1 2789   1.649   0.314   2.585  3.2302  0.4573 -2.2364
  930SOL    HW2 2790   1.732   0.392   2.463  0.9272 -2.6798  0.5312
  931SOL     OW 2791   2.288   1.410   2.997  0.4989 -0.1637 -0.0076
  931SOL    HW1 2792   2.240   1.498   3.024  0.4212  0.1007  0.0883
  931SOL    HW2 2793   2.233   1.354   2.932  1.9761  1.2343  0.2159
  932SOL     OW 2794   1.772   1.044   0.632 -0.1514  0.2815 -0.2682
  932SOL    HW1 2795   1.763   0.943   0.645  0.3776  1.2773  0.8009
  932SOL    HW2 2796   1.810   1.068   0.541 -2.1794  0.2718 -0.9925
  933SOL     OW 2797   2.262   1.267   0.772 -0.0542  0.2067  0.0805
  933SOL    HW1 2798   2.299   1.243   0.681  1.6009  0.7856 -0.1283
  933SOL    HW2 2799   2.166   1.296   0.753  2.0715 -1.0833 -0.0180
  934SOL     OW 2800   2.146   1.191   2.854  0.0746 -0.6850  0.5890
  934SOL    HW1 2801   2.048   1.207   2.836  3.8349 -0.9618 -0.8095
  934SOL    HW2 2802   2.196   1.171   2.772  1.1464 -1.7718 -0.3052
  935SOL     OW 2803   0.219   1.252   0.738 -0.6589  0.1448 -0.2098
  935SOL    HW1 2804   0.292   1.263   0.670 -5.1810 -0.6087  0.7217
  935SOL    HW2 2805   0.128   1.242   0.696  1.2463 -0.6531 -0.1681
  936SOL     OW 2806   0.061   2.780   0.355 -0.2070 -0.1218 -0.1652
  936SOL    HW1 2807   0.147   2.832   0.339 -1.1332 -0.1903  0.9846
  936SOL    HW2 2808   0.078   2.689   0.398 -2.3567  2.7604  1.2477
  937SOL     OW 2809   3.082   2.224   1.956  0.0208 -0.1439 -0.2661
  937SOL    HW1 2810   0.042   2.306   1.933  0.3594  5.1433  1.5480
  937SOL    HW2 2811   0.028   2.134   1.954 -0.0496 -1.4226  1.0982
  938SOL     OW 2812   2.422   2.307   2.700 -0.1330  0.2471  0.3494
  938SOL    HW1 2813   2.405   2.390   2.637 -1.5058  1.4132  1.8118
  938SOL    HW2 2814   2.526   2.291   2.709  0.2399  0.2022 -1.3116
  939SOL     OW 2815   1.061   0.759   1.126 -0.1489  0.0655  0.6814
  939SOL    HW1 2816   1.132   0.708   1.184  1.8048 -1.2928 -2.4864
  939SOL    HW2 2817   1.107   0.818   1.053  0.9656  1.2012 -1.2422
  940SOL     OW 2818   2.529   3.065   2.921 -0.3654  0.0124  0.1078
  940SOL    HW1 2819   2.428   3.068   2.902 -0.0837 -1.1094  0.5805
  940SOL    HW2 2820   2.569   2.976   2.945 -0.7849  3.7255 -0.9959
  941SOL     OW 2821   2.579   2.713   2.293  1.0002  0.9168  0.2931
  941SOL    HW1 2822   2.628   2.738   2.209  1.1044 -0.8130 -0.0259
  941SOL    HW2 2823   2.477   2.705   2.276 -0.7481 -1.6403 -1.3122
  942SOL     OW 2824   1.406   0.355   1.275  0.0607 -1.0153  0.1390
  942SOL    HW1 2825   1.485   0.326   1.213  0.8349 -0.3002  0.2452
  942SOL    HW2 2826   1.447   0.420   1.346  2.6826  0.7943  1.2728
  943SOL     OW 2827   0.510   1.645   2.414  0.3401  0.2380 -0.1746
  943SOL    HW1 2828   0.505   1.586   2.330  1.6891  0.1845 -2.2112
  943SOL    HW2 2829   0.437   1.717   2.420 -2.2226 -0.0993  1.9229
  944SOL     OW 2830   2.413   0.903   0.916 -0.4841 -0.0214 -0.5430
  944SOL    HW1 2831   2.390   0.861   0.831 -0.8494  2.7691  3.2176
  944SOL    HW2 2832   2.459   0.993   0.900 -0.8794 -0.2305  1.2319
  945SOL     OW 2833   3.024   0.181   2.868 -0.1882 -0.1800 -0.5527
  945SOL    HW1 2834   3.037   0.142   2.775  0.6583 -2.4310 -1.7681
  945SOL    HW2 2835   0.004   0.241   2.900  1.5127  1.4278  0.2486
  946SOL     OW 2836   0.096   1.379   1.418 -0.0145  0.2610  0.8090
  946SOL    HW1 2837   0.058   1.419   1.504 -0.3931 -0.6690 -1.5550
  946SOL    HW2 2838   0.069   1.279   1.413  0.3152  0.0784  2.7030
  947SOL     OW 2839   0.950   0.191   3.011 -0.3312  0.2410  0.1043
  947SOL    HW1 2840   0.952   0.272   3.077 -0.9234 -2.3999 -1.4158
  947SOL    HW2 2841   0.871   0.133   3.035  0.4622 -0.3343  1.4609
  948SOL     OW 2842   2.502   1.670   1.225  0.3835  0.2632  0.2281
  948SOL    HW1 2843   2.492   1.598   1.297  0.9449  0.1178  1.2240
  948SOL    HW2 2844   2.536   1.633   1.136  1.3592 -0.8305 -2.2624
  949SOL     OW 2845   0.346   0.894   2.901  0.0793  0.4498  0.1622
  949SOL    HW1 2846   0.396   0.980   2.926  1.2387  1.6925 -0.3034
  949SOL    HW2 2847   0.245   0.915   2.897 -0.6464  1.2758  2.0350
  950SOL     OW 2848   0.351   2.748   1.288 -0.1248 -0.2155 -0.1440
  950SOL    HW1 2849   0.286   2.778   1.366 -1.2705 -2.4876  2.4984
  950SOL    HW2 2850   0.408   2.829   1.259 -0.0231 -0.7235  0.0753
  951SOL     OW 2851   0.801   1.818   2.616 -0.3856 -0.3536  0.0771
  951SOL    HW1 2852   0.718   1.835   2.674 -1.5745 -0.0220 -2.6358
  951SOL    HW2 2853   0.858   1.905   2.619 -0.9035  0.3244  1.4095
  952SOL     OW 2854   0.730   1.248   0.533 -0.4763 -0.4823 -0.3398
  952SOL    HW1 2855   0.756   1.156   0.568 -1.6171 -2.5962  0.6494
  952SOL    HW2 2856   0.811   1.307   0.511 -0.2918 -1.4674 -0.4922
  953SOL     OW 2857   2.267   1.886   2.679  0.2103  0.1208 -0.0103
  953SOL    HW1 2858   2.334   1.850   2.607  0.8577 -1.7147 -1.5582
  953SOL    HW2 2859   2.310   1.875   2.776  0.0786 -2.1938  0.8788
  954SOL     OW 2860   1.454   0.479   0.859 -0.1780  0.2195  0.1068
  954SOL    HW1 2861   1.432   0.402   0.799 -0.8319  2.1516 -3.3915
  954SOL    HW2 2862   1.373   0.533   0.900 -0.7948 -0.6889  0.2260
  955SOL     OW 2863   1.029   1.923   2.965 -0.0291  0.2917 -0.3999
  955SOL    HW1 2864   1.002   2.015   2.933  0.4603  0.0897 -0.7669
  955SOL    HW2 2865   1.087   1.928   3.049 -1.7177 -2.8561  1.5454
  956SOL     OW 2866   2.893   0.708   1.937  0.4956  0.2366 -0.0301
  956SOL    HW1 2867   2.921   0.770   1.860 -1.7285 -0.0051  1.2587
  956SOL    HW2 2868   2.809   0.650   1.916 -0.6450 -0.7550  0.5880
  957SOL     OW 2869   1.695   1.951   2.172 -0.3179 -0.3550 -0.3081
  957SOL    HW1 2870   1.794   1.969   2.147  2.1244 -3.0044  0.1721
  957SOL    HW2 2871   1.644   1.920   2.089 -0.6245  1.5675 -2.7203
  958SOL     OW 2872   1.778   1.022   1.337 -0.4115  0.3353 -0.1678
  958SOL    HW1 2873   1.747   1.048   1.427  1.8354 -1.7927 -2.2492
  958SOL    HW2 2874   1.869   0.967   1.337  3.6241 -2.7930 -0.6655
  959SOL     OW 2875   1.532   1.860   1.977 -0.3364 -0.0705  0.0565
  959SOL    HW1 2876   1.594   1.816   1.903  3.2884 -2.3347 -0.4376
  959SOL    HW2 2877   1.455   1.802   1.999 -0.5979 -2.1327 -2.5947
  960SOL     OW 2878   0.492   0.978   2.638  0.2324 -0.2448  0.0189
  960SOL    HW1 2879   0.440   0.922   2.708  1.4451  1.8970  0.7095
  960SOL    HW2 2880   0.527   0.924   2.558 -1.0929 -1.0420  1.4678
  961SOL     OW 2881   0.199   1.177   0.002  0.6364  0.3776  0.1774
  961SOL    HW1 2882   0.176   1.206   3.006  0.0957 -3.1222 -0.4020
  961SOL    HW2 2883   0.189   1.254   0.068 -0.8266 -0.0033  0.6941
  962SOL     OW 2884   0.957   2.177   2.893  0.0022  0.2192 -0.1577
  962SOL    HW1 2885   0.892   2.256   2.879 -0.5432  1.8010 -0.7090
  962SOL    HW2 2886   1.052   2.214   2.907  0.3962 -0.1286 -0.0100
  963SOL     OW 2887   2.956   1.718   0.050  0.5369 -0.0241  0.0994
  963SOL    HW1 2888   3.054   1.693   0.029  0.5238  2.4267  0.5027
  963SOL    HW2 2889   2.949   1.820   0.066  0.2338  0.2043 -0.8616
  964SOL     OW 2890   0.660   2.258   2.234 -0.2786  0.4778  0.0822
  964SOL    HW1 2891   0.660   2.313   2.151  0.6239  1.3591  1.4087
  964SOL    HW2 2892   0.592   2.290   2.298  2.7323 -0.8670 -2.4336
  965SOL     OW 2893   1.687   1.859   1.523 -0.5183  0.2989  0.2105
  965SOL    HW1 2894   1.718   1.775   1.472 -0.5411 -1.8195 -0.7063
  965SOL    HW2 2895   1.683   1.839   1.625  3.0070 -1.7491  4.2244
  966SOL     OW 2896   2.987   1.474   0.292  0.1488  0.3911  0.0395
  966SOL    HW1 2897   3.056   1.479   0.362 -0.1071  0.8683 -1.1987
  966SOL    HW2 2898   2.992   1.545   0.216 -1.0670  3.1901 -2.1183
  967SOL     OW 2899   2.113   2.716   2.027 -0.3036  0.4812 -0.1440
  967SOL    HW1 2900   2.091   2.621   2.002  2.2983  1.2844  2.4694
  967SOL    HW2 2901   2.037   2.777   2.054  1.0458 -0.0537 -1.3240
  968SOL     OW 2902   1.682   1.226   3.098  0.0963  0.8933 -0.2397
  968SOL    HW1 2903   1.776   1.196   0.008 -1.2591  0.7745 -1.6308
  968SOL    HW2 2904   1.610   1.152   0.010  0.1364  0.8937  2.6605
  969SOL     OW 2905   0.164   1.235   2.336  0.1020  0.9462  0.2039
  969SOL    HW1 2906   0.158   1.171   2.257 -1.1248 -0.4949 -0.3771
  969SOL    HW2 2907   0.257   1.230   2.379  2.3781  1.8593 -0.4299
  970SOL     OW 2908   2.367   2.851   0.673  0.0202 -0.2189 -0.3077
  970SOL    HW1 2909   2.377   2.844   0.572 -1.9291 -0.5123 -1.4622
  970SOL    HW2 2910   2.277   2.800   0.695 -2.5160 -2.4803 -1.8692
  971SOL     OW 2911   2.194   2.072   0.848 -0.3409  0.0819  0.2976
  971SOL    HW1 2912   2.282   2.074   0.897 -1.1395  1.7377 -0.3289
  971SOL    HW2 2913   2.157   2.168   0.840  0.7393 -0.7418 -0.3841
  972SOL     OW 2914   0.229   1.632   2.823 -0.2101  0.0374  0.4096
  972SOL    HW1 2915   0.168   1.687   2.764  1.0229 -0.6640  2.5884
  972SOL    HW2 2916   0.304   1.613   2.762 -0.6997 -1.0397  1.9466
  973SOL     OW 2917   0.854   0.551   0.252  0.5049  0.3125 -0.7445
  973SOL    HW1 2918   0.795   0.463   0.239 -1.5298  1.9069 -0.7275
  973SOL    HW2 2919   0.951   0.537   0.216  2.3060  0.2414  0.2807
  974SOL     OW 2920   2.245   0.683   1.768  0.3613 -0.4369  0.0512
  974SOL    HW1 2921   2.242   0.597   1.823 -0.3830 -0.4882 -0.7601
  974SOL    HW2 2922   2.312   0.755   1.794 -0.0894  4.9919 -0.7480
  975SOL     OW 2923   3.061   0.044   0.630 -0.3213 -0.4960 -0.3118
  975SOL    HW1 2924   0.020   0.062   0.708  0.6866  0.4911 -1.4946
  975SOL    HW2 2925   2.965   0.035   0.662  1.1278  0.2624  1.7607
  976SOL     OW 2926   0.745   1.415   1.295 -0.3762 -0.6166  0.0412
  976SOL    HW1 2927   0.738   1.367   1.207 -1.4183 -2.2873 -1.2882
  976SOL    HW2 2928   0.803   1.499   1.286  0.4247  2.8698  0.8845
  977SOL     OW 2929   1.346   2.199   0.480 -0.1410  0.3450  0.5940
  977SOL    HW1 2930   1.405   2.180   0.397  0.4846  1.1802 -1.6351
  977SOL    HW2 2931   1.265   2.258   0.467  1.1857 -0.2981  1.2641
  978SOL     OW 2932   0.077   0.782   0.045 -0.0763  0.6251  0.2050
  978SOL    HW1 2933   0.065   0.829   3.056 -1.1661  1.6188 -0.3966
  978SOL    HW2 2934   0.123   0.846   0.112  1.1906  4.4708  0.2857
  979SOL     OW 2935   2.016   1.724   0.572  0.4537 -0.0975  0.0752
  979SOL    HW1 2936   1.999   1.632   0.535  0.6287  1.5247 -0.7211
  979SOL    HW2 2937   1.921   1.772   0.586  0.5775  0.5173 -1.0041
  980SOL     OW 2938   0.626   1.791   1.463  0.0440  0.3764 -0.0271
  980SOL    HW1 2939   0.724   1.817   1.480 -1.9834  1.5415  1.8532
  980SOL    HW2 2940   0.585   1.851   1.391 -1.4593 -1.3206  0.5276
  981SOL     OW 2941   2.735   1.429   2.840 -0.0852  0.1047  0.2553
  981SOL    HW1 2942   2.810   1.450   2.767  1.3283  0.4898 -2.6023
  981SOL    HW2 2943   2.671   1.357   2.811 -0.4582 -0.3660  0.9759
  982SOL     OW 2944   0.272   1.910   1.722  0.4062  0.6303  0.1113
  982SOL    HW1 2945   0.287   1.961   1.637 -0.8037 -1.9049  0.9571
  982SOL    HW2 2946   0.362   1.859   1.741  2.8456  0.0352  0.5011
  983SOL     OW 2947   1.473   0.143   2.181 -0.1392  0.0725 -0.5900
  983SOL    HW1 2948   1.382   0.107   2.216 -2.9490 -0.5410 -0.4507
  983SOL    HW2 2949   1.460   0.241   2.144  0.9474 -1.6541 -1.2705
  984SOL     OW 2950   2.860   2.997   2.949 -0.4200 -0.5162 -0.1980
  984SOL    HW1 2951   2.914   3.080   2.978 -1.6404 -1.8487  0.5316
  984SOL    HW2 2952   2.852   3.001   2.849  0.7224  1.6696  1.3076
  985SOL     OW 2953   1.433   1.200   1.924  0.6757 -0.2977  0.2455
  985SOL    HW1 2954   1.391   1.296   1.925 -2.1088  0.2288  0.1025
  985SOL    HW2 2955   1.525   1.213   1.892  2.4298 -0.4639  0.6856
  986SOL     OW 2956   1.935   0.333   2.874  0.0341  0.0044  0.5118
  986SOL    HW1 2957   2.007   0.393   2.918  2.1438  1.5147 -1.2727
  986SOL    HW2 2958   1.868   0.397   2.836  0.7393  0.9988  0.8536
  987SOL     OW 2959   2.956   1.823   2.611  0.2542 -0.2191  0.5104
  987SOL    HW1 2960   2.945   1.830   2.711 -1.2624 -1.5505  1.8230
  987SOL    HW2 2961   2.865   1.793   2.573  2.9075 -2.6261 -0.0258
  988SOL     OW 2962   2.973   0.275   1.231  0.0401  0.7806  0.3561
  988SOL    HW1 2963   3.040   0.230   1.292 -1.1524 -2.0793  1.0080
  988SOL    HW2 2964   2.883   0.221   1.210 -2.3304 -0.0663 -0.4532
  989SOL     OW 2965   1.871   0.277   1.087 -0.0574  0.5925 -0.2541
  989SOL    HW1 2966   1.867   0.184   1.048  0.1248  2.1813  1.8912
  989SOL    HW2 2967   1.906   0.284   1.182 -0.2723 -0.4295 -0.2655
  990SOL     OW 2968   2.596   0.790   3.096  0.1327  0.0419  0.7223
  990SOL    HW1 2969   2.666   0.791   3.022  0.2014  0.0132 -1.0320
  990SOL    HW2 2970   2.590   0.882   0.040 -0.4119 -1.7702  0.7942
  991SOL     OW 2971   0.246   1.288   0.452 -0.5544 -0.4870 -0.2890
  991SOL    HW1 2972   0.188   1.202   0.454 -2.9512  0.6994  4.0536
  991SOL    HW2 2973   0.347   1.266   0.464  0.7465  1.5846 -3.2737
  992SOL     OW 2974   1.946   1.273   1.904 -0.4141 -0.1613  0.3376
  992SOL    HW1 2975   1.902   1.346   1.958  2.1791 -3.7108  0.9546
  992SOL    HW2 2976   2.040   1.302   1.874  4.4960 -1.6888 -1.1812
  993SOL     OW 2977   0.325   2.278   0.748 -0.1437  0.1283  0.3264
  993SOL    HW1 2978   0.318   2.323   0.842 -2.2006 -0.2133  1.1366
  993SOL    HW2 2979   0.351   2.345   0.669  0.1395 -0.9184 -4.4667
  994SOL     OW 2980   2.948   1.850   1.840  0.3082  0.1708 -0.0515
  994SOL    HW1 2981   2.884   1.774   1.854  0.2863  0.3720 -1.7535
  994SOL    HW2 2982   2.920   1.916   1.765 -0.5156  0.0825 -0.0457
  995SOL     OW 2983   1.957   1.832   2.704 -0.8145  0.3470 -0.3187
  995SOL    HW1 2984   1.874   1.879   2.664  0.2670  2.0705  2.0062
  995SOL    HW2 2985   2.040   1.890   2.673  0.3040  2.3475 -1.9911
  996SOL     OW 2986   2.118   2.340   0.538  0.5071  0.0941 -0.2206
  996SOL    HW1 2987   2.027   2.317   0.502 -0.8999 -0.8279  0.2305
  996SOL    HW2 2988   2.188   2.267   0.526 -3.7984 -1.1722  0.7293
  997SOL     OW 2989   0.957   1.634   2.187  0.2784 -0.5025  0.6156
  997SOL    HW1 2990   0.904   1.623   2.271  1.6778  0.6420 -2.7259
  997SOL    HW2 2991   1.042   1.581   2.196  1.4728 -1.2272 -1.2955
  998SOL     OW 2992   3.011   2.466   0.595  0.0019  0.4477  0.1553
  998SOL    HW1 2993   2.957   2.385   0.633 -2.2294 -2.7671  3.3389
  998SOL    HW2 2994   3.093   2.440   0.534  0.4644 -2.2376  0.3800
  999SOL     OW 2995   0.632   2.960   0.386 -0.2336  0.0425  0.6371
  999SOL    HW1 2996   0.590   2.864   0.380  0.3679 -2.7128  0.0884
  999SOL    HW2 2997   0.624   2.994   0.479  0.8124 -0.0941 -2.0740
 1000SOL     OW 2998   1.218   0.178   0.212  0.2534  0.3592  0.2609
 1000SOL    HW1 2999   1.270   0.250   0.163  2.1386  0.5454  1.3331
 1000SOL    HW2 3000   1.119   0.203   0.231 -1.0397 -0.5549  3.1555
   3.10219   3.10219   3.10219
