1000 SPC/Fw water molecules t= 295.00000 step= 295000
 3000
    1SOL     OW    1   2.502   3.058   0.834  0.4338 -0.2720  0.3279
    1SOL    HW1    2   2.552   3.017   0.753  0.9117 -0.0193  0.0912
    1SOL    HW2    3   2.562   3.060   0.915  2.0046  1.8124 -1.8991
    2SOL     OW    4   2.843   2.030   0.890  0.7270  0.2412  0.1479
    2SOL    HW1    5   2.743   2.004   0.882 -2.3635 -0.2549 -1.2558
    2SOL    HW2    6   2.885   2.030   0.796  1.3730 -1.5523 -0.9289
    3SOL     OW    7   0.853   2.676   2.833  0.1881  0.0567 -0.5829
    3SOL    HW1    8   0.779   2.705   2.893  1.0819  1.3252 -0.2431
    3SOL    HW2    9   0.818   2.608   2.761 -1.1964 -1.9735  1.2840
    4SOL     OW   10   2.042   2.285   1.644  0.7762  0.3451 -0.0299
    4SOL    HW1   11   2.108   2.322   1.575  0.5580  2.2793  0.4800
    4SOL    HW2   12   2.046   2.183   1.647  0.3665  0.3221  1.6503
    5SOL     OW   13   1.618   0.974   1.198  0.6668  0.3667  0.0379
    5SOL    HW1   14   1.560   0.887   1.216 -2.6945 -1.1620  1.4221
    5SOL    HW2   15   1.648   1.004   1.289 -0.8627  2.0161  1.2432
    6SOL     OW   16   2.171   2.778   0.166 -0.5886 -0.0573 -0.2679
    6SOL    HW1   17   2.238   2.824   0.220 -0.5191 -2.8349  0.0253
    6SOL    HW2   18   2.079   2.815   0.190 -0.0301 -0.2346  0.7236
    7SOL     OW   19   2.812   1.213   1.281 -0.0882 -0.1546  0.5044
    7SOL    HW1   20   2.902   1.182   1.323 -0.3501 -3.6419 -0.8941
    7SOL    HW2   21   2.818   1.304   1.238 -0.4556 -1.5141 -0.4949
    8SOL     OW   22   1.544   2.347   1.044  0.3930 -0.0972 -0.7279
    8SOL    HW1   23   1.496   2.378   1.127  0.5982  1.3278  1.1317
    8SOL    HW2   24   1.556   2.248   1.055 -2.4352  0.9698 -1.1094
    9SOL     OW   25   1.403   2.950   2.189  1.0063  0.2827  0.5908
    9SOL    HW1   26   1.445   2.862   2.163  0.0915  2.2319  1.1067
    9SOL    HW2   27   1.319   2.962   2.130 -1.3536 -0.1801  0.6622
   10SOL     OW   28   0.775   2.030   1.027  0.2506 -0.3359  0.0758
   10SOL    HW1   29   0.799   1.931   1.021 -0.5854 -2.5243  1.3961
   10SOL    HW2   30   0.857   2.084   0.999  2.6659  0.1910  0.9726
   11SOL     OW   31   1.847   1.440   1.086  0.1467 -0.6725 -0.1247
   11SOL    HW1   32   1.938   1.469   1.125  0.9420  1.6636 -0.0447
   11SOL    HW2   33   1.788   1.400   1.160 -0.0951 -0.5418 -1.4009
   12SOL     OW   34   2.574   2.660   1.671 -0.0485  0.2124 -0.1064
   12SOL    HW1   35   2.642   2.714   1.620 -1.5556 -0.7748  0.1967
   12SOL    HW2   36   2.540   2.718   1.749 -2.8109  3.2810  2.0094
   13SOL     OW   37   2.359   2.912   0.310  0.1228  0.6979  0.8033
   13SOL    HW1   38   2.313   2.990   0.358  2.1861  1.5617  0.1444
   13SOL    HW2   39   2.440   2.943   0.257  0.9750 -0.0352 -0.9151
   14SOL     OW   40   1.847   2.248   0.723  0.2529  0.4603 -0.2672
   14SOL    HW1   41   1.834   2.172   0.658  1.5913  0.7352 -2.0814
   14SOL    HW2   42   1.937   2.257   0.764  1.0950  1.4208 -1.5799
   15SOL     OW   43   0.022   2.102   2.168 -0.8169 -0.3300  0.0098
   15SOL    HW1   44   0.124   2.092   2.157 -0.4222  1.3609 -0.9763
   15SOL    HW2   45   3.057   2.028   2.221  0.1489 -0.8656  2.2957
   16SOL     OW   46   2.021   2.673   0.768  0.2598  0.5830 -0.1903
   16SOL    HW1   47   2.087   2.756   0.755  0.9912 -1.7239  3.6330
   16SOL    HW2   48   1.969   2.668   0.858 -0.2043 -1.0158  0.7195
   17SOL     OW   49   0.707   0.042   1.181 -0.6853  0.1628  0.2304
   17SOL    HW1   50   0.733   3.019   1.188  3.2926 -4.1392 -1.0354
   17SOL    HW2   51   0.746   0.089   1.263 -2.6661 -0.8912  0.2656
   18SOL     OW   52   1.503   1.036   0.142  0.5643  0.0795  0.0425
   18SOL    HW1   53   1.405   1.056   0.153 -0.8652 -1.3105 -0.9558
   18SOL    HW2   54   1.522   0.971   0.065  2.9202  1.0700 -1.5332
   19SOL     OW   55   1.767   1.717   0.228 -0.1492 -0.1655 -0.6438
   19SOL    HW1   56   1.866   1.734   0.204  2.8501  1.2062 -2.7476
   19SOL    HW2   57   1.762   1.626   0.276  0.3194  1.2113  0.3052
   20SOL     OW   58   2.491   1.510   2.022 -0.0574 -0.3211 -0.5143
   20SOL    HW1   59   2.433   1.591   2.023 -1.9576  0.8470  1.8211
   20SOL    HW2   60   2.491   1.461   2.113  1.5760 -1.1946 -1.6985
   21SOL     OW   61   1.141   1.237   0.579  0.1165  0.2124 -0.0012
   21SOL    HW1   62   1.179   1.263   0.486  0.4547  4.1633 -0.2524
   21SOL    HW2   63   1.042   1.256   0.578  0.3202  1.7361 -1.7615
   22SOL     OW   64   2.011   0.014   1.583 -0.0804  0.0710  0.6384
   22SOL    HW1   65   2.036   3.028   1.663  0.5996  0.3364  3.1048
   22SOL    HW2   66   2.069   0.008   1.496 -0.1166  2.1613 -0.2582
   23SOL     OW   67   2.958   0.640   1.922 -0.0466  0.0682 -0.0904
   23SOL    HW1   68   2.938   0.715   1.990  0.1995  1.2833 -0.6392
   23SOL    HW2   69   3.022   0.669   1.846  1.4788 -0.0162 -1.7898
   24SOL     OW   70   2.627   2.641   0.276 -0.2161  0.1919  0.0912
   24SOL    HW1   71   2.532   2.656   0.317  0.8516  0.7219  1.1165
   24SOL    HW2   72   2.628   2.656   0.175  0.0046 -1.4574 -0.7209
   25SOL     OW   73   1.119   0.262   2.177  0.0838 -0.4755  0.9433
   25SOL    HW1   74   1.211   0.238   2.202 -4.0232 -1.6639 -0.8648
   25SOL    HW2   75   1.066   0.304   2.253 -1.5220 -0.6941 -0.6803
   26SOL     OW   76   1.775   2.273   0.425 -0.4920  0.3217 -0.1545
   26SOL    HW1   77   1.866   2.231   0.423 -0.3675  2.5449  1.4293
   26SOL    HW2   78   1.723   2.264   0.336 -0.5153  1.7654 -0.9350
   27SOL     OW   79   2.390   1.555   0.021  0.5818  0.1384  0.0366
   27SOL    HW1   80   2.308   1.514   3.058  0.2226  0.1516  1.9292
   27SOL    HW2   81   2.458   1.491   0.063  1.5815  1.0427  0.8277
   28SOL     OW   82   0.639   1.501   1.661 -0.1390  0.0915  0.0097
   28SOL    HW1   83   0.675   1.491   1.754  0.5783 -0.6708 -1.9352
   28SOL    HW2   84   0.713   1.540   1.606 -0.0838 -1.6549 -0.5387
   29SOL     OW   85   2.233   2.348   1.475 -0.1328 -0.5785  0.8419
   29SOL    HW1   86   2.211   2.331   1.374 -0.4891 -1.1063 -0.2628
   29SOL    HW2   87   2.296   2.427   1.481 -1.1813  0.1549 -0.4624
   30SOL     OW   88   1.507   0.333   0.402 -0.1716 -0.1773  0.2703
   30SOL    HW1   89   1.516   0.350   0.501 -2.3894 -0.7135  0.3822
   30SOL    HW2   90   1.410   0.346   0.378  2.2088 -0.2583 -2.7894
   31SOL     OW   91   1.895   2.521   1.670 -0.0541 -0.1286 -0.0518
   31SOL    HW1   92   1.827   2.524   1.749 -1.5940 -1.7478  0.6807
   31SOL    HW2   93   1.944   2.429   1.667  0.5036  1.8411  3.0902
   32SOL     OW   94   0.812   1.681   0.955 -1.3784  0.1438 -0.1334
   32SOL    HW1   95   0.728   1.708   0.912  3.1632 -1.2563  2.7519
   32SOL    HW2   96   0.894   1.734   0.922  1.1528 -0.8036 -1.3633
   33SOL     OW   97   0.130   0.228   2.570 -0.8808  0.0318 -0.1395
   33SOL    HW1   98   0.215   0.191   2.611  1.0956 -0.8981  0.7354
   33SOL    HW2   99   0.158   0.283   2.489  0.6460  2.3237 -2.9130
   34SOL     OW  100   2.006   2.986   0.441  0.4568 -0.2737 -0.0938
   34SOL    HW1  101   1.937   3.058   0.464 -0.0319  0.3982 -0.2957
   34SOL    HW2  102   1.966   2.917   0.377 -0.1082  1.8207 -0.5470
   35SOL     OW  103   2.193   2.691   1.441  0.2809  0.2071 -0.2134
   35SOL    HW1  104   2.234   2.781   1.419  2.7533  0.8036 -0.7701
   35SOL    HW2  105   2.150   2.651   1.360 -0.3092 -1.0202 -1.1666
   36SOL     OW  106   1.657   2.378   2.401  0.3934 -0.7422 -0.2043
   36SOL    HW1  107   1.706   2.304   2.354  0.5958  2.1216  1.7927
   36SOL    HW2  108   1.714   2.426   2.474 -1.2093  0.4251 -2.1832
   37SOL     OW  109   0.835   0.196   1.883  0.8313  0.2758  0.0276
   37SOL    HW1  110   0.745   0.144   1.880 -0.8006 -0.1195 -0.6596
   37SOL    HW2  111   0.899   0.139   1.930 -2.3556 -0.0977  2.6552
   38SOL     OW  112   2.951   0.232   2.568 -0.3598  0.1960  0.2807
   38SOL    HW1  113   2.902   0.199   2.652  0.8092 -0.6872  1.6240
   38SOL    HW2  114   3.049   0.210   2.565 -1.7210 -0.9465 -1.4190
   39SOL     OW  115   2.196   0.766   1.549 -0.1621  0.1091 -0.0183
   39SOL    HW1  116   2.133   0.814   1.618 -1.3622  2.3387 -1.1887
   39SOL    HW2  117   2.152   0.776   1.457 -2.8788  3.1918  0.4770
   40SOL     OW  118   1.129   2.789   0.077  0.0383 -0.6229  0.2015
   40SOL    HW1  119   1.043   2.802   0.019 -0.3444 -1.4402 -2.8766
   40SOL    HW2  120   1.145   2.879   0.125  1.0341 -0.7101 -1.7578
   41SOL     OW  121   2.471   1.248   1.073  0.4048  0.6870  0.3122
   41SOL    HW1  122   2.471   1.310   1.155 -0.6624 -1.4054 -2.0827
   41SOL    HW2  123   2.531   1.169   1.085 -1.3137  0.0454  0.1998
   42SOL     OW  124   0.142   0.440   1.114 -0.2466 -0.0430 -0.5128
   42SOL    HW1  125   0.219   0.490   1.156 -0.0364  0.5176 -1.4011
   42SOL    HW2  126   0.169   0.360   1.057  0.2678 -1.2050  1.3440
   43SOL     OW  127   2.698   1.653   2.666  0.3872 -0.2966  0.4104
   43SOL    HW1  128   2.619   1.660   2.733 -0.4556 -1.3285  1.2691
   43SOL    HW2  129   2.678   1.582   2.594 -1.8035 -1.5781  0.9977
   44SOL     OW  130   2.570   0.028   1.756  0.4313  0.0654  0.2038
   44SOL    HW1  131   2.649   0.009   1.692  4.2387 -1.7541 -1.4280
   44SOL    HW2  132   2.603   0.033   1.852 -1.3843 -2.1409 -0.8962
   45SOL     OW  133   0.738   3.065   1.650 -0.0031 -0.2347  0.0649
   45SOL    HW1  134   0.829   3.014   1.654  0.8407 -0.2616 -0.1908
   45SOL    HW2  135   0.686   3.059   1.733  2.0240 -2.3785 -2.5502
   46SOL     OW  136   1.351   2.878   2.664  0.8148 -0.1120  0.0717
   46SOL    HW1  137   1.306   2.789   2.695 -1.3682  0.3394 -1.2399
   46SOL    HW2  138   1.363   2.936   2.743 -1.1895 -1.3795 -1.4965
   47SOL     OW  139   1.833   1.902   0.685 -0.1028  0.6480  0.0218
   47SOL    HW1  140   1.794   1.861   0.770  0.2184  1.2524 -0.9834
   47SOL    HW2  141   1.929   1.944   0.710  2.5377 -0.7158  0.1213
   48SOL     OW  142   0.979   2.299   0.503 -0.4240 -0.2179 -0.3321
   48SOL    HW1  143   0.927   2.370   0.458  2.7303 -2.1574  0.1381
   48SOL    HW2  144   0.930   2.265   0.583  0.8247  0.3452  1.2960
   49SOL     OW  145   2.194   3.048   2.447  0.0716 -0.1179  0.0497
   49SOL    HW1  146   2.259   2.974   2.429  0.5888 -0.1443 -0.4125
   49SOL    HW2  147   2.160   3.048   2.543  1.7936  3.1418  0.1910
   50SOL     OW  148   1.794   0.305   0.202  0.1011  0.3582  0.2260
   50SOL    HW1  149   1.801   0.392   0.251 -0.0605 -0.0464  0.1373
   50SOL    HW2  150   1.711   0.324   0.146  0.0607  0.7576 -0.1838
   51SOL     OW  151   2.086   0.873   0.684  0.1335  0.3329  0.1837
   51SOL    HW1  152   2.050   0.930   0.607 -1.8469 -0.4795 -0.2176
   51SOL    HW2  153   2.012   0.838   0.743  1.1038  2.4175 -2.4847
   52SOL     OW  154   1.188   1.443   1.344 -0.0321  0.2889  1.1236
   52SOL    HW1  155   1.286   1.434   1.318  0.0593  0.7219 -0.4127
   52SOL    HW2  156   1.135   1.358   1.324 -0.7866  0.4144 -1.6779
   53SOL     OW  157   1.141   1.710   2.466  0.0327 -0.6219  0.0153
   53SOL    HW1  158   1.083   1.672   2.390 -1.4839  0.0307  0.5537
   53SOL    HW2  159   1.085   1.769   2.525  1.5252 -1.9528  0.9153
   54SOL     OW  160   2.394   0.216   1.655 -0.1270 -0.5224 -0.4737
   54SOL    HW1  161   2.472   0.165   1.694  3.3900 -0.3059  1.8051
   54SOL    HW2  162   2.428   0.262   1.569  0.9197 -0.0853 -0.9946
   55SOL     OW  163   2.828   1.888   0.627  0.1629  0.1965 -0.8700
   55SOL    HW1  164   2.790   1.810   0.679  0.5787 -2.4536  1.1133
   55SOL    HW2  165   2.759   1.947   0.584  0.4163  0.6591 -1.7488
   56SOL     OW  166   1.105   0.682   2.136  0.0197  0.4362  0.0901
   56SOL    HW1  167   1.173   0.623   2.179  0.4970  0.6755  1.5294
   56SOL    HW2  168   1.145   0.771   2.109 -2.9686  0.4952  1.4816
   57SOL     OW  169   1.470   1.272   3.046  0.0293 -0.0761  0.4261
   57SOL    HW1  170   1.505   1.191   0.023  0.1519  0.0457  0.1646
   57SOL    HW2  171   1.539   1.290   2.969  2.5327  1.5947 -2.0093
   58SOL     OW  172   0.232   0.965   1.430  0.3845  0.7238  0.3948
   58SOL    HW1  173   0.213   0.999   1.524  1.5496  3.4479  0.6375
   58SOL    HW2  174   0.200   0.868   1.421  0.5689 -3.3407 -2.9348
   59SOL     OW  175   1.634   2.908   0.055  0.1360  0.3550 -0.4219
   59SOL    HW1  176   1.667   2.902   3.037  0.9059 -1.8663 -1.0042
   59SOL    HW2  177   1.557   2.977   0.065 -0.4609  1.5758 -2.0111
   60SOL     OW  178   2.982   2.001   0.367  0.0251  0.0675  0.4217
   60SOL    HW1  179   2.909   1.948   0.414 -2.0784 -1.3659  1.0944
   60SOL    HW2  180   2.946   2.078   0.311  1.2746 -2.0843  1.2526
   61SOL     OW  181   1.409   2.802   0.553 -0.3166  0.0370  0.1187
   61SOL    HW1  182   1.436   2.727   0.615  1.6708 -3.2722 -0.4904
   61SOL    HW2  183   1.495   2.845   0.521 -1.3773 -2.7628  1.7185
   62SOL     OW  184   2.064   1.942   2.620  0.4002  0.3123 -0.3561
   62SOL    HW1  185   2.013   1.890   2.548  1.1359 -3.3564  0.5894
   62SOL    HW2  186   2.073   2.038   2.590  0.9249 -2.2915 -1.6543
   63SOL     OW  187   2.408   2.479   0.632  0.3177  0.0022  0.3209
   63SOL    HW1  188   2.386   2.539   0.552 -2.4492  1.4877  0.2383
   63SOL    HW2  189   2.318   2.460   0.681  0.6697 -0.8273  2.7774
   64SOL     OW  190   1.749   1.138   2.585  0.1033 -0.0608  0.0654
   64SOL    HW1  191   1.701   1.225   2.573  3.5781  1.2819  1.1716
   64SOL    HW2  192   1.709   1.086   2.662  1.2213 -1.5693  0.5508
   65SOL     OW  193   1.736   1.786   2.786  0.0409 -0.3044  0.2957
   65SOL    HW1  194   1.712   1.715   2.853  1.5502  4.0552 -1.8414
   65SOL    HW2  195   1.656   1.826   2.744  0.5372 -1.1246  0.5479
   66SOL     OW  196   0.318   0.825   1.806 -0.3665  0.0330  0.4018
   66SOL    HW1  197   0.395   0.851   1.869 -1.5120 -0.3232 -0.7412
   66SOL    HW2  198   0.352   0.772   1.726  0.2236  2.6776  0.9441
   67SOL     OW  199   2.283   2.818   2.785  0.1603  0.4837 -0.3020
   67SOL    HW1  200   2.277   2.773   2.878  3.8494 -1.2410 -0.3364
   67SOL    HW2  201   2.370   2.868   2.766 -1.5108  0.4083 -0.2147
   68SOL     OW  202   1.075   2.592   1.400 -0.6728 -0.1943 -0.6170
   68SOL    HW1  203   1.031   2.535   1.330  1.7500  1.3087  1.8552
   68SOL    HW2  204   1.172   2.556   1.411  2.2732 -0.6044 -0.5759
   69SOL     OW  205   0.657   2.571   0.255 -0.1498 -0.0272  0.0548
   69SOL    HW1  206   0.721   2.500   0.213  1.1087 -0.4141 -0.5391
   69SOL    HW2  207   0.571   2.554   0.204 -2.4739  0.2566 -1.5498
   70SOL     OW  208   2.337   0.124   2.637 -0.0155  0.5359 -0.2536
   70SOL    HW1  209   2.329   0.198   2.706 -0.8568 -0.1215 -0.9954
   70SOL    HW2  210   2.292   0.157   2.553  0.3579  1.6892 -0.5694
   71SOL     OW  211   0.590   1.303   2.389 -0.2290  0.2946  0.1131
   71SOL    HW1  212   0.622   1.395   2.422 -2.1529  0.1988 -1.2337
   71SOL    HW2  213   0.537   1.323   2.303  1.6195  0.5465  1.5266
   72SOL     OW  214   0.050   2.128   0.060 -0.2837 -0.0009 -0.2782
   72SOL    HW1  215   0.120   2.120   0.132 -0.3256  2.0669 -0.7900
   72SOL    HW2  216   3.063   2.198   0.085  3.2414  2.7252 -0.3694
   73SOL     OW  217   1.236   1.285   0.324  0.1474  0.3827 -0.2523
   73SOL    HW1  218   1.311   1.356   0.345  1.8579  2.5590 -0.8159
   73SOL    HW2  219   1.160   1.338   0.281 -2.3543  0.5886  2.1236
   74SOL     OW  220   2.183   2.643   2.626 -0.5536 -0.2092  0.3661
   74SOL    HW1  221   2.106   2.600   2.679 -0.7213 -2.1149  0.5627
   74SOL    HW2  222   2.225   2.717   2.679 -0.7559  0.3564  2.2690
   75SOL     OW  223   2.242   1.909   0.948 -0.2356 -0.1293  0.1061
   75SOL    HW1  224   2.241   1.897   1.053 -0.6798  0.7216  3.8904
   75SOL    HW2  225   2.279   1.998   0.933  0.4786 -2.2063  1.2438
   76SOL     OW  226   1.808   2.446   1.434 -0.6308 -0.5603  0.3944
   76SOL    HW1  227   1.770   2.497   1.358  0.6728 -4.8803  1.1301
   76SOL    HW2  228   1.841   2.504   1.513 -0.3833 -0.4462  0.5984
   77SOL     OW  229   2.336   0.090   2.087 -0.0121 -0.3416 -0.3298
   77SOL    HW1  230   2.255   0.115   2.151  0.3025  1.3498 -0.1256
   77SOL    HW2  231   2.303   0.084   1.991 -0.9002  0.1524  2.7649
   78SOL     OW  232   1.530   0.873   2.985  0.1427  0.3849 -0.0290
   78SOL    HW1  233   1.479   0.837   2.906  1.4576  0.8734  1.9031
   78SOL    HW2  234   1.553   0.796   3.052 -1.0954  2.0768  1.4631
   79SOL     OW  235   2.454   1.514   2.302  0.1552  0.4242  0.1188
   79SOL    HW1  236   2.401   1.593   2.330  1.7452 -3.0467  0.4949
   79SOL    HW2  237   2.525   1.490   2.378 -0.2302 -0.3984 -0.4779
   80SOL     OW  238   1.889   1.425   1.628 -0.5842 -0.0773 -0.1472
   80SOL    HW1  239   1.948   1.402   1.708 -0.7042  1.8085  0.0622
   80SOL    HW2  240   1.909   1.355   1.558 -0.2769  1.8411 -0.0550
   81SOL     OW  241   1.243   0.597   1.225 -0.0086 -0.4426 -0.2283
   81SOL    HW1  242   1.237   0.553   1.320 -0.2726  0.4731 -0.5237
   81SOL    HW2  243   1.233   0.521   1.158 -0.4786  0.5959  4.9840
   82SOL     OW  244   1.456   2.565   1.781  0.6539 -0.1854 -0.3814
   82SOL    HW1  245   1.415   2.551   1.879 -2.0977 -2.1242  0.9394
   82SOL    HW2  246   1.388   2.620   1.725  0.6747 -1.7534  3.5053
   83SOL     OW  247   0.188   0.109   0.661 -0.1851  0.5581  0.3014
   83SOL    HW1  248   0.146   0.020   0.689 -0.9518  0.4786  0.8257
   83SOL    HW2  249   0.126   0.160   0.602  4.1771 -0.5166  2.3800
   84SOL     OW  250   0.754   1.134   0.042  0.2251  0.0118  0.3946
   84SOL    HW1  251   0.802   1.146   0.129 -1.2372  0.6286  0.3680
   84SOL    HW2  252   0.691   1.214   0.034 -2.1965  1.2090 -0.3363
   85SOL     OW  253   2.788   1.762   1.680 -0.1529 -0.3104 -0.4603
   85SOL    HW1  254   2.861   1.726   1.738  0.0137 -0.6174 -1.2455
   85SOL    HW2  255   2.712   1.788   1.743 -0.6297 -1.3369  1.6019
   86SOL     OW  256   3.012   2.644   1.497  0.3101  0.3852  0.4623
   86SOL    HW1  257   0.026   2.621   1.466 -0.3798  0.5133  1.7602
   86SOL    HW2  258   2.960   2.561   1.471 -2.4268 -1.6482  1.9213
   87SOL     OW  259   0.526   0.233   2.431 -0.0178 -0.1149  0.1105
   87SOL    HW1  260   0.624   0.252   2.405  1.5073  2.0883  1.7196
   87SOL    HW2  261   0.483   0.163   2.370  0.1866 -2.3396  0.5300
   88SOL     OW  262   0.610   2.217   1.148 -0.9723 -0.1965 -0.2384
   88SOL    HW1  263   0.676   2.149   1.107  3.0186  0.2372  0.4875
   88SOL    HW2  264   0.532   2.171   1.195 -0.3331  0.8156  0.1471
   89SOL     OW  265   0.901   0.551   1.535 -0.3512  0.1249  0.1643
   89SOL    HW1  266   0.996   0.561   1.571  0.6189 -3.0028  0.1211
   89SOL    HW2  267   0.856   0.487   1.599  0.2371  2.4284 -2.2062
   90SOL     OW  268   2.914   1.466   1.666  0.4379  0.1002 -0.0627
   90SOL    HW1  269   2.957   1.522   1.738 -1.3031  1.9119 -1.1032
   90SOL    HW2  270   2.909   1.367   1.690 -0.8611 -1.4857  0.5713
   91SOL     OW  271   1.185   1.040   1.059  0.0729 -0.0105 -0.0385
   91SOL    HW1  272   1.137   0.962   1.106  0.9288 -1.5823 -1.5813
   91SOL    HW2  273   1.160   1.044   0.961  2.3615  0.2635 -0.9654
   92SOL     OW  274   2.443   0.812   1.070  0.0851 -0.0603 -0.1452
   92SOL    HW1  275   2.407   0.862   1.150 -0.3786 -0.3164 -1.6253
   92SOL    HW2  276   2.382   0.824   0.987 -0.3619  0.7884 -0.0836
   93SOL     OW  277   2.083   0.777   2.505 -0.1907  0.1862 -0.0986
   93SOL    HW1  278   2.165   0.732   2.462 -1.7120  0.9650 -0.0323
   93SOL    HW2  279   2.065   0.869   2.468 -1.3705 -0.8263  1.2384
   94SOL     OW  280   2.354   1.754   2.350 -0.1350 -0.2215  0.7435
   94SOL    HW1  281   2.337   1.852   2.319 -2.5630  0.0600 -2.1980
   94SOL    HW2  282   2.389   1.754   2.445 -1.4867 -1.4861  1.5831
   95SOL     OW  283   2.043   0.571   0.916 -0.4132 -0.7235 -0.1028
   95SOL    HW1  284   1.960   0.528   0.949  0.5654  4.1845 -0.4744
   95SOL    HW2  285   2.127   0.530   0.952 -1.1241  2.0763 -2.3795
   96SOL     OW  286   2.549   2.799   1.950  0.0824 -0.2142  0.0874
   96SOL    HW1  287   2.449   2.782   1.932  0.4707 -0.5975 -1.2474
   96SOL    HW2  288   2.569   2.894   1.984  0.0803  2.0994 -1.1472
   97SOL     OW  289   2.366   0.551   1.281  0.2738  0.0981  0.2417
   97SOL    HW1  290   2.345   0.647   1.255  1.9176  3.7127 -1.0755
   97SOL    HW2  291   2.331   0.536   1.378 -0.8955 -0.5589 -0.1438
   98SOL     OW  292   1.419   2.167   1.669  0.0197 -0.0770  0.4636
   98SOL    HW1  293   1.500   2.124   1.630  1.5289 -0.5080 -2.2143
   98SOL    HW2  294   1.430   2.270   1.668  3.8668  4.3051 -0.1736
   99SOL     OW  295   2.613   2.254   1.625  0.4071 -0.1881  0.1762
   99SOL    HW1  296   2.693   2.189   1.622 -1.4632 -1.7490  0.8770
   99SOL    HW2  297   2.533   2.203   1.588  1.0729 -1.0101  3.8217
  100SOL     OW  298   0.912   0.655   2.975  0.4267  0.0579 -0.2559
  100SOL    HW1  299   0.837   0.606   2.919 -4.9246 -0.7890 -1.8175
  100SOL    HW2  300   0.862   0.722   3.038  3.4732 -0.9829 -0.0602
  101SOL     OW  301   2.237   0.236   3.002 -0.4101  0.2105 -0.1230
  101SOL    HW1  302   2.141   0.198   3.013 -2.7007  0.0210  3.1336
  101SOL    HW2  303   2.238   0.330   3.046 -1.5687  2.9775 -0.3275
  102SOL     OW  304   0.435   0.666   1.629  0.0499 -0.0484  0.1453
  102SOL    HW1  305   0.517   0.701   1.585 -2.2073  1.8515  1.4106
  102SOL    HW2  306   0.454   0.575   1.674  1.3563 -0.2579  2.8403
  103SOL     OW  307   0.093   0.629   2.950 -0.0743 -0.1969 -0.7649
  103SOL    HW1  308   0.168   0.699   2.957  2.8087  2.7956 -1.9126
  103SOL    HW2  309   0.118   0.573   2.871 -2.1522  2.7255  0.5898
  104SOL     OW  310   0.676   0.404   2.606  0.2860 -0.3337  0.1248
  104SOL    HW1  311   0.777   0.384   2.599 -1.2063  0.8033 -2.6459
  104SOL    HW2  312   0.623   0.339   2.546  0.2072 -1.4665 -0.7172
  105SOL     OW  313   2.211   1.906   1.804 -0.3221  0.2635 -0.1054
  105SOL    HW1  314   2.145   1.899   1.880  1.1966 -1.1339  0.9071
  105SOL    HW2  315   2.259   1.994   1.815 -1.2164 -0.4704 -1.1226
  106SOL     OW  316   1.846   0.557   0.296  0.1343 -0.2451 -0.1960
  106SOL    HW1  317   1.848   0.589   0.394 -0.5526 -1.8103  1.4089
  106SOL    HW2  318   1.857   0.624   0.222  1.9992 -2.0634  0.4649
  107SOL     OW  319   0.091   1.729   0.951  0.2011  0.0730  0.5063
  107SOL    HW1  320   0.086   1.752   1.051  2.3556 -0.5055 -1.4114
  107SOL    HW2  321   0.139   1.809   0.905  3.8087  1.5453  0.7617
  108SOL     OW  322   2.733   2.820   1.540 -0.3118 -0.2097  0.2150
  108SOL    HW1  323   2.751   2.911   1.580  2.1404  0.5831  0.9705
  108SOL    HW2  324   2.778   2.795   1.459 -0.9606 -0.5676  1.2370
  109SOL     OW  325   1.822   2.863   1.031 -0.4176  0.5614  0.0834
  109SOL    HW1  326   1.823   2.930   0.959  0.0417  0.0861  2.1712
  109SOL    HW2  327   1.916   2.826   1.051  0.8221 -1.4726 -0.9498
  110SOL     OW  328   0.628   2.196   2.554  0.7839 -0.1468  0.1509
  110SOL    HW1  329   0.643   2.094   2.565  1.2292 -0.2004  0.9300
  110SOL    HW2  330   0.626   2.228   2.456 -1.2454 -2.8645  2.2353
  111SOL     OW  331   1.464   2.373   2.199  0.3575 -0.0851  0.6958
  111SOL    HW1  332   1.412   2.429   2.129  0.0869  1.9608  1.7305
  111SOL    HW2  333   1.543   2.429   2.234 -1.9035  1.7285  1.1068
  112SOL     OW  334   2.121   2.072   0.020  0.2657 -0.2225  0.2954
  112SOL    HW1  335   2.131   2.154   0.081  1.5227 -2.2696  1.9280
  112SOL    HW2  336   2.038   2.085   3.041  0.4387 -0.9595  1.7492
  113SOL     OW  337   1.508   1.931   1.272 -0.1847  0.0676  0.0599
  113SOL    HW1  338   1.409   1.948   1.262  0.0439  1.1938 -0.2523
  113SOL    HW2  339   1.544   1.850   1.218  1.1623 -2.3247 -0.0097
  114SOL     OW  340   2.846   0.876   0.795  0.4792  0.4644  0.1468
  114SOL    HW1  341   2.768   0.892   0.729  1.2480 -0.2110 -3.0011
  114SOL    HW2  342   2.858   0.947   0.862 -3.2005 -0.0824  1.1034
  115SOL     OW  343   0.767   0.844   0.056  0.1204 -0.3628 -0.2111
  115SOL    HW1  344   0.753   0.943   0.037 -1.1613 -0.1221  0.3063
  115SOL    HW2  345   0.676   0.811   0.095 -1.0557  1.9008  1.7429
  116SOL     OW  346   2.619   1.409   2.490  0.4129 -0.1461 -0.3200
  116SOL    HW1  347   2.593   1.338   2.553  0.2636  0.0930  0.1140
  116SOL    HW2  348   2.684   1.374   2.424 -3.0676  1.6594  0.2419
  117SOL     OW  349   0.092   2.973   0.803  0.4131  0.4697 -0.3670
  117SOL    HW1  350   0.145   2.888   0.835  1.4358 -1.3638 -0.8856
  117SOL    HW2  351   0.053   2.954   0.712 -0.3282  0.7655  0.1666
  118SOL     OW  352   0.984   1.923   2.601 -0.0498 -0.1839 -0.0664
  118SOL    HW1  353   1.054   1.957   2.669  2.8569  0.2867  0.4687
  118SOL    HW2  354   0.889   1.944   2.627 -1.4456  1.9429  1.5815
  119SOL     OW  355   0.395   2.455   0.111 -0.7985 -0.2049 -0.0506
  119SOL    HW1  356   0.389   2.385   0.185  2.0338  1.7065 -0.6526
  119SOL    HW2  357   0.301   2.471   0.078 -1.6096  0.0096 -0.8367
  120SOL     OW  358   1.174   0.694   3.049  0.0665 -0.1091 -0.5970
  120SOL    HW1  359   1.238   0.688   2.967  2.7066  1.5946 -1.7276
  120SOL    HW2  360   1.079   0.699   3.016  2.4301 -2.3173  3.7492
  121SOL     OW  361   1.436   2.855   0.933  0.1413 -0.0523 -0.4086
  121SOL    HW1  362   1.447   2.953   0.924  0.9600  0.2893  0.2890
  121SOL    HW2  363   1.478   2.820   1.022  1.3704 -0.7137 -0.0851
  122SOL     OW  364   2.424   2.564   1.481 -0.3066 -0.3108  0.1815
  122SOL    HW1  365   2.466   2.584   1.570 -2.7568 -0.1576  1.0976
  122SOL    HW2  366   2.360   2.641   1.461  1.5224  2.2352 -0.3548
  123SOL     OW  367   0.539   2.267   0.799 -0.1551  0.0708 -0.0129
  123SOL    HW1  368   0.480   2.202   0.855 -0.2111  0.5924 -0.8959
  123SOL    HW2  369   0.565   2.347   0.857 -0.7538 -0.4296  0.0798
  124SOL     OW  370   2.453   0.611   0.152 -0.1690 -0.0326 -0.2838
  124SOL    HW1  371   2.398   0.552   0.086 -0.7363  1.8508  4.5079
  124SOL    HW2  372   2.554   0.602   0.138  1.2185  0.2055 -0.0077
  125SOL     OW  373   0.609   1.215   0.370 -0.4711  0.1493 -0.1163
  125SOL    HW1  374   0.593   1.127   0.421  0.1097  1.6917  2.7618
  125SOL    HW2  375   0.705   1.214   0.337 -0.2005 -0.6177 -0.6651
  126SOL     OW  376   0.259   1.532   0.881 -0.2368  0.1923  0.1727
  126SOL    HW1  377   0.248   1.450   0.936 -2.6069  3.7180  0.1046
  126SOL    HW2  378   0.199   1.615   0.900 -0.9657  2.5552 -0.9037
  127SOL     OW  379   0.946   2.066   2.376  0.5156  0.3242 -0.5784
  127SOL    HW1  380   1.033   2.075   2.329 -3.2452 -1.8868 -0.9573
  127SOL    HW2  381   0.953   2.028   2.467 -0.8633 -0.4800 -4.8317
  128SOL     OW  382   0.905   1.140   2.879 -0.2083 -0.1590 -0.4180
  128SOL    HW1  383   1.005   1.129   2.895 -0.6432  1.2870  0.4132
  128SOL    HW2  384   0.857   1.130   2.967  1.0625 -1.3327 -0.3077
  129SOL     OW  385   2.558   1.581   0.736 -0.4277 -0.1579  0.1619
  129SOL    HW1  386   2.464   1.541   0.744 -0.5085 -0.4797 -0.5112
  129SOL    HW2  387   2.563   1.634   0.643  3.4088  1.5057  0.1159
  130SOL     OW  388   2.462   1.340   1.342  0.0806  0.0320 -0.2127
  130SOL    HW1  389   2.521   1.421   1.325 -1.2433 -0.6656  0.2231
  130SOL    HW2  390   2.510   1.271   1.402  0.4288 -0.1947  1.2636
  131SOL     OW  391   0.025   2.878   3.075  0.3761  0.1369 -0.2801
  131SOL    HW1  392   0.062   2.972   3.072  1.1566 -0.4697 -0.4413
  131SOL    HW2  393   0.070   2.824   0.073  1.3293  0.4960  0.8986
  132SOL     OW  394   0.630   1.779   0.784  0.7146 -0.4618 -1.0084
  132SOL    HW1  395   0.722   1.805   0.758  0.3407  0.5377  0.9837
  132SOL    HW2  396   0.561   1.847   0.747  0.0573  0.3434 -0.6515
  133SOL     OW  397   0.776   0.446   1.314 -0.3595  0.5931  0.1539
  133SOL    HW1  398   0.826   0.474   1.400 -1.5326  0.2738  4.5202
  133SOL    HW2  399   0.830   0.430   1.228 -0.6662 -0.0584  1.3053
  134SOL     OW  400   0.063   1.851   0.008  0.7231  0.2537  0.1943
  134SOL    HW1  401   3.058   1.814   3.043  0.6382  0.4276 -1.6207
  134SOL    HW2  402   0.058   1.952   0.025  0.4413 -0.1599 -4.3409
  135SOL     OW  403   1.617   0.640   1.670  0.1077 -0.4321 -0.1669
  135SOL    HW1  404   1.583   0.733   1.691  2.4270  1.5221  0.7321
  135SOL    HW2  405   1.561   0.587   1.600  0.1952  0.5671 -0.8924
  136SOL     OW  406   0.020   1.537   0.259 -0.3489 -0.4758 -0.0324
  136SOL    HW1  407   0.073   1.618   0.293  3.1451  1.0707 -1.4147
  136SOL    HW2  408   3.070   1.476   0.335 -1.9953  1.5352 -0.9728
  137SOL     OW  409   0.217   1.286   1.037 -0.0882 -0.5204 -0.1724
  137SOL    HW1  410   0.233   1.219   0.957  0.9501 -1.5235 -1.1194
  137SOL    HW2  411   0.116   1.285   1.061 -2.9493  0.3130  1.1113
  138SOL     OW  412   1.861   0.734   0.776  0.3248 -0.3949 -0.0410
  138SOL    HW1  413   1.931   0.663   0.809  1.4309  1.5460 -2.6264
  138SOL    HW2  414   1.828   0.799   0.850  1.2418  0.6324  0.9893
  139SOL     OW  415   1.788   2.610   0.204 -0.9874  0.3472 -0.4122
  139SOL    HW1  416   1.703   2.657   0.181  0.5610 -1.8427  1.1104
  139SOL    HW2  417   1.773   2.571   0.294 -1.6510  1.7006  0.9616
  140SOL     OW  418   1.221   1.676   1.651  0.0948 -0.1577  0.4102
  140SOL    HW1  419   1.219   1.733   1.735  2.4647 -0.6561 -2.9729
  140SOL    HW2  420   1.163   1.598   1.664  1.5108 -0.0648  1.3447
  141SOL     OW  421   1.691   1.923   0.456 -0.1721 -0.5577  0.8078
  141SOL    HW1  422   1.707   1.851   0.386  1.0770  1.3541 -2.3741
  141SOL    HW2  423   1.742   1.894   0.542  0.9299  1.5269  1.1738
  142SOL     OW  424   1.109   0.292   0.073  0.0212  0.4214 -0.2514
  142SOL    HW1  425   1.098   0.220   0.144  1.7740  0.1851 -0.0299
  142SOL    HW2  426   1.058   0.376   0.095  0.6543  0.8845 -1.8275
  143SOL     OW  427   0.383   2.268   2.972 -0.3485  0.4248  0.2863
  143SOL    HW1  428   0.428   2.278   2.884  1.9505 -1.2888  0.2283
  143SOL    HW2  429   0.296   2.320   2.990  0.0147  1.3564  3.0645
  144SOL     OW  430   1.464   2.847   1.255 -0.5659 -0.0465 -0.1149
  144SOL    HW1  431   1.365   2.863   1.285  0.3185  1.4099 -0.1970
  144SOL    HW2  432   1.521   2.925   1.288 -1.6807 -1.7247 -3.0093
  145SOL     OW  433   1.967   0.997   3.077  0.1255 -0.1942  0.1339
  145SOL    HW1  434   2.037   0.991   0.071  3.0073 -1.3458 -1.1061
  145SOL    HW2  435   1.903   1.076   0.023  0.1332  0.1675  0.6239
  146SOL     OW  436   0.141   2.346   1.001  0.5356  0.5582  0.2114
  146SOL    HW1  437   0.111   2.306   0.909 -0.1556  0.9390 -1.4388
  146SOL    HW2  438   0.072   2.324   1.073  1.9230  1.3034  0.2870
  147SOL     OW  439   2.171   0.141   1.818 -0.1675  0.3945  0.2505
  147SOL    HW1  440   2.134   0.047   1.811  2.4612  2.4091  0.6590
  147SOL    HW2  441   2.246   0.158   1.751 -2.3038 -0.8636  2.3365
  148SOL     OW  442   1.188   2.964   2.031  0.0308  0.1113 -0.6513
  148SOL    HW1  443   1.193   2.979   1.928 -1.5639  2.7313 -5.1177
  148SOL    HW2  444   1.111   3.017   2.063  0.5390 -3.0695  1.2870
  149SOL     OW  445   1.763   0.120   2.392  0.1811  0.2070  0.0369
  149SOL    HW1  446   1.687   0.057   2.412 -0.6486  3.1484  0.9765
  149SOL    HW2  447   1.731   0.198   2.335  0.2221 -1.0593  0.5590
  150SOL     OW  448   0.062   2.933   0.379 -0.1886  0.1302 -0.9844
  150SOL    HW1  449   0.063   3.024   0.329  0.7970  0.1675  0.5143
  150SOL    HW2  450   3.074   2.941   0.461  0.7894  2.6277  1.4813
  151SOL     OW  451   0.364   2.275   0.304 -0.7388  0.4050 -0.0125
  151SOL    HW1  452   0.423   2.270   0.385  1.4994 -0.6204 -1.2816
  151SOL    HW2  453   0.298   2.199   0.306  0.9939  0.0799  0.7174
  152SOL     OW  454   2.820   0.109   0.620  0.6295  0.7822  0.1590
  152SOL    HW1  455   2.836   0.149   0.711  0.6251 -1.2927 -1.7151
  152SOL    HW2  456   2.721   0.117   0.595  0.1390  0.5772 -2.2458
  153SOL     OW  457   2.445   0.254   0.994  0.5271  0.1209 -0.9799
  153SOL    HW1  458   2.473   0.193   0.914 -0.7361  1.3889  0.0268
  153SOL    HW2  459   2.501   0.238   1.077 -2.0744 -0.1722 -1.9832
  154SOL     OW  460   0.795   0.262   2.347  0.2190  0.6334  0.2160
  154SOL    HW1  461   0.869   0.284   2.411 -2.0911  0.9802  2.5628
  154SOL    HW2  462   0.808   0.289   2.251 -0.4010 -3.0945  1.9206
  155SOL     OW  463   0.324   1.345   1.272  0.9163 -0.2569  0.3409
  155SOL    HW1  464   0.377   1.430   1.281  0.8419 -0.8613 -2.5283
  155SOL    HW2  465   0.284   1.336   1.179 -1.1104 -0.0964  0.5444
  156SOL     OW  466   2.418   2.087   3.005  0.5650 -0.6815 -0.0086
  156SOL    HW1  467   2.472   2.090   2.921 -2.5145  2.6675 -0.4990
  156SOL    HW2  468   2.410   1.989   3.033 -1.2810 -0.0431  0.2570
  157SOL     OW  469   0.957   0.503   0.145 -0.5099  0.2283  0.0295
  157SOL    HW1  470   0.885   0.533   0.207  1.6845 -0.0449 -1.2727
  157SOL    HW2  471   1.025   0.573   0.120 -1.5083 -0.3059 -0.3769
  158SOL     OW  472   2.479   2.996   2.792 -0.3439  0.3506 -0.0335
  158SOL    HW1  473   2.430   3.058   2.728  0.8286  0.5566 -3.8428
  158SOL    HW2  474   2.485   3.038   2.883 -0.1808 -0.3311  2.1769
  159SOL     OW  475   0.572   0.314   0.609  0.0336  0.6865  0.2828
  159SOL    HW1  476   0.473   0.333   0.592 -1.9161 -0.8262 -1.3064
  159SOL    HW2  477   0.583   0.240   0.678  1.0099  3.3391  0.2728
  160SOL     OW  478   1.376   1.740   2.628 -0.0054 -0.2693  0.1996
  160SOL    HW1  479   1.300   1.720   2.559 -1.9075  0.1729 -0.8983
  160SOL    HW2  480   1.426   1.651   2.648  2.3187 -0.8138 -0.1968
  161SOL     OW  481   2.923   1.346   2.607 -0.1699 -0.2378 -0.2944
  161SOL    HW1  482   2.923   1.427   2.549 -2.5350  0.8247  0.8330
  161SOL    HW2  483   2.916   1.371   2.705 -2.1995 -0.0188  0.5261
  162SOL     OW  484   0.637   2.347   1.412  0.4053  0.3179 -0.2739
  162SOL    HW1  485   0.682   2.274   1.359 -1.8829 -0.4784 -0.0157
  162SOL    HW2  486   0.576   2.299   1.479 -2.9712 -0.1250 -1.4228
  163SOL     OW  487   2.164   0.185   2.253 -0.3569  0.1357 -0.0430
  163SOL    HW1  488   2.181   0.137   2.344 -0.7377 -2.1766 -0.7408
  163SOL    HW2  489   2.067   0.189   2.245 -0.8049 -1.8496  1.0679
  164SOL     OW  490   2.267   1.372   0.489  0.1289 -0.0990  0.2095
  164SOL    HW1  491   2.170   1.370   0.465 -2.6242 -1.5524  4.5182
  164SOL    HW2  492   2.320   1.432   0.424 -0.1337 -2.0394  0.8408
  165SOL     OW  493   0.060   0.369   1.559  0.4548  0.1773  0.3115
  165SOL    HW1  494   0.118   0.388   1.642  1.5489 -1.3393  1.4411
  165SOL    HW2  495   0.119   0.348   1.482 -2.2516  0.6095  0.2445
  166SOL     OW  496   2.126   0.955   0.204  0.0936 -0.2572 -0.2389
  166SOL    HW1  497   2.082   0.901   0.276 -0.0028  1.1481 -1.3753
  166SOL    HW2  498   2.203   1.013   0.239 -0.6647 -0.5039 -0.9280
  167SOL     OW  499   2.784   0.665   0.408  0.9017  0.5336 -0.4789
  167SOL    HW1  500   2.762   0.595   0.339 -0.8056  1.1466  2.0369
  167SOL    HW2  501   2.862   0.723   0.379 -0.6438  0.2299 -2.8234
  168SOL     OW  502   1.482   2.747   2.469 -0.6559  0.0208 -0.4887
  168SOL    HW1  503   1.436   2.813   2.531  1.6425  0.1948 -1.6610
  168SOL    HW2  504   1.435   2.660   2.469  2.6294  1.9336 -1.0950
  169SOL     OW  505   0.798   1.710   0.413 -0.5361  0.3682  0.4154
  169SOL    HW1  506   0.829   1.724   0.319 -2.4277 -2.1639  1.3333
  169SOL    HW2  507   0.766   1.614   0.425 -1.8620  0.8205 -2.6732
  170SOL     OW  508   2.926   0.483   1.185  0.8524 -0.5810 -0.3291
  170SOL    HW1  509   3.011   0.451   1.143 -2.1372 -0.3239 -0.9115
  170SOL    HW2  510   2.858   0.508   1.113 -0.2018 -2.7583 -0.0791
  171SOL     OW  511   1.373   2.113   2.876 -0.0305 -0.2286  0.0021
  171SOL    HW1  512   1.282   2.091   2.839  1.0104  0.2389  0.5811
  171SOL    HW2  513   1.385   2.065   2.962  2.4274 -0.6910 -1.9673
  172SOL     OW  514   2.889   2.822   1.298  0.4564 -0.5204  0.0064
  172SOL    HW1  515   2.933   2.911   1.322  1.1855 -0.2193  1.2566
  172SOL    HW2  516   2.955   2.748   1.278 -1.3493 -1.3715  0.8716
  173SOL     OW  517   1.513   0.768   2.741  0.3819 -0.0158  0.0866
  173SOL    HW1  518   1.607   0.755   2.776 -2.3037 -0.0370 -2.6670
  173SOL    HW2  519   1.511   0.762   2.641 -1.5446 -1.4918  2.4145
  174SOL     OW  520   1.607   3.072   2.654  0.3078  0.6893 -0.1742
  174SOL    HW1  521   1.558   0.078   2.673  0.0820 -0.1762  0.6472
  174SOL    HW2  522   1.594   3.029   2.565  1.0878 -1.1788  1.5706
  175SOL     OW  523   2.179   2.462   0.792  0.6706 -0.0677 -0.0419
  175SOL    HW1  524   2.131   2.368   0.793 -0.3373  1.3540  0.2499
  175SOL    HW2  525   2.116   2.543   0.789  1.6840 -0.5845 -1.3006
  176SOL     OW  526   1.460   0.246   2.725 -0.0614 -0.2976  0.3109
  176SOL    HW1  527   1.367   0.285   2.746  0.8683  1.7563 -0.4429
  176SOL    HW2  528   1.530   0.253   2.797 -0.4667 -1.6454  0.8950
  177SOL     OW  529   1.139   1.677   0.339  0.4550 -0.2127 -0.5596
  177SOL    HW1  530   1.150   1.767   0.297  0.5782  0.7237  0.2927
  177SOL    HW2  531   1.065   1.626   0.293 -0.7919 -0.7816  0.6633
  178SOL     OW  532   2.587   2.224   0.093  0.2651  0.3335 -0.4996
  178SOL    HW1  533   2.519   2.168   0.047 -0.4660  1.1108  0.6322
  178SOL    HW2  534   2.542   2.241   0.186 -1.0999 -1.3962  3.9996
  179SOL     OW  535   0.084   2.796   2.806  0.4424  0.3493  0.5659
  179SOL    HW1  536   0.052   2.825   2.899 -1.5546 -2.3807 -0.1672
  179SOL    HW2  537   0.015   2.833   2.739 -1.6852 -0.8491 -0.1717
  180SOL     OW  538   1.772   1.307   0.858 -0.7247  0.6360  0.4990
  180SOL    HW1  539   1.806   1.357   0.940 -1.1720  0.0397 -0.5062
  180SOL    HW2  540   1.671   1.307   0.859 -2.1274 -0.2422 -1.2618
  181SOL     OW  541   1.710   0.696   2.132 -0.5051 -0.0084 -0.1511
  181SOL    HW1  542   1.701   0.798   2.151  2.4245  0.1516 -1.1444
  181SOL    HW2  543   1.625   0.655   2.095  2.0113 -1.2511  1.1483
  182SOL     OW  544   2.638   2.933   2.357  0.3868 -0.7184 -0.4580
  182SOL    HW1  545   2.633   2.897   2.452 -2.0047 -0.0110 -0.4905
  182SOL    HW2  546   2.701   2.870   2.312 -1.7791  1.9979 -1.2276
  183SOL     OW  547   1.372   0.651   2.056  0.5138 -0.3010  0.5693
  183SOL    HW1  548   1.399   0.681   1.962 -1.3313  1.5724  2.1818
  183SOL    HW2  549   1.315   0.569   2.058 -0.8813  1.7296 -0.5480
  184SOL     OW  550   0.243   0.939   1.159 -0.4695 -0.0459  0.0379
  184SOL    HW1  551   0.167   0.888   1.116  0.4955 -1.3611 -1.3130
  184SOL    HW2  552   0.215   0.972   1.249  1.3470 -1.9140 -0.7987
  185SOL     OW  553   1.793   0.592   0.563 -0.2987  0.1198  0.3244
  185SOL    HW1  554   1.776   0.498   0.600 -0.6123  0.0043 -1.9087
  185SOL    HW2  555   1.824   0.651   0.636 -0.1289 -0.9659 -2.5239
  186SOL     OW  556   0.673   2.679   3.033 -0.3644 -0.1013  0.1014
  186SOL    HW1  557   0.594   2.737   3.064 -1.3186  2.0935  0.5615
  186SOL    HW2  558   0.650   2.577   3.033  0.0633 -0.3748 -1.2335
  187SOL     OW  559   2.429   0.937   2.897 -0.0471  0.5526 -0.2702
  187SOL    HW1  560   2.379   0.909   2.812  0.7537  0.6959  2.4753
  187SOL    HW2  561   2.381   0.897   2.975  2.3069  1.6095  0.6857
  188SOL     OW  562   3.024   1.522   1.419  0.0832 -0.2090 -0.3543
  188SOL    HW1  563   0.026   1.472   1.389 -0.6987  3.1807  2.7080
  188SOL    HW2  564   2.980   1.483   1.501  0.1387 -0.1133  0.4129
  189SOL     OW  565   2.645   0.238   0.016  0.1382 -0.7299 -0.7798
  189SOL    HW1  566   2.746   0.230   0.021 -2.4679 -1.6805  0.4056
  189SOL    HW2  567   2.630   0.327   3.043  0.3894  2.1737  1.1603
  190SOL     OW  568   1.181   1.221   2.031  0.5827  0.0709 -0.6001
  190SOL    HW1  569   1.259   1.278   2.010 -2.7363 -1.3852  0.8756
  190SOL    HW2  570   1.111   1.269   2.093  0.7143  2.9795 -1.4361
  191SOL     OW  571   2.771   0.450   1.807 -0.1185  0.3740 -0.5137
  191SOL    HW1  572   2.675   0.479   1.806  0.9068  0.2377  2.1603
  191SOL    HW2  573   2.830   0.528   1.843 -0.6068 -2.2373 -1.4053
  192SOL     OW  574   2.200   1.423   1.378 -0.3167 -0.0277 -0.3911
  192SOL    HW1  575   2.181   1.458   1.469 -0.4279  1.4621 -0.5846
  192SOL    HW2  576   2.299   1.411   1.359 -0.7124  3.2487  1.3378
  193SOL     OW  577   1.083   0.820   1.184  0.7557 -0.7972  0.4536
  193SOL    HW1  578   1.024   0.850   1.260 -0.1692  0.5823  0.7129
  193SOL    HW2  579   1.125   0.730   1.206 -3.7888 -1.0138  0.9712
  194SOL     OW  580   1.127   2.566   1.783  0.2561  0.6937  0.0659
  194SOL    HW1  581   1.180   2.605   1.704  0.6933  3.2320  0.2573
  194SOL    HW2  582   1.038   2.613   1.799 -2.4577 -1.9716 -0.0228
  195SOL     OW  583   1.718   0.228   2.837  0.5327  0.7739 -0.1668
  195SOL    HW1  584   1.755   0.213   2.748 -2.4540  1.9466 -0.9483
  195SOL    HW2  585   1.795   0.225   2.901  1.4341 -1.9735 -1.3327
  196SOL     OW  586   1.051   2.296   1.815 -0.1673 -0.0933  0.6282
  196SOL    HW1  587   0.976   2.255   1.757 -1.3637  0.3434 -2.6649
  196SOL    HW2  588   1.077   2.390   1.786 -0.6012 -1.3959  0.6790
  197SOL     OW  589   1.147   2.814   0.947  0.0795 -0.6744 -0.7272
  197SOL    HW1  590   1.108   2.814   0.855  1.4336  0.2745 -0.0926
  197SOL    HW2  591   1.251   2.804   0.945  1.6591  1.9160  2.7622
  198SOL     OW  592   1.000   0.864   0.696 -0.6359  0.2058 -0.3878
  198SOL    HW1  593   0.928   0.830   0.762  0.1406 -0.9211  2.2653
  198SOL    HW2  594   0.958   0.894   0.606 -0.4797 -1.5877 -2.2790
  199SOL     OW  595   2.966   2.662   1.792 -0.0424  0.3268 -0.4561
  199SOL    HW1  596   2.971   2.686   1.694  0.6403 -1.0494  0.4641
  199SOL    HW2  597   2.995   2.742   1.852  0.6339 -1.8283  0.6360
  200SOL     OW  598   2.072   2.161   2.282  0.3474 -0.0907  0.3421
  200SOL    HW1  599   2.147   2.093   2.297  1.0992 -0.3523  1.6403
  200SOL    HW2  600   2.105   2.256   2.275 -1.0643 -2.4880  0.0692
  201SOL     OW  601   0.252   1.714   2.014  0.1320  0.2107 -0.0436
  201SOL    HW1  602   0.318   1.691   1.939 -2.3828  0.9722 -2.0001
  201SOL    HW2  603   0.222   1.813   1.999 -1.8847  1.8073 -1.6443
  202SOL     OW  604   2.557   0.265   0.279 -0.6214  0.5827 -0.2696
  202SOL    HW1  605   2.584   0.220   0.193  0.6514 -2.8287 -3.9682
  202SOL    HW2  606   2.568   0.202   0.359 -1.4097 -1.1139  2.0602
  203SOL     OW  607   1.028   2.305   2.082  0.0051  0.1335  0.0078
  203SOL    HW1  608   0.961   2.374   2.107 -0.0004 -2.9041 -1.0673
  203SOL    HW2  609   1.048   2.302   1.981 -0.0605 -2.7106  0.9687
  204SOL     OW  610   1.244   2.098   1.856 -0.6563 -0.1699 -0.5773
  204SOL    HW1  611   1.318   2.131   1.791 -0.7184  0.3528 -1.0355
  204SOL    HW2  612   1.165   2.160   1.851  1.9340 -2.7635  0.1274
  205SOL     OW  613   1.575   1.545   2.019 -0.2875  0.0390 -0.0626
  205SOL    HW1  614   1.657   1.486   1.991  0.4158 -0.6971 -3.0144
  205SOL    HW2  615   1.573   1.636   1.971 -2.9924  3.4095 -0.2663
  206SOL     OW  616   0.299   0.844   2.598 -0.2375  0.1224 -0.0030
  206SOL    HW1  617   0.363   0.767   2.610 -1.4429  0.4701 -1.7157
  206SOL    HW2  618   0.342   0.922   2.550  1.0553 -0.1722  0.6712
  207SOL     OW  619   1.171   3.009   1.778  0.2061 -0.4141  0.2162
  207SOL    HW1  620   1.172   0.030   1.769 -2.5341 -1.0895 -0.0858
  207SOL    HW2  621   1.106   2.968   1.712 -2.2199 -0.9927 -0.9640
  208SOL     OW  622   0.617   2.812   1.854  0.0750  0.2663  0.7161
  208SOL    HW1  623   0.613   2.895   1.914 -1.2571  1.7558 -0.7837
  208SOL    HW2  624   0.522   2.775   1.844  1.1054  1.6170  0.0353
  209SOL     OW  625   1.285   0.604   0.205  0.1807  0.7857  0.3453
  209SOL    HW1  626   1.388   0.615   0.228 -1.4172 -0.4875  1.9157
  209SOL    HW2  627   1.257   0.630   0.109  0.2233  1.1188 -1.1386
  210SOL     OW  628   2.703   0.443   0.585 -0.0728  0.3013  0.5687
  210SOL    HW1  629   2.798   0.441   0.624  2.9547  0.2801 -0.6468
  210SOL    HW2  630   2.709   0.475   0.491  1.6033  1.4538  1.3767
  211SOL     OW  631   0.496   0.431   1.347  0.1079  0.1446 -0.0639
  211SOL    HW1  632   0.451   0.486   1.275 -0.7329 -1.6627 -0.6344
  211SOL    HW2  633   0.596   0.417   1.328 -2.7271 -1.5713  1.0718
  212SOL     OW  634   1.219   1.874   1.163  0.2329  0.7247  0.3319
  212SOL    HW1  635   1.230   1.777   1.137 -1.7352 -0.1900  0.5292
  212SOL    HW2  636   1.198   1.882   1.266  0.5706 -1.4959  0.9579
  213SOL     OW  637   2.009   0.325   1.943  0.4276  0.2490 -0.5062
  213SOL    HW1  638   2.092   0.275   1.910  0.6827 -0.1715  0.4823
  213SOL    HW2  639   2.036   0.409   1.989 -0.5527  0.8093 -2.7262
  214SOL     OW  640   0.895   2.350   2.404 -0.0901 -0.0736 -0.1111
  214SOL    HW1  641   0.907   2.249   2.385  1.7568 -2.4366 -0.6136
  214SOL    HW2  642   0.804   2.390   2.407  0.9336 -2.8735 -1.4288
  215SOL     OW  643   2.527   1.707   1.530 -0.3354 -0.3326  0.0137
  215SOL    HW1  644   2.458   1.696   1.600 -0.2516  0.4359 -0.3156
  215SOL    HW2  645   2.586   1.631   1.537  2.3154  2.6696  0.9124
  216SOL     OW  646   0.459   1.086   1.341  0.0064  0.1983 -0.4427
  216SOL    HW1  647   0.483   1.176   1.385  1.5289 -0.9909  1.5149
  216SOL    HW2  648   0.382   1.038   1.385  0.3547 -1.3621  0.8794
  217SOL     OW  649   3.066   0.233   0.527  0.2565 -0.4624  0.0587
  217SOL    HW1  650   3.066   0.270   0.433 -0.0169 -0.3447  1.3276
  217SOL    HW2  651   2.972   0.199   0.549 -0.3240  1.5819  0.0669
  218SOL     OW  652   1.985   1.762   1.073  0.0772  0.2836 -0.7509
  218SOL    HW1  653   2.063   1.831   1.073  1.2934 -2.2190  0.0108
  218SOL    HW2  654   2.027   1.666   1.084 -1.6046 -1.4827 -1.1407
  219SOL     OW  655   1.546   0.402   0.137  0.1839  0.3871  0.2653
  219SOL    HW1  656   1.474   0.363   0.078  2.3295 -0.6926  2.7284
  219SOL    HW2  657   1.535   0.370   0.233  2.7007  0.4646 -0.8316
  220SOL     OW  658   1.755   1.761   0.951 -0.5351  0.3967  0.4954
  220SOL    HW1  659   1.849   1.755   0.994  3.0493 -0.9541 -0.5689
  220SOL    HW2  660   1.677   1.750   1.014  3.5185 -0.7748  0.8917
  221SOL     OW  661   2.698   0.849   0.574  0.2506 -0.2111  0.2265
  221SOL    HW1  662   2.740   0.783   0.506 -0.7003  0.2802  1.9650
  221SOL    HW2  663   2.617   0.804   0.613  1.0886  1.2036  1.8139
  222SOL     OW  664   0.893   2.716   1.537 -0.0777  0.0909 -0.1360
  222SOL    HW1  665   0.964   2.678   1.474 -1.1877  2.3977  0.4924
  222SOL    HW2  666   0.814   2.655   1.527 -0.4870 -0.9074  0.6715
  223SOL     OW  667   1.366   0.252   3.048 -0.1810  0.0804  0.4181
  223SOL    HW1  668   1.335   0.261   2.953  0.1278 -0.0325 -0.7071
  223SOL    HW2  669   1.276   0.245   0.023 -3.9494 -1.3095  2.7523
  224SOL     OW  670   2.609   0.513   1.194  0.1188 -0.3286 -0.0599
  224SOL    HW1  671   2.646   0.604   1.161  2.3279  0.4533 -0.1005
  224SOL    HW2  672   2.509   0.525   1.217 -1.0282 -0.4943  0.6869
  225SOL     OW  673   0.769   1.678   1.510  0.0416  0.3635  0.2659
  225SOL    HW1  674   0.862   1.655   1.478 -0.1946  1.7566 -1.8124
  225SOL    HW2  675   0.701   1.710   1.441 -0.4899 -2.5250  0.9083
  226SOL     OW  676   1.153   2.797   0.667  0.6086  0.0915  0.2139
  226SOL    HW1  677   1.107   2.885   0.645  1.0391 -0.9585 -0.7492
  226SOL    HW2  678   1.252   2.797   0.637  2.7018  0.0164 -2.5159
  227SOL     OW  679   1.178   1.802   1.908  0.3972  0.6087  0.1500
  227SOL    HW1  680   1.079   1.818   1.881 -1.9176  3.0335  1.0371
  227SOL    HW2  681   1.221   1.885   1.944 -2.8472 -2.7706  0.1812
  228SOL     OW  682   0.514   0.462   1.828 -0.4122  0.2483 -0.2753
  228SOL    HW1  683   0.581   0.418   1.766 -1.8859 -1.4901  1.2810
  228SOL    HW2  684   0.485   0.391   1.898 -0.8047 -1.4322  2.2625
  229SOL     OW  685   2.734   0.600   0.070 -0.1085 -0.1110  0.2260
  229SOL    HW1  686   2.786   0.684   0.049  2.1399  0.3057  0.4239
  229SOL    HW2  687   2.778   0.558   0.156  2.0179 -3.1911  0.3595
  230SOL     OW  688   0.194   1.055   1.682  0.3600 -0.5700  0.2905
  230SOL    HW1  689   0.225   0.979   1.737 -0.8012  1.0317  2.3503
  230SOL    HW2  690   0.106   1.088   1.721 -1.0381 -1.2374  2.7014
  231SOL     OW  691   1.056   2.823   1.207 -0.0077 -0.8041  0.0981
  231SOL    HW1  692   1.068   2.741   1.265  2.1621  1.1591 -2.8340
  231SOL    HW2  693   1.106   2.821   1.121 -0.7829 -1.6194 -1.0677
  232SOL     OW  694   2.875   2.525   3.035 -0.0629 -1.0335  0.1517
  232SOL    HW1  695   2.913   2.453   2.979  1.0654  1.3540  2.2875
  232SOL    HW2  696   2.811   2.484   0.022  0.2301 -0.0362  0.3340
  233SOL     OW  697   1.315   2.636   3.007  0.5390 -0.1934  0.0014
  233SOL    HW1  698   1.268   2.608   2.923 -3.3558  0.5675 -1.2524
  233SOL    HW2  699   1.250   2.661   0.003  2.7032  1.1807 -0.4050
  234SOL     OW  700   0.753   1.223   1.907  0.6444  0.2168  0.8382
  234SOL    HW1  701   0.727   1.318   1.930 -0.4216  1.8939 -1.8333
  234SOL    HW2  702   0.801   1.179   1.981 -1.8747  1.8517 -1.6228
  235SOL     OW  703   0.111   2.313   2.713 -0.0733 -0.3282  0.4392
  235SOL    HW1  704   0.211   2.332   2.698  2.3659  1.4559 -0.9448
  235SOL    HW2  705   0.061   2.406   2.705  0.4813  0.9576  0.8884
  236SOL     OW  706   1.912   2.274   2.732 -0.5660 -0.1702 -0.4716
  236SOL    HW1  707   1.975   2.245   2.657  1.4114 -1.3479  1.4324
  236SOL    HW2  708   1.820   2.239   2.716  1.5834 -3.5088 -0.5189
  237SOL     OW  709   2.123   1.113   0.992 -1.0871 -0.0328 -0.3559
  237SOL    HW1  710   2.048   1.125   0.925  3.0974  3.5229  1.3220
  237SOL    HW2  711   2.199   1.177   0.966  1.7629  0.0398  2.6815
  238SOL     OW  712   1.191   2.658   2.227 -0.1025  0.0760  0.5462
  238SOL    HW1  713   1.145   2.601   2.298 -0.0460 -0.6157  1.5803
  238SOL    HW2  714   1.116   2.697   2.168 -0.6695  0.8456  1.2308
  239SOL     OW  715   0.729   2.221   1.995 -0.1617  0.0109 -0.1337
  239SOL    HW1  716   0.809   2.175   2.030 -3.7068  2.9306  1.2874
  239SOL    HW2  717   0.723   2.220   1.893 -0.2509  2.0073  3.0931
  240SOL     OW  718   2.982   2.949   0.602 -0.0998 -0.2278 -0.1762
  240SOL    HW1  719   2.933   2.858   0.606 -0.0206  2.0514 -3.6665
  240SOL    HW2  720   2.913   3.020   0.626  2.0725 -1.2001 -0.3174
  241SOL     OW  721   1.100   1.770   2.872 -0.1121  0.6130 -0.5026
  241SOL    HW1  722   1.175   1.721   2.922  0.1316  0.4100 -1.3692
  241SOL    HW2  723   1.132   1.861   2.841 -0.0214 -2.2538  0.2268
  242SOL     OW  724   2.315   0.823   0.035  0.3883  0.4166 -0.2480
  242SOL    HW1  725   2.367   0.747   0.074  0.3664 -0.9783 -0.8806
  242SOL    HW2  726   2.258   0.867   0.109  0.9441  0.9932  2.0030
  243SOL     OW  727   0.858   0.365   2.093 -0.7682 -0.3924 -0.1254
  243SOL    HW1  728   0.879   0.458   2.060 -0.8323  0.4895  0.3519
  243SOL    HW2  729   0.856   0.296   2.017  0.4843  0.3765 -0.4696
  244SOL     OW  730   1.650   2.332   2.825  0.0641 -0.2283  0.0130
  244SOL    HW1  731   1.604   2.423   2.834  1.6424  1.9355 -0.8059
  244SOL    HW2  732   1.748   2.337   2.861  0.9439  1.1442  1.3375
  245SOL     OW  733   1.837   2.368   0.072 -0.2019 -0.5977 -0.0883
  245SOL    HW1  734   1.754   2.316   0.104 -0.8630  0.0717  0.3981
  245SOL    HW2  735   1.841   2.464   0.108 -0.2214 -1.2056  0.5180
  246SOL     OW  736   1.040   1.017   2.427 -0.3786 -0.0933  0.2897
  246SOL    HW1  737   1.118   1.045   2.374  1.6209 -0.0280  0.9408
  246SOL    HW2  738   0.978   1.095   2.433  0.5189 -0.9057 -0.5918
  247SOL     OW  739   2.707   0.982   2.510  0.1462 -0.3366  0.7755
  247SOL    HW1  740   2.682   0.996   2.607 -0.2134  2.5539 -0.6100
  247SOL    HW2  741   2.803   1.004   2.492 -1.7593  0.6129  1.8318
  248SOL     OW  742   0.114   1.088   1.961 -0.1679 -0.1511  0.0706
  248SOL    HW1  743   0.040   1.149   1.992  0.8444  0.2058  0.0016
  248SOL    HW2  744   0.158   1.033   2.037 -2.0328  0.2871  1.5482
  249SOL     OW  745   3.046   0.363   0.303 -0.0423 -0.3689  0.0053
  249SOL    HW1  746   3.065   0.455   0.259 -1.4211 -0.2822  1.5058
  249SOL    HW2  747   3.049   0.291   0.232  1.8628 -0.2321 -0.1809
  250SOL     OW  748   2.887   0.184   0.110 -0.6920  0.5711  0.8898
  250SOL    HW1  749   2.958   0.156   0.046 -1.8234  1.7648  1.5469
  250SOL    HW2  750   2.884   0.131   0.196 -0.1864 -1.8645 -1.6474
  251SOL     OW  751   0.993   1.537   1.869  0.0454  0.0418  0.1903
  251SOL    HW1  752   1.052   1.537   1.948 -0.6852 -0.1619 -3.8526
  251SOL    HW2  753   1.043   1.499   1.788  1.4581  0.6386 -0.6143
  252SOL     OW  754   1.846   1.812   1.314  0.5390 -0.1473 -0.2152
  252SOL    HW1  755   1.837   1.913   1.331  3.0878  0.1647  0.5173
  252SOL    HW2  756   1.907   1.796   1.235  0.4347  2.7219  1.6937
  253SOL     OW  757   1.882   2.201   2.051  0.3870 -0.2237  0.6056
  253SOL    HW1  758   1.951   2.172   2.122  0.1352  0.1926 -1.4763
  253SOL    HW2  759   1.843   2.295   2.068  0.8934  1.2034  0.2226
  254SOL     OW  760   0.629   2.235   2.278 -0.1962 -0.1293 -0.2558
  254SOL    HW1  761   0.558   2.295   2.236 -0.2608 -0.6125  0.4731
  254SOL    HW2  762   0.652   2.163   2.211 -2.9459  0.7948  0.6464
  255SOL     OW  763   1.550   0.140   0.657 -0.5629  0.3768  0.5352
  255SOL    HW1  764   1.634   0.103   0.610 -0.1519 -0.4477 -2.1030
  255SOL    HW2  765   1.547   0.243   0.662  0.7794  0.1718 -0.1947
  256SOL     OW  766   1.773   2.200   1.314  0.6098  0.0624  0.3230
  256SOL    HW1  767   1.802   2.290   1.345 -0.9042 -0.4825 -2.9794
  256SOL    HW2  768   1.858   2.148   1.287  2.0002 -1.0397  0.7957
  257SOL     OW  769   0.340   2.598   2.601  0.0536  0.3005 -0.1891
  257SOL    HW1  770   0.389   2.515   2.572  2.2507  1.1551 -0.6998
  257SOL    HW2  771   0.342   2.608   2.704  0.4189  1.0217  1.1915
  258SOL     OW  772   0.516   0.930   1.960 -0.0662 -0.3220  0.0275
  258SOL    HW1  773   0.570   0.841   1.949  0.1575 -0.8387  0.3293
  258SOL    HW2  774   0.536   0.976   2.046  2.5027  0.5024 -0.4146
  259SOL     OW  775   1.211   0.812   2.483  0.0047  0.3093  0.0042
  259SOL    HW1  776   1.299   0.853   2.520 -0.3055  0.8896  1.4313
  259SOL    HW2  777   1.145   0.885   2.458  1.5493  2.0313 -1.6786
  260SOL     OW  778   2.147   0.616   0.485 -0.2854  0.6320  0.2175
  260SOL    HW1  779   2.130   0.546   0.562  0.8313 -3.1403  3.2281
  260SOL    HW2  780   2.103   0.699   0.519 -0.7248 -2.1117  2.6767
  261SOL     OW  781   0.996   0.329   0.444  0.1548  0.2340 -0.3398
  261SOL    HW1  782   0.910   0.369   0.415  0.1447 -0.1598 -0.9840
  261SOL    HW2  783   1.002   0.303   0.542  2.2765 -2.0407  0.0847
  262SOL     OW  784   1.714   2.534   2.618  1.1060  0.3952 -0.2027
  262SOL    HW1  785   1.621   2.523   2.660  0.0873  2.9531 -4.2356
  262SOL    HW2  786   1.712   2.612   2.548 -0.9536  0.3122  0.0273
  263SOL     OW  787   0.511   1.781   2.981  0.0891  0.0118 -0.0661
  263SOL    HW1  788   0.446   1.770   3.058  0.4968  0.3423  0.2030
  263SOL    HW2  789   0.458   1.804   2.901  1.1489  1.4932  0.4451
  264SOL     OW  790   0.444   1.625   1.820 -0.1027  0.4617 -0.0838
  264SOL    HW1  791   0.516   1.554   1.822 -0.9939 -0.9879 -0.8115
  264SOL    HW2  792   0.413   1.634   1.721  2.1786  0.0503 -1.2611
  265SOL     OW  793   0.883   1.183   0.279  0.3060  0.1566  0.7079
  265SOL    HW1  794   0.954   1.252   0.271 -2.0347 -1.6235  0.4291
  265SOL    HW2  795   0.915   1.086   0.271  1.2392 -1.8125  1.6525
  266SOL     OW  796   1.482   1.644   0.126 -0.1252  0.3028  0.5351
  266SOL    HW1  797   1.442   1.580   0.194  1.1272  1.3795 -3.8699
  266SOL    HW2  798   1.568   1.672   0.172 -0.5488  0.7201 -1.5310
  267SOL     OW  799   0.105   0.272   2.935 -0.0544 -0.1275 -0.0786
  267SOL    HW1  800   0.042   0.341   2.894 -0.6922 -0.5423 -0.5073
  267SOL    HW2  801   0.195   0.316   2.948 -2.0341  0.2774 -0.1325
  268SOL     OW  802   1.003   0.223   2.874 -0.5310  0.7569 -0.4312
  268SOL    HW1  803   0.934   0.256   2.941  0.5983  0.5382  1.7653
  268SOL    HW2  804   1.064   0.155   2.915 -1.1138  1.1553 -2.9490
  269SOL     OW  805   1.472   0.459   2.395  0.1145 -0.1584 -0.1148
  269SOL    HW1  806   1.568   0.482   2.385 -1.6343 -1.0354 -0.5381
  269SOL    HW2  807   1.463   0.358   2.424  0.3581  2.3336 -2.4874
  270SOL     OW  808   0.660   0.864   2.619  0.2892 -0.4442  0.4596
  270SOL    HW1  809   0.749   0.835   2.578  0.6526  0.8713  2.8353
  270SOL    HW2  810   0.619   0.778   2.658  1.3080 -0.5512  0.4917
  271SOL     OW  811   0.262   1.078   0.013 -0.5911 -0.1538 -0.5688
  271SOL    HW1  812   0.202   1.130   0.075 -0.0411  0.1110  2.1841
  271SOL    HW2  813   0.321   1.138   3.034  1.4832 -3.0845 -0.1602
  272SOL     OW  814   2.203   1.237   2.780 -0.6502  0.0031 -0.5496
  272SOL    HW1  815   2.208   1.301   2.704  2.9236  0.5468  1.1750
  272SOL    HW2  816   2.166   1.151   2.754  2.3728  4.7744 -1.7468
  273SOL     OW  817   2.861   0.281   2.334 -0.4521 -0.1866  0.1329
  273SOL    HW1  818   2.880   0.379   2.335 -1.1993  0.3427 -0.3858
  273SOL    HW2  819   2.873   0.250   2.433 -1.2661  0.8795 -0.9063
  274SOL     OW  820   2.812   0.006   1.616 -0.1669  0.0027 -0.2421
  274SOL    HW1  821   2.780   0.099   1.577 -2.0249  0.6996 -0.1160
  274SOL    HW2  822   2.916   3.076   1.601  1.8743 -1.8048 -2.8223
  275SOL     OW  823   2.015   1.355   0.377  0.2450 -0.2229 -0.2777
  275SOL    HW1  824   2.003   1.328   0.280  1.7909  0.3007  1.5111
  275SOL    HW2  825   1.969   1.442   0.389  0.1489  1.8130  0.3574
  276SOL     OW  826   0.122   1.260   2.674  0.1154 -0.2352 -0.3311
  276SOL    HW1  827   0.029   1.283   2.637 -2.3256 -0.7080  1.2067
  276SOL    HW2  828   0.138   1.158   2.673 -1.9096  0.9819  0.2029
  277SOL     OW  829   1.783   2.449   2.099 -0.3243 -0.1536  0.0453
  277SOL    HW1  830   1.727   2.485   2.177 -1.4345  1.9883 -1.0197
  277SOL    HW2  831   1.759   2.489   2.009  0.3353 -0.2614 -4.3124
  278SOL     OW  832   1.918   0.257   1.423 -0.0677 -0.4144 -0.5218
  278SOL    HW1  833   1.932   0.158   1.442  0.2071 -0.4609 -1.3402
  278SOL    HW2  834   1.948   0.281   1.332  0.3743 -0.1769  2.2785
  279SOL     OW  835   1.224   1.376   3.026 -0.1826 -0.2772  0.0931
  279SOL    HW1  836   1.175   1.289   3.000 -1.5236  2.3433 -1.8802
  279SOL    HW2  837   1.321   1.340   3.040 -1.1518 -1.2574  2.3800
  280SOL     OW  838   0.635   1.938   0.438  0.1432  0.3784 -0.0522
  280SOL    HW1  839   0.682   1.852   0.456  0.5108  3.2320 -1.5210
  280SOL    HW2  840   0.670   1.988   0.354  2.4541  1.4879 -0.5013
  281SOL     OW  841   0.174   0.115   2.139  0.4276 -0.2043 -0.9827
  281SOL    HW1  842   0.177   0.035   2.079 -0.2275  1.8601 -0.1350
  281SOL    HW2  843   0.083   0.116   2.189 -2.9950 -0.8690  3.0183
  282SOL     OW  844   0.185   1.659   1.363 -0.2097  0.1896 -0.3523
  282SOL    HW1  845   0.153   1.727   1.294 -0.3073 -1.6313 -1.6975
  282SOL    HW2  846   0.103   1.623   1.417 -0.3655  0.6616 -0.6091
  283SOL     OW  847   1.776   2.050   2.602 -0.0937 -0.4239  0.3481
  283SOL    HW1  848   1.834   1.983   2.642 -0.7840  0.3646 -0.6605
  283SOL    HW2  849   1.686   2.007   2.609 -1.1187 -0.7622  2.1852
  284SOL     OW  850   1.881   0.708   0.075  0.4979 -0.0676 -0.5078
  284SOL    HW1  851   1.907   0.804   0.040  0.9489 -1.3297  0.8564
  284SOL    HW2  852   1.887   0.648   3.075 -2.8963  0.9308 -2.3677
  285SOL     OW  853   2.848   2.692   2.563 -0.0245 -0.2536  0.1988
  285SOL    HW1  854   2.788   2.743   2.631  0.2401  1.4777  1.6425
  285SOL    HW2  855   2.793   2.615   2.521  2.4405 -1.6353  1.7622
  286SOL     OW  856   2.016   2.569   1.270 -0.4685 -0.1859  0.1980
  286SOL    HW1  857   1.972   2.538   1.355  2.0120 -0.3762  0.0371
  286SOL    HW2  858   1.999   2.510   1.191  0.1115 -0.5353  0.4624
  287SOL     OW  859   0.802   0.990   1.054 -0.3524 -0.0440 -0.0275
  287SOL    HW1  860   0.802   1.049   1.135 -1.9361 -2.4117 -2.2482
  287SOL    HW2  861   0.755   1.034   0.976  1.4077 -0.2870  1.8670
  288SOL     OW  862   1.401   2.328   0.142 -0.0315  0.0197 -0.5206
  288SOL    HW1  863   1.382   2.377   0.229  0.0232 -0.9034 -0.5563
  288SOL    HW2  864   1.375   2.390   0.066 -1.2012 -0.5179  0.7611
  289SOL     OW  865   3.052   1.834   2.663 -0.1979 -0.4208 -0.2234
  289SOL    HW1  866   2.993   1.808   2.743  1.4746  1.5362 -1.8388
  289SOL    HW2  867   0.049   1.903   2.694  2.0744  3.0609 -0.7760
  290SOL     OW  868   1.213   2.436   0.656  0.5831 -0.0986  0.0587
  290SOL    HW1  869   1.156   2.522   0.663 -0.1335  5.0737 -1.3858
  290SOL    HW2  870   1.161   2.361   0.607  0.9298 -2.7399  1.6722
  291SOL     OW  871   2.003   1.395   0.112 -0.5441  0.3091 -0.3694
  291SOL    HW1  872   2.083   1.347   0.070 -2.8216 -0.6318 -1.5891
  291SOL    HW2  873   1.969   1.478   0.054  2.2159  2.1343  0.0630
  292SOL     OW  874   1.078   1.434   1.612  0.1979  0.4806  0.4117
  292SOL    HW1  875   1.094   1.461   1.516 -0.2712  0.9898  1.4190
  292SOL    HW2  876   1.149   1.371   1.648 -0.3441  2.8682 -3.6572
  293SOL     OW  877   2.094   2.772   1.068 -0.2678 -0.6817 -0.7101
  293SOL    HW1  878   2.190   2.758   1.039  1.0730  0.2906 -0.4984
  293SOL    HW2  879   2.070   2.715   1.149  0.2921  1.3340 -2.2646
  294SOL     OW  880   2.961   1.074   2.538 -0.2307  0.1877 -0.0666
  294SOL    HW1  881   2.927   1.167   2.562  0.0103  2.2669 -1.0379
  294SOL    HW2  882   3.006   1.071   2.445 -0.1200  0.5625  0.7816
  295SOL     OW  883   0.909   1.892   3.030  0.3489 -0.2006 -0.1111
  295SOL    HW1  884   0.949   1.977   3.070 -0.2504 -1.4348 -0.6620
  295SOL    HW2  885   0.986   1.839   2.987 -0.7653 -0.3654  0.0829
  296SOL     OW  886   1.944   1.825   2.411  0.0751 -0.0363 -0.1706
  296SOL    HW1  887   2.002   1.743   2.380  3.1738 -1.4708 -0.4445
  296SOL    HW2  888   1.849   1.816   2.372  2.8202 -1.8228  0.6306
  297SOL     OW  889   2.641   0.481   2.660  0.4593 -0.1107  0.1837
  297SOL    HW1  890   2.639   0.390   2.620  0.0859  2.5721  2.1390
  297SOL    HW2  891   2.544   0.510   2.660 -0.7131 -1.2192  0.3718
  298SOL     OW  892   0.638   2.235   2.827  0.2946  0.0680  0.4217
  298SOL    HW1  893   0.625   2.157   2.886  1.1314 -1.2045 -1.5339
  298SOL    HW2  894   0.649   2.201   2.732  0.3399 -0.3997  1.5674
  299SOL     OW  895   1.223   2.648   2.710  0.2990 -0.2609 -0.5574
  299SOL    HW1  896   1.148   2.635   2.641 -2.9321  0.5591  2.2610
  299SOL    HW2  897   1.269   2.560   2.730 -2.6422 -1.1092 -1.8980
  300SOL     OW  898   2.764   0.423   0.291 -0.0914 -0.3995 -0.2117
  300SOL    HW1  899   2.696   0.354   0.274  1.9826  2.2107 -1.7239
  300SOL    HW2  900   2.857   0.380   0.309  1.5341  2.4481 -1.9923
  301SOL     OW  901   0.957   0.929   1.402  0.2904  0.3456  0.0034
  301SOL    HW1  902   0.927   0.935   1.499 -1.0781  0.8131  2.6047
  301SOL    HW2  903   0.902   0.987   1.341 -1.4841 -1.4892  2.3284
  302SOL     OW  904   3.021   2.118   2.530 -0.0905  0.4462  0.0750
  302SOL    HW1  905   3.065   2.040   2.483  0.6675 -1.0059  0.8709
  302SOL    HW2  906   0.021   2.182   2.547  0.7791  2.7468  1.1736
  303SOL     OW  907   3.009   0.091   2.260  0.0726  0.0838  0.1040
  303SOL    HW1  908   2.953   0.177   2.273  0.8751  0.7405  1.0275
  303SOL    HW2  909   2.984   0.035   2.343 -0.6626  1.3341 -0.5211
  304SOL     OW  910   2.486   0.490   1.745  0.4125  0.6459  0.1525
  304SOL    HW1  911   2.423   0.446   1.678  0.1076 -0.2850  0.7504
  304SOL    HW2  912   2.442   0.487   1.841  0.7742 -2.1752  3.7403
  305SOL     OW  913   0.401   0.062   2.277 -0.1882  0.1226 -0.7565
  305SOL    HW1  914   0.407   3.043   2.246 -1.2125  0.1829 -1.1502
  305SOL    HW2  915   0.311   0.100   2.243 -0.9872 -1.9553 -0.7861
  306SOL     OW  916   2.662   1.205   1.513 -0.2428 -0.3659 -0.0426
  306SOL    HW1  917   2.647   1.109   1.543  1.0578  1.7462  0.3603
  306SOL    HW2  918   2.720   1.207   1.427  2.3539  0.6444  1.4039
  307SOL     OW  919   1.643   0.636   1.336 -0.3850  0.2793  0.1767
  307SOL    HW1  920   1.609   0.575   1.408 -0.9751  0.6717 -2.6893
  307SOL    HW2  921   1.567   0.656   1.269 -0.4611 -2.7122 -0.4528
  308SOL     OW  922   0.120   1.974   1.471  0.2767 -0.3159 -0.3088
  308SOL    HW1  923   0.108   2.072   1.440 -1.9672  2.3800 -0.8151
  308SOL    HW2  924   0.118   1.907   1.391  0.0936 -1.9878 -2.3766
  309SOL     OW  925   2.412   1.924   1.389 -0.5205  0.3625 -0.0269
  309SOL    HW1  926   2.481   1.963   1.326  1.8523 -1.3316 -0.2478
  309SOL    HW2  927   2.464   1.861   1.458  3.0150 -2.1687  2.6101
  310SOL     OW  928   2.745   1.759   0.025 -0.4292 -0.0696 -0.5346
  310SOL    HW1  929   2.808   1.753   3.020  0.1271 -1.9316  0.2651
  310SOL    HW2  930   2.762   1.671   0.079 -0.0112  0.4111 -0.5863
  311SOL     OW  931   2.086   1.678   2.858  0.6824 -0.5676 -0.8656
  311SOL    HW1  932   2.146   1.760   2.864 -1.7036 -2.8724 -0.5159
  311SOL    HW2  933   2.037   1.663   2.769  0.4816  0.0317 -1.2331
  312SOL     OW  934   2.493   2.053   0.710  0.8970 -0.1624  0.1908
  312SOL    HW1  935   2.534   2.001   0.790  0.0474  1.8864  1.5197
  312SOL    HW2  936   2.540   2.026   0.623 -0.2668 -0.6879  0.0634
  313SOL     OW  937   2.633   2.470   1.307  0.1980 -0.2302  0.3636
  313SOL    HW1  938   2.574   2.473   1.394 -1.2392 -0.5780  0.3264
  313SOL    HW2  939   2.646   2.565   1.278  0.7838 -1.5570 -1.1438
  314SOL     OW  940   0.812   2.106   1.320 -0.2539 -0.3504  0.2078
  314SOL    HW1  941   0.873   2.184   1.295 -2.3413  4.4434 -1.5256
  314SOL    HW2  942   0.840   2.020   1.271  1.1982 -1.3921  0.1298
  315SOL     OW  943   0.405   2.829   2.277 -0.3099  0.1735 -0.2646
  315SOL    HW1  944   0.311   2.805   2.318 -0.8529 -4.2786 -1.6771
  315SOL    HW2  945   0.485   2.789   2.326 -1.3873 -0.2588  1.5763
  316SOL     OW  946   0.316   1.476   0.595  0.3430 -0.4068  0.7436
  316SOL    HW1  947   0.317   1.488   0.694 -0.4407 -0.6698 -0.8468
  316SOL    HW2  948   0.343   1.568   0.557  2.0040  0.6899  0.8256
  317SOL     OW  949   1.806   0.099   0.513  0.1843 -0.6355 -0.6282
  317SOL    HW1  950   1.783   0.097   0.413  0.3223 -0.2849 -2.7997
  317SOL    HW2  951   1.816   0.189   0.556  1.1551 -0.1810  1.5140
  318SOL     OW  952   3.003   2.522   0.470 -0.0796  0.2802 -0.0627
  318SOL    HW1  953   2.931   2.487   0.408 -0.0892 -1.2521 -1.1275
  318SOL    HW2  954   0.008   2.517   0.409 -0.3607 -0.5994  0.0351
  319SOL     OW  955   0.851   1.479   3.073  0.4302 -0.4848  0.4612
  319SOL    HW1  956   0.894   1.505   2.986 -0.1333  0.1364 -0.2172
  319SOL    HW2  957   0.767   1.424   3.058  0.8156  0.6508  1.3808
  320SOL     OW  958   0.671   2.763   2.395 -0.2234  0.0456 -0.3607
  320SOL    HW1  959   0.757   2.756   2.340 -0.9019 -0.9338 -1.5466
  320SOL    HW2  960   0.672   2.848   2.454  0.5933 -0.9435 -0.7913
  321SOL     OW  961   1.142   0.008   3.000 -0.3824  0.4635  0.2839
  321SOL    HW1  962   1.095   0.018   0.012  0.8039  2.1864  1.8151
  321SOL    HW2  963   1.102   3.004   2.954  0.6802 -2.8887  3.3848
  322SOL     OW  964   2.192   1.143   1.853 -0.4039 -0.2040 -0.2685
  322SOL    HW1  965   2.203   1.163   1.954 -1.9468 -0.8494 -1.4027
  322SOL    HW2  966   2.283   1.163   1.808  2.3696 -2.1094  0.1753
  323SOL     OW  967   2.380   0.710   0.382 -0.0248  0.0359 -0.0278
  323SOL    HW1  968   2.290   0.665   0.391 -0.3675  1.5794 -2.9114
  323SOL    HW2  969   2.419   0.684   0.292 -0.0414 -2.8106 -0.6883
  324SOL     OW  970   0.098   0.490   2.678 -0.3237 -0.2303 -0.3425
  324SOL    HW1  971   0.010   0.537   2.659 -1.4698  0.6405 -0.7393
  324SOL    HW2  972   0.101   0.400   2.630  2.1528 -2.3664  0.0112
  325SOL     OW  973   1.434   0.123   1.754  0.0491  0.1041 -0.7071
  325SOL    HW1  974   1.453   0.083   1.660  1.7283  0.0728 -4.0655
  325SOL    HW2  975   1.464   0.060   1.827 -0.5796 -0.5690  2.0837
  326SOL     OW  976   2.417   0.032   1.328 -0.2242  0.3471 -0.3189
  326SOL    HW1  977   2.463   0.122   1.348  0.9633 -0.0483 -0.4693
  326SOL    HW2  978   2.386   0.026   1.231 -1.4221 -1.7971  2.0411
  327SOL     OW  979   1.765   0.684   2.798  0.4175 -0.2617  0.4773
  327SOL    HW1  980   1.804   0.614   2.858 -0.8320 -0.5246 -0.6599
  327SOL    HW2  981   1.835   0.742   2.757 -0.7311 -0.9721 -1.1063
  328SOL     OW  982   2.926   1.464   2.344  0.1448  0.0475 -0.3607
  328SOL    HW1  983   2.880   1.374   2.339  3.0605 -0.9159  0.5249
  328SOL    HW2  984   2.877   1.530   2.289  1.2996 -3.6831  1.6688
  329SOL     OW  985   1.717   2.574   1.867 -0.2480  0.3168 -0.0243
  329SOL    HW1  986   1.621   2.574   1.839 -0.8486 -2.4863  1.8374
  329SOL    HW2  987   1.739   2.661   1.919 -0.4333  0.9037 -1.2963
  330SOL     OW  988   2.375   1.694   1.753  0.1878 -0.1160 -0.6022
  330SOL    HW1  989   2.295   1.759   1.758 -1.0306  1.7635  0.2635
  330SOL    HW2  990   2.455   1.732   1.807  2.3766 -0.0943 -0.3522
  331SOL     OW  991   0.379   1.970   1.122  0.2798 -0.2846 -0.4170
  331SOL    HW1  992   0.424   2.015   1.203  2.8607 -2.2648  1.9557
  331SOL    HW2  993   0.433   1.893   1.085 -2.9468  0.8046 -2.2655
  332SOL     OW  994   0.726   0.635   1.122  0.2040 -0.1130  0.2400
  332SOL    HW1  995   0.697   0.726   1.159 -1.1971  0.0664  0.3411
  332SOL    HW2  996   0.741   0.567   1.197 -1.6596 -1.7639 -1.2034
  333SOL     OW  997   2.050   2.630   2.393  0.1385  0.2782  0.4257
  333SOL    HW1  998   1.970   2.692   2.389 -1.8857  1.0118 -0.9715
  333SOL    HW2  999   2.100   2.626   2.483 -2.5174 -1.6735 -1.4810
  334SOL     OW 1000   1.078   1.186   1.274  0.1311 -0.0877 -0.3641
  334SOL    HW1 1001   1.135   1.140   1.199  1.1853 -0.7168 -1.8204
  334SOL    HW2 1002   1.123   1.169   1.366 -0.5169  0.3247  0.6983
  335SOL     OW 1003   0.209   2.761   2.449  0.2863  0.6148  0.1110
  335SOL    HW1 1004   0.207   2.852   2.495 -0.9646 -1.4315  0.3956
  335SOL    HW2 1005   0.269   2.694   2.505  1.8727  2.1690  2.6247
  336SOL     OW 1006   2.499   2.429   1.783  0.1659 -0.1994  0.2781
  336SOL    HW1 1007   2.534   2.514   1.740  0.7169  0.1766 -2.2270
  336SOL    HW2 1008   2.527   2.360   1.711  0.1392 -1.0155 -2.6747
  337SOL     OW 1009   2.388   1.559   0.338  0.0638  0.5976  0.3135
  337SOL    HW1 1010   2.420   1.499   0.260 -1.5868 -0.3379 -0.4949
  337SOL    HW2 1011   2.465   1.604   0.390  0.0575  1.5761  1.4330
  338SOL     OW 1012   1.216   1.855   1.439  0.4853 -0.1048  0.5670
  338SOL    HW1 1013   1.247   1.806   1.522 -2.0197 -1.3783  1.1084
  338SOL    HW2 1014   1.211   1.958   1.455  0.5522  2.0476  0.8026
  339SOL     OW 1015   0.072   0.731   1.707 -0.6510  0.1599  0.4729
  339SOL    HW1 1016   0.159   0.779   1.736  2.2056  1.0936  2.2303
  339SOL    HW2 1017   0.083   0.677   1.620 -0.6472  0.0099 -0.5678
  340SOL     OW 1018   1.746   2.789   1.474 -0.0805 -0.4764  0.1458
  340SOL    HW1 1019   1.685   2.748   1.407 -0.4709 -0.0870 -0.8756
  340SOL    HW2 1020   1.831   2.829   1.432 -1.5252 -0.0965  0.8155
  341SOL     OW 1021   2.262   1.419   0.958 -0.1127 -0.1142 -0.1654
  341SOL    HW1 1022   2.355   1.383   0.956 -0.9300 -0.2877 -0.1890
  341SOL    HW2 1023   2.235   1.445   0.862  2.2408  0.4526  0.6832
  342SOL     OW 1024   0.440   1.732   0.955  0.2800 -0.1096 -1.1121
  342SOL    HW1 1025   0.369   1.663   0.925  0.4730  2.0898  2.1633
  342SOL    HW2 1026   0.521   1.748   0.893  0.7459 -1.1831 -2.3776
  343SOL     OW 1027   2.291   0.496   1.546  0.1028  0.0157  0.2970
  343SOL    HW1 1028   2.219   0.435   1.589 -1.0426  0.0463  0.5599
  343SOL    HW2 1029   2.276   0.597   1.566 -1.0163  0.6392 -0.0858
  344SOL     OW 1030   2.224   0.074   0.800  0.1451  0.2798  0.3812
  344SOL    HW1 1031   2.254   0.150   0.739  0.2612 -0.5627 -0.3717
  344SOL    HW2 1032   2.304   0.025   0.832  0.1768 -0.6685  1.6059
  345SOL     OW 1033   2.922   3.040   2.474  0.3320  0.2520 -0.3212
  345SOL    HW1 1034   2.904   2.939   2.459  0.5835 -0.5417 -2.0367
  345SOL    HW2 1035   2.924   3.066   2.573 -0.9035 -2.1225 -1.1143
  346SOL     OW 1036   2.971   0.881   0.416  0.1602 -0.2412  0.0751
  346SOL    HW1 1037   2.951   0.950   0.341 -1.3514  0.3745  1.1173
  346SOL    HW2 1038   2.931   0.921   0.500 -0.1273  2.3196  1.1436
  347SOL     OW 1039   1.664   2.618   1.261  0.5182  0.1963 -0.4660
  347SOL    HW1 1040   1.711   2.601   1.172 -0.8428  0.1983  0.7976
  347SOL    HW2 1041   1.579   2.673   1.245 -2.3200 -1.0573  1.1202
  348SOL     OW 1042   1.082   1.147   1.776 -0.1122 -0.1784  0.5689
  348SOL    HW1 1043   1.103   1.187   1.862  1.0238 -0.7814 -1.7799
  348SOL    HW2 1044   1.007   1.197   1.727  0.0807 -0.8983 -2.1037
  349SOL     OW 1045   2.193   1.380   2.268  0.0027  0.0347  0.8329
  349SOL    HW1 1046   2.180   1.294   2.212  0.5092 -1.9242 -0.5904
  349SOL    HW2 1047   2.290   1.389   2.298  0.7636 -1.4147 -2.0956
  350SOL     OW 1048   0.179   1.945   0.798 -0.3277 -0.1208 -0.2323
  350SOL    HW1 1049   0.222   2.021   0.849  1.0336 -0.9943 -2.8627
  350SOL    HW2 1050   0.107   1.980   0.733 -3.3108 -0.0563 -1.2926
  351SOL     OW 1051   0.628   0.663   2.215 -0.2574  0.1624 -0.6302
  351SOL    HW1 1052   0.713   0.628   2.255 -2.2011 -3.7545 -0.4022
  351SOL    HW2 1053   0.640   0.681   2.113  0.8266  3.3875 -1.4377
  352SOL     OW 1054   0.976   2.974   1.538 -0.1593 -0.4505 -0.3483
  352SOL    HW1 1055   1.028   3.005   1.458 -0.7955  0.5165  2.4170
  352SOL    HW2 1056   0.931   2.882   1.536 -0.0211  1.6309  1.3736
  353SOL     OW 1057   0.685   1.556   2.452 -0.1126  0.0761  0.4821
  353SOL    HW1 1058   0.655   1.653   2.471 -2.1122 -1.5729  0.8632
  353SOL    HW2 1059   0.786   1.544   2.453 -1.8364 -0.2690 -1.6632
  354SOL     OW 1060   1.760   1.506   0.389 -0.0242 -0.2915  0.1721
  354SOL    HW1 1061   1.739   1.403   0.397 -1.0442  1.3622 -1.4728
  354SOL    HW2 1062   1.720   1.554   0.467 -0.1590 -2.1886 -0.1997
  355SOL     OW 1063   1.834   0.340   0.658 -0.2211 -0.2552  0.7178
  355SOL    HW1 1064   1.808   0.330   0.756 -1.5432 -0.7117  4.3064
  355SOL    HW2 1065   1.931   0.368   0.660  0.1382 -1.8860  0.1943
  356SOL     OW 1066   0.045   1.211   0.147  0.1951 -0.2391  0.2407
  356SOL    HW1 1067   3.045   1.276   0.138  0.0747  1.5100  1.5104
  356SOL    HW2 1068   0.091   1.212   0.238 -0.4135  0.5647 -0.7125
  357SOL     OW 1069   2.865   3.033   2.091  0.5848  0.3672  0.4856
  357SOL    HW1 1070   2.781   0.005   2.057 -1.8097 -0.4822  0.9721
  357SOL    HW2 1071   2.928   0.012   2.147 -0.8477 -0.3019  2.4673
  358SOL     OW 1072   0.350   1.334   2.562  0.0534  0.0156  0.0668
  358SOL    HW1 1073   0.381   1.427   2.537 -4.1769  1.3445  0.0669
  358SOL    HW2 1074   0.255   1.326   2.597 -1.4029  0.9635 -0.0857
  359SOL     OW 1075   2.406   2.555   2.504  0.4689  0.0258  0.2315
  359SOL    HW1 1076   2.324   2.578   2.562  0.9853  0.6775  0.8597
  359SOL    HW2 1077   2.407   2.598   2.410  0.2269  2.1061 -1.3189
  360SOL     OW 1078   1.493   1.325   0.872 -0.0856  0.6620 -0.2822
  360SOL    HW1 1079   1.419   1.392   0.856  0.7679  0.2748  1.9953
  360SOL    HW2 1080   1.460   1.255   0.938 -0.9541  1.3788  1.0441
  361SOL     OW 1081   2.218   2.324   1.152 -0.2314 -0.5169 -0.2624
  361SOL    HW1 1082   2.252   2.257   1.082 -0.0499 -0.9214  1.0777
  361SOL    HW2 1083   2.137   2.373   1.122  0.4261 -1.8617 -1.0638
  362SOL     OW 1084   1.919   1.093   0.780 -0.3864  1.2217 -0.0114
  362SOL    HW1 1085   1.980   1.106   0.699  0.8381 -1.8644  0.4601
  362SOL    HW2 1086   1.857   1.168   0.793 -0.4392 -4.0515 -0.6635
  363SOL     OW 1087   2.677   2.009   0.463 -0.6627  0.3519 -0.3044
  363SOL    HW1 1088   2.655   1.960   0.376  3.9286 -0.9611  0.2354
  363SOL    HW2 1089   2.665   2.110   0.456 -0.7114  0.1144 -1.9907
  364SOL     OW 1090   2.151   0.044   1.355  0.6491 -0.1694 -0.2681
  364SOL    HW1 1091   2.247   0.030   1.366 -1.1091  1.3149  0.3820
  364SOL    HW2 1092   2.134   0.119   1.287 -1.1988  1.7189 -3.9235
  365SOL     OW 1093   0.309   2.748   1.119 -0.0403  0.4917 -0.4666
  365SOL    HW1 1094   0.362   2.697   1.051  0.6523  2.1760 -1.7467
  365SOL    HW2 1095   0.205   2.732   1.108 -1.4533 -1.0390  0.4153
  366SOL     OW 1096   3.048   1.346   0.425 -0.4809 -0.2481 -0.0571
  366SOL    HW1 1097   2.970   1.285   0.399 -0.1347 -2.5158 -2.8088
  366SOL    HW2 1098   0.006   1.317   0.510  1.0626 -1.7135 -1.0674
  367SOL     OW 1099   2.367   2.321   2.901  0.2104 -0.9545  0.3903
  367SOL    HW1 1100   2.377   2.239   2.967 -1.6059  1.3786  1.1139
  367SOL    HW2 1101   2.382   2.296   2.807 -0.6817  0.9445  1.4024
  368SOL     OW 1102   2.581   1.925   0.942  0.5888 -0.2941 -0.7521
  368SOL    HW1 1103   2.527   1.974   1.014 -0.0946  2.1279 -0.7955
  368SOL    HW2 1104   2.617   1.837   0.976  2.3999  3.9419 -1.8988
  369SOL     OW 1105   0.857   0.983   0.506  0.1771  0.2182  0.0612
  369SOL    HW1 1106   0.752   0.983   0.491 -1.0540 -0.0016  0.4400
  369SOL    HW2 1107   0.903   0.948   0.418 -1.4842 -1.2385 -4.0481
  370SOL     OW 1108   0.594   0.097   0.785 -0.0569 -0.6524 -0.4559
  370SOL    HW1 1109   0.561   0.081   0.881  0.1011 -0.6199 -0.2950
  370SOL    HW2 1110   0.690   0.061   0.779  0.2368  1.1639 -2.3599
  371SOL     OW 1111   2.381   1.207   2.965  0.2368  0.0299 -0.1390
  371SOL    HW1 1112   2.424   1.114   2.958  0.1609 -1.5234  0.4100
  371SOL    HW2 1113   2.317   1.225   2.886 -0.8907 -1.2629  1.3156
  372SOL     OW 1114   0.487   0.654   2.660  0.2207 -0.4577  0.4768
  372SOL    HW1 1115   0.514   0.574   2.600  2.6043 -0.5072  6.0276
  372SOL    HW2 1116   0.477   0.617   2.756 -3.5466 -0.1415  1.8506
  373SOL     OW 1117   0.444   0.609   2.933  0.1032  0.7987  0.1598
  373SOL    HW1 1118   0.536   0.591   2.968 -0.4831  2.5361  0.6515
  373SOL    HW2 1119   0.424   0.708   2.929 -1.9461 -1.0345  1.3758
  374SOL     OW 1120   1.072   2.356   0.095  0.6713  0.5801  0.0431
  374SOL    HW1 1121   1.054   2.378   3.070 -0.2537 -0.6620 -3.2364
  374SOL    HW2 1122   1.109   2.436   0.143  3.4685  0.0297  0.7036
  375SOL     OW 1123   1.047   3.069   0.601  0.1708  0.6546 -0.2089
  375SOL    HW1 1124   1.004   0.074   0.637  1.1417 -0.8507 -0.3224
  375SOL    HW2 1125   1.132   0.018   0.554 -2.7699  3.1228  1.9502
  376SOL     OW 1126   0.212   2.327   2.008 -0.1634 -0.1197  0.0859
  376SOL    HW1 1127   0.139   2.368   2.065 -1.4731  1.0498 -1.2758
  376SOL    HW2 1128   0.250   2.400   1.950 -0.1770  2.0064 -0.6194
  377SOL     OW 1129   2.794   2.156   3.004  0.4064  0.2976  0.5458
  377SOL    HW1 1130   2.713   2.191   3.056 -0.7266  0.7347  4.4128
  377SOL    HW2 1131   2.765   2.083   2.940  0.1070  1.3041  0.2484
  378SOL     OW 1132   1.555   0.713   0.487 -0.2467 -0.4564 -0.2770
  378SOL    HW1 1133   1.643   0.658   0.501 -0.8452 -2.2151 -1.0766
  378SOL    HW2 1134   1.475   0.655   0.508  0.7528  1.7847  0.5390
  379SOL     OW 1135   1.254   1.452   0.753  0.6443 -0.4045 -0.5411
  379SOL    HW1 1136   1.238   1.375   0.686 -0.8876  0.5704 -0.0539
  379SOL    HW2 1137   1.213   1.534   0.710  1.5014  1.8578 -4.1792
  380SOL     OW 1138   2.437   2.077   1.818 -0.1791 -0.8216 -0.2428
  380SOL    HW1 1139   2.540   2.078   1.836 -1.7820 -0.4213  0.8636
  380SOL    HW2 1140   2.415   2.130   1.734 -0.6460  2.1792  0.5804
  381SOL     OW 1141   3.051   1.033   2.276 -0.4099  0.2868 -0.5020
  381SOL    HW1 1142   0.062   1.000   2.234  4.3834 -0.5983  0.8651
  381SOL    HW2 1143   2.986   1.062   2.200 -0.5001  4.2796  1.8440
  382SOL     OW 1144   2.898   2.233   0.210  0.4907 -0.1556 -0.3337
  382SOL    HW1 1145   2.839   2.300   0.262 -1.1816 -0.5871 -0.6498
  382SOL    HW2 1146   2.841   2.195   0.133  0.5912  0.0637  4.2858
  383SOL     OW 1147   1.257   1.081   2.291  0.4642  0.1450  0.2483
  383SOL    HW1 1148   1.236   1.149   2.215  1.3408 -0.0138 -0.6768
  383SOL    HW2 1149   1.321   1.005   2.261  1.9656  1.4136 -0.2536
  384SOL     OW 1150   1.045   2.297   2.704 -0.4883  0.1696 -0.2334
  384SOL    HW1 1151   1.115   2.274   2.636 -0.9986 -3.0315  2.8920
  384SOL    HW2 1152   0.951   2.301   2.667 -1.3677  0.5053  1.3397
  385SOL     OW 1153   2.076   2.295   0.177 -0.7494 -0.6600 -0.1958
  385SOL    HW1 1154   1.984   2.314   0.150  1.0874 -0.9678 -1.7978
  385SOL    HW2 1155   2.125   2.392   0.195  2.7558 -0.3978  0.5008
  386SOL     OW 1156   1.451   1.355   0.541  0.0981  0.2567 -0.7556
  386SOL    HW1 1157   1.502   1.437   0.581 -1.3571  4.0834  4.7775
  386SOL    HW2 1158   1.466   1.271   0.594 -0.2412  1.7497 -0.2863
  387SOL     OW 1159   2.673   0.952   1.329 -0.4893 -0.3430  0.4258
  387SOL    HW1 1160   2.590   0.939   1.386 -1.1430 -1.6871  0.4733
  387SOL    HW2 1161   2.651   0.993   1.237  0.0790 -0.0232  0.4783
  388SOL     OW 1162   0.035   0.774   1.074  0.2068  0.3599  0.0793
  388SOL    HW1 1163   3.069   0.832   1.150 -0.9400 -1.3473 -2.1823
  388SOL    HW2 1164   0.038   0.673   1.094  0.6617 -1.8671 -1.6031
  389SOL     OW 1165   1.831   1.124   2.304 -0.0557 -0.2174  0.8934
  389SOL    HW1 1166   1.793   1.144   2.395  0.3709 -1.0080  0.6200
  389SOL    HW2 1167   1.852   1.213   2.252  1.4017  1.5727 -0.8023
  390SOL     OW 1168   1.570   2.122   0.550  0.1623  0.1832 -0.0772
  390SOL    HW1 1169   1.641   2.192   0.537  1.3424  0.4182 -0.8454
  390SOL    HW2 1170   1.611   2.034   0.514  0.8290 -0.6633  0.9683
  391SOL     OW 1171   1.250   2.106   1.057 -0.2288  0.2805 -0.1092
  391SOL    HW1 1172   1.224   2.010   1.084 -1.3248  0.9307 -0.2664
  391SOL    HW2 1173   1.306   2.110   0.970  1.8881 -0.7816 -2.4567
  392SOL     OW 1174   2.317   2.432   2.033 -0.4568  0.1952 -0.7287
  392SOL    HW1 1175   2.225   2.427   1.994  1.1611  1.5459 -1.1246
  392SOL    HW2 1176   2.375   2.474   1.962  0.0055  0.0773  1.4782
  393SOL     OW 1177   1.619   1.948   0.139  0.0335  0.1112  0.2224
  393SOL    HW1 1178   1.657   1.944   0.043 -0.6272  0.8484 -0.2982
  393SOL    HW2 1179   1.675   1.885   0.197 -2.9271 -0.2523  0.7227
  394SOL     OW 1180   0.182   0.405   2.371 -0.2280  0.1661  0.2080
  394SOL    HW1 1181   0.133   0.423   2.275 -1.8905  1.7138 -4.1708
  394SOL    HW2 1182   0.271   0.455   2.380  0.1516  1.0455  2.0917
  395SOL     OW 1183   0.540   1.064   0.760 -0.6726 -0.4235  0.0791
  395SOL    HW1 1184   0.597   1.148   0.781 -0.4678 -1.2160  0.5910
  395SOL    HW2 1185   0.574   0.977   0.800  0.1017  4.4608  0.0761
  396SOL     OW 1186   2.291   0.862   2.689 -0.4113 -0.5746  0.4540
  396SOL    HW1 1187   2.206   0.853   2.629 -0.1108  1.4142 -1.9932
  396SOL    HW2 1188   2.361   0.916   2.637  0.2370 -0.7226  2.2924
  397SOL     OW 1189   0.096   0.980   2.693  0.3826 -0.1513 -0.3852
  397SOL    HW1 1190   0.175   0.932   2.656  3.0277 -1.0439 -2.2436
  397SOL    HW2 1191   0.020   0.964   2.630  2.0968  0.4623 -2.4297
  398SOL     OW 1192   1.542   2.728   0.231  0.0290 -0.5403  0.1705
  398SOL    HW1 1193   1.571   2.799   0.299 -0.4089  0.7205  0.8214
  398SOL    HW2 1194   1.547   2.765   0.138  2.5403 -1.8753 -0.2038
  399SOL     OW 1195   2.063   2.452   1.944 -0.8043 -0.1626  0.3145
  399SOL    HW1 1196   1.976   2.431   1.986 -0.9003 -0.1527 -0.5672
  399SOL    HW2 1197   2.059   2.419   1.845 -2.4637 -2.1119 -1.7138
  400SOL     OW 1198   0.135   1.493   1.956 -0.3725 -0.4801  0.3116
  400SOL    HW1 1199   0.203   1.418   1.927  0.5160 -1.0735 -0.4454
  400SOL    HW2 1200   0.179   1.574   1.993  2.4880 -4.4463 -0.1860
  401SOL     OW 1201   0.590   0.953   0.484 -0.3051 -0.3806 -0.0783
  401SOL    HW1 1202   0.552   0.864   0.454  1.3871 -1.4799  0.1824
  401SOL    HW2 1203   0.535   0.993   0.559  0.4598  1.7118 -1.1532
  402SOL     OW 1204   0.596   2.947   2.098  0.1580 -0.1705 -0.6022
  402SOL    HW1 1205   0.671   2.971   2.159 -0.6784 -1.2523  0.0492
  402SOL    HW2 1206   0.525   2.890   2.143 -0.4727 -0.7197 -0.5840
  403SOL     OW 1207   2.750   1.882   2.097  0.2413 -0.2304  0.3869
  403SOL    HW1 1208   2.834   1.872   2.151  0.8121  0.5842  1.0763
  403SOL    HW2 1209   2.727   1.972   2.066 -0.9549 -4.7734  0.5164
  404SOL     OW 1210   2.680   2.110   1.946 -0.4629  0.5563 -0.6492
  404SOL    HW1 1211   2.640   2.200   1.976 -0.9251  1.9296 -0.7326
  404SOL    HW2 1212   2.778   2.118   1.925  0.5607 -0.7327 -5.0261
  405SOL     OW 1213   1.909   0.195   2.610 -0.2969 -0.0841  0.1202
  405SOL    HW1 1214   1.919   0.119   2.678 -0.6709 -1.3443  1.4662
  405SOL    HW2 1215   1.851   0.158   2.534 -4.5699  0.3987  0.1007
  406SOL     OW 1216   1.207   1.933   0.262 -0.0494 -0.3661 -0.2131
  406SOL    HW1 1217   1.283   1.967   0.207  1.3338 -0.5639 -0.0934
  406SOL    HW2 1218   1.132   2.001   0.272 -0.8423  2.0487  1.0863
  407SOL     OW 1219   1.621   1.249   0.319 -0.6821 -0.4003  0.4485
  407SOL    HW1 1220   1.594   1.155   0.300  0.5508 -2.7525 -0.0591
  407SOL    HW2 1221   1.562   1.287   0.393 -0.2972 -1.1788 -0.0116
  408SOL     OW 1222   0.224   0.683   1.443  0.3057 -0.2096  0.0943
  408SOL    HW1 1223   0.304   0.678   1.508 -0.0948  2.1373 -0.5578
  408SOL    HW2 1224   0.199   0.592   1.409  1.2721  3.2500  2.1134
  409SOL     OW 1225   2.834   1.371   2.875 -0.1360 -0.1328 -0.3818
  409SOL    HW1 1226   2.744   1.417   2.871 -1.6364 -0.4182 -1.8447
  409SOL    HW2 1227   2.903   1.432   2.920 -1.0430  2.8349  0.2169
  410SOL     OW 1228   2.602   2.671   0.703  0.2732 -1.2720  0.1238
  410SOL    HW1 1229   2.641   2.659   0.798 -0.5035 -1.1168 -0.1572
  410SOL    HW2 1230   2.530   2.605   0.687  1.0493  1.6825  0.2213
  411SOL     OW 1231   0.114   0.707   0.350 -0.1189  0.4712  0.2245
  411SOL    HW1 1232   0.051   0.762   0.410  0.8072  0.4908  1.9112
  411SOL    HW2 1233   0.064   0.671   0.270 -2.2406  1.5641  1.8897
  412SOL     OW 1234   1.689   0.030   0.272 -0.0842  0.5946 -0.1156
  412SOL    HW1 1235   1.732   0.105   0.224 -2.1124 -1.3074  0.9131
  412SOL    HW2 1236   1.593   0.019   0.231 -0.7449 -0.6122  1.2133
  413SOL     OW 1237   1.136   0.216   1.502 -0.6021 -0.2200 -0.1932
  413SOL    HW1 1238   1.129   0.224   1.602 -0.9149 -0.5416 -2.2779
  413SOL    HW2 1239   1.073   0.148   1.463 -0.0616  3.2758  1.6932
  414SOL     OW 1240   0.362   1.367   0.333  0.4431 -0.4035  0.3861
  414SOL    HW1 1241   0.335   1.396   0.426 -1.6345 -2.4951 -0.5904
  414SOL    HW2 1242   0.438   1.300   0.330  0.4191 -2.1667 -0.8996
  415SOL     OW 1243   2.789   1.505   0.127 -0.2431  0.1628  0.0195
  415SOL    HW1 1244   2.875   1.500   0.070  0.3165 -0.0650 -1.7284
  415SOL    HW2 1245   2.815   1.510   0.227  2.3107 -0.4606  2.9918
  416SOL     OW 1246   2.579   0.460   2.940  0.7262 -0.2428  0.3403
  416SOL    HW1 1247   2.586   0.490   2.838 -0.7749  1.7460 -2.3695
  416SOL    HW2 1248   2.641   0.513   3.001 -0.2019 -0.0579 -0.0669
  417SOL     OW 1249   2.733   2.894   0.346  0.1318  0.2616  0.2314
  417SOL    HW1 1250   2.806   2.833   0.386 -1.2737  0.4191 -0.9842
  417SOL    HW2 1251   2.678   2.851   0.269 -0.0845  1.7953 -4.3001
  418SOL     OW 1252   0.368   0.362   3.017 -0.1823 -0.2974  0.4201
  418SOL    HW1 1253   0.373   0.368   0.041  0.3717  1.7340 -0.2374
  418SOL    HW2 1254   0.384   0.453   2.980 -1.3898 -1.8736  2.7898
  419SOL     OW 1255   0.738   0.848   0.811 -0.2274 -0.2498  0.0461
  419SOL    HW1 1256   0.790   0.839   0.894  1.4398  0.9304 -0.4452
  419SOL    HW2 1257   0.681   0.764   0.797  2.5057  0.8630  1.8174
  420SOL     OW 1258   0.284   0.688   0.873 -0.2022  0.4438  0.6490
  420SOL    HW1 1259   0.335   0.777   0.899  1.4896  3.9765  2.4460
  420SOL    HW2 1260   0.186   0.699   0.855 -0.7863 -2.2917 -0.7859
  421SOL     OW 1261   0.685   2.151   0.270  0.2907 -0.1109 -0.2364
  421SOL    HW1 1262   0.604   2.159   0.212  3.6770  3.4564  0.6976
  421SOL    HW2 1263   0.754   2.221   0.242  0.9482 -3.0570  1.7490
  422SOL     OW 1264   2.384   0.510   1.987  0.0030  0.4542  0.5096
  422SOL    HW1 1265   2.414   0.455   2.067  0.1658  0.1421 -1.1953
  422SOL    HW2 1266   2.277   0.518   1.991 -2.7360  0.7044 -0.2773
  423SOL     OW 1267   2.040   1.808   0.152  0.4658 -0.1389  0.2873
  423SOL    HW1 1268   2.003   1.768   0.066  0.2893  2.0161 -0.8053
  423SOL    HW2 1269   2.072   1.900   0.126  0.0748  2.2644  2.3756
  424SOL     OW 1270   1.778   1.502   2.425  0.2845 -0.2663  0.3206
  424SOL    HW1 1271   1.818   1.441   2.351  2.1811  0.8380  0.8577
  424SOL    HW2 1272   1.699   1.455   2.469 -2.5829  2.1698 -0.4291
  425SOL     OW 1273   0.011   2.698   2.271  0.0883 -0.0305  0.2597
  425SOL    HW1 1274   2.992   2.722   2.282  3.6322 -2.9552  1.3290
  425SOL    HW2 1275   0.066   2.741   2.340 -2.2377 -0.6122  0.3919
  426SOL     OW 1276   2.388   2.661   0.417  0.2047  0.2420  0.5379
  426SOL    HW1 1277   2.316   2.601   0.375 -0.5444  2.3308 -0.0033
  426SOL    HW2 1278   2.376   2.763   0.406  1.4636  1.4773 -1.1959
  427SOL     OW 1279   0.490   1.050   2.501  0.3153 -0.4916 -0.1708
  427SOL    HW1 1280   0.521   1.148   2.481 -2.3873  1.5380 -2.9600
  427SOL    HW2 1281   0.570   0.990   2.525  1.9704 -0.6539 -0.4067
  428SOL     OW 1282   2.520   1.217   2.649  0.1767  0.0785 -0.2432
  428SOL    HW1 1283   2.458   1.159   2.593  0.3536  0.2738 -0.7106
  428SOL    HW2 1284   2.566   1.163   2.719 -0.1648  1.1676  0.9206
  429SOL     OW 1285   2.516   0.129   0.498 -0.4717  0.1326 -0.3030
  429SOL    HW1 1286   2.530   0.049   0.561  0.7277  2.3661  0.3988
  429SOL    HW2 1287   2.429   0.120   0.445  0.2874 -2.4558  0.5080
  430SOL     OW 1288   1.465   1.873   2.373 -0.4495 -0.0266  0.3925
  430SOL    HW1 1289   1.487   1.956   2.317  1.3191 -3.5251  0.6849
  430SOL    HW2 1290   1.416   1.890   2.460  0.8365  0.0127  0.1421
  431SOL     OW 1291   0.082   1.911   1.857  0.4712  0.7617 -0.5427
  431SOL    HW1 1292   0.016   1.985   1.871  2.5709  0.1468  0.3519
  431SOL    HW2 1293   0.149   1.941   1.788  0.3220  0.8245 -2.4262
  432SOL     OW 1294   1.239   2.236   2.549  0.0656  0.3409  0.1263
  432SOL    HW1 1295   1.337   2.248   2.570 -1.7328 -3.6877 -1.1327
  432SOL    HW2 1296   1.226   2.211   2.453  1.3023 -0.1058  1.4181
  433SOL     OW 1297   0.964   2.587   0.682  0.4826  0.4598  0.2343
  433SOL    HW1 1298   0.933   2.561   0.590 -0.7069  1.1512  1.8891
  433SOL    HW2 1299   1.024   2.667   0.680 -0.2156 -0.1690  0.7484
  434SOL     OW 1300   0.234   2.184   2.417 -0.0571 -0.1124 -0.1798
  434SOL    HW1 1301   0.195   2.277   2.428  1.6697  0.5219 -2.3562
  434SOL    HW2 1302   0.261   2.167   2.321  1.0797  0.6303 -2.2060
  435SOL     OW 1303   0.625   1.506   0.710  0.0951 -0.0622  0.4688
  435SOL    HW1 1304   0.663   1.518   0.612 -1.3602  4.5485  0.0022
  435SOL    HW2 1305   0.602   1.601   0.746 -1.5991  0.5167 -2.6064
  436SOL     OW 1306   0.421   2.319   1.629  0.3493 -0.3479  0.0638
  436SOL    HW1 1307   0.377   2.322   1.538 -0.0532 -1.7536  2.1820
  436SOL    HW2 1308   0.379   2.241   1.686 -1.7725 -2.2049  1.4283
  437SOL     OW 1309   1.042   0.651   0.471  0.8102  0.1885  0.1557
  437SOL    HW1 1310   0.960   0.616   0.418 -2.2809  1.3322 -1.2889
  437SOL    HW2 1311   1.087   0.724   0.421  1.1470 -0.6372 -0.0109
  438SOL     OW 1312   0.350   2.138   0.932  0.4813  0.2711 -0.6845
  438SOL    HW1 1313   0.278   2.199   0.978  0.4136  2.0148  0.1772
  438SOL    HW2 1314   0.381   2.075   1.007 -0.0150 -2.0053 -0.7960
  439SOL     OW 1315   0.864   2.678   1.826  0.6249 -0.0658 -0.1523
  439SOL    HW1 1316   0.779   2.708   1.868 -1.5170 -0.4845 -1.7685
  439SOL    HW2 1317   0.864   2.707   1.729  0.9074  1.1686 -0.9248
  440SOL     OW 1318   1.553   3.065   1.535  0.3211  0.4694  0.3974
  440SOL    HW1 1319   1.613   3.005   1.588  3.1693  0.1838  1.8552
  440SOL    HW2 1320   1.595   0.005   1.442 -1.2186 -3.2293 -2.7465
  441SOL     OW 1321   0.326   0.069   1.500  0.0913  0.7149 -0.8337
  441SOL    HW1 1322   0.376   3.061   1.474 -0.3378  1.8012 -3.1990
  441SOL    HW2 1323   0.304   0.068   1.600 -3.7197  0.7370 -0.4140
  442SOL     OW 1324   2.148   1.906   0.457  0.0452  0.5599  0.1053
  442SOL    HW1 1325   2.155   1.821   0.403 -0.5687  2.5481  1.5360
  442SOL    HW2 1326   2.096   1.983   0.414  0.1677 -1.7970  1.1264
  443SOL     OW 1327   2.404   0.358   2.275  0.1602  0.7260 -0.1843
  443SOL    HW1 1328   2.473   0.287   2.246 -1.5490 -0.0601 -0.4586
  443SOL    HW2 1329   2.309   0.326   2.284  1.2994  2.5595 -1.2882
  444SOL     OW 1330   2.098   0.924   1.752 -0.0242 -0.3925 -0.8572
  444SOL    HW1 1331   2.140   1.000   1.807  1.6780 -0.0001  1.6334
  444SOL    HW2 1332   2.030   0.870   1.807  2.5773  0.9172  0.8470
  445SOL     OW 1333   2.810   2.059   1.609 -0.4669  0.4700  0.8052
  445SOL    HW1 1334   2.796   1.959   1.607  0.5878  0.5324 -1.6171
  445SOL    HW2 1335   2.873   2.090   1.683 -2.5958 -1.6569 -0.6321
  446SOL     OW 1336   2.995   1.400   0.772 -0.6090  0.0970 -0.6599
  446SOL    HW1 1337   3.075   1.372   0.710 -0.3691 -2.6639  0.7620
  446SOL    HW2 1338   2.910   1.393   0.720  2.8128  2.8626 -0.9605
  447SOL     OW 1339   1.125   1.674   0.611  0.4113 -0.4664  0.9650
  447SOL    HW1 1340   1.043   1.722   0.647 -0.6037  0.7988  1.4230
  447SOL    HW2 1341   1.134   1.679   0.504  1.1506 -0.7829 -1.0328
  448SOL     OW 1342   1.485   1.227   1.458 -0.1346  0.0449  0.4212
  448SOL    HW1 1343   1.544   1.274   1.529 -2.7228 -2.6187  2.1859
  448SOL    HW2 1344   1.478   1.286   1.373  2.1883 -1.2040  2.5382
  449SOL     OW 1345   0.602   1.368   3.023 -0.1545 -0.8071 -0.2582
  449SOL    HW1 1346   0.526   1.403   3.079 -1.0885  0.6386 -2.5764
  449SOL    HW2 1347   0.577   1.360   2.925  0.6749  2.7452  0.0743
  450SOL     OW 1348   2.304   2.169   2.075  0.0542  0.4108  0.3747
  450SOL    HW1 1349   2.353   2.128   1.997  1.7904  1.1711  0.4965
  450SOL    HW2 1350   2.316   2.267   2.073  1.7253 -1.0764  0.3102
  451SOL     OW 1351   1.948   3.025   2.318  0.0173  0.3275 -0.1398
  451SOL    HW1 1352   2.037   3.029   2.372 -1.5910  0.8602  1.4655
  451SOL    HW2 1353   1.874   0.018   2.340 -3.1750 -0.0811 -0.5648
  452SOL     OW 1354   1.033   0.015   1.239 -0.0343  0.1382 -0.0977
  452SOL    HW1 1355   1.036   2.991   1.245  0.7130  0.0616  1.4569
  452SOL    HW2 1356   0.954   0.055   1.287  3.2897 -0.6520 -2.2343
  453SOL     OW 1357   1.137   1.076   0.805 -0.1767 -0.5555  0.3921
  453SOL    HW1 1358   1.079   0.996   0.784  2.3459  0.4453 -1.7459
  453SOL    HW2 1359   1.150   1.127   0.717 -0.3945  1.3995  1.5229
  454SOL     OW 1360   0.707   1.269   0.827  0.9885  0.1061 -0.2287
  454SOL    HW1 1361   0.663   1.351   0.784  0.3733  0.9259 -3.3873
  454SOL    HW2 1362   0.773   1.302   0.898  1.0818 -2.2410 -1.1556
  455SOL     OW 1363   2.919   3.065   2.748 -0.3482 -0.1921 -0.7516
  455SOL    HW1 1364   2.858   2.991   2.783 -1.7593 -1.7251  3.1969
  455SOL    HW2 1365   2.891   0.079   2.784  0.4275  2.4114 -0.3081
  456SOL     OW 1366   2.591   2.295   1.071 -0.9145  0.2537 -0.2499
  456SOL    HW1 1367   2.589   2.365   1.150 -0.9292  2.2909  2.2598
  456SOL    HW2 1368   2.660   2.330   1.002  2.5610 -0.0329  1.6157
  457SOL     OW 1369   1.436   0.009   0.127  0.3481  0.0779 -0.1172
  457SOL    HW1 1370   1.430   0.093   0.066 -0.3501  2.1168 -0.1200
  457SOL    HW2 1371   1.342   3.056   0.161 -2.2821 -2.3343 -2.0478
  458SOL     OW 1372   2.866   0.063   0.338 -0.1361  0.3977  0.4231
  458SOL    HW1 1373   2.856   0.092   0.437 -0.3823 -0.6783  0.3077
  458SOL    HW2 1374   2.794   3.071   0.321  2.0727  2.2600 -0.5171
  459SOL     OW 1375   2.101   0.370   2.555  0.0762 -0.2519 -0.0534
  459SOL    HW1 1376   2.176   0.384   2.622 -0.0379  0.2198 -0.4300
  459SOL    HW2 1377   2.022   0.316   2.591 -1.0978  1.5811  1.3831
  460SOL     OW 1378   2.832   0.227   2.815  0.2524  0.0091 -0.8608
  460SOL    HW1 1379   2.870   0.310   2.850 -2.3395 -3.6864 -0.4384
  460SOL    HW2 1380   2.754   0.238   2.756  4.3232  1.9540 -0.4351
  461SOL     OW 1381   0.829   1.784   1.248  0.2538  0.1714  0.1077
  461SOL    HW1 1382   0.892   1.733   1.314  2.6708  0.9951  0.8189
  461SOL    HW2 1383   0.829   1.740   1.156 -0.1061  2.4232  2.3572
  462SOL     OW 1384   2.347   2.961   1.705 -0.0325  0.1701 -0.1182
  462SOL    HW1 1385   2.266   2.967   1.767 -1.8942 -0.9279  1.0848
  462SOL    HW2 1386   2.428   3.019   1.729 -2.8968  0.6548 -0.5240
  463SOL     OW 1387   2.824   1.195   0.354  0.0760 -0.4799  0.2116
  463SOL    HW1 1388   2.740   1.203   0.407 -0.3489 -0.8104  0.6422
  463SOL    HW2 1389   2.801   1.151   0.264  0.7640  0.4067  1.9704
  464SOL     OW 1390   0.044   2.639   1.120 -0.1960  0.3144  0.2468
  464SOL    HW1 1391   3.070   2.651   1.034  1.7994  1.4564  0.3341
  464SOL    HW2 1392   0.059   2.543   1.148 -1.9172  0.0675  0.8838
  465SOL     OW 1393   0.473   1.669   0.450 -0.0709 -0.1142 -0.5241
  465SOL    HW1 1394   0.534   1.744   0.483 -0.0453  0.5283 -1.6436
  465SOL    HW2 1395   0.528   1.598   0.403  1.4826 -0.0731  1.3421
  466SOL     OW 1396   0.952   0.376   2.663  0.4511  0.0169  0.2492
  466SOL    HW1 1397   0.957   0.322   2.749 -0.8962 -2.6456 -3.1570
  466SOL    HW2 1398   0.985   0.471   2.678 -0.8770 -1.2755  0.7512
  467SOL     OW 1399   0.889   0.601   2.296 -0.1764  0.4470  0.3152
  467SOL    HW1 1400   0.944   0.643   2.224 -4.1107 -2.9052 -3.1232
  467SOL    HW2 1401   0.914   0.506   2.316  0.5796  3.6611 -0.5604
  468SOL     OW 1402   0.564   0.927   2.235 -0.1356 -0.0630 -1.0871
  468SOL    HW1 1403   0.582   0.828   2.237 -0.7050 -0.1569 -0.5038
  468SOL    HW2 1404   0.488   0.952   2.297  1.5764 -0.9033  0.1725
  469SOL     OW 1405   0.153   2.101   0.323 -0.3112  0.1265  0.0311
  469SOL    HW1 1406   0.225   2.030   0.312  3.8672  0.4063  0.5767
  469SOL    HW2 1407   0.054   2.068   0.332 -3.1159  1.6227 -0.2483
  470SOL     OW 1408   2.622   1.961   2.816  0.2289  0.4999  0.0435
  470SOL    HW1 1409   2.592   1.885   2.755  0.2920  1.3426  0.1471
  470SOL    HW2 1410   2.674   2.020   2.758 -2.5495 -4.3129  1.2217
  471SOL     OW 1411   1.736   0.483   2.308  0.0702  0.1390  0.4673
  471SOL    HW1 1412   1.728   0.558   2.245 -2.8579 -1.2306  1.0828
  471SOL    HW2 1413   1.752   0.397   2.256 -1.8402  0.0183  0.2851
  472SOL     OW 1414   0.643   2.591   1.253  0.0882 -0.0616 -0.3451
  472SOL    HW1 1415   0.640   2.509   1.310  2.4218 -1.2217 -2.3665
  472SOL    HW2 1416   0.639   2.573   1.154  0.1407 -1.4928 -0.6776
  473SOL     OW 1417   0.755   3.020   2.541  0.1249  0.3538  0.3619
  473SOL    HW1 1418   0.845   3.057   2.569 -5.7068 -0.0447 -0.1233
  473SOL    HW2 1419   0.690   2.987   2.613 -2.4366 -2.3824 -0.5495
  474SOL     OW 1420   2.073   2.965   1.809 -0.1298  0.1563 -0.0227
  474SOL    HW1 1421   2.073   2.869   1.772  0.3808  0.0874 -1.7764
  474SOL    HW2 1422   2.040   2.969   1.912 -3.5382  0.3548  0.4981
  475SOL     OW 1423   1.629   0.213   1.103 -0.0885 -0.7610  0.5342
  475SOL    HW1 1424   1.568   0.183   1.029  0.3399  0.8252  2.4574
  475SOL    HW2 1425   1.713   0.245   1.049  0.2349 -1.2692 -0.2258
  476SOL     OW 1426   0.593   0.621   0.874 -0.7292 -0.0449  0.1201
  476SOL    HW1 1427   0.494   0.641   0.876 -3.1964  0.8808 -1.0784
  476SOL    HW2 1428   0.634   0.569   0.951  1.7504 -0.3345  1.3279
  477SOL     OW 1429   1.465   2.495   0.619  0.4092  0.1628 -0.4642
  477SOL    HW1 1430   1.538   2.463   0.683  3.5098  4.4452 -1.8440
  477SOL    HW2 1431   1.382   2.434   0.614  1.3040  0.2983 -2.0204
  478SOL     OW 1432   0.131   2.448   2.407  0.2263 -0.1771 -0.3144
  478SOL    HW1 1433   0.107   2.488   2.499 -3.1670  1.4314  1.5352
  478SOL    HW2 1434   0.080   2.506   2.342 -0.7624 -0.5937  1.0312
  479SOL     OW 1435   2.683   0.265   1.165  0.1763  0.3262  0.0652
  479SOL    HW1 1436   2.666   0.363   1.172 -0.6463 -2.7418  0.7015
  479SOL    HW2 1437   2.755   0.243   1.236  2.3404  1.1743  1.4612
  480SOL     OW 1438   0.093   2.735   0.219 -0.3540  0.7569  0.0842
  480SOL    HW1 1439   0.081   2.806   0.293  1.2598  0.1116  1.5907
  480SOL    HW2 1440   0.006   2.693   0.195  1.3496  2.7118 -0.1619
  481SOL     OW 1441   2.378   2.156   1.579  0.3189 -0.4452  0.2812
  481SOL    HW1 1442   2.364   2.077   1.521 -2.1145 -2.1641 -0.3898
  481SOL    HW2 1443   2.318   2.232   1.546  0.1621  1.1363 -1.1192
  482SOL     OW 1444   1.023   2.454   2.922 -0.1721 -0.1057 -0.3046
  482SOL    HW1 1445   1.043   2.385   2.842  1.9007  0.1643 -2.2884
  482SOL    HW2 1446   0.961   2.528   2.888  0.8175  1.1976 -0.6211
  483SOL     OW 1447   0.404   2.454   2.287 -0.3540  0.0554  0.0773
  483SOL    HW1 1448   0.313   2.447   2.325 -0.6684  1.3169 -0.7763
  483SOL    HW2 1449   0.403   2.500   2.197 -3.4967  0.7197 -0.2074
  484SOL     OW 1450   1.210   0.466   1.471 -0.0379  0.6963 -0.3073
  484SOL    HW1 1451   1.188   0.483   1.573 -2.8419  1.5779 -0.3673
  484SOL    HW2 1452   1.156   0.378   1.454  2.3102 -1.6717 -1.6280
  485SOL     OW 1453   2.068   1.021   2.382  0.1200  0.4552  0.1112
  485SOL    HW1 1454   2.120   0.987   2.297 -1.8060  0.5655 -2.6119
  485SOL    HW2 1455   1.972   1.035   2.358  0.2428 -0.0615  0.0983
  486SOL     OW 1456   2.301   3.043   1.063  0.3633 -0.2849 -0.7110
  486SOL    HW1 1457   2.210   3.066   1.026 -1.0586  0.8323 -0.0566
  486SOL    HW2 1458   2.331   2.950   1.037  1.2175  1.2336  2.4778
  487SOL     OW 1459   0.724   2.214   1.745  0.2015 -0.4988 -0.0089
  487SOL    HW1 1460   0.637   2.216   1.698 -2.7009 -1.3298  2.8160
  487SOL    HW2 1461   0.798   2.167   1.689  0.6963 -2.5443  1.7228
  488SOL     OW 1462   2.561   1.388   2.845  0.2358  0.1813  0.3901
  488SOL    HW1 1463   2.563   1.348   2.754  0.3316  1.2023 -1.3358
  488SOL    HW2 1464   2.495   1.345   2.906 -2.1889  0.5521  0.3362
  489SOL     OW 1465   2.010   0.075   0.949 -0.1439  0.3432 -0.3529
  489SOL    HW1 1466   1.931   0.025   0.905  1.4950  0.8337 -1.6795
  489SOL    HW2 1467   2.085   0.090   0.877 -0.4715 -0.3994 -2.1754
  490SOL     OW 1468   1.050   1.420   0.182 -0.5498  0.5113  0.3156
  490SOL    HW1 1469   1.114   1.426   0.102 -2.2048  0.1567  0.5968
  490SOL    HW2 1470   0.958   1.434   0.147 -0.0405 -2.1749 -1.5233
  491SOL     OW 1471   0.433   2.120   1.327 -0.2572 -0.8978  0.0376
  491SOL    HW1 1472   0.354   2.165   1.374 -2.1614 -0.5256 -4.3129
  491SOL    HW2 1473   0.497   2.085   1.397  1.3597  0.9446 -0.6113
  492SOL     OW 1474   1.153   1.588   2.096  0.2743  0.1689 -0.0481
  492SOL    HW1 1475   1.241   1.539   2.110 -1.9982  0.9716  0.1084
  492SOL    HW2 1476   1.169   1.679   2.046  0.9775 -0.7849 -0.2462
  493SOL     OW 1477   2.824   2.385   0.964 -0.1068 -0.7677 -0.8243
  493SOL    HW1 1478   2.869   2.475   0.946  0.3353  2.6670 -1.3346
  493SOL    HW2 1479   2.879   2.332   1.034  3.3521 -2.9859  2.0402
  494SOL     OW 1480   3.062   2.032   0.629  0.4023 -0.1650 -0.8530
  494SOL    HW1 1481   2.992   1.960   0.644 -0.4146  1.8834 -0.9882
  494SOL    HW2 1482   3.076   2.047   0.531 -1.5802  1.0762 -0.1671
  495SOL     OW 1483   2.876   2.800   2.977  0.4088  0.1630  0.0279
  495SOL    HW1 1484   2.886   2.695   2.985  2.0590 -3.2739  0.5134
  495SOL    HW2 1485   2.953   2.851   3.023 -2.7816 -0.6803 -1.6436
  496SOL     OW 1486   2.527   0.282   1.376 -0.3877 -0.3060  0.0243
  496SOL    HW1 1487   2.469   0.364   1.363  0.1845 -0.6503 -0.9915
  496SOL    HW2 1488   2.593   0.284   1.300 -2.6096 -3.5444  0.7738
  497SOL     OW 1489   2.877   1.128   2.962 -0.5319 -0.5983  0.1519
  497SOL    HW1 1490   2.975   1.107   2.978 -1.2714  0.0774  0.9147
  497SOL    HW2 1491   2.855   1.221   2.934 -3.5059 -2.6288  0.9230
  498SOL     OW 1492   3.018   1.674   1.819 -0.2066  0.4724  0.1227
  498SOL    HW1 1493   0.003   1.607   1.865 -0.9479  1.5904 -3.1480
  498SOL    HW2 1494   3.058   1.764   1.814 -1.8995 -1.8284  1.0693
  499SOL     OW 1495   0.746   2.454   2.707 -0.6027  0.2302 -0.3005
  499SOL    HW1 1496   0.700   2.454   2.614 -0.8750 -0.7394  0.5997
  499SOL    HW2 1497   0.693   2.389   2.767  1.1544 -5.3144  0.8915
  500SOL     OW 1498   1.950   0.513   2.937 -0.9824 -0.5619 -0.1918
  500SOL    HW1 1499   2.037   0.559   2.912  1.4553 -3.4218 -1.8156
  500SOL    HW2 1500   1.960   0.415   2.910 -0.7412  0.1112  1.0288
  501SOL     OW 1501   1.181   0.208   1.776 -0.0173  0.3223  0.4751
  501SOL    HW1 1502   1.163   0.283   1.845  1.4884  0.6921  0.3236
  501SOL    HW2 1503   1.279   0.196   1.752 -0.3770  1.8233  0.6880
  502SOL     OW 1504   2.438   0.763   1.714  0.2555  0.1302  0.0197
  502SOL    HW1 1505   2.466   0.667   1.719  0.8449  2.5063 -1.9431
  502SOL    HW2 1506   2.348   0.777   1.667  2.8138  0.7687 -3.4625
  503SOL     OW 1507   2.295   1.712   2.057  0.6726 -0.0714  1.0318
  503SOL    HW1 1508   2.336   1.723   2.150  0.2581 -0.3839  0.9836
  503SOL    HW2 1509   2.244   1.796   2.029  0.9899 -0.8887  1.4055
  504SOL     OW 1510   1.478   0.977   1.487 -0.2825 -0.3044  0.5773
  504SOL    HW1 1511   1.466   1.083   1.482 -0.9033  4.5902  0.4388
  504SOL    HW2 1512   1.390   0.929   1.462  0.4744 -1.5647  0.0684
  505SOL     OW 1513   0.706   0.753   1.500 -0.0251  0.2053 -0.1480
  505SOL    HW1 1514   0.722   0.831   1.565  1.0807 -1.9100 -0.7702
  505SOL    HW2 1515   0.780   0.682   1.507  2.1372 -2.1458  2.0397
  506SOL     OW 1516   0.378   0.153   2.636  0.1421 -0.2519 -0.2826
  506SOL    HW1 1517   0.420   0.184   2.720 -3.5860 -1.4285 -1.0077
  506SOL    HW2 1518   0.428   0.191   2.557  0.5011 -0.8166  1.1429
  507SOL     OW 1519   0.171   0.118   0.314 -0.4528  0.6572  0.3095
  507SOL    HW1 1520   0.142   0.165   0.401 -1.0795  1.0735  1.3919
  507SOL    HW2 1521   0.273   0.119   0.303  0.9593  1.2603  0.2869
  508SOL     OW 1522   0.814   0.948   1.629  0.0884 -0.2111  0.5756
  508SOL    HW1 1523   0.798   1.049   1.614  0.2867 -2.4627  0.6592
  508SOL    HW2 1524   0.852   0.944   1.726 -1.2083  1.5666  2.2658
  509SOL     OW 1525   1.603   2.081   1.043  0.3343 -0.7031 -0.2120
  509SOL    HW1 1526   1.576   2.038   1.132 -3.1131 -0.3025 -0.2235
  509SOL    HW2 1527   1.561   2.043   0.963 -0.4178  1.9260  0.8633
  510SOL     OW 1528   2.477   1.307   1.817 -0.1538 -0.0181  0.6360
  510SOL    HW1 1529   2.470   1.346   1.722 -1.1725 -1.4925 -0.7165
  510SOL    HW2 1530   2.496   1.383   1.877 -0.3250 -1.0719 -1.0308
  511SOL     OW 1531   0.952   2.091   1.656 -0.4000  0.2682  0.5056
  511SOL    HW1 1532   1.040   2.103   1.603  1.5071  0.4728  0.9513
  511SOL    HW2 1533   0.941   2.001   1.702 -1.2458 -0.0196  3.2538
  512SOL     OW 1534   2.909   1.649   0.869 -0.2334  0.4512  0.1189
  512SOL    HW1 1535   2.934   1.552   0.839 -0.9236 -0.1867  0.6052
  512SOL    HW2 1536   2.989   1.709   0.894  0.3671  0.3331 -1.0874
  513SOL     OW 1537   0.043   1.565   2.790  0.0031  0.3385 -0.5340
  513SOL    HW1 1538   0.090   1.616   2.720 -1.7864  0.6401 -0.8734
  513SOL    HW2 1539   0.095   1.487   2.822 -2.8383  1.7302 -1.1251
  514SOL     OW 1540   2.678   2.324   2.272  0.7340  0.4057 -0.7689
  514SOL    HW1 1541   2.774   2.298   2.302  1.9147  0.1581  0.1904
  514SOL    HW2 1542   2.664   2.316   2.168 -1.7806 -1.0838 -0.8248
  515SOL     OW 1543   2.390   1.122   0.851  0.0996  0.1883  0.1687
  515SOL    HW1 1544   2.364   1.023   0.867 -0.8258 -0.9144 -0.4905
  515SOL    HW2 1545   2.424   1.166   0.938 -0.8250 -0.3160  2.0000
  516SOL     OW 1546   2.488   1.815   3.069 -0.1419 -0.0393 -0.0925
  516SOL    HW1 1547   2.437   1.731   0.022  0.4653 -2.0246 -1.8260
  516SOL    HW2 1548   2.589   1.800   0.002 -1.1128 -2.2447  0.8213
  517SOL     OW 1549   0.619   1.042   2.834 -0.2680 -0.2964 -0.2455
  517SOL    HW1 1550   0.617   0.985   2.753  4.1262 -1.8625  0.6885
  517SOL    HW2 1551   0.714   1.046   2.866  0.7830  1.6638 -0.9208
  518SOL     OW 1552   2.622   0.153   2.318 -0.0272  0.6965  0.3497
  518SOL    HW1 1553   2.717   0.173   2.290 -0.0661 -0.3795 -0.1360
  518SOL    HW2 1554   2.622   0.051   2.341  0.7929  0.8276  1.2250
  519SOL     OW 1555   1.479   1.521   2.763  0.5407 -0.2700  0.0743
  519SOL    HW1 1556   1.401   1.494   2.824  1.1866  1.8531 -3.2001
  519SOL    HW2 1557   1.558   1.546   2.820 -0.2167  3.6071 -1.3158
  520SOL     OW 1558   2.837   2.797   2.227  0.0957 -0.1743 -0.5075
  520SOL    HW1 1559   2.828   2.890   2.192  0.0783 -0.3630  0.8264
  520SOL    HW2 1560   2.794   2.730   2.160 -1.7349 -1.7185  0.2106
  521SOL     OW 1561   0.627   1.575   2.167 -0.0057 -0.0177 -0.5414
  521SOL    HW1 1562   0.675   1.571   2.260  1.6109  2.2329  1.0195
  521SOL    HW2 1563   0.532   1.529   2.172 -2.2606  1.4332 -1.2066
  522SOL     OW 1564   0.981   2.738   2.071  0.0490  0.0062 -0.3538
  522SOL    HW1 1565   0.942   2.720   1.977 -0.0221  0.3628 -2.0053
  522SOL    HW2 1566   1.041   2.820   2.069  1.3559 -0.0659 -3.0008
  523SOL     OW 1567   2.814   2.412   1.483  0.2980  0.6492 -0.5599
  523SOL    HW1 1568   2.749   2.432   1.406 -0.2492  2.9677 -0.6476
  523SOL    HW2 1569   2.760   2.373   1.557  1.2383 -0.5791  1.2572
  524SOL     OW 1570   1.744   2.556   0.480 -0.6736 -0.0115 -0.0190
  524SOL    HW1 1571   1.664   2.556   0.541  1.5942  0.2295 -0.2574
  524SOL    HW2 1572   1.801   2.471   0.489  1.6002 -2.7573  3.0105
  525SOL     OW 1573   2.691   0.721   1.031  0.0351  0.0137  0.3798
  525SOL    HW1 1574   2.738   0.780   0.960 -0.2134 -1.2026 -1.8105
  525SOL    HW2 1575   2.592   0.758   1.050 -2.0501  3.1570  1.4568
  526SOL     OW 1576   1.280   2.432   0.931 -0.1281 -0.1130 -0.0626
  526SOL    HW1 1577   1.379   2.433   0.943 -1.9595  0.0393 -0.6006
  526SOL    HW2 1578   1.260   2.424   0.830  2.7406  1.3162 -1.4853
  527SOL     OW 1579   2.372   2.175   0.933 -0.2404  0.3195 -0.0512
  527SOL    HW1 1580   2.439   2.222   0.994 -2.0025 -1.3032 -1.8791
  527SOL    HW2 1581   2.411   2.163   0.836  0.6356 -1.0546 -1.8976
  528SOL     OW 1582   2.048   2.994   2.782 -0.7316 -0.7210  0.4251
  528SOL    HW1 1583   1.993   2.917   2.742  1.0885  0.4821  1.1220
  528SOL    HW2 1584   2.145   2.969   2.800 -1.3858  0.6204  0.6308
  529SOL     OW 1585   1.420   1.596   2.242  0.1255  0.1336  0.2469
  529SOL    HW1 1586   1.429   1.695   2.269 -0.5049  1.9185  1.5466
  529SOL    HW2 1587   1.492   1.586   2.167  2.2759 -1.5279  0.5585
  530SOL     OW 1588   2.265   1.126   2.124 -0.3047  0.1556 -0.2785
  530SOL    HW1 1589   2.360   1.085   2.110  1.2316 -2.3302  2.9677
  530SOL    HW2 1590   2.198   1.054   2.098 -4.2509 -0.2282 -3.3778
  531SOL     OW 1591   0.435   0.877   2.988 -0.3021 -0.3767  0.0896
  531SOL    HW1 1592   0.496   0.950   2.949  1.2256  2.0519 -0.4068
  531SOL    HW2 1593   0.369   0.924   3.051 -0.1409  1.2052 -0.0484
  532SOL     OW 1594   1.597   1.612   0.584  0.2262 -0.7245 -0.2378
  532SOL    HW1 1595   1.669   1.594   0.656 -0.8934 -1.1711  1.3764
  532SOL    HW2 1596   1.551   1.700   0.613 -0.2540  2.2445 -0.6401
  533SOL     OW 1597   0.201   0.613   1.966  0.5702  0.5042  0.2281
  533SOL    HW1 1598   0.230   0.681   1.892  0.3520  3.3259 -1.9812
  533SOL    HW2 1599   0.231   0.649   2.059  1.0688 -2.1277  1.0527
  534SOL     OW 1600   1.214   0.565   2.354 -0.3297  0.3847 -0.0614
  534SOL    HW1 1601   1.310   0.532   2.358 -2.0387 -0.5777 -1.8135
  534SOL    HW2 1602   1.208   0.657   2.390  0.9677  2.4204 -1.3991
  535SOL     OW 1603   0.612   0.501   0.174 -0.0617 -0.1070  0.2297
  535SOL    HW1 1604   0.519   0.458   0.195 -1.9906 -0.5663 -0.6424
  535SOL    HW2 1605   0.608   0.601   0.170  0.8197  1.5155  1.8575
  536SOL     OW 1606   0.825   0.318   3.047  0.2329  0.3865  0.0988
  536SOL    HW1 1607   0.872   0.385   0.031 -0.2954 -0.0285  3.5756
  536SOL    HW2 1608   0.742   0.278   0.011 -2.9376 -1.8743  0.0677
  537SOL     OW 1609   1.290   2.955   1.515 -0.2842 -0.2672  0.1173
  537SOL    HW1 1610   1.245   3.006   1.587  2.4947 -1.1869  0.2512
  537SOL    HW2 1611   1.388   2.988   1.512  1.2709 -0.8671  1.6969
  538SOL     OW 1612   0.422   2.812   3.073 -0.0809  0.2882 -0.2005
  538SOL    HW1 1613   0.419   2.884   3.000  1.2842 -0.7433 -3.3097
  538SOL    HW2 1614   0.369   2.827   0.075  0.3729  1.3771 -3.4635
  539SOL     OW 1615   2.682   1.182   1.929  0.1064 -0.0257  0.1746
  539SOL    HW1 1616   2.748   1.212   1.861 -1.5938 -0.7308  0.5431
  539SOL    HW2 1617   2.590   1.205   1.897 -0.3252  0.9194  0.6612
  540SOL     OW 1618   2.039   1.980   1.581 -0.5120 -0.1859  0.1435
  540SOL    HW1 1619   2.112   1.941   1.643 -0.3764  0.4980  2.3215
  540SOL    HW2 1620   1.952   1.935   1.596  1.7463  1.4384 -1.6205
  541SOL     OW 1621   0.665   2.554   1.576 -0.2820 -0.5857 -0.0536
  541SOL    HW1 1622   0.662   2.481   1.504  0.4511  0.9318  0.1778
  541SOL    HW2 1623   0.687   2.511   1.661  0.6515  1.2989 -2.3472
  542SOL     OW 1624   2.502   0.755   1.998  0.0493 -0.1974  0.3390
  542SOL    HW1 1625   2.485   0.769   1.898 -0.4929  0.7026  0.3109
  542SOL    HW2 1626   2.428   0.697   2.041  1.2400  2.0297  1.8417
  543SOL     OW 1627   1.071   0.566   0.737 -0.0924 -0.1000  0.5480
  543SOL    HW1 1628   1.062   0.583   0.636  0.2715 -2.6608  1.7090
  543SOL    HW2 1629   1.009   0.622   0.795  0.1753 -1.3201 -0.7540
  544SOL     OW 1630   2.025   2.070   1.339 -0.5308 -0.3616 -0.0744
  544SOL    HW1 1631   2.021   2.035   1.435 -0.8585  1.1580  1.7965
  544SOL    HW2 1632   2.115   2.046   1.296  0.5661 -1.4690  0.2758
  545SOL     OW 1633   1.424   1.392   1.229 -0.0351  0.8832 -0.1225
  545SOL    HW1 1634   1.400   1.356   1.143  0.0261 -0.1286 -0.7361
  545SOL    HW2 1635   1.527   1.395   1.239 -1.1306 -2.2745  0.9476
  546SOL     OW 1636   0.121   0.010   2.820 -0.2304  0.0179 -0.2213
  546SOL    HW1 1637   0.029   3.073   2.784 -1.2204  1.3421  0.6395
  546SOL    HW2 1638   0.131   0.102   2.863  0.5511  1.4355  1.5272
  547SOL     OW 1639   2.306   0.366   2.749 -0.0045 -0.2199  0.0244
  547SOL    HW1 1640   2.299   0.361   2.850  0.6905 -1.7899  0.9054
  547SOL    HW2 1641   2.338   0.458   2.718 -1.1698  1.1343 -1.1260
  548SOL     OW 1642   2.540   2.104   2.391 -0.3252  0.1782  0.3525
  548SOL    HW1 1643   2.611   2.038   2.427 -1.6306 -1.7163  0.6077
  548SOL    HW2 1644   2.583   2.188   2.356  0.5561 -1.9134  1.3457
  549SOL     OW 1645   2.341   0.294   0.652 -0.1147 -0.3243 -0.0574
  549SOL    HW1 1646   2.382   0.380   0.690 -0.5577  1.7035  0.3616
  549SOL    HW2 1647   2.403   0.255   0.582 -0.9548 -0.7654  1.6005
  550SOL     OW 1648   2.766   1.091   0.109  0.1788  0.5623  0.3949
  550SOL    HW1 1649   2.806   1.098   0.016  2.0371 -0.2769 -1.2542
  550SOL    HW2 1650   2.664   1.099   0.102 -1.9776 -0.0204  1.7242
  551SOL     OW 1651   1.344   2.497   1.383 -0.2610  0.2119 -0.2239
  551SOL    HW1 1652   1.325   2.412   1.334  2.1185  2.0556  0.8411
  551SOL    HW2 1653   1.416   2.475   1.455 -0.6337 -0.5814 -2.0445
  552SOL     OW 1654   2.728   2.414   2.730 -0.2494 -0.0675 -0.0932
  552SOL    HW1 1655   2.705   2.443   2.633 -0.2915  1.6912 -2.1449
  552SOL    HW2 1656   2.718   2.492   2.795 -0.7793 -0.9759 -0.6618
  553SOL     OW 1657   0.515   0.010   0.535 -0.1672  0.1000 -0.1853
  553SOL    HW1 1658   0.538   0.038   0.629 -0.5720  1.9783  0.7170
  553SOL    HW2 1659   0.587   3.046   0.487 -0.3490 -1.3781 -2.9829
  554SOL     OW 1660   1.750   1.969   1.915 -0.2776 -0.4571  0.3144
  554SOL    HW1 1661   1.789   2.060   1.932  0.1290 -2.6338 -2.0796
  554SOL    HW2 1662   1.746   1.915   2.002 -0.2157  1.2734  0.3002
  555SOL     OW 1663   1.287   2.515   2.009 -0.0314  0.4096  0.4676
  555SOL    HW1 1664   1.216   2.516   1.934  0.3265 -1.5484  0.5300
  555SOL    HW2 1665   1.255   2.565   2.092 -0.3253 -1.8591  4.8005
  556SOL     OW 1666   1.801   1.584   0.740  0.1166  0.1037  0.1507
  556SOL    HW1 1667   1.793   1.643   0.826  1.6977  0.9952  0.9276
  556SOL    HW2 1668   1.812   1.486   0.765 -0.2035  3.0312 -3.3874
  557SOL     OW 1669   1.402   1.968   2.024  0.2234  0.8433  0.3965
  557SOL    HW1 1670   1.344   2.026   1.963 -1.5003 -1.7501 -0.0399
  557SOL    HW2 1671   1.465   2.026   2.082 -2.4832 -1.0293  0.7053
  558SOL     OW 1672   2.971   0.799   2.403  0.1963  0.1273  0.2285
  558SOL    HW1 1673   3.060   0.752   2.419 -0.8254  0.6950 -2.0859
  558SOL    HW2 1674   2.987   0.891   2.366 -1.9020 -1.3104  1.4732
  559SOL     OW 1675   2.123   2.658   2.121 -0.4445  0.0416 -0.1518
  559SOL    HW1 1676   2.090   2.575   2.071  0.4325 -4.3811 -0.7906
  559SOL    HW2 1677   2.107   2.644   2.221 -2.3624 -0.1499  0.7435
  560SOL     OW 1678   0.382   2.999   2.890 -0.0491 -0.4367  0.2290
  560SOL    HW1 1679   0.417   0.015   2.895 -1.4002 -2.3314 -1.6947
  560SOL    HW2 1680   0.284   2.998   2.862  0.0820  0.1475 -1.0086
  561SOL     OW 1681   1.682   0.894   0.314  0.3994 -0.4679 -0.0952
  561SOL    HW1 1682   1.621   0.938   0.249  2.8615 -0.3356 -0.2022
  561SOL    HW2 1683   1.622   0.830   0.364 -0.7751  1.8489 -0.2579
  562SOL     OW 1684   0.828   1.029   2.122 -0.4035  0.5264  0.0965
  562SOL    HW1 1685   0.735   1.016   2.164  2.4035  0.3344 -0.5586
  562SOL    HW2 1686   0.904   1.035   2.192  0.7565  1.1745  2.2812
  563SOL     OW 1687   1.642   2.219   0.175  0.1238 -0.1742 -0.0339
  563SOL    HW1 1688   1.636   2.118   0.155 -1.9742 -0.7439 -0.4929
  563SOL    HW2 1689   1.549   2.263   0.183 -1.3132 -0.7896  0.6909
  564SOL     OW 1690   0.417   1.919   0.678  0.0388 -0.2419  0.2082
  564SOL    HW1 1691   0.431   1.996   0.615 -0.4344 -0.2747 -0.6831
  564SOL    HW2 1692   0.335   1.933   0.744  1.1962 -1.0441  1.4069
  565SOL     OW 1693   0.852   2.888   3.077  0.2569  0.1414 -0.2004
  565SOL    HW1 1694   0.806   2.799   3.059  1.2070  2.2259  3.8366
  565SOL    HW2 1695   0.826   2.966   3.013  1.7415 -1.4482 -1.4551
  566SOL     OW 1696   1.971   2.553   2.775 -0.3129  0.0083  0.4017
  566SOL    HW1 1697   2.011   2.491   2.847 -1.0072 -0.3490 -0.7323
  566SOL    HW2 1698   1.897   2.512   2.719  1.7798 -1.0078  1.0311
  567SOL     OW 1699   2.656   1.672   0.982 -0.4576 -0.1082 -0.1516
  567SOL    HW1 1700   2.761   1.658   0.979  1.9644  0.2161  0.5371
  567SOL    HW2 1701   2.612   1.645   0.897 -1.3606  2.0429  2.7009
  568SOL     OW 1702   2.011   1.064   2.638 -0.1936 -0.8988  0.3447
  568SOL    HW1 1703   2.062   1.074   2.549 -1.1100 -1.4950  1.5613
  568SOL    HW2 1704   1.913   1.090   2.634 -0.1845 -0.8892  1.6082
  569SOL     OW 1705   2.060   1.600   2.301 -0.2916 -0.4057 -0.3477
  569SOL    HW1 1706   2.112   1.671   2.247  0.0987 -0.2465  0.5938
  569SOL    HW2 1707   2.118   1.518   2.306 -2.3108  1.6887 -0.2524
  570SOL     OW 1708   2.988   2.418   1.868 -0.3474 -0.1637 -0.2405
  570SOL    HW1 1709   3.032   2.460   1.948  0.8392 -1.9553 -1.8656
  570SOL    HW2 1710   2.950   2.494   1.815  0.0825 -1.4196 -0.5804
  571SOL     OW 1711   0.297   0.068   1.751 -0.5192 -0.3136 -0.7713
  571SOL    HW1 1712   0.342   0.131   1.821  0.7670 -0.2761  1.5321
  571SOL    HW2 1713   0.194   0.058   1.761 -0.3420  0.2900  0.4386
  572SOL     OW 1714   1.060   1.836   0.948  0.1299  0.3633  0.0653
  572SOL    HW1 1715   1.081   1.892   0.860  1.9278  1.7116 -1.5681
  572SOL    HW2 1716   1.125   1.857   1.026  1.2615  1.2519  0.9233
  573SOL     OW 1717   1.236   0.360   0.341  0.1373  0.2102  0.1564
  573SOL    HW1 1718   1.150   0.374   0.396 -0.1135  2.2317 -0.5345
  573SOL    HW2 1719   1.247   0.432   0.270 -0.9413  1.1515 -0.8946
  574SOL     OW 1720   0.431   0.121   0.302  0.2635  0.5426 -0.5341
  574SOL    HW1 1721   0.478   0.044   0.256  3.1423  0.7811 -0.2446
  574SOL    HW2 1722   0.448   0.113   0.402  0.5350  1.8495 -1.0965
  575SOL     OW 1723   0.481   1.569   1.198  0.1321 -0.0748  0.2624
  575SOL    HW1 1724   0.446   1.608   1.107  0.8867 -1.3282 -0.0137
  575SOL    HW2 1725   0.548   1.491   1.184  0.7040  0.7623 -1.1828
  576SOL     OW 1726   2.590   0.016   2.029  0.4571 -0.0459  0.0527
  576SOL    HW1 1727   2.490   0.023   2.043  0.7495  0.6042 -1.1019
  576SOL    HW2 1728   2.638   0.084   2.083  0.7281 -1.2842 -0.6541
  577SOL     OW 1729   2.612   1.747   1.892  0.0704  0.3495  0.2060
  577SOL    HW1 1730   2.608   1.652   1.928  0.5294 -1.2335  1.7622
  577SOL    HW2 1731   2.667   1.805   1.957  3.6657  1.5755  3.8916
  578SOL     OW 1732   0.995   0.055   2.062 -0.4169 -0.7988 -0.3869
  578SOL    HW1 1733   1.053   0.131   2.100  0.2608 -0.0811  0.0410
  578SOL    HW2 1734   0.932   0.014   2.132  1.6776 -0.5639  0.1969
  579SOL     OW 1735   2.069   1.906   2.030 -0.4283  0.1025 -0.1424
  579SOL    HW1 1736   1.982   1.879   2.073 -1.0664  2.8681  2.3047
  579SOL    HW2 1737   2.084   2.001   2.047 -0.2383 -0.7166 -2.1717
  580SOL     OW 1738   1.586   1.132   1.962  0.0987  0.0562 -0.1659
  580SOL    HW1 1739   1.605   1.082   1.873  0.4015 -1.7916  0.1724
  580SOL    HW2 1740   1.608   1.068   2.038 -1.0686  0.4261  2.0713
  581SOL     OW 1741   1.339   1.216   2.521 -0.0445  0.3093  0.7655
  581SOL    HW1 1742   1.302   1.313   2.494 -2.0731  3.2249 -1.5580
  581SOL    HW2 1743   1.318   1.157   2.445  0.4913 -0.6033  2.3309
  582SOL     OW 1744   0.097   2.296   1.725 -0.4870  0.3710  0.2990
  582SOL    HW1 1745   0.158   2.262   1.800  1.0717  2.2456 -0.6972
  582SOL    HW2 1746   0.027   2.355   1.768  0.8874  0.3500 -0.8883
  583SOL     OW 1747   1.627   0.878   0.676 -0.3402  0.2258 -0.1461
  583SOL    HW1 1748   1.726   0.857   0.691  1.6033 -0.4356 -1.2343
  583SOL    HW2 1749   1.597   0.831   0.591 -0.0231 -1.5849  1.1330
  584SOL     OW 1750   0.901   2.554   0.406 -0.0346  0.3315  0.0069
  584SOL    HW1 1751   0.806   2.587   0.388 -0.0638  0.2454 -0.4457
  584SOL    HW2 1752   0.967   2.568   0.328  1.2945  0.1604  1.0337
  585SOL     OW 1753   0.166   2.426   3.012 -0.2360 -0.2287 -0.5680
  585SOL    HW1 1754   0.076   2.402   2.971  2.5400  1.3144 -2.8009
  585SOL    HW2 1755   0.204   2.516   2.972  1.0519 -0.6169  0.2073
  586SOL     OW 1756   2.346   1.125   0.573  0.1094 -0.5291  0.0306
  586SOL    HW1 1757   2.354   1.110   0.674  1.1418 -1.1077 -0.9093
  586SOL    HW2 1758   2.319   1.222   0.559  2.4815 -1.8105  2.1889
  587SOL     OW 1759   2.994   1.688   0.492  0.1412 -0.0090 -0.5305
  587SOL    HW1 1760   0.019   1.700   0.482 -1.1911  1.0238 -0.2682
  587SOL    HW2 1761   2.949   1.746   0.565  0.0773 -1.1973  1.2482
  588SOL     OW 1762   2.965   0.487   0.675  0.0792  0.5354 -0.3623
  588SOL    HW1 1763   3.026   0.565   0.708  1.3025 -0.8888  3.9045
  588SOL    HW2 1764   3.014   0.399   0.658 -0.6212  0.1759  1.4301
  589SOL     OW 1765   1.462   0.078   0.891 -0.3688 -0.5244 -0.2503
  589SOL    HW1 1766   1.366   0.116   0.898 -1.7554 -1.6781  0.5152
  589SOL    HW2 1767   1.499   0.089   0.796 -1.1184 -1.6242  2.8049
  590SOL     OW 1768   2.508   2.295   0.341  0.0620  0.1533 -0.2317
  590SOL    HW1 1769   2.433   2.290   0.408 -3.9253  1.1865 -0.2020
  590SOL    HW2 1770   2.576   2.362   0.372  1.4841 -0.3663 -1.1043
  591SOL     OW 1771   0.400   2.520   1.833 -0.0443 -0.2817  0.5208
  591SOL    HW1 1772   0.463   2.499   1.912 -2.2618  0.1277  0.4566
  591SOL    HW2 1773   0.400   2.450   1.760 -0.8836  1.2600  2.8061
  592SOL     OW 1774   0.441   1.360   2.159  0.0241 -0.2898  0.1984
  592SOL    HW1 1775   0.392   1.301   2.224 -0.3097  0.7586  1.1889
  592SOL    HW2 1776   0.418   1.344   2.062 -0.4902  1.7081  1.0850
  593SOL     OW 1777   1.502   1.681   1.653 -0.0918  0.0416 -0.3373
  593SOL    HW1 1778   1.408   1.664   1.628  0.8432  1.0232  1.4290
  593SOL    HW2 1779   1.516   1.744   1.735  1.0388  3.7829  0.6963
  594SOL     OW 1780   0.393   1.183   2.882 -0.4489 -0.0977 -0.2432
  594SOL    HW1 1781   0.489   1.157   2.861 -1.6439 -1.1359  1.3828
  594SOL    HW2 1782   0.350   1.209   2.795 -1.2266 -0.3553 -0.0187
  595SOL     OW 1783   1.780   0.381   0.956 -0.3780 -1.1308 -0.1665
  595SOL    HW1 1784   1.815   0.443   1.030 -0.9120  1.5836 -0.3557
  595SOL    HW2 1785   1.698   0.426   0.918  5.8837 -3.8572  0.3878
  596SOL     OW 1786   0.441   0.897   0.967  0.5087 -0.0228 -0.0119
  596SOL    HW1 1787   0.495   0.983   0.958 -1.4199 -0.3249 -1.3161
  596SOL    HW2 1788   0.379   0.917   1.048  0.1317  1.3965  0.8337
  597SOL     OW 1789   0.010   2.553   2.668  0.1181  0.4889 -0.1143
  597SOL    HW1 1790   2.999   2.559   2.629 -2.0329 -1.0823 -1.1733
  597SOL    HW2 1791   0.045   2.647   2.690  1.4058 -0.3964 -1.0561
  598SOL     OW 1792   2.124   2.235   2.568  0.2107  1.1639 -0.0638
  598SOL    HW1 1793   2.122   2.244   2.468 -0.8902  0.6451  0.3658
  598SOL    HW2 1794   2.210   2.275   2.603  2.3016  0.7990 -0.9829
  599SOL     OW 1795   1.370   0.972   0.453  0.3733  0.4717  0.2222
  599SOL    HW1 1796   1.409   0.900   0.512 -2.6830  0.7750  0.9192
  599SOL    HW2 1797   1.400   1.065   0.485  0.4733 -0.9809  2.2889
  600SOL     OW 1798   1.269   0.141   0.537 -0.3943 -0.2698  0.0903
  600SOL    HW1 1799   1.234   0.215   0.477 -2.0612 -1.7703 -0.7805
  600SOL    HW2 1800   1.356   0.105   0.494  1.2917 -0.2895 -0.6300
  601SOL     OW 1801   0.576   0.229   1.495 -0.0503  0.1636 -0.2217
  601SOL    HW1 1802   0.519   0.150   1.519  2.2669 -0.3722  0.2182
  601SOL    HW2 1803   0.522   0.293   1.433 -2.7698 -0.8842 -4.7351
  602SOL     OW 1804   0.267   2.703   0.723  0.1085 -0.3046  0.5948
  602SOL    HW1 1805   0.288   2.777   0.659 -0.6321 -0.1159  3.5712
  602SOL    HW2 1806   0.183   2.654   0.696 -0.6756  4.0412 -1.8707
  603SOL     OW 1807   0.957   2.753   2.389 -0.7119 -0.0903  0.1323
  603SOL    HW1 1808   1.027   2.827   2.402 -0.9798  0.6985  1.5234
  603SOL    HW2 1809   0.996   2.663   2.427  1.3350  0.5268  2.1928
  604SOL     OW 1810   1.168   2.572   0.219 -0.3353  0.5360  0.6090
  604SOL    HW1 1811   1.266   2.565   0.252 -0.0687 -1.0440 -0.1452
  604SOL    HW2 1812   1.148   2.661   0.176  2.0206  1.6435 -2.0759
  605SOL     OW 1813   1.622   0.999   1.725  0.1092  0.1647  0.1239
  605SOL    HW1 1814   1.562   0.986   1.644  0.2001  0.5959 -1.1975
  605SOL    HW2 1815   1.717   1.001   1.693 -1.8349 -2.4061  3.0178
  606SOL     OW 1816   0.869   0.805   2.466 -0.3700 -0.2303  0.5508
  606SOL    HW1 1817   0.884   0.726   2.407  1.1223  2.3782  0.5853
  606SOL    HW2 1818   0.918   0.890   2.435 -3.6587 -0.3444  0.2340
  607SOL     OW 1819   0.473   1.194   1.072 -0.2759 -0.0160  0.0374
  607SOL    HW1 1820   0.472   1.166   1.172 -1.4795  4.6615  0.1912
  607SOL    HW2 1821   0.377   1.223   1.055 -1.9418  2.9748  0.3036
  608SOL     OW 1822   2.310   2.010   2.294 -0.0223  0.3686  0.8731
  608SOL    HW1 1823   2.298   2.086   2.226 -1.4986  1.2928 -0.9013
  608SOL    HW2 1824   2.401   2.029   2.342  1.2472 -1.8742  0.8672
  609SOL     OW 1825   1.956   0.137   2.939 -0.6278  0.6788 -0.1097
  609SOL    HW1 1826   1.964   0.104   3.037  2.1315 -0.9124 -0.2932
  609SOL    HW2 1827   1.996   0.067   2.875  1.6294 -1.2254 -0.9675
  610SOL     OW 1828   0.432   2.738   1.569  0.6599  0.2567 -0.1685
  610SOL    HW1 1829   0.499   2.661   1.566  0.1013  1.1655  0.4251
  610SOL    HW2 1830   0.475   2.815   1.515 -0.2102  0.2021 -0.8932
  611SOL     OW 1831   1.293   1.618   1.044 -0.3721 -0.3014  0.0209
  611SOL    HW1 1832   1.231   1.635   0.964  1.6213  2.1774 -0.6116
  611SOL    HW2 1833   1.267   1.530   1.095 -1.3347 -1.6021 -0.1083
  612SOL     OW 1834   0.787   3.068   2.281 -0.0677 -0.4032  0.3987
  612SOL    HW1 1835   0.789   0.089   2.315 -1.4178  0.6921  0.8572
  612SOL    HW2 1836   0.759   3.018   2.366  0.6363  2.8776  1.1438
  613SOL     OW 1837   2.795   1.535   0.405  0.1260  0.3335 -0.8158
  613SOL    HW1 1838   2.805   1.437   0.438  0.0395  0.6034  1.8394
  613SOL    HW2 1839   2.869   1.600   0.436 -1.3977 -0.1292  1.3320
  614SOL     OW 1840   1.791   0.053   1.728  0.1751 -0.4973 -0.1385
  614SOL    HW1 1841   1.879   0.043   1.676  1.9354 -0.8754  3.4387
  614SOL    HW2 1842   1.776   0.147   1.763  3.1435  0.4623  0.3763
  615SOL     OW 1843   1.014   1.657   1.397 -0.1313  0.6265 -0.2209
  615SOL    HW1 1844   1.073   1.582   1.355  2.8517  1.5892  0.2677
  615SOL    HW2 1845   1.071   1.733   1.432  0.1726  0.1971 -0.6274
  616SOL     OW 1846   1.657   1.556   2.960  0.4188 -0.0790 -0.3790
  616SOL    HW1 1847   1.692   1.460   2.969  0.0957  0.1324  1.3817
  616SOL    HW2 1848   1.595   1.576   3.040 -0.6543  1.1778  1.2022
  617SOL     OW 1849   1.916   2.852   0.217  0.4407  0.2413  0.4848
  617SOL    HW1 1850   1.857   2.926   0.184  0.5266 -0.1078 -0.0363
  617SOL    HW2 1851   1.862   2.766   0.206 -1.1177  3.9518  0.7877
  618SOL     OW 1852   1.010   0.620   2.708  0.1550 -0.0183 -0.7349
  618SOL    HW1 1853   1.007   0.659   2.804 -1.1279 -0.1797  1.5496
  618SOL    HW2 1854   1.007   0.695   2.632  1.7325 -0.1689 -2.4916
  619SOL     OW 1855   2.738   1.375   0.645  0.1122  0.1869  0.3599
  619SOL    HW1 1856   2.689   1.290   0.639 -1.6960  1.5942 -1.3030
  619SOL    HW2 1857   2.689   1.446   0.695  0.2481 -2.5355 -1.1462
  620SOL     OW 1858   2.470   2.553   3.006 -0.5669  0.1932 -0.3271
  620SOL    HW1 1859   2.387   2.605   3.009  0.5739 -0.4182 -0.9416
  620SOL    HW2 1860   2.446   2.460   2.971 -0.5884  1.0152 -1.1427
  621SOL     OW 1861   2.474   1.135   0.120 -0.4882 -0.0695  0.1696
  621SOL    HW1 1862   2.454   1.056   0.174  0.3856  3.6389 -0.0748
  621SOL    HW2 1863   2.397   1.164   0.063 -0.4408 -0.1912 -1.0462
  622SOL     OW 1864   1.376   2.488   2.438 -0.0692 -0.1240 -0.0832
  622SOL    HW1 1865   1.387   2.449   2.342  1.4516 -1.6507 -1.1018
  622SOL    HW2 1866   1.436   2.432   2.499 -0.1279 -2.7892 -2.8969
  623SOL     OW 1867   0.811   1.691   0.156 -0.5082  0.2270  0.6704
  623SOL    HW1 1868   0.835   1.603   0.106  2.2182  0.6439 -0.5516
  623SOL    HW2 1869   0.841   1.773   0.099  0.5949  1.0474 -1.0534
  624SOL     OW 1870   0.506   0.162   2.897  0.2183 -0.3378  0.1629
  624SOL    HW1 1871   0.462   0.231   2.965  0.5323  0.0474  0.2030
  624SOL    HW2 1872   0.600   0.129   2.925 -0.3032 -1.4864  0.6048
  625SOL     OW 1873   1.080   2.002   0.720  0.0944  0.1444 -0.8230
  625SOL    HW1 1874   1.169   2.019   0.675  0.6120  1.6786 -0.2867
  625SOL    HW2 1875   1.024   2.085   0.721 -1.7868  1.4634  1.4217
  626SOL     OW 1876   2.728   2.839   2.753  0.1673 -0.7112  0.1025
  626SOL    HW1 1877   2.648   2.906   2.762 -2.5501  3.2536 -2.6948
  626SOL    HW2 1878   2.772   2.819   2.846  0.2907  0.2571  3.1136
  627SOL     OW 1879   1.580   1.364   2.550 -0.2933 -0.1994 -0.8998
  627SOL    HW1 1880   1.550   1.418   2.628  2.9085  1.5100 -1.4080
  627SOL    HW2 1881   1.500   1.308   2.528 -0.7312 -1.7695 -0.2414
  628SOL     OW 1882   0.274   0.695   2.230  0.0642 -0.1081  0.2888
  628SOL    HW1 1883   0.196   0.687   2.289  0.1280 -0.6302 -2.8053
  628SOL    HW2 1884   0.349   0.641   2.265 -1.6531  2.0658 -3.0280
  629SOL     OW 1885   3.045   2.859   1.968  0.1773 -0.6619 -0.1560
  629SOL    HW1 1886   2.996   2.917   2.036  1.9084 -0.8734  1.9340
  629SOL    HW2 1887   0.062   2.852   1.996  0.3132  2.5356  1.8211
  630SOL     OW 1888   1.411   0.801   1.836  0.4349  0.0621  0.4608
  630SOL    HW1 1889   1.340   0.788   1.761  1.6967  1.4373  2.0253
  630SOL    HW2 1890   1.474   0.877   1.807  0.6629  2.7658  2.1108
  631SOL     OW 1891   2.420   0.984   0.344 -0.2367 -0.7519 -0.1526
  631SOL    HW1 1892   2.434   0.887   0.368  1.3364  2.5398 -2.6442
  631SOL    HW2 1893   2.425   1.049   0.424  0.6209  0.4918  2.6902
  632SOL     OW 1894   1.889   0.092   2.036 -0.0768 -0.4975  0.2041
  632SOL    HW1 1895   1.933   0.006   2.010  0.0731 -1.2734 -1.7185
  632SOL    HW2 1896   1.941   0.173   2.004  1.5768 -1.0337  0.5063
  633SOL     OW 1897   0.808   2.809   0.248  0.5924  0.2953  0.0657
  633SOL    HW1 1898   0.831   2.822   0.151 -0.5026 -1.0081  3.6113
  633SOL    HW2 1899   0.741   2.737   0.258  1.3640  2.6136  0.3797
  634SOL     OW 1900   1.314   2.402   2.790 -0.0542  0.1545 -0.2145
  634SOL    HW1 1901   1.378   2.344   2.732 -0.5924  2.0270 -0.3616
  634SOL    HW2 1902   1.276   2.351   2.868  0.8491  0.1163 -0.5554
  635SOL     OW 1903   2.453   0.086   3.019  0.1561 -0.1914  0.3618
  635SOL    HW1 1904   2.532   0.149   3.050  0.9206 -0.4315  2.2221
  635SOL    HW2 1905   2.359   0.132   3.027  1.0470  0.3386  1.2144
  636SOL     OW 1906   0.867   1.270   0.583  0.2939 -0.0760  0.4275
  636SOL    HW1 1907   0.834   1.257   0.680 -2.8640 -2.4441  1.9278
  636SOL    HW2 1908   0.871   1.176   0.545  1.2927  1.0246 -0.3416
  637SOL     OW 1909   0.335   2.383   0.659 -0.1713  0.7758 -0.0527
  637SOL    HW1 1910   0.414   2.337   0.704 -0.0017 -1.3642  0.0404
  637SOL    HW2 1911   0.343   2.483   0.650  3.3657  1.6341  0.9754
  638SOL     OW 1912   0.568   2.993   0.193  0.0735 -0.1093  0.2809
  638SOL    HW1 1913   0.652   2.952   0.165 -2.3534 -0.9571 -0.2209
  638SOL    HW2 1914   0.494   2.928   0.196  0.2746  0.7462 -1.8639
  639SOL     OW 1915   1.373   1.520   0.333 -0.1655 -0.1115 -0.2959
  639SOL    HW1 1916   1.410   1.506   0.429 -1.4150 -1.1221  1.9733
  639SOL    HW2 1917   1.292   1.581   0.321  1.0158 -3.9633  0.6581
  640SOL     OW 1918   1.765   2.608   0.982  0.6499 -0.3717  0.0496
  640SOL    HW1 1919   1.724   2.569   0.900 -0.5152 -0.5279  2.4587
  640SOL    HW2 1920   1.755   2.709   0.985  0.0969 -1.1695  1.0843
  641SOL     OW 1921   0.038   2.532   0.708 -0.5754 -0.1045  0.7071
  641SOL    HW1 1922   0.046   2.432   0.721  1.5260 -0.0324 -0.0481
  641SOL    HW2 1923   3.062   2.546   0.619  0.9535 -1.2811 -3.7248
  642SOL     OW 1924   0.733   0.348   1.671  0.2391 -0.0552 -0.2282
  642SOL    HW1 1925   0.774   0.295   1.748  1.2808 -1.7271  0.2507
  642SOL    HW2 1926   0.702   0.292   1.593 -0.1196  1.1320 -0.2450
  643SOL     OW 1927   0.790   1.839   2.260  0.0127  0.0931 -0.5388
  643SOL    HW1 1928   0.748   1.866   2.176  0.8867 -0.6291  1.0976
  643SOL    HW2 1929   0.850   1.910   2.303 -0.2677 -0.1256 -3.2398
  644SOL     OW 1930   0.796   3.018   0.462  0.7678  0.0309  0.1904
  644SOL    HW1 1931   0.801   2.948   0.385  0.4317 -1.8055 -0.8939
  644SOL    HW2 1932   0.884   3.019   0.516  0.4231 -2.2851  2.0330
  645SOL     OW 1933   0.916   1.564   2.801 -0.6987 -0.1386  0.0939
  645SOL    HW1 1934   0.815   1.592   2.799  0.5293  0.9222 -0.2226
  645SOL    HW2 1935   0.975   1.649   2.799  1.0069 -1.2924 -1.0318
  646SOL     OW 1936   0.370   1.470   0.057 -0.7061 -0.0938  0.1408
  646SOL    HW1 1937   0.354   1.572   0.070  1.4705  1.4296 -1.9360
  646SOL    HW2 1938   0.333   1.422   0.135 -1.9676  1.8312 -0.5392
  647SOL     OW 1939   1.104   0.011   0.974  0.0942  0.1865 -0.0281
  647SOL    HW1 1940   1.117   0.056   1.062  0.5466 -0.3096 -1.7953
  647SOL    HW2 1941   1.101   2.990   0.985  0.9910 -2.0958  0.0064
  648SOL     OW 1942   2.742   2.627   2.022  0.0278  0.2903  0.3279
  648SOL    HW1 1943   2.653   2.675   2.020 -1.7426  2.3089  2.4052
  648SOL    HW2 1944   2.801   2.644   1.938  1.4825  0.4262 -0.5807
  649SOL     OW 1945   0.619   2.410   3.019  0.1700  0.0457 -0.2728
  649SOL    HW1 1946   0.627   2.336   2.950 -1.5120  1.9203 -0.8417
  649SOL    HW2 1947   0.526   2.413   3.057 -1.0280  0.6595  2.6062
  650SOL     OW 1948   0.332   1.884   1.625 -0.6247 -0.4649 -0.0621
  650SOL    HW1 1949   0.351   1.783   1.614  0.6898  2.7527 -0.0071
  650SOL    HW2 1950   0.267   1.916   1.556  3.6308  1.6560  0.1380
  651SOL     OW 1951   0.660   0.169   0.122  0.0373  0.2521 -0.0630
  651SOL    HW1 1952   0.666   0.198   0.219  0.6141  0.0662  0.8778
  651SOL    HW2 1953   0.591   0.095   0.109 -0.2013 -1.5410  2.3006
  652SOL     OW 1954   2.618   1.856   0.263  0.3745  0.0904 -0.0348
  652SOL    HW1 1955   2.695   1.809   0.214  1.6375 -1.1401  0.2806
  652SOL    HW2 1956   2.538   1.865   0.202  0.4522 -1.2180  1.1766
  653SOL     OW 1957   2.870   0.241   0.858 -0.1131  0.2562 -0.6221
  653SOL    HW1 1958   2.844   0.325   0.907 -2.0331  0.0856  0.2876
  653SOL    HW2 1959   2.959   0.207   0.903  1.9628 -2.5324  0.5137
  654SOL     OW 1960   1.425   0.205   2.452 -0.0639 -0.2036 -0.7046
  654SOL    HW1 1961   1.437   0.240   2.550  0.9554 -0.5344  3.4092
  654SOL    HW2 1962   1.358   0.125   2.457  0.3180 -0.8085  0.9528
  655SOL     OW 1963   0.902   2.333   1.182  0.3955 -0.4172  0.6716
  655SOL    HW1 1964   0.971   2.401   1.139  2.3962  3.7503 -2.3077
  655SOL    HW2 1965   0.804   2.355   1.163 -0.5452  0.2691  0.4799
  656SOL     OW 1966   0.350   0.247   1.948  0.1051 -0.5700 -0.3171
  656SOL    HW1 1967   0.303   0.319   1.889  0.6658  1.9081  0.4286
  656SOL    HW2 1968   0.294   0.223   2.032  2.1469  1.1548  3.1178
  657SOL     OW 1969   1.949   0.697   1.988  0.1199  0.4547 -0.1371
  657SOL    HW1 1970   1.865   0.700   2.044  0.4478 -1.4844 -1.3602
  657SOL    HW2 1971   1.933   0.670   1.892 -0.9641 -1.0647 -1.1662
  658SOL     OW 1972   2.219   1.821   1.221 -0.4637  0.0764 -0.2908
  658SOL    HW1 1973   2.256   1.882   1.299 -1.3006  0.6941  0.5090
  658SOL    HW2 1974   2.192   1.731   1.251 -1.0119  1.2325 -2.6672
  659SOL     OW 1975   2.615   2.739   0.026 -0.5915  0.0959  0.0869
  659SOL    HW1 1976   2.696   2.755   3.051  1.1391  2.5864  0.9512
  659SOL    HW2 1977   2.553   2.668   3.065 -2.4261 -1.5061  1.8556
  660SOL     OW 1978   0.861   1.316   2.684 -0.1091  0.6084 -0.3637
  660SOL    HW1 1979   0.892   1.404   2.725 -0.0532  1.8240  0.6404
  660SOL    HW2 1980   0.875   1.246   2.757 -1.0139  2.1845  1.8195
  661SOL     OW 1981   2.393   2.540   1.153 -0.8972 -0.5319  0.0991
  661SOL    HW1 1982   2.470   2.534   1.219  0.4990  0.4335  2.2544
  661SOL    HW2 1983   2.329   2.461   1.162  0.9386 -0.4482 -0.0139
  662SOL     OW 1984   0.543   0.750   0.168  0.3031 -0.5907  0.5724
  662SOL    HW1 1985   0.527   0.743   0.271  0.2680  3.4690  0.4803
  662SOL    HW2 1986   0.457   0.732   0.114  0.1419  1.0970 -0.9999
  663SOL     OW 1987   1.067   2.097   0.034 -0.5689 -0.1935 -0.1162
  663SOL    HW1 1988   1.162   2.057   0.065  2.1102 -2.6519 -0.4739
  663SOL    HW2 1989   1.055   2.194   0.067  0.4457  0.4402 -0.9801
  664SOL     OW 1990   0.571   2.947   1.446  0.0468  0.0155 -0.1230
  664SOL    HW1 1991   0.639   2.935   1.374  0.8227  0.3695 -0.3022
  664SOL    HW2 1992   0.621   2.995   1.520  0.5844  0.3721  1.6782
  665SOL     OW 1993   1.877   1.649   1.789  0.2867  0.6440  0.5293
  665SOL    HW1 1994   1.849   1.742   1.759  0.3539 -1.9683  0.3125
  665SOL    HW2 1995   1.873   1.588   1.704 -2.9717 -0.3630 -0.3959
  666SOL     OW 1996   0.341   2.819   0.251  0.1804  0.1474 -0.0253
  666SOL    HW1 1997   0.263   2.755   0.233 -2.3696 -1.4624  1.3071
  666SOL    HW2 1998   0.319   2.856   0.342 -1.6246 -0.6120  2.8346
  667SOL     OW 1999   1.658   1.657   1.407 -0.1725  0.4232 -0.0369
  667SOL    HW1 2000   1.727   1.724   1.378 -0.1770 -0.3889  1.1536
  667SOL    HW2 2001   1.603   1.683   1.491  0.6258 -1.6965 -1.3936
  668SOL     OW 2002   0.443   0.476   2.300 -0.1288  0.4028  0.3526
  668SOL    HW1 2003   0.470   0.386   2.340  2.4659 -0.0243  0.2746
  668SOL    HW2 2004   0.521   0.537   2.275 -0.7142 -0.0604  0.1877
  669SOL     OW 2005   1.789   2.138   2.364  0.5679 -0.0063 -0.5461
  669SOL    HW1 2006   1.868   2.113   2.308 -1.4105 -1.2010  0.0231
  669SOL    HW2 2007   1.790   2.092   2.459  0.9413  0.1579 -0.4847
  670SOL     OW 2008   2.313   2.142   0.523  0.4116  0.6951  0.5288
  670SOL    HW1 2009   2.278   2.051   0.486 -2.3151 -2.1581 -1.1867
  670SOL    HW2 2010   2.371   2.128   0.607 -2.7279 -0.1137 -1.4383
  671SOL     OW 2011   0.664   1.375   1.163 -0.2547 -0.1599 -0.0482
  671SOL    HW1 2012   0.745   1.381   1.099  0.8411 -1.2157  0.9747
  671SOL    HW2 2013   0.595   1.317   1.124  3.4890 -0.1770  2.2119
  672SOL     OW 2014   2.769   1.246   2.323  0.1686  0.8146  0.0426
  672SOL    HW1 2015   2.789   1.202   2.229  1.3198  0.7183 -2.1498
  672SOL    HW2 2016   2.725   1.175   2.377  0.3054 -0.9226  0.5113
  673SOL     OW 2017   3.070   1.682   2.418 -0.4410  0.0295  0.0903
  673SOL    HW1 2018   3.049   1.739   2.501 -0.1389 -1.2526 -1.6704
  673SOL    HW2 2019   3.015   1.595   2.411  1.3725 -1.4165  0.6331
  674SOL     OW 2020   0.789   2.563   2.179  0.2059  0.2441 -0.3926
  674SOL    HW1 2021   0.817   2.524   2.271  0.5895 -1.6556  0.8851
  674SOL    HW2 2022   0.856   2.636   2.149  0.0979  1.5514  0.3569
  675SOL     OW 2023   0.528   0.812   1.289 -0.5418  0.5485 -0.3561
  675SOL    HW1 2024   0.588   0.799   1.369 -0.9115 -0.2950  1.0938
  675SOL    HW2 2025   0.507   0.914   1.280 -0.4134 -0.5338 -1.2041
  676SOL     OW 2026   1.950   0.892   0.401  0.0572 -0.0028 -0.0306
  676SOL    HW1 2027   1.855   0.884   0.370 -0.4687 -1.3554 -0.4890
  676SOL    HW2 2028   1.977   0.985   0.434  1.3010  1.7595  1.4071
  677SOL     OW 2029   2.930   1.729   2.878  0.3306  0.0242 -0.5823
  677SOL    HW1 2030   2.849   1.685   2.848  3.4690  0.7391  4.2674
  677SOL    HW2 2031   3.010   1.666   2.855 -0.9407 -0.5539 -0.6032
  678SOL     OW 2032   3.045   2.263   1.196 -0.1009  0.7631 -0.3161
  678SOL    HW1 2033   3.033   2.166   1.163  1.0745  3.3803 -0.9924
  678SOL    HW2 2034   3.054   2.262   1.300 -0.0803  3.1616  0.2732
  679SOL     OW 2035   2.115   2.921   0.694  0.6307 -0.2355 -0.2455
  679SOL    HW1 2036   2.075   2.935   0.600 -0.2171  0.9756 -0.8080
  679SOL    HW2 2037   2.146   3.012   0.724  2.2796  1.6443 -1.2148
  680SOL     OW 2038   3.073   2.472   2.122  0.7193 -0.0395 -0.5178
  680SOL    HW1 2039   3.002   2.438   2.190  1.7204  1.8808  0.1499
  680SOL    HW2 2040   0.019   2.569   2.145  1.4640 -1.0807 -0.5531
  681SOL     OW 2041   0.118   1.273   1.447 -0.1188 -0.7939  0.3480
  681SOL    HW1 2042   0.184   1.282   1.371 -1.8553 -0.3232  1.5686
  681SOL    HW2 2043   0.170   1.232   1.525  1.3508 -0.2849  0.7632
  682SOL     OW 2044   0.573   1.802   1.318  0.3341  0.6091  0.3513
  682SOL    HW1 2045   0.667   1.816   1.275  1.9538 -0.6043 -0.7804
  682SOL    HW2 2046   0.524   1.720   1.278 -0.6815  0.1979  0.0033
  683SOL     OW 2047   2.824   1.734   1.414 -0.1252  0.0958  0.0382
  683SOL    HW1 2048   2.899   1.670   1.415 -1.2366 -1.6679 -0.1751
  683SOL    HW2 2049   2.790   1.738   1.513  2.2438 -2.3230 -1.0443
  684SOL     OW 2050   3.030   1.472   0.009  0.2409 -0.3724 -0.1991
  684SOL    HW1 2051   3.068   1.492   0.102  0.5648  2.6974 -1.1758
  684SOL    HW2 2052   0.032   1.458   3.030 -0.7974 -1.5851 -0.1563
  685SOL     OW 2053   0.935   0.910   0.259 -0.4863 -0.5632 -0.1517
  685SOL    HW1 2054   0.881   0.890   0.173  1.4519 -0.4742  0.3356
  685SOL    HW2 2055   1.017   0.852   0.269 -2.2791  0.5486  0.4852
  686SOL     OW 2056   0.005   0.123   0.981  0.4954  0.0449 -0.9912
  686SOL    HW1 2057   0.076   0.139   1.047 -0.0852 -0.0058 -1.5627
  686SOL    HW2 2058   0.041   0.067   0.907 -0.1469 -0.0357  2.6681
  687SOL     OW 2059   1.068   1.322   2.249  0.0108 -0.1255  0.0123
  687SOL    HW1 2060   0.977   1.331   2.296 -2.8870 -0.1318 -0.9018
  687SOL    HW2 2061   1.141   1.356   2.315  0.1188  0.1292 -1.1053
  688SOL     OW 2062   0.918   1.893   1.849  0.0869 -0.2013 -0.1457
  688SOL    HW1 2063   0.820   1.876   1.825  0.5144 -0.5731  3.3482
  688SOL    HW2 2064   0.928   1.952   1.932  0.0814  0.7417 -0.0816
  689SOL     OW 2065   1.847   0.579   1.143 -0.0828 -0.3931 -0.2278
  689SOL    HW1 2066   1.793   0.594   1.225  2.2251  0.1048 -3.4615
  689SOL    HW2 2067   1.846   0.662   1.083  1.8257 -0.3277  2.4785
  690SOL     OW 2068   2.902   1.081   0.995 -0.0145 -0.0431  0.2316
  690SOL    HW1 2069   2.926   1.178   1.016 -0.4591 -3.4109 -1.7950
  690SOL    HW2 2070   2.947   1.021   1.066  3.1554  0.5483 -0.4172
  691SOL     OW 2071   0.249   2.317   1.415 -0.1463 -0.1946  0.0703
  691SOL    HW1 2072   0.152   2.300   1.442  0.6909  2.6395 -1.3100
  691SOL    HW2 2073   0.265   2.414   1.387  0.5546  0.3099  3.2882
  692SOL     OW 2074   1.922   2.986   1.303  0.1387 -0.8166  0.3539
  692SOL    HW1 2075   1.897   2.951   1.211 -1.2892  0.0420 -0.0398
  692SOL    HW2 2076   2.019   3.002   1.317 -4.5907  0.0853  0.9344
  693SOL     OW 2077   0.385   1.591   2.512 -0.1044 -0.2108  0.4468
  693SOL    HW1 2078   0.478   1.625   2.501 -0.8743  0.2677 -1.1374
  693SOL    HW2 2079   0.330   1.629   2.437  1.8939  0.8754  0.9091
  694SOL     OW 2080   1.813   0.829   1.026  0.2762 -0.0564  0.6162
  694SOL    HW1 2081   1.901   0.837   1.079  1.4584 -0.8808 -0.5257
  694SOL    HW2 2082   1.738   0.896   1.062  0.1119  1.3451 -1.1715
  695SOL     OW 2083   0.824   1.145   1.278  0.0411  0.3743  0.0676
  695SOL    HW1 2084   0.777   1.212   1.337 -1.6959 -0.5498  1.9028
  695SOL    HW2 2085   0.914   1.184   1.251  1.2375  0.8788 -1.7467
  696SOL     OW 2086   1.771   3.027   0.837  0.3151  0.2814  0.1820
  696SOL    HW1 2087   1.778   2.995   0.739  1.9815 -1.7561 -2.5002
  696SOL    HW2 2088   1.677   3.053   0.863 -1.3809  1.6275  0.6688
  697SOL     OW 2089   0.846   0.138   0.909 -0.0532 -0.4421 -0.5932
  697SOL    HW1 2090   0.928   0.099   0.951 -2.6969  1.3543 -1.7519
  697SOL    HW2 2091   0.771   0.169   0.971 -1.9504 -0.3096 -2.5030
  698SOL     OW 2092   1.401   1.339   1.983 -0.2817 -0.3982  0.2292
  698SOL    HW1 2093   1.469   1.266   1.977 -0.2075  1.9975  0.0023
  698SOL    HW2 2094   1.457   1.423   1.994  1.0036 -0.9459 -0.4689
  699SOL     OW 2095   1.480   0.822   0.907 -0.4944  0.3785 -1.0334
  699SOL    HW1 2096   1.561   0.849   0.858 -2.0140 -0.0630 -1.1828
  699SOL    HW2 2097   1.396   0.818   0.845 -1.4546  0.5266 -0.6973
  700SOL     OW 2098   1.418   2.510   0.350  0.3079 -0.2505 -0.2566
  700SOL    HW1 2099   1.471   2.586   0.307 -0.7475 -0.5289  0.4443
  700SOL    HW2 2100   1.433   2.509   0.448 -0.2535  0.9839 -0.4373
  701SOL     OW 2101   2.134   2.431   2.982  0.4179  0.0679 -0.2526
  701SOL    HW1 2102   2.072   2.361   3.032 -0.0716 -1.8296  0.4494
  701SOL    HW2 2103   2.219   2.395   2.959  0.0835  1.0470  1.2886
  702SOL     OW 2104   0.970   0.282   0.694  0.3242 -0.5425 -0.6168
  702SOL    HW1 2105   0.906   0.244   0.761  0.5455  2.8048 -1.0617
  702SOL    HW2 2106   0.988   0.379   0.715 -0.5457 -0.2089  1.4276
  703SOL     OW 2107   2.011   0.422   2.302  0.2799  0.6214  0.5089
  703SOL    HW1 2108   2.041   0.414   2.400  1.3402 -0.4477  0.4337
  703SOL    HW2 2109   1.909   0.433   2.296  0.8180  1.6183 -1.0004
  704SOL     OW 2110   0.100   2.270   0.744 -0.2198  0.1016 -0.5369
  704SOL    HW1 2111   0.059   2.187   0.697  1.2140 -1.0244 -1.3489
  704SOL    HW2 2112   0.191   2.296   0.707  1.2228  1.2357  2.8959
  705SOL     OW 2113   2.642   2.376   2.008  0.3155 -0.1956 -0.0728
  705SOL    HW1 2114   2.577   2.375   1.931  0.3794 -1.5352  1.1565
  705SOL    HW2 2115   2.693   2.462   2.017 -0.6383  0.5511  0.2653
  706SOL     OW 2116   2.355   2.766   0.998 -0.2134  0.0873  0.6132
  706SOL    HW1 2117   2.382   2.690   1.059  3.4887  1.6186  0.0883
  706SOL    HW2 2118   2.381   2.743   0.899  1.0005 -1.5160 -3.7563
  707SOL     OW 2119   0.585   2.440   2.038 -0.5167 -0.6637 -0.6695
  707SOL    HW1 2120   0.626   2.347   2.019 -0.1844 -1.2791  1.9321
  707SOL    HW2 2121   0.660   2.503   2.062  0.7302  0.8734 -1.2712
  708SOL     OW 2122   2.951   2.299   2.307 -0.3196 -0.6090  0.0309
  708SOL    HW1 2123   2.944   2.238   2.393 -0.8304  0.7754  1.2185
  708SOL    HW2 2124   3.010   2.248   2.238 -1.0278 -0.5609  2.6338
  709SOL     OW 2125   2.000   2.923   2.062 -0.9538 -0.1033  0.3306
  709SOL    HW1 2126   2.044   2.829   2.079 -1.9525 -0.2715  1.2481
  709SOL    HW2 2127   1.990   2.980   2.149 -1.7061  2.7731  2.0914
  710SOL     OW 2128   1.414   0.868   2.235  0.3123  0.2269  0.5788
  710SOL    HW1 2129   1.443   0.829   2.324  1.0631  0.7703  0.0790
  710SOL    HW2 2130   1.362   0.807   2.175 -2.0881  1.1794  0.6885
  711SOL     OW 2131   0.673   1.986   2.972 -0.0428 -0.5101 -0.0684
  711SOL    HW1 2132   0.772   1.951   2.976  0.6894  1.5315  0.4281
  711SOL    HW2 2133   0.606   1.909   2.967  3.7018  2.1387 -0.0254
  712SOL     OW 2134   0.645   2.484   2.447  0.2424 -0.2937  0.1411
  712SOL    HW1 2135   0.661   2.581   2.429 -1.9571 -1.5979 -0.6259
  712SOL    HW2 2136   0.564   2.451   2.391 -1.9177  3.6991 -0.8046
  713SOL     OW 2137   1.728   1.297   2.911  0.2793 -0.8870 -0.5558
  713SOL    HW1 2138   1.806   1.282   2.846  0.5553  0.2166 -0.6591
  713SOL    HW2 2139   1.751   1.267   3.008  2.5706  0.8874  1.7947
  714SOL     OW 2140   1.345   1.369   1.704  0.4704  0.2772  0.2001
  714SOL    HW1 2141   1.438   1.396   1.676 -0.3392 -0.1564 -1.3442
  714SOL    HW2 2142   1.334   1.347   1.801 -2.9549  0.7442  1.5771
  715SOL     OW 2143   1.790   0.686   2.503  0.8163 -0.0164 -0.1823
  715SOL    HW1 2144   1.885   0.717   2.513 -0.1809 -1.9708  0.1306
  715SOL    HW2 2145   1.771   0.614   2.435 -0.3167 -2.9087 -1.5664
  716SOL     OW 2146   2.971   2.126   1.901  0.6542  0.9391 -0.0026
  716SOL    HW1 2147   2.962   2.222   1.874  0.3794 -2.1735  2.7136
  716SOL    HW2 2148   2.997   2.108   1.998  1.8963 -1.6539  0.5157
  717SOL     OW 2149   2.655   1.034   1.070 -0.2482 -0.2186 -0.0524
  717SOL    HW1 2150   2.748   1.073   1.085  1.3149  0.5650  0.9435
  717SOL    HW2 2151   2.633   1.033   0.971  1.2617 -0.4465 -2.9146
  718SOL     OW 2152   0.952   1.632   2.291 -0.4378 -0.2209  0.5285
  718SOL    HW1 2153   0.897   1.718   2.284  1.3676 -1.8200  2.3331
  718SOL    HW2 2154   1.010   1.610   2.210 -1.5323  1.6830  0.0133
  719SOL     OW 2155   1.978   0.858   2.831  0.9166 -0.0321 -0.2592
  719SOL    HW1 2156   1.999   0.919   2.753 -3.0132 -1.6750 -2.1735
  719SOL    HW2 2157   1.952   0.907   2.918  0.2005 -2.6112  2.7044
  720SOL     OW 2158   0.669   0.549   0.618  0.0555 -0.2324 -0.2219
  720SOL    HW1 2159   0.663   0.579   0.712  0.4647 -1.9411 -1.9504
  720SOL    HW2 2160   0.642   0.450   0.602 -1.5287 -2.1039 -0.3320
  721SOL     OW 2161   2.460   0.709   0.641 -0.5792  1.0265 -0.7703
  721SOL    HW1 2162   2.440   0.698   0.541 -1.4475 -4.9658 -0.5365
  721SOL    HW2 2163   2.480   0.618   0.689 -3.8963  4.1475 -2.9159
  722SOL     OW 2164   2.689   0.711   2.358 -0.6148 -0.5331  0.4833
  722SOL    HW1 2165   2.769   0.654   2.331  1.6990 -0.7771  0.0350
  722SOL    HW2 2166   2.718   0.792   2.416  2.1253  2.1934  2.4867
  723SOL     OW 2167   2.271   0.281   0.304 -0.2614  0.6178 -0.0438
  723SOL    HW1 2168   2.375   0.287   0.289  0.3588 -0.0754 -1.1236
  723SOL    HW2 2169   2.222   0.367   0.293  1.9594  0.0087  2.7977
  724SOL     OW 2170   0.627   1.831   2.039 -0.2096  0.2937  0.2310
  724SOL    HW1 2171   0.610   1.743   2.089  0.3280  1.6140  0.0089
  724SOL    HW2 2172   0.643   1.811   1.939  0.4467 -0.1030 -0.1071
  725SOL     OW 2173   1.671   0.021   1.294  0.0899 -1.0047 -0.6097
  725SOL    HW1 2174   1.653   0.099   1.231  0.0817 -1.7435  1.5337
  725SOL    HW2 2175   1.767   3.066   1.297 -2.4683  0.5939  1.5785
  726SOL     OW 2176   2.164   2.532   0.258  0.0277  0.0056  0.0837
  726SOL    HW1 2177   2.163   2.619   0.203 -2.0347  0.8009  2.0718
  726SOL    HW2 2178   2.132   2.535   0.356  1.5756  0.6106  2.2028
  727SOL     OW 2179   1.686   1.401   1.322  0.1429 -0.1913  0.2615
  727SOL    HW1 2180   1.731   1.330   1.379 -1.8273  0.8867 -0.9356
  727SOL    HW2 2181   1.656   1.486   1.370 -3.2880 -1.2634 -0.0160
  728SOL     OW 2182   2.116   2.711   1.707  0.1096 -0.9482 -0.1435
  728SOL    HW1 2183   2.161   2.700   1.614  0.9467  1.5360  1.9439
  728SOL    HW2 2184   2.032   2.652   1.715 -1.8089 -0.8432  0.1541
  729SOL     OW 2185   2.101   1.946   0.725  0.0714 -0.1740  0.3311
  729SOL    HW1 2186   2.115   1.896   0.635 -0.2019 -2.1130 -0.9136
  729SOL    HW2 2187   2.151   1.908   0.807 -0.2902 -2.0403  1.4060
  730SOL     OW 2188   1.288   0.658   2.794  0.1543 -0.0422  0.6762
  730SOL    HW1 2189   1.211   0.683   2.734 -0.5246  0.3046  0.9984
  730SOL    HW2 2190   1.369   0.717   2.772 -0.9419 -0.8352  0.6459
  731SOL     OW 2191   0.475   0.093   1.050 -0.5331  0.2682 -0.0137
  731SOL    HW1 2192   0.557   0.087   1.109 -0.6680 -0.7826  0.0848
  731SOL    HW2 2193   0.413   0.018   1.075  0.6423  1.0336  2.2496
  732SOL     OW 2194   1.315   0.596   0.558  0.4323  0.0112  0.3630
  732SOL    HW1 2195   1.235   0.570   0.498 -0.1817  2.3078  2.4555
  732SOL    HW2 2196   1.289   0.665   0.630  0.1942 -2.1343 -1.0334
  733SOL     OW 2197   0.597   2.001   1.505  0.5451 -0.5841 -0.1361
  733SOL    HW1 2198   0.681   2.043   1.468  1.4775  2.2083  0.7886
  733SOL    HW2 2199   0.567   1.919   1.451 -1.5652  0.0187  1.6426
  734SOL     OW 2200   0.119   2.423   0.301  0.4910 -0.4819 -0.0237
  734SOL    HW1 2201   0.214   2.392   0.320 -2.2326  1.1794 -0.0641
  734SOL    HW2 2202   0.080   2.374   0.219  3.6893  1.9121 -1.8370
  735SOL     OW 2203   1.161   0.280   1.190 -0.1836 -0.2000  1.0946
  735SOL    HW1 2204   1.107   0.218   1.249 -1.6659  2.0130  1.7117
  735SOL    HW2 2205   1.264   0.271   1.202 -0.3145  3.1429  0.3174
  736SOL     OW 2206   2.061   2.199   0.433  0.4990  0.2798 -0.6987
  736SOL    HW1 2207   2.142   2.216   0.489  1.4591 -1.9616 -1.4590
  736SOL    HW2 2208   2.082   2.210   0.335  2.3446  1.8753  2.3242
  737SOL     OW 2209   3.018   1.326   1.037 -0.7985 -0.2655 -0.0757
  737SOL    HW1 2210   3.040   1.368   0.945  1.8003 -1.7591  0.0009
  737SOL    HW2 2211   2.957   1.386   1.090  1.4282  0.2708 -1.1035
  738SOL     OW 2212   2.178   2.396   2.279 -0.0155  0.0481  0.3804
  738SOL    HW1 2213   2.131   2.468   2.333 -1.7891  2.0080  2.4075
  738SOL    HW2 2214   2.254   2.433   2.223  0.5290  1.6973 -2.6119
  739SOL     OW 2215   1.108   2.057   2.825 -0.6696  0.0799  0.7195
  739SOL    HW1 2216   1.086   2.063   2.925  1.0585 -2.3158 -1.3694
  739SOL    HW2 2217   1.087   2.148   2.785  1.8714  0.6824  0.7130
  740SOL     OW 2218   1.421   0.246   1.262 -0.1008 -0.1349  0.1415
  740SOL    HW1 2219   1.511   0.265   1.214  1.1459 -0.2882  1.3332
  740SOL    HW2 2220   1.437   0.221   1.358  0.1456 -0.2836 -0.5945
  741SOL     OW 2221   0.238   1.109   0.808  0.0421 -0.0308 -0.1067
  741SOL    HW1 2222   0.342   1.114   0.799  1.7728  0.8462 -0.9517
  741SOL    HW2 2223   0.216   1.011   0.790  0.0481  0.6810  0.6835
  742SOL     OW 2224   0.855   1.214   2.440 -0.3390 -0.0802  1.3420
  742SOL    HW1 2225   0.872   1.250   2.533 -1.8091 -1.5431  1.6262
  742SOL    HW2 2226   0.765   1.240   2.400 -0.1573 -1.6882 -0.2943
  743SOL     OW 2227   0.926   0.924   1.884 -0.0675 -0.0599 -0.1879
  743SOL    HW1 2228   0.863   0.960   1.958 -2.7955 -3.1677  0.0565
  743SOL    HW2 2229   1.021   0.916   1.915  0.5765  1.0543  1.0806
  744SOL     OW 2230   1.656   0.320   1.487  0.0930 -0.1373 -0.1791
  744SOL    HW1 2231   1.746   0.292   1.448  1.8800 -0.8055  0.0572
  744SOL    HW2 2232   1.658   0.321   1.589 -1.9527 -0.8634  0.7046
  745SOL     OW 2233   2.194   1.135   1.275  0.0603  0.0895  0.0784
  745SOL    HW1 2234   2.197   1.137   1.172 -1.2203  0.5762 -1.6219
  745SOL    HW2 2235   2.167   1.227   1.312  2.8399 -0.8192  0.1328
  746SOL     OW 2236   2.097   1.112   0.488 -0.6374  0.3004  0.2640
  746SOL    HW1 2237   2.068   1.197   0.441 -1.6951  0.5789  1.6496
  746SOL    HW2 2238   2.200   1.099   0.499  0.4095  2.3369 -0.7801
  747SOL     OW 2239   2.610   1.567   1.236 -0.0609 -0.1734  0.4758
  747SOL    HW1 2240   2.601   1.597   1.140  0.4928 -1.9750  1.5343
  747SOL    HW2 2241   2.598   1.643   1.301  0.7692  1.3838 -2.2859
  748SOL     OW 2242   0.495   2.150   0.543 -0.2909  0.6872  0.5148
  748SOL    HW1 2243   0.542   2.200   0.616 -0.2030 -1.7608  0.3061
  748SOL    HW2 2244   0.559   2.095   0.486 -0.4841  0.6578  3.4315
  749SOL     OW 2245   2.674   2.506   2.471 -0.0089 -0.1776 -0.3664
  749SOL    HW1 2246   2.700   2.457   2.383  1.9805 -0.8091 -0.9929
  749SOL    HW2 2247   2.575   2.517   2.468 -1.3912  1.1787 -0.4772
  750SOL     OW 2248   2.311   0.848   0.818 -0.3336  0.3799 -0.1151
  750SOL    HW1 2249   2.374   0.798   0.755 -0.1136  0.5808 -1.4534
  750SOL    HW2 2250   2.223   0.861   0.768  1.0764  2.7558  0.2810
  751SOL     OW 2251   2.572   2.972   0.133  0.2986 -0.8769  0.2103
  751SOL    HW1 2252   2.537   3.058   0.086 -1.3206  0.8238 -0.8629
  751SOL    HW2 2253   2.588   2.894   0.067 -0.8044 -1.8253 -0.8163
  752SOL     OW 2254   2.969   2.648   0.897  0.1255 -0.0338 -0.4956
  752SOL    HW1 2255   2.943   2.745   0.906  0.3355  3.0810  0.4838
  752SOL    HW2 2256   3.029   2.633   0.818  2.7140 -0.5468  1.4488
  753SOL     OW 2257   1.661   0.957   2.187 -0.3259 -0.3502  0.1332
  753SOL    HW1 2258   1.739   0.998   2.243  0.8713 -0.8699  2.2208
  753SOL    HW2 2259   1.588   0.913   2.242  0.6503  2.5103  0.6022
  754SOL     OW 2260   1.622   2.053   1.482  0.1418 -0.6286 -0.3255
  754SOL    HW1 2261   1.666   2.131   1.428 -1.9608  0.9486 -0.6980
  754SOL    HW2 2262   1.580   1.992   1.416 -0.6054  0.6275  3.7910
  755SOL     OW 2263   2.629   1.133   0.582 -0.4184  0.2498 -0.0728
  755SOL    HW1 2264   2.649   1.034   0.568  2.1448 -1.3825 -0.4392
  755SOL    HW2 2265   2.535   1.152   0.562  1.7044 -0.2228  2.5765
  756SOL     OW 2266   0.597   1.365   2.732 -0.2757  0.1684 -0.1489
  756SOL    HW1 2267   0.521   1.344   2.665  1.5421  0.2213  0.6684
  756SOL    HW2 2268   0.688   1.344   2.688  1.3725  0.9242 -2.8843
  757SOL     OW 2269   1.662   2.418   0.799 -0.2594 -0.0700 -0.2166
  757SOL    HW1 2270   1.717   2.341   0.764 -1.3058  2.0350  0.7611
  757SOL    HW2 2271   1.620   2.398   0.892 -0.1960  0.9263 -0.1506
  758SOL     OW 2272   1.300   2.681   1.585 -0.0588 -0.2961 -0.0603
  758SOL    HW1 2273   1.282   2.775   1.557 -0.1477 -1.6238 -0.9120
  758SOL    HW2 2274   1.327   2.625   1.504 -0.3171 -1.3989  1.9367
  759SOL     OW 2275   3.062   0.728   0.794  0.3115 -0.2428 -0.5138
  759SOL    HW1 2276   2.982   0.784   0.761 -1.1378  1.7773  1.1590
  759SOL    HW2 2277   3.078   0.745   0.895  0.7071  0.2037  2.3502
  760SOL     OW 2278   2.368   0.934   1.344  0.2875 -0.0326  0.6217
  760SOL    HW1 2279   2.315   1.021   1.338 -1.1291 -0.0573  0.3251
  760SOL    HW2 2280   2.352   0.897   1.434  1.2437  1.0247 -1.6544
  761SOL     OW 2281   2.006   0.146   0.144 -0.6117 -0.4411  0.1099
  761SOL    HW1 2282   2.069   0.165   0.224  3.5629 -2.4326  2.3793
  761SOL    HW2 2283   1.924   0.204   0.154  1.1875 -1.1439  0.8298
  762SOL     OW 2284   2.176   1.448   2.961  0.4879 -0.4017  0.7110
  762SOL    HW1 2285   2.169   1.378   2.887  0.8885  0.1134 -3.0660
  762SOL    HW2 2286   2.141   1.541   2.922  2.1527 -0.7563 -1.3008
  763SOL     OW 2287   0.339   2.113   1.788  0.0371  0.0550 -0.2751
  763SOL    HW1 2288   0.328   2.091   1.889 -0.5426 -1.8205 -0.3022
  763SOL    HW2 2289   0.358   2.029   1.742  2.2904  1.5495 -2.2003
  764SOL     OW 2290   3.000   2.308   2.913  0.4601  0.2865 -0.5756
  764SOL    HW1 2291   2.939   2.237   2.944 -1.5716 -0.1724  1.3075
  764SOL    HW2 2292   3.052   2.287   2.827 -1.2777  1.9458  0.1703
  765SOL     OW 2293   0.369   2.985   1.231  0.0411 -0.4345 -0.0805
  765SOL    HW1 2294   0.442   2.983   1.300  1.0447  1.1335 -1.5023
  765SOL    HW2 2295   0.352   2.893   1.189  0.1513 -1.5948  1.3626
  766SOL     OW 2296   2.971   1.912   2.320 -0.4616  0.0936 -0.0124
  766SOL    HW1 2297   3.015   1.828   2.357 -0.6358  1.1699 -2.1735
  766SOL    HW2 2298   2.894   1.948   2.378 -1.3507 -2.9235  2.7240
  767SOL     OW 2299   2.256   0.709   2.242 -0.3443  0.7916 -0.0084
  767SOL    HW1 2300   2.221   0.624   2.198 -2.1784  1.9942  1.3107
  767SOL    HW2 2301   2.334   0.691   2.307  1.1787  0.7529  1.1954
  768SOL     OW 2302   1.375   3.053   2.856  0.2615 -0.0079  0.1690
  768SOL    HW1 2303   1.294   0.010   2.906  1.3333  0.0261  1.7472
  768SOL    HW2 2304   1.455   0.037   2.854 -0.7149 -0.9282 -2.4974
  769SOL     OW 2305   2.698   2.663   0.964  0.0150 -0.2373 -0.2850
  769SOL    HW1 2306   2.802   2.649   0.956 -0.7269 -2.2306  1.7244
  769SOL    HW2 2307   2.667   2.721   1.043  0.5651 -1.3579 -1.1503
  770SOL     OW 2308   0.603   2.935   2.732 -0.1740 -0.4270 -0.6391
  770SOL    HW1 2309   0.619   2.834   2.730 -0.4776  2.7115  0.8889
  770SOL    HW2 2310   0.510   2.951   2.773 -0.3430  1.6019 -2.3229
  771SOL     OW 2311   1.175   1.899   2.212 -0.3651 -0.3127  0.6929
  771SOL    HW1 2312   1.271   1.923   2.172  2.9264  0.4131 -4.0723
  771SOL    HW2 2313   1.183   1.864   2.306 -1.5439 -1.5016 -0.1075
  772SOL     OW 2314   1.549   2.595   2.857  0.4168 -0.1057 -0.1291
  772SOL    HW1 2315   1.580   2.663   2.798 -1.2529 -1.7781  2.3226
  772SOL    HW2 2316   1.470   2.627   2.912 -1.1196  0.7586  0.5198
  773SOL     OW 2317   1.813   0.860   1.381  0.2370 -0.6685 -0.5288
  773SOL    HW1 2318   1.905   0.854   1.341 -0.6177  2.3073  1.2553
  773SOL    HW2 2319   1.748   0.782   1.378  3.5472  3.2330 -1.4068
  774SOL     OW 2320   0.954   0.689   0.958  0.1035 -0.3045  0.7736
  774SOL    HW1 2321   1.001   0.755   1.017 -0.4605 -0.6175  1.4671
  774SOL    HW2 2322   0.861   0.675   0.996  1.0615  0.5216  0.5943
  775SOL     OW 2323   1.851   2.806   2.724  0.1181  0.1136 -0.0761
  775SOL    HW1 2324   1.804   2.864   2.796 -0.4048  0.8891  1.4950
  775SOL    HW2 2325   1.889   2.722   2.770  0.4479 -2.2063  1.6867
  776SOL     OW 2326   2.089   0.874   1.324 -0.6112  0.0350 -0.0601
  776SOL    HW1 2327   2.109   0.974   1.336  0.3794 -0.7643 -0.7252
  776SOL    HW2 2328   2.103   0.852   1.227  1.3844  1.5171  0.7007
  777SOL     OW 2329   0.229   0.959   2.168  0.5042 -0.3505 -0.7688
  777SOL    HW1 2330   0.287   0.876   2.181 -0.5627  0.5372  2.2640
  777SOL    HW2 2331   0.238   1.032   2.241 -0.1668  2.2531  2.1062
  778SOL     OW 2332   0.019   0.992   2.940 -0.1773  0.1610  0.7380
  778SOL    HW1 2333   0.050   0.990   2.846  0.8449  0.5483  0.9918
  778SOL    HW2 2334   0.086   1.037   3.000 -1.0589 -0.3507 -2.3230
  779SOL     OW 2335   0.687   0.486   2.871 -0.3192 -0.0388 -0.1426
  779SOL    HW1 2336   0.734   0.416   2.926  2.0870 -1.8220  1.9548
  779SOL    HW2 2337   0.675   0.466   2.771  0.6566  0.9049 -3.2511
  780SOL     OW 2338   2.158   1.447   2.596 -0.0972  0.6247 -0.2185
  780SOL    HW1 2339   2.146   1.433   2.498 -0.8474 -3.1150 -2.7275
  780SOL    HW2 2340   2.170   1.550   2.609 -1.2871 -1.0959  0.4129
  781SOL     OW 2341   2.885   1.086   2.090 -0.7284 -0.2794  0.1107
  781SOL    HW1 2342   2.802   1.127   2.045  0.8803  1.4347  0.9169
  781SOL    HW2 2343   2.879   0.983   2.076  1.1141 -1.7764 -0.8192
  782SOL     OW 2344   0.723   1.957   2.663 -0.1837  0.1253  0.2417
  782SOL    HW1 2345   0.688   1.909   2.576  2.6525  0.4223 -1.7584
  782SOL    HW2 2346   0.689   1.918   2.747 -1.6234 -1.0760 -2.5423
  783SOL     OW 2347   1.237   2.308   1.227 -0.0584 -0.0512  0.4053
  783SOL    HW1 2348   1.217   2.228   1.170 -2.8518 -0.0015 -1.7403
  783SOL    HW2 2349   1.185   2.384   1.191  0.1349 -0.4149 -0.3356
  784SOL     OW 2350   1.531   0.749   2.432  0.0497  0.2960 -0.1627
  784SOL    HW1 2351   1.629   0.729   2.467  2.9155  1.9729 -0.2354
  784SOL    HW2 2352   1.475   0.663   2.425 -0.8829  2.2097 -3.0742
  785SOL     OW 2353   3.067   0.238   1.884 -0.0702 -0.0540  0.5367
  785SOL    HW1 2354   2.971   0.253   1.915  2.9340  1.1903  1.2308
  785SOL    HW2 2355   3.075   0.141   1.850  3.1123 -0.8051  0.9601
  786SOL     OW 2356   0.971   2.060   0.335  0.4406 -0.1889 -0.4115
  786SOL    HW1 2357   0.873   2.063   0.307  0.1893  0.0549 -1.0169
  786SOL    HW2 2358   0.996   2.134   0.401 -0.8409  3.9634  2.6394
  787SOL     OW 2359   1.234   0.207   0.798  0.1393  0.1241  0.5432
  787SOL    HW1 2360   1.260   0.188   0.704  0.4085 -2.7862 -0.1496
  787SOL    HW2 2361   1.176   0.133   0.835 -0.4567 -0.9144  1.4726
  788SOL     OW 2362   2.879   1.495   1.179 -0.0876  0.2028 -0.3836
  788SOL    HW1 2363   2.793   1.544   1.194  2.6487  0.8578  0.2369
  788SOL    HW2 2364   2.942   1.503   1.255 -2.0437 -0.0270 -0.3294
  789SOL     OW 2365   2.509   1.017   2.087  0.5719  0.5349  0.2919
  789SOL    HW1 2366   2.512   0.916   2.079  2.3702 -1.1362  0.6414
  789SOL    HW2 2367   2.588   1.068   2.046 -1.8453  0.3676  0.5951
  790SOL     OW 2368   0.934   0.048   0.198  0.3584  0.3553  0.0682
  790SOL    HW1 2369   0.888   0.131   0.165  0.3941 -1.6442  1.4161
  790SOL    HW2 2370   0.874   3.042   0.178 -1.8613 -3.1590  2.1796
  791SOL     OW 2371   0.085   0.070   0.048  0.5061  0.5809 -0.1203
  791SOL    HW1 2372   0.092   0.142   3.060  0.5962  0.9083  1.6419
  791SOL    HW2 2373   0.131   0.088   0.139 -1.0112  1.2713  0.5146
  792SOL     OW 2374   1.239   0.394   1.973 -0.4725  0.5890 -0.5346
  792SOL    HW1 2375   1.334   0.366   1.972 -2.4126  1.4869 -0.9759
  792SOL    HW2 2376   1.188   0.344   2.046 -0.0672 -4.1218 -1.4926
  793SOL     OW 2377   2.869   0.230   1.348 -0.1239 -0.6258 -0.0910
  793SOL    HW1 2378   2.905   0.315   1.307 -3.2473  1.0740  1.7425
  793SOL    HW2 2379   2.872   0.244   1.446 -0.5142 -2.3851  0.5832
  794SOL     OW 2380   0.044   0.458   2.152 -0.5111 -0.1931  0.4120
  794SOL    HW1 2381   0.064   0.510   2.062 -0.5042  1.6709 -4.2003
  794SOL    HW2 2382   0.056   0.354   2.145 -0.1328 -0.5845  2.2512
  795SOL     OW 2383   0.711   1.460   0.456  0.6877  0.2791 -0.4658
  795SOL    HW1 2384   0.777   1.413   0.521 -0.1502  0.7698  2.8238
  795SOL    HW2 2385   0.664   1.382   0.413  0.1729 -4.6865  0.8511
  796SOL     OW 2386   2.883   0.834   0.027 -0.3217  0.2699  0.2168
  796SOL    HW1 2387   2.835   0.911   0.085  0.0636  1.4691  2.7995
  796SOL    HW2 2388   2.943   0.874   3.033 -0.1099  2.7788  0.3411
  797SOL     OW 2389   1.587   2.980   2.408  0.7714  0.3417 -0.2413
  797SOL    HW1 2390   1.574   2.882   2.436  0.3616 -0.4470  0.6890
  797SOL    HW2 2391   1.518   3.004   2.337 -0.6481 -1.4717 -0.5480
  798SOL     OW 2392   3.030   3.072   1.312 -0.9698 -0.0673  0.0025
  798SOL    HW1 2393   2.957   0.063   1.305  2.0584  0.7078 -1.3579
  798SOL    HW2 2394   0.035   0.029   1.264  0.1341  2.3472 -1.0336
  799SOL     OW 2395   2.844   1.208   1.722 -0.1158 -0.3348 -0.0710
  799SOL    HW1 2396   2.780   1.198   1.646  0.9066  0.9450  1.8330
  799SOL    HW2 2397   2.889   1.120   1.740 -2.9811 -1.3053 -0.6809
  800SOL     OW 2398   0.181   1.730   0.466  0.2033  0.4324 -0.2426
  800SOL    HW1 2399   0.206   1.788   0.549 -1.4218  0.1544  3.1806
  800SOL    HW2 2400   0.261   1.698   0.410  1.1658 -1.9208 -1.0156
  801SOL     OW 2401   2.062   1.626   0.602 -0.2290  0.1857 -0.3266
  801SOL    HW1 2402   2.084   1.652   0.510 -0.4112  1.0143  0.4156
  801SOL    HW2 2403   1.965   1.619   0.624  3.3700 -1.8376  1.2900
  802SOL     OW 2404   1.351   1.075   2.759  0.0683  0.0201 -0.1703
  802SOL    HW1 2405   1.358   1.128   2.673 -0.4706 -0.9378 -0.4289
  802SOL    HW2 2406   1.445   1.044   2.784 -0.8445  1.7167 -1.4327
  803SOL     OW 2407   0.532   2.067   2.044 -0.5406  0.5210  0.0770
  803SOL    HW1 2408   0.604   2.126   2.010 -2.8596 -1.3783  0.4740
  803SOL    HW2 2409   0.574   1.971   2.045  0.2530  0.3775 -1.2897
  804SOL     OW 2410   1.429   2.053   0.821  0.0145 -0.8052  0.2389
  804SOL    HW1 2411   1.448   1.957   0.795 -0.1986 -4.2722 -0.8982
  804SOL    HW2 2412   1.462   2.114   0.745 -0.7801 -0.3976  0.5973
  805SOL     OW 2413   2.398   2.295   2.587  0.8320 -0.5003  0.8245
  805SOL    HW1 2414   2.433   2.234   2.509  0.9285  0.9974  0.1752
  805SOL    HW2 2415   2.427   2.390   2.559 -1.1102  1.4109  1.6585
  806SOL     OW 2416   0.292   0.450   0.731 -0.1572 -0.0545  0.0849
  806SOL    HW1 2417   0.265   0.383   0.801  0.9573  0.8095 -0.8622
  806SOL    HW2 2418   0.306   0.546   0.767 -1.0905  0.6454  0.7304
  807SOL     OW 2419   2.900   0.581   2.635  0.1107  0.0916  0.1137
  807SOL    HW1 2420   2.800   0.554   2.639 -0.7836  0.0515  1.3909
  807SOL    HW2 2421   2.912   0.669   2.588 -0.7345 -0.6240  2.7713
  808SOL     OW 2422   0.852   2.209   0.720 -0.4400 -0.3869  0.1390
  808SOL    HW1 2423   0.890   2.200   0.812  0.5288 -1.4334 -0.2100
  808SOL    HW2 2424   0.755   2.238   0.725  2.0267 -1.0858  3.2960
  809SOL     OW 2425   2.635   0.228   2.585 -0.2103 -0.5916 -0.2766
  809SOL    HW1 2426   2.640   0.204   2.486 -0.5583 -0.9449  0.7568
  809SOL    HW2 2427   2.568   0.173   2.630  1.4710  2.5042 -4.5673
  810SOL     OW 2428   1.485   1.132   0.667 -0.3525  0.2903  0.2590
  810SOL    HW1 2429   1.511   1.166   0.760 -0.4383  1.4457  3.4425
  810SOL    HW2 2430   1.527   1.039   0.646  0.0920  0.8171 -1.2431
  811SOL     OW 2431   1.730   2.812   2.006 -0.4910 -0.1082 -0.2344
  811SOL    HW1 2432   1.678   2.846   1.919  3.1375  3.2628 -1.7697
  811SOL    HW2 2433   1.813   2.874   2.023  0.0755 -0.4287  0.1048
  812SOL     OW 2434   2.105   2.546   0.513  0.3678 -0.4926 -0.2243
  812SOL    HW1 2435   2.148   2.470   0.568 -0.7820  1.3942 -1.1601
  812SOL    HW2 2436   2.065   2.621   0.566 -2.0402 -2.6488  0.4382
  813SOL     OW 2437   0.893   0.652   1.974  0.1967  0.1524  0.3478
  813SOL    HW1 2438   0.965   0.672   2.042 -0.0634  0.8166  0.8645
  813SOL    HW2 2439   0.876   0.735   1.915  1.3288  1.4674  0.0219
  814SOL     OW 2440   0.184   0.100   1.201  0.5577  0.4573 -0.4984
  814SOL    HW1 2441   0.220   0.185   1.234 -2.3015 -0.6185 -0.4660
  814SOL    HW2 2442   0.248   0.022   1.220 -0.2476 -2.8939 -1.7308
  815SOL     OW 2443   0.275   0.233   0.917  0.6202 -0.3644 -0.2816
  815SOL    HW1 2444   0.337   0.183   0.981 -1.8256 -2.8153  4.6508
  815SOL    HW2 2445   0.256   0.180   0.835 -0.2502  0.2068  0.6495
  816SOL     OW 2446   2.714   1.648   2.261  0.3774  0.7363  0.0461
  816SOL    HW1 2447   2.628   1.591   2.252  0.8074  0.9471 -3.9015
  816SOL    HW2 2448   2.703   1.738   2.218  0.8154 -1.7975 -0.9510
  817SOL     OW 2449   1.179   3.042   0.221 -0.5099  0.1905 -0.1862
  817SOL    HW1 2450   1.077   3.073   0.219  2.0750  1.4180  0.6138
  817SOL    HW2 2451   1.193   2.968   0.290 -0.4893  0.0339  1.2205
  818SOL     OW 2452   1.610   0.698   0.115  0.2630 -0.0249  0.8518
  818SOL    HW1 2453   1.704   0.731   0.119  0.6275 -1.4764 -2.6403
  818SOL    HW2 2454   1.599   0.595   0.114 -0.2024  1.7616 -0.3098
  819SOL     OW 2455   2.251   2.697   3.005  0.5469  0.1171  0.4925
  819SOL    HW1 2456   2.193   2.616   2.987  0.3178  2.8240  0.5014
  819SOL    HW2 2457   2.234   2.733   0.019  0.2748 -0.6773 -3.4319
  820SOL     OW 2458   1.617   1.057   2.805 -0.2426 -0.0218 -0.7949
  820SOL    HW1 2459   1.606   0.988   2.880 -1.2814 -1.8931  0.8385
  820SOL    HW2 2460   1.653   1.147   2.839 -1.0717 -0.8785 -2.2141
  821SOL     OW 2461   2.974   0.576   1.453  0.5548 -0.2076  0.1152
  821SOL    HW1 2462   3.012   0.507   1.517  1.8627  1.7707  0.4304
  821SOL    HW2 2463   2.960   0.536   1.356  1.3348 -0.5805 -1.2982
  822SOL     OW 2464   1.092   2.528   2.459 -0.3453  0.2536  0.0593
  822SOL    HW1 2465   1.191   2.502   2.459 -0.3393 -0.7843  1.9659
  822SOL    HW2 2466   1.033   2.448   2.456  2.3859  1.0654  0.5263
  823SOL     OW 2467   0.417   1.355   1.672  1.2740  0.6107 -0.2112
  823SOL    HW1 2468   0.505   1.400   1.658 -1.7861 -1.8819  0.0002
  823SOL    HW2 2469   0.438   1.261   1.704  0.0921  0.0744 -2.0991
  824SOL     OW 2470   1.582   2.687   2.190  0.5563  0.3331  0.0094
  824SOL    HW1 2471   1.566   2.729   2.286 -3.4243 -0.5355  1.3877
  824SOL    HW2 2472   1.652   2.735   2.130 -0.1436  4.2355 -2.6394
  825SOL     OW 2473   1.230   1.087   0.154  0.3152  0.2570 -0.2356
  825SOL    HW1 2474   1.252   1.166   0.216  0.7708 -3.5070 -2.1589
  825SOL    HW2 2475   1.227   0.999   0.208  1.5372  1.0349 -0.6882
  826SOL     OW 2476   2.161   0.685   2.923  0.3094 -0.6718  0.0196
  826SOL    HW1 2477   2.095   0.746   2.876 -0.8612  1.1796  0.5178
  826SOL    HW2 2478   2.230   0.739   2.973  1.6580  1.4819 -0.6045
  827SOL     OW 2479   0.386   2.305   2.614  0.3974 -0.1752 -0.7351
  827SOL    HW1 2480   0.488   2.297   2.613 -0.7174 -0.1933 -1.4450
  827SOL    HW2 2481   0.343   2.241   2.548  1.6085  1.5090  1.0395
  828SOL     OW 2482   2.892   0.274   1.606 -0.4089  0.5709  0.1436
  828SOL    HW1 2483   2.992   0.306   1.612  2.0108 -0.5972  2.4414
  828SOL    HW2 2484   2.839   0.314   1.688 -0.7315 -0.1025  0.7669
  829SOL     OW 2485   0.877   1.418   1.001  0.2309  0.1799 -0.1639
  829SOL    HW1 2486   0.858   1.517   0.978  0.5811  0.1664 -2.0931
  829SOL    HW2 2487   0.975   1.400   1.021 -1.8805 -0.6531  1.0735
  830SOL     OW 2488   0.674   1.335   1.432 -0.2620 -0.4242 -0.2026
  830SOL    HW1 2489   0.673   1.375   1.339 -0.4296  1.7881  2.5217
  830SOL    HW2 2490   0.606   1.382   1.494 -0.3399 -0.4848 -0.3356
  831SOL     OW 2491   0.485   2.098   0.078  0.4012  0.2769 -0.1509
  831SOL    HW1 2492   0.557   2.048   0.027 -1.8955 -1.9093 -1.1807
  831SOL    HW2 2493   0.438   2.175   0.029 -0.8242 -0.1145  0.2537
  832SOL     OW 2494   0.787   0.016   2.886 -0.0052 -0.3808  0.1860
  832SOL    HW1 2495   0.732   3.069   2.799 -0.4923 -1.0217 -1.6339
  832SOL    HW2 2496   0.855   0.091   2.871 -2.2780 -1.6638  0.1164
  833SOL     OW 2497   0.191   0.405   1.789 -0.0092 -0.0113  0.2306
  833SOL    HW1 2498   0.098   0.373   1.811  2.8378  0.0535  1.1673
  833SOL    HW2 2499   0.215   0.483   1.850 -1.1701 -0.0245 -1.1638
  834SOL     OW 2500   2.826   0.497   0.927 -0.0303 -0.1893  0.3347
  834SOL    HW1 2501   2.785   0.584   0.961  2.5973 -0.5134  1.1983
  834SOL    HW2 2502   2.869   0.513   0.836 -0.0267  0.5515  0.6244
  835SOL     OW 2503   2.704   0.055   0.993 -0.1218 -0.0086  0.1131
  835SOL    HW1 2504   2.750   0.120   0.929 -0.6954 -2.0613  1.4006
  835SOL    HW2 2505   2.684   0.110   1.078  0.7561  1.1140 -1.3713
  836SOL     OW 2506   0.126   2.049   2.794  0.1227 -0.6110  0.0453
  836SOL    HW1 2507   0.130   2.144   2.756 -1.4060  0.6972  1.1138
  836SOL    HW2 2508   0.087   2.046   2.886  2.2362 -0.0346 -1.5439
  837SOL     OW 2509   1.760   1.943   2.995  0.2391 -0.0791 -0.5003
  837SOL    HW1 2510   1.810   2.032   3.003 -0.6704  2.9788  0.7387
  837SOL    HW2 2511   1.770   1.897   2.904  0.7760  1.0501 -0.2891
  838SOL     OW 2512   2.610   0.962   1.631  0.2855 -0.2981 -0.7915
  838SOL    HW1 2513   2.699   0.921   1.603  1.4454  0.3559 -2.2636
  838SOL    HW2 2514   2.549   0.905   1.688  1.2702  2.9531 -0.0452
  839SOL     OW 2515   1.287   0.832   0.719 -0.0150  0.0190  0.3717
  839SOL    HW1 2516   1.190   0.809   0.692 -2.9270 -0.8143 -1.5189
  839SOL    HW2 2517   1.300   0.932   0.728 -1.9368  1.8303  0.2421
  840SOL     OW 2518   1.546   0.520   0.888  0.0900  0.1983 -0.0666
  840SOL    HW1 2519   1.453   0.499   0.922 -0.8247  0.3124  1.6581
  840SOL    HW2 2520   1.567   0.618   0.888  2.0414 -0.2383 -0.2215
  841SOL     OW 2521   0.289   2.908   0.533 -0.3595  0.2386 -0.4094
  841SOL    HW1 2522   0.204   2.946   0.498  1.0326  0.5578 -1.1868
  841SOL    HW2 2523   0.361   2.977   0.522 -0.8840  0.4156 -0.7106
  842SOL     OW 2524   0.530   0.698   0.456  0.1228  0.2737 -0.0354
  842SOL    HW1 2525   0.583   0.655   0.530  0.2177 -0.9468  0.2930
  842SOL    HW2 2526   0.445   0.640   0.443 -1.2458  0.1440  0.4868
  843SOL     OW 2527   0.846   1.218   1.640 -0.0303 -0.3820  0.0192
  843SOL    HW1 2528   0.790   1.217   1.723  0.2201 -1.0939 -2.7158
  843SOL    HW2 2529   0.805   1.278   1.569  1.3994 -1.0632  0.6030
  844SOL     OW 2530   1.367   2.052   0.079 -0.5955  0.6508  0.1889
  844SOL    HW1 2531   1.462   2.013   0.099 -0.5618 -2.0957  0.0827
  844SOL    HW2 2532   1.374   2.153   0.076  1.2751  1.4041  0.3054
  845SOL     OW 2533   2.425   2.619   2.252 -0.5183  0.2430 -0.2455
  845SOL    HW1 2534   2.384   2.700   2.217 -0.2784 -1.9005  2.0420
  845SOL    HW2 2535   2.465   2.563   2.176  0.8258 -0.8078  0.4328
  846SOL     OW 2536   1.904   2.159   2.983 -0.2305  0.2286 -0.3038
  846SOL    HW1 2537   1.903   2.199   2.888  0.2077  1.7083  1.3054
  846SOL    HW2 2538   1.879   2.221   3.059 -0.0692  0.0838 -0.8251
  847SOL     OW 2539   1.825   2.787   2.450 -0.1540 -0.2763 -0.1942
  847SOL    HW1 2540   1.854   2.867   2.401  1.3263  1.8048  1.7417
  847SOL    HW2 2541   1.842   2.804   2.550  2.6474 -0.0265 -0.6369
  848SOL     OW 2542   0.809   0.553   0.373 -0.2028 -0.2176 -0.2537
  848SOL    HW1 2543   0.745   0.504   0.311  1.3579 -0.3370  0.9738
  848SOL    HW2 2544   0.756   0.591   0.450 -0.5655  1.6467 -1.0406
  849SOL     OW 2545   0.774   2.840   1.264 -0.6452  0.3418  0.6689
  849SOL    HW1 2546   0.723   2.754   1.294 -1.4648 -1.4905 -0.2038
  849SOL    HW2 2547   0.869   2.817   1.233 -0.0429 -0.7620 -2.8501
  850SOL     OW 2548   0.307   1.730   0.082 -0.1882  0.2084 -0.4357
  850SOL    HW1 2549   0.325   1.793   0.161 -1.6987 -1.1906  1.6952
  850SOL    HW2 2550   0.207   1.727   0.054  0.4759 -0.7665  0.2157
  851SOL     OW 2551   0.261   0.806   0.148 -0.0860 -0.5021 -0.1920
  851SOL    HW1 2552   0.238   0.903   0.121 -3.1546  1.8368 -1.4506
  851SOL    HW2 2553   0.206   0.774   0.228  0.1791 -0.9373 -0.3198
  852SOL     OW 2554   1.786   1.911   1.669  0.1454  0.8468 -0.3328
  852SOL    HW1 2555   1.773   1.934   1.766 -0.0610  1.4841  0.3644
  852SOL    HW2 2556   1.729   1.973   1.609 -0.4816  0.2676  1.1844
  853SOL     OW 2557   0.368   1.919   0.274 -0.0273  0.4279 -0.4189
  853SOL    HW1 2558   0.416   1.941   0.360 -0.2617 -2.3250 -0.4728
  853SOL    HW2 2559   0.408   1.975   0.198 -1.0062 -0.4705  0.2328
  854SOL     OW 2560   1.861   1.222   1.451  0.3767 -0.3903  0.2834
  854SOL    HW1 2561   1.866   1.187   1.356 -0.1662  0.7148  2.6995
  854SOL    HW2 2562   1.862   1.147   1.520 -2.8907  0.4064  0.0731
  855SOL     OW 2563   0.807   2.372   0.138  0.5765  0.1589 -0.1392
  855SOL    HW1 2564   0.911   2.369   0.127 -0.3920  0.1630 -2.7817
  855SOL    HW2 2565   0.760   2.375   0.047  2.5329 -0.3710 -3.9392
  856SOL     OW 2566   2.783   0.267   2.064 -0.3250 -0.5055  0.4095
  856SOL    HW1 2567   2.757   0.346   2.002 -1.6782 -1.1290 -1.6031
  856SOL    HW2 2568   2.804   0.298   2.158 -1.4536  0.4005 -1.6620
  857SOL     OW 2569   0.625   0.675   1.949 -0.1506 -0.1905  0.0971
  857SOL    HW1 2570   0.564   0.603   1.908 -0.5778 -2.0968 -1.7105
  857SOL    HW2 2571   0.725   0.647   1.941  0.3694 -1.3179 -2.2649
  858SOL     OW 2572   0.263   1.198   2.321  0.3182  0.2553  0.2964
  858SOL    HW1 2573   0.203   1.269   2.275 -0.8135  1.4229 -0.0403
  858SOL    HW2 2574   0.307   1.229   2.410  2.1419 -2.7095  0.5099
  859SOL     OW 2575   2.254   0.054   0.426  0.1178 -0.0405 -0.2095
  859SOL    HW1 2576   2.247   0.144   0.376 -1.4604 -0.5735  0.2113
  859SOL    HW2 2577   2.158   0.023   0.460 -3.7712 -0.6406  0.9553
  860SOL     OW 2578   1.729   2.977   2.876 -0.5540 -0.1418  0.3689
  860SOL    HW1 2579   1.662   2.998   2.804 -2.6103  0.4331  1.3191
  860SOL    HW2 2580   1.762   3.068   2.911 -1.3140 -1.1392 -4.9271
  861SOL     OW 2581   0.311   0.531   0.467  0.1647 -0.1648  0.4526
  861SOL    HW1 2582   0.237   0.601   0.450  0.3064 -0.0270  1.8558
  861SOL    HW2 2583   0.306   0.488   0.560  0.8227 -0.1756 -0.2580
  862SOL     OW 2584   1.732   0.282   2.153  0.0225 -0.0850  0.3024
  862SOL    HW1 2585   1.785   0.204   2.114  0.2481 -0.8553 -1.9214
  862SOL    HW2 2586   1.664   0.309   2.081 -1.4708  1.0288  1.3043
  863SOL     OW 2587   0.111   1.862   1.193 -0.3118 -0.1576  0.6221
  863SOL    HW1 2588   0.192   1.907   1.157 -1.9025 -2.2418  2.1744
  863SOL    HW2 2589   0.031   1.918   1.163  1.4553 -0.2728  1.8270
  864SOL     OW 2590   2.284   2.730   1.922 -0.3313 -0.4568  0.7682
  864SOL    HW1 2591   2.226   2.727   1.838 -2.0740 -0.5471 -0.5558
  864SOL    HW2 2592   2.227   2.707   2.004 -1.3412  0.7380  1.9790
  865SOL     OW 2593   0.947   0.447   1.107  0.4285  0.0790  0.5657
  865SOL    HW1 2594   1.031   0.404   1.145  2.3688 -0.6886  0.4151
  865SOL    HW2 2595   0.967   0.527   1.044 -0.0957  0.7867 -0.8582
  866SOL     OW 2596   2.598   2.951   0.586 -0.2493 -0.2125  0.2212
  866SOL    HW1 2597   2.666   2.948   0.508  2.6036 -1.6249 -1.1548
  866SOL    HW2 2598   2.609   2.862   0.632  0.2111  0.8595 -0.2387
  867SOL     OW 2599   2.848   2.732   0.583 -0.4093 -0.1640 -0.2746
  867SOL    HW1 2600   2.902   2.649   0.555  1.6158 -0.0707 -1.6459
  867SOL    HW2 2601   2.752   2.704   0.615 -0.5417 -1.9550 -0.8223
  868SOL     OW 2602   1.175   2.188   2.272  0.1821  0.3336 -0.2630
  868SOL    HW1 2603   1.273   2.200   2.258 -1.3431  0.4124 -0.5622
  868SOL    HW2 2604   1.112   2.235   2.212  2.7716 -1.1984  0.5715
  869SOL     OW 2605   2.159   1.665   0.347  0.2263  0.0897  0.1179
  869SOL    HW1 2606   2.138   1.715   0.254 -0.3386  1.0664 -3.2234
  869SOL    HW2 2607   2.258   1.642   0.347  0.9317 -0.1403 -1.7448
  870SOL     OW 2608   2.709   2.359   0.620  0.2269  0.0484  0.4856
  870SOL    HW1 2609   2.634   2.415   0.664  0.5750  2.3496  0.9596
  870SOL    HW2 2610   2.772   2.330   0.688 -2.2878  0.2269 -0.3803
  871SOL     OW 2611   3.008   1.088   1.429 -0.0467 -0.2038 -0.0435
  871SOL    HW1 2612   3.073   1.164   1.449 -0.1721 -1.2483 -3.0346
  871SOL    HW2 2613   3.011   1.019   1.500  0.5496  3.7489  1.1369
  872SOL     OW 2614   0.613   1.829   2.455  0.1505 -0.4330  0.0060
  872SOL    HW1 2615   0.680   1.822   2.379 -0.8179  1.4838 -1.2762
  872SOL    HW2 2616   0.528   1.864   2.415  2.6163  0.2770 -1.0238
  873SOL     OW 2617   0.325   2.802   1.855  0.1416 -0.4068 -0.0609
  873SOL    HW1 2618   0.322   2.699   1.866 -2.1496 -2.5109 -0.9148
  873SOL    HW2 2619   0.355   2.819   1.758  0.1520 -1.3249  0.7424
  874SOL     OW 2620   1.185   0.924   2.007 -0.3117 -0.0527 -0.6660
  874SOL    HW1 2621   1.266   0.885   1.962 -1.2527  1.9367 -2.2179
  874SOL    HW2 2622   1.194   1.027   2.016 -1.0344  0.8649  0.0888
  875SOL     OW 2623   2.633   2.740   1.240 -0.4893 -0.0758  0.2239
  875SOL    HW1 2624   2.713   2.800   1.250 -1.1850  0.2583  0.5834
  875SOL    HW2 2625   2.558   2.795   1.282 -3.2422  0.4769  0.6503
  876SOL     OW 2626   1.152   1.356   0.993 -0.6092  0.1794  0.0631
  876SOL    HW1 2627   1.161   1.256   1.005  0.0943  0.6841 -1.1138
  876SOL    HW2 2628   1.189   1.377   0.898 -3.0398  1.5533 -0.6198
  877SOL     OW 2629   0.245   0.299   1.363 -0.5595 -0.1699 -0.6441
  877SOL    HW1 2630   0.332   0.354   1.364  0.7636 -1.8276 -1.4016
  877SOL    HW2 2631   0.263   0.212   1.414 -1.0500  0.7680  0.8269
  878SOL     OW 2632   2.490   1.660   2.822 -0.0752  0.3012  0.4446
  878SOL    HW1 2633   2.464   1.713   2.904 -1.2981 -0.3048 -1.9539
  878SOL    HW2 2634   2.511   1.566   2.857 -2.0197  1.4248 -1.1202
  879SOL     OW 2635   2.574   2.046   1.203 -0.2561  0.3180  0.4610
  879SOL    HW1 2636   2.589   2.131   1.148  0.1324  1.5394 -0.8695
  879SOL    HW2 2637   2.658   2.017   1.245 -4.0423  2.7495  0.3105
  880SOL     OW 2638   0.989   2.181   0.965 -0.3005  0.1457 -0.7487
  880SOL    HW1 2639   0.943   2.247   1.029 -0.2757  0.8242 -0.7141
  880SOL    HW2 2640   1.090   2.171   0.995  1.3155 -3.8403  0.7255
  881SOL     OW 2641   1.565   1.684   1.152 -0.2179  0.2229 -0.7084
  881SOL    HW1 2642   1.464   1.663   1.148 -2.0108 -0.1684  0.8618
  881SOL    HW2 2643   1.600   1.657   1.242  1.7262 -1.1776 -1.4935
  882SOL     OW 2644   2.437   0.969   2.486  0.4335 -0.4622 -0.1838
  882SOL    HW1 2645   2.372   0.978   2.407 -1.2556 -4.3448  1.6239
  882SOL    HW2 2646   2.532   0.938   2.452  0.6466  0.0671  1.7047
  883SOL     OW 2647   1.282   0.458   0.909  0.3866  0.3222  0.2071
  883SOL    HW1 2648   1.218   0.528   0.872 -1.1152  2.2777  1.4394
  883SOL    HW2 2649   1.254   0.364   0.889 -0.2634 -0.6703 -0.9586
  884SOL     OW 2650   2.882   2.894   0.916 -0.3538  0.1730  0.0601
  884SOL    HW1 2651   2.968   2.950   0.907  0.3448 -2.0424 -1.0338
  884SOL    HW2 2652   2.813   2.946   0.969  0.6963  0.9596  1.0956
  885SOL     OW 2653   1.201   1.141   1.514  0.0970  0.3786  0.3088
  885SOL    HW1 2654   1.138   1.141   1.597 -0.7508 -1.1853  4.0190
  885SOL    HW2 2655   1.281   1.202   1.527 -1.2734  2.1467 -1.9743
  886SOL     OW 2656   1.158   1.125   2.965 -0.1843 -0.2208 -0.1143
  886SOL    HW1 2657   1.175   1.094   3.062 -2.8130  1.2275  1.6141
  886SOL    HW2 2658   1.230   1.079   2.903  3.1390 -0.9704 -0.7825
  887SOL     OW 2659   1.494   0.413   0.647 -0.7524 -0.3402 -0.3401
  887SOL    HW1 2660   1.428   0.484   0.604 -1.8156  0.4476  1.1590
  887SOL    HW2 2661   1.512   0.429   0.746  1.4345  0.5664 -2.2047
  888SOL     OW 2662   2.001   1.338   1.849  0.2989  0.0512 -0.4594
  888SOL    HW1 2663   2.016   1.413   1.920 -2.7597  1.8519  3.8953
  888SOL    HW2 2664   2.059   1.251   1.866  2.1604  0.8234  1.7712
  889SOL     OW 2665   2.975   2.002   1.118 -0.0933 -0.6025 -0.4648
  889SOL    HW1 2666   2.925   2.010   1.032 -0.9595  0.5205 -1.4897
  889SOL    HW2 2667   2.900   2.007   1.192 -2.0091  0.4717  1.2212
  890SOL     OW 2668   1.299   2.025   0.525  0.3493 -0.0338  0.6149
  890SOL    HW1 2669   1.394   2.051   0.505 -3.2106 -0.7728 -0.1049
  890SOL    HW2 2670   1.251   1.993   0.441 -0.9682 -1.1249  0.5496
  891SOL     OW 2671   2.458   0.589   2.397  0.3755 -0.0297 -0.0929
  891SOL    HW1 2672   2.550   0.620   2.369 -1.4042 -1.1775 -0.4091
  891SOL    HW2 2673   2.449   0.496   2.362 -2.7468  0.7644 -1.3456
  892SOL     OW 2674   0.244   2.623   1.397 -0.2500  0.4139 -0.1328
  892SOL    HW1 2675   0.281   2.643   1.305  0.4887 -0.7728  1.3589
  892SOL    HW2 2676   0.296   2.679   1.470  1.9305 -0.1082  1.7629
  893SOL     OW 2677   1.033   0.381   2.413  0.0042  0.0987  0.2886
  893SOL    HW1 2678   1.031   0.388   2.517  0.4559 -1.9846  0.4356
  893SOL    HW2 2679   1.107   0.449   2.382  1.0140  1.4718  1.8366
  894SOL     OW 2680   2.535   0.503   0.782  0.3381  0.0711 -0.0405
  894SOL    HW1 2681   2.566   0.467   0.865 -2.5515  1.8700 -1.6709
  894SOL    HW2 2682   2.595   0.467   0.707  2.4589 -0.0810 -2.4302
  895SOL     OW 2683   1.697   1.730   2.351 -0.1951 -0.1729 -0.5199
  895SOL    HW1 2684   1.704   1.629   2.372 -0.4837  1.1642 -1.5826
  895SOL    HW2 2685   1.625   1.783   2.402  1.3417  0.2633  1.6361
  896SOL     OW 2686   1.477   0.501   1.490 -0.0006  0.4970 -0.3155
  896SOL    HW1 2687   1.532   0.416   1.477  2.4264 -0.8800 -1.8122
  896SOL    HW2 2688   1.376   0.479   1.484 -2.7934 -0.1666 -0.1823
  897SOL     OW 2689   0.680   1.838   1.743 -0.0656 -0.2571  0.2512
  897SOL    HW1 2690   0.712   1.761   1.685  0.1656 -1.7543 -0.6091
  897SOL    HW2 2691   0.612   1.896   1.693 -1.9127 -1.8078 -1.4797
  898SOL     OW 2692   1.825   1.780   2.096  0.3599 -0.0404 -0.0171
  898SOL    HW1 2693   1.833   1.732   2.005 -0.1221  0.2750 -2.1170
  898SOL    HW2 2694   1.787   1.723   2.173  0.6233  1.6574  1.8359
  899SOL     OW 2695   2.120   2.208   0.759 -0.1136  0.1850 -0.2758
  899SOL    HW1 2696   2.194   2.195   0.832 -0.0704 -1.7075  0.3932
  899SOL    HW2 2697   2.116   2.117   0.715  1.1001 -0.5587 -3.3372
  900SOL     OW 2698   1.000   0.012   2.652 -0.3369 -0.2989 -0.3915
  900SOL    HW1 2699   1.032   3.011   2.710 -1.1941 -0.6656 -2.1014
  900SOL    HW2 2700   0.999   0.098   2.706 -0.3021 -1.8112 -2.7474
  901SOL     OW 2701   1.260   1.452   2.415 -0.1367  0.1347 -0.0032
  901SOL    HW1 2702   1.208   1.509   2.483 -1.9729  0.3619  4.5303
  901SOL    HW2 2703   1.327   1.509   2.354  0.5712  0.3267 -2.3922
  902SOL     OW 2704   2.238   0.496   0.021  0.2965  0.1324 -0.2381
  902SOL    HW1 2705   2.209   0.561   3.029  0.1648  0.3611  0.1322
  902SOL    HW2 2706   2.176   0.501   0.100  0.3600 -1.2530 -3.1584
  903SOL     OW 2707   2.141   0.878   2.072  0.2424 -0.1744 -0.0918
  903SOL    HW1 2708   2.062   0.823   2.039  0.2206  0.1428 -1.8550
  903SOL    HW2 2709   2.208   0.822   2.121 -0.4338 -0.9186 -2.0469
  904SOL     OW 2710   1.867   1.017   1.618 -0.4952 -0.3071  0.1166
  904SOL    HW1 2711   1.852   0.959   1.538  0.4426 -2.2963 -0.7316
  904SOL    HW2 2712   1.960   1.000   1.657 -0.3638  0.1438 -0.8069
  905SOL     OW 2713   2.087   0.436   0.688  0.1017  0.2811 -0.1070
  905SOL    HW1 2714   2.171   0.380   0.676  2.2396 -0.8084 -1.3992
  905SOL    HW2 2715   2.097   0.491   0.773  0.4703 -0.2223  1.2993
  906SOL     OW 2716   2.579   1.660   0.478 -0.2797 -0.6264  1.2066
  906SOL    HW1 2717   2.658   1.598   0.467  0.2374 -3.2682  0.3801
  906SOL    HW2 2718   2.600   1.741   0.415  0.2519  1.1206  1.7572
  907SOL     OW 2719   1.644   2.892   0.451 -0.3288 -0.3385  0.6066
  907SOL    HW1 2720   1.726   2.884   0.512 -0.5768 -0.4568 -1.1222
  907SOL    HW2 2721   1.658   2.974   0.396  0.4812  0.9790  2.4304
  908SOL     OW 2722   1.533   2.096   2.239 -0.1884 -1.0689 -0.1202
  908SOL    HW1 2723   1.514   2.191   2.216  1.9238 -2.0475  1.7129
  908SOL    HW2 2724   1.631   2.091   2.267  1.3230 -0.2605  1.1168
  909SOL     OW 2725   2.144   0.511   2.076 -0.8313  0.3364 -0.6069
  909SOL    HW1 2726   2.099   0.447   2.145  2.6513 -0.4856 -0.0913
  909SOL    HW2 2727   2.083   0.588   2.044 -1.0877  0.0549 -2.7627
  910SOL     OW 2728   1.244   0.029   2.519  0.2532  0.1551  0.1939
  910SOL    HW1 2729   1.149   0.037   2.548 -1.4281 -0.9397 -1.4400
  910SOL    HW2 2730   1.296   3.030   2.558  1.8128  1.6608  2.5236
  911SOL     OW 2731   2.673   1.008   2.765  0.1248 -0.5715  0.6538
  911SOL    HW1 2732   2.613   0.964   2.834 -0.7423  1.4770 -1.2795
  911SOL    HW2 2733   2.763   1.041   2.803  0.4298  0.0862 -1.2408
  912SOL     OW 2734   3.063   2.251   1.466  0.1043 -0.3540  0.0509
  912SOL    HW1 2735   2.965   2.276   1.483  0.3899 -1.1470  0.3544
  912SOL    HW2 2736   0.033   2.250   1.559  1.4068 -1.0045  3.7789
  913SOL     OW 2737   2.751   1.936   2.481 -0.0900  0.1001 -0.2785
  913SOL    HW1 2738   2.729   1.847   2.523  0.9639 -1.2990  0.8279
  913SOL    HW2 2739   2.751   2.010   2.549 -0.5739 -0.9633  0.1321
  914SOL     OW 2740   2.279   1.513   0.701 -0.4896 -0.3852  0.3353
  914SOL    HW1 2741   2.274   1.444   0.622 -1.3309 -0.5580 -0.3942
  914SOL    HW2 2742   2.199   1.574   0.691 -1.1440 -1.1598 -2.7781
  915SOL     OW 2743   0.245   2.936   2.076 -0.2879  0.4179 -0.6989
  915SOL    HW1 2744   0.303   2.891   2.148 -0.0931 -1.6924 -0.7512
  915SOL    HW2 2745   0.258   2.889   1.987  1.0773 -0.1220 -0.3681
  916SOL     OW 2746   0.569   2.443   0.996 -0.2127  0.8090 -0.4178
  916SOL    HW1 2747   0.562   2.361   1.061 -0.0373 -1.2020  0.4324
  916SOL    HW2 2748   0.480   2.484   0.975  2.6986  0.8854  1.6028
  917SOL     OW 2749   2.401   0.602   2.651 -0.4875  0.2426 -0.2018
  917SOL    HW1 2750   2.361   0.689   2.693 -0.6630  1.0476  0.3549
  917SOL    HW2 2751   2.427   0.626   2.553  3.2156  2.3702 -4.4445
  918SOL     OW 2752   1.500   2.292   2.616  0.2398 -0.2538 -0.4137
  918SOL    HW1 2753   1.559   2.273   2.699 -0.4233 -0.5908 -1.3096
  918SOL    HW2 2754   1.556   2.299   2.533 -1.6742 -0.8601 -0.1070
  919SOL     OW 2755   1.872   2.115   1.045  1.0572 -0.4975  0.0078
  919SOL    HW1 2756   1.901   2.048   0.974  1.5886 -1.8293 -0.6895
  919SOL    HW2 2757   1.768   2.105   1.057 -0.5503  1.7658 -0.4899
  920SOL     OW 2758   1.374   0.171   2.190  0.9794  0.0495 -0.1717
  920SOL    HW1 2759   1.410   0.189   2.283  0.1714 -2.7144 -2.5582
  920SOL    HW2 2760   1.363   0.070   2.183 -1.9228  0.1330  2.1242
  921SOL     OW 2761   0.123   0.682   2.467 -0.1998  0.2087 -0.2489
  921SOL    HW1 2762   0.174   0.752   2.525 -0.0395 -0.0706 -0.9135
  921SOL    HW2 2763   0.142   0.588   2.503  1.7661  0.7772  1.0320
  922SOL     OW 2764   2.807   1.979   1.330 -0.3557 -0.1155  0.0832
  922SOL    HW1 2765   2.812   1.879   1.356 -1.0119  2.1995  0.5152
  922SOL    HW2 2766   2.831   2.042   1.411  1.6092  3.9914  1.3114
  923SOL     OW 2767   0.095   1.398   2.225  0.3745  0.1123 -0.1695
  923SOL    HW1 2768   0.091   1.444   2.136  0.3485 -0.4359  1.8965
  923SOL    HW2 2769   0.013   1.433   2.276 -1.1058  2.9088 -1.5197
  924SOL     OW 2770   1.512   0.310   1.998  0.2042 -0.5415  0.4978
  924SOL    HW1 2771   1.513   0.244   1.921 -2.5166  1.1308  0.5710
  924SOL    HW2 2772   1.466   0.269   2.079  0.3308  0.3807  0.7642
  925SOL     OW 2773   0.127   1.289   0.660  0.2956 -0.0749  0.1506
  925SOL    HW1 2774   0.207   1.340   0.628 -0.6370 -0.4638  3.2233
  925SOL    HW2 2775   0.151   1.215   0.728 -1.0925 -1.0011 -0.9244
  926SOL     OW 2776   2.222   0.406   1.075  0.5121  0.0325 -0.3386
  926SOL    HW1 2777   2.299   0.356   1.028 -0.2196 -2.0624  0.3965
  926SOL    HW2 2778   2.252   0.471   1.149  0.2851  0.4184  0.1868
  927SOL     OW 2779   1.437   0.777   1.170 -0.2885  0.0676  0.2260
  927SOL    HW1 2780   1.449   0.794   1.068 -0.0575  0.8944  0.5932
  927SOL    HW2 2781   1.361   0.713   1.187  0.9460 -0.3068 -0.3806
  928SOL     OW 2782   2.904   0.554   2.279  0.3089 -0.0829 -0.3094
  928SOL    HW1 2783   2.951   0.626   2.331 -1.3719  3.6889  0.0945
  928SOL    HW2 2784   2.976   0.513   2.215  1.6216 -2.3685 -0.3965
  929SOL     OW 2785   2.083   0.820   1.067  0.3988  0.5260 -0.1284
  929SOL    HW1 2786   2.084   0.748   0.997 -1.6871 -0.8274 -0.6455
  929SOL    HW2 2787   2.091   0.913   1.017  1.1423  1.5358 -0.7275
  930SOL     OW 2788   1.969   2.399   1.064 -0.3722  0.0160  0.2140
  930SOL    HW1 2789   1.937   2.303   1.053  1.7023 -1.8127 -2.0053
  930SOL    HW2 2790   1.892   2.465   1.059 -0.8172 -1.0260 -0.0517
  931SOL     OW 2791   1.842   1.134   1.202  1.0191 -0.5189  0.2462
  931SOL    HW1 2792   1.746   1.119   1.169 -3.5403 -1.6846 -3.2110
  931SOL    HW2 2793   1.881   1.206   1.146 -0.2329 -0.8909  2.2337
  932SOL     OW 2794   2.977   0.933   1.718 -0.0491 -0.5257  0.0822
  932SOL    HW1 2795   2.910   0.909   1.643 -0.3458  2.9143  0.1282
  932SOL    HW2 2796   3.036   0.849   1.731  4.5813 -1.4786 -2.4114
  933SOL     OW 2797   2.040   1.562   1.980 -0.0646  0.8643  0.1625
  933SOL    HW1 2798   1.996   1.600   1.898  1.1953 -2.7221  1.7572
  933SOL    HW2 2799   2.130   1.606   1.998 -0.1678  0.1159  0.1096
  934SOL     OW 2800   1.677   2.884   1.752 -0.0064 -0.0402  0.3607
  934SOL    HW1 2801   1.698   2.822   1.675 -1.0890  0.2583  0.2983
  934SOL    HW2 2802   1.714   2.982   1.741 -1.2849  3.1900 -0.2815
  935SOL     OW 2803   2.928   0.918   1.211 -0.1255 -0.2028  0.4226
  935SOL    HW1 2804   2.947   0.985   1.285 -0.5375  2.4506  0.2153
  935SOL    HW2 2805   2.834   0.883   1.231 -2.3996 -0.7511  1.5797
  936SOL     OW 2806   2.826   0.807   1.513 -0.0754 -0.6579  0.1781
  936SOL    HW1 2807   2.882   0.725   1.487 -1.7548 -0.7442 -0.4913
  936SOL    HW2 2808   2.763   0.825   1.436 -0.5510 -0.6429 -0.1078
  937SOL     OW 2809   0.829   0.145   1.400  0.6238 -0.3829  0.2838
  937SOL    HW1 2810   0.788   0.241   1.389 -0.7164  0.5253  2.1476
  937SOL    HW2 2811   0.793   0.104   1.485 -2.7265  0.4942 -1.4636
  938SOL     OW 2812   0.333   2.534   0.936  0.5787 -0.0875 -0.0139
  938SOL    HW1 2813   0.254   2.484   0.969 -0.1786  0.7662  2.3400
  938SOL    HW2 2814   0.293   2.591   0.862 -0.7841 -0.9091  0.4659
  939SOL     OW 2815   2.773   2.153   2.646 -0.5490  0.3299 -0.5439
  939SOL    HW1 2816   2.867   2.138   2.612 -1.4960  0.5796 -1.2150
  939SOL    HW2 2817   2.773   2.243   2.688  0.4174 -0.7313  1.2238
  940SOL     OW 2818   1.915   1.639   3.056  0.2065  0.0850 -0.0550
  940SOL    HW1 2819   1.953   1.648   2.966 -1.0010  1.5856 -0.0039
  940SOL    HW2 2820   1.817   1.619   3.045 -2.0050 -2.0506 -1.4608
  941SOL     OW 2821   1.817   2.767   0.615 -0.1433  0.0313  0.3541
  941SOL    HW1 2822   1.788   2.696   0.544  0.0710 -0.5939  1.5986
  941SOL    HW2 2823   1.886   2.727   0.678  2.5242 -1.4941 -2.1634
  942SOL     OW 2824   2.116   1.536   1.153  0.3674 -0.2228  0.1664
  942SOL    HW1 2825   2.174   1.477   1.092 -1.0893 -0.1948  0.8010
  942SOL    HW2 2826   2.119   1.507   1.248  1.3685 -0.6984 -0.6938
  943SOL     OW 2827   1.888   0.595   1.724  0.4192  0.2356  0.2413
  943SOL    HW1 2828   1.794   0.603   1.678  0.8566  0.1685  1.0382
  943SOL    HW2 2829   1.945   0.515   1.691 -0.6632  1.8677  0.7281
  944SOL     OW 2830   1.163   0.830   1.702 -0.2728 -0.3066 -0.4244
  944SOL    HW1 2831   1.122   0.924   1.733 -4.2413  1.3179  0.4481
  944SOL    HW2 2832   1.200   0.833   1.605  2.1106 -2.8638  1.5996
  945SOL     OW 2833   2.407   2.881   1.457  0.3775 -0.2518 -0.1754
  945SOL    HW1 2834   2.418   2.970   1.412  1.7649 -0.5855 -1.3725
  945SOL    HW2 2835   2.387   2.888   1.557 -0.6194 -0.4301  1.0797
  946SOL     OW 2836   0.880   1.804   0.670 -0.5955 -0.2535  0.1651
  946SOL    HW1 2837   0.864   1.794   0.570  0.5816 -1.3193  1.4845
  946SOL    HW2 2838   0.952   1.877   0.690  2.2235  0.1478  2.5124
  947SOL     OW 2839   1.064   2.499   1.079  0.5602 -0.2805  0.4804
  947SOL    HW1 2840   1.146   2.505   1.020 -1.7834  0.6091  0.7333
  947SOL    HW2 2841   0.981   2.532   1.027 -2.2048  1.0552 -1.7634
  948SOL     OW 2842   0.355   1.613   1.559  0.3871 -0.6558  0.1908
  948SOL    HW1 2843   0.348   1.516   1.595 -2.0982  0.2720  1.1447
  948SOL    HW2 2844   0.296   1.630   1.476 -1.6292 -0.0943 -1.4087
  949SOL     OW 2845   0.527   1.122   1.764 -1.1047  0.2374  0.0614
  949SOL    HW1 2846   0.473   1.046   1.804  0.6511 -0.3225  0.3708
  949SOL    HW2 2847   0.611   1.145   1.819 -0.4079  2.6056  2.2367
  950SOL     OW 2848   0.404   0.592   1.148 -0.6300  0.1519 -0.4815
  950SOL    HW1 2849   0.455   0.668   1.194  0.2305  0.0232 -0.1931
  950SOL    HW2 2850   0.358   0.615   1.063 -2.5350 -3.0074 -0.8936
  951SOL     OW 2851   0.978   2.033   2.080  0.0784 -0.0015  0.0140
  951SOL    HW1 2852   1.039   1.966   2.128 -0.8813  0.4749  0.2558
  951SOL    HW2 2853   1.000   2.128   2.104 -1.1787  0.9672 -1.0913
  952SOL     OW 2854   1.291   1.635   2.988  0.1944  0.4477 -0.0868
  952SOL    HW1 2855   1.359   1.663   3.057 -0.7040 -1.6755 -2.3762
  952SOL    HW2 2856   1.263   1.542   3.005 -0.5272  1.3307 -0.0900
  953SOL     OW 2857   1.069   2.895   2.814  0.1835 -0.1616 -0.5640
  953SOL    HW1 2858   0.996   2.825   2.831  0.4799 -3.5731  1.0853
  953SOL    HW2 2859   1.149   2.852   2.761  2.5607 -1.5147 -0.5918
  954SOL     OW 2860   1.795   1.227   0.075 -0.2779  0.1399  0.2613
  954SOL    HW1 2861   1.748   1.225   0.166  0.7045 -0.6070  1.1680
  954SOL    HW2 2862   1.881   1.275   0.087  0.3952  3.3362 -2.8963
  955SOL     OW 2863   0.280   2.638   2.882  0.5500  0.8814 -0.3668
  955SOL    HW1 2864   0.340   2.692   2.940 -0.0359  1.0007  3.2431
  955SOL    HW2 2865   0.201   2.689   2.846  2.2299 -2.5694 -1.1122
  956SOL     OW 2866   1.257   0.837   1.434 -0.1959  0.4752  0.9948
  956SOL    HW1 2867   1.278   0.760   1.365  0.4243 -2.9575 -1.8648
  956SOL    HW2 2868   1.192   0.900   1.393  1.8572  0.7939  1.7632
  957SOL     OW 2869   1.548   1.796   1.895 -0.2351  0.1432 -0.1910
  957SOL    HW1 2870   1.635   1.852   1.898 -1.5381  0.3880  1.9188
  957SOL    HW2 2871   1.480   1.854   1.948 -1.5550  0.8500 -2.7844
  958SOL     OW 2872   1.225   2.131   1.477 -0.2493  0.0393 -0.3066
  958SOL    HW1 2873   1.296   2.155   1.549  0.7064 -1.9416  0.4969
  958SOL    HW2 2874   1.231   2.188   1.395  1.2350 -1.2908  0.6832
  959SOL     OW 2875   1.462   1.156   1.056 -0.4442  0.0880 -0.3501
  959SOL    HW1 2876   1.542   1.093   1.084  1.3727 -0.8105 -0.5885
  959SOL    HW2 2877   1.371   1.109   1.070  1.0158 -2.6844 -0.2497
  960SOL     OW 2878   0.187   1.391   2.937 -0.2316 -0.2918 -0.3729
  960SOL    HW1 2879   0.274   1.403   2.991 -1.2389 -0.3770 -1.4664
  960SOL    HW2 2880   0.188   1.310   2.880  1.5252  2.4671  0.1244
  961SOL     OW 2881   0.734   1.489   1.935  0.2339  0.2202  0.1688
  961SOL    HW1 2882   0.689   1.532   2.018 -0.1519  1.6649 -0.1992
  961SOL    HW2 2883   0.834   1.507   1.925 -0.3079  2.8659 -0.8263
  962SOL     OW 2884   1.402   1.800   0.646 -0.1997  0.1471  0.2623
  962SOL    HW1 2885   1.376   1.885   0.601  1.8169 -1.9998 -0.1865
  962SOL    HW2 2886   1.329   1.729   0.652 -0.0995  1.3516  0.5887
  963SOL     OW 2887   1.529   1.954   2.692 -0.2117 -0.4143  0.4722
  963SOL    HW1 2888   1.482   2.030   2.739  0.5478  1.4467 -1.7280
  963SOL    HW2 2889   1.473   1.868   2.680  1.5220 -3.0192 -0.6955
  964SOL     OW 2890   0.732   0.210   0.383  0.7487 -0.0147  0.1157
  964SOL    HW1 2891   0.674   0.247   0.461  1.3435  2.3620 -0.8464
  964SOL    HW2 2892   0.800   0.141   0.416  0.2983 -1.1760  0.0553
  965SOL     OW 2893   0.837   2.508   0.921 -0.3081 -0.6498  0.3457
  965SOL    HW1 2894   0.740   2.510   0.937  1.5183 -4.2577 -1.7679
  965SOL    HW2 2895   0.874   2.530   0.827  1.2325  1.6902  1.5137
  966SOL     OW 2896   0.369   1.865   2.761  0.1271  0.0962 -0.2167
  966SOL    HW1 2897   0.356   1.839   2.661  2.0021  1.1192 -2.0993
  966SOL    HW2 2898   0.313   1.942   2.794  1.4277 -0.3533  1.4013
  967SOL     OW 2899   0.160   3.017   2.534  0.1556 -0.2323  0.1459
  967SOL    HW1 2900   0.189   3.023   2.632 -1.2236 -0.3508 -2.5022
  967SOL    HW2 2901   0.115   0.027   2.508  2.1836 -0.1611  1.8498
  968SOL     OW 2902   2.104   0.502   0.250 -0.0866 -0.2786  0.0961
  968SOL    HW1 2903   2.113   0.558   0.339 -1.0103 -1.9027  0.2615
  968SOL    HW2 2904   2.004   0.488   0.231  1.4772  0.0647 -1.0625
  969SOL     OW 2905   0.307   1.276   1.918 -0.4588  0.6604 -0.1888
  969SOL    HW1 2906   0.257   1.186   1.907  2.0795 -1.6269  0.0609
  969SOL    HW2 2907   0.338   1.307   1.828 -0.4198 -0.1248  0.2469
  970SOL     OW 2908   2.650   1.474   1.543 -0.0707  0.2154  0.4852
  970SOL    HW1 2909   2.731   1.503   1.597 -0.1491  0.4966  0.6893
  970SOL    HW2 2910   2.638   1.372   1.529  2.5702  1.3725  2.0341
  971SOL     OW 2911   2.036   0.241   1.164 -0.2478  0.1381  0.1632
  971SOL    HW1 2912   2.102   0.315   1.127  2.1117  1.0019 -3.2709
  971SOL    HW2 2913   2.006   0.176   1.084  0.0431 -0.4697 -1.6274
  972SOL     OW 2914   0.031   0.001   1.789 -0.5425 -0.1043  0.4793
  972SOL    HW1 2915   0.006   3.018   1.862 -0.2944  0.7819 -0.3385
  972SOL    HW2 2916   0.031   3.031   1.701  1.2985  0.9781  0.9427
  973SOL     OW 2917   3.026   0.630   0.132  0.1246  0.2820  0.0038
  973SOL    HW1 2918   2.978   0.717   0.106  0.9039  0.6552 -1.9427
  973SOL    HW2 2919   0.005   0.597   0.056 -1.6125 -2.2971  1.6658
  974SOL     OW 2920   1.894   1.380   2.226  0.1848  0.5381 -0.6412
  974SOL    HW1 2921   1.947   1.465   2.239 -1.5271  0.4184  1.8751
  974SOL    HW2 2922   1.850   1.377   2.135  1.2917  2.1302 -2.6625
  975SOL     OW 2923   3.070   2.939   1.554  0.3467 -0.1690  0.3290
  975SOL    HW1 2924   3.066   2.993   1.465 -1.2966 -1.1881 -0.0071
  975SOL    HW2 2925   3.065   2.840   1.530 -1.7074 -0.1072  1.1835
  976SOL     OW 2926   0.295   2.129   2.154 -0.3829  0.1389 -0.4454
  976SOL    HW1 2927   0.264   2.210   2.096  0.8124 -0.9831 -0.4669
  976SOL    HW2 2928   0.384   2.087   2.125  2.1445  1.1275 -1.3597
  977SOL     OW 2929   1.198   2.843   0.389  1.0885 -0.7981  0.7768
  977SOL    HW1 2930   1.287   2.831   0.430  0.5666 -1.7123 -1.0667
  977SOL    HW2 2931   1.120   2.791   0.426 -3.3503  0.5681  0.4709
  978SOL     OW 2932   0.361   1.921   2.428 -0.1194  0.1314  0.3914
  978SOL    HW1 2933   0.328   2.012   2.457  1.4868 -3.5537 -0.7019
  978SOL    HW2 2934   0.289   1.863   2.393  1.9326  0.3896 -1.2584
  979SOL     OW 2935   1.547   2.428   1.552  0.2895  0.1456  0.1085
  979SOL    HW1 2936   1.549   2.475   1.639  0.7517  2.7060 -2.6983
  979SOL    HW2 2937   1.636   2.422   1.506 -2.1217  2.2346  1.2077
  980SOL     OW 2938   0.671   1.616   2.791 -0.2223 -0.2602  0.5728
  980SOL    HW1 2939   0.623   1.534   2.755  0.2367 -1.6876  0.6359
  980SOL    HW2 2940   0.612   1.673   2.858 -2.2893  2.0221  0.8113
  981SOL     OW 2941   2.401   2.919   2.244  0.0673  0.2890  0.2377
  981SOL    HW1 2942   2.421   2.996   2.185 -1.0251 -0.2339  0.6365
  981SOL    HW2 2943   2.486   2.900   2.294 -3.0713 -1.2482  0.5483
  982SOL     OW 2944   2.971   0.460   2.871  0.1587  0.4055 -0.1551
  982SOL    HW1 2945   3.021   0.539   2.919  2.5234  0.8308 -2.7189
  982SOL    HW2 2946   2.950   0.476   2.770 -0.1330 -0.5655 -1.4942
  983SOL     OW 2947   1.775   1.335   1.978  0.5437  0.0151  0.0870
  983SOL    HW1 2948   1.847   1.341   1.909  0.6492 -1.1143  0.2356
  983SOL    HW2 2949   1.714   1.256   1.961 -0.2464  0.8801 -0.3663
  984SOL     OW 2950   1.149   0.551   1.708  0.6507 -0.2261  0.3684
  984SOL    HW1 2951   1.122   0.523   1.797 -0.5891  1.8095  0.7812
  984SOL    HW2 2952   1.138   0.650   1.710  0.4939 -0.7027  1.2066
  985SOL     OW 2953   1.596   1.430   1.633 -0.3527 -0.4405  0.0687
  985SOL    HW1 2954   1.562   1.526   1.648  2.3420  0.2007  1.8966
  985SOL    HW2 2955   1.699   1.420   1.650  0.6217 -0.1381  0.4578
  986SOL     OW 2956   1.750   0.332   1.809 -1.0404 -0.3065 -0.1471
  986SOL    HW1 2957   1.821   0.347   1.884  1.2756  0.8208  4.9120
  986SOL    HW2 2958   1.704   0.420   1.787  1.7368 -0.4771  0.8330
  987SOL     OW 2959   2.043   0.383   1.610  0.1690 -0.2354 -0.0385
  987SOL    HW1 2960   2.009   0.342   1.523 -0.0588 -1.5172 -2.3288
  987SOL    HW2 2961   2.018   0.324   1.689 -0.4556 -0.9057  0.7302
  988SOL     OW 2962   2.772   0.826   2.095 -0.0602  0.4667  0.0598
  988SOL    HW1 2963   2.699   0.792   2.040  0.5016 -0.6763  0.7490
  988SOL    HW2 2964   2.751   0.814   2.195 -0.7182 -1.4524  0.2349
  989SOL     OW 2965   2.234   1.925   2.832  0.2185  0.7543 -0.5649
  989SOL    HW1 2966   2.165   1.939   2.757 -0.3570  0.6329 -1.5741
  989SOL    HW2 2967   2.208   1.967   2.923  0.3659 -0.1677 -0.0069
  990SOL     OW 2968   1.247   0.385   2.825  0.4168  0.0429 -0.2370
  990SOL    HW1 2969   1.152   0.347   2.844 -0.6430 -1.0988 -0.3555
  990SOL    HW2 2970   1.245   0.488   2.830 -1.5656 -1.0642 -3.1813
  991SOL     OW 2971   1.194   0.851   0.303  0.4308  0.2215 -0.3019
  991SOL    HW1 2972   1.268   0.896   0.353 -1.0919 -0.3960 -0.5146
  991SOL    HW2 2973   1.216   0.751   0.275  0.8491  1.4731  1.0157
  992SOL     OW 2974   2.409   1.798   2.601  0.1208  0.1056  0.4274
  992SOL    HW1 2975   2.434   1.729   2.672 -3.1125 -0.9694 -0.0773
  992SOL    HW2 2976   2.373   1.880   2.649 -3.8627 -3.3852 -1.7884
  993SOL     OW 2977   0.363   0.380   0.211 -0.4879 -0.0074  0.5064
  993SOL    HW1 2978   0.410   0.298   0.243  0.5746 -0.1500  2.6135
  993SOL    HW2 2979   0.332   0.431   0.297 -0.9044 -2.7502  1.4695
  994SOL     OW 2980   0.260   1.697   2.305  0.0920 -0.3660 -0.2512
  994SOL    HW1 2981   0.164   1.677   2.340 -2.3417 -0.9287  1.4351
  994SOL    HW2 2982   0.274   1.689   2.206 -0.7363  0.3516  3.4757
  995SOL     OW 2983   1.932   1.386   2.756  0.4170 -0.2464 -0.0127
  995SOL    HW1 2984   1.875   1.471   2.738  0.6550  3.1605 -1.0197
  995SOL    HW2 2985   2.018   1.395   2.705 -3.1902  1.4136  1.5392
  996SOL     OW 2986   1.930   1.631   2.634  0.2485 -0.0336 -0.2610
  996SOL    HW1 2987   1.889   1.602   2.547 -1.0300  0.3362  0.5239
  996SOL    HW2 2988   1.879   1.714   2.668 -0.0331  0.1518  0.2307
  997SOL     OW 2989   2.276   1.453   1.679  0.0587  0.1271  0.0707
  997SOL    HW1 2990   2.278   1.549   1.707  1.1557 -2.9161 -0.2324
  997SOL    HW2 2991   2.258   1.389   1.762 -1.9965 -0.0289  3.6612
  998SOL     OW 2992   2.532   1.392   0.195  0.1145 -0.5917  0.4190
  998SOL    HW1 2993   2.526   1.301   0.147 -1.6817 -0.4986  0.7803
  998SOL    HW2 2994   2.614   1.439   0.162 -0.7495 -0.4241  1.1702
  999SOL     OW 2995   2.777   2.446   0.358 -0.2531  0.3036  0.1405
  999SOL    HW1 2996   2.757   2.430   0.456  1.7874  1.3587 -1.3195
  999SOL    HW2 2997   2.718   2.523   0.322 -2.1935  0.3724 -0.3413
 1000SOL     OW 2998   0.598   0.082   1.918 -0.4399 -0.4217 -0.1223
 1000SOL    HW1 2999   0.525   0.154   1.925  2.7750  0.3080  1.5994
 1000SOL    HW2 3000   0.590   0.027   2.003 -1.3402  0.2175  1.2976
   3.07894   3.07894   3.07894
