1000 SPC/Fw water molecules t= 389.00000 step= 389000
 3000
    1SOL     OW    1   2.715   2.977   1.727 -0.5059  0.6472  0.1151
    1SOL    HW1    2   2.654   3.051   1.748  0.7585 -0.5968 -0.4541
    1SOL    HW2    3   2.673   2.889   1.768 -3.0519 -2.4157  0.6886
    2SOL     OW    4   2.292   2.537   0.426  0.8348  0.1918 -0.3423
    2SOL    HW1    5   2.239   2.567   0.506  1.1388 -0.3532 -0.7639
    2SOL    HW2    6   2.224   2.514   0.356 -1.8227  0.0278  0.9113
    3SOL     OW    7   1.387   2.956   0.316 -0.1881  0.0131 -0.8489
    3SOL    HW1    8   1.463   2.956   0.387  2.7727  1.5184  1.4009
    3SOL    HW2    9   1.407   3.026   0.245  2.3703  1.5832  1.7676
    4SOL     OW   10   1.323   0.023   2.421  0.1149 -0.5411  0.8031
    4SOL    HW1   11   1.314   3.051   2.350  1.5019 -0.2519  0.3460
    4SOL    HW2   12   1.240   0.076   2.429  1.9536  0.7320 -4.4071
    5SOL     OW   13   2.177   0.149   1.517 -0.5304  0.0880 -0.0787
    5SOL    HW1   14   2.126   0.208   1.456  0.8682 -0.5099 -0.7006
    5SOL    HW2   15   2.144   0.056   1.506  2.0337 -0.4371  1.4010
    6SOL     OW   16   2.137   2.004   0.599 -0.2671  0.1737 -0.5020
    6SOL    HW1   17   2.114   1.948   0.519  0.0233  2.6065  1.2798
    6SOL    HW2   18   2.173   2.096   0.561 -2.0477  1.5719  0.0425
    7SOL     OW   19   1.849   1.072   0.853  0.4154  0.3617 -0.3323
    7SOL    HW1   20   1.891   1.100   0.939 -1.1104 -2.6553 -1.7227
    7SOL    HW2   21   1.770   1.009   0.865  2.0545  0.6500 -1.5720
    8SOL     OW   22   0.756   1.336   0.879  0.1037  0.1921  0.0543
    8SOL    HW1   23   0.784   1.361   0.975  0.5628  1.5797 -0.7519
    8SOL    HW2   24   0.690   1.402   0.847  2.4773 -1.9852 -0.5145
    9SOL     OW   25   0.415   2.686   1.753 -0.1647  0.1739 -0.3669
    9SOL    HW1   26   0.343   2.712   1.685 -0.3556 -1.3377 -0.9238
    9SOL    HW2   27   0.408   2.592   1.792 -1.6878 -0.2250  2.5809
   10SOL     OW   28   1.179   2.428   0.408 -0.2456  0.0998 -0.3769
   10SOL    HW1   29   1.173   2.399   0.310  1.1739  1.4827 -0.3132
   10SOL    HW2   30   1.188   2.350   0.476  3.4132 -0.8467 -0.3701
   11SOL     OW   31   1.720   1.888   1.215 -0.1749 -0.1556  0.2922
   11SOL    HW1   32   1.764   1.959   1.155 -3.4331 -1.1507 -0.1789
   11SOL    HW2   33   1.639   1.844   1.170  0.7018 -0.2286 -1.0599
   12SOL     OW   34   2.945   0.537   2.061  0.2711 -0.2895 -0.5965
   12SOL    HW1   35   2.858   0.527   2.009  1.2667 -1.1409 -0.4562
   12SOL    HW2   36   3.017   0.578   2.005 -0.3590 -0.4847  0.8014
   13SOL     OW   37   2.649   0.156   0.581  0.6088 -0.0296  0.6921
   13SOL    HW1   38   2.594   0.107   0.645 -0.1950  1.7183 -2.2042
   13SOL    HW2   39   2.729   0.103   0.554 -1.6156  1.3301  3.2788
   14SOL     OW   40   1.759   1.450   3.052  0.1090  0.3384  0.3156
   14SOL    HW1   41   1.731   1.362   3.005 -2.0789  0.9843  1.1273
   14SOL    HW2   42   1.750   1.530   2.992 -1.3794 -1.1991  1.8816
   15SOL     OW   43   2.645   2.337   1.777  0.0668 -0.4958  0.2176
   15SOL    HW1   44   2.620   2.408   1.849  1.2506  0.5441  0.1468
   15SOL    HW2   45   2.744   2.307   1.781 -0.7480  0.9650 -0.7365
   16SOL     OW   46   2.735   2.962   1.005  0.1578 -0.1294 -0.1693
   16SOL    HW1   47   2.738   2.977   1.108 -0.5926 -1.0838  2.2030
   16SOL    HW2   48   2.751   2.860   0.986  0.1593 -1.2088  2.7585
   17SOL     OW   49   1.183   0.385   1.439 -0.3950  0.5607 -0.0349
   17SOL    HW1   50   1.191   0.311   1.369 -0.8995  2.0251 -1.9195
   17SOL    HW2   51   1.168   0.349   1.536 -0.6160 -0.1492  0.4168
   18SOL     OW   52   1.456   0.473   1.067 -0.7798 -0.3127 -0.5323
   18SOL    HW1   53   1.400   0.560   1.068 -0.1224 -0.6311  0.9272
   18SOL    HW2   54   1.448   0.420   1.151  4.0089  3.8207 -0.6299
   19SOL     OW   55   2.073   1.462   0.250 -0.0307 -0.0057  0.3672
   19SOL    HW1   56   2.041   1.510   0.170 -0.5643 -1.0256  1.4175
   19SOL    HW2   57   2.054   1.520   0.329 -2.2654 -4.1899 -0.9044
   20SOL     OW   58   2.011   1.571   2.279  0.5534  0.8041  0.4422
   20SOL    HW1   59   2.075   1.548   2.353  0.2961  0.5896 -0.3566
   20SOL    HW2   60   2.018   1.490   2.219  3.0982  0.2412  1.8896
   21SOL     OW   61   1.242   0.022   0.562  0.1286 -0.4639 -0.3147
   21SOL    HW1   62   1.251   0.077   0.475  0.4594  1.2350  0.1700
   21SOL    HW2   63   1.221   3.022   0.547  2.1469 -1.1339 -1.9168
   22SOL     OW   64   2.699   0.725   1.038 -0.3911  0.0872 -0.2694
   22SOL    HW1   65   2.756   0.686   0.964 -0.0267 -1.2568  1.7795
   22SOL    HW2   66   2.597   0.699   1.030 -1.9567 -1.7652  0.1434
   23SOL     OW   67   0.491   0.014   1.809  0.0903  0.3484  0.3150
   23SOL    HW1   68   0.532   0.085   1.866  0.3647 -0.2587 -0.6916
   23SOL    HW2   69   0.426   3.064   1.862  2.5527  1.4514 -2.2434
   24SOL     OW   70   2.563   2.792   0.644 -0.9962  0.4146 -0.1210
   24SOL    HW1   71   2.600   2.880   0.677 -1.3811  1.0411  1.7108
   24SOL    HW2   72   2.626   2.760   0.568  1.8076 -1.1354 -0.3820
   25SOL     OW   73   1.852   0.151   2.807  0.1133  0.5450 -0.1763
   25SOL    HW1   74   1.943   0.171   2.768 -3.2189  1.3617  0.3709
   25SOL    HW2   75   1.828   0.226   2.870 -1.6508  2.3218  0.4150
   26SOL     OW   76   1.525   2.541   3.099 -0.1648  0.2416 -0.1782
   26SOL    HW1   77   1.503   2.639   0.020  1.3235 -1.7460 -0.9632
   26SOL    HW2   78   1.478   2.481   0.064  0.0153 -0.1759  0.9774
   27SOL     OW   79   1.267   0.652   1.074  0.8308 -0.0813  0.1581
   27SOL    HW1   80   1.215   0.706   1.005 -0.2460  0.0163 -2.5729
   27SOL    HW2   81   1.203   0.629   1.153 -1.3578 -1.1515  0.0207
   28SOL     OW   82   1.303   1.414   0.550 -0.5465  0.4977  0.3367
   28SOL    HW1   83   1.236   1.458   0.610 -1.5751 -0.7087  0.3854
   28SOL    HW2   84   1.256   1.356   0.483  1.7731  0.3826  1.6677
   29SOL     OW   85   2.740   0.224   1.758 -0.0269  0.1410  0.2608
   29SOL    HW1   86   2.731   0.239   1.855  1.2708  1.0763 -2.8279
   29SOL    HW2   87   2.654   0.188   1.719  1.7262 -0.0927 -0.6009
   30SOL     OW   88   1.315   2.823   1.316 -0.0653 -0.1052  0.0978
   30SOL    HW1   89   1.249   2.766   1.374 -3.6389  0.8144  3.1379
   30SOL    HW2   90   1.377   2.884   1.366  1.5130  0.8488 -0.8664
   31SOL     OW   91   1.710   2.892   1.634  0.1982  0.0728  0.2793
   31SOL    HW1   92   1.720   2.853   1.728  1.6778 -1.7794 -1.2347
   31SOL    HW2   93   1.791   2.869   1.580 -0.7625  0.4950  0.3078
   32SOL     OW   94   1.565   1.787   3.061 -0.2606 -0.2041  0.3052
   32SOL    HW1   95   1.648   1.837   3.022 -0.3817  0.9594  0.1474
   32SOL    HW2   96   1.506   1.743   2.991  0.4591 -1.5990  0.6970
   33SOL     OW   97   2.750   0.749   2.375  0.2253 -0.4274 -0.0405
   33SOL    HW1   98   2.702   0.768   2.286 -1.3737  0.2810 -0.4889
   33SOL    HW2   99   2.709   0.805   2.449 -0.6334  0.3064  3.4480
   34SOL     OW  100   2.028   0.487   0.414  0.3214  0.2352  0.3288
   34SOL    HW1  101   2.008   0.430   0.499  1.6929 -1.2276 -1.3227
   34SOL    HW2  102   2.040   0.415   0.343  3.6023  0.7604  0.5093
   35SOL     OW  103   2.779   2.089   2.166  0.0264 -0.1177 -0.1203
   35SOL    HW1  104   2.740   2.077   2.262 -0.6316 -1.3110  1.2678
   35SOL    HW2  105   2.855   2.162   2.156  0.9188  4.1529 -1.1297
   36SOL     OW  106   2.284   1.989   2.891 -0.0015  0.6881 -0.5005
   36SOL    HW1  107   2.380   1.968   2.922 -0.7369 -0.4457  1.6601
   36SOL    HW2  108   2.281   2.061   2.819  0.0252 -1.6889  0.3495
   37SOL     OW  109   1.814   0.234   1.640  0.3217  0.3143 -0.3828
   37SOL    HW1  110   1.824   0.293   1.559 -0.3414 -3.5256 -0.2751
   37SOL    HW2  111   1.847   0.283   1.726  0.0252 -0.5836 -0.5799
   38SOL     OW  112   0.288   0.244   2.751 -0.3471 -0.2847 -0.3969
   38SOL    HW1  113   0.372   0.234   2.699 -2.6162 -1.7028 -1.7218
   38SOL    HW2  114   0.293   0.181   2.831 -0.2166  2.4025 -0.6639
   39SOL     OW  115   1.863   1.236   1.822  0.9147 -0.0399 -0.2179
   39SOL    HW1  116   1.891   1.291   1.743 -2.9286  1.7047  1.8691
   39SOL    HW2  117   1.944   1.213   1.883 -2.3607 -0.4778  0.3521
   40SOL     OW  118   1.332   1.774   0.805 -0.2045 -0.3270  0.2180
   40SOL    HW1  119   1.352   1.692   0.861 -0.5839 -1.7483 -0.0406
   40SOL    HW2  120   1.414   1.805   0.756  1.8823 -2.2443  1.6084
   41SOL     OW  121   1.838   1.713   0.792 -0.1370  0.0427 -0.4214
   41SOL    HW1  122   1.770   1.682   0.863 -0.0251  2.2240 -1.4990
   41SOL    HW2  123   1.912   1.639   0.779  0.6286 -1.3503 -1.5777
   42SOL     OW  124   0.019   0.625   1.294 -0.1368  0.1569 -0.0925
   42SOL    HW1  125   0.086   0.567   1.245 -1.1983 -2.4311 -1.2533
   42SOL    HW2  126   0.030   0.602   1.392 -0.7682  0.5962 -1.7311
   43SOL     OW  127   0.320   1.810   2.844  0.3921  0.9521 -0.4931
   43SOL    HW1  128   0.311   1.870   2.928  2.4905  1.1792  2.5421
   43SOL    HW2  129   0.371   1.728   2.871 -1.1000  0.5926  0.7752
   44SOL     OW  130   1.623   2.639   1.318  0.2267  0.1084 -0.6240
   44SOL    HW1  131   1.578   2.715   1.372 -2.6414  0.2308 -0.7028
   44SOL    HW2  132   1.704   2.606   1.372 -2.3127 -0.0724 -2.3903
   45SOL     OW  133   1.088   3.068   2.674 -0.0889 -0.2814 -0.4454
   45SOL    HW1  134   1.058   2.971   2.645  0.9691 -0.4002 -1.3138
   45SOL    HW2  135   1.030   0.040   2.642 -1.1150 -1.2410  0.8882
   46SOL     OW  136   0.735   2.435   2.232  0.0094  0.1941  0.0225
   46SOL    HW1  137   0.775   2.383   2.154  2.3451  0.5205 -0.5334
   46SOL    HW2  138   0.688   2.519   2.199 -0.0304 -1.2256  0.6648
   47SOL     OW  139   1.065   2.070   1.009  0.3021  0.3204  0.1298
   47SOL    HW1  140   0.996   2.094   1.081 -1.4171  0.3849  2.0271
   47SOL    HW2  141   1.085   1.970   0.999 -0.0888  1.4382 -2.2317
   48SOL     OW  142   0.914   2.128   1.297  0.4353 -0.4825 -0.0653
   48SOL    HW1  143   0.884   2.192   1.226 -2.2482  0.6100 -1.3352
   48SOL    HW2  144   0.845   2.052   1.306  0.5236 -2.0583 -1.9862
   49SOL     OW  145   2.608   0.057   0.198  0.1268  0.1064 -0.1179
   49SOL    HW1  146   2.553   0.113   0.265 -0.2313  0.6816 -1.3503
   49SOL    HW2  147   2.708   0.087   0.202  1.2254  0.3288 -0.6126
   50SOL     OW  148   1.851   0.357   0.150 -0.0812 -0.4998  0.5731
   50SOL    HW1  149   1.952   0.346   0.158  1.1487  1.4405 -2.0872
   50SOL    HW2  150   1.822   0.442   0.200  2.0130  2.3965 -0.3538
   51SOL     OW  151   1.802   0.746   1.116  0.2180 -0.2508 -0.0628
   51SOL    HW1  152   1.891   0.699   1.125 -1.0280 -0.0713 -0.8700
   51SOL    HW2  153   1.791   0.806   1.198 -1.3051 -2.3345 -0.3471
   52SOL     OW  154   0.646   1.791   0.263  0.1029  0.4299 -0.2780
   52SOL    HW1  155   0.736   1.748   0.258 -0.0243 -1.2899  2.3174
   52SOL    HW2  156   0.576   1.735   0.214 -0.9172 -0.2159 -0.8617
   53SOL     OW  157   0.207   1.454   3.041  0.5293  0.6166 -0.5041
   53SOL    HW1  158   0.190   1.369   0.001 -0.0010 -2.6785  2.3245
   53SOL    HW2  159   0.297   1.487   3.049 -2.9554  0.2260 -0.9539
   54SOL     OW  160   2.498   1.497   2.032  0.7947 -0.2406  0.0824
   54SOL    HW1  161   2.525   1.592   2.004  1.6078 -1.0626 -0.4863
   54SOL    HW2  162   2.584   1.443   2.052  0.2134 -0.0810  2.5286
   55SOL     OW  163   2.512   1.858   0.736  0.7659  0.0574  0.1402
   55SOL    HW1  164   2.460   1.936   0.690 -0.5920  0.7571 -1.7832
   55SOL    HW2  165   2.452   1.808   0.803 -4.1487 -0.5554 -1.1242
   56SOL     OW  166   1.928   0.056   1.385  0.1523 -0.3257  0.1598
   56SOL    HW1  167   1.883   0.093   1.300  0.4761  0.9052 -3.0523
   56SOL    HW2  168   1.909   0.110   1.472 -0.7636  0.8263  0.2552
   57SOL     OW  169   1.418   1.389   0.099 -0.3760 -0.6500 -0.6161
   57SOL    HW1  170   1.401   1.346   0.010 -0.7989  0.2470  2.0547
   57SOL    HW2  171   1.464   1.330   0.170  1.7135 -1.1633 -0.8711
   58SOL     OW  172   2.344   0.292   1.656  0.1254  0.7939 -0.6690
   58SOL    HW1  173   2.309   0.295   1.750 -1.3425  0.1659  1.3005
   58SOL    HW2  174   2.278   0.241   1.599 -2.2929  0.5037 -2.2828
   59SOL     OW  175   1.468   2.738   2.618  0.3257  0.4391  0.2339
   59SOL    HW1  176   1.499   2.826   2.575  4.2282 -2.9438  1.2006
   59SOL    HW2  177   1.488   2.657   2.556  0.2066  0.5608  0.8956
   60SOL     OW  178   3.035   2.518   2.734  0.0574 -0.2476 -0.4986
   60SOL    HW1  179   2.969   2.499   2.812  0.3644 -1.7088  0.4174
   60SOL    HW2  180   2.995   2.589   2.673 -1.3882  1.0194  0.0232
   61SOL     OW  181   0.834   2.292   1.094  0.1606 -0.2220  0.2991
   61SOL    HW1  182   0.906   2.345   1.048 -1.0874  2.6758  1.8379
   61SOL    HW2  183   0.750   2.280   1.039  0.4689  0.0727  3.0486
   62SOL     OW  184   1.780   1.952   2.283 -0.6414  0.5065 -0.7005
   62SOL    HW1  185   1.728   1.929   2.204 -0.2706  3.4705  2.7546
   62SOL    HW2  186   1.718   1.956   2.360 -0.7937 -1.1301 -0.0368
   63SOL     OW  187   1.651   1.832   0.310  0.2927 -0.2914  0.2618
   63SOL    HW1  188   1.593   1.759   0.264  0.7724  0.0156 -0.0005
   63SOL    HW2  189   1.623   1.845   0.405 -0.8709 -0.2115 -2.2396
   64SOL     OW  190   1.892   1.124   3.088 -0.5452  0.2543 -0.0083
   64SOL    HW1  191   1.806   1.141   3.036 -2.7559 -0.1524 -0.3296
   64SOL    HW2  192   1.868   1.078   0.076 -0.3972 -0.4002 -1.3913
   65SOL     OW  193   2.180   2.264   1.943 -0.0730 -0.3970  0.1361
   65SOL    HW1  194   2.129   2.352   1.936  1.6452  0.3601 -0.8806
   65SOL    HW2  195   2.121   2.183   1.952 -1.4316 -1.2453  2.4632
   66SOL     OW  196   0.455   0.770   1.463 -0.2595 -0.1455 -0.1421
   66SOL    HW1  197   0.453   0.744   1.362 -0.6511 -2.3151 -0.9854
   66SOL    HW2  198   0.419   0.864   1.474 -2.3971 -1.8061 -1.0475
   67SOL     OW  199   2.315   2.918   0.106  0.0326  0.0986  0.5424
   67SOL    HW1  200   2.315   2.935   0.210  1.1129 -2.0582  1.0778
   67SOL    HW2  201   2.414   2.884   0.087  0.2561  0.2731 -0.1927
   68SOL     OW  202   1.812   2.069   1.010 -0.8267  0.4026  0.1556
   68SOL    HW1  203   1.872   2.028   0.939  1.0905  0.6446 -2.1736
   68SOL    HW2  204   1.725   2.108   0.977  0.9479 -2.3703  2.5672
   69SOL     OW  205   2.945   2.458   2.970  0.1313 -0.5613 -0.1131
   69SOL    HW1  206   2.868   2.392   2.991 -1.9775 -1.4300  2.2312
   69SOL    HW2  207   3.020   2.453   3.041 -0.5139  1.2800 -2.0956
   70SOL     OW  208   2.880   0.905   2.069  0.4107 -0.2118 -0.5446
   70SOL    HW1  209   2.914   0.974   2.140  0.6194  0.7153 -1.1199
   70SOL    HW2  210   2.916   0.934   1.977  2.9360 -0.0278 -0.4893
   71SOL     OW  211   0.812   1.042   2.735  0.0362 -0.1377 -0.1742
   71SOL    HW1  212   0.901   1.083   2.763  0.4660 -0.8050 -1.4171
   71SOL    HW2  213   0.825   0.952   2.690 -0.0350  1.0607  0.0504
   72SOL     OW  214   2.779   1.553   2.298  0.1715  0.2743 -0.0316
   72SOL    HW1  215   2.706   1.623   2.280  0.6727 -1.8794  0.1882
   72SOL    HW2  216   2.764   1.479   2.233  1.2341 -0.9146  1.9124
   73SOL     OW  217   1.119   1.983   0.045 -1.1858 -0.4404  0.2418
   73SOL    HW1  218   1.076   2.051   3.091 -0.3468 -3.5155  2.1390
   73SOL    HW2  219   1.145   2.024   0.131 -1.4504  0.5027  0.6973
   74SOL     OW  220   1.809   2.867   2.465  0.2167  0.9005 -0.3357
   74SOL    HW1  221   1.815   2.768   2.499  0.7343 -2.2931  0.8330
   74SOL    HW2  222   1.814   2.921   2.549  0.0833 -2.1101 -0.5284
   75SOL     OW  223   1.479   2.311   0.660  0.1809 -0.1425  0.2804
   75SOL    HW1  224   1.405   2.307   0.725 -1.3291  0.8098 -1.5395
   75SOL    HW2  225   1.529   2.222   0.656  0.2915 -0.4259  2.5507
   76SOL     OW  226   2.637   1.792   2.654 -0.2788 -0.1702 -0.1136
   76SOL    HW1  227   2.553   1.761   2.707  0.6694 -0.7436 -0.8086
   76SOL    HW2  228   2.680   1.711   2.605 -0.3942  0.7172 -0.6538
   77SOL     OW  229   2.959   2.433   1.774  0.0462  0.1912  0.0949
   77SOL    HW1  230   2.932   2.529   1.800 -0.1302 -1.6750  1.5454
   77SOL    HW2  231   2.930   2.362   1.842  0.0212 -2.4786  0.6130
   78SOL     OW  232   2.343   1.035   0.154  0.2761 -0.1774  0.2638
   78SOL    HW1  233   2.274   0.963   0.179 -0.5184 -0.4804 -0.5276
   78SOL    HW2  234   2.296   1.119   0.125  1.1086 -1.8271 -1.1333
   79SOL     OW  235   0.105   1.481   2.587  0.3141  0.2950 -0.4321
   79SOL    HW1  236   0.082   1.578   2.607  0.5976  2.2154 -1.8310
   79SOL    HW2  237   0.207   1.463   2.594 -1.6419  1.3520  0.6605
   80SOL     OW  238   1.827   1.663   1.953 -0.1640  0.3051  0.2330
   80SOL    HW1  239   1.794   1.594   2.023 -1.7837 -0.7512  1.2604
   80SOL    HW2  240   1.919   1.645   1.930 -3.4002  0.1382  1.5726
   81SOL     OW  241   1.961   1.326   2.160 -0.2064 -0.1629 -0.0398
   81SOL    HW1  242   2.016   1.268   2.092  0.5823 -1.7194 -1.6241
   81SOL    HW2  243   1.932   1.275   2.244  0.6295 -1.7187  3.7326
   82SOL     OW  244   1.384   1.760   2.009  0.2905 -0.0391 -0.4419
   82SOL    HW1  245   1.301   1.783   1.950 -0.2178 -0.7275 -3.6747
   82SOL    HW2  246   1.408   1.658   2.005  0.5315  1.1919  0.3483
   83SOL     OW  247   0.079   0.389   0.250  0.5170 -0.3191  0.2528
   83SOL    HW1  248   0.075   0.290   0.224  2.5137  0.4830  0.1292
   83SOL    HW2  249   3.100   0.413   0.305 -1.5370 -0.6314  1.6247
   84SOL     OW  250   0.309   0.508   0.287 -0.2646 -0.1066 -0.3020
   84SOL    HW1  251   0.212   0.493   0.256 -0.8879 -1.6744  0.2524
   84SOL    HW2  252   0.366   0.506   0.199  1.0766 -0.7122 -0.0673
   85SOL     OW  253   2.078   2.064   1.390 -0.1790  0.5777  0.1260
   85SOL    HW1  254   2.002   2.089   1.335  2.7683 -0.5399 -0.1929
   85SOL    HW2  255   2.071   2.102   1.484 -0.8411 -3.9294  0.4308
   86SOL     OW  256   0.516   0.386   1.320  0.4125 -0.1925  0.1181
   86SOL    HW1  257   0.512   0.344   1.230  2.2558  0.7078 -0.1170
   86SOL    HW2  258   0.617   0.373   1.348  0.5956 -0.2219  1.4138
   87SOL     OW  259   0.065   2.098   2.149  0.4790 -0.1353  0.8673
   87SOL    HW1  260   0.069   2.094   2.046  2.1095 -1.0513 -0.1710
   87SOL    HW2  261   0.121   2.176   2.190  2.9799 -1.4980  0.5157
   88SOL     OW  262   0.100   2.042   2.826 -0.4512  0.6120 -0.4919
   88SOL    HW1  263   0.115   2.089   2.741 -2.9820 -1.7347  3.5157
   88SOL    HW2  264   0.001   2.045   2.841 -0.8775 -0.2422 -0.6995
   89SOL     OW  265   1.188   0.924   0.395 -0.1262  0.3275 -0.0844
   89SOL    HW1  266   1.149   0.838   0.434 -1.2215  1.1325  1.3884
   89SOL    HW2  267   1.118   0.977   0.344 -1.1377  0.5423  0.7912
   90SOL     OW  268   0.019   1.449   2.328 -0.6752 -0.0944  0.0960
   90SOL    HW1  269   3.082   1.541   2.298  0.5806  3.9787 -0.8373
   90SOL    HW2  270   0.069   1.451   2.418  0.1986 -0.9463  2.0161
   91SOL     OW  271   1.731   0.405   1.153 -0.4709 -0.4129  0.0778
   91SOL    HW1  272   1.645   0.461   1.139  1.1153  0.2819 -0.5486
   91SOL    HW2  273   1.771   0.426   1.244  0.2938 -0.0315  0.3562
   92SOL     OW  274   2.410   1.216   1.371  0.2783  0.3549 -0.3444
   92SOL    HW1  275   2.415   1.266   1.283  0.4421 -1.3616  1.8812
   92SOL    HW2  276   2.446   1.122   1.370 -1.6265 -0.3395 -0.7129
   93SOL     OW  277   0.298   1.290   2.855 -0.4089 -0.1308  0.1166
   93SOL    HW1  278   0.270   1.342   2.941 -0.9095  0.8900  2.1842
   93SOL    HW2  279   0.289   1.352   2.771 -0.7762  1.0545  0.3398
   94SOL     OW  280   1.612   2.382   2.235  0.0754 -0.1282 -0.2935
   94SOL    HW1  281   1.671   2.306   2.267  1.9106  1.9796  0.2498
   94SOL    HW2  282   1.635   2.419   2.140 -0.4544 -1.0032 -0.4198
   95SOL     OW  283   0.448   0.270   1.076 -0.4654  0.1479 -0.0803
   95SOL    HW1  284   0.522   0.210   1.045  1.2664  0.0734  2.2139
   95SOL    HW2  285   0.376   0.279   0.999 -1.3732  1.6475 -0.3991
   96SOL     OW  286   2.705   2.989   1.288  0.1351  0.2226 -0.2002
   96SOL    HW1  287   2.661   2.900   1.314 -2.9607 -0.3444  0.7541
   96SOL    HW2  288   2.765   3.020   1.363 -1.9114 -2.3407 -2.5902
   97SOL     OW  289   2.384   0.754   1.497 -0.3459 -0.4546  0.2643
   97SOL    HW1  290   2.443   0.834   1.478 -0.6453  0.2715 -0.0354
   97SOL    HW2  291   2.310   0.779   1.562  2.3028 -1.3880  0.4427
   98SOL     OW  292   2.233   2.562   1.651  0.0510 -0.0698 -0.0034
   98SOL    HW1  293   2.153   2.602   1.701 -0.9890 -2.3928  0.7697
   98SOL    HW2  294   2.293   2.630   1.601  2.1131  3.0356  1.3670
   99SOL     OW  295   0.713   2.817   1.436  0.3866 -0.3515 -0.1283
   99SOL    HW1  296   0.647   2.850   1.510 -0.8422 -0.5888  2.5369
   99SOL    HW2  297   0.708   2.872   1.347  0.0459  3.2622  0.0284
  100SOL     OW  298   2.118   0.139   2.358  0.5231  0.1787  0.6084
  100SOL    HW1  299   2.192   0.207   2.374  0.9547 -1.4032 -0.6293
  100SOL    HW2  300   2.098   0.095   2.445 -0.7885 -1.5138 -1.9478
  101SOL     OW  301   2.950   0.248   2.385 -0.2020  0.3254  0.0956
  101SOL    HW1  302   3.033   0.219   2.332 -1.2803 -3.1416 -0.9097
  101SOL    HW2  303   2.908   0.326   2.341  2.9011 -3.0271  4.2563
  102SOL     OW  304   0.403   0.529   1.580  0.1674 -0.5959 -0.3263
  102SOL    HW1  305   0.448   0.472   1.506  1.6958  3.1671 -2.8971
  102SOL    HW2  306   0.427   0.625   1.550  2.0619  0.3613 -2.7327
  103SOL     OW  307   0.837   0.694   2.908 -0.2289  0.1402 -0.0411
  103SOL    HW1  308   0.921   0.656   2.953 -4.3230 -1.2308  1.4462
  103SOL    HW2  309   0.781   0.738   2.981  0.7133 -0.2198  2.1935
  104SOL     OW  310   0.165   0.482   2.146  0.4767 -0.5642 -0.1853
  104SOL    HW1  311   0.118   0.517   2.230 -1.6927  0.9788 -0.5861
  104SOL    HW2  312   0.106   0.501   2.066  0.0923  0.8898  1.7833
  105SOL     OW  313   2.628   2.082   1.319 -1.0607  0.1592 -0.3078
  105SOL    HW1  314   2.613   2.162   1.384  0.9944 -3.4489  2.9699
  105SOL    HW2  315   2.538   2.042   1.283 -0.8185  0.2696  0.0354
  106SOL     OW  316   1.710   0.078   0.442 -0.6583 -0.2553 -0.4140
  106SOL    HW1  317   1.710   0.155   0.513 -2.5198 -0.8578 -1.8884
  106SOL    HW2  318   1.709   0.110   0.346 -1.2084  0.9135  0.6626
  107SOL     OW  319   2.090   2.158   0.963  0.4434 -0.2382  0.3607
  107SOL    HW1  320   2.043   2.086   0.904 -0.7184 -0.9347 -0.9289
  107SOL    HW2  321   2.034   2.243   0.974 -1.6907  2.0957 -1.1035
  108SOL     OW  322   0.159   2.348   1.290 -0.6302  0.0525 -1.2300
  108SOL    HW1  323   0.063   2.352   1.259  1.7823  1.6646  1.0835
  108SOL    HW2  324   0.222   2.380   1.218 -0.4448 -0.1401  0.5318
  109SOL     OW  325   1.973   2.532   0.733  0.4048  0.2919 -0.2357
  109SOL    HW1  326   1.917   2.612   0.711  1.5007 -0.8519  2.5700
  109SOL    HW2  327   1.959   2.507   0.831  2.6125 -2.7846  1.0028
  110SOL     OW  328   1.161   1.773   1.839  0.6730  0.1244  0.3530
  110SOL    HW1  329   1.109   1.701   1.795 -0.5130 -1.0608  0.8125
  110SOL    HW2  330   1.151   1.856   1.782 -0.2778 -0.6039  2.0615
  111SOL     OW  331   1.897   2.403   1.735 -0.7780 -0.3513  0.0745
  111SOL    HW1  332   1.805   2.423   1.698 -0.3533 -1.5152 -2.2919
  111SOL    HW2  333   1.946   2.494   1.748  0.9918  1.4616 -4.8141
  112SOL     OW  334   1.731   2.154   2.962  0.3145  0.3719 -0.1248
  112SOL    HW1  335   1.633   2.167   2.981  1.1598  0.4527  0.7399
  112SOL    HW2  336   1.780   2.174   3.048 -1.6605 -0.4612  0.8663
  113SOL     OW  337   1.951   1.905   1.703 -0.0109 -0.1962  0.3731
  113SOL    HW1  338   1.995   1.829   1.655 -0.7197 -1.9215  0.9160
  113SOL    HW2  339   1.851   1.899   1.705  0.1796  0.0829 -0.5777
  114SOL     OW  340   0.052   1.342   1.433 -0.0212 -0.0887  0.2049
  114SOL    HW1  341   0.090   1.250   1.457  0.9218 -3.4663 -0.9218
  114SOL    HW2  342   3.051   1.346   1.428 -1.0257 -1.0959  0.0873
  115SOL     OW  343   0.469   0.818   0.220 -0.3385 -0.4046  0.1197
  115SOL    HW1  344   0.397   0.779   0.278  1.4513 -0.1892 -0.5292
  115SOL    HW2  345   0.436   0.903   0.169  1.0835 -1.5921 -1.8296
  116SOL     OW  346   2.485   1.418   2.591  0.4303  0.0101  0.3579
  116SOL    HW1  347   2.466   1.461   2.499 -0.4581  1.3135  1.1354
  116SOL    HW2  348   2.559   1.351   2.589  1.8666  0.4258  1.1897
  117SOL     OW  349   2.776   2.488   0.389  0.5787  0.1550  0.3011
  117SOL    HW1  350   2.775   2.589   0.408  0.7542 -0.1666  0.1824
  117SOL    HW2  351   2.762   2.432   0.475  2.1743  0.9882  0.6680
  118SOL     OW  352   0.481   1.955   2.657 -0.1394 -0.3315  0.4524
  118SOL    HW1  353   0.447   1.975   2.563 -0.6977  2.5302 -3.2566
  118SOL    HW2  354   0.410   1.913   2.716  1.1579  0.1385 -0.7816
  119SOL     OW  355   0.700   2.206   0.574  0.1039  0.0119  0.3220
  119SOL    HW1  356   0.652   2.130   0.629 -0.2888 -0.1054  0.0692
  119SOL    HW2  357   0.796   2.188   0.567 -3.0624 -1.3151 -2.9410
  120SOL     OW  358   1.382   0.419   0.382 -0.0466  0.0440 -0.2077
  120SOL    HW1  359   1.384   0.464   0.291 -1.6630  2.5312 -1.1552
  120SOL    HW2  360   1.344   0.323   0.369 -1.0201 -0.2949  3.8053
  121SOL     OW  361   1.287   2.357   0.836  0.2722  0.3956 -0.1075
  121SOL    HW1  362   1.333   2.443   0.858 -1.0707  2.2853  0.8504
  121SOL    HW2  363   1.183   2.368   0.845 -2.3589  3.2377  0.2613
  122SOL     OW  364   2.856   2.213   1.914 -0.3501  0.7423  0.2406
  122SOL    HW1  365   2.861   2.260   2.004 -1.4679  0.2187  1.7806
  122SOL    HW2  366   2.862   2.113   1.926 -2.2009  0.2700  1.0216
  123SOL     OW  367   0.890   1.643   0.712 -0.4139  0.1159 -0.7132
  123SOL    HW1  368   0.892   1.682   0.806  0.7013 -0.5099  0.2918
  123SOL    HW2  369   0.812   1.684   0.660 -3.5086  0.5868 -0.3041
  124SOL     OW  370   0.072   0.510   3.047  0.0352  0.1583 -0.3419
  124SOL    HW1  371   3.095   0.486   0.002 -0.0930 -0.9324 -1.3555
  124SOL    HW2  372   0.059   0.485   2.946  0.1437 -1.7006  1.2176
  125SOL     OW  373   0.458   0.232   0.116 -0.5216 -0.3637 -0.1224
  125SOL    HW1  374   0.360   0.242   0.085  2.7086 -0.2945 -0.3882
  125SOL    HW2  375   0.501   0.322   0.137 -1.7356 -1.5688  1.6460
  126SOL     OW  376   3.055   1.516   0.471 -0.0615  0.6373 -0.3516
  126SOL    HW1  377   2.996   1.491   0.389  0.2634 -0.4529 -0.6277
  126SOL    HW2  378   2.992   1.554   0.540  1.5942 -1.6063 -1.6765
  127SOL     OW  379   1.094   2.443   1.608 -0.1848  0.0770 -0.3901
  127SOL    HW1  380   1.002   2.411   1.639 -0.6722 -0.6816 -1.1326
  127SOL    HW2  381   1.165   2.371   1.589  0.4566  0.4412 -0.2962
  128SOL     OW  382   1.144   1.482   0.097  0.0406 -0.4037 -0.2728
  128SOL    HW1  383   1.186   1.576   0.062  0.2183  3.0088 -2.2776
  128SOL    HW2  384   1.212   1.402   0.091  1.8802 -3.1509  3.0992
  129SOL     OW  385   1.883   2.200   1.247  0.4772 -0.5198 -0.1191
  129SOL    HW1  386   1.888   2.159   1.155  2.1966  1.5431  1.3676
  129SOL    HW2  387   1.786   2.225   1.272  0.4267 -0.8827 -0.1785
  130SOL     OW  388   2.050   2.173   1.633 -0.4009 -0.1975 -0.1895
  130SOL    HW1  389   2.016   2.091   1.685 -1.8332 -0.1251 -0.2058
  130SOL    HW2  390   2.002   2.261   1.662 -1.0249  2.1138 -2.1915
  131SOL     OW  391   2.608   2.680   2.467 -0.2639  0.3561 -0.2777
  131SOL    HW1  392   2.543   2.688   2.544 -0.3289  0.5504 -1.2230
  131SOL    HW2  393   2.698   2.646   2.496  1.1867  0.5187 -2.8459
  132SOL     OW  394   2.908   1.962   0.576  0.2710 -0.5445 -0.3425
  132SOL    HW1  395   2.999   2.011   0.590 -1.7762 -2.0462 -1.5671
  132SOL    HW2  396   2.846   1.949   0.656  1.8830 -1.5472 -0.1933
  133SOL     OW  397   0.625   0.257   1.889 -0.1233  0.3905 -0.0618
  133SOL    HW1  398   0.704   0.258   1.951 -1.8617 -0.3893  0.1930
  133SOL    HW2  399   0.603   0.350   1.853 -1.5849  3.6319  0.6515
  134SOL     OW  400   2.617   1.742   0.279  0.3052  0.4834  0.0725
  134SOL    HW1  401   2.693   1.810   0.282  3.1451  1.9475  0.1947
  134SOL    HW2  402   2.540   1.778   0.223 -0.0033  1.2328 -2.2650
  135SOL     OW  403   1.591   1.378   2.572  0.3782  0.2800 -0.1574
  135SOL    HW1  404   1.674   1.354   2.625 -2.2546 -2.7051 -1.7199
  135SOL    HW2  405   1.565   1.288   2.530 -0.3318 -0.4255  0.3267
  136SOL     OW  406   2.628   1.799   1.068  0.3459 -0.6920  0.2348
  136SOL    HW1  407   2.677   1.838   1.145 -2.4029  2.8419 -0.7156
  136SOL    HW2  408   2.683   1.735   1.010 -1.7524 -0.8217  0.0327
  137SOL     OW  409   2.787   1.630   0.932  0.4877  0.3129  0.2431
  137SOL    HW1  410   2.757   1.566   0.858 -0.1279  0.6394 -1.2497
  137SOL    HW2  411   2.885   1.659   0.920  0.2627 -0.3456 -0.2449
  138SOL     OW  412   2.835   0.356   0.877 -0.3364 -0.3063 -0.6889
  138SOL    HW1  413   2.849   0.274   0.938 -1.6357  0.6868 -1.4372
  138SOL    HW2  414   2.737   0.382   0.884  3.2519 -1.5219 -3.1220
  139SOL     OW  415   0.036   2.825   0.195  0.5844  0.1846 -0.4729
  139SOL    HW1  416   0.021   2.813   0.292  0.7851  2.5856 -2.2523
  139SOL    HW2  417   3.056   2.799   0.135 -2.9124  0.0927 -0.4702
  140SOL     OW  418   0.849   1.799   1.710  0.1988 -0.6437 -0.0582
  140SOL    HW1  419   0.876   1.727   1.772  0.3062 -1.3695  2.1089
  140SOL    HW2  420   0.795   1.876   1.751  1.4254  0.3498  0.0574
  141SOL     OW  421   1.561   1.817   0.668  0.1883  0.0739  0.2131
  141SOL    HW1  422   1.655   1.801   0.705  0.5034 -0.9880 -1.9571
  141SOL    HW2  423   1.539   1.731   0.615 -0.2224 -0.9039 -2.3184
  142SOL     OW  424   1.142   0.793   0.816  0.2459  0.2653 -0.0638
  142SOL    HW1  425   1.164   0.815   0.721  0.0267 -1.4727 -1.0135
  142SOL    HW2  426   1.044   0.778   0.828 -0.7642 -0.6677  0.7924
  143SOL     OW  427   0.748   1.309   2.737  0.2383 -0.4804 -0.3374
  143SOL    HW1  428   0.825   1.345   2.791 -0.3498 -4.3765  0.7501
  143SOL    HW2  429   0.768   1.209   2.714  0.0103 -0.3344 -1.5900
  144SOL     OW  430   2.276   3.044   0.832  0.4080  0.1184 -0.5447
  144SOL    HW1  431   2.208   2.986   0.778 -0.3415 -1.1879  0.6992
  144SOL    HW2  432   2.272   3.031   0.934 -1.8819  0.0611 -0.5026
  145SOL     OW  433   2.393   0.588   2.710 -0.1254 -0.0004  0.2564
  145SOL    HW1  434   2.377   0.607   2.809 -2.3030 -0.5899  0.4419
  145SOL    HW2  435   2.489   0.555   2.691 -1.0574  2.2208 -0.0970
  146SOL     OW  436   3.047   2.658   0.658  0.3179 -0.2247  0.2704
  146SOL    HW1  437   2.984   2.579   0.646 -1.8562  2.8719  0.1362
  146SOL    HW2  438   3.081   2.650   0.756  2.6306 -1.0887  2.1893
  147SOL     OW  439   1.150   1.114   2.576 -0.3101 -1.1284 -0.1526
  147SOL    HW1  440   1.088   1.175   2.519  1.0529  0.1917 -0.4868
  147SOL    HW2  441   1.177   1.024   2.535  2.0388  0.0026  1.4786
  148SOL     OW  442   1.368   0.574   2.468 -0.0324 -0.0078 -0.2754
  148SOL    HW1  443   1.304   0.520   2.411  0.7338 -1.3713 -1.1530
  148SOL    HW2  444   1.387   0.664   2.433 -1.5049 -1.3172  1.8476
  149SOL     OW  445   1.948   0.086   2.154 -0.2419 -0.5437  0.2690
  149SOL    HW1  446   1.985   0.012   2.092 -1.8561 -0.0194 -2.8662
  149SOL    HW2  447   2.004   0.098   2.238 -0.4735 -0.8856  0.3901
  150SOL     OW  448   2.364   2.573   2.951 -0.6507 -0.1039 -0.5698
  150SOL    HW1  449   2.334   2.669   2.965 -1.4108  2.1810 -0.9483
  150SOL    HW2  450   2.452   2.565   2.999 -0.8023  0.4459  1.2326
  151SOL     OW  451   0.441   1.590   2.980 -0.5238  0.2730  0.2563
  151SOL    HW1  452   0.501   1.628   3.055 -2.4363 -0.8717  1.7005
  151SOL    HW2  453   0.495   1.538   2.909  2.1104 -1.5873 -3.3075
  152SOL     OW  454   0.279   0.082   1.643  0.2524 -0.1149  0.4103
  152SOL    HW1  455   0.365   0.055   1.691 -2.3485  2.5945 -0.2422
  152SOL    HW2  456   0.199   0.105   1.709 -2.8331  0.0383  2.2724
  153SOL     OW  457   2.267   2.898   1.442  0.0756 -0.0850 -0.0466
  153SOL    HW1  458   2.345   2.835   1.466 -2.9599 -1.2639 -1.9303
  153SOL    HW2  459   2.310   2.975   1.388 -0.6863 -1.2352 -0.8040
  154SOL     OW  460   2.308   0.299   2.460 -0.0918 -0.4208  0.3079
  154SOL    HW1  461   2.259   0.377   2.510  1.9611  0.6109  1.7229
  154SOL    HW2  462   2.403   0.300   2.487 -2.3768  0.1528 -1.5470
  155SOL     OW  463   0.086   1.349   0.670 -0.0595  0.0624  0.4943
  155SOL    HW1  464   0.174   1.306   0.638 -0.0044  0.9534  2.2728
  155SOL    HW2  465   0.056   1.427   0.611  2.2025 -0.3104 -0.6420
  156SOL     OW  466   2.878   1.474   0.267  0.7732 -0.8295  0.0891
  156SOL    HW1  467   2.936   1.492   0.184  2.0853  1.4208 -0.4322
  156SOL    HW2  468   2.778   1.501   0.251  0.8113  0.9775  2.0335
  157SOL     OW  469   0.582   0.088   0.704 -0.8190 -1.1841 -0.5565
  157SOL    HW1  470   0.506   0.027   0.723 -1.7757  1.3981  1.1219
  157SOL    HW2  471   0.666   0.042   0.670  0.4214 -1.4466  1.2827
  158SOL     OW  472   1.822   0.943   1.318  0.0451  0.0282  0.1757
  158SOL    HW1  473   1.911   0.966   1.373  2.8553  1.4004  2.5311
  158SOL    HW2  474   1.743   0.946   1.386  1.2431 -0.0102  0.4288
  159SOL     OW  475   0.297   0.297   0.512 -0.2048 -0.0446 -0.0621
  159SOL    HW1  476   0.268   0.376   0.458 -0.4981 -1.1912  0.4885
  159SOL    HW2  477   0.330   0.220   0.450 -2.0857  0.8266 -0.9319
  160SOL     OW  478   2.298   2.317   1.558  0.4492 -0.1164 -0.0073
  160SOL    HW1  479   2.229   2.245   1.580  0.7809  2.0509 -2.3963
  160SOL    HW2  480   2.258   2.409   1.588  1.2093  0.3656  2.4995
  161SOL     OW  481   2.974   0.772   2.620 -0.5900  0.7476  0.5237
  161SOL    HW1  482   3.066   0.729   2.632 -3.7782 -0.8491 -0.9475
  161SOL    HW2  483   2.976   0.866   2.661  2.2208  0.6528  1.2314
  162SOL     OW  484   0.815   0.107   1.738  0.1234 -0.1469  0.7836
  162SOL    HW1  485   0.841   0.127   1.639 -1.8171 -2.8034  0.0147
  162SOL    HW2  486   0.739   0.162   1.777 -1.2982  1.5095  2.4710
  163SOL     OW  487   2.694   0.187   2.451 -0.0453 -0.5009 -0.1311
  163SOL    HW1  488   2.670   0.088   2.460 -1.6716  0.1784 -0.8437
  163SOL    HW2  489   2.795   0.203   2.453  0.7083  0.0288  0.6812
  164SOL     OW  490   2.093   1.856   0.369  0.7994 -0.2873 -0.2566
  164SOL    HW1  491   2.012   1.916   0.343 -0.3485  2.0094  1.1601
  164SOL    HW2  492   2.143   1.819   0.288  1.5546 -0.1558 -1.0579
  165SOL     OW  493   0.293   0.254   1.430 -0.1534 -0.3551  0.1508
  165SOL    HW1  494   0.389   0.288   1.414 -0.4940  4.1742  2.1128
  165SOL    HW2  495   0.295   0.197   1.516 -2.2436  0.4786  1.6917
  166SOL     OW  496   1.929   0.859   0.361  0.1048  0.6653  0.3194
  166SOL    HW1  497   1.891   0.947   0.326  1.0851  0.0902  0.9671
  166SOL    HW2  498   1.899   0.831   0.457 -1.8412  2.0023  0.3317
  167SOL     OW  499   2.363   0.890   2.865  0.2329  0.6995 -0.5074
  167SOL    HW1  500   2.278   0.944   2.885  2.5994 -1.4838  1.2824
  167SOL    HW2  501   2.350   0.796   2.910 -0.6934 -0.9533  2.0647
  168SOL     OW  502   1.813   0.371   2.992  0.1293  0.5332 -0.0082
  168SOL    HW1  503   1.817   0.362   3.098 -0.0176 -1.5592  1.2632
  168SOL    HW2  504   1.761   0.451   2.968  0.1407 -0.3553 -0.8270
  169SOL     OW  505   0.327   1.601   0.972  0.3032  0.3023  0.1533
  169SOL    HW1  506   0.282   1.690   0.944  0.8222  0.1361  1.0991
  169SOL    HW2  507   0.255   1.539   1.001  0.1694  1.7967 -0.7831
  170SOL     OW  508   2.919   1.162   0.997 -0.1593  0.2172 -0.4057
  170SOL    HW1  509   2.835   1.151   1.056 -2.3062 -1.0242  2.3939
  170SOL    HW2  510   2.902   1.122   0.905 -0.6428  1.7358  0.5288
  171SOL     OW  511   2.512   1.754   1.952 -0.1717 -0.9940 -0.2449
  171SOL    HW1  512   2.442   1.743   1.879 -1.7101 -1.0062  1.4411
  171SOL    HW2  513   2.537   1.852   1.962 -1.3736 -0.2135  1.6338
  172SOL     OW  514   0.648   1.696   1.564 -0.1889  0.2851 -0.5510
  172SOL    HW1  515   0.592   1.772   1.526 -0.1169 -0.1642 -1.5231
  172SOL    HW2  516   0.736   1.725   1.610 -0.0991 -1.9894 -1.4946
  173SOL     OW  517   1.763   1.644   2.871 -0.6363  0.1905  0.6258
  173SOL    HW1  518   1.692   1.643   2.793 -0.2728 -0.8362 -0.6614
  173SOL    HW2  519   1.786   1.742   2.894 -0.3923 -2.5891  0.8166
  174SOL     OW  520   1.396   0.802   2.828  0.2796  0.5201 -0.4910
  174SOL    HW1  521   1.443   0.729   2.890 -0.8850 -1.1571  1.3694
  174SOL    HW2  522   1.312   0.751   2.792 -2.0103 -1.1122 -1.8984
  175SOL     OW  523   1.308   1.451   1.191  0.4058 -0.0953 -0.7281
  175SOL    HW1  524   1.300   1.493   1.287 -1.9604 -1.0982  0.9386
  175SOL    HW2  525   1.235   1.380   1.184 -2.6130 -2.2522 -1.7652
  176SOL     OW  526   1.286   0.160   0.319  0.3597  0.1005  0.4226
  176SOL    HW1  527   1.204   0.180   0.257  1.5136 -2.1370 -0.8475
  176SOL    HW2  528   1.359   0.114   0.266 -0.3940  0.0247  0.7495
  177SOL     OW  529   0.448   1.090   0.143  0.3131 -0.3841  0.0114
  177SOL    HW1  530   0.518   1.074   0.069 -0.7043 -0.2708  1.9919
  177SOL    HW2  531   0.495   1.115   0.229 -3.4024  0.1208 -1.4142
  178SOL     OW  532   2.679   2.022   2.406  0.3791 -0.3369  0.1897
  178SOL    HW1  533   2.733   1.986   2.486 -0.2005 -0.3685  0.4275
  178SOL    HW2  534   2.577   2.008   2.412 -2.8956  0.0301  0.0787
  179SOL     OW  535   2.658   2.997   2.519  0.5160  0.1854 -0.3094
  179SOL    HW1  536   2.645   2.980   2.620  0.7858  0.6562 -1.7218
  179SOL    HW2  537   2.750   2.962   2.491  4.5198 -1.7761 -1.5521
  180SOL     OW  538   2.014   0.607   1.205  0.3009 -0.2134 -0.0972
  180SOL    HW1  539   2.034   0.510   1.208 -0.0342  2.2070  2.1333
  180SOL    HW2  540   2.099   0.662   1.210  1.6931  0.3287  1.3474
  181SOL     OW  541   2.395   0.784   2.511  0.2121 -0.4255 -0.1531
  181SOL    HW1  542   2.404   0.724   2.592  0.6274 -0.4055 -0.8375
  181SOL    HW2  543   2.480   0.845   2.505 -0.3002  1.4446  0.1310
  182SOL     OW  544   2.954   2.296   2.170 -0.2645 -0.3433 -0.1166
  182SOL    HW1  545   3.050   2.294   2.142  1.2135  1.7672 -1.6115
  182SOL    HW2  546   2.944   2.365   2.242 -0.8639  0.9757  1.4861
  183SOL     OW  547   1.977   0.864   1.938 -0.3808 -0.2410 -0.1425
  183SOL    HW1  548   2.072   0.899   1.918  2.3630 -1.5230  3.0981
  183SOL    HW2  549   1.903   0.891   1.870 -0.9602 -1.4314  0.6587
  184SOL     OW  550   0.150   1.698   1.195  0.0203 -0.3140  0.0871
  184SOL    HW1  551   0.141   1.599   1.175  1.6779 -2.7057  1.4436
  184SOL    HW2  552   0.064   1.740   1.231  1.3652  0.9815  0.1503
  185SOL     OW  553   2.915   0.180   1.068 -0.3792 -0.2159  0.3096
  185SOL    HW1  554   2.963   0.121   1.001 -1.6677 -1.6361  2.0495
  185SOL    HW2  555   2.974   0.218   1.143  2.2405  3.8126  0.4804
  186SOL     OW  556   2.213   2.626   2.666 -0.0246  0.2217 -0.3438
  186SOL    HW1  557   2.185   2.607   2.764 -2.2832 -2.4298  1.0710
  186SOL    HW2  558   2.209   2.546   2.601 -0.7951 -0.2756 -1.7412
  187SOL     OW  559   0.473   1.445   0.584  0.3366  0.0168 -0.1686
  187SOL    HW1  560   0.412   1.366   0.594 -1.6881  1.2341  0.7522
  187SOL    HW2  561   0.508   1.487   0.670  0.2767 -0.9415 -3.4365
  188SOL     OW  562   1.905   1.108   1.128  0.2409  0.7103  0.3095
  188SOL    HW1  563   2.002   1.125   1.157  0.6886 -3.9092 -0.8283
  188SOL    HW2  564   1.857   1.035   1.184  0.5324  0.5156 -0.3350
  189SOL     OW  565   3.013   0.768   2.287  0.4046 -0.1743  0.7065
  189SOL    HW1  566   2.931   0.749   2.339  2.7941  1.4565  0.9116
  189SOL    HW2  567   2.989   0.778   2.186 -0.2090  0.9587 -1.9359
  190SOL     OW  568   2.308   0.535   2.272 -0.0941 -0.0296  0.7298
  190SOL    HW1  569   2.205   0.536   2.278  0.6895 -0.2860 -0.9611
  190SOL    HW2  570   2.346   0.450   2.323  0.5237 -1.3917  2.8387
  191SOL     OW  571   1.057   0.131   2.408 -0.0275  0.3126  0.7995
  191SOL    HW1  572   1.005   0.180   2.482 -0.8511  0.8465 -0.1745
  191SOL    HW2  573   1.011   0.046   2.375  2.7044 -1.4599  0.6944
  192SOL     OW  574   1.167   2.003   1.683 -0.1431  0.6469  0.5370
  192SOL    HW1  575   1.231   2.004   1.604  0.6561  0.9613  1.5792
  192SOL    HW2  576   1.081   2.045   1.650  2.9019 -2.1604 -1.8831
  193SOL     OW  577   1.188   0.111   0.829  0.6691 -0.4648 -0.0349
  193SOL    HW1  578   1.238   0.044   0.885  1.1038  1.9814  2.3188
  193SOL    HW2  579   1.188   0.096   0.729  0.8739 -1.5053  1.6749
  194SOL     OW  580   0.942   2.107   1.580 -0.2205 -0.8048  0.2097
  194SOL    HW1  581   0.899   2.079   1.493 -0.7446 -0.8474 -1.5242
  194SOL    HW2  582   0.876   2.098   1.658  1.9537 -1.6817 -2.4378
  195SOL     OW  583   1.483   0.525   0.804 -0.0166 -0.5623  0.7473
  195SOL    HW1  584   1.480   0.490   0.895  1.0114  1.0751 -3.2613
  195SOL    HW2  585   1.486   0.626   0.810 -1.1744 -2.9361 -2.1322
  196SOL     OW  586   0.893   1.496   2.261 -0.2121  0.7642 -0.0418
  196SOL    HW1  587   0.908   1.417   2.324  0.6402 -0.7680  1.7656
  196SOL    HW2  588   0.975   1.554   2.269 -0.7956 -0.0271  0.0428
  197SOL     OW  589   0.538   0.499   1.865  0.5749  0.1975  0.1396
  197SOL    HW1  590   0.614   0.558   1.904 -0.0350  0.2581  0.1954
  197SOL    HW2  591   0.531   0.516   1.765 -4.0464  3.1477 -2.0494
  198SOL     OW  592   0.774   0.668   0.612  0.1550  0.4776 -0.2548
  198SOL    HW1  593   0.870   0.678   0.576  3.0283 -0.5832 -0.8219
  198SOL    HW2  594   0.719   0.596   0.559 -1.2032 -0.3606 -1.4851
  199SOL     OW  595   0.166   2.386   1.728 -0.7259  0.1138  0.4221
  199SOL    HW1  596   0.158   2.316   1.650  3.0467  0.1803 -2.1420
  199SOL    HW2  597   0.076   2.414   1.762  3.4836  1.8916 -1.6735
  200SOL     OW  598   1.631   1.569   2.378  0.1034  0.0213 -0.3102
  200SOL    HW1  599   1.715   1.622   2.388 -0.8820  0.3271 -0.5060
  200SOL    HW2  600   1.606   1.499   2.453 -2.2318 -0.6172  2.4017
  201SOL     OW  601   0.614   2.291   1.786  0.1719 -0.4207 -0.1112
  201SOL    HW1  602   0.676   2.345   1.721  2.2984  0.6534 -0.1975
  201SOL    HW2  603   0.612   2.194   1.766  0.5945 -0.4309 -0.5323
  202SOL     OW  604   1.373   2.838   2.882  0.0832  0.1024  0.0235
  202SOL    HW1  605   1.408   2.817   2.786  0.4664 -0.1347 -0.0231
  202SOL    HW2  606   1.275   2.841   2.881  2.1515  0.5328  1.2214
  203SOL     OW  607   1.591   0.355   2.240  0.0002  0.4129  0.2770
  203SOL    HW1  608   1.656   0.311   2.173  3.8912  0.8577 -0.3998
  203SOL    HW2  609   1.563   0.288   2.313 -1.6096  1.1139  0.4744
  204SOL     OW  610   0.346   1.415   1.990  0.4617  0.5462  0.5303
  204SOL    HW1  611   0.386   1.338   2.045 -2.0034 -0.0353  1.9877
  204SOL    HW2  612   0.256   1.384   1.956  0.1521  1.0579 -0.3516
  205SOL     OW  613   1.972   1.020   2.665 -0.3705 -0.2050  0.0619
  205SOL    HW1  614   2.053   0.969   2.620  0.8305 -2.4831  0.1857
  205SOL    HW2  615   1.965   1.106   2.615 -0.4792 -1.0934 -0.5794
  206SOL     OW  616   0.116   1.742   2.676  0.0459  0.3095  0.9048
  206SOL    HW1  617   0.112   1.821   2.607  0.5831  0.3101  0.5796
  206SOL    HW2  618   0.189   1.749   2.747 -2.7681 -0.9305 -1.3923
  207SOL     OW  619   0.884   2.950   1.844 -0.2786  0.3219 -0.2134
  207SOL    HW1  620   0.793   2.906   1.851 -0.5958  0.8953  0.3306
  207SOL    HW2  621   0.877   3.041   1.797 -1.9359 -0.5113 -1.8859
  208SOL     OW  622   0.777   2.498   1.273  0.4936  0.1092  0.1983
  208SOL    HW1  623   0.684   2.534   1.290  1.8222 -1.3665 -1.1195
  208SOL    HW2  624   0.782   2.437   1.196  1.4072  6.2021  1.4541
  209SOL     OW  625   1.189   2.831   0.184  0.3137  0.0704  0.0504
  209SOL    HW1  626   1.228   2.857   0.277  0.8997  3.6474  0.8684
  209SOL    HW2  627   1.146   2.909   0.134  1.1402 -0.7171 -1.7351
  210SOL     OW  628   2.896   1.507   1.394  0.2217  0.2327 -0.3335
  210SOL    HW1  629   2.822   1.574   1.414 -2.3672  0.6854 -1.9462
  210SOL    HW2  630   2.861   1.419   1.438 -1.5458 -0.8295 -0.4786
  211SOL     OW  631   0.882   0.563   2.095  1.3077  0.4013  0.3333
  211SOL    HW1  632   0.834   0.622   2.026 -0.6417  4.7274 -2.0178
  211SOL    HW2  633   0.976   0.596   2.123  0.8874  1.2616 -0.4072
  212SOL     OW  634   1.477   2.272   1.544  0.1419  0.1560 -0.7507
  212SOL    HW1  635   1.442   2.325   1.471 -2.4975 -0.2639  1.8319
  212SOL    HW2  636   1.533   2.189   1.521 -0.5455 -2.4275 -1.1957
  213SOL     OW  637   2.562   0.443   1.701  0.0429  0.3411 -0.0218
  213SOL    HW1  638   2.593   0.508   1.623  0.7776  2.7943  0.4585
  213SOL    HW2  639   2.476   0.400   1.669  0.2373  2.0688 -2.8745
  214SOL     OW  640   1.060   2.219   1.903 -0.0127  0.4932 -0.3004
  214SOL    HW1  641   1.097   2.203   1.995 -0.0396  1.5021 -1.2186
  214SOL    HW2  642   1.131   2.253   1.837 -2.4047  1.6649 -1.6890
  215SOL     OW  643   2.866   1.928   1.332  0.1695 -0.0202 -0.2083
  215SOL    HW1  644   2.786   1.992   1.328  0.8943 -0.0212 -0.2912
  215SOL    HW2  645   2.939   1.960   1.401  3.1218 -0.9818 -0.2626
  216SOL     OW  646   0.048   0.575   1.568 -0.0419  0.2200  0.1445
  216SOL    HW1  647   3.056   0.551   1.603 -2.0880 -3.4162 -0.7765
  216SOL    HW2  648   0.114   0.498   1.582 -0.2351 -0.3399  0.3549
  217SOL     OW  649   2.750   0.291   1.383  0.1281 -0.1162 -0.4971
  217SOL    HW1  650   2.808   0.241   1.450  0.1222 -1.8036  0.6616
  217SOL    HW2  651   2.813   0.359   1.334  1.0229  0.6131  0.0279
  218SOL     OW  652   1.371   2.096   1.046  0.5933  0.3661 -0.1272
  218SOL    HW1  653   1.269   2.088   1.042  0.3602 -1.3028  1.7132
  218SOL    HW2  654   1.399   2.131   1.138 -0.0324  3.9471  2.0459
  219SOL     OW  655   1.420   2.414   0.221 -0.6501 -0.3502  0.2279
  219SOL    HW1  656   1.414   2.510   0.250  0.6642 -3.7262  1.8465
  219SOL    HW2  657   1.473   2.361   0.292  0.0222 -0.7075  0.2137
  220SOL     OW  658   1.768   2.442   0.304 -0.0068 -0.3568  0.0441
  220SOL    HW1  659   1.691   2.377   0.314 -0.9906  1.8478 -0.4358
  220SOL    HW2  660   1.784   2.451   0.202 -2.1166 -0.9181  0.4119
  221SOL     OW  661   2.996   1.930   1.036  0.4295  0.1139 -0.1504
  221SOL    HW1  662   2.907   1.939   0.988 -0.2104  0.0214  1.4212
  221SOL    HW2  663   3.007   1.834   1.071  0.4291 -2.4227  2.3576
  222SOL     OW  664   0.954   2.197   0.788 -0.0269 -0.0707  0.0451
  222SOL    HW1  665   1.006   2.145   0.857 -1.4213  0.2707  0.6402
  222SOL    HW2  666   0.934   2.138   0.707 -1.7260 -1.9725 -0.8622
  223SOL     OW  667   1.093   2.714   2.303  0.3122  0.4021 -0.6140
  223SOL    HW1  668   1.194   2.701   2.297 -0.9355 -1.6211  1.9822
  223SOL    HW2  669   1.056   2.744   2.214  1.2183  0.7450  1.9983
  224SOL     OW  670   2.539   0.980   0.977  0.0853 -0.1876  0.1189
  224SOL    HW1  671   2.512   0.974   0.879  0.0563 -1.1933  1.8577
  224SOL    HW2  672   2.595   0.899   1.006  1.2807 -0.5053  0.1227
  225SOL     OW  673   2.438   1.385   1.176  0.0477  0.0361 -0.8775
  225SOL    HW1  674   2.363   1.401   1.115  1.2919 -2.5407 -1.2305
  225SOL    HW2  675   2.528   1.402   1.129 -0.8687 -1.2608  2.3354
  226SOL     OW  676   1.242   2.629   0.570  0.1007 -0.1865 -0.4395
  226SOL    HW1  677   1.224   2.568   0.493  2.8244 -0.4914 -0.4607
  226SOL    HW2  678   1.337   2.608   0.592 -0.6012 -1.2835 -0.8482
  227SOL     OW  679   1.096   1.281   1.194 -0.2518  0.5106  0.3542
  227SOL    HW1  680   1.099   1.209   1.267  0.0121  1.6766 -0.6846
  227SOL    HW2  681   1.065   1.245   1.108 -2.5706  0.9870 -2.0035
  228SOL     OW  682   1.375   0.482   2.186  0.1392  0.4487 -0.1828
  228SOL    HW1  683   1.466   0.435   2.203 -1.4084 -1.6719  1.6432
  228SOL    HW2  684   1.303   0.414   2.197  0.7085  0.3299 -0.4471
  229SOL     OW  685   2.638   0.910   2.810  0.2888  0.2430  0.0251
  229SOL    HW1  686   2.687   0.880   2.890 -0.7174 -0.0375 -1.6905
  229SOL    HW2  687   2.538   0.912   2.831  0.1065 -1.7950 -0.8897
  230SOL     OW  688   0.935   1.349   0.673  0.8384 -0.0830 -0.7195
  230SOL    HW1  689   1.000   1.427   0.681  0.3771 -1.7153 -1.2352
  230SOL    HW2  690   0.856   1.370   0.739 -0.3322  1.4828  1.1947
  231SOL     OW  691   2.406   2.915   2.401 -0.4348  1.0021 -0.3568
  231SOL    HW1  692   2.508   2.908   2.419  0.6547 -1.3391 -1.9558
  231SOL    HW2  693   2.390   2.983   2.328  2.4827  1.6607 -0.0253
  232SOL     OW  694   0.081   2.097   0.191 -0.1336  0.5588  0.8336
  232SOL    HW1  695   0.157   2.120   0.128  1.5169  0.7468  2.0014
  232SOL    HW2  696   0.047   2.000   0.192  0.0728  0.7565  3.0550
  233SOL     OW  697   1.550   2.576   2.432  0.3701  0.0133  0.2757
  233SOL    HW1  698   1.570   2.495   2.373 -0.8010 -0.2584  0.9127
  233SOL    HW2  699   1.642   2.612   2.458  1.3477  1.8254  0.7866
  234SOL     OW  700   0.941   1.360   1.949 -0.3316 -0.6754 -0.0166
  234SOL    HW1  701   1.010   1.338   2.024  0.9208  0.0965  1.1044
  234SOL    HW2  702   0.851   1.326   1.981 -0.4759 -1.6479  2.6864
  235SOL     OW  703   0.664   2.017   1.768  0.4317  0.5631 -0.4258
  235SOL    HW1  704   0.626   2.026   1.862 -0.6603  1.5588 -0.4900
  235SOL    HW2  705   0.583   2.001   1.702 -0.7053  1.2735 -0.9180
  236SOL     OW  706   2.002   2.538   2.841  0.4545  0.6523 -0.0169
  236SOL    HW1  707   1.928   2.500   2.786 -0.5252  2.1727  1.1904
  236SOL    HW2  708   2.079   2.474   2.851 -2.3317 -0.8206  0.6983
  237SOL     OW  709   1.590   0.115   1.069  0.1593  0.3065 -0.2069
  237SOL    HW1  710   1.544   0.180   1.132 -2.8855 -0.9455  1.6198
  237SOL    HW2  711   1.606   0.152   0.977  0.4967  1.0024 -0.7285
  238SOL     OW  712   1.079   0.577   2.978  0.3172 -0.5100  0.4338
  238SOL    HW1  713   1.142   0.581   2.899 -0.4297 -0.5658  4.5641
  238SOL    HW2  714   1.059   0.477   2.978  0.8276  2.3503 -5.8990
  239SOL     OW  715   0.704   3.068   2.141  0.0979  0.2570 -0.3364
  239SOL    HW1  716   0.711   3.047   2.041  0.8330 -0.9077 -1.0137
  239SOL    HW2  717   0.786   3.061   2.197 -4.7915  0.0612  3.5206
  240SOL     OW  718   2.240   2.466   0.684  0.0938  0.1301  0.3448
  240SOL    HW1  719   2.141   2.485   0.696  0.0607 -1.6236  0.9806
  240SOL    HW2  720   2.245   2.390   0.614 -2.6031 -1.6141 -0.2885
  241SOL     OW  721   0.956   1.575   1.800  0.3134 -1.1695  0.3651
  241SOL    HW1  722   0.929   1.542   1.705 -1.6118 -1.6314 -1.3135
  241SOL    HW2  723   0.968   1.494   1.867 -2.0878 -2.1398 -1.1933
  242SOL     OW  724   0.106   0.466   0.717  0.7624  0.1443  0.0210
  242SOL    HW1  725   0.078   0.562   0.747  1.8999 -1.1630 -0.2962
  242SOL    HW2  726   0.021   0.416   0.685 -0.0290  2.9621 -0.4975
  243SOL     OW  727   0.735   0.811   1.455 -0.1411  0.3367 -0.5618
  243SOL    HW1  728   0.768   0.903   1.424 -0.8540 -2.0605 -2.1101
  243SOL    HW2  729   0.634   0.814   1.476 -1.6632  0.1591 -0.5913
  244SOL     OW  730   1.373   0.535   0.132 -0.3133  0.1224  0.1803
  244SOL    HW1  731   1.355   0.627   0.170 -0.3877 -2.5134 -0.5960
  244SOL    HW2  732   1.417   0.541   0.042 -2.4847  3.5655  0.7177
  245SOL     OW  733   2.112   0.297   0.227 -0.1377  0.0266  0.3756
  245SOL    HW1  734   2.123   0.198   0.217  0.8433 -0.1977  1.8055
  245SOL    HW2  735   2.194   0.347   0.195  2.4899 -1.8429 -0.2840
  246SOL     OW  736   0.758   0.675   1.884 -0.3212 -0.2880 -0.1348
  246SOL    HW1  737   0.683   0.744   1.871 -0.2724  0.2186  1.3279
  246SOL    HW2  738   0.816   0.682   1.796  0.5373 -3.6758  0.2807
  247SOL     OW  739   0.469   3.068   2.242 -0.0412  0.1930 -0.1560
  247SOL    HW1  740   0.453   0.058   2.288  2.8978  0.4895 -0.2127
  247SOL    HW2  741   0.560   3.078   2.194  1.8424 -0.3638 -0.8020
  248SOL     OW  742   3.087   1.600   1.980  0.0895  0.0097  0.0123
  248SOL    HW1  743   3.087   1.680   1.919 -1.9034  0.7887  0.7480
  248SOL    HW2  744   3.082   1.628   2.080  1.2149 -1.3690  2.1987
  249SOL     OW  745   0.141   2.951   2.861 -0.1870 -0.5255  0.6679
  249SOL    HW1  746   0.199   3.024   2.901 -1.4940  1.5171 -0.2182
  249SOL    HW2  747   0.201   2.896   2.798  2.2187 -0.5621 -2.9101
  250SOL     OW  748   3.051   0.146   0.027  0.6181 -0.2655 -0.3155
  250SOL    HW1  749   3.099   0.078   0.085 -3.2204  1.6996  1.9752
  250SOL    HW2  750   3.015   0.109   3.041 -0.5243  0.7374 -0.0893
  251SOL     OW  751   0.333   1.274   1.103  0.3280 -0.4915  0.2302
  251SOL    HW1  752   0.236   1.304   1.111  0.2229  0.7702 -2.4175
  251SOL    HW2  753   0.396   1.354   1.119  0.3178 -0.2855 -0.9256
  252SOL     OW  754   1.437   3.009   1.708  0.8511  0.5748  0.1821
  252SOL    HW1  755   1.403   3.068   1.631  0.8767 -2.1870 -1.3069
  252SOL    HW2  756   1.513   2.953   1.676 -2.1528  1.2985  2.9467
  253SOL     OW  757   2.050   1.986   2.505 -0.8047  0.2008  0.6010
  253SOL    HW1  758   2.092   2.035   2.580 -0.2308 -1.2762 -1.5665
  253SOL    HW2  759   1.944   1.989   2.502 -2.8732  0.3204  1.3283
  254SOL     OW  760   0.622   1.478   1.851  0.4228 -0.0521  0.3500
  254SOL    HW1  761   0.677   1.525   1.920  0.6940  1.9392  1.6704
  254SOL    HW2  762   0.546   1.430   1.900 -0.4319 -1.7630  1.1683
  255SOL     OW  763   1.168   0.280   1.674  0.2664 -0.2621 -0.0764
  255SOL    HW1  764   1.259   0.259   1.712 -2.1249  0.5709 -1.1602
  255SOL    HW2  765   1.099   0.303   1.746  0.8994 -0.1082 -0.8177
  256SOL     OW  766   2.635   2.320   1.035 -0.1488 -0.5132 -0.4862
  256SOL    HW1  767   2.648   2.261   0.951 -2.9297  0.3668 -0.0067
  256SOL    HW2  768   2.542   2.310   1.074 -2.5705  0.9623  0.6153
  257SOL     OW  769   0.394   2.264   0.044  0.5334 -0.6289 -0.2088
  257SOL    HW1  770   0.420   2.354   0.002 -1.7119  2.6701 -2.6862
  257SOL    HW2  771   0.402   2.278   0.142  1.5833 -0.2087 -0.5852
  258SOL     OW  772   1.076   2.498   2.465 -0.6718 -0.3236 -0.0072
  258SOL    HW1  773   0.992   2.448   2.486  0.6504 -0.6868 -0.7966
  258SOL    HW2  774   1.061   2.562   2.386 -2.1009 -2.0950  0.1436
  259SOL     OW  775   1.011   1.842   2.849 -0.5151 -0.0774 -0.0785
  259SOL    HW1  776   1.052   1.936   2.870  1.3383  1.1052  1.4809
  259SOL    HW2  777   0.917   1.834   2.891 -1.8144  0.5428  1.9656
  260SOL     OW  778   2.532   1.081   2.183 -0.5913 -0.2471 -0.3786
  260SOL    HW1  779   2.454   1.147   2.177  0.6277  1.1000 -1.0518
  260SOL    HW2  780   2.593   1.104   2.259  0.0967 -0.0748 -1.0792
  261SOL     OW  781   1.425   0.792   0.772 -0.1541 -0.3102  0.4055
  261SOL    HW1  782   1.334   0.776   0.815 -0.1288  2.2632  0.8049
  261SOL    HW2  783   1.421   0.877   0.717 -2.0226  0.3082 -0.7487
  262SOL     OW  784   1.964   2.445   2.359  0.1280  0.5145 -0.3742
  262SOL    HW1  785   1.917   2.353   2.369 -1.1142 -3.4329 -1.6122
  262SOL    HW2  786   1.917   2.483   2.278  0.3000 -1.9231  3.8199
  263SOL     OW  787   0.011   1.859   0.260 -0.9246  0.3802 -0.1248
  263SOL    HW1  788   0.055   1.767   0.263 -2.0887  0.2793 -0.3342
  263SOL    HW2  789   0.010   1.906   0.351 -2.5883 -0.0473 -1.9343
  264SOL     OW  790   0.370   2.006   0.865 -0.0055 -0.3067 -0.3319
  264SOL    HW1  791   0.306   1.933   0.839 -2.1726  2.5716 -2.1889
  264SOL    HW2  792   0.369   2.025   0.965  0.7931 -0.6814  1.2686
  265SOL     OW  793   0.621   1.436   0.356  0.0700  0.4461 -0.0169
  265SOL    HW1  794   0.561   1.427   0.440 -0.6247  2.0276 -0.9217
  265SOL    HW2  795   0.718   1.456   0.380  0.4031  0.8787 -2.0027
  266SOL     OW  796   0.973   2.016   2.451  0.2900  0.3199 -0.5133
  266SOL    HW1  797   0.933   2.084   2.512 -3.1369  0.8832 -1.1951
  266SOL    HW2  798   0.930   2.028   2.357  0.4178  0.6565 -1.7530
  267SOL     OW  799   1.079   0.748   2.501  0.3619 -0.2584 -0.1931
  267SOL    HW1  800   1.088   0.662   2.450 -0.7628 -1.0777  1.1723
  267SOL    HW2  801   1.094   0.828   2.439  2.7025 -0.6653 -0.0031
  268SOL     OW  802   0.407   0.793   2.698 -0.9862  0.5005  0.4302
  268SOL    HW1  803   0.420   0.863   2.631 -2.0925  0.4288  2.0265
  268SOL    HW2  804   0.398   0.832   2.791 -1.2659  0.8717 -1.8493
  269SOL     OW  805   2.191   2.754   2.425  0.0515 -0.0032 -0.1292
  269SOL    HW1  806   2.257   2.832   2.418  2.0066 -0.0443  0.8737
  269SOL    HW2  807   2.188   2.709   2.519 -3.5154 -3.7832  1.0406
  270SOL     OW  808   1.286   1.515   2.476 -0.1687  0.2402  0.1324
  270SOL    HW1  809   1.338   1.589   2.424  0.0418  0.6933  0.0894
  270SOL    HW2  810   1.201   1.547   2.511  3.7390  0.1136 -0.2740
  271SOL     OW  811   0.303   0.067   2.961  0.3133  0.4268  0.4715
  271SOL    HW1  812   0.379   0.006   2.986 -1.6468 -0.8474 -2.3822
  271SOL    HW2  813   0.274   0.139   3.031  0.7954  2.9803  0.1581
  272SOL     OW  814   2.659   0.510   0.360 -0.1146 -0.2376  0.3959
  272SOL    HW1  815   2.635   0.472   0.451 -0.4584  1.2408  2.7606
  272SOL    HW2  816   2.620   0.601   0.340  2.3682 -1.7929 -2.8451
  273SOL     OW  817   0.290   3.004   1.947  0.6548  0.8275  0.1084
  273SOL    HW1  818   0.281   2.961   2.039  1.3921 -1.6848 -2.8560
  273SOL    HW2  819   0.235   2.949   1.881  0.3515  4.1157  1.8769
  274SOL     OW  820   0.055   0.589   1.927 -0.4249 -0.1455  0.1449
  274SOL    HW1  821   0.034   0.677   1.888  0.3645 -0.0440 -0.3207
  274SOL    HW2  822   0.108   0.535   1.857  2.2362 -0.0254 -1.2366
  275SOL     OW  823   1.163   1.878   0.624  0.5173  0.2146 -0.1879
  275SOL    HW1  824   1.222   1.851   0.703  2.1307 -1.5968  0.2849
  275SOL    HW2  825   1.207   1.847   0.539 -2.7839  2.9431  0.2314
  276SOL     OW  826   0.734   0.963   2.082  0.6768  0.7313  0.1528
  276SOL    HW1  827   0.668   0.896   2.047 -1.1914  0.3110  3.4382
  276SOL    HW2  828   0.733   0.973   2.185  3.0568 -0.7314  2.3851
  277SOL     OW  829   1.252   2.590   1.814 -0.7640  0.4541 -0.0824
  277SOL    HW1  830   1.191   2.531   1.751 -0.2393  0.3172 -0.7968
  277SOL    HW2  831   1.270   2.543   1.903 -1.6464  0.6533 -2.2520
  278SOL     OW  832   1.786   2.803   1.897  0.1361  0.5589  0.1101
  278SOL    HW1  833   1.692   2.824   1.933  0.0204  0.8217 -1.5769
  278SOL    HW2  834   1.857   2.842   1.955 -1.6216  0.1013  0.4741
  279SOL     OW  835   1.718   1.392   0.220  0.2141 -0.5355  0.0699
  279SOL    HW1  836   1.744   1.413   0.124 -2.2034 -1.3335  0.4321
  279SOL    HW2  837   1.665   1.312   0.235 -0.2966  0.3619 -1.9277
  280SOL     OW  838   0.583   1.573   0.107 -0.0425  0.4104 -0.1789
  280SOL    HW1  839   0.670   1.533   0.069 -1.1291  1.7872 -0.4972
  280SOL    HW2  840   0.578   1.531   0.204 -0.8601 -0.2712  1.7391
  281SOL     OW  841   0.526   2.908   1.621  0.1931  0.6746 -0.1918
  281SOL    HW1  842   0.480   2.833   1.671  1.9250  0.4827  0.5218
  281SOL    HW2  843   0.513   2.992   1.679  1.8903  0.3924  2.0722
  282SOL     OW  844   0.200   2.399   0.671 -0.3620 -0.4068 -0.2136
  282SOL    HW1  845   0.187   2.498   0.672 -2.6176  0.4772 -1.9805
  282SOL    HW2  846   0.171   2.367   0.578  1.7640 -0.6680 -1.3371
  283SOL     OW  847   1.825   2.228   2.262  0.1984 -0.2093  0.1099
  283SOL    HW1  848   1.846   2.245   2.168  1.7304  0.2045  0.3965
  283SOL    HW2  849   1.828   2.126   2.279  0.6094  0.4024 -0.4461
  284SOL     OW  850   1.997   2.910   0.799 -0.2400  0.3801 -0.2902
  284SOL    HW1  851   1.953   2.994   0.834  1.4140  1.0193 -1.8822
  284SOL    HW2  852   1.936   2.828   0.803 -1.2357  2.4227  2.5584
  285SOL     OW  853   0.271   2.398   2.333  0.0338 -0.1801 -0.6302
  285SOL    HW1  854   0.355   2.385   2.279  1.4585  0.8719  1.2494
  285SOL    HW2  855   0.286   2.395   2.437 -0.2217  2.6533  1.4969
  286SOL     OW  856   3.039   2.628   0.930 -0.1250  0.6452  0.2390
  286SOL    HW1  857   3.088   2.682   0.999  2.5197 -1.9980 -1.3602
  286SOL    HW2  858   2.993   2.546   0.965  1.7358 -0.3676 -0.4356
  287SOL     OW  859   0.582   1.546   0.827 -0.1278 -0.0183 -0.0055
  287SOL    HW1  860   0.493   1.575   0.872 -0.4618  1.0703 -0.6345
  287SOL    HW2  861   0.647   1.621   0.818 -0.5834  0.2444 -1.5263
  288SOL     OW  862   2.247   2.160   2.672 -0.4669 -0.0394 -0.2056
  288SOL    HW1  863   2.332   2.112   2.642 -1.0999 -1.2127  0.1389
  288SOL    HW2  864   2.233   2.243   2.612 -0.4932  0.9212 -1.1347
  289SOL     OW  865   2.930   1.989   2.827 -0.1189  0.5344  0.5022
  289SOL    HW1  866   2.886   2.009   2.919 -2.2559  1.9455 -2.3782
  289SOL    HW2  867   2.947   1.892   2.815 -2.1772  0.9598 -1.0198
  290SOL     OW  868   1.462   1.818   1.098 -0.3368 -0.0791  0.2201
  290SOL    HW1  869   1.385   1.796   1.159 -0.2361 -0.0653 -0.3081
  290SOL    HW2  870   1.471   1.920   1.085 -0.2563 -0.2787 -1.4778
  291SOL     OW  871   1.374   1.270   2.966 -0.2058 -0.0587  0.5278
  291SOL    HW1  872   1.341   1.292   2.872  1.3281 -1.0725  0.9239
  291SOL    HW2  873   1.349   1.173   2.986 -2.2143  1.4037  1.7809
  292SOL     OW  874   1.056   1.611   0.318  0.2059 -0.2379  0.8220
  292SOL    HW1  875   1.137   1.659   0.350  3.5531  1.1813  1.2621
  292SOL    HW2  876   1.076   1.545   0.238 -0.6577 -1.5449 -0.7124
  293SOL     OW  877   1.430   2.567   0.894  0.0299 -0.0928 -0.1143
  293SOL    HW1  878   1.381   2.619   0.969 -1.8656 -2.1974  1.4312
  293SOL    HW2  879   1.488   2.636   0.846 -0.5477  0.2179 -0.5997
  294SOL     OW  880   2.044   1.320   2.896  0.9689  0.3088 -0.2966
  294SOL    HW1  881   2.032   1.227   2.944 -0.8337 -0.5658 -0.7404
  294SOL    HW2  882   2.121   1.368   2.935 -2.9472 -0.6660 -1.9863
  295SOL     OW  883   1.809   1.904   2.952 -0.0676 -0.3087  0.4719
  295SOL    HW1  884   1.910   1.893   2.964  2.7255  0.2354  0.3488
  295SOL    HW2  885   1.784   2.002   2.937 -0.4938  1.3630 -4.6471
  296SOL     OW  886   1.856   0.638   2.028  0.4017 -0.3249  0.9065
  296SOL    HW1  887   1.896   0.708   1.963  0.7149  3.2044  1.0959
  296SOL    HW2  888   1.879   0.661   2.124  1.1946  1.2929 -0.7559
  297SOL     OW  889   3.054   0.860   1.827  0.0028 -0.0258  0.3543
  297SOL    HW1  890   2.965   0.867   1.771 -1.5498 -1.9967  0.9514
  297SOL    HW2  891   0.024   0.876   1.766 -2.9122  0.0363  0.8870
  298SOL     OW  892   1.161   2.138   2.158 -0.0355 -0.5984 -0.5456
  298SOL    HW1  893   1.256   2.104   2.153  0.4549 -1.1001  0.2068
  298SOL    HW2  894   1.163   2.227   2.208  3.5507 -1.0195  0.6901
  299SOL     OW  895   1.261   0.156   2.778  0.1021 -0.0132  0.0542
  299SOL    HW1  896   1.334   0.194   2.720 -2.3391  1.8172  0.8540
  299SOL    HW2  897   1.201   0.091   2.730  0.0546  0.4290  1.1233
  300SOL     OW  898   0.096   1.084   2.918 -0.0116 -0.4632  0.0201
  300SOL    HW1  899   0.124   1.029   2.998 -0.8010 -0.3612 -4.3405
  300SOL    HW2  900   0.177   1.143   2.892  3.2102 -0.6957 -0.7534
  301SOL     OW  901   1.899   0.948   2.170 -0.3813 -0.5999  0.1879
  301SOL    HW1  902   1.914   0.924   2.072 -3.5890  4.5477  2.1914
  301SOL    HW2  903   1.827   1.014   2.182  0.6141 -1.9867  2.8403
  302SOL     OW  904   2.421   1.624   2.752  0.0775 -0.0932  0.6686
  302SOL    HW1  905   2.453   1.546   2.696 -2.3079 -4.4553  0.8829
  302SOL    HW2  906   2.345   1.671   2.702 -0.5290 -1.2351 -0.6159
  303SOL     OW  907   0.179   2.161   2.593  0.5077 -0.8302  0.0998
  303SOL    HW1  908   0.231   2.245   2.620  2.2686 -1.5022 -2.4299
  303SOL    HW2  909   0.237   2.107   2.526  0.6660 -3.3682 -2.0075
  304SOL     OW  910   2.991   0.870   1.341 -0.3518  0.2802 -0.2708
  304SOL    HW1  911   3.043   0.951   1.303  2.8264 -0.3292 -2.4959
  304SOL    HW2  912   3.055   0.788   1.328 -2.0313 -0.8912 -2.0770
  305SOL     OW  913   2.639   0.790   1.852  0.5237 -0.7470  0.4306
  305SOL    HW1  914   2.558   0.794   1.788  0.9419 -1.5362  1.6889
  305SOL    HW2  915   2.652   0.692   1.885 -1.1406 -0.1887 -1.8140
  306SOL     OW  916   2.487   1.041   1.806 -0.2765  0.4525  0.4120
  306SOL    HW1  917   2.460   1.133   1.774 -1.3805  1.4121 -0.3981
  306SOL    HW2  918   2.572   1.049   1.861  1.4156  0.4728  0.8731
  307SOL     OW  919   2.996   3.039   0.921  0.1691  0.2305  0.0668
  307SOL    HW1  920   2.899   3.018   0.927  0.5186 -1.5998  2.2083
  307SOL    HW2  921   3.045   3.018   1.003 -0.7627 -1.5648  2.1450
  308SOL     OW  922   0.252   1.835   1.793 -0.2366 -1.0048 -0.2101
  308SOL    HW1  923   0.275   1.858   1.887  1.1064 -2.9505 -1.4835
  308SOL    HW2  924   0.227   1.739   1.776 -2.0282  0.3699 -0.1987
  309SOL     OW  925   2.558   2.322   1.480 -0.0062  0.1577 -0.4625
  309SOL    HW1  926   2.628   2.343   1.554  0.2894  2.3786  0.7222
  309SOL    HW2  927   2.461   2.329   1.515 -1.8974 -1.5823  0.4462
  310SOL     OW  928   2.005   1.578   2.747 -0.4549  0.0287 -0.4136
  310SOL    HW1  929   1.914   1.602   2.787 -1.5603  0.5733 -1.7796
  310SOL    HW2  930   2.047   1.502   2.799  0.7975 -1.2873  0.1638
  311SOL     OW  931   1.659   1.209   2.959  0.0294 -0.6873 -0.1831
  311SOL    HW1  932   1.561   1.219   2.977 -2.1308 -1.4570  0.8972
  311SOL    HW2  933   1.676   1.126   2.901 -0.5600  1.9389  2.0804
  312SOL     OW  934   1.239   2.331   2.311  0.2222  0.4936  0.1362
  312SOL    HW1  935   1.298   2.253   2.346 -0.1173 -0.0645  0.2064
  312SOL    HW2  936   1.181   2.374   2.384  0.0334 -1.4001 -0.0780
  313SOL     OW  937   0.149   0.310   0.959 -0.1096  0.3454  0.4044
  313SOL    HW1  938   0.097   0.359   0.888 -2.1395 -0.5704  3.0100
  313SOL    HW2  939   0.097   0.233   0.999 -1.3814 -0.6503 -1.3842
  314SOL     OW  940   0.416   1.847   1.193  0.7764 -0.0904  0.1841
  314SOL    HW1  941   0.397   1.945   1.164  1.0894  0.3143  1.2758
  314SOL    HW2  942   0.333   1.791   1.217 -2.9843 -1.4121 -0.8581
  315SOL     OW  943   0.505   2.014   1.988  0.1283 -0.3066 -0.1337
  315SOL    HW1  944   0.446   2.099   1.980  1.5422 -0.3710  4.2236
  315SOL    HW2  945   0.432   1.943   2.022 -0.8974 -3.1456 -0.7628
  316SOL     OW  946   0.410   2.262   0.820  0.2420  0.7795  0.1549
  316SOL    HW1  947   0.381   2.165   0.838  0.4498  1.6130  2.0502
  316SOL    HW2  948   0.343   2.311   0.766  0.6574 -0.6143  0.6719
  317SOL     OW  949   1.900   0.197   1.143  0.0709 -0.4778  0.2363
  317SOL    HW1  950   1.907   0.132   1.068  0.2304 -0.8194  0.7242
  317SOL    HW2  951   1.825   0.253   1.118  4.5084  1.0768  1.3234
  318SOL     OW  952   2.219   2.247   0.227  0.0089 -0.3417 -0.3542
  318SOL    HW1  953   2.163   2.220   0.149  1.8867  0.1927  1.6980
  318SOL    HW2  954   2.320   2.233   0.204 -0.7081 -1.5017  0.6032
  319SOL     OW  955   1.208   1.722   0.016 -0.4483 -0.6906 -0.0319
  319SOL    HW1  956   1.175   1.819   0.017  2.4660 -0.7710  2.0897
  319SOL    HW2  957   1.284   1.711   3.046  3.3555  2.0288 -4.4981
  320SOL     OW  958   0.201   2.695   2.415 -0.1305  0.4034 -0.1430
  320SOL    HW1  959   0.292   2.670   2.452  0.2728  0.5390  2.5363
  320SOL    HW2  960   0.145   2.612   2.404 -0.2474 -0.0251 -0.5396
  321SOL     OW  961   1.102   2.804   2.578 -0.3574 -0.6361 -0.2166
  321SOL    HW1  962   1.204   2.818   2.592  0.1757  2.6099 -0.3955
  321SOL    HW2  963   1.086   2.739   2.503 -1.0562  1.9585  5.2842
  322SOL     OW  964   2.563   0.347   2.255 -0.0076  0.0860 -0.6991
  322SOL    HW1  965   2.610   0.281   2.315  1.6469 -0.2823  1.8233
  322SOL    HW2  966   2.616   0.434   2.245  0.4209 -2.8694 -1.5558
  323SOL     OW  967   2.886   1.017   0.739  0.1640 -0.4375 -0.2512
  323SOL    HW1  968   2.831   0.936   0.702 -0.1649  0.0767  0.7619
  323SOL    HW2  969   2.986   0.990   0.729  0.1679 -2.2057  1.6156
  324SOL     OW  970   0.308   0.767   1.855  0.4029  0.1041 -0.2466
  324SOL    HW1  971   0.255   0.769   1.768 -0.9868 -3.2200  1.7467
  324SOL    HW2  972   0.291   0.675   1.899 -0.8933  1.3264 -2.0006
  325SOL     OW  973   0.385   0.217   2.313  0.2699 -0.6460  0.3535
  325SOL    HW1  974   0.417   0.269   2.232 -1.8390 -1.1769 -0.9783
  325SOL    HW2  975   0.287   0.237   2.341  1.6286 -0.1835  0.1107
  326SOL     OW  976   2.108   2.516   0.220  0.4357  0.5405  0.2790
  326SOL    HW1  977   2.087   2.567   0.135 -0.8654 -1.4031  1.1468
  326SOL    HW2  978   2.113   2.417   0.206  2.6211 -0.3003  0.6771
  327SOL     OW  979   2.229   1.345   0.746  0.0634 -0.0681  0.2909
  327SOL    HW1  980   2.331   1.338   0.765  0.8522 -1.4200  0.6975
  327SOL    HW2  981   2.196   1.263   0.698 -0.0404 -1.2524 -2.1111
  328SOL     OW  982   3.020   1.675   2.245  0.0772 -0.2880 -0.0084
  328SOL    HW1  983   2.932   1.624   2.274 -1.0320  0.1797  2.2341
  328SOL    HW2  984   3.020   1.772   2.275 -0.5170  0.0115 -1.0976
  329SOL     OW  985   0.521   1.898   1.463  0.1853 -0.3292 -0.2905
  329SOL    HW1  986   0.452   1.868   1.398 -0.7333  0.4040 -0.9130
  329SOL    HW2  987   0.488   1.964   1.532 -1.3712 -0.2416 -0.4572
  330SOL     OW  988   2.182   1.508   2.480 -0.1357  0.1243  0.1579
  330SOL    HW1  989   2.194   1.589   2.539  1.5480 -2.2418 -1.6649
  330SOL    HW2  990   2.266   1.488   2.424 -0.3591  0.8277  0.8365
  331SOL     OW  991   2.428   2.613   0.811  0.3944  0.0571  0.0790
  331SOL    HW1  992   2.353   2.558   0.772  5.2240  0.1626  0.7483
  331SOL    HW2  993   2.461   2.684   0.752  2.2874  0.5528  2.7205
  332SOL     OW  994   0.439   2.969   0.804  0.5669  0.1353 -0.0802
  332SOL    HW1  995   0.365   2.938   0.872 -3.2245  0.8779  1.0453
  332SOL    HW2  996   0.498   2.892   0.779 -1.0432 -1.0629 -0.9948
  333SOL     OW  997   2.198   2.405   2.506 -0.4595 -0.3318 -0.4674
  333SOL    HW1  998   2.287   2.391   2.454  2.9995  0.3692  0.9281
  333SOL    HW2  999   2.116   2.422   2.446 -0.9415 -1.8190  1.0374
  334SOL     OW 1000   0.639   1.156   0.359 -0.9836  0.0003  0.1846
  334SOL    HW1 1001   0.673   1.129   0.448 -2.4085  2.5413  1.6922
  334SOL    HW2 1002   0.597   1.248   0.358  0.9142  1.0321  0.4442
  335SOL     OW 1003   2.911   1.937   1.918 -0.2475 -0.3697  0.1188
  335SOL    HW1 1004   2.886   1.921   2.014 -2.1223  1.8969  0.6855
  335SOL    HW2 1005   2.943   1.855   1.873 -0.3615  0.2451  0.3604
  336SOL     OW 1006   2.611   2.719   2.207 -0.0488 -0.6170 -0.3672
  336SOL    HW1 1007   2.533   2.777   2.185  1.3491  2.2457 -0.0001
  336SOL    HW2 1008   2.613   2.676   2.304  1.0019 -2.6972 -0.1181
  337SOL     OW 1009   0.802   1.064   0.869  0.3767  0.5407 -0.5697
  337SOL    HW1 1010   0.900   1.065   0.899 -0.5449  2.1738  0.8856
  337SOL    HW2 1011   0.770   1.164   0.872  1.8097 -2.7173 -0.0978
  338SOL     OW 1012   1.163   1.812   1.031  0.3752  0.4438 -0.7618
  338SOL    HW1 1013   1.232   1.814   0.954 -1.1801  1.0059 -0.1472
  338SOL    HW2 1014   1.080   1.763   0.999  4.8833 -2.0723 -0.0175
  339SOL     OW 1015   0.301   1.500   1.431  0.2052  0.5304  0.7190
  339SOL    HW1 1016   0.358   1.501   1.511 -2.2284 -1.4710 -1.8768
  339SOL    HW2 1017   0.212   1.452   1.448 -1.6115  1.2488  0.5267
  340SOL     OW 1018   1.088   2.878   1.656  0.3875  0.1635  0.5415
  340SOL    HW1 1019   1.126   2.968   1.621  0.1831 -1.0357  1.7986
  340SOL    HW2 1020   1.021   2.889   1.735  0.4395  0.0601  0.4588
  341SOL     OW 1021   1.637   1.615   1.017 -0.3675 -0.1765 -0.1546
  341SOL    HW1 1022   1.625   1.518   1.039 -1.2355  4.2360  1.3472
  341SOL    HW2 1023   1.549   1.672   1.033 -2.0068  1.0830 -2.0267
  342SOL     OW 1024   2.701   1.400   1.131  0.4287 -0.1115 -0.2820
  342SOL    HW1 1025   2.721   1.303   1.150  1.2568  2.0281 -1.8951
  342SOL    HW2 1026   2.748   1.436   1.046 -0.5564  1.3105 -1.6893
  343SOL     OW 1027   2.622   0.631   1.523 -0.1689 -0.3192  0.3535
  343SOL    HW1 1028   2.532   0.659   1.485 -2.2125  0.2855 -0.7033
  343SOL    HW2 1029   2.692   0.669   1.463 -1.0146 -2.3751  1.3012
  344SOL     OW 1030   1.908   0.080   0.893  0.2123 -0.4817 -0.5928
  344SOL    HW1 1031   1.818   0.123   0.866  0.1358 -3.0638 -0.2057
  344SOL    HW2 1032   1.980   0.101   0.828 -3.1584 -0.4962 -2.1300
  345SOL     OW 1033   0.535   2.883   2.425  0.2214 -0.2920  0.3655
  345SOL    HW1 1034   0.576   2.930   2.505 -2.4735  0.5568 -1.6121
  345SOL    HW2 1035   0.490   2.950   2.361 -3.1013 -1.1689  1.1457
  346SOL     OW 1036   2.756   1.959   0.794 -0.1699 -0.1138 -0.0302
  346SOL    HW1 1037   2.712   2.052   0.780 -2.3978  2.3547 -0.2723
  346SOL    HW2 1038   2.686   1.890   0.826  2.1095  0.8056  2.2457
  347SOL     OW 1039   2.005   0.079   1.832 -0.0988  0.3090  0.0373
  347SOL    HW1 1040   1.918   0.116   1.803  2.6371 -1.0626  0.5920
  347SOL    HW2 1041   2.042   0.024   1.754 -1.0286 -0.4075 -2.0326
  348SOL     OW 1042   0.997   1.187   1.655 -0.2129  0.0836  0.3932
  348SOL    HW1 1043   0.955   1.109   1.705 -1.7215 -3.0636 -0.8533
  348SOL    HW2 1044   0.929   1.262   1.647  0.1828 -2.5160 -0.7611
  349SOL     OW 1045   2.307   0.603   1.830 -0.0560 -0.3912 -0.4911
  349SOL    HW1 1046   2.351   0.621   1.918 -2.4244  1.8885 -1.4401
  349SOL    HW2 1047   2.370   0.553   1.769  1.4584  3.4075 -0.2943
  350SOL     OW 1048   2.196   2.269   0.501  0.2712 -0.0791  0.4691
  350SOL    HW1 1049   2.093   2.286   0.515 -0.6055  0.7398  1.8715
  350SOL    HW2 1050   2.215   2.260   0.399  0.9906 -1.1293 -2.7288
  351SOL     OW 1051   1.103   0.515   2.347  0.3409  0.2157 -0.0110
  351SOL    HW1 1052   1.003   0.526   2.348  3.2076 -1.1302  0.8213
  351SOL    HW2 1053   1.132   0.435   2.288  0.1523 -0.3191 -1.9183
  352SOL     OW 1054   2.349   2.504   1.904 -0.4941  0.1532  0.4415
  352SOL    HW1 1055   2.277   2.487   1.975  2.2976 -0.0169  1.6156
  352SOL    HW2 1056   2.309   2.513   1.809 -1.9230 -1.1606 -1.4647
  353SOL     OW 1057   0.691   0.922   2.469  0.1364  0.1528 -0.6568
  353SOL    HW1 1058   0.642   0.854   2.409  0.5501  0.8255 -0.5197
  353SOL    HW2 1059   0.732   0.879   2.552 -2.1236 -2.0001 -1.5565
  354SOL     OW 1060   0.274   2.454   2.595  0.0613 -0.6677 -0.2052
  354SOL    HW1 1061   0.357   2.515   2.579  0.3075 -1.9853  0.9235
  354SOL    HW2 1062   0.240   2.484   2.687  1.3785  1.0998 -0.3713
  355SOL     OW 1063   1.676   2.762   1.062 -0.0726 -0.3537  0.3671
  355SOL    HW1 1064   1.672   2.860   1.091 -0.1408 -0.8914 -1.9228
  355SOL    HW2 1065   1.673   2.700   1.141  0.0117  1.0181  0.8730
  356SOL     OW 1066   2.591   0.765   0.256 -0.3008  0.0273 -0.2294
  356SOL    HW1 1067   2.669   0.813   0.215  1.3664  1.7833  1.8747
  356SOL    HW2 1068   2.505   0.814   0.237 -2.7093  2.5790  0.0533
  357SOL     OW 1069   0.060   0.147   1.798  0.7757 -0.7570 -0.3376
  357SOL    HW1 1070   0.119   0.178   1.879  0.7493 -0.7511  1.6656
  357SOL    HW2 1071   3.085   0.092   1.833  0.0533  2.6035  1.9633
  358SOL     OW 1072   3.061   1.651   0.855 -0.7688 -0.1362  0.5823
  358SOL    HW1 1073   3.067   1.550   0.866 -0.1917 -0.4421 -0.2825
  358SOL    HW2 1074   3.036   1.675   0.756 -3.0331 -1.7380 -2.5194
  359SOL     OW 1075   2.868   0.144   0.237  0.0215 -0.0966  0.5102
  359SOL    HW1 1076   2.931   0.146   0.154 -0.2719 -0.5008  1.7949
  359SOL    HW2 1077   2.870   0.244   0.274  2.0541 -1.6288 -1.6429
  360SOL     OW 1078   1.265   1.051   1.078 -0.7976  0.3013 -0.1056
  360SOL    HW1 1079   1.339   1.045   1.146  2.4235 -1.1630 -1.5216
  360SOL    HW2 1080   1.187   0.988   1.102 -0.7472  0.2992  3.3448
  361SOL     OW 1081   2.695   2.717   1.359  0.1289 -0.1909 -0.2928
  361SOL    HW1 1082   2.795   2.724   1.389  1.4743 -2.1118  0.5745
  361SOL    HW2 1083   2.669   2.622   1.332 -0.5101 -0.4887  2.2919
  362SOL     OW 1084   1.217   0.314   1.003 -0.0269  0.1819  0.1602
  362SOL    HW1 1085   1.285   0.385   0.988  0.2839  0.7711 -0.6691
  362SOL    HW2 1086   1.224   0.243   0.930 -0.3578  0.8810  0.5213
  363SOL     OW 1087   2.002   1.491   0.727 -0.2414 -0.0797 -0.0865
  363SOL    HW1 1088   2.096   1.441   0.718  1.6457 -0.7190  2.1862
  363SOL    HW2 1089   1.925   1.433   0.702  0.5690  3.2322 -0.4317
  364SOL     OW 1090   0.875   0.667   1.659  0.1637  0.0380 -0.2347
  364SOL    HW1 1091   0.976   0.668   1.669 -1.2218  0.2117 -0.0969
  364SOL    HW2 1092   0.842   0.698   1.569  1.4642  0.8894 -0.9545
  365SOL     OW 1093   0.093   0.051   1.100  0.0875 -0.6578 -0.5562
  365SOL    HW1 1094   0.149   3.073   1.096 -0.7935  0.3522 -1.6825
  365SOL    HW2 1095   0.085   0.077   1.198  0.6546  1.4124 -0.4014
  366SOL     OW 1096   2.844   0.984   0.270 -0.1713 -0.3063 -0.0506
  366SOL    HW1 1097   2.759   0.994   0.329  2.4539 -0.8769  0.7296
  366SOL    HW2 1098   2.892   1.075   0.281  1.3833 -0.9501 -0.8133
  367SOL     OW 1099   2.408   1.962   2.325 -0.3296 -0.3882  0.7168
  367SOL    HW1 1100   2.323   1.903   2.328  0.6770  1.8422  2.3215
  367SOL    HW2 1101   2.384   2.047   2.270 -1.1191  2.6375  0.1156
  368SOL     OW 1102   2.405   1.684   0.932 -0.3402  0.1208  0.1959
  368SOL    HW1 1103   2.485   1.681   0.989  0.3515 -1.4170 -1.2133
  368SOL    HW2 1104   2.336   1.611   0.961 -0.8388 -0.4343 -1.8511
  369SOL     OW 1105   2.257   0.301   2.953 -0.0398  0.3332 -0.0960
  369SOL    HW1 1106   2.203   0.376   2.985 -0.5899 -0.3547  0.9620
  369SOL    HW2 1107   2.235   0.215   3.006  1.3883 -1.8936  0.0162
  370SOL     OW 1108   0.841   0.560   1.004 -0.6346 -0.1002  0.0686
  370SOL    HW1 1109   0.874   0.480   0.949  1.1003  0.3894 -2.3232
  370SOL    HW2 1110   0.844   0.647   0.950 -2.1547 -0.1371  1.9204
  371SOL     OW 1111   3.050   1.513   0.024 -0.1989 -0.0744 -0.2889
  371SOL    HW1 1112   3.002   1.597   3.099  0.9827 -1.2049  2.6621
  371SOL    HW2 1113   0.051   1.528   0.012  0.8962 -0.1769  0.0511
  372SOL     OW 1114   0.589   0.696   2.240 -0.4370  0.5523 -0.0274
  372SOL    HW1 1115   0.598   0.599   2.211  0.6304 -1.9373 -0.1792
  372SOL    HW2 1116   0.489   0.704   2.259 -1.1052 -0.7184  1.3912
  373SOL     OW 1117   1.088   2.908   2.926 -0.0262 -0.5990 -0.0455
  373SOL    HW1 1118   1.088   2.966   3.012  0.9976 -0.6241 -0.6896
  373SOL    HW2 1119   1.078   2.971   2.843 -1.3637  1.0832  0.1415
  374SOL     OW 1120   0.953   1.869   0.265  0.1255 -0.1771 -0.5355
  374SOL    HW1 1121   0.987   1.873   0.171 -0.1249 -2.8348  1.7151
  374SOL    HW2 1122   0.984   1.782   0.301  0.1514  1.0801 -2.9832
  375SOL     OW 1123   1.127   0.758   2.090  0.1334 -0.0062 -0.0506
  375SOL    HW1 1124   1.042   0.811   2.107 -0.8009  1.1664 -0.5560
  375SOL    HW2 1125   1.212   0.784   2.145  1.7698  1.3939 -0.9405
  376SOL     OW 1126   2.991   2.638   1.988 -0.2885 -0.3388  0.3424
  376SOL    HW1 1127   2.934   2.643   2.077 -1.4129 -0.5598  0.1300
  376SOL    HW2 1128   3.088   2.672   2.004  1.3585 -1.7096  0.9099
  377SOL     OW 1129   2.594   1.692   2.996 -0.3924  0.2613  0.3056
  377SOL    HW1 1130   2.532   1.663   2.922  0.9919 -0.6606 -0.7253
  377SOL    HW2 1131   2.572   1.638   3.080 -0.7643  1.1012 -0.4610
  378SOL     OW 1132   2.212   0.058   3.097 -0.2832  0.2650 -0.5411
  378SOL    HW1 1133   2.121   0.034   3.059 -1.6271  1.5023 -0.0376
  378SOL    HW2 1134   2.245   3.072   0.040 -0.1896 -2.8558 -0.3760
  379SOL     OW 1135   1.892   0.716   0.802  0.3743  1.1243 -0.0427
  379SOL    HW1 1136   1.832   0.784   0.851 -0.9626 -0.1763 -0.5516
  379SOL    HW2 1137   1.903   0.626   0.846 -0.8901 -0.9233 -3.4244
  380SOL     OW 1138   2.436   2.203   1.865 -0.0652  0.0203 -0.8552
  380SOL    HW1 1139   2.334   2.224   1.855  0.7697  1.8967 -0.2967
  380SOL    HW2 1140   2.501   2.256   1.811 -2.1501 -0.6068  0.9855
  381SOL     OW 1141   2.427   1.499   2.316  0.4269 -0.1256 -0.8147
  381SOL    HW1 1142   2.473   1.553   2.241  1.0655  1.8031 -0.3512
  381SOL    HW2 1143   2.414   1.403   2.283  0.6174  1.9020  0.6525
  382SOL     OW 1144   2.865   2.685   2.575  0.4802  0.5802  0.2284
  382SOL    HW1 1145   2.868   2.760   2.507 -0.5949  0.6708  0.4768
  382SOL    HW2 1146   2.814   2.712   2.657  2.7251 -2.8473 -2.8189
  383SOL     OW 1147   0.945   1.348   2.923 -0.1422  0.0440  0.1810
  383SOL    HW1 1148   0.880   1.354   3.004  0.4682  1.8286  0.5740
  383SOL    HW2 1149   1.006   1.431   2.911  0.5276  0.3620 -0.3318
  384SOL     OW 1150   1.616   2.087   1.941 -0.1323 -0.1406 -0.8589
  384SOL    HW1 1151   1.637   1.997   1.986  1.8889 -2.6293  1.3451
  384SOL    HW2 1152   1.707   2.138   1.923 -1.3487 -1.4721  0.9434
  385SOL     OW 1153   1.819   2.738   0.661 -0.5263  0.5122 -0.3935
  385SOL    HW1 1154   1.727   2.753   0.704 -0.9705  0.8602 -2.4852
  385SOL    HW2 1155   1.807   2.765   0.564  1.7162  0.8664 -0.6065
  386SOL     OW 1156   1.974   1.239   0.449  0.0125 -0.2937  0.7556
  386SOL    HW1 1157   2.021   1.304   0.389 -0.8696 -0.7829 -2.3657
  386SOL    HW2 1158   1.898   1.292   0.498  0.1832  2.9945  2.0583
  387SOL     OW 1159   2.839   2.040   1.648  0.4057 -0.1225  0.5816
  387SOL    HW1 1160   2.851   2.041   1.746 -2.3259  0.1245 -0.3808
  387SOL    HW2 1161   2.834   2.132   1.606 -0.5136  0.4978  0.0847
  388SOL     OW 1162   0.113   0.839   1.590  0.2082  0.3820  0.1236
  388SOL    HW1 1163   0.119   0.908   1.513 -0.4165 -1.7627  0.9002
  388SOL    HW2 1164   0.095   0.743   1.560 -0.8832 -2.5954  1.3318
  389SOL     OW 1165   2.066   0.482   3.049  0.2207  0.3354 -0.3686
  389SOL    HW1 1166   1.988   0.436   3.006  0.1247  1.5649 -0.3549
  389SOL    HW2 1167   2.034   0.568   3.083 -0.0279 -3.0623 -2.5238
  390SOL     OW 1168   0.784   1.797   2.965 -0.2820  0.1938 -0.0286
  390SOL    HW1 1169   0.745   1.705   2.946 -2.3538  0.5093 -2.0971
  390SOL    HW2 1170   0.715   1.863   3.000  0.2261  1.4736 -0.6564
  391SOL     OW 1171   0.996   2.235   3.041  0.3502  0.7844  0.0898
  391SOL    HW1 1172   1.063   2.297   3.082 -0.5382  1.3045 -2.0858
  391SOL    HW2 1173   0.899   2.234   3.074 -1.5493 -1.1309 -2.9472
  392SOL     OW 1174   0.125   2.381   2.113  0.2984  0.0020  0.4192
  392SOL    HW1 1175   0.130   2.473   2.063  1.3794  1.5553 -0.1923
  392SOL    HW2 1176   0.169   2.390   2.204 -0.0986 -3.6799  1.5407
  393SOL     OW 1177   1.581   2.236   0.361 -0.2914  0.2268  0.3393
  393SOL    HW1 1178   1.615   2.200   0.452  0.5385 -3.3999  1.6161
  393SOL    HW2 1179   1.553   2.161   0.298 -1.8655 -1.5942 -1.4567
  394SOL     OW 1180   0.512   0.287   2.553 -0.8243 -0.1560  0.0018
  394SOL    HW1 1181   0.464   0.256   2.471  0.5315 -0.4613  1.5387
  394SOL    HW2 1182   0.505   0.390   2.565 -0.6494  0.4947  1.5023
  395SOL     OW 1183   0.554   1.228   1.351  0.4362  0.4151  0.6769
  395SOL    HW1 1184   0.548   1.327   1.357 -3.0071 -0.6814 -2.5071
  395SOL    HW2 1185   0.528   1.206   1.253  3.7184 -1.2530 -1.1070
  396SOL     OW 1186   1.846   1.337   2.673  0.3764  0.6061  0.4734
  396SOL    HW1 1187   1.932   1.309   2.619  4.9534  0.3386 -0.8089
  396SOL    HW2 1188   1.871   1.343   2.769 -0.8750 -0.3959 -2.6988
  397SOL     OW 1189   0.587   0.468   0.156  0.3386 -0.4154  0.2423
  397SOL    HW1 1190   0.624   0.548   0.215 -2.8977  2.0086  1.2768
  397SOL    HW2 1191   0.600   0.493   0.058  4.2677 -2.9901 -2.6361
  398SOL     OW 1192   0.869   2.454   2.881  0.3578  0.1480 -0.0345
  398SOL    HW1 1193   0.914   2.541   2.847  0.9202 -0.0329  1.2648
  398SOL    HW2 1194   0.937   2.388   2.913  1.4103  0.3142 -0.1394
  399SOL     OW 1195   1.844   2.241   1.946 -0.2480  0.3470  0.0049
  399SOL    HW1 1196   1.912   2.164   1.964 -0.0505 -3.2688 -0.4282
  399SOL    HW2 1197   1.874   2.300   1.871 -0.4772 -0.8223  1.7825
  400SOL     OW 1198   2.175   1.188   1.494  0.5991 -0.0702 -0.1036
  400SOL    HW1 1199   2.136   1.269   1.546 -0.5218 -1.2174  0.4426
  400SOL    HW2 1200   2.277   1.199   1.496 -1.0761  1.4483 -2.5140
  401SOL     OW 1201   1.347   1.149   0.836 -0.3868 -0.4233  0.1652
  401SOL    HW1 1202   1.426   1.214   0.828  2.5487  0.4864  0.3322
  401SOL    HW2 1203   1.325   1.134   0.931  1.1096  2.2108  0.1607
  402SOL     OW 1204   0.004   3.047   2.353 -0.0629 -0.6371 -0.0427
  402SOL    HW1 1205   0.018   0.016   2.424 -0.9155  0.1040  0.1923
  402SOL    HW2 1206   0.093   3.001   2.328  1.3198 -1.2551 -1.1096
  403SOL     OW 1207   2.589   1.973   1.654  0.2979  0.0122  0.5805
  403SOL    HW1 1208   2.548   2.058   1.675 -0.9844 -3.1642  0.0374
  403SOL    HW2 1209   2.694   1.983   1.635  2.3139 -0.7235 -0.5200
  404SOL     OW 1210   2.046   1.683   1.580 -0.0178  0.2832 -0.3149
  404SOL    HW1 1211   2.128   1.727   1.535  0.1597  0.7018 -0.4527
  404SOL    HW2 1212   1.968   1.692   1.520 -1.5219 -0.8267  2.3495
  405SOL     OW 1213   2.547   0.317   2.616  0.4792  0.1961 -0.1942
  405SOL    HW1 1214   2.598   0.261   2.546  0.1834 -1.3983 -0.8000
  405SOL    HW2 1215   2.606   0.344   2.692 -4.7801 -1.9570  0.4758
  406SOL     OW 1216   0.993   1.541   2.589  0.0354  0.4003  0.2111
  406SOL    HW1 1217   0.949   1.632   2.570 -1.2142  1.0546 -0.6057
  406SOL    HW2 1218   1.050   1.549   2.670 -1.2548  0.2398 -2.8686
  407SOL     OW 1219   1.942   2.361   0.508 -0.4466 -0.2310  0.2595
  407SOL    HW1 1220   1.936   2.433   0.585 -1.1351 -1.1787 -2.3289
  407SOL    HW2 1221   1.904   2.401   0.421  1.0401 -1.8978 -1.3914
  408SOL     OW 1222   0.242   2.780   0.880 -0.1626  0.3932  0.1208
  408SOL    HW1 1223   0.255   2.685   0.843 -0.9411 -2.2926  0.3280
  408SOL    HW2 1224   0.176   2.828   0.822  0.9562 -3.1404 -1.2133
  409SOL     OW 1225   2.233   1.494   1.023 -0.7096  0.0498  0.0223
  409SOL    HW1 1226   2.159   1.555   1.059 -1.8076 -0.8152 -0.4562
  409SOL    HW2 1227   2.197   1.436   0.948  1.4725  0.0937  1.4892
  410SOL     OW 1228   2.198   2.363   2.842 -0.4944  0.2722 -0.2201
  410SOL    HW1 1229   2.282   2.416   2.864  2.1515  3.2978  1.0403
  410SOL    HW2 1230   2.226   2.288   2.782 -2.8468  1.0456  2.8785
  411SOL     OW 1231   0.237   2.933   0.546  0.1205 -0.2332 -0.1844
  411SOL    HW1 1232   0.336   2.964   0.554 -1.0285 -0.1197 -0.3584
  411SOL    HW2 1233   0.189   2.995   0.614  0.4463 -0.0291  4.2920
  412SOL     OW 1234   1.487   2.662   0.311  0.0187 -0.1462 -0.0419
  412SOL    HW1 1235   1.434   2.744   0.283 -0.3009 -0.4699 -1.6300
  412SOL    HW2 1236   1.578   2.689   0.340 -0.8256  0.0773  2.3604
  413SOL     OW 1237   2.038   0.485   2.331  0.3599 -0.0028 -0.8541
  413SOL    HW1 1238   1.996   0.572   2.295  0.3593 -0.1116 -0.1211
  413SOL    HW2 1239   2.055   0.491   2.430  2.2888 -0.7344 -2.7975
  414SOL     OW 1240   0.296   0.729   0.411 -0.0642 -0.6587  0.4645
  414SOL    HW1 1241   0.283   0.636   0.359  0.6448 -3.9892 -3.1533
  414SOL    HW2 1242   0.334   0.727   0.508 -1.3960  0.6513  1.5259
  415SOL     OW 1243   0.116   1.056   1.407 -0.7333  0.1850  0.1625
  415SOL    HW1 1244   0.089   1.085   1.308 -0.3800  5.7017 -3.0248
  415SOL    HW2 1245   0.220   1.053   1.423  0.4627  0.8733 -0.0942
  416SOL     OW 1246   0.358   0.090   0.333  0.2553  0.5673 -0.2086
  416SOL    HW1 1247   0.396   0.149   0.258  2.2499 -0.1132  0.9204
  416SOL    HW2 1248   0.417   0.006   0.346 -0.5054  0.5361 -0.0777
  417SOL     OW 1249   2.009   0.361   0.680 -0.4157 -0.0455 -0.0634
  417SOL    HW1 1250   2.036   0.268   0.693  1.9569  0.9220 -1.1450
  417SOL    HW2 1251   2.020   0.416   0.765 -0.5206  2.9250  0.0742
  418SOL     OW 1252   0.510   0.568   2.587  0.0649 -0.0963 -0.3224
  418SOL    HW1 1253   0.573   0.526   2.656  0.7710 -1.3546  0.2201
  418SOL    HW2 1254   0.448   0.637   2.634 -0.0608 -2.4858 -0.6829
  419SOL     OW 1255   0.290   0.962   0.701  0.2933 -0.0718 -0.0447
  419SOL    HW1 1256   0.323   0.871   0.668 -1.7172 -1.8013  0.1243
  419SOL    HW2 1257   0.352   0.993   0.778 -2.3555 -0.9944  4.0698
  420SOL     OW 1258   2.059   1.692   1.147  0.0555  0.0603 -0.0782
  420SOL    HW1 1259   2.023   1.711   1.242 -2.5844 -1.4640 -0.3393
  420SOL    HW2 1260   2.100   1.778   1.114 -1.7196 -0.6636  1.6659
  421SOL     OW 1261   1.728   2.129   2.666  0.1443 -0.3116 -0.2209
  421SOL    HW1 1262   1.767   2.143   2.759 -0.1189 -0.3138  0.4037
  421SOL    HW2 1263   1.633   2.162   2.658 -0.2389  0.8935 -0.0377
  422SOL     OW 1264   2.954   0.553   0.112  0.2643  0.5850  0.5977
  422SOL    HW1 1265   2.881   0.544   0.044  1.7474  0.2179  1.7966
  422SOL    HW2 1266   2.937   0.490   0.187  1.5348 -1.4273 -1.4023
  423SOL     OW 1267   1.983   1.938   0.807 -0.6772  0.0620 -0.2775
  423SOL    HW1 1268   1.929   1.851   0.789 -1.2735 -1.6886  0.0110
  423SOL    HW2 1269   2.048   1.960   0.731 -1.0217  1.8002 -0.4771
  424SOL     OW 1270   0.380   1.223   1.705 -0.4131  0.0339  0.0876
  424SOL    HW1 1271   0.389   1.320   1.672 -0.6790  1.8957 -1.5234
  424SOL    HW2 1272   0.279   1.196   1.707 -0.7848  0.8767  1.3194
  425SOL     OW 1273   2.524   2.760   1.808 -0.2381 -0.8641  0.2759
  425SOL    HW1 1274   2.558   2.674   1.845 -0.1713  0.1849 -2.0202
  425SOL    HW2 1275   2.512   2.831   1.878  0.1759  0.7084  2.1104
  426SOL     OW 1276   1.764   2.706   0.375  0.2172 -0.7987 -0.3741
  426SOL    HW1 1277   1.849   2.752   0.334 -0.6924 -0.1045 -0.3751
  426SOL    HW2 1278   1.776   2.604   0.380 -1.0310 -0.9175  0.9432
  427SOL     OW 1279   0.134   0.657   2.610  0.8319 -1.0316  0.1736
  427SOL    HW1 1280   0.226   0.700   2.608 -0.0981 -0.6029  1.5049
  427SOL    HW2 1281   0.135   0.582   2.682  0.4101 -0.4485  0.3189
  428SOL     OW 1282   2.078   0.991   2.917 -0.1469 -0.4265  0.0993
  428SOL    HW1 1283   2.008   1.031   2.981  1.9059  0.5213  3.8052
  428SOL    HW2 1284   2.049   1.007   2.822 -0.4224 -0.5214  0.2849
  429SOL     OW 1285   2.974   0.315   0.626 -0.5536 -0.2165  0.1949
  429SOL    HW1 1286   2.953   0.221   0.592  0.2661 -0.0790 -1.4668
  429SOL    HW2 1287   2.928   0.323   0.715 -1.7845 -1.4838 -0.5602
  430SOL     OW 1288   1.070   2.983   2.051  0.6891  0.8188 -0.6788
  430SOL    HW1 1289   0.988   2.967   1.992  0.6083 -3.0822  1.0641
  430SOL    HW2 1290   1.149   2.941   2.006 -3.5946  2.6277  0.4889
  431SOL     OW 1291   0.063   2.048   1.241 -0.3134  0.4260 -0.2358
  431SOL    HW1 1292   0.041   2.031   1.339 -0.5756 -2.5058 -0.0457
  431SOL    HW2 1293   0.003   1.994   1.174  0.4860  0.8023 -1.9622
  432SOL     OW 1294   2.099   2.965   1.635  0.4932 -0.2927 -0.2138
  432SOL    HW1 1295   2.166   2.940   1.561 -2.1753 -0.9996  0.0117
  432SOL    HW2 1296   2.010   2.925   1.608 -1.2637  0.7008  1.3870
  433SOL     OW 1297   1.187   2.294   0.147  0.1176 -0.6020  0.5441
  433SOL    HW1 1298   1.157   2.211   0.197  0.4581  0.6286 -1.3675
  433SOL    HW2 1299   1.286   2.309   0.162  0.4161 -0.9304 -0.7715
  434SOL     OW 1300   2.896   2.455   2.409  0.3815  0.0837 -0.2246
  434SOL    HW1 1301   2.941   2.377   2.455 -1.0239  1.1304 -1.9500
  434SOL    HW2 1302   2.878   2.530   2.479 -0.4920  4.5201  1.0685
  435SOL     OW 1303   0.439   0.704   0.640 -0.2255  0.0184 -0.6093
  435SOL    HW1 1304   0.429   0.622   0.704  0.8409 -2.1077  2.1509
  435SOL    HW2 1305   0.522   0.694   0.583  0.7916  0.9686  1.3984
  436SOL     OW 1306   0.382   2.447   1.862 -0.0295  0.3129  0.0156
  436SOL    HW1 1307   0.295   2.429   1.812 -2.1888  1.2581 -1.0035
  436SOL    HW2 1308   0.449   2.371   1.839  0.1475 -0.0392 -2.1344
  437SOL     OW 1309   1.329   2.023   1.455  0.2680 -0.3271  0.2886
  437SOL    HW1 1310   1.280   2.095   1.399 -0.6730  1.8258 -0.1292
  437SOL    HW2 1311   1.430   2.026   1.443  0.3240  0.9870 -2.1258
  438SOL     OW 1312   0.039   2.240   0.426 -0.2601 -0.0825 -0.1878
  438SOL    HW1 1313   0.069   2.185   0.347 -1.6562  2.5571  1.0860
  438SOL    HW2 1314   0.038   2.183   0.511  0.6822 -1.4962  2.5245
  439SOL     OW 1315   0.458   3.093   1.159 -0.4706  0.5405  0.5344
  439SOL    HW1 1316   0.516   0.017   1.075  1.4987  0.1509  1.7873
  439SOL    HW2 1317   0.413   0.074   1.198 -0.8019 -2.0863  2.0440
  440SOL     OW 1318   2.861   2.646   2.220 -0.1706 -0.0602  0.4107
  440SOL    HW1 1319   2.883   2.588   2.301 -0.0473  2.0137 -0.8220
  440SOL    HW2 1320   2.759   2.659   2.208 -2.9110  3.8571 -0.9713
  441SOL     OW 1321   2.896   0.519   1.622 -0.0253  0.6829  0.3145
  441SOL    HW1 1322   2.896   0.416   1.619 -0.1910 -0.5608 -1.7165
  441SOL    HW2 1323   2.806   0.549   1.585  0.1144 -0.3601 -0.0810
  442SOL     OW 1324   1.798   2.472   0.045 -0.6999 -0.3361 -0.5245
  442SOL    HW1 1325   1.869   2.545   0.028  1.3859  1.5955 -1.3906
  442SOL    HW2 1326   1.705   2.496   0.017  1.3723 -2.6445  1.4191
  443SOL     OW 1327   0.421   0.934   2.917 -0.1693  0.6086 -0.3252
  443SOL    HW1 1328   0.365   0.944   3.002  3.4185  0.0540 -1.0092
  443SOL    HW2 1329   0.468   1.021   2.891 -0.2384  0.3930 -0.6207
  444SOL     OW 1330   1.393   1.679   2.287 -0.3917 -0.0864 -0.2695
  444SOL    HW1 1331   1.489   1.657   2.311  0.5099 -1.6020 -0.4781
  444SOL    HW2 1332   1.388   1.726   2.198  0.8299 -1.9667  1.2472
  445SOL     OW 1333   0.326   2.376   1.086  0.4330  0.0459  0.4228
  445SOL    HW1 1334   0.364   2.468   1.100  0.3842 -1.2844 -0.3439
  445SOL    HW2 1335   0.344   2.341   0.995  0.2283 -0.5530  0.9013
  446SOL     OW 1336   2.642   1.369   1.401 -0.9335 -0.6769 -0.0113
  446SOL    HW1 1337   2.563   1.302   1.420 -1.1516 -3.7400  0.0472
  446SOL    HW2 1338   2.658   1.395   1.304  1.2636  1.8532  3.8474
  447SOL     OW 1339   0.254   0.689   0.031  0.0563  0.4764 -0.2707
  447SOL    HW1 1340   0.219   0.785   0.025 -3.3395  2.3490 -2.3490
  447SOL    HW2 1341   0.179   0.630   3.099 -0.3144  2.6600  0.1860
  448SOL     OW 1342   1.472   2.311   1.918  0.3159 -0.1879  0.4524
  448SOL    HW1 1343   1.415   2.297   1.830  1.3777  0.1749 -0.3403
  448SOL    HW2 1344   1.522   2.225   1.937 -2.9202  4.4250  3.1179
  449SOL     OW 1345   0.858   1.458   0.059  0.0945 -0.5524 -0.3765
  449SOL    HW1 1346   0.853   1.358   0.086  3.3481  2.6815 -0.9027
  449SOL    HW2 1347   0.956   1.485   0.079  0.8069  0.4611  0.5654
  450SOL     OW 1348   0.070   2.057   1.866 -0.2717 -0.0735  0.0144
  450SOL    HW1 1349   0.121   1.972   1.843 -0.3819  1.2378 -2.5684
  450SOL    HW2 1350   3.069   2.039   1.854 -1.9960  1.7154  0.4624
  451SOL     OW 1351   2.763   1.309   2.659  0.6272 -0.5920  0.2827
  451SOL    HW1 1352   2.866   1.302   2.675 -2.4989  0.5241  0.6782
  451SOL    HW2 1353   2.723   1.296   2.751  1.3616 -0.1938 -3.0348
  452SOL     OW 1354   1.476   0.761   1.236 -0.4106  0.2479 -0.3406
  452SOL    HW1 1355   1.414   0.709   1.172 -0.9822 -0.1310  2.0540
  452SOL    HW2 1356   1.521   0.700   1.301  0.6373 -0.0801 -0.2715
  453SOL     OW 1357   1.619   0.962   1.506  0.4857  0.2957  0.0845
  453SOL    HW1 1358   1.532   0.904   1.508  2.4475 -0.6565  2.8794
  453SOL    HW2 1359   1.616   1.043   1.569  1.1911 -0.0062  2.9271
  454SOL     OW 1360   0.094   0.894   0.367  0.5388 -0.4835 -0.3845
  454SOL    HW1 1361   0.182   0.846   0.383 -0.5869  0.2489  2.1881
  454SOL    HW2 1362   0.030   0.850   0.300  1.1244 -1.7989 -2.5340
  455SOL     OW 1363   2.466   2.669   1.071  0.5612 -0.1542 -0.0388
  455SOL    HW1 1364   2.563   2.674   1.092 -0.4468 -1.3304 -1.0809
  455SOL    HW2 1365   2.439   2.650   0.972 -1.5725 -2.4194 -0.5870
  456SOL     OW 1366   0.399   2.634   1.126 -0.1786 -0.1171  0.1575
  456SOL    HW1 1367   0.445   2.622   1.218 -0.1981 -2.6106  0.5066
  456SOL    HW2 1368   0.334   2.712   1.124 -1.0614 -0.5422  0.1444
  457SOL     OW 1369   1.479   3.049   0.713  0.1375  0.3837  0.1023
  457SOL    HW1 1370   1.395   3.091   0.679  0.1789 -1.0179  0.0489
  457SOL    HW2 1371   1.519   2.994   0.638 -0.1017 -0.9607  0.9872
  458SOL     OW 1372   2.602   0.120   1.205 -0.0152  0.1082  0.3832
  458SOL    HW1 1373   2.651   0.034   1.226  1.2444  0.7087  1.8046
  458SOL    HW2 1374   2.644   0.193   1.263 -0.5398  0.4724 -1.3542
  459SOL     OW 1375   2.336   0.618   2.966 -0.4084 -0.5080 -0.3603
  459SOL    HW1 1376   2.254   0.561   2.971 -0.4548 -0.4056 -1.9573
  459SOL    HW2 1377   2.395   0.597   3.047 -1.7978  2.5916  2.0409
  460SOL     OW 1378   2.694   2.671   2.806 -0.2524 -0.1221  0.0436
  460SOL    HW1 1379   2.612   2.705   2.758  1.2314  0.4768 -0.6132
  460SOL    HW2 1380   2.664   2.596   2.870 -0.9667 -4.4798 -1.3775
  461SOL     OW 1381   0.702   2.065   0.209  0.0773  0.3312 -0.6491
  461SOL    HW1 1382   0.767   2.103   0.277  0.5547  1.8528  1.5263
  461SOL    HW2 1383   0.702   1.965   0.205 -0.1135  0.8723  1.8593
  462SOL     OW 1384   2.329   2.197   0.784 -1.0533 -0.0655  0.1890
  462SOL    HW1 1385   2.263   2.157   0.849  0.6120  0.9138 -0.8855
  462SOL    HW2 1386   2.305   2.297   0.772 -0.7590 -0.7526  2.1517
  463SOL     OW 1387   2.850   0.615   0.813 -0.2570  0.2140  0.4068
  463SOL    HW1 1388   2.953   0.633   0.815 -0.3322  0.5208 -2.3629
  463SOL    HW2 1389   2.830   0.512   0.825  0.1220 -0.1191 -0.2180
  464SOL     OW 1390   1.136   2.871   0.497 -1.0322  0.1701 -0.1476
  464SOL    HW1 1391   1.037   2.865   0.487 -1.4908  0.9400  0.2557
  464SOL    HW2 1392   1.184   2.780   0.517  2.1772 -1.1278 -2.0277
  465SOL     OW 1393   2.179   1.129   0.595 -0.3085 -0.5691  0.7512
  465SOL    HW1 1394   2.133   1.044   0.623 -2.3702 -0.3119 -2.0668
  465SOL    HW2 1395   2.115   1.174   0.530 -1.6745 -0.6827  1.2778
  466SOL     OW 1396   2.552   3.075   3.050 -0.4546 -0.6690  0.2035
  466SOL    HW1 1397   2.472   0.029   3.028  2.0901  0.0325  1.3486
  466SOL    HW2 1398   2.586   0.008   0.037 -3.9426  0.6712 -0.1807
  467SOL     OW 1399   1.057   1.106   1.418  0.5661  0.0147 -0.2106
  467SOL    HW1 1400   1.045   1.146   1.514 -1.6775  2.0169  0.4193
  467SOL    HW2 1401   1.103   1.016   1.412  1.5169 -1.6481  2.9844
  468SOL     OW 1402   0.305   0.766   2.241 -0.0646  0.0954 -0.0832
  468SOL    HW1 1403   0.246   0.692   2.209 -0.1609 -0.3591 -0.3627
  468SOL    HW2 1404   0.277   0.811   2.328  1.4544 -0.3073  0.7027
  469SOL     OW 1405   0.568   2.747   2.971  0.0746 -0.2589  0.3351
  469SOL    HW1 1406   0.498   2.675   2.953 -0.8420 -2.6600 -1.3529
  469SOL    HW2 1407   0.623   2.724   3.052 -0.0738  2.3455  1.1573
  470SOL     OW 1408   2.317   1.252   2.733  0.0974 -0.1545  0.1136
  470SOL    HW1 1409   2.347   1.155   2.739  1.9593 -2.2363  1.6405
  470SOL    HW2 1410   2.376   1.308   2.676  0.4129  1.0612 -0.4489
  471SOL     OW 1411   2.694   1.168   2.410 -0.1205  0.3782 -0.1070
  471SOL    HW1 1412   2.768   1.140   2.341  0.8130  2.0393 -2.6882
  471SOL    HW2 1413   2.736   1.221   2.486 -0.0935  0.0018 -1.4653
  472SOL     OW 1414   0.405   2.333   0.297  0.1807 -0.1040 -0.0226
  472SOL    HW1 1415   0.322   2.388   0.314 -0.8454  0.1307  1.2067
  472SOL    HW2 1416   0.485   2.366   0.354  0.8756 -1.7022  0.4901
  473SOL     OW 1417   0.625   0.115   3.042 -0.3215  0.1605  0.5418
  473SOL    HW1 1418   0.579   0.040   2.991 -1.0001  0.0481  0.1557
  473SOL    HW2 1419   0.566   0.143   0.015  0.6534  1.9837 -0.5998
  474SOL     OW 1420   1.657   0.616   2.323  0.8393  0.4604  0.0435
  474SOL    HW1 1421   1.591   0.681   2.287  2.9075 -1.6307  0.2612
  474SOL    HW2 1422   1.624   0.524   2.298  2.1884 -1.2790 -2.5964
  475SOL     OW 1423   0.775   2.572   0.027 -0.2093  0.1229  0.4158
  475SOL    HW1 1424   0.728   2.489   0.064 -2.0836  0.8079 -2.0182
  475SOL    HW2 1425   0.824   2.537   3.046  0.9518 -0.4504 -0.4914
  476SOL     OW 1426   0.422   1.078   0.925 -0.4657 -0.0992  0.0176
  476SOL    HW1 1427   0.510   1.050   0.962 -0.6049 -0.2050 -1.1218
  476SOL    HW2 1428   0.386   1.156   0.983  0.5193  0.0666  0.4077
  477SOL     OW 1429   1.634   2.303   1.247 -0.0702 -0.3380 -0.0087
  477SOL    HW1 1430   1.557   2.343   1.302  1.8015 -2.2078 -0.5081
  477SOL    HW2 1431   1.646   2.362   1.166  2.0253 -0.2924 -1.5739
  478SOL     OW 1432   0.562   1.439   2.262  0.0395 -0.2596 -0.1038
  478SOL    HW1 1433   0.645   1.396   2.219 -1.7730 -0.3684 -1.8504
  478SOL    HW2 1434   0.570   1.541   2.259  1.0459 -2.0514 -0.4568
  479SOL     OW 1435   0.281   2.897   1.200 -0.4484  0.2855  0.3122
  479SOL    HW1 1436   0.263   2.899   1.295  3.0597 -1.8046 -4.0723
  479SOL    HW2 1437   0.350   2.972   1.178  2.1561 -0.2072  0.0062
  480SOL     OW 1438   2.783   2.746   0.435  0.3040 -0.3025 -1.1876
  480SOL    HW1 1439   2.721   2.803   0.377  2.3639  0.0712 -0.9877
  480SOL    HW2 1440   2.873   2.787   0.457 -4.1935 -0.7733  1.4811
  481SOL     OW 1441   0.032   2.851   1.106  0.1547  0.3807 -0.1743
  481SOL    HW1 1442   0.134   2.857   1.119  0.6470  2.8163 -1.5661
  481SOL    HW2 1443   3.080   2.867   1.191  0.7177  1.1114 -2.4395
  482SOL     OW 1444   1.649   2.503   1.973  0.0720  0.1392 -0.6101
  482SOL    HW1 1445   1.585   2.429   1.944  0.8199 -0.5547 -1.1356
  482SOL    HW2 1446   1.647   2.580   1.908 -0.6760  0.5924 -0.1992
  483SOL     OW 1447   0.600   1.521   2.723 -0.2982  0.2773  0.2827
  483SOL    HW1 1448   0.654   1.435   2.728  0.3365  3.3522  0.5682
  483SOL    HW2 1449   0.647   1.594   2.667 -1.7295  0.0807 -1.0405
  484SOL     OW 1450   0.970   1.284   2.430  0.0708 -0.4347 -0.1894
  484SOL    HW1 1451   0.888   1.224   2.426  0.9004 -0.4257  2.0698
  484SOL    HW2 1452   0.953   1.344   2.513  0.5977  2.2695 -1.1349
  485SOL     OW 1453   2.895   0.051   0.487  0.3955 -0.0418 -0.4114
  485SOL    HW1 1454   2.947   3.064   0.508  4.5660  0.1315  2.2161
  485SOL    HW2 1455   2.894   0.067   0.386 -0.9524 -2.6233 -1.5230
  486SOL     OW 1456   1.588   2.773   0.805  0.3924  0.0621 -0.7169
  486SOL    HW1 1457   1.627   2.764   0.897 -0.3001  1.2200 -0.5292
  486SOL    HW2 1458   1.541   2.864   0.793  1.3824 -2.3612 -0.8977
  487SOL     OW 1459   1.016   2.438   0.890 -0.3065  0.1904  0.2516
  487SOL    HW1 1460   0.983   2.343   0.859  0.9407 -0.3973 -2.1739
  487SOL    HW2 1461   0.986   2.509   0.824  0.1838 -0.9268  0.4256
  488SOL     OW 1462   2.133   1.241   0.100  0.2662  0.2851 -0.2614
  488SOL    HW1 1463   2.104   1.320   0.162 -1.8888  0.7532 -1.4828
  488SOL    HW2 1464   2.045   1.198   0.072 -1.4511  0.3781 -0.3801
  489SOL     OW 1465   1.386   2.759   1.082 -0.2057 -0.1822 -0.0541
  489SOL    HW1 1466   1.358   2.787   1.181  0.6867  0.9792  0.0242
  489SOL    HW2 1467   1.485   2.736   1.088  0.1571  1.0590 -0.1802
  490SOL     OW 1468   0.807   1.192   0.131  0.3460  0.3959  0.0499
  490SOL    HW1 1469   0.756   1.123   0.074 -1.3712 -2.2461 -1.3298
  490SOL    HW2 1470   0.758   1.203   0.223  1.4666 -1.3390 -1.3563
  491SOL     OW 1471   1.028   2.949   0.923  0.6341  0.2811 -0.1455
  491SOL    HW1 1472   1.129   2.954   0.935  0.3816  1.1073  0.1560
  491SOL    HW2 1473   0.990   2.869   0.973 -1.8771 -3.7870 -0.7971
  492SOL     OW 1474   1.333   1.370   2.252  0.7741  0.0826  0.4380
  492SOL    HW1 1475   1.320   1.400   2.348 -2.8584 -0.3683 -3.5040
  492SOL    HW2 1476   1.394   1.431   2.197 -1.2979 -2.3016 -0.7612
  493SOL     OW 1477   0.188   2.493   0.315 -0.2314  0.7763 -0.1399
  493SOL    HW1 1478   0.091   2.461   0.293 -0.8396 -2.5316  1.9199
  493SOL    HW2 1479   0.201   2.550   0.399  2.4380  0.0549  2.4957
  494SOL     OW 1480   2.233   1.754   0.120 -0.1953  0.0742  0.4038
  494SOL    HW1 1481   2.301   1.823   0.143 -1.6310  1.7486  0.5531
  494SOL    HW2 1482   2.272   1.665   0.091 -1.4450  1.1091 -0.3804
  495SOL     OW 1483   2.748   1.291   2.933  0.7371 -0.1273  0.3015
  495SOL    HW1 1484   2.852   1.292   2.936  1.1591  0.6868 -2.0835
  495SOL    HW2 1485   2.699   1.236   3.006 -1.1892 -1.5494  0.7477
  496SOL     OW 1486   2.510   0.048   1.780  0.3059 -0.3372 -0.2044
  496SOL    HW1 1487   2.518   0.081   1.874  1.1193 -1.8341 -0.6934
  496SOL    HW2 1488   2.441   0.098   1.725 -0.4784 -1.9597  1.2628
  497SOL     OW 1489   2.655   1.071   0.462 -0.5274 -0.0511  0.3789
  497SOL    HW1 1490   2.693   1.025   0.542 -2.4095  0.2053 -1.1462
  497SOL    HW2 1491   2.552   1.081   0.469 -1.4717 -1.3135 -0.1711
  498SOL     OW 1492   2.928   2.018   2.543 -0.3854 -0.5150 -0.0285
  498SOL    HW1 1493   2.928   1.985   2.639 -0.1471  2.9545 -2.5940
  498SOL    HW2 1494   2.938   2.119   2.549 -0.3998 -0.9942 -0.6126
  499SOL     OW 1495   0.884   2.293   0.301 -0.4540  0.7257 -0.5617
  499SOL    HW1 1496   0.971   2.266   0.258  1.6870  0.9864  1.1274
  499SOL    HW2 1497   0.903   2.382   0.345  0.5926 -2.2224  0.7562
  500SOL     OW 1498   0.870   0.148   2.617 -0.5255  0.0899  0.3107
  500SOL    HW1 1499   0.828   0.213   2.686 -1.2474  1.6467  0.3321
  500SOL    HW2 1500   0.798   0.082   2.592  1.9348 -0.5305  3.1594
  501SOL     OW 1501   1.162   0.040   1.596  0.2902  0.0941  0.2537
  501SOL    HW1 1502   1.237   0.054   1.526 -2.3482 -0.7238  1.0160
  501SOL    HW2 1503   1.144   0.124   1.651 -2.9381  0.5742 -0.1373
  502SOL     OW 1504   3.036   0.292   2.083 -0.6186  0.4671 -0.3534
  502SOL    HW1 1505   0.034   0.306   2.079 -2.6389  0.1570 -1.3301
  502SOL    HW2 1506   2.997   0.380   2.099  1.6273 -1.3899 -0.2556
  503SOL     OW 1507   2.566   1.741   2.227  0.4551 -0.1891 -0.0649
  503SOL    HW1 1508   2.555   1.766   2.126 -0.8884 -0.0325  2.0896
  503SOL    HW2 1509   2.509   1.802   2.288 -3.2673  0.6011  2.1507
  504SOL     OW 1510   1.574   0.638   1.989  0.1318  0.0584  0.6689
  504SOL    HW1 1511   1.522   0.552   1.959  0.5878  1.0422 -1.5041
  504SOL    HW2 1512   1.673   0.624   1.976  2.1720 -0.9809 -1.5171
  505SOL     OW 1513   2.798   1.067   1.421  0.4662  0.3632  0.1084
  505SOL    HW1 1514   2.852   1.140   1.465  1.9359  1.0472  3.0754
  505SOL    HW2 1515   2.863   0.992   1.390  3.6260 -2.6873 -1.6107
  506SOL     OW 1516   0.417   1.259   2.397 -0.0521  0.0384  0.2358
  506SOL    HW1 1517   0.344   1.237   2.334  1.6170  0.3948 -0.1366
  506SOL    HW2 1518   0.475   1.330   2.348 -0.2619 -3.6473 -3.4052
  507SOL     OW 1519   0.219   2.922   2.291  0.1769  0.2601 -0.0867
  507SOL    HW1 1520   0.316   2.953   2.282 -1.3433 -1.3265 -2.3466
  507SOL    HW2 1521   0.204   2.829   2.322 -3.3185  0.7655 -2.0500
  508SOL     OW 1522   1.179   0.865   1.371 -0.0024  0.4289 -0.5243
  508SOL    HW1 1523   1.256   0.867   1.442  2.0742  2.6154  0.0406
  508SOL    HW2 1524   1.167   0.775   1.333 -0.6582  1.1269  2.2560
  509SOL     OW 1525   0.951   1.770   1.434 -0.0684  0.5866 -0.1100
  509SOL    HW1 1526   0.947   1.790   1.534 -0.6648 -1.8772 -1.2532
  509SOL    HW2 1527   1.040   1.797   1.389  3.5496  1.4525 -0.6830
  510SOL     OW 1528   2.629   0.929   2.547 -0.1645  0.4889  0.3268
  510SOL    HW1 1529   2.622   0.924   2.653  1.2462 -1.9417  3.6665
  510SOL    HW2 1530   2.617   1.023   2.506 -3.1488  1.5164 -3.2425
  511SOL     OW 1531   0.468   1.504   1.233 -0.3572 -0.3058 -0.4189
  511SOL    HW1 1532   0.382   1.513   1.287 -0.6762 -0.4075  0.7621
  511SOL    HW2 1533   0.470   1.569   1.159 -1.1037 -1.4712 -1.5036
  512SOL     OW 1534   2.603   2.194   0.768  0.0145  0.1699 -0.8157
  512SOL    HW1 1535   2.620   2.262   0.696 -3.8132 -2.2535  0.9792
  512SOL    HW2 1536   2.504   2.186   0.778  0.1367  2.0258  2.7377
  513SOL     OW 1537   3.021   1.302   2.938 -0.1283 -0.0914 -0.3160
  513SOL    HW1 1538   3.078   1.216   2.948  1.7408  1.9293 -1.5785
  513SOL    HW2 1539   3.055   1.376   3.005 -0.0219 -0.0114  1.8203
  514SOL     OW 1540   0.303   2.034   3.038 -0.2718  0.2286 -0.0888
  514SOL    HW1 1541   0.221   2.044   2.980 -2.6404  0.4173 -0.5532
  514SOL    HW2 1542   0.343   2.123   3.071  1.9079  3.4445  2.1302
  515SOL     OW 1543   1.730   1.465   2.119  0.2151  0.5205  0.0452
  515SOL    HW1 1544   1.802   1.390   2.137 -0.5791  1.0351  1.2683
  515SOL    HW2 1545   1.706   1.503   2.209 -0.8557  1.1860 -1.2205
  516SOL     OW 1546   2.156   2.176   3.070 -0.1050 -0.1127  0.2779
  516SOL    HW1 1547   2.186   2.256   3.018 -0.8134 -0.7114 -2.0468
  516SOL    HW2 1548   2.209   2.091   3.043 -0.9752 -0.6844 -0.9737
  517SOL     OW 1549   1.527   1.148   0.223  0.1635 -0.3820  0.0732
  517SOL    HW1 1550   1.522   1.097   0.308 -0.9194  2.1634  0.4005
  517SOL    HW2 1551   1.509   1.095   0.135 -0.4311  3.4126  1.1507
  518SOL     OW 1552   2.221   2.881   1.855  0.1519  0.0745  0.3952
  518SOL    HW1 1553   2.245   2.792   1.810  1.8602  0.1525  3.2629
  518SOL    HW2 1554   2.174   2.942   1.785 -1.7556  1.1079 -3.7160
  519SOL     OW 1555   1.652   2.466   1.665  0.2254  0.6379  0.2752
  519SOL    HW1 1556   1.608   2.378   1.638  1.3864  2.0827 -1.0808
  519SOL    HW2 1557   1.572   2.534   1.663 -1.2786 -0.2344 -0.3771
  520SOL     OW 1558   2.453   2.723   2.688  0.3791  0.6902 -0.2362
  520SOL    HW1 1559   2.418   2.814   2.717  2.1265 -2.0622  0.6576
  520SOL    HW2 1560   2.368   2.665   2.681  0.3207 -1.9314  0.6476
  521SOL     OW 1561   0.149   1.130   1.951 -0.0750 -0.4953 -0.3712
  521SOL    HW1 1562   0.071   1.163   2.011 -1.1871 -0.4736  0.9173
  521SOL    HW2 1563   0.189   1.050   1.995 -1.8643 -0.0695 -1.2791
  522SOL     OW 1564   0.996   0.347   1.845  0.0166 -0.3648  0.1491
  522SOL    HW1 1565   0.939   0.306   1.920  0.0764  1.1956  0.7104
  522SOL    HW2 1566   0.943   0.360   1.758 -2.2914 -0.7162  3.0240
  523SOL     OW 1567   0.654   2.335   0.888 -0.0860 -0.0141  0.0166
  523SOL    HW1 1568   0.725   2.305   0.821 -2.1474  2.3857 -0.4620
  523SOL    HW2 1569   0.556   2.311   0.864  0.4481 -0.1897  1.1063
  524SOL     OW 1570   1.517   2.593   0.605 -0.3607 -0.1336  0.3416
  524SOL    HW1 1571   1.596   2.626   0.663 -0.1532 -1.2324 -0.9925
  524SOL    HW2 1572   1.516   2.491   0.609  1.6773  0.1578 -1.4924
  525SOL     OW 1573   2.261   0.756   1.259 -0.0492 -0.4001 -0.1830
  525SOL    HW1 1574   2.311   0.740   1.349  1.9359 -1.4093  2.7512
  525SOL    HW2 1575   2.283   0.844   1.222  0.1009 -1.6351 -2.2532
  526SOL     OW 1576   0.975   2.619   0.673 -0.2920  0.5207 -0.2523
  526SOL    HW1 1577   0.972   2.723   0.684  0.3941  3.9280 -3.5943
  526SOL    HW2 1578   1.073   2.593   0.661  1.8363 -0.9332  0.2318
  527SOL     OW 1579   2.451   2.167   0.460 -0.4669  0.1128  0.0894
  527SOL    HW1 1580   2.497   2.094   0.518 -2.0380 -0.2824 -4.1538
  527SOL    HW2 1581   2.367   2.204   0.512 -0.9653  1.0879 -1.5280
  528SOL     OW 1582   2.295   0.686   0.394 -0.8234 -0.1006  0.0932
  528SOL    HW1 1583   2.267   0.761   0.330 -0.1872 -2.9770 -0.2335
  528SOL    HW2 1584   2.214   0.651   0.444  1.0814  1.6180  1.0603
  529SOL     OW 1585   1.093   1.300   2.159 -0.0386 -0.0916 -0.2753
  529SOL    HW1 1586   1.040   1.306   2.243  1.5610 -0.2279  0.9308
  529SOL    HW2 1587   1.193   1.323   2.184  0.2426  1.6494  0.6021
  530SOL     OW 1588   2.509   0.565   0.071  0.0007 -0.1041  0.0949
  530SOL    HW1 1589   2.587   0.538   0.009  2.2744 -1.5013  0.1101
  530SOL    HW2 1590   2.542   0.635   0.141  0.6601  0.8650  2.7175
  531SOL     OW 1591   1.033   1.046   0.210 -0.4036  0.0984  0.4670
  531SOL    HW1 1592   0.946   1.083   0.162 -0.9880  1.8553 -2.1052
  531SOL    HW2 1593   1.097   1.002   0.150 -1.5648  0.9633  0.0861
  532SOL     OW 1594   1.761   0.302   0.587 -0.0203 -0.2803 -0.4960
  532SOL    HW1 1595   1.844   0.325   0.642 -0.4327  1.7305  3.0902
  532SOL    HW2 1596   1.708   0.384   0.564 -0.0500 -0.7369 -1.9219
  533SOL     OW 1597   1.430   1.142   2.097 -0.0202  0.4218 -0.1293
  533SOL    HW1 1598   1.377   1.218   2.145 -0.3354  2.3618  2.3094
  533SOL    HW2 1599   1.381   1.082   2.030  0.5020  1.1668  2.8106
  534SOL     OW 1600   2.076   0.207   2.681  0.1418  0.2548  0.2419
  534SOL    HW1 1601   2.066   0.293   2.622  0.3360  0.3793 -0.9329
  534SOL    HW2 1602   2.170   0.193   2.714 -3.9774 -0.3949 -0.3650
  535SOL     OW 1603   0.547   3.010   0.348  0.5211  0.1081 -0.1439
  535SOL    HW1 1604   0.624   3.076   0.350 -1.4962  0.7538 -0.1470
  535SOL    HW2 1605   0.576   2.916   0.323  2.1911  1.8266 -0.9779
  536SOL     OW 1606   0.925   2.733   1.042 -0.3310  0.2759  0.2724
  536SOL    HW1 1607   0.854   2.680   0.992  0.3321  0.2244 -0.3392
  536SOL    HW2 1608   0.953   2.674   1.124 -1.6435  1.3378 -0.4264
  537SOL     OW 1609   1.535   1.029   1.205 -0.0952  0.2157 -0.5050
  537SOL    HW1 1610   1.524   0.923   1.209 -1.5208 -1.5254  2.4711
  537SOL    HW2 1611   1.511   1.070   1.295  0.1241  2.0296 -1.1701
  538SOL     OW 1612   2.513   2.510   0.265  0.1500  0.5263  0.2912
  538SOL    HW1 1613   2.602   2.480   0.300  0.6836  1.4341 -1.6093
  538SOL    HW2 1614   2.430   2.490   0.324  0.0955 -0.5031  2.2514
  539SOL     OW 1615   2.793   2.061   3.068 -0.0277  0.5143  0.1911
  539SOL    HW1 1616   2.695   2.050   3.043 -0.0708 -0.3121 -0.4968
  539SOL    HW2 1617   2.811   2.007   0.053 -1.6942 -1.5248  1.9038
  540SOL     OW 1618   0.307   2.680   1.500  0.1954  0.2093  0.3708
  540SOL    HW1 1619   0.223   2.634   1.470 -0.5221  1.2078 -2.5692
  540SOL    HW2 1620   0.291   2.780   1.513  0.0814  0.6648 -1.6857
  541SOL     OW 1621   2.437   2.962   2.012  0.3554 -0.3474 -0.1800
  541SOL    HW1 1622   2.385   2.999   2.093 -0.3173 -1.3722 -0.2293
  541SOL    HW2 1623   2.362   2.937   1.947  1.1213 -3.4995  2.7153
  542SOL     OW 1624   2.841   0.497   2.310  0.4001  0.8552  0.3285
  542SOL    HW1 1625   2.822   0.585   2.349 -1.9152 -1.4256  0.9394
  542SOL    HW2 1626   2.890   0.499   2.220 -1.8236 -0.8182  0.2317
  543SOL     OW 1627   1.009   0.348   0.585  0.1678 -0.0447 -0.5029
  543SOL    HW1 1628   1.107   0.389   0.589  0.5547  3.0942 -2.7733
  543SOL    HW2 1629   1.015   0.258   0.535  4.0361 -4.3199 -2.4190
  544SOL     OW 1630   2.927   2.363   1.024  0.9348  0.4519 -0.3120
  544SOL    HW1 1631   3.001   2.330   0.959 -0.2124  0.2682 -2.6327
  544SOL    HW2 1632   2.827   2.329   1.020 -0.1429 -0.1264  0.7266
  545SOL     OW 1633   0.922   2.021   0.599 -0.0778  0.1727 -0.6027
  545SOL    HW1 1634   0.847   1.954   0.566 -1.7477  1.6202 -1.1978
  545SOL    HW2 1635   1.008   1.966   0.614  0.7329 -0.0028  0.8263
  546SOL     OW 1636   2.211   0.238   1.898  0.2945  0.3178 -0.3098
  546SOL    HW1 1637   2.134   0.174   1.876  1.0808  1.8126 -0.9729
  546SOL    HW2 1638   2.177   0.304   1.968  1.7366  1.1581  0.5474
  547SOL     OW 1639   0.138   0.300   2.384  0.0859 -0.2206  0.4030
  547SOL    HW1 1640   0.099   0.392   2.411 -1.8499  2.3934  0.2691
  547SOL    HW2 1641   0.098   0.232   2.447 -0.9168  3.0645  0.8637
  548SOL     OW 1642   2.166   1.830   2.287 -0.8623  0.0592 -0.3125
  548SOL    HW1 1643   2.113   1.747   2.273  0.1612 -0.7051  1.2465
  548SOL    HW2 1644   2.110   1.901   2.328  3.7781 -1.4097 -1.3481
  549SOL     OW 1645   0.044   0.696   0.806  0.6788 -0.4368 -0.3335
  549SOL    HW1 1646   0.038   0.772   0.738 -1.5886 -1.2669  2.7217
  549SOL    HW2 1647   0.086   0.727   0.893 -0.4456 -1.1166 -1.2275
  550SOL     OW 1648   1.549   1.308   0.604  0.2415  0.1669  0.0208
  550SOL    HW1 1649   1.449   1.322   0.580 -0.4926 -2.2829 -1.0092
  550SOL    HW2 1650   1.613   1.374   0.560  1.8140 -0.2513  0.9532
  551SOL     OW 1651   1.201   0.193   1.244 -0.6167  0.6558 -0.0886
  551SOL    HW1 1652   1.145   0.110   1.268 -1.4069 -2.6130  1.3644
  551SOL    HW2 1653   1.181   0.222   1.145 -0.2995  2.6096 -1.2178
  552SOL     OW 1654   2.592   2.537   1.968 -0.3529  0.1719 -0.2206
  552SOL    HW1 1655   2.491   2.529   1.954 -1.0690  0.8535 -0.2939
  552SOL    HW2 1656   2.605   2.582   2.061 -0.4833  1.3780  1.6056
  553SOL     OW 1657   3.010   3.073   2.883 -0.1843 -0.3736  0.3657
  553SOL    HW1 1658   2.949   2.996   2.905 -1.2221 -1.4565 -0.7429
  553SOL    HW2 1659   3.098   3.038   2.845 -1.6353  0.0007  0.2611
  554SOL     OW 1660   1.161   2.666   1.482 -0.2398 -0.1070 -0.3358
  554SOL    HW1 1661   1.157   2.573   1.519  1.6478 -3.0388 -0.0475
  554SOL    HW2 1662   1.137   2.739   1.548 -1.2648 -0.4915 -0.7967
  555SOL     OW 1663   2.461   2.723   1.550  0.8867 -0.0913  0.4007
  555SOL    HW1 1664   2.482   2.726   1.654  1.6311  1.8173  1.2018
  555SOL    HW2 1665   2.545   2.719   1.494  0.0556 -0.1707 -0.9944
  556SOL     OW 1666   1.078   0.327   2.937 -0.1658  0.0272 -1.1044
  556SOL    HW1 1667   1.134   0.282   2.861  0.3019 -1.5951  0.7472
  556SOL    HW2 1668   1.110   0.282   3.022  0.0488  0.3573 -1.8280
  557SOL     OW 1669   0.187   1.800   2.362  0.0060  0.6112 -0.1176
  557SOL    HW1 1670   0.214   1.713   2.318 -0.7407  2.9311  2.1241
  557SOL    HW2 1671   0.087   1.817   2.353  0.1446  1.4277  2.0349
  558SOL     OW 1672   2.067   1.270   2.578 -0.5966 -0.0346  0.4840
  558SOL    HW1 1673   2.126   1.243   2.655  0.1820 -0.4151 -1.6379
  558SOL    HW2 1674   2.111   1.347   2.532 -2.7869  0.8251 -0.2214
  559SOL     OW 1675   2.343   2.198   2.159  0.4538 -0.4627  0.2707
  559SOL    HW1 1676   2.426   2.157   2.116 -2.7069  2.1760 -0.6201
  559SOL    HW2 1677   2.276   2.238   2.087 -1.7187  0.8826  0.1882
  560SOL     OW 1678   0.048   0.566   2.380 -0.1366  0.1232 -0.0090
  560SOL    HW1 1679   0.087   0.600   2.467 -1.9298 -0.4723  0.0477
  560SOL    HW2 1680   3.095   0.642   2.339 -0.9460  0.6077 -2.5542
  561SOL     OW 1681   0.794   0.372   0.383  0.5995 -0.6066 -0.1019
  561SOL    HW1 1682   0.858   0.367   0.457 -0.3249  1.6893  0.8504
  561SOL    HW2 1683   0.730   0.451   0.380 -0.7232  0.0392 -3.4241
  562SOL     OW 1684   0.818   1.379   1.635 -0.1701  0.2799  0.1705
  562SOL    HW1 1685   0.740   1.407   1.574 -0.5795  0.5178  1.3778
  562SOL    HW2 1686   0.794   1.392   1.737  0.7561 -1.5501  2.6298
  563SOL     OW 1687   1.432   2.798   0.039  0.5609 -0.5319 -0.4085
  563SOL    HW1 1688   1.352   2.832   0.099 -2.4574  0.9237  1.6502
  563SOL    HW2 1689   1.401   2.815   3.039  1.1938 -1.8755 -1.3426
  564SOL     OW 1690   0.038   2.058   0.636  0.3195  0.6867  0.4672
  564SOL    HW1 1691   0.114   1.998   0.596 -2.3121  1.2024  0.3822
  564SOL    HW2 1692   0.067   2.084   0.731 -0.9507  0.1915  0.9274
  565SOL     OW 1693   0.523   2.253   2.272 -0.3466 -0.6022 -0.3283
  565SOL    HW1 1694   0.535   2.202   2.183  0.0521  4.4571 -2.8909
  565SOL    HW2 1695   0.588   2.333   2.276  2.6719  0.7549 -0.0591
  566SOL     OW 1696   1.373   2.695   2.279  0.0066 -0.7627 -0.4567
  566SOL    HW1 1697   1.439   2.659   2.347 -1.3134  0.5267  1.3787
  566SOL    HW2 1698   1.363   2.629   2.202 -0.0805  2.4748 -1.5828
  567SOL     OW 1699   2.139   1.966   1.150 -0.0583  0.0554 -0.2229
  567SOL    HW1 1700   2.111   2.028   1.076 -0.5111  0.6171 -0.7354
  567SOL    HW2 1701   2.114   2.001   1.243  0.5814 -2.0137 -0.4797
  568SOL     OW 1702   2.162   0.850   0.214  0.1056  0.1687 -0.4161
  568SOL    HW1 1703   2.125   0.826   0.122 -3.7174  0.8897  2.4847
  568SOL    HW2 1704   2.083   0.866   0.284  0.4760 -0.6163  1.0945
  569SOL     OW 1705   3.044   1.045   2.667  0.3908  0.4596 -0.5150
  569SOL    HW1 1706   3.013   1.143   2.664 -0.3118  1.2779 -2.1254
  569SOL    HW2 1707   3.097   1.038   2.753  0.2469 -2.3263 -0.0459
  570SOL     OW 1708   3.018   2.908   1.349  0.0276 -0.5480  0.2344
  570SOL    HW1 1709   2.965   2.988   1.381  2.7861  0.0363  1.5776
  570SOL    HW2 1710   2.976   2.823   1.390 -0.8969  1.2728  1.0341
  571SOL     OW 1711   0.237   0.460   1.769 -0.4226 -0.2314 -0.4819
  571SOL    HW1 1712   0.273   0.387   1.831  0.5703  1.2203  0.6534
  571SOL    HW2 1713   0.297   0.485   1.692  1.3066 -3.6734 -1.0083
  572SOL     OW 1714   3.088   2.322   0.814 -0.3457 -0.3318 -0.0746
  572SOL    HW1 1715   0.060   2.371   0.767 -0.5312  0.0522  0.5727
  572SOL    HW2 1716   0.026   2.233   0.847 -0.6866 -0.4062  1.0285
  573SOL     OW 1717   0.647   0.759   3.097 -0.5783  0.4324 -0.4856
  573SOL    HW1 1718   0.574   0.708   3.050 -0.8124 -0.6365  2.0277
  573SOL    HW2 1719   0.639   0.750   0.096  1.3363 -0.4914 -1.8369
  574SOL     OW 1720   2.575   2.550   0.024  0.3495  0.9492 -0.2327
  574SOL    HW1 1721   2.627   2.633   0.012  1.9132 -3.9281 -2.2834
  574SOL    HW2 1722   2.559   2.534   0.124  1.1652  0.2753 -0.3208
  575SOL     OW 1723   1.221   1.798   1.297 -0.1678  0.0682 -0.1091
  575SOL    HW1 1724   1.203   1.823   1.203  2.1890 -0.2606  2.7176
  575SOL    HW2 1725   1.256   1.877   1.353 -1.8412  0.1303  2.2345
  576SOL     OW 1726   0.178   2.938   1.490 -0.3773  0.0995 -0.1694
  576SOL    HW1 1727   0.202   3.040   1.504  0.7290  4.5339  1.4612
  576SOL    HW2 1728   0.093   2.925   1.435  0.1028  1.2775 -1.5337
  577SOL     OW 1729   2.046   1.404   1.594 -0.7725 -0.1235  0.4246
  577SOL    HW1 1730   2.054   1.505   1.597  0.6397 -2.2476  0.2377
  577SOL    HW2 1731   1.957   1.388   1.559  2.4020  1.9111  2.9320
  578SOL     OW 1732   1.442   0.032   0.134 -0.2538 -0.3624  0.2961
  578SOL    HW1 1733   1.421   0.039   0.034  0.5913  0.5196  3.0769
  578SOL    HW2 1734   1.537   0.073   0.152  0.3879  0.5167  1.3366
  579SOL     OW 1735   2.803   1.576   2.578 -0.1741  0.5733  0.5781
  579SOL    HW1 1736   2.804   1.493   2.636  1.7359  3.6811 -1.9853
  579SOL    HW2 1737   2.805   1.547   2.481 -0.9599  1.5779  2.0513
  580SOL     OW 1738   1.385   0.792   1.583 -0.0963 -0.0552 -0.4157
  580SOL    HW1 1739   1.388   0.827   1.683  1.2220 -1.7878  1.9542
  580SOL    HW2 1740   1.436   0.704   1.568  1.3543  1.9278 -1.5485
  581SOL     OW 1741   0.723   1.514   1.349  0.3565  0.4430  1.2109
  581SOL    HW1 1742   0.634   1.516   1.301  1.2785 -1.1978  0.5247
  581SOL    HW2 1743   0.733   1.578   1.424  0.7513  1.8490  1.1972
  582SOL     OW 1744   2.947   3.081   1.860  0.2955 -0.5299 -0.3014
  582SOL    HW1 1745   2.950   0.003   1.961  1.8124 -0.1151  1.0912
  582SOL    HW2 1746   2.851   3.089   1.825 -1.4794 -2.8113  0.8951
  583SOL     OW 1747   2.193   0.832   1.693 -0.6924  0.1009 -0.2857
  583SOL    HW1 1748   2.194   0.737   1.733  1.2661  2.4008  1.1153
  583SOL    HW2 1749   2.233   0.899   1.760 -0.5211  2.5390  0.8012
  584SOL     OW 1750   1.447   2.182   3.000  0.2332  0.2558 -0.3884
  584SOL    HW1 1751   1.418   2.098   2.955  2.1024  1.1144  0.0630
  584SOL    HW2 1752   1.380   2.258   2.979 -0.0995  0.9079  1.1269
  585SOL     OW 1753   0.620   2.752   0.247 -0.0539  0.3144  0.2810
  585SOL    HW1 1754   0.525   2.724   0.227  1.1052  0.3027  2.6578
  585SOL    HW2 1755   0.686   2.706   0.189 -1.5745 -0.4009  4.0005
  586SOL     OW 1756   1.797   2.609   2.527  0.0025  0.3942  0.2016
  586SOL    HW1 1757   1.767   2.565   2.617 -1.9420  0.9116  0.7649
  586SOL    HW2 1758   1.871   2.556   2.472  2.0326  1.0840 -0.0266
  587SOL     OW 1759   2.608   1.633   0.576 -0.1151 -0.5294 -0.6708
  587SOL    HW1 1760   2.596   1.656   0.477  0.2398 -0.1564  1.7594
  587SOL    HW2 1761   2.552   1.692   0.638 -1.0920  3.6754  1.0641
  588SOL     OW 1762   2.106   0.334   1.275 -0.0232 -0.3249 -0.1234
  588SOL    HW1 1763   2.036   0.266   1.237 -0.7375 -1.0507 -1.4132
  588SOL    HW2 1764   2.200   0.322   1.235 -2.5200 -0.6509  0.2915
  589SOL     OW 1765   1.076   0.707   0.520 -0.2352 -0.2709 -0.3728
  589SOL    HW1 1766   1.139   0.651   0.572 -0.9191 -0.2870  0.5667
  589SOL    HW2 1767   1.055   0.668   0.430 -0.8142 -1.9607  2.2717
  590SOL     OW 1768   2.441   1.931   0.148  0.1555 -0.2094 -0.3866
  590SOL    HW1 1769   2.464   1.950   0.053 -1.9862 -0.6627  0.6417
  590SOL    HW2 1770   2.489   1.989   0.214 -0.9040 -0.1392  2.7319
  591SOL     OW 1771   0.033   2.543   1.494 -0.2170 -0.0274  0.1866
  591SOL    HW1 1772   0.034   2.493   1.405 -0.2445  2.1110  2.0572
  591SOL    HW2 1773   0.083   2.493   1.567  2.0156  4.0210 -1.5351
  592SOL     OW 1774   0.791   1.057   1.339 -0.9572 -0.0635 -0.1313
  592SOL    HW1 1775   0.723   1.130   1.359 -1.2670 -2.1766  0.5511
  592SOL    HW2 1776   0.887   1.088   1.359 -3.2870 -1.4616  0.2049
  593SOL     OW 1777   0.898   1.475   1.123  0.7483  0.6415  0.2139
  593SOL    HW1 1778   0.982   1.420   1.148 -0.2550 -0.0252  1.5700
  593SOL    HW2 1779   0.836   1.494   1.200  0.4154 -2.5106  0.0715
  594SOL     OW 1780   0.570   1.982   3.039  0.0427 -0.0676  0.1213
  594SOL    HW1 1781   0.469   1.987   3.045  3.2662  0.8047  2.0613
  594SOL    HW2 1782   0.602   2.029   0.023 -0.1857 -0.0007  1.4035
  595SOL     OW 1783   1.461   0.290   1.279 -0.1402  0.3461  0.2964
  595SOL    HW1 1784   1.369   0.242   1.265  0.1456  0.1104 -1.1509
  595SOL    HW2 1785   1.504   0.260   1.365 -3.6741  0.2747 -0.9604
  596SOL     OW 1786   3.070   1.389   0.892  0.1118  0.0260  0.9622
  596SOL    HW1 1787   3.022   1.304   0.922  0.1159 -1.1869 -3.4354
  596SOL    HW2 1788   0.025   1.370   0.812  1.2366  0.2932  4.4186
  597SOL     OW 1789   0.184   2.583   2.836 -0.2104  0.0053  0.2995
  597SOL    HW1 1790   0.084   2.560   2.825  0.4173  0.4890 -2.4872
  597SOL    HW2 1791   0.197   2.674   2.886  1.7227 -0.2670  0.4782
  598SOL     OW 1792   2.571   2.034   2.008 -0.6354  0.3581 -0.0852
  598SOL    HW1 1793   2.650   2.071   2.066  0.6049  1.0590 -0.2292
  598SOL    HW2 1794   2.543   2.107   1.944 -1.3166  1.0926  0.4614
  599SOL     OW 1795   1.047   0.394   0.240 -0.3709  0.1442  0.2969
  599SOL    HW1 1796   1.060   0.490   0.237  0.5921 -0.2768  0.9642
  599SOL    HW2 1797   0.949   0.373   0.258  2.3682 -0.5952  1.0919
  600SOL     OW 1798   0.568   2.686   0.521  0.4499  0.0983  0.1965
  600SOL    HW1 1799   0.595   2.738   0.438 -2.4143 -0.9436  1.4743
  600SOL    HW2 1800   0.602   2.589   0.502  1.0813  0.7660 -2.4718
  601SOL     OW 1801   0.467   0.819   1.175  0.1106  0.2298 -0.1740
  601SOL    HW1 1802   0.537   0.872   1.123 -1.9271 -0.2442  2.3196
  601SOL    HW2 1803   0.421   0.757   1.111 -2.3459 -1.3484 -1.1765
  602SOL     OW 1804   0.629   2.597   0.943  0.2781 -0.4473  0.9287
  602SOL    HW1 1805   0.636   2.502   0.907 -1.7582  4.8076  0.6891
  602SOL    HW2 1806   0.543   2.605   1.002 -0.0036 -0.2913  1.7149
  603SOL     OW 1807   0.951   3.013   2.281 -0.0747  0.1859  0.1582
  603SOL    HW1 1808   0.963   2.941   2.353 -2.5208  2.9056  0.4550
  603SOL    HW2 1809   1.021   3.008   2.205  1.1637 -0.2248 -1.3569
  604SOL     OW 1810   0.627   2.709   2.128 -0.4101 -0.1243  0.2178
  604SOL    HW1 1811   0.684   2.777   2.174  0.9590 -0.3463 -0.3853
  604SOL    HW2 1812   0.635   2.717   2.021 -1.2718  1.1996 -1.6960
  605SOL     OW 1813   1.898   0.709   2.281 -0.1437 -0.1018  0.2299
  605SOL    HW1 1814   1.894   0.805   2.245 -0.6178  2.4953  1.7208
  605SOL    HW2 1815   1.805   0.677   2.303 -0.5206 -0.5402 -0.4288
  606SOL     OW 1816   2.325   0.173   2.738 -0.3457 -0.3964 -0.0214
  606SOL    HW1 1817   2.342   0.226   2.825 -0.3035  1.6976  1.0332
  606SOL    HW2 1818   2.394   0.197   2.669  0.2859  1.0530  0.1889
  607SOL     OW 1819   0.820   0.585   1.267 -0.3144  0.0758  0.5222
  607SOL    HW1 1820   0.806   0.576   1.166  0.3247  2.1042  0.0161
  607SOL    HW2 1821   0.756   0.662   1.300  0.2412  3.2139 -0.7866
  608SOL     OW 1822   3.047   1.932   2.326  0.6245 -0.4740  0.0368
  608SOL    HW1 1823   3.086   1.993   2.253  1.4713  2.2597 -1.4077
  608SOL    HW2 1824   2.995   1.985   2.398 -1.9421  0.1383 -0.7899
  609SOL     OW 1825   1.777   0.797   0.081 -0.2554  0.0241 -0.5719
  609SOL    HW1 1826   1.750   0.704   0.123  1.6064 -1.6565  0.0916
  609SOL    HW2 1827   1.691   0.855   0.065  0.2016 -0.5297  0.3259
  610SOL     OW 1828   0.769   0.349   1.394  0.0711 -0.1038 -0.0999
  610SOL    HW1 1829   0.848   0.296   1.432  0.3870 -1.5773  0.5480
  610SOL    HW2 1830   0.796   0.429   1.338 -0.4426  2.3993  0.6323
  611SOL     OW 1831   1.610   0.514   0.555 -0.1735  0.7046  0.1891
  611SOL    HW1 1832   1.562   0.526   0.649  0.5148 -0.6781  0.5311
  611SOL    HW2 1833   1.548   0.497   0.475  1.5299 -0.2492 -0.8407
  612SOL     OW 1834   1.825   0.658   2.862 -0.1483 -0.2745  0.1312
  612SOL    HW1 1835   1.882   0.634   2.783 -0.2175 -0.6647  2.6280
  612SOL    HW2 1836   1.875   0.723   2.927 -0.2126  1.5619  1.9544
  613SOL     OW 1837   2.455   0.694   0.627 -0.1715 -0.2938  0.0103
  613SOL    HW1 1838   2.403   0.704   0.538 -1.2908 -1.6565 -0.5959
  613SOL    HW2 1839   2.495   0.599   0.630 -0.4363 -0.7767 -0.2992
  614SOL     OW 1840   2.723   0.164   2.044  0.3678 -0.1580  0.4708
  614SOL    HW1 1841   2.640   0.111   2.074  1.2581 -2.9881 -2.3356
  614SOL    HW2 1842   2.803   0.137   2.099 -0.7315 -1.9056 -3.4050
  615SOL     OW 1843   0.672   1.807   1.066 -0.2445 -0.2106 -0.0346
  615SOL    HW1 1844   0.726   1.847   1.142  0.7412 -0.4240 -0.8998
  615SOL    HW2 1845   0.574   1.815   1.090  1.3566  0.6844 -1.1395
  616SOL     OW 1846   1.546   1.609   2.722 -0.3081  0.1807  0.4683
  616SOL    HW1 1847   1.485   1.671   2.670 -2.4838  0.2709  1.1703
  616SOL    HW2 1848   1.557   1.523   2.667  0.5047 -1.8921  0.5601
  617SOL     OW 1849   1.686   0.009   3.047  0.0410  0.3770 -0.2664
  617SOL    HW1 1850   1.704   3.013   3.082 -0.8727 -1.2170 -0.5630
  617SOL    HW2 1851   1.591   0.018   3.009 -1.0950  0.4756  1.0926
  618SOL     OW 1852   1.440   2.185   2.634 -0.0245 -0.2508 -0.0663
  618SOL    HW1 1853   1.423   2.142   2.545  1.5397 -1.6031  2.1909
  618SOL    HW2 1854   1.413   2.126   2.716  0.3870 -1.8803 -0.0975
  619SOL     OW 1855   2.496   1.316   0.797  0.2558  0.5780 -0.7441
  619SOL    HW1 1856   2.577   1.358   0.753  1.7781  0.6271  0.3573
  619SOL    HW2 1857   2.517   1.279   0.890  0.1309  2.3909  0.6758
  620SOL     OW 1858   1.947   2.739   2.248  0.7159 -0.8921  0.1415
  620SOL    HW1 1859   1.878   2.790   2.303 -2.9414 -0.4445  1.2638
  620SOL    HW2 1860   2.035   2.723   2.299  0.4087 -1.6530  0.1627
  621SOL     OW 1861   2.908   1.253   0.608 -0.4421  0.2940  0.6620
  621SOL    HW1 1862   2.886   1.164   0.648 -1.2774 -0.8892 -0.4686
  621SOL    HW2 1863   3.004   1.275   0.636  2.2828 -0.3000 -0.0026
  622SOL     OW 1864   1.395   2.115   2.377  0.3902 -0.2134 -0.1717
  622SOL    HW1 1865   1.333   2.029   2.377  2.7678 -2.0619  0.2846
  622SOL    HW2 1866   1.441   2.116   2.283  0.3023  0.6905 -2.2622
  623SOL     OW 1867   0.472   2.644   2.524  0.3823 -0.1294  0.4187
  623SOL    HW1 1868   0.501   2.726   2.471 -0.4481  1.5495 -0.9528
  623SOL    HW2 1869   0.549   2.608   2.579 -1.0405  0.6836  0.5729
  624SOL     OW 1870   0.956   2.685   2.802  0.6091  0.5788  0.3287
  624SOL    HW1 1871   1.002   2.706   2.710  1.8799  2.6185 -1.8542
  624SOL    HW2 1872   0.975   2.764   2.861  2.2773  1.1311 -0.3413
  625SOL     OW 1873   0.335   2.014   2.425 -0.2325 -0.1511 -0.2708
  625SOL    HW1 1874   0.380   2.068   2.351 -0.2732 -0.7657 -0.7908
  625SOL    HW2 1875   0.279   1.940   2.384 -2.5073  2.3242 -0.0019
  626SOL     OW 1876   0.208   0.255   0.030  0.3925 -0.2731 -0.2318
  626SOL    HW1 1877   0.116   0.207   0.036 -0.0633 -0.8537 -0.4022
  626SOL    HW2 1878   0.195   0.355   0.020 -0.6705  0.7782 -2.6369
  627SOL     OW 1879   2.073   1.863   2.989 -0.2685  0.1766 -0.2553
  627SOL    HW1 1880   2.147   1.908   2.937  3.0743  0.8054 -0.2641
  627SOL    HW2 1881   2.114   1.818   3.073  2.7981 -0.3762 -1.1893
  628SOL     OW 1882   1.371   1.576   2.924 -0.2095  0.1284  0.1460
  628SOL    HW1 1883   1.392   1.494   2.978 -0.4837  1.8404 -2.3522
  628SOL    HW2 1884   1.445   1.578   2.857 -2.1257 -0.4005  3.0965
  629SOL     OW 1885   0.210   0.184   2.010  0.0701 -0.7119  0.3652
  629SOL    HW1 1886   0.245   0.093   1.982 -0.1977  1.1459  0.4765
  629SOL    HW2 1887   0.245   0.206   2.103  1.2852 -1.6308 -1.9326
  630SOL     OW 1888   2.236   0.974   1.944  0.0184  0.0475  0.3724
  630SOL    HW1 1889   2.325   1.020   1.922  0.1461 -1.2390 -0.5161
  630SOL    HW2 1890   2.239   0.930   2.035  0.9578 -0.4069 -1.3527
  631SOL     OW 1891   1.640   0.158   0.810  0.1590  0.1914 -0.8011
  631SOL    HW1 1892   1.671   0.221   0.735  0.3120 -0.3879  1.7262
  631SOL    HW2 1893   1.590   0.072   0.775  0.8947  0.4775 -2.1020
  632SOL     OW 1894   2.816   0.936   1.711  0.1304  0.5165  0.8625
  632SOL    HW1 1895   2.810   0.898   1.620 -2.1204  0.8409  0.5572
  632SOL    HW2 1896   2.761   0.881   1.777  0.3020  0.4860  2.6544
  633SOL     OW 1897   0.690   0.507   2.779  0.1352 -0.3506  0.3359
  633SOL    HW1 1898   0.718   0.425   2.831 -1.2973  0.0808 -1.1687
  633SOL    HW2 1899   0.743   0.588   2.816  1.3467  2.3854  0.3414
  634SOL     OW 1900   0.425   2.495   2.963  0.4028  0.1447 -0.7610
  634SOL    HW1 1901   0.482   2.453   2.888  2.2142  0.1786 -0.4279
  634SOL    HW2 1902   0.324   2.502   2.950  0.1840 -1.5413  1.7965
  635SOL     OW 1903   3.084   1.076   1.175  0.4954 -0.2194 -0.0757
  635SOL    HW1 1904   3.021   1.137   1.122 -0.5585  0.8810 -3.8897
  635SOL    HW2 1905   0.020   1.001   1.112 -0.8902 -1.3815 -1.9598
  636SOL     OW 1906   2.976   1.213   0.346 -0.2875 -0.0922  0.6112
  636SOL    HW1 1907   2.947   1.305   0.305 -0.8022  2.3164 -0.5388
  636SOL    HW2 1908   2.959   1.217   0.451 -1.1957  0.9669  2.3221
  637SOL     OW 1909   0.373   2.708   0.126  0.2397 -0.3749 -0.3968
  637SOL    HW1 1910   0.348   2.691   0.031  1.3071  2.7456  0.6974
  637SOL    HW2 1911   0.309   2.663   0.190 -0.2814  0.9183 -1.3863
  638SOL     OW 1912   2.866   2.422   0.686  0.0637  0.7017  0.2124
  638SOL    HW1 1913   2.936   2.360   0.735  1.8957 -0.3409  2.8787
  638SOL    HW2 1914   2.771   2.400   0.720 -1.4466  1.4167 -0.1350
  639SOL     OW 1915   1.530   0.939   0.041  0.2638  1.1470  0.1855
  639SOL    HW1 1916   1.451   0.940   3.082 -1.2007 -1.8854  2.2662
  639SOL    HW2 1917   1.497   0.881   0.122 -4.0829  2.0496  1.9243
  640SOL     OW 1918   1.856   2.549   1.461 -0.2027 -1.0412 -0.0029
  640SOL    HW1 1919   1.847   2.525   1.559  0.1437  0.3998 -1.1281
  640SOL    HW2 1920   1.929   2.497   1.418 -3.6464  0.1045  1.1356
  641SOL     OW 1921   0.266   0.173   0.743  0.6466 -0.2667  0.0940
  641SOL    HW1 1922   0.269   0.233   0.657  0.1453  0.7916 -0.3607
  641SOL    HW2 1923   0.237   0.229   0.820 -1.0127 -0.4945  0.4298
  642SOL     OW 1924   1.463   0.842   1.825 -0.3046  0.2723 -0.0828
  642SOL    HW1 1925   1.501   0.767   1.888  0.9172 -3.0179  1.5936
  642SOL    HW2 1926   1.394   0.902   1.866  1.3325  0.8581 -2.4326
  643SOL     OW 1927   0.827   2.404   2.500  0.5287 -0.2686  0.1307
  643SOL    HW1 1928   0.771   2.468   2.556  1.4440 -0.6786 -0.0567
  643SOL    HW2 1929   0.782   2.409   2.407 -2.2584  0.5139 -1.6863
  644SOL     OW 1930   1.276   2.412   2.950 -0.3473 -0.0652  0.2359
  644SOL    HW1 1931   1.314   2.458   2.869 -1.8314 -0.2264  0.8662
  644SOL    HW2 1932   1.205   2.467   3.000 -1.1727  0.2710  1.4925
  645SOL     OW 1933   1.486   1.500   2.035 -0.4334 -0.3353 -0.3156
  645SOL    HW1 1934   1.580   1.499   2.074 -0.6505  1.0574  0.1692
  645SOL    HW2 1935   1.480   1.438   1.956  3.3704 -2.1903 -0.5374
  646SOL     OW 1936   0.840   0.014   0.106 -0.9531 -0.6469 -0.5411
  646SOL    HW1 1937   0.795   0.044   0.190  0.3781  1.4549  0.4768
  646SOL    HW2 1938   0.782   0.029   0.025 -0.3108 -1.0071  1.2395
  647SOL     OW 1939   0.802   2.995   0.781 -0.4309  0.0834 -0.0171
  647SOL    HW1 1940   0.739   2.916   0.777 -0.5512 -0.7090  1.4252
  647SOL    HW2 1941   0.892   2.978   0.823 -2.7709  0.4947  1.7741
  648SOL     OW 1942   2.776   2.712   0.925  0.7805 -0.2198  0.4823
  648SOL    HW1 1943   2.698   2.698   0.852 -1.2621  0.0542 -1.9689
  648SOL    HW2 1944   2.864   2.670   0.891  2.2392 -0.1117 -0.6041
  649SOL     OW 1945   0.654   2.122   2.806 -0.2498 -0.4987 -0.3971
  649SOL    HW1 1946   0.591   2.078   2.739 -1.0606 -1.8987 -0.9987
  649SOL    HW2 1947   0.639   2.073   2.898  2.1002 -0.4944  0.3802
  650SOL     OW 1948   2.228   1.870   2.033  0.3379 -0.5661  0.3843
  650SOL    HW1 1949   2.207   1.862   2.137 -2.1594  2.2535  1.3703
  650SOL    HW2 1950   2.329   1.867   2.012  2.9990 -0.8350 -1.9304
  651SOL     OW 1951   2.903   2.894   2.415  0.3741  0.0563  0.0236
  651SOL    HW1 1952   2.977   2.962   2.413 -0.9305 -1.5979 -1.6053
  651SOL    HW2 1953   2.889   2.859   2.318  0.3277  1.2171 -0.2865
  652SOL     OW 1954   2.901   1.687   0.624  0.2659 -0.1190  0.1774
  652SOL    HW1 1955   2.926   1.782   0.604 -1.6829  0.6842  1.0693
  652SOL    HW2 1956   2.800   1.687   0.638  2.8789 -1.8506  0.9016
  653SOL     OW 1957   2.447   0.651   1.027  0.3214 -0.6325 -0.0481
  653SOL    HW1 1958   2.394   0.659   1.116  0.6604 -1.5100  1.1837
  653SOL    HW2 1959   2.395   0.697   0.950  0.6569  0.0681 -1.0944
  654SOL     OW 1960   0.794   0.290   2.900  0.1565  0.0617 -0.2699
  654SOL    HW1 1961   0.891   0.304   2.933  1.8216 -1.0477  1.4090
  654SOL    HW2 1962   0.742   0.233   2.967  2.2956 -0.6006 -1.4668
  655SOL     OW 1963   0.909   0.145   1.500 -0.6790 -0.2254 -0.0503
  655SOL    HW1 1964   0.994   0.109   1.546  2.8764  1.8071  0.3754
  655SOL    HW2 1965   0.913   0.102   1.406  2.7920 -0.8733  2.3837
  656SOL     OW 1966   0.150   2.681   1.990 -0.2932  0.1716  0.8564
  656SOL    HW1 1967   0.235   2.672   2.049  2.2661 -2.0693 -2.2209
  656SOL    HW2 1968   0.166   2.715   1.894  1.5976  0.1132  0.5721
  657SOL     OW 1969   2.347   0.435   0.254  0.7399  0.3961  0.3712
  657SOL    HW1 1970   2.322   0.514   0.318 -0.5197  1.0017  2.2144
  657SOL    HW2 1971   2.414   0.467   0.185  0.2755  1.9637 -2.5627
  658SOL     OW 1972   1.868   1.468   1.220 -0.1414 -0.4683  0.3895
  658SOL    HW1 1973   1.919   1.383   1.236  1.3200 -0.0376  0.4974
  658SOL    HW2 1974   1.912   1.526   1.150  2.1334  0.3245 -2.5794
  659SOL     OW 1975   2.704   2.226   2.778 -0.0114  0.4363 -0.7787
  659SOL    HW1 1976   2.683   2.276   2.867  1.8812  1.5402  0.1039
  659SOL    HW2 1977   2.799   2.187   2.779  1.1647 -2.0970  2.1457
  660SOL     OW 1978   1.173   0.228   0.069  0.0500  0.1031  0.4377
  660SOL    HW1 1979   1.270   0.253   0.051 -2.1504  3.1954  1.4606
  660SOL    HW2 1980   1.127   0.305   0.117 -0.7247 -1.3594 -0.8913
  661SOL     OW 1981   2.195   0.117   0.454 -0.1528  0.4227  0.0908
  661SOL    HW1 1982   2.102   0.116   0.407 -2.2004  0.8080 -1.7555
  661SOL    HW2 1983   2.271   0.166   0.401  1.7751 -1.4118 -0.9477
  662SOL     OW 1984   0.645   0.081   1.000  0.2662 -0.4909 -0.2506
  662SOL    HW1 1985   0.745   0.066   1.014 -1.4952  0.6807  1.3516
  662SOL    HW2 1986   0.627   0.080   0.899  2.0103 -0.6640  0.5140
  663SOL     OW 1987   1.570   0.161   2.441 -0.3307 -0.1870 -0.6589
  663SOL    HW1 1988   1.475   0.122   2.441 -1.1472  1.6892 -1.4804
  663SOL    HW2 1989   1.642   0.102   2.402 -1.3908 -1.5403  1.0931
  664SOL     OW 1990   0.789   2.412   1.611 -0.5562 -0.3690  0.1552
  664SOL    HW1 1991   0.784   2.395   1.512 -0.7022  2.8136 -0.5357
  664SOL    HW2 1992   0.785   2.515   1.630  0.8423  1.5198 -0.6453
  665SOL     OW 1993   0.788   2.247   2.004  0.2578 -0.5997  0.2285
  665SOL    HW1 1994   0.703   2.268   1.943 -3.7404 -1.4282 -2.7753
  665SOL    HW2 1995   0.867   2.244   1.937 -1.6309 -1.5050 -1.5527
  666SOL     OW 1996   0.270   2.836   2.646 -0.1885 -0.1201 -0.2046
  666SOL    HW1 1997   0.215   2.820   2.566  1.2760 -0.6501  2.5160
  666SOL    HW2 1998   0.351   2.774   2.651 -2.2579 -0.4965  2.6653
  667SOL     OW 1999   1.421   1.484   1.541  0.1585  0.1739  0.0239
  667SOL    HW1 2000   1.330   1.495   1.493 -1.7191 -0.6025 -2.0305
  667SOL    HW2 2001   1.492   1.475   1.469 -1.0832  1.2043 -1.9384
  668SOL     OW 2002   1.446   0.429   1.886  0.6511 -0.3922  0.4403
  668SOL    HW1 2003   1.431   0.329   1.862  1.4765  3.4710 -0.1139
  668SOL    HW2 2004   1.364   0.470   1.927  2.6946  0.2789  0.2210
  669SOL     OW 2005   2.644   2.459   1.264 -0.3456  0.0427  0.1893
  669SOL    HW1 2006   2.651   2.419   1.167  0.6879  1.1190 -0.6989
  669SOL    HW2 2007   2.622   2.385   1.328  3.7887  0.2775 -3.1148
  670SOL     OW 2008   1.581   2.583   2.826  0.5827 -0.2160  0.3922
  670SOL    HW1 2009   1.500   2.572   2.765  0.9673 -4.7252  1.0319
  670SOL    HW2 2010   1.554   2.561   2.921  0.4358 -0.1125 -1.6117
  671SOL     OW 2011   1.391   1.020   0.616  0.0609 -0.1881  0.3785
  671SOL    HW1 2012   1.373   1.077   0.695  1.5270 -3.1277 -4.9974
  671SOL    HW2 2013   1.319   1.032   0.542  0.5407  1.5780 -0.3862
  672SOL     OW 2014   3.092   1.008   2.396  0.4546 -0.0337  0.7234
  672SOL    HW1 2015   3.063   1.005   2.493 -1.3421 -0.2743 -3.1924
  672SOL    HW2 2016   3.069   0.923   2.347  1.9119 -0.6868 -0.5927
  673SOL     OW 2017   3.077   1.995   1.516  0.3916  0.3254 -0.2072
  673SOL    HW1 2018   2.995   2.002   1.575 -0.4914  3.3560  0.2367
  673SOL    HW2 2019   0.026   1.909   1.544 -0.8296  0.6920  2.3840
  674SOL     OW 2020   0.401   2.568   2.131 -0.2388  0.1501 -0.0150
  674SOL    HW1 2021   0.489   2.613   2.155 -0.7718 -1.2603 -2.7653
  674SOL    HW2 2022   0.399   2.518   2.041  1.5812 -1.7479 -0.2700
  675SOL     OW 2023   0.821   0.995   1.776  0.2315 -0.0094 -0.1679
  675SOL    HW1 2024   0.758   0.933   1.725  0.0812 -0.6599  0.9101
  675SOL    HW2 2025   0.782   1.009   1.871  0.7040 -0.6930  0.5786
  676SOL     OW 2026   2.361   0.313   1.178  0.0441  0.4929  0.0045
  676SOL    HW1 2027   2.395   0.322   1.275 -2.6995 -1.9713  0.3077
  676SOL    HW2 2028   2.426   0.255   1.128 -1.0223 -2.1927 -0.6110
  677SOL     OW 2029   2.326   1.474   0.115  0.1864  0.0324  0.1469
  677SOL    HW1 2030   2.246   1.436   0.166  2.4601 -0.6042  3.0652
  677SOL    HW2 2031   2.316   1.455   0.015  2.3623 -1.0507 -0.2926
  678SOL     OW 2032   2.753   0.737   1.315 -0.3228  0.0002  0.2050
  678SOL    HW1 2033   2.732   0.738   1.216  2.2456  3.1639  2.2948
  678SOL    HW2 2034   2.843   0.784   1.316 -0.8677  0.1568  0.2115
  679SOL     OW 2035   2.444   0.193   0.362 -0.3495 -0.0225  0.2639
  679SOL    HW1 2036   2.498   0.209   0.445 -0.4281 -2.7163 -1.4367
  679SOL    HW2 2037   2.431   0.280   0.309  1.2002 -0.5915  0.0182
  680SOL     OW 2038   0.272   1.882   2.056 -0.5377  0.2777 -0.1545
  680SOL    HW1 2039   0.302   1.795   2.099 -0.5310 -1.9175  0.6944
  680SOL    HW2 2040   0.216   1.940   2.115 -0.7254 -0.3083 -0.0817
  681SOL     OW 2041   2.406   1.935   1.245  0.2953  0.2937 -0.8080
  681SOL    HW1 2042   2.310   1.910   1.218 -0.7754 -1.4235  0.0110
  681SOL    HW2 2043   2.467   1.891   1.177 -0.3532  0.4937 -0.7517
  682SOL     OW 2044   2.959   1.704   2.792 -0.5293  0.4055 -0.8738
  682SOL    HW1 2045   2.897   1.675   2.718  0.8176  1.0547  1.4605
  682SOL    HW2 2046   3.058   1.709   2.766  0.6239 -0.4718  0.0699
  683SOL     OW 2047   0.154   2.207   1.533  0.1909 -0.5097 -0.1306
  683SOL    HW1 2048   0.172   2.247   1.441 -1.3805  1.6728  1.8616
  683SOL    HW2 2049   0.076   2.145   1.534  0.8515  0.5467  1.0616
  684SOL     OW 2050   2.921   1.110   2.240 -0.3243  0.1998  0.3421
  684SOL    HW1 2051   2.985   1.076   2.310 -1.0218 -0.7622  2.7625
  684SOL    HW2 2052   2.954   1.178   2.173  0.9384  0.3178 -0.8683
  685SOL     OW 2053   1.576   0.955   0.443  0.8050  0.2944  0.2041
  685SOL    HW1 2054   1.527   0.988   0.527  1.5800  0.9686  1.2226
  685SOL    HW2 2055   1.662   0.906   0.466  0.1678  0.6024 -0.8131
  686SOL     OW 2056   0.528   0.340   0.654  0.2987  0.2241 -0.1866
  686SOL    HW1 2057   0.565   0.249   0.680 -1.4009  0.4159  1.6115
  686SOL    HW2 2058   0.443   0.325   0.602 -0.4634 -2.5032  0.0849
  687SOL     OW 2059   1.338   2.009   2.797 -0.5601  0.2580  0.2355
  687SOL    HW1 2060   1.242   2.032   2.802 -3.0736 -0.6713 -0.2853
  687SOL    HW2 2061   1.345   1.932   2.731 -1.9620  1.3684 -1.5525
  688SOL     OW 2062   1.434   1.349   1.780  0.4683 -0.1346  0.3243
  688SOL    HW1 2063   1.434   1.403   1.693  0.8758  3.1232 -0.2485
  688SOL    HW2 2064   1.357   1.283   1.789  3.1344  0.0001 -0.7993
  689SOL     OW 2065   2.133   0.135   0.721 -0.0406  0.0678 -0.3646
  689SOL    HW1 2066   2.134   0.119   0.618 -1.2351 -3.7283 -0.9636
  689SOL    HW2 2067   2.200   0.075   0.776 -1.7924 -1.3551  3.0224
  690SOL     OW 2068   0.084   1.404   1.121  0.2118 -0.0866  0.2878
  690SOL    HW1 2069   0.028   1.411   1.036 -2.8388 -1.5774  0.7636
  690SOL    HW2 2070   0.022   1.381   1.196 -0.5292  0.1026 -3.7654
  691SOL     OW 2071   0.302   2.083   1.110 -0.2778  0.2952  0.1319
  691SOL    HW1 2072   0.218   2.065   1.170 -1.5409  0.5226  0.0830
  691SOL    HW2 2073   0.346   2.173   1.130  2.8852  0.5914  0.1409
  692SOL     OW 2074   1.926   0.663   1.488 -1.2069 -0.0848  0.1692
  692SOL    HW1 2075   1.948   0.701   1.397 -0.0357 -1.1090 -2.5400
  692SOL    HW2 2076   1.985   0.699   1.565  0.4681 -1.2737  3.3710
  693SOL     OW 2077   0.543   1.706   2.295  0.2577  0.3987  0.2701
  693SOL    HW1 2078   0.580   1.782   2.242  0.9038  0.9069 -0.1364
  693SOL    HW2 2079   0.568   1.711   2.395 -0.1642 -1.8152  0.4220
  694SOL     OW 2080   1.592   1.445   1.310 -0.1785  0.1463  0.2605
  694SOL    HW1 2081   1.677   1.463   1.257  0.9126 -3.2120 -0.5306
  694SOL    HW2 2082   1.506   1.441   1.257 -0.5124 -0.4326  1.3053
  695SOL     OW 2083   1.150   1.249   0.396 -0.2230 -0.0618 -0.4205
  695SOL    HW1 2084   1.146   1.157   0.345  0.0428 -2.3910 -0.8676
  695SOL    HW2 2085   1.057   1.280   0.409  2.8190 -1.9664 -0.8000
  696SOL     OW 2086   0.936   2.723   0.197  0.0692 -0.4418  0.2430
  696SOL    HW1 2087   0.906   2.665   0.121  0.0526  0.6971 -1.3320
  696SOL    HW2 2088   1.034   2.757   0.189  1.1512 -2.4565 -2.2609
  697SOL     OW 2089   1.618   0.633   1.429 -0.0489 -0.1781  0.5833
  697SOL    HW1 2090   1.716   0.649   1.437 -0.8860 -1.0534 -2.5861
  697SOL    HW2 2091   1.589   0.557   1.486  0.3430 -0.3526 -0.2745
  698SOL     OW 2092   1.634   1.854   2.018 -0.0502 -0.1193 -0.1422
  698SOL    HW1 2093   1.543   1.816   1.995  0.7099  1.2688 -0.5764
  698SOL    HW2 2094   1.712   1.789   2.000  0.0104  1.0401  0.7623
  699SOL     OW 2095   2.689   0.524   1.935  0.1145 -0.3669  0.4904
  699SOL    HW1 2096   2.604   0.521   1.998 -2.4479 -2.1700  0.1820
  699SOL    HW2 2097   2.665   0.483   1.845  1.3856  0.4111  0.9153
  700SOL     OW 2098   1.258   2.169   0.534  0.6390  0.1243 -0.4823
  700SOL    HW1 2099   1.348   2.215   0.561  1.4301  1.8632 -0.4482
  700SOL    HW2 2100   1.237   2.090   0.592  1.9312  1.3739 -2.3340
  701SOL     OW 2101   2.310   2.614   2.224 -0.1003  0.0548  0.1985
  701SOL    HW1 2102   2.361   2.544   2.273 -1.5611 -1.3773 -2.0905
  701SOL    HW2 2103   2.273   2.680   2.294 -0.0550 -0.8431  0.0351
  702SOL     OW 2104   0.863   2.845   0.449  0.2962 -0.0765  0.2846
  702SOL    HW1 2105   0.814   2.929   0.481 -0.3492  1.8043 -2.4560
  702SOL    HW2 2106   0.847   2.823   0.350  1.1064 -0.9153 -0.7597
  703SOL     OW 2107   1.999   2.913   2.036 -0.1326 -0.1215  0.0544
  703SOL    HW1 2108   2.086   2.899   1.991  0.3795 -2.0615  1.1629
  703SOL    HW2 2109   1.992   2.861   2.117 -0.0297  2.7295 -0.4952
  704SOL     OW 2110   2.498   2.247   0.195 -0.4359 -0.2494  0.1299
  704SOL    HW1 2111   2.513   2.212   0.289 -2.4533  4.2557 -2.4065
  704SOL    HW2 2112   2.482   2.346   0.205  0.1481  0.3098 -2.6957
  705SOL     OW 2113   2.414   2.384   2.350  0.4961 -0.7984 -0.2651
  705SOL    HW1 2114   2.495   2.345   2.403  0.8621  2.3097 -2.8247
  705SOL    HW2 2115   2.370   2.310   2.288 -2.1263 -1.4026 -2.8802
  706SOL     OW 2116   2.485   0.171   0.975  0.2920 -0.0283 -0.1855
  706SOL    HW1 2117   2.475   0.109   0.894 -1.1458  0.3654 -0.0875
  706SOL    HW2 2118   2.553   0.144   1.043 -2.0364 -0.3338 -2.0032
  707SOL     OW 2119   0.830   0.545   2.359  0.0425  0.3309  0.2010
  707SOL    HW1 2120   0.759   0.538   2.431  0.1244 -0.9345 -2.4970
  707SOL    HW2 2121   0.799   0.592   2.272  0.3866  1.4830 -0.7705
  708SOL     OW 2122   0.370   2.057   1.637  0.1697 -1.0456  0.2636
  708SOL    HW1 2123   0.284   2.106   1.610 -1.7838 -1.4085 -0.7843
  708SOL    HW2 2124   0.338   1.983   1.700  0.8012  1.3756 -2.0237
  709SOL     OW 2125   1.389   0.185   1.805  0.4289 -0.0095  0.4277
  709SOL    HW1 2126   1.445   0.132   1.743 -0.3454 -0.5792  0.1410
  709SOL    HW2 2127   1.348   0.126   1.879  1.7036  0.6740  0.4752
  710SOL     OW 2128   1.516   2.989   2.560  0.5732  0.2017  0.1694
  710SOL    HW1 2129   1.565   3.041   2.636 -0.3003 -1.3850  0.1511
  710SOL    HW2 2130   1.440   3.050   2.525  1.9154 -0.1009  2.1760
  711SOL     OW 2131   0.868   2.170   2.654 -0.0436 -0.3916 -0.1214
  711SOL    HW1 2132   0.792   2.156   2.716  0.0818  0.4538 -1.0729
  711SOL    HW2 2133   0.871   2.264   2.615 -0.6549 -0.1497 -1.1161
  712SOL     OW 2134   1.074   2.102   2.829  0.1603  0.0329 -0.0425
  712SOL    HW1 2135   1.018   2.124   2.746  0.1711  1.7979 -1.2176
  712SOL    HW2 2136   1.048   2.154   2.910  1.0057 -0.4362 -0.9914
  713SOL     OW 2137   2.094   1.206   1.969 -0.3801  0.2073 -0.2562
  713SOL    HW1 2138   2.141   1.292   1.936 -2.4011  3.4288  2.6903
  713SOL    HW2 2139   2.149   1.125   1.960  0.9499  0.4191 -1.1233
  714SOL     OW 2140   0.710   1.259   2.044 -0.2654  0.5150  0.0487
  714SOL    HW1 2141   0.632   1.202   2.008  1.0352  0.4736 -0.7581
  714SOL    HW2 2142   0.762   1.220   2.125  1.6848 -2.6859 -0.2543
  715SOL     OW 2143   2.918   0.404   0.363 -0.2065  0.4199 -0.3912
  715SOL    HW1 2144   2.937   0.385   0.461 -2.6741 -0.2795 -2.3861
  715SOL    HW2 2145   2.829   0.455   0.357 -1.3368  2.1994  0.4813
  716SOL     OW 2146   2.928   2.696   1.492  0.1194  0.3358 -0.6960
  716SOL    HW1 2147   2.926   2.756   1.579 -1.1194  0.6442  0.5691
  716SOL    HW2 2148   3.008   2.635   1.491 -1.1186 -1.0919  1.1960
  717SOL     OW 2149   2.262   0.727   0.847 -0.3073 -0.0429 -0.2140
  717SOL    HW1 2150   2.211   0.797   0.795  1.4924 -3.3746 -1.5493
  717SOL    HW2 2151   2.252   0.632   0.806  0.8356  0.9077  2.2192
  718SOL     OW 2152   1.194   1.569   1.419  0.2657 -0.1632 -0.1284
  718SOL    HW1 2153   1.093   1.565   1.414 -0.2761 -0.0460 -0.1670
  718SOL    HW2 2154   1.225   1.657   1.374  0.9480  2.1878  0.4406
  719SOL     OW 2155   2.673   2.985   2.813 -0.6009 -0.4169  0.0072
  719SOL    HW1 2156   2.745   2.933   2.856 -1.0884  0.9739  2.1763
  719SOL    HW2 2157   2.632   3.039   2.891  2.5864 -1.7590  3.0225
  720SOL     OW 2158   0.974   0.337   0.878 -0.2795  0.1103  0.1772
  720SOL    HW1 2159   0.985   0.357   0.777 -0.5143  0.8700 -2.2280
  720SOL    HW2 2160   1.059   0.346   0.935  0.2742  0.2409 -1.1577
  721SOL     OW 2161   2.755   0.812   0.580 -1.0063 -0.5176  0.1152
  721SOL    HW1 2162   2.790   0.740   0.643  1.8769  1.1351 -0.9125
  721SOL    HW2 2163   2.697   0.770   0.510 -0.2182  1.7064  0.0774
  722SOL     OW 2164   0.902   2.065   2.179  0.0636  0.5334  0.1149
  722SOL    HW1 2165   0.852   2.145   2.143 -0.4467 -0.2875 -0.7316
  722SOL    HW2 2166   1.005   2.079   2.178 -2.7118 -0.0013  1.5245
  723SOL     OW 2167   1.692   3.007   1.212  0.1190 -0.2991  0.2494
  723SOL    HW1 2168   1.664   3.088   1.156 -4.3595 -0.2607 -2.5200
  723SOL    HW2 2169   1.791   2.977   1.209  0.1392  0.8272  0.2861
  724SOL     OW 2170   1.643   1.921   1.691  0.0359 -0.3927 -0.6597
  724SOL    HW1 2171   1.644   1.977   1.780 -1.6339  3.5760  2.1043
  724SOL    HW2 2172   1.605   1.827   1.709  0.2360  0.1236 -0.4503
  725SOL     OW 2173   1.222   2.424   1.155  0.3726  0.2778  0.2485
  725SOL    HW1 2174   1.132   2.473   1.164 -0.6932 -0.4288  1.0211
  725SOL    HW2 2175   1.256   2.433   1.061  0.4626  0.3844  0.9337
  726SOL     OW 2176   1.924   2.973   0.136  0.5446 -0.2098  0.0439
  726SOL    HW1 2177   1.963   3.039   0.066 -1.4452  1.1517  0.2840
  726SOL    HW2 2178   1.844   2.918   0.100 -1.4775 -0.4446  0.1503
  727SOL     OW 2179   1.485   1.591   0.483  0.1888  0.9846 -1.4721
  727SOL    HW1 2180   1.573   1.550   0.452 -2.0296 -1.5804  0.9200
  727SOL    HW2 2181   1.414   1.518   0.502 -0.4659 -4.0053 -2.1248
  728SOL     OW 2182   2.005   2.645   1.792 -0.3183  0.1696  0.0492
  728SOL    HW1 2183   2.004   2.621   1.891 -0.4857 -1.7557  0.4703
  728SOL    HW2 2184   1.966   2.741   1.784  1.2186 -1.6071 -2.5958
  729SOL     OW 2185   2.047   2.446   1.291  0.2408  0.1792  0.8226
  729SOL    HW1 2186   2.031   2.348   1.271 -0.5262 -2.3997 -1.1634
  729SOL    HW2 2187   2.146   2.469   1.260  0.7169  1.9288 -1.4839
  730SOL     OW 2188   1.606   1.122   2.477  0.0673 -0.1925 -0.3279
  730SOL    HW1 2189   1.557   1.143   2.385 -3.5423 -0.4898 -1.2396
  730SOL    HW2 2190   1.579   1.034   2.513 -0.4845 -0.8132  0.7532
  731SOL     OW 2191   0.937   0.004   1.273 -0.2889 -0.4193 -0.0072
  731SOL    HW1 2192   0.926   0.046   1.180 -1.1815 -2.3543  2.2390
  731SOL    HW2 2193   0.928   3.009   1.260  2.0678  2.7873 -2.7460
  732SOL     OW 2194   1.294   2.972   0.935 -0.0646 -0.1382  0.0925
  732SOL    HW1 2195   1.370   2.985   0.865 -1.5264 -2.1215 -1.2515
  732SOL    HW2 2196   1.332   2.926   1.020  3.4172 -1.9791  2.6689
  733SOL     OW 2197   1.044   1.167   0.943  0.3908 -0.1144  0.2266
  733SOL    HW1 2198   1.049   1.197   0.846  1.2813 -2.2527  1.7983
  733SOL    HW2 2199   1.120   1.102   0.967 -0.9622 -1.7182  0.7635
  734SOL     OW 2200   2.528   2.024   2.702  0.0917 -0.7737  0.5287
  734SOL    HW1 2201   2.583   2.102   2.724 -0.3419 -4.0577  1.0133
  734SOL    HW2 2202   2.572   1.941   2.662  0.2765  2.2879  0.7263
  735SOL     OW 2203   0.930   0.094   1.028  0.4501  0.3932 -0.3322
  735SOL    HW1 2204   0.967   0.020   0.972  0.2781  0.2827  1.1293
  735SOL    HW2 2205   0.928   0.180   0.973  2.8080  0.1712  1.8188
  736SOL     OW 2206   1.778   2.420   2.717 -0.1034 -0.3014  0.2370
  736SOL    HW1 2207   1.795   2.328   2.677 -0.8532 -0.9678  2.4868
  736SOL    HW2 2208   1.690   2.435   2.760  1.8216 -0.2144 -0.8285
  737SOL     OW 2209   1.020   2.589   1.271 -0.8072 -0.1717 -0.2244
  737SOL    HW1 2210   0.922   2.559   1.291 -1.2305 -0.7974  3.0532
  737SOL    HW2 2211   1.063   2.621   1.357  1.8799 -0.1132  0.5556
  738SOL     OW 2212   1.734   3.092   2.308 -0.2865 -0.2115  0.3791
  738SOL    HW1 2213   1.821   0.004   2.259 -0.5132  1.2964 -2.1685
  738SOL    HW2 2214   1.743   3.011   2.375 -2.9664 -1.1665  0.2912
  739SOL     OW 2215   1.333   2.494   2.091  0.2708 -0.1762 -0.3081
  739SOL    HW1 2216   1.288   2.436   2.161  0.0164 -0.0432 -1.8559
  739SOL    HW2 2217   1.404   2.438   2.040  0.6126  3.3902 -0.4210
  740SOL     OW 2218   1.428   2.443   1.333 -0.2650  0.1392  0.0331
  740SOL    HW1 2219   1.355   2.448   1.265 -1.3117 -1.2960 -1.5950
  740SOL    HW2 2220   1.494   2.521   1.320  0.7894 -1.1988 -0.1150
  741SOL     OW 2221   2.610   1.056   0.058  0.2633  0.1450 -0.1208
  741SOL    HW1 2222   2.644   1.138   0.111  0.9353 -2.2333  1.6241
  741SOL    HW2 2223   2.523   1.025   0.105 -4.1453 -2.0477  0.8187
  742SOL     OW 2224   0.626   1.770   2.552  0.0103  0.5206  0.0439
  742SOL    HW1 2225   0.565   1.839   2.600 -1.0932  0.5946  1.4944
  742SOL    HW2 2226   0.722   1.789   2.566 -0.1167  0.6844 -1.6006
  743SOL     OW 2227   0.231   0.899   2.457 -0.6677  0.0977 -0.2982
  743SOL    HW1 2228   0.292   0.958   2.510  0.7097  0.4242  0.4610
  743SOL    HW2 2229   0.131   0.936   2.457  0.5957  1.3498 -0.6555
  744SOL     OW 2230   2.380   2.259   1.123 -0.2847  0.1988 -0.2976
  744SOL    HW1 2231   2.312   2.198   1.082 -0.1751 -0.3813 -1.3337
  744SOL    HW2 2232   2.341   2.338   1.174  1.7535  0.0321  1.6163
  745SOL     OW 2233   2.273   1.783   1.475  0.0654  0.1548 -0.4722
  745SOL    HW1 2234   2.345   1.716   1.459  1.0035  0.4585  1.4549
  745SOL    HW2 2235   2.280   1.863   1.412  0.1381  0.3863 -1.7726
  746SOL     OW 2236   2.066   0.918   0.741  0.0212 -0.1789 -0.0624
  746SOL    HW1 2237   2.015   0.839   0.774  1.9278  2.8061 -1.0107
  746SOL    HW2 2238   2.022   1.003   0.781 -1.0970  2.0516 -0.6178
  747SOL     OW 2239   1.594   2.083   0.682 -0.0047  0.3393 -0.1458
  747SOL    HW1 2240   1.576   1.986   0.663  1.7316  0.2539 -0.8690
  747SOL    HW2 2241   1.681   2.102   0.637 -0.0552 -3.5044  2.7286
  748SOL     OW 2242   0.719   1.797   0.546 -0.3269 -0.1179  0.0532
  748SOL    HW1 2243   0.725   1.799   0.446 -1.3568  2.0851  0.0740
  748SOL    HW2 2244   0.655   1.863   0.592 -0.8829 -0.4959  0.9407
  749SOL     OW 2245   2.954   0.052   2.130 -0.4656 -0.3223  0.4394
  749SOL    HW1 2246   2.990   0.145   2.103 -1.5871 -0.0005  1.5399
  749SOL    HW2 2247   3.000   0.007   2.207 -1.5100 -1.3640  0.0579
  750SOL     OW 2248   1.575   0.218   1.541 -0.5017  0.5593 -0.2533
  750SOL    HW1 2249   1.669   0.222   1.585  1.2594 -0.7521 -1.0552
  750SOL    HW2 2250   1.523   0.302   1.566  0.6449 -0.3585 -2.5116
  751SOL     OW 2251   1.705   2.864   0.007  0.0717 -0.0651 -0.1259
  751SOL    HW1 2252   1.608   2.842   0.031  1.2457 -1.0025  1.3376
  751SOL    HW2 2253   1.738   2.816   3.030 -0.0075  0.7230  1.0957
  752SOL     OW 2254   1.869   1.990   0.304  0.0382 -0.6446  0.4827
  752SOL    HW1 2255   1.781   1.935   0.292 -1.0051 -0.4811 -0.2309
  752SOL    HW2 2256   1.876   2.063   0.230 -1.4128  1.3909 -0.1967
  753SOL     OW 2257   1.867   1.194   2.377 -0.2969 -0.6236 -0.0273
  753SOL    HW1 2258   1.777   1.169   2.420  0.7211 -0.0089  0.2982
  753SOL    HW2 2259   1.931   1.233   2.452  0.3827  0.9567  4.6562
  754SOL     OW 2260   0.280   2.655   0.537  0.6343  0.3408 -0.1034
  754SOL    HW1 2261   0.261   2.754   0.540 -1.2127  0.9014  0.5981
  754SOL    HW2 2262   0.380   2.642   0.540 -0.2623 -0.8738 -0.9649
  755SOL     OW 2263   1.913   0.475   0.951 -0.5129 -0.3072 -0.5094
  755SOL    HW1 2264   1.999   0.431   0.982  1.0079 -0.4541 -0.5511
  755SOL    HW2 2265   1.839   0.458   1.018  0.1163  1.8487  1.3554
  756SOL     OW 2266   1.116   1.578   2.838  0.6604  0.0124  0.4254
  756SOL    HW1 2267   1.085   1.673   2.835 -2.9218 -1.9880  0.5273
  756SOL    HW2 2268   1.214   1.573   2.859 -2.5519  1.5742 -0.4339
  757SOL     OW 2269   2.289   3.007   1.093 -0.0653  0.2596  0.5934
  757SOL    HW1 2270   2.302   2.907   1.117 -1.1364  1.6906  1.5177
  757SOL    HW2 2271   2.310   3.068   1.171  0.2977 -2.6476 -4.1593
  758SOL     OW 2272   0.833   2.702   1.646  0.0995  0.3651 -0.3902
  758SOL    HW1 2273   0.786   2.738   1.564 -0.7985  0.0308 -0.5159
  758SOL    HW2 2274   0.930   2.722   1.632 -3.6644 -1.6085 -1.8980
  759SOL     OW 2275   2.137   1.167   1.229 -0.3602  0.6941  0.8113
  759SOL    HW1 2276   2.209   1.111   1.184 -2.9469 -0.1092  0.0120
  759SOL    HW2 2277   2.164   1.198   1.320 -2.5068 -0.7925 -2.1137
  760SOL     OW 2278   2.009   0.972   1.529  0.5045  0.1840 -0.3355
  760SOL    HW1 2279   2.056   1.062   1.509 -1.2947 -1.6239 -1.8243
  760SOL    HW2 2280   2.071   0.916   1.583 -0.1743  2.1764 -0.6859
  761SOL     OW 2281   1.967   0.055   0.334 -0.0107 -0.1986 -0.3036
  761SOL    HW1 2282   1.894   0.069   0.408 -1.4341  0.4630  0.0387
  761SOL    HW2 2283   1.945   3.088   0.271  4.1486  3.4444  1.1708
  762SOL     OW 2284   1.885   2.184   0.089 -0.2199 -0.7362 -0.1058
  762SOL    HW1 2285   1.966   2.148   0.037 -0.5273 -0.1998  1.7877
  762SOL    HW2 2286   1.873   2.282   0.069  0.8390  0.1758  0.6750
  763SOL     OW 2287   0.650   1.008   1.087 -0.9699 -0.6050  0.0448
  763SOL    HW1 2288   0.712   1.044   1.012 -0.7967  1.4364  0.3744
  763SOL    HW2 2289   0.702   0.998   1.173 -0.4786  0.4850  0.4466
  764SOL     OW 2290   2.708   2.345   3.015 -0.0658  1.0537  0.2071
  764SOL    HW1 2291   2.653   2.423   3.054 -1.4921 -1.0937 -3.5118
  764SOL    HW2 2292   2.729   2.267   3.081  0.6464 -0.1401  1.3608
  765SOL     OW 2293   0.820   0.277   2.064  0.4076  0.3729  0.4435
  765SOL    HW1 2294   0.760   0.225   2.133  1.0060 -2.8496  0.6400
  765SOL    HW2 2295   0.818   0.376   2.080  0.0747 -0.6967 -1.6534
  766SOL     OW 2296   0.186   1.149   2.268 -0.4107  0.2326  0.5008
  766SOL    HW1 2297   0.129   1.077   2.312 -1.0339 -2.6412 -0.6487
  766SOL    HW2 2298   0.124   1.226   2.263  3.4439 -1.7228  2.7131
  767SOL     OW 2299   3.016   1.740   1.732  0.2570 -0.0350  0.7803
  767SOL    HW1 2300   2.914   1.738   1.731 -1.8003 -0.6244  0.2543
  767SOL    HW2 2301   3.058   1.711   1.639  0.9285  2.0252 -3.5894
  768SOL     OW 2302   0.934   0.963   3.042 -0.1276 -0.1828  0.8801
  768SOL    HW1 2303   0.834   0.984   3.043  1.6639 -1.8124 -1.7975
  768SOL    HW2 2304   0.977   1.011   2.965  0.5811 -1.6615 -3.5858
  769SOL     OW 2305   2.013   2.802   0.313  0.1636  0.2527 -0.0803
  769SOL    HW1 2306   2.025   2.725   0.249  1.6491  1.5032  0.0045
  769SOL    HW2 2307   2.006   2.893   0.267 -0.2309  2.0063 -0.0680
  770SOL     OW 2308   2.985   0.375   2.622  0.0003  0.4234  0.3454
  770SOL    HW1 2309   2.981   0.447   2.547  0.7326  0.4482 -0.0354
  770SOL    HW2 2310   2.957   0.280   2.600  1.4168 -2.7057 -0.4520
  771SOL     OW 2311   1.283   2.253   1.730  0.5003  0.6518 -0.3829
  771SOL    HW1 2312   1.238   2.166   1.748  1.2750  0.0765 -1.2621
  771SOL    HW2 2313   1.345   2.242   1.649 -1.4888 -1.4146  0.1399
  772SOL     OW 2314   0.481   0.571   3.013  0.4007  0.6424 -0.0441
  772SOL    HW1 2315   0.506   0.582   2.913  2.3879 -0.9500 -1.0667
  772SOL    HW2 2316   0.401   0.620   3.045 -0.2169  0.7727 -1.3845
  773SOL     OW 2317   2.863   1.289   1.562 -0.0328 -0.1312  0.7090
  773SOL    HW1 2318   2.767   1.315   1.563  0.3233 -2.3857  1.2097
  773SOL    HW2 2319   2.916   1.302   1.647  1.3657 -2.2397 -2.7061
  774SOL     OW 2320   1.440   0.819   0.263 -0.3857  0.4979  0.2953
  774SOL    HW1 2321   1.511   0.861   0.326 -1.0085  1.2463  0.3343
  774SOL    HW2 2322   1.348   0.838   0.299  0.2016 -0.5943  0.6178
  775SOL     OW 2323   2.226   2.817   2.970 -0.2247  0.4531  0.8455
  775SOL    HW1 2324   2.246   2.869   3.050 -0.6003 -1.9576 -1.9815
  775SOL    HW2 2325   2.200   2.870   2.884 -0.3450 -0.9891 -3.9614
  776SOL     OW 2326   2.474   0.598   2.063  0.3444  0.4718 -0.2373
  776SOL    HW1 2327   2.525   0.682   2.092 -1.3625  0.1483 -1.0305
  776SOL    HW2 2328   2.404   0.572   2.140 -4.1081 -2.8380  2.9123
  777SOL     OW 2329   0.379   1.424   2.623 -0.3874  0.0660  0.4244
  777SOL    HW1 2330   0.458   1.478   2.660  1.6417 -0.4579 -1.2450
  777SOL    HW2 2331   0.404   1.376   2.539 -0.6064 -0.4859  0.0695
  778SOL     OW 2332   0.913   0.009   0.557  0.0495 -0.8921  0.2781
  778SOL    HW1 2333   0.899   3.079   0.652  1.7038  1.9849 -1.2511
  778SOL    HW2 2334   1.010   3.091   0.528  2.1338 -0.2274 -1.0750
  779SOL     OW 2335   0.444   1.030   2.521  0.3790  0.0709  0.4039
  779SOL    HW1 2336   0.423   1.127   2.491 -5.2546 -0.0027  1.3235
  779SOL    HW2 2337   0.542   1.006   2.515 -0.7671 -0.6321  1.7369
  780SOL     OW 2338   2.163   0.921   2.528 -0.1944  0.1841  0.0120
  780SOL    HW1 2339   2.240   0.850   2.543  5.2532 -1.9331 -0.6481
  780SOL    HW2 2340   2.192   0.998   2.467 -0.4200  0.5560 -1.2232
  781SOL     OW 2341   2.713   1.452   1.808 -0.3993  0.5224 -0.0154
  781SOL    HW1 2342   2.723   1.350   1.803 -0.6751 -1.1747  0.6864
  781SOL    HW2 2343   2.630   1.479   1.755 -0.7411  0.7578  0.5530
  782SOL     OW 2344   1.199   1.862   2.435 -0.1277  0.2917 -0.1394
  782SOL    HW1 2345   1.164   1.787   2.372 -1.9625 -2.3703 -0.0758
  782SOL    HW2 2346   1.119   1.918   2.466 -0.5278  1.0278  1.3287
  783SOL     OW 2347   0.538   2.618   1.348 -0.0791 -0.0963 -0.0922
  783SOL    HW1 2348   0.603   2.688   1.388 -2.2371  2.2677 -0.5568
  783SOL    HW2 2349   0.462   2.615   1.415  2.3573  0.0510 -0.6452
  784SOL     OW 2350   1.562   0.599   2.926 -0.2978 -0.0331  0.5107
  784SOL    HW1 2351   1.534   0.558   2.835  1.2833  0.6078 -2.5605
  784SOL    HW2 2352   1.654   0.645   2.911  0.6104  0.2601  0.9855
  785SOL     OW 2353   1.413   0.336   3.065 -0.5159  0.0485  0.1824
  785SOL    HW1 2354   1.383   0.385   0.048 -2.3005 -0.7187 -0.6222
  785SOL    HW2 2355   1.460   0.395   2.998 -1.9229 -0.4634 -0.2506
  786SOL     OW 2356   0.249   1.614   0.601 -0.1322 -0.5123 -0.0430
  786SOL    HW1 2357   0.341   1.572   0.595  0.9964  3.4186 -0.7157
  786SOL    HW2 2358   0.181   1.579   0.534 -2.0665 -1.0006 -0.8649
  787SOL     OW 2359   1.755   1.488   0.476  1.0221  0.0058  0.6127
  787SOL    HW1 2360   1.845   1.522   0.492 -0.2210  0.2373 -1.6036
  787SOL    HW2 2361   1.732   1.472   0.378  0.0755  2.0930 -1.6984
  788SOL     OW 2362   1.846   1.693   1.392 -0.1200  0.1320 -0.7080
  788SOL    HW1 2363   1.821   1.606   1.343 -1.0720  1.0440 -1.0500
  788SOL    HW2 2364   1.829   1.779   1.338  0.6791 -2.5831  0.7278
  789SOL     OW 2365   3.027   1.362   1.802 -0.9121 -0.4851 -0.9652
  789SOL    HW1 2366   3.050   1.459   1.826 -1.4548  1.2624 -2.1154
  789SOL    HW2 2367   0.001   1.320   1.748  0.8776 -0.2348  0.7841
  790SOL     OW 2368   0.455   2.977   3.064 -0.2710  0.7541 -0.0556
  790SOL    HW1 2369   0.464   2.945   0.057  0.8229 -1.7430 -1.6089
  790SOL    HW2 2370   0.489   2.892   3.018 -2.1904 -1.4283 -1.5134
  791SOL     OW 2371   0.634   0.040   2.564  0.1088 -0.4257  0.5074
  791SOL    HW1 2372   0.591   0.132   2.566 -1.4679  0.6727  1.4324
  791SOL    HW2 2373   0.594   3.089   2.645 -0.0622  2.3749  2.7315
  792SOL     OW 2374   2.178   0.496   2.573 -0.4229 -0.0241  0.0540
  792SOL    HW1 2375   2.114   0.575   2.586  1.3436 -0.0950  1.2187
  792SOL    HW2 2376   2.264   0.512   2.636  4.4473 -2.2819 -0.4923
  793SOL     OW 2377   0.298   0.648   1.031  0.2048  0.1007  0.1509
  793SOL    HW1 2378   0.323   0.590   0.950  2.1196  1.6035 -2.5103
  793SOL    HW2 2379   0.296   0.592   1.115 -0.2885 -0.1457 -1.5753
  794SOL     OW 2380   0.431   0.410   2.117  0.2438 -0.2198 -0.2562
  794SOL    HW1 2381   0.480   0.435   2.035 -0.6825 -0.4134  3.1828
  794SOL    HW2 2382   0.339   0.452   2.121 -0.1839  1.7361  1.3026
  795SOL     OW 2383   0.138   1.164   0.340  0.0778  0.1012 -0.5346
  795SOL    HW1 2384   0.138   1.062   0.346  0.2372  0.2672  1.7855
  795SOL    HW2 2385   0.039   1.195   0.332  0.1215  1.8322 -1.5506
  796SOL     OW 2386   3.076   2.847   0.471 -0.5846 -0.2964  0.6235
  796SOL    HW1 2387   3.062   2.780   0.541  1.6885 -0.2302 -1.4858
  796SOL    HW2 2388   0.062   2.898   0.489 -0.7257 -0.2263 -2.3829
  797SOL     OW 2389   1.875   2.522   2.119  0.3432  0.0398 -0.2543
  797SOL    HW1 2390   1.788   2.500   2.066  0.5195 -0.0421 -1.0403
  797SOL    HW2 2391   1.879   2.623   2.143  2.3150  1.1065  1.0091
  798SOL     OW 2392   0.034   0.934   0.647 -1.1211  0.0572  0.1999
  798SOL    HW1 2393   0.030   0.914   0.547 -0.3843 -2.1135  0.0113
  798SOL    HW2 2394   0.134   0.947   0.677  2.2948  1.7426 -1.1906
  799SOL     OW 2395   2.766   0.433   2.776  0.3224 -0.4403 -0.0442
  799SOL    HW1 2396   2.839   0.373   2.737 -1.2599 -1.4779 -1.7170
  799SOL    HW2 2397   2.757   0.520   2.721 -1.4025  0.5296 -0.2816
  800SOL     OW 2398   2.723   2.037   0.357 -0.2224  0.4030 -0.1148
  800SOL    HW1 2399   2.782   2.039   0.441 -1.3569  0.8235  1.8643
  800SOL    HW2 2400   2.778   2.026   0.276 -2.2696 -1.0364  1.6311
  801SOL     OW 2401   1.330   1.503   0.900 -0.3075 -0.4266 -0.0006
  801SOL    HW1 2402   1.416   1.447   0.877  0.6805  0.2971 -1.4926
  801SOL    HW2 2403   1.314   1.495   1.004 -0.3301 -0.7195  1.2597
  802SOL     OW 2404   1.083   1.743   2.210 -0.0551 -0.3531  0.3623
  802SOL    HW1 2405   1.176   1.726   2.168  1.5556 -0.4998  1.3337
  802SOL    HW2 2406   1.014   1.767   2.143  2.5712 -0.0446  1.9525
  803SOL     OW 2407   0.196   1.815   0.810 -0.0995  0.0461  0.2244
  803SOL    HW1 2408   0.104   1.814   0.848  0.9600  0.9113  1.1389
  803SOL    HW2 2409   0.212   1.733   0.756 -0.6049  3.4221  0.7413
  804SOL     OW 2410   1.175   2.175   1.309 -0.4691  0.1907 -0.7058
  804SOL    HW1 2411   1.184   2.265   1.262  0.2141 -0.8947 -1.2057
  804SOL    HW2 2412   1.079   2.146   1.311  1.5229  0.9419 -1.5612
  805SOL     OW 2413   2.008   1.570   0.017  0.0442  0.4710  0.3295
  805SOL    HW1 2414   2.017   1.657   3.068 -2.2703  0.4795  0.5467
  805SOL    HW2 2415   1.918   1.523   3.098  3.1211  3.1931  0.9589
  806SOL     OW 2416   1.923   2.425   1.034 -0.4829  0.8303  0.4895
  806SOL    HW1 2417   1.965   2.451   1.119 -4.1635  1.2212 -2.8034
  806SOL    HW2 2418   1.822   2.408   1.037  0.5531 -0.9568  1.9321
  807SOL     OW 2419   2.742   0.563   3.028  0.6344  0.1117 -0.3966
  807SOL    HW1 2420   2.732   0.661   3.017 -0.6599 -3.6860 -0.3338
  807SOL    HW2 2421   2.758   0.525   2.936 -1.8909  1.6662  3.0755
  808SOL     OW 2422   0.304   1.231   0.569  0.4260 -0.5066  0.1480
  808SOL    HW1 2423   0.288   1.140   0.613 -0.3804 -2.7059 -1.1622
  808SOL    HW2 2424   0.255   1.231   0.478  0.4883  0.8683 -0.2654
  809SOL     OW 2425   2.621   0.815   2.137  0.2180  0.1357 -0.7451
  809SOL    HW1 2426   2.601   0.915   2.133 -0.6829  2.8079 -1.4225
  809SOL    HW2 2427   2.707   0.794   2.090 -3.2462 -0.6608  0.2206
  810SOL     OW 2428   1.435   0.445   1.600  0.6833 -0.0627  0.1226
  810SOL    HW1 2429   1.426   0.438   1.704  0.6052 -0.4478  0.7626
  810SOL    HW2 2430   1.349   0.467   1.556 -0.2890 -0.8141  0.7282
  811SOL     OW 2431   1.936   2.806   1.490 -0.0582  0.0215  0.0881
  811SOL    HW1 2432   1.908   2.709   1.483 -1.7685 -0.3312  1.9010
  811SOL    HW2 2433   1.975   2.837   1.398  0.9171  2.0789 -1.7604
  812SOL     OW 2434   1.805   2.742   2.864  0.0267  0.7311  0.3815
  812SOL    HW1 2435   1.725   2.682   2.860  2.3445  2.2716  0.2628
  812SOL    HW2 2436   1.887   2.678   2.871 -1.3155 -2.3703  0.0132
  813SOL     OW 2437   1.683   1.087   2.008 -0.3630 -0.4432  0.1810
  813SOL    HW1 2438   1.595   1.123   2.044  1.8488  1.1855 -1.1477
  813SOL    HW2 2439   1.730   1.150   1.944  2.6046  2.2561  0.1865
  814SOL     OW 2440   1.184   0.549   1.933  0.2849  0.4204  0.2391
  814SOL    HW1 2441   1.112   0.474   1.937  0.5224 -2.6339 -3.6755
  814SOL    HW2 2442   1.163   0.638   1.979 -0.3560 -2.0843 -0.4007
  815SOL     OW 2443   0.716   0.714   0.286 -0.2936 -0.1488  0.0269
  815SOL    HW1 2444   0.780   0.760   0.350 -1.2487 -2.0368  0.9379
  815SOL    HW2 2445   0.623   0.748   0.295 -0.1498  0.9495  0.6181
  816SOL     OW 2446   2.213   1.734   2.631 -0.4260 -0.3734  0.2491
  816SOL    HW1 2447   2.181   1.825   2.597 -0.7189 -1.4290  0.3952
  816SOL    HW2 2448   2.130   1.689   2.666  2.9525  0.7347 -1.7947
  817SOL     OW 2449   0.638   2.412   0.413  0.1222  0.2824 -0.0636
  817SOL    HW1 2450   0.713   2.472   0.391 -1.0316 -0.1385  0.3624
  817SOL    HW2 2451   0.671   2.328   0.460  0.7059 -3.6771  3.4075
  818SOL     OW 2452   1.993   3.085   2.995  1.0236  0.1528  0.2346
  818SOL    HW1 2453   1.905   0.032   2.976 -2.6735  2.1758  0.2043
  818SOL    HW2 2454   2.035   3.046   2.912  3.5609  1.5969  1.9378
  819SOL     OW 2455   1.706   0.140   0.179  0.4064 -0.1092 -0.3239
  819SOL    HW1 2456   1.703   0.094   0.087 -3.0421 -2.0366  0.5983
  819SOL    HW2 2457   1.771   0.218   0.175 -1.0375 -0.4922  2.5656
  820SOL     OW 2458   1.838   0.591   0.273 -0.5982  0.2431 -0.2636
  820SOL    HW1 2459   1.905   0.555   0.344  0.6201  0.7486  1.5859
  820SOL    HW2 2460   1.838   0.688   0.263  2.2277 -0.8844  0.8699
  821SOL     OW 2461   2.560   2.912   0.300  0.2887 -0.9805 -0.5059
  821SOL    HW1 2462   2.474   2.903   0.359 -3.5032 -0.6928  3.0260
  821SOL    HW2 2463   2.579   3.009   0.267 -0.1845  0.4271  1.2624
  822SOL     OW 2464   0.139   2.840   1.745 -0.4390  0.0855  0.1926
  822SOL    HW1 2465   0.036   2.819   1.757  3.1831 -3.7281  1.3486
  822SOL    HW2 2466   0.154   2.865   1.647 -1.9163 -0.2713  0.1867
  823SOL     OW 2467   2.709   1.700   1.421  0.5784 -0.2552  0.3196
  823SOL    HW1 2468   2.745   1.788   1.397  0.1409 -1.8590  0.7670
  823SOL    HW2 2469   2.710   1.694   1.522  1.9198 -0.5784 -0.4655
  824SOL     OW 2470   1.338   2.967   2.221  0.5752 -0.2991  0.3182
  824SOL    HW1 2471   1.360   2.875   2.254  1.7354 -1.8431  1.3028
  824SOL    HW2 2472   1.414   3.010   2.163  5.4156  1.3287 -3.2893
  825SOL     OW 2473   1.805   1.280   0.684 -0.1601 -0.1598  0.1870
  825SOL    HW1 2474   1.848   1.203   0.740  0.0132  1.0192  1.0659
  825SOL    HW2 2475   1.704   1.269   0.661 -2.4254 -1.5505  0.8296
  826SOL     OW 2476   2.020   0.774   3.088  0.5775  0.1202 -0.1745
  826SOL    HW1 2477   2.042   0.835   3.009 -1.9757  0.2112  1.8249
  826SOL    HW2 2478   1.930   0.798   0.033 -2.1869  2.2877  0.1614
  827SOL     OW 2479   0.377   1.043   1.475  0.3119  0.0569  0.0856
  827SOL    HW1 2480   0.396   1.082   1.568  0.2118  1.3366  0.3403
  827SOL    HW2 2481   0.422   1.111   1.412  1.4803  1.5491  1.6290
  828SOL     OW 2482   2.250   1.435   1.959 -0.1197 -0.4438 -0.7647
  828SOL    HW1 2483   2.348   1.459   1.987  2.4455 -1.2747 -1.7104
  828SOL    HW2 2484   2.184   1.509   1.937 -2.4830 -1.6656  1.2496
  829SOL     OW 2485   2.838   1.882   0.148 -0.1627 -0.7165 -0.0836
  829SOL    HW1 2486   2.844   1.807   0.083 -0.3341  1.1464  2.2550
  829SOL    HW2 2487   2.932   1.901   0.188 -0.2831  0.2162  0.8020
  830SOL     OW 2488   1.749   0.748   0.534  0.1028  0.0139 -0.3385
  830SOL    HW1 2489   1.753   0.725   0.634 -0.4918  0.4600 -0.8746
  830SOL    HW2 2490   1.730   0.662   0.478  1.1539 -1.4735  0.4228
  831SOL     OW 2491   2.604   1.501   0.170  0.2063 -0.3848  0.3921
  831SOL    HW1 2492   2.514   1.454   0.173 -0.1237  2.0983  1.2813
  831SOL    HW2 2493   2.605   1.597   0.204 -1.3472 -0.0365  0.1409
  832SOL     OW 2494   1.092   3.048   0.068  0.5781  0.1593 -0.6940
  832SOL    HW1 2495   0.992   3.055   0.093 -2.1165  0.4471 -0.3414
  832SOL    HW2 2496   1.135   0.039   0.071 -0.7427  0.7841 -0.1914
  833SOL     OW 2497   1.370   0.757   2.246  0.2814 -0.4345  0.1917
  833SOL    HW1 2498   1.354   0.660   2.220 -0.1791  1.1254 -1.5236
  833SOL    HW2 2499   1.460   0.789   2.207 -1.7296 -0.2025 -0.9844
  834SOL     OW 2500   0.204   0.438   1.217 -0.0795  0.2542 -0.6314
  834SOL    HW1 2501   0.257   0.381   1.284  1.2047 -1.3767 -0.8270
  834SOL    HW2 2502   0.209   0.397   1.121  0.4945  1.6042 -2.6895
  835SOL     OW 2503   0.043   0.137   1.356  0.1910  0.6335  0.8273
  835SOL    HW1 2504   3.072   0.164   1.424 -0.8485 -5.2641  0.8432
  835SOL    HW2 2505   0.134   0.182   1.373  0.1445 -1.8416  1.2779
  836SOL     OW 2506   0.448   2.058   0.387  0.2375  0.5359 -0.0850
  836SOL    HW1 2507   0.536   2.029   0.350  1.4405  0.6041  0.1073
  836SOL    HW2 2508   0.426   2.149   0.351  1.9515  0.0519  1.1481
  837SOL     OW 2509   1.663   1.896   2.533 -0.1659 -0.1679  0.1183
  837SOL    HW1 2510   1.686   1.974   2.599 -2.0656 -1.1322  0.7870
  837SOL    HW2 2511   1.726   1.818   2.530  0.8193  2.3500 -2.9061
  838SOL     OW 2512   0.111   1.171   1.688 -0.1120 -0.1141  0.4679
  838SOL    HW1 2513   0.120   1.134   1.785  0.5979  1.8230  0.8275
  838SOL    HW2 2514   0.085   1.103   1.620 -2.1758  2.0320  0.9674
  839SOL     OW 2515   0.363   0.506   0.792 -0.1151  0.1384 -0.4286
  839SOL    HW1 2516   0.272   0.469   0.772  1.2565 -4.6012  2.4767
  839SOL    HW2 2517   0.430   0.433   0.772 -0.7566  0.2023  0.9326
  840SOL     OW 2518   2.875   0.136   2.687  1.3610 -0.2771 -0.1342
  840SOL    HW1 2519   2.925   0.092   2.765 -0.0222 -0.9832  3.5054
  840SOL    HW2 2520   2.785   0.088   2.676  3.3810  1.4157 -0.6431
  841SOL     OW 2521   0.617   2.387   2.830  0.0870  0.4189  0.2635
  841SOL    HW1 2522   0.707   2.414   2.873  0.0469  1.2502  2.1358
  841SOL    HW2 2523   0.624   2.286   2.808  0.6711 -0.8219 -0.4362
  842SOL     OW 2524   0.759   2.919   1.182  0.2282  0.3008  0.6722
  842SOL    HW1 2525   0.696   2.982   1.125 -0.5107 -0.2244 -1.5518
  842SOL    HW2 2526   0.809   2.850   1.125 -1.4440  0.9844  0.5807
  843SOL     OW 2527   0.151   0.947   0.025 -0.0407  0.3941  0.1070
  843SOL    HW1 2528   0.059   0.916   0.056 -0.9248 -1.3067  0.6735
  843SOL    HW2 2529   0.185   1.023   0.083  1.3135 -0.8857  0.2724
  844SOL     OW 2530   1.380   2.458   2.651  0.4505 -0.4730  0.2664
  844SOL    HW1 2531   1.387   2.359   2.628  1.7812  0.9544 -1.5702
  844SOL    HW2 2532   1.380   2.511   2.564  1.3106  0.1223  0.1064
  845SOL     OW 2533   2.370   2.992   2.684 -0.6807 -0.3220  0.3189
  845SOL    HW1 2534   2.353   3.090   2.708 -0.7108  1.9743 -1.9837
  845SOL    HW2 2535   2.404   2.977   2.589  0.4358 -0.7608  0.1514
  846SOL     OW 2536   1.878   1.672   2.498  0.3610  0.4938 -0.6467
  846SOL    HW1 2537   1.904   1.634   2.407  2.0904  2.7578  1.0473
  846SOL    HW2 2538   1.891   1.603   2.567 -2.2730  0.5282  0.5315
  847SOL     OW 2539   2.652   2.804   0.056 -0.5418 -0.3267  0.0467
  847SOL    HW1 2540   2.635   2.873   3.084  1.0985 -0.1328 -0.7789
  847SOL    HW2 2541   2.617   2.836   0.144  3.6286  1.1433 -2.0159
  848SOL     OW 2542   0.572   0.527   0.479  0.3470  0.0466 -0.0445
  848SOL    HW1 2543   0.565   0.462   0.559 -0.0092  0.1664 -0.8539
  848SOL    HW2 2544   0.487   0.515   0.427 -0.6356  0.4191 -2.1068
  849SOL     OW 2545   1.543   0.045   2.111 -0.3618  0.3548 -0.7398
  849SOL    HW1 2546   1.613   0.011   2.178  0.2244 -2.6706 -1.0199
  849SOL    HW2 2547   1.588   0.113   2.046 -0.5362 -0.8367 -2.2263
  850SOL     OW 2548   0.835   1.125   0.587 -0.0828 -0.3196  0.1871
  850SOL    HW1 2549   0.869   1.214   0.625  1.7378  0.3600 -0.6569
  850SOL    HW2 2550   0.799   1.074   0.664 -0.1736  2.4104 -0.3172
  851SOL     OW 2551   0.217   1.226   0.090 -0.4377 -0.2232 -0.5171
  851SOL    HW1 2552   0.170   1.203   0.177  0.5779  0.0441 -3.0196
  851SOL    HW2 2553   0.312   1.184   0.084  0.4773  0.3448 -1.3879
  852SOL     OW 2554   1.180   0.282   2.212 -0.0088 -0.0448  0.5106
  852SOL    HW1 2555   1.195   0.253   2.116 -2.3622  1.7681  0.3093
  852SOL    HW2 2556   1.107   0.221   2.255 -3.3119  1.2986  0.4439
  853SOL     OW 2557   2.676   1.235   0.239 -0.4961  0.1950  0.1992
  853SOL    HW1 2558   2.685   1.202   0.332  1.3242 -0.0109 -2.5849
  853SOL    HW2 2559   2.656   1.334   0.242 -2.5298  0.1145 -1.8018
  854SOL     OW 2560   1.000   1.027   2.140  0.6281  0.0383  0.1118
  854SOL    HW1 2561   0.911   1.005   2.091 -0.3519 -0.8600  1.1805
  854SOL    HW2 2562   1.034   1.126   2.136 -1.3237 -0.6984  0.3163
  855SOL     OW 2563   0.158   2.771   3.059  0.0895  0.0114  0.0112
  855SOL    HW1 2564   0.130   2.849   3.001 -0.0019 -0.7028  0.1568
  855SOL    HW2 2565   0.113   2.782   0.051 -0.8137  0.9576  0.4918
  856SOL     OW 2566   1.170   0.940   2.337  0.0599  0.2275 -0.4898
  856SOL    HW1 2567   1.117   0.986   2.263  0.3223  2.2469 -1.2741
  856SOL    HW2 2568   1.261   0.912   2.305 -0.5148 -2.3957 -1.2076
  857SOL     OW 2569   1.201   0.653   2.723 -0.0432  1.0288 -0.2038
  857SOL    HW1 2570   1.213   0.556   2.704 -0.3306 -1.4923 -0.4583
  857SOL    HW2 2571   1.169   0.704   2.643  1.0610  1.6218 -1.2477
  858SOL     OW 2572   3.081   1.313   2.094 -0.0230 -0.5030 -0.2748
  858SOL    HW1 2573   0.022   1.372   2.168  1.1992  1.6700 -1.4305
  858SOL    HW2 2574   3.020   1.368   2.034 -0.4701  0.4937 -2.3534
  859SOL     OW 2575   2.147   0.320   0.936 -0.0799  0.0300 -0.2025
  859SOL    HW1 2576   2.168   0.268   0.852 -1.0368 -2.2559  1.8707
  859SOL    HW2 2577   2.218   0.316   1.009  0.2363  1.3018  1.3934
  860SOL     OW 2578   1.610   2.935   0.474 -0.1764  0.1530 -1.0208
  860SOL    HW1 2579   1.648   3.029   0.476  1.2700 -1.0260  0.4413
  860SOL    HW2 2580   1.680   2.875   0.435 -0.0596  0.7422  2.2165
  861SOL     OW 2581   1.097   0.598   1.282 -0.5310  0.1438  0.6667
  861SOL    HW1 2582   1.114   0.519   1.347  0.5592  0.2870  1.5760
  861SOL    HW2 2583   0.994   0.605   1.271 -0.5935  0.4386 -2.9275
  862SOL     OW 2584   1.560   0.225   2.698 -0.0256  0.0512  0.1252
  862SOL    HW1 2585   1.627   0.171   2.748  2.5563  3.0977 -0.5887
  862SOL    HW2 2586   1.561   0.211   2.597  0.0679  0.6001 -0.6318
  863SOL     OW 2587   2.570   2.441   0.651 -0.9056  0.0844  0.1912
  863SOL    HW1 2588   2.532   2.513   0.720  1.0915  0.9395  0.8035
  863SOL    HW2 2589   2.494   2.404   0.597  2.1142 -0.7745  0.2765
  864SOL     OW 2590   2.443   0.189   2.052  0.6621  0.0765  0.2033
  864SOL    HW1 2591   2.472   0.277   2.095 -0.5865 -1.6256 -0.5227
  864SOL    HW2 2592   2.367   0.210   1.988 -2.1684 -0.2942  0.5037
  865SOL     OW 2593   1.258   1.016   1.933  0.6098  0.2879  0.6460
  865SOL    HW1 2594   1.173   0.966   1.969 -1.7330 -1.2737  0.1713
  865SOL    HW2 2595   1.232   1.104   1.889 -1.5884  0.1632  0.2362
  866SOL     OW 2596   1.633   2.447   1.020 -0.3256 -0.1369 -0.2319
  866SOL    HW1 2597   1.619   2.354   0.979  2.7691  1.8897  1.2202
  866SOL    HW2 2598   1.568   2.510   0.980  2.4527 -0.6401  1.6920
  867SOL     OW 2599   2.293   2.978   0.362  0.0379  0.1542  0.1005
  867SOL    HW1 2600   2.282   2.904   0.431  0.2209  0.5112  1.4195
  867SOL    HW2 2601   2.269   3.068   0.405  0.3118 -0.6956  3.2170
  868SOL     OW 2602   0.306   2.204   1.978  0.2674  0.1932 -0.2300
  868SOL    HW1 2603   0.262   2.180   1.889 -1.2446  0.6262 -2.9290
  868SOL    HW2 2604   0.255   2.279   2.028 -2.1775 -2.0696  2.5271
  869SOL     OW 2605   2.127   2.511   2.061 -0.0724 -0.5610  0.2640
  869SOL    HW1 2606   2.035   2.507   2.106 -0.1357 -0.7003  1.9573
  869SOL    HW2 2607   2.194   2.575   2.107 -0.1677 -2.1406  1.1927
  870SOL     OW 2608   1.547   1.345   0.890  0.0710  0.0039 -0.5500
  870SOL    HW1 2609   1.625   1.355   0.828  1.2194 -0.6094 -0.8153
  870SOL    HW2 2610   1.580   1.320   0.988  1.4795 -0.6899 -0.4748
  871SOL     OW 2611   0.035   1.662   1.493 -0.3844 -0.0977 -0.3330
  871SOL    HW1 2612   0.131   1.633   1.474 -3.2678 -0.6635  0.9762
  871SOL    HW2 2613   3.070   1.617   1.425 -0.0953  0.8176 -0.5380
  872SOL     OW 2614   0.901   1.806   2.609 -0.0234  0.1215  0.2068
  872SOL    HW1 2615   0.948   1.819   2.700  1.0540 -1.0662  1.1849
  872SOL    HW2 2616   0.928   1.884   2.552 -1.2082  0.7183  0.7088
  873SOL     OW 2617   0.767   1.628   2.044  0.4020 -0.6343  0.1496
  873SOL    HW1 2618   0.757   1.717   2.093  0.1319 -0.2813  1.7225
  873SOL    HW2 2619   0.826   1.566   2.100  0.1891  1.8465  1.2041
  874SOL     OW 2620   1.633   0.844   2.148 -0.2423 -0.4250 -0.1801
  874SOL    HW1 2621   1.614   0.763   2.094  0.0261 -0.7299 -0.1504
  874SOL    HW2 2622   1.680   0.915   2.091 -2.1774  1.5409  0.0403
  875SOL     OW 2623   0.099   3.081   0.195  0.8457 -0.4135 -0.2611
  875SOL    HW1 2624   0.185   0.013   0.238  1.1529 -0.5093  0.6852
  875SOL    HW2 2625   0.083   2.981   0.213  0.1463  2.2517 -0.8093
  876SOL     OW 2626   0.880   1.443   0.425 -0.3293 -0.0321 -0.0788
  876SOL    HW1 2627   0.949   1.512   0.395 -0.4372 -0.2297 -0.7461
  876SOL    HW2 2628   0.906   1.394   0.509 -2.9919 -0.3904 -1.4804
  877SOL     OW 2629   2.560   3.034   0.785  0.3958 -0.1013 -0.2691
  877SOL    HW1 2630   2.620   3.017   0.865 -0.3456  0.3453 -2.9420
  877SOL    HW2 2631   2.463   3.007   0.804  1.7174 -2.4278  2.1196
  878SOL     OW 2632   2.008   1.605   0.479  0.5999 -0.4213  0.3554
  878SOL    HW1 2633   2.031   1.701   0.459 -0.9607  1.1721  1.5340
  878SOL    HW2 2634   2.029   1.589   0.577  1.0323  0.0723 -0.8679
  879SOL     OW 2635   2.457   1.596   1.392 -0.0321  0.0989 -0.1313
  879SOL    HW1 2636   2.454   1.518   1.322 -1.7233 -0.3739 -2.9980
  879SOL    HW2 2637   2.549   1.633   1.394 -2.1595 -3.3739 -0.4082
  880SOL     OW 2638   0.560   1.986   0.646  0.2483  0.1887  0.0620
  880SOL    HW1 2639   0.510   1.971   0.735  0.7941  2.2491 -1.7272
  880SOL    HW2 2640   0.502   2.011   0.566 -1.0508 -1.6616  0.0381
  881SOL     OW 2641   0.853   0.794   0.838  0.1126  0.1207  0.1822
  881SOL    HW1 2642   0.819   0.891   0.831  3.3123  0.6271 -1.4334
  881SOL    HW2 2643   0.826   0.738   0.754  3.7183 -0.9454 -3.1086
  882SOL     OW 2644   2.475   0.933   0.733 -0.1034  0.6556  0.4091
  882SOL    HW1 2645   2.410   0.988   0.678  0.5253 -0.8382  3.2079
  882SOL    HW2 2646   2.462   0.830   0.710 -3.2595 -1.7336 -0.7348
  883SOL     OW 2647   1.885   0.407   1.858  0.6526 -0.2983  0.9150
  883SOL    HW1 2648   1.824   0.483   1.829 -0.4677 -1.0157  0.2843
  883SOL    HW2 2649   1.937   0.417   1.943 -0.1593 -0.5466 -0.7121
  884SOL     OW 2650   2.948   0.200   1.597  0.5474  0.2613 -0.3699
  884SOL    HW1 2651   3.033   0.167   1.641 -0.3682  1.8693  1.0751
  884SOL    HW2 2652   2.879   0.225   1.674 -0.6811 -1.7005  2.8510
  885SOL     OW 2653   1.299   1.319   2.702  0.6580  0.1156 -0.6589
  885SOL    HW1 2654   1.269   1.230   2.659 -0.4494 -2.5905  0.5681
  885SOL    HW2 2655   1.346   1.377   2.633  1.7595 -1.9686 -1.2942
  886SOL     OW 2656   2.001   0.702   2.580  0.1960 -0.0509  0.5135
  886SOL    HW1 2657   2.036   0.789   2.540  0.6828 -1.8860  1.7645
  886SOL    HW2 2658   1.902   0.692   2.563 -1.4239  2.0818  0.4915
  887SOL     OW 2659   1.396   0.038   1.463 -0.4919  0.3238  0.0213
  887SOL    HW1 2660   1.466   0.101   1.503 -0.5261 -0.7048 -0.3706
  887SOL    HW2 2661   1.442   3.060   1.423 -0.4591 -0.1878  0.8153
  888SOL     OW 2662   2.096   1.671   1.887  0.4541  0.1660  0.4899
  888SOL    HW1 2663   2.091   1.672   1.785  0.2096  0.8412  0.6711
  888SOL    HW2 2664   2.135   1.763   1.929  0.2332  1.7613  0.3768
  889SOL     OW 2665   1.793   2.131   0.512 -0.2710 -0.2482  0.8380
  889SOL    HW1 2666   1.831   2.226   0.520  1.1940 -3.0030  0.9310
  889SOL    HW2 2667   1.843   2.072   0.445 -2.7678 -2.2775  0.7208
  890SOL     OW 2668   1.116   2.093   0.320 -0.4377  0.1210  0.0782
  890SOL    HW1 2669   1.075   2.007   0.346  2.4829  0.1130 -1.1847
  890SOL    HW2 2670   1.176   2.131   0.395  0.5690  1.0599  1.3239
  891SOL     OW 2671   2.762   0.839   3.059  0.3401 -0.5387 -0.0770
  891SOL    HW1 2672   2.856   0.854   3.099  1.5884 -0.0849  1.5929
  891SOL    HW2 2673   2.693   0.907   3.095 -1.3372  1.2917 -1.6592
  892SOL     OW 2674   1.714   0.658   2.581 -0.2223 -0.0169  0.0463
  892SOL    HW1 2675   1.660   0.587   2.632 -0.2450 -1.0616  1.3274
  892SOL    HW2 2676   1.687   0.649   2.485  2.8841  1.7674  3.2213
  893SOL     OW 2677   1.555   2.917   1.411 -0.0492  0.1095 -0.4965
  893SOL    HW1 2678   1.614   2.955   1.336 -0.8145 -0.8305  0.3583
  893SOL    HW2 2679   1.607   2.897   1.497  1.7450 -0.2526 -0.9387
  894SOL     OW 2680   0.067   3.091   0.717 -0.5355  0.0040  0.1204
  894SOL    HW1 2681   0.002   3.068   0.794 -0.9693  0.3041  1.0913
  894SOL    HW2 2682   0.136   0.061   0.736 -1.0444 -0.0146 -2.0569
  895SOL     OW 2683   2.066   2.650   3.098 -0.1533 -0.2130  0.7056
  895SOL    HW1 2684   2.035   2.597   3.014  0.2425  2.0120 -0.7765
  895SOL    HW2 2685   2.139   2.717   3.073 -3.4157 -0.1064  0.2297
  896SOL     OW 2686   2.304   0.009   2.192  0.0402  0.3680  0.6417
  896SOL    HW1 2687   2.236   0.062   2.240  1.2249 -2.6699 -3.4423
  896SOL    HW2 2688   2.367   0.078   2.143  4.5545  2.3994 -1.6314
  897SOL     OW 2689   0.473   1.505   1.633 -0.1906 -0.2565  0.5298
  897SOL    HW1 2690   0.512   1.496   1.726 -0.7475  0.9036 -2.0044
  897SOL    HW2 2691   0.527   1.576   1.585 -1.9266 -0.8691 -1.2091
  898SOL     OW 2692   2.382   1.791   1.729 -0.5868  0.3079  0.2444
  898SOL    HW1 2693   2.334   1.785   1.637  2.0534  0.4737  0.5592
  898SOL    HW2 2694   2.451   1.867   1.725  0.6793  1.5395  0.8611
  899SOL     OW 2695   1.591   2.206   0.920 -0.4367 -0.6060 -0.6165
  899SOL    HW1 2696   1.506   2.174   0.965  1.2043  3.2513 -1.7628
  899SOL    HW2 2697   1.600   2.177   0.824  3.7340 -0.1421  1.7986
  900SOL     OW 2698   1.131   0.802   0.036 -0.4710 -0.5103  0.0687
  900SOL    HW1 2699   1.057   0.860   0.003  0.7727 -0.9369  1.6194
  900SOL    HW2 2700   1.110   0.710   0.002  0.6839 -0.2863 -0.5698
  901SOL     OW 2701   1.414   1.823   2.612  0.6999 -0.3823  0.5607
  901SOL    HW1 2702   1.497   1.875   2.583 -0.7278  2.1374 -1.1133
  901SOL    HW2 2703   1.339   1.828   2.542  0.0754  3.1092 -1.0579
  902SOL     OW 2704   2.950   2.727   0.057  0.0151  0.1289  0.2966
  902SOL    HW1 2705   2.857   2.713   0.087 -2.4654 -0.3670  0.5061
  902SOL    HW2 2706   2.997   2.641   0.037 -1.8289  1.2357 -1.0363
  903SOL     OW 2707   2.256   0.849   2.183  0.0580 -0.8042 -0.0006
  903SOL    HW1 2708   2.193   0.781   2.230 -0.6228  0.0206 -1.2865
  903SOL    HW2 2709   2.350   0.812   2.167 -0.0287 -0.2533  1.4386
  904SOL     OW 2710   1.517   0.493   2.692  0.0267  0.7244  0.4866
  904SOL    HW1 2711   1.455   0.518   2.612  1.3836  0.5730 -2.1146
  904SOL    HW2 2712   1.540   0.393   2.685 -0.1375  0.7212  1.2073
  905SOL     OW 2713   2.307   2.508   1.232 -0.5485 -0.5458 -0.5942
  905SOL    HW1 2714   2.333   2.524   1.328 -0.6505 -3.2207 -2.7898
  905SOL    HW2 2715   2.357   2.566   1.163 -0.6890  0.6600  0.5808
  906SOL     OW 2716   1.497   2.036   0.135  0.0017 -0.6241 -0.1443
  906SOL    HW1 2717   1.523   1.945   0.106 -0.3545  3.7967 -1.6748
  906SOL    HW2 2718   1.501   2.098   0.058  0.8188  0.2598 -1.3093
  907SOL     OW 2719   0.617   2.789   0.763 -0.3008  0.2270  0.0859
  907SOL    HW1 2720   0.619   2.714   0.837 -0.5393 -0.8769 -1.9097
  907SOL    HW2 2721   0.620   2.753   0.664  1.5266 -0.0727 -1.4187
  908SOL     OW 2722   1.282   2.858   1.876  0.1163  0.5200  1.2365
  908SOL    HW1 2723   1.275   2.759   1.848  0.7595 -1.0270 -1.4957
  908SOL    HW2 2724   1.321   2.921   1.805  3.2522  0.9607  3.6101
  909SOL     OW 2725   1.884   0.392   1.429 -0.4692 -0.1544 -0.1359
  909SOL    HW1 2726   1.910   0.484   1.466  0.8893 -1.3984 -1.8389
  909SOL    HW2 2727   1.952   0.373   1.356 -0.7420 -1.1043  1.8337
  910SOL     OW 2728   1.313   1.004   2.982  0.3768 -0.9545 -0.9036
  910SOL    HW1 2729   1.228   0.981   3.036 -2.1713  4.3488  0.2979
  910SOL    HW2 2730   1.337   0.928   2.920 -1.0042 -1.1713  2.8910
  911SOL     OW 2731   3.023   0.846   0.124  0.3345  0.1902  0.1254
  911SOL    HW1 2732   3.019   0.746   0.108 -1.2495 -0.8284 -2.0556
  911SOL    HW2 2733   2.943   0.880   0.186 -1.0666  0.6604  1.9577
  912SOL     OW 2734   0.011   2.482   0.050  0.6782  0.2773 -0.1355
  912SOL    HW1 2735   0.112   2.487   0.064  3.4466 -1.6974 -0.0647
  912SOL    HW2 2736   3.077   2.459   0.142  1.4487 -1.8647 -0.6046
  913SOL     OW 2737   2.607   2.293   2.502 -0.4451 -0.6960  0.0442
  913SOL    HW1 2738   2.651   2.290   2.596 -1.0463 -0.5513 -2.5400
  913SOL    HW2 2739   2.660   2.240   2.434  1.8857 -0.3563 -2.0181
  914SOL     OW 2740   1.591   2.028   1.447 -0.1429  0.4839 -0.4665
  914SOL    HW1 2741   1.652   1.979   1.375  2.4683 -1.1522 -0.5441
  914SOL    HW2 2742   1.619   1.999   1.542  1.3467 -0.3757  0.0430
  915SOL     OW 2743   0.666   2.754   1.875 -0.4336 -0.5302 -0.3851
  915SOL    HW1 2744   0.716   2.734   1.784  0.3348 -2.0101 -3.4082
  915SOL    HW2 2745   0.566   2.753   1.854  2.3873  1.2200  3.3621
  916SOL     OW 2746   0.545   0.872   1.855 -0.5982  0.0722  0.3064
  916SOL    HW1 2747   0.452   0.832   1.868 -0.3773  1.7138 -1.8367
  916SOL    HW2 2748   0.533   0.972   1.860 -0.7205 -0.7128  0.8354
  917SOL     OW 2749   2.614   0.436   0.612  0.0272  0.7658 -0.0808
  917SOL    HW1 2750   2.637   0.337   0.606  0.1032 -1.9791  0.9751
  917SOL    HW2 2751   2.620   0.458   0.712  0.8072 -0.6142  2.2109
  918SOL     OW 2752   1.514   2.802   2.004  0.1022 -0.4249 -0.6999
  918SOL    HW1 2753   1.457   2.779   2.084 -0.2234  1.2541 -1.0098
  918SOL    HW2 2754   1.456   2.838   1.928 -0.1089 -1.1672 -1.3080
  919SOL     OW 2755   1.434   2.637   1.625  0.4422 -0.0857 -0.3143
  919SOL    HW1 2756   1.378   2.626   1.538 -2.3770  0.4283 -2.6353
  919SOL    HW2 2757   1.372   2.647   1.702  1.8187 -2.1478 -1.6300
  920SOL     OW 2758   0.665   1.028   3.091  0.2504  0.7533 -0.0942
  920SOL    HW1 2759   0.634   1.054   3.002  2.6566  1.5228  2.9047
  920SOL    HW2 2760   0.653   0.927   3.097 -0.3348 -1.0144  3.1159
  921SOL     OW 2761   0.092   0.438   2.773  0.0440 -0.6062 -0.6931
  921SOL    HW1 2762   0.020   0.401   2.712  0.0442  0.0836 -0.8290
  921SOL    HW2 2763   0.175   0.379   2.767 -1.5574 -2.7037  0.4019
  922SOL     OW 2764   0.928   1.706   0.973  0.3124 -0.2422  0.5008
  922SOL    HW1 2765   0.915   1.627   1.028 -0.8032  2.4291 -0.4701
  922SOL    HW2 2766   0.849   1.767   0.989  2.1805  0.1504 -0.5868
  923SOL     OW 2767   0.476   1.135   1.949  0.4174 -0.4295  0.4833
  923SOL    HW1 2768   0.427   1.191   1.879 -2.2349  0.4381 -1.0474
  923SOL    HW2 2769   0.425   1.072   2.010  1.1688  0.2419 -1.1550
  924SOL     OW 2770   1.422   0.000   2.953 -0.2803  0.0602  0.7900
  924SOL    HW1 2771   1.409   3.003   2.925 -0.7052 -0.4771 -1.3733
  924SOL    HW2 2772   1.358   0.062   2.896 -1.0527  1.7945 -1.5786
  925SOL     OW 2773   2.692   1.131   1.144  0.4936 -0.2060  0.3850
  925SOL    HW1 2774   2.703   1.079   1.231  0.7007 -1.7495  1.9487
  925SOL    HW2 2775   2.636   1.076   1.078  0.9326  3.4499 -3.2585
  926SOL     OW 2776   1.762   0.634   1.710 -0.3858 -0.6314 -0.0655
  926SOL    HW1 2777   1.817   0.619   1.628  2.3107  2.1846 -2.0087
  926SOL    HW2 2778   1.739   0.733   1.730 -0.8427 -0.5381  0.9372
  927SOL     OW 2779   1.975   2.940   1.251 -0.8251  0.0161 -0.1915
  927SOL    HW1 2780   2.050   2.955   1.189 -0.8056 -1.2949  1.6918
  927SOL    HW2 2781   1.973   3.011   1.330  0.9931  0.7760 -0.0343
  928SOL     OW 2782   0.336   1.000   2.115 -0.1858 -0.2007  0.3471
  928SOL    HW1 2783   0.271   1.051   2.174  1.3990 -2.0487  2.4643
  928SOL    HW2 2784   0.342   0.906   2.147  0.5511  0.3658 -1.9139
  929SOL     OW 2785   2.558   0.441   0.883 -0.0398  0.3830 -0.3820
  929SOL    HW1 2786   2.525   0.346   0.916 -1.0977 -0.7125  2.5266
  929SOL    HW2 2787   2.500   0.511   0.929 -0.2140 -0.1374 -0.9016
  930SOL     OW 2788   2.966   2.822   1.746  0.4626 -0.5028  0.1152
  930SOL    HW1 2789   2.975   2.915   1.788  0.0493  1.6167  1.8602
  930SOL    HW2 2790   2.932   2.761   1.822 -1.3462  1.3345  1.2013
  931SOL     OW 2791   1.685   0.881   0.927  0.4256 -0.6844  0.0165
  931SOL    HW1 2792   1.589   0.867   0.901 -1.8748 -0.9939  0.9269
  931SOL    HW2 2793   1.712   0.819   1.004  0.8321  0.3222 -2.9851
  932SOL     OW 2794   2.817   1.187   1.870  0.1973 -0.1656 -0.3585
  932SOL    HW1 2795   2.830   1.093   1.829 -0.6364 -0.3138 -1.1739
  932SOL    HW2 2796   2.897   1.244   1.851 -1.9215  0.6363 -0.0946
  933SOL     OW 2797   2.857   2.305   1.560 -0.1259 -0.2219  0.3098
  933SOL    HW1 2798   2.914   2.366   1.622 -2.3713  2.2679 -1.5698
  933SOL    HW2 2799   2.882   2.324   1.464  1.8336  1.8784 -2.9000
  934SOL     OW 2800   0.755   1.918   1.335 -0.1281 -0.3728  0.2124
  934SOL    HW1 2801   0.820   1.843   1.365  0.5781  1.6956  2.6968
  934SOL    HW2 2802   0.664   1.896   1.377  1.7737  1.0174 -0.6370
  935SOL     OW 2803   2.751   1.696   1.699 -0.0595 -0.2822  0.3581
  935SOL    HW1 2804   2.759   1.604   1.745  1.8495  0.6744 -0.4293
  935SOL    HW2 2805   2.655   1.733   1.698 -1.6183 -0.8868  1.9928
  936SOL     OW 2806   2.495   1.543   1.663  0.1359 -0.1719  0.1982
  936SOL    HW1 2807   2.489   1.539   1.560 -1.4120  1.4315 -1.1543
  936SOL    HW2 2808   2.440   1.620   1.698  0.4037 -1.5811 -1.0545
  937SOL     OW 2809   1.795   0.931   1.738 -0.2789 -0.3039 -0.1220
  937SOL    HW1 2810   1.708   0.975   1.714 -0.4237 -4.3247  0.1959
  937SOL    HW2 2811   1.874   0.952   1.678  1.3489 -0.2787  1.0483
  938SOL     OW 2812   0.700   2.605   2.670 -0.3141  0.8494 -0.0490
  938SOL    HW1 2813   0.658   2.536   2.729 -0.9844  1.0913  0.3514
  938SOL    HW2 2814   0.762   2.665   2.726  0.5161 -1.4113  0.3334
  939SOL     OW 2815   2.317   1.442   2.920  0.3046  0.1889 -0.5418
  939SOL    HW1 2816   2.327   1.366   2.854 -0.3911  0.7769 -1.4774
  939SOL    HW2 2817   2.345   1.524   2.870  1.1777  0.4753  2.8926
  940SOL     OW 2818   1.265   1.747   0.405 -0.3896 -0.2625  0.1003
  940SOL    HW1 2819   1.332   1.683   0.439 -3.3510  0.2271 -0.4692
  940SOL    HW2 2820   1.296   1.786   0.319  1.0687  1.1187  1.6840
  941SOL     OW 2821   1.805   3.007   2.705  0.2503  0.2275  0.3678
  941SOL    HW1 2822   1.802   2.926   2.766  1.1360 -1.4969 -2.5042
  941SOL    HW2 2823   1.818   3.096   2.753  0.5971 -0.9083  0.4316
  942SOL     OW 2824   0.869   2.542   0.406  0.0742 -0.2190  0.5294
  942SOL    HW1 2825   0.896   2.568   0.504  1.3088  1.1048 -0.8829
  942SOL    HW2 2826   0.909   2.608   0.339 -0.8458  1.5174 -1.5960
  943SOL     OW 2827   2.078   0.535   1.704  0.8646  0.0498 -0.0627
  943SOL    HW1 2828   2.154   0.535   1.767  1.1481 -1.0748 -1.7176
  943SOL    HW2 2829   1.998   0.484   1.740  0.8204  1.3903 -0.5578
  944SOL     OW 2830   1.074   1.119   2.864  0.0562 -0.1216 -0.1422
  944SOL    HW1 2831   1.053   1.214   2.891 -2.2696 -1.6815 -0.0722
  944SOL    HW2 2832   1.119   1.120   2.770  2.0118  1.2830 -0.0503
  945SOL     OW 2833   2.965   2.402   1.288 -0.2181  0.2637 -0.6276
  945SOL    HW1 2834   2.948   2.370   1.191  2.6773 -0.0164 -0.7219
  945SOL    HW2 2835   2.906   2.483   1.306 -1.0332 -2.1922 -2.1325
  946SOL     OW 2836   0.545   1.162   2.874 -0.0284  0.6577  0.1931
  946SOL    HW1 2837   0.457   1.215   2.878 -2.5616  1.0848 -1.1293
  946SOL    HW2 2838   0.607   1.198   2.802 -0.2065  2.1179  0.4394
  947SOL     OW 2839   2.013   0.346   2.102 -0.7236  0.2173 -0.4998
  947SOL    HW1 2840   2.033   0.406   2.187  0.7081  3.5850  1.7516
  947SOL    HW2 2841   1.994   0.250   2.129 -0.4254 -1.9351  2.1943
  948SOL     OW 2842   0.078   2.092   0.911  0.0185  0.3990 -0.2390
  948SOL    HW1 2843   0.166   2.090   0.959 -3.3654 -1.9384 -0.1005
  948SOL    HW2 2844   0.003   2.036   0.957 -0.8397 -0.1041 -1.3407
  949SOL     OW 2845   1.184   1.257   1.820  0.5183  0.3599  0.1145
  949SOL    HW1 2846   1.101   1.228   1.768 -2.4679  0.8454  1.4740
  949SOL    HW2 2847   1.173   1.352   1.852  2.4209 -2.9092 -1.9838
  950SOL     OW 2848   0.168   0.934   1.000 -0.0707 -0.3047  0.2397
  950SOL    HW1 2849   0.222   0.849   1.019  1.4910  0.0284  1.4808
  950SOL    HW2 2850   0.232   1.010   0.992 -0.6954  0.3128  3.0195
  951SOL     OW 2851   0.310   1.627   2.158 -0.0895  0.1002 -0.1616
  951SOL    HW1 2852   0.316   1.554   2.086  2.5937 -1.3231 -1.6692
  951SOL    HW2 2853   0.402   1.637   2.205  3.1541 -1.5160  1.6473
  952SOL     OW 2854   1.476   1.656   0.192 -0.3288  0.1431 -0.1019
  952SOL    HW1 2855   1.437   1.563   0.178  0.2054  1.5088 -3.0874
  952SOL    HW2 2856   1.517   1.697   0.107 -2.5212 -0.2291  0.5619
  953SOL     OW 2857   1.011   0.682   0.251  0.0757 -0.5680 -0.2484
  953SOL    HW1 2858   1.068   0.736   0.181 -0.2513  0.7212 -2.1496
  953SOL    HW2 2859   0.917   0.705   0.234  0.7286  2.2338  0.3021
  954SOL     OW 2860   1.810   1.070   0.249 -0.2867  0.4581  0.1440
  954SOL    HW1 2861   1.831   1.143   0.315 -0.1340 -1.5641 -0.3836
  954SOL    HW2 2862   1.713   1.036   0.248 -2.5684 -0.0540 -2.7435
  955SOL     OW 2863   2.538   1.963   2.971 -0.1369  0.3723  0.5411
  955SOL    HW1 2864   2.552   1.861   2.995 -1.1296 -2.7937 -0.9959
  955SOL    HW2 2865   2.545   1.994   2.872  0.7229  1.5181  2.0455
  956SOL     OW 2866   1.136   0.693   1.691 -0.2656  0.0414 -0.2919
  956SOL    HW1 2867   1.227   0.726   1.663 -2.3866  0.5604  1.5217
  956SOL    HW2 2868   1.145   0.623   1.769 -0.0906 -0.1151  2.7334
  957SOL     OW 2869   1.623   1.168   1.691  0.1931 -0.2286  0.2475
  957SOL    HW1 2870   1.696   1.179   1.761  2.7677  2.0365  2.4789
  957SOL    HW2 2871   1.554   1.241   1.717 -1.7391  2.4398  0.5365
  958SOL     OW 2872   0.212   1.902   0.502  0.2854  0.6518  0.1114
  958SOL    HW1 2873   0.235   1.799   0.508 -0.1297 -0.4661 -1.9894
  958SOL    HW2 2874   0.273   1.948   0.438 -1.6870  0.6035  2.1718
  959SOL     OW 2875   1.800   1.352   1.484 -0.3202 -0.3908  1.0397
  959SOL    HW1 2876   1.775   1.258   1.504  1.5171  4.2192 -0.7467
  959SOL    HW2 2877   1.725   1.395   1.432 -0.6721 -1.1291  1.1645
  960SOL     OW 2878   3.031   1.318   2.674 -0.0402  0.0219 -0.4045
  960SOL    HW1 2879   3.033   1.338   2.772  0.2123 -3.5134 -3.2557
  960SOL    HW2 2880   3.093   1.387   2.627  0.1924  2.7778  1.8116
  961SOL     OW 2881   1.136   1.511   0.724 -0.6590  0.0546 -0.2554
  961SOL    HW1 2882   1.065   1.586   0.738 -2.3731  2.9097 -0.9094
  961SOL    HW2 2883   1.207   1.499   0.799 -0.4830 -0.5641 -1.1319
  962SOL     OW 2884   0.877   0.901   0.421 -0.5368  0.0595 -0.4637
  962SOL    HW1 2885   0.912   0.939   0.336 -2.4569 -2.5285 -1.0616
  962SOL    HW2 2886   0.864   0.982   0.481 -0.3640 -1.2514 -0.4561
  963SOL     OW 2887   1.423   2.057   2.104 -0.1953 -0.6067 -0.2211
  963SOL    HW1 2888   1.483   2.095   2.036 -1.4116 -1.6987 -1.8138
  963SOL    HW2 2889   1.412   1.961   2.087  1.7764  0.6804 -2.0824
  964SOL     OW 2890   2.872   2.833   2.920  0.4436  0.4765  0.1539
  964SOL    HW1 2891   2.921   2.800   3.008  2.6293 -1.0178  2.8552
  964SOL    HW2 2892   2.821   2.754   2.876  1.5784 -2.0518 -2.7380
  965SOL     OW 2893   0.713   2.300   0.058 -0.5588 -0.2690  0.6464
  965SOL    HW1 2894   0.632   2.246   0.030  1.5271  0.1757  0.3210
  965SOL    HW2 2895   0.770   2.243   0.114  0.8691 -0.4392 -2.9391
  966SOL     OW 2896   2.856   1.700   3.031 -0.2095 -0.4519 -0.1739
  966SOL    HW1 2897   2.755   1.696   3.013  0.6448 -1.7524 -0.2829
  966SOL    HW2 2898   2.905   1.717   2.945 -2.1699  1.5429  1.5128
  967SOL     OW 2899   2.109   2.974   2.781  0.1242  0.5090  0.0332
  967SOL    HW1 2900   2.201   2.979   2.740 -0.6787 -0.4864 -0.5798
  967SOL    HW2 2901   2.032   2.994   2.716  0.4504  0.3048  2.0066
  968SOL     OW 2902   2.156   2.812   0.565  0.4136  0.2494  0.0921
  968SOL    HW1 2903   2.097   2.805   0.482  0.2471 -1.5241 -0.8347
  968SOL    HW2 2904   2.099   2.839   0.648 -1.3826  1.8179  1.3208
  969SOL     OW 2905   0.728   1.170   2.353 -0.1584 -0.0412 -0.7204
  969SOL    HW1 2906   0.629   1.191   2.348  3.5574 -1.4948 -0.8540
  969SOL    HW2 2907   0.740   1.082   2.405 -1.8936  0.0678 -1.0840
  970SOL     OW 2908   1.656   1.252   1.110  0.1927  0.2792  0.4619
  970SOL    HW1 2909   1.601   1.170   1.119  1.5193 -1.0760 -1.9745
  970SOL    HW2 2910   1.756   1.229   1.133  0.7932 -1.1509 -0.4554
  971SOL     OW 2911   2.340   0.055   1.315  0.4254  0.4347  0.4296
  971SOL    HW1 2912   2.316   0.115   1.390  0.7854 -1.4730  1.6312
  971SOL    HW2 2913   2.430   0.078   1.271 -1.3783  0.0829 -1.1068
  972SOL     OW 2914   2.844   3.055   1.505 -0.1880 -0.3965 -0.4796
  972SOL    HW1 2915   2.781   3.002   1.569 -1.5222 -1.6655  0.0902
  972SOL    HW2 2916   2.887   0.033   1.543  0.0419 -0.4099 -4.5614
  973SOL     OW 2917   0.052   0.106   2.576 -0.4696 -0.3358 -0.5820
  973SOL    HW1 2918   0.141   0.131   2.621  0.8592 -2.5008 -0.4259
  973SOL    HW2 2919   3.079   0.137   2.636 -2.0315 -0.0067  1.0468
  974SOL     OW 2920   2.326   1.267   2.200  0.4404  0.4888 -0.7998
  974SOL    HW1 2921   2.247   1.198   2.219 -0.7550  0.1248  1.7842
  974SOL    HW2 2922   2.303   1.342   2.138 -0.4465 -1.6309 -2.5520
  975SOL     OW 2923   0.800   0.388   1.680  0.2814 -0.2229 -0.2740
  975SOL    HW1 2924   0.753   0.351   1.598  0.0774 -0.1627  0.6419
  975SOL    HW2 2925   0.800   0.490   1.692  0.0561  0.1167  1.9151
  976SOL     OW 2926   0.680   1.897   2.140  0.7529  0.2980  0.6099
  976SOL    HW1 2927   0.607   1.943   2.084  2.2849  0.9094 -0.5902
  976SOL    HW2 2928   0.757   1.958   2.150 -0.4228 -1.5935 -0.0833
  977SOL     OW 2929   0.759   0.100   0.357  0.8280 -0.8365  0.2250
  977SOL    HW1 2930   0.815   0.081   0.439  1.9228  0.2588  1.4672
  977SOL    HW2 2931   0.763   0.201   0.339  0.7669  1.6095  1.4932
  978SOL     OW 2932   2.744   1.389   2.080 -0.2907  0.3697 -0.2198
  978SOL    HW1 2933   2.761   1.438   1.992  1.4503  1.4687 -0.3506
  978SOL    HW2 2934   2.746   1.291   2.066  0.5258  1.1482 -1.4928
  979SOL     OW 2935   1.736   0.236   2.047  0.4946 -0.5116 -0.3314
  979SOL    HW1 2936   1.787   0.294   1.978  0.3216 -0.8502 -1.7742
  979SOL    HW2 2937   1.808   0.189   2.100  0.2290  2.5372  1.8794
  980SOL     OW 2938   1.603   1.660   1.740  0.1327  0.2660 -0.5810
  980SOL    HW1 2939   1.696   1.644   1.774  1.0294  0.3413  0.9945
  980SOL    HW2 2940   1.569   1.593   1.677 -1.0276 -0.2538  1.4059
  981SOL     OW 2941   2.542   0.997   1.521  0.1456 -0.4405  0.1231
  981SOL    HW1 2942   2.526   1.003   1.620  0.0640  0.1920 -0.8074
  981SOL    HW2 2943   2.636   1.024   1.484  2.3663 -1.3023  1.1220
  982SOL     OW 2944   0.541   3.001   2.772 -0.8132  0.1905  0.2028
  982SOL    HW1 2945   0.445   3.017   2.796 -0.3000  0.0574 -1.3913
  982SOL    HW2 2946   0.577   2.915   2.812  0.8659  0.4151 -3.8727
  983SOL     OW 2947   2.741   0.673   2.708 -0.4872  0.0883 -0.0318
  983SOL    HW1 2948   2.822   0.718   2.664  1.8758  1.2356  1.2083
  983SOL    HW2 2949   2.679   0.750   2.743  1.8164  1.9100  0.4811
  984SOL     OW 2950   1.270   0.087   2.028  0.0279 -0.2198 -0.2099
  984SOL    HW1 2951   1.352   0.072   2.084 -1.4331 -1.0719 -1.0107
  984SOL    HW2 2952   1.210   0.005   2.028 -1.2395  0.2638 -0.1649
  985SOL     OW 2953   2.048   2.032   1.928 -0.1212  0.4611 -0.6814
  985SOL    HW1 2954   2.010   1.970   1.857  1.7807 -2.3997  0.9208
  985SOL    HW2 2955   2.122   1.976   1.974 -0.6195 -0.2972 -0.7542
  986SOL     OW 2956   2.473   0.326   1.408 -0.3979 -0.0866 -0.3429
  986SOL    HW1 2957   2.445   0.342   1.502 -1.0870 -0.0211 -0.9272
  986SOL    HW2 2958   2.580   0.328   1.404  2.8184  1.6045 -1.5979
  987SOL     OW 2959   2.296   0.974   1.078 -0.0976  0.2967  0.0610
  987SOL    HW1 2960   2.254   0.909   1.016  2.1306  0.8793  2.2133
  987SOL    HW2 2961   2.394   0.989   1.040  2.4533  0.6199  1.1757
  988SOL     OW 2962   2.439   1.302   1.753 -0.3093  0.5601  0.1017
  988SOL    HW1 2963   2.368   1.294   1.825 -0.5698 -0.5417  0.2075
  988SOL    HW2 2964   2.447   1.396   1.710 -1.7358  1.1236  0.6640
  989SOL     OW 2965   1.135   2.585   3.087  0.2437 -0.0049  0.0106
  989SOL    HW1 2966   1.152   2.686   0.002 -1.1262 -2.0231  0.6620
  989SOL    HW2 2967   1.182   2.527   0.060  0.8549  1.0896  2.4134
  990SOL     OW 2968   1.532   0.872   2.621 -0.1341  0.0618  0.5151
  990SOL    HW1 2969   1.595   0.793   2.613  1.2874  0.0748 -0.3942
  990SOL    HW2 2970   1.467   0.854   2.698  0.6306  1.6087  0.0691
  991SOL     OW 2971   1.244   0.474   0.609  0.7332  0.3636 -0.2049
  991SOL    HW1 2972   1.302   0.488   0.697 -0.3719  0.3407  0.6656
  991SOL    HW2 2973   1.300   0.476   0.523 -0.9957 -0.9238  0.8423
  992SOL     OW 2974   2.976   1.714   1.212 -0.0839 -0.1427 -0.0167
  992SOL    HW1 2975   2.917   1.794   1.250 -4.9109  0.2042 -1.5397
  992SOL    HW2 2976   2.932   1.626   1.236 -1.8469 -0.9891  0.9316
  993SOL     OW 2977   2.876   0.487   1.259  0.0844 -0.1589 -0.4005
  993SOL    HW1 2978   2.812   0.566   1.251  0.4800 -1.9484 -0.7194
  993SOL    HW2 2979   2.970   0.518   1.274 -2.7315  0.2192 -0.3942
  994SOL     OW 2980   3.007   2.277   2.596  0.3546 -0.2984  0.3793
  994SOL    HW1 2981   3.095   2.230   2.581 -0.5520 -0.1052 -0.5852
  994SOL    HW2 2982   3.026   2.368   2.643  0.7327  1.3838  1.1681
  995SOL     OW 2983   1.718   1.016   2.781  0.2976  0.4131 -0.2918
  995SOL    HW1 2984   1.813   1.029   2.743  1.2187  2.0849  0.1612
  995SOL    HW2 2985   1.656   0.977   2.712 -0.0794  3.7803 -0.8199
  996SOL     OW 2986   2.727   1.429   0.723 -0.0916  0.0224  0.1877
  996SOL    HW1 2987   2.686   1.488   0.650 -0.9527  1.1558 -1.4941
  996SOL    HW2 2988   2.786   1.363   0.681 -2.3431  1.2757  1.2797
  997SOL     OW 2989   2.149   1.081   2.294 -0.3605  0.0616 -0.3505
  997SOL    HW1 2990   2.198   0.999   2.259  1.0139 -0.3825 -0.3160
  997SOL    HW2 2991   2.046   1.082   2.272  0.2489 -1.8609  0.3257
  998SOL     OW 2992   2.379   1.055   0.435  0.0635 -0.2217  0.6367
  998SOL    HW1 2993   2.305   1.096   0.491  1.2678  1.0390 -3.1917
  998SOL    HW2 2994   2.352   1.056   0.337 -2.5534 -1.8028  0.7940
  999SOL     OW 2995   3.016   2.423   0.288 -0.1903  0.2202  0.5363
  999SOL    HW1 2996   3.050   2.346   0.342  1.4690  0.8445 -0.2748
  999SOL    HW2 2997   2.919   2.457   0.319 -2.5590  2.1182  0.7631
 1000SOL     OW 2998   0.854   0.793   2.654 -0.5929  0.4519  0.9483
 1000SOL    HW1 2999   0.847   0.754   2.751  2.0895  1.2104 -0.7414
 1000SOL    HW2 3000   0.942   0.760   2.606  3.0029 -3.4337  0.5286
   3.10187   3.10187   3.10187
