1000 SPC/Fw water molecules t= 418.00000 step= 418000
 3000
    1SOL     OW    1   0.107   3.013   1.165  0.4728 -0.1123  0.0995
    1SOL    HW1    2   0.162   3.060   1.231  0.4394  2.1983 -2.2265
    1SOL    HW2    3   0.060   2.935   1.210 -1.7757 -1.7187 -0.5484
    2SOL     OW    4   2.611   0.044   0.164  0.3409  0.1383 -0.1950
    2SOL    HW1    5   2.561   3.045   0.157 -0.3507 -1.8079 -1.6145
    2SOL    HW2    6   2.649   0.064   0.073 -1.3736  0.5734  0.0009
    3SOL     OW    7   1.723   2.526   2.989 -0.1443  0.0281 -0.1041
    3SOL    HW1    8   1.801   2.497   3.049 -0.1364  1.4548 -0.0014
    3SOL    HW2    9   1.703   2.626   3.009 -1.3372  0.6110  0.0481
    4SOL     OW   10   0.895   3.073   2.195  0.3009 -1.0316 -0.9172
    4SOL    HW1   11   0.865   3.071   2.292 -5.7243 -1.7194  0.5980
    4SOL    HW2   12   0.896   2.983   2.149 -0.8405  0.2517 -1.5529
    5SOL     OW   13   2.273   0.152   1.796  0.2130 -0.0281  0.7680
    5SOL    HW1   14   2.197   0.085   1.827 -1.6891 -1.5765  1.4004
    5SOL    HW2   15   2.232   0.244   1.798 -2.6867  0.5363 -1.3256
    6SOL     OW   16   2.599   1.757   1.439 -0.8705 -0.2019 -0.1286
    6SOL    HW1   17   2.601   1.738   1.336  0.8553 -0.9819 -4.6569
    6SOL    HW2   18   2.509   1.731   1.483  0.0556 -1.9330  0.1605
    7SOL     OW   19   1.986   1.115   0.651 -0.4984 -0.5797 -0.1862
    7SOL    HW1   20   1.946   1.131   0.749 -2.2919 -0.1730  1.6806
    7SOL    HW2   21   2.088   1.125   0.658  0.4391 -0.6877 -0.2164
    8SOL     OW   22   0.470   1.556   0.980 -0.0820  0.5042 -0.1188
    8SOL    HW1   23   0.526   1.633   1.016 -1.1404 -2.1979  0.5001
    8SOL    HW2   24   0.370   1.557   1.008 -1.4122  0.0660 -2.3376
    9SOL     OW   25   3.089   2.810   1.319  0.2357 -0.2709 -0.1009
    9SOL    HW1   26   3.026   2.817   1.402 -2.1321  0.3828  0.9102
    9SOL    HW2   27   3.045   2.776   1.242  3.6693 -0.8155  2.4613
   10SOL     OW   28   1.261   2.329   0.530 -0.2110  0.1503 -0.5069
   10SOL    HW1   29   1.319   2.271   0.472 -1.1972 -0.0383  1.1132
   10SOL    HW2   30   1.198   2.377   0.468  2.2880 -2.0310 -0.0564
   11SOL     OW   31   1.739   1.920   1.151 -0.3849 -0.3902 -0.0169
   11SOL    HW1   32   1.800   1.840   1.125  3.2180 -1.2931  1.2835
   11SOL    HW2   33   1.791   2.004   1.155 -2.2876  0.4970  1.0936
   12SOL     OW   34   3.031   0.694   2.213  0.1674  0.1433 -0.0038
   12SOL    HW1   35   3.023   0.759   2.133  0.1035 -1.7790  0.6212
   12SOL    HW2   36   2.998   0.600   2.186  1.4976  1.4986 -0.9926
   13SOL     OW   37   2.481   2.888   0.197 -0.2710 -0.1133  0.9792
   13SOL    HW1   38   2.484   2.874   0.091  1.0954  0.0764 -5.1198
   13SOL    HW2   39   2.460   2.794   0.232  0.0997 -1.2816 -2.4105
   14SOL     OW   40   1.284   1.670   3.078 -0.4956  0.4146  0.0162
   14SOL    HW1   41   1.254   1.631   2.989  0.5242  1.3501 -0.9485
   14SOL    HW2   42   1.386   1.684   3.080  0.1735  0.3589 -0.4739
   15SOL     OW   43   2.759   2.789   1.904  0.1701 -0.1537  0.0633
   15SOL    HW1   44   2.847   2.765   1.853  1.0636  0.3317  1.3806
   15SOL    HW2   45   2.757   2.890   1.923  0.5224  0.7467  2.3996
   16SOL     OW   46   2.843   0.339   0.874 -0.1665  0.6183  0.0763
   16SOL    HW1   47   2.935   0.320   0.908  1.0908 -0.4698 -2.2616
   16SOL    HW2   48   2.817   0.269   0.801  0.3849 -2.8663  0.7277
   17SOL     OW   49   1.222   0.128   0.787 -0.3553 -0.2187 -0.2319
   17SOL    HW1   50   1.153   0.092   0.851 -1.9152 -0.6320 -0.8061
   17SOL    HW2   51   1.256   0.053   0.728  1.1388  0.7818 -0.5172
   18SOL     OW   52   1.405   0.099   1.031 -0.2732  0.4154 -0.0002
   18SOL    HW1   53   1.495   0.149   1.024 -1.2997 -1.4921 -0.9436
   18SOL    HW2   54   1.363   0.082   0.941  1.8437 -2.3870  0.1148
   19SOL     OW   55   2.211   0.850   0.592 -0.0935 -0.1930 -0.1309
   19SOL    HW1   56   2.229   0.950   0.619  2.8260  2.2547  3.5925
   19SOL    HW2   57   2.130   0.847   0.529 -1.1243 -0.7130  1.2655
   20SOL     OW   58   2.438   1.599   2.636  0.4010  0.1629  0.7322
   20SOL    HW1   59   2.496   1.561   2.558  1.1805 -2.0589 -1.4639
   20SOL    HW2   60   2.470   1.687   2.670 -3.0348  0.3765 -1.0063
   21SOL     OW   61   1.465   0.094   0.225 -0.3153 -0.0487  0.1779
   21SOL    HW1   62   1.450   0.067   0.321 -1.0597  1.2817  3.2221
   21SOL    HW2   63   1.375   0.110   0.181  2.4096 -2.3341  1.5711
   22SOL     OW   64   2.816   1.155   0.852 -0.1780 -0.6227 -0.4342
   22SOL    HW1   65   2.784   1.090   0.925  0.6738 -1.0236  3.4222
   22SOL    HW2   66   2.751   1.170   0.778  1.0022  1.6218  1.4699
   23SOL     OW   67   0.645   0.160   1.988  0.1916  0.3095  1.0015
   23SOL    HW1   68   0.743   0.139   1.971 -1.6323  0.1764 -3.4129
   23SOL    HW2   69   0.596   0.152   1.903  3.6556  0.6387  1.8512
   24SOL     OW   70   2.509   2.143   0.834 -0.4691 -0.0123  0.2524
   24SOL    HW1   71   2.428   2.205   0.819 -1.1912  3.5151  2.5339
   24SOL    HW2   72   2.487   2.069   0.899 -1.7639  1.4380  1.6770
   25SOL     OW   73   1.672   3.075   2.430  0.0674 -0.5866  0.0230
   25SOL    HW1   74   1.607   0.050   2.395 -0.0742 -2.2232 -0.9405
   25SOL    HW2   75   1.637   3.048   2.517  0.4936 -0.5188 -0.3139
   26SOL     OW   76   1.586   2.286   3.081  0.6748 -0.1639  0.6214
   26SOL    HW1   77   1.611   2.380   3.048 -1.9961  1.1663  1.2666
   26SOL    HW2   78   1.564   2.224   3.003 -1.3879 -0.0896  1.2751
   27SOL     OW   79   1.600   0.474   1.606  0.1055  0.0684 -0.1754
   27SOL    HW1   80   1.586   0.545   1.534 -2.3955 -0.2334  0.8707
   27SOL    HW2   81   1.615   0.522   1.696 -0.3335 -1.3954 -1.1681
   28SOL     OW   82   1.097   1.342   0.608 -0.2653 -0.3262 -0.3816
   28SOL    HW1   83   1.052   1.378   0.693  1.5844  2.9780  0.5810
   28SOL    HW2   84   1.192   1.385   0.599 -0.9529  1.8753  0.3968
   29SOL     OW   85   2.563   0.346   1.592  0.0799  0.0610  0.0170
   29SOL    HW1   86   2.508   0.288   1.526 -0.9827  1.1958  1.4474
   29SOL    HW2   87   2.572   0.300   1.682 -0.4766 -1.2075 -1.3095
   30SOL     OW   88   1.306   2.411   1.576 -0.0216 -0.0734 -0.1990
   30SOL    HW1   89   1.394   2.398   1.629 -1.1152 -2.5523  0.2305
   30SOL    HW2   90   1.308   2.428   1.474 -2.4283 -0.8145 -5.3019
   31SOL     OW   91   1.893   2.859   1.344 -0.0953  0.7544  0.3433
   31SOL    HW1   92   1.948   2.910   1.412  0.3321 -2.1712 -1.1181
   31SOL    HW2   93   1.947   2.843   1.259 -1.2719 -1.8213  1.6533
   32SOL     OW   94   2.050   1.480   2.483  0.2457  0.4294  0.2504
   32SOL    HW1   95   1.963   1.434   2.515  0.5008 -1.5894 -3.0804
   32SOL    HW2   96   2.136   1.425   2.508  1.5866 -1.5204 -1.4591
   33SOL     OW   97   2.382   0.608   2.959 -0.0258  0.3689  0.3839
   33SOL    HW1   98   2.372   0.602   3.062  2.3687 -0.8559  1.5631
   33SOL    HW2   99   2.294   0.588   2.912 -1.3762 -0.2004 -0.3260
   34SOL     OW  100   1.907   0.103   0.285  0.7741 -0.4114  0.0086
   34SOL    HW1  101   1.833   0.112   0.353  0.0759 -1.3523 -1.7137
   34SOL    HW2  102   2.001   0.110   0.320 -0.2541 -0.3349 -2.4675
   35SOL     OW  103   0.022   2.133   1.828 -0.0595  0.1419  0.0009
   35SOL    HW1  104   3.038   2.145   1.763 -2.8039 -1.4790 -1.7947
   35SOL    HW2  105   3.070   2.114   1.915  0.1355  2.6946 -2.0522
   36SOL     OW  106   2.541   1.849   2.737  0.4693  0.3048 -0.6460
   36SOL    HW1  107   2.559   1.883   2.835  0.0303  0.8637  1.1052
   36SOL    HW2  108   2.626   1.808   2.703 -1.9264  1.9172  0.0870
   37SOL     OW  109   1.632   2.922   1.583 -0.2902 -0.4824  0.2662
   37SOL    HW1  110   1.704   2.853   1.557 -1.6240  0.2044 -1.5947
   37SOL    HW2  111   1.569   2.873   1.640  0.8368 -1.7251 -1.7513
   38SOL     OW  112   0.285   0.510   2.419 -0.0156 -0.0601 -0.6421
   38SOL    HW1  113   0.264   0.611   2.415 -0.1029  0.1985 -1.4741
   38SOL    HW2  114   0.365   0.489   2.362 -4.1968 -1.0225  0.0955
   39SOL     OW  115   2.030   0.877   1.309  0.1709  0.5175  0.0521
   39SOL    HW1  116   2.029   0.780   1.344  0.3788 -0.1191 -1.5012
   39SOL    HW2  117   1.968   0.884   1.228 -2.9179 -0.7846  0.8136
   40SOL     OW  118   1.248   2.302   0.821 -0.2849  0.0140 -0.2500
   40SOL    HW1  119   1.185   2.223   0.836  1.9662 -0.6288  0.8995
   40SOL    HW2  120   1.234   2.342   0.727 -0.3107 -1.1531 -0.8333
   41SOL     OW  121   2.106   2.128   1.062 -0.1553  0.9916  0.1901
   41SOL    HW1  122   2.089   2.082   0.973  1.3379  0.7716 -0.3437
   41SOL    HW2  123   2.020   2.122   1.123 -1.6530  0.1037  1.8562
   42SOL     OW  124   2.460   0.522   0.850  0.0098  0.0778  0.4529
   42SOL    HW1  125   2.533   0.520   0.920 -1.2080  1.1591 -0.4860
   42SOL    HW2  126   2.453   0.610   0.800  0.4973  0.9381  0.3992
   43SOL     OW  127   0.474   1.454   2.469  0.1258 -0.5903 -0.2274
   43SOL    HW1  128   0.492   1.428   2.373  1.2916  1.7696  0.2248
   43SOL    HW2  129   0.508   1.553   2.479  0.8929 -0.5488 -0.5594
   44SOL     OW  130   1.714   2.665   1.274 -0.2194 -0.4662 -0.1652
   44SOL    HW1  131   1.649   2.625   1.345  1.0363  2.4665  1.1431
   44SOL    HW2  132   1.765   2.748   1.314  3.0114  2.7468  2.2483
   45SOL     OW  133   0.901   2.989   2.479  0.2501  0.2395  0.3625
   45SOL    HW1  134   0.920   2.892   2.468 -0.3041  2.2920 -0.8401
   45SOL    HW2  135   0.868   3.013   2.577 -1.3836  1.2757  0.1654
   46SOL     OW  136   0.713   2.670   1.953 -0.6421  0.5254 -0.6124
   46SOL    HW1  137   0.792   2.642   1.895  0.8001 -0.3192 -1.3785
   46SOL    HW2  138   0.708   2.770   1.939  0.8988  0.4813  0.6684
   47SOL     OW  139   1.074   2.085   0.795 -0.6071  0.5423  0.1424
   47SOL    HW1  140   1.118   2.059   0.707  0.6126  2.0011  0.4739
   47SOL    HW2  141   1.033   1.995   0.827 -0.6633  1.9733 -1.4472
   48SOL     OW  142   0.856   2.425   1.317 -0.3429 -0.1725  0.1884
   48SOL    HW1  143   0.897   2.438   1.227 -0.9939  1.1531  0.0133
   48SOL    HW2  144   0.922   2.453   1.389  0.2277  1.0208 -1.1729
   49SOL     OW  145   2.777   0.276   2.851  0.1403  0.1441  0.5142
   49SOL    HW1  146   2.703   0.341   2.867  1.5810  0.1325  0.7467
   49SOL    HW2  147   2.865   0.312   2.884 -0.6338 -0.2140  2.0915
   50SOL     OW  148   1.607   1.004   0.500  0.3530 -0.0661 -0.4518
   50SOL    HW1  149   1.576   0.927   0.566 -1.7556 -3.3961  0.1458
   50SOL    HW2  150   1.529   1.028   0.437  0.9179 -2.7120  1.2629
   51SOL     OW  151   2.111   0.056   0.710  0.1928  0.3015 -0.4375
   51SOL    HW1  152   2.170   0.122   0.653 -1.8296  1.3016  0.1866
   51SOL    HW2  153   2.165   3.071   0.745 -2.4175 -0.4666 -1.1379
   52SOL     OW  154   0.961   1.543   0.093  0.1399 -0.0351 -0.2921
   52SOL    HW1  155   0.974   1.532   3.083  0.4335  0.0307 -0.6971
   52SOL    HW2  156   0.863   1.548   0.107 -0.8716 -0.3746 -0.9027
   53SOL     OW  157   0.193   1.095   2.823  0.3395 -0.3002  0.6896
   53SOL    HW1  158   0.292   1.074   2.841  3.0101  0.6245  1.6008
   53SOL    HW2  159   0.174   1.133   2.732 -0.0957  0.1314 -0.8001
   54SOL     OW  160   2.285   1.956   2.659  1.0751 -0.4726  0.1410
   54SOL    HW1  161   2.381   1.935   2.672 -2.0237 -0.5321  2.6454
   54SOL    HW2  162   2.251   1.869   2.621 -1.7103  1.9836 -2.1342
   55SOL     OW  163   2.427   2.235   1.419  0.0009  0.0831 -0.0492
   55SOL    HW1  164   2.489   2.157   1.450 -1.7523 -2.4456  1.4494
   55SOL    HW2  165   2.374   2.212   1.334  0.5806  1.4050  2.0842
   56SOL     OW  166   1.848   3.056   1.115  0.5644 -0.3344 -0.7350
   56SOL    HW1  167   1.801   2.966   1.114  0.4527  0.9072  0.0708
   56SOL    HW2  168   1.900   3.072   1.037 -1.9247 -0.7319  0.7302
   57SOL     OW  169   1.599   1.360   0.763  0.3214  0.4045 -0.1020
   57SOL    HW1  170   1.607   1.461   0.768  0.5337  0.6109  0.6029
   57SOL    HW2  171   1.674   1.318   0.705  0.2051 -0.9785 -0.8379
   58SOL     OW  172   2.533   3.080   1.622 -0.0201  0.2903  0.3417
   58SOL    HW1  173   2.481   0.063   1.583 -2.2074 -1.0692 -0.0805
   58SOL    HW2  174   2.632   0.001   1.594  1.6853 -1.3780  1.8947
   59SOL     OW  175   0.923   2.710   2.487 -0.3895 -0.1212 -0.3953
   59SOL    HW1  176   0.999   2.665   2.435  1.2753 -1.4969 -0.7713
   59SOL    HW2  177   0.841   2.669   2.443 -0.9868 -1.5946 -1.9124
   60SOL     OW  178   0.404   0.171   2.507 -0.0714  0.7774  0.6128
   60SOL    HW1  179   0.314   0.157   2.549 -0.5166  1.4860 -0.2473
   60SOL    HW2  180   0.457   0.242   2.553 -1.2022  0.0727 -2.8025
   61SOL     OW  181   0.862   2.319   0.858 -0.2212  0.3343 -0.2592
   61SOL    HW1  182   0.947   2.261   0.851 -1.2462  1.0181 -0.4153
   61SOL    HW2  183   0.779   2.265   0.882  0.4212  0.5959 -0.1038
   62SOL     OW  184   0.950   2.059   2.074 -0.0104 -0.3743 -0.0020
   62SOL    HW1  185   0.946   2.115   2.159 -1.5268 -0.4936 -1.9125
   62SOL    HW2  186   1.048   2.014   2.059  5.3049 -0.9510  0.0376
   63SOL     OW  187   1.463   1.857   0.509  0.2660 -0.3730  0.3739
   63SOL    HW1  188   1.536   1.897   0.449  1.3739 -1.2787 -0.7504
   63SOL    HW2  189   1.444   1.760   0.481  2.0459  2.1459 -2.1840
   64SOL     OW  190   1.618   1.421   0.410 -0.3779  0.1144  0.5449
   64SOL    HW1  191   1.605   1.396   0.312  0.9601 -0.3500  4.0548
   64SOL    HW2  192   1.681   1.353   0.450 -1.3351  0.5663 -1.3098
   65SOL     OW  193   1.627   2.100   2.332 -0.0281 -0.2856 -0.2674
   65SOL    HW1  194   1.663   2.007   2.321  0.5764 -0.7879 -0.5942
   65SOL    HW2  195   1.657   2.138   2.420 -1.0628 -1.4224 -0.4790
   66SOL     OW  196   0.472   0.908   1.243  0.0783 -0.4036 -0.4997
   66SOL    HW1  197   0.388   0.852   1.264 -1.5172 -2.6217 -0.8762
   66SOL    HW2  198   0.505   0.885   1.149  1.7282  2.0654 -0.2339
   67SOL     OW  199   2.193   2.559   0.509  0.8045 -0.1864  0.2507
   67SOL    HW1  200   2.203   2.656   0.534  0.6476 -1.9412 -3.4177
   67SOL    HW2  201   2.123   2.514   0.567  0.6366 -0.6997 -1.8538
   68SOL     OW  202   2.154   2.245   1.527 -0.8751 -0.4350 -0.1817
   68SOL    HW1  203   2.240   2.276   1.484 -0.7696 -0.6146  2.1819
   68SOL    HW2  204   2.160   2.152   1.556  0.9039  3.9023  3.4371
   69SOL     OW  205   2.473   2.214   2.823 -0.1122  0.0962 -0.7437
   69SOL    HW1  206   2.539   2.179   2.756  1.9184 -0.7191 -0.4560
   69SOL    HW2  207   2.379   2.212   2.790  1.3228  3.0193  1.2195
   70SOL     OW  208   0.134   1.178   2.568 -0.3545  0.5991 -0.2075
   70SOL    HW1  209   0.094   1.260   2.521 -1.2279 -1.1415 -0.2612
   70SOL    HW2  210   0.179   1.115   2.502 -1.6527 -0.0446  1.2871
   71SOL     OW  211   0.739   1.149   2.202  0.3556 -0.3576  0.3231
   71SOL    HW1  212   0.784   1.057   2.206 -2.0193  0.1265  0.7075
   71SOL    HW2  213   0.660   1.149   2.136 -2.3378  0.9398 -0.2803
   72SOL     OW  214   2.265   1.375   1.822 -0.3619 -0.7004 -0.2599
   72SOL    HW1  215   2.203   1.344   1.749  0.5945 -2.2143 -1.2673
   72SOL    HW2  216   2.361   1.360   1.794 -2.0607 -0.6841  0.4287
   73SOL     OW  217   0.878   1.904   3.003  0.1131 -0.2289 -1.0943
   73SOL    HW1  218   0.875   1.847   2.919 -1.4045 -1.3268 -0.5836
   73SOL    HW2  219   0.845   1.859   3.089  0.8924 -0.9292 -1.0973
   74SOL     OW  220   1.820   2.744   2.104  0.1393  0.1419  0.1186
   74SOL    HW1  221   1.897   2.764   2.035 -0.5811  0.0989 -1.2417
   74SOL    HW2  222   1.747   2.817   2.106  0.1934  0.6082  0.1919
   75SOL     OW  223   1.343   2.695   0.545  0.2858 -0.0055 -0.0973
   75SOL    HW1  224   1.392   2.619   0.499  2.4263  0.6238 -0.2525
   75SOL    HW2  225   1.276   2.744   0.488  0.5584 -0.5248  0.2984
   76SOL     OW  226   3.060   2.152   2.706 -0.0783 -0.4701 -0.1721
   76SOL    HW1  227   0.030   2.086   2.744 -0.7627  2.2340  0.0895
   76SOL    HW2  228   0.017   2.234   2.680  1.0220 -1.0340  0.0016
   77SOL     OW  229   0.014   2.457   1.305 -0.3809  0.3136  0.7335
   77SOL    HW1  230   0.102   2.445   1.253 -0.5253  0.5921 -0.3201
   77SOL    HW2  231   0.026   2.457   1.404 -2.5395 -2.0882 -1.3853
   78SOL     OW  232   2.509   0.871   0.149 -0.3045  0.2339 -0.0075
   78SOL    HW1  233   2.550   0.958   0.181  0.2443 -0.8139 -0.7203
   78SOL    HW2  234   2.534   0.837   0.053  0.0287 -2.7454 -0.7228
   79SOL     OW  235   0.078   1.900   2.809  0.6476 -0.5971  0.3422
   79SOL    HW1  236   0.064   1.809   2.760 -0.5982 -2.9788  2.5949
   79SOL    HW2  237   0.019   1.900   2.889  2.2499 -2.0882 -0.3799
   80SOL     OW  238   1.680   1.379   1.592  0.0971 -0.3428  0.0851
   80SOL    HW1  239   1.768   1.396   1.634 -0.1848  0.4437 -4.1797
   80SOL    HW2  240   1.636   1.454   1.543  0.2204 -1.1403 -1.8394
   81SOL     OW  241   1.937   1.084   2.330 -0.2633  0.5537 -0.5740
   81SOL    HW1  242   1.852   1.055   2.280 -0.7052 -2.9735 -0.8560
   81SOL    HW2  243   1.970   1.179   2.317  0.0057  2.3928  0.8017
   82SOL     OW  244   1.484   1.207   1.652  0.0741 -0.0897  0.4573
   82SOL    HW1  245   1.563   1.269   1.638 -1.7790  1.6101 -0.1019
   82SOL    HW2  246   1.443   1.217   1.747  2.9930  0.0055 -0.1904
   83SOL     OW  247   0.070   0.372   3.023 -0.5189 -0.0649 -0.5572
   83SOL    HW1  248   0.059   0.325   0.019 -0.3481 -0.7308  2.5912
   83SOL    HW2  249   0.055   0.308   2.947 -1.4077  2.0472 -0.0288
   84SOL     OW  250   0.254   1.416   3.057 -0.3793  0.5563 -0.1918
   84SOL    HW1  251   0.184   1.350   3.028  0.5252  1.5117  0.3364
   84SOL    HW2  252   0.217   1.455   0.050  0.7015 -2.3745 -0.4085
   85SOL     OW  253   2.178   1.485   2.060  0.3424 -0.4707 -0.2948
   85SOL    HW1  254   2.208   1.437   1.974 -1.0775 -0.1404 -2.1990
   85SOL    HW2  255   2.256   1.519   2.113  1.3024 -0.3191  0.0381
   86SOL     OW  256   0.624   0.852   1.007  0.5863 -0.4323 -0.1740
   86SOL    HW1  257   0.694   0.925   1.018  2.5245 -0.1880  1.9582
   86SOL    HW2  258   0.566   0.862   0.924  1.4534 -0.8826 -1.4457
   87SOL     OW  259   2.789   1.977   2.265 -0.1319 -0.1698 -0.2524
   87SOL    HW1  260   2.728   2.049   2.220  1.9451  0.0631 -1.8661
   87SOL    HW2  261   2.849   2.023   2.334  0.2713 -0.8790  1.5624
   88SOL     OW  262   0.256   2.833   0.087 -0.2342  0.3523  0.1708
   88SOL    HW1  263   0.267   2.832   0.188  0.9571  2.4354 -2.3905
   88SOL    HW2  264   0.343   2.800   0.049  1.5898  1.0328  3.6027
   89SOL     OW  265   1.531   0.552   0.167  0.4616  0.0353  0.2964
   89SOL    HW1  266   1.476   0.534   0.085  2.3487  0.5849  0.5603
   89SOL    HW2  267   1.582   0.638   0.162 -1.1456 -2.2891  1.7590
   90SOL     OW  268   2.959   1.523   2.462 -0.1787 -0.3975  0.0262
   90SOL    HW1  269   2.941   1.430   2.492  0.9598  0.4203 -0.2963
   90SOL    HW2  270   2.952   1.594   2.537  0.7520 -2.2568 -1.7754
   91SOL     OW  271   2.309   2.998   1.358 -0.0916 -0.3498  0.1883
   91SOL    HW1  272   2.270   2.962   1.448 -1.0053 -0.2272 -0.9062
   91SOL    HW2  273   2.255   3.087   1.333 -1.4317  3.1958 -1.8210
   92SOL     OW  274   2.245   1.462   1.047 -0.3838 -0.2011 -0.4785
   92SOL    HW1  275   2.216   1.556   1.073 -2.5185  0.5609 -0.1693
   92SOL    HW2  276   2.168   1.417   0.996  0.1974  0.6728 -0.0553
   93SOL     OW  277   0.094   1.482   0.193  0.1361 -0.3050 -0.6984
   93SOL    HW1  278   0.005   1.520   0.208  2.2043  0.0325  1.4438
   93SOL    HW2  279   0.163   1.557   0.200  0.6406  2.4324  0.5137
   94SOL     OW  280   1.200   2.702   1.666 -0.1029 -0.2681  0.6089
   94SOL    HW1  281   1.204   2.805   1.652 -1.1460  1.3874 -0.4106
   94SOL    HW2  282   1.288   2.654   1.666  1.9398 -4.5544 -1.2594
   95SOL     OW  283   0.263   0.749   0.817  0.0198  0.2110  0.4065
   95SOL    HW1  284   0.326   0.822   0.787  1.7847  0.4883  0.4576
   95SOL    HW2  285   0.233   0.757   0.913 -1.0205 -0.0234 -1.2330
   96SOL     OW  286   3.003   2.788   1.762 -0.0575 -0.1845  0.7406
   96SOL    HW1  287   3.068   2.870   1.751 -1.3067  0.9718 -0.0186
   96SOL    HW2  288   3.062   2.706   1.752 -0.1860  0.3169 -0.1936
   97SOL     OW  289   2.329   0.517   1.309 -0.2833 -0.3266 -0.4760
   97SOL    HW1  290   2.361   0.596   1.256  0.7057 -2.4425 -0.9769
   97SOL    HW2  291   2.361   0.430   1.264 -0.4046  2.3212 -0.4883
   98SOL     OW  292   2.880   2.530   1.662  0.1654 -0.8485  0.4479
   98SOL    HW1  293   2.840   2.568   1.579 -0.4534  1.6529  1.5045
   98SOL    HW2  294   2.975   2.495   1.641 -0.6722 -2.3288 -0.2676
   99SOL     OW  295   0.231   0.094   1.347  0.0292  0.4999 -0.1204
   99SOL    HW1  296   0.164   0.163   1.387 -1.5389 -2.3520  0.7515
   99SOL    HW2  297   0.326   0.130   1.345 -3.6254 -1.1760 -1.3463
  100SOL     OW  298   2.312   0.285   2.531  0.2961 -0.4176  0.0701
  100SOL    HW1  299   2.233   0.274   2.470 -1.1790 -3.1611 -1.1548
  100SOL    HW2  300   2.304   0.237   2.620  0.1103 -0.9258 -0.6014
  101SOL     OW  301   0.343   0.201   2.239 -0.0976  0.6274 -0.0637
  101SOL    HW1  302   0.429   0.241   2.201 -0.7817 -0.7913  1.2366
  101SOL    HW2  303   0.357   0.176   2.334 -0.3407 -0.7838  0.5349
  102SOL     OW  304   0.569   0.250   1.744  0.4510  0.2003 -0.4019
  102SOL    HW1  305   0.546   0.284   1.652 -0.8530 -0.5747 -2.7444
  102SOL    HW2  306   0.653   0.292   1.777 -0.4217 -0.4241 -1.9723
  103SOL     OW  307   1.040   0.827   2.390  0.0686  0.3976  0.3754
  103SOL    HW1  308   1.085   0.900   2.442 -1.0203 -0.4048 -2.5295
  103SOL    HW2  309   1.113   0.759   2.352 -0.6924  0.8884 -0.1252
  104SOL     OW  310   0.212   0.636   1.921  0.4148  0.6043  0.1556
  104SOL    HW1  311   0.219   0.698   1.839  0.5310  1.3690 -1.4431
  104SOL    HW2  312   0.212   0.694   2.005 -1.8370 -0.3108  2.3568
  105SOL     OW  313   2.271   1.803   1.759 -0.2171  0.3822 -0.2512
  105SOL    HW1  314   2.202   1.779   1.826  3.4733  1.7376 -0.1010
  105SOL    HW2  315   2.345   1.854   1.801  0.0891 -0.4294  0.1633
  106SOL     OW  316   1.695   0.150   0.500 -0.8265 -0.1812 -0.2610
  106SOL    HW1  317   1.658   0.155   0.592 -0.4883 -0.3186 -0.4085
  106SOL    HW2  318   1.666   0.222   0.438  0.4609 -1.3235  1.0586
  107SOL     OW  319   2.350   2.134   1.183  0.1599  0.6229 -0.5964
  107SOL    HW1  320   2.265   2.098   1.143  1.7606  0.0119 -0.2596
  107SOL    HW2  321   2.432   2.101   1.129  0.6580  1.1249  0.1095
  108SOL     OW  322   0.229   2.393   1.163  0.3465  0.2200  0.6100
  108SOL    HW1  323   0.248   2.408   1.064 -1.6761  1.2426 -1.1087
  108SOL    HW2  324   0.294   2.326   1.202 -1.3651  0.1657 -1.6832
  109SOL     OW  325   1.617   2.501   1.069 -0.1426  0.3977  0.0437
  109SOL    HW1  326   1.560   2.560   1.013  3.0125 -2.0952 -0.6156
  109SOL    HW2  327   1.662   2.556   1.143 -0.5291  0.8436  0.7977
  110SOL     OW  328   1.917   1.673   1.131 -0.0350  0.2255 -0.3923
  110SOL    HW1  329   2.014   1.661   1.159 -2.7565  1.4594 -1.6296
  110SOL    HW2  330   1.855   1.603   1.167 -0.0544 -0.4426 -2.2329
  111SOL     OW  331   1.313   2.222   1.914 -0.2377  0.5058 -0.2729
  111SOL    HW1  332   1.374   2.193   1.838 -1.9662 -1.0778 -0.4116
  111SOL    HW2  333   1.370   2.269   1.981 -0.0306  1.5659 -2.5953
  112SOL     OW  334   2.138   2.129   0.030 -0.0178 -0.2184  0.6710
  112SOL    HW1  335   2.126   2.040   3.081 -2.5650  0.1689  1.7161
  112SOL    HW2  336   2.237   2.155   0.037  1.1359  0.5371 -1.5978
  113SOL     OW  337   2.040   1.672   1.882 -0.4117  0.0643  0.0191
  113SOL    HW1  338   2.014   1.757   1.933 -0.8330 -1.7710 -1.0980
  113SOL    HW2  339   2.049   1.585   1.936  1.8024  0.2473  1.0519
  114SOL     OW  340   0.074   1.233   1.711 -0.6669 -0.1225 -0.5499
  114SOL    HW1  341   3.090   1.271   1.758 -0.2279 -1.1436 -2.3788
  114SOL    HW2  342   0.057   1.136   1.677 -1.3259  0.5221  1.4757
  115SOL     OW  343   3.068   1.032   0.101 -0.2504 -0.2412  0.1224
  115SOL    HW1  344   0.025   1.109   0.144 -1.5009  1.5133  2.1185
  115SOL    HW2  345   3.038   0.978   0.179  0.4877 -1.2520 -1.8025
  116SOL     OW  346   2.575   0.782   3.016  0.7272  0.0343  0.1463
  116SOL    HW1  347   2.509   0.720   2.966 -1.6065  0.9493  0.6694
  116SOL    HW2  348   2.670   0.759   2.998 -2.5573 -1.5180  1.0634
  117SOL     OW  349   2.860   2.355   0.030 -0.4264 -0.7497  0.3941
  117SOL    HW1  350   2.852   2.455   0.038  1.1966 -0.1331 -3.3525
  117SOL    HW2  351   2.855   2.329   3.027  0.0993  2.7931  0.4256
  118SOL     OW  352   0.470   2.347   2.850  0.1718 -0.7332  0.5735
  118SOL    HW1  353   0.492   2.266   2.906 -0.0933 -1.8125 -0.4454
  118SOL    HW2  354   0.390   2.405   2.885 -0.7543  0.1594  1.8676
  119SOL     OW  355   0.731   2.767   0.301  0.3366  0.8356  0.1204
  119SOL    HW1  356   0.665   2.724   0.363  0.3370  1.4379 -2.2243
  119SOL    HW2  357   0.672   2.802   0.221  1.2003 -2.9153 -0.1926
  120SOL     OW  358   1.199   0.828   0.142  0.1449  0.2630  0.2666
  120SOL    HW1  359   1.108   0.860   0.187 -1.5097  1.0950  0.9308
  120SOL    HW2  360   1.250   0.911   0.115  0.9681  1.0634  1.2631
  121SOL     OW  361   1.618   2.771   0.649 -0.2502 -0.1381 -0.2257
  121SOL    HW1  362   1.524   2.733   0.629 -1.8134  0.9419  0.3308
  121SOL    HW2  363   1.693   2.738   0.590 -1.7154  2.7815 -0.6113
  122SOL     OW  364   2.579   1.528   2.411  0.3587 -0.5656  0.0551
  122SOL    HW1  365   2.665   1.581   2.382 -0.5377  0.7788  0.5765
  122SOL    HW2  366   2.595   1.429   2.400  2.3293  3.4231 -0.4088
  123SOL     OW  367   1.297   1.349   1.242  0.2073  0.1426 -0.0671
  123SOL    HW1  368   1.271   1.304   1.330  0.9551 -0.5844 -1.0996
  123SOL    HW2  369   1.257   1.302   1.157  1.5580 -2.6418 -0.8821
  124SOL     OW  370   0.611   0.584   3.091  0.1725 -0.1199  0.0976
  124SOL    HW1  371   0.607   0.484   3.083 -1.4971 -0.4302  3.2806
  124SOL    HW2  372   0.576   0.634   3.007  3.5765  2.4583 -1.7989
  125SOL     OW  373   0.779   0.174   0.379  0.2481  0.2442 -0.0516
  125SOL    HW1  374   0.789   0.073   0.370 -2.7499  0.7469 -0.6870
  125SOL    HW2  375   0.684   0.210   0.362  0.5578  1.1828 -1.2532
  126SOL     OW  376   0.236   1.777   0.458 -0.1708 -0.4219 -0.1967
  126SOL    HW1  377   0.266   1.863   0.500 -3.6852  1.3659  0.3421
  126SOL    HW2  378   0.203   1.709   0.531 -0.9864 -1.0645  1.2489
  127SOL     OW  379   0.861   2.646   1.662 -0.2546  0.2722 -0.6603
  127SOL    HW1  380   0.762   2.652   1.639  1.4125 -0.8549  2.5510
  127SOL    HW2  381   0.894   2.740   1.673 -2.2029  0.3600 -1.0805
  128SOL     OW  382   1.261   1.603   0.233 -0.4223 -0.1523 -0.2674
  128SOL    HW1  383   1.196   1.526   0.255 -1.3273 -0.7825  1.5966
  128SOL    HW2  384   1.271   1.625   0.129  0.9204 -1.0131 -1.2014
  129SOL     OW  385   1.709   1.505   1.974 -0.2418 -0.7444  0.2806
  129SOL    HW1  386   1.632   1.527   1.909 -0.6206 -1.9350 -1.3953
  129SOL    HW2  387   1.783   1.461   1.919 -1.5394 -2.2812 -1.9379
  130SOL     OW  388   1.496   2.138   1.719  0.2982  0.2778 -0.5916
  130SOL    HW1  389   1.590   2.123   1.750 -0.1567  0.5343 -3.1340
  130SOL    HW2  390   1.474   2.060   1.660  0.2906 -0.0410  0.9470
  131SOL     OW  391   0.155   2.265   2.069 -0.0058  0.2609 -0.1620
  131SOL    HW1  392   0.128   2.256   1.973 -0.4528  4.7100 -0.6588
  131SOL    HW2  393   0.112   2.352   2.100 -1.0379  0.6507 -0.0601
  132SOL     OW  394   2.781   1.833   0.818 -0.6026  1.1232  0.8228
  132SOL    HW1  395   2.845   1.903   0.782  0.1467 -1.5980  2.0777
  132SOL    HW2  396   2.767   1.837   0.917  2.1036 -1.5935 -0.5028
  133SOL     OW  397   0.513   0.632   1.634  0.4707  0.4744  0.3603
  133SOL    HW1  398   0.583   0.652   1.562 -0.8492  2.7090  1.2898
  133SOL    HW2  399   0.563   0.632   1.722  0.1092 -1.2356 -0.0749
  134SOL     OW  400   2.425   1.599   0.098 -0.4947  0.3402 -0.1117
  134SOL    HW1  401   2.351   1.628   0.161  0.8600 -1.5665 -1.3615
  134SOL    HW2  402   2.387   1.597   0.006 -0.3801  3.7940  1.9467
  135SOL     OW  403   1.678   1.142   2.691 -0.5526  0.5833  0.3881
  135SOL    HW1  404   1.664   1.040   2.706  2.8902  0.9932 -0.7968
  135SOL    HW2  405   1.596   1.197   2.658 -1.4015  2.7101 -2.7404
  136SOL     OW  406   2.815   1.800   1.580 -0.1420 -0.3308  0.6393
  136SOL    HW1  407   2.859   1.712   1.553  1.1069  1.0501  2.4267
  136SOL    HW2  408   2.725   1.800   1.536 -0.2770 -0.2250  0.3278
  137SOL     OW  409   2.317   1.777   0.501 -0.2038  0.4444 -0.5093
  137SOL    HW1  410   2.316   1.691   0.554  3.5950  0.8277 -0.9923
  137SOL    HW2  411   2.353   1.861   0.543 -3.0305 -0.4437  1.7230
  138SOL     OW  412   2.833   0.692   0.744  0.2055  0.0707 -0.3971
  138SOL    HW1  413   2.830   0.701   0.642  0.1141 -0.5161 -0.9424
  138SOL    HW2  414   2.750   0.647   0.784 -0.8892 -1.6644  1.5118
  139SOL     OW  415   0.068   3.081   0.075  0.5662 -0.0834 -0.0784
  139SOL    HW1  416   0.146   3.032   0.033  1.0499  0.2763  1.0813
  139SOL    HW2  417   0.072   3.074   0.178  2.3773  1.4484  2.0607
  140SOL     OW  418   0.855   1.096   1.520 -0.0397  0.4985  0.1912
  140SOL    HW1  419   0.805   1.155   1.590 -0.9528 -1.1142  2.9347
  140SOL    HW2  420   0.805   1.012   1.513  3.4905  3.0504 -0.0928
  141SOL     OW  421   1.324   1.525   1.043 -0.3374 -0.3407 -0.3404
  141SOL    HW1  422   1.297   1.471   1.128 -0.5323  0.4018 -1.8811
  141SOL    HW2  423   1.268   1.610   1.031  2.3179  1.0750  3.7874
  142SOL     OW  424   1.136   0.372   1.210 -0.1497  0.3732 -0.5898
  142SOL    HW1  425   1.218   0.309   1.233  4.5599 -1.5184  0.1315
  142SOL    HW2  426   1.151   0.453   1.270  0.6339 -0.8092 -1.7469
  143SOL     OW  427   0.292   1.052   2.392 -0.2670  0.5771 -0.3733
  143SOL    HW1  428   0.387   1.056   2.432 -1.1918  1.0915  2.9275
  143SOL    HW2  429   0.294   1.105   2.309  2.5451 -0.7211  0.2168
  144SOL     OW  430   2.541   0.114   0.557 -0.4211 -0.0041 -0.3035
  144SOL    HW1  431   2.549   0.163   0.648 -0.3796 -0.5482 -1.0000
  144SOL    HW2  432   2.625   0.106   0.504 -1.6766 -0.4161  1.3087
  145SOL     OW  433   2.207   0.148   2.766  0.3373  0.6837 -0.1213
  145SOL    HW1  434   2.299   0.113   2.795  0.5339  0.1285 -2.2789
  145SOL    HW2  435   2.160   0.201   2.846 -0.8545  0.4177  1.5817
  146SOL     OW  436   2.937   2.966   0.474 -0.2437  0.0208 -0.7870
  146SOL    HW1  437   2.873   2.921   0.412 -0.5779 -2.1706 -1.8208
  146SOL    HW2  438   2.946   2.939   0.572  1.5595 -0.1640 -3.6747
  147SOL     OW  439   0.849   1.038   2.618  0.4060 -0.0055 -0.4851
  147SOL    HW1  440   0.851   1.106   2.539  2.0583  2.2758  0.5512
  147SOL    HW2  441   0.827   0.944   2.584  0.5077  0.8175  0.4554
  148SOL     OW  442   1.510   0.172   3.059 -0.4682  1.0018  0.2193
  148SOL    HW1  443   1.515   0.177   0.066 -2.8259  0.4438  0.7718
  148SOL    HW2  444   1.441   0.236   3.022 -1.4402 -2.7684  0.9310
  149SOL     OW  445   1.595   0.077   1.982  0.3092  0.0594 -1.0402
  149SOL    HW1  446   1.552   0.137   2.058 -0.7586  2.5149  0.0893
  149SOL    HW2  447   1.627   0.142   1.909  1.1246 -0.9626  0.3323
  150SOL     OW  448   2.163   2.843   2.930 -0.2469  0.2690  0.0022
  150SOL    HW1  449   2.244   2.779   2.915 -0.3604 -0.5052 -1.3495
  150SOL    HW2  450   2.087   2.787   2.979  0.3704 -3.6094  0.3002
  151SOL     OW  451   0.635   1.612   3.053 -0.8135 -0.2336 -0.2491
  151SOL    HW1  452   0.537   1.624   3.057 -0.2365 -0.5501  1.1030
  151SOL    HW2  453   0.667   1.519   3.040  0.7578 -3.5484 -4.7325
  152SOL     OW  454   0.488   0.089   1.202  0.1261  0.1467  0.2403
  152SOL    HW1  455   0.556   0.046   1.142  0.1359  2.4693 -1.9677
  152SOL    HW2  456   0.501   0.066   1.300  0.0393  0.1777  1.0236
  153SOL     OW  457   2.520   2.665   1.892  0.2276  0.0517  0.3249
  153SOL    HW1  458   2.612   2.703   1.911 -3.0986 -0.7641  1.4125
  153SOL    HW2  459   2.458   2.739   1.861  0.3394 -0.5392 -0.5623
  154SOL     OW  460   2.359   2.884   2.594  0.5571 -0.1248 -0.6847
  154SOL    HW1  461   2.437   2.907   2.654 -1.2546 -0.8459  0.0418
  154SOL    HW2  462   2.360   2.789   2.559 -2.8797  1.0815 -0.8876
  155SOL     OW  463   0.217   1.277   0.595 -0.3716  0.3671 -0.1326
  155SOL    HW1  464   0.137   1.335   0.593 -0.6149  0.9505 -1.4192
  155SOL    HW2  465   0.281   1.319   0.664 -1.0753  2.1192 -0.3301
  156SOL     OW  466   2.631   1.734   0.609  0.2052 -0.0571  0.7027
  156SOL    HW1  467   2.684   1.756   0.691  1.2022 -0.3908 -0.2030
  156SOL    HW2  468   2.693   1.739   0.533 -2.7953  0.8718 -0.9804
  157SOL     OW  469   1.001   0.499   0.469  0.5673 -0.0438  0.1760
  157SOL    HW1  470   0.984   0.492   0.568 -0.7840 -0.1340 -0.4010
  157SOL    HW2  471   1.093   0.467   0.446 -3.3095  1.0746  1.0859
  158SOL     OW  472   1.717   1.013   1.100  0.2054  0.2578  0.3406
  158SOL    HW1  473   1.644   0.965   1.045  1.0924  0.0826 -0.8625
  158SOL    HW2  474   1.666   1.082   1.159 -1.9270  0.3816  0.2736
  159SOL     OW  475   0.190   0.610   0.252  0.3958  0.3041 -0.4308
  159SOL    HW1  476   0.208   0.709   0.273 -1.6546  2.5367 -0.7645
  159SOL    HW2  477   0.227   0.582   0.160  0.1517 -1.7452 -0.8626
  160SOL     OW  478   2.331   2.000   1.984 -0.0251 -0.1704  0.0814
  160SOL    HW1  479   2.235   1.962   1.999  0.7372 -2.5929 -0.4722
  160SOL    HW2  480   2.334   2.098   2.018  0.5787 -0.2422  0.8853
  161SOL     OW  481   0.451   1.044   2.945 -0.0662  1.0112 -0.3540
  161SOL    HW1  482   0.472   0.992   2.862  3.1248  0.9388 -0.4234
  161SOL    HW2  483   0.436   0.978   3.026  2.5027 -0.2858  1.0797
  162SOL     OW  484   0.407   0.444   1.937 -0.1239  0.0524  0.1118
  162SOL    HW1  485   0.443   0.391   1.862  1.6945  0.6586 -0.2955
  162SOL    HW2  486   0.330   0.501   1.910  0.1206  0.8269  1.2087
  163SOL     OW  487   2.712   0.041   2.719 -0.7018 -0.1745  0.0628
  163SOL    HW1  488   2.738   0.130   2.759  0.5448  0.1482 -1.4373
  163SOL    HW2  489   2.722   0.043   2.616  1.7451 -1.1440  0.2924
  164SOL     OW  490   2.091   2.200   0.310  0.0440  0.0365  0.0591
  164SOL    HW1  491   2.081   2.185   0.208 -0.7779  1.3278 -1.9820
  164SOL    HW2  492   2.171   2.263   0.331  0.8038 -0.1729  0.4141
  165SOL     OW  493   0.421   0.259   0.992 -0.3284  0.1307 -0.5664
  165SOL    HW1  494   0.506   0.304   0.957 -0.7643 -0.5671 -0.9224
  165SOL    HW2  495   0.443   0.199   1.075 -0.0039 -2.6106  2.8484
  166SOL     OW  496   2.432   0.514   0.355  0.1508 -0.0104  0.3057
  166SOL    HW1  497   2.467   0.419   0.339  1.1587 -0.0709 -2.1684
  166SOL    HW2  498   2.348   0.511   0.414 -1.0828 -0.1687 -0.3215
  167SOL     OW  499   2.170   0.813   0.133 -0.2836  0.3090 -0.1601
  167SOL    HW1  500   2.257   0.866   0.113  0.8267 -0.5050  0.8915
  167SOL    HW2  501   2.198   0.717   0.137 -0.9797  1.6728 -1.8743
  168SOL     OW  502   1.359   2.768   2.312  0.3330 -0.6118 -0.7483
  168SOL    HW1  503   1.271   2.718   2.310 -0.0819  2.7695  1.2616
  168SOL    HW2  504   1.429   2.704   2.360  0.0202 -4.2903  0.6119
  169SOL     OW  505   0.605   2.015   0.590  0.4514 -0.3671  0.2126
  169SOL    HW1  506   0.652   2.092   0.548 -1.9151 -0.2466  0.0149
  169SOL    HW2  507   0.665   1.973   0.666  3.0547 -1.8329  2.1016
  170SOL     OW  508   2.927   0.768   1.289  0.1109  0.2599 -0.0195
  170SOL    HW1  509   2.878   0.794   1.372  0.5243 -0.8181 -1.1071
  170SOL    HW2  510   2.883   0.793   1.204  1.9474 -0.8001  0.5907
  171SOL     OW  511   2.639   1.266   2.375  0.1161 -0.2017  0.3021
  171SOL    HW1  512   2.612   1.204   2.450 -1.3450  2.1531  1.6198
  171SOL    HW2  513   2.692   1.213   2.303  2.7134  0.1016  0.7222
  172SOL     OW  514   1.001   1.877   1.293  0.4234  0.2162 -0.1058
  172SOL    HW1  515   1.028   1.967   1.325 -0.3388 -2.6799  0.3641
  172SOL    HW2  516   1.074   1.820   1.336  1.7392 -0.9435  2.6941
  173SOL     OW  517   2.017   1.906   3.004  0.2203 -0.1256 -0.1052
  173SOL    HW1  518   1.939   1.969   3.013 -1.7691 -2.7982 -1.8925
  173SOL    HW2  519   2.018   1.834   3.074 -2.3947 -1.3375 -0.0968
  174SOL     OW  520   1.662   0.861   2.721 -0.4921  0.2305  0.5652
  174SOL    HW1  521   1.732   0.789   2.704 -0.5743 -1.0371  0.6844
  174SOL    HW2  522   1.592   0.836   2.787  1.0871  1.6694  1.2508
  175SOL     OW  523   0.963   1.604   1.084  0.1087  0.0294 -0.2629
  175SOL    HW1  524   0.994   1.507   1.084  1.7987 -1.3947 -0.0841
  175SOL    HW2  525   0.938   1.635   1.176 -1.1813 -0.6288 -1.9335
  176SOL     OW  526   1.239   0.200   0.105 -0.3152  0.1259 -0.6497
  176SOL    HW1  527   1.170   0.240   0.168  1.3932 -0.9491  0.9904
  176SOL    HW2  528   1.220   0.246   0.014 -0.7107  2.7211 -1.6264
  177SOL     OW  529   0.313   1.641   0.236 -0.2511 -0.1162  0.0608
  177SOL    HW1  530   0.283   1.694   0.320 -0.1971  1.3063  0.5907
  177SOL    HW2  531   0.410   1.615   0.257  0.1300  1.1916 -0.8352
  178SOL     OW  532   3.020   2.502   2.505 -0.3037 -0.0539 -0.2884
  178SOL    HW1  533   2.983   2.573   2.566 -0.6365 -0.2550  0.2772
  178SOL    HW2  534   3.081   2.443   2.558 -0.8271 -0.6689  2.6981
  179SOL     OW  535   2.634   2.874   2.715  0.3779  0.2829 -0.2155
  179SOL    HW1  536   2.646   2.854   2.613  1.5354 -0.6286 -3.1098
  179SOL    HW2  537   2.668   2.967   2.738  2.3200  2.0648  1.0182
  180SOL     OW  538   2.234   0.417   1.003 -0.1284 -0.0979 -0.5160
  180SOL    HW1  539   2.152   0.459   0.968 -0.3354 -1.4003 -0.1267
  180SOL    HW2  540   2.319   0.460   0.961 -2.6516 -0.3616 -1.4396
  181SOL     OW  541   2.698   0.469   2.631 -0.4578  0.5529 -0.0985
  181SOL    HW1  542   2.793   0.440   2.665  2.4414  0.9912 -0.1328
  181SOL    HW2  543   2.650   0.383   2.597 -2.7981 -2.2527 -1.4264
  182SOL     OW  544   2.250   2.034   2.402  0.0392  0.0913  0.9248
  182SOL    HW1  545   2.259   2.026   2.505  0.6911  1.3599 -0.7957
  182SOL    HW2  546   2.197   2.115   2.366  0.4761  3.4394  2.1709
  183SOL     OW  547   2.234   0.588   1.915 -0.1521  0.1171  0.1105
  183SOL    HW1  548   2.302   0.647   1.872 -1.4668 -1.4647 -0.4291
  183SOL    HW2  549   2.150   0.641   1.934  2.4856  0.4477 -2.7424
  184SOL     OW  550   0.367   1.761   0.818 -0.3576  0.0394  0.0167
  184SOL    HW1  551   0.419   1.680   0.852  0.0133  1.0126 -1.7156
  184SOL    HW2  552   0.283   1.729   0.770  0.0433 -0.5694 -1.7210
  185SOL     OW  553   2.839   0.173   0.637 -0.2918 -0.1277 -0.2133
  185SOL    HW1  554   2.874   0.081   0.666  2.8817 -0.2280  0.5141
  185SOL    HW2  555   2.804   0.167   0.541  0.9319 -3.3724 -1.9609
  186SOL     OW  556   2.319   2.469   2.672 -0.0063 -0.1476  0.3876
  186SOL    HW1  557   2.296   2.375   2.706  3.8546 -0.0890  2.8157
  186SOL    HW2  558   2.261   2.494   2.593  0.2938 -1.5227  0.8531
  187SOL     OW  559   0.633   1.701   0.704 -0.1774 -0.5562  0.1540
  187SOL    HW1  560   0.549   1.758   0.686  1.4617  0.0138 -1.7512
  187SOL    HW2  561   0.696   1.757   0.762 -2.8347 -0.7213 -0.7573
  188SOL     OW  562   1.989   1.577   0.729  0.0080 -0.6372  0.3543
  188SOL    HW1  563   1.907   1.563   0.665  0.9245  1.3651 -1.7679
  188SOL    HW2  564   1.967   1.657   0.791 -0.9362  1.4798 -0.4268
  189SOL     OW  565   2.811   1.576   2.862 -0.0848 -0.3697 -0.4422
  189SOL    HW1  566   2.870   1.492   2.849 -1.1100 -1.7665 -1.7162
  189SOL    HW2  567   2.716   1.544   2.866  2.1309  0.2663 -1.5264
  190SOL     OW  568   2.483   0.420   2.292  0.6588 -0.2563 -0.1274
  190SOL    HW1  569   2.428   0.389   2.374 -0.1182  2.4259 -0.9846
  190SOL    HW2  570   2.419   0.472   2.230  2.0681  1.0644  2.0179
  191SOL     OW  571   1.080   0.398   2.258 -0.4517  0.9173  0.1527
  191SOL    HW1  572   1.123   0.306   2.248 -0.8715  0.4372  0.3356
  191SOL    HW2  573   1.010   0.408   2.332 -0.3826 -1.0610 -0.1497
  192SOL     OW  574   0.984   1.621   1.776 -0.6808  0.1339 -0.2195
  192SOL    HW1  575   0.974   1.602   1.679 -1.7547 -1.2967  3.8186
  192SOL    HW2  576   0.920   1.693   1.810 -0.7783 -0.5228  0.5473
  193SOL     OW  577   1.196   2.805   0.930  0.1902 -0.1967 -0.6920
  193SOL    HW1  578   1.098   2.825   0.952  0.0023  1.2730 -0.3783
  193SOL    HW2  579   1.192   2.729   0.862 -0.5500 -1.2386  1.8488
  194SOL     OW  580   0.801   1.786   2.167 -0.4117 -0.4965 -0.3849
  194SOL    HW1  581   0.865   1.844   2.228 -0.7847 -0.6734  1.8682
  194SOL    HW2  582   0.834   1.785   2.065  1.4657  0.6233 -0.5516
  195SOL     OW  583   2.199   0.514   0.513 -0.1111  0.2646  0.0787
  195SOL    HW1  584   2.104   0.515   0.468 -0.9325 -2.3011 -3.0664
  195SOL    HW2  585   2.199   0.561   0.606 -0.5012  1.8023  0.8952
  196SOL     OW  586   1.149   1.589   2.165 -0.1540  0.3160 -0.2772
  196SOL    HW1  587   1.129   1.632   2.257  0.8192  2.6569  2.8015
  196SOL    HW2  588   1.071   1.538   2.123 -0.4139  0.3790  1.0917
  197SOL     OW  589   0.051   0.370   1.939 -0.5611 -0.2571  0.3415
  197SOL    HW1  590   0.092   0.287   1.980 -0.9318 -0.8269  1.1283
  197SOL    HW2  591   0.123   0.446   1.931  1.2793 -0.1595  0.8657
  198SOL     OW  592   0.321   1.160   0.977  0.3655  0.5547  0.5654
  198SOL    HW1  593   0.262   1.164   0.894  2.0468  0.7765  3.3294
  198SOL    HW2  594   0.260   1.177   1.057  1.2238  1.8011 -0.2342
  199SOL     OW  595   0.374   2.453   0.931 -1.0632 -0.3465  0.2409
  199SOL    HW1  596   0.400   2.460   0.832 -0.6239 -0.6261 -1.0281
  199SOL    HW2  597   0.408   2.529   0.985 -0.1295 -0.0184 -0.8176
  200SOL     OW  598   1.709   1.749   2.693 -0.2864  0.8022 -0.6847
  200SOL    HW1  599   1.801   1.786   2.673 -2.5693  2.9652  1.9427
  200SOL    HW2  600   1.713   1.696   2.778 -0.6825  2.0160  0.0992
  201SOL     OW  601   0.424   2.511   1.665 -0.4616  0.3273  0.3807
  201SOL    HW1  602   0.486   2.488   1.588  0.4939 -0.5704  2.5309
  201SOL    HW2  603   0.350   2.446   1.673  2.5985  3.1663  0.4017
  202SOL     OW  604   1.138   2.986   2.848 -0.0305 -0.4374  0.3917
  202SOL    HW1  605   1.064   2.919   2.875 -1.9751 -1.9857  1.1587
  202SOL    HW2  606   1.127   3.025   2.756  0.5247 -4.9914  1.3880
  203SOL     OW  607   1.502   0.315   2.115 -0.0647 -0.0958  0.6483
  203SOL    HW1  608   1.440   0.360   2.045  0.6584 -0.4823  1.5920
  203SOL    HW2  609   1.590   0.362   2.115 -2.3960 -0.0316  0.2141
  204SOL     OW  610   0.690   0.899   1.428 -0.1532  0.3750  0.1459
  204SOL    HW1  611   0.702   0.796   1.443 -0.9523  2.3310  2.1071
  204SOL    HW2  612   0.636   0.920   1.344  1.6671  0.7280 -1.0132
  205SOL     OW  613   1.967   1.010   2.722  0.0980  0.7155 -0.1227
  205SOL    HW1  614   1.869   1.022   2.708  2.8451 -0.9558  0.8228
  205SOL    HW2  615   2.000   0.954   2.638 -2.0941 -1.3017 -2.1168
  206SOL     OW  616   0.491   2.104   2.989  0.0104 -0.0184  0.2617
  206SOL    HW1  617   0.435   2.086   3.072  2.5452  0.3139 -0.2455
  206SOL    HW2  618   0.492   2.020   2.935  0.9372  0.5453 -0.6389
  207SOL     OW  619   0.297   0.121   1.739  0.3327  0.0761  0.1292
  207SOL    HW1  620   0.255   0.196   1.685 -1.1676  0.6366  0.1041
  207SOL    HW2  621   0.367   0.066   1.691 -3.2704  1.2339  4.1032
  208SOL     OW  622   0.574   2.463   1.462  0.0514 -0.2390  0.0965
  208SOL    HW1  623   0.503   2.504   1.400 -1.8292  1.5912  0.0571
  208SOL    HW2  624   0.660   2.457   1.408 -0.2244  0.1096  3.5733
  209SOL     OW  625   1.472   2.760   2.970 -0.1476  0.1227 -0.1669
  209SOL    HW1  626   1.466   2.741   3.068  2.0919  2.6172 -1.5820
  209SOL    HW2  627   1.471   2.859   2.953 -0.0139 -0.5457  1.7413
  210SOL     OW  628   2.743   1.274   1.712  0.3254  0.1548  0.0750
  210SOL    HW1  629   2.822   1.300   1.766 -0.1392 -2.7877 -0.8405
  210SOL    HW2  630   2.684   1.354   1.689 -0.3717  1.6002  1.1386
  211SOL     OW  631   1.361   0.170   1.660  0.1764 -0.0438 -0.1975
  211SOL    HW1  632   1.422   0.213   1.730  0.8944  0.2652  4.4456
  211SOL    HW2  633   1.413   0.120   1.591 -1.8091 -0.0897  1.2749
  212SOL     OW  634   0.945   2.199   1.626  0.3266  0.3705  0.5013
  212SOL    HW1  635   0.859   2.222   1.674  1.2549  0.2796  0.0670
  212SOL    HW2  636   1.024   2.245   1.663 -2.5784  0.7600 -3.9942
  213SOL     OW  637   2.582   0.450   2.018  0.2251  0.3803  0.3790
  213SOL    HW1  638   2.635   0.533   2.041 -0.8441  1.5588 -3.4971
  213SOL    HW2  639   2.528   0.424   2.102  1.2145 -0.8366  0.0643
  214SOL     OW  640   0.825   1.817   1.859  0.0431  0.7594 -0.0630
  214SOL    HW1  641   0.894   1.876   1.807  1.4234  0.9379 -2.2494
  214SOL    HW2  642   0.736   1.869   1.861 -0.0584 -1.2734  0.0877
  215SOL     OW  643   2.838   1.860   1.144  0.0681  0.0370  0.2318
  215SOL    HW1  644   2.920   1.824   1.187  1.1269  4.9135  2.1427
  215SOL    HW2  645   2.846   1.960   1.139  0.5216 -1.3255  1.1587
  216SOL     OW  646   2.808   0.777   1.053 -0.5638 -0.4356  0.0015
  216SOL    HW1  647   2.757   0.694   1.027 -1.7704 -1.2630  0.0484
  216SOL    HW2  648   2.867   0.812   0.983  0.0806 -0.3149  0.5740
  217SOL     OW  649   2.491   0.174   1.403 -0.0898  0.1979  0.3402
  217SOL    HW1  650   2.431   0.215   1.333 -0.5064  0.2900 -0.4470
  217SOL    HW2  651   2.568   0.121   1.364  0.6087 -1.4710  2.8960
  218SOL     OW  652   1.606   2.277   1.206  0.3287 -0.0027 -0.2822
  218SOL    HW1  653   1.568   2.193   1.158  0.5360 -0.4650 -2.5296
  218SOL    HW2  654   1.604   2.361   1.149 -0.0018 -0.1131 -0.8867
  219SOL     OW  655   1.666   2.214   0.244 -0.1358 -0.1052 -0.0403
  219SOL    HW1  656   1.745   2.254   0.294 -0.2693 -2.3252  0.1288
  219SOL    HW2  657   1.661   2.247   0.147 -0.6551  1.6476 -0.8249
  220SOL     OW  658   1.885   2.476   0.135 -0.0047  0.0601  0.5004
  220SOL    HW1  659   1.817   2.544   0.167  0.3168 -1.2021 -1.7058
  220SOL    HW2  660   1.910   2.411   0.207 -0.0275  3.1214 -1.5200
  221SOL     OW  661   2.975   2.329   0.838  0.0021 -0.1027 -0.0788
  221SOL    HW1  662   3.049   2.262   0.810  2.3045 -1.1797 -0.9316
  221SOL    HW2  663   2.881   2.289   0.846 -1.1699 -0.2945  2.2836
  222SOL     OW  664   1.804   2.482   0.834 -0.0754  0.5694 -0.0430
  222SOL    HW1  665   1.768   2.464   0.926 -0.9478 -0.4098 -2.3239
  222SOL    HW2  666   1.734   2.460   0.762  0.5221  0.9943 -1.8046
  223SOL     OW  667   0.715   2.569   2.351  0.2133  0.6981 -0.4247
  223SOL    HW1  668   0.635   2.626   2.323 -0.6856 -3.5811  2.4987
  223SOL    HW2  669   0.733   2.493   2.287  1.6740  0.8690  0.3259
  224SOL     OW  670   3.041   1.776   1.298  0.3394 -0.2205  0.4009
  224SOL    HW1  671   3.011   1.698   1.357  0.5227  0.8957 -0.6224
  224SOL    HW2  672   3.041   1.865   1.349  2.9636  2.9260 -0.0462
  225SOL     OW  673   2.242   1.800   0.843 -0.6988 -0.1360  0.4286
  225SOL    HW1  674   2.257   1.718   0.778 -1.1271 -1.1873 -1.7186
  225SOL    HW2  675   2.146   1.829   0.841  1.7337 -0.2158 -1.3780
  226SOL     OW  676   1.488   2.484   0.425  0.5890  0.1048  0.1242
  226SOL    HW1  677   1.560   2.516   0.361 -1.5598  0.5644 -1.3942
  226SOL    HW2  678   1.399   2.478   0.378 -0.2364 -2.1529  0.1482
  227SOL     OW  679   1.629   0.856   1.309  0.0427 -0.1872  0.5322
  227SOL    HW1  680   1.533   0.879   1.297  1.2648  1.2248 -0.4200
  227SOL    HW2  681   1.677   0.910   1.234  1.9105  1.5327 -2.7873
  228SOL     OW  682   1.457   0.549   1.926  0.3954 -0.0627  0.2554
  228SOL    HW1  683   1.498   0.591   2.012  0.4565  0.3865 -1.7368
  228SOL    HW2  684   1.439   0.620   1.857  1.2982 -0.6097 -0.7281
  229SOL     OW  685   2.837   0.758   2.908 -0.6437 -0.5445  0.4625
  229SOL    HW1  686   2.920   0.715   2.949  1.1383 -1.8113 -0.7739
  229SOL    HW2  687   2.844   0.773   2.805 -2.8802  0.6017 -2.8776
  230SOL     OW  688   1.031   1.340   1.076 -0.1845 -0.1935 -0.6215
  230SOL    HW1  689   1.095   1.275   1.030 -1.1517 -1.3438  2.6496
  230SOL    HW2  690   0.984   1.291   1.155 -0.7662  1.1893  0.9953
  231SOL     OW  691   2.489   2.942   2.094  0.2815 -0.1223  0.3181
  231SOL    HW1  692   2.572   2.922   2.152  3.3468  1.9310 -0.0627
  231SOL    HW2  693   2.451   3.034   2.114 -0.2600  0.2226 -0.8969
  232SOL     OW  694   0.379   2.132   0.361  0.1047 -0.0805 -0.2105
  232SOL    HW1  695   0.372   2.119   0.463 -0.6623 -2.3868  0.2306
  232SOL    HW2  696   0.469   2.183   0.347  1.0445 -1.0221  2.4048
  233SOL     OW  697   1.185   2.320   2.339 -0.0193 -0.4082 -0.1650
  233SOL    HW1  698   1.198   2.399   2.407 -2.0651  0.3880 -1.8013
  233SOL    HW2  699   1.088   2.296   2.329  0.5076  1.2888 -0.3212
  234SOL     OW  700   0.821   1.428   1.871 -0.1135 -0.3428  0.4737
  234SOL    HW1  701   0.859   1.407   1.959  0.9711  2.3445 -0.6729
  234SOL    HW2  702   0.882   1.501   1.831 -0.0883 -0.9479  0.2836
  235SOL     OW  703   0.560   1.549   1.936 -0.0041  0.3608  0.4394
  235SOL    HW1  704   0.650   1.516   1.899 -3.3155  0.4508  0.0721
  235SOL    HW2  705   0.554   1.647   1.961 -1.9260  1.0942 -0.4508
  236SOL     OW  706   1.526   2.570   2.441  0.0361  0.0472  0.7554
  236SOL    HW1  707   1.506   2.477   2.402 -0.6403  0.9991  0.7398
  236SOL    HW2  708   1.625   2.594   2.435  0.4331 -3.0829  2.0965
  237SOL     OW  709   1.413   3.066   0.474  0.5244 -0.6745  0.0756
  237SOL    HW1  710   1.409   0.073   0.494 -0.1785  1.6622  1.6930
  237SOL    HW2  711   1.426   3.012   0.560  0.1443 -1.2046  1.9246
  238SOL     OW  712   0.819   0.770   2.822  0.6532 -0.7691  0.0822
  238SOL    HW1  713   0.865   0.710   2.890 -0.6685  1.1392  0.2012
  238SOL    HW2  714   0.753   0.832   2.870 -3.1427 -0.3187  0.6250
  239SOL     OW  715   0.285   0.813   2.122  0.7882 -0.1164 -0.1315
  239SOL    HW1  716   0.382   0.806   2.106 -2.5837  0.7870  2.9291
  239SOL    HW2  717   0.269   0.773   2.216  1.5613 -1.8156  4.0994
  240SOL     OW  718   2.377   2.571   0.733  0.4460 -0.1297  0.2202
  240SOL    HW1  719   2.339   2.626   0.653  0.3336  1.0695  0.6978
  240SOL    HW2  720   2.433   2.624   0.801  1.9325 -0.2905  1.6907
  241SOL     OW  721   1.308   1.169   1.452  0.0565 -0.4490  0.2566
  241SOL    HW1  722   1.216   1.201   1.476 -0.9753 -0.5211  1.5984
  241SOL    HW2  723   1.368   1.156   1.533  0.8108  2.1486 -2.1980
  242SOL     OW  724   0.136   1.080   0.756 -0.4813 -0.2980  0.5199
  242SOL    HW1  725   0.062   1.012   0.760  0.3080  0.5322 -3.1117
  242SOL    HW2  726   0.120   1.148   0.682  1.9516 -1.5313  0.6297
  243SOL     OW  727   0.264   0.724   1.255  0.3543  0.8419  0.7093
  243SOL    HW1  728   0.225   0.704   1.347 -0.2732  1.1941 -1.7194
  243SOL    HW2  729   0.281   0.638   1.195 -1.6038 -1.2251 -1.1879
  244SOL     OW  730   0.930   0.623   3.011  0.1332 -0.2090  0.1410
  244SOL    HW1  731   0.879   0.652   0.001 -0.8968 -0.0195  0.4252
  244SOL    HW2  732   0.945   0.523   3.026  0.1099  0.5672  1.4760
  245SOL     OW  733   1.932   0.821   0.001 -0.0684  0.4487  0.5194
  245SOL    HW1  734   2.022   0.818   0.047  2.4146 -2.0811 -1.8879
  245SOL    HW2  735   1.914   0.916   3.056 -0.2049  3.7345  0.2305
  246SOL     OW  736   2.977   0.855   1.989  0.2091  0.2958 -0.1410
  246SOL    HW1  737   2.889   0.904   1.983  1.1002 -0.2340  0.4504
  246SOL    HW2  738   3.052   0.924   2.005 -1.9012 -0.2964  0.1877
  247SOL     OW  739   0.480   2.996   1.973  0.2117 -0.2726 -0.1569
  247SOL    HW1  740   0.383   2.983   1.998  1.5231  0.5122  3.2669
  247SOL    HW2  741   0.530   2.965   2.055  0.3477 -0.3636  2.8002
  248SOL     OW  742   0.540   1.406   2.192  0.2518  0.1128  0.0153
  248SOL    HW1  743   0.578   1.441   2.106 -0.7419  0.1697  1.2442
  248SOL    HW2  744   0.483   1.323   2.175 -2.4316  0.2743  0.7681
  249SOL     OW  745   0.367   0.308   2.861 -0.7417 -0.0333  0.0328
  249SOL    HW1  746   0.364   0.383   2.790  1.1575  1.1697  1.9783
  249SOL    HW2  747   0.282   0.291   2.910  0.6306  0.9514 -2.8471
  250SOL     OW  748   0.075   0.162   2.865  0.2425 -0.0966 -0.3471
  250SOL    HW1  749   0.078   0.072   2.915 -1.5906 -5.0493 -1.0922
  250SOL    HW2  750   0.077   0.149   2.765 -0.7771  0.6790 -0.4199
  251SOL     OW  751   0.156   1.639   0.677  0.1641 -1.1722  0.5519
  251SOL    HW1  752   0.124   1.547   0.677 -1.6481  0.0499 -0.1634
  251SOL    HW2  753   0.087   1.704   0.718  2.3925  3.0436 -0.5500
  252SOL     OW  754   1.478   2.384   2.070 -0.2806  0.1300  0.1135
  252SOL    HW1  755   1.557   2.441   2.039  2.1826 -0.8712 -0.3844
  252SOL    HW2  756   1.490   2.366   2.168 -0.3864 -0.7504 -2.0450
  253SOL     OW  757   1.521   1.982   2.677  0.4758 -0.2932 -0.3827
  253SOL    HW1  758   1.587   1.903   2.678  0.4112  1.7563 -0.9095
  253SOL    HW2  759   1.432   1.947   2.640 -1.0599 -2.5513 -0.3237
  254SOL     OW  760   0.293   1.529   1.893 -0.3768  0.2356  0.3363
  254SOL    HW1  761   0.282   1.524   1.791  1.2896 -1.3814 -0.7104
  254SOL    HW2  762   0.394   1.536   1.912 -0.3745  1.3690 -0.9497
  255SOL     OW  763   0.922   2.930   1.442 -0.0022  0.6971  0.0730
  255SOL    HW1  764   0.975   2.850   1.408  0.0963  1.8365 -0.6714
  255SOL    HW2  765   0.951   2.953   1.539 -1.0287  1.1781 -0.7378
  256SOL     OW  766   2.919   2.449   1.117  0.2289  0.9043 -0.6527
  256SOL    HW1  767   2.986   2.448   1.192 -0.6421 -3.1153 -1.2954
  256SOL    HW2  768   2.931   2.369   1.057 -0.2700  0.4876 -0.3071
  257SOL     OW  769   0.203   2.893   2.781 -0.2666  0.3430  0.4772
  257SOL    HW1  770   0.273   2.953   2.817 -2.4358 -2.9222  2.3883
  257SOL    HW2  771   0.123   2.945   2.752  0.8920 -1.8691  0.4533
  258SOL     OW  772   0.927   2.332   1.967  0.1900 -0.2671  0.2920
  258SOL    HW1  773   0.916   2.233   2.001  1.6392 -1.1176  1.8049
  258SOL    HW2  774   0.982   2.343   1.883  2.2947  2.9674 -2.4575
  259SOL     OW  775   0.947   1.848   2.614 -0.2039  0.2585 -0.4083
  259SOL    HW1  776   1.030   1.849   2.675  1.5632  2.7203 -0.4210
  259SOL    HW2  777   0.863   1.836   2.675  0.0608  1.3131  1.5486
  260SOL     OW  778   2.245   0.693   2.348  0.2700 -0.3615  0.0903
  260SOL    HW1  779   2.236   0.647   2.440 -0.3783  1.2878 -0.2166
  260SOL    HW2  780   2.228   0.629   2.270  1.2933 -2.1306 -1.1083
  261SOL     OW  781   1.368   0.716   1.012 -0.0436  0.0424  0.3913
  261SOL    HW1  782   1.361   0.657   0.932 -1.5807  3.5482 -1.7302
  261SOL    HW2  783   1.428   0.800   0.993 -2.6551 -0.2197  0.5939
  262SOL     OW  784   2.214   2.222   2.707 -0.1563  0.5795  0.7105
  262SOL    HW1  785   2.239   2.134   2.664 -0.1032 -0.7394  1.0065
  262SOL    HW2  786   2.123   2.253   2.672 -0.9016  0.4811 -1.6187
  263SOL     OW  787   0.514   2.401   0.689 -0.2734 -0.8506 -0.0512
  263SOL    HW1  788   0.440   2.461   0.643  0.4730  1.3661 -3.4761
  263SOL    HW2  789   0.604   2.410   0.644  2.3805 -2.0033  0.6207
  264SOL     OW  790   0.108   2.469   0.523  0.3213 -0.3268 -0.1232
  264SOL    HW1  791   0.084   2.514   0.433  0.4226 -0.2683  0.1476
  264SOL    HW2  792   0.121   2.369   0.511  0.6158  1.5824  0.0889
  265SOL     OW  793   0.717   1.385   0.108  0.1462 -0.9008 -0.2127
  265SOL    HW1  794   0.638   1.328   0.072 -2.5428  1.0661  0.9321
  265SOL    HW2  795   0.780   1.319   0.151 -2.0407  2.8058 -1.6592
  266SOL     OW  796   0.671   2.086   2.409  0.6038 -0.2118  0.0027
  266SOL    HW1  797   0.756   2.035   2.386  2.3969 -2.3230 -1.9851
  266SOL    HW2  798   0.667   2.108   2.511  0.7521  0.7765 -1.5523
  267SOL     OW  799   1.697   0.504   2.300 -0.0358  0.4176  0.1696
  267SOL    HW1  800   1.771   0.480   2.367 -0.5048 -2.2380  2.4982
  267SOL    HW2  801   1.612   0.528   2.353  4.0451 -1.3718  2.4634
  268SOL     OW  802   0.706   1.010   0.171  0.1859 -0.3577  0.4675
  268SOL    HW1  803   0.748   1.100   0.185  1.1200  2.1465  0.4028
  268SOL    HW2  804   0.619   1.009   0.220  1.5851 -0.0347 -0.2826
  269SOL     OW  805   2.390   1.621   2.226 -0.6453 -0.3081  0.2057
  269SOL    HW1  806   2.447   1.582   2.304  0.7729 -2.6788  4.4418
  269SOL    HW2  807   2.449   1.682   2.167 -0.2018  1.7840 -1.3325
  270SOL     OW  808   1.256   1.935   3.049 -0.4821  0.1612  0.0191
  270SOL    HW1  809   1.230   1.968   0.049  2.0803  0.9840 -0.0972
  270SOL    HW2  810   1.261   1.838   3.056  0.8766  1.2618 -1.6488
  271SOL     OW  811   0.261   0.584   3.085  0.0726 -0.8371  0.1307
  271SOL    HW1  812   0.271   0.657   3.015  0.0749  1.4403 -0.3230
  271SOL    HW2  813   0.197   0.511   3.050  1.2490 -0.5747  2.1873
  272SOL     OW  814   2.971   0.407   0.503  0.0763 -0.0853 -0.2722
  272SOL    HW1  815   2.948   0.341   0.579 -0.3875 -1.8784  3.7594
  272SOL    HW2  816   3.073   0.430   0.507 -1.6211  0.7690 -2.1891
  273SOL     OW  817   0.459   2.958   1.705 -0.4059  0.0004 -0.4440
  273SOL    HW1  818   0.452   2.983   1.804 -1.5067  0.4556  1.6649
  273SOL    HW2  819   0.371   2.972   1.652 -1.5511  1.2016 -1.1766
  274SOL     OW  820   2.750   0.513   1.532  0.1982  0.1017  0.2357
  274SOL    HW1  821   2.835   0.493   1.586  0.4755  1.3360  0.9730
  274SOL    HW2  822   2.672   0.452   1.565  2.2787  0.6679 -0.4512
  275SOL     OW  823   1.035   1.827   0.917 -0.1218  0.4094  0.3833
  275SOL    HW1  824   1.040   1.789   1.010  0.0591 -0.8091 -1.8921
  275SOL    HW2  825   1.123   1.819   0.868 -1.9445 -0.8678  0.3540
  276SOL     OW  826   0.570   1.014   1.978  0.0880  0.0901 -0.1486
  276SOL    HW1  827   0.501   1.045   1.908 -0.3258 -2.1639  0.8952
  276SOL    HW2  828   0.557   0.921   2.003  1.9595  2.0410  0.2453
  277SOL     OW  829   1.123   2.793   1.922  0.4655 -0.4419  0.0367
  277SOL    HW1  830   1.215   2.821   1.953  0.9456  1.0277  1.2597
  277SOL    HW2  831   1.130   2.730   1.840  1.1834 -2.0031 -1.5474
  278SOL     OW  832   2.011   2.799   1.943 -0.0585 -0.1362  0.0452
  278SOL    HW1  833   2.101   2.795   1.985 -2.6897 -2.3376 -0.3832
  278SOL    HW2  834   2.020   2.750   1.852  0.1110  0.0012 -1.4192
  279SOL     OW  835   1.667   1.368   0.125 -0.4874  0.3005  0.4215
  279SOL    HW1  836   1.752   1.415   0.087  2.2386 -2.9722  0.9465
  279SOL    HW2  837   1.594   1.354   0.058 -1.7832 -0.6502  0.0510
  280SOL     OW  838   1.487   0.953   0.117 -0.1182 -0.0255  0.0406
  280SOL    HW1  839   1.457   0.997   0.202 -0.1059 -0.1202  0.0190
  280SOL    HW2  840   1.553   0.880   0.140 -2.1567  1.4234 -3.3969
  281SOL     OW  841   0.451   0.296   1.465  0.2486 -0.4394 -0.5572
  281SOL    HW1  842   0.506   0.360   1.400  2.4218  0.1466 -0.8655
  281SOL    HW2  843   0.388   0.359   1.520  2.2413  2.2936 -0.3738
  282SOL     OW  844   0.318   2.580   0.629 -0.3266 -0.1432 -0.4847
  282SOL    HW1  845   0.233   2.545   0.583 -1.9721 -2.2286  0.9461
  282SOL    HW2  846   0.293   2.669   0.669 -4.7673  0.3653 -3.9471
  283SOL     OW  847   1.222   1.988   2.058  0.6480  0.4235 -0.5458
  283SOL    HW1  848   1.308   1.935   2.067 -0.1750 -0.0061  1.6647
  283SOL    HW2  849   1.239   2.075   1.999 -1.0672  0.7065 -1.8231
  284SOL     OW  850   2.908   2.737   1.124 -0.6120 -0.5734  0.0806
  284SOL    HW1  851   2.829   2.799   1.149  0.2448 -0.4474 -0.4509
  284SOL    HW2  852   2.889   2.635   1.122 -2.7006 -2.8756 -1.5135
  285SOL     OW  853   0.227   2.414   0.090 -0.4098  0.1501 -0.0285
  285SOL    HW1  854   0.145   2.468   0.127 -1.8978  1.9383  1.6174
  285SOL    HW2  855   0.296   2.400   0.165 -1.7366 -0.1989  2.6585
  286SOL     OW  856   0.473   2.872   0.907 -0.2016 -0.4420 -0.5395
  286SOL    HW1  857   0.556   2.919   0.945 -0.3579  3.2324  1.2022
  286SOL    HW2  858   0.379   2.922   0.921 -1.9232 -2.1938  2.2868
  287SOL     OW  859   0.737   1.273   0.606  0.1711  0.1632 -0.1352
  287SOL    HW1  860   0.799   1.218   0.545 -0.5661 -3.3996 -0.2985
  287SOL    HW2  861   0.710   1.365   0.570 -0.8703 -1.9986  0.7554
  288SOL     OW  862   1.976   1.819   2.737  0.2450  0.1742  0.2412
  288SOL    HW1  863   2.061   1.801   2.685 -1.0857  1.4688 -1.3857
  288SOL    HW2  864   1.997   1.865   2.823 -0.2909  0.7297 -0.4086
  289SOL     OW  865   3.008   2.093   0.363 -0.2081 -0.0597  0.4636
  289SOL    HW1  866   2.971   2.107   0.267  3.5965  1.0936  0.3500
  289SOL    HW2  867   3.024   1.994   0.366 -1.5320  2.7022 -1.4460
  290SOL     OW  868   1.457   1.520   1.401  0.3857 -0.2250  0.2665
  290SOL    HW1  869   1.504   1.571   1.328 -1.4171 -2.2555  2.2178
  290SOL    HW2  870   1.409   1.433   1.368  1.5015 -0.1141 -0.0470
  291SOL     OW  871   1.062   1.241   3.036  0.1752 -0.0604  0.0744
  291SOL    HW1  872   1.030   1.339   3.018 -0.6516  0.8152 -0.4245
  291SOL    HW2  873   1.004   1.180   2.977 -2.0843  0.3400  0.9763
  292SOL     OW  874   1.072   1.418   0.305  0.0231 -0.0454  0.0013
  292SOL    HW1  875   1.018   1.401   0.391  1.0834  0.4508 -1.5885
  292SOL    HW2  876   1.015   1.472   0.238  0.2283 -2.2340 -1.2592
  293SOL     OW  877   1.325   2.943   0.701 -0.2212  0.1162  0.4383
  293SOL    HW1  878   1.330   2.858   0.652  0.2953  2.4404 -4.0013
  293SOL    HW2  879   1.279   2.929   0.792  0.5899 -0.4900  1.4684
  294SOL     OW  880   1.778   1.388   2.385  0.1653 -0.4375 -0.4417
  294SOL    HW1  881   1.753   1.346   2.296 -0.9655  0.9187 -2.4876
  294SOL    HW2  882   1.730   1.339   2.458 -1.4198 -2.3073  0.0325
  295SOL     OW  883   1.793   2.052   2.986  0.2731  0.0401  0.0475
  295SOL    HW1  884   1.693   2.066   2.987  0.0903  2.1104  0.6757
  295SOL    HW2  885   1.831   2.144   2.969  0.1829 -1.3329  1.5831
  296SOL     OW  886   1.406   0.782   1.795  0.4247  0.0893  0.4589
  296SOL    HW1  887   1.374   0.736   1.706 -0.0712  1.8307 -1.0051
  296SOL    HW2  888   1.365   0.874   1.793  0.9301 -0.8222 -2.6594
  297SOL     OW  889   2.869   0.693   1.798 -0.0903  0.1287 -0.6418
  297SOL    HW1  890   2.767   0.712   1.813  1.1268 -0.7863  2.8429
  297SOL    HW2  891   2.928   0.756   1.847  2.0472 -1.7066 -4.3746
  298SOL     OW  892   1.189   1.714   1.423 -0.1056 -0.0784  0.3728
  298SOL    HW1  893   1.251   1.679   1.354  3.2876 -1.2231  0.2962
  298SOL    HW2  894   1.233   1.778   1.485 -1.3700 -2.1246 -0.5455
  299SOL     OW  895   1.146   3.067   2.574  0.4545  0.4642  0.0236
  299SOL    HW1  896   1.220   3.065   2.500  2.0289  1.7361  0.0990
  299SOL    HW2  897   1.062   3.031   2.526 -1.0291  2.3863 -2.5955
  300SOL     OW  898   2.614   1.388   0.119  0.2086  0.0529  0.3596
  300SOL    HW1  899   2.685   1.464   0.124 -0.5012  1.1123 -0.1296
  300SOL    HW2  900   2.522   1.426   0.142 -3.2578  1.2793  0.7087
  301SOL     OW  901   1.882   0.670   2.549  0.4353  0.4454 -0.8652
  301SOL    HW1  902   1.907   0.578   2.512  0.4083  2.1988 -0.6205
  301SOL    HW2  903   1.929   0.745   2.504 -0.2599 -1.8333 -0.4129
  302SOL     OW  904   2.615   2.092   2.621  0.4029  0.0241  0.3192
  302SOL    HW1  905   2.593   2.094   2.525 -0.8143 -1.1566  1.0051
  302SOL    HW2  906   2.644   1.999   2.651  1.6227  2.2455  2.9609
  303SOL     OW  907   0.300   2.535   2.945 -1.2420  0.1374 -0.0511
  303SOL    HW1  908   0.259   2.489   3.027 -1.4586 -1.6052  2.2308
  303SOL    HW2  909   0.240   2.599   2.896  0.7728  0.8701 -0.6860
  304SOL     OW  910   0.494   1.905   1.230  0.0986 -0.1995 -0.4099
  304SOL    HW1  911   0.500   1.980   1.301  3.1416  0.0944  0.6346
  304SOL    HW2  912   0.559   1.829   1.251 -0.1311 -0.9352 -1.8145
  305SOL     OW  913   2.616   0.760   1.861  0.0091  0.5399 -0.1593
  305SOL    HW1  914   2.630   0.773   1.963  4.0558  1.9354  3.2007
  305SOL    HW2  915   2.516   0.770   1.828 -2.0413 -2.1048 -3.1515
  306SOL     OW  916   1.795   1.431   1.202  0.4681  0.0382  0.0527
  306SOL    HW1  917   1.713   1.415   1.146 -0.6160  1.4414  0.8117
  306SOL    HW2  918   1.805   1.363   1.278 -0.2693 -1.0994 -0.5159
  307SOL     OW  919   3.036   0.384   1.067  0.2585 -0.2510  0.0872
  307SOL    HW1  920   3.001   0.470   1.019 -1.4597  0.2935 -0.3917
  307SOL    HW2  921   3.076   0.404   1.160  1.1936  1.8110  1.6689
  308SOL     OW  922   0.208   1.484   1.605 -0.5644 -0.3739  0.2899
  308SOL    HW1  923   0.215   1.525   1.511  0.1977 -3.6396  0.4893
  308SOL    HW2  924   0.143   1.407   1.602  1.8452  2.6429  0.4619
  309SOL     OW  925   2.600   2.133   2.109 -0.1943 -0.2208  0.0178
  309SOL    HW1  926   2.646   2.194   2.037 -2.0460  1.1659 -1.4103
  309SOL    HW2  927   2.509   2.180   2.131 -2.1608 -2.7392  0.1833
  310SOL     OW  928   2.378   1.105   2.548  0.2991 -0.4597 -0.4176
  310SOL    HW1  929   2.381   1.026   2.479 -1.5588 -1.4672  1.5429
  310SOL    HW2  930   2.419   1.078   2.636  0.1917  1.6231  1.3065
  311SOL     OW  931   1.515   1.337   2.988  0.0069  0.0127  0.3686
  311SOL    HW1  932   1.416   1.331   2.964 -0.1814 -0.0135  1.1435
  311SOL    HW2  933   1.557   1.244   2.988  1.0489 -0.1801  0.3913
  312SOL     OW  934   1.248   2.043   2.583 -0.0962  0.0644 -0.3789
  312SOL    HW1  935   1.297   2.128   2.605 -0.6443 -2.1325 -0.7258
  312SOL    HW2  936   1.233   2.034   2.484 -0.3966  2.3903  0.8253
  313SOL     OW  937   0.300   0.502   0.689 -0.0995  0.1926 -0.4095
  313SOL    HW1  938   0.389   0.518   0.643 -2.7492 -1.0145  1.0100
  313SOL    HW2  939   0.280   0.582   0.751 -3.2546 -1.2120 -0.4846
  314SOL     OW  940   0.797   1.975   1.143 -0.4241  0.5950  0.0201
  314SOL    HW1  941   0.779   2.056   1.200 -1.0081 -2.0264 -0.8071
  314SOL    HW2  942   0.869   1.908   1.175  0.0229 -0.6558  0.8748
  315SOL     OW  943   0.515   2.080   2.185 -0.1968 -0.2782  0.2738
  315SOL    HW1  944   0.430   2.135   2.201  0.6280  0.1289  0.4484
  315SOL    HW2  945   0.572   2.101   2.266 -2.4785  1.3225  0.4567
  316SOL     OW  946   0.561   2.723   0.496  0.0850  0.1041 -0.1460
  316SOL    HW1  947   0.508   2.643   0.539 -1.6769 -0.5226  4.6150
  316SOL    HW2  948   0.584   2.793   0.569  1.3098  0.9074  0.7534
  317SOL     OW  949   2.733   0.046   1.267 -0.3869  0.0281  0.4585
  317SOL    HW1  950   2.737   0.130   1.206 -0.5707  1.9060 -1.0189
  317SOL    HW2  951   2.729   3.049   1.220 -0.5025 -1.5727  0.0053
  318SOL     OW  952   2.140   2.636   0.243  0.1754  0.5474 -0.4664
  318SOL    HW1  953   2.102   2.727   0.260  2.1699 -1.7057  0.6925
  318SOL    HW2  954   2.154   2.586   0.334  2.1668 -0.9376  0.3454
  319SOL     OW  955   1.519   0.827   2.484 -0.0476 -0.2411 -0.2736
  319SOL    HW1  956   1.577   0.834   2.569  1.9706 -0.2114  1.6468
  319SOL    HW2  957   1.505   0.726   2.471  2.6486 -2.6552  0.1600
  320SOL     OW  958   0.095   2.102   2.290  0.2820 -0.1517  0.1026
  320SOL    HW1  959   0.096   2.182   2.229  0.9212 -0.9956 -1.5175
  320SOL    HW2  960   0.132   2.013   2.240  0.4088 -2.5969 -1.3382
  321SOL     OW  961   0.663   2.464   0.123  0.5600  0.1333  0.1790
  321SOL    HW1  962   0.757   2.506   0.121 -0.2624 -1.8009 -1.0728
  321SOL    HW2  963   0.589   2.520   0.084  3.6464  0.3863  0.2124
  322SOL     OW  964   2.550   0.691   2.686 -0.1060  0.1535  0.3702
  322SOL    HW1  965   2.605   0.603   2.670  2.2753 -0.3143 -0.6575
  322SOL    HW2  966   2.455   0.690   2.653  0.9020  0.0232 -1.8184
  323SOL     OW  967   2.422   1.094   0.952  0.5777 -0.2842 -0.6093
  323SOL    HW1  968   2.475   1.151   1.017 -3.1656 -0.5414  0.0588
  323SOL    HW2  969   2.480   1.026   0.907  0.2314  2.7268 -0.8150
  324SOL     OW  970   0.097   0.447   1.314 -0.2665 -0.2265 -0.6227
  324SOL    HW1  971   0.073   0.545   1.334  0.0598 -1.8400 -1.2251
  324SOL    HW2  972   0.072   0.393   1.392  0.2911  1.3633 -0.2922
  325SOL     OW  973   0.079   2.997   1.754  0.6521 -0.1877  0.1488
  325SOL    HW1  974   0.043   3.088   1.786 -0.0932  0.3161  1.8201
  325SOL    HW2  975   0.145   3.006   1.678  1.9716 -0.4883  0.1209
  326SOL     OW  976   2.199   2.970   0.275  0.6475  0.7679  0.0842
  326SOL    HW1  977   2.281   2.912   0.275  0.7720  1.8502  1.4146
  326SOL    HW2  978   2.181   3.001   0.180 -0.6948 -1.5896  2.4057
  327SOL     OW  979   1.780   1.611   0.532  0.5716  0.2586 -0.3210
  327SOL    HW1  980   1.827   1.685   0.478  2.0452 -3.1866  0.1559
  327SOL    HW2  981   1.718   1.549   0.473  1.6378 -0.3179 -3.2575
  328SOL     OW  982   0.125   2.365   2.673  0.7345  0.1262  0.2706
  328SOL    HW1  983   0.147   2.453   2.725  1.7501  0.9801 -0.0884
  328SOL    HW2  984   0.207   2.330   2.622  1.6593  0.2786 -1.5805
  329SOL     OW  985   0.211   2.244   1.477 -0.1543  0.0068  0.0488
  329SOL    HW1  986   0.270   2.224   1.398 -1.6954  0.1491 -1.3565
  329SOL    HW2  987   0.266   2.255   1.559 -0.2330  1.6348 -1.7671
  330SOL     OW  988   2.484   0.958   2.774 -0.3683  0.1028  0.6004
  330SOL    HW1  989   2.504   0.857   2.779  1.2637 -1.4163  3.9146
  330SOL    HW2  990   2.396   0.984   2.826 -0.2670 -0.7770  0.6036
  331SOL     OW  991   2.748   2.218   0.963 -0.5261 -0.4479  0.5023
  331SOL    HW1  992   2.719   2.194   1.053 -0.4389  2.4225 -2.4186
  331SOL    HW2  993   2.688   2.182   0.888 -1.0833 -1.4792 -2.0124
  332SOL     OW  994   0.634   2.891   0.680  0.4260 -0.0178 -0.1294
  332SOL    HW1  995   0.562   2.903   0.750 -1.8775  0.6404 -0.8838
  332SOL    HW2  996   0.725   2.903   0.723 -0.8437 -1.4475 -0.7118
  333SOL     OW  997   2.171   1.797   2.252  1.1186  0.1410  0.2781
  333SOL    HW1  998   2.205   1.880   2.299  0.0110 -0.4943 -0.7384
  333SOL    HW2  999   2.228   1.713   2.262  1.1457  0.7522  1.1483
  334SOL     OW 1000   0.381   1.428   0.736 -0.3179 -0.4577 -0.1008
  334SOL    HW1 1001   0.389   1.461   0.836 -0.4292  3.3120  2.6371
  334SOL    HW2 1002   0.421   1.491   0.664 -1.8739  1.2409 -2.0792
  335SOL     OW 1003   2.955   2.086   2.432  0.5799 -0.3858  0.2069
  335SOL    HW1 1004   3.039   2.102   2.376  0.4675  1.1745 -1.9478
  335SOL    HW2 1005   2.977   2.098   2.530  0.5439  2.0141  1.1752
  336SOL     OW 1006   2.257   2.798   2.093 -0.5220  0.2447  0.2966
  336SOL    HW1 1007   2.214   2.802   2.185  1.1337 -1.2665 -1.0488
  336SOL    HW2 1008   2.344   2.844   2.096 -4.0850 -1.9316 -0.3775
  337SOL     OW 1009   0.637   1.032   0.615 -0.1023  0.1556 -0.4628
  337SOL    HW1 1010   0.716   0.974   0.580  1.2224 -0.2167 -2.1993
  337SOL    HW2 1011   0.656   1.132   0.623 -1.8742 -0.8941 -0.1366
  338SOL     OW 1012   1.356   1.853   1.090  0.5702  0.5247 -0.4408
  338SOL    HW1 1013   1.414   1.933   1.115  0.7589  0.8861  0.0374
  338SOL    HW2 1014   1.330   1.854   0.995  0.5026  1.7393  5.4517
  339SOL     OW 1015   0.178   1.806   1.499  0.0357 -0.1905  0.2549
  339SOL    HW1 1016   0.183   1.883   1.434  1.2471 -0.5652  0.1075
  339SOL    HW2 1017   0.167   1.842   1.594  1.6372  0.8429  1.7274
  340SOL     OW 1018   1.281   2.974   1.652 -0.4312 -0.1402  0.3471
  340SOL    HW1 1019   1.264   3.076   1.626  0.3993  1.6842 -2.6350
  340SOL    HW2 1020   1.336   2.958   1.736 -1.6557 -3.1799 -1.1345
  341SOL     OW 1021   1.543   1.696   1.202  0.2982  0.1059 -0.3354
  341SOL    HW1 1022   1.453   1.711   1.159 -0.0987  0.4038  0.3528
  341SOL    HW2 1023   1.624   1.745   1.166  0.8938  1.2195 -0.6723
  342SOL     OW 1024   2.469   1.443   0.932 -0.1534 -0.1162 -0.3363
  342SOL    HW1 1025   2.531   1.392   0.999 -0.8045  0.3970 -0.7031
  342SOL    HW2 1026   2.376   1.444   0.968  2.8066  1.7152 -1.6344
  343SOL     OW 1027   2.133   0.151   0.994  0.1629  0.2422  0.4821
  343SOL    HW1 1028   2.164   0.246   1.005  1.4929  0.1194 -1.6867
  343SOL    HW2 1029   2.155   0.122   0.899  0.8840  0.8555  2.2590
  344SOL     OW 1030   2.256   0.251   0.589 -0.1920 -0.2564 -0.3178
  344SOL    HW1 1031   2.223   0.341   0.555  0.9948  0.8033  1.9967
  344SOL    HW2 1032   2.346   0.256   0.638 -1.5060 -1.8808  0.5757
  345SOL     OW 1033   0.957   2.925   1.713  0.2948  0.3147 -0.6066
  345SOL    HW1 1034   0.876   2.922   1.781 -3.0042 -2.1885  2.0090
  345SOL    HW2 1035   1.040   2.951   1.766 -1.4296 -1.2428  1.0785
  346SOL     OW 1036   2.489   1.968   0.603 -0.2925  0.5083  0.0952
  346SOL    HW1 1037   2.543   1.890   0.584 -0.9408  1.3619  1.6022
  346SOL    HW2 1038   2.519   2.016   0.685  1.8896 -1.5033  0.7384
  347SOL     OW 1039   2.559   2.853   1.432 -0.1765  0.6111 -0.0201
  347SOL    HW1 1040   2.548   2.933   1.496  0.9318  0.1631  0.3440
  347SOL    HW2 1041   2.469   2.845   1.389 -2.9704  1.1781  0.9624
  348SOL     OW 1042   1.066   0.904   1.497  0.9849 -0.0375  0.0574
  348SOL    HW1 1043   1.026   0.996   1.487  1.4155 -1.8076 -0.7035
  348SOL    HW2 1044   1.045   0.850   1.413 -1.4823  0.5432  1.3172
  349SOL     OW 1045   2.261   0.575   2.601  0.1491  0.1146 -0.1788
  349SOL    HW1 1046   2.243   0.475   2.592  1.5240  1.5248 -0.9080
  349SOL    HW2 1047   2.218   0.613   2.684 -0.1835 -1.5629 -0.3071
  350SOL     OW 1048   1.879   2.339   0.373 -0.3174  0.2024 -0.3825
  350SOL    HW1 1049   1.889   2.368   0.471  0.1598  1.4957  2.2076
  350SOL    HW2 1050   1.966   2.291   0.347  0.1124 -0.5080 -0.9575
  351SOL     OW 1051   1.234   0.511   0.122 -0.3180 -0.0301  0.3153
  351SOL    HW1 1052   1.179   0.445   0.062  0.7089 -0.9879 -0.7713
  351SOL    HW2 1053   1.248   0.600   0.075  2.1492 -1.0731  1.9767
  352SOL     OW 1054   1.876   2.326   2.273  0.5811 -0.2784  0.5189
  352SOL    HW1 1055   1.829   2.348   2.362 -0.6854 -0.0420 -2.4603
  352SOL    HW2 1056   1.832   2.381   2.197 -1.4754  1.0766 -2.0801
  353SOL     OW 1057   0.407   1.243   2.620 -0.1610  0.1917 -0.2062
  353SOL    HW1 1058   0.308   1.261   2.642 -1.6420 -0.8598  0.0795
  353SOL    HW2 1059   0.431   1.313   2.552 -1.1923  0.9559  0.7357
  354SOL     OW 1060   0.605   2.702   2.583 -0.0311 -0.4426  0.5652
  354SOL    HW1 1061   0.553   2.702   2.494  1.4446 -0.0877 -0.0676
  354SOL    HW2 1062   0.682   2.636   2.580  1.5243  0.3852  1.8426
  355SOL     OW 1063   2.309   2.660   1.442 -0.4665  0.6072  0.3762
  355SOL    HW1 1064   2.381   2.599   1.479  0.6968  0.0692  0.3632
  355SOL    HW2 1065   2.271   2.716   1.515  0.7591  0.4598 -0.0366
  356SOL     OW 1066   2.978   0.926   0.751 -0.4453 -0.7259 -0.0004
  356SOL    HW1 1067   2.917   1.011   0.748  1.3463  0.0789 -1.2301
  356SOL    HW2 1068   2.918   0.845   0.765  0.2451 -1.1646 -0.3287
  357SOL     OW 1069   0.032   0.230   1.477 -0.0517  0.1363  0.2515
  357SOL    HW1 1070   0.028   0.177   1.566  0.1949 -1.6330  0.0573
  357SOL    HW2 1071   3.036   0.255   1.432 -1.6141  0.6431 -4.3235
  358SOL     OW 1072   2.966   1.560   1.486  0.6747  0.5004 -0.1580
  358SOL    HW1 1073   2.991   1.571   1.583 -0.5986 -4.3072 -2.0904
  358SOL    HW2 1074   3.003   1.470   1.451  0.5312 -0.6842 -1.6508
  359SOL     OW 1075   2.463   2.639   2.481  0.4058 -0.3769 -0.0703
  359SOL    HW1 1076   2.418   2.569   2.543  0.0799  0.7732 -2.1415
  359SOL    HW2 1077   2.454   2.613   2.383  0.7242  0.9959  1.3005
  360SOL     OW 1078   1.344   0.463   1.422 -0.5407  0.7031 -0.0073
  360SOL    HW1 1079   1.336   0.388   1.490 -2.7369  0.3386  0.5336
  360SOL    HW2 1080   1.338   0.553   1.473  0.6995 -0.4410 -0.2113
  361SOL     OW 1081   2.688   2.452   1.301  0.1872  0.1196 -0.3089
  361SOL    HW1 1082   2.756   2.425   1.233 -0.3498 -1.8369  2.7598
  361SOL    HW2 1083   2.589   2.429   1.267 -4.1343 -0.6786 -2.0355
  362SOL     OW 1084   1.406   0.232   0.505 -0.0453  0.0721  0.2760
  362SOL    HW1 1085   1.333   0.292   0.468  1.1906  0.5933  0.2538
  362SOL    HW2 1086   1.440   0.267   0.595  1.1055 -0.1219 -2.7366
  363SOL     OW 1087   1.539   1.365   1.028 -0.0886  0.2074  0.2669
  363SOL    HW1 1088   1.580   1.367   0.929  0.5594 -0.6978 -0.3079
  363SOL    HW2 1089   1.456   1.423   1.020  0.5911 -0.8240 -0.7786
  364SOL     OW 1090   0.415   0.885   1.594 -0.1610  0.1104 -0.2255
  364SOL    HW1 1091   0.456   0.792   1.614  2.0326 -1.2349  0.5284
  364SOL    HW2 1092   0.478   0.950   1.548  0.1048 -1.4990 -2.2250
  365SOL     OW 1093   2.688   0.525   1.018  0.0414 -0.2063 -0.2836
  365SOL    HW1 1094   2.739   0.470   0.953  0.7699  2.3248  1.7847
  365SOL    HW2 1095   2.700   0.501   1.117  1.1404 -0.9346  1.0774
  366SOL     OW 1096   2.610   1.432   0.693  0.2045  0.3839 -0.1698
  366SOL    HW1 1097   2.585   1.513   0.638 -0.2800 -0.4292  1.0753
  366SOL    HW2 1098   2.564   1.433   0.788  0.4594 -3.9583  1.4020
  367SOL     OW 1099   2.080   1.915   2.029  0.3352  0.2884  0.0205
  367SOL    HW1 1100   2.027   2.004   2.046 -1.4809 -0.5151  0.1502
  367SOL    HW2 1101   2.113   1.877   2.115 -0.0279  1.8010  0.4744
  368SOL     OW 1102   2.580   2.029   1.475 -0.6298  0.1426  0.8382
  368SOL    HW1 1103   2.559   2.037   1.574  3.2470 -0.0592 -3.3348
  368SOL    HW2 1104   2.579   1.930   1.457  0.7739  1.6508  0.2231
  369SOL     OW 1105   2.105   2.905   2.661 -0.0360  0.3282  0.1925
  369SOL    HW1 1106   2.201   2.910   2.629 -1.1740  1.5387 -0.3513
  369SOL    HW2 1107   2.113   2.886   2.761  1.4506  1.7333 -4.7045
  370SOL     OW 1108   0.759   0.401   1.056  0.5686  0.5192  0.4330
  370SOL    HW1 1109   0.710   0.405   0.964 -2.4989 -1.6696 -1.6146
  370SOL    HW2 1110   0.807   0.317   1.078 -0.6684  1.5306 -1.0267
  371SOL     OW 1111   0.680   1.524   0.506 -0.3319 -0.3584 -0.4834
  371SOL    HW1 1112   0.728   1.595   0.447  0.8627  2.8296  0.9998
  371SOL    HW2 1113   0.641   1.564   0.591  1.5105 -0.3452 -1.7424
  372SOL     OW 1114   0.573   1.092   2.453  0.2317  0.1421 -0.3509
  372SOL    HW1 1115   0.655   1.126   2.408 -0.3167  1.6093  4.3582
  372SOL    HW2 1116   0.534   1.150   2.524  1.5540  1.1549  0.4376
  373SOL     OW 1117   1.286   2.756   2.721  0.3694 -0.3435  0.2245
  373SOL    HW1 1118   1.205   2.820   2.727 -1.3943  3.7152 -1.5309
  373SOL    HW2 1119   1.351   2.766   2.796 -3.0945  0.8495 -1.4320
  374SOL     OW 1120   0.925   1.956   0.487  0.0851  1.0385 -0.1342
  374SOL    HW1 1121   1.011   1.939   0.542  1.2105 -0.8003  0.2706
  374SOL    HW2 1122   0.951   1.921   0.395  0.3089  0.7237 -0.6981
  375SOL     OW 1123   0.704   0.619   1.831 -0.2960 -0.5045  0.3729
  375SOL    HW1 1124   0.747   0.527   1.832  0.5968  0.8832 -0.4411
  375SOL    HW2 1125   0.770   0.686   1.795  1.0097 -0.6621 -2.0820
  376SOL     OW 1126   0.037   2.424   1.577  0.2721  0.3767  0.3796
  376SOL    HW1 1127   0.087   2.346   1.533  0.0768  3.0016  0.1151
  376SOL    HW2 1128   0.100   2.480   1.636  0.3124 -1.1844 -1.1370
  377SOL     OW 1129   2.843   1.783   3.011 -0.5967 -0.0534 -0.0340
  377SOL    HW1 1130   2.802   1.873   2.984 -1.8210 -0.1817  0.0145
  377SOL    HW2 1131   2.833   1.710   2.936 -1.7183  0.1384  0.2173
  378SOL     OW 1132   1.753   2.880   3.049  0.1565 -0.0257  0.4602
  378SOL    HW1 1133   1.660   2.884   0.003 -0.3292  4.3295 -0.7898
  378SOL    HW2 1134   1.806   2.965   3.071  0.8531  0.7965  0.2021
  379SOL     OW 1135   1.868   0.506   0.703 -0.2691 -0.1813 -0.0605
  379SOL    HW1 1136   1.898   0.407   0.689 -1.2586 -0.6274  1.1497
  379SOL    HW2 1137   1.904   0.542   0.794 -1.5833 -2.4989 -0.8760
  380SOL     OW 1138   2.877   1.823   1.857  0.1215 -0.2196 -0.3176
  380SOL    HW1 1139   2.871   1.846   1.758 -1.0066 -0.1968 -0.0421
  380SOL    HW2 1140   2.873   1.906   1.915 -3.4919 -0.4596 -1.3584
  381SOL     OW 1141   2.277   1.369   2.600 -0.2898 -0.1949 -1.3762
  381SOL    HW1 1142   2.350   1.438   2.625  0.3084 -0.8592  2.0747
  381SOL    HW2 1143   2.325   1.280   2.580  1.1154 -1.5783  1.1735
  382SOL     OW 1144   3.042   2.995   2.736 -0.0800 -0.2529  0.4362
  382SOL    HW1 1145   3.004   3.003   2.832  0.8779  1.0352  0.4527
  382SOL    HW2 1146   2.988   3.046   2.665 -0.9109  0.4353  0.7025
  383SOL     OW 1147   1.243   1.233   0.149 -0.2002  0.0657  0.0471
  383SOL    HW1 1148   1.173   1.237   0.070 -2.1899  1.0471  1.8457
  383SOL    HW2 1149   1.237   1.317   0.201  2.1237  0.6824  1.4283
  384SOL     OW 1150   1.332   1.923   1.549  0.0066  0.5118  0.4026
  384SOL    HW1 1151   1.247   1.966   1.518  0.8508 -0.0047  0.1814
  384SOL    HW2 1152   1.414   1.949   1.490  1.8860 -1.3164 -2.8171
  385SOL     OW 1153   1.943   2.715   0.900  0.0716  0.7593  0.0584
  385SOL    HW1 1154   1.896   2.797   0.855 -0.4378  2.8865 -3.3917
  385SOL    HW2 1155   1.897   2.626   0.875 -0.2339 -1.2930 -1.4525
  386SOL     OW 1156   1.612   1.612   0.778 -0.0498 -0.5888 -0.5202
  386SOL    HW1 1157   1.578   1.696   0.830  1.4438 -0.5024 -4.4196
  386SOL    HW2 1158   1.688   1.642   0.711  1.4507  1.4021 -2.4878
  387SOL     OW 1159   2.741   2.148   1.215 -0.0771 -0.1071  0.3965
  387SOL    HW1 1160   2.836   2.163   1.233 -2.0933 -0.3731 -4.0223
  387SOL    HW2 1161   2.696   2.148   1.305 -2.9415 -3.4378  1.2937
  388SOL     OW 1162   0.008   0.999   1.578  0.4115  0.3222 -0.1716
  388SOL    HW1 1163   0.039   1.042   1.491  0.5889  0.7903  0.3408
  388SOL    HW2 1164   0.057   0.913   1.605  1.9118  0.2896  0.7761
  389SOL     OW 1165   2.159   0.327   0.134 -0.3186  0.1892 -0.4542
  389SOL    HW1 1166   2.074   0.362   0.171  1.3016  1.1794  0.5314
  389SOL    HW2 1167   2.194   0.260   0.204  0.4686 -0.0874  0.5649
  390SOL     OW 1168   1.174   1.609   2.783  0.4966  0.5026  0.4234
  390SOL    HW1 1169   1.170   1.715   2.781  2.8734 -0.5791 -1.2945
  390SOL    HW2 1170   1.234   1.581   2.704  2.0969 -1.0290 -1.7801
  391SOL     OW 1171   1.129   2.294   0.015 -0.0080 -0.3275  0.2099
  391SOL    HW1 1172   1.085   2.204   0.026  0.3501  0.3297 -0.9528
  391SOL    HW2 1173   1.106   2.335   3.020 -0.6927  0.8644  1.7083
  392SOL     OW 1174   0.156   2.623   1.712  0.2738  0.6004  0.4000
  392SOL    HW1 1175   0.209   2.633   1.796 -1.9272 -0.5953 -0.2176
  392SOL    HW2 1176   0.206   2.676   1.641  1.2164 -1.2732 -0.0422
  393SOL     OW 1177   1.326   2.450   0.082  0.1734  0.7301  0.1872
  393SOL    HW1 1178   1.249   2.391   0.052  1.0029  1.1175 -1.2674
  393SOL    HW2 1179   1.417   2.399   0.075  0.6651 -2.8528 -0.9010
  394SOL     OW 1180   0.663   0.764   2.324 -0.1747 -0.1306  0.3142
  394SOL    HW1 1181   0.694   0.779   2.418 -0.0523  1.6206 -0.1123
  394SOL    HW2 1182   0.606   0.676   2.326 -2.4417 -4.5280 -0.9582
  395SOL     OW 1183   0.536   1.303   1.082  0.0883 -0.4308  0.0586
  395SOL    HW1 1184   0.532   1.401   1.052  0.1579  1.5102 -2.9475
  395SOL    HW2 1185   0.476   1.254   1.021  2.4908 -1.8735  0.0110
  396SOL     OW 1186   1.693   1.071   2.077  0.1722 -0.2156 -0.0061
  396SOL    HW1 1187   1.626   1.023   2.139  0.1105  0.3275  1.2035
  396SOL    HW2 1188   1.675   1.170   2.088 -3.7863  0.5904  1.6851
  397SOL     OW 1189   0.961   0.331   0.252 -0.3024 -0.0203 -0.3832
  397SOL    HW1 1190   0.890   0.261   0.289 -0.1876 -2.0203  0.1246
  397SOL    HW2 1191   0.979   0.405   0.326  1.2365  0.2903  1.0716
  398SOL     OW 1192   0.865   2.214   2.858 -0.4024 -0.1636  0.3545
  398SOL    HW1 1193   0.935   2.290   2.881  1.8562 -0.5493  0.5079
  398SOL    HW2 1194   0.801   2.185   2.936  1.7578  0.6663  0.9968
  399SOL     OW 1195   1.650   1.833   2.359 -0.1902 -0.4812 -0.3910
  399SOL    HW1 1196   1.609   1.747   2.396  1.2491 -1.3274 -0.6752
  399SOL    HW2 1197   1.740   1.814   2.311  0.5249 -2.2418  1.7200
  400SOL     OW 1198   2.209   1.568   1.370 -0.6531  0.1720  0.5598
  400SOL    HW1 1199   2.210   1.643   1.297 -1.1338  0.0100 -1.6301
  400SOL    HW2 1200   2.261   1.491   1.328 -1.4230  0.1773  2.8714
  401SOL     OW 1201   1.221   1.155   1.039 -1.0643 -0.3012  0.3329
  401SOL    HW1 1202   1.177   1.065   1.049 -1.1747  1.5021  2.0027
  401SOL    HW2 1203   1.303   1.144   0.987 -0.6457  1.4653  1.0865
  402SOL     OW 1204   3.052   2.470   1.933 -0.2837 -0.1913 -0.1792
  402SOL    HW1 1205   2.982   2.528   1.897  1.6634 -2.7287  0.9007
  402SOL    HW2 1206   0.008   2.510   2.017  1.0678 -0.4889  0.3763
  403SOL     OW 1207   3.061   1.631   1.761  0.3211  0.4705  0.1684
  403SOL    HW1 1208   2.991   1.682   1.812  1.9753 -0.1361 -0.7899
  403SOL    HW2 1209   0.056   1.670   1.776  1.0362  2.4375 -0.8517
  404SOL     OW 1210   2.332   1.856   1.309  0.1009  0.2324  1.0404
  404SOL    HW1 1211   2.280   1.901   1.384 -0.0445 -0.4314 -2.2338
  404SOL    HW2 1212   2.388   1.927   1.263 -0.6753 -0.2343  0.1136
  405SOL     OW 1213   2.582   0.427   2.967 -0.1631  0.0313  0.4523
  405SOL    HW1 1214   2.648   0.459   3.035 -1.3738 -0.0601  0.3402
  405SOL    HW2 1215   2.539   0.508   2.917 -1.9156 -0.3542 -0.7227
  406SOL     OW 1216   0.951   1.509   2.518 -0.1168 -0.1496 -0.6216
  406SOL    HW1 1217   0.939   1.590   2.575  1.0173 -0.3114  1.2914
  406SOL    HW2 1218   0.901   1.518   2.433 -1.2088  1.1401  2.3614
  407SOL     OW 1219   1.979   2.725   3.078  0.3513 -0.3165  0.3841
  407SOL    HW1 1220   1.983   2.681   0.075  0.7780  3.6999 -2.1658
  407SOL    HW2 1221   1.902   2.790   3.072 -0.2179 -0.2421 -1.6037
  408SOL     OW 1222   0.514   0.130   0.739 -0.2476 -0.2116 -0.6052
  408SOL    HW1 1223   0.491   0.078   0.655  2.8461 -0.3374  1.2869
  408SOL    HW2 1224   0.434   0.180   0.771 -0.5124  1.1447  0.7755
  409SOL     OW 1225   2.435   1.943   0.984 -0.5367 -0.1878 -0.5666
  409SOL    HW1 1226   2.373   1.896   0.924  2.1428 -1.1199  0.8598
  409SOL    HW2 1227   2.468   1.876   1.058  1.3072 -0.5359  2.7650
  410SOL     OW 1228   2.407   2.179   0.022 -0.4138 -0.1218 -0.0387
  410SOL    HW1 1229   2.495   2.144   0.068  1.6276 -0.3956  0.0174
  410SOL    HW2 1230   2.423   2.211   3.023 -0.5969  1.3126 -1.6559
  411SOL     OW 1231   0.080   0.855   0.577 -0.0030 -0.1586 -0.2452
  411SOL    HW1 1232   3.089   0.887   0.629 -1.7401  0.1505  1.0774
  411SOL    HW2 1233   0.143   0.802   0.639  1.6604 -0.0265  0.5663
  412SOL     OW 1234   1.717   2.663   0.233  0.3323  0.4208 -0.3713
  412SOL    HW1 1235   1.780   2.716   0.293  1.0311 -0.4706  1.4569
  412SOL    HW2 1236   1.642   2.725   0.201  0.4345  1.7079  1.5012
  413SOL     OW 1237   2.132   0.216   2.219 -1.1805 -0.0860  0.0182
  413SOL    HW1 1238   2.083   0.209   2.130 -1.1958  1.4871 -1.0961
  413SOL    HW2 1239   2.072   0.170   2.292 -0.2608 -0.0228  0.5509
  414SOL     OW 1240   0.185   0.166   0.524 -0.2767 -0.4309 -0.0992
  414SOL    HW1 1241   0.189   0.264   0.495 -0.8676 -3.8200 -0.0183
  414SOL    HW2 1242   0.203   0.149   0.626  2.2377 -0.7680 -1.9016
  415SOL     OW 1243   0.799   1.588   1.296  0.3920  0.2590  0.7471
  415SOL    HW1 1244   0.753   1.641   1.221 -0.5093 -1.1810 -0.4714
  415SOL    HW2 1245   0.755   1.500   1.319  1.7871  0.2770 -2.6387
  416SOL     OW 1246   0.526   2.944   0.185  0.4535  0.0630  0.2592
  416SOL    HW1 1247   0.487   3.028   0.133 -1.8773  0.2992 -1.2199
  416SOL    HW2 1248   0.461   2.927   0.261 -2.2850  1.3457 -0.1988
  417SOL     OW 1249   2.685   2.872   1.177  0.0743  0.4482  0.0051
  417SOL    HW1 1250   2.656   2.876   1.278 -0.0234 -1.1731 -2.5533
  417SOL    HW2 1251   2.612   2.826   1.117 -0.1169 -1.3577 -1.0372
  418SOL     OW 1252   0.663   0.463   2.572  0.4333 -0.4120 -0.7600
  418SOL    HW1 1253   0.693   0.550   2.604  0.5490 -0.3668  0.5954
  418SOL    HW2 1254   0.699   0.394   2.640  0.9664  0.1638  1.1925
  419SOL     OW 1255   0.218   1.508   1.051 -0.1976 -0.9792  0.3071
  419SOL    HW1 1256   0.192   1.409   1.055 -0.9229  0.7349  0.0920
  419SOL    HW2 1257   0.137   1.569   1.038 -0.5164 -2.1943 -0.9623
  420SOL     OW 1258   1.499   1.890   0.796 -0.5172 -0.3112 -0.1511
  420SOL    HW1 1259   1.562   1.963   0.835  1.4459  0.7060  0.0214
  420SOL    HW2 1260   1.500   1.885   0.697 -1.9799 -2.5983  1.0307
  421SOL     OW 1261   1.669   1.821   1.934 -0.2352 -0.1625 -0.0475
  421SOL    HW1 1262   1.704   1.772   1.851  1.5619 -1.1879 -1.3135
  421SOL    HW2 1263   1.720   1.784   2.016  0.1701 -0.4517 -0.5233
  422SOL     OW 1264   3.053   0.636   3.025 -0.1560 -0.0606 -0.2259
  422SOL    HW1 1265   3.092   0.543   3.032 -1.2586  3.3319  2.3461
  422SOL    HW2 1266   3.045   0.668   0.028  1.4869 -1.9980  0.8250
  423SOL     OW 1267   1.608   2.144   0.872  0.1705  0.3722 -0.0343
  423SOL    HW1 1268   1.587   2.134   0.775 -0.2120  1.4150 -1.0446
  423SOL    HW2 1269   1.523   2.152   0.920  4.5019 -3.2998 -1.2151
  424SOL     OW 1270   0.701   1.297   1.650  0.4593  0.1035 -0.3721
  424SOL    HW1 1271   0.605   1.329   1.638  0.0291  0.9149 -0.9290
  424SOL    HW2 1272   0.749   1.356   1.714  1.1105 -0.8137 -0.0221
  425SOL     OW 1273   2.711   2.744   2.174  0.3444  0.0169  0.4178
  425SOL    HW1 1274   2.724   2.766   2.075  1.5528 -0.3940 -1.8182
  425SOL    HW2 1275   2.705   2.640   2.179  0.5526 -1.1378 -1.2027
  426SOL     OW 1276   2.251   2.799   0.603  0.2553  0.3288  0.4000
  426SOL    HW1 1277   2.259   2.846   0.696 -2.0572  0.6055  1.3417
  426SOL    HW2 1278   2.299   2.855   0.534  0.0843  0.0671  1.1700
  427SOL     OW 1279   0.531   0.920   2.712  0.1843 -0.1843  0.5848
  427SOL    HW1 1280   0.494   0.975   2.637 -0.2303 -1.2806 -0.8251
  427SOL    HW2 1281   0.632   0.910   2.709  3.4374 -0.8536 -1.1246
  428SOL     OW 1282   2.002   1.200   0.332 -0.0713  0.2504  0.0619
  428SOL    HW1 1283   1.955   1.174   0.244 -0.8923  0.1720  1.8086
  428SOL    HW2 1284   2.027   1.109   0.375 -0.1827 -0.3985  0.1568
  429SOL     OW 1285   0.054   0.022   0.345 -0.2268 -0.0893 -0.3868
  429SOL    HW1 1286   0.111   0.080   0.408  0.9383  0.8303 -1.1858
  429SOL    HW2 1287   3.094   3.049   0.391 -0.8382  1.6353 -0.2048
  430SOL     OW 1288   0.521   2.724   2.282 -0.1650 -0.2885 -0.0938
  430SOL    HW1 1289   0.577   2.801   2.246 -1.1488 -0.7300 -0.5208
  430SOL    HW2 1290   0.417   2.739   2.285 -1.6454  0.6660 -1.8279
  431SOL     OW 1291   2.705   1.128   1.407 -0.2480 -0.6291  0.0221
  431SOL    HW1 1292   2.707   1.227   1.429 -0.9322 -0.2340 -1.6318
  431SOL    HW2 1293   2.721   1.065   1.485  1.3622  1.7484  0.5546
  432SOL     OW 1294   1.907   2.299   1.818  0.1833  0.0468  0.3780
  432SOL    HW1 1295   1.999   2.347   1.819 -0.5808  0.0938  2.2775
  432SOL    HW2 1296   1.917   2.203   1.851  1.1679 -1.4062  1.7994
  433SOL     OW 1297   1.016   1.907   0.240  0.0361  0.8289 -0.8405
  433SOL    HW1 1298   0.953   1.833   0.212  2.1957  0.1133 -1.9772
  433SOL    HW2 1299   0.994   1.992   0.189  0.0061  0.2044 -0.4121
  434SOL     OW 1300   0.379   2.228   2.597 -0.1819 -0.2663  0.3867
  434SOL    HW1 1301   0.410   2.279   2.686  2.6224  1.8496  1.9934
  434SOL    HW2 1302   0.401   2.278   2.512 -0.8920  1.5286  0.1924
  435SOL     OW 1303   0.533   0.703   0.318  0.3405 -0.0524  0.0569
  435SOL    HW1 1304   0.582   0.674   0.229  2.8794  0.7899 -1.5795
  435SOL    HW2 1305   0.509   0.803   0.325 -2.1370 -0.2673  1.2386
  436SOL     OW 1306   0.231   2.760   1.442  0.3132  0.0009 -0.2008
  436SOL    HW1 1307   0.292   2.694   1.396  0.7120 -0.9812  0.0686
  436SOL    HW2 1308   0.144   2.777   1.389 -1.9917  1.8400 -0.1032
  437SOL     OW 1309   1.114   2.090   1.406 -0.1304 -0.1926  0.0033
  437SOL    HW1 1310   1.064   2.145   1.474  2.6146 -1.7034 -1.6063
  437SOL    HW2 1311   1.175   2.138   1.342  0.0479 -1.9770  1.5006
  438SOL     OW 1312   0.031   1.846   0.831 -0.0732 -0.1051 -0.0722
  438SOL    HW1 1313   0.046   1.899   0.919  1.4246  2.7269 -0.6764
  438SOL    HW2 1314   3.066   1.886   0.762  0.8908  0.2226 -1.7604
  439SOL     OW 1315   0.309   0.493   1.132  0.0641 -0.1271 -0.2183
  439SOL    HW1 1316   0.237   0.443   1.181 -1.0505 -1.1817 -1.6855
  439SOL    HW2 1317   0.343   0.431   1.065  1.1338  0.6892  2.8894
  440SOL     OW 1318   0.052   2.766   2.397 -0.0015 -0.2677  0.4716
  440SOL    HW1 1319   3.082   2.709   2.450  0.6586  1.4459 -0.1418
  440SOL    HW2 1320   0.023   2.863   2.406 -0.6550 -1.2995  0.1065
  441SOL     OW 1321   0.047   0.674   1.438  0.1397 -0.6254  0.1190
  441SOL    HW1 1322   3.065   0.716   1.381  1.4009 -2.2379  2.6094
  441SOL    HW2 1323   0.010   0.623   1.516 -0.5556  1.2855  0.3661
  442SOL     OW 1324   1.978   2.320   2.997 -0.1268 -0.1947  0.4992
  442SOL    HW1 1325   2.047   2.249   3.018 -2.2523  1.4313  1.1712
  442SOL    HW2 1326   1.975   2.382   3.077  0.7190 -1.7825 -1.1088
  443SOL     OW 1327   0.503   1.268   3.091 -0.4484  0.3521 -0.3210
  443SOL    HW1 1328   0.490   1.176   3.046 -0.3624 -2.1538 -3.7222
  443SOL    HW2 1329   0.420   1.328   3.093  0.9763  1.9766  1.6046
  444SOL     OW 1330   1.240   1.666   1.914  0.4895  0.3763 -0.0947
  444SOL    HW1 1331   1.156   1.649   1.861 -0.3220 -1.4634 -2.6760
  444SOL    HW2 1332   1.214   1.668   2.015  0.5738  3.1680  0.6674
  445SOL     OW 1333   0.259   3.008   0.938 -0.6560  0.8117 -0.0264
  445SOL    HW1 1334   0.266   0.011   0.921  0.4216 -1.7654 -0.0875
  445SOL    HW2 1335   0.212   2.997   1.029  0.0259  1.9414  0.4148
  446SOL     OW 1336   2.414   0.721   1.182 -0.8436 -0.4807  0.0240
  446SOL    HW1 1337   2.434   0.782   1.259 -1.5124 -2.2117 -1.8500
  446SOL    HW2 1338   2.353   0.775   1.121 -1.5406  0.1174 -1.2531
  447SOL     OW 1339   0.389   0.947   0.106  0.1740  0.3999  0.3536
  447SOL    HW1 1340   0.307   0.888   0.107  2.4269 -0.9810  0.0431
  447SOL    HW2 1341   0.418   0.969   0.200 -0.1199 -1.0152  4.7326
  448SOL     OW 1342   1.122   2.345   1.768 -0.0769 -0.5850 -0.1222
  448SOL    HW1 1343   1.189   2.299   1.829  0.7911  0.5207  0.8709
  448SOL    HW2 1344   1.177   2.388   1.696 -1.5880  1.2136  0.9203
  449SOL     OW 1345   1.292   1.144   0.591  0.2621  0.5589  0.0898
  449SOL    HW1 1346   1.209   1.209   0.599 -3.7677  2.4746  0.1005
  449SOL    HW2 1347   1.264   1.052   0.626 -0.8864  1.4051 -0.4477
  450SOL     OW 1348   2.656   1.688   1.871  0.3634  0.4431 -0.4942
  450SOL    HW1 1349   2.744   1.737   1.858  1.9999 -0.4005 -0.0697
  450SOL    HW2 1350   2.602   1.733   1.948 -0.5768 -2.5812  0.2920
  451SOL     OW 1351   2.607   1.383   2.946 -0.0970 -0.3115 -0.7864
  451SOL    HW1 1352   2.644   1.290   2.912  1.7376 -4.7847  0.1729
  451SOL    HW2 1353   2.601   1.383   3.048  0.9012 -0.7680 -1.9140
  452SOL     OW 1354   1.652   0.593   1.274 -0.3771  0.4364 -0.1423
  452SOL    HW1 1355   1.584   0.540   1.219  1.6735  0.0216 -0.2020
  452SOL    HW2 1356   1.648   0.691   1.262  3.6721 -1.7886  2.8050
  453SOL     OW 1357   1.925   1.135   0.940  0.6370 -0.1955  0.1914
  453SOL    HW1 1358   1.862   1.107   1.017 -0.5027 -1.5510  0.6848
  453SOL    HW2 1359   1.947   1.232   0.948  0.1835 -6.2596  0.9392
  454SOL     OW 1360   2.974   0.897   0.347  0.3722 -0.7824 -0.5261
  454SOL    HW1 1361   3.054   0.866   0.401  1.2899 -0.5938  2.0448
  454SOL    HW2 1362   2.888   0.868   0.389 -1.0705 -2.9186 -0.5832
  455SOL     OW 1363   2.594   1.778   1.142 -0.2932  0.1097  0.2149
  455SOL    HW1 1364   2.617   1.695   1.091  0.7897 -2.0705  0.9557
  455SOL    HW2 1365   2.680   1.818   1.170 -0.0936 -1.5962  2.2573
  456SOL     OW 1366   0.767   0.017   1.316 -0.1577  0.5860 -0.1871
  456SOL    HW1 1367   0.695   0.052   1.380  3.5643  1.4666  2.1343
  456SOL    HW2 1368   0.830   3.045   1.363 -0.4821  0.0299  1.8494
  457SOL     OW 1369   1.940   3.001   0.844 -0.4247 -0.6081  0.2702
  457SOL    HW1 1370   1.998   3.065   0.785  0.3198  1.2307 -2.0508
  457SOL    HW2 1371   1.843   3.010   0.827 -2.3185 -3.0828 -0.0013
  458SOL     OW 1372   2.446   0.224   0.788 -0.0123  0.2597 -0.0251
  458SOL    HW1 1373   2.435   0.158   0.864 -5.3161  0.9429  4.7224
  458SOL    HW2 1374   2.491   0.304   0.830  0.3501 -0.8592  1.8359
  459SOL     OW 1375   1.826   0.651   2.883 -1.0043 -0.1080  0.1691
  459SOL    HW1 1376   1.870   0.719   2.940 -2.4569 -0.3904 -0.9189
  459SOL    HW2 1377   1.822   0.571   2.944  2.9336  1.8934 -2.3289
  460SOL     OW 1378   2.950   2.724   2.667  0.0903 -0.3348  0.3871
  460SOL    HW1 1379   2.989   2.812   2.704  1.3897 -0.0139  0.0331
  460SOL    HW2 1380   2.875   2.694   2.733 -3.7757 -0.5320  1.9164
  461SOL     OW 1381   0.790   1.765   0.127  0.0481  0.3384 -0.6434
  461SOL    HW1 1382   0.743   1.809   0.210 -3.3480 -0.8523  0.7248
  461SOL    HW2 1383   0.726   1.705   0.067 -3.7595 -0.2604 -1.5195
  462SOL     OW 1384   2.274   2.310   0.854 -0.1006  0.0318 -0.6215
  462SOL    HW1 1385   2.319   2.385   0.800 -0.4646 -0.0891 -2.4257
  462SOL    HW2 1386   2.259   2.333   0.954 -0.3728 -0.6023  0.2996
  463SOL     OW 1387   0.159   0.437   0.460 -0.4736 -0.3067 -0.0708
  463SOL    HW1 1388   0.208   0.481   0.537  1.4570 -0.1772  0.2155
  463SOL    HW2 1389   0.183   0.475   0.369  0.0140 -1.1176  0.9689
  464SOL     OW 1390   0.904   2.664   0.601 -0.5483 -0.5981  0.0646
  464SOL    HW1 1391   0.858   2.576   0.619  1.3443 -0.3367  1.8106
  464SOL    HW2 1392   0.882   2.700   0.507 -0.8350 -0.8419 -0.5205
  465SOL     OW 1393   2.467   0.735   0.632  0.8279 -0.2214  0.5593
  465SOL    HW1 1394   2.376   0.776   0.614 -0.0200  1.0571 -0.5209
  465SOL    HW2 1395   2.511   0.728   0.540  2.0008  1.3702 -0.7971
  466SOL     OW 1396   2.222   3.056   0.005 -0.3542  0.0764 -0.4517
  466SOL    HW1 1397   2.258   0.045   3.052  1.6568 -0.4366  0.3742
  466SOL    HW2 1398   2.212   2.981   3.032 -2.4124  1.4158  1.8456
  467SOL     OW 1399   1.247   0.389   1.898  0.3360 -0.1565 -0.1910
  467SOL    HW1 1400   1.154   0.426   1.909  1.4706  0.8104 -0.0791
  467SOL    HW2 1401   1.320   0.460   1.905 -1.6933  0.8210 -0.4968
  468SOL     OW 1402   2.926   0.498   2.018  0.0626  0.4784  0.0062
  468SOL    HW1 1403   3.012   0.455   1.992 -1.2705  0.2911 -4.0254
  468SOL    HW2 1404   2.887   0.541   1.936  1.9444 -2.3728  1.8245
  469SOL     OW 1405   0.834   3.029   2.739 -0.0999 -0.8465 -0.3162
  469SOL    HW1 1406   0.870   2.971   2.814 -0.0031 -0.5678 -1.0729
  469SOL    HW2 1407   0.742   2.998   2.712  0.3573 -0.9060 -0.7275
  470SOL     OW 1408   1.591   1.326   2.162  0.4284  0.3078 -0.6592
  470SOL    HW1 1409   1.493   1.339   2.188  0.3467 -1.2857 -2.3461
  470SOL    HW2 1410   1.625   1.405   2.109 -0.1313 -1.0007  1.0664
  471SOL     OW 1411   2.807   0.987   0.001  0.1226 -0.4509 -0.4633
  471SOL    HW1 1412   2.804   0.908   3.034 -1.5889  2.7498 -0.5685
  471SOL    HW2 1413   2.905   1.019   0.013 -1.6920 -0.6394  0.2365
  472SOL     OW 1414   0.334   2.865   0.374 -0.4214 -0.7167 -0.3675
  472SOL    HW1 1415   0.245   2.853   0.423  0.5921 -1.4754  0.4813
  472SOL    HW2 1416   0.403   2.801   0.413  1.3173  1.7207  1.5198
  473SOL     OW 1417   0.903   0.160   2.934  0.5614 -0.3919 -0.1269
  473SOL    HW1 1418   0.825   0.119   2.982  2.3418 -0.7570  0.8159
  473SOL    HW2 1419   0.928   0.127   2.837  1.8140 -1.3657 -0.7275
  474SOL     OW 1420   1.644   2.961   2.147 -0.0739  0.2251 -0.8095
  474SOL    HW1 1421   1.667   3.036   2.076  2.2234 -0.7307  2.4091
  474SOL    HW2 1422   1.605   3.005   2.234 -0.1604  2.0470  1.8684
  475SOL     OW 1423   0.928   2.612   0.181  0.5053  0.3159  0.3109
  475SOL    HW1 1424   1.005   2.661   0.136  0.0199 -1.3648 -2.8218
  475SOL    HW2 1425   0.869   2.681   0.228 -2.0899 -2.0139 -1.4129
  476SOL     OW 1426   0.459   0.949   0.797 -0.2116  0.3211  0.2080
  476SOL    HW1 1427   0.382   1.015   0.813  0.8775  1.3662 -0.1940
  476SOL    HW2 1428   0.537   0.987   0.740 -0.2644 -1.8403  1.1901
  477SOL     OW 1429   1.866   1.997   1.513 -0.7457  0.1360 -0.1026
  477SOL    HW1 1430   1.814   1.918   1.537  2.6280  0.2709  0.7639
  477SOL    HW2 1431   1.883   2.044   1.604 -0.0293 -0.0159  2.1593
  478SOL     OW 1432   0.427   1.185   2.135 -0.3952  0.0473 -0.2523
  478SOL    HW1 1433   0.480   1.110   2.088  0.6494  0.9008  0.6468
  478SOL    HW2 1434   0.349   1.215   2.075  1.0217  1.8210  1.1570
  479SOL     OW 1435   0.753   0.085   0.836 -0.1393 -0.1994 -0.1897
  479SOL    HW1 1436   0.808   0.134   0.768  0.1450 -0.9097 -0.3672
  479SOL    HW2 1437   0.653   0.095   0.812 -0.4768  0.7535  2.2369
  480SOL     OW 1438   2.352   2.640   2.892 -0.1720  0.1170 -0.3753
  480SOL    HW1 1439   2.296   2.588   2.966 -2.9960 -1.6750  2.8990
  480SOL    HW2 1440   2.343   2.589   2.805  0.8300 -0.6116  1.3366
  481SOL     OW 1441   2.623   0.488   1.295 -0.2317 -0.6021  0.2044
  481SOL    HW1 1442   2.530   0.536   1.291 -0.1091  0.1296  1.0938
  481SOL    HW2 1443   2.676   0.490   1.382 -0.5534 -2.1442 -4.2271
  482SOL     OW 1444   1.462   2.632   1.740  1.0297 -0.4872 -0.0272
  482SOL    HW1 1445   1.539   2.566   1.738 -1.6642  1.4351  0.4835
  482SOL    HW2 1446   1.427   2.651   1.834 -3.0366 -1.5944  0.8884
  483SOL     OW 1447   0.024   1.631   2.725  0.0028 -0.0160 -0.0925
  483SOL    HW1 1448   0.069   1.605   2.634  0.1296  0.9853 -0.8097
  483SOL    HW2 1449   0.001   1.547   2.773  0.4769  0.3696 -0.7817
  484SOL     OW 1450   1.184   2.036   2.322 -0.2670 -0.5300  0.3369
  484SOL    HW1 1451   1.223   2.006   2.235 -0.2939 -3.7780  2.7254
  484SOL    HW2 1452   1.183   2.138   2.331 -0.0605 -0.4437 -0.3027
  485SOL     OW 1453   0.144   0.111   2.577  0.0031 -0.7042 -0.4284
  485SOL    HW1 1454   0.100   0.197   2.539 -1.2622 -1.0525  0.8616
  485SOL    HW2 1455   0.104   0.029   2.531  0.7996 -2.9712  0.9053
  486SOL     OW 1456   1.767   2.977   0.509  0.6816 -0.8445 -0.8625
  486SOL    HW1 1457   1.730   3.070   0.501  1.0661  0.8862  0.6832
  486SOL    HW2 1458   1.695   2.911   0.545 -0.6295 -2.1113  0.5900
  487SOL     OW 1459   1.265   2.477   1.028 -0.6197 -0.1118  0.1990
  487SOL    HW1 1460   1.244   2.414   0.949 -0.1318 -0.5469 -2.8386
  487SOL    HW2 1461   1.329   2.550   0.994  1.3568 -0.4408 -1.0028
  488SOL     OW 1462   1.913   0.850   0.679  0.1034  0.0637  0.2009
  488SOL    HW1 1463   1.973   0.800   0.747  1.3072 -2.0348  1.9584
  488SOL    HW2 1464   1.933   0.946   0.657 -1.9569 -0.5099 -1.7570
  489SOL     OW 1465   1.066   2.742   1.290  0.1135 -0.0265 -0.2282
  489SOL    HW1 1466   1.057   2.656   1.349  1.5706 -0.6515 -0.7172
  489SOL    HW2 1467   1.152   2.786   1.321 -1.3693 -1.2823  0.0099
  490SOL     OW 1468   0.858   0.862   0.585  0.0726 -0.3248  0.1641
  490SOL    HW1 1469   0.926   0.854   0.662  0.3893 -0.3602  0.1938
  490SOL    HW2 1470   0.897   0.815   0.500  0.1476 -1.1605 -2.3473
  491SOL     OW 1471   1.560   2.933   0.130  0.4289 -0.1416 -0.2713
  491SOL    HW1 1472   1.538   3.028   0.160 -3.3189  1.2796  1.9158
  491SOL    HW2 1473   1.488   2.871   0.165 -0.2958 -0.0036  0.3417
  492SOL     OW 1474   1.315   1.346   2.204  0.1452  0.2490  0.3819
  492SOL    HW1 1475   1.254   1.413   2.156  1.0560 -3.5417  0.5411
  492SOL    HW2 1476   1.269   1.261   2.239  0.3057 -0.0987  1.7247
  493SOL     OW 1477   3.068   1.825   0.383  0.5397 -0.0912  0.1492
  493SOL    HW1 1478   3.024   1.765   0.315  1.3234  0.9984  1.8272
  493SOL    HW2 1479   0.069   1.800   0.407 -0.8939  1.7223  2.9627
  494SOL     OW 1480   2.069   1.439   0.400  0.3627 -0.2705  0.5605
  494SOL    HW1 1481   1.992   1.496   0.433  0.9914 -1.3217  0.0538
  494SOL    HW2 1482   2.039   1.344   0.379 -2.5653 -1.9722 -0.4300
  495SOL     OW 1483   3.090   0.901   2.704 -0.2494  0.2386  0.3841
  495SOL    HW1 1484   3.030   0.909   2.621 -0.1341  2.0328 -1.0258
  495SOL    HW2 1485   0.034   0.991   2.735  1.5661  4.2072  2.7662
  496SOL     OW 1486   2.814   3.052   2.454 -0.2919 -0.4268 -0.0188
  496SOL    HW1 1487   2.762   0.020   2.393 -0.2815  1.2658  1.3878
  496SOL    HW2 1488   2.787   2.954   2.435  0.6400  0.1168  1.4490
  497SOL     OW 1489   2.571   0.927   0.786  0.9094  0.3874  0.2702
  497SOL    HW1 1490   2.537   0.840   0.738  2.3589 -0.5130  0.4166
  497SOL    HW2 1491   2.595   1.001   0.720 -0.8601  1.6280  0.1096
  498SOL     OW 1492   0.029   2.687   0.033 -0.0476  0.0270  0.5222
  498SOL    HW1 1493   0.104   2.757   0.053  2.1079  2.3019  1.7070
  498SOL    HW2 1494   0.015   2.687   3.026  0.9244  0.2989 -1.2897
  499SOL     OW 1495   1.448   2.640   0.890  0.3670 -0.0604  0.4999
  499SOL    HW1 1496   1.474   2.731   0.853 -1.1874  0.0857 -3.0966
  499SOL    HW2 1497   1.463   2.572   0.814 -0.2623 -1.1804 -0.6492
  500SOL     OW 1498   0.972   0.416   2.500  0.1850 -0.0537  0.5508
  500SOL    HW1 1499   0.889   0.425   2.558  0.5078 -0.0300 -1.3086
  500SOL    HW2 1500   1.033   0.487   2.534 -1.2099  0.2732 -2.3260
  501SOL     OW 1501   1.106   0.103   1.442 -0.2353 -0.1932  1.0468
  501SOL    HW1 1502   1.178   0.136   1.376  0.6411 -1.0931 -0.4478
  501SOL    HW2 1503   1.066   0.013   1.415  1.0124  1.1180  1.0685
  502SOL     OW 1504   3.056   0.092   2.175 -0.4755 -0.0704  0.2835
  502SOL    HW1 1505   0.047   0.124   2.126  1.4464 -0.3850 -0.6388
  502SOL    HW2 1506   3.017   0.174   2.223  0.7833 -1.7363 -0.0397
  503SOL     OW 1507   1.688   2.101   1.957 -0.1521 -0.3369  0.3705
  503SOL    HW1 1508   1.591   2.121   1.976 -1.8557  1.8583 -2.2715
  503SOL    HW2 1509   1.708   1.998   1.944 -0.1007 -0.6724 -0.5996
  504SOL     OW 1510   2.205   2.850   1.622 -0.3516  0.3938 -0.2308
  504SOL    HW1 1511   2.280   2.878   1.686  1.0554  3.2652  1.1658
  504SOL    HW2 1512   2.150   2.930   1.596 -0.4629  1.8186  0.7896
  505SOL     OW 1513   2.846   1.027   1.663  0.3411 -0.2070  0.5263
  505SOL    HW1 1514   2.936   1.016   1.608 -0.3059 -2.1962 -0.5870
  505SOL    HW2 1515   2.822   1.128   1.674  1.4317  0.4878 -1.5701
  506SOL     OW 1516   0.217   1.590   2.535 -0.4898 -0.0287 -0.8950
  506SOL    HW1 1517   0.176   1.527   2.465  1.2043 -0.0495  0.4661
  506SOL    HW2 1518   0.316   1.560   2.536  0.4826  1.2034  0.2918
  507SOL     OW 1519   0.253   2.995   1.546  0.3614 -0.4196 -0.1170
  507SOL    HW1 1520   0.242   3.071   1.476 -0.2448 -1.2582  2.0589
  507SOL    HW2 1521   0.255   2.899   1.505 -1.7303 -0.0431 -0.6817
  508SOL     OW 1522   1.371   0.712   1.503  0.3140  0.3208 -0.3691
  508SOL    HW1 1523   1.350   0.777   1.426  0.6906  2.8837 -0.4203
  508SOL    HW2 1524   1.469   0.715   1.526 -0.0366 -1.5889  1.4786
  509SOL     OW 1525   1.378   2.139   1.010  0.6185  0.1462  0.0731
  509SOL    HW1 1526   1.323   2.112   1.091 -2.1072  0.7724 -1.2342
  509SOL    HW2 1527   1.332   2.214   0.947  0.1369  0.5185 -2.6165
  510SOL     OW 1528   2.667   1.114   2.908  0.4042 -0.6819  0.0181
  510SOL    HW1 1529   2.607   1.040   2.869 -1.5868 -2.5067 -3.8220
  510SOL    HW2 1530   2.704   1.084   2.996  0.7050 -1.1078 -1.6897
  511SOL     OW 1531   0.638   1.335   1.324  0.1434  0.9341 -0.6228
  511SOL    HW1 1532   0.585   1.271   1.384 -0.3037 -0.6730  1.0792
  511SOL    HW2 1533   0.610   1.323   1.229  0.2267  0.4943  2.4087
  512SOL     OW 1534   2.678   2.548   0.451 -0.2042 -0.0727  0.3903
  512SOL    HW1 1535   2.665   2.497   0.537 -0.1359 -0.1124 -0.1889
  512SOL    HW2 1536   2.591   2.546   0.395  2.8395  1.0399  0.6337
  513SOL     OW 1537   0.388   1.666   2.978  0.1257  0.2360  0.6764
  513SOL    HW1 1538   0.333   1.735   3.028 -0.6905 -0.2636 -3.4368
  513SOL    HW2 1539   0.322   1.595   2.949 -0.6712  0.7090  0.9617
  514SOL     OW 1540   0.063   2.676   2.853 -0.1364 -0.2996  0.1087
  514SOL    HW1 1541   0.005   2.647   2.774 -0.3399  0.1889 -0.8888
  514SOL    HW2 1542   0.118   2.764   2.833  0.6220  2.1713  1.8483
  515SOL     OW 1543   1.496   0.970   2.277  0.5958 -0.1333 -0.5832
  515SOL    HW1 1544   1.400   1.000   2.255 -0.0563  2.8066  1.6059
  515SOL    HW2 1545   1.504   0.913   2.365  0.0932 -2.3222 -0.8805
  516SOL     OW 1546   2.060   2.145   0.731  0.4815 -0.5000  0.9357
  516SOL    HW1 1547   2.066   2.084   0.649  0.9215 -0.5672 -1.6318
  516SOL    HW2 1548   2.150   2.189   0.752  0.4647 -0.2241 -1.1604
  517SOL     OW 1549   1.304   1.482   0.694 -0.1122 -0.1747  0.3825
  517SOL    HW1 1550   1.377   1.431   0.746  1.5817 -0.9595 -0.4875
  517SOL    HW2 1551   1.337   1.542   0.620  2.1322 -0.4298  1.1273
  518SOL     OW 1552   2.134   2.272   2.328  0.2589 -0.0146  0.0716
  518SOL    HW1 1553   2.046   2.275   2.272 -1.6488 -3.1296  0.3272
  518SOL    HW2 1554   2.148   2.358   2.380  0.9077 -1.2110  0.5864
  519SOL     OW 1555   1.891   2.115   1.246  0.1221  0.4931 -0.0468
  519SOL    HW1 1556   1.900   2.092   1.347 -0.9391  0.0916  0.5015
  519SOL    HW2 1557   1.840   2.199   1.236 -0.6637 -5.0925  1.5943
  520SOL     OW 1558   2.672   2.429   2.710  0.2328 -0.2922 -0.2507
  520SOL    HW1 1559   2.713   2.414   2.619 -0.6218 -0.9195  0.5314
  520SOL    HW2 1560   2.570   2.419   2.708  1.3131  1.5079  0.9498
  521SOL     OW 1561   0.229   1.282   1.978  0.0645 -0.1794  0.4325
  521SOL    HW1 1562   0.200   1.244   1.887  0.2717 -0.2313 -1.2230
  521SOL    HW2 1563   0.248   1.384   1.965  0.0474  1.4690  2.4832
  522SOL     OW 1564   0.542   0.350   2.142  0.3592 -0.1541  0.2098
  522SOL    HW1 1565   0.485   0.398   2.072  0.8120  1.2423 -0.0983
  522SOL    HW2 1566   0.588   0.273   2.092  2.6312 -2.4760  2.7893
  523SOL     OW 1567   0.621   2.197   0.866 -0.2010 -0.3004  0.5303
  523SOL    HW1 1568   0.560   2.122   0.899  1.6162  0.4097  1.7011
  523SOL    HW2 1569   0.575   2.266   0.805  0.7565  2.5576  1.0833
  524SOL     OW 1570   1.955   2.838   0.369 -0.2678  0.2177 -0.3193
  524SOL    HW1 1571   2.025   2.898   0.330  1.3087 -0.7343  2.1508
  524SOL    HW2 1572   1.888   2.904   0.413 -1.0046  0.6274  1.6240
  525SOL     OW 1573   2.391   0.602   1.572  0.8234  0.0281  0.1272
  525SOL    HW1 1574   2.360   0.595   1.477 -0.5254  0.2550 -1.6596
  525SOL    HW2 1575   2.425   0.512   1.597  0.5142  1.6860 -2.1778
  526SOL     OW 1576   1.146   2.639   0.733 -0.2649 -0.1021  0.2024
  526SOL    HW1 1577   1.224   2.647   0.665 -0.2977  0.1822  0.3636
  526SOL    HW2 1578   1.061   2.621   0.683  0.3506 -0.6119  0.3107
  527SOL     OW 1579   2.417   2.646   0.286  0.2179  0.0421 -0.4998
  527SOL    HW1 1580   2.316   2.647   0.272 -1.9297 -0.0177 -1.6003
  527SOL    HW2 1581   2.455   2.573   0.228 -2.6808  0.5355  0.4976
  528SOL     OW 1582   2.497   0.247   0.329 -0.5242  0.4509 -0.0028
  528SOL    HW1 1583   2.532   0.197   0.246  0.4066 -1.0147 -1.7428
  528SOL    HW2 1584   2.506   0.201   0.419  0.3511  3.6943  0.6146
  529SOL     OW 1585   1.353   1.521   2.449 -0.0709 -0.0789 -0.0861
  529SOL    HW1 1586   1.448   1.555   2.474  3.9681 -0.3502  0.4350
  529SOL    HW2 1587   1.305   1.576   2.380 -0.6093  2.6968  2.4415
  530SOL     OW 1588   2.312   0.568   0.134 -0.1150 -0.1335 -0.2429
  530SOL    HW1 1589   2.285   0.474   0.108 -2.9230 -1.6873  1.1650
  530SOL    HW2 1590   2.352   0.573   0.221 -3.0454 -0.5513 -1.0045
  531SOL     OW 1591   1.584   1.079   2.990  0.0319 -0.1134 -0.1081
  531SOL    HW1 1592   1.538   1.036   3.067  0.8595  2.2181 -0.8467
  531SOL    HW2 1593   1.529   1.064   2.907 -1.2073  1.0194 -1.2818
  532SOL     OW 1594   1.632   0.545   0.569 -0.4285 -0.1144 -0.5645
  532SOL    HW1 1595   1.722   0.525   0.608 -0.5394 -1.8690 -1.3339
  532SOL    HW2 1596   1.646   0.537   0.469 -0.0613  1.0783  0.5308
  533SOL     OW 1597   0.980   0.764   1.964 -0.5520 -0.0165  0.6653
  533SOL    HW1 1598   0.921   0.825   2.025  0.3767  1.1022 -1.4500
  533SOL    HW2 1599   0.966   0.779   1.862 -3.9544 -0.6732  2.7366
  534SOL     OW 1600   1.397   0.299   2.573  0.1891  0.5756 -0.2958
  534SOL    HW1 1601   1.452   0.316   2.653 -0.9406  0.6737 -2.2687
  534SOL    HW2 1602   1.301   0.288   2.602  2.5610  0.9467  1.0454
  535SOL     OW 1603   0.510   0.263   0.404 -0.7223  0.0925 -0.4198
  535SOL    HW1 1604   0.469   0.174   0.432  0.0486  0.6318 -0.0063
  535SOL    HW2 1605   0.462   0.299   0.321  0.1285  1.7860 -0.3319
  536SOL     OW 1606   0.882   0.212   0.635  0.2134  0.2484 -0.1503
  536SOL    HW1 1607   0.842   0.189   0.544  1.4731  2.8195  0.2033
  536SOL    HW2 1608   0.910   0.309   0.636 -0.5663 -0.6995  0.8648
  537SOL     OW 1609   1.659   0.789   0.685  0.0471  0.6145 -0.4822
  537SOL    HW1 1610   1.760   0.800   0.663  1.4552 -2.2564  0.8957
  537SOL    HW2 1611   1.632   0.693   0.664  1.2272 -3.7356 -1.0263
  538SOL     OW 1612   2.899   2.108   0.121  0.1952 -0.2634 -0.0211
  538SOL    HW1 1613   2.878   2.195   0.072 -0.5858  0.0716 -2.6845
  538SOL    HW2 1614   2.973   2.055   0.076 -1.3021  0.8047  4.1246
  539SOL     OW 1615   1.987   1.701   0.115  0.1270 -0.0435  0.2990
  539SOL    HW1 1616   2.079   1.683   0.156  0.2910  0.1467  1.0466
  539SOL    HW2 1617   1.954   1.609   0.089  2.5148  3.1409 -1.8141
  540SOL     OW 1618   0.390   2.569   1.302  0.2916  0.3355  0.1854
  540SOL    HW1 1619   0.313   2.508   1.266  0.5119 -2.1072  1.2871
  540SOL    HW2 1620   0.447   2.608   1.229  1.5063  2.8365  1.2164
  541SOL     OW 1621   1.903   2.939   2.321 -0.0852 -0.6822  0.0340
  541SOL    HW1 1622   1.834   3.000   2.363  1.3295 -1.4878 -2.1893
  541SOL    HW2 1623   1.854   2.866   2.270 -0.9175 -1.8651 -0.8914
  542SOL     OW 1624   0.052   0.628   2.758  0.7112 -0.4388 -0.3179
  542SOL    HW1 1625   0.026   0.629   2.857  1.9748 -0.6246 -0.5722
  542SOL    HW2 1626   0.036   0.720   2.716  1.2407  1.7499 -0.2665
  543SOL     OW 1627   0.061   1.270   1.070 -0.2048 -0.0028 -0.0608
  543SOL    HW1 1628   0.009   1.328   1.005 -0.4232 -1.7063 -2.7582
  543SOL    HW2 1629   0.011   1.177   1.068 -2.1477 -1.1156 -2.7977
  544SOL     OW 1630   2.755   0.270   1.138  0.3475 -0.1454  1.0151
  544SOL    HW1 1631   2.680   0.322   1.176  1.3599 -2.0128 -2.1747
  544SOL    HW2 1632   2.779   0.293   1.041  1.2035 -0.5126  0.5380
  545SOL     OW 1633   1.592   2.395   0.678 -0.4116  0.0000 -0.0202
  545SOL    HW1 1634   1.545   2.420   0.589 -2.4729 -1.2160 -1.3881
  545SOL    HW2 1635   1.596   2.296   0.679  1.6352  1.8028 -2.1340
  546SOL     OW 1636   2.043   2.652   1.721 -0.6186 -0.3860  0.3305
  546SOL    HW1 1637   2.092   2.572   1.752  0.9244 -0.8136 -0.7284
  546SOL    HW2 1638   2.106   2.727   1.681 -0.3736  2.9731 -2.0218
  547SOL     OW 1639   0.202   0.160   2.028 -0.7669 -0.3490  0.1330
  547SOL    HW1 1640   0.244   0.169   2.123  1.8500  2.0371 -1.5675
  547SOL    HW2 1641   0.267   0.146   1.953 -2.7237 -1.4938 -1.0256
  548SOL     OW 1642   1.694   1.515   2.905 -0.3547  0.5228 -0.2179
  548SOL    HW1 1643   1.620   1.453   2.941  2.3290 -0.4398 -0.3450
  548SOL    HW2 1644   1.746   1.470   2.830 -2.6625 -1.7314  0.7501
  549SOL     OW 1645   2.958   1.131   0.516 -0.6426 -0.4832  0.0360
  549SOL    HW1 1646   2.862   1.142   0.549  2.4247 -3.2815 -2.5018
  549SOL    HW2 1647   2.960   1.081   0.424  1.2253 -1.7210 -3.2538
  550SOL     OW 1648   1.863   2.028   0.860 -0.1900  0.2097 -0.1602
  550SOL    HW1 1649   1.929   2.083   0.803  2.0344  0.0083  0.8310
  550SOL    HW2 1650   1.775   2.077   0.876  2.3134 -1.1969 -1.1036
  551SOL     OW 1651   1.296   0.547   0.831  0.2331  0.2798  0.2527
  551SOL    HW1 1652   1.202   0.521   0.863  0.6896  1.8175 -0.8921
  551SOL    HW2 1653   1.357   0.464   0.816  0.0114  2.7176  0.1362
  552SOL     OW 1654   2.680   2.826   2.427 -0.1493 -0.4425 -0.2297
  552SOL    HW1 1655   2.703   2.822   2.328 -1.3265  0.1813  2.5687
  552SOL    HW2 1656   2.605   2.757   2.453 -0.2840  1.6806  1.0395
  553SOL     OW 1657   3.071   3.032   2.393 -0.8614 -0.4079 -0.0644
  553SOL    HW1 1658   3.080   3.076   2.301 -0.6675 -0.2778  2.8934
  553SOL    HW2 1659   2.980   3.054   2.428 -0.9499  1.0715  0.5737
  554SOL     OW 1660   0.955   2.864   1.055 -0.6477 -0.5605 -0.5841
  554SOL    HW1 1661   0.862   2.898   1.067  1.6593 -0.2149 -0.2943
  554SOL    HW2 1662   0.991   2.810   1.133 -1.8657 -0.8304  1.0176
  555SOL     OW 1663   2.414   2.592   2.213 -0.0148  0.4127 -0.0275
  555SOL    HW1 1664   2.389   2.664   2.145  2.2153  2.3037 -1.3239
  555SOL    HW2 1665   2.498   2.544   2.185  0.6418 -0.0491 -1.8785
  556SOL     OW 1666   1.128   0.233   2.698 -0.3476 -0.4823 -0.1890
  556SOL    HW1 1667   1.048   0.276   2.657  1.7301  0.9934 -0.1976
  556SOL    HW2 1668   1.157   0.151   2.652 -0.6157  3.0291  2.9382
  557SOL     OW 1669   0.215   1.835   2.385  0.1033  0.0615 -0.1217
  557SOL    HW1 1670   0.292   1.903   2.406  0.0768  1.8310  1.0043
  557SOL    HW2 1671   0.221   1.750   2.441 -0.9635 -1.1889  0.7751
  558SOL     OW 1672   2.040   0.890   2.491 -0.4770  0.5407 -0.1066
  558SOL    HW1 1673   2.114   0.845   2.431  2.6992  1.0911 -0.4988
  558SOL    HW2 1674   2.006   0.974   2.437  0.3763  0.1582 -0.3797
  559SOL     OW 1675   2.520   2.025   2.357 -0.5436 -0.3104 -0.6891
  559SOL    HW1 1676   2.421   2.031   2.383  3.1621 -2.3035 -1.5598
  559SOL    HW2 1677   2.533   2.056   2.259 -1.7467  0.4886  1.4835
  560SOL     OW 1678   2.423   0.927   2.358 -0.4354 -0.6516 -0.0143
  560SOL    HW1 1679   2.360   0.847   2.346  1.4497  3.4341 -1.1150
  560SOL    HW2 1680   2.423   0.988   2.272 -1.2287 -0.9142 -1.9071
  561SOL     OW 1681   0.315   0.313   0.202  0.3241 -0.3321  0.2816
  561SOL    HW1 1682   0.215   0.309   0.224 -2.0504  1.0763 -0.1339
  561SOL    HW2 1683   0.347   0.401   0.160  2.4474 -0.3546  0.1144
  562SOL     OW 1684   1.078   1.298   1.505  0.2799 -0.0582  0.0669
  562SOL    HW1 1685   1.085   1.390   1.541  2.5276  3.1239  1.8415
  562SOL    HW2 1686   0.990   1.257   1.526  1.7387  0.8616 -0.4663
  563SOL     OW 1687   1.575   3.051   2.670  0.7557 -0.4347 -0.3458
  563SOL    HW1 1688   1.487   3.053   2.726 -0.1764 -0.7425 -0.0779
  563SOL    HW2 1689   1.620   2.965   2.699 -1.0553  0.0092 -0.1950
  564SOL     OW 1690   0.059   2.033   1.036  0.6428 -0.1400  0.2492
  564SOL    HW1 1691   3.080   2.075   1.096  1.2290  1.7997 -0.0893
  564SOL    HW2 1692   0.120   2.104   0.996 -1.1705  2.6574 -1.5814
  565SOL     OW 1693   0.708   2.376   2.154 -0.1266  0.2496  0.1475
  565SOL    HW1 1694   0.771   2.401   2.079  3.6776 -1.4623 -1.0058
  565SOL    HW2 1695   0.612   2.358   2.120 -0.4671  0.1136  0.0764
  566SOL     OW 1696   1.159   2.456   2.100 -0.0038  0.1078 -0.3775
  566SOL    HW1 1697   1.224   2.385   2.136  0.3955  0.8478  1.9981
  566SOL    HW2 1698   1.100   2.420   2.022 -0.8079  1.7520 -1.1869
  567SOL     OW 1699   2.155   2.391   1.136  0.0545  0.0419  0.0466
  567SOL    HW1 1700   2.062   2.428   1.156  1.0741  1.1034  1.9472
  567SOL    HW2 1701   2.150   2.290   1.141  0.3344  2.6803 -2.4778
  568SOL     OW 1702   1.935   0.585   0.439  0.1218  0.2261 -0.0063
  568SOL    HW1 1703   1.975   0.678   0.424 -0.2377  1.8905  1.7594
  568SOL    HW2 1704   1.892   0.587   0.534 -1.4913 -1.2361 -0.6893
  569SOL     OW 1705   2.795   1.757   2.660 -0.5523  0.5176  0.0877
  569SOL    HW1 1706   2.881   1.778   2.607  2.7169  1.3717  0.8354
  569SOL    HW2 1707   2.820   1.683   2.729  2.0687  1.0198 -0.3846
  570SOL     OW 1708   3.055   0.106   1.007 -0.4621 -0.4237 -0.7198
  570SOL    HW1 1709   0.019   0.045   1.068  1.6966 -4.5239  1.1278
  570SOL    HW2 1710   3.048   0.197   1.056 -0.7423  1.6884  2.7203
  571SOL     OW 1711   3.019   0.542   1.637 -0.2322 -0.0585 -0.2023
  571SOL    HW1 1712   2.967   0.602   1.705 -0.9595  1.9071  1.4876
  571SOL    HW2 1713   3.077   0.469   1.682  1.3627 -1.4010 -0.6797
  572SOL     OW 1714   2.673   2.410   0.683  0.3047  0.6777  0.4776
  572SOL    HW1 1715   2.689   2.453   0.775  0.7474 -1.0870  1.5142
  572SOL    HW2 1716   2.737   2.340   0.652 -0.5203 -0.6172  0.9711
  573SOL     OW 1717   0.786   0.728   0.134 -0.3949 -0.5773  0.4259
  573SOL    HW1 1718   0.715   0.668   0.089  3.0763  0.0349 -0.8925
  573SOL    HW2 1719   0.751   0.826   0.147 -1.7834 -1.9835 -2.8935
  574SOL     OW 1720   2.957   2.999   2.992  0.0214  0.3997 -0.1153
  574SOL    HW1 1721   2.898   2.934   3.045  0.7397  0.1916 -0.6006
  574SOL    HW2 1722   3.031   3.040   3.053 -0.9131  0.6056  1.1479
  575SOL     OW 1723   1.358   2.120   1.278  0.3226 -0.8477 -0.2526
  575SOL    HW1 1724   1.358   2.220   1.300 -1.6543  0.2377  1.9810
  575SOL    HW2 1725   1.440   2.074   1.318  0.0679 -2.2555  0.3845
  576SOL     OW 1726   0.760   2.627   1.128  0.7329  0.2243  0.4790
  576SOL    HW1 1727   0.768   2.692   1.210  0.7719 -0.4649 -0.7122
  576SOL    HW2 1728   0.842   2.569   1.121 -0.0197  3.1300  0.6405
  577SOL     OW 1729   2.194   1.727   1.127  0.3412  0.1733  0.0364
  577SOL    HW1 1730   2.265   1.769   1.191  0.5716  1.5889  1.1557
  577SOL    HW2 1731   2.211   1.772   1.035 -0.8992  0.6056  0.5269
  578SOL     OW 1732   1.607   0.367   0.353  0.0847  0.0761 -0.1369
  578SOL    HW1 1733   1.578   0.442   0.290  1.5097 -1.7269 -0.0724
  578SOL    HW2 1734   1.523   0.310   0.383 -1.3882 -2.6779 -0.2333
  579SOL     OW 1735   2.107   1.266   2.769  0.3807 -0.1083 -0.3647
  579SOL    HW1 1736   2.193   1.284   2.723 -1.1421 -4.2061  0.1026
  579SOL    HW2 1737   2.089   1.166   2.766  2.1505  0.3521  1.8090
  580SOL     OW 1738   1.772   0.568   1.843 -0.1729  0.1105 -0.1377
  580SOL    HW1 1739   1.783   0.658   1.881 -1.2267 -2.3601 -0.8188
  580SOL    HW2 1740   1.772   0.504   1.923  0.6610 -0.2010 -1.2901
  581SOL     OW 1741   0.774   1.088   1.020  0.3954 -0.2742  0.0445
  581SOL    HW1 1742   0.691   1.145   1.016  2.0733  0.0702  0.1429
  581SOL    HW2 1743   0.830   1.110   1.104 -0.0478  0.3062  0.9090
  582SOL     OW 1744   2.648   0.158   2.290 -0.3876  0.2931  0.4432
  582SOL    HW1 1745   2.558   0.145   2.252 -2.1930 -0.1779  0.2611
  582SOL    HW2 1746   2.712   0.200   2.221  1.3333  0.6243 -0.5060
  583SOL     OW 1747   2.722   0.657   2.144  0.4823  0.4547 -0.7111
  583SOL    HW1 1748   2.718   0.582   2.213  2.7265  1.8145  0.9756
  583SOL    HW2 1749   2.822   0.671   2.126  0.2810  0.9357  1.8958
  584SOL     OW 1750   1.164   1.882   2.788 -0.0191  0.7777 -0.0003
  584SOL    HW1 1751   1.181   1.919   2.882  0.4448 -0.7051  0.1679
  584SOL    HW2 1752   1.173   1.956   2.718 -0.1580 -1.4134  2.2989
  585SOL     OW 1753   0.425   0.061   0.056  0.2526 -0.0042 -0.1543
  585SOL    HW1 1754   0.376   0.031   3.068 -0.4845 -1.6625  1.8003
  585SOL    HW2 1755   0.370   0.126   0.121 -0.3644  0.6193  0.8205
  586SOL     OW 1756   1.628   2.212   2.586 -0.1926 -0.5128  0.0233
  586SOL    HW1 1757   1.693   2.259   2.652  1.6333  0.0903  0.7748
  586SOL    HW2 1758   1.602   2.118   2.615  2.7731  0.2238 -0.0815
  587SOL     OW 1759   2.439   2.379   0.547 -0.2366 -0.1780  0.3382
  587SOL    HW1 1760   2.354   2.437   0.571 -1.9020  1.8898  1.9634
  587SOL    HW2 1761   2.513   2.395   0.616  3.0908 -0.3432  1.0865
  588SOL     OW 1762   2.363   0.275   1.185 -0.2010  0.1214 -0.3395
  588SOL    HW1 1763   2.421   0.210   1.131 -2.1557 -0.6036 -1.0416
  588SOL    HW2 1764   2.310   0.337   1.123 -1.5187 -1.1066  1.0058
  589SOL     OW 1765   0.726   0.642   0.697 -0.0604 -0.3147 -0.3418
  589SOL    HW1 1766   0.749   0.737   0.667  0.4408 -2.5533 -2.8717
  589SOL    HW2 1767   0.661   0.599   0.632  2.0686 -0.6173  2.3039
  590SOL     OW 1768   2.060   1.976   0.475  0.5891  0.3693 -0.5573
  590SOL    HW1 1769   2.133   1.905   0.485  2.9353  0.2971  2.5091
  590SOL    HW2 1770   2.089   2.048   0.405  0.7480  1.6219 -0.6431
  591SOL     OW 1771   0.588   2.386   1.116  0.7653  0.0923 -0.1000
  591SOL    HW1 1772   0.586   2.360   1.016 -1.9327  0.3269  0.5174
  591SOL    HW2 1773   0.648   2.464   1.141 -2.3030 -1.1624 -0.1811
  592SOL     OW 1774   1.019   0.765   1.274  0.3849  0.1181  0.1663
  592SOL    HW1 1775   0.934   0.737   1.227 -0.1178  1.9337 -0.4896
  592SOL    HW2 1776   1.055   0.692   1.324  0.7843  3.4701 -0.8510
  593SOL     OW 1777   0.871   1.211   1.260 -0.4280  0.4961  0.7785
  593SOL    HW1 1778   0.883   1.162   1.346 -1.3998 -0.9221 -2.7861
  593SOL    HW2 1779   0.799   1.280   1.265  2.2816 -1.1080 -2.6051
  594SOL     OW 1780   0.857   2.215   0.430  0.2504 -0.1864 -0.0704
  594SOL    HW1 1781   0.911   2.250   0.350 -2.2366  0.0748 -2.3515
  594SOL    HW2 1782   0.884   2.121   0.457  0.9073  2.0776  0.3822
  595SOL     OW 1783   1.598   0.284   1.059 -0.4055  0.3347 -0.5946
  595SOL    HW1 1784   1.680   0.314   1.008 -0.4276 -0.9181 -2.5399
  595SOL    HW2 1785   1.534   0.364   1.077 -2.0057  2.5270 -2.5500
  596SOL     OW 1786   0.007   1.670   1.058 -0.1038  0.3194 -0.4546
  596SOL    HW1 1787   0.000   1.731   1.140  0.6933 -1.6049 -1.0175
  596SOL    HW2 1788   3.092   1.726   0.976 -0.7733  1.7572  0.2580
  597SOL     OW 1789   0.284   2.543   2.398 -0.4243  0.2488 -0.7813
  597SOL    HW1 1790   0.367   2.481   2.392  2.7525  1.4359 -1.3512
  597SOL    HW2 1791   0.290   2.606   2.481 -0.7946  2.0159  0.8953
  598SOL     OW 1792   2.777   2.323   1.992 -0.0433 -0.0946  0.7411
  598SOL    HW1 1793   2.875   2.350   1.999 -0.0404  0.1902  0.5990
  598SOL    HW2 1794   2.751   2.342   1.892 -2.2596  1.3827 -0.1129
  599SOL     OW 1795   1.000   0.380   3.085  0.4789  0.1995 -0.0818
  599SOL    HW1 1796   0.977   0.375   0.090 -0.2747  1.3238 -2.1006
  599SOL    HW2 1797   0.966   0.300   3.033  0.0456 -0.4283  1.6171
  600SOL     OW 1798   0.496   2.628   3.073 -0.2742 -0.3238 -0.2130
  600SOL    HW1 1799   0.561   2.668   3.009  1.1948  0.1650  1.0228
  600SOL    HW2 1800   0.430   2.575   3.011  1.1141 -0.8341 -2.2133
  601SOL     OW 1801   0.710   0.648   1.448  0.4768 -0.5822  0.1269
  601SOL    HW1 1802   0.796   0.603   1.474 -1.3899 -0.5707 -0.0692
  601SOL    HW2 1803   0.686   0.619   1.350 -1.4668  0.2453 -2.7444
  602SOL     OW 1804   0.891   2.860   0.794  0.5302 -0.3596 -1.2257
  602SOL    HW1 1805   0.902   2.765   0.753  2.5363 -0.5928  0.9552
  602SOL    HW2 1806   0.921   2.856   0.895  2.1607 -0.9639  2.3133
  603SOL     OW 1807   0.546   0.525   2.346  0.0281 -0.0280  0.1585
  603SOL    HW1 1808   0.577   0.457   2.273  0.1205 -2.3098  0.6688
  603SOL    HW2 1809   0.573   0.493   2.436  0.4351  0.5526 -0.3069
  604SOL     OW 1810   0.627   2.747   1.623  0.1052  0.2870 -0.2374
  604SOL    HW1 1811   0.603   2.831   1.679 -1.4321 -0.5602 -2.5363
  604SOL    HW2 1812   0.551   2.684   1.610  0.9704 -0.1739 -1.4013
  605SOL     OW 1813   1.754   0.800   1.990  0.0683  0.4307  0.4819
  605SOL    HW1 1814   1.733   0.897   1.965  0.3919  0.3089 -0.7755
  605SOL    HW2 1815   1.675   0.762   2.049 -1.7327 -1.5809  1.2964
  606SOL     OW 1816   2.492   2.883   3.018 -0.8977  0.1150 -0.5135
  606SOL    HW1 1817   2.475   2.804   2.963  1.4853  1.4176  3.5784
  606SOL    HW2 1818   2.439   2.964   2.980 -0.0255  1.4871 -2.2064
  607SOL     OW 1819   0.780   0.671   1.155 -0.3601  0.6426  0.0650
  607SOL    HW1 1820   0.789   0.584   1.107 -2.1290  1.8724  1.3572
  607SOL    HW2 1821   0.722   0.735   1.096 -1.3652  1.0774  0.1676
  608SOL     OW 1822   0.335   1.946   2.650 -0.4104 -0.1573  0.2532
  608SOL    HW1 1823   0.361   2.042   2.629  1.0975 -1.4176  0.5868
  608SOL    HW2 1824   0.255   1.944   2.711 -1.3169  0.1766 -1.0825
  609SOL     OW 1825   1.410   1.095   0.338 -0.4281 -0.5104  0.5933
  609SOL    HW1 1826   1.361   1.132   0.420  1.3964  0.2283  2.4302
  609SOL    HW2 1827   1.362   1.135   0.257  0.5435 -0.5214 -1.9560
  610SOL     OW 1828   0.563   0.448   1.283 -0.0374  0.5275  0.4837
  610SOL    HW1 1829   0.646   0.445   1.218  1.7020 -0.1543 -1.3425
  610SOL    HW2 1830   0.488   0.487   1.227 -1.6372  1.6740 -0.9536
  611SOL     OW 1831   1.555   0.905   0.909  0.2418 -0.3567 -0.6672
  611SOL    HW1 1832   1.514   0.994   0.881 -0.6677  0.4778  0.2644
  611SOL    HW2 1833   1.605   0.868   0.832 -0.2560 -0.3260  3.1735
  612SOL     OW 1834   1.813   0.973   0.342 -0.3414  0.2302 -0.1857
  612SOL    HW1 1835   1.739   0.981   0.411  1.9253 -0.8769  0.9760
  612SOL    HW2 1836   1.818   1.047   0.270  0.7975  0.4679 -1.1785
  613SOL     OW 1837   1.907   0.410   0.202  0.5884 -0.5727 -0.5007
  613SOL    HW1 1838   1.817   0.357   0.198  1.5207  0.4464  1.1411
  613SOL    HW2 1839   1.918   0.449   0.295 -0.1362 -0.9245 -0.1416
  614SOL     OW 1840   2.572   0.255   2.529 -0.4249 -0.3956  0.1287
  614SOL    HW1 1841   2.595   0.218   2.440 -2.8386  1.5273 -0.7253
  614SOL    HW2 1842   2.474   0.283   2.536  1.6542 -2.1369 -1.8154
  615SOL     OW 1843   0.775   1.929   0.810  0.3657 -0.4662  0.1371
  615SOL    HW1 1844   0.850   1.889   0.867 -0.0356  1.6701  1.9914
  615SOL    HW2 1845   0.745   2.012   0.855  1.3142 -0.8383  0.1152
  616SOL     OW 1846   1.363   1.051   2.804  0.3464 -0.1437  0.0151
  616SOL    HW1 1847   1.344   1.148   2.787  1.3836 -2.1964  2.4456
  616SOL    HW2 1848   1.274   1.000   2.793 -0.0232 -1.5191 -0.5761
  617SOL     OW 1849   1.500   0.539   2.935 -0.5524  0.1269  0.4790
  617SOL    HW1 1850   1.488   0.636   2.909  0.4127 -5.0200  1.7765
  617SOL    HW2 1851   1.594   0.508   2.954  0.3074 -3.7101  0.8308
  618SOL     OW 1852   1.366   2.257   2.693  0.5326 -0.1479 -0.0231
  618SOL    HW1 1853   1.464   2.253   2.670 -3.1694 -0.1002 -1.3208
  618SOL    HW2 1854   1.354   2.310   2.776  0.2781 -1.6471 -0.4896
  619SOL     OW 1855   2.324   1.565   0.718  0.4161 -0.3716  0.0972
  619SOL    HW1 1856   2.392   1.561   0.797 -0.2571 -1.2176  2.2331
  619SOL    HW2 1857   2.302   1.474   0.671  0.6683  0.0478 -2.9695
  620SOL     OW 1858   2.168   2.833   2.349 -0.0374 -0.5669  0.2912
  620SOL    HW1 1859   2.224   2.908   2.390 -0.7689 -1.6469  2.0806
  620SOL    HW2 1860   2.071   2.864   2.330 -0.3241 -0.9117  1.0287
  621SOL     OW 1861   2.979   1.384   0.894 -0.3287 -0.4865 -0.6343
  621SOL    HW1 1862   2.930   1.295   0.905 -0.4180 -0.5639  0.1069
  621SOL    HW2 1863   2.916   1.461   0.909 -1.8828 -0.3254 -1.6520
  622SOL     OW 1864   1.470   1.290   2.518  0.1222 -0.1571  0.1327
  622SOL    HW1 1865   1.493   1.272   2.424 -0.3497  0.3073  0.1954
  622SOL    HW2 1866   1.412   1.374   2.534  1.2272  0.5271  1.2717
  623SOL     OW 1867   0.118   2.540   2.171 -0.3974 -0.0195  0.1966
  623SOL    HW1 1868   0.193   2.516   2.242  2.1173  1.9096 -0.1986
  623SOL    HW2 1869   0.071   2.621   2.204 -0.3344  0.2265 -1.5230
  624SOL     OW 1870   0.919   2.831   2.906  0.0524 -0.5125 -0.1270
  624SOL    HW1 1871   0.928   2.749   2.840  1.1429 -4.4152 -2.2335
  624SOL    HW2 1872   0.832   2.823   2.959 -1.3827  1.1284 -0.1887
  625SOL     OW 1873   0.429   2.345   2.131 -0.3642  0.2817 -0.2892
  625SOL    HW1 1874   0.456   2.415   2.061  1.0282 -1.5266  0.9544
  625SOL    HW2 1875   0.346   2.295   2.109  3.1049  2.4169  2.6358
  626SOL     OW 1876   0.412   3.086   2.873  0.3245  0.1659  0.0531
  626SOL    HW1 1877   0.407   0.091   2.864  2.2678  0.2680 -1.6367
  626SOL    HW2 1878   0.484   3.042   2.821 -1.4274  1.5142 -1.3860
  627SOL     OW 1879   1.891   1.465   0.001 -0.2637  0.0944 -0.5033
  627SOL    HW1 1880   1.988   1.441   3.073 -0.5568  1.7880  0.2202
  627SOL    HW2 1881   1.828   1.501   3.021 -0.4069 -0.9616 -2.5349
  628SOL     OW 1882   1.283   1.906   0.234  0.1785 -0.4791  0.6729
  628SOL    HW1 1883   1.314   1.810   0.235  1.4147 -0.4621 -1.9056
  628SOL    HW2 1884   1.182   1.917   0.253  2.8071  2.1848  1.4523
  629SOL     OW 1885   3.068   0.186   1.747 -0.6348  0.2581  0.1987
  629SOL    HW1 1886   0.004   0.244   1.822 -0.4049  1.4842 -1.1126
  629SOL    HW2 1887   2.977   0.141   1.762 -0.3531  0.9742  0.3874
  630SOL     OW 1888   2.050   0.774   1.967 -0.1057 -0.3277 -0.4992
  630SOL    HW1 1889   1.975   0.786   2.037  0.5657 -0.4718 -0.3940
  630SOL    HW2 1890   2.014   0.787   1.871 -1.4216 -3.6808  0.1258
  631SOL     OW 1891   1.674   0.147   0.783 -0.4364 -0.3892  0.5324
  631SOL    HW1 1892   1.741   0.198   0.839 -2.0761 -0.7792  0.3964
  631SOL    HW2 1893   1.677   0.046   0.807  0.6022 -0.8951  0.1484
  632SOL     OW 1894   2.739   1.024   1.947 -0.9279  0.9221 -0.6342
  632SOL    HW1 1895   2.741   1.010   1.847  2.5047 -1.3815  1.0120
  632SOL    HW2 1896   2.642   1.035   1.978  2.4594  0.8949 -0.6248
  633SOL     OW 1897   0.807   0.775   2.550  0.1153 -0.2270  0.8545
  633SOL    HW1 1898   0.892   0.777   2.493 -3.0847 -1.0531  2.2440
  633SOL    HW2 1899   0.825   0.752   2.646  0.4303 -0.3244 -0.2708
  634SOL     OW 1900   0.557   2.936   2.709  0.2270  0.0973 -0.4702
  634SOL    HW1 1901   0.535   2.983   2.626  1.6143 -0.5406  2.1439
  634SOL    HW2 1902   0.572   2.841   2.682 -0.9248  1.3805  0.6802
  635SOL     OW 1903   0.054   1.371   1.339  0.3108 -0.4574  0.6735
  635SOL    HW1 1904   0.047   1.351   1.240 -0.0411 -2.2990 -0.2187
  635SOL    HW2 1905   0.119   1.452   1.350  0.5934 -0.6167 -0.7109
  636SOL     OW 1906   0.215   1.828   0.059  0.2946 -0.2553  0.0981
  636SOL    HW1 1907   0.254   1.762   0.132  0.1611  0.1156 -0.0132
  636SOL    HW2 1908   0.232   1.927   0.078  0.3843  0.6953 -1.3791
  637SOL     OW 1909   2.860   2.423   0.294  0.3751 -0.2722 -0.3181
  637SOL    HW1 1910   2.827   2.375   0.214  0.8175  0.9275  1.9046
  637SOL    HW2 1911   2.789   2.481   0.347  0.1696 -0.5204 -1.3497
  638SOL     OW 1912   2.732   2.832   0.359  0.3442  0.3316 -0.1914
  638SOL    HW1 1913   2.689   2.865   0.272 -0.7228  1.7509  1.6665
  638SOL    HW2 1914   2.713   2.735   0.381 -0.1833 -3.1860  2.3189
  639SOL     OW 1915   1.200   0.716   2.989 -0.1045 -0.3479  0.0202
  639SOL    HW1 1916   1.119   0.657   2.979 -1.1143 -2.6221  1.1204
  639SOL    HW2 1917   1.213   0.742   3.085 -0.2829 -2.0831 -1.8259
  640SOL     OW 1918   1.950   1.974   1.787  0.0190 -0.6551 -0.2231
  640SOL    HW1 1919   1.894   1.893   1.758  0.3553 -0.9875  1.9422
  640SOL    HW2 1920   2.004   1.957   1.873  1.1527 -0.3937  0.6467
  641SOL     OW 1921   2.912   3.058   0.801  0.7015  0.2586  0.8787
  641SOL    HW1 1922   2.953   0.035   0.859 -1.6594  1.1009  0.0845
  641SOL    HW2 1923   2.956   2.967   0.817 -0.6683 -3.6774  0.7618
  642SOL     OW 1924   1.218   0.963   1.728  0.2064 -0.2380 -0.1019
  642SOL    HW1 1925   1.182   1.053   1.746 -1.8753 -2.8964 -0.5631
  642SOL    HW2 1926   1.184   0.918   1.640 -2.0908 -2.7210 -0.6440
  643SOL     OW 1927   0.758   1.767   2.792 -0.1728 -0.4413 -0.0594
  643SOL    HW1 1928   0.764   1.666   2.803  1.2616 -0.6115 -0.8440
  643SOL    HW2 1929   0.674   1.803   2.833 -3.7305 -0.6678  2.6398
  644SOL     OW 1930   1.258   2.532   2.524  0.3636 -0.4820 -0.1425
  644SOL    HW1 1931   1.351   2.491   2.528 -0.7781  0.6074 -1.9089
  644SOL    HW2 1932   1.250   2.613   2.589 -2.0089  0.4265  1.2236
  645SOL     OW 1933   1.631   0.993   1.780 -0.1016 -0.2801  0.2403
  645SOL    HW1 1934   1.602   1.072   1.722  2.5745 -1.8207 -1.0968
  645SOL    HW2 1935   1.558   0.926   1.776 -0.2261  2.1129 -0.4791
  646SOL     OW 1936   1.069   2.391   2.865 -0.2705 -0.4440 -0.5890
  646SOL    HW1 1937   1.020   2.479   2.861 -1.6163 -1.5642 -0.0425
  646SOL    HW2 1938   1.165   2.403   2.843 -3.0334 -1.0643 -0.8798
  647SOL     OW 1939   1.187   2.908   0.419  0.1436 -0.2075  0.3250
  647SOL    HW1 1940   1.264   2.976   0.411  1.2187 -0.4822  0.6240
  647SOL    HW2 1941   1.107   2.949   0.470  2.0874 -2.6865  1.6664
  648SOL     OW 1942   2.738   2.648   1.448  0.6454 -0.4123 -0.2680
  648SOL    HW1 1943   2.725   2.563   1.382  3.6417 -1.1782  1.3878
  648SOL    HW2 1944   2.663   2.721   1.433 -0.4965 -0.4434 -1.4111
  649SOL     OW 1945   0.720   2.454   2.679  0.5170  0.0912 -0.3587
  649SOL    HW1 1946   0.659   2.438   2.759  1.0713  1.3192  0.3556
  649SOL    HW2 1947   0.722   2.370   2.616  1.2115 -0.6487 -0.6514
  650SOL     OW 1948   2.797   1.707   2.281 -0.3854  0.0177  0.0078
  650SOL    HW1 1949   2.871   1.674   2.344 -1.5466 -2.9084  0.7345
  650SOL    HW2 1950   2.794   1.811   2.274 -1.0724  1.2373 -0.3489
  651SOL     OW 1951   2.686   2.484   2.217 -0.2904  0.1274 -0.2260
  651SOL    HW1 1952   2.722   2.420   2.144  0.4750 -1.5366 -0.8932
  651SOL    HW2 1953   2.703   2.458   2.311 -1.1649  3.1463 -2.4958
  652SOL     OW 1954   2.572   2.166   0.449 -0.3144 -0.4078  0.0881
  652SOL    HW1 1955   2.527   2.079   0.480  0.7343 -2.7264  0.5459
  652SOL    HW2 1956   2.526   2.245   0.490  1.3448 -1.4180 -1.3883
  653SOL     OW 1957   2.719   1.047   1.147  0.2884 -0.2549 -0.4762
  653SOL    HW1 1958   2.699   0.953   1.112 -2.0823 -1.1810  0.8183
  653SOL    HW2 1959   2.691   1.053   1.250 -1.9107 -0.2409  3.8691
  654SOL     OW 1960   0.863   0.396   2.777 -0.2789  0.0737 -0.1549
  654SOL    HW1 1961   0.837   0.491   2.807  0.9230  2.9464  2.1879
  654SOL    HW2 1962   0.892   0.334   2.853 -2.1357  1.7468 -1.2218
  655SOL     OW 1963   0.913   0.203   1.163 -0.1765  0.1948  0.9120
  655SOL    HW1 1964   0.971   0.276   1.194 -1.8387  0.7781 -1.4904
  655SOL    HW2 1965   0.868   0.148   1.241  2.3053 -1.2215  0.5092
  656SOL     OW 1966   0.510   2.508   1.923  0.1191 -0.0181 -0.3112
  656SOL    HW1 1967   0.491   2.478   1.825  2.3595  2.1724 -0.0573
  656SOL    HW2 1968   0.582   2.578   1.918 -2.2061 -1.1608  1.5804
  657SOL     OW 1969   2.585   0.727   0.356 -0.2410 -0.4801  0.0906
  657SOL    HW1 1970   2.537   0.635   0.352 -2.1654  0.1784 -2.0966
  657SOL    HW2 1971   2.554   0.777   0.271 -0.6133 -3.3922 -2.4547
  658SOL     OW 1972   1.954   1.787   0.883  0.3645  0.2918 -0.0564
  658SOL    HW1 1973   1.923   1.885   0.873  0.1321 -0.0787  1.2453
  658SOL    HW2 1974   1.930   1.754   0.974  0.7807  2.4584 -2.9258
  659SOL     OW 1975   2.707   2.038   2.953 -0.3064  0.1990  0.5806
  659SOL    HW1 1976   2.759   2.121   2.926 -1.4920  1.0671 -0.4008
  659SOL    HW2 1977   2.616   2.073   2.976  1.1958  0.7548  0.1910
  660SOL     OW 1978   1.240   0.400   0.370  0.6543 -0.4299  0.1964
  660SOL    HW1 1979   1.288   0.448   0.442  0.9448  2.8419  0.5523
  660SOL    HW2 1980   1.259   0.448   0.280  1.6945  0.3876  0.4948
  661SOL     OW 1981   1.928   3.083   0.042  0.1063 -0.2759  0.4659
  661SOL    HW1 1982   1.929   0.027   0.136 -0.0019 -1.1925 -0.1267
  661SOL    HW2 1983   2.023   3.063   0.012 -0.3352 -1.6569  0.4390
  662SOL     OW 1984   0.966   3.031   0.597  0.0616 -0.8203  0.5367
  662SOL    HW1 1985   0.948   0.029   0.631  0.6097 -0.8995  0.6608
  662SOL    HW2 1986   0.946   2.962   0.671  0.2153 -0.8861 -0.8610
  663SOL     OW 1987   1.474   0.156   2.352 -0.3388  0.0502  0.4023
  663SOL    HW1 1988   1.470   0.211   2.267  2.5525 -4.2185 -2.0673
  663SOL    HW2 1989   1.469   0.223   2.429  0.8679  1.8923 -1.0340
  664SOL     OW 1990   0.713   2.767   1.352  0.5857  0.1576  0.1705
  664SOL    HW1 1991   0.661   2.731   1.435 -0.4308 -2.0679 -1.9087
  664SOL    HW2 1992   0.751   2.858   1.371 -0.7128  1.0619 -0.3335
  665SOL     OW 1993   0.719   2.323   1.740  0.2999  0.2926 -0.3215
  665SOL    HW1 1994   0.763   2.413   1.715 -1.4273 -1.1176 -2.2069
  665SOL    HW2 1995   0.714   2.310   1.842  0.3500  0.1727  2.7723
  666SOL     OW 1996   0.453   3.013   2.467 -0.0656  0.6212  0.6590
  666SOL    HW1 1997   0.437   0.018   2.473 -0.9418 -0.9361 -2.4396
  666SOL    HW2 1998   0.382   2.969   2.407 -0.4206  1.6957  1.8805
  667SOL     OW 1999   2.027   1.716   1.554 -0.4597 -0.1195  0.2593
  667SOL    HW1 2000   2.074   1.653   1.488  2.6330 -1.0127 -1.4272
  667SOL    HW2 2001   2.059   1.691   1.650  1.2576  0.7363  1.9757
  668SOL     OW 2002   1.854   0.076   1.636 -0.1711 -0.2494 -0.1315
  668SOL    HW1 2003   1.779   0.014   1.604 -1.2945 -3.7690 -1.4373
  668SOL    HW2 2004   1.837   0.176   1.616  1.8664  0.5752  2.1902
  669SOL     OW 2005   2.723   2.593   0.923  0.0885  0.3833 -0.2902
  669SOL    HW1 2006   2.775   2.678   0.908  1.2315  0.3442 -0.5922
  669SOL    HW2 2007   2.776   2.533   0.989  1.5899 -5.0620  0.6839
  670SOL     OW 2008   1.333   2.469   2.879  0.3268  0.1629  0.5338
  670SOL    HW1 2009   1.326   2.485   2.982  1.8158  0.2594  1.2159
  670SOL    HW2 2010   1.417   2.510   2.844 -2.4393 -3.5630 -0.2782
  671SOL     OW 2011   0.925   1.115   0.504 -0.6401  0.1247  0.2635
  671SOL    HW1 2012   0.991   1.186   0.535 -0.3092 -0.7666 -0.0204
  671SOL    HW2 2013   0.949   1.028   0.549 -0.7769  1.5079  0.2516
  672SOL     OW 2014   2.744   1.102   2.627  0.6178  0.0782 -0.2257
  672SOL    HW1 2015   2.728   1.116   2.732  1.8353 -0.2602 -0.6277
  672SOL    HW2 2016   2.721   1.009   2.593 -1.7724 -0.3129  1.7916
  673SOL     OW 2017   2.502   2.009   1.775  0.2326 -0.1194  0.1374
  673SOL    HW1 2018   2.588   2.039   1.814 -1.3864 -0.2785  3.4516
  673SOL    HW2 2019   2.425   2.024   1.839 -0.6196 -1.5574 -0.2492
  674SOL     OW 2020   0.485   2.382   2.384 -0.6647  0.0219 -0.1085
  674SOL    HW1 2021   0.580   2.417   2.377 -0.5568 -0.1718  0.2281
  674SOL    HW2 2022   0.450   2.371   2.287  0.3638 -1.4529 -2.2585
  675SOL     OW 2023   0.952   0.554   1.541  0.0773  0.1509 -0.6510
  675SOL    HW1 2024   0.961   0.640   1.596  3.1336  1.6099 -0.2727
  675SOL    HW2 2025   1.023   0.480   1.571 -2.8574 -0.4319  0.3087
  676SOL     OW 2026   2.075   0.021   1.234 -0.4215 -0.0289  0.6478
  676SOL    HW1 2027   1.983   0.007   1.197 -0.5258  2.0316 -0.9203
  676SOL    HW2 2028   2.105   0.115   1.207  0.6527  0.1641  0.3129
  677SOL     OW 2029   2.136   1.415   3.013  0.1964  0.6383 -0.4016
  677SOL    HW1 2030   2.231   1.442   2.995 -0.5306  1.1576 -1.2246
  677SOL    HW2 2031   2.101   1.364   2.938  0.0672  1.2894  2.7507
  678SOL     OW 2032   2.639   1.326   1.090  0.1539  0.3132 -0.5694
  678SOL    HW1 2033   2.677   1.235   1.117  0.6839  2.2471 -1.1762
  678SOL    HW2 2034   2.707   1.396   1.123  0.3887 -1.5320 -0.0309
  679SOL     OW 2035   2.785   0.489   0.044 -0.2296 -0.6658 -0.1383
  679SOL    HW1 2036   2.811   0.424   0.121 -0.6455 -3.5728  1.7843
  679SOL    HW2 2037   2.831   0.576   0.070 -0.9488  1.0318  2.6502
  680SOL     OW 2038   0.145   1.906   1.756  0.5037  0.1833 -0.4264
  680SOL    HW1 2039   0.103   1.994   1.778  2.7427  0.4133  0.0571
  680SOL    HW2 2040   0.185   1.861   1.839  0.1356 -0.8819 -0.4984
  681SOL     OW 2041   2.207   1.956   1.526  0.0226 -0.0620 -0.2700
  681SOL    HW1 2042   2.252   1.897   1.594  0.3721  3.2020 -0.9608
  681SOL    HW2 2043   2.109   1.924   1.504  0.1844  0.1830  0.8160
  682SOL     OW 2044   0.310   2.095   0.095  0.0819  0.1296 -0.5088
  682SOL    HW1 2045   0.245   2.170   0.072 -1.2276  1.7794  1.4959
  682SOL    HW2 2046   0.352   2.102   0.186  0.3936  2.0735  2.8003
  683SOL     OW 2047   3.050   2.027   1.435  0.0047  0.6570  0.5148
  683SOL    HW1 2048   3.008   2.041   1.525  0.9771 -0.8435 -1.9945
  683SOL    HW2 2049   0.056   2.024   1.445  1.9356 -1.3093 -0.4265
  684SOL     OW 2050   2.803   1.185   2.152 -0.0745  0.2443 -0.2922
  684SOL    HW1 2051   2.817   1.279   2.122 -0.6662 -1.2219  1.9220
  684SOL    HW2 2052   2.780   1.125   2.071  0.4914  0.6445  2.2433
  685SOL     OW 2053   1.383   0.546   0.529 -0.0310  0.2887  0.6983
  685SOL    HW1 2054   1.343   0.571   0.619 -2.0531  3.2691 -0.8676
  685SOL    HW2 2055   1.485   0.570   0.536 -1.6742  2.7089 -0.4678
  686SOL     OW 2056   0.613   0.414   0.830 -0.0524  0.1951  0.4661
  686SOL    HW1 2057   0.617   0.499   0.774 -1.0449 -0.2816 -2.0355
  686SOL    HW2 2058   0.586   0.329   0.778 -0.0157  0.6651 -2.8953
  687SOL     OW 2059   0.711   2.074   2.687  0.3948  0.5405  0.6149
  687SOL    HW1 2060   0.633   2.021   2.728 -1.5000 -0.5108  1.2131
  687SOL    HW2 2061   0.768   2.105   2.758 -2.9065  1.3056 -2.9883
  688SOL     OW 2062   2.042   0.736   1.696  0.4259 -0.2537 -0.3245
  688SOL    HW1 2063   2.127   0.786   1.667  3.7579 -0.6349 -0.4207
  688SOL    HW2 2064   2.027   0.658   1.638 -2.5443 -0.4775  1.1113
  689SOL     OW 2065   1.486   0.354   0.758 -0.7657 -0.2827  0.5997
  689SOL    HW1 2066   1.545   0.275   0.777  0.3299  0.6046  1.4870
  689SOL    HW2 2067   1.538   0.431   0.713 -0.5645  0.9942 -0.2117
  690SOL     OW 2068   2.851   1.460   1.204  0.1161 -0.4367 -0.0477
  690SOL    HW1 2069   2.803   1.447   1.297  0.3398 -0.0520  2.1094
  690SOL    HW2 2070   2.940   1.490   1.226 -2.7733 -1.1679  1.2562
  691SOL     OW 2071   0.414   2.236   1.266 -0.3901  0.3529  0.2615
  691SOL    HW1 2072   0.476   2.307   1.235 -0.6589 -1.4640  1.1153
  691SOL    HW2 2073   0.475   2.173   1.319  0.0511  1.8050 -2.9769
  692SOL     OW 2074   1.511   0.047   1.464 -0.1907 -0.5721  0.0137
  692SOL    HW1 2075   1.533   3.055   1.510 -1.4024  3.8493 -0.7781
  692SOL    HW2 2076   1.591   0.079   1.410 -1.2148  0.5321 -1.0238
  693SOL     OW 2077   0.544   1.816   2.106 -0.0649 -0.3051 -0.4098
  693SOL    HW1 2078   0.537   1.911   2.146 -0.0665 -0.2708 -2.2095
  693SOL    HW2 2079   0.637   1.785   2.139  0.7157 -0.8609 -0.8707
  694SOL     OW 2080   1.995   1.397   0.963 -0.0812  0.2250 -0.0150
  694SOL    HW1 2081   2.017   1.472   0.891  1.3529  3.2471 -1.5083
  694SOL    HW2 2082   1.934   1.431   1.036  2.4514  2.4950 -2.4919
  695SOL     OW 2083   1.176   0.884   1.091 -0.5951  0.1468 -0.0600
  695SOL    HW1 2084   1.229   0.810   1.043 -1.2767 -1.6833 -0.6324
  695SOL    HW2 2085   1.110   0.840   1.158 -0.1992  0.1012  1.2428
  696SOL     OW 2086   0.411   0.030   0.471  0.0893  0.2760  0.0618
  696SOL    HW1 2087   0.314   0.056   0.470  0.0723 -1.0758 -1.0530
  696SOL    HW2 2088   0.425   3.021   0.464  1.0388 -3.4225 -1.5277
  697SOL     OW 2089   1.989   0.598   0.921 -0.0224 -0.0463 -0.3574
  697SOL    HW1 2090   1.985   0.698   0.934  0.5037 -2.2949 -0.8794
  697SOL    HW2 2091   1.938   0.549   0.996 -0.5554 -0.1321  1.6178
  698SOL     OW 2092   1.394   1.295   1.912  0.2424 -0.6417 -0.0636
  698SOL    HW1 2093   1.427   1.391   1.895 -1.1905 -1.4643 -2.0804
  698SOL    HW2 2094   1.396   1.275   2.009  2.6546  1.3383 -1.8740
  699SOL     OW 2095   2.945   0.334   2.230 -0.9907  0.0273  0.1945
  699SOL    HW1 2096   2.891   0.391   2.296 -0.0587  0.1580 -0.2103
  699SOL    HW2 2097   2.947   0.371   2.135 -0.7127  2.4741 -0.7938
  700SOL     OW 2098   1.826   2.658   0.552  0.1056 -0.3301 -0.5804
  700SOL    HW1 2099   1.902   2.717   0.510  1.4802 -0.9824 -0.0652
  700SOL    HW2 2100   1.869   2.576   0.589  2.2739  0.5914 -2.4325
  701SOL     OW 2101   2.984   1.815   2.490  0.1132 -0.2600  1.1612
  701SOL    HW1 2102   2.958   1.913   2.526 -2.7084  4.5392  4.9083
  701SOL    HW2 2103   3.072   1.825   2.440 -0.9822  0.0469  0.6314
  702SOL     OW 2104   0.850   3.003   0.356  1.0375 -0.2101  0.3702
  702SOL    HW1 2105   0.884   3.026   0.449  2.0718 -2.9086  1.4859
  702SOL    HW2 2106   0.791   2.917   0.360 -2.5564 -1.6971  0.5170
  703SOL     OW 2107   1.785   2.621   2.394  0.1927 -0.0925 -0.4775
  703SOL    HW1 2108   1.851   2.639   2.468 -0.6767 -1.7362 -2.6079
  703SOL    HW2 2109   1.822   2.638   2.302 -0.3959 -0.1625  0.9540
  704SOL     OW 2110   2.632   2.090   0.149  0.1912 -0.4826 -0.5199
  704SOL    HW1 2111   2.730   2.070   0.130 -1.9587 -0.0739 -1.0626
  704SOL    HW2 2112   2.611   2.096   0.248 -2.3363  2.9895  0.3186
  705SOL     OW 2113   2.800   2.343   2.502  0.1037  0.2420  0.1234
  705SOL    HW1 2114   2.802   2.240   2.490  0.2307  0.3842  1.3170
  705SOL    HW2 2115   2.887   2.384   2.477  1.0830 -0.8308  1.8021
  706SOL     OW 2116   2.759   0.094   0.391  0.2646 -0.2746  0.0354
  706SOL    HW1 2117   2.708   0.079   0.301  0.2617 -0.3495  0.0378
  706SOL    HW2 2118   2.823   0.016   0.406  0.6194 -0.1304 -1.7830
  707SOL     OW 2119   1.299   0.330   2.935  0.2718 -0.4072  0.1454
  707SOL    HW1 2120   1.244   0.314   2.852 -0.5669  0.8613 -2.0107
  707SOL    HW2 2121   1.329   0.429   2.931 -0.9031  0.6579 -1.1758
  708SOL     OW 2122   0.282   2.255   1.764 -0.3346 -0.8215 -0.0210
  708SOL    HW1 2123   0.192   2.209   1.785  1.0464  0.3254  2.1023
  708SOL    HW2 2124   0.361   2.189   1.774  0.3558  0.0174  1.3889
  709SOL     OW 2125   1.450   2.927   1.873  0.2305  0.0920 -0.0778
  709SOL    HW1 2126   1.491   3.004   1.932  0.8797  0.3713 -1.1697
  709SOL    HW2 2127   1.489   2.843   1.906 -0.4017  1.9125  0.0534
  710SOL     OW 2128   1.545   2.546   2.723 -0.6088  0.2024 -0.3259
  710SOL    HW1 2129   1.522   2.567   2.628  0.5630 -0.7891  1.1559
  710SOL    HW2 2130   1.568   2.631   2.772 -1.5917 -0.3423  0.3273
  711SOL     OW 2131   0.942   2.623   2.757 -0.0397  0.1007  0.3232
  711SOL    HW1 2132   0.967   2.641   2.660 -1.7890  0.9179 -0.3410
  711SOL    HW2 2133   0.864   2.562   2.755 -0.7281  2.3249 -1.1636
  712SOL     OW 2134   0.951   2.090   0.060  0.3374  0.0281  0.1149
  712SOL    HW1 2135   0.928   2.013   3.092  0.5044 -1.2226  0.5853
  712SOL    HW2 2136   0.873   2.156   0.050 -0.4804 -0.4005  0.1408
  713SOL     OW 2137   1.886   0.986   1.502 -0.1610 -0.4849  0.1488
  713SOL    HW1 2138   1.923   0.940   1.422  1.6122  1.1379  1.5235
  713SOL    HW2 2139   1.850   1.078   1.473  2.1637 -1.4964 -2.5661
  714SOL     OW 2140   1.010   1.144   2.042 -0.2625  0.6468 -0.0558
  714SOL    HW1 2141   1.084   1.094   2.092 -1.7456  1.4349  2.6178
  714SOL    HW2 2142   0.922   1.089   2.050  0.2508  0.5792  0.0617
  715SOL     OW 2143   2.875   0.331   0.260  0.2919  0.6745  0.4099
  715SOL    HW1 2144   2.911   0.370   0.352 -0.9311 -0.7945 -0.5976
  715SOL    HW2 2145   2.808   0.258   0.274 -3.4125  1.2449 -1.9658
  716SOL     OW 2146   0.487   2.653   1.066  0.3455 -0.2821  0.4204
  716SOL    HW1 2147   0.585   2.651   1.083  0.6420  0.3685  1.0431
  716SOL    HW2 2148   0.456   2.731   1.012  0.8416 -1.7616  0.1344
  717SOL     OW 2149   2.828   0.662   0.475 -0.4395 -0.4937  0.1467
  717SOL    HW1 2150   2.862   0.574   0.438 -0.5259 -1.1586  0.0509
  717SOL    HW2 2151   2.726   0.669   0.459  0.5089 -0.5594 -0.7121
  718SOL     OW 2152   1.783   1.230   1.382  0.4790  0.2840 -0.2875
  718SOL    HW1 2153   1.766   1.273   1.473  0.8773  0.7991 -1.6938
  718SOL    HW2 2154   1.700   1.198   1.333 -0.3643  1.8872 -1.9211
  719SOL     OW 2155   2.755   2.867   0.034  0.1667 -0.1606 -0.1887
  719SOL    HW1 2156   2.666   2.890   3.082 -1.5929 -1.9886  0.5328
  719SOL    HW2 2157   2.767   2.764   0.030 -1.1787  0.7732 -0.5818
  720SOL     OW 2158   1.099   0.372   0.935  0.2113  0.0163  0.3345
  720SOL    HW1 2159   1.119   0.360   1.036  1.7813 -2.4627 -1.3761
  720SOL    HW2 2160   1.100   0.279   0.888 -0.7189 -3.3989 -1.3905
  721SOL     OW 2161   1.869   0.274   0.959  0.0117 -0.2013 -0.1276
  721SOL    HW1 2162   1.918   0.190   0.984 -0.3532 -1.5912 -0.1766
  721SOL    HW2 2163   1.903   0.351   1.016 -2.0586  0.0165 -1.5907
  722SOL     OW 2164   0.527   2.132   1.764 -0.3474 -0.4151  0.5739
  722SOL    HW1 2165   0.585   2.087   1.836 -0.7283 -2.0919  1.4717
  722SOL    HW2 2166   0.587   2.201   1.726 -0.0116  0.8800  2.4308
  723SOL     OW 2167   1.326   0.146   1.295 -0.1160 -0.2233 -0.3985
  723SOL    HW1 2168   1.358   0.119   1.201 -0.6256  1.1049 -3.1757
  723SOL    HW2 2169   1.398   0.126   1.367  2.8920 -0.6297  0.8196
  724SOL     OW 2170   1.763   1.760   1.678  0.1176  0.2459  0.4038
  724SOL    HW1 2171   1.678   1.742   1.625  0.4643 -0.8816  0.5154
  724SOL    HW2 2172   1.846   1.737   1.624  1.6258 -0.7095  1.0709
  725SOL     OW 2173   1.328   2.440   1.294 -0.7684  0.0259  0.0337
  725SOL    HW1 2174   1.409   2.496   1.321  0.7940  1.3024  0.6348
  725SOL    HW2 2175   1.294   2.475   1.203 -1.3131 -1.2184  0.3242
  726SOL     OW 2176   1.770   0.178   3.031 -0.2046  0.6584  0.2630
  726SOL    HW1 2177   1.833   0.127   3.092 -1.8235 -0.7994  0.5868
  726SOL    HW2 2178   1.671   0.175   3.062 -0.5607 -1.7421  0.3061
  727SOL     OW 2179   1.394   2.163   0.320  0.2399  0.1644  0.0379
  727SOL    HW1 2180   1.366   2.082   0.271 -1.2539  0.8821  0.1440
  727SOL    HW2 2181   1.483   2.192   0.284 -0.6269 -1.3362 -0.4757
  728SOL     OW 2182   1.805   2.457   2.033 -0.1088 -0.1258 -0.0575
  728SOL    HW1 2183   1.842   2.408   1.949  0.2448  0.6763  1.4943
  728SOL    HW2 2184   1.816   2.557   2.029  0.0395  0.1296  1.0351
  729SOL     OW 2185   2.155   2.407   1.772  0.5786  0.3606 -0.0451
  729SOL    HW1 2186   2.186   2.361   1.689 -0.9425  0.9746  2.7738
  729SOL    HW2 2187   2.237   2.416   1.839 -1.7046  0.2450 -0.8016
  730SOL     OW 2188   1.454   0.573   2.419 -0.0738 -0.1085 -0.2015
  730SOL    HW1 2189   1.439   0.480   2.450 -0.3595  0.0195 -2.7273
  730SOL    HW2 2190   1.379   0.611   2.361 -1.4181  2.6285 -0.2384
  731SOL     OW 2191   0.726   3.018   1.055 -0.5365  0.2375 -0.3260
  731SOL    HW1 2192   0.730   0.007   0.995  2.1951 -1.8159 -0.2273
  731SOL    HW2 2193   0.744   3.039   1.150  0.7869  1.1417 -0.7229
  732SOL     OW 2194   1.658   2.846   1.079  0.1907  0.4448  0.6229
  732SOL    HW1 2195   1.685   2.775   1.144 -0.6664  0.3280 -1.0156
  732SOL    HW2 2196   1.558   2.861   1.068  1.5515 -1.1262 -0.0347
  733SOL     OW 2197   1.353   0.902   1.294  0.0197  0.1879  0.7708
  733SOL    HW1 2198   1.289   0.900   1.218 -0.4131  0.8573  2.0642
  733SOL    HW2 2199   1.357   0.998   1.334  0.9654  0.8090 -0.0966
  734SOL     OW 2200   2.312   2.359   0.302  0.3819  0.1088  0.2377
  734SOL    HW1 2201   2.377   2.384   0.231  0.8315 -0.7318  0.4740
  734SOL    HW2 2202   2.347   2.373   0.398 -0.8848  0.1647  2.5745
  735SOL     OW 2203   0.543   0.524   0.533 -0.4355 -0.0682  0.4950
  735SOL    HW1 2204   0.523   0.591   0.456 -1.5098 -0.2596 -0.8747
  735SOL    HW2 2205   0.545   0.426   0.500  0.0760 -2.8910  1.0898
  736SOL     OW 2206   1.958   2.209   2.624  0.3297 -0.5283  1.0480
  736SOL    HW1 2207   1.875   2.261   2.657 -0.0560  1.2502  0.9262
  736SOL    HW2 2208   1.935   2.112   2.605 -1.6669  0.4252 -1.9273
  737SOL     OW 2209   0.978   2.457   1.080  0.3973  0.1911 -0.0293
  737SOL    HW1 2210   1.071   2.485   1.054 -2.2743  0.8301 -0.4901
  737SOL    HW2 2211   0.930   2.402   1.008 -1.6598  0.4498 -1.4329
  738SOL     OW 2212   1.407   2.662   2.028  0.4522 -0.0800 -0.9685
  738SOL    HW1 2213   1.385   2.721   2.108 -1.2549 -2.8270  1.4470
  738SOL    HW2 2214   1.397   2.563   2.055 -0.5712 -1.1430  2.1615
  739SOL     OW 2215   0.689   2.086   1.979  0.1112  0.6114 -0.3580
  739SOL    HW1 2216   0.790   2.072   1.999  0.0980  1.1213 -1.2806
  739SOL    HW2 2217   0.629   2.072   2.062 -0.7239  0.7210 -3.0058
  740SOL     OW 2218   1.669   2.339   1.463  0.2983  0.4709  0.1479
  740SOL    HW1 2219   1.653   2.315   1.367  0.5441  0.7924 -0.5163
  740SOL    HW2 2220   1.765   2.362   1.477 -3.3318 -0.4466  3.4877
  741SOL     OW 2221   2.328   1.596   2.928  0.2381  0.3449 -0.1779
  741SOL    HW1 2222   2.399   1.555   2.871  0.2990 -0.7278  0.5275
  741SOL    HW2 2223   2.291   1.683   2.882 -1.1189  0.0053 -3.2811
  742SOL     OW 2224   0.788   1.532   2.274  0.1126  0.5689 -0.2528
  742SOL    HW1 2225   0.779   1.630   2.241  1.6222  0.2476 -0.8646
  742SOL    HW2 2226   0.696   1.479   2.262 -1.9487  0.3667 -2.6411
  743SOL     OW 2227   3.012   1.177   2.317 -0.3974  0.4853 -0.5793
  743SOL    HW1 2228   3.020   1.087   2.362 -0.7308  0.4556 -0.9605
  743SOL    HW2 2229   2.941   1.175   2.244 -1.1033 -0.8804  0.0151
  744SOL     OW 2230   2.358   2.237   2.136 -0.1210  0.7883  0.2093
  744SOL    HW1 2231   2.290   2.260   2.204 -0.3577 -1.2204 -0.9212
  744SOL    HW2 2232   2.373   2.316   2.071 -0.4405  0.7129 -0.3028
  745SOL     OW 2233   2.379   1.650   1.571 -0.3863  0.7231  0.0892
  745SOL    HW1 2234   2.326   1.698   1.645  0.4707  1.3717 -0.1118
  745SOL    HW2 2235   2.320   1.617   1.492 -2.4660  1.2166 -1.5052
  746SOL     OW 2236   2.641   1.176   0.655  0.1826  0.0202 -0.3411
  746SOL    HW1 2237   2.600   1.144   0.571 -1.6021  1.9533 -1.3119
  746SOL    HW2 2238   2.636   1.276   0.658 -0.7474 -0.4528 -1.6174
  747SOL     OW 2239   1.986   2.405   0.649 -0.0756 -0.9928  0.3576
  747SOL    HW1 2240   2.028   2.318   0.665 -0.7847  2.5411 -1.4766
  747SOL    HW2 2241   1.933   2.426   0.730 -1.2798 -1.0923 -0.4580
  748SOL     OW 2242   1.044   2.375   0.264  0.4773  0.1759  0.1064
  748SOL    HW1 2243   1.095   2.351   0.176  0.4797 -1.5280 -0.5924
  748SOL    HW2 2244   1.003   2.466   0.259 -0.1484  0.2324 -1.3240
  749SOL     OW 2245   2.748   0.476   2.358 -0.3258  0.1420 -0.3243
  749SOL    HW1 2246   2.763   0.486   2.461  1.9438 -1.2867  2.7394
  749SOL    HW2 2247   2.652   0.442   2.341  1.0198 -4.8582 -0.8082
  750SOL     OW 2248   1.706   0.131   1.266 -0.2731  0.1747  0.0994
  750SOL    HW1 2249   1.649   0.187   1.204  0.0351  0.7283 -1.7522
  750SOL    HW2 2250   1.768   0.061   1.215  3.4560 -0.7481 -1.4333
  751SOL     OW 2251   1.766   2.373   2.737  0.0178  0.8368 -0.6079
  751SOL    HW1 2252   1.697   2.445   2.748 -0.6576 -1.0162 -3.5428
  751SOL    HW2 2253   1.833   2.379   2.811 -1.9844 -3.4774  3.4605
  752SOL     OW 2254   1.658   1.989   0.397 -0.1140  0.8035 -0.4087
  752SOL    HW1 2255   1.652   2.074   0.340 -0.0219 -1.3799 -1.7901
  752SOL    HW2 2256   1.732   1.927   0.366 -4.3027  0.5889  3.7179
  753SOL     OW 2257   1.567   0.685   2.141  0.3046  0.3655  0.1778
  753SOL    HW1 2258   1.614   0.614   2.197 -0.2896  2.0401 -0.6505
  753SOL    HW2 2259   1.509   0.741   2.201 -0.8338  1.3915  0.8747
  754SOL     OW 2260   0.168   2.810   0.774  0.2208  0.3766 -0.0209
  754SOL    HW1 2261   0.227   2.880   0.818 -1.3175 -0.9731  1.4411
  754SOL    HW2 2262   0.073   2.800   0.810 -0.0761 -1.5346 -1.7526
  755SOL     OW 2263   2.062   3.017   1.488 -0.0033  0.4189  0.5968
  755SOL    HW1 2264   2.061   3.041   1.389 -2.3259 -0.3924 -1.3843
  755SOL    HW2 2265   2.022   0.000   1.540  1.4628 -2.1916  2.6165
  756SOL     OW 2266   1.190   1.057   2.464  0.2227 -1.2160  0.2316
  756SOL    HW1 2267   1.259   1.009   2.520  1.3614 -2.2998 -0.1579
  756SOL    HW2 2268   1.181   1.156   2.485 -0.8504 -1.8008 -0.2085
  757SOL     OW 2269   2.908   2.848   1.525  0.6640 -0.1354  0.0281
  757SOL    HW1 2270   2.934   2.827   1.625 -2.1763  0.8000  2.4888
  757SOL    HW2 2271   2.849   2.777   1.490  1.5455  1.3172 -1.5120
  758SOL     OW 2272   0.568   0.055   1.483 -0.2704  0.1158 -0.4340
  758SOL    HW1 2273   0.581   3.093   1.564  2.6008 -0.6062  0.5142
  758SOL    HW2 2274   0.512   0.139   1.500 -2.9336  1.6694  1.9384
  759SOL     OW 2275   2.279   1.107   0.675  0.0567 -0.4364  0.5407
  759SOL    HW1 2276   2.301   1.204   0.640  0.7969  0.9313  1.4264
  759SOL    HW2 2277   2.316   1.099   0.770  1.6353 -1.1294 -2.1999
  760SOL     OW 2278   2.076   0.582   1.373  0.0608  0.4839  0.1441
  760SOL    HW1 2279   2.043   0.531   1.457  2.6611 -2.1493  1.4359
  760SOL    HW2 2280   2.163   0.546   1.336 -1.9489  2.7652 -1.0783
  761SOL     OW 2281   2.173   0.142   0.343 -0.7386  0.0361 -0.7982
  761SOL    HW1 2282   2.197   0.188   0.432  0.3206 -1.6332  2.2754
  761SOL    HW2 2283   2.206   0.047   0.343 -1.2250 -1.1400  1.8798
  762SOL     OW 2284   2.536   2.427   0.171 -0.2114  0.8786 -0.0296
  762SOL    HW1 2285   2.540   2.433   0.069 -0.0244 -0.1482  1.4874
  762SOL    HW2 2286   2.586   2.345   0.197  1.5639  1.7015  2.0599
  763SOL     OW 2287   0.954   1.080   0.820  0.0248  0.3063  0.2461
  763SOL    HW1 2288   0.948   1.179   0.793  0.3707  1.2088  2.7833
  763SOL    HW2 2289   0.882   1.063   0.890  1.1238  0.3679  0.5016
  764SOL     OW 2290   2.510   2.430   2.999  0.4416  0.1641 -0.5207
  764SOL    HW1 2291   2.449   2.508   2.964  0.4446  1.0104 -0.1359
  764SOL    HW2 2292   2.518   2.350   2.936 -0.4180  0.9677  0.2938
  765SOL     OW 2293   0.564   0.742   2.042  0.4945  0.1468  0.3340
  765SOL    HW1 2294   0.608   0.729   2.133  1.7431  0.7913 -0.3495
  765SOL    HW2 2295   0.602   0.683   1.968  1.2322 -0.4756 -0.9290
  766SOL     OW 2296   2.934   1.280   2.582  0.3655 -0.5170  0.1163
  766SOL    HW1 2297   2.849   1.224   2.607  0.3236  2.8967  1.5066
  766SOL    HW2 2298   2.975   1.245   2.493  0.7945 -0.8333  1.1304
  767SOL     OW 2299   0.100   1.843   2.150  0.9815 -0.1292 -0.3086
  767SOL    HW1 2300   0.169   1.839   2.078  0.1681 -0.5196  1.2817
  767SOL    HW2 2301   0.137   1.826   2.244  0.5725  4.6431  0.1450
  768SOL     OW 2302   0.898   1.105   2.864  0.5992  0.4684  0.0269
  768SOL    HW1 2303   0.841   1.035   2.905  0.3374 -3.3482 -2.0861
  768SOL    HW2 2304   0.885   1.099   2.759  1.0476  1.4081  1.5120
  769SOL     OW 2305   1.697   2.830   2.762 -0.0182  0.0564  0.0911
  769SOL    HW1 2306   1.770   2.778   2.714 -2.6210 -3.4240  1.7346
  769SOL    HW2 2307   1.723   2.847   2.861  0.7124  1.7641  2.1328
  770SOL     OW 2308   0.061   0.331   2.425 -0.2570  0.4060  0.0836
  770SOL    HW1 2309   0.143   0.381   2.400 -2.6320 -0.1246  1.3475
  770SOL    HW2 2310   3.085   0.332   2.349 -0.7047 -3.1394 -0.8537
  771SOL     OW 2311   0.793   2.183   1.394 -0.0445 -0.0892  0.4085
  771SOL    HW1 2312   0.834   2.169   1.486 -1.3578  0.2820 -2.4667
  771SOL    HW2 2313   0.796   2.282   1.368 -1.5712  1.7626 -0.7520
  772SOL     OW 2314   0.491   0.653   2.826  0.1309 -0.5651  1.0675
  772SOL    HW1 2315   0.429   0.587   2.780 -1.5850  2.2337 -0.9475
  772SOL    HW2 2316   0.500   0.743   2.774  0.5393  2.0752 -0.8495
  773SOL     OW 2317   2.356   1.075   1.559 -1.0362  0.1351  0.2575
  773SOL    HW1 2318   2.421   1.122   1.622  0.7992 -1.0250  0.5963
  773SOL    HW2 2319   2.261   1.070   1.597  1.7618  1.8420  0.5437
  774SOL     OW 2320   1.276   0.881   0.645 -0.4658  0.1666 -0.3825
  774SOL    HW1 2321   1.185   0.850   0.681 -0.7893 -0.4336  0.1277
  774SOL    HW2 2322   1.288   0.859   0.546 -0.3025  2.4275 -2.7986
  775SOL     OW 2323   1.959   2.663   2.619  0.0482  0.2797  0.2446
  775SOL    HW1 2324   2.012   2.749   2.634  0.4057  0.1950  1.5438
  775SOL    HW2 2325   1.968   2.600   2.701 -1.0024 -1.5979 -0.5775
  776SOL     OW 2326   2.280   3.080   2.431 -0.4522 -0.2079  0.4017
  776SOL    HW1 2327   2.182   0.002   2.447  0.8886  0.4298 -3.2835
  776SOL    HW2 2328   2.327   3.017   2.495  0.7787 -3.1188 -0.7955
  777SOL     OW 2329   0.620   1.286   2.827  0.4169  0.0210  0.0926
  777SOL    HW1 2330   0.551   1.264   2.756  3.4105  0.5079  0.1826
  777SOL    HW2 2331   0.577   1.299   2.916  1.2333 -0.6686 -1.7485
  778SOL     OW 2332   0.868   2.979   0.094 -0.4717  0.0084  0.2175
  778SOL    HW1 2333   0.959   3.016   0.073 -1.6530  1.3804  2.1157
  778SOL    HW2 2334   0.840   2.987   0.191 -0.2751  0.0177 -2.0115
  779SOL     OW 2335   0.059   1.222   2.997  0.1289 -0.3227 -0.0621
  779SOL    HW1 2336   0.029   1.154   3.069 -1.1555 -0.0908  1.0026
  779SOL    HW2 2337   0.124   1.179   2.933  0.3208  2.6649  1.5050
  780SOL     OW 2338   1.907   0.408   2.439 -0.9651  0.4577  0.4614
  780SOL    HW1 2339   1.881   0.385   2.530  2.8993 -1.2289 -2.8975
  780SOL    HW2 2340   1.896   0.323   2.383 -3.8497 -1.3370  1.2628
  781SOL     OW 2341   2.239   0.963   2.088 -0.1207  0.2789 -0.0863
  781SOL    HW1 2342   2.173   1.028   2.127 -1.5462  2.3063 -0.7193
  781SOL    HW2 2343   2.199   0.886   2.025  1.5493 -2.8573 -3.7425
  782SOL     OW 2344   1.151   1.718   2.393 -0.3285  0.1480  0.7401
  782SOL    HW1 2345   1.196   1.799   2.355  1.1739 -0.5078 -0.0677
  782SOL    HW2 2346   1.071   1.741   2.452  1.6317 -0.1880 -0.6394
  783SOL     OW 2347   1.398   2.920   1.076  1.1831  0.2608 -0.5492
  783SOL    HW1 2348   1.417   3.014   1.052  1.8491  0.4024 -2.7294
  783SOL    HW2 2349   1.308   2.876   1.059 -0.0089  0.5922  3.0848
  784SOL     OW 2350   1.447   0.800   2.882  0.3542 -0.2208  0.1625
  784SOL    HW1 2351   1.432   0.900   2.854 -2.8890  0.0327  2.0817
  784SOL    HW2 2352   1.361   0.770   2.933 -0.7643  0.2336 -0.0582
  785SOL     OW 2353   1.836   0.395   2.724  0.4890  0.7265 -0.2938
  785SOL    HW1 2354   1.841   0.487   2.763  1.1780  1.6355  0.1008
  785SOL    HW2 2355   1.749   0.346   2.757 -0.8823 -0.8421  0.0479
  786SOL     OW 2356   3.055   1.366   0.610 -0.5441 -0.1334 -0.0961
  786SOL    HW1 2357   3.038   1.273   0.570  0.2067 -1.6856 -0.0925
  786SOL    HW2 2358   3.011   1.379   0.700  0.9821 -0.0306  1.1036
  787SOL     OW 2359   1.540   1.755   3.076  0.0340  0.6096 -0.1089
  787SOL    HW1 2360   1.559   1.847   3.040 -0.3770  0.0475 -0.9521
  787SOL    HW2 2361   1.620   1.692   3.081  0.9839  2.3999  1.9219
  788SOL     OW 2362   1.533   1.950   1.351 -0.4258  0.4241  0.2121
  788SOL    HW1 2363   1.502   1.864   1.308 -0.6724  0.5101 -1.2609
  788SOL    HW2 2364   1.627   1.967   1.325  1.5160 -2.8649  0.8376
  789SOL     OW 2365   0.076   1.387   2.393  0.0857  0.3018 -0.7521
  789SOL    HW1 2366   0.064   1.310   2.324 -1.9492  0.8442 -4.6951
  789SOL    HW2 2367   3.080   1.441   2.403 -2.7318 -0.0643  2.2109
  790SOL     OW 2368   0.694   0.083   3.093  0.1559  0.3145 -0.3266
  790SOL    HW1 2369   0.598   0.077   0.034 -0.3212 -1.7121 -0.3435
  790SOL    HW2 2370   0.746   3.092   0.026  1.4909  0.2756 -1.7438
  791SOL     OW 2371   0.594   3.010   2.215 -0.1521  0.6677  0.0007
  791SOL    HW1 2372   0.684   3.056   2.201 -1.5947  1.2345 -0.0041
  791SOL    HW2 2373   0.560   3.009   2.309  0.1696  1.6436 -1.0058
  792SOL     OW 2374   1.769   0.404   2.058 -0.0114  0.0224 -0.6318
  792SOL    HW1 2375   1.762   0.432   2.156  0.6831  0.0643 -1.4149
  792SOL    HW2 2376   1.818   0.315   2.047 -1.5134 -2.7305  0.2021
  793SOL     OW 2377   2.755   0.807   1.538  0.1108 -0.6827 -0.2554
  793SOL    HW1 2378   2.761   0.707   1.564 -1.3368 -3.9085  0.0100
  793SOL    HW2 2379   2.805   0.866   1.608  1.0954  0.9282 -0.8444
  794SOL     OW 2380   0.309   0.459   1.648  0.1788  0.2841 -0.0763
  794SOL    HW1 2381   0.238   0.525   1.621  0.7370  3.0823 -1.9943
  794SOL    HW2 2382   0.393   0.513   1.653 -3.0073 -1.7434  0.0769
  795SOL     OW 2383   2.869   1.522   0.486  0.2993  0.3063  0.4888
  795SOL    HW1 2384   2.788   1.521   0.550  0.9603 -0.4840  2.8715
  795SOL    HW2 2385   2.948   1.472   0.526 -2.6260  1.6771 -0.3236
  796SOL     OW 2386   0.023   2.517   0.261  0.2977  0.2306  0.1772
  796SOL    HW1 2387   0.023   2.576   0.178 -0.9236  0.6492  2.0578
  796SOL    HW2 2388   3.023   2.478   0.267  1.7763 -1.1709  1.1169
  797SOL     OW 2389   2.031   2.535   2.834 -0.1891 -0.2244 -0.0749
  797SOL    HW1 2390   2.047   2.433   2.854  2.4504 -1.7976  0.5390
  797SOL    HW2 2391   2.017   2.585   2.925 -0.1393 -0.2094  1.2370
  798SOL     OW 2392   0.126   1.104   1.351  0.7636  0.3252  0.1730
  798SOL    HW1 2393   0.050   1.058   1.300  0.5447  0.1411 -2.1123
  798SOL    HW2 2394   0.103   1.203   1.350  3.0703  1.3607  1.1538
  799SOL     OW 2395   0.211   0.820   2.939  0.8185  0.2522  0.3190
  799SOL    HW1 2396   0.227   0.804   2.841 -0.9050  0.0868  0.9535
  799SOL    HW2 2397   0.112   0.843   2.956 -2.4691  1.1266  2.8905
  800SOL     OW 2398   2.801   1.868   0.432 -0.6113  0.0061 -0.1114
  800SOL    HW1 2399   2.797   1.970   0.434 -0.7643  3.2069 -0.1646
  800SOL    HW2 2400   2.898   1.840   0.407  0.6218 -1.3844  2.7492
  801SOL     OW 2401   1.550   1.189   1.249 -0.0677  0.7983 -0.0181
  801SOL    HW1 2402   1.543   1.236   1.156  1.0568  0.4840  0.6348
  801SOL    HW2 2403   1.463   1.203   1.307 -1.7604  1.1512  1.5040
  802SOL     OW 2404   1.037   1.917   1.712 -0.4458  0.0228 -0.6955
  802SOL    HW1 2405   1.127   1.865   1.723  0.9011 -2.5327 -2.4590
  802SOL    HW2 2406   1.040   1.990   1.647 -0.4984 -0.2509  0.9815
  803SOL     OW 2407   0.325   1.998   0.613 -0.4372  0.1528  0.6918
  803SOL    HW1 2408   0.426   2.017   0.620  2.6108  0.1523 -0.3537
  803SOL    HW2 2409   0.286   2.021   0.699  2.0633  0.3371 -2.5252
  804SOL     OW 2410   1.030   2.549   1.490 -0.1063 -0.2380 -0.0732
  804SOL    HW1 2411   1.122   2.542   1.536  0.1296  0.5771  1.9368
  804SOL    HW2 2412   0.965   2.591   1.559 -2.4278 -0.4304 -0.7338
  805SOL     OW 2413   1.820   1.140   0.144  0.7885 -0.1155 -0.5985
  805SOL    HW1 2414   1.839   1.119   0.045  0.1016 -2.3157 -3.0456
  805SOL    HW2 2415   1.761   1.222   0.149 -0.6366 -1.1757 -1.2538
  806SOL     OW 2416   1.668   2.993   0.847  0.5277 -0.3994  0.1534
  806SOL    HW1 2417   1.621   2.931   0.777 -1.0754 -0.0358 -1.0732
  806SOL    HW2 2418   1.668   2.942   0.931  3.7564  1.3896  1.3179
  807SOL     OW 2419   2.428   0.038   2.904  0.0595  0.7039 -0.1541
  807SOL    HW1 2420   2.419   0.117   2.965  0.0074  0.0326 -0.6993
  807SOL    HW2 2421   2.517   0.030   2.854 -0.4774  0.9734 -2.8863
  808SOL     OW 2422   0.124   1.200   0.236  0.1593 -0.2593  0.0427
  808SOL    HW1 2423   0.220   1.209   0.265  1.6372 -0.3178  0.6714
  808SOL    HW2 2424   0.099   1.294   0.198 -1.7508  4.2932  0.7367
  809SOL     OW 2425   2.672   0.866   2.507 -0.0009 -0.1023 -0.1969
  809SOL    HW1 2426   2.632   0.801   2.575 -0.8620 -1.8790  0.2989
  809SOL    HW2 2427   2.620   0.859   2.421  1.2940 -1.4838  4.5421
  810SOL     OW 2428   2.009   3.073   1.858 -0.2694  0.2162  0.4814
  810SOL    HW1 2429   1.960   3.090   1.765 -1.0125 -0.1191 -2.4635
  810SOL    HW2 2430   2.003   2.975   1.882 -0.9639  1.5277 -0.9967
  811SOL     OW 2431   2.374   2.415   1.905 -0.0037  0.9419 -0.6416
  811SOL    HW1 2432   2.427   2.504   1.909 -1.5226 -2.1079 -1.3759
  811SOL    HW2 2433   2.404   2.368   1.815  1.3426  0.2532 -3.9118
  812SOL     OW 2434   1.612   0.255   2.767  0.1144 -0.2576  0.2968
  812SOL    HW1 2435   1.681   0.215   2.832  1.4262 -1.3112  2.2862
  812SOL    HW2 2436   1.558   0.183   2.722 -0.4548 -0.3591  0.6479
  813SOL     OW 2437   1.965   0.224   1.984  0.1066 -0.2250 -0.1337
  813SOL    HW1 2438   1.941   0.135   1.935  0.6412 -0.7709 -1.0264
  813SOL    HW2 2439   2.041   0.268   1.936 -0.7713 -1.2381  2.2220
  814SOL     OW 2440   1.887   1.078   1.861  0.2371  0.2157  0.9385
  814SOL    HW1 2441   1.868   1.083   1.958 -0.2869  1.4961 -0.8738
  814SOL    HW2 2442   1.806   1.029   1.819  0.1980  1.0700  3.0738
  815SOL     OW 2443   0.523   0.980   0.355  0.7647 -0.2468 -0.3300
  815SOL    HW1 2444   0.461   1.061   0.364  1.2525  2.6134  1.4220
  815SOL    HW2 2445   0.560   0.964   0.451  1.1662  0.0360  1.1280
  816SOL     OW 2446   2.193   1.710   2.588  0.1784  0.5667  0.2282
  816SOL    HW1 2447   2.125   1.645   2.551  0.0184 -0.2912  3.0821
  816SOL    HW2 2448   2.283   1.662   2.607  0.6678  0.4975  1.4028
  817SOL     OW 2449   0.104   2.840   0.508 -0.0725  0.2121 -0.3834
  817SOL    HW1 2450   0.126   2.840   0.605  0.1590 -1.6977 -0.7161
  817SOL    HW2 2451   0.006   2.860   0.492  0.8108 -1.2016  1.1248
  818SOL     OW 2452   1.874   0.154   2.357 -0.2777 -0.1613 -0.2771
  818SOL    HW1 2453   1.939   0.118   2.427 -0.2514  1.0006  2.1912
  818SOL    HW2 2454   1.798   0.095   2.344  1.7302  3.6512 -0.2424
  819SOL     OW 2455   1.300   0.783   0.401 -0.5427 -0.3618 -0.2257
  819SOL    HW1 2456   1.325   0.690   0.432 -0.5405  1.9379  0.3788
  819SOL    HW2 2457   1.291   0.787   0.301 -0.5270 -0.8014  1.2567
  820SOL     OW 2458   2.189   0.639   0.743  0.5224 -0.2517 -0.2322
  820SOL    HW1 2459   2.203   0.738   0.738  2.2836  1.0728  0.9276
  820SOL    HW2 2460   2.125   0.609   0.815 -0.0623 -3.0833  1.0008
  821SOL     OW 2461   2.445   2.946   0.492 -0.2053  1.0269  0.8614
  821SOL    HW1 2462   2.445   3.037   0.531  2.0039 -2.4949 -0.4640
  821SOL    HW2 2463   2.500   2.944   0.405  2.8651  1.7722  1.8836
  822SOL     OW 2464   0.285   2.874   2.306 -0.0192  0.1134 -0.3827
  822SOL    HW1 2465   0.257   2.935   2.228  0.4640  0.6863 -0.0625
  822SOL    HW2 2466   0.210   2.824   2.354  0.5700  1.2257 -0.5267
  823SOL     OW 2467   2.745   2.301   1.739  0.3450 -0.3830  0.3678
  823SOL    HW1 2468   2.779   2.387   1.700 -2.1965 -0.9190 -1.5656
  823SOL    HW2 2469   2.642   2.296   1.717 -1.7641 -1.7910 -1.8972
  824SOL     OW 2470   0.753   2.959   1.877 -0.6592  0.1998  0.2431
  824SOL    HW1 2471   0.657   2.993   1.880  1.4532 -2.2733  1.0033
  824SOL    HW2 2472   0.814   3.012   1.941  0.5459 -0.2366 -2.2711
  825SOL     OW 2473   1.386   1.586   0.460  0.3460  0.5756 -0.0580
  825SOL    HW1 2474   1.475   1.539   0.453 -1.4382  0.5927  4.6607
  825SOL    HW2 2475   1.340   1.589   0.369  2.1134  0.2973  1.6142
  826SOL     OW 2476   1.794   0.446   3.041 -0.4963 -0.5081  0.0371
  826SOL    HW1 2477   1.787   0.343   3.043 -0.5156 -0.2893 -0.2006
  826SOL    HW2 2478   1.838   0.471   0.036 -0.8960 -0.1273  1.7255
  827SOL     OW 2479   0.203   1.587   1.350  0.0168  0.3952 -0.4478
  827SOL    HW1 2480   0.180   1.676   1.395 -0.4744  1.2880 -2.2428
  827SOL    HW2 2481   0.242   1.595   1.258 -0.8394 -0.2286  3.2424
  828SOL     OW 2482   2.095   1.078   1.666 -0.3204  0.0712  0.5831
  828SOL    HW1 2483   2.021   1.034   1.610 -2.4130 -2.1966  1.3353
  828SOL    HW2 2484   2.066   1.087   1.765  2.6593  1.4109 -0.2552
  829SOL     OW 2485   0.135   2.222   0.446  0.0970 -0.2464 -0.6287
  829SOL    HW1 2486   0.056   2.169   0.408  1.7830  0.8120  0.0693
  829SOL    HW2 2487   0.218   2.183   0.403 -1.8112  0.3710  1.1795
  830SOL     OW 2488   1.040   0.826   0.788  0.2526 -0.1349  0.0944
  830SOL    HW1 2489   1.070   0.768   0.874  2.0317 -1.8285  0.2897
  830SOL    HW2 2490   1.023   0.926   0.819  0.6827  2.8314  0.3288
  831SOL     OW 2491   2.729   1.628   0.099 -0.1307 -0.0530 -0.0588
  831SOL    HW1 2492   2.779   1.687   0.029  1.1110  1.1661  0.1442
  831SOL    HW2 2493   2.633   1.665   0.122 -0.8752  1.0305  1.8121
  832SOL     OW 2494   1.138   2.805   0.141 -0.1609  0.5726 -0.1861
  832SOL    HW1 2495   1.111   2.876   0.072 -0.6779  2.7381 -1.5389
  832SOL    HW2 2496   1.128   2.843   0.239  1.0446 -1.7609  1.3797
  833SOL     OW 2497   0.993   0.476   1.961 -0.2306 -0.2644 -0.0082
  833SOL    HW1 2498   0.997   0.426   2.050  0.7514  0.4381  0.4434
  833SOL    HW2 2499   0.988   0.576   1.974  2.4236 -0.0391 -0.5225
  834SOL     OW 2500   0.217   0.901   1.044  0.1508  0.0422  0.1549
  834SOL    HW1 2501   0.277   0.980   1.037 -3.1635 -2.8121  1.1342
  834SOL    HW2 2502   0.225   0.862   1.136 -0.0278  1.0088  0.0199
  835SOL     OW 2503   2.556   0.247   1.838  0.0563  0.7112 -0.5579
  835SOL    HW1 2504   2.571   0.319   1.916  0.4604  1.5209  0.3192
  835SOL    HW2 2505   2.466   0.209   1.846  0.1030  1.2610  0.9530
  836SOL     OW 2506   0.268   2.217   0.875 -0.1017 -0.3746 -0.1239
  836SOL    HW1 2507   0.322   2.304   0.898  0.7665  0.3314 -3.4730
  836SOL    HW2 2508   0.312   2.132   0.904  2.3529  0.8072 -2.9373
  837SOL     OW 2509   1.943   1.697   2.351 -0.0680 -0.0320 -0.1632
  837SOL    HW1 2510   1.975   1.609   2.385 -0.4924  0.3691 -0.8000
  837SOL    HW2 2511   2.023   1.765   2.331  2.1053 -0.7854 -1.3796
  838SOL     OW 2512   0.382   1.149   1.399  0.2185 -0.2975 -0.1084
  838SOL    HW1 2513   0.428   1.095   1.326  1.0532  1.0660  1.5390
  838SOL    HW2 2514   0.281   1.114   1.397 -2.7137 -1.7631  0.5872
  839SOL     OW 2515   0.248   0.256   0.765 -0.4593 -0.2699  0.3460
  839SOL    HW1 2516   0.257   0.347   0.724 -0.1954  1.3745  1.9342
  839SOL    HW2 2517   0.266   0.265   0.864 -3.3847  0.1365  0.1347
  840SOL     OW 2518   2.959   0.424   2.653  0.8647 -0.1087  0.2253
  840SOL    HW1 2519   3.003   0.384   2.569 -1.7472  0.4514  1.3757
  840SOL    HW2 2520   3.023   0.474   2.710 -0.7446  2.1279 -1.2319
  841SOL     OW 2521   0.674   2.852   3.018 -0.4921  0.1599  0.3898
  841SOL    HW1 2522   0.705   2.872   0.015 -1.3131  0.6009 -0.9888
  841SOL    HW2 2523   0.631   2.930   2.975 -0.2459 -2.0582  0.6878
  842SOL     OW 2524   1.030   0.054   0.968 -0.5307  0.7214  0.1193
  842SOL    HW1 2525   0.966   3.075   0.948 -0.2912 -1.1259  0.3040
  842SOL    HW2 2526   0.991   0.119   1.030 -2.0368  3.7474  2.5536
  843SOL     OW 2527   3.009   1.396   2.821  0.0140  0.2117 -0.2220
  843SOL    HW1 2528   3.049   1.331   2.890  0.4256  1.5021  1.6484
  843SOL    HW2 2529   2.986   1.350   2.735 -1.0921  2.3200  2.4051
  844SOL     OW 2530   0.928   2.243   2.296  0.2993 -0.1393  0.0141
  844SOL    HW1 2531   0.915   2.238   2.397 -0.9866  0.6920  0.9122
  844SOL    HW2 2532   0.859   2.305   2.250 -1.5040  2.1855 -0.9439
  845SOL     OW 2533   2.164   2.551   2.461  0.0408  0.7080  0.0076
  845SOL    HW1 2534   2.161   2.610   2.377 -2.0591  0.0713 -0.4353
  845SOL    HW2 2535   2.121   2.605   2.534  1.0719 -1.2444  0.4316
  846SOL     OW 2536   1.616   1.600   2.478 -0.0513  0.2247 -0.0353
  846SOL    HW1 2537   1.662   1.667   2.547  1.1504  1.6503  1.2978
  846SOL    HW2 2538   1.682   1.537   2.430  1.2860  0.6231 -1.3200
  847SOL     OW 2539   2.749   0.083   3.034 -0.5714 -0.0685  0.3953
  847SOL    HW1 2540   2.823   0.022   3.001 -0.7187  2.3173  0.8868
  847SOL    HW2 2541   2.743   0.164   2.972 -4.5683 -0.4995  1.0161
  848SOL     OW 2542   0.204   0.879   0.326 -0.7539 -0.0430  0.2402
  848SOL    HW1 2543   0.181   0.881   0.427 -1.4577  0.9079  1.9430
  848SOL    HW2 2544   0.179   0.969   0.283 -0.8489  3.4324  1.7238
  849SOL     OW 2545   1.134   0.134   2.259 -0.3765  0.1982 -0.0322
  849SOL    HW1 2546   1.073   0.075   2.202  2.4041  0.5725  0.6178
  849SOL    HW2 2547   1.213   0.076   2.285 -0.3941  1.2461  0.0314
  850SOL     OW 2548   0.361   1.215   0.359  0.3740  0.6502  0.1484
  850SOL    HW1 2549   0.416   1.298   0.336 -0.4873 -1.8245 -2.5057
  850SOL    HW2 2550   0.302   1.225   0.445  0.6222  2.0227  0.4621
  851SOL     OW 2551   0.544   1.418   0.315  0.2264  0.0327  0.2406
  851SOL    HW1 2552   0.613   1.433   0.389  0.3244 -2.5782  2.1940
  851SOL    HW2 2553   0.594   1.426   0.224  1.4635  0.0316 -1.5663
  852SOL     OW 2554   1.137   1.219   1.812  0.5579  0.3886 -0.9866
  852SOL    HW1 2555   1.228   1.254   1.843  3.5593 -0.3370  1.7313
  852SOL    HW2 2556   1.068   1.213   1.891 -2.7471 -2.2425 -1.3345
  853SOL     OW 2557   2.514   1.508   0.411 -0.0546  0.2013  0.3444
  853SOL    HW1 2558   2.522   1.608   0.431  1.5381  1.9983 -0.0426
  853SOL    HW2 2559   2.599   1.477   0.362  1.6470  0.5237 -1.7637
  854SOL     OW 2560   1.233   1.057   2.194 -0.6269  0.2924  0.0874
  854SOL    HW1 2561   1.200   1.044   2.291 -0.6090  2.6190 -1.4407
  854SOL    HW2 2562   1.227   0.969   2.139  1.9244 -0.0870  0.1141
  855SOL     OW 2563   0.329   2.685   2.620  0.3067 -0.4126  0.1798
  855SOL    HW1 2564   0.420   2.675   2.659 -1.7021 -0.7826  1.3616
  855SOL    HW2 2565   0.285   2.771   2.651 -0.5899  0.7754  3.4959
  856SOL     OW 2566   1.255   0.806   2.028 -0.1179  0.3552  0.1281
  856SOL    HW1 2567   1.332   0.776   1.972 -2.1173 -0.0946  1.1554
  856SOL    HW2 2568   1.171   0.808   1.974 -0.2550  2.6273 -0.6709
  857SOL     OW 2569   1.213   0.639   2.269  0.1860  0.3918  0.5085
  857SOL    HW1 2570   1.166   0.549   2.257 -0.2409  2.4797 -1.3362
  857SOL    HW2 2571   1.211   0.682   2.176 -1.4711  0.9420 -1.6306
  858SOL     OW 2572   0.188   0.830   1.732  0.2987 -0.1888 -0.5951
  858SOL    HW1 2573   0.166   0.912   1.786  1.9864 -0.9760 -0.4008
  858SOL    HW2 2574   0.268   0.840   1.670  1.6688  1.8006 -1.5921
  859SOL     OW 2575   2.642   3.023   0.845 -0.2834 -0.2959 -0.2752
  859SOL    HW1 2576   2.742   3.046   0.844  2.2814  0.5847 -0.2457
  859SOL    HW2 2577   2.625   2.936   0.800 -0.6219  2.6053  0.1469
  860SOL     OW 2578   1.922   0.259   0.617  0.3146  0.7382  0.1662
  860SOL    HW1 2579   1.846   0.223   0.559  0.3434  2.6890  3.3387
  860SOL    HW2 2580   1.980   0.182   0.653 -0.4949  0.9452 -1.0354
  861SOL     OW 2581   1.441   0.501   1.148 -0.7624  0.0062  0.1161
  861SOL    HW1 2582   1.363   0.475   1.210 -2.3847  1.2668 -0.5954
  861SOL    HW2 2583   1.429   0.592   1.109  2.7108 -1.3625 -3.5138
  862SOL     OW 2584   1.318   3.034   2.330 -0.2901 -0.3116 -0.4371
  862SOL    HW1 2585   1.352   2.941   2.310 -1.0206 -0.8119 -1.3927
  862SOL    HW2 2586   1.388   0.013   2.344  0.0139  2.7266 -0.2925
  863SOL     OW 2587   2.981   2.782   0.853 -0.2464  0.1234  0.0742
  863SOL    HW1 2588   2.981   2.758   0.948  0.2072 -3.2468 -1.9672
  863SOL    HW2 2589   3.011   2.697   0.806  0.2901 -1.0650 -1.2707
  864SOL     OW 2590   2.381   0.098   2.201  0.6224  0.2860 -0.3697
  864SOL    HW1 2591   2.338   0.047   2.277  0.9129  3.3739  1.0522
  864SOL    HW2 2592   2.330   0.182   2.177  0.2436 -0.5249 -0.3799
  865SOL     OW 2593   0.961   1.408   2.103 -1.0074  1.0887 -0.2988
  865SOL    HW1 2594   0.981   1.306   2.108  1.8509  0.4068  0.0297
  865SOL    HW2 2595   0.912   1.442   2.186  0.6970  1.6102  2.1246
  866SOL     OW 2596   2.050   2.794   1.141  0.1916 -0.3156  0.4898
  866SOL    HW1 2597   2.009   2.764   1.049 -3.4708 -0.4450 -0.0407
  866SOL    HW2 2598   2.141   2.839   1.128 -3.0922  0.3578  1.2503
  867SOL     OW 2599   2.214   2.928   0.831 -0.4795 -0.2807 -0.3518
  867SOL    HW1 2600   2.256   2.944   0.923  1.6290 -0.8975 -0.9415
  867SOL    HW2 2601   2.127   2.880   0.839  2.7071  0.4212 -0.6680
  868SOL     OW 2602   2.900   2.088   1.670 -0.3055  0.6543 -0.2042
  868SOL    HW1 2603   2.844   2.027   1.610 -0.8966 -0.8485  4.4868
  868SOL    HW2 2604   2.853   2.171   1.697  0.9536 -2.1475  1.7874
  869SOL     OW 2605   1.921   2.124   2.052 -0.2196 -0.3465 -1.1572
  869SOL    HW1 2606   1.928   2.186   2.133 -0.1211  0.0437 -0.3900
  869SOL    HW2 2607   1.825   2.114   2.022  3.2995  1.9777 -0.7516
  870SOL     OW 2608   1.441   1.131   0.821  0.6394 -0.1434 -0.6254
  870SOL    HW1 2609   1.380   1.140   0.740  1.8136 -0.8999  0.7103
  870SOL    HW2 2610   1.495   1.218   0.821 -2.4817 -1.0014 -1.8762
  871SOL     OW 2611   2.967   2.024   2.058  0.1855 -0.1182  0.0014
  871SOL    HW1 2612   2.905   2.021   2.138 -1.7681  0.4215  0.0762
  871SOL    HW2 2613   3.042   1.954   2.073 -1.5335 -1.0544  0.7414
  872SOL     OW 2614   1.139   1.331   2.435 -0.1211 -0.1082  0.6066
  872SOL    HW1 2615   1.073   1.394   2.479 -2.9751 -0.8499  0.2344
  872SOL    HW2 2616   1.229   1.377   2.432 -0.7450  2.7985  0.1162
  873SOL     OW 2617   0.801   1.010   1.855 -0.4412 -0.1352  0.3044
  873SOL    HW1 2618   0.872   1.082   1.837  0.5048  0.6822  1.0558
  873SOL    HW2 2619   0.715   1.039   1.910 -0.9000 -2.2549  0.0628
  874SOL     OW 2620   1.641   0.763   1.566  0.1815 -0.5294 -0.7069
  874SOL    HW1 2621   1.661   0.790   1.471  0.0300  1.2058  1.6625
  874SOL    HW2 2622   1.692   0.828   1.628  1.2820  1.9168  0.9752
  875SOL     OW 2623   0.026   0.251   0.155 -0.4859  0.8150 -0.4187
  875SOL    HW1 2624   0.024   0.148   0.147  0.1633 -0.0363 -1.5616
  875SOL    HW2 2625   3.033   0.290   0.180  3.1168 -1.2186 -1.5528
  876SOL     OW 2626   0.890   1.202   0.238  0.1137 -0.2729  0.6630
  876SOL    HW1 2627   0.893   1.160   0.330  1.9127 -0.8543 -0.0251
  876SOL    HW2 2628   0.984   1.216   0.211 -3.8190 -2.3152  0.8046
  877SOL     OW 2629   2.513   2.718   1.036 -0.3394 -0.2906 -0.1578
  877SOL    HW1 2630   2.466   2.656   1.096 -0.9796  0.8425 -1.6605
  877SOL    HW2 2631   2.587   2.663   0.991 -0.8013 -0.1332 -0.6157
  878SOL     OW 2632   1.885   1.783   0.355 -0.1154  0.3544  0.0482
  878SOL    HW1 2633   1.946   1.838   0.415 -1.0645  0.6167 -0.1706
  878SOL    HW2 2634   1.928   1.775   0.259  2.0855 -1.3045 -0.7909
  879SOL     OW 2635   2.959   1.380   1.838  0.0712  0.2277 -0.3776
  879SOL    HW1 2636   2.989   1.460   1.786 -2.2600  0.0830  0.1340
  879SOL    HW2 2637   2.969   1.398   1.937 -0.0622 -1.7319  0.9986
  880SOL     OW 2638   0.464   1.980   0.919 -0.3481  0.0086  0.6419
  880SOL    HW1 2639   0.501   1.959   1.008  1.6252 -0.4600 -1.2265
  880SOL    HW2 2640   0.423   1.896   0.877 -2.9445  0.1669 -2.2701
  881SOL     OW 2641   1.171   0.107   1.857  0.1746 -0.4025 -0.3381
  881SOL    HW1 2642   1.219   0.099   1.769 -0.6765  0.5541 -1.3184
  881SOL    HW2 2643   1.181   0.202   1.891  0.4910  1.5582 -4.3023
  882SOL     OW 2644   2.251   0.921   1.075 -0.5187 -0.5074  0.0195
  882SOL    HW1 2645   2.296   0.991   1.017  1.1341  2.0451  0.4102
  882SOL    HW2 2646   2.261   0.962   1.171  2.6745  1.0238 -0.0436
  883SOL     OW 2647   1.770   0.288   1.495 -0.3300  0.5075  0.4316
  883SOL    HW1 2648   1.762   0.226   1.411  0.1141 -1.7766 -0.9409
  883SOL    HW2 2649   1.691   0.356   1.500  1.0260  1.9311 -0.1000
  884SOL     OW 2650   2.823   3.071   2.024  0.3710 -1.0584  0.4467
  884SOL    HW1 2651   2.910   0.007   2.069  2.7419  0.1872  1.2142
  884SOL    HW2 2652   2.813   0.029   1.937  0.5841 -0.5967 -1.2771
  885SOL     OW 2653   1.277   1.339   2.886  0.1941 -0.0054  0.1760
  885SOL    HW1 2654   1.251   1.422   2.838 -1.0805 -1.3194 -2.3731
  885SOL    HW2 2655   1.203   1.304   2.949  0.7261 -0.9939  3.1829
  886SOL     OW 2656   2.054   0.294   2.941 -0.1786 -0.2320  0.1395
  886SOL    HW1 2657   2.070   0.313   3.040  1.9481  2.7221 -0.5070
  886SOL    HW2 2658   1.959   0.261   2.925  2.5799  0.7870  1.4829
  887SOL     OW 2659   1.311   2.873   1.359  0.0750  0.6986  0.1999
  887SOL    HW1 2660   1.346   2.920   1.279  0.0948 -0.8005  0.0649
  887SOL    HW2 2661   1.318   2.929   1.446 -0.7898 -1.0845 -0.2533
  888SOL     OW 2662   1.811   1.733   2.132  0.4293 -0.0925 -0.2853
  888SOL    HW1 2663   1.775   1.644   2.098  0.3195 -2.5684  1.3815
  888SOL    HW2 2664   1.870   1.724   2.216  0.2804  0.8805 -1.6125
  889SOL     OW 2665   1.883   2.446   1.247  0.1387  0.2542  0.2984
  889SOL    HW1 2666   1.919   2.452   1.342  0.9325 -4.1623 -0.7520
  889SOL    HW2 2667   1.828   2.524   1.215 -0.6791 -0.7504  0.2065
  890SOL     OW 2668   1.276   1.744   0.798  0.1976 -0.0271 -0.0962
  890SOL    HW1 2669   1.366   1.784   0.790 -0.1243  0.0966 -1.7358
  890SOL    HW2 2670   1.285   1.645   0.771 -2.1244 -2.1381 -0.9026
  891SOL     OW 2671   2.648   1.115   0.180  1.1441 -0.7705  0.0929
  891SOL    HW1 2672   2.623   1.214   0.173  0.6493 -0.6790 -2.1027
  891SOL    HW2 2673   2.703   1.078   0.105 -0.9431 -2.1401  2.4084
  892SOL     OW 2674   2.173   1.187   0.041  0.0566  0.4912  0.9675
  892SOL    HW1 2675   2.128   1.194   0.131 -0.3143  2.1986 -1.5817
  892SOL    HW2 2676   2.180   1.280   3.087  0.8735  1.1894 -1.3711
  893SOL     OW 2677   1.930   2.399   1.522  0.9050  0.2492  0.7377
  893SOL    HW1 2678   1.927   2.381   1.619 -1.1093 -2.3538 -1.9429
  893SOL    HW2 2679   2.000   2.334   1.490  0.3709 -1.9445  2.9405
  894SOL     OW 2680   2.570   2.792   0.717  0.2646 -0.5712 -0.5417
  894SOL    HW1 2681   2.545   2.849   0.637  2.7579 -0.0867  2.4276
  894SOL    HW2 2682   2.597   2.702   0.682 -2.4913  0.5451 -0.1990
  895SOL     OW 2683   2.757   2.656   2.842  0.0647 -0.0490 -0.1461
  895SOL    HW1 2684   2.706   2.745   2.820 -0.4100  0.9129 -0.7823
  895SOL    HW2 2685   2.714   2.575   2.799 -0.0525  0.3080 -0.2953
  896SOL     OW 2686   2.041   0.069   2.543  0.4705  0.0056 -0.2124
  896SOL    HW1 2687   2.093   0.110   2.621 -0.5616 -1.5366  1.4541
  896SOL    HW2 2688   2.027   3.067   2.571 -0.7763 -1.6245  1.9221
  897SOL     OW 2689   0.288   1.803   1.962 -0.2057  0.2188  0.2271
  897SOL    HW1 2690   0.260   1.704   1.962 -3.2336 -0.8667  0.3336
  897SOL    HW2 2691   0.382   1.812   2.009  2.1095 -1.4680 -1.1277
  898SOL     OW 2692   2.578   1.512   1.691  0.1128 -0.3404 -0.4443
  898SOL    HW1 2693   2.620   1.558   1.768 -0.5313 -2.9192  1.0690
  898SOL    HW2 2694   2.493   1.559   1.665  0.4605 -1.3575  0.6919
  899SOL     OW 2695   1.506   2.621   1.430  0.2217  0.1997  0.5927
  899SOL    HW1 2696   1.475   2.606   1.525  1.0843  0.2900 -1.9980
  899SOL    HW2 2697   1.471   2.709   1.394  0.2760 -0.8819  0.5698
  900SOL     OW 2698   1.142   0.886   2.789  0.0819  0.2146  0.0721
  900SOL    HW1 2699   1.056   0.929   2.814  0.4487 -0.1021 -0.9013
  900SOL    HW2 2700   1.165   0.811   2.856  2.6163  0.5280  1.8368
  901SOL     OW 2701   0.884   1.214   2.426  0.2438 -0.1181 -0.3115
  901SOL    HW1 2702   0.817   1.201   2.350  1.0418 -0.3783 -2.0833
  901SOL    HW2 2703   0.959   1.273   2.395  0.3640 -0.4364  1.9763
  902SOL     OW 2704   2.814   2.204   0.562 -0.7615 -0.0154  0.1478
  902SOL    HW1 2705   2.729   2.209   0.512  1.0142  0.5683 -0.2913
  902SOL    HW2 2706   2.886   2.213   0.492 -1.3573  1.7999  0.2253
  903SOL     OW 2707   2.492   1.194   1.776 -0.5226  0.6966  0.5232
  903SOL    HW1 2708   2.587   1.221   1.750 -0.6788 -1.7115 -0.6376
  903SOL    HW2 2709   2.486   1.149   1.869 -0.2907  0.5930 -0.8283
  904SOL     OW 2710   1.688   0.772   0.164 -0.2247  0.3609 -0.1326
  904SOL    HW1 2711   1.756   0.782   0.083  1.1263  2.5762 -3.3781
  904SOL    HW2 2712   1.719   0.824   0.246  1.9173 -0.4597  0.6057
  905SOL     OW 2713   2.381   2.531   1.195 -0.0900 -0.0003  0.2697
  905SOL    HW1 2714   2.350   2.573   1.281 -0.8945 -0.4412 -1.2010
  905SOL    HW2 2715   2.302   2.483   1.151  0.9896  0.1152 -1.3781
  906SOL     OW 2716   1.488   2.062   2.943  0.4649  0.5075  0.1878
  906SOL    HW1 2717   1.498   2.034   2.845 -0.5279 -1.4118 -0.7059
  906SOL    HW2 2718   1.402   2.024   2.991  1.3256  1.1779  2.6562
  907SOL     OW 2719   0.775   2.431   0.628 -0.4781 -0.0886  0.7558
  907SOL    HW1 2720   0.812   2.395   0.713 -3.4894 -1.6482 -0.7678
  907SOL    HW2 2721   0.816   2.382   0.548  1.5395 -0.8959  1.4255
  908SOL     OW 2722   0.942   2.824   2.124  0.0526  0.0459 -0.3147
  908SOL    HW1 2723   0.967   2.765   2.205  1.4488 -1.2426  0.8603
  908SOL    HW2 2724   1.004   2.827   2.044  0.6993  0.2982 -0.4320
  909SOL     OW 2725   1.953   0.476   1.593  0.4153 -0.4455 -0.2033
  909SOL    HW1 2726   1.886   0.414   1.540 -0.9876 -2.8110  1.4544
  909SOL    HW2 2727   1.895   0.537   1.648  0.2575  0.1051  1.3430
  910SOL     OW 2728   1.165   0.615   2.580  0.0003 -0.2721 -0.0340
  910SOL    HW1 2729   1.226   0.652   2.506  2.4538 -0.9531 -2.0087
  910SOL    HW2 2730   1.148   0.689   2.656  1.3275  3.5015  0.2442
  911SOL     OW 2731   3.037   0.678   0.180  0.0054 -0.6945  0.1880
  911SOL    HW1 2732   2.998   0.747   0.245 -1.2668  3.6580 -0.4661
  911SOL    HW2 2733   0.014   0.623   0.221 -1.4943  2.2585 -0.0455
  912SOL     OW 2734   2.846   2.625   0.007  0.0780 -0.3582  0.0097
  912SOL    HW1 2735   2.841   2.635   2.996 -0.8601  0.0915 -2.9000
  912SOL    HW2 2736   2.935   2.662   0.038 -0.6540  0.4460 -0.5612
  913SOL     OW 2737   2.846   2.257   2.856  0.5404 -0.7584  0.2401
  913SOL    HW1 2738   2.784   2.321   2.802 -1.4481 -3.2505 -2.5117
  913SOL    HW2 2739   2.928   2.218   2.809  1.4663  0.0008  1.2878
  914SOL     OW 2740   1.520   1.711   1.571  0.1177 -0.1603 -0.5251
  914SOL    HW1 2741   1.498   1.631   1.515  1.7729  0.3439  1.5267
  914SOL    HW2 2742   1.457   1.787   1.549  1.0549  0.1489  1.3896
  915SOL     OW 2743   0.287   2.663   1.964 -0.0799  0.0006  0.5405
  915SOL    HW1 2744   0.240   2.638   2.048 -0.4648  0.2679 -1.3124
  915SOL    HW2 2745   0.381   2.623   1.959 -2.5470 -1.5851 -0.0261
  916SOL     OW 2746   0.425   1.318   1.613 -0.3571 -0.2456 -0.3723
  916SOL    HW1 2747   0.402   1.264   1.530 -2.1478  2.1434  0.3863
  916SOL    HW2 2748   0.350   1.393   1.623 -0.0908  1.0999  0.2692
  917SOL     OW 2749   2.372   0.233   3.060 -0.2092 -0.4362  0.0426
  917SOL    HW1 2750   2.315   0.272   0.042 -0.2941  2.8077  0.7965
  917SOL    HW2 2751   2.430   0.307   3.020  2.0851 -3.9956 -0.3407
  918SOL     OW 2752   1.458   2.330   2.343  0.1312 -0.4527 -0.0444
  918SOL    HW1 2753   1.510   2.243   2.319  2.4089 -0.4081 -0.5020
  918SOL    HW2 2754   1.358   2.309   2.346 -2.0103  0.0199 -0.3431
  919SOL     OW 2755   1.683   2.439   1.719 -0.2415  0.1931 -0.1850
  919SOL    HW1 2756   1.673   2.390   1.628 -0.8505 -1.1901 -0.2647
  919SOL    HW2 2757   1.729   2.374   1.783 -0.3495 -2.8535 -2.2196
  920SOL     OW 2758   0.714   0.945   2.998  0.4485 -0.1481  0.0142
  920SOL    HW1 2759   0.636   1.004   2.992  1.4760 -1.3312  0.6853
  920SOL    HW2 2760   0.749   0.950   3.093 -0.1540  1.2585  0.9993
  921SOL     OW 2761   2.952   0.869   2.449  0.2176 -0.2303 -0.2309
  921SOL    HW1 2762   2.864   0.885   2.490 -0.7663 -3.0090 -4.0341
  921SOL    HW2 2763   2.938   0.802   2.374 -0.8129 -0.5504 -0.7664
  922SOL     OW 2764   0.706   1.884   0.350 -0.2885  0.5027 -0.1858
  922SOL    HW1 2765   0.780   1.906   0.420 -3.3283  1.1139  3.0721
  922SOL    HW2 2766   0.614   1.911   0.388  0.4238  1.4022 -0.1499
  923SOL     OW 2767   0.421   1.076   1.770 -0.2274  0.0289 -0.0823
  923SOL    HW1 2768   0.405   1.164   1.727  0.8844  0.0037  0.6145
  923SOL    HW2 2769   0.426   1.008   1.695  2.2715 -2.4942  0.5918
  924SOL     OW 2770   1.415   3.015   2.895 -0.2905 -0.2684 -0.4760
  924SOL    HW1 2771   1.318   3.025   2.872 -1.0686 -1.4971  2.4483
  924SOL    HW2 2772   1.463   0.009   2.923  0.7328 -0.9654 -1.3706
  925SOL     OW 2773   2.669   1.439   1.427 -0.5526  0.4089 -0.1247
  925SOL    HW1 2774   2.579   1.418   1.392 -1.4097 -0.3885 -1.1192
  925SOL    HW2 2775   2.670   1.503   1.510 -0.0307 -0.4795  1.0248
  926SOL     OW 2776   2.127   0.376   1.793 -0.9734  0.0805 -0.4747
  926SOL    HW1 2777   2.140   0.465   1.846  1.4246  1.0917  1.9589
  926SOL    HW2 2778   2.067   0.386   1.713 -0.6184  2.3305  0.2185
  927SOL     OW 2779   2.501   2.341   1.661 -0.0008 -0.3559 -0.1177
  927SOL    HW1 2780   2.530   2.441   1.649  0.7704  2.0039 -1.2062
  927SOL    HW2 2781   2.478   2.302   1.569 -0.9097 -1.1134  2.0012
  928SOL     OW 2782   0.176   0.794   2.409  0.0338  0.5523 -0.1259
  928SOL    HW1 2783   0.072   0.795   2.421 -2.7413 -1.1201 -1.8604
  928SOL    HW2 2784   0.225   0.882   2.410  3.3160 -3.0328 -0.8429
  929SOL     OW 2785   2.465   0.077   1.011 -0.2516  0.1345 -0.4317
  929SOL    HW1 2786   2.537   0.028   0.961 -1.9577  0.8536  2.2834
  929SOL    HW2 2787   2.388   0.013   1.035 -1.0273  1.2339 -0.5883
  930SOL     OW 2788   2.796   3.081   1.523  0.4986 -0.2545  0.3133
  930SOL    HW1 2789   2.842   2.991   1.504  2.3389  1.7787 -2.1599
  930SOL    HW2 2790   2.773   0.033   1.431  1.5061  1.2528  1.0785
  931SOL     OW 2791   2.027   0.828   0.377 -0.1257 -0.3662 -0.3630
  931SOL    HW1 2792   1.939   0.875   0.357 -0.6270 -0.1450  0.5249
  931SOL    HW2 2793   2.088   0.821   0.299 -1.4171  0.5502  2.6941
  932SOL     OW 2794   2.083   1.351   1.608  0.6899 -0.1167 -0.5461
  932SOL    HW1 2795   2.162   1.381   1.555 -3.9973 -1.4458  2.2349
  932SOL    HW2 2796   2.077   1.254   1.619 -1.2014  0.5757 -1.2715
  933SOL     OW 2797   3.019   2.182   1.230  0.3433  0.7772  0.0835
  933SOL    HW1 2798   3.058   2.277   1.238  2.3726  2.6126 -1.0602
  933SOL    HW2 2799   3.026   2.126   1.315  1.2493 -1.3186 -0.7019
  934SOL     OW 2800   0.566   2.069   1.429  0.3937 -0.3723  0.2728
  934SOL    HW1 2801   0.657   2.114   1.421 -1.1283  1.7810  1.8643
  934SOL    HW2 2802   0.539   2.047   1.525 -1.0668  0.0115  0.3780
  935SOL     OW 2803   2.859   1.432   2.081  0.5886 -0.7822 -0.1393
  935SOL    HW1 2804   2.766   1.448   2.043  0.4436  0.4175  0.7533
  935SOL    HW2 2805   2.879   1.505   2.153 -2.0275  0.9400 -0.7443
  936SOL     OW 2806   2.606   1.418   1.975 -0.1639  0.1124  0.3515
  936SOL    HW1 2807   2.528   1.359   1.994  2.7299 -0.4412 -3.4785
  936SOL    HW2 2808   2.580   1.505   1.933 -2.9627 -3.0234  2.2913
  937SOL     OW 2809   1.980   1.319   2.215  0.1736 -0.4653  0.4193
  937SOL    HW1 2810   2.039   1.372   2.155  0.1981  0.4319  0.5898
  937SOL    HW2 2811   1.952   1.367   2.297  0.0080 -2.8830 -1.9752
  938SOL     OW 2812   0.937   2.232   2.567 -0.0136  0.7705  0.1333
  938SOL    HW1 2813   0.862   2.186   2.616 -3.5776  2.7453  1.3140
  938SOL    HW2 2814   1.020   2.242   2.625  0.2403 -1.4354  0.8573
  939SOL     OW 2815   2.251   1.023   2.903 -0.2122 -0.4294 -0.3700
  939SOL    HW1 2816   2.166   0.977   2.884  1.4581 -0.9401  1.7247
  939SOL    HW2 2817   2.239   1.082   2.989  1.1589  0.9519  0.5021
  940SOL     OW 2818   1.193   1.937   0.610  0.2030  0.6723  0.8205
  940SOL    HW1 2819   1.270   1.943   0.540  1.0869  1.1017 -0.1982
  940SOL    HW2 2820   1.204   1.849   0.656  0.3783  0.9497 -2.0630
  941SOL     OW 2821   1.115   2.624   2.316 -0.7208 -0.1455  0.3672
  941SOL    HW1 2822   1.179   2.576   2.371 -2.1888 -0.4201  0.2821
  941SOL    HW2 2823   1.099   2.577   2.224 -0.3164  2.0989  1.0042
  942SOL     OW 2824   0.607   2.286   0.332  0.4760 -0.2688 -0.2610
  942SOL    HW1 2825   0.614   2.345   0.250 -0.5623  0.9926  0.0245
  942SOL    HW2 2826   0.700   2.276   0.371  0.9114  0.6589 -2.9094
  943SOL     OW 2827   1.800   2.674   1.616 -0.0525  0.4294 -0.1334
  943SOL    HW1 2828   1.754   2.586   1.646  2.3603  1.6090  1.3717
  943SOL    HW2 2829   1.901   2.670   1.642  2.3797 -1.5416 -0.3849
  944SOL     OW 2830   0.995   1.481   2.929 -0.0918 -0.3449 -0.2083
  944SOL    HW1 2831   1.056   1.533   2.864 -1.2545 -1.4081 -2.3259
  944SOL    HW2 2832   0.904   1.473   2.881 -1.6396  1.4609 -0.8118
  945SOL     OW 2833   3.054   2.559   0.726 -0.2743 -0.2903 -0.5028
  945SOL    HW1 2834   3.032   2.476   0.781  3.0938  0.8103 -2.0214
  945SOL    HW2 2835   0.012   2.536   0.642  0.8792 -2.6614 -0.2028
  946SOL     OW 2836   0.786   1.472   2.763 -0.5178  0.2033 -0.2300
  946SOL    HW1 2837   0.722   1.394   2.783  0.1527 -2.1463 -0.8302
  946SOL    HW2 2838   0.813   1.480   2.668  0.6971 -1.2175  1.6057
  947SOL     OW 2839   2.792   0.096   1.780 -0.1840  0.7463 -0.5416
  947SOL    HW1 2840   2.806   0.073   1.683  3.0442 -2.3411  0.8206
  947SOL    HW2 2841   2.715   0.163   1.798  1.3236 -0.4512 -0.0705
  948SOL     OW 2842   0.204   1.975   1.279 -0.2122  0.2202  0.0690
  948SOL    HW1 2843   0.158   1.978   1.194  1.5979  0.7898  1.3216
  948SOL    HW2 2844   0.296   1.942   1.268 -2.6070 -0.2856 -0.5966
  949SOL     OW 2845   0.931   0.801   1.706 -0.2695 -0.2619 -0.3194
  949SOL    HW1 2846   0.975   0.826   1.614 -0.9426  0.2091  2.2365
  949SOL    HW2 2847   0.865   0.866   1.738  4.6682 -0.3345 -0.8590
  950SOL     OW 2848   3.027   1.027   1.156  0.5345  0.4495 -0.0684
  950SOL    HW1 2849   3.079   0.958   1.100  1.6168  0.8068  1.0748
  950SOL    HW2 2850   2.926   1.015   1.153 -2.8360  0.4224 -0.3509
  951SOL     OW 2851   0.563   1.737   2.529 -0.0626  0.2707 -0.5337
  951SOL    HW1 2852   0.654   1.730   2.577 -0.6823  1.3594 -0.5667
  951SOL    HW2 2853   0.522   1.827   2.558  2.2908  0.7782  0.5919
  952SOL     OW 2854   1.562   2.135   0.597 -0.5051  0.7048  0.1963
  952SOL    HW1 2855   1.612   2.062   0.549 -2.4498 -0.6846  1.9241
  952SOL    HW2 2856   1.496   2.183   0.532  1.3003  0.5791  0.3417
  953SOL     OW 2857   0.952   0.767   0.359  0.1357 -0.4872 -0.0172
  953SOL    HW1 2858   0.993   0.673   0.370 -0.2696  1.7905 -0.8534
  953SOL    HW2 2859   0.895   0.771   0.279  2.6542 -1.2969  1.6918
  954SOL     OW 2860   1.979   0.862   0.985 -0.3356 -1.0380 -0.3413
  954SOL    HW1 2861   2.063   0.893   1.033 -1.3649 -3.6134 -0.9299
  954SOL    HW2 2862   1.929   0.937   0.939 -1.2371  0.2157  2.2861
  955SOL     OW 2863   2.294   1.357   0.542 -0.3177  0.0675  0.4831
  955SOL    HW1 2864   2.204   1.392   0.507 -1.2227  1.9576 -1.9565
  955SOL    HW2 2865   2.372   1.387   0.485  0.1362 -0.6196 -1.4459
  956SOL     OW 2866   0.823   0.382   1.776  0.1178 -0.0249  0.1076
  956SOL    HW1 2867   0.878   0.386   1.863 -1.5462  0.4870  0.1962
  956SOL    HW2 2868   0.881   0.379   1.692  0.6655 -1.3372 -1.9326
  957SOL     OW 2869   1.905   0.495   1.150  0.5241  0.3242  0.1564
  957SOL    HW1 2870   1.810   0.516   1.179  0.1576  1.7006  0.3744
  957SOL    HW2 2871   1.971   0.523   1.223 -1.0434  0.6759 -0.6448
  958SOL     OW 2872   0.061   2.172   0.708 -0.3564  0.1231 -0.3302
  958SOL    HW1 2873   0.089   2.175   0.609  0.8290  3.4530 -1.2979
  958SOL    HW2 2874   0.132   2.218   0.767  1.2894  0.2950 -0.6113
  959SOL     OW 2875   1.880   1.346   1.810  0.3664 -0.8035  0.3418
  959SOL    HW1 2876   1.955   1.383   1.747 -0.0288  1.8266 -2.8048
  959SOL    HW2 2877   1.879   1.245   1.820  0.8458 -1.2405 -1.3306
  960SOL     OW 2878   3.068   1.922   0.001 -0.3542  0.0760  0.1139
  960SOL    HW1 2879   0.062   1.877   0.028  2.3149 -0.7633  1.0086
  960SOL    HW2 2880   2.996   1.853   3.069 -2.6452 -0.4995  1.4647
  961SOL     OW 2881   0.684   1.726   1.037 -0.2771 -0.2693  0.5650
  961SOL    HW1 2882   0.768   1.678   1.000  0.2000 -0.2577  1.3001
  961SOL    HW2 2883   0.721   1.824   1.040  0.4123  1.4123  1.1728
  962SOL     OW 2884   0.931   1.384   0.818  0.0080 -0.3640  0.0016
  962SOL    HW1 2885   0.833   1.371   0.798  0.6348  0.3460 -0.4738
  962SOL    HW2 2886   0.955   1.386   0.919  0.2128 -0.3572 -1.3635
  963SOL     OW 2887   0.918   1.940   2.360  0.2293 -0.1736  0.0417
  963SOL    HW1 2888   0.911   1.922   2.461  0.0597 -0.1740 -2.5434
  963SOL    HW2 2889   1.017   1.968   2.338 -0.6236 -2.0072  1.9156
  964SOL     OW 2890   0.205   2.913   2.001  0.5183  0.0652  0.6518
  964SOL    HW1 2891   0.135   2.948   1.935  2.2309 -1.2688 -2.4899
  964SOL    HW2 2892   0.240   2.821   1.968  0.5533 -3.2483 -2.0427
  965SOL     OW 2893   0.720   2.202   0.020 -0.2415 -0.3618 -0.2487
  965SOL    HW1 2894   0.694   2.290   0.057  0.0633  2.7367 -1.9882
  965SOL    HW2 2895   0.644   2.156   3.070  1.6635  0.3762 -1.2212
  966SOL     OW 2896   2.935   1.612   0.249 -0.5579  0.2157  0.0858
  966SOL    HW1 2897   2.902   1.577   0.340  1.4359  0.1994 -1.4521
  966SOL    HW2 2898   2.860   1.606   0.180  0.0979 -0.1339 -0.3568
  967SOL     OW 2899   2.226   2.512   3.092 -0.3337 -0.1526 -0.0444
  967SOL    HW1 2900   2.217   2.415   0.029 -1.1367 -0.0588  0.2966
  967SOL    HW2 2901   2.208   2.574   0.077  0.4097 -1.8894 -0.5236
  968SOL     OW 2902   2.331   2.940   1.077  0.5459 -0.4572  0.1008
  968SOL    HW1 2903   2.319   2.967   1.175 -1.2344  2.2897  0.1368
  968SOL    HW2 2904   2.399   2.864   1.064 -0.1786  2.6464 -1.1414
  969SOL     OW 2905   0.153   1.004   1.981 -0.6478  0.5367  0.0518
  969SOL    HW1 2906   0.197   0.927   2.029 -1.0481 -0.4613  1.6103
  969SOL    HW2 2907   0.186   1.091   2.021  1.2450  1.5321  0.4954
  970SOL     OW 2908   1.743   1.227   0.544  0.5159 -0.0326  0.3879
  970SOL    HW1 2909   1.833   1.187   0.560 -2.0313 -0.3620 -1.5177
  970SOL    HW2 2910   1.671   1.151   0.536 -0.3240 -1.0569 -0.2312
  971SOL     OW 2911   2.544   2.598   1.621 -0.5382 -0.8371 -0.5633
  971SOL    HW1 2912   2.555   2.633   1.718 -1.6247  1.0710 -0.5763
  971SOL    HW2 2913   2.625   2.611   1.564 -0.1752  0.2400 -0.2744
  972SOL     OW 2914   2.915   0.337   1.376  0.0087  0.2411 -0.3629
  972SOL    HW1 2915   2.867   0.301   1.289 -3.3622 -0.1182 -0.1197
  972SOL    HW2 2916   2.881   0.432   1.389  0.1472  0.7900 -0.6324
  973SOL     OW 2917   0.312   0.508   2.677  0.1032 -0.8702 -0.5506
  973SOL    HW1 2918   0.310   0.506   2.575  2.8468  1.8404  0.5529
  973SOL    HW2 2919   0.228   0.546   2.716 -3.8472  2.1278  2.1854
  974SOL     OW 2920   2.458   1.092   2.022 -0.5766  0.0732 -0.2972
  974SOL    HW1 2921   2.384   1.019   2.015 -2.3978 -2.4656 -0.8765
  974SOL    HW2 2922   2.416   1.171   2.067  0.1769  0.3467  0.4204
  975SOL     OW 2923   1.094   0.360   1.615  0.1237 -0.7120 -0.1786
  975SOL    HW1 2924   1.112   0.277   1.558 -2.0605 -2.3200 -3.0359
  975SOL    HW2 2925   1.151   0.362   1.698  0.5229  0.6525  1.3836
  976SOL     OW 2926   0.965   1.557   1.518 -0.1449  0.9625 -0.2550
  976SOL    HW1 2927   1.051   1.604   1.495 -2.0694  1.9938 -0.8913
  976SOL    HW2 2928   0.890   1.583   1.450  0.3296  0.4225  0.0507
  977SOL     OW 2929   1.135   3.060   0.016  0.3218 -0.6949  0.2837
  977SOL    HW1 2930   1.171   3.050   3.014 -1.1500 -0.6342 -3.3949
  977SOL    HW2 2931   1.158   0.053   0.064 -1.5337  0.1394 -1.7897
  978SOL     OW 2932   2.379   1.276   2.213 -0.3999  0.4037  0.6068
  978SOL    HW1 2933   2.297   1.325   2.246  0.6150 -1.6475 -2.0588
  978SOL    HW2 2934   2.453   1.267   2.281 -1.7983 -0.9815 -1.0882
  979SOL     OW 2935   1.562   0.271   1.791  0.2367 -0.2708 -0.0132
  979SOL    HW1 2936   1.533   0.357   1.845  0.0703 -1.1651  0.5391
  979SOL    HW2 2937   1.596   0.307   1.701  4.0171 -0.6776 -0.0514
  980SOL     OW 2938   1.473   1.532   1.821 -0.5856 -0.0821 -0.1688
  980SOL    HW1 2939   1.487   1.581   1.734 -0.6723  1.3632  1.0441
  980SOL    HW2 2940   1.393   1.576   1.863  0.6232 -1.8407  0.9916
  981SOL     OW 2941   2.277   1.034   1.309  0.0851 -0.0302  0.4337
  981SOL    HW1 2942   2.183   1.002   1.329  4.0465 -1.1967 -2.3978
  981SOL    HW2 2943   2.332   1.053   1.394 -0.0031 -2.6129 -0.7691
  982SOL     OW 2944   0.595   0.328   2.994 -0.0133 -0.2922 -0.5376
  982SOL    HW1 2945   0.516   0.317   2.929  2.4700  2.1027  0.4890
  982SOL    HW2 2946   0.619   0.237   3.028 -2.9525  0.8779 -0.2288
  983SOL     OW 2947   2.140   0.541   2.840 -0.0034 -0.1508 -0.4658
  983SOL    HW1 2948   2.134   0.442   2.866  2.5805  0.2200 -0.7257
  983SOL    HW2 2949   2.045   0.574   2.817  1.2924  0.6624 -0.3394
  984SOL     OW 2950   0.918   0.109   1.954  0.7029 -0.4620 -0.1506
  984SOL    HW1 2951   0.944   0.065   2.042  1.6575  1.6134 -2.4671
  984SOL    HW2 2952   1.002   0.114   1.895  1.9380  1.3126 -1.7251
  985SOL     OW 2953   1.481   1.841   2.138 -0.1972 -0.1614 -0.1837
  985SOL    HW1 2954   1.535   1.827   2.051 -0.3936  0.7979 -3.2948
  985SOL    HW2 2955   1.541   1.837   2.222  1.0403 -0.6553  1.0605
  986SOL     OW 2956   2.427   2.905   1.794  0.6334 -0.0271 -0.4032
  986SOL    HW1 2957   2.473   2.970   1.729 -1.7071 -2.1390  1.7172
  986SOL    HW2 2958   2.433   2.939   1.892  0.7145 -0.4954 -0.4708
  987SOL     OW 2959   2.326   1.347   1.292 -0.6093  0.3423  0.2136
  987SOL    HW1 2960   2.299   1.378   1.200 -1.7861 -2.9509  1.9078
  987SOL    HW2 2961   2.340   1.249   1.299 -2.0665 -0.1775  0.3664
  988SOL     OW 2962   2.539   1.839   2.072  0.0092 -0.4475  0.6632
  988SOL    HW1 2963   2.615   1.871   2.136  0.3884  0.4780 -0.7682
  988SOL    HW2 2964   2.471   1.912   2.043 -0.8062 -1.6749  1.7060
  989SOL     OW 2965   1.383   2.690   0.168  0.1815  0.3581  0.4277
  989SOL    HW1 2966   1.305   2.756   0.157  0.7192 -0.9005  0.3958
  989SOL    HW2 2967   1.364   2.593   0.149  0.1726  3.2485 -0.6652
  990SOL     OW 2968   1.851   1.049   2.972  0.6062  0.0973 -0.1782
  990SOL    HW1 2969   1.906   1.067   2.887  2.1841  1.2225  2.2861
  990SOL    HW2 2970   1.753   1.066   2.958  0.4958 -1.5364 -1.6454
  991SOL     OW 2971   0.939   0.468   0.727  0.4287  0.7758 -0.1155
  991SOL    HW1 2972   0.850   0.522   0.736  0.7498 -0.9498 -2.2582
  991SOL    HW2 2973   0.970   0.445   0.824  0.9744  0.7826  1.1989
  992SOL     OW 2974   2.503   0.857   1.397 -0.2635 -0.1433  0.0851
  992SOL    HW1 2975   2.598   0.848   1.429  0.2945 -2.7470  1.0003
  992SOL    HW2 2976   2.441   0.889   1.473  0.4354 -2.4811  0.6246
  993SOL     OW 2977   2.357   0.808   1.748 -0.1285  0.7233  0.2371
  993SOL    HW1 2978   2.386   0.734   1.682  0.0696  0.1701 -2.5127
  993SOL    HW2 2979   2.331   0.888   1.689 -3.1283 -0.6098 -0.1043
  994SOL     OW 2980   0.513   1.872   2.851  0.0348  0.0725  0.4215
  994SOL    HW1 2981   0.434   1.892   2.789 -0.2177 -0.1802 -0.9590
  994SOL    HW2 2982   0.490   1.795   2.914  1.4630  0.9067  1.5155
  995SOL     OW 2983   1.826   1.355   2.728 -0.6266 -0.3255 -0.5460
  995SOL    HW1 2984   1.927   1.343   2.755  0.4673  1.3874  2.5406
  995SOL    HW2 2985   1.775   1.268   2.707 -0.5625 -1.3591 -0.9945
  996SOL     OW 2986   2.223   1.640   0.275 -0.6477  0.5441 -0.7878
  996SOL    HW1 2987   2.164   1.571   0.321  0.6942  3.2293  0.1731
  996SOL    HW2 2988   2.293   1.679   0.340  0.7993 -0.8934  2.2876
  997SOL     OW 2989   2.243   0.451   2.170 -0.0217  0.4441  0.8095
  997SOL    HW1 2990   2.225   0.479   2.073  1.1878  2.2026 -0.0563
  997SOL    HW2 2991   2.202   0.360   2.201  2.0325 -0.7979  2.1637
  998SOL     OW 2992   2.670   0.987   0.444  0.1455 -0.6864  0.2325
  998SOL    HW1 2993   2.695   1.025   0.349 -2.4093 -1.7998  1.3762
  998SOL    HW2 2994   2.635   0.888   0.438  0.4021 -0.4046 -0.8154
  999SOL     OW 2995   2.944   2.012   0.715 -0.0725 -0.4129 -0.0877
  999SOL    HW1 2996   2.864   2.065   0.680 -0.7095 -0.6645 -0.1803
  999SOL    HW2 2997   3.023   2.082   0.717  1.8171  0.7212 -2.1342
 1000SOL     OW 2998   0.866   0.905   2.186 -0.0288  0.1751  0.0428
 1000SOL    HW1 2999   0.933   0.888   2.261 -0.4863 -1.5510 -0.8318
 1000SOL    HW2 3000   0.779   0.854   2.205 -0.6571 -1.7362 -1.2413
   3.09495   3.09495   3.09495
