1000 SPC/Fw water molecules t= 499.00000 step= 499000
 3000
    1SOL     OW    1   2.924   2.867   1.137 -0.3769 -0.2003 -0.3000
    1SOL    HW1    2   2.995   2.936   1.134 -2.5321 -2.9235  1.7892
    1SOL    HW2    3   2.970   2.778   1.154  2.4521  1.4375  0.5522
    2SOL     OW    4   3.036   2.683   2.931  0.1593 -0.2921 -0.1400
    2SOL    HW1    5   0.008   2.710   3.006  2.1286  0.3838 -0.5332
    2SOL    HW2    6   3.027   2.583   2.937  1.2180 -0.3978  2.0572
    3SOL     OW    7   1.217   2.024   0.346 -0.1575 -0.0327  0.1022
    3SOL    HW1    8   1.238   1.951   0.408 -0.3705  2.7703 -0.1308
    3SOL    HW2    9   1.170   2.096   0.391  1.1555 -1.0186 -2.2676
    4SOL     OW   10   1.313   2.746   2.810 -0.4061  0.5661  0.3706
    4SOL    HW1   11   1.365   2.752   2.902  2.4542  0.6375  1.1903
    4SOL    HW2   12   1.379   2.730   2.734 -0.0184 -0.3122 -1.2333
    5SOL     OW   13   1.708   0.303   2.890 -0.4508  0.0917  0.4934
    5SOL    HW1   14   1.768   0.362   2.830  0.9028  1.8878  1.8447
    5SOL    HW2   15   1.771   0.247   2.954 -1.3850  1.4278  4.7481
    6SOL     OW   16   0.217   1.570   0.915  0.5146  0.5513  0.6968
    6SOL    HW1   17   0.322   1.570   0.906  1.1923  1.7543  1.9350
    6SOL    HW2   18   0.171   1.586   0.828 -1.7570 -0.6247  1.2249
    7SOL     OW   19   1.151   1.774   0.511 -0.3122 -0.4854  0.0509
    7SOL    HW1   20   1.057   1.811   0.498  1.6859 -1.2817 -1.0795
    7SOL    HW2   21   1.212   1.833   0.572  0.5107 -0.1476  1.7160
    8SOL     OW   22   0.185   0.406   0.270 -0.3607 -0.0249  0.1588
    8SOL    HW1   23   0.174   0.332   0.341  0.1539  0.4703  0.6575
    8SOL    HW2   24   0.104   0.469   0.252  1.5546 -0.8126 -0.4753
    9SOL     OW   25   3.086   2.653   1.798  0.1567 -0.0664  0.3075
    9SOL    HW1   26   0.002   2.701   1.885  0.2228  0.7926  0.4357
    9SOL    HW2   27   3.074   2.727   1.728 -3.7784  1.2635 -0.5026
   10SOL     OW   28   1.388   1.672   0.340  0.0106  0.1987  0.7487
   10SOL    HW1   29   1.414   1.720   0.255  0.7838  0.0296  1.0153
   10SOL    HW2   30   1.301   1.700   0.373  1.1539 -0.4400 -2.2363
   11SOL     OW   31   1.868   0.235   1.497 -0.1662  0.1615  0.1014
   11SOL    HW1   32   1.883   0.296   1.418 -1.6732  2.1676 -1.0501
   11SOL    HW2   33   1.770   0.215   1.506 -1.1673 -1.1181  1.0499
   12SOL     OW   34   0.101   0.829   2.147 -0.4557 -0.1080  0.6795
   12SOL    HW1   35   3.090   0.844   2.154 -1.8757 -0.4064  1.9864
   12SOL    HW2   36   0.119   0.743   2.197 -1.0292  0.7005 -0.8491
   13SOL     OW   37   2.007   0.524   3.018  0.4621  0.4926  0.2938
   13SOL    HW1   38   1.944   0.560   3.089  1.4591  0.7556 -0.2227
   13SOL    HW2   39   2.099   0.515   3.061 -0.0581  0.6488  1.5913
   14SOL     OW   40   2.217   2.356   2.994 -0.7671  0.0467 -0.7701
   14SOL    HW1   41   2.179   2.302   3.071  0.8694  1.4680 -0.7382
   14SOL    HW2   42   2.138   2.400   2.943 -1.9796  1.9971  0.2669
   15SOL     OW   43   2.572   2.864   3.068 -0.2805 -0.4012 -0.3774
   15SOL    HW1   44   2.575   2.834   0.074 -2.5597 -1.2054  0.5370
   15SOL    HW2   45   2.477   2.884   3.034  0.7120 -2.3381 -1.0538
   16SOL     OW   46   3.069   0.650   1.218 -0.1362 -0.1448 -0.3188
   16SOL    HW1   47   0.004   0.553   1.227  0.6330  3.5220 -1.5593
   16SOL    HW2   48   0.058   0.709   1.204  2.4602  2.1132 -0.1353
   17SOL     OW   49   0.706   0.231   0.935  0.2921  0.3927  0.0178
   17SOL    HW1   50   0.661   0.327   0.920 -3.7962  1.5204  1.4075
   17SOL    HW2   51   0.797   0.235   0.896 -0.5973 -2.9620  0.7295
   18SOL     OW   52   2.737   0.237   0.531 -0.0362  0.6760  0.3597
   18SOL    HW1   53   2.748   0.154   0.590 -0.3754 -0.3969 -1.4145
   18SOL    HW2   54   2.826   0.282   0.512  0.6844 -0.1925 -0.5615
   19SOL     OW   55   2.140   1.946   0.956 -0.2859 -0.1992 -0.0800
   19SOL    HW1   56   2.229   1.960   1.000 -0.8142  3.9021 -0.3712
   19SOL    HW2   57   2.138   1.878   0.882 -1.4527 -0.9535 -1.4859
   20SOL     OW   58   2.164   1.823   1.971 -0.2246  0.3844  0.1119
   20SOL    HW1   59   2.067   1.814   1.940  2.9292 -1.3999 -1.1111
   20SOL    HW2   60   2.229   1.874   1.913  0.8346 -2.4944 -0.6266
   21SOL     OW   61   1.077   0.391   0.422 -0.0898 -0.0164  0.1590
   21SOL    HW1   62   1.033   0.435   0.340 -0.0509  0.7706  0.6399
   21SOL    HW2   63   1.132   0.463   0.471  0.7988  2.4873 -0.7135
   22SOL     OW   64   2.362   0.835   3.055  0.4127  0.5775 -0.1147
   22SOL    HW1   65   2.433   0.788   0.017  1.1618 -0.0277  0.3514
   22SOL    HW2   66   2.315   0.765   2.992  1.0024 -0.9184  1.4262
   23SOL     OW   67   3.066   0.230   2.254  0.1610  0.4947 -0.0989
   23SOL    HW1   68   0.001   0.137   2.284 -2.4346 -0.1803  1.5313
   23SOL    HW2   69   0.030   0.302   2.298  1.3577 -0.2823 -0.5997
   24SOL     OW   70   2.175   2.485   1.108  0.6656  0.3342  0.2913
   24SOL    HW1   71   2.145   2.574   1.058  0.2041 -0.2505  0.3955
   24SOL    HW2   72   2.247   2.440   1.057 -0.6944  4.3869 -0.0889
   25SOL     OW   73   1.639   0.231   0.118  0.1081 -0.0278  0.1938
   25SOL    HW1   74   1.613   0.210   0.213 -2.3337 -0.0968 -1.7804
   25SOL    HW2   75   1.615   0.148   0.061 -0.0817 -1.6005 -1.2533
   26SOL     OW   76   1.460   2.816   3.022  0.4053 -0.0817  0.1656
   26SOL    HW1   77   1.553   2.827   3.058 -3.1057 -1.5914  0.7691
   26SOL    HW2   78   1.405   2.899   3.038  1.3972  3.5181 -0.8461
   27SOL     OW   79   0.768   0.666   1.340  0.1073 -0.5066 -0.3136
   27SOL    HW1   80   0.727   0.581   1.379  2.3094  0.3396 -0.8658
   27SOL    HW2   81   0.726   0.747   1.381 -0.1574 -0.8614 -0.4871
   28SOL     OW   82   0.919   1.758   1.697  0.3781 -0.4441  0.4141
   28SOL    HW1   83   0.982   1.693   1.747  0.0468 -1.7449  1.0115
   28SOL    HW2   84   0.871   1.807   1.769 -0.2996  1.6289 -0.2392
   29SOL     OW   85   2.368   0.497   0.536 -0.1955  0.0306  0.5006
   29SOL    HW1   86   2.432   0.542   0.468 -0.7451  0.3287  2.3965
   29SOL    HW2   87   2.420   0.476   0.621  0.1833 -2.6746 -0.9941
   30SOL     OW   88   1.511   0.005   1.599 -0.2452 -0.7459  0.5123
   30SOL    HW1   89   1.445   3.052   1.660  1.9546 -1.0297 -3.1906
   30SOL    HW2   90   1.489   3.075   1.503  1.0686 -0.2845  3.4705
   31SOL     OW   91   0.919   0.260   1.249 -0.2358  0.3014 -0.5649
   31SOL    HW1   92   0.905   0.346   1.194 -2.7607  1.4031  0.1222
   31SOL    HW2   93   0.851   0.188   1.223  0.4382 -1.9834  0.6698
   32SOL     OW   94   2.271   0.901   2.077  0.3712  0.6700  0.5762
   32SOL    HW1   95   2.323   0.974   2.132  0.6961  0.9424  2.0404
   32SOL    HW2   96   2.329   0.822   2.055  0.6724 -1.1089 -0.8386
   33SOL     OW   97   2.552   2.523   2.619  0.0790  0.0072 -0.1316
   33SOL    HW1   98   2.595   2.572   2.700 -1.1366 -0.2054  1.2375
   33SOL    HW2   99   2.579   2.426   2.619  1.0992  1.3251 -0.3726
   34SOL     OW  100   1.980   1.032   3.051  0.3027 -0.3477  0.3600
   34SOL    HW1  101   2.044   1.029   0.039 -0.9863  2.2117  0.2406
   34SOL    HW2  102   2.026   1.019   2.961 -0.8499  0.5221 -0.0295
   35SOL     OW  103   2.810   1.029   1.191  0.1782 -0.8685  0.5195
   35SOL    HW1  104   2.827   0.980   1.103 -2.6104  0.3092  1.3471
   35SOL    HW2  105   2.837   1.129   1.183 -0.7622  0.4728 -3.0599
   36SOL     OW  106   2.070   2.240   2.455 -0.6612 -0.4557  0.3507
   36SOL    HW1  107   1.987   2.247   2.392  0.6696  1.7012  0.3936
   36SOL    HW2  108   2.124   2.159   2.426 -1.7579  0.9760  0.7790
   37SOL     OW  109   1.655   2.961   2.317  0.0922  0.0884 -0.2094
   37SOL    HW1  110   1.665   2.934   2.223  0.3322  1.4976  0.2002
   37SOL    HW2  111   1.742   2.956   2.367 -2.5796 -1.2966  1.9751
   38SOL     OW  112   1.231   1.689   2.495  0.3417 -0.1122 -0.2792
   38SOL    HW1  113   1.250   1.714   2.589 -1.6367  2.3318  3.6450
   38SOL    HW2  114   1.259   1.765   2.436 -1.0000 -2.3087  2.3897
   39SOL     OW  115   1.584   0.273   1.594 -0.2922  0.2783  0.6162
   39SOL    HW1  116   1.526   0.351   1.614 -0.0406 -1.1730  1.3713
   39SOL    HW2  117   1.534   0.187   1.594 -1.1983  3.3511  4.1126
   40SOL     OW  118   0.702   1.968   0.331 -0.6489  0.2856 -0.5048
   40SOL    HW1  119   0.670   1.937   0.237 -2.1241 -0.7111 -1.5404
   40SOL    HW2  120   0.698   2.073   0.337 -0.4257  1.1888 -3.7799
   41SOL     OW  121   2.442   2.373   1.344 -0.6487  0.5858 -0.0196
   41SOL    HW1  122   2.386   2.456   1.339  0.0552  1.6036  1.0928
   41SOL    HW2  123   2.506   2.379   1.423  1.7515  0.0573 -0.7984
   42SOL     OW  124   2.472   2.618   0.589  0.1154 -0.0640  0.1353
   42SOL    HW1  125   2.439   2.682   0.515 -1.6718  0.6465 -1.3747
   42SOL    HW2  126   2.460   2.521   0.560  1.2950 -2.0274 -0.4436
   43SOL     OW  127   0.945   1.838   2.094  0.1337  0.3322 -0.3482
   43SOL    HW1  128   0.965   1.741   2.117  1.0388 -1.5169  0.8544
   43SOL    HW2  129   1.023   1.891   2.130 -1.7797 -2.7743 -0.3643
   44SOL     OW  130   1.754   2.995   1.254 -0.4384 -0.2470 -0.2143
   44SOL    HW1  131   1.671   3.049   1.282  1.0576  0.8703  0.3696
   44SOL    HW2  132   1.761   2.988   1.154  2.7023 -0.3380  0.8565
   45SOL     OW  133   2.959   2.510   2.464 -0.0664  0.1290  0.0117
   45SOL    HW1  134   2.923   2.449   2.535 -1.1471  0.3248  1.0849
   45SOL    HW2  135   3.024   2.577   2.504 -0.3960  0.2857  1.4321
   46SOL     OW  136   0.962   2.786   1.921  0.6569 -0.2368  0.0124
   46SOL    HW1  137   0.930   2.877   1.890  0.8954 -0.4255 -0.5852
   46SOL    HW2  138   0.982   2.734   1.833 -1.1388 -1.6085 -0.6809
   47SOL     OW  139   0.248   2.171   0.669  0.0416  0.6259 -0.0551
   47SOL    HW1  140   0.231   2.133   0.569  1.8699 -0.4316 -2.7423
   47SOL    HW2  141   0.241   2.094   0.734  1.6119 -2.0295 -1.8042
   48SOL     OW  142   0.778   2.952   1.743  0.8784  0.0538  0.0623
   48SOL    HW1  143   0.696   2.902   1.786 -0.6740  0.8933  1.6557
   48SOL    HW2  144   0.757   3.011   1.659  0.4897 -0.0616 -2.1531
   49SOL     OW  145   0.665   0.026   0.017 -0.1215 -0.1425 -0.0346
   49SOL    HW1  146   0.656   0.094   3.039  0.8906 -0.5906 -1.8012
   49SOL    HW2  147   0.657   3.025   3.068 -2.5642  1.8656  0.4919
   50SOL     OW  148   1.569   1.017   0.718  0.0929 -0.2924  0.3984
   50SOL    HW1  149   1.522   0.925   0.705 -0.7919 -1.1323  0.6658
   50SOL    HW2  150   1.669   0.997   0.716 -0.7589  1.5975 -1.2369
   51SOL     OW  151   1.762   2.968   0.980  0.1044  0.1391 -0.3112
   51SOL    HW1  152   1.760   2.874   0.945  0.1302  0.7564  1.1090
   51SOL    HW2  153   1.669   3.016   0.980  0.3733 -1.2237 -1.4721
   52SOL     OW  154   0.696   1.432   1.075  0.2798 -0.0631  0.1951
   52SOL    HW1  155   0.743   1.522   1.064  1.8912  1.6756  0.5775
   52SOL    HW2  156   0.623   1.438   1.144 -3.8446  0.5345  0.8952
   53SOL     OW  157   0.028   0.733   2.721  0.5359 -0.5413 -0.2461
   53SOL    HW1  158   0.128   0.740   2.740 -0.7361  1.8702  2.4077
   53SOL    HW2  159   3.081   0.640   2.754 -0.8687 -1.8057 -0.4477
   54SOL     OW  160   2.158   1.975   2.782 -0.6067 -0.1624  0.1816
   54SOL    HW1  161   2.151   1.982   2.884 -0.3075 -0.4398 -0.6706
   54SOL    HW2  162   2.252   2.002   2.755 -0.5894 -0.4639 -0.3238
   55SOL     OW  163   2.809   1.957   1.416 -0.0057 -0.0711  0.1546
   55SOL    HW1  164   2.731   1.912   1.463 -1.2114 -2.2739  1.3199
   55SOL    HW2  165   2.790   2.054   1.395 -1.0284 -0.2110 -0.5757
   56SOL     OW  166   1.798   1.080   1.419 -0.9796  0.1686  0.1911
   56SOL    HW1  167   1.895   1.113   1.406  0.4122  0.2717  0.9540
   56SOL    HW2  168   1.736   1.120   1.348 -0.4705 -2.3409 -1.0606
   57SOL     OW  169   2.500   1.920   0.825  0.2553  0.5898 -0.0935
   57SOL    HW1  170   2.433   1.945   0.896  0.2322  0.3879 -0.1372
   57SOL    HW2  171   2.576   1.987   0.833 -0.3078 -1.3271 -0.0524
   58SOL     OW  172   1.915   0.170   2.254 -0.1265 -0.1599  0.0654
   58SOL    HW1  173   1.996   0.229   2.276 -2.3447  0.9407 -0.2830
   58SOL    HW2  174   1.941   0.127   2.163  0.4943  1.4576 -0.4446
   59SOL     OW  175   1.413   0.360   2.391 -0.3022  0.0771 -0.2553
   59SOL    HW1  176   1.481   0.284   2.403 -0.4941  0.8427  1.3550
   59SOL    HW2  177   1.428   0.420   2.309 -0.0072 -2.0583 -0.0299
   60SOL     OW  178   1.890   1.816   0.013  0.0893  0.1135  0.9155
   60SOL    HW1  179   1.899   1.724   3.055  1.0821 -2.2447  0.9151
   60SOL    HW2  180   1.823   1.878   3.065  1.7565 -0.0673 -1.1561
   61SOL     OW  181   0.406   2.158   3.012 -0.0718  0.0819  0.6485
   61SOL    HW1  182   0.450   2.231   2.958 -1.4992  0.5940 -1.4365
   61SOL    HW2  183   0.342   2.102   2.958  1.0442 -1.7774 -0.3022
   62SOL     OW  184   1.545   2.579   1.233  0.0864 -0.0048 -0.5647
   62SOL    HW1  185   1.506   2.485   1.234 -1.9332 -0.1456 -0.5651
   62SOL    HW2  186   1.478   2.646   1.275  2.6466  1.8289 -1.9342
   63SOL     OW  187   0.517   1.766   0.434 -0.1995 -0.1254 -0.1736
   63SOL    HW1  188   0.572   1.685   0.410 -1.4440  0.0315  0.8617
   63SOL    HW2  189   0.561   1.850   0.396  0.0519  0.3568 -0.4598
   64SOL     OW  190   1.904   1.862   2.561  0.7507  0.0581  0.0018
   64SOL    HW1  191   1.963   1.818   2.630 -4.2852 -2.8262 -0.9729
   64SOL    HW2  192   1.924   1.819   2.469  1.9428 -0.2076  1.3457
   65SOL     OW  193   2.008   1.906   1.603  0.3908  0.1958 -0.3054
   65SOL    HW1  194   1.918   1.909   1.556  1.4805  0.3414  0.4151
   65SOL    HW2  195   2.079   1.886   1.528  1.0284  0.2803 -0.7581
   66SOL     OW  196   2.530   0.085   0.427  0.5049 -0.4911 -0.5864
   66SOL    HW1  197   2.601   0.158   0.440 -0.9500 -1.4983 -0.7481
   66SOL    HW2  198   2.458   0.094   0.499  0.4943  1.0282 -0.0872
   67SOL     OW  199   2.090   2.720   0.990  0.1430  0.1569 -0.0930
   67SOL    HW1  200   2.021   2.746   1.057  2.5478 -0.5403 -1.8007
   67SOL    HW2  201   2.049   2.663   0.915 -1.3263  0.3929  0.4023
   68SOL     OW  202   2.699   2.681   1.472  0.1694  0.5500 -0.3094
   68SOL    HW1  203   2.642   2.663   1.556 -1.4666 -0.4117  0.7908
   68SOL    HW2  204   2.743   2.771   1.486 -0.3917 -1.0541 -1.5386
   69SOL     OW  205   2.681   2.533   2.868  0.0757  0.0985  0.7424
   69SOL    HW1  206   2.617   2.505   2.941 -1.9691 -0.8078 -0.0499
   69SOL    HW2  207   2.710   2.631   2.873 -0.8160 -3.0291 -4.1567
   70SOL     OW  208   1.344   1.910   2.365  0.0149  0.1489  0.8995
   70SOL    HW1  209   1.316   2.005   2.381 -0.2099 -1.0065  2.1129
   70SOL    HW2  210   1.438   1.896   2.399 -1.8049 -1.0376  0.6352
   71SOL     OW  211   1.112   2.028   2.164  0.0198 -0.0813 -0.1370
   71SOL    HW1  212   1.040   2.080   2.116  2.3744  0.9741  0.8751
   71SOL    HW2  213   1.201   2.073   2.157  0.1848  1.9517  0.9727
   72SOL     OW  214   2.477   1.116   1.546 -0.0272  0.0156  0.0038
   72SOL    HW1  215   2.579   1.125   1.561 -0.1285  2.5760 -0.3503
   72SOL    HW2  216   2.444   1.034   1.596  1.7678  0.8499  1.1577
   73SOL     OW  217   0.605   2.110   2.386 -0.0962  0.3375  0.1405
   73SOL    HW1  218   0.668   2.063   2.318 -2.6663 -0.0150  1.5344
   73SOL    HW2  219   0.527   2.156   2.337  0.8912 -0.9121  1.3552
   74SOL     OW  220   0.994   0.294   2.673 -0.6278 -0.0697 -0.1931
   74SOL    HW1  221   1.001   0.196   2.653  1.0929  2.5509  3.0675
   74SOL    HW2  222   1.074   0.337   2.622  1.1370  1.6427 -0.5307
   75SOL     OW  223   0.901   2.893   0.662 -0.5224 -0.1190  0.1472
   75SOL    HW1  224   0.974   2.839   0.623 -0.7424  0.9222  0.6367
   75SOL    HW2  225   0.841   2.941   0.596  1.3158  1.1849 -0.1473
   76SOL     OW  226   0.499   1.265   2.502  0.6481  0.3207 -0.2534
   76SOL    HW1  227   0.575   1.313   2.543 -0.7477 -2.0950  0.5546
   76SOL    HW2  228   0.413   1.269   2.550  4.5733 -0.6807 -3.0639
   77SOL     OW  229   0.536   2.637   0.450  0.2062  0.3812 -0.5568
   77SOL    HW1  230   0.475   2.633   0.366 -0.5932 -1.5592 -1.3626
   77SOL    HW2  231   0.505   2.706   0.519 -2.5215 -0.6149 -3.7421
   78SOL     OW  232   2.655   0.988   2.745  0.7886  0.4224  0.3599
   78SOL    HW1  233   2.583   0.920   2.721  3.1018  2.6140 -0.9396
   78SOL    HW2  234   2.619   1.079   2.725 -0.1472  1.3243 -1.9492
   79SOL     OW  235   0.917   1.532   2.341  0.8351 -0.4539 -0.1295
   79SOL    HW1  236   0.872   1.613   2.388 -1.0962  2.4669  0.3576
   79SOL    HW2  237   0.996   1.563   2.281 -0.1706  2.6878 -0.7655
   80SOL     OW  238   2.160   0.897   1.488  0.1637  0.1641  0.0013
   80SOL    HW1  239   2.260   0.873   1.495 -0.8212  0.9771  0.7687
   80SOL    HW2  240   2.106   0.822   1.438 -2.8989 -3.5623  0.7165
   81SOL     OW  241   2.173   1.109   2.550  0.1849  0.1240 -0.2378
   81SOL    HW1  242   2.094   1.169   2.538 -0.2227  0.3796 -2.0756
   81SOL    HW2  243   2.176   1.027   2.489  1.0255  0.4348  0.4586
   82SOL     OW  244   2.545   1.971   1.543  0.8805 -0.3591  0.3930
   82SOL    HW1  245   2.480   2.039   1.497  2.5483  1.4904  2.0255
   82SOL    HW2  246   2.501   1.879   1.558 -0.2941 -0.6581  0.4168
   83SOL     OW  247   1.527   2.955   0.689 -0.3235 -0.0566  0.6709
   83SOL    HW1  248   1.511   3.021   0.761  0.7135  1.5916  0.1922
   83SOL    HW2  249   1.495   2.981   0.596  0.8500 -3.2773  0.4453
   84SOL     OW  250   0.946   0.628   0.642  0.2231 -0.0135 -0.0388
   84SOL    HW1  251   1.045   0.618   0.638 -2.0645 -1.2798 -0.0766
   84SOL    HW2  252   0.905   0.609   0.734  1.8936  0.8841  2.2923
   85SOL     OW  253   2.474   1.791   1.255 -0.1955 -0.0079 -0.4026
   85SOL    HW1  254   2.535   1.790   1.332 -0.2854  0.4109 -2.0989
   85SOL    HW2  255   2.417   1.713   1.264  2.8193  0.5910  1.8102
   86SOL     OW  256   0.509   0.561   1.163 -0.2871 -0.2015  0.1245
   86SOL    HW1  257   0.452   0.606   1.235  1.2504 -1.6174  0.8126
   86SOL    HW2  258   0.530   0.462   1.192  1.5816 -0.1766 -0.0322
   87SOL     OW  259   0.215   1.860   2.544 -0.1683 -0.3030  0.5768
   87SOL    HW1  260   0.262   1.905   2.467  0.3887 -1.1166  0.8043
   87SOL    HW2  261   0.115   1.852   2.537  1.3392 -0.2319  1.5490
   88SOL     OW  262   0.308   0.058   2.872  0.2700 -0.3180 -0.3615
   88SOL    HW1  263   0.407   0.070   2.878 -0.2363 -2.0748  0.0603
   88SOL    HW2  264   0.268   3.071   2.820 -1.3906  0.6542  1.2935
   89SOL     OW  265   1.493   0.496   0.539  0.4067 -0.2157  0.2448
   89SOL    HW1  266   1.509   0.536   0.630  0.5533 -1.5376  1.5378
   89SOL    HW2  267   1.558   0.424   0.524 -2.6939  3.3500  1.2085
   90SOL     OW  268   2.965   1.068   1.672 -0.2259  0.6540 -0.9397
   90SOL    HW1  269   3.043   1.040   1.613 -2.5236 -0.9470 -1.3049
   90SOL    HW2  270   2.945   1.011   1.757 -0.9054  2.3863  0.1523
   91SOL     OW  271   2.004   2.531   0.787  0.1230 -0.0882  0.1522
   91SOL    HW1  272   2.020   2.533   0.686 -1.1826  0.5155  0.7621
   91SOL    HW2  273   1.922   2.473   0.809  1.2049 -0.6331 -2.0381
   92SOL     OW  274   1.813   2.420   0.467  0.3233 -0.1634  0.4104
   92SOL    HW1  275   1.904   2.441   0.504 -0.1228 -0.2005  0.2943
   92SOL    HW2  276   1.751   2.391   0.540 -1.4185 -0.0263 -1.1726
   93SOL     OW  277   0.317   1.315   0.288 -0.1874 -0.0946 -1.0640
   93SOL    HW1  278   0.279   1.239   0.349 -2.5390 -0.2299  1.6608
   93SOL    HW2  279   0.255   1.393   0.300 -3.0221 -4.9125  1.2124
   94SOL     OW  280   0.831   2.081   1.159 -0.2936  0.7244  0.5191
   94SOL    HW1  281   0.907   2.110   1.224  0.9282  0.4705  0.5293
   94SOL    HW2  282   0.752   2.141   1.156  0.4198 -5.3830 -0.6100
   95SOL     OW  283   0.572   0.861   0.233 -0.1281  0.2795  0.4877
   95SOL    HW1  284   0.568   0.932   0.306  3.8463 -0.2774  3.5413
   95SOL    HW2  285   0.499   0.788   0.234 -2.0728 -3.5737  0.6239
   96SOL     OW  286   1.231   2.470   2.531  0.3822  0.1470 -0.0020
   96SOL    HW1  287   1.215   2.560   2.485  1.0776 -0.8066 -1.0958
   96SOL    HW2  288   1.181   2.397   2.479 -1.4864 -1.8228  0.0785
   97SOL     OW  289   2.712   0.960   0.375 -0.6232 -0.2054  0.3948
   97SOL    HW1  290   2.616   0.992   0.380  0.5495  0.9345  1.4921
   97SOL    HW2  291   2.739   0.926   0.283 -1.0221 -1.2799  0.9911
   98SOL     OW  292   0.214   1.911   1.917 -0.0004  0.0007  0.4725
   98SOL    HW1  293   0.259   1.885   1.828  0.3332 -1.5860 -1.8568
   98SOL    HW2  294   0.290   1.912   1.988 -0.5537 -0.1340  2.3327
   99SOL     OW  295   3.074   0.602   1.991 -0.1714 -0.1299 -0.5279
   99SOL    HW1  296   0.028   0.669   1.929 -2.1991 -1.3636  1.5872
   99SOL    HW2  297   0.042   0.561   2.061  0.2294 -0.2747 -1.2356
  100SOL     OW  298   1.870   0.733   2.371 -0.3001  0.8313  0.2544
  100SOL    HW1  299   1.820   0.650   2.337 -2.2982  0.8395 -2.0254
  100SOL    HW2  300   1.800   0.804   2.390  3.5903 -0.8818 -1.3635
  101SOL     OW  301   0.689   0.476   2.138 -0.3602 -0.3323 -0.6709
  101SOL    HW1  302   0.756   0.533   2.189  1.1080  0.2496 -0.9180
  101SOL    HW2  303   0.631   0.429   2.206  0.2839 -1.0200  1.1341
  102SOL     OW  304   0.023   0.285   1.692  0.6830  0.3242 -0.4683
  102SOL    HW1  305   0.124   0.300   1.704  0.2126 -0.1435 -1.5226
  102SOL    HW2  306   3.069   0.274   1.783 -2.1302  1.3548  0.4165
  103SOL     OW  307   0.260   0.424   0.000  0.1755 -0.0231  0.2933
  103SOL    HW1  308   0.230   0.436   0.093 -0.6737  0.5208 -1.9778
  103SOL    HW2  309   0.221   0.505   3.039 -0.7369  1.4978  0.8561
  104SOL     OW  310   0.545   2.831   1.849 -0.0199 -0.5124 -0.2657
  104SOL    HW1  311   0.463   2.770   1.838 -0.3102  1.6821 -3.4872
  104SOL    HW2  312   0.611   2.794   1.921  2.8241 -1.5203  2.6776
  105SOL     OW  313   2.412   2.798   2.013  0.0482 -0.1198 -0.2650
  105SOL    HW1  314   2.508   2.772   2.024 -2.2937 -0.0461  0.0625
  105SOL    HW2  315   2.390   2.884   1.964 -0.8303 -1.2611  3.5559
  106SOL     OW  316   0.439   2.886   0.913 -0.4231 -0.5409  0.0692
  106SOL    HW1  317   0.438   2.987   0.940 -1.3364  2.3696  2.3835
  106SOL    HW2  318   0.517   2.877   0.850 -0.2681  1.0459 -3.0025
  107SOL     OW  319   0.308   1.200   0.909  0.1363 -0.2482 -0.0977
  107SOL    HW1  320   0.292   1.272   0.839 -0.3224 -1.6707 -1.4525
  107SOL    HW2  321   0.300   1.240   1.002  2.0395  1.0697  1.1366
  108SOL     OW  322   0.283   2.469   1.031 -0.8044  0.1331 -0.0912
  108SOL    HW1  323   0.313   2.512   0.941 -0.2371  3.0919 -3.0093
  108SOL    HW2  324   0.346   2.393   1.060 -1.1524 -0.7913  0.9940
  109SOL     OW  325   1.349   2.708   0.148 -0.0467 -0.4995  0.2922
  109SOL    HW1  326   1.401   2.733   0.064  1.2936 -1.2784 -2.7197
  109SOL    HW2  327   1.404   2.638   0.199  1.4791  1.2663 -2.1543
  110SOL     OW  328   1.553   2.068   0.606  0.0450 -0.0882  0.0789
  110SOL    HW1  329   1.621   2.072   0.529  2.2092 -1.2824 -1.3542
  110SOL    HW2  330   1.499   2.156   0.612  4.3676  3.4122 -1.8022
  111SOL     OW  331   1.764   2.858   2.079 -0.8176 -0.2189 -0.0046
  111SOL    HW1  332   1.717   2.772   2.050  0.2749  1.3343  0.3925
  111SOL    HW2  333   1.864   2.863   2.057  1.6126  2.1661  0.2921
  112SOL     OW  334   2.079   2.459   2.600  0.1466  0.4112 -0.1019
  112SOL    HW1  335   2.081   2.376   2.540  1.3029 -0.7423  1.5361
  112SOL    HW2  336   2.135   2.536   2.562 -0.7548 -0.7348  0.4108
  113SOL     OW  337   2.668   1.974   2.053  0.7534 -0.1670 -0.0644
  113SOL    HW1  338   2.642   2.067   2.084 -1.2706 -2.5080  1.4336
  113SOL    HW2  339   2.690   1.976   1.954  1.1323  0.4200  1.6216
  114SOL     OW  340   0.070   1.258   1.689  0.0309  0.7565 -0.9005
  114SOL    HW1  341   3.090   1.189   1.712  0.3078  0.2983  1.3066
  114SOL    HW2  342   0.039   1.353   1.714 -0.1602  0.5588 -0.9318
  115SOL     OW  343   0.215   0.685   2.990  0.1214 -0.7086  0.2751
  115SOL    HW1  344   0.113   0.687   3.008 -1.2125  1.4311 -0.1099
  115SOL    HW2  345   0.251   0.775   3.022  2.0676 -0.6306  0.4972
  116SOL     OW  346   2.750   0.235   2.960 -0.4382 -0.3469 -0.0364
  116SOL    HW1  347   2.830   0.191   3.003 -0.1962 -2.4504 -1.7464
  116SOL    HW2  348   2.723   0.192   2.871  0.3740  0.3589 -0.1570
  117SOL     OW  349   2.928   2.747   0.615 -0.4048 -0.2727 -0.4176
  117SOL    HW1  350   2.912   2.689   0.533  0.9836  2.3411 -0.4629
  117SOL    HW2  351   2.848   2.731   0.677 -0.0236  1.0446 -3.7787
  118SOL     OW  352   1.119   2.365   2.276  0.3425  0.0427  0.6080
  118SOL    HW1  353   1.161   2.412   2.195  0.3435  3.2597 -1.3516
  118SOL    HW2  354   1.046   2.299   2.242 -1.0940 -0.8973  0.7777
  119SOL     OW  355   0.661   2.871   2.998 -0.2273  0.4199 -0.3535
  119SOL    HW1  356   0.716   2.802   3.050 -1.0466 -0.9419  0.0959
  119SOL    HW2  357   0.561   2.851   3.006 -1.4596 -0.3998 -1.7193
  120SOL     OW  358   1.341   1.107   3.007  0.5046  0.2726  0.2862
  120SOL    HW1  359   1.339   1.034   3.075 -0.1488  2.5848 -1.5993
  120SOL    HW2  360   1.277   1.185   3.033 -2.3695  2.5952  1.7201
  121SOL     OW  361   1.401   1.056   1.113 -0.2330  0.1717 -0.4964
  121SOL    HW1  362   1.413   1.118   1.195  2.6028 -1.8615  1.8627
  121SOL    HW2  363   1.415   1.101   1.024 -2.4298  0.1909 -0.9620
  122SOL     OW  364   1.984   1.464   2.053 -0.4283 -0.1699  0.5364
  122SOL    HW1  365   1.894   1.447   2.013  0.4691 -2.9537  0.6522
  122SOL    HW2  366   1.981   1.463   2.154  0.3970 -1.0475 -2.8752
  123SOL     OW  367   2.784   0.547   0.479 -0.3823 -0.2492  0.8420
  123SOL    HW1  368   2.861   0.515   0.533  0.6143  2.2138  0.8235
  123SOL    HW2  369   2.768   0.492   0.395 -2.2531  1.3329 -3.5170
  124SOL     OW  370   0.853   0.673   2.891  0.3020  0.1954  0.1470
  124SOL    HW1  371   0.804   0.696   2.973  1.1853 -2.0357 -2.8558
  124SOL    HW2  372   0.794   0.614   2.833  2.3162 -0.7284  1.5414
  125SOL     OW  373   0.485   3.033   2.584  0.1798  0.2369  0.4448
  125SOL    HW1  374   0.512   3.067   2.674 -2.7736 -3.4510  0.2554
  125SOL    HW2  375   0.437   0.015   2.534 -0.0457  0.3661  0.3680
  126SOL     OW  376   0.856   1.600   2.705  0.0863  0.0314 -0.5744
  126SOL    HW1  377   0.924   1.630   2.773 -2.0471  1.3484  1.7234
  126SOL    HW2  378   0.872   1.655   2.622  1.9043 -0.1458 -1.0700
  127SOL     OW  379   1.111   3.031   1.308  0.0226 -0.0694  0.4574
  127SOL    HW1  380   1.012   3.044   1.282  0.2823 -1.6525  1.0617
  127SOL    HW2  381   1.122   2.962   1.381 -0.4706  1.2381 -1.0173
  128SOL     OW  382   1.743   2.146   0.410 -0.0026 -0.2084  0.4753
  128SOL    HW1  383   1.695   2.128   0.323  1.3547  3.1302  0.2332
  128SOL    HW2  384   1.768   2.245   0.417 -0.8819 -1.8885  0.0580
  129SOL     OW  385   2.043   1.772   1.212 -0.5916  0.3592 -0.2516
  129SOL    HW1  386   2.082   1.734   1.124  2.2770 -1.7870 -0.4929
  129SOL    HW2  387   1.993   1.860   1.201  0.0203 -0.9473  0.2123
  130SOL     OW  388   2.167   1.896   1.409  0.2924 -0.4154  0.5422
  130SOL    HW1  389   2.254   1.865   1.454 -1.3265 -0.7060 -1.2834
  130SOL    HW2  390   2.136   1.840   1.327 -1.0252  3.5024  1.9832
  131SOL     OW  391   1.226   2.941   2.142 -0.0996  0.2127  0.1574
  131SOL    HW1  392   1.315   2.916   2.102  0.6951  1.1297  0.5481
  131SOL    HW2  393   1.163   2.860   2.141 -0.0005 -1.1224  1.1510
  132SOL     OW  394   2.476   1.529   0.627 -0.0129 -0.0051 -0.1572
  132SOL    HW1  395   2.446   1.595   0.553 -1.4913 -2.3035 -3.6152
  132SOL    HW2  396   2.521   1.575   0.707  1.3630 -0.6901 -1.9256
  133SOL     OW  397   0.752   1.485   1.657 -0.2530  0.2831  0.5024
  133SOL    HW1  398   0.762   1.410   1.728 -2.7612 -2.5700  1.3537
  133SOL    HW2  399   0.770   1.574   1.698  1.5441  0.4580 -1.5624
  134SOL     OW  400   2.982   0.843   0.675  0.4574  0.0445  0.1670
  134SOL    HW1  401   2.883   0.868   0.657 -1.5559 -0.2652  0.5029
  134SOL    HW2  402   3.039   0.898   0.737 -1.1256 -0.8484 -0.2893
  135SOL     OW  403   2.169   1.912   3.059  0.3395 -0.1031 -0.7842
  135SOL    HW1  404   2.222   1.826   3.061 -3.8981 -1.8181 -1.6106
  135SOL    HW2  405   2.070   1.894   3.074  2.5877  0.2870  0.4720
  136SOL     OW  406   2.875   1.387   1.380 -0.4752 -0.1861  0.3773
  136SOL    HW1  407   2.877   1.365   1.280 -0.8383 -0.1330  0.9844
  136SOL    HW2  408   2.778   1.408   1.408 -0.1716  1.7131 -3.1491
  137SOL     OW  409   2.425   1.189   2.681  0.4033  0.2562 -0.9906
  137SOL    HW1  410   2.339   1.170   2.635  3.9806 -0.0855 -1.1070
  137SOL    HW2  411   2.405   1.175   2.781 -1.9460  1.2198  1.2286
  138SOL     OW  412   0.255   0.438   0.967 -0.1047 -0.0823  0.5441
  138SOL    HW1  413   0.310   0.505   1.024 -0.2164 -0.0197 -0.5570
  138SOL    HW2  414   0.274   0.344   1.007  1.4009  2.5055 -1.2323
  139SOL     OW  415   1.836   2.117   0.037  0.5613  0.5823 -0.5984
  139SOL    HW1  416   1.816   2.062   0.119  1.6435  0.6332 -0.0433
  139SOL    HW2  417   1.803   2.076   3.045 -0.8049 -1.5001 -0.4861
  140SOL     OW  418   0.876   1.244   0.928  0.7164  0.0976 -0.1799
  140SOL    HW1  419   0.976   1.240   0.923 -0.6118 -0.4007 -3.1716
  140SOL    HW2  420   0.834   1.311   0.987 -0.4946 -2.2545 -2.4408
  141SOL     OW  421   1.443   1.710   0.825  0.3870 -0.4111 -0.4173
  141SOL    HW1  422   1.405   1.620   0.788  0.0950  0.3128  0.9092
  141SOL    HW2  423   1.511   1.745   0.758 -0.6128 -1.5301  1.6585
  142SOL     OW  424   0.909   0.916   1.276 -0.0575 -0.0382 -0.1407
  142SOL    HW1  425   0.952   0.974   1.202 -1.6460  0.0342  0.3946
  142SOL    HW2  426   0.838   0.854   1.230 -1.0343 -0.8273 -1.4588
  143SOL     OW  427   0.314   0.144   2.472  0.0692  1.1053 -0.0018
  143SOL    HW1  428   0.335   0.171   2.377  1.4883 -1.0101  1.0580
  143SOL    HW2  429   0.321   0.227   2.531 -1.4261  3.8480 -2.0540
  144SOL     OW  430   2.193   0.075   0.302  0.4100 -0.3615  0.0929
  144SOL    HW1  431   2.246   0.080   0.218  1.0454 -4.5157  0.7818
  144SOL    HW2  432   2.108   0.139   0.289 -2.0851  1.6373 -1.8259
  145SOL     OW  433   2.084   2.935   2.794  0.5991 -0.1575 -0.0383
  145SOL    HW1  434   2.002   2.978   2.758 -1.6296 -0.1899  3.8797
  145SOL    HW2  435   2.136   2.909   2.716 -0.7084  3.5698  0.8193
  146SOL     OW  436   0.043   2.912   0.339 -0.4474  0.1677 -0.2352
  146SOL    HW1  437   0.141   2.897   0.309  1.7604  2.3250 -2.1809
  146SOL    HW2  438   3.072   2.840   0.311  0.6316  1.2269 -1.5316
  147SOL     OW  439   2.218   1.238   0.362  0.6068 -0.2319  0.0725
  147SOL    HW1  440   2.201   1.227   0.464 -0.2795  0.2477  2.8274
  147SOL    HW2  441   2.133   1.226   0.307  2.6591  3.2658 -1.5374
  148SOL     OW  442   1.275   2.876   0.335 -0.4042  0.3535 -0.1012
  148SOL    HW1  443   1.182   2.912   0.306  0.8922  0.8412 -0.0177
  148SOL    HW2  444   1.305   2.817   0.256  2.8626  0.0883 -1.3785
  149SOL     OW  445   1.254   0.724   2.371 -0.2194 -0.1870  0.0677
  149SOL    HW1  446   1.205   0.642   2.380  1.7827  0.9020  1.1359
  149SOL    HW2  447   1.259   0.768   2.463 -0.5115  0.1356 -1.3026
  150SOL     OW  448   1.071   2.872   2.794  0.4115  0.2211  1.3785
  150SOL    HW1  449   1.152   2.811   2.778 -1.4698 -1.3260 -0.7093
  150SOL    HW2  450   1.072   2.922   2.878 -0.4284 -2.0255 -4.6566
  151SOL     OW  451   0.347   0.934   3.071 -0.0756 -0.2437 -0.3345
  151SOL    HW1  452   0.441   0.950   3.092 -2.2839  0.4960  3.3681
  151SOL    HW2  453   0.288   0.914   0.057 -0.7532 -0.3085  1.1638
  152SOL     OW  454   0.459   0.079   1.498  0.1141  0.2115 -0.3350
  152SOL    HW1  455   0.478   0.103   1.597  0.5487  0.4020  0.0915
  152SOL    HW2  456   0.358   0.054   1.479 -1.1142 -1.5749  0.0864
  153SOL     OW  457   2.807   2.934   1.591 -0.3621 -0.5734 -0.5324
  153SOL    HW1  458   2.791   2.892   1.687  1.3430 -0.2036  0.7880
  153SOL    HW2  459   2.881   3.007   1.602 -1.7561  2.5368 -0.2411
  154SOL     OW  460   2.276   0.244   2.011  0.3137 -0.2939 -0.2690
  154SOL    HW1  461   2.330   0.271   1.930 -1.7329  0.8072 -0.7487
  154SOL    HW2  462   2.212   0.323   2.029 -0.3127  2.1331 -1.3843
  155SOL     OW  463   0.844   1.260   0.266  0.1697 -0.0985 -0.3782
  155SOL    HW1  464   0.896   1.210   0.199 -1.9429 -0.8775  0.1117
  155SOL    HW2  465   0.743   1.272   0.254  0.7033  1.2827  2.1355
  156SOL     OW  466   2.087   1.576   0.413 -0.3796  0.6062  0.3408
  156SOL    HW1  467   2.128   1.532   0.497 -0.2131  0.1278  0.4210
  156SOL    HW2  468   1.996   1.522   0.398 -0.1663 -2.1844  0.5674
  157SOL     OW  469   1.051   1.988   0.120 -0.3990  0.1914  0.3836
  157SOL    HW1  470   0.952   1.971   0.142 -0.9658  0.0456  3.5795
  157SOL    HW2  471   1.103   1.995   0.210  0.7392 -3.2274  0.5577
  158SOL     OW  472   1.933   0.782   1.891  0.1859 -0.3990 -0.2052
  158SOL    HW1  473   1.906   0.733   1.801 -0.4010  1.2037 -0.2800
  158SOL    HW2  474   1.899   0.723   1.968 -1.8448  0.4362 -0.6985
  159SOL     OW  475   0.292   0.208   0.452 -0.4266 -0.2037 -0.2248
  159SOL    HW1  476   0.278   0.107   0.467  0.5674 -0.5250  0.3364
  159SOL    HW2  477   0.381   0.230   0.404  0.3546 -1.0207 -1.5866
  160SOL     OW  478   2.334   1.366   1.496  0.5428  0.1813 -0.2560
  160SOL    HW1  479   2.360   1.267   1.499 -0.5229 -0.2003  1.0323
  160SOL    HW2  480   2.281   1.384   1.585 -0.0979 -2.4146 -1.9157
  161SOL     OW  481   0.450   3.077   0.205 -0.6003 -0.5088  0.6905
  161SOL    HW1  482   0.370   0.034   0.155 -1.0404  4.0059 -1.1719
  161SOL    HW2  483   0.534   3.068   0.150 -0.2359 -1.6562  0.2779
  162SOL     OW  484   0.035   0.948   2.466  0.3541  0.2266  0.5707
  162SOL    HW1  485   0.030   0.999   2.378  0.2807  2.1552 -0.4364
  162SOL    HW2  486   3.056   0.992   2.528 -1.8858  2.3286  2.5966
  163SOL     OW  487   2.821   2.875   2.975 -0.3839  0.0403  0.6477
  163SOL    HW1  488   2.872   2.793   2.942  1.1939  0.5960  1.0102
  163SOL    HW2  489   2.719   2.857   2.997 -2.6657 -0.3319 -1.6514
  164SOL     OW  490   2.663   2.141   0.371  0.1990 -0.3398  0.1939
  164SOL    HW1  491   2.560   2.163   0.371 -2.2025  0.0648  1.0113
  164SOL    HW2  492   2.707   2.205   0.442 -0.0612  2.6091  1.4589
  165SOL     OW  493   1.049   0.769   1.475 -0.3571  0.1645  0.2288
  165SOL    HW1  494   1.131   0.719   1.434  0.5196 -1.1494  0.9055
  165SOL    HW2  495   0.988   0.799   1.396 -1.0315  0.5933 -0.1226
  166SOL     OW  496   3.000   0.283   0.506  0.3006 -0.7651  0.8214
  166SOL    HW1  497   3.078   0.320   0.559 -0.1651 -1.8460 -1.8584
  166SOL    HW2  498   3.035   0.213   0.438 -0.8336 -2.4234  2.0964
  167SOL     OW  499   2.022   0.578   0.988 -0.0359  0.4792  0.6013
  167SOL    HW1  500   2.103   0.617   0.937 -1.7649  2.7018  0.7363
  167SOL    HW2  501   2.044   0.553   1.083  0.4684  0.9718 -2.9022
  168SOL     OW  502   1.038   0.482   2.219  0.3098  0.5071 -0.8079
  168SOL    HW1  503   1.120   0.519   2.168  1.3511  1.2844 -1.8535
  168SOL    HW2  504   0.966   0.554   2.230  0.6389  3.3546 -0.0650
  169SOL     OW  505   1.206   1.995   1.570 -0.7911  0.0302  0.5983
  169SOL    HW1  506   1.200   1.946   1.481 -0.3030 -2.0887 -0.6449
  169SOL    HW2  507   1.239   1.930   1.641  0.7264 -1.8615 -0.5736
  170SOL     OW  508   3.076   2.792   1.497  0.2552  1.0431 -0.0723
  170SOL    HW1  509   0.084   2.789   1.520  0.1565  1.3674  0.5025
  170SOL    HW2  510   3.051   2.879   1.454  1.1637  0.2560 -0.8582
  171SOL     OW  511   2.631   0.702   2.238 -0.2911  0.3610  0.0643
  171SOL    HW1  512   2.707   0.703   2.305 -1.7050  3.1019  0.5754
  171SOL    HW2  513   2.599   0.607   2.226 -1.4030 -1.1463  1.0899
  172SOL     OW  514   0.945   2.881   1.530 -0.4089 -0.1022  0.3766
  172SOL    HW1  515   0.926   2.872   1.627  1.2728 -1.8043 -1.3652
  172SOL    HW2  516   0.881   2.940   1.478 -1.7040  0.1587 -1.7945
  173SOL     OW  517   2.483   2.002   2.712  0.8494 -0.0023 -0.1310
  173SOL    HW1  518   2.520   1.969   2.797 -1.5072  0.4927  1.3600
  173SOL    HW2  519   2.424   2.081   2.740  0.8166  0.4874  0.4453
  174SOL     OW  520   1.600   1.027   0.218 -0.0892  0.5847 -0.1588
  174SOL    HW1  521   1.562   1.092   0.286 -2.5535  1.1408 -0.3266
  174SOL    HW2  522   1.521   0.972   0.181 -1.4386  0.6965  0.6836
  175SOL     OW  523   1.234   1.437   1.561  0.7108 -0.8431  0.5484
  175SOL    HW1  524   1.245   1.533   1.587 -1.3223 -1.1329 -1.4877
  175SOL    HW2  525   1.263   1.414   1.466  1.8838  0.0710 -2.3166
  176SOL     OW  526   0.275   3.036   0.551  0.7636 -0.1056  0.1193
  176SOL    HW1  527   0.237   2.989   0.630 -0.0096  0.7919 -0.1425
  176SOL    HW2  528   0.267   2.973   0.470  0.4282 -2.9625 -2.6117
  177SOL     OW  529   2.719   1.028   3.015  0.1951  0.4054 -0.5273
  177SOL    HW1  530   2.799   1.091   3.013 -0.8754 -1.2120 -0.2161
  177SOL    HW2  531   2.706   0.991   2.917  1.4707 -0.3891 -1.6209
  178SOL     OW  532   2.680   2.642   2.040  0.4929  0.2680 -0.6057
  178SOL    HW1  533   2.739   2.653   2.124 -3.3868  1.1245 -2.0254
  178SOL    HW2  534   2.705   2.552   1.997 -0.1393 -1.6184  3.4621
  179SOL     OW  535   2.079   2.880   0.408  0.2490  0.6382 -0.0549
  179SOL    HW1  536   2.126   2.967   0.399 -1.7835 -0.4147  0.9748
  179SOL    HW2  537   2.022   2.870   0.489 -1.0396 -0.1678 -0.8845
  180SOL     OW  538   2.130   0.918   0.604 -0.1505 -0.1546  0.3253
  180SOL    HW1  539   2.092   0.902   0.511 -0.2145  1.9359  0.9283
  180SOL    HW2  540   2.225   0.866   0.615  2.7230 -0.9115  2.1511
  181SOL     OW  541   2.847   0.729   2.423 -0.1730 -0.5487  0.3487
  181SOL    HW1  542   2.786   0.701   2.498  1.1850  0.5877  0.4486
  181SOL    HW2  543   2.942   0.706   2.444 -2.0577  1.2066  0.3974
  182SOL     OW  544   2.877   1.851   2.151  0.2878 -0.2223  0.1961
  182SOL    HW1  545   2.857   1.757   2.186  0.4855  1.7710  0.7244
  182SOL    HW2  546   2.803   1.878   2.092  1.5132 -2.5415 -0.5235
  183SOL     OW  547   3.000   0.932   1.902  0.1801 -0.0123 -0.1067
  183SOL    HW1  548   2.999   0.921   2.008 -1.5705  0.7060  0.5934
  183SOL    HW2  549   3.086   0.892   1.868  1.9718  0.1991  0.2278
  184SOL     OW  550   0.333   1.276   1.216  0.0133 -0.4365 -0.5950
  184SOL    HW1  551   0.311   1.311   1.311 -0.2781 -0.1737  0.3630
  184SOL    HW2  552   0.386   1.188   1.207 -0.6373 -1.4333  0.1841
  185SOL     OW  553   3.030   2.561   1.219 -0.0607  0.0353  0.0725
  185SOL    HW1  554   3.078   2.529   1.137 -1.1627  1.1428  0.0173
  185SOL    HW2  555   3.089   2.542   1.297 -0.4874 -0.3242 -2.6238
  186SOL     OW  556   1.706   2.893   2.776  0.2947 -0.0757  0.2850
  186SOL    HW1  557   1.739   2.978   2.736 -0.9055 -0.2418  0.1154
  186SOL    HW2  558   1.778   2.854   2.836  2.8634  0.1550 -1.4561
  187SOL     OW  559   0.332   1.343   0.659 -0.3127 -0.8524 -0.0158
  187SOL    HW1  560   0.329   1.258   0.605 -0.5537  1.6125 -0.6559
  187SOL    HW2  561   0.429   1.362   0.690  1.2330 -0.9280 -0.2686
  188SOL     OW  562   1.813   1.795   0.295  0.1258 -0.5394 -0.1574
  188SOL    HW1  563   1.805   1.799   0.193  2.0221  0.9439 -0.9650
  188SOL    HW2  564   1.901   1.834   0.327 -1.5697  3.2337  1.1650
  189SOL     OW  565   0.057   1.561   3.068 -0.2524  0.2538  0.2971
  189SOL    HW1  566   3.084   1.537   0.047 -0.0460  1.5955 -1.8894
  189SOL    HW2  567   0.139   1.498   3.078  2.0403 -0.3270  0.3855
  190SOL     OW  568   2.382   0.323   2.504  0.2207 -0.1213  0.2019
  190SOL    HW1  569   2.374   0.251   2.574  3.0887  0.3376 -0.3061
  190SOL    HW2  570   2.389   0.269   2.415  0.8423 -0.1347 -0.4610
  191SOL     OW  571   0.650   1.029   1.899  0.2229 -0.0105 -0.6892
  191SOL    HW1  572   0.626   1.005   1.991 -1.8579 -1.3639  0.2026
  191SOL    HW2  573   0.710   0.960   1.856 -1.4512  3.1590 -1.7520
  192SOL     OW  574   2.148   1.020   1.734  0.2109  0.0823 -0.7734
  192SOL    HW1  575   2.097   0.944   1.781  0.7595  0.9574  0.1791
  192SOL    HW2  576   2.152   1.004   1.634  0.5006  2.0879 -1.0237
  193SOL     OW  577   0.926   2.718   1.123 -0.1699 -0.2105 -0.3317
  193SOL    HW1  578   0.858   2.758   1.187  1.4631  1.5452 -2.9309
  193SOL    HW2  579   0.948   2.793   1.056  0.5836 -0.1615 -2.9020
  194SOL     OW  580   1.683   1.732   1.291  0.0433 -0.2846  0.1482
  194SOL    HW1  581   1.670   1.706   1.195 -0.2594  0.2777 -1.1914
  194SOL    HW2  582   1.595   1.770   1.324  1.4839 -0.5146 -2.8060
  195SOL     OW  583   1.779   0.563   0.853 -0.5541  0.3468  0.4606
  195SOL    HW1  584   1.718   0.630   0.903 -0.2453 -0.4150  1.0532
  195SOL    HW2  585   1.873   0.557   0.894 -1.0734 -0.7212  0.8016
  196SOL     OW  586   1.317   1.768   2.128 -0.3390 -0.5442 -0.1278
  196SOL    HW1  587   1.360   1.811   2.049  0.5445 -2.2262 -0.5031
  196SOL    HW2  588   1.310   1.829   2.210 -1.0536 -0.8633 -0.9774
  197SOL     OW  589   2.525   3.054   2.733 -0.0293 -0.0970  0.5477
  197SOL    HW1  590   2.525   3.006   2.641  4.3508 -2.4589  0.9854
  197SOL    HW2  591   2.563   2.987   2.801  0.8895 -0.0146 -1.5197
  198SOL     OW  592   2.834   0.486   0.923  0.3459 -0.3102  0.0811
  198SOL    HW1  593   2.901   0.502   0.849 -0.2907 -0.9122  0.6495
  198SOL    HW2  594   2.766   0.562   0.918 -1.8761  0.3237 -0.6204
  199SOL     OW  595   0.601   1.921   1.104  0.1059  0.1855 -0.1188
  199SOL    HW1  596   0.577   1.935   1.006 -2.5427 -0.6774 -3.2613
  199SOL    HW2  597   0.685   1.966   1.131 -3.1543  1.2656  2.1358
  200SOL     OW  598   2.953   1.882   0.168 -0.5276 -0.1141 -0.6834
  200SOL    HW1  599   2.920   1.977   0.179  1.9071  1.7660 -3.4615
  200SOL    HW2  600   2.940   1.833   0.254 -2.0772 -0.9708 -0.6797
  201SOL     OW  601   1.204   2.360   1.521  0.0981 -0.2724 -0.4528
  201SOL    HW1  602   1.195   2.424   1.439 -0.7969  1.3498 -0.8012
  201SOL    HW2  603   1.116   2.321   1.549  2.8543 -0.0048  1.1950
  202SOL     OW  604   1.168   2.995   3.045 -0.2581  0.5803  0.2586
  202SOL    HW1  605   1.136   3.087   3.020 -0.3387 -1.4618  0.5289
  202SOL    HW2  606   1.140   2.960   0.046  0.4073  1.4924 -1.8733
  203SOL     OW  607   1.385   3.089   2.966  0.1191  0.1083 -0.6476
  203SOL    HW1  608   1.399   0.003   2.864  2.6400  0.1906 -2.0311
  203SOL    HW2  609   1.293   3.049   2.990 -0.9304 -3.6304 -1.8756
  204SOL     OW  610   0.590   1.748   1.352 -0.3707  0.3541  0.6346
  204SOL    HW1  611   0.598   1.803   1.267 -1.2862  3.2080 -1.5077
  204SOL    HW2  612   0.535   1.664   1.331 -1.2032 -1.9978  0.1611
  205SOL     OW  613   1.687   0.984   1.845 -0.1354 -0.3408 -0.1301
  205SOL    HW1  614   1.754   0.940   1.902 -1.9278  1.5307 -0.1467
  205SOL    HW2  615   1.595   0.985   1.879  0.6642 -3.4368  0.4536
  206SOL     OW  616   0.120   1.843   0.088  0.2337  0.2435  0.3894
  206SOL    HW1  617   0.112   1.750   0.047 -0.3865  1.5352  1.2294
  206SOL    HW2  618   0.027   1.872   0.107  2.8550  0.4626  2.6511
  207SOL     OW  619   0.404   2.316   2.029  0.0164 -0.6799 -0.1300
  207SOL    HW1  620   0.494   2.262   2.025  2.6146 -0.8063 -0.0653
  207SOL    HW2  621   0.343   2.302   1.950  3.7211 -0.1745  0.4729
  208SOL     OW  622   0.581   1.993   0.822 -0.1206 -0.5685 -0.0912
  208SOL    HW1  623   0.527   2.074   0.833  1.3394  0.4964  2.3037
  208SOL    HW2  624   0.522   1.920   0.786 -1.9492 -0.0677  1.6213
  209SOL     OW  625   1.104   2.712   2.436  0.1080  0.0854 -0.3336
  209SOL    HW1  626   1.088   2.702   2.332 -2.0478  0.4184  1.0706
  209SOL    HW2  627   1.173   2.783   2.454 -2.3453 -1.3205 -4.7450
  210SOL     OW  628   2.720   1.442   1.707  0.0234 -0.2341 -0.8342
  210SOL    HW1  629   2.764   1.499   1.780 -0.3092  2.5244  0.5195
  210SOL    HW2  630   2.692   1.356   1.751 -2.8088  0.3623 -0.1486
  211SOL     OW  631   1.189   0.329   1.932 -0.3328  0.1072  0.1594
  211SOL    HW1  632   1.114   0.256   1.936  0.9744  1.8676  2.2580
  211SOL    HW2  633   1.280   0.315   1.982  0.9701  3.5376 -1.0779
  212SOL     OW  634   1.692   2.645   1.896 -1.1676 -0.4296  0.6698
  212SOL    HW1  635   1.663   2.549   1.888 -0.1919 -1.6081 -3.0622
  212SOL    HW2  636   1.684   2.701   1.811 -0.3410  2.0670  1.8245
  213SOL     OW  637   2.994   3.091   1.712 -0.0982  0.0131  0.3326
  213SOL    HW1  638   2.986   0.072   1.641  1.2211  1.3121 -1.4875
  213SOL    HW2  639   2.977   0.029   1.803  2.0326 -1.5855 -1.7784
  214SOL     OW  640   1.042   2.177   1.301 -0.0798 -0.0724 -0.1014
  214SOL    HW1  641   1.039   2.197   1.399  0.2406  0.5275 -2.6114
  214SOL    HW2  642   1.132   2.161   1.263  0.4766 -0.8844  1.9071
  215SOL     OW  643   2.635   2.370   0.830 -0.3159 -0.0605 -0.3263
  215SOL    HW1  644   2.540   2.369   0.872 -1.8271  0.6875 -0.2833
  215SOL    HW2  645   2.700   2.416   0.891  1.1744  0.6771 -2.3720
  216SOL     OW  646   0.116   0.778   1.781  0.0184  0.3085 -0.1777
  216SOL    HW1  647   0.167   0.866   1.783 -0.7757 -0.7826 -1.2968
  216SOL    HW2  648   0.074   0.771   1.691 -3.3224 -0.8142 -0.0079
  217SOL     OW  649   2.307   0.034   1.632  0.3243 -0.1689  0.4477
  217SOL    HW1  650   2.241   0.063   1.560  2.8450 -1.2870  0.6740
  217SOL    HW2  651   2.342   3.032   1.613  0.8464 -3.5289  1.7053
  218SOL     OW  652   1.970   2.353   1.501  0.2892 -0.3270 -0.0818
  218SOL    HW1  653   1.895   2.313   1.453  0.4773 -0.2465  1.0577
  218SOL    HW2  654   2.011   2.293   1.569 -1.8418  1.0595 -2.2374
  219SOL     OW  655   1.812   2.530   3.032  0.1788  0.4547 -0.5126
  219SOL    HW1  656   1.813   2.451   2.968 -1.2105  2.5566 -0.2511
  219SOL    HW2  657   1.859   2.495   0.023  0.5457 -0.5249  1.0358
  220SOL     OW  658   1.462   3.038   0.430  0.2126 -1.0153 -0.0741
  220SOL    HW1  659   1.430   0.042   0.409  1.0911  0.7309 -1.4933
  220SOL    HW2  660   1.399   2.974   0.382 -2.2792  2.1134 -1.1274
  221SOL     OW  661   0.297   2.470   1.617 -0.0428 -0.1403  0.2869
  221SOL    HW1  662   0.399   2.488   1.612  1.5383  2.3469 -0.5285
  221SOL    HW2  663   0.272   2.404   1.694  1.1983  0.6681 -0.6248
  222SOL     OW  664   1.950   2.789   1.210  0.0099 -0.0322  0.1377
  222SOL    HW1  665   1.889   2.861   1.239  1.0778 -1.4883 -0.7496
  222SOL    HW2  666   2.027   2.774   1.271  0.2467 -0.2983 -2.7911
  223SOL     OW  667   1.258   0.362   1.429 -0.2943 -0.1132 -0.9179
  223SOL    HW1  668   1.234   0.383   1.525 -0.4419 -1.5510 -0.6116
  223SOL    HW2  669   1.258   0.447   1.373 -0.0519 -0.0660  0.2417
  224SOL     OW  670   2.777   2.213   1.330 -0.0332  0.2327 -0.3766
  224SOL    HW1  671   2.735   2.287   1.277  2.3389 -0.0116  0.5207
  224SOL    HW2  672   2.816   2.247   1.423  1.7820  3.9089  2.4857
  225SOL     OW  673   2.709   2.120   1.008 -0.0253  0.5225 -0.6739
  225SOL    HW1  674   2.623   2.151   1.051  1.9551 -0.1723 -1.1294
  225SOL    HW2  675   2.704   2.141   0.908 -0.2081  2.1134  2.6848
  226SOL     OW  676   1.618   2.055   0.200  0.3396 -0.1399  0.4817
  226SOL    HW1  677   1.563   1.969   0.178 -0.9487 -1.2163  0.6510
  226SOL    HW2  678   1.592   2.127   0.136  2.5798 -0.3534 -0.1832
  227SOL     OW  679   1.832   1.250   0.652  0.0963  0.3501 -0.0034
  227SOL    HW1  680   1.760   1.294   0.707  0.7533 -2.6061 -1.8896
  227SOL    HW2  681   1.829   1.150   0.667  1.8006  0.1586 -2.2920
  228SOL     OW  682   2.063   0.853   0.361  0.7392  0.1186  0.0628
  228SOL    HW1  683   2.065   0.755   0.339  0.7767  4.5620 -1.1023
  228SOL    HW2  684   2.078   0.916   0.284 -0.0047 -0.4221  4.0052
  229SOL     OW  685   2.651   1.201   1.869  0.1716  0.1374  0.1176
  229SOL    HW1  686   2.548   1.199   1.866  0.4960  1.3852  1.7418
  229SOL    HW2  687   2.688   1.114   1.840 -0.5204  2.3529 -0.1460
  230SOL     OW  688   0.201   0.865   1.274 -0.4214  0.0997 -0.1403
  230SOL    HW1  689   0.266   0.937   1.246  1.1547 -1.8540  2.0796
  230SOL    HW2  690   0.253   0.790   1.321 -4.4197 -0.5610 -0.2167
  231SOL     OW  691   1.817   0.462   2.721  0.3135  0.5637  0.0804
  231SOL    HW1  692   1.729   0.496   2.677  0.9315  1.3810 -1.0134
  231SOL    HW2  693   1.897   0.503   2.669 -0.0580  1.3883 -2.9691
  232SOL     OW  694   0.049   1.655   1.137 -0.1888  0.2459  0.0387
  232SOL    HW1  695   0.056   1.606   1.226  4.0504  0.3157 -0.7409
  232SOL    HW2  696   0.119   1.609   1.072  2.9912 -0.7376 -2.8379
  233SOL     OW  697   1.541   2.711   2.686  0.0939 -0.2231 -0.5108
  233SOL    HW1  698   1.611   2.778   2.719 -3.8213 -1.0095  1.4702
  233SOL    HW2  699   1.543   2.698   2.586 -3.0838  1.9327 -0.1575
  234SOL     OW  700   1.361   2.712   1.377  0.2171  0.0844  0.0594
  234SOL    HW1  701   1.263   2.692   1.358 -0.5859 -0.3957 -0.2917
  234SOL    HW2  702   1.374   2.754   1.466 -2.4745 -1.9694 -3.4239
  235SOL     OW  703   0.968   1.330   1.514  0.5126 -0.2183  0.3243
  235SOL    HW1  704   0.906   1.397   1.549  1.7521 -2.0924  3.5082
  235SOL    HW2  705   1.061   1.358   1.532 -0.5151  1.2031 -1.1160
  236SOL     OW  706   0.410   2.753   2.675  0.2351 -0.0477  0.5577
  236SOL    HW1  707   0.485   2.697   2.641 -1.9259  1.3915  1.0912
  236SOL    HW2  708   0.428   2.852   2.646  2.6027  1.5931 -0.0557
  237SOL     OW  709   0.394   3.014   2.135  0.4900  0.2578  0.5314
  237SOL    HW1  710   0.487   2.982   2.149 -2.8172 -3.1593 -1.4957
  237SOL    HW2  711   0.379   3.036   2.034  1.9106 -1.4043  0.0660
  238SOL     OW  712   0.752   0.572   0.474  0.6363 -0.1170  0.1717
  238SOL    HW1  713   0.770   0.497   0.410 -0.9845  1.2715 -0.8031
  238SOL    HW2  714   0.841   0.588   0.529  4.4800 -0.0671  0.6401
  239SOL     OW  715   2.467   0.791   2.675  0.1449  0.3373 -0.0611
  239SOL    HW1  716   2.406   0.819   2.597  0.1329 -0.3105  3.8609
  239SOL    HW2  717   2.411   0.749   2.750 -1.2229  2.0334 -1.1577
  240SOL     OW  718   2.980   2.168   0.986  0.5152 -0.1829  0.0915
  240SOL    HW1  719   2.886   2.158   1.031  2.8078 -1.2369 -0.7021
  240SOL    HW2  720   3.047   2.142   1.054 -3.0323  2.1534 -1.9095
  241SOL     OW  721   1.290   1.973   0.623 -0.2206  0.0629 -0.1489
  241SOL    HW1  722   1.384   2.008   0.632  2.7734  0.0371 -0.4019
  241SOL    HW2  723   1.214   2.015   0.673  0.8934  0.1494  0.7575
  242SOL     OW  724   0.747   0.140   0.656 -0.1351  0.0391  0.0204
  242SOL    HW1  725   0.810   0.130   0.739 -0.0882  0.1492  1.2322
  242SOL    HW2  726   0.652   0.165   0.680 -1.9480 -1.9721 -1.5291
  243SOL     OW  727   0.297   0.286   1.300 -0.3381 -0.3373  0.3459
  243SOL    HW1  728   0.212   0.328   1.269  0.9301  1.1366  0.4343
  243SOL    HW2  729   0.345   0.236   1.228  0.0164 -0.8579 -0.6230
  244SOL     OW  730   0.488   2.860   0.586  0.2505  0.3774  0.1349
  244SOL    HW1  731   0.575   2.912   0.572 -0.1569  0.8382  0.6497
  244SOL    HW2  732   0.410   2.926   0.578 -1.0318 -0.4554  0.9229
  245SOL     OW  733   2.773   0.885   0.126 -0.5532 -0.4046  0.1480
  245SOL    HW1  734   2.871   0.858   0.147  0.8427 -1.3458  0.7514
  245SOL    HW2  735   2.754   0.929   0.035 -0.0291 -1.2727  0.6534
  246SOL     OW  736   0.471   2.758   1.423  0.1117  0.4623  0.0676
  246SOL    HW1  737   0.427   2.787   1.510 -0.8029 -2.5897  1.5407
  246SOL    HW2  738   0.399   2.732   1.349 -3.3216  1.2319  1.3050
  247SOL     OW  739   0.828   0.105   2.071 -0.1334  0.4566  0.6197
  247SOL    HW1  740   0.761   0.038   2.117 -0.7470 -2.8867 -1.3037
  247SOL    HW2  741   0.777   0.178   2.017 -1.1921  1.2571 -2.7690
  248SOL     OW  742   0.414   1.906   2.084 -0.1605  0.1190  0.2311
  248SOL    HW1  743   0.464   1.997   2.079  2.5840  0.2395  0.3494
  248SOL    HW2  744   0.486   1.832   2.092  2.5488 -0.1102  0.5685
  249SOL     OW  745   1.044   2.125   0.710 -0.4108 -0.1893  0.2669
  249SOL    HW1  746   0.988   2.041   0.727  0.2027 -0.1769 -0.3574
  249SOL    HW2  747   1.051   2.188   0.788 -0.3758 -1.5274  0.2501
  250SOL     OW  748   0.663   3.067   2.259 -0.4965 -0.1888  0.2356
  250SOL    HW1  749   0.665   2.972   2.287 -0.2715  2.4371 -0.3278
  250SOL    HW2  750   0.670   0.026   2.348  0.0042 -0.2468  2.3071
  251SOL     OW  751   2.711   1.972   1.793  0.6688  0.2424  0.0870
  251SOL    HW1  752   2.648   1.986   1.714  0.3351  1.3349  0.3747
  251SOL    HW2  753   2.732   1.873   1.803 -1.3330 -0.2624 -0.9053
  252SOL     OW  754   1.219   0.457   1.683  0.5615 -0.6556 -0.2063
  252SOL    HW1  755   1.131   0.516   1.686 -3.7134  0.4824  1.5358
  252SOL    HW2  756   1.220   0.393   1.760 -0.5098  0.9505 -2.7818
  253SOL     OW  757   2.752   1.685   2.703  0.2027  0.5333 -0.4282
  253SOL    HW1  758   2.716   1.628   2.627 -0.1968 -2.9700  0.6282
  253SOL    HW2  759   2.757   1.784   2.685 -0.0519  0.2615 -0.7181
  254SOL     OW  760   0.450   0.979   0.895 -0.0766 -0.0164 -0.9218
  254SOL    HW1  761   0.406   1.071   0.903  1.1001 -0.6766 -0.7026
  254SOL    HW2  762   0.494   0.939   0.979 -0.5881 -0.9436 -2.0269
  255SOL     OW  763   0.018   2.409   1.935 -0.1638 -0.0168 -0.3654
  255SOL    HW1  764   3.057   2.407   2.016  0.8180  0.8500 -1.5501
  255SOL    HW2  765   3.080   2.465   1.859 -0.3713  2.1500  1.7544
  256SOL     OW  766   0.307   2.883   0.330  0.4679  0.2163  0.0244
  256SOL    HW1  767   0.356   2.962   0.286 -2.3038 -1.0502 -2.2928
  256SOL    HW2  768   0.345   2.796   0.294  0.2891 -0.8893 -1.3217
  257SOL     OW  769   1.390   2.266   2.659  0.3351  0.2979 -0.3941
  257SOL    HW1  770   1.491   2.283   2.665  1.6022  1.5805  2.8943
  257SOL    HW2  771   1.342   2.350   2.628 -1.0413  1.7073  3.0200
  258SOL     OW  772   1.859   1.825   2.055 -0.7732  0.0873  0.1282
  258SOL    HW1  773   1.775   1.771   2.081  0.3974 -0.1144  0.9829
  258SOL    HW2  774   1.880   1.798   1.958 -3.2375 -2.8017 -3.3564
  259SOL     OW  775   0.511   0.710   2.139 -0.1421 -0.4864  0.0819
  259SOL    HW1  776   0.569   0.795   2.152  0.9202  1.1893  1.0931
  259SOL    HW2  777   0.564   0.626   2.116 -1.2865 -3.3097 -0.6204
  260SOL     OW  778   2.570   0.716   0.103  0.2473  0.2984 -0.1533
  260SOL    HW1  779   2.623   0.650   0.044  0.9240 -1.5427 -0.3071
  260SOL    HW2  780   2.633   0.796   0.121  2.6028  1.8734 -0.6230
  261SOL     OW  781   0.842   0.999   0.812  0.5909  0.0517 -0.0618
  261SOL    HW1  782   0.930   0.980   0.768  0.2729  2.5503 -1.7665
  261SOL    HW2  783   0.849   1.090   0.858  0.4787 -1.6955 -1.7912
  262SOL     OW  784   1.839   2.253   2.285  0.0781 -0.3746  0.0716
  262SOL    HW1  785   1.737   2.270   2.295 -0.1658 -1.3003  0.1794
  262SOL    HW2  786   1.855   2.189   2.209  0.6660  0.1808 -1.2089
  263SOL     OW  787   1.112   2.627   1.301  0.2430  0.2624 -0.2288
  263SOL    HW1  788   1.042   2.665   1.241  0.7164 -1.3804  1.7445
  263SOL    HW2  789   1.154   2.545   1.258 -0.0735  1.9836  0.6671
  264SOL     OW  790   3.021   1.966   0.795 -0.1426  0.2682  0.1803
  264SOL    HW1  791   3.003   2.052   0.847  3.8681  1.1992 -1.2208
  264SOL    HW2  792   2.934   1.923   0.764 -1.2634 -3.4218  2.3935
  265SOL     OW  793   1.914   1.495   2.741 -1.3249 -0.6173 -0.0034
  265SOL    HW1  794   1.992   1.562   2.727 -1.7268  2.2039  0.5547
  265SOL    HW2  795   1.935   1.401   2.707 -0.1083 -1.0826  1.0255
  266SOL     OW  796   1.595   1.943   2.124  0.3458  0.3012  0.1459
  266SOL    HW1  797   1.607   1.864   2.061  0.1230 -0.0672 -0.7528
  266SOL    HW2  798   1.597   1.918   2.220 -2.0133  1.7357 -0.1159
  267SOL     OW  799   1.728   0.498   2.314 -0.6282  0.4592 -0.5189
  267SOL    HW1  800   1.731   0.439   2.396 -1.4827 -1.8422 -0.6661
  267SOL    HW2  801   1.633   0.522   2.299 -1.5659 -1.3502 -0.8195
  268SOL     OW  802   0.981   1.095   2.883 -0.0715  0.2024 -0.3051
  268SOL    HW1  803   1.018   1.174   2.838  1.4147 -1.0593  0.0249
  268SOL    HW2  804   0.913   1.042   2.833 -1.4593 -1.2789  0.5989
  269SOL     OW  805   3.019   2.104   2.235  0.3330  0.5258 -0.1466
  269SOL    HW1  806   0.017   2.057   2.253  1.5154 -2.0807 -0.6699
  269SOL    HW2  807   2.960   2.051   2.173  0.6467  3.7068  0.9613
  270SOL     OW  808   2.965   1.538   0.191 -0.1277 -0.2001 -0.6251
  270SOL    HW1  809   2.945   1.445   0.219  0.7427  0.5808  1.1988
  270SOL    HW2  810   2.882   1.591   0.202  1.3806 -0.9685  1.4873
  271SOL     OW  811   0.787   0.295   0.404 -0.5789  0.1698 -0.4637
  271SOL    HW1  812   0.788   0.247   0.493  0.9129  0.6603 -2.7116
  271SOL    HW2  813   0.879   0.321   0.369  1.4159  1.2428 -5.0453
  272SOL     OW  814   2.906   0.175   0.175  0.0905 -0.4679 -0.9352
  272SOL    HW1  815   2.846   0.096   0.184  1.3823  1.0303 -2.6248
  272SOL    HW2  816   2.995   0.149   0.221  0.9906  3.3604 -1.4480
  273SOL     OW  817   0.224   2.832   2.280  0.1081 -0.7079  0.1287
  273SOL    HW1  818   0.290   2.751   2.294 -1.2108  1.7857 -2.6963
  273SOL    HW2  819   0.269   2.902   2.220  1.6193 -3.6688 -2.1161
  274SOL     OW  820   3.068   0.011   1.349 -0.0011 -0.0063 -0.2411
  274SOL    HW1  821   2.992   0.048   1.407 -0.0026 -2.7188  0.0485
  274SOL    HW2  822   3.071   0.052   1.260 -1.1851 -0.3086  2.1514
  275SOL     OW  823   1.208   1.863   1.321 -0.6238  0.1096 -0.2970
  275SOL    HW1  824   1.106   1.868   1.337  0.2874 -0.8062 -2.2995
  275SOL    HW2  825   1.230   1.820   1.230  3.6119 -0.4788  1.6879
  276SOL     OW  826   0.335   1.262   2.130 -0.1137 -0.4319 -0.2416
  276SOL    HW1  827   0.278   1.189   2.100  1.8129  1.4025  2.2757
  276SOL    HW2  828   0.285   1.320   2.199 -0.8335 -0.4489  0.0084
  277SOL     OW  829   1.322   2.095   1.893 -0.6100  0.0093  0.3610
  277SOL    HW1  830   1.350   2.160   1.817 -1.1935 -0.7043  0.7940
  277SOL    HW2  831   1.362   2.130   1.979 -2.1627 -0.7452 -0.0297
  278SOL     OW  832   1.935   2.930   2.407 -0.2668 -0.3406 -0.2477
  278SOL    HW1  833   1.983   2.845   2.433 -0.4651 -0.3175 -1.6859
  278SOL    HW2  834   1.951   2.952   2.308  0.1768  3.3630 -1.3500
  279SOL     OW  835   1.496   1.447   0.079  0.7673  0.6750 -0.0645
  279SOL    HW1  836   1.541   1.370   0.031 -0.3682 -1.6693  0.0745
  279SOL    HW2  837   1.511   1.529   0.025 -2.2091 -1.4571  3.1731
  280SOL     OW  838   1.110   0.711   1.077 -0.3015 -0.0805  0.1544
  280SOL    HW1  839   1.112   0.803   1.049  0.8167 -2.5879  0.6031
  280SOL    HW2  840   1.156   0.650   1.007  2.8184 -1.8998 -2.3047
  281SOL     OW  841   2.598   0.383   1.943  0.1410 -0.0073 -0.2619
  281SOL    HW1  842   2.573   0.411   2.039 -0.2215 -1.2094  3.0132
  281SOL    HW2  843   2.528   0.329   1.890  0.9195 -2.6025 -1.1839
  282SOL     OW  844   0.208   2.856   0.753 -0.1910 -0.0592 -0.8122
  282SOL    HW1  845   0.136   2.793   0.788 -5.2908 -1.3336 -1.9444
  282SOL    HW2  846   0.292   2.864   0.812 -2.5345  1.5590 -3.0650
  283SOL     OW  847   1.077   2.217   1.872 -0.5208  0.0920  0.0823
  283SOL    HW1  848   1.155   2.151   1.892  6.2825 -2.6848  4.1971
  283SOL    HW2  849   1.055   2.211   1.774  1.3183  0.2692  1.5159
  284SOL     OW  850   2.143   2.758   1.409  0.5064  0.0846 -0.0121
  284SOL    HW1  851   2.112   2.688   1.476  2.9935 -0.4020 -1.5882
  284SOL    HW2  852   2.204   2.709   1.341  1.0764  0.7279 -0.6830
  285SOL     OW  853   0.948   1.788   1.421  0.4327  0.0520 -0.3584
  285SOL    HW1  854   0.962   1.783   1.523  1.0880 -2.4553 -1.2564
  285SOL    HW2  855   0.852   1.803   1.390  2.7213 -2.8213  0.0852
  286SOL     OW  856   0.028   2.847   2.009  0.2938 -0.4316  0.4736
  286SOL    HW1  857   3.034   2.888   2.037  2.6836 -1.6813 -0.8218
  286SOL    HW2  858   0.080   2.805   2.085 -0.7217  0.9153 -1.0494
  287SOL     OW  859   0.622   0.895   0.697 -0.0047 -0.5595 -0.1769
  287SOL    HW1  860   0.706   0.930   0.736 -1.3312  0.1573 -1.2151
  287SOL    HW2  861   0.555   0.898   0.774 -1.6064  0.0975  0.4939
  288SOL     OW  862   1.470   2.175   3.085 -0.3299  0.3350 -0.3442
  288SOL    HW1  863   1.448   2.264   3.043 -1.5953 -1.2126 -1.9043
  288SOL    HW2  864   1.407   2.099   3.066  0.9448  0.4711 -2.0489
  289SOL     OW  865   1.922   1.204   2.310 -0.1385 -0.6184 -0.2526
  289SOL    HW1  866   1.899   1.294   2.267 -1.0535 -1.6111 -0.0175
  289SOL    HW2  867   1.952   1.143   2.237 -0.1608  0.2082  2.0698
  290SOL     OW  868   2.152   1.832   0.489 -0.7942 -0.4225 -0.1591
  290SOL    HW1  869   2.134   1.742   0.455  1.6981  0.1820  0.0812
  290SOL    HW2  870   2.085   1.903   0.455  3.1906  1.0609 -1.4453
  291SOL     OW  871   1.426   0.954   2.772  0.2941 -0.0558  0.5728
  291SOL    HW1  872   1.391   0.992   2.860  0.5998  1.0237  1.7254
  291SOL    HW2  873   1.523   0.933   2.781 -0.6328 -0.0155 -0.4156
  292SOL     OW  874   2.105   1.691   0.740  0.3022 -0.1269  0.6252
  292SOL    HW1  875   2.156   1.605   0.710  1.7093  0.6576  0.3351
  292SOL    HW2  876   2.115   1.752   0.664 -0.4787 -0.5779  0.5946
  293SOL     OW  877   1.481   0.019   1.314  0.0086  0.1589 -0.0558
  293SOL    HW1  878   1.479   0.123   1.313  1.2189  0.4555 -1.8267
  293SOL    HW2  879   1.422   3.082   1.237  2.1035  0.7502 -1.0364
  294SOL     OW  880   3.030   0.695   3.079 -0.0472 -0.7139 -0.4591
  294SOL    HW1  881   2.971   0.669   3.000  0.7131  0.6668 -0.0884
  294SOL    HW2  882   3.017   0.643   0.072  1.3451  0.9931  0.2361
  295SOL     OW  883   2.228   1.776   2.303  0.0163 -0.7463 -1.1028
  295SOL    HW1  884   2.308   1.737   2.258  0.0942 -0.8218 -0.1850
  295SOL    HW2  885   2.242   1.766   2.404  1.0801 -0.9452  0.1799
  296SOL     OW  886   1.665   1.969   1.122 -0.2000  0.7209 -0.0489
  296SOL    HW1  887   1.667   1.879   1.072  2.0430  2.4456  0.8968
  296SOL    HW2  888   1.754   1.991   1.165 -0.9369  1.2221  0.7899
  297SOL     OW  889   0.336   0.606   2.732 -0.6212 -0.4231 -0.7274
  297SOL    HW1  890   0.323   0.692   2.673 -1.0396  1.1072 -2.0959
  297SOL    HW2  891   0.312   0.620   2.827 -1.0129  0.5477 -1.8444
  298SOL     OW  892   1.361   2.813   1.639 -0.3566 -0.0759  0.0489
  298SOL    HW1  893   1.313   2.889   1.695 -3.0476  3.2113  3.8427
  298SOL    HW2  894   1.456   2.797   1.677  0.8031  0.4083  1.4384
  299SOL     OW  895   0.982   0.613   2.530  0.5035  0.2292 -0.1153
  299SOL    HW1  896   1.000   0.672   2.611 -2.6907 -2.4604 -3.9414
  299SOL    HW2  897   1.043   0.531   2.536 -2.5770  0.8133  0.9675
  300SOL     OW  898   2.228   1.514   0.012  0.5026 -0.5117  0.5948
  300SOL    HW1  899   2.279   1.497   0.096 -0.7284  0.2789 -0.2773
  300SOL    HW2  900   2.216   1.433   3.051 -1.4527  4.6183  0.2243
  301SOL     OW  901   2.126   0.352   2.353 -0.5573 -0.2438 -0.2193
  301SOL    HW1  902   2.155   0.276   2.420  0.0365 -2.3821  0.7396
  301SOL    HW2  903   2.162   0.439   2.400  0.3397  2.1797 -0.0199
  302SOL     OW  904   2.565   1.583   2.871  0.3909  0.3638  0.3286
  302SOL    HW1  905   2.597   1.515   2.941  0.1140  0.2912  1.8865
  302SOL    HW2  906   2.643   1.611   2.808 -2.2962  0.9372  1.6778
  303SOL     OW  907   0.189   2.451   2.319  0.0731  0.3466  0.2903
  303SOL    HW1  908   0.087   2.426   2.326 -3.3858 -0.6832  2.8104
  303SOL    HW2  909   0.240   2.367   2.303 -0.6900 -0.6979  1.0475
  304SOL     OW  910   2.816   0.920   0.960 -0.4138 -0.5549  0.4235
  304SOL    HW1  911   2.793   1.007   0.908 -0.5149 -0.6392  1.0414
  304SOL    HW2  912   2.819   0.838   0.900  0.8279  1.5747  0.0581
  305SOL     OW  913   3.004   0.176   2.001  0.4604 -0.7742  0.5942
  305SOL    HW1  914   2.971   0.263   1.957  0.3428 -1.0602  1.7048
  305SOL    HW2  915   3.022   0.181   2.101  0.0453 -2.3834 -2.8718
  306SOL     OW  916   1.735   2.177   0.912  0.7903 -0.1921 -0.1595
  306SOL    HW1  917   1.706   2.136   1.001 -0.3209  0.1057  2.5987
  306SOL    HW2  918   1.689   2.124   0.841 -0.3637  1.0344  1.9638
  307SOL     OW  919   3.054   0.164   1.113  0.3420 -0.1053  0.0681
  307SOL    HW1  920   2.998   0.169   1.025 -0.5536 -0.2783  0.1445
  307SOL    HW2  921   0.059   0.145   1.106  0.4689  0.2039  0.6788
  308SOL     OW  922   3.041   1.797   2.564 -0.5092 -0.3371  0.4364
  308SOL    HW1  923   3.010   1.726   2.496  0.2408 -0.6658  1.7628
  308SOL    HW2  924   3.027   1.774   2.664  0.1769  4.5733 -0.3162
  309SOL     OW  925   0.556   1.905   2.855  0.4574 -0.2721  0.5867
  309SOL    HW1  926   0.550   1.803   2.852  3.4284 -1.5233 -0.3796
  309SOL    HW2  927   0.464   1.951   2.845  1.6504 -0.0254  0.0762
  310SOL     OW  928   2.272   0.662   2.860 -0.1942  0.7292  0.1694
  310SOL    HW1  929   2.174   0.683   2.843 -1.9113 -3.2519 -0.2315
  310SOL    HW2  930   2.281   0.592   2.933 -0.8826  0.0400  1.3703
  311SOL     OW  931   1.884   1.290   3.077 -0.2601 -0.5917 -0.1572
  311SOL    HW1  932   1.799   1.243   3.071  1.9658  3.3334 -0.2236
  311SOL    HW2  933   1.956   1.217   3.080  0.7618 -0.8127  0.1094
  312SOL     OW  934   1.054   1.226   2.079  0.0784  0.1051  0.0413
  312SOL    HW1  935   0.980   1.254   2.146 -0.8537  0.5475  1.7784
  312SOL    HW2  936   1.056   1.129   2.052  1.8974 -0.8487 -2.9281
  313SOL     OW  937   0.743   3.008   0.493  0.0730 -0.2587  0.1492
  313SOL    HW1  938   0.737   0.006   0.535 -0.2214 -3.4734  1.3622
  313SOL    HW2  939   0.738   3.009   0.389  1.4193  0.0835 -1.4611
  314SOL     OW  940   0.594   1.889   1.582 -0.7958 -0.4925 -0.7286
  314SOL    HW1  941   0.581   1.844   1.495 -0.2526 -0.2897  1.3076
  314SOL    HW2  942   0.634   1.826   1.652  1.3188  0.7784  1.5940
  315SOL     OW  943   1.538   2.017   1.581  0.3676  0.2636 -0.1025
  315SOL    HW1  944   1.583   1.986   1.667  0.1876 -0.6359 -1.1403
  315SOL    HW2  945   1.462   2.076   1.591  1.1305  0.2643 -0.2830
  316SOL     OW  946   0.439   2.338   0.159 -0.1408 -0.2627 -0.1390
  316SOL    HW1  947   0.424   2.254   0.102 -0.0524 -0.6685  0.1944
  316SOL    HW2  948   0.412   2.319   0.256 -2.4053 -2.0023  0.1484
  317SOL     OW  949   2.523   0.264   0.965  0.4395 -0.4369  0.4327
  317SOL    HW1  950   2.451   0.295   1.025 -0.9406 -0.6719  0.3287
  317SOL    HW2  951   2.583   0.189   0.996  1.1131  0.5884  0.5300
  318SOL     OW  952   0.884   2.494   0.563  0.5332  0.2721 -0.4963
  318SOL    HW1  953   0.822   2.501   0.645  1.2754  0.7081 -0.8862
  318SOL    HW2  954   0.822   2.485   0.479  0.2338 -1.4545 -0.4400
  319SOL     OW  955   1.352   0.493   2.779 -0.1465 -0.4436  0.2956
  319SOL    HW1  956   1.318   0.419   2.838 -0.1218  3.1177 -1.7735
  319SOL    HW2  957   1.341   0.586   2.826 -2.4873  3.0242  1.8223
  320SOL     OW  958   2.195   1.597   1.687 -0.2900  0.2066  0.0110
  320SOL    HW1  959   2.252   1.537   1.746 -1.4269 -1.3731  1.2382
  320SOL    HW2  960   2.094   1.571   1.693  0.9958 -1.8612 -0.0645
  321SOL     OW  961   3.074   3.026   2.907  0.3311  0.9071  0.0395
  321SOL    HW1  962   3.082   0.025   2.955  0.8657 -0.2020  1.8574
  321SOL    HW2  963   2.995   2.972   2.947  0.3976  1.1990  1.0259
  322SOL     OW  964   2.389   1.000   1.007 -0.1789 -0.5143 -0.1238
  322SOL    HW1  965   2.401   0.902   1.021 -0.6340  0.4981  0.6999
  322SOL    HW2  966   2.438   1.049   1.081  0.8109  0.2103 -1.4501
  323SOL     OW  967   2.146   1.714   0.196  0.4828  0.3008 -0.3035
  323SOL    HW1  968   2.120   1.650   0.272  0.7754 -1.5489 -0.1050
  323SOL    HW2  969   2.148   1.657   0.111 -0.4012 -1.3376 -1.5668
  324SOL     OW  970   2.727   0.296   1.269 -0.8183 -1.0721 -0.2325
  324SOL    HW1  971   2.694   0.237   1.196  2.4887  1.5602  2.7110
  324SOL    HW2  972   2.774   0.379   1.236 -0.1958 -1.4351  1.6424
  325SOL     OW  973   2.696   2.652   0.749 -0.5052 -0.3543  0.6471
  325SOL    HW1  974   2.693   2.576   0.815  0.5621 -3.5046  0.0793
  325SOL    HW2  975   2.615   2.640   0.688  0.5716  0.3141 -1.5954
  326SOL     OW  976   1.306   2.710   0.552 -0.1787  0.1702  0.1080
  326SOL    HW1  977   1.286   2.756   0.464  1.0688  0.0550  0.3748
  326SOL    HW2  978   1.409   2.709   0.570  3.8200  2.3454  1.2960
  327SOL     OW  979   2.128   2.456   0.246  0.5700  0.0568 -0.3587
  327SOL    HW1  980   2.115   2.370   0.193  0.0431  0.5560  1.1454
  327SOL    HW2  981   2.107   2.546   0.197 -0.9433  1.1636 -0.3512
  328SOL     OW  982   2.532   2.429   1.802 -0.2939  0.1776  0.1840
  328SOL    HW1  983   2.602   2.403   1.875 -1.6401  0.2048  1.2912
  328SOL    HW2  984   2.452   2.473   1.849  0.6171 -0.9784  0.0482
  329SOL     OW  985   0.467   2.298   0.775 -0.0291 -0.6159 -0.1743
  329SOL    HW1  986   0.452   2.400   0.785 -0.1691  2.7410  0.7149
  329SOL    HW2  987   0.382   2.253   0.734  3.2184 -1.3499 -1.1622
  330SOL     OW  988   2.400   0.773   1.459  0.0404  0.4567  0.1264
  330SOL    HW1  989   2.496   0.800   1.439 -2.0344 -2.4539  0.4468
  330SOL    HW2  990   2.375   0.682   1.416  0.7102 -2.0414  0.1613
  331SOL     OW  991   2.552   1.653   0.849 -0.2857 -0.0078 -0.7622
  331SOL    HW1  992   2.581   1.618   0.944 -0.8714  0.7262  2.9748
  331SOL    HW2  993   2.541   1.753   0.864 -1.9994  2.5564  1.5156
  332SOL     OW  994   0.118   2.512   1.424  0.1670 -0.3510  0.1462
  332SOL    HW1  995   0.193   2.498   1.489 -1.5198  2.2508 -0.1481
  332SOL    HW2  996   0.030   2.519   1.480 -0.5870 -1.0001  0.9688
  333SOL     OW  997   0.078   1.788   1.530  0.3105 -0.0347  0.2563
  333SOL    HW1  998   0.177   1.805   1.553  0.4940  1.8426  3.3499
  333SOL    HW2  999   0.060   1.710   1.467  1.5722  0.0185  1.9451
  334SOL     OW 1000   0.348   0.467   1.497 -0.2809  0.7685 -0.2599
  334SOL    HW1 1001   0.295   0.456   1.586 -0.4495  0.4856  0.9074
  334SOL    HW2 1002   0.348   0.378   1.448 -3.7749  0.1006 -2.1691
  335SOL     OW 1003   2.810   1.623   1.920  0.1736 -0.0816  0.1286
  335SOL    HW1 1004   2.861   1.701   1.885  0.0560  0.2066  2.2999
  335SOL    HW2 1005   2.708   1.633   1.909 -0.1597  0.3093 -0.7829
  336SOL     OW 1006   1.714   2.820   0.057 -0.3583  0.4422 -0.5823
  336SOL    HW1 1007   1.735   2.747   0.125  2.7007  1.8807 -1.0714
  336SOL    HW2 1008   1.790   2.842   3.088 -3.9039  3.0942  1.1961
  337SOL     OW 1009   0.623   0.443   1.442 -0.8307 -0.1596  0.7977
  337SOL    HW1 1010   0.633   0.387   1.358 -0.1753 -2.2865 -1.7820
  337SOL    HW2 1011   0.527   0.459   1.471  2.3881 -1.5943 -1.6064
  338SOL     OW 1012   1.734   2.442   0.882  0.2765 -0.2423 -0.2465
  338SOL    HW1 1013   1.710   2.353   0.921 -0.9864  0.5714 -1.7870
  338SOL    HW2 1014   1.740   2.516   0.953 -0.0860  0.1265 -1.2025
  339SOL     OW 1015   0.357   1.812   1.157 -0.2781  0.4748 -0.4905
  339SOL    HW1 1016   0.287   1.878   1.137  1.7154 -3.3734  3.3603
  339SOL    HW2 1017   0.445   1.855   1.130  1.9555 -0.3019  1.2359
  340SOL     OW 1018   0.042   3.047   2.328  0.2812  0.1505 -0.2946
  340SOL    HW1 1019   0.100   2.972   2.302  2.6120 -0.7079  0.1359
  340SOL    HW2 1020   0.052   3.079   2.424  1.1946 -1.2003  1.1816
  341SOL     OW 1021   2.599   1.308   0.523 -0.9312  0.5218 -0.0412
  341SOL    HW1 1022   2.536   1.380   0.554  1.4488 -1.0553 -0.4366
  341SOL    HW2 1023   2.673   1.289   0.588  0.1443  1.9974 -1.0471
  342SOL     OW 1024   1.987   2.017   0.385  0.2752 -0.1259  0.8101
  342SOL    HW1 1025   1.902   2.050   0.431 -1.1128  0.7651  0.9005
  342SOL    HW2 1026   1.984   2.042   0.288 -0.1609  1.7681 -1.4308
  343SOL     OW 1027   1.843   0.546   0.594  0.2918 -0.3675 -0.6463
  343SOL    HW1 1028   1.806   0.555   0.688  0.8454  0.7216 -4.9877
  343SOL    HW2 1029   1.945   0.525   0.606  2.9436 -2.6430 -1.9392
  344SOL     OW 1030   2.300   0.242   3.009  0.0805 -0.0393  0.0423
  344SOL    HW1 1031   2.396   0.203   3.021  3.9348 -0.9867  1.9118
  344SOL    HW2 1032   2.237   0.166   3.006  1.4482  0.8981  0.1547
  345SOL     OW 1033   1.130   0.209   1.080 -0.2672 -0.0166 -0.4899
  345SOL    HW1 1034   1.190   0.128   1.084 -1.9122 -0.4046 -0.9699
  345SOL    HW2 1035   1.068   0.215   1.165  0.0185  0.6431  2.4759
  346SOL     OW 1036   2.028   2.595   1.606  0.4821  0.2508 -0.0900
  346SOL    HW1 1037   2.030   2.505   1.562  0.0751  2.6050  0.9525
  346SOL    HW2 1038   2.053   2.594   1.709 -0.0712 -1.3070  3.1915
  347SOL     OW 1039   2.777   0.014   0.732  0.3569  0.2409  0.0851
  347SOL    HW1 1040   2.848   0.002   0.662  1.5477  1.0993 -1.0961
  347SOL    HW2 1041   2.772   3.025   0.788 -0.0738  2.4375 -1.6810
  348SOL     OW 1042   0.458   1.027   1.245 -0.6756  0.4829  0.5327
  348SOL    HW1 1043   0.509   0.945   1.205 -0.2808 -1.3945 -1.0709
  348SOL    HW2 1044   0.514   1.076   1.318 -1.0248  1.4230  1.2596
  349SOL     OW 1045   2.119   0.060   3.007 -0.3676 -0.2564  0.0624
  349SOL    HW1 1046   2.096   3.083   2.935 -0.2404 -1.1148  0.9557
  349SOL    HW2 1047   2.041   0.111   3.040 -0.4259 -0.9068 -5.4810
  350SOL     OW 1048   2.859   2.140   0.198 -0.0387 -0.6209  0.0469
  350SOL    HW1 1049   2.768   2.137   0.245 -3.0930 -3.8735 -1.5546
  350SOL    HW2 1050   2.862   2.230   0.150 -1.9182 -1.7791 -0.7371
  351SOL     OW 1051   0.968   0.128   0.857 -0.7439  0.2712  0.3064
  351SOL    HW1 1052   1.046   0.120   0.792  0.1980 -0.1559 -0.6575
  351SOL    HW2 1053   1.010   0.170   0.940 -1.5704 -0.4799  0.3923
  352SOL     OW 1054   1.976   2.154   2.679 -0.0203  0.6573  0.1616
  352SOL    HW1 1055   2.026   2.072   2.711 -2.1833  0.4450 -0.7210
  352SOL    HW2 1056   2.013   2.183   2.589 -0.1771  3.7368 -1.3748
  353SOL     OW 1057   0.827   0.773   0.306 -0.1031 -0.7972  0.6712
  353SOL    HW1 1058   0.791   0.697   0.365 -0.0733  1.4888  2.1227
  353SOL    HW2 1059   0.759   0.823   0.252  2.6220 -0.0521  1.0241
  354SOL     OW 1060   0.808   1.986   2.895  0.3826  0.2033  0.0916
  354SOL    HW1 1061   0.717   1.950   2.883  3.8169  0.6997  2.8350
  354SOL    HW2 1062   0.873   1.922   2.942 -0.6369  0.6750 -1.6424
  355SOL     OW 1063   2.809   2.703   2.344  0.0206  0.3659 -0.7384
  355SOL    HW1 1064   2.871   2.630   2.373 -2.9866  0.0301 -0.4893
  355SOL    HW2 1065   2.853   2.785   2.301 -0.3026 -0.9377  2.7215
  356SOL     OW 1066   2.645   0.669   0.811 -0.1132 -0.2415  0.6941
  356SOL    HW1 1067   2.661   0.741   0.739  0.0593 -3.8246 -0.4248
  356SOL    HW2 1068   2.622   0.585   0.761  1.0476 -1.6060  0.0026
  357SOL     OW 1069   2.288   0.332   1.151 -0.5594  0.3268 -0.6942
  357SOL    HW1 1070   2.332   0.250   1.196  2.6559 -1.3776  1.9254
  357SOL    HW2 1071   2.199   0.304   1.106  0.0811  0.3435 -2.0420
  358SOL     OW 1072   1.243   3.047   1.728  0.4694 -0.0537 -0.0857
  358SOL    HW1 1073   1.198   0.010   1.653 -1.1162  0.2984  0.0197
  358SOL    HW2 1074   1.180   3.053   1.810 -1.7844  2.3678 -0.6058
  359SOL     OW 1075   2.997   2.295   2.668 -0.1302 -0.7368  0.5183
  359SOL    HW1 1076   2.988   2.206   2.612 -2.3802 -2.4794 -1.0262
  359SOL    HW2 1077   3.089   2.336   2.681 -2.2025 -1.6335  0.7423
  360SOL     OW 1078   0.613   1.188   1.428  0.3731 -0.0590  0.2848
  360SOL    HW1 1079   0.678   1.268   1.438 -3.5038  1.9987  1.2585
  360SOL    HW2 1080   0.584   1.161   1.521  1.4725 -0.0669 -0.5107
  361SOL     OW 1081   2.355   2.806   0.423 -0.3764  0.0224 -0.3737
  361SOL    HW1 1082   2.263   2.798   0.379 -3.0309 -4.2439 -1.1224
  361SOL    HW2 1083   2.430   2.830   0.365 -1.7292 -2.7861  0.3595
  362SOL     OW 1084   0.007   2.718   0.855  0.1586  0.1944 -0.4933
  362SOL    HW1 1085   0.026   2.627   0.893  0.4605  4.2811  1.9596
  362SOL    HW2 1086   3.034   2.707   0.775 -1.4680 -2.1119 -2.7553
  363SOL     OW 1087   0.858   1.676   1.055 -0.9961  0.4513 -0.1034
  363SOL    HW1 1088   0.926   1.650   1.126  0.0711 -0.1907  1.3878
  363SOL    HW2 1089   0.871   1.775   1.033  1.3853  1.8109 -0.2006
  364SOL     OW 1090   1.068   1.608   1.227 -0.2150  0.0787  0.5365
  364SOL    HW1 1091   1.012   1.630   1.310 -0.2804  0.0298 -0.9313
  364SOL    HW2 1092   1.099   1.511   1.225  1.0286 -1.4135 -1.3734
  365SOL     OW 1093   2.413   1.708   0.371  0.9088 -0.0911 -0.2758
  365SOL    HW1 1094   2.348   1.748   0.307  0.5423 -0.8009  0.1015
  365SOL    HW2 1095   2.458   1.780   0.426  0.4880  0.6175  1.5872
  366SOL     OW 1096   2.886   1.697   1.012 -0.1790  0.0666  0.3260
  366SOL    HW1 1097   2.979   1.682   1.051 -1.7897  0.7185  2.4903
  366SOL    HW2 1098   2.843   1.782   1.056  0.1422  1.9658  0.0157
  367SOL     OW 1099   2.361   1.956   1.810  0.3679  0.1365  0.2599
  367SOL    HW1 1100   2.386   1.886   1.744  0.4542 -0.6088 -1.5532
  367SOL    HW2 1101   2.353   2.050   1.768 -1.0269  2.1134  0.6488
  368SOL     OW 1102   2.508   1.092   1.274 -0.3085 -0.0698  0.5942
  368SOL    HW1 1103   2.474   1.104   1.367 -1.0028 -2.7157 -1.0525
  368SOL    HW2 1104   2.592   1.032   1.269  1.3092 -1.9783 -1.2403
  369SOL     OW 1105   2.040   2.732   0.178  0.3009  0.2448  0.0742
  369SOL    HW1 1106   2.045   2.781   0.266  0.6675 -1.1672  0.0541
  369SOL    HW2 1107   1.990   2.793   0.108 -1.9394  4.4574 -1.7737
  370SOL     OW 1108   2.747   2.571   1.232 -0.7311  0.0293 -0.0491
  370SOL    HW1 1109   2.700   2.602   1.316  0.1408 -1.6309 -1.8696
  370SOL    HW2 1110   2.847   2.550   1.246  2.0029 -4.1205 -0.1151
  371SOL     OW 1111   0.843   1.782   2.491 -0.2202 -0.2585  0.0317
  371SOL    HW1 1112   0.911   1.858   2.467 -0.6284  0.6865 -1.6868
  371SOL    HW2 1113   0.753   1.826   2.500  2.5652 -3.4905 -0.4644
  372SOL     OW 1114   1.002   1.331   0.463 -0.7132  0.2647 -0.3094
  372SOL    HW1 1115   0.942   1.303   0.382  1.5506  3.0291 -1.4027
  372SOL    HW2 1116   1.026   1.247   0.518  0.2432 -1.1455  1.1962
  373SOL     OW 1117   0.906   2.737   0.241  0.5899 -0.3325 -0.3116
  373SOL    HW1 1118   0.925   2.740   0.341 -0.9987  1.6874 -0.2541
  373SOL    HW2 1119   0.973   2.671   0.198  1.0309 -0.6657 -1.0914
  374SOL     OW 1120   0.321   1.655   0.170 -0.6238 -0.5030  0.4989
  374SOL    HW1 1121   0.229   1.631   0.199  0.8101  0.4877 -3.8600
  374SOL    HW2 1122   0.398   1.659   0.237  1.2351  0.4717  1.2002
  375SOL     OW 1123   1.131   1.542   2.161 -0.1033  0.4094  0.1239
  375SOL    HW1 1124   1.221   1.594   2.171 -0.5360 -1.0718  0.7806
  375SOL    HW2 1125   1.152   1.442   2.143 -2.2475 -2.4341  0.9799
  376SOL     OW 1126   0.750   2.445   1.819 -0.1283  0.2556  0.0124
  376SOL    HW1 1127   0.834   2.500   1.813 -1.3909 -0.9051  0.4693
  376SOL    HW2 1128   0.689   2.476   1.895 -2.8556 -0.4743  1.2687
  377SOL     OW 1129   2.398   1.417   2.224 -0.7596  0.4948 -0.2164
  377SOL    HW1 1130   2.320   1.413   2.285  2.2594 -0.5440 -0.6251
  377SOL    HW2 1131   2.378   1.484   2.149  0.3745 -2.6377  0.1223
  378SOL     OW 1132   1.206   0.433   2.552 -0.0215 -0.2512 -0.4252
  378SOL    HW1 1133   1.257   0.446   2.641 -1.5087  0.8768 -2.6049
  378SOL    HW2 1134   1.272   0.400   2.479 -1.5936  1.2419  0.7726
  379SOL     OW 1135   1.820   0.454   0.341  0.3567  0.3895  0.4963
  379SOL    HW1 1136   1.800   0.527   0.272  1.1367  0.5510 -0.3838
  379SOL    HW2 1137   1.825   0.501   0.430 -0.8492 -0.9608 -0.4255
  380SOL     OW 1138   0.234   2.243   1.389  0.1475  0.5728 -0.0342
  380SOL    HW1 1139   0.210   2.339   1.390 -1.2757 -3.2824 -1.6473
  380SOL    HW2 1140   0.168   2.190   1.437  2.8814  2.5020 -1.1191
  381SOL     OW 1141   1.625   1.699   1.688  0.3552 -1.0239  0.3091
  381SOL    HW1 1142   1.632   1.599   1.680 -0.3361 -0.4361  0.8253
  381SOL    HW2 1143   1.701   1.746   1.645 -3.8538 -1.2486  0.7212
  382SOL     OW 1144   0.038   0.252   2.787  0.8532  0.5961  0.4132
  382SOL    HW1 1145   3.070   0.179   2.741  0.3431 -2.6343  0.4745
  382SOL    HW2 1146   0.026   0.245   2.889  1.0627  3.7451  1.2109
  383SOL     OW 1147   1.620   1.456   2.659  0.0865 -0.0997  1.1875
  383SOL    HW1 1148   1.604   1.381   2.588  1.1759 -2.4405  0.6409
  383SOL    HW2 1149   1.699   1.439   2.717  0.4909  1.0485 -2.6723
  384SOL     OW 1150   0.998   2.567   0.917 -0.0860 -0.0726  0.0396
  384SOL    HW1 1151   0.985   2.623   1.002  0.3411 -2.3928 -0.5910
  384SOL    HW2 1152   1.066   2.608   0.856  0.8376 -0.6605  0.4225
  385SOL     OW 1153   2.077   2.269   1.199 -0.3620  0.0385 -0.4324
  385SOL    HW1 1154   2.103   2.364   1.169 -2.0770  2.1528 -1.2014
  385SOL    HW2 1155   2.156   2.209   1.223  1.0245 -0.1286  0.2700
  386SOL     OW 1156   2.328   2.139   1.449 -0.2565 -0.4051 -0.1713
  386SOL    HW1 1157   2.252   2.091   1.406  1.5792  2.2750  0.6633
  386SOL    HW2 1158   2.367   2.215   1.390 -2.3729  2.6948 -1.1078
  387SOL     OW 1159   0.565   2.199   1.157 -0.3392 -0.1429  0.2532
  387SOL    HW1 1160   0.583   2.220   1.254  1.9016 -0.2966 -1.1437
  387SOL    HW2 1161   0.473   2.152   1.137 -1.9957 -3.2023 -1.5246
  388SOL     OW 1162   2.725   0.916   1.784 -0.3032 -0.1284 -0.2935
  388SOL    HW1 1163   2.659   0.878   1.846 -0.5448 -0.5931 -0.4706
  388SOL    HW2 1164   2.816   0.890   1.823 -1.1592  0.9680  0.7010
  389SOL     OW 1165   1.754   1.222   0.986 -0.0311  0.0480 -0.8017
  389SOL    HW1 1166   1.713   1.265   0.908 -0.6897 -0.6306  1.5230
  389SOL    HW2 1167   1.722   1.260   1.077 -1.3516 -0.4944  1.9565
  390SOL     OW 1168   0.909   2.224   2.130  0.2018  0.3738  0.1375
  390SOL    HW1 1169   0.851   2.290   2.186  0.0112  3.0538 -2.0210
  390SOL    HW2 1170   0.917   2.260   2.035  1.2856 -0.1963 -2.0696
  391SOL     OW 1171   0.972   2.004   2.418 -0.3543 -0.8029  0.3670
  391SOL    HW1 1172   0.936   2.070   2.489 -0.0423  1.7936  4.5094
  391SOL    HW2 1173   1.027   2.049   2.350 -3.5347  0.7212 -0.5531
  392SOL     OW 1174   2.958   2.812   2.695 -0.1239 -0.3939 -0.3972
  392SOL    HW1 1175   2.991   2.759   2.777 -1.9365 -1.3349  0.3683
  392SOL    HW2 1176   3.008   2.784   2.609 -1.1348 -0.5681  0.6188
  393SOL     OW 1177   1.739   2.921   0.444 -0.2123  0.0591  0.6314
  393SOL    HW1 1178   1.691   2.829   0.444  0.9664 -0.7129 -2.1605
  393SOL    HW2 1179   1.763   2.938   0.541 -0.8441 -1.7447  0.4187
  394SOL     OW 1180   0.641   0.720   2.504  0.0300 -0.2631  0.3391
  394SOL    HW1 1181   0.552   0.742   2.453 -1.9784 -0.1472 -1.2280
  394SOL    HW2 1182   0.712   0.678   2.442 -0.1831  1.9886  2.8422
  395SOL     OW 1183   0.500   1.404   1.681  0.2452  0.2160 -0.7258
  395SOL    HW1 1184   0.598   1.441   1.662 -0.6097 -0.8965  0.9631
  395SOL    HW2 1185   0.465   1.442   1.770  0.7162 -0.1825  0.9091
  396SOL     OW 1186   1.704   1.616   2.133  0.4121  0.1002 -0.1710
  396SOL    HW1 1187   1.739   1.598   2.228 -0.0476 -0.0020 -1.2956
  396SOL    HW2 1188   1.711   1.529   2.084  1.8700  0.8514  0.8543
  397SOL     OW 1189   0.635   0.586   2.729 -0.3080  0.8530  0.0179
  397SOL    HW1 1190   0.654   0.623   2.635  0.3024 -1.2586  1.9706
  397SOL    HW2 1191   0.535   0.581   2.750  0.0368  0.8058  0.3500
  398SOL     OW 1192   0.358   2.229   2.629 -0.8725  0.1069  0.2652
  398SOL    HW1 1193   0.450   2.233   2.600 -3.9121 -1.1143 -0.7453
  398SOL    HW2 1194   0.327   2.135   2.643 -2.4858 -0.3037 -1.7413
  399SOL     OW 1195   0.205   1.934   2.269  0.3162  0.3954 -0.1645
  399SOL    HW1 1196   0.261   1.926   2.179 -1.0418  0.7424 -0.4184
  399SOL    HW2 1197   0.149   1.848   2.284  1.4722  0.5936  2.6946
  400SOL     OW 1198   2.690   0.154   1.687  0.0555 -0.3040 -0.7553
  400SOL    HW1 1199   2.630   0.227   1.648  0.6614  0.4689  0.5113
  400SOL    HW2 1200   2.775   0.149   1.624  2.5061 -1.6093 -0.0053
  401SOL     OW 1201   0.830   1.640   0.240 -0.3160 -0.3019  0.1547
  401SOL    HW1 1202   0.917   1.642   0.287  2.2843 -0.4053 -2.3877
  401SOL    HW2 1203   0.764   1.578   0.282  0.0106 -1.1550  0.4357
  402SOL     OW 1204   0.203   2.557   2.064  0.2014  0.1925 -0.1039
  402SOL    HW1 1205   0.141   2.496   2.018 -2.4104  0.7979  0.0673
  402SOL    HW2 1206   0.218   2.538   2.164  2.8528 -0.5924 -1.5865
  403SOL     OW 1207   0.631   0.967   2.160 -0.4809  0.3376  0.2210
  403SOL    HW1 1208   0.736   0.946   2.176  3.7695 -0.9453  3.3277
  403SOL    HW2 1209   0.605   1.052   2.208  0.4231  1.5075 -0.4019
  404SOL     OW 1210   1.620   2.322   1.422 -0.4067 -0.6269 -0.0298
  404SOL    HW1 1211   1.650   2.357   1.334 -2.2119 -0.3571  2.4112
  404SOL    HW2 1212   1.602   2.223   1.424 -4.9576  0.8469 -1.4916
  405SOL     OW 1213   2.362   2.238   2.790  0.4803  0.4849 -0.1682
  405SOL    HW1 1214   2.347   2.261   2.691  0.2777 -1.0017  1.4007
  405SOL    HW2 1215   2.318   2.297   2.857 -0.6308 -0.1071 -1.0259
  406SOL     OW 1216   0.769   1.348   2.641 -0.2938 -0.7782 -0.4363
  406SOL    HW1 1217   0.721   1.317   2.724  0.0698 -0.8341  0.6555
  406SOL    HW2 1218   0.806   1.439   2.661 -3.6338 -1.3348  2.7536
  407SOL     OW 1219   2.320   2.750   2.698 -0.0649  0.2265 -0.3145
  407SOL    HW1 1220   2.419   2.758   2.683  0.6110  0.3286 -0.5902
  407SOL    HW2 1221   2.297   2.702   2.783 -0.4284  2.2643 -1.4095
  408SOL     OW 1222   2.667   2.522   0.261  0.3731 -0.4193 -0.3844
  408SOL    HW1 1223   2.699   2.458   0.186  0.3578 -0.9939 -1.3319
  408SOL    HW2 1224   2.568   2.502   0.289 -1.6521  1.1173 -0.2244
  409SOL     OW 1225   2.463   1.097   0.408  0.0164  0.5186 -0.3199
  409SOL    HW1 1226   2.507   1.175   0.453 -0.7105 -2.6940  0.6680
  409SOL    HW2 1227   2.363   1.103   0.407  1.6447  0.4296  0.7471
  410SOL     OW 1228   2.839   1.756   0.743  0.3756  0.1700 -0.6935
  410SOL    HW1 1229   2.779   1.684   0.706  1.2804  1.5078  1.6070
  410SOL    HW2 1230   2.841   1.739   0.840  0.0216 -1.0146 -0.4567
  411SOL     OW 1231   0.497   1.544   0.904 -0.1230  0.3851 -0.3881
  411SOL    HW1 1232   0.509   1.546   1.006  1.2312  2.2802 -1.0168
  411SOL    HW2 1233   0.558   1.475   0.864 -0.2570  0.2824  0.2676
  412SOL     OW 1234   2.199   2.278   0.650  0.3374  0.0603 -0.2077
  412SOL    HW1 1235   2.126   2.243   0.714 -1.0918 -1.7010  2.0066
  412SOL    HW2 1236   2.248   2.204   0.600 -1.1026  2.8812  2.3214
  413SOL     OW 1237   1.412   1.031   1.898 -0.3539 -0.7411  0.4241
  413SOL    HW1 1238   1.366   1.099   1.841 -1.9459 -1.2984  1.7580
  413SOL    HW2 1239   1.410   1.057   1.998  1.1282  0.8717  0.2127
  414SOL     OW 1240   2.944   2.784   0.200  0.0819 -0.0734  0.6107
  414SOL    HW1 1241   2.997   2.769   0.114 -2.1448 -2.1642  0.6897
  414SOL    HW2 1242   2.891   2.868   0.191  1.5779 -2.3763  2.6617
  415SOL     OW 1243   0.797   1.897   1.888  0.5926  0.2367 -0.1329
  415SOL    HW1 1244   0.784   1.998   1.895 -1.5955  0.3771 -1.1873
  415SOL    HW2 1245   0.860   1.869   1.963  0.2812  1.2678  0.3983
  416SOL     OW 1246   2.720   2.321   2.684  0.0541 -0.7735  0.0251
  416SOL    HW1 1247   2.821   2.290   2.679  0.1630 -3.8983 -0.0575
  416SOL    HW2 1248   2.698   2.381   2.760  0.8663  0.8462 -2.9237
  417SOL     OW 1249   2.519   0.328   1.432  0.2716 -0.2978  0.5510
  417SOL    HW1 1250   2.472   0.249   1.394  0.2963 -0.2429  0.1502
  417SOL    HW2 1251   2.612   0.332   1.392  0.5927 -1.1977  0.6160
  418SOL     OW 1252   2.783   3.040   0.135 -0.6947  0.3154  0.1206
  418SOL    HW1 1253   2.718   3.029   0.213  0.9681 -1.6066  3.8742
  418SOL    HW2 1254   2.752   2.995   0.049  0.4971 -1.0393 -2.6002
  419SOL     OW 1255   0.062   1.537   1.390  0.0781 -0.0777  0.1717
  419SOL    HW1 1256   3.069   1.489   1.423 -0.8070 -1.8636 -0.6690
  419SOL    HW2 1257   0.137   1.465   1.395 -2.0392  0.1660 -0.6049
  420SOL     OW 1258   0.261   1.379   0.014 -0.0213 -0.1961  0.2168
  420SOL    HW1 1259   0.290   1.364   0.108  0.0819  1.4506 -1.0411
  420SOL    HW2 1260   0.333   1.402   3.033  2.6308  0.2166 -1.2131
  421SOL     OW 1261   2.323   2.314   2.510 -0.0357 -0.0085 -0.1138
  421SOL    HW1 1262   2.225   2.284   2.501  0.0223 -0.1527 -3.0091
  421SOL    HW2 1263   2.337   2.401   2.458 -0.6928 -2.0734  1.5123
  422SOL     OW 1264   0.273   0.847   2.577 -0.0812  0.2214 -0.2861
  422SOL    HW1 1265   0.346   0.901   2.529  1.5860  0.5646 -0.4555
  422SOL    HW2 1266   0.181   0.874   2.537 -2.0166  0.1640 -1.7581
  423SOL     OW 1267   1.385   2.279   0.558 -0.8428  0.5650  1.0343
  423SOL    HW1 1268   1.319   2.331   0.609  0.8035 -4.0019 -2.5976
  423SOL    HW2 1269   1.362   2.281   0.462  1.5076 -3.1255  1.1880
  424SOL     OW 1270   1.067   1.595   1.853 -0.7647 -0.2381  0.3547
  424SOL    HW1 1271   1.079   1.610   1.951  0.1848  1.0335  0.5047
  424SOL    HW2 1272   1.058   1.500   1.827  0.6984  2.6360 -1.3938
  425SOL     OW 1273   2.590   2.196   2.460 -0.4565  0.2199 -0.3188
  425SOL    HW1 1274   2.660   2.226   2.527  0.0836 -0.1424 -0.6564
  425SOL    HW2 1275   2.498   2.226   2.487  2.2827 -2.5029 -1.9293
  426SOL     OW 1276   1.603   0.770   0.912 -0.2154 -0.5039 -0.1597
  426SOL    HW1 1277   1.550   0.771   0.824 -1.2835  0.8595 -0.9076
  426SOL    HW2 1278   1.659   0.858   0.926  1.3695  1.4804 -0.5860
  427SOL     OW 1279   0.299   1.613   2.562 -0.3392  0.2272  0.1955
  427SOL    HW1 1280   0.278   1.716   2.565 -1.5548  1.0459 -0.6453
  427SOL    HW2 1281   0.264   1.568   2.642 -1.6338  1.2455 -1.5681
  428SOL     OW 1282   1.071   1.580   0.353  0.5004 -0.0336  0.6954
  428SOL    HW1 1283   1.117   1.650   0.414  0.6828  0.6627  0.7148
  428SOL    HW2 1284   1.069   1.496   0.401  1.0335  0.7581 -0.6903
  429SOL     OW 1285   0.196   2.428   0.133 -0.0690  0.0023  0.1742
  429SOL    HW1 1286   0.133   2.390   0.203 -3.5966  0.5647 -0.3397
  429SOL    HW2 1287   0.293   2.399   0.135 -2.0586 -1.4898 -1.3914
  430SOL     OW 1288   0.570   2.462   2.198 -0.2869 -0.6242 -0.6225
  430SOL    HW1 1289   0.499   2.492   2.266 -1.8541 -0.6749  1.5791
  430SOL    HW2 1290   0.521   2.427   2.113  0.8312  0.7868  0.9184
  431SOL     OW 1291   2.938   1.088   0.385  0.0290  0.2359  0.4295
  431SOL    HW1 1292   3.021   1.032   0.376  0.9315  1.7786  1.3809
  431SOL    HW2 1293   2.855   1.030   0.385  0.1955 -2.3144 -0.0358
  432SOL     OW 1294   1.600   2.445   2.756  0.9786 -0.7073 -0.6389
  432SOL    HW1 1295   1.692   2.413   2.777  3.2411  1.8708 -2.1455
  432SOL    HW2 1296   1.596   2.548   2.741 -0.3397  3.4779 -0.4859
  433SOL     OW 1297   0.977   2.274   0.951  0.3394  0.5894 -0.0014
  433SOL    HW1 1298   0.877   2.248   0.952  0.2761  0.5385  0.5262
  433SOL    HW2 1299   0.981   2.375   0.948 -1.8135 -1.1422  2.1249
  434SOL     OW 1300   1.631   1.815   2.367  0.1985 -0.1278 -0.3031
  434SOL    HW1 1301   1.685   1.873   2.433 -1.8586  0.8498  2.2186
  434SOL    HW2 1302   1.672   1.720   2.362  1.1754 -1.6536 -0.9154
  435SOL     OW 1303   2.335   0.582   0.216 -0.2562  0.1035 -0.0022
  435SOL    HW1 1304   2.399   0.652   0.253 -2.3515 -0.2456 -0.5151
  435SOL    HW2 1305   2.242   0.588   0.256  1.3163 -1.7368  0.5741
  436SOL     OW 1306   0.391   2.616   2.386 -0.1699 -0.3859  0.2136
  436SOL    HW1 1307   0.305   2.563   2.357 -1.1690 -0.3258 -0.4994
  436SOL    HW2 1308   0.419   2.585   2.478  2.6836 -0.4257  0.5012
  437SOL     OW 1309   2.015   2.927   1.596 -0.1418 -0.1434  0.1707
  437SOL    HW1 1310   2.050   2.933   1.504 -2.1263  0.3663  1.6038
  437SOL    HW2 1311   1.914   2.954   1.595 -1.0391  0.1392  1.9208
  438SOL     OW 1312   0.223   1.716   0.473  0.5647 -0.0892 -0.4820
  438SOL    HW1 1313   0.322   1.731   0.482  0.0900  1.3710  2.8001
  438SOL    HW2 1314   0.168   1.799   0.490 -0.8791 -1.5672 -0.6456
  439SOL     OW 1315   0.074   2.986   0.983 -0.3729 -0.8223 -0.0947
  439SOL    HW1 1316   0.056   3.070   0.928  0.5458  2.8104 -2.1574
  439SOL    HW2 1317   0.067   2.904   0.928  1.1360  2.3408  2.9032
  440SOL     OW 1318   2.555   2.665   2.408 -0.0663  0.9462  0.2071
  440SOL    HW1 1319   2.649   2.674   2.370  0.8898  0.4765 -1.7196
  440SOL    HW2 1320   2.555   2.608   2.491  0.7232 -0.5720 -3.1358
  441SOL     OW 1321   3.092   0.797   0.397  0.9949 -0.3405 -0.7259
  441SOL    HW1 1322   0.092   0.781   0.428 -1.9414 -0.5669 -0.6312
  441SOL    HW2 1323   3.027   0.775   0.477 -1.6761 -0.9530  1.0083
  442SOL     OW 1324   1.574   2.252   2.369 -0.0534 -0.4425  0.3404
  442SOL    HW1 1325   1.631   2.225   2.451  2.2524  1.8131 -0.6578
  442SOL    HW2 1326   1.567   2.356   2.377  0.2968  2.3366  0.8060
  443SOL     OW 1327   0.825   3.057   2.837  0.2958  0.5054  0.1892
  443SOL    HW1 1328   0.871   3.054   2.745 -1.1887  0.3069 -0.7401
  443SOL    HW2 1329   0.806   2.960   2.865 -0.0074 -0.5769 -1.8132
  444SOL     OW 1330   1.504   1.713   2.772 -0.1419  0.2148 -0.4220
  444SOL    HW1 1331   1.401   1.711   2.779 -0.9645 -0.8644  0.3365
  444SOL    HW2 1332   1.541   1.634   2.720 -0.5609 -1.6802 -0.3031
  445SOL     OW 1333   0.234   0.168   1.018 -0.2531  0.2093 -0.0717
  445SOL    HW1 1334   0.159   0.165   0.948 -1.1996  0.8308 -0.7105
  445SOL    HW2 1335   0.310   0.105   0.984 -0.6218  1.2743  0.4543
  446SOL     OW 1336   1.867   0.962   0.700  0.1867  0.4513  0.3348
  446SOL    HW1 1337   1.848   0.951   0.802 -0.9571  0.1621  1.0917
  446SOL    HW2 1338   1.951   0.917   0.681 -1.2771  0.2644  1.3456
  447SOL     OW 1339   3.027   0.555   0.245 -0.8459  0.2174  0.6621
  447SOL    HW1 1340   2.928   0.522   0.240 -3.3385  1.5728  0.1947
  447SOL    HW2 1341   3.038   0.639   0.302 -0.4654 -0.2197 -0.2980
  448SOL     OW 1342   2.386   1.984   1.060  0.3262 -0.5771  0.1746
  448SOL    HW1 1343   2.403   1.922   1.139 -0.4585  2.2628 -1.9314
  448SOL    HW2 1344   2.438   2.072   1.083 -0.1204  1.0872  1.0196
  449SOL     OW 1345   0.831   1.413   2.984  0.1963 -0.2822 -0.0520
  449SOL    HW1 1346   0.916   1.412   2.930 -0.7133 -1.2450  0.8954
  449SOL    HW2 1347   0.818   1.505   3.029 -0.1179  0.7635 -1.6734
  450SOL     OW 1348   2.140   2.738   2.499  0.0251  0.3670 -0.3432
  450SOL    HW1 1349   2.177   2.774   2.410  1.0742 -1.2651 -1.5016
  450SOL    HW2 1350   2.210   2.746   2.575  1.5478  2.0464  3.0632
  451SOL     OW 1351   2.323   0.882   2.459 -0.3007  0.0401 -0.2473
  451SOL    HW1 1352   2.409   0.912   2.417  1.1512 -1.8387  1.2176
  451SOL    HW2 1353   2.246   0.859   2.394  1.0180  3.3941 -0.4414
  452SOL     OW 1354   1.735   1.356   1.227  0.0445 -0.4039 -0.6632
  452SOL    HW1 1355   1.824   1.402   1.252  0.7535 -1.2707  1.0451
  452SOL    HW2 1356   1.663   1.395   1.287  1.1589 -0.7254  0.2118
  453SOL     OW 1357   1.703   0.419   1.811  0.3940 -0.1973  0.5616
  453SOL    HW1 1358   1.702   0.372   1.902  0.1170 -0.2413  0.3340
  453SOL    HW2 1359   1.673   0.352   1.738 -0.3297 -3.4989  0.9568
  454SOL     OW 1360   3.090   0.962   3.069 -0.0318 -0.1196 -0.2767
  454SOL    HW1 1361   3.085   0.982   2.966 -1.3509  1.6988 -1.8640
  454SOL    HW2 1362   3.085   0.864   3.091  0.3698  0.8833 -0.1132
  455SOL     OW 1363   2.359   1.762   1.560  0.3562  1.1428  0.2066
  455SOL    HW1 1364   2.385   1.700   1.483  1.0272  3.9536 -2.4281
  455SOL    HW2 1365   2.291   1.710   1.617 -0.9035  0.5134 -2.6360
  456SOL     OW 1366   1.632   2.782   1.679 -0.6579 -0.3692  0.2971
  456SOL    HW1 1367   1.670   2.695   1.638 -2.2198  0.4517  0.2242
  456SOL    HW2 1368   1.685   2.858   1.640  0.1238 -1.5057  2.0060
  457SOL     OW 1369   1.407   0.271   0.359  0.0531 -0.6554  0.1266
  457SOL    HW1 1370   1.497   0.281   0.407  1.7373 -0.0951 -0.7479
  457SOL    HW2 1371   1.339   0.215   0.411  0.4435 -0.5270 -0.7477
  458SOL     OW 1372   2.953   3.009   0.561 -0.0546 -0.2536  0.0932
  458SOL    HW1 1373   2.948   2.913   0.598  1.1025 -0.1474 -1.0875
  458SOL    HW2 1374   3.027   3.013   0.485  1.3543 -2.9213  0.0187
  459SOL     OW 1375   2.097   1.178   0.601 -0.1237 -0.1577  0.1015
  459SOL    HW1 1376   2.107   1.075   0.611  1.1942 -3.2620  0.3131
  459SOL    HW2 1377   2.002   1.216   0.614  1.3060 -0.2846 -1.4759
  460SOL     OW 1378   0.893   2.570   2.498 -0.2097  0.3197  0.1100
  460SOL    HW1 1379   0.958   2.645   2.488  0.6387  0.6503  1.8791
  460SOL    HW2 1380   0.922   2.517   2.585  0.0396  0.4589  0.3916
  461SOL     OW 1381   0.509   1.656   3.066 -0.4578 -0.4152 -0.0971
  461SOL    HW1 1382   0.491   1.626   2.969  1.7991  0.4627  0.1767
  461SOL    HW2 1383   0.422   1.661   0.020  1.5176 -0.9248 -0.2588
  462SOL     OW 1384   2.385   2.167   0.383 -0.6353  0.3791 -0.4800
  462SOL    HW1 1385   2.393   2.132   0.481  0.1565 -0.6657  0.0176
  462SOL    HW2 1386   2.382   2.087   0.322 -0.3471  1.0167  1.3631
  463SOL     OW 1387   2.792   0.429   0.233 -0.6135 -0.0898  0.4858
  463SOL    HW1 1388   2.695   0.418   0.199 -2.8932 -1.0454  0.2812
  463SOL    HW2 1389   2.843   0.347   0.207  2.3857  2.1263 -1.0906
  464SOL     OW 1390   0.597   1.330   0.734 -0.6177 -0.4014  0.2760
  464SOL    HW1 1391   0.597   1.256   0.796 -1.3498  1.7950 -2.2773
  464SOL    HW2 1392   0.691   1.343   0.705 -1.9845 -0.3283  0.6518
  465SOL     OW 1393   2.134   0.110   1.446  0.2988 -0.2398  0.1383
  465SOL    HW1 1394   2.088   0.075   1.360  0.1306 -0.0883 -0.3854
  465SOL    HW2 1395   2.081   0.179   1.495 -1.3307 -0.8720  1.4026
  466SOL     OW 1396   2.204   3.056   0.749  1.1933 -0.5131 -0.0556
  466SOL    HW1 1397   2.214   2.957   0.728  1.5243 -1.9595 -2.9914
  466SOL    HW2 1398   2.289   0.013   0.768  0.3677  0.0676 -1.0482
  467SOL     OW 1399   2.924   0.892   2.185 -0.2401  0.2621 -0.3360
  467SOL    HW1 1400   2.884   0.814   2.230  1.9878  2.2774  0.3833
  467SOL    HW2 1401   2.856   0.967   2.191 -2.4048 -0.3704 -0.9223
  468SOL     OW 1402   2.815   0.338   2.290  0.3468 -0.4129 -0.2138
  468SOL    HW1 1403   2.814   0.311   2.388  0.6384  3.1081  0.4570
  468SOL    HW2 1404   2.908   0.324   2.258  1.5884  1.8202 -2.1765
  469SOL     OW 1405   0.741   0.021   1.516  0.3711 -0.1153  0.8426
  469SOL    HW1 1406   0.789   0.112   1.523 -1.2676  1.2852  0.5558
  469SOL    HW2 1407   0.641   0.033   1.499  0.3415  0.0495  1.9870
  470SOL     OW 1408   2.663   0.860   1.483  0.2785 -0.0550 -0.8363
  470SOL    HW1 1409   2.757   0.871   1.445 -0.3029 -3.5798 -0.2320
  470SOL    HW2 1410   2.663   0.900   1.576  0.7619  0.7284  2.4652
  471SOL     OW 1411   2.941   1.509   2.841 -0.3594  0.2123 -0.2268
  471SOL    HW1 1412   2.996   1.520   2.924 -0.9442  1.1699 -1.9613
  471SOL    HW2 1413   2.896   1.603   2.825  0.4437  2.6243 -1.1935
  472SOL     OW 1414   0.897   1.849   0.490 -0.0258  0.0648 -0.2549
  472SOL    HW1 1415   0.861   1.875   0.582 -1.1798 -1.4410  1.3313
  472SOL    HW2 1416   0.827   1.879   0.421  1.9113  1.5018  2.5225
  473SOL     OW 1417   1.400   2.134   2.158  0.1870  0.2309 -0.0202
  473SOL    HW1 1418   1.477   2.069   2.143  2.8741  1.5580 -2.0024
  473SOL    HW2 1419   1.400   2.175   2.250  1.7471 -1.1668 -0.2423
  474SOL     OW 1420   0.715   2.855   2.542  0.5553 -0.1104 -0.0901
  474SOL    HW1 1421   0.748   2.801   2.622 -2.2022  1.7580  2.8358
  474SOL    HW2 1422   0.671   2.940   2.574  1.8695  0.4831  1.4133
  475SOL     OW 1423   0.886   2.133   2.670  0.0430 -0.1861 -0.0398
  475SOL    HW1 1424   0.848   2.051   2.715  0.1770  1.1279  2.6565
  475SOL    HW2 1425   0.970   2.159   2.720 -2.3417 -0.1253  1.6449
  476SOL     OW 1426   0.618   0.497   0.908  0.0213 -0.9905  0.3180
  476SOL    HW1 1427   0.562   0.540   0.977 -1.3777  0.8112  0.6294
  476SOL    HW2 1428   0.555   0.494   0.826  1.6036  0.3942 -1.2494
  477SOL     OW 1429   1.800   2.342   1.190  0.1537  0.0239 -0.3268
  477SOL    HW1 1430   1.788   2.443   1.173 -0.5779  0.5295  0.2664
  477SOL    HW2 1431   1.896   2.311   1.173 -0.9021 -1.8867  0.3779
  478SOL     OW 1432   0.223   0.367   2.614  0.0592  0.3385 -0.2509
  478SOL    HW1 1433   0.189   0.306   2.685 -0.3804  0.4814 -1.2767
  478SOL    HW2 1434   0.260   0.453   2.650  2.9823 -0.2570 -0.9013
  479SOL     OW 1435   0.940   0.508   1.148 -0.2703  0.2251 -0.3380
  479SOL    HW1 1436   0.891   0.560   1.218  4.7586 -1.5130  0.3307
  479SOL    HW2 1437   1.023   0.558   1.122 -0.3057  1.8434  2.4904
  480SOL     OW 1438   2.756   2.373   0.059 -0.5517 -0.1652 -0.0794
  480SOL    HW1 1439   2.670   2.333   0.018  0.0783 -2.4256 -0.8274
  480SOL    HW2 1440   2.824   2.395   3.075  1.1960 -0.3261 -1.7423
  481SOL     OW 1441   3.058   0.429   1.467 -0.4512  0.8630  0.2510
  481SOL    HW1 1442   3.091   0.375   1.544 -0.5152  2.5965 -1.3921
  481SOL    HW2 1443   2.974   0.480   1.495  0.7870  0.0166 -2.2207
  482SOL     OW 1444   0.837   3.069   1.263  0.1795 -0.0627 -0.1965
  482SOL    HW1 1445   0.804   3.082   1.357  1.0770  0.9629 -1.0239
  482SOL    HW2 1446   0.762   3.025   1.208  1.2453 -1.5160 -1.0624
  483SOL     OW 1447   0.024   1.312   2.469 -0.0875  0.4609  0.2471
  483SOL    HW1 1448   0.019   1.239   2.399  0.4254 -0.5681 -1.4837
  483SOL    HW2 1449   3.029   1.319   2.521 -0.1809 -1.2711 -1.2320
  484SOL     OW 1450   1.569   1.425   1.668 -0.4378  0.0926 -0.5117
  484SOL    HW1 1451   1.492   1.435   1.735 -2.6498 -2.2370 -0.4571
  484SOL    HW2 1452   1.633   1.343   1.676 -0.5133  0.1245 -0.7235
  485SOL     OW 1453   0.032   2.732   2.502 -0.1795 -0.4809 -0.0095
  485SOL    HW1 1454   0.095   2.701   2.579  1.5225  1.3268  2.0056
  485SOL    HW2 1455   0.085   2.767   2.419  0.3878  1.7248 -1.2028
  486SOL     OW 1456   1.252   2.952   0.869  0.0794 -0.2201 -0.0270
  486SOL    HW1 1457   1.237   3.023   0.794  2.3016 -0.4345  1.9458
  486SOL    HW2 1458   1.242   2.860   0.833  1.3047  1.3076  3.1586
  487SOL     OW 1459   1.331   0.381   1.032 -0.2189  0.1393  0.5048
  487SOL    HW1 1460   1.400   0.376   1.108 -0.2502  0.9316  0.0471
  487SOL    HW2 1461   1.254   0.310   1.037  0.7302 -0.7318 -2.2800
  488SOL     OW 1462   2.504   1.048   0.759  0.0291  0.1533 -0.0489
  488SOL    HW1 1463   2.489   1.147   0.763  0.4284 -1.6539 -0.4911
  488SOL    HW2 1464   2.491   1.002   0.850  1.7150 -1.4291  3.4175
  489SOL     OW 1465   1.232   0.659   1.330  0.0572 -0.4738 -0.2992
  489SOL    HW1 1466   1.332   0.675   1.344 -1.6978 -1.6566 -1.5485
  489SOL    HW2 1467   1.197   0.703   1.244 -0.3736 -1.3877  1.1262
  490SOL     OW 1468   1.056   0.768   2.745  0.4516 -0.0055 -0.0644
  490SOL    HW1 1469   1.142   0.769   2.803  1.1718 -0.7556  0.3162
  490SOL    HW2 1470   0.974   0.749   2.804 -0.8316 -1.1162  0.4081
  491SOL     OW 1471   0.693   2.306   0.916  0.5930  0.1419  0.2948
  491SOL    HW1 1472   0.630   2.294   0.839  1.0718  1.8209 -1.3926
  491SOL    HW2 1473   0.645   2.296   1.005  2.3066 -3.0275 -0.1363
  492SOL     OW 1474   1.279   1.685   1.702  0.3232 -0.2223  0.2399
  492SOL    HW1 1475   1.182   1.665   1.735 -0.9334  0.1399  1.3902
  492SOL    HW2 1476   1.334   1.687   1.786  0.3516  0.7886  0.2762
  493SOL     OW 1477   0.650   1.518   0.379 -0.2729 -0.4309  0.5871
  493SOL    HW1 1478   0.678   1.515   0.478 -1.0508 -1.5949 -0.6698
  493SOL    HW2 1479   0.618   1.425   0.352  0.7315  0.3420 -1.4557
  494SOL     OW 1480   1.948   2.862   0.652 -0.4061  0.1789 -0.3736
  494SOL    HW1 1481   1.883   2.810   0.711  1.2305  0.4189 -1.1915
  494SOL    HW2 1482   2.044   2.837   0.675  2.6400 -0.6963  0.0361
  495SOL     OW 1483   0.236   1.425   2.322  0.2615  0.2635 -0.1432
  495SOL    HW1 1484   0.160   1.374   2.372 -0.4783 -0.9095 -0.8857
  495SOL    HW2 1485   0.293   1.489   2.375  0.2412 -0.6700 -0.2202
  496SOL     OW 1486   0.495   2.348   2.834  0.1731  0.4864  0.4393
  496SOL    HW1 1487   0.594   2.346   2.824 -2.4163  0.3235 -2.7227
  496SOL    HW2 1488   0.453   2.318   2.750 -0.0201  1.5133  3.1543
  497SOL     OW 1489   1.837   1.435   0.439 -0.1269  0.9990  0.4183
  497SOL    HW1 1490   1.759   1.507   0.443 -0.4482 -0.5092  4.1857
  497SOL    HW2 1491   1.814   1.359   0.501  0.4465  1.7421 -0.5171
  498SOL     OW 1492   2.892   2.581   0.365  0.5023  0.5520 -0.3225
  498SOL    HW1 1493   2.923   2.652   0.306 -1.0118  0.9690  2.8823
  498SOL    HW2 1494   2.804   2.539   0.333 -0.4858  0.2155 -0.5339
  499SOL     OW 1495   2.227   2.803   0.669 -0.2882  0.0131 -0.1639
  499SOL    HW1 1496   2.256   2.815   0.571 -0.9715 -0.8014 -0.2412
  499SOL    HW2 1497   2.265   2.713   0.712  0.3182 -0.3364 -0.3650
  500SOL     OW 1498   0.124   0.450   2.365  0.4668 -0.4610 -0.2065
  500SOL    HW1 1499   0.076   0.536   2.399  0.0095  0.7112  0.4373
  500SOL    HW2 1500   0.158   0.402   2.448 -0.1952 -2.4197  1.1063
  501SOL     OW 1501   1.760   2.575   1.585 -0.2788 -0.5835 -0.9688
  501SOL    HW1 1502   1.854   2.605   1.573 -1.7019 -1.9019 -1.4665
  501SOL    HW2 1503   1.752   2.490   1.537  0.2030  0.7918 -1.7565
  502SOL     OW 1504   2.923   3.088   2.643  0.0290  0.3998 -0.2717
  502SOL    HW1 1505   3.014   0.023   2.602 -0.4944  0.4595 -2.1161
  502SOL    HW2 1506   2.929   2.996   2.683 -0.3737 -2.5549  4.0461
  503SOL     OW 1507   2.021   2.490   2.186  0.0088 -0.0356 -0.0780
  503SOL    HW1 1508   1.987   2.559   2.256 -0.5461  1.3098 -0.9966
  503SOL    HW2 1509   1.980   2.403   2.211  2.7754  0.2007 -0.8372
  504SOL     OW 1510   2.033   0.384   1.943 -0.2998  0.0669 -0.3467
  504SOL    HW1 1511   1.992   0.301   1.907  0.2049  1.2019  1.6619
  504SOL    HW2 1512   2.072   0.445   1.866 -2.5200 -0.6781 -5.6021
  505SOL     OW 1513   2.666   1.569   1.088 -0.3888  0.3957  0.1036
  505SOL    HW1 1514   2.756   1.606   1.056 -1.9592  0.6125  1.4420
  505SOL    HW2 1515   2.643   1.618   1.172 -1.8076 -1.0768 -2.1847
  506SOL     OW 1516   0.156   1.627   1.896 -0.4034 -0.2273 -0.0944
  506SOL    HW1 1517   0.187   1.657   1.806  0.4474  0.1205 -0.0227
  506SOL    HW2 1518   0.143   1.711   1.953 -1.3049 -3.2730  0.5737
  507SOL     OW 1519   0.662   2.310   1.389  0.2607 -0.0375  0.1160
  507SOL    HW1 1520   0.748   2.353   1.352  2.4483  1.5430 -0.7590
  507SOL    HW2 1521   0.612   2.380   1.446 -0.9720  1.8456 -0.0710
  508SOL     OW 1522   0.277   0.534   2.145  0.0719 -0.2473 -0.2109
  508SOL    HW1 1523   0.368   0.581   2.161 -2.2808  1.2100  1.2730
  508SOL    HW2 1524   0.234   0.503   2.232 -0.1706  1.1207 -0.8950
  509SOL     OW 1525   1.460   2.461   2.090  0.2648 -0.4662  0.1268
  509SOL    HW1 1526   1.374   2.414   2.081  2.1039 -1.0364  1.6829
  509SOL    HW2 1527   1.515   2.463   2.002 -1.1275  1.1825  0.7714
  510SOL     OW 1528   2.220   1.374   2.440  0.7447  0.1573  0.3516
  510SOL    HW1 1529   2.250   1.427   2.521  1.4241  3.0382 -0.5123
  510SOL    HW2 1530   2.218   1.272   2.457 -0.4626 -0.5861  3.2169
  511SOL     OW 1531   1.127   0.990   1.063  0.2246  0.0869  0.6588
  511SOL    HW1 1532   1.214   1.024   1.103  0.5635 -2.8044  0.5303
  511SOL    HW2 1533   1.098   1.031   0.973 -3.1355 -1.5351 -0.3805
  512SOL     OW 1534   0.009   1.675   0.705 -0.6283 -0.0241  0.2328
  512SOL    HW1 1535   3.006   1.707   0.716  0.7133 -2.6734  1.3778
  512SOL    HW2 1536   0.063   1.730   0.639 -0.2914  0.6778 -2.4858
  513SOL     OW 1537   1.262   2.189   2.423 -0.3832 -0.1286  0.6055
  513SOL    HW1 1538   1.310   2.196   2.511 -1.5188 -2.1515 -0.3315
  513SOL    HW2 1539   1.247   2.277   2.374  2.4758  2.4481 -1.2498
  514SOL     OW 1540   0.285   2.150   1.129  0.4736 -0.0115  0.1026
  514SOL    HW1 1541   0.253   2.176   1.220  4.4554  0.6659 -3.2550
  514SOL    HW2 1542   0.225   2.081   1.087  0.0352 -0.2016 -1.5665
  515SOL     OW 1543   1.670   0.630   1.498  0.3236  0.3170 -0.1115
  515SOL    HW1 1544   1.663   0.730   1.516 -1.2182  0.1698  1.9093
  515SOL    HW2 1545   1.587   0.593   1.549 -0.9766  0.4210 -1.8820
  516SOL     OW 1546   2.263   0.504   3.069  0.2549  0.2704 -0.2961
  516SOL    HW1 1547   2.282   0.405   3.049  1.8039 -1.5499 -0.6437
  516SOL    HW2 1548   2.297   0.524   0.072  0.1755 -0.5809  1.1046
  517SOL     OW 1549   1.009   1.691   2.949 -0.3885  0.0472  0.4604
  517SOL    HW1 1550   1.060   1.643   3.028  2.3091 -2.2572  0.9069
  517SOL    HW2 1551   0.912   1.694   2.975  2.1413 -0.1760  0.3106
  518SOL     OW 1552   1.294   2.592   1.804  0.2225  0.0532  0.3185
  518SOL    HW1 1553   1.290   2.667   1.733  1.4879  3.1869  0.4387
  518SOL    HW2 1554   1.379   2.534   1.802  0.0016 -2.7779 -1.1809
  519SOL     OW 1555   2.020   3.075   0.946  0.2151  0.7476 -0.6365
  519SOL    HW1 1556   2.079   3.037   0.870  1.6440 -3.4121  0.0483
  519SOL    HW2 1557   1.924   3.032   0.935 -0.7690 -2.0275 -0.7313
  520SOL     OW 1558   2.755   1.584   2.189  0.5136 -0.4760  0.0554
  520SOL    HW1 1559   2.786   1.573   2.090  2.3769  2.1910 -0.4218
  520SOL    HW2 1560   2.672   1.638   2.192  1.6858 -0.0815  1.8901
  521SOL     OW 1561   2.713   0.544   3.004 -0.2064 -0.0936  0.0428
  521SOL    HW1 1562   2.681   0.582   2.913 -0.9224 -0.6730 -2.2621
  521SOL    HW2 1563   2.778   0.467   2.993 -1.4507 -0.4567  0.1372
  522SOL     OW 1564   0.779   0.985   2.739  0.0558  0.4507 -0.6038
  522SOL    HW1 1565   0.787   0.887   2.712  2.5146  1.8062 -1.2107
  522SOL    HW2 1566   0.792   1.043   2.655 -0.0072 -0.5260 -0.1034
  523SOL     OW 1567   0.321   2.373   0.420  0.3828  0.4558 -0.2509
  523SOL    HW1 1568   0.320   2.454   0.483 -2.5936 -2.0055 -1.0439
  523SOL    HW2 1569   0.277   2.298   0.474 -1.3812 -1.1409  0.5896
  524SOL     OW 1570   2.062   2.504   2.851 -0.3711  0.1216 -0.7723
  524SOL    HW1 1571   2.079   2.499   2.756  0.9170  1.4625  3.8420
  524SOL    HW2 1572   2.123   2.568   2.903 -0.9250  1.1308 -0.0584
  525SOL     OW 1573   2.597   0.639   1.693  0.3555 -0.2641  0.5145
  525SOL    HW1 1574   2.653   0.701   1.635  1.3645  1.0009  0.3050
  525SOL    HW2 1575   2.586   0.678   1.790  0.7826  0.7313  2.0991
  526SOL     OW 1576   1.158   0.104   0.457  0.6441 -0.3621  0.0812
  526SOL    HW1 1577   1.102   0.024   0.432  4.0000 -0.4931 -0.5657
  526SOL    HW2 1578   1.121   0.195   0.442  3.5759 -0.7850  0.7123
  527SOL     OW 1579   2.092   0.141   0.576  0.0132  0.4644 -0.5109
  527SOL    HW1 1580   2.118   0.086   0.657 -1.3775 -1.5875 -0.4326
  527SOL    HW2 1581   2.131   0.104   0.489 -1.0593 -0.6070  0.1779
  528SOL     OW 1582   1.714   1.158   2.712 -0.5013  0.1319  0.3455
  528SOL    HW1 1583   1.716   1.067   2.755 -2.3994  0.5975 -0.4135
  528SOL    HW2 1584   1.643   1.155   2.641 -1.9221  0.0087 -0.7351
  529SOL     OW 1585   1.746   1.368   1.952 -0.1506 -0.3762 -0.3067
  529SOL    HW1 1586   1.672   1.323   2.001 -1.6400  1.1764 -2.2583
  529SOL    HW2 1587   1.749   1.322   1.857 -1.6421 -1.3276 -4.8995
  530SOL     OW 1588   2.245   2.666   2.947 -0.3003 -0.1039 -0.4880
  530SOL    HW1 1589   2.303   2.594   3.003  2.4273 -1.3430 -0.3758
  530SOL    HW2 1590   2.267   2.756   2.987 -0.0792 -0.0083  1.3970
  531SOL     OW 1591   1.858   1.570   3.001 -0.4142  0.3320 -0.0308
  531SOL    HW1 1592   1.867   1.478   3.042  3.8227  2.7300 -2.3826
  531SOL    HW2 1593   1.882   1.562   2.900 -1.0972 -0.5761 -2.4026
  532SOL     OW 1594   1.471   0.281   1.274  0.0448 -0.0560  0.8070
  532SOL    HW1 1595   1.548   0.348   1.289  0.8992 -1.1784  0.7073
  532SOL    HW2 1596   1.403   0.297   1.345  2.1231 -0.1492 -2.3143
  533SOL     OW 1597   0.688   0.763   0.007 -0.6069  0.2856 -0.2751
  533SOL    HW1 1598   0.650   0.795   0.098  1.3258 -0.6121 -0.7084
  533SOL    HW2 1599   0.668   0.825   3.021  4.5674 -0.0225 -0.1247
  534SOL     OW 1600   1.718   0.914   2.830  0.7956 -0.4571 -0.1970
  534SOL    HW1 1601   1.774   0.839   2.795 -0.5295  1.2255  1.0147
  534SOL    HW2 1602   1.737   0.922   2.930  0.8346  1.3211  1.5053
  535SOL     OW 1603   0.761   2.273   2.896  0.3965  0.6231  0.3261
  535SOL    HW1 1604   0.756   2.307   2.989 -1.4282 -1.0468 -0.3284
  535SOL    HW2 1605   0.808   2.184   2.894  0.0608  0.9400  2.1611
  536SOL     OW 1606   0.842   0.078   0.231  0.4027  0.0094 -0.7648
  536SOL    HW1 1607   0.798   0.157   0.276 -2.0836  0.2987 -2.6100
  536SOL    HW2 1608   0.777   0.031   0.165  0.7106  0.5378  0.4104
  537SOL     OW 1609   1.895   0.212   3.071 -0.3204  0.1958 -0.1482
  537SOL    HW1 1610   1.816   0.217   0.042  2.4248  1.2096 -0.1790
  537SOL    HW2 1611   1.940   0.303   3.071 -1.3804  1.9686 -0.2471
  538SOL     OW 1612   2.416   2.516   0.009  0.8159 -0.3872  0.1968
  538SOL    HW1 1613   2.353   2.432   3.088 -2.2950 -1.9932  0.5246
  538SOL    HW2 1614   2.446   2.524   0.106 -2.8795 -0.3815 -1.1205
  539SOL     OW 1615   2.659   1.383   3.034 -0.4464 -0.5050  0.2367
  539SOL    HW1 1616   2.727   1.312   3.023 -0.1063  2.5925 -2.0395
  539SOL    HW2 1617   2.614   1.377   0.029  0.3330  1.1928 -0.1340
  540SOL     OW 1618   1.074   2.672   2.145 -0.1060  0.3576  0.1747
  540SOL    HW1 1619   1.032   2.718   2.063 -1.4054  0.2799  0.7858
  540SOL    HW2 1620   1.110   2.580   2.121 -2.1442  1.1437 -1.2221
  541SOL     OW 1621   2.286   3.042   2.398  0.2194 -0.1349 -0.1112
  541SOL    HW1 1622   2.242   0.031   2.438  3.0204 -0.1944 -0.5908
  541SOL    HW2 1623   2.376   3.017   2.441  1.3502 -0.7860  3.0801
  542SOL     OW 1624   0.672   0.516   0.151  0.4164  0.6175 -0.0522
  542SOL    HW1 1625   0.630   0.424   0.132 -0.9666 -1.6204  0.3723
  542SOL    HW2 1626   0.636   0.589   0.088 -0.1940 -0.3772  3.3715
  543SOL     OW 1627   0.240   0.824   0.809  0.7864 -0.2985 -0.0773
  543SOL    HW1 1628   0.150   0.871   0.839 -2.6172  0.2540  0.5916
  543SOL    HW2 1629   0.316   0.886   0.836 -0.1469 -0.5924 -2.2263
  544SOL     OW 1630   2.343   0.547   1.293 -0.3099 -1.1336 -0.2064
  544SOL    HW1 1631   2.317   0.454   1.261 -0.6778  1.5517 -0.0654
  544SOL    HW2 1632   2.430   0.586   1.262 -2.1763 -1.2966 -2.8363
  545SOL     OW 1633   1.111   1.589   0.074 -0.5154  0.4089  0.0997
  545SOL    HW1 1634   1.083   1.600   0.171 -1.5834  0.6877  1.2866
  545SOL    HW2 1635   1.159   1.500   0.058  0.7029 -2.7676  0.9354
  546SOL     OW 1636   2.369   2.871   1.510  0.1044 -0.2403 -0.3789
  546SOL    HW1 1637   2.288   2.840   1.452 -2.7662 -0.7004 -0.3477
  546SOL    HW2 1638   2.400   2.800   1.571 -1.4597  2.7123 -0.4170
  547SOL     OW 1639   1.553   2.527   2.347 -0.2791 -0.5957 -0.4353
  547SOL    HW1 1640   1.528   2.516   2.246 -1.8447  0.1265  0.4672
  547SOL    HW2 1641   1.541   2.625   2.373  0.2366 -1.2453 -0.1282
  548SOL     OW 1642   1.490   0.786   2.538  0.0803 -0.0873 -0.2063
  548SOL    HW1 1643   1.457   0.807   2.629  1.3812  1.5790 -1.1328
  548SOL    HW2 1644   1.500   0.684   2.523 -1.6142  0.4671  1.6548
  549SOL     OW 1645   2.075   0.578   0.315  0.0812  0.2703  0.0837
  549SOL    HW1 1646   2.006   0.525   0.257 -0.0033 -2.2867 -2.5671
  549SOL    HW2 1647   2.095   0.525   0.402 -0.4756  0.3812 -0.3364
  550SOL     OW 1648   2.364   1.445   0.238  0.0572  0.0392 -0.2732
  550SOL    HW1 1649   2.402   1.497   0.311 -0.7468 -1.5131 -2.8170
  550SOL    HW2 1650   2.307   1.368   0.276  2.6576  1.8151  0.2021
  551SOL     OW 1651   1.768   3.016   1.561 -0.2187 -1.1759  0.1686
  551SOL    HW1 1652   1.780   2.991   1.462 -2.8808 -0.7432  2.1580
  551SOL    HW2 1653   1.676   3.061   1.581 -1.6559 -1.1651  0.4832
  552SOL     OW 1654   1.413   0.102   2.700 -0.1537 -0.3570  0.4645
  552SOL    HW1 1655   1.359   0.190   2.714 -3.4890 -2.9112  0.9080
  552SOL    HW2 1656   1.515   0.111   2.700 -3.3913  0.7032 -0.1284
  553SOL     OW 1657   0.703   2.748   2.073  0.4112  0.3271  1.0055
  553SOL    HW1 1658   0.801   2.725   2.072  0.2045 -0.5104 -1.7539
  553SOL    HW2 1659   0.675   2.767   2.165  2.1900  1.6229 -2.3553
  554SOL     OW 1660   0.267   2.945   1.175 -0.0948  0.0430 -0.3114
  554SOL    HW1 1661   0.193   2.958   1.110  0.8109 -1.1392 -0.5735
  554SOL    HW2 1662   0.267   2.847   1.196  1.0035  0.3414  1.2263
  555SOL     OW 1663   2.642   1.382   2.345 -0.7288 -0.3444 -0.2344
  555SOL    HW1 1664   2.701   1.446   2.290 -2.0701 -0.1640 -0.4169
  555SOL    HW2 1665   2.553   1.374   2.296 -1.5497 -0.6855  0.9670
  556SOL     OW 1666   1.285   0.713   2.915  0.3588  0.0540 -0.6675
  556SOL    HW1 1667   1.346   0.770   2.970 -1.1323  0.1951 -0.7866
  556SOL    HW2 1668   1.200   0.708   2.969 -1.6506  2.0776 -0.3398
  557SOL     OW 1669   0.350   2.182   2.282  0.1013 -0.5774 -0.4028
  557SOL    HW1 1670   0.359   2.211   2.190 -0.6570 -3.8699  2.0317
  557SOL    HW2 1671   0.302   2.091   2.285 -0.1708  3.7292 -0.8235
  558SOL     OW 1672   2.071   1.003   2.800  0.3279  0.3755 -0.3725
  558SOL    HW1 1673   2.046   0.904   2.791  0.3395 -1.1829  1.5492
  558SOL    HW2 1674   2.108   1.041   2.709  1.0606  1.5798 -2.7498
  559SOL     OW 1675   1.913   1.537   1.630 -0.5384  0.2503 -0.3019
  559SOL    HW1 1676   1.942   1.542   1.533  1.8090 -2.3251 -1.1852
  559SOL    HW2 1677   1.909   1.439   1.661  0.7539 -1.4044  0.2949
  560SOL     OW 1678   1.492   0.628   1.994  0.1850  0.6211  0.5843
  560SOL    HW1 1679   1.461   0.705   1.936  1.0350 -0.6160  1.9310
  560SOL    HW2 1680   1.557   0.566   1.944 -1.5461 -1.8653 -2.0968
  561SOL     OW 1681   2.708   0.148   2.701 -0.0772 -0.5914  0.6775
  561SOL    HW1 1682   2.620   0.094   2.701 -0.7814 -0.2598 -1.9397
  561SOL    HW2 1683   2.788   0.089   2.676  0.4106 -1.1970 -0.5375
  562SOL     OW 1684   1.424   1.714   1.412  0.6211  0.0572 -0.1563
  562SOL    HW1 1685   1.432   1.721   1.514  0.4169 -1.8430 -2.5031
  562SOL    HW2 1686   1.339   1.756   1.375 -0.6136 -0.6915  1.2538
  563SOL     OW 1687   1.311   0.274   2.924 -0.3957  0.5203 -0.3545
  563SOL    HW1 1688   1.381   0.200   2.946  0.0105 -1.1890 -1.5876
  563SOL    HW2 1689   1.230   0.284   2.990 -2.9184  3.1724 -0.2655
  564SOL     OW 1690   0.294   2.594   0.564  0.0832  0.3546 -0.1180
  564SOL    HW1 1691   0.234   2.673   0.542  0.0885 -0.2105  2.1747
  564SOL    HW2 1692   0.356   2.620   0.636 -1.5879 -0.2925  0.3660
  565SOL     OW 1693   0.826   2.463   1.231  0.5963  0.2912 -0.2163
  565SOL    HW1 1694   0.890   2.385   1.227 -1.5970  0.9448  2.3675
  565SOL    HW2 1695   0.826   2.521   1.145 -0.6947  1.1014 -2.6255
  566SOL     OW 1696   1.153   0.041   2.362  0.2813  0.3569  0.4455
  566SOL    HW1 1697   1.091   0.120   2.332  1.5719  1.0664 -1.5128
  566SOL    HW2 1698   1.186   3.076   2.285 -0.3679 -0.6931  1.9709
  567SOL     OW 1699   2.028   0.281   1.005  0.8278  0.1941  0.0731
  567SOL    HW1 1700   2.007   0.360   0.943  1.2875 -0.8358 -0.7974
  567SOL    HW2 1701   1.998   0.194   0.974  1.0191  3.1188  1.2757
  568SOL     OW 1702   1.655   1.799   0.665 -0.1276 -0.0001  0.2296
  568SOL    HW1 1703   1.632   1.750   0.578 -2.9716  0.7025 -0.5567
  568SOL    HW2 1704   1.625   1.892   0.664 -2.7873 -0.7375 -0.3099
  569SOL     OW 1705   1.903   0.563   2.111  0.3824 -0.3282  0.3450
  569SOL    HW1 1706   1.937   0.490   2.046 -2.3300 -2.0986  2.1794
  569SOL    HW2 1707   1.852   0.523   2.191  0.3393  1.7105  0.7471
  570SOL     OW 1708   2.925   2.904   2.193  0.0995  0.0243  0.1185
  570SOL    HW1 1709   2.854   2.964   2.152 -1.4327 -0.6508  1.3849
  570SOL    HW2 1710   2.985   2.964   2.250  0.7741 -0.5282 -1.0778
  571SOL     OW 1711   0.483   0.052   1.234 -0.2450  0.1640 -0.0816
  571SOL    HW1 1712   0.472   0.074   1.333  2.3736 -0.8008 -2.8878
  571SOL    HW2 1713   0.414   3.081   1.207  2.5232 -0.7673  0.2547
  572SOL     OW 1714   0.592   2.484   1.605 -0.0692  0.2245  0.3771
  572SOL    HW1 1715   0.582   2.581   1.595  0.7087 -2.6745  2.0042
  572SOL    HW2 1716   0.655   2.455   1.682 -1.3526  0.1192  0.2819
  573SOL     OW 1717   1.293   1.282   2.540  0.4229  0.1811  0.5194
  573SOL    HW1 1718   1.201   1.321   2.514 -2.4580 -1.7786 -3.1943
  573SOL    HW2 1719   1.290   1.216   2.622 -1.6361 -1.9222  0.4043
  574SOL     OW 1720   2.385   2.332   2.109  0.0918 -0.1678  0.5693
  574SOL    HW1 1721   2.386   2.416   2.052  1.3097  0.0142 -0.6833
  574SOL    HW2 1722   2.353   2.353   2.200 -0.6954  0.2948  0.6449
  575SOL     OW 1723   1.218   0.091   0.713 -0.0506 -0.2688  0.6928
  575SOL    HW1 1724   1.289   0.159   0.726  3.7132 -2.9768  4.5743
  575SOL    HW2 1725   1.198   0.078   0.613 -1.9444 -1.5793 -2.2130
  576SOL     OW 1726   1.239   0.602   0.865  0.9396  0.4649  0.5034
  576SOL    HW1 1727   1.213   0.569   0.773  0.0398  0.0997  2.3778
  576SOL    HW2 1728   1.265   0.521   0.923 -0.8768  2.6883 -1.2908
  577SOL     OW 1729   2.270   1.948   0.250  0.0229 -0.2399 -0.4401
  577SOL    HW1 1730   2.224   1.869   0.205 -0.0905 -0.8309  2.0153
  577SOL    HW2 1731   2.207   1.989   0.324  0.6800 -1.1492 -0.1728
  578SOL     OW 1732   2.065   0.569   1.261  0.0273  0.3041  0.0878
  578SOL    HW1 1733   2.163   0.569   1.301  1.6605  2.2386 -1.2334
  578SOL    HW2 1734   2.024   0.660   1.275 -2.0035 -2.1080  1.1649
  579SOL     OW 1735   1.622   1.111   2.228 -0.0542 -0.7419  0.1039
  579SOL    HW1 1736   1.601   1.195   2.177  1.6625 -0.6214 -1.2075
  579SOL    HW2 1737   1.624   1.033   2.166  0.1964  2.3884  1.7764
  580SOL     OW 1738   1.215   1.016   1.624  1.0032  0.2351  0.1884
  580SOL    HW1 1739   1.305   1.004   1.581  1.4398  0.7679 -0.4106
  580SOL    HW2 1740   1.158   0.933   1.600  2.7611 -1.5399 -0.9680
  581SOL     OW 1741   0.020   1.005   0.847 -0.2338  0.1069  0.0708
  581SOL    HW1 1742   3.051   0.987   0.930  0.1908 -0.3600  2.1804
  581SOL    HW2 1743   0.092   1.078   0.854  0.9543 -1.7747 -1.8859
  582SOL     OW 1744   2.916   0.418   1.880  0.1236  0.4102  0.6161
  582SOL    HW1 1745   2.819   0.418   1.904 -3.1761 -0.8755 -0.9297
  582SOL    HW2 1746   2.973   0.491   1.923 -1.3601  0.2863  0.3120
  583SOL     OW 1747   2.890   1.046   2.610  0.0251  0.9563  0.1406
  583SOL    HW1 1748   2.874   1.146   2.613 -0.0829  0.6954  0.0745
  583SOL    HW2 1749   2.816   0.991   2.651 -1.6531 -1.4353  0.4298
  584SOL     OW 1750   2.079   2.477   0.519 -0.3498 -0.0874 -0.6255
  584SOL    HW1 1751   2.124   2.401   0.566  0.1743  4.2321  0.1372
  584SOL    HW2 1752   2.102   2.477   0.421 -0.1240 -0.8842 -0.4302
  585SOL     OW 1753   0.121   2.299   2.976 -0.6600  0.0848  0.7362
  585SOL    HW1 1754   0.101   2.203   2.963 -0.6589  1.3148  0.5502
  585SOL    HW2 1755   0.146   2.319   3.072  0.4861 -2.1072  2.0010
  586SOL     OW 1756   1.973   1.758   2.296 -0.3266  0.2436 -0.2542
  586SOL    HW1 1757   1.917   1.794   2.220 -0.1461 -1.0998  1.9210
  586SOL    HW2 1758   2.071   1.772   2.269 -2.4766 -0.2762  1.2287
  587SOL     OW 1759   2.290   1.488   2.717  0.0012 -0.2836  0.6807
  587SOL    HW1 1760   2.384   1.510   2.748  0.8651  2.3138 -0.1982
  587SOL    HW2 1761   2.253   1.418   2.774 -0.5198  1.9348 -2.2687
  588SOL     OW 1762   2.499   2.923   1.261 -0.0697 -0.5065 -0.0551
  588SOL    HW1 1763   2.465   2.898   1.356  0.6695  1.9870  0.2873
  588SOL    HW2 1764   2.601   2.951   1.266  2.7470  0.2538  0.7952
  589SOL     OW 1765   0.452   0.204   0.684  0.1861 -0.2338 -0.2124
  589SOL    HW1 1766   0.391   0.167   0.610 -0.6943  2.5768  0.1411
  589SOL    HW2 1767   0.429   0.307   0.692 -0.9456  2.6656  2.8728
  590SOL     OW 1768   2.474   2.236   1.116  0.1866  0.3668  0.5040
  590SOL    HW1 1769   2.437   2.279   1.030  2.0001  1.4100 -3.9177
  590SOL    HW2 1770   2.447   2.289   1.202 -0.7777 -0.9519  1.2768
  591SOL     OW 1771   1.176   2.411   1.154  0.4534  0.1510 -0.4509
  591SOL    HW1 1772   1.269   2.376   1.145  1.2854  1.1780 -0.7438
  591SOL    HW2 1773   1.105   2.353   1.108 -0.4079 -0.9183  1.0747
  592SOL     OW 1774   1.111   1.324   1.251 -0.0741  0.0059 -0.3336
  592SOL    HW1 1775   1.039   1.312   1.321  3.1934 -2.0507  1.0567
  592SOL    HW2 1776   1.184   1.253   1.263  1.3138  0.6520  0.8244
  593SOL     OW 1777   0.890   2.587   1.495  0.0776 -0.0908  0.3589
  593SOL    HW1 1778   0.880   2.690   1.494  1.1378  1.0105 -1.4581
  593SOL    HW2 1779   0.895   2.542   1.404  0.8002 -1.9145 -0.3885
  594SOL     OW 1780   0.779   1.673   3.077 -0.7926  0.3115  0.1167
  594SOL    HW1 1781   0.680   1.668   3.079  4.2383 -2.4214  0.3195
  594SOL    HW2 1782   0.809   1.666   0.081 -0.3960 -0.7141 -0.2192
  595SOL     OW 1783   1.511   1.458   1.411 -0.4930  0.3766 -0.1389
  595SOL    HW1 1784   1.531   1.437   1.509 -0.1009 -0.0441 -1.0661
  595SOL    HW2 1785   1.468   1.552   1.395 -0.2881  1.9757 -0.5777
  596SOL     OW 1786   2.919   1.248   2.076  0.0223  0.2127  0.3285
  596SOL    HW1 1787   2.855   1.222   2.001 -1.2298 -1.8119  1.6847
  596SOL    HW2 1788   2.957   1.340   2.056  0.7957  0.8014 -0.0540
  597SOL     OW 1789   1.431   2.319   1.660 -0.2140 -0.2648  0.7979
  597SOL    HW1 1790   1.337   2.338   1.622 -0.4965 -0.6258  1.9437
  597SOL    HW2 1791   1.501   2.316   1.585  0.3292  0.0682  2.3275
  598SOL     OW 1792   2.338   1.562   1.321 -0.4484  0.2141  0.2563
  598SOL    HW1 1793   2.362   1.486   1.388  1.0884 -4.1802  0.2899
  598SOL    HW2 1794   2.300   1.523   1.234  0.1857  0.0940 -1.2457
  599SOL     OW 1795   0.794   2.736   2.771 -0.5539 -0.8864 -0.0650
  599SOL    HW1 1796   0.890   2.768   2.773  1.1421 -1.3728 -0.0016
  599SOL    HW2 1797   0.765   2.706   2.863 -2.0688  0.8392 -1.3015
  600SOL     OW 1798   0.017   2.259   0.279 -0.4160  0.0653 -0.3283
  600SOL    HW1 1799   3.076   2.317   0.360 -1.6653  1.2299  0.7384
  600SOL    HW2 1800   3.024   2.212   0.248  2.7791  0.6408 -1.4313
  601SOL     OW 1801   0.396   0.688   1.385  0.2969 -0.2079  0.0090
  601SOL    HW1 1802   0.464   0.740   1.439 -2.3906 -0.3733 -0.4334
  601SOL    HW2 1803   0.376   0.601   1.431  1.7476  0.6892  0.3655
  602SOL     OW 1804   0.619   0.286   1.196  0.1755  0.6091  0.2818
  602SOL    HW1 1805   0.576   0.205   1.241  0.1226  1.9771 -1.4485
  602SOL    HW2 1806   0.655   0.257   1.106 -1.5806 -1.6048  3.2384
  603SOL     OW 1807   0.175   2.938   2.752 -0.8271  0.5087 -0.0467
  603SOL    HW1 1808   0.191   2.841   2.737 -2.4197  0.7687  0.6828
  603SOL    HW2 1809   0.095   2.948   2.817 -0.0838  2.1305  0.1107
  604SOL     OW 1810   1.722   0.014   1.971  0.0540  0.4960  0.4381
  604SOL    HW1 1811   1.628   0.007   1.934 -1.6002 -1.0866  0.7944
  604SOL    HW2 1812   1.741   3.014   2.011  0.9219 -0.5202  0.6987
  605SOL     OW 1813   1.447   1.518   1.900  0.0042  0.6585  0.1166
  605SOL    HW1 1814   1.468   1.462   1.979 -1.1937  1.4219 -1.2070
  605SOL    HW2 1815   1.459   1.618   1.915  1.2888  3.5403  1.8360
  606SOL     OW 1816   1.903   2.814   2.954 -0.5052  0.0827 -0.5250
  606SOL    HW1 1817   1.904   2.711   2.955 -0.4393  0.6494  0.8460
  606SOL    HW2 1818   1.983   2.855   2.904 -0.0167 -1.0500 -0.9621
  607SOL     OW 1819   0.739   0.204   2.442  0.3281 -0.4724  0.2538
  607SOL    HW1 1820   0.760   0.192   2.543 -0.1702 -1.2556  1.4969
  607SOL    HW2 1821   0.823   0.231   2.390  0.1913  1.6669 -0.4658
  608SOL     OW 1822   2.991   2.357   2.186  0.4260  0.5201 -0.3796
  608SOL    HW1 1823   2.943   2.393   2.269  1.6715 -1.9112  1.0647
  608SOL    HW2 1824   2.993   2.253   2.190  1.8546  1.9711  3.5186
  609SOL     OW 1825   0.596   1.277   2.994  0.4350  0.1048  0.2569
  609SOL    HW1 1826   0.685   1.324   2.988 -1.7757 -3.1297 -0.1648
  609SOL    HW2 1827   0.612   1.177   2.978 -1.9961  0.7773  1.4638
  610SOL     OW 1828   0.712   2.616   0.814  0.0402 -0.0342 -0.0512
  610SOL    HW1 1829   0.700   2.718   0.822  1.3591  2.3995 -1.8177
  610SOL    HW2 1830   0.805   2.582   0.827 -1.9827 -1.2671  0.9398
  611SOL     OW 1831   1.137   1.434   0.743 -0.0152  0.1413  0.2146
  611SOL    HW1 1832   1.084   1.345   0.736  0.0675 -3.9593 -0.4472
  611SOL    HW2 1833   1.076   1.504   0.774  2.6767 -3.0208 -0.0891
  612SOL     OW 1834   2.362   2.017   0.599 -0.3456  0.2809  0.2813
  612SOL    HW1 1835   2.296   1.955   0.555  3.1345 -0.3758  0.0503
  612SOL    HW2 1836   2.421   1.974   0.669 -0.9790  0.6234  0.2494
  613SOL     OW 1837   1.653   1.645   0.437 -0.1304  0.1119 -0.0891
  613SOL    HW1 1838   1.714   1.703   0.382  0.0552 -0.8895  1.7270
  613SOL    HW2 1839   1.562   1.634   0.390 -0.3144  0.2759 -3.4157
  614SOL     OW 1840   2.585   0.400   2.663 -0.4728 -0.0192  0.0194
  614SOL    HW1 1841   2.635   0.317   2.701 -0.3259 -2.8271  1.4242
  614SOL    HW2 1842   2.522   0.387   2.584  0.5697 -0.0074  1.9900
  615SOL     OW 1843   0.607   1.029   0.456 -0.2079 -0.2292 -0.3040
  615SOL    HW1 1844   0.679   1.099   0.428  0.5830  1.1612 -2.9657
  615SOL    HW2 1845   0.637   0.957   0.529  0.2831 -1.9307  0.8570
  616SOL     OW 1846   1.553   1.234   2.487 -0.4445 -0.5119  0.1364
  616SOL    HW1 1847   1.458   1.266   2.486  1.5188 -0.5069 -0.4022
  616SOL    HW2 1848   1.579   1.188   2.400 -2.1683 -2.1021  2.7985
  617SOL     OW 1849   1.334   0.929   0.127  0.2357  0.1309  0.5818
  617SOL    HW1 1850   1.254   0.886   0.175 -2.2742  1.6496  1.5628
  617SOL    HW2 1851   1.403   0.854   0.107 -0.0279 -0.6038 -2.0629
  618SOL     OW 1852   3.045   1.959   1.968 -0.1337  0.6445 -0.5361
  618SOL    HW1 1853   0.055   1.955   1.959 -0.2165  0.9282  0.3483
  618SOL    HW2 1854   3.009   1.900   2.042 -3.5344  1.8952  2.5259
  619SOL     OW 1855   2.724   2.098   0.741 -0.0089 -0.6395  0.1845
  619SOL    HW1 1856   2.686   2.027   0.678 -0.1960  2.2139 -1.0133
  619SOL    HW2 1857   2.739   2.185   0.685  1.7447  0.8271 -3.7454
  620SOL     OW 1858   2.678   0.079   1.112 -0.2850 -0.2845  0.1231
  620SOL    HW1 1859   2.701   0.005   1.047  0.5982  0.0964 -0.9275
  620SOL    HW2 1860   2.702   0.050   1.206  1.7382 -1.0153 -1.5705
  621SOL     OW 1861   0.450   1.755   0.694  0.6691  0.0106  0.3255
  621SOL    HW1 1862   0.492   1.675   0.747  1.3802 -1.6659 -1.1440
  621SOL    HW2 1863   0.485   1.773   0.600 -0.6195 -0.1482 -0.0856
  622SOL     OW 1864   0.575   1.703   1.835 -0.0707 -0.3673 -0.2377
  622SOL    HW1 1865   0.591   1.616   1.887  3.5464  1.2629 -1.8944
  622SOL    HW2 1866   0.626   1.785   1.873 -0.0509  0.8373 -1.4803
  623SOL     OW 1867   2.275   2.810   2.254  0.1234  1.5759 -0.3717
  623SOL    HW1 1868   2.327   2.814   2.166 -2.2395 -0.9356  3.0024
  623SOL    HW2 1869   2.265   2.902   2.303  0.8623  4.3332 -0.0962
  624SOL     OW 1870   0.607   1.892   0.090 -0.8208 -0.0385  0.5952
  624SOL    HW1 1871   0.598   1.940   0.004 -1.4394 -1.1505 -0.3687
  624SOL    HW2 1872   0.590   1.793   0.078  0.4955  0.6503 -0.4408
  625SOL     OW 1873   0.747   1.958   2.220  0.1311 -0.3881 -0.1934
  625SOL    HW1 1874   0.844   1.950   2.190  1.3712  1.8247 -1.6615
  625SOL    HW2 1875   0.703   1.864   2.218 -0.5793 -2.6396 -0.9699
  626SOL     OW 1876   0.098   2.731   0.053  0.0868 -0.7004 -0.1921
  626SOL    HW1 1877   0.112   2.630   0.082  0.5980 -3.7790 -0.1091
  626SOL    HW2 1878   0.188   2.778   0.064  0.7096 -1.7939  0.6089
  627SOL     OW 1879   1.730   1.569   2.404  0.7926  0.6295 -0.3690
  627SOL    HW1 1880   1.812   1.510   2.408 -1.4968  1.9007 -2.8482
  627SOL    HW2 1881   1.655   1.541   2.468  0.7561 -0.3470  3.3327
  628SOL     OW 1882   1.023   2.207   0.447  0.1351 -0.7439 -0.0292
  628SOL    HW1 1883   1.032   2.173   0.542  1.3848 -0.2404 -0.1856
  628SOL    HW2 1884   1.059   2.300   0.425  3.5721  0.7994 -1.5165
  629SOL     OW 1885   0.923   0.938   2.198 -0.1761  0.3144 -0.0283
  629SOL    HW1 1886   1.010   0.947   2.250  2.0660  0.7240 -0.1166
  629SOL    HW2 1887   0.942   0.956   2.098  1.0258 -1.0508 -1.5622
  630SOL     OW 1888   2.939   2.512   1.579  0.7788  0.2136 -0.2249
  630SOL    HW1 1889   2.869   2.565   1.531 -0.0105  0.2012  1.3881
  630SOL    HW2 1890   2.981   2.563   1.656  2.0879  0.4801 -0.1376
  631SOL     OW 1891   1.432   0.782   0.701  0.0182 -0.8916  0.0917
  631SOL    HW1 1892   1.401   0.791   0.606  0.8513  0.8784  4.0088
  631SOL    HW2 1893   1.353   0.771   0.763 -1.9076  1.3735  0.2118
  632SOL     OW 1894   2.195   0.595   2.205  0.5162  0.5072  0.1398
  632SOL    HW1 1895   2.174   0.677   2.261  0.5422  0.0539 -1.9500
  632SOL    HW2 1896   2.125   0.521   2.211  0.9323 -0.4170  0.7547
  633SOL     OW 1897   1.973   1.257   0.248  0.6728  0.1327 -0.7752
  633SOL    HW1 1898   1.905   1.298   0.315 -0.0940  1.2860  2.4439
  633SOL    HW2 1899   1.960   1.295   0.160  0.0440 -0.3661  1.7783
  634SOL     OW 1900   0.346   1.969   0.189  0.7959 -0.2093 -0.3265
  634SOL    HW1 1901   0.428   1.949   0.138 -2.6084  1.9830 -0.2474
  634SOL    HW2 1902   0.257   1.943   0.142 -1.6979 -2.9396 -0.9138
  635SOL     OW 1903   2.949   1.591   2.385  0.5347  0.0624  0.6768
  635SOL    HW1 1904   2.972   1.499   2.423  0.8520 -0.4491  0.2500
  635SOL    HW2 1905   2.880   1.587   2.313  1.6023  1.2619  2.3240
  636SOL     OW 1906   0.437   1.727   2.368  0.5144  0.0273 -0.1606
  636SOL    HW1 1907   0.365   1.687   2.431  1.3473  0.6240 -0.5145
  636SOL    HW2 1908   0.504   1.777   2.425  0.7214 -2.3490  0.4944
  637SOL     OW 1909   0.193   2.077   0.396  0.2614  0.4951  0.0716
  637SOL    HW1 1910   0.258   2.022   0.340  0.0363 -0.2873  0.5852
  637SOL    HW2 1911   0.132   2.129   0.332  1.5536 -0.6240 -0.3475
  638SOL     OW 1912   2.356   2.376   0.859  0.0817 -1.2094 -0.0305
  638SOL    HW1 1913   2.327   2.476   0.869 -5.5647  0.7067  0.0395
  638SOL    HW2 1914   2.297   2.330   0.787 -0.8301  0.8768 -0.7241
  639SOL     OW 1915   1.095   0.805   0.209 -0.3766  0.4484 -0.4205
  639SOL    HW1 1916   1.011   0.787   0.266  0.0175 -0.3029  1.3198
  639SOL    HW2 1917   1.131   0.721   0.163  0.0922  1.6252  3.0197
  640SOL     OW 1918   2.291   2.201   1.724 -0.1820 -0.0811 -0.1830
  640SOL    HW1 1919   2.336   2.291   1.741  1.2709 -0.0730 -0.7610
  640SOL    HW2 1920   2.316   2.169   1.631 -0.2075 -0.7544  0.4175
  641SOL     OW 1921   2.782   3.026   1.326  0.4742 -0.2441 -0.2570
  641SOL    HW1 1922   2.783   2.976   1.416 -1.6574 -0.9510  0.2802
  641SOL    HW2 1923   2.849   2.986   1.267 -0.0258  0.8110 -0.4696
  642SOL     OW 1924   0.893   1.063   1.553 -0.2170 -0.2739 -0.0807
  642SOL    HW1 1925   0.896   1.025   1.458  1.8932 -0.1232  1.0978
  642SOL    HW2 1926   0.937   1.154   1.554  2.4504 -1.7355 -2.2277
  643SOL     OW 1927   0.569   1.239   2.254  0.2003 -0.0448  0.0808
  643SOL    HW1 1928   0.538   1.279   2.345 -0.0348  3.4172  0.2314
  643SOL    HW2 1929   0.490   1.236   2.189 -2.8323 -0.6673 -0.5257
  644SOL     OW 1930   0.976   0.231   2.275  0.1126 -0.0387 -0.0631
  644SOL    HW1 1931   1.003   0.331   2.254  1.6906  1.0677 -0.4405
  644SOL    HW2 1932   0.925   0.187   2.199  1.2899 -1.9750 -0.4044
  645SOL     OW 1933   2.066   1.148   1.372  0.6680  0.1864  0.2832
  645SOL    HW1 1934   2.124   1.073   1.407 -1.6365  1.3577 -3.1989
  645SOL    HW2 1935   2.083   1.170   1.274 -0.0188 -1.6016  2.7590
  646SOL     OW 1936   1.457   2.512   0.298 -0.0263 -0.3524 -0.4473
  646SOL    HW1 1937   1.502   2.499   0.207 -1.3645  0.6146 -2.0135
  646SOL    HW2 1938   1.468   2.432   0.362  2.5061 -1.1372  0.2866
  647SOL     OW 1939   1.701   2.744   0.758 -0.1618  0.1455 -0.1792
  647SOL    HW1 1940   1.669   2.650   0.741 -0.0542  0.3557 -0.0598
  647SOL    HW2 1941   1.635   2.809   0.713 -0.3263 -2.8329 -0.9332
  648SOL     OW 1942   0.278   2.668   1.244  0.3697  0.0850 -0.1369
  648SOL    HW1 1943   0.208   2.625   1.306 -0.7700 -0.4291 -1.3383
  648SOL    HW2 1944   0.295   2.602   1.166  0.2758 -0.5356 -1.4358
  649SOL     OW 1945   1.117   2.409   0.235 -0.3040  0.2909  0.1719
  649SOL    HW1 1946   1.212   2.381   0.241 -0.0834  0.1514 -0.3581
  649SOL    HW2 1947   1.104   2.479   0.159 -1.4353  1.7944 -3.2997
  650SOL     OW 1948   2.521   1.136   0.057  0.0988 -0.6588 -0.0487
  650SOL    HW1 1949   2.600   1.085   0.018  1.8860 -1.5004 -0.8428
  650SOL    HW2 1950   2.542   1.207   0.124 -0.1439 -0.3930  0.4723
  651SOL     OW 1951   2.636   2.217   2.165 -0.2039  0.1371 -0.3183
  651SOL    HW1 1952   2.536   2.219   2.138 -1.7322 -0.1608  0.5417
  651SOL    HW2 1953   2.637   2.216   2.267  0.9133 -1.2938 -0.8196
  652SOL     OW 1954   2.761   2.309   0.551 -0.2762  0.2488  0.1617
  652SOL    HW1 1955   2.731   2.349   0.641  1.3495  0.3575  2.2387
  652SOL    HW2 1956   2.861   2.321   0.541  0.6512 -0.0595  0.2693
  653SOL     OW 1957   2.660   1.700   1.444 -0.6284  0.1540 -0.3480
  653SOL    HW1 1958   2.763   1.715   1.437 -0.5716  0.4890  0.3985
  653SOL    HW2 1959   2.640   1.601   1.440 -0.2574 -0.5059  1.5858
  654SOL     OW 1960   1.176   1.295   3.088 -0.5421 -0.5297  0.2418
  654SOL    HW1 1961   1.112   1.231   0.037  2.1096 -0.7101 -0.3073
  654SOL    HW2 1962   1.144   1.335   3.000  1.3500 -0.0841  2.1025
  655SOL     OW 1963   1.406   1.446   0.676 -0.3028  0.3160  0.1595
  655SOL    HW1 1964   1.306   1.438   0.697 -0.2331  3.5433 -0.2620
  655SOL    HW2 1965   1.428   1.471   0.577 -0.7761 -0.4704  0.9704
  656SOL     OW 1966   1.414   2.409   2.954 -0.1935 -0.4000  0.2167
  656SOL    HW1 1967   1.470   2.435   2.870  1.4284 -0.8481  0.6266
  656SOL    HW2 1968   1.312   2.413   2.938 -0.3290  0.8090 -1.0897
  657SOL     OW 1969   2.187   1.450   0.640  0.1445 -0.4734 -0.4169
  657SOL    HW1 1970   2.137   1.359   0.628 -5.2529 -0.1038  2.0163
  657SOL    HW2 1971   2.276   1.434   0.690  1.6446  2.2107  1.0658
  658SOL     OW 1972   2.136   2.823   1.816  0.1774 -0.0282 -0.6546
  658SOL    HW1 1973   2.074   2.749   1.859 -2.5091  0.5016  0.2932
  658SOL    HW2 1974   2.088   2.864   1.734  1.6915 -0.4166  1.0266
  659SOL     OW 1975   2.796   1.566   0.517  0.3669 -0.1147 -0.3320
  659SOL    HW1 1976   2.858   1.489   0.506 -2.4906 -1.3852 -1.3533
  659SOL    HW2 1977   2.708   1.549   0.469 -0.5175  1.7562 -1.2965
  660SOL     OW 1978   1.313   0.797   0.462  0.0268  0.3859  0.3279
  660SOL    HW1 1979   1.273   0.888   0.428  1.4749  0.8592 -0.4854
  660SOL    HW2 1980   1.383   0.758   0.399 -3.0892  0.7316  3.2585
  661SOL     OW 1981   1.520   0.762   3.060  0.2567 -0.6100 -0.0411
  661SOL    HW1 1982   1.542   0.666   3.033 -1.2923 -0.5755  0.4239
  661SOL    HW2 1983   1.600   0.824   3.059 -1.0787 -0.6720  1.1916
  662SOL     OW 1984   0.510   0.279   0.295  0.0122 -0.0941  0.4751
  662SOL    HW1 1985   0.521   0.230   0.208 -1.2583  0.1813  0.1835
  662SOL    HW2 1986   0.600   0.307   0.334  0.0382 -0.4013  0.5195
  663SOL     OW 1987   1.114   2.617   0.066  0.1133  0.0306  0.1911
  663SOL    HW1 1988   1.204   2.656   0.093 -2.9656 -1.5624  0.1765
  663SOL    HW2 1989   1.099   2.599   3.063  1.0390 -1.5176  1.3520
  664SOL     OW 1990   0.652   2.942   1.111  0.4168 -0.4793  0.4514
  664SOL    HW1 1991   0.571   2.999   1.130  1.3421 -1.5729  0.0761
  664SOL    HW2 1992   0.653   2.850   1.160 -1.1164 -2.3413  0.8374
  665SOL     OW 1993   1.529   3.083   0.951 -0.1002 -0.4891  0.2087
  665SOL    HW1 1994   1.437   3.042   0.967 -1.0542 -1.0579  0.3986
  665SOL    HW2 1995   1.524   0.089   0.970 -1.6526  1.9328  0.2228
  666SOL     OW 1996   0.881   2.449   2.748 -0.4777 -0.5467 -0.2281
  666SOL    HW1 1997   0.816   2.383   2.775  0.8649  2.6169 -0.9184
  666SOL    HW2 1998   0.843   2.547   2.750  2.1962  4.7508 -1.5056
  667SOL     OW 1999   2.884   0.199   1.505 -0.7322 -0.0616 -0.0434
  667SOL    HW1 2000   2.866   0.278   1.571 -2.1076  0.4207  1.0333
  667SOL    HW2 2001   2.842   0.225   1.412 -0.5752 -0.1455 -0.6828
  668SOL     OW 2002   0.459   0.173   1.787 -0.2031  0.6326  0.2564
  668SOL    HW1 2003   0.551   0.193   1.821 -0.4863 -0.7512 -1.9041
  668SOL    HW2 2004   0.417   0.091   1.834  0.6337 -1.3193  0.0739
  669SOL     OW 2005   1.293   3.053   1.124  0.2434 -0.3150  0.4102
  669SOL    HW1 2006   1.272   3.001   1.042 -0.8064 -1.1273 -0.6264
  669SOL    HW2 2007   1.227   3.023   1.200 -1.0966 -1.0713 -1.4900
  670SOL     OW 2008   1.569   2.481   0.051 -0.0401 -0.6292  0.0973
  670SOL    HW1 2009   1.508   2.463   3.063  0.2047 -1.7794 -0.4252
  670SOL    HW2 2010   1.648   2.526   0.011 -1.2851 -1.8756  1.6835
  671SOL     OW 2011   0.408   1.433   2.870 -0.2326 -0.1712  0.3462
  671SOL    HW1 2012   0.362   1.378   2.798  1.0440 -1.5420 -0.7862
  671SOL    HW2 2013   0.474   1.376   2.922  1.0212  0.2000 -2.4254
  672SOL     OW 2014   1.999   0.616   2.585  0.1901  0.2470 -0.1190
  672SOL    HW1 2015   2.097   0.607   2.564  0.6117  1.0491  1.0453
  672SOL    HW2 2016   1.943   0.666   2.512 -0.0432  0.7549 -0.3228
  673SOL     OW 2017   0.124   1.922   1.113  0.3063 -0.0659  0.0859
  673SOL    HW1 2018   0.063   1.984   1.166  2.6390 -1.8419  3.2590
  673SOL    HW2 2019   0.091   1.825   1.124 -0.8747 -0.0887  0.5493
  674SOL     OW 2020   1.835   2.236   1.878 -0.4425 -0.1378  0.7455
  674SOL    HW1 2021   1.858   2.189   1.963  1.0005  1.3583 -1.3598
  674SOL    HW2 2022   1.910   2.218   1.806  2.0494  1.8727 -2.2903
  675SOL     OW 2023   1.229   1.797   0.996  0.0418  0.1766  0.4841
  675SOL    HW1 2024   1.305   1.783   0.930  1.7035 -0.2195  1.9793
  675SOL    HW2 2025   1.180   1.710   1.004 -0.0889 -0.7898 -2.0931
  676SOL     OW 2026   2.244   0.715   0.891  0.4027 -0.4217 -0.5392
  676SOL    HW1 2027   2.254   0.719   0.793  1.2700  0.8044 -0.0129
  676SOL    HW2 2028   2.337   0.712   0.934 -0.9796  0.4137 -1.7265
  677SOL     OW 2029   2.418   0.009   0.170  0.2569  0.1083  0.5458
  677SOL    HW1 2030   2.411   0.024   0.272 -0.0547 -0.8908  2.9647
  677SOL    HW2 2031   2.471   0.087   0.128 -0.7529 -0.4179 -0.5029
  678SOL     OW 2032   2.541   1.307   1.099 -0.3388  0.0590 -0.5383
  678SOL    HW1 2033   2.536   1.402   1.133  1.7752 -1.4767 -1.3508
  678SOL    HW2 2034   2.546   1.237   1.173 -0.3792  1.3293 -1.1260
  679SOL     OW 2035   2.552   0.207   0.025  0.2859  0.4038  0.2798
  679SOL    HW1 2036   2.548   0.264   0.104  1.7881 -2.0731 -2.7219
  679SOL    HW2 2037   2.648   0.209   3.078  1.1113  0.1641 -2.7919
  680SOL     OW 2038   0.600   1.734   2.149 -0.4648  0.0252  0.3245
  680SOL    HW1 2039   0.634   1.642   2.114 -0.5513  1.7909 -3.1482
  680SOL    HW2 2040   0.537   1.722   2.223  1.1820  2.2035 -3.8217
  681SOL     OW 2041   2.610   2.387   1.563  0.3731  0.2227  0.1261
  681SOL    HW1 2042   2.589   2.411   1.660  3.1490 -1.9475 -1.9603
  681SOL    HW2 2043   2.692   2.329   1.559 -0.8344  1.1839  0.7130
  682SOL     OW 2044   0.599   1.891   2.567  0.0504  0.0462 -0.0075
  682SOL    HW1 2045   0.626   1.985   2.539 -1.4942 -1.3358 -0.6702
  682SOL    HW2 2046   0.596   1.879   2.669  1.0936 -0.1340 -1.9121
  683SOL     OW 2047   0.012   2.051   1.510  0.3577  0.6111  0.4231
  683SOL    HW1 2048   0.047   1.954   1.507 -2.0777  0.4216 -0.3182
  683SOL    HW2 2049   3.014   2.050   1.555 -0.2954  1.6723 -2.1488
  684SOL     OW 2050   2.994   1.788   1.742  0.5668  0.1170  0.3360
  684SOL    HW1 2051   3.022   1.861   1.793 -0.4223 -2.2396 -2.4108
  684SOL    HW2 2052   3.051   1.786   1.653 -0.4741 -1.0647  1.1236
  685SOL     OW 2053   0.565   0.817   1.081 -0.5360 -0.0870 -0.1634
  685SOL    HW1 2054   0.528   0.727   1.105 -1.1962  0.7112 -0.8285
  685SOL    HW2 2055   0.668   0.815   1.059  0.7271  0.6883 -1.8719
  686SOL     OW 2056   0.095   0.027   2.575  0.3550 -0.6392  0.2813
  686SOL    HW1 2057   0.179   0.051   2.524 -0.2141 -1.1822  1.7711
  686SOL    HW2 2058   0.120   3.045   2.641  3.3131 -0.3681 -0.5361
  687SOL     OW 2059   0.626   2.153   2.029  0.0292  0.3883 -0.5748
  687SOL    HW1 2060   0.669   2.173   1.941 -1.7109 -1.2490 -1.0316
  687SOL    HW2 2061   0.693   2.118   2.097 -0.8750 -0.5266 -0.7515
  688SOL     OW 2062   2.396   0.293   1.768  0.4100 -0.9195 -0.3607
  688SOL    HW1 2063   2.383   0.217   1.705 -1.8015 -0.8531 -1.1823
  688SOL    HW2 2064   2.396   0.380   1.709 -0.6063  0.7411 -1.0774
  689SOL     OW 2065   2.398   0.821   0.635  0.3952 -0.0834  0.3649
  689SOL    HW1 2066   2.443   0.912   0.641 -2.4887  1.8685  0.6999
  689SOL    HW2 2067   2.448   0.758   0.571  4.4289  1.0349 -2.6304
  690SOL     OW 2068   2.610   0.677   1.280  0.0600 -0.1133  0.2503
  690SOL    HW1 2069   2.690   0.627   1.242  0.1105 -0.0204  0.6174
  690SOL    HW2 2070   2.643   0.733   1.361 -0.3822  0.7101 -0.0057
  691SOL     OW 2071   0.543   1.110   1.670  0.2239  0.0355  0.1119
  691SOL    HW1 2072   0.502   1.200   1.696  1.3178  1.7869 -1.5190
  691SOL    HW2 2073   0.572   1.071   1.757  0.9709  2.3461 -0.0500
  692SOL     OW 2074   0.773   1.291   1.854  0.3101 -0.4365 -0.2585
  692SOL    HW1 2075   0.870   1.279   1.815  5.3116  0.1650 -2.7742
  692SOL    HW2 2076   0.725   1.206   1.879 -2.5994  2.4161 -1.9738
  693SOL     OW 2077   0.316   0.608   1.873 -0.0498 -0.1848  0.5586
  693SOL    HW1 2078   0.292   0.580   1.971  0.7337 -0.1334  1.3730
  693SOL    HW2 2079   0.255   0.684   1.842 -5.3294  4.5238  1.0427
  694SOL     OW 2080   1.404   2.062   1.165 -0.2053 -0.2248 -0.6572
  694SOL    HW1 2081   1.331   1.995   1.153 -0.9534  0.9738  2.2173
  694SOL    HW2 2082   1.491   2.018   1.192  0.1159 -1.3483 -1.7247
  695SOL     OW 2083   2.825   0.560   1.179 -0.0952 -0.1470 -0.0701
  695SOL    HW1 2084   2.837   0.514   1.090  3.0244  0.6195  2.2770
  695SOL    HW2 2085   2.912   0.610   1.192 -2.8028  0.9805 -0.7009
  696SOL     OW 2086   0.769   2.227   0.351  0.1321  0.3235  0.1830
  696SOL    HW1 2087   0.737   2.320   0.383  0.3515  2.1357 -0.9557
  696SOL    HW2 2088   0.866   2.206   0.376 -0.0208  0.0503  4.2126
  697SOL     OW 2089   1.673   0.890   1.571  0.5494 -0.4496 -0.3788
  697SOL    HW1 2090   1.725   0.963   1.526  1.8409 -5.8205 -2.7154
  697SOL    HW2 2091   1.664   0.904   1.667  1.0430 -1.1818 -3.8485
  698SOL     OW 2092   1.904   1.574   1.339  0.1174 -0.3098  0.2769
  698SOL    HW1 2093   1.812   1.613   1.356 -0.6031  0.7456 -2.5714
  698SOL    HW2 2094   1.968   1.643   1.297  0.3047 -0.5912 -0.2562
  699SOL     OW 2095   0.011   0.667   2.454 -0.0643  0.2910  0.1425
  699SOL    HW1 2096   0.017   0.767   2.427 -0.1801 -2.1718  1.4539
  699SOL    HW2 2097   0.018   0.662   2.558 -1.4876 -1.0787 -0.4171
  700SOL     OW 2098   1.590   2.416   0.634 -0.0489  0.0581 -0.4535
  700SOL    HW1 2099   1.609   2.404   0.736  0.4241  2.2593  1.6843
  700SOL    HW2 2100   1.511   2.358   0.598 -2.1400 -0.0207 -0.5884
  701SOL     OW 2101   3.028   1.480   2.007  0.3972  0.4148 -0.7341
  701SOL    HW1 2102   2.947   1.534   1.982  1.2254 -0.3798  0.8933
  701SOL    HW2 2103   0.014   1.491   1.941  0.9271  0.9954 -1.9420
  702SOL     OW 2104   0.609   0.107   2.837 -0.2792 -0.0564 -0.1015
  702SOL    HW1 2105   0.690   0.041   2.837  0.1549 -0.8155  0.1613
  702SOL    HW2 2106   0.639   0.197   2.791 -2.2806  1.7794 -0.5959
  703SOL     OW 2107   1.986   0.742   2.814 -0.1306 -0.2419 -0.2145
  703SOL    HW1 2108   1.971   0.669   2.882 -0.4941  0.6444  0.5239
  703SOL    HW2 2109   1.979   0.702   2.722  0.5417  0.3354  1.0027
  704SOL     OW 2110   2.854   1.350   1.082 -0.3166 -0.1055 -0.4526
  704SOL    HW1 2111   2.900   1.347   0.987 -0.8532  0.5979 -1.7327
  704SOL    HW2 2112   2.769   1.410   1.078 -0.3211 -1.5539  0.3123
  705SOL     OW 2113   2.530   1.651   1.866 -0.1959  0.2422  0.0033
  705SOL    HW1 2114   2.456   1.680   1.929 -2.1670 -0.1333  1.4119
  705SOL    HW2 2115   2.491   1.582   1.801 -0.6504 -0.7356  1.2257
  706SOL     OW 2116   0.026   2.466   0.957 -0.1046  0.4570 -0.8666
  706SOL    HW1 2117   0.121   2.461   0.997  1.6035  0.0210  3.4727
  706SOL    HW2 2118   0.022   2.403   0.878 -0.2063 -1.8164  0.5123
  707SOL     OW 2119   1.036   2.981   0.208 -0.5193  0.3009 -0.9715
  707SOL    HW1 2120   0.980   3.061   0.218 -0.3852 -2.6912  0.5044
  707SOL    HW2 2121   0.976   2.899   0.208  1.5919 -0.6795  2.0798
  708SOL     OW 2122   0.761   2.111   1.514  0.1197  0.4466  0.0788
  708SOL    HW1 2123   0.711   2.192   1.468  1.2846  1.1281 -0.3966
  708SOL    HW2 2124   0.694   2.040   1.538  1.7878 -0.6181 -1.7635
  709SOL     OW 2125   2.154   0.137   2.549 -0.2748  0.3278 -0.1816
  709SOL    HW1 2126   2.073   0.104   2.594  1.2018 -1.6888 -1.9295
  709SOL    HW2 2127   2.225   0.150   2.623  2.3879  0.1329  0.4493
  710SOL     OW 2128   1.133   2.483   2.878  0.0866 -0.1929  0.6327
  710SOL    HW1 2129   1.034   2.476   2.845 -1.8673 -0.4465  0.5343
  710SOL    HW2 2130   1.190   2.539   2.813 -1.2568  3.4419 -0.7272
  711SOL     OW 2131   1.277   2.060   2.792 -0.1417  0.1655 -0.8791
  711SOL    HW1 2132   1.347   2.132   2.762  1.6498 -0.7226  2.3259
  711SOL    HW2 2133   1.189   2.109   2.812 -1.4696 -0.5598 -1.6284
  712SOL     OW 2134   1.078   2.206   2.864  0.6087 -0.0062  0.3500
  712SOL    HW1 2135   1.091   2.299   2.824  0.8712  0.1449 -0.7474
  712SOL    HW2 2136   1.048   2.218   2.961  4.2985 -0.9575 -1.3283
  713SOL     OW 2137   0.824   0.846   1.769  0.3252 -0.2888 -0.2850
  713SOL    HW1 2138   0.810   0.902   1.686 -1.6624  0.8158  0.2877
  713SOL    HW2 2139   0.853   0.752   1.742 -2.7181  1.6318 -1.7663
  714SOL     OW 2140   1.782   1.904   1.478  0.5242  0.3153 -0.4084
  714SOL    HW1 2141   1.714   1.962   1.518  2.9206 -1.0717  0.6491
  714SOL    HW2 2142   1.747   1.834   1.410 -0.8724 -1.0202  0.2477
  715SOL     OW 2143   0.146   0.320   0.632  0.1813  0.9283 -0.3831
  715SOL    HW1 2144   0.211   0.284   0.565 -0.3329 -0.3462 -0.0653
  715SOL    HW2 2145   0.198   0.389   0.689  0.7828 -2.5341 -0.3626
  716SOL     OW 2146   0.638   2.812   0.265  0.0055  0.2905  0.0395
  716SOL    HW1 2147   0.723   2.763   0.243  2.1896  2.5892  0.1968
  716SOL    HW2 2148   0.621   2.803   0.361 -0.5128 -0.4025 -2.7244
  717SOL     OW 2149   0.044   0.114   0.291 -0.1559 -0.4122  0.1425
  717SOL    HW1 2150   0.129   0.145   0.243 -1.5598 -0.1538  2.3309
  717SOL    HW2 2151   0.046   0.013   0.307 -1.4051 -0.8849 -1.4259
  718SOL     OW 2152   1.777   2.612   1.094 -0.0778  0.0019  0.3001
  718SOL    HW1 2153   1.688   2.617   1.146 -3.0396 -1.5337 -0.0653
  718SOL    HW2 2154   1.851   2.672   1.141  0.4946  1.2503  2.0209
  719SOL     OW 2155   0.033   2.290   0.764 -0.1619 -0.8428  0.2774
  719SOL    HW1 2156   0.119   2.242   0.737 -1.0937  1.1050 -0.1264
  719SOL    HW2 2157   3.060   2.228   0.812  0.4485  1.9576 -0.7067
  720SOL     OW 2158   1.131   1.145   0.843  0.0362 -0.3804  0.3970
  720SOL    HW1 2159   1.215   1.195   0.864  0.3184 -0.9597 -2.2489
  720SOL    HW2 2160   1.131   1.127   0.739  1.0663 -1.2783  0.2653
  721SOL     OW 2161   0.883   0.555   0.893 -0.4433  0.1546  0.4534
  721SOL    HW1 2162   0.783   0.533   0.876 -2.9835  2.2358  1.8436
  721SOL    HW2 2163   0.902   0.552   0.992 -0.3659 -0.2442  2.2579
  722SOL     OW 2164   1.374   1.232   1.325 -0.2634  0.1173 -0.5064
  722SOL    HW1 2165   1.433   1.310   1.361  3.7494  2.0408  0.8858
  722SOL    HW2 2166   1.392   1.153   1.387  0.1711  2.4184  0.9154
  723SOL     OW 2167   0.682   0.310   1.931 -0.3705 -0.1219 -0.0537
  723SOL    HW1 2168   0.691   0.358   1.844  1.7150 -0.8201  3.8448
  723SOL    HW2 2169   0.674   0.367   2.017 -1.3732 -0.3827  0.0694
  724SOL     OW 2170   1.930   1.767   1.811 -0.0772 -0.4139 -0.2188
  724SOL    HW1 2171   1.900   1.685   1.759 -1.6790 -1.7787 -0.4227
  724SOL    HW2 2172   1.967   1.838   1.744 -2.1818  0.3355 -1.0007
  725SOL     OW 2173   0.686   2.733   1.281 -0.4804  0.2382 -0.0986
  725SOL    HW1 2174   0.710   2.633   1.295 -0.1321 -3.0680 -1.6231
  725SOL    HW2 2175   0.595   2.753   1.327  2.7898 -0.6387 -3.4196
  726SOL     OW 2176   1.510   0.674   0.338 -0.1450  0.0735  0.4743
  726SOL    HW1 2177   1.504   0.616   0.421  1.9991  0.2818  0.5863
  726SOL    HW2 2178   1.600   0.723   0.342 -3.1917 -0.4032  1.3252
  727SOL     OW 2179   1.448   2.330   1.170 -0.3895 -0.1364  0.2531
  727SOL    HW1 2180   1.452   2.227   1.171 -1.1911 -1.5122 -0.7952
  727SOL    HW2 2181   1.488   2.363   1.081  3.6059  2.0650 -2.0832
  728SOL     OW 2182   1.546   0.104   2.386 -0.3635  0.0633 -0.0216
  728SOL    HW1 2183   1.597   0.018   2.359 -1.1307  1.4422  0.2011
  728SOL    HW2 2184   1.503   0.091   2.476  0.5352 -0.0668  1.3787
  729SOL     OW 2185   2.506   1.314   0.833 -0.0928  0.7233  0.4079
  729SOL    HW1 2186   2.518   1.332   0.934 -1.6734  1.1774  0.8707
  729SOL    HW2 2187   2.497   1.401   0.783 -1.6993  0.2826  0.2734
  730SOL     OW 2188   1.939   1.262   2.577  0.3339 -0.3974  0.2219
  730SOL    HW1 2189   1.928   1.245   2.475  1.3453 -0.2891  0.6977
  730SOL    HW2 2190   1.868   1.222   2.629  1.1693  2.4041 -1.5139
  731SOL     OW 2191   0.224   3.049   1.435 -0.3828 -0.1377 -0.0520
  731SOL    HW1 2192   0.127   3.086   1.440  1.1957  0.8990  1.2692
  731SOL    HW2 2193   0.243   3.019   1.338  1.8174  0.2973 -0.8351
  732SOL     OW 2194   1.663   0.459   1.290 -0.0930 -0.1600 -0.1818
  732SOL    HW1 2195   1.749   0.408   1.276 -0.7886 -0.4336 -0.7431
  732SOL    HW2 2196   1.670   0.522   1.370 -0.1884 -1.8169 -1.5041
  733SOL     OW 2197   1.062   1.321   1.844 -0.4100 -0.7098  0.4474
  733SOL    HW1 2198   1.154   1.290   1.806  4.7635 -1.7004  0.2728
  733SOL    HW2 2199   1.049   1.282   1.936 -1.5581  0.8926 -1.7421
  734SOL     OW 2200   2.636   1.871   0.410  0.2281 -0.3391 -0.4463
  734SOL    HW1 2201   2.728   1.827   0.415  3.5484 -0.3831  2.6110
  734SOL    HW2 2202   2.646   1.969   0.395 -1.9939 -0.6849  1.2809
  735SOL     OW 2203   0.380   0.646   0.273  0.0631  0.1459  0.0046
  735SOL    HW1 2204   0.328   0.563   0.251  3.3471 -2.0905  0.8164
  735SOL    HW2 2205   0.449   0.628   0.341 -1.8090 -0.6283  1.0085
  736SOL     OW 2206   1.795   2.652   0.271 -0.2533 -0.1051 -0.0680
  736SOL    HW1 2207   1.791   2.577   0.338  2.3188  1.0744  0.4273
  736SOL    HW2 2208   1.889   2.686   0.259 -0.2353  0.7190 -1.5731
  737SOL     OW 2209   1.021   2.188   1.607 -0.1098  0.2940 -0.2216
  737SOL    HW1 2210   0.934   2.149   1.570  0.2947 -3.6345 -0.5706
  737SOL    HW2 2211   1.095   2.123   1.589 -0.4531 -0.3436  1.0910
  738SOL     OW 2212   1.901   3.062   2.653 -0.3389 -0.6243  0.1838
  738SOL    HW1 2213   1.839   0.048   2.642  2.7445 -1.5250 -1.1025
  738SOL    HW2 2214   1.909   3.009   2.568 -2.3341  0.5452 -0.2678
  739SOL     OW 2215   1.856   2.340   2.837 -0.1247  0.1345 -0.4529
  739SOL    HW1 2216   1.868   2.255   2.784 -0.9114  2.0487 -0.3395
  739SOL    HW2 2217   1.938   2.395   2.851 -0.7365  1.3212  1.7562
  740SOL     OW 2218   1.951   2.080   2.090  0.1990  0.1079 -0.1460
  740SOL    HW1 2219   1.928   1.980   2.083  1.7476 -0.2004  2.2136
  740SOL    HW2 2220   2.051   2.094   2.089 -1.6456 -0.5608 -1.5260
  741SOL     OW 2221   2.428   1.904   2.461  0.5228 -0.5731 -0.2095
  741SOL    HW1 2222   2.379   1.993   2.453  0.0126  2.6448 -2.0642
  741SOL    HW2 2223   2.462   1.892   2.556  0.4386 -0.6883  1.0725
  742SOL     OW 2224   1.079   1.333   2.806  0.3408  0.0023 -0.0722
  742SOL    HW1 2225   1.181   1.353   2.806  0.1659  0.9782 -0.5933
  742SOL    HW2 2226   1.041   1.362   2.716 -2.6657 -0.0617 -0.2876
  743SOL     OW 2227   1.317   1.422   2.840  0.3668 -0.4322 -0.3437
  743SOL    HW1 2228   1.392   1.412   2.907  2.0853 -0.0032 -1.0100
  743SOL    HW2 2229   1.329   1.508   2.786  1.5043 -1.4072 -1.1522
  744SOL     OW 2230   2.009   0.002   1.243 -0.4261  0.0281 -0.4473
  744SOL    HW1 2231   1.911   3.066   1.253 -2.1600 -1.7389  4.0062
  744SOL    HW2 2232   2.033   0.012   1.147 -0.2609 -2.3554 -0.1825
  745SOL     OW 2233   2.703   0.882   0.640  0.6095 -0.7813 -0.1125
  745SOL    HW1 2234   2.696   0.904   0.544  0.3125 -0.3535  3.9918
  745SOL    HW2 2235   2.644   0.941   0.698  0.0923 -3.7229  0.6805
  746SOL     OW 2236   2.799   1.902   1.138  0.2716  0.2056  0.4024
  746SOL    HW1 2237   2.817   1.899   1.236  1.6253 -1.1034 -0.8732
  746SOL    HW2 2238   2.757   1.990   1.100  0.4089  1.9725  0.8286
  747SOL     OW 2239   1.611   3.061   0.033 -0.1771 -0.5002  0.3545
  747SOL    HW1 2240   1.654   2.974   0.062 -0.1993 -1.0684 -1.0284
  747SOL    HW2 2241   1.537   3.055   3.057 -0.5693  1.6568  2.1294
  748SOL     OW 2242   0.579   1.298   0.206 -0.6122  0.5564 -0.7463
  748SOL    HW1 2243   0.594   1.295   0.107 -0.5403  2.0304  0.4701
  748SOL    HW2 2244   0.480   1.311   0.225  1.2782 -1.6773  0.0482
  749SOL     OW 2245   2.544   0.971   2.318  0.2892  0.2656 -0.2323
  749SOL    HW1 2246   2.562   0.887   2.266 -1.6864  4.7906  1.6937
  749SOL    HW2 2247   2.619   1.035   2.309 -0.6414  0.9023 -2.4242
  750SOL     OW 2248   0.542   0.717   1.773 -0.1862 -0.1905  0.0780
  750SOL    HW1 2249   0.464   0.654   1.798  0.9749 -0.7288  1.4649
  750SOL    HW2 2250   0.596   0.723   1.858 -0.4931  2.3149 -0.5120
  751SOL     OW 2251   2.336   2.531   1.941 -0.4113 -0.0758  0.2177
  751SOL    HW1 2252   2.235   2.526   1.926 -1.1179 -1.6600 -0.5105
  751SOL    HW2 2253   2.361   2.624   1.967 -0.2415  0.9078 -1.2552
  752SOL     OW 2254   2.175   1.641   1.000  0.0843  0.3406 -0.0919
  752SOL    HW1 2255   2.228   1.557   1.021  0.5739 -1.0432  2.6339
  752SOL    HW2 2256   2.129   1.633   0.911  1.1156 -0.5990  2.8673
  753SOL     OW 2257   1.012   0.973   1.944  0.3773  0.1589 -0.0458
  753SOL    HW1 2258   0.945   0.951   1.868 -0.1493 -0.5088 -0.2902
  753SOL    HW2 2259   1.088   0.903   1.939  0.6666  0.8361 -1.1050
  754SOL     OW 2260   0.725   2.493   0.354  0.2874  0.0862 -0.2932
  754SOL    HW1 2261   0.699   2.484   0.257 -0.0836 -0.2333 -1.4488
  754SOL    HW2 2262   0.650   2.541   0.404 -0.7408  2.7047 -0.9218
  755SOL     OW 2263   2.778   2.901   0.899 -0.3608  0.2371  0.4629
  755SOL    HW1 2264   2.733   2.823   0.847  0.3404  2.0167 -0.3251
  755SOL    HW2 2265   2.833   2.867   0.976 -0.7887 -0.6559 -1.0534
  756SOL     OW 2266   2.577   1.800   2.250  0.1251  0.2086 -0.2737
  756SOL    HW1 2267   2.516   1.843   2.324  0.5240  2.5534  2.4128
  756SOL    HW2 2268   2.607   1.871   2.183  2.2841 -1.1379  0.7062
  757SOL     OW 2269   0.125   2.948   1.772  0.1877 -0.7281  0.4173
  757SOL    HW1 2270   0.104   2.916   1.869  3.4834 -0.7288 -1.0063
  757SOL    HW2 2271   0.049   2.999   1.731  1.1377  0.8653 -0.5154
  758SOL     OW 2272   0.417   2.660   0.210 -0.1790 -0.2721 -0.4294
  758SOL    HW1 2273   0.484   2.737   0.194  4.8960  1.8995 -1.5774
  758SOL    HW2 2274   0.422   2.604   0.127  1.5418  2.1127  0.7027
  759SOL     OW 2275   2.049   1.215   1.106 -0.3424  0.3757  0.1648
  759SOL    HW1 2276   1.946   1.217   1.091  1.2234  0.5427  1.5014
  759SOL    HW2 2277   2.089   1.184   1.020  0.7096 -1.1448 -1.2748
  760SOL     OW 2278   1.418   0.949   1.442  0.0958  0.1858 -0.0402
  760SOL    HW1 2279   1.395   0.885   1.364 -2.7808  1.9822  0.4956
  760SOL    HW2 2280   1.499   0.927   1.498 -0.0935  0.7646 -0.2732
  761SOL     OW 2281   1.907   0.353   1.245  0.0646  0.4629  0.5002
  761SOL    HW1 2282   1.972   0.430   1.252  0.3012  2.9601  2.5610
  761SOL    HW2 2283   1.943   0.285   1.177  0.6735  1.4727 -1.0223
  762SOL     OW 2284   1.964   0.216   0.309  0.0001  0.7517 -0.1828
  762SOL    HW1 2285   1.905   0.132   0.300 -1.0743  1.3653  1.6649
  762SOL    HW2 2286   1.908   0.300   0.300  0.7206  1.4152  1.7422
  763SOL     OW 2287   0.772   0.424   1.666 -0.0883  0.3090  0.4262
  763SOL    HW1 2288   0.714   0.442   1.587  0.3482  0.4310  2.3668
  763SOL    HW2 2289   0.842   0.351   1.639 -0.6920 -1.2030 -1.0375
  764SOL     OW 2290   2.266   2.096   2.069 -0.2820 -0.1100 -0.1323
  764SOL    HW1 2291   2.310   2.047   1.994  2.8403  0.8670  0.1251
  764SOL    HW2 2292   2.296   2.192   2.069 -1.0535 -0.4647 -0.5523
  765SOL     OW 2293   2.906   1.225   2.959  0.3479 -0.0621 -1.0020
  765SOL    HW1 2294   2.910   1.314   2.912 -3.0912 -0.0063 -1.7189
  765SOL    HW2 2295   2.989   1.207   3.011 -0.2431  2.0388 -2.6332
  766SOL     OW 2296   3.006   0.507   2.762  0.0345 -0.2652  0.0541
  766SOL    HW1 2297   3.037   0.411   2.768 -1.4653 -0.7714  0.4555
  766SOL    HW2 2298   2.921   0.513   2.711 -0.1339 -1.4868  0.9520
  767SOL     OW 2299   0.346   2.655   1.870  0.1348 -0.1357  0.3994
  767SOL    HW1 2300   0.311   2.614   1.957  1.2038 -1.1680  0.0336
  767SOL    HW2 2301   0.271   2.659   1.802  4.0104  0.8029  0.0076
  768SOL     OW 2302   0.981   1.101   0.065  0.3042  0.3674 -0.2544
  768SOL    HW1 2303   0.974   1.003   0.101 -1.6807 -1.2217 -0.7591
  768SOL    HW2 2304   0.960   1.100   3.058  0.3983  1.4501  0.7451
  769SOL     OW 2305   1.032   2.716   0.502 -0.3548 -0.3036  0.0996
  769SOL    HW1 2306   0.989   2.626   0.504  1.4842 -1.0872  0.8044
  769SOL    HW2 2307   1.131   2.711   0.532 -0.9976  1.6790  1.4445
  770SOL     OW 2308   1.073   3.086   1.968 -0.1337  0.1114  0.1214
  770SOL    HW1 2309   0.984   0.027   2.008 -0.8268  1.9079  0.8586
  770SOL    HW2 2310   1.123   3.030   2.040 -1.0753  2.2020 -1.2855
  771SOL     OW 2311   0.703   2.884   0.838 -0.1620  0.0188  0.2788
  771SOL    HW1 2312   0.781   2.902   0.773 -0.2680 -0.9191 -3.8255
  771SOL    HW2 2313   0.723   2.906   0.937 -1.0910  0.2006  0.3931
  772SOL     OW 2314   2.518   0.388   0.233  0.1505 -0.0874  0.1445
  772SOL    HW1 2315   2.477   0.373   0.322 -1.6026 -1.5246 -0.6826
  772SOL    HW2 2316   2.472   0.466   0.189  0.5473 -2.1709  1.2952
  773SOL     OW 2317   2.153   0.551   1.739 -0.3932 -0.2210 -0.5048
  773SOL    HW1 2318   2.214   0.545   1.661 -1.7835  1.3395  1.7455
  773SOL    HW2 2319   2.056   0.569   1.709  2.1128  0.5403  0.3599
  774SOL     OW 2320   0.248   0.780   0.521 -0.8668  0.5661 -0.6396
  774SOL    HW1 2321   0.331   0.721   0.506  0.4179 -1.5529 -2.8900
  774SOL    HW2 2322   0.224   0.794   0.622 -0.1875 -1.1016 -0.7738
  775SOL     OW 2323   1.671   0.290   0.834  0.5288 -0.2411  0.2251
  775SOL    HW1 2324   1.687   0.392   0.845 -1.2752  5.1695  1.7001
  775SOL    HW2 2325   1.743   0.243   0.781 -1.7646 -3.7403  4.8505
  776SOL     OW 2326   2.047   2.901   2.138 -0.1045 -0.0911 -0.1195
  776SOL    HW1 2327   2.124   2.842   2.156 -1.6026  3.3405 -3.6550
  776SOL    HW2 2328   2.076   2.992   2.100  0.9794 -0.3068 -0.2954
  777SOL     OW 2329   1.446   1.416   0.412 -0.4960  0.0699 -0.0399
  777SOL    HW1 2330   1.442   1.507   0.364  1.1564 -2.8725 -1.1371
  777SOL    HW2 2331   1.393   1.344   0.359 -1.9483 -0.7926 -0.3027
  778SOL     OW 2332   0.401   2.788   2.966  0.3506 -0.1517  0.0642
  778SOL    HW1 2333   0.405   2.694   3.006  0.1346  2.9214 -3.1425
  778SOL    HW2 2334   0.370   2.774   2.870  1.2490  1.2848 -1.2959
  779SOL     OW 2335   0.136   1.516   0.332  0.0358  0.5221 -0.3729
  779SOL    HW1 2336   0.033   1.525   0.339 -4.7749 -1.9855  0.7972
  779SOL    HW2 2337   0.187   1.588   0.386 -0.3059 -2.7852 -0.9504
  780SOL     OW 2338   1.655   0.279   2.031 -0.0731 -0.0678 -0.3652
  780SOL    HW1 2339   1.683   0.338   2.108  2.0492  0.9305 -1.6244
  780SOL    HW2 2340   1.711   0.193   2.020  1.9034 -0.4327 -0.1658
  781SOL     OW 2341   1.916   2.012   1.227 -0.2463  0.3103  0.1204
  781SOL    HW1 2342   1.965   2.098   1.220 -1.6929  1.3121  0.0582
  781SOL    HW2 2343   1.896   1.984   1.319  3.1633  2.0417 -0.1084
  782SOL     OW 2344   2.335   2.526   2.320  0.0900  0.4242 -0.2383
  782SOL    HW1 2345   2.270   2.571   2.257  1.4812  0.1085  0.2595
  782SOL    HW2 2346   2.416   2.583   2.348 -0.4658  1.7761  0.9858
  783SOL     OW 2347   1.472   0.548   1.655 -0.2991  0.1282 -0.2457
  783SOL    HW1 2348   1.379   0.512   1.664  2.2937 -0.0021  1.3374
  783SOL    HW2 2349   1.481   0.631   1.714  2.5621 -0.8749 -0.9280
  784SOL     OW 2350   1.388   0.796   1.788 -0.1041  0.3712 -0.1126
  784SOL    HW1 2351   1.423   0.883   1.828 -0.3121 -0.3994 -0.8958
  784SOL    HW2 2352   1.289   0.786   1.815  3.1047  3.5617 -1.4252
  785SOL     OW 2353   1.760   0.776   0.379  0.4196  0.3875  0.1117
  785SOL    HW1 2354   1.778   0.875   0.357 -0.6812  0.5576 -0.4083
  785SOL    HW2 2355   1.792   0.753   0.477  0.3905  0.0444  4.3431
  786SOL     OW 2356   2.953   1.350   0.454 -0.2721 -0.4477 -0.5774
  786SOL    HW1 2357   2.935   1.254   0.426 -1.1486  1.2195  0.3258
  786SOL    HW2 2358   3.050   1.356   0.487 -3.7654  0.4113  1.9963
  787SOL     OW 2359   1.454   1.840   0.117  0.7254 -0.3576  0.1677
  787SOL    HW1 2360   1.506   1.772   0.062  1.2445  0.6585 -0.1352
  787SOL    HW2 2361   1.399   1.904   0.062 -0.9048  1.0646  2.3077
  788SOL     OW 2362   2.149   1.077   0.896  0.3597 -0.0418  0.1513
  788SOL    HW1 2363   2.241   1.054   0.934 -0.2985 -0.7973  1.9269
  788SOL    HW2 2364   2.150   1.094   0.798 -0.1393  0.6450  0.0834
  789SOL     OW 2365   0.102   1.665   2.241  1.1388  0.4807  0.2352
  789SOL    HW1 2366   0.167   1.591   2.231 -2.3636  2.3704 -0.1641
  789SOL    HW2 2367   0.011   1.638   2.288 -1.5050 -0.1900 -0.8321
  790SOL     OW 2368   1.027   0.010   2.608  0.1055  0.0288 -0.1451
  790SOL    HW1 2369   1.072   0.025   2.520 -1.4861 -0.1459 -0.6320
  790SOL    HW2 2370   1.053   3.012   2.642 -1.1121  3.3210  0.6409
  791SOL     OW 2371   0.137   2.390   2.713  0.6780  1.3273 -0.3539
  791SOL    HW1 2372   0.208   2.338   2.664 -0.2291 -0.8853  1.0899
  791SOL    HW2 2373   0.130   2.358   2.809  1.1536  3.7275 -0.8118
  792SOL     OW 2374   1.402   0.280   2.091  0.0891 -0.3501 -0.0325
  792SOL    HW1 2375   1.387   0.240   2.180  2.5967 -0.2878 -1.0017
  792SOL    HW2 2376   1.501   0.262   2.061  3.2633  0.5656 -1.9586
  793SOL     OW 2377   2.562   2.967   2.466  0.5036 -0.0255  0.1479
  793SOL    HW1 2378   2.502   2.890   2.431  2.0820  2.4714 -1.0341
  793SOL    HW2 2379   2.607   3.024   2.396 -0.7195  0.9100  1.4736
  794SOL     OW 2380   0.335   0.193   2.206  0.1832 -0.3368  0.2777
  794SOL    HW1 2381   0.272   0.203   2.129  0.1036  1.4637  2.6938
  794SOL    HW2 2382   0.407   0.132   2.177  1.8744  0.0613  0.0102
  795SOL     OW 2383   2.648   1.346   0.232 -0.2977  0.6979 -0.1106
  795SOL    HW1 2384   2.738   1.308   0.204 -0.6819 -0.2812  1.0833
  795SOL    HW2 2385   2.621   1.308   0.323 -0.2636 -1.3446  1.1864
  796SOL     OW 2386   2.751   1.957   2.665  0.2378  0.2784 -0.4471
  796SOL    HW1 2387   2.787   2.031   2.607 -1.3601 -3.5238  0.1084
  796SOL    HW2 2388   2.663   1.981   2.709 -2.8093  0.2818  1.6783
  797SOL     OW 2389   2.917   1.782   0.439  0.0869  0.3975 -0.6656
  797SOL    HW1 2390   2.877   1.701   0.484  0.1182 -0.0430 -1.1652
  797SOL    HW2 2391   3.013   1.809   0.474  0.7864  2.3750  1.2720
  798SOL     OW 2392   0.264   0.343   1.745 -0.3398  0.2923 -0.4988
  798SOL    HW1 2393   0.266   0.427   1.810  0.4593  5.2171  3.1739
  798SOL    HW2 2394   0.347   0.283   1.752 -2.4540  1.4373 -1.1995
  799SOL     OW 2395   2.748   1.149   2.260 -0.2113 -0.5816 -0.4215
  799SOL    HW1 2396   2.810   1.185   2.183 -0.4221  3.1891 -0.2512
  799SOL    HW2 2397   2.705   1.229   2.306 -0.2087 -3.8412 -0.0162
  800SOL     OW 2398   3.032   2.375   0.500 -0.5787  0.0708  0.4973
  800SOL    HW1 2399   3.089   2.367   0.587  2.2432 -2.5238  1.6969
  800SOL    HW2 2400   3.006   2.467   0.471 -0.3013  0.5296 -0.9364
  801SOL     OW 2401   0.839   0.808   1.026  0.0959  0.6159 -0.2928
  801SOL    HW1 2402   0.864   0.857   0.942  2.1524 -0.6476 -2.2469
  801SOL    HW2 2403   0.919   0.766   1.071 -0.1837  0.5624  0.0770
  802SOL     OW 2404   2.011   2.185   0.826  0.6375 -0.2007 -0.0373
  802SOL    HW1 2405   2.053   2.104   0.873 -3.7812  1.4089  1.7406
  802SOL    HW2 2406   1.920   2.201   0.869  0.8615 -1.6647 -1.0625
  803SOL     OW 2407   0.062   1.409   0.615  0.2953  0.5046  0.3554
  803SOL    HW1 2408   0.164   1.403   0.616 -0.2306  1.2001 -2.1968
  803SOL    HW2 2409   0.046   1.511   0.627 -0.8961 -3.1394 -1.7666
  804SOL     OW 2410   1.171   2.452   0.569 -0.4282 -0.1162 -0.2834
  804SOL    HW1 2411   1.073   2.471   0.571  2.6596 -0.7497  1.8545
  804SOL    HW2 2412   1.212   2.536   0.540  0.4135 -2.3448 -1.1006
  805SOL     OW 2413   1.706   2.195   2.596  0.4855  0.3102  0.0022
  805SOL    HW1 2414   1.804   2.187   2.608 -1.3064 -2.9100 -0.0849
  805SOL    HW2 2415   1.665   2.102   2.621 -0.1969 -3.1370 -1.5078
  806SOL     OW 2416   1.150   0.120   1.502 -0.1291  0.2844  0.1989
  806SOL    HW1 2417   1.207   0.198   1.477 -1.0321 -0.7282  0.1728
  806SOL    HW2 2418   1.148   0.051   1.427  3.0421 -0.2512 -0.5825
  807SOL     OW 2419   1.821   3.090   0.254 -0.0581  0.1502  0.1665
  807SOL    HW1 2420   1.777   3.040   0.180  1.4417 -0.5307 -0.9377
  807SOL    HW2 2421   1.826   3.024   0.336  0.2790 -0.3253  1.4851
  808SOL     OW 2422   0.587   1.631   2.788  0.3468  0.2425  0.2000
  808SOL    HW1 2423   0.531   1.546   2.793 -0.7750 -1.1013 -0.5072
  808SOL    HW2 2424   0.683   1.615   2.752  1.8115 -2.1183 -2.8489
  809SOL     OW 2425   0.021   1.238   0.019 -0.1209  0.0834  0.0780
  809SOL    HW1 2426   0.114   1.281   0.016  0.7514  1.2704  1.0451
  809SOL    HW2 2427   0.032   1.134   0.026  1.2030 -2.3512 -2.6744
  810SOL     OW 2428   2.707   0.641   2.654 -0.2067 -0.1716 -0.7368
  810SOL    HW1 2429   2.636   0.701   2.685  1.5934 -0.4661  1.9207
  810SOL    HW2 2430   2.676   0.544   2.662  2.2579 -0.2385  1.2436
  811SOL     OW 2431   2.009   2.629   1.937  0.1344  0.3142 -0.0243
  811SOL    HW1 2432   1.912   2.609   1.931  3.3265  1.0315  0.7806
  811SOL    HW2 2433   2.031   2.609   2.036 -1.6679  0.8153  1.4749
  812SOL     OW 2434   1.213   0.559   0.585 -0.5995 -0.4961  0.2792
  812SOL    HW1 2435   1.281   0.483   0.600 -1.2595 -1.7011  0.3898
  812SOL    HW2 2436   1.253   0.634   0.527  0.3553 -1.9878  1.2404
  813SOL     OW 2437   1.890   0.608   1.675  0.2424 -0.1133  0.3097
  813SOL    HW1 2438   1.832   0.633   1.592 -1.3447  1.0080 -1.8222
  813SOL    HW2 2439   1.849   0.521   1.716 -1.4627  0.5696 -1.8493
  814SOL     OW 2440   2.041   0.889   1.058 -0.0533 -0.3114  0.3968
  814SOL    HW1 2441   2.072   0.798   1.022  2.6530 -2.6623 -1.7081
  814SOL    HW2 2442   2.086   0.965   1.006 -2.2501  2.0158 -0.3562
  815SOL     OW 2443   0.527   0.699   0.525 -0.1876  0.4936  0.1492
  815SOL    HW1 2444   0.564   0.790   0.573  2.4672  1.7923  2.0834
  815SOL    HW2 2445   0.612   0.648   0.512 -0.9383 -0.6882 -0.6993
  816SOL     OW 2446   2.409   2.437   0.296 -0.1868  0.1107  0.1297
  816SOL    HW1 2447   2.414   2.354   0.356  1.5083 -0.6134  0.1677
  816SOL    HW2 2448   2.314   2.451   0.266  2.5170  2.4791  1.8266
  817SOL     OW 2449   2.819   2.480   0.983 -0.4249 -0.1664  0.4938
  817SOL    HW1 2450   2.921   2.471   0.964  0.8278  1.4989 -1.7554
  817SOL    HW2 2451   2.796   2.493   1.081  0.0922  1.3032  0.7311
  818SOL     OW 2452   1.740   0.920   0.008 -0.1697  0.0351 -0.0680
  818SOL    HW1 2453   1.834   0.960   3.083 -1.8563  2.0554  1.6904
  818SOL    HW2 2454   1.697   0.974   0.085 -0.3147 -1.9478 -1.6813
  819SOL     OW 2455   0.445   0.482   0.687  0.0361 -0.6196  0.1032
  819SOL    HW1 2456   0.349   0.512   0.710 -1.0584  0.0551  2.1390
  819SOL    HW2 2457   0.495   0.546   0.622 -0.5982  1.9813  1.7185
  820SOL     OW 2458   1.953   0.800   1.314 -0.6313  0.3022  0.6021
  820SOL    HW1 2459   1.981   0.854   1.232 -1.2570 -1.1865  0.4933
  820SOL    HW2 2460   1.868   0.838   1.356  1.5271 -1.0136  0.5817
  821SOL     OW 2461   2.894   0.212   0.887  0.1492  0.2856 -0.2534
  821SOL    HW1 2462   2.842   0.300   0.898 -2.9682  2.0824  1.9919
  821SOL    HW2 2463   2.834   0.141   0.841 -0.2784 -1.1531  0.4517
  822SOL     OW 2464   0.826   2.418   2.294  0.1652  0.2998  0.1436
  822SOL    HW1 2465   0.867   2.473   2.368  2.6035  1.5509  0.4391
  822SOL    HW2 2466   0.737   2.458   2.264 -2.8007  0.8892 -0.7786
  823SOL     OW 2467   2.746   1.144   1.538  0.3075 -0.1512 -0.1871
  823SOL    HW1 2468   2.753   1.235   1.490 -1.3902 -0.7005  2.2909
  823SOL    HW2 2469   2.830   1.117   1.586 -0.4736  0.0413 -1.0258
  824SOL     OW 2470   0.609   2.554   2.554  0.3863 -0.1667 -0.1545
  824SOL    HW1 2471   0.598   2.460   2.585  0.2633  2.1314  0.0529
  824SOL    HW2 2472   0.697   2.563   2.510 -0.3821 -1.3321 -2.3594
  825SOL     OW 2473   1.580   1.663   3.033  0.0474  0.3986 -0.4945
  825SOL    HW1 2474   1.555   1.686   2.939  0.2274 -1.6712  1.9576
  825SOL    HW2 2475   1.680   1.649   3.037 -1.2684 -0.6797 -0.2639
  826SOL     OW 2476   0.957   2.288   0.027  0.0963 -0.5594  0.2348
  826SOL    HW1 2477   0.972   2.371   0.083 -0.1028 -1.3590  1.1387
  826SOL    HW2 2478   0.989   2.205   0.077 -0.5601 -0.1815  0.7407
  827SOL     OW 2479   0.369   1.450   1.936  0.3926  0.3465  0.2840
  827SOL    HW1 2480   0.323   1.536   1.952  1.9460 -0.0815 -0.8529
  827SOL    HW2 2481   0.338   1.379   2.005  2.5367 -2.5029  1.2200
  828SOL     OW 2482   0.331   1.732   1.706 -0.6715  0.7085 -0.0245
  828SOL    HW1 2483   0.377   1.670   1.774 -2.3145  1.0790  0.7221
  828SOL    HW2 2484   0.410   1.773   1.651  0.2801 -0.4188  0.3854
  829SOL     OW 2485   2.958   2.408   2.958 -0.1420  0.4902 -0.4677
  829SOL    HW1 2486   2.912   2.362   2.881  0.6512 -0.5780  2.0984
  829SOL    HW2 2487   3.049   2.366   2.977  0.7857  1.7287  1.8016
  830SOL     OW 2488   0.885   0.898   0.539  0.1323 -0.0335  0.0504
  830SOL    HW1 2489   0.875   0.823   0.611 -1.7850  0.1600 -0.1314
  830SOL    HW2 2490   0.859   0.860   0.448 -1.3961  0.3805 -1.0012
  831SOL     OW 2491   2.588   2.233   2.971  0.6570  0.1206  0.0766
  831SOL    HW1 2492   2.571   2.143   3.009  0.7816  3.4853  2.2116
  831SOL    HW2 2493   2.526   2.265   2.894  0.0726  0.6912 -2.1630
  832SOL     OW 2494   1.567   2.675   0.530  0.2561 -0.0314  0.1603
  832SOL    HW1 2495   1.548   2.641   0.437 -2.3208 -1.1592  0.4994
  832SOL    HW2 2496   1.612   2.603   0.581 -0.7494  0.6248 -0.7996
  833SOL     OW 2497   0.241   1.027   1.790  0.0042  0.3108 -0.3135
  833SOL    HW1 2498   0.192   1.099   1.732  0.2990  1.7825 -1.0139
  833SOL    HW2 2499   0.335   1.012   1.759  2.6732 -0.9479  3.0517
  834SOL     OW 2500   2.118   0.449   0.569 -0.0728 -0.0544 -0.1241
  834SOL    HW1 2501   2.215   0.466   0.557 -2.2901  1.5503  1.9197
  834SOL    HW2 2502   2.101   0.346   0.571  2.4291 -2.2033  0.7593
  835SOL     OW 2503   2.325   0.625   1.961 -0.1669 -0.3172  0.1230
  835SOL    HW1 2504   2.263   0.621   1.885 -0.0387  1.4508  1.8558
  835SOL    HW2 2505   2.272   0.616   2.045 -1.0964 -0.1671 -1.6940
  836SOL     OW 2506   0.967   1.918   0.988 -0.1667 -0.0290 -0.0453
  836SOL    HW1 2507   1.068   1.914   0.998 -0.2249 -0.5873  1.5761
  836SOL    HW2 2508   0.911   1.975   1.057 -0.7545 -1.8590  1.1599
  837SOL     OW 2509   2.353   1.161   1.901 -0.1726 -0.2835 -0.0792
  837SOL    HW1 2510   2.298   1.087   1.860 -0.4767 -0.4164  0.1142
  837SOL    HW2 2511   2.383   1.136   2.001 -2.4326 -0.8490  0.6488
  838SOL     OW 2512   0.009   0.993   2.802  0.1322  0.2270 -0.0130
  838SOL    HW1 2513   0.012   0.903   2.749 -0.3956 -2.4327 -1.7732
  838SOL    HW2 2514   3.011   1.038   2.784  2.6653  0.6154 -2.6642
  839SOL     OW 2515   3.070   0.198   3.044 -0.5535 -0.1050 -0.2992
  839SOL    HW1 2516   0.068   0.178   3.078  0.2449 -3.4405 -0.1953
  839SOL    HW2 2517   3.009   0.223   0.027  2.1916 -1.7335  0.5953
  840SOL     OW 2518   2.901   1.377   2.615  0.1882  0.2846 -0.1519
  840SOL    HW1 2519   2.804   1.338   2.625 -0.5715  0.1638  2.1505
  840SOL    HW2 2520   2.925   1.421   2.703  0.2548 -1.5476  0.8379
  841SOL     OW 2521   0.649   2.276   2.580  0.4644 -0.1090  0.4834
  841SOL    HW1 2522   0.630   2.230   2.495 -1.4061  2.6638 -0.0025
  841SOL    HW2 2523   0.743   2.258   2.602 -1.2446 -0.1820 -1.3470
  842SOL     OW 2524   0.471   0.061   0.913  0.2688  0.2996 -0.4048
  842SOL    HW1 2525   0.569   0.073   0.941 -0.4400  1.1134 -3.5106
  842SOL    HW2 2526   0.450   0.108   0.824  0.8761  2.0073 -0.3478
  843SOL     OW 2527   3.019   1.497   1.703  0.1196  0.2941 -0.1103
  843SOL    HW1 2528   3.017   1.595   1.726  2.8699 -0.5554  2.2967
  843SOL    HW2 2529   2.927   1.454   1.695 -1.1625  3.7370  1.3520
  844SOL     OW 2530   2.224   2.043   2.339 -0.3406 -0.7488 -0.1591
  844SOL    HW1 2531   2.199   1.947   2.351  0.2410  1.1714  1.4929
  844SOL    HW2 2532   2.236   2.064   2.237 -0.1396 -0.2705 -2.3080
  845SOL     OW 2533   1.869   2.570   2.424 -0.2014 -0.2540 -0.3264
  845SOL    HW1 2534   1.776   2.526   2.440 -2.8018  1.5330  1.5940
  845SOL    HW2 2535   1.933   2.544   2.500 -0.7719  0.2658  2.1033
  846SOL     OW 2536   2.704   1.613   0.222 -0.5752  0.0062  0.0089
  846SOL    HW1 2537   2.638   1.661   0.280  0.6291 -0.5390 -1.0634
  846SOL    HW2 2538   2.681   1.512   0.221  0.3038 -0.7859  2.6560
  847SOL     OW 2539   2.333   0.158   2.745 -0.4385  0.2464  0.1262
  847SOL    HW1 2540   2.400   0.079   2.761  3.3209 -3.1632 -0.9886
  847SOL    HW2 2541   2.331   0.212   2.835 -0.4566 -0.6120  3.9562
  848SOL     OW 2542   1.806   0.624   0.108  0.3281  0.2106  0.2085
  848SOL    HW1 2543   1.725   0.583   0.053  2.1883 -1.2376  0.5090
  848SOL    HW2 2544   1.783   0.711   0.158  1.0064  1.6482  3.1733
  849SOL     OW 2545   1.059   0.463   2.898 -0.7842 -0.1486 -0.1995
  849SOL    HW1 2546   1.066   0.420   2.807  0.3962 -0.4528 -5.1626
  849SOL    HW2 2547   0.976   0.518   2.913  1.5405  0.1712 -2.4836
  850SOL     OW 2548   0.239   0.140   0.064 -0.5051 -0.1427 -0.2440
  850SOL    HW1 2549   0.267   0.119   3.065 -0.6085  5.9334  1.7892
  850SOL    HW2 2550   0.263   0.240   0.079  2.0254  0.7992 -0.2076
  851SOL     OW 2551   0.269   1.336   1.488  0.0224 -0.0732  0.0399
  851SOL    HW1 2552   0.210   1.285   1.557  0.3402  0.4622  1.5091
  851SOL    HW2 2553   0.364   1.325   1.518 -2.7207 -1.5894  1.2916
  852SOL     OW 2554   1.136   0.740   1.868 -0.7820  0.1120  0.5849
  852SOL    HW1 2555   1.085   0.694   1.796  1.1142 -0.8084  2.0017
  852SOL    HW2 2556   1.154   0.679   1.948 -2.4437 -3.4178  0.0028
  853SOL     OW 2557   2.161   1.320   2.917  0.6026  0.2229 -0.7530
  853SOL    HW1 2558   2.176   1.217   2.918 -0.5770  1.4696  1.3397
  853SOL    HW2 2559   2.061   1.336   2.894 -1.8733 -1.3529  0.1876
  854SOL     OW 2560   1.287   1.245   1.737  0.1413 -0.0581  0.3082
  854SOL    HW1 2561   1.274   1.330   1.680 -2.0058  0.3367 -1.2051
  854SOL    HW2 2562   1.260   1.159   1.690  2.4919  2.0622  1.5589
  855SOL     OW 2563   0.275   2.268   1.796  0.7784  0.1087  0.1388
  855SOL    HW1 2564   0.182   2.251   1.829  0.3406  0.1147  0.3348
  855SOL    HW2 2565   0.310   2.183   1.748  1.3808 -5.2001 -2.4518
  856SOL     OW 2566   1.081   1.459   2.553 -0.0634 -0.0414 -0.1736
  856SOL    HW1 2567   0.997   1.482   2.500 -3.0467 -1.6037  0.5492
  856SOL    HW2 2568   1.146   1.537   2.569 -0.8688 -1.6959 -0.9286
  857SOL     OW 2569   1.215   0.941   2.610 -0.2422 -0.0929  0.1166
  857SOL    HW1 2570   1.138   0.912   2.669 -0.1587  1.4165 -0.3241
  857SOL    HW2 2571   1.303   0.944   2.665  0.2218 -2.0888  0.5595
  858SOL     OW 2572   0.251   2.822   1.581  0.3031  0.3809  0.2101
  858SOL    HW1 2573   0.253   2.912   1.523 -0.4448  0.8138 -0.3143
  858SOL    HW2 2574   0.212   2.838   1.672 -1.1816 -0.8496 -0.5379
  859SOL     OW 2575   2.454   0.073   0.728 -0.2609  0.2058 -0.0548
  859SOL    HW1 2576   2.448   0.147   0.793  0.8516 -0.6368 -0.7522
  859SOL    HW2 2577   2.551   0.031   0.733  0.0934  1.9406  1.6096
  860SOL     OW 2578   0.587   0.827   1.525 -0.9877 -0.4395  0.0131
  860SOL    HW1 2579   0.588   0.763   1.603 -0.9363  1.2695 -0.1090
  860SOL    HW2 2580   0.588   0.921   1.556 -1.2323 -2.2549 -1.0176
  861SOL     OW 2581   1.469   0.782   1.241  0.0788 -0.0565  0.4593
  861SOL    HW1 2582   1.560   0.760   1.274  1.5577  1.6247  0.1517
  861SOL    HW2 2583   1.473   0.849   1.164 -0.5508  0.2942 -0.7696
  862SOL     OW 2584   0.593   2.803   2.306  0.5264 -0.3042  0.1708
  862SOL    HW1 2585   0.522   2.734   2.329  1.3770  0.8263  0.1587
  862SOL    HW2 2586   0.660   2.811   2.385 -2.2931 -1.7566  0.1200
  863SOL     OW 2587   2.364   0.127   1.289 -0.2022  1.1178  0.0655
  863SOL    HW1 2588   2.402   0.037   1.261  0.6673 -1.5558  1.8922
  863SOL    HW2 2589   2.294   0.104   1.358  0.8499 -0.8432 -1.2220
  864SOL     OW 2590   2.687   2.827   2.681 -0.1258 -0.4360 -0.5634
  864SOL    HW1 2591   2.789   2.845   2.691  4.1882 -0.9304  1.5991
  864SOL    HW2 2592   2.648   2.878   2.603 -2.2402  4.2091 -2.5824
  865SOL     OW 2593   1.305   1.170   2.143  0.0195  0.0132 -0.0772
  865SOL    HW1 2594   1.277   1.108   2.217 -3.6469  2.3177  0.1093
  865SOL    HW2 2595   1.220   1.220   2.109 -1.0679 -1.2655  0.1292
  866SOL     OW 2596   2.335   2.638   0.915 -0.2554  0.1072 -0.1466
  866SOL    HW1 2597   2.406   2.680   0.972  0.2837  1.0072 -2.7419
  866SOL    HW2 2598   2.246   2.693   0.920  2.9438 -3.2466 -2.2133
  867SOL     OW 2599   2.535   2.696   1.090 -0.4163 -0.1051  0.4701
  867SOL    HW1 2600   2.538   2.794   1.115 -1.7895 -0.0830 -0.7574
  867SOL    HW2 2601   2.621   2.652   1.117 -0.1066  1.0879 -0.5566
  868SOL     OW 2602   2.633   1.422   1.452  0.0083  0.0534 -0.3070
  868SOL    HW1 2603   2.661   1.449   1.550  0.6574  0.1957  3.1758
  868SOL    HW2 2604   2.538   1.395   1.451 -0.8565 -2.0020 -0.5132
  869SOL     OW 2605   2.250   1.568   2.048 -0.2565 -0.0019 -0.5614
  869SOL    HW1 2606   2.229   1.670   2.037  1.5506  0.3658  0.1218
  869SOL    HW2 2607   2.160   1.515   2.036  0.3861 -2.3451 -0.7386
  870SOL     OW 2608   1.395   1.191   0.876 -0.1006  0.4339  0.0650
  870SOL    HW1 2609   1.420   1.108   0.826 -1.4058 -0.4013  0.3781
  870SOL    HW2 2610   1.454   1.270   0.846  0.8738 -0.2864 -0.3094
  871SOL     OW 2611   2.351   1.430   1.843 -0.0748  0.2892  0.8536
  871SOL    HW1 2612   2.338   1.331   1.858  1.3607  0.8330  2.9576
  871SOL    HW2 2613   2.308   1.477   1.922  4.4477 -0.5533 -2.3440
  872SOL     OW 2614   1.522   1.338   2.124 -0.8171 -0.1875 -0.0929
  872SOL    HW1 2615   1.499   1.415   2.188 -3.3558 -1.5435 -2.8145
  872SOL    HW2 2616   1.440   1.282   2.113  3.2074  2.2977 -0.0561
  873SOL     OW 2617   1.641   1.704   1.008  0.0809  0.5392  0.3083
  873SOL    HW1 2618   1.550   1.699   0.969 -1.0970 -0.8833  1.0993
  873SOL    HW2 2619   1.714   1.688   0.938 -0.7183 -0.1256  3.5695
  874SOL     OW 2620   1.642   1.386   0.787  0.3607  0.3064 -0.1604
  874SOL    HW1 2621   1.706   1.462   0.816  0.4606 -1.4022 -1.5516
  874SOL    HW2 2622   1.554   1.415   0.750  0.6788 -3.1144  1.2309
  875SOL     OW 2623   2.257   0.575   2.495  0.2211 -0.4794 -0.4457
  875SOL    HW1 2624   2.297   0.666   2.479  1.3862  2.4892 -0.4213
  875SOL    HW2 2625   2.324   0.506   2.491 -2.2217  1.7716  0.2132
  876SOL     OW 2626   1.083   1.106   0.586  0.0210 -0.1884 -0.2404
  876SOL    HW1 2627   1.010   1.036   0.576  0.6263  0.9777 -3.4042
  876SOL    HW2 2628   1.156   1.087   0.514 -1.3930 -1.6169 -0.1405
  877SOL     OW 2629   1.824   0.126   0.652  0.5003 -0.2366 -0.1618
  877SOL    HW1 2630   1.903   0.128   0.589  1.0224 -0.3949  0.8396
  877SOL    HW2 2631   1.850   0.045   0.711 -0.5065  0.6407  0.9822
  878SOL     OW 2632   0.041   1.901   0.541 -0.0597 -0.1142  0.1308
  878SOL    HW1 2633   0.103   1.973   0.497 -0.6557  0.4539 -0.5284
  878SOL    HW2 2634   0.014   1.931   0.639 -0.5187  0.1273  1.3230
  879SOL     OW 2635   2.896   2.161   1.848 -0.0241 -0.0972 -0.1526
  879SOL    HW1 2636   2.966   2.101   1.887 -2.9633 -0.1073  0.1790
  879SOL    HW2 2637   2.804   2.107   1.847 -1.3130  0.1920  2.6385
  880SOL     OW 2638   0.822   1.481   0.611  0.2740 -0.3445  0.0856
  880SOL    HW1 2639   0.899   1.429   0.566 -1.3423  1.5921  2.5407
  880SOL    HW2 2640   0.859   1.562   0.662  1.3353 -1.6456 -0.1931
  881SOL     OW 2641   1.530   0.505   2.583  0.0685  0.7066  0.1920
  881SOL    HW1 2642   1.467   0.508   2.665 -1.7481  0.8342 -1.6512
  881SOL    HW2 2643   1.491   0.454   2.504  0.0714 -0.6248  1.0179
  882SOL     OW 2644   2.553   0.659   0.408 -0.0467  0.2730  0.3659
  882SOL    HW1 2645   2.579   0.668   0.309 -0.2614 -0.2313 -0.8332
  882SOL    HW2 2646   2.630   0.626   0.461  2.1439  0.5558 -0.0808
  883SOL     OW 2647   1.678   0.920   2.390  0.5096 -0.0522  0.2416
  883SOL    HW1 2648   1.593   0.902   2.444  0.9997 -2.3319 -0.3602
  883SOL    HW2 2649   1.682   1.019   2.361  0.4776 -0.2564 -0.4410
  884SOL     OW 2650   0.374   3.037   1.866  0.3565  0.1538  0.2043
  884SOL    HW1 2651   0.286   3.008   1.814 -0.3234 -2.2986 -2.6153
  884SOL    HW2 2652   0.438   2.956   1.863 -1.3601 -1.7666  0.2731
  885SOL     OW 2653   1.643   0.837   2.125 -0.3250  0.0853  0.6368
  885SOL    HW1 2654   1.669   0.738   2.113 -0.7316  0.3807 -2.2031
  885SOL    HW2 2655   1.660   0.868   2.222 -1.1645  4.7488  0.5198
  886SOL     OW 2656   1.699   0.158   2.652  0.2732  0.0553 -0.2509
  886SOL    HW1 2657   1.727   0.202   2.564 -3.3701 -0.3669  0.2104
  886SOL    HW2 2658   1.712   0.224   2.729  0.5179 -0.2977 -0.5302
  887SOL     OW 2659   0.914   0.239   1.523  0.1775 -0.3161  0.4475
  887SOL    HW1 2660   0.906   0.276   1.425 -3.3954 -2.5743 -1.6285
  887SOL    HW2 2661   1.003   0.189   1.535  1.4879 -1.6160 -2.3082
  888SOL     OW 2662   2.388   0.513   1.588 -0.1892  0.1112 -0.6622
  888SOL    HW1 2663   2.465   0.557   1.638 -1.0852  0.4949 -0.6400
  888SOL    HW2 2664   2.431   0.465   1.511  2.7504  0.9154 -0.5630
  889SOL     OW 2665   1.396   0.302   0.772 -0.6406  0.2974  0.1992
  889SOL    HW1 2666   1.496   0.284   0.779 -0.7214 -2.2785 -0.2818
  889SOL    HW2 2667   1.372   0.362   0.848 -0.2925  0.0120 -0.6339
  890SOL     OW 2668   1.221   2.693   0.806  0.4125  0.0572 -0.0459
  890SOL    HW1 2669   1.283   2.666   0.885  0.3199 -0.1510 -0.3608
  890SOL    HW2 2670   1.273   2.714   0.721 -2.6168  0.5722  3.4934
  891SOL     OW 2671   2.889   1.245   0.151  0.1515  0.0892  0.1288
  891SOL    HW1 2672   2.977   1.251   0.102 -2.0193  0.2215 -0.9878
  891SOL    HW2 2673   2.903   1.186   0.235 -0.3152 -0.1634  0.9277
  892SOL     OW 2674   1.973   1.487   2.302  0.0038  0.2962 -0.1455
  892SOL    HW1 2675   2.042   1.442   2.361 -2.0327  1.6398  0.0539
  892SOL    HW2 2676   1.998   1.585   2.277  1.9485  0.6976 -0.0217
  893SOL     OW 2677   2.336   2.613   1.289  0.0246  0.7318  0.5986
  893SOL    HW1 2678   2.261   2.585   1.222 -2.2597  0.9894  1.8763
  893SOL    HW2 2679   2.415   2.659   1.240 -0.1597  1.7807  0.5409
  894SOL     OW 2680   0.199   0.572   0.741 -0.0057  0.0800 -0.2389
  894SOL    HW1 2681   0.202   0.520   0.832 -3.0379 -2.5794  0.4355
  894SOL    HW2 2682   0.189   0.674   0.754 -2.3214 -0.5320  1.1258
  895SOL     OW 2683   2.983   2.065   2.526 -0.0797  0.1312 -0.1869
  895SOL    HW1 2684   2.967   2.086   2.426 -1.3802  0.8889  0.0133
  895SOL    HW2 2685   3.017   1.967   2.536  1.8717 -0.0836 -2.6397
  896SOL     OW 2686   1.288   2.933   2.490 -0.5819 -0.1565  0.0071
  896SOL    HW1 2687   1.324   2.958   2.578 -1.2391  2.2009  0.0503
  896SOL    HW2 2688   1.227   3.007   2.459  2.6951  0.4192 -1.6550
  897SOL     OW 2689   0.400   2.078   1.644  0.8906  0.5784  0.5473
  897SOL    HW1 2690   0.373   2.104   1.550  0.0903 -0.0457  0.4837
  897SOL    HW2 2691   0.482   2.015   1.638  1.4181 -1.7279  1.8979
  898SOL     OW 2692   0.759   2.180   1.784 -0.4071 -0.0281  0.4294
  898SOL    HW1 2693   0.761   2.158   1.687 -2.4547  4.3376 -0.7972
  898SOL    HW2 2694   0.792   2.277   1.799  1.0654  1.7472 -0.1885
  899SOL     OW 2695   1.895   0.160   1.787  0.1169 -0.1428 -0.0774
  899SOL    HW1 2696   1.824   0.118   1.842  1.1576  0.7869 -1.3088
  899SOL    HW2 2697   1.884   0.150   1.683 -3.1768 -1.5858  0.3224
  900SOL     OW 2698   1.532   1.150   0.463  0.5351 -0.8109 -0.3797
  900SOL    HW1 2699   1.515   1.251   0.473 -3.0565 -2.1915 -0.1473
  900SOL    HW2 2700   1.535   1.115   0.556  0.2706  0.6175  0.1291
  901SOL     OW 2701   1.193   0.997   2.344  0.5371 -0.0670  0.2325
  901SOL    HW1 2702   1.210   1.015   2.441 -2.5873 -0.5551 -0.3772
  901SOL    HW2 2703   1.228   0.907   2.321 -0.3790  4.3410  2.6737
  902SOL     OW 2704   0.246   1.963   0.840  0.4883 -0.6072 -0.2346
  902SOL    HW1 2705   0.273   1.874   0.798  1.8414  0.9814  1.4833
  902SOL    HW2 2706   0.189   1.956   0.924  1.9946  2.8794  1.1303
  903SOL     OW 2707   2.394   1.135   2.172  0.1752  0.3360  0.1688
  903SOL    HW1 2708   2.382   1.236   2.186 -1.2775  1.4248  2.3709
  903SOL    HW2 2709   2.448   1.090   2.246 -2.9793 -0.4812  0.8818
  904SOL     OW 2710   1.279   1.998   3.070 -0.2481  0.4343 -0.1425
  904SOL    HW1 2711   1.258   2.019   2.976  0.3822 -1.8146  2.0956
  904SOL    HW2 2712   1.194   1.974   0.028 -0.6324  0.8259  0.4718
  905SOL     OW 2713   2.046   0.071   2.030  0.3512 -0.2559 -0.0737
  905SOL    HW1 2714   2.025   0.063   1.931 -1.1718  2.8413  0.5330
  905SOL    HW2 2715   2.110   0.150   2.044  1.1770  0.0152  1.4399
  906SOL     OW 2716   0.803   2.637   3.052  0.5382 -0.0332  0.0052
  906SOL    HW1 2717   0.742   2.559   3.070 -2.3579 -0.1514 -1.7155
  906SOL    HW2 2718   0.879   2.645   0.023  1.0344 -0.3466 -1.1160
  907SOL     OW 2719   0.446   2.591   0.839  0.2946  0.5018 -0.0672
  907SOL    HW1 2720   0.548   2.584   0.835 -0.9234  4.0580  1.4907
  907SOL    HW2 2721   0.422   2.685   0.874  1.1520  1.1102 -0.5132
  908SOL     OW 2722   1.002   2.564   1.742 -0.1062 -0.8322 -0.1219
  908SOL    HW1 2723   1.098   2.533   1.760 -1.4538  0.2978 -0.8544
  908SOL    HW2 2724   0.982   2.553   1.644 -0.2356 -0.6113  0.0803
  909SOL     OW 2725   1.795   0.942   0.981 -0.2085  0.1594  0.4603
  909SOL    HW1 2726   1.889   0.916   1.014 -0.0746  1.3807  0.5163
  909SOL    HW2 2727   1.769   1.032   1.023  1.4830 -2.1839 -0.5472
  910SOL     OW 2728   0.932   0.510   0.223 -0.1945 -0.2741  0.3220
  910SOL    HW1 2729   0.838   0.535   0.199  0.6823 -1.9473 -0.6045
  910SOL    HW2 2730   1.001   0.549   0.160 -0.1447  0.3384  0.2549
  911SOL     OW 2731   0.516   0.309   0.010  0.1060 -0.6488  0.1253
  911SOL    HW1 2732   0.565   0.311   3.012  1.3537  0.0797 -2.1308
  911SOL    HW2 2733   0.422   0.353   0.004  0.3783 -1.3254  0.2111
  912SOL     OW 2734   0.287   1.978   2.789  0.0452  0.3474  0.6279
  912SOL    HW1 2735   0.255   1.916   2.714  0.3077 -3.0144  0.9444
  912SOL    HW2 2736   0.213   1.991   2.856  0.3029  1.2233 -0.6117
  913SOL     OW 2737   2.310   2.931   3.080  0.3693  0.4412 -0.1662
  913SOL    HW1 2738   2.234   2.988   3.040 -1.6617 -1.2889 -2.0625
  913SOL    HW2 2739   2.364   2.978   0.058  1.0382 -2.7467 -1.8204
  914SOL     OW 2740   1.455   1.547   2.283 -1.2215 -0.3712 -0.0727
  914SOL    HW1 2741   1.385   1.555   2.360  0.7327 -1.9293 -0.0322
  914SOL    HW2 2742   1.497   1.640   2.270  0.1709  2.0514  0.3044
  915SOL     OW 2743   2.751   2.398   1.976 -0.1931  0.3373  0.2046
  915SOL    HW1 2744   2.724   2.350   2.066  0.2471 -0.7363  0.4882
  915SOL    HW2 2745   2.827   2.347   1.930  0.4349  0.2946  0.7018
  916SOL     OW 2746   0.026   1.150   2.248  0.1855 -0.8162  0.0911
  916SOL    HW1 2747   0.110   1.124   2.195  1.9189 -1.7486  1.0940
  916SOL    HW2 2748   3.048   1.181   2.183  1.3332 -2.2225  0.5866
  917SOL     OW 2749   1.345   0.488   0.196  0.1676  0.7104  0.5070
  917SOL    HW1 2750   1.393   0.558   0.253 -1.6664  0.1741 -0.9690
  917SOL    HW2 2751   1.344   0.393   0.236 -1.6529  2.1049 -2.8431
  918SOL     OW 2752   1.464   2.838   1.966 -0.3571  0.2077  0.1732
  918SOL    HW1 2753   1.421   2.747   1.965  2.6200  0.7484  2.3805
  918SOL    HW2 2754   1.561   2.835   1.942 -0.8853 -2.2896 -2.3273
  919SOL     OW 2755   1.613   2.392   1.856  0.0079 -0.0579 -0.0949
  919SOL    HW1 2756   1.561   2.367   1.774  0.6469 -0.5898 -1.6244
  919SOL    HW2 2757   1.699   2.337   1.866  1.5703  1.7276  0.3262
  920SOL     OW 2758   0.221   0.849   0.211 -0.1284  0.0291 -0.5608
  920SOL    HW1 2759   0.137   0.831   0.267 -3.3385  1.3703  2.0488
  920SOL    HW2 2760   0.283   0.769   0.227 -1.6190  0.0402  0.7391
  921SOL     OW 2761   2.104   0.834   2.329  0.5073 -0.2440 -0.8278
  921SOL    HW1 2762   2.008   0.803   2.351  0.8960  0.9884  1.5742
  921SOL    HW2 2763   2.114   0.903   2.253  3.0767  1.2215 -4.3709
  922SOL     OW 2764   1.233   1.762   2.769 -0.1456 -0.6513  0.0593
  922SOL    HW1 2765   1.255   1.864   2.779  0.5874  1.2101 -0.5020
  922SOL    HW2 2766   1.162   1.738   2.840 -0.0425 -0.6228 -0.2222
  923SOL     OW 2767   0.837   1.295   2.262 -0.2313  0.9295  0.8817
  923SOL    HW1 2768   0.734   1.285   2.260 -0.9248  1.3786  0.6991
  923SOL    HW2 2769   0.863   1.390   2.292 -2.8274 -1.9009  0.9595
  924SOL     OW 2770   0.087   2.004   2.953 -0.7435  0.2572 -0.6251
  924SOL    HW1 2771   3.084   1.985   2.939  4.6907  1.0061 -0.9717
  924SOL    HW2 2772   0.124   1.953   3.035  0.2142  0.2427  0.1855
  925SOL     OW 2773   1.799   1.619   0.805  0.6831  0.0403  0.3318
  925SOL    HW1 2774   1.745   1.676   0.741 -0.2668  2.5605 -0.5391
  925SOL    HW2 2775   1.886   1.597   0.760 -1.0228 -0.5963  1.5501
  926SOL     OW 2776   1.835   0.282   2.465  0.4523 -0.1970 -0.0672
  926SOL    HW1 2777   1.856   0.225   2.382 -0.4940  0.0150 -1.6403
  926SOL    HW2 2778   1.917   0.331   2.498 -0.1405  1.5372 -0.0592
  927SOL     OW 2779   2.521   2.672   1.678 -0.0025 -0.4553 -0.5128
  927SOL    HW1 2780   2.574   2.737   1.734 -1.8877 -0.8898 -2.0333
  927SOL    HW2 2781   2.520   2.575   1.709 -2.3717 -0.0768  0.4854
  928SOL     OW 2782   0.594   0.980   2.944  0.6235  0.3550  0.7219
  928SOL    HW1 2783   0.500   0.981   2.915  1.5763  0.5867  0.5544
  928SOL    HW2 2784   0.659   0.983   2.866 -1.6563 -1.9272 -1.8395
  929SOL     OW 2785   0.057   0.131   0.829 -0.3949  0.7029  0.2703
  929SOL    HW1 2786   0.084   0.199   0.760  0.1101  1.6900  1.5498
  929SOL    HW2 2787   3.049   0.124   0.842 -0.3035 -1.5176 -0.4610
  930SOL     OW 2788   2.587   3.033   1.843 -0.2226  0.5494  0.2848
  930SOL    HW1 2789   2.488   3.039   1.866 -0.4721  1.6098 -0.3380
  930SOL    HW2 2790   2.622   0.017   1.781  2.0559 -1.8782 -0.8117
  931SOL     OW 2791   2.338   1.112   2.959 -0.1985 -0.0391  0.3495
  931SOL    HW1 2792   2.406   1.142   3.029 -0.6022 -0.2211 -1.9298
  931SOL    HW2 2793   2.347   1.006   2.956  1.8988 -2.2276 -0.8715
  932SOL     OW 2794   2.760   1.171   0.856  0.1561  0.2693  0.0138
  932SOL    HW1 2795   2.669   1.207   0.819 -0.2109  2.8352 -1.2722
  932SOL    HW2 2796   2.832   1.238   0.831 -1.7054  0.1245  1.4494
  933SOL     OW 2797   2.854   2.256   1.591  0.4538 -0.5778  0.2650
  933SOL    HW1 2798   2.850   2.210   1.682 -0.7447  3.1941 -1.7703
  933SOL    HW2 2799   2.907   2.342   1.607  0.7998  0.5458  1.6092
  934SOL     OW 2800   1.006   2.985   0.987 -0.1406 -0.5180  0.1264
  934SOL    HW1 2801   0.969   3.072   0.946 -1.2532  0.5868  1.7021
  934SOL    HW2 2802   1.089   2.955   0.935  1.8736 -0.2436  0.2868
  935SOL     OW 2803   2.559   0.430   2.226  0.3211 -0.5566  0.2169
  935SOL    HW1 2804   2.647   0.387   2.240  0.5448 -2.1450 -0.0683
  935SOL    HW2 2805   2.475   0.388   2.264 -0.5718  0.6690  2.5180
  936SOL     OW 2806   2.804   0.423   1.641 -0.2558  0.0120 -0.2431
  936SOL    HW1 2807   2.718   0.477   1.654  0.1117 -1.3737  1.2086
  936SOL    HW2 2808   2.861   0.412   1.722  2.6912 -0.0107 -1.7040
  937SOL     OW 2809   1.749   1.235   1.701 -0.1462  0.0508  0.2163
  937SOL    HW1 2810   1.837   1.232   1.647 -0.0415  1.0997  1.5306
  937SOL    HW2 2811   1.716   1.149   1.746  1.2133  1.8352  0.5202
  938SOL     OW 2812   0.687   2.367   0.055  0.0746 -0.1688  0.2643
  938SOL    HW1 2813   0.590   2.345   0.090 -0.1424  0.9595 -1.4105
  938SOL    HW2 2814   0.755   2.341   0.128 -1.1242  0.5013  1.3197
  939SOL     OW 2815   1.591   0.503   3.035 -0.5071  0.1319 -0.5068
  939SOL    HW1 2816   1.550   0.439   0.010  0.5865  0.8111  1.4697
  939SOL    HW2 2817   1.631   0.447   2.955 -0.7717 -4.3691 -1.1121
  940SOL     OW 2818   1.428   2.647   0.983  0.2728 -0.1773  0.1910
  940SOL    HW1 2819   1.433   2.612   1.078 -2.2927  0.3501 -0.3275
  940SOL    HW2 2820   1.515   2.689   0.959  0.0457 -1.8974  1.0135
  941SOL     OW 2821   1.464   1.793   1.898  0.4930 -0.1721  0.7819
  941SOL    HW1 2822   1.531   1.763   1.828 -3.8315 -2.3299  1.8815
  941SOL    HW2 2823   1.430   1.888   1.882 -1.6352  0.9355  2.1670
  942SOL     OW 2824   2.918   1.872   2.883 -0.0254 -0.2580  0.2508
  942SOL    HW1 2825   2.872   1.815   2.950 -0.2221 -0.2629 -1.4819
  942SOL    HW2 2826   2.847   1.897   2.812 -2.2976  6.6074  0.1079
  943SOL     OW 2827   2.717   2.805   1.822  0.2256 -0.1550  0.3880
  943SOL    HW1 2828   2.647   2.880   1.831  0.2071 -0.2466  2.3072
  943SOL    HW2 2829   2.739   2.750   1.903 -1.0229 -0.9127 -0.0835
  944SOL     OW 2830   1.702   1.991   2.950  0.0958  0.2333  0.4257
  944SOL    HW1 2831   1.606   2.018   2.950  0.5468  0.4035  3.6025
  944SOL    HW2 2832   1.746   2.002   2.861  2.4018  2.8262  0.0847
  945SOL     OW 2833   3.057   2.120   1.247  0.0320 -0.2712 -0.1714
  945SOL    HW1 2834   3.072   2.095   1.347 -0.4063  2.3237  3.3521
  945SOL    HW2 2835   2.967   2.162   1.242 -0.8894 -1.9723 -1.1279
  946SOL     OW 2836   1.569   1.252   2.990  0.5747  0.1109  0.3171
  946SOL    HW1 2837   1.489   1.188   3.012  0.8638  1.3933 -2.5999
  946SOL    HW2 2838   1.618   1.227   2.903 -0.3321 -3.5047 -3.0166
  947SOL     OW 2839   0.182   1.062   2.048 -0.1289 -0.2230  0.4499
  947SOL    HW1 2840   0.209   1.065   1.948 -0.2927  1.8518 -2.1185
  947SOL    HW2 2841   0.170   0.965   2.085  0.0656 -1.6871  1.6341
  948SOL     OW 2842   0.319   1.097   0.492 -1.0505  0.0882  0.1724
  948SOL    HW1 2843   0.268   1.014   0.474  2.6973  1.7118  1.7169
  948SOL    HW2 2844   0.421   1.079   0.481  0.7667  4.0991 -4.1628
  949SOL     OW 2845   0.732   0.335   2.757 -0.1832 -0.0016 -0.2516
  949SOL    HW1 2846   0.686   0.423   2.747 -1.7085  0.8407  2.2563
  949SOL    HW2 2847   0.828   0.341   2.723 -1.5920  0.6072 -0.9115
  950SOL     OW 2848   0.052   0.396   1.215 -0.1879  0.1379 -0.3263
  950SOL    HW1 2849   3.083   0.322   1.177 -0.1270  1.1412 -1.0634
  950SOL    HW2 2850   0.026   0.406   1.313  0.8489 -1.1612 -0.6261
  951SOL     OW 2851   0.221   1.114   2.891 -0.4255  0.0253 -0.1761
  951SOL    HW1 2852   0.137   1.073   2.841 -0.1291 -1.4162  1.2750
  951SOL    HW2 2853   0.252   1.057   2.971 -0.9143 -0.7548  1.5586
  952SOL     OW 2854   2.031   2.166   1.702  0.0775 -0.1128 -0.9627
  952SOL    HW1 2855   2.019   2.072   1.661 -1.6294  0.2648  1.1007
  952SOL    HW2 2856   2.129   2.184   1.728 -0.9408  0.0212  1.1537
  953SOL     OW 2857   0.397   2.536   3.035 -0.0677 -0.4802  0.0625
  953SOL    HW1 2858   0.451   2.475   2.977  0.0866  1.3398  0.9530
  953SOL    HW2 2859   0.315   2.486   3.070 -1.4626 -0.4945  1.8879
  954SOL     OW 2860   2.484   0.738   1.018 -0.0465  0.1312 -0.0173
  954SOL    HW1 2861   2.541   0.702   0.944 -1.7613 -0.4279  0.1026
  954SOL    HW2 2862   2.524   0.716   1.112  1.1836 -4.3166  3.4772
  955SOL     OW 2863   1.340   1.289   0.208  0.0054  0.1755 -0.3570
  955SOL    HW1 2864   1.419   1.355   0.183  1.4503  0.1506 -1.3762
  955SOL    HW2 2865   1.272   1.292   0.131  1.6371  0.6400  2.2107
  956SOL     OW 2866   0.854   0.650   2.301  0.2152  0.1920  0.1329
  956SOL    HW1 2867   0.865   0.748   2.293 -0.3504 -1.8303  0.8729
  956SOL    HW2 2868   0.902   0.622   2.387 -0.4145 -3.7769 -0.0812
  957SOL     OW 2869   0.531   0.378   2.330  0.3514  0.2676 -0.0078
  957SOL    HW1 2870   0.599   0.309   2.353 -1.2562  4.2251 -2.3030
  957SOL    HW2 2871   0.443   0.334   2.295  0.2737  0.9395 -1.7049
  958SOL     OW 2872   0.845   1.945   0.758 -0.2715 -0.1438 -0.8253
  958SOL    HW1 2873   0.897   1.931   0.847 -1.1525  1.5028 -2.9380
  958SOL    HW2 2874   0.747   1.972   0.767 -1.1163 -1.2014 -2.4527
  959SOL     OW 2875   2.571   0.726   1.967 -0.2134 -0.1291  0.1569
  959SOL    HW1 2876   2.479   0.682   1.955 -0.6430  2.5291 -3.6606
  959SOL    HW2 2877   2.591   0.729   2.069  0.8289 -0.1757 -0.2564
  960SOL     OW 2878   0.233   1.298   2.659  0.2035 -0.0716  0.6550
  960SOL    HW1 2879   0.161   1.294   2.585 -0.2715  1.6182 -1.5385
  960SOL    HW2 2880   0.211   1.246   2.739  4.1640 -2.3518 -2.8789
  961SOL     OW 2881   0.927   1.657   0.795  0.2433  0.2645  0.1892
  961SOL    HW1 2882   0.901   1.747   0.753  0.2291  2.3960 -0.1942
  961SOL    HW2 2883   0.889   1.649   0.894 -4.7700 -1.3171  1.1288
  962SOL     OW 2884   0.432   1.550   1.173  0.4831  0.3358  0.2498
  962SOL    HW1 2885   0.365   1.475   1.191  0.7272 -0.1624 -0.4844
  962SOL    HW2 2886   0.390   1.644   1.174  1.2057 -1.5828 -2.0109
  963SOL     OW 2887   1.344   2.238   0.255  0.1590 -0.4782 -0.1735
  963SOL    HW1 2888   1.396   2.224   0.173 -0.8780  1.2873  3.4117
  963SOL    HW2 2889   1.317   2.147   0.293  2.1140  0.1372  0.7298
  964SOL     OW 2890   0.182   2.656   2.713  0.0504  0.1530  0.4911
  964SOL    HW1 2891   0.281   2.683   2.716 -0.0765  0.8151 -0.4468
  964SOL    HW2 2892   0.171   2.552   2.710  2.2335  0.5469 -3.3928
  965SOL     OW 2893   2.752   1.786   0.011 -0.0538  0.5581 -0.2472
  965SOL    HW1 2894   2.702   1.717   0.066  1.9990 -1.2428 -1.2389
  965SOL    HW2 2895   2.829   1.819   0.071  1.4169 -0.4679  3.4059
  966SOL     OW 2896   2.669   1.265   2.611  0.1503 -0.0600 -0.1130
  966SOL    HW1 2897   2.642   1.312   2.519  0.2441  2.8533 -1.3944
  966SOL    HW2 2898   2.580   1.225   2.645 -1.6447  1.4929  1.5025
  967SOL     OW 2899   1.663   0.272   0.465 -0.2023 -0.3635  0.0196
  967SOL    HW1 2900   1.739   0.318   0.418 -0.0507  1.4612 -1.5673
  967SOL    HW2 2901   1.695   0.190   0.515  0.8656 -0.0548 -0.9815
  968SOL     OW 2902   2.715   2.972   0.413  0.0213  0.3494 -0.2987
  968SOL    HW1 2903   2.798   2.978   0.475  0.3587 -0.2558 -1.4585
  968SOL    HW2 2904   2.644   3.042   0.443 -0.7146 -1.4323 -0.6979
  969SOL     OW 2905   0.440   0.990   2.401  0.0855  0.0222  0.2561
  969SOL    HW1 2906   0.436   1.006   2.299 -2.1530 -0.3545 -1.6300
  969SOL    HW2 2907   0.500   1.060   2.451  2.6903 -0.8062  0.4316
  970SOL     OW 2908   2.102   1.702   2.698  0.5729 -0.0920  0.7210
  970SOL    HW1 2909   2.124   1.784   2.755 -1.7089 -1.7251  0.7760
  970SOL    HW2 2910   2.183   1.641   2.692 -1.8919  0.3627  0.8730
  971SOL     OW 2911   2.782   3.074   2.026 -0.0034 -0.9657  0.3439
  971SOL    HW1 2912   2.853   0.052   2.000  1.0494  1.5691  3.3541
  971SOL    HW2 2913   2.714   3.064   1.949  2.3154  2.8253  0.9475
  972SOL     OW 2914   3.011   0.575   0.683  0.1658 -0.1369 -0.1708
  972SOL    HW1 2915   0.012   0.548   0.708 -2.4389  2.3991  1.4219
  972SOL    HW2 2916   3.004   0.676   0.689  0.2147 -1.1497 -0.2592
  973SOL     OW 2917   2.649   0.033   2.246 -0.3471  0.2420 -0.4699
  973SOL    HW1 2918   2.691   0.002   2.156 -1.1812 -2.2379 -0.5315
  973SOL    HW2 2919   2.651   0.131   2.264 -0.4706 -1.8410 -3.1071
  974SOL     OW 2920   2.918   0.848   1.367  0.0115 -0.3074  0.2123
  974SOL    HW1 2921   2.884   0.924   1.309 -0.4170  0.4870  1.0079
  974SOL    HW2 2922   2.952   0.770   1.311 -1.2415 -0.0317 -0.7221
  975SOL     OW 2923   1.486   2.781   2.400  0.6591 -0.3484  0.0985
  975SOL    HW1 2924   1.401   2.822   2.442 -1.7341  0.1030 -1.2160
  975SOL    HW2 2925   1.545   2.851   2.360 -0.0858 -1.7176  0.7782
  976SOL     OW 2926   2.000   1.242   1.628  0.0842 -0.1097 -0.2182
  976SOL    HW1 2927   2.046   1.249   1.536 -0.1211  1.2334  0.3968
  976SOL    HW2 2928   2.038   1.169   1.687 -1.5175 -0.5510 -2.4675
  977SOL     OW 2929   2.582   2.776   0.256 -0.5752  0.0410  0.1524
  977SOL    HW1 2930   2.619   2.680   0.255  0.1174  1.3287  0.9717
  977SOL    HW2 2931   2.650   2.831   0.310 -2.0322 -3.9367  0.6862
  978SOL     OW 2932   1.998   1.020   2.075 -0.5440 -0.0881  0.3262
  978SOL    HW1 2933   2.100   1.018   2.052  0.3886 -0.9695  0.5005
  978SOL    HW2 2934   1.963   0.952   2.014 -0.3966 -1.7739  0.9822
  979SOL     OW 2935   0.844   1.116   2.515 -0.1871 -0.3904 -0.4163
  979SOL    HW1 2936   0.840   1.126   2.415  2.3600 -1.1404 -0.7702
  979SOL    HW2 2937   0.838   1.209   2.558 -0.3853  0.4738  0.8168
  980SOL     OW 2938   1.663   1.939   2.664 -0.2218 -0.2727 -0.0604
  980SOL    HW1 2939   1.614   1.853   2.687  2.1959 -1.9962  1.1247
  980SOL    HW2 2940   1.753   1.910   2.633 -0.6155 -1.4459  1.5880
  981SOL     OW 2941   0.964   0.612   1.678 -0.3696  0.1236  0.2305
  981SOL    HW1 2942   0.976   0.662   1.588 -0.5849 -1.6838  0.2200
  981SOL    HW2 2943   0.881   0.551   1.678  1.0557 -1.4139  0.2524
  982SOL     OW 2944   1.032   0.151   2.952 -0.3776 -0.0248  0.3481
  982SOL    HW1 2945   1.037   0.236   2.905  0.2973  2.3794  0.2833
  982SOL    HW2 2946   0.943   0.112   2.931 -0.3184  0.9762 -0.0288
  983SOL     OW 2947   2.172   0.994   0.153 -0.1567  0.4645 -0.4443
  983SOL    HW1 2948   2.233   0.956   0.081  0.1933  0.5591 -0.7924
  983SOL    HW2 2949   2.228   1.051   0.219  1.4337  0.2345  2.5605
  984SOL     OW 2950   1.139   0.587   0.049 -0.1643 -0.3315  0.0565
  984SOL    HW1 2951   1.223   0.563   0.095 -0.2738 -0.6252 -0.3436
  984SOL    HW2 2952   1.113   0.521   3.073 -1.5937 -0.1543 -0.5717
  985SOL     OW 2953   1.165   2.452   2.010 -0.5664 -0.4117 -0.6146
  985SOL    HW1 2954   1.138   2.367   1.958  0.3266  0.5100  2.0690
  985SOL    HW2 2955   1.199   2.520   1.940  1.0523  2.7090  0.4441
  986SOL     OW 2956   2.304   3.031   1.885  0.0377  0.2408 -0.8996
  986SOL    HW1 2957   2.309   3.080   1.799 -0.2150 -1.8433  2.1478
  986SOL    HW2 2958   2.222   2.967   1.884  0.3674  0.4033  0.7471
  987SOL     OW 2959   2.262   1.395   1.099  0.0943 -0.0440  0.3937
  987SOL    HW1 2960   2.346   1.336   1.080  0.3403 -0.8233  0.3611
  987SOL    HW2 2961   2.185   1.333   1.129  1.4323 -0.6515  1.1413
  988SOL     OW 2962   2.414   0.894   1.699  0.0631  0.1268  0.0202
  988SOL    HW1 2963   2.359   0.853   1.776  0.4372  1.3201  0.9708
  988SOL    HW2 2964   2.421   0.837   1.616 -2.0684  0.0427 -1.0151
  989SOL     OW 2965   2.116   2.194   0.108  0.1364 -0.1042  0.5574
  989SOL    HW1 2966   2.026   2.164   0.066 -0.0640 -0.2886  1.7236
  989SOL    HW2 2967   2.185   2.120   0.089 -0.0296  0.5696 -1.3681
  990SOL     OW 2968   1.240   0.558   2.052  0.0516 -0.5627 -0.1687
  990SOL    HW1 2969   1.339   0.581   2.034 -0.1102 -1.5507  0.1499
  990SOL    HW2 2970   1.218   0.477   1.995  0.6488 -2.2660  0.5840
  991SOL     OW 2971   1.259   1.095   0.394 -0.4057  0.2694 -0.6257
  991SOL    HW1 2972   1.353   1.121   0.436  1.1350  2.0701  0.1528
  991SOL    HW2 2973   1.251   1.147   0.306  0.0105 -0.3800 -2.7311
  992SOL     OW 2974   0.058   0.911   1.512 -0.2888 -0.4885 -0.4581
  992SOL    HW1 2975   0.123   0.913   1.432 -3.3863 -1.0690 -1.5577
  992SOL    HW2 2976   3.060   0.892   1.473  4.5128  0.1098  1.8214
  993SOL     OW 2977   2.386   0.194   2.264 -0.4756  0.0225  0.4028
  993SOL    HW1 2978   2.346   0.222   2.174  1.1125  2.5716 -0.4321
  993SOL    HW2 2979   2.405   0.094   2.260  0.4253  0.3385 -0.5837
  994SOL     OW 2980   1.647   2.033   1.835  0.4054  0.2735 -0.1738
  994SOL    HW1 2981   1.627   2.025   1.937 -3.1225  0.9342  0.2505
  994SOL    HW2 2982   1.703   2.110   1.810  0.1115 -3.5281 -0.8616
  995SOL     OW 2983   2.568   1.925   2.983 -0.1234  0.5958 -0.4831
  995SOL    HW1 2984   2.479   1.882   3.009  0.0275 -2.2775  1.3262
  995SOL    HW2 2985   2.648   1.884   3.032  0.7886 -1.2802  0.9317
  996SOL     OW 2986   2.360   1.730   2.983 -0.1759 -0.2154 -0.1076
  996SOL    HW1 2987   2.299   1.659   3.025 -0.7057  0.3423 -0.8928
  996SOL    HW2 2988   2.439   1.682   2.943 -0.5643  1.0981  1.9704
  997SOL     OW 2989   1.476   0.590   2.274  0.2277  0.1099  0.0760
  997SOL    HW1 2990   1.482   0.604   2.174 -2.1253  0.0345  0.5829
  997SOL    HW2 2991   1.434   0.672   2.315  0.2792 -1.3686  1.1752
  998SOL     OW 2992   2.575   0.422   0.701  0.1730 -0.3583  0.3226
  998SOL    HW1 2993   2.646   0.379   0.642 -0.9395  0.5187 -1.4875
  998SOL    HW2 2994   2.560   0.360   0.781 -0.1751 -1.8900 -1.6087
  999SOL     OW 2995   2.930   1.358   0.810  0.2531  0.4879  0.3244
  999SOL    HW1 2996   2.950   1.458   0.813  1.2979 -2.8924  2.1341
  999SOL    HW2 2997   2.985   1.314   0.736  2.4077  1.5934  0.0704
 1000SOL     OW 2998   0.635   1.508   1.998 -0.0633 -0.3181 -0.1383
 1000SOL    HW1 2999   0.702   1.436   1.981 -1.5080 -0.9826  2.1842
 1000SOL    HW2 3000   0.546   1.468   2.007  1.4272 -0.1245 -1.2506
   3.09264   3.09264   3.09264
