1000 SPC/Fw water molecules t= 375.00000 step= 375000
 3000
    1SOL     OW    1   2.588   2.656   1.663  0.0757  0.1294 -0.0515
    1SOL    HW1    2   2.494   2.670   1.699 -0.0445 -0.3048 -0.7941
    1SOL    HW2    3   2.612   2.723   1.591  3.7137  1.4584 -2.1415
    2SOL     OW    4   2.140   2.430   0.438  0.2355 -0.1215 -0.6416
    2SOL    HW1    5   2.236   2.407   0.426  0.1024 -2.4513  0.6448
    2SOL    HW2    6   2.134   2.527   0.467  0.9896  3.5798  2.3956
    3SOL     OW    7   1.164   0.106   0.172 -0.0950 -0.2591  0.3931
    3SOL    HW1    8   1.162   0.198   0.212 -0.9663  0.5064 -2.6307
    3SOL    HW2    9   1.200   0.114   0.079  5.4536 -0.7755  2.3510
    4SOL     OW   10   1.319   2.955   2.180 -0.0175 -0.4141  1.0596
    4SOL    HW1   11   1.295   2.862   2.204  2.0141  3.7658 -2.5560
    4SOL    HW2   12   1.244   3.022   2.197  2.8163 -0.3203 -4.3025
    5SOL     OW   13   2.380   0.305   1.557  0.1378  0.1256  0.7045
    5SOL    HW1   14   2.414   0.388   1.505 -0.8200  0.2813 -1.5360
    5SOL    HW2   15   2.288   0.324   1.598 -0.7943  2.6411 -0.3257
    6SOL     OW   16   2.034   2.202   0.544  0.6383  0.6158  0.0744
    6SOL    HW1   17   2.062   2.289   0.502 -0.6332  1.4345  2.8747
    6SOL    HW2   18   1.941   2.174   0.511  0.0191 -1.0788 -0.9185
    7SOL     OW   19   2.064   1.037   1.020 -0.1586 -0.2197  0.2794
    7SOL    HW1   20   2.053   1.073   1.112 -0.0435  0.3975 -2.4258
    7SOL    HW2   21   1.974   0.994   0.993  1.6658 -0.6569 -0.1217
    8SOL     OW   22   0.953   1.251   1.183 -0.0555 -0.1144 -0.1462
    8SOL    HW1   23   0.939   1.351   1.188  5.1524 -0.9679  0.1326
    8SOL    HW2   24   0.878   1.198   1.230 -0.8842  0.0631  0.2731
    9SOL     OW   25   0.869   2.511   1.518  0.1582  0.7195 -0.4695
    9SOL    HW1   26   0.898   2.558   1.603 -0.8126 -0.0999 -0.6686
    9SOL    HW2   27   0.772   2.479   1.518 -1.3326 -0.0382 -0.0204
   10SOL     OW   28   1.016   2.405   0.553  0.6213 -0.5153 -0.3913
   10SOL    HW1   29   0.929   2.376   0.510  2.5899  0.8285  1.1376
   10SOL    HW2   30   1.083   2.330   0.559 -0.2562  3.2160  0.2978
   11SOL     OW   31   1.723   1.580   1.387  0.7503  0.2441  0.2400
   11SOL    HW1   32   1.670   1.668   1.392 -3.0563  0.7203 -0.6879
   11SOL    HW2   33   1.726   1.559   1.286 -1.6278 -0.4718  1.5950
   12SOL     OW   34   2.705   0.537   2.046  0.1492  0.6750  0.1596
   12SOL    HW1   35   2.726   0.466   1.973 -1.5418 -0.7494  0.0271
   12SOL    HW2   36   2.645   0.610   2.010 -0.2625  0.1175 -0.0623
   13SOL     OW   37   2.521   0.142   0.545  0.6715 -0.7181 -0.3977
   13SOL    HW1   38   2.426   0.114   0.528 -1.4456 -2.2643 -0.0159
   13SOL    HW2   39   2.561   0.101   0.633 -0.3538 -1.4776  1.6791
   14SOL     OW   40   1.576   1.382   3.032  0.0412 -0.5451 -0.3049
   14SOL    HW1   41   1.496   1.332   0.000  0.2657  0.8785  1.1070
   14SOL    HW2   42   1.565   1.401   2.932  4.6611  0.7163  2.2437
   15SOL     OW   43   2.539   2.395   1.576 -0.2690  0.2632  0.3714
   15SOL    HW1   44   2.522   2.434   1.484 -0.3668 -0.8109  0.1772
   15SOL    HW2   45   2.521   2.473   1.640 -0.8582  1.9454 -1.7275
   16SOL     OW   46   2.163   2.777   0.925 -0.5996 -0.4197  0.9369
   16SOL    HW1   47   2.150   2.876   0.949  0.6435  3.1852 -0.1321
   16SOL    HW2   48   2.081   2.739   0.874  2.7887  1.6979 -1.0103
   17SOL     OW   49   0.968   0.410   1.347 -0.1409 -0.0177 -0.5052
   17SOL    HW1   50   0.931   0.470   1.271 -0.0482  2.6476  0.9313
   17SOL    HW2   51   0.984   0.315   1.320  0.6751 -0.5161 -0.6594
   18SOL     OW   52   1.917   0.412   0.482  0.1306  0.4707 -0.7809
   18SOL    HW1   53   1.910   0.371   0.571  0.1987  2.8091 -0.1858
   18SOL    HW2   54   1.944   0.339   0.414  0.4538 -0.4563  0.0605
   19SOL     OW   55   1.993   1.579   0.185  0.5079 -0.4081 -0.1118
   19SOL    HW1   56   1.967   1.547   0.091  1.4720  1.4902  0.9134
   19SOL    HW2   57   2.008   1.680   0.187  1.1097  0.9688  0.0049
   20SOL     OW   58   2.194   1.634   2.310 -0.2574 -0.0004  0.5948
   20SOL    HW1   59   2.238   1.598   2.392 -0.3417  0.0787 -0.3516
   20SOL    HW2   60   2.120   1.569   2.283  3.8368 -1.1130 -0.0041
   21SOL     OW   61   1.453   0.189   0.545  0.7679  0.1158  0.1343
   21SOL    HW1   62   1.393   0.221   0.621  1.8300  1.8751 -2.3297
   21SOL    HW2   63   1.437   0.253   0.467  2.1269 -0.2444  1.0322
   22SOL     OW   64   2.516   0.512   1.425  0.6266 -0.6082  0.1387
   22SOL    HW1   65   2.528   0.544   1.520  2.9077 -1.2370 -2.5808
   22SOL    HW2   66   2.500   0.583   1.358  1.4003 -3.6340  2.5545
   23SOL     OW   67   0.304   0.191   1.982  0.3168 -0.2141 -0.1935
   23SOL    HW1   68   0.293   0.233   1.891  1.0204  2.0916  0.6651
   23SOL    HW2   69   0.339   0.265   2.045 -2.0131 -2.0430 -0.2809
   24SOL     OW   70   2.563   2.494   0.412 -0.1314 -0.3779 -0.4656
   24SOL    HW1   71   2.604   2.427   0.344 -0.3490 -1.7634 -2.7637
   24SOL    HW2   72   2.494   2.553   0.364 -1.8411 -0.5566 -2.1025
   25SOL     OW   73   1.357   3.033   2.714  0.1836  0.7368  0.4023
   25SOL    HW1   74   1.443   2.984   2.700 -0.9677  0.4964  1.0764
   25SOL    HW2   75   1.285   2.966   2.732  2.9660  2.6543  0.6433
   26SOL     OW   76   1.378   2.554   0.105 -0.1587 -0.4075 -0.4759
   26SOL    HW1   77   1.364   2.656   0.101 -0.9737  2.0197  1.4283
   26SOL    HW2   78   1.348   2.521   0.196  0.6912 -0.2492 -0.1638
   27SOL     OW   79   1.327   0.682   1.069 -0.1983 -0.0523  0.0450
   27SOL    HW1   80   1.375   0.685   0.979  1.4179 -0.6789 -0.2726
   27SOL    HW2   81   1.282   0.592   1.074 -0.1569  2.0278  1.1856
   28SOL     OW   82   1.482   1.408   0.810  0.1736  0.0632 -0.7282
   28SOL    HW1   83   1.500   1.454   0.719  3.2847 -0.2531 -0.6019
   28SOL    HW2   84   1.566   1.369   0.855 -1.3884  2.0768 -0.7823
   29SOL     OW   85   2.911   0.040   1.881 -0.0038  0.1870  0.1535
   29SOL    HW1   86   2.837   3.038   1.886  0.1101 -1.5347 -1.2305
   29SOL    HW2   87   2.883   0.112   1.813 -0.9232 -0.1527 -1.8921
   30SOL     OW   88   1.071   3.054   1.241  0.1193  0.1932  0.2262
   30SOL    HW1   89   1.109   2.963   1.211  0.1757 -0.9406  1.5510
   30SOL    HW2   90   1.143   0.057   1.234  1.3214  1.3511  1.5887
   31SOL     OW   91   1.762   2.921   1.900  0.5010  0.2845  0.1426
   31SOL    HW1   92   1.810   3.010   1.881 -2.8814  1.7246 -0.8281
   31SOL    HW2   93   1.816   2.842   1.861  0.3537 -0.6323 -0.0545
   32SOL     OW   94   0.917   1.789   2.937 -0.1698  0.0712 -0.4875
   32SOL    HW1   95   0.831   1.844   2.957 -0.5201  3.2402  3.0834
   32SOL    HW2   96   0.981   1.794   3.018  0.9696  0.5129 -1.8929
   33SOL     OW   97   3.014   0.796   2.025 -0.6288 -0.2867  0.0959
   33SOL    HW1   98   3.017   0.765   2.121  2.8729  1.3562  0.1722
   33SOL    HW2   99   3.052   0.729   1.960 -0.5057  0.2427  1.3831
   34SOL     OW  100   2.254   0.038   0.547 -0.3626  0.1039 -0.1854
   34SOL    HW1  101   2.214   0.088   0.629  0.8435 -0.4771  4.2819
   34SOL    HW2  102   2.182   0.000   0.489 -0.0542  2.6023 -0.9947
   35SOL     OW  103   2.449   2.311   1.989 -0.2749  0.1379  0.5629
   35SOL    HW1  104   2.497   2.369   2.054 -4.3439  0.6101 -0.2543
   35SOL    HW2  105   2.373   2.357   1.938  0.8617 -0.4869 -3.8967
   36SOL     OW  106   2.323   2.023   2.991  0.5530 -0.3880 -0.2258
   36SOL    HW1  107   2.240   1.961   2.981  0.7700 -2.7378 -1.6213
   36SOL    HW2  108   2.331   2.100   2.923  0.6253  0.7185 -0.7314
   37SOL     OW  109   2.098   0.336   1.673  0.2795 -0.0454 -0.0704
   37SOL    HW1  110   2.152   0.384   1.745  4.7484 -0.8994 -2.5904
   37SOL    HW2  111   2.000   0.338   1.694  4.0664 -1.6037  1.2583
   38SOL     OW  112   3.002   0.403   2.858  0.3914 -0.2997 -0.0184
   38SOL    HW1  113   2.997   0.461   2.775 -0.3532 -0.0263  1.5681
   38SOL    HW2  114   0.021   0.349   2.851  0.7591  0.6097 -2.6458
   39SOL     OW  115   1.845   1.292   1.714  1.2024 -0.0554  0.5722
   39SOL    HW1  116   1.900   1.307   1.801 -1.7601 -0.3416 -2.4577
   39SOL    HW2  117   1.867   1.364   1.653  0.1360  0.3589  3.0055
   40SOL     OW  118   1.286   2.120   0.836  0.0039 -0.5861 -0.0233
   40SOL    HW1  119   1.364   2.054   0.842 -0.5736  0.8923  1.0709
   40SOL    HW2  120   1.268   2.157   0.743 -0.3741 -0.0690 -0.6113
   41SOL     OW  121   1.870   1.974   0.862 -0.6816 -0.6706 -0.4250
   41SOL    HW1  122   1.921   2.063   0.855 -2.2183 -1.8391 -0.8049
   41SOL    HW2  123   1.883   1.915   0.781 -3.3109 -0.4484 -1.6256
   42SOL     OW  124   0.214   0.560   1.266 -0.8345 -0.0088  0.7197
   42SOL    HW1  125   0.180   0.482   1.320  1.6464  1.2038 -2.9617
   42SOL    HW2  126   0.240   0.638   1.323  1.0794  0.7646 -1.9724
   43SOL     OW  127   0.191   1.528   2.548  0.2097  0.3496 -0.3091
   43SOL    HW1  128   0.179   1.551   2.646  0.9521 -2.7307  0.7472
   43SOL    HW2  129   0.287   1.558   2.523  3.2581  2.7834 -2.0844
   44SOL     OW  130   1.747   2.783   1.302  0.0315  0.1200 -0.3771
   44SOL    HW1  131   1.823   2.766   1.370 -0.2492 -1.3354  1.9730
   44SOL    HW2  132   1.655   2.776   1.340 -0.3643  0.4348 -0.4130
   45SOL     OW  133   1.129   0.080   2.273  0.4767 -0.2029 -0.1053
   45SOL    HW1  134   1.043   0.055   2.319  0.6452  0.6467 -1.5048
   45SOL    HW2  135   1.191   0.133   2.327 -1.8840  0.0885 -0.2288
   46SOL     OW  136   0.836   2.542   2.497 -0.2974  0.1301  0.1985
   46SOL    HW1  137   0.897   2.621   2.472 -1.8201 -0.9634 -0.6446
   46SOL    HW2  138   0.756   2.568   2.558 -1.3370  2.1409  2.8892
   47SOL     OW  139   0.859   2.314   0.948 -0.3584 -0.1418  0.0465
   47SOL    HW1  140   0.888   2.381   0.878  1.0067 -1.0640 -0.1585
   47SOL    HW2  141   0.909   2.333   1.038 -0.6312  2.1557  2.7752
   48SOL     OW  142   1.040   2.311   1.168 -0.3212  0.0124 -0.7732
   48SOL    HW1  143   1.001   2.232   1.206  4.5925  1.3534  0.5970
   48SOL    HW2  144   1.086   2.371   1.240  0.6038  1.1548  0.8967
   49SOL     OW  145   2.407   0.244   0.101  0.2771  0.0381  0.0411
   49SOL    HW1  146   2.325   0.183   0.090 -1.6392 -1.4116 -0.1852
   49SOL    HW2  147   2.450   0.267   0.013 -0.9044 -0.2615  0.2322
   50SOL     OW  148   1.798   0.114   0.295  0.2351 -0.0810  0.5092
   50SOL    HW1  149   1.892   0.154   0.289 -0.1708  1.4781  2.0276
   50SOL    HW2  150   1.737   0.159   0.229  1.2123  0.6202 -1.4452
   51SOL     OW  151   2.394   0.827   1.392  0.0139 -0.0585  0.5219
   51SOL    HW1  152   2.386   0.925   1.379  0.6908 -0.4151 -0.1025
   51SOL    HW2  153   2.307   0.796   1.434  2.3810  1.2006 -2.7395
   52SOL     OW  154   0.476   1.600   0.098 -0.3755 -0.0588  0.2924
   52SOL    HW1  155   0.558   1.540   0.090 -1.6448 -2.7233  1.2153
   52SOL    HW2  156   0.489   1.701   0.082  1.4760 -0.2976 -2.7977
   53SOL     OW  157   0.233   1.192   2.641  0.2328 -0.4244 -0.4236
   53SOL    HW1  158   0.281   1.225   2.556  0.3657  0.8062 -1.4597
   53SOL    HW2  159   0.298   1.206   2.715 -0.6525 -0.1205  0.3042
   54SOL     OW  160   2.630   1.347   1.957 -0.2112  0.1618  0.1476
   54SOL    HW1  161   2.545   1.381   2.007 -1.5376 -0.5745 -0.9820
   54SOL    HW2  162   2.676   1.285   2.020 -1.1675  3.9557  4.5355
   55SOL     OW  163   2.306   1.880   0.287 -0.1492  0.3614  0.3350
   55SOL    HW1  164   2.377   1.942   0.259 -0.5789 -3.1034  1.5467
   55SOL    HW2  165   2.342   1.780   0.295  0.0352 -2.2468 -0.5779
   56SOL     OW  166   1.712   0.204   1.465  0.0790 -0.0385  0.0866
   56SOL    HW1  167   1.755   0.201   1.556  1.7524  3.1764 -0.9202
   56SOL    HW2  168   1.744   0.127   1.404  0.7366 -0.3581 -0.3711
   57SOL     OW  169   1.668   1.211   2.705 -0.1969  0.3992  0.2573
   57SOL    HW1  170   1.683   1.139   2.773  0.9791 -0.2031 -2.4492
   57SOL    HW2  171   1.707   1.188   2.612  0.8115  0.4042 -4.1327
   58SOL     OW  172   2.350   0.058   1.437  0.4210  0.0286 -0.8174
   58SOL    HW1  173   2.330   0.033   1.338 -3.5279 -3.1604 -1.1325
   58SOL    HW2  174   2.373   0.150   1.460  0.7146 -0.3971  0.7669
   59SOL     OW  175   1.312   2.818   0.047 -0.2894 -0.0878  0.2610
   59SOL    HW1  176   1.230   2.856   3.065  0.9703 -0.0598 -3.8885
   59SOL    HW2  177   1.314   2.866   0.139 -0.7876 -0.8568 -0.8271
   60SOL     OW  178   3.063   2.133   2.747 -0.5583 -0.3524  0.2141
   60SOL    HW1  179   3.002   2.052   2.727  0.3184 -0.8669  0.7939
   60SOL    HW2  180   0.077   2.099   2.786 -4.3184 -0.0749 -1.4216
   61SOL     OW  181   0.549   2.496   0.785  0.5109  0.3584 -0.2801
   61SOL    HW1  182   0.524   2.552   0.873  1.0432  0.3016  1.5247
   61SOL    HW2  183   0.621   2.546   0.730  2.2481  0.3255  0.7148
   62SOL     OW  184   1.733   1.641   2.645 -0.2309  0.0115 -0.9102
   62SOL    HW1  185   1.664   1.709   2.616  0.4996  1.3771 -0.6774
   62SOL    HW2  186   1.693   1.561   2.700 -2.2865 -0.8239  1.5527
   63SOL     OW  187   1.678   1.958   0.031 -0.1468  0.3342 -0.0884
   63SOL    HW1  188   1.698   2.020   3.018 -0.7576 -0.1049  1.8150
   63SOL    HW2  189   1.665   1.860   0.011 -0.7365  2.4620  1.9354
   64SOL     OW  190   2.021   0.975   3.023 -0.3365  0.6602 -0.4883
   64SOL    HW1  191   1.951   1.037   3.059  1.9204 -2.7240 -1.3117
   64SOL    HW2  192   2.100   0.987   0.020 -0.9675 -0.8554 -0.6288
   65SOL     OW  193   2.103   2.096   1.985  0.3256 -0.0602 -0.4112
   65SOL    HW1  194   2.172   2.102   2.060  1.7993 -2.6932  0.1031
   65SOL    HW2  195   2.143   2.044   1.906  0.1199 -1.4071 -2.9773
   66SOL     OW  196   0.251   0.786   1.431  0.1254  0.0417 -0.0445
   66SOL    HW1  197   0.345   0.809   1.389  0.5695 -0.8634 -0.1714
   66SOL    HW2  198   0.193   0.865   1.463 -2.2479 -0.9267 -0.4629
   67SOL     OW  199   2.214   0.065   0.112 -0.7735  0.2788 -0.3340
   67SOL    HW1  200   2.216   3.035   0.150  2.4671 -1.0387  0.3763
   67SOL    HW2  201   2.156   0.086   0.031  2.4451  0.2830 -1.4765
   68SOL     OW  202   1.587   1.805   1.450 -0.0577 -0.4644 -0.1647
   68SOL    HW1  203   1.575   1.887   1.392  0.7886 -3.4245 -1.3806
   68SOL    HW2  204   1.639   1.827   1.536  0.0045 -0.4285  4.1215
   69SOL     OW  205   0.087   2.876   0.195  0.4220  0.0870 -0.3398
   69SOL    HW1  206   0.125   2.813   0.125 -0.7477  1.0017 -0.4191
   69SOL    HW2  207   0.032   2.827   0.271 -1.9423 -1.9529  1.7754
   70SOL     OW  208   0.313   0.669   1.844  0.1301 -0.4677 -0.1331
   70SOL    HW1  209   0.212   0.663   1.844  1.7973  0.6964 -1.1766
   70SOL    HW2  210   0.348   0.659   1.749  0.3582  0.4955 -2.3518
   71SOL     OW  211   0.967   1.076   2.722 -0.4574  0.1842 -0.7178
   71SOL    HW1  212   0.962   1.050   2.821 -1.7881  0.5082  1.3360
   71SOL    HW2  213   1.036   1.018   2.676  1.0083  1.6026 -1.2151
   72SOL     OW  214   2.891   1.685   2.026  0.1219  0.5442  0.5246
   72SOL    HW1  215   2.815   1.677   1.957 -4.0245 -1.5300 -0.7145
   72SOL    HW2  216   2.982   1.667   1.983 -0.0250  2.3911  0.1994
   73SOL     OW  217   1.321   1.707   0.158 -0.5583  0.1021  0.2646
   73SOL    HW1  218   1.321   1.656   0.071  1.1623  3.2524  1.0915
   73SOL    HW2  219   1.225   1.716   0.193  0.6304  1.9743  0.3646
   74SOL     OW  220   2.436   0.130   2.864 -0.3121 -0.2061  0.3875
   74SOL    HW1  221   2.348   0.103   2.900  1.6427 -1.4948  0.3761
   74SOL    HW2  222   2.517   0.079   2.909 -1.5660 -1.2038 -0.3422
   75SOL     OW  223   1.477   2.324   1.010  0.2931  0.3788 -0.0787
   75SOL    HW1  224   1.378   2.341   0.982 -0.6914 -0.9152 -2.6655
   75SOL    HW2  225   1.532   2.299   0.927 -2.3243 -1.1122 -0.3110
   76SOL     OW  226   2.939   1.948   1.768 -0.3236 -0.0524  0.0496
   76SOL    HW1  227   2.898   2.022   1.824 -0.2567 -0.5880  1.1928
   76SOL    HW2  228   3.037   1.949   1.785 -0.4303 -2.4250 -0.5826
   77SOL     OW  229   0.692   2.751   1.845 -0.7355 -0.0577  0.4365
   77SOL    HW1  230   0.728   2.794   1.756 -0.3989  0.6232 -2.5264
   77SOL    HW2  231   0.692   2.822   1.914  0.5197 -0.2293 -2.5584
   78SOL     OW  232   2.121   0.619   0.256 -0.9424 -0.1231 -0.3223
   78SOL    HW1  233   2.115   0.653   0.161 -1.3035 -0.9976 -2.3894
   78SOL    HW2  234   2.032   0.582   0.284  0.1932  2.3899 -0.0830
   79SOL     OW  235   3.003   1.339   2.473 -0.2478  0.2726  0.1468
   79SOL    HW1  236   3.014   1.327   2.572 -1.1691  0.0136 -2.3569
   79SOL    HW2  237   0.009   1.401   2.432  0.3694  0.4294 -0.0710
   80SOL     OW  238   1.911   1.591   1.792  0.2322  0.4975  0.4636
   80SOL    HW1  239   1.817   1.621   1.784 -0.5770  1.8556 -0.8904
   80SOL    HW2  240   1.964   1.596   1.707  0.9531  0.0770  1.2596
   81SOL     OW  241   1.974   1.478   2.268 -0.0808  0.4131  0.3857
   81SOL    HW1  242   1.957   1.380   2.244  0.0185 -3.1018  3.7521
   81SOL    HW2  243   1.930   1.540   2.194 -5.0490 -0.6876 -0.3182
   82SOL     OW  244   1.394   1.408   1.866  0.6567  0.3260  0.1717
   82SOL    HW1  245   1.412   1.448   1.772 -0.5503 -0.1131 -1.1161
   82SOL    HW2  246   1.431   1.314   1.887 -0.0288  1.0263 -1.1445
   83SOL     OW  247   0.360   0.372   0.224  0.4339 -0.0130 -0.0308
   83SOL    HW1  248   0.440   0.380   0.283 -0.7210 -0.1052  1.0636
   83SOL    HW2  249   0.305   0.287   0.244  1.2260 -1.0012 -0.9016
   84SOL     OW  250   0.047   0.613   0.375 -0.5593  0.4964  0.4207
   84SOL    HW1  251   3.012   0.622   0.402  0.9688  1.2814 -1.0727
   84SOL    HW2  252   0.096   0.690   0.422  0.1674 -1.3355 -0.4211
   85SOL     OW  253   2.423   2.404   1.137  0.1043  0.0302  0.0874
   85SOL    HW1  254   2.333   2.415   1.170  0.5215 -0.0931 -0.0550
   85SOL    HW2  255   2.457   2.308   1.143 -1.5329  0.5046 -0.7783
   86SOL     OW  256   0.341   0.275   1.462  0.2676  0.3138  0.2785
   86SOL    HW1  257   0.413   0.345   1.431  0.9264 -0.3487 -2.9135
   86SOL    HW2  258   0.373   0.179   1.442 -1.9370 -0.8085  0.9004
   87SOL     OW  259   0.471   2.443   1.906 -0.6577  0.0700  0.2265
   87SOL    HW1  260   0.525   2.474   1.828  2.1152  1.4928  2.8496
   87SOL    HW2  261   0.382   2.399   1.877  0.3140  1.4854 -0.0685
   88SOL     OW  262   0.207   2.087   2.937 -0.0147  0.3014  0.7426
   88SOL    HW1  263   0.212   2.018   3.013 -2.7060  1.3340  0.4172
   88SOL    HW2  264   0.240   2.179   2.967 -0.9717  4.1876 -2.4970
   89SOL     OW  265   1.034   0.836   0.555  0.5652 -0.3880 -0.4990
   89SOL    HW1  266   1.128   0.806   0.532  0.5046 -0.1474 -0.3935
   89SOL    HW2  267   0.961   0.808   0.488  0.1193  1.1123 -3.5742
   90SOL     OW  268   0.076   1.483   2.175 -0.4765  0.5257  0.1139
   90SOL    HW1  269   0.077   1.517   2.073  0.0939  1.4850 -2.0424
   90SOL    HW2  270   0.048   1.550   2.239  0.4430 -3.5255  0.3725
   91SOL     OW  271   1.625   0.737   0.775  0.4198 -0.4577  0.3019
   91SOL    HW1  272   1.529   0.732   0.744  1.3651  0.5151  1.3071
   91SOL    HW2  273   1.680   0.679   0.721 -0.5924 -0.2162  3.8364
   92SOL     OW  274   2.320   1.192   0.807  0.2353  0.4780  0.0698
   92SOL    HW1  275   2.310   1.258   0.732 -2.5875  0.3039  2.9675
   92SOL    HW2  276   2.339   1.248   0.887 -1.2369  1.9269  1.0984
   93SOL     OW  277   0.062   0.990   2.597 -0.2932 -0.6803  0.7317
   93SOL    HW1  278   0.009   1.030   2.520  0.9825  0.6507 -1.0300
   93SOL    HW2  279   0.156   1.029   2.601  2.4952 -1.3012 -0.2985
   94SOL     OW  280   1.846   2.221   2.520 -0.0893 -0.0487 -0.4414
   94SOL    HW1  281   1.916   2.175   2.572 -1.6173 -1.0729 -1.0952
   94SOL    HW2  282   1.890   2.296   2.470 -0.7518 -2.5853  1.8302
   95SOL     OW  283   0.076   0.032   1.293 -0.2927 -0.3541  0.7615
   95SOL    HW1  284   0.106   3.006   1.317  0.6017  2.0867  1.2062
   95SOL    HW2  285   0.054   0.077   1.383  0.8514 -0.8888  1.9086
   96SOL     OW  286   2.963   2.602   1.117 -0.1176 -0.5773  0.6533
   96SOL    HW1  287   2.892   2.630   1.049 -1.6638  4.3312 -2.3518
   96SOL    HW2  288   2.956   2.667   1.195 -1.3313  2.9856 -2.7593
   97SOL     OW  289   2.601   0.570   1.659 -0.3122 -0.4636 -0.1811
   97SOL    HW1  290   2.653   0.658   1.666  0.9227  1.6218 -2.6716
   97SOL    HW2  291   2.564   0.537   1.748 -0.6106  1.1262 -1.2337
   98SOL     OW  292   1.869   2.414   1.826  0.2796  0.1815 -0.2741
   98SOL    HW1  293   1.839   2.329   1.781  0.1416 -2.0922  2.2052
   98SOL    HW2  294   1.821   2.492   1.785 -2.5941 -2.1378 -1.6451
   99SOL     OW  295   0.337   2.874   1.562  0.3001  0.1331 -0.6560
   99SOL    HW1  296   0.335   2.921   1.650  0.4444  1.4392  0.5203
   99SOL    HW2  297   0.405   2.796   1.569  0.5748 -0.3197 -1.0407
  100SOL     OW  298   1.729   0.404   2.458  0.6950  0.2973 -0.1156
  100SOL    HW1  299   1.783   0.485   2.489 -2.2594 -0.4370  1.2246
  100SOL    HW2  300   1.663   0.370   2.530 -0.0868 -0.5907  1.1820
  101SOL     OW  301   2.713   0.431   2.515 -0.0580  0.0209  0.0530
  101SOL    HW1  302   2.740   0.341   2.482 -1.3268  1.5418  0.7489
  101SOL    HW2  303   2.697   0.495   2.440  0.3265 -1.6452 -0.0689
  102SOL     OW  304   0.341   0.592   1.599  0.6098  0.0908  0.7930
  102SOL    HW1  305   0.316   0.682   1.558 -1.7726 -0.2699 -0.5610
  102SOL    HW2  306   0.404   0.543   1.536  0.0381  0.0868 -3.5357
  103SOL     OW  307   0.754   0.477   2.618 -0.1254 -0.0055  0.0847
  103SOL    HW1  308   0.819   0.412   2.576  1.0481  1.2119  1.9860
  103SOL    HW2  309   0.789   0.570   2.624 -0.3685 -0.9770 -0.0770
  104SOL     OW  310   0.264   0.812   2.271  0.2014 -0.2016 -0.6025
  104SOL    HW1  311   0.311   0.811   2.363 -1.8805  2.3561  1.1828
  104SOL    HW2  312   0.327   0.840   2.198  1.3288  1.3931  0.4059
  105SOL     OW  313   2.430   2.022   1.484  0.1478  0.5458  0.1897
  105SOL    HW1  314   2.414   2.112   1.527  1.3378  1.6029 -2.2149
  105SOL    HW2  315   2.379   2.017   1.394  1.1620  0.8052 -0.4477
  106SOL     OW  316   1.584   2.979   0.675  0.2836  0.0865 -0.0441
  106SOL    HW1  317   1.622   3.062   0.630  0.0921 -0.9613  1.8276
  106SOL    HW2  318   1.533   2.924   0.610 -1.0844 -0.9490 -1.0336
  107SOL     OW  319   1.858   2.315   1.081 -0.2550  0.0226  0.1907
  107SOL    HW1  320   1.804   2.265   1.149 -1.7626 -1.1666 -0.4645
  107SOL    HW2  321   1.819   2.403   1.058  0.3424 -1.1437 -0.3802
  108SOL     OW  322   0.143   2.215   1.133 -0.2041 -0.3225 -0.1123
  108SOL    HW1  323   0.069   2.191   1.070 -0.2203 -1.2165  2.8081
  108SOL    HW2  324   0.177   2.310   1.114 -2.2858 -0.2256 -2.3824
  109SOL     OW  325   2.277   2.221   0.901  0.2557  0.1568 -0.3477
  109SOL    HW1  326   2.269   2.165   0.816  1.9720 -0.9735  1.9187
  109SOL    HW2  327   2.231   2.310   0.890 -0.2999 -0.1061 -0.1185
  110SOL     OW  328   1.149   1.727   1.773 -0.1960 -0.0725  0.3915
  110SOL    HW1  329   1.077   1.661   1.797 -0.2559  1.0244 -0.6153
  110SOL    HW2  330   1.117   1.821   1.768  1.6777 -0.6245 -0.6899
  111SOL     OW  331   1.590   2.370   2.219  0.2091 -0.4168 -0.2781
  111SOL    HW1  332   1.539   2.380   2.132 -1.1866  1.7683  1.3765
  111SOL    HW2  333   1.683   2.408   2.211  1.2435  2.1484  0.9714
  112SOL     OW  334   1.459   1.846   2.825  0.1847 -0.5726  0.5134
  112SOL    HW1  335   1.492   1.938   2.786  1.3447  0.1800 -1.2299
  112SOL    HW2  336   1.539   1.783   2.832  0.9020  0.1057  1.1481
  113SOL     OW  337   1.780   1.940   1.792  0.3522 -0.1419  0.1266
  113SOL    HW1  338   1.735   1.850   1.795 -1.4877 -1.3929  0.2801
  113SOL    HW2  339   1.789   1.979   1.887 -2.1151 -3.8144  1.4574
  114SOL     OW  340   2.980   1.247   1.325  0.4726 -1.1197  0.3146
  114SOL    HW1  341   3.042   1.203   1.252  1.3543 -0.2570 -0.9916
  114SOL    HW2  342   2.949   1.178   1.395  1.0216  1.0592  0.0328
  115SOL     OW  343   0.666   0.764   0.126 -0.6778 -0.1248  0.4179
  115SOL    HW1  344   0.607   0.732   0.046  0.3842 -1.8648 -2.1572
  115SOL    HW2  345   0.711   0.688   0.178 -0.4981 -0.3016  0.6025
  116SOL     OW  346   2.644   1.707   2.454 -0.9041 -0.9477 -0.0785
  116SOL    HW1  347   2.723   1.708   2.390 -1.3071 -0.7583  0.9554
  116SOL    HW2  348   2.565   1.661   2.420 -0.0191  1.4720  0.3092
  117SOL     OW  349   3.045   2.421   0.360  0.3677 -0.0742 -0.0574
  117SOL    HW1  350   0.031   2.496   0.410  0.0855 -0.6330  1.1144
  117SOL    HW2  351   2.986   2.372   0.424  0.6286  1.0806  0.1967
  118SOL     OW  352   0.581   1.876   2.755  0.1174 -0.4027  0.4139
  118SOL    HW1  353   0.478   1.865   2.750  0.9189  0.4670  2.6368
  118SOL    HW2  354   0.622   1.950   2.699 -0.4697  0.4913  0.3036
  119SOL     OW  355   0.770   2.294   0.489 -0.1066 -0.0557 -0.4836
  119SOL    HW1  356   0.676   2.282   0.522  1.3956 -0.4513 -1.0800
  119SOL    HW2  357   0.812   2.212   0.442  1.0177  1.8114  0.8990
  120SOL     OW  358   1.518   0.636   0.072  0.1845 -0.2211 -0.2043
  120SOL    HW1  359   1.529   0.615   0.169  1.1137 -1.0423 -1.3397
  120SOL    HW2  360   1.422   0.671   0.049 -0.1880  1.6663 -1.7437
  121SOL     OW  361   1.192   2.348   0.943 -0.4984 -0.0254 -0.0163
  121SOL    HW1  362   1.136   2.331   1.030  0.9322 -0.1823 -0.3696
  121SOL    HW2  363   1.191   2.260   0.888  1.6969 -2.4920 -1.6262
  122SOL     OW  364   2.789   2.097   2.041 -0.0056 -0.2755  0.1455
  122SOL    HW1  365   2.873   2.049   2.074 -0.0595 -0.8866 -0.2163
  122SOL    HW2  366   2.703   2.060   2.079 -0.5242  1.5707  0.2266
  123SOL     OW  367   1.186   1.796   0.770  0.5511 -0.2955  0.5710
  123SOL    HW1  368   1.159   1.844   0.856  1.9572  3.1488 -1.3239
  123SOL    HW2  369   1.289   1.783   0.772  2.4333  0.5880 -0.4387
  124SOL     OW  370   3.002   0.968   0.334  0.4522 -0.2799 -0.1865
  124SOL    HW1  371   2.996   1.064   0.363  0.4717 -0.6934 -1.0889
  124SOL    HW2  372   3.011   0.966   0.232 -2.2353 -0.5229  1.2802
  125SOL     OW  373   0.023   0.448   0.138  0.0105  0.2128  0.3208
  125SOL    HW1  374   0.027   0.521   0.211  3.6332  0.8375  1.6936
  125SOL    HW2  375   0.105   0.467   0.079  2.2476 -0.6601 -0.5172
  126SOL     OW  376   0.107   1.624   0.683  0.3108  0.0764 -0.2766
  126SOL    HW1  377   0.175   1.667   0.623 -3.0490 -1.1800  1.0367
  126SOL    HW2  378   0.130   1.639   0.783 -0.5795  0.9350  0.7738
  127SOL     OW  379   1.341   2.622   1.561  0.7642  0.4726 -0.1056
  127SOL    HW1  380   1.272   2.562   1.615 -2.0059 -0.4071 -0.4144
  127SOL    HW2  381   1.306   2.666   1.477 -2.0306 -1.4451  1.0419
  128SOL     OW  382   1.152   1.348   0.117  0.5060  0.3447 -0.2075
  128SOL    HW1  383   1.162   1.376   0.020 -3.2626 -0.8313  0.1204
  128SOL    HW2  384   1.227   1.284   0.140 -2.3561  5.0578 -3.4649
  129SOL     OW  385   1.916   2.146   1.464 -0.3267  0.0229  0.3363
  129SOL    HW1  386   1.870   2.104   1.381  0.5772  4.4764  1.6789
  129SOL    HW2  387   1.963   2.231   1.435  1.4122  2.2155 -2.6459
  130SOL     OW  388   1.980   1.924   1.600  0.2422 -0.2591  0.4081
  130SOL    HW1  389   1.922   1.933   1.684 -2.0006 -0.6183  3.1317
  130SOL    HW2  390   1.965   1.999   1.530 -1.0976  3.3826 -1.2206
  131SOL     OW  391   2.911   2.687   2.454  0.4259 -0.1007 -0.3159
  131SOL    HW1  392   2.893   2.789   2.446 -2.6427  3.2430 -2.1047
  131SOL    HW2  393   2.823   2.638   2.470 -1.1903 -2.3401 -1.8375
  132SOL     OW  394   3.007   2.044   0.517 -0.1774 -0.2584 -0.3293
  132SOL    HW1  395   0.007   2.062   0.593  0.6593  2.4150  1.6194
  132SOL    HW2  396   2.983   1.949   0.519  4.1687  3.0293  1.4228
  133SOL     OW  397   0.653   0.259   2.151 -0.0526 -0.0433  0.6718
  133SOL    HW1  398   0.726   0.255   2.085 -1.1593 -0.2101  0.4826
  133SOL    HW2  399   0.576   0.312   2.115  3.0753 -1.7168  3.2434
  134SOL     OW  400   2.864   1.947   0.236  0.3523 -0.3379  0.1854
  134SOL    HW1  401   2.948   2.007   0.247 -0.0645 -0.8521  1.2857
  134SOL    HW2  402   2.791   1.969   0.300  0.9594 -2.6327 -1.9983
  135SOL     OW  403   1.755   0.928   2.448  0.2115 -0.1099  0.0665
  135SOL    HW1  404   1.658   0.916   2.411  0.5138  0.6353 -2.3664
  135SOL    HW2  405   1.787   1.027   2.445  0.8742 -1.2998  0.8626
  136SOL     OW  406   2.493   1.760   0.859 -0.6350  0.0775  0.1215
  136SOL    HW1  407   2.397   1.790   0.838 -2.6427 -0.1800  2.4437
  136SOL    HW2  408   2.551   1.837   0.899 -1.9324  1.9728  1.9358
  137SOL     OW  409   2.739   1.707   0.727 -0.1102  0.4076 -0.4206
  137SOL    HW1  410   2.767   1.611   0.742  0.5283 -1.7529 -0.0128
  137SOL    HW2  411   2.646   1.713   0.759  0.4969 -0.1682  0.6938
  138SOL     OW  412   2.809   0.593   1.086  0.5577  0.1243 -0.1970
  138SOL    HW1  413   2.762   0.677   1.135 -2.2343  3.9946 -1.0441
  138SOL    HW2  414   2.832   0.604   0.989  0.9114 -1.6063  2.3762
  139SOL     OW  415   2.945   2.560   2.897 -0.1810 -0.2075 -0.5983
  139SOL    HW1  416   2.962   2.468   2.939 -2.9797 -0.8238 -0.0947
  139SOL    HW2  417   3.006   2.582   2.821 -0.5090  0.7352  3.1771
  140SOL     OW  418   0.725   1.642   1.724  0.7040  0.3164  0.0460
  140SOL    HW1  419   0.705   1.719   1.792  0.7855  0.6532  4.3974
  140SOL    HW2  420   0.814   1.660   1.678 -1.7573  0.4174 -0.4339
  141SOL     OW  421   1.435   1.856   0.879  0.2264  0.6752  0.2194
  141SOL    HW1  422   1.524   1.825   0.838 -1.7319 -0.6466 -1.7069
  141SOL    HW2  423   1.427   1.820   0.976 -0.0855 -0.1779 -0.3224
  142SOL     OW  424   1.085   0.832   1.107  0.4212  0.0599  0.1121
  142SOL    HW1  425   1.052   0.885   1.024 -0.3872 -1.5630 -2.5420
  142SOL    HW2  426   1.179   0.793   1.092 -1.7496  1.9629  1.0714
  143SOL     OW  427   0.662   1.180   2.967 -0.4761 -0.1408  0.5300
  143SOL    HW1  428   0.582   1.216   2.909  2.1272 -1.1674 -2.2190
  143SOL    HW2  429   0.632   1.113   3.036  1.4691  1.8647  1.2054
  144SOL     OW  430   1.897   2.591   0.858  0.8951 -0.3228 -0.1407
  144SOL    HW1  431   1.839   2.575   0.775  0.6606  1.6508 -0.9072
  144SOL    HW2  432   1.855   2.657   0.920 -0.7724  0.0114  0.2382
  145SOL     OW  433   2.141   0.680   2.690  0.1572 -0.2785  0.0301
  145SOL    HW1  434   2.155   0.757   2.756  0.4618 -0.7745  0.0245
  145SOL    HW2  435   2.226   0.664   2.634  2.5841  1.2223  2.0259
  146SOL     OW  436   2.830   2.418   0.697  0.3125  0.1849 -0.6793
  146SOL    HW1  437   2.772   2.410   0.782 -0.3671 -0.6533 -0.4745
  146SOL    HW2  438   2.806   2.502   0.642  0.9915  0.9424 -2.4214
  147SOL     OW  439   1.231   1.011   2.342  0.1836  0.0332 -0.0089
  147SOL    HW1  440   1.142   1.059   2.342  2.0209 -0.2925 -1.3756
  147SOL    HW2  441   1.228   0.958   2.261 -0.2417 -0.2044  2.1354
  148SOL     OW  442   1.105   0.474   2.352 -0.3261 -0.1124 -0.2171
  148SOL    HW1  443   1.073   0.553   2.290 -0.5541 -0.5952 -1.8824
  148SOL    HW2  444   1.203   0.461   2.336 -1.1397 -0.7657 -2.4451
  149SOL     OW  445   1.925   2.900   2.203  0.2070  0.2418 -0.5152
  149SOL    HW1  446   1.826   2.886   2.187  1.0917 -2.5951  3.2545
  149SOL    HW2  447   1.969   2.829   2.264 -3.4355 -1.1447  0.0248
  150SOL     OW  448   2.381   2.704   3.060  0.1027  0.1377 -0.8229
  150SOL    HW1  449   2.402   2.718   2.960 -1.6332 -1.1018 -2.9866
  150SOL    HW2  450   2.457   2.746   0.054  3.5360  2.0925 -0.7643
  151SOL     OW  451   0.445   1.266   2.852 -0.2698 -0.1596 -0.1558
  151SOL    HW1  452   0.377   1.235   2.923  1.7581 -2.2396  1.7618
  151SOL    HW2  453   0.446   1.370   2.854  0.9307 -1.3534  1.1450
  152SOL     OW  454   2.966   0.306   0.938  0.1938  0.7686 -0.1718
  152SOL    HW1  455   2.917   0.389   0.903 -0.3296  0.0573  2.6179
  152SOL    HW2  456   3.067   0.323   0.935  4.3287  0.5647 -2.5366
  153SOL     OW  457   2.361   2.944   1.723 -0.0018  0.0920  0.0410
  153SOL    HW1  458   2.311   2.859   1.730 -0.7401  2.6233 -2.0571
  153SOL    HW2  459   2.301   3.018   1.686  0.9570 -0.6958  1.3272
  154SOL     OW  460   2.008   0.299   2.153 -0.1963  0.4644 -0.0095
  154SOL    HW1  461   2.018   0.383   2.212 -1.7470  1.5649  0.8049
  154SOL    HW2  462   1.912   0.295   2.128  1.2806 -0.2272  0.6979
  155SOL     OW  463   0.080   1.523   0.255  0.0176 -0.1172 -0.1249
  155SOL    HW1  464   0.155   1.568   0.307  0.7924  1.9532 -2.9994
  155SOL    HW2  465   3.058   1.573   0.277 -3.1157  3.3184 -2.0271
  156SOL     OW  466   2.989   1.652   0.029 -0.4761 -0.0357  0.3322
  156SOL    HW1  467   2.900   1.702   0.008 -0.6795  2.6690  3.2130
  156SOL    HW2  468   3.053   1.719   0.070 -4.1759 -0.4685  0.3531
  157SOL     OW  469   0.582   0.212   0.621  0.3325  0.2774 -0.0679
  157SOL    HW1  470   0.536   0.172   0.702 -1.7034 -0.3564  2.3465
  157SOL    HW2  471   0.667   0.260   0.656  0.2114 -2.0221  1.3222
  158SOL     OW  472   2.173   0.811   1.551 -0.1530 -0.0348 -0.1401
  158SOL    HW1  473   2.156   0.908   1.585 -0.3424  1.2470 -0.2740
  158SOL    HW2  474   2.217   0.760   1.625 -0.6267  1.5146 -3.3225
  159SOL     OW  475   0.120   0.354   0.446 -0.6940  0.6663 -0.1856
  159SOL    HW1  476   0.042   0.343   0.521 -1.7204  0.7384 -1.4380
  159SOL    HW2  477   0.107   0.450   0.408 -1.4201  0.8011 -2.0992
  160SOL     OW  478   2.127   2.339   1.823  0.4061 -0.1417  0.2223
  160SOL    HW1  479   2.170   2.373   1.908 -3.0524  1.6050  2.3114
  160SOL    HW2  480   2.029   2.319   1.833  1.5722 -2.8148  0.9418
  161SOL     OW  481   0.072   0.744   2.525 -0.2735 -0.6620  0.3270
  161SOL    HW1  482   0.168   0.723   2.501 -0.0826  0.2732  0.7058
  161SOL    HW2  483   0.065   0.842   2.562 -1.4931  1.0463  0.5291
  162SOL     OW  484   0.614   2.800   1.409 -0.0262  0.0040  0.1909
  162SOL    HW1  485   0.682   2.827   1.484  4.6653 -1.2194  1.9532
  162SOL    HW2  486   0.641   2.849   1.322  0.3799  0.9259  0.2980
  163SOL     OW  487   2.815   0.201   2.450 -0.5663  0.0765 -0.8278
  163SOL    HW1  488   2.764   0.123   2.409  1.0132 -1.7894  0.7341
  163SOL    HW2  489   2.885   0.245   2.391  0.2265  1.1114  1.0235
  164SOL     OW  490   2.067   1.835   0.176  0.3672 -0.2837  0.2378
  164SOL    HW1  491   2.157   1.856   0.222  4.3711 -0.3177 -0.2662
  164SOL    HW2  492   2.086   1.829   0.077 -2.0409  0.1701 -1.1118
  165SOL     OW  493   0.009   0.121   1.540 -0.0153  0.2349 -0.1862
  165SOL    HW1  494   0.049   0.082   1.628  1.4196 -2.6357  1.6962
  165SOL    HW2  495   2.974   0.130   1.543 -0.5854 -0.2718 -2.8753
  166SOL     OW  496   1.971   0.852   0.632 -0.2249 -0.0725  0.4338
  166SOL    HW1  497   2.056   0.886   0.673  0.5524  1.4037 -0.1655
  166SOL    HW2  498   1.931   0.924   0.569 -0.7085  2.0660  0.4637
  167SOL     OW  499   2.551   1.047   3.063  0.5914  0.0932  0.2285
  167SOL    HW1  500   2.503   0.958   3.051  3.0162  1.0402 -0.7199
  167SOL    HW2  501   2.531   1.092   0.087 -0.8745 -2.2710 -0.1797
  168SOL     OW  502   1.558   0.306   2.692  0.5675 -0.0415  0.3871
  168SOL    HW1  503   1.609   0.361   2.761 -1.7003  0.1114 -0.1857
  168SOL    HW2  504   1.600   0.215   2.671 -2.7555 -0.6898 -1.2582
  169SOL     OW  505   0.288   1.285   0.845  0.0675  0.1580 -0.2350
  169SOL    HW1  506   0.268   1.306   0.941 -0.3308  1.4948 -0.6742
  169SOL    HW2  507   0.204   1.305   0.788  3.7090  1.4198 -1.6458
  170SOL     OW  508   2.927   0.933   1.009 -0.1487 -0.3015 -0.3189
  170SOL    HW1  509   2.981   0.867   1.062 -0.5319  2.0992 -0.7026
  170SOL    HW2  510   2.843   0.952   1.059  0.2154  1.8133 -1.5309
  171SOL     OW  511   2.309   2.078   2.178  0.3232 -0.1323 -0.5899
  171SOL    HW1  512   2.282   1.982   2.198 -0.2746  0.8162  1.1385
  171SOL    HW2  513   2.365   2.089   2.094  0.8795  2.0168  1.4973
  172SOL     OW  514   0.458   1.939   1.339  0.2479  0.3246  0.0516
  172SOL    HW1  515   0.459   2.035   1.306  1.1661 -0.1442 -1.3496
  172SOL    HW2  516   0.554   1.910   1.364 -1.0391  3.2988  0.2596
  173SOL     OW  517   1.565   1.451   2.778  0.2859 -0.1549  0.2443
  173SOL    HW1  518   1.591   1.359   2.739  1.1546  0.6195 -1.2488
  173SOL    HW2  519   1.491   1.493   2.729  0.3551 -0.7400 -0.6061
  174SOL     OW  520   1.236   0.703   2.814  0.4899 -0.3169  1.2031
  174SOL    HW1  521   1.281   0.794   2.800  1.0383  1.0371 -2.7396
  174SOL    HW2  522   1.300   0.626   2.782 -1.3795 -1.8274  0.3626
  175SOL     OW  523   1.379   1.401   1.255  0.1324 -0.3903 -0.0891
  175SOL    HW1  524   1.344   1.475   1.314  0.0977 -0.5243  1.8988
  175SOL    HW2  525   1.316   1.318   1.263  0.9285  1.0757  0.1919
  176SOL     OW  526   1.238   0.013   0.527 -0.0297  0.0890 -0.4362
  176SOL    HW1  527   1.259   3.024   0.447 -0.7369  0.3560  0.2737
  176SOL    HW2  528   1.313   0.080   0.536 -1.9234 -0.4837 -0.7016
  177SOL     OW  529   0.199   0.776   0.098 -0.1168  0.2261 -0.1020
  177SOL    HW1  530   0.102   0.788   0.074 -1.6335 -3.3963  2.3614
  177SOL    HW2  531   0.222   0.681   0.078 -0.4067  0.7419  0.9677
  178SOL     OW  532   2.590   2.362   2.298  0.2487  0.5234 -0.0552
  178SOL    HW1  533   2.634   2.301   2.367  3.2646  0.4070  0.9415
  178SOL    HW2  534   2.655   2.380   2.222 -0.1328  0.5839 -1.2611
  179SOL     OW  535   3.017   0.143   2.627  0.3213 -0.2888 -0.2000
  179SOL    HW1  536   2.980   0.120   2.723  0.3957 -1.6541  0.1869
  179SOL    HW2  537   2.937   0.153   2.565 -1.2053 -2.2327  0.4213
  180SOL     OW  538   2.182   0.397   0.880 -0.4383 -0.4548  0.0894
  180SOL    HW1  539   2.277   0.413   0.847  0.6669 -1.1044 -0.0010
  180SOL    HW2  540   2.116   0.474   0.860 -1.8131 -1.5476  3.1134
  181SOL     OW  541   2.082   0.900   2.511 -0.4715  0.1527  0.0379
  181SOL    HW1  542   2.180   0.898   2.479  0.9973 -0.1188  0.0484
  181SOL    HW2  543   2.074   0.827   2.578  0.5889 -0.5263  0.1114
  182SOL     OW  544   2.699   2.432   2.052  0.5102 -0.5925 -0.5499
  182SOL    HW1  545   2.795   2.466   2.044 -0.2891  0.3275 -0.5544
  182SOL    HW2  546   2.670   2.372   1.975 -1.0225 -0.8218  0.8171
  183SOL     OW  547   2.109   0.745   1.929 -0.5063 -0.0172  0.2109
  183SOL    HW1  548   2.079   0.651   1.946  0.0142  0.1380 -1.6565
  183SOL    HW2  549   2.185   0.741   1.858  2.4807 -0.2153  0.4155
  184SOL     OW  550   0.175   1.397   1.103 -0.2342 -0.5117  0.7987
  184SOL    HW1  551   0.128   1.307   1.103  2.0111  0.4320 -0.1930
  184SOL    HW2  552   0.128   1.452   1.174 -0.0887  0.6678 -0.5669
  185SOL     OW  553   2.164   3.046   0.984  0.1979 -0.7120 -0.6557
  185SOL    HW1  554   2.146   0.035   0.900 -1.0716  2.0088  0.1082
  185SOL    HW2  555   2.247   0.007   1.037 -1.4995 -0.7162  1.3365
  186SOL     OW  556   2.645   2.439   2.734 -0.4066 -0.0187  0.4956
  186SOL    HW1  557   2.632   2.433   2.829 -1.5596  2.9635 -4.9142
  186SOL    HW2  558   2.734   2.408   2.698 -0.4445 -1.2977  0.6697
  187SOL     OW  559   0.408   1.384   0.516 -0.1504  0.0283 -0.2525
  187SOL    HW1  560   0.359   1.308   0.472  1.0101  0.3611 -2.8285
  187SOL    HW2  561   0.445   1.361   0.609  1.5724 -1.8341 -0.1994
  188SOL     OW  562   2.307   1.266   1.292  0.1161 -0.4716 -0.0475
  188SOL    HW1  563   2.392   1.295   1.340 -0.1201 -0.0598  2.7297
  188SOL    HW2  564   2.323   1.270   1.192  1.7053 -0.6608 -0.2613
  189SOL     OW  565   0.173   0.539   2.212 -0.5228 -0.4657 -0.0009
  189SOL    HW1  566   0.209   0.632   2.233  0.3779  0.1626 -1.0148
  189SOL    HW2  567   0.074   0.547   2.200  2.2383 -1.5521 -0.8201
  190SOL     OW  568   1.859   0.807   1.866  0.1645 -0.2233  0.7863
  190SOL    HW1  569   1.843   0.870   1.785  1.3394  0.7299 -2.0020
  190SOL    HW2  570   1.962   0.794   1.891  3.9664  0.9872 -0.3172
  191SOL     OW  571   0.941   0.218   2.069 -0.4014 -0.0736 -0.4990
  191SOL    HW1  572   0.907   0.172   1.983 -0.9474 -1.3434 -0.2780
  191SOL    HW2  573   1.005   0.161   2.125 -1.9460 -1.7674  2.0611
  192SOL     OW  574   1.080   1.986   1.769  0.2750  0.5200  0.0819
  192SOL    HW1  575   1.167   2.000   1.817  0.3016 -1.6044 -2.8250
  192SOL    HW2  576   1.050   2.074   1.729 -1.4573 -3.0222 -0.9096
  193SOL     OW  577   1.294   0.283   0.743 -0.2363  0.3665  0.2345
  193SOL    HW1  578   1.229   0.359   0.719  0.7573  1.7286 -1.5895
  193SOL    HW2  579   1.242   0.202   0.779 -0.7837  1.8300  0.8445
  194SOL     OW  580   1.039   2.220   1.587  0.5924  0.0920  0.2076
  194SOL    HW1  581   0.945   2.190   1.560  1.7498 -0.1158  1.4668
  194SOL    HW2  582   1.107   2.154   1.549  1.7004 -1.6958  1.2891
  195SOL     OW  583   1.440   0.360   0.333 -0.9056 -0.0567 -0.9500
  195SOL    HW1  584   1.479   0.449   0.368  3.1636 -0.1624  1.1704
  195SOL    HW2  585   1.505   0.317   0.263 -0.4724 -0.8183  0.5134
  196SOL     OW  586   0.720   1.450   2.129  0.4620 -0.2372 -0.1776
  196SOL    HW1  587   0.745   1.423   2.038 -0.7154 -1.3372  0.9186
  196SOL    HW2  588   0.720   1.372   2.193  0.7484  2.9850 -0.6936
  197SOL     OW  589   0.888   0.456   1.599  0.2610 -0.1240 -0.3809
  197SOL    HW1  590   0.953   0.516   1.652  0.2257  2.8429  1.8506
  197SOL    HW2  591   0.914   0.445   1.501  1.8810  3.5487 -3.3382
  198SOL     OW  592   0.703   0.907   0.928 -0.7300 -0.1483 -0.3285
  198SOL    HW1  593   0.799   0.930   0.891 -0.5648  0.7690 -0.6675
  198SOL    HW2  594   0.690   0.958   1.019  1.3964  1.1464  0.1220
  199SOL     OW  595   0.527   2.257   1.566  0.1833  0.0152 -0.3588
  199SOL    HW1  596   0.444   2.194   1.568  1.1115  0.3366  2.9153
  199SOL    HW2  597   0.493   2.351   1.552 -3.5023 -1.2863 -2.8359
  200SOL     OW  598   1.643   1.076   2.107  0.4938  0.3637  0.3674
  200SOL    HW1  599   1.625   1.111   2.011 -0.7240 -0.9788 -1.8714
  200SOL    HW2  600   1.664   0.977   2.104 -0.1320  0.2290  1.0749
  201SOL     OW  601   0.724   2.048   1.907 -0.2268 -0.5386 -0.0572
  201SOL    HW1  602   0.746   1.953   1.932  2.2576 -0.2092  3.8104
  201SOL    HW2  603   0.628   2.056   1.879  0.8279 -0.4664 -0.5799
  202SOL     OW  604   1.251   2.948   0.277  0.5523  0.4058 -0.3820
  202SOL    HW1  605   1.217   3.039   0.247 -2.3826  0.8292  2.3167
  202SOL    HW2  606   1.171   2.894   0.313 -1.5548 -0.6534  1.8306
  203SOL     OW  607   1.518   0.080   2.264 -0.4944 -0.2893  0.3095
  203SOL    HW1  608   1.450   0.006   2.242 -0.6649 -0.2341 -0.6695
  203SOL    HW2  609   1.596   0.030   2.309 -0.3654 -2.5983 -0.0527
  204SOL     OW  610   0.463   1.577   1.751  0.4901 -0.5383  0.2975
  204SOL    HW1  611   0.563   1.570   1.756 -2.1159  0.0400  0.3601
  204SOL    HW2  612   0.437   1.587   1.652 -1.0419 -0.0498  1.4253
  205SOL     OW  613   2.243   1.286   2.583 -0.0364 -0.0295 -0.4139
  205SOL    HW1  614   2.260   1.302   2.488  0.5158  0.4544  1.8837
  205SOL    HW2  615   2.220   1.369   2.631 -0.5958 -1.3184 -1.1036
  206SOL     OW  616   0.030   1.672   2.372  0.1816 -0.0219 -0.3405
  206SOL    HW1  617   0.053   1.772   2.379 -1.3346 -0.7685  2.3895
  206SOL    HW2  618   0.085   1.615   2.439  3.2666  0.1589 -1.4476
  207SOL     OW  619   0.965   2.748   1.424 -0.0019  0.1659 -0.4722
  207SOL    HW1  620   0.922   2.664   1.462  1.0795 -1.4548 -1.2931
  207SOL    HW2  621   0.955   2.829   1.482  0.5519 -2.6034 -1.3856
  208SOL     OW  622   0.331   2.468   1.330  0.2453  0.1223 -0.2406
  208SOL    HW1  623   0.415   2.498   1.384  2.1747 -0.2962 -3.1210
  208SOL    HW2  624   0.299   2.520   1.252 -0.7821 -0.1539 -1.4537
  209SOL     OW  625   1.086   2.797   0.429 -0.2338 -0.0627  0.0502
  209SOL    HW1  626   1.041   2.722   0.374  0.8031 -0.9473  3.7769
  209SOL    HW2  627   1.141   2.745   0.499 -1.9189 -0.6222  0.9412
  210SOL     OW  628   2.694   1.291   0.966 -0.3210  0.5334  0.5515
  210SOL    HW1  629   2.792   1.297   0.936 -1.1713  1.6797  1.0429
  210SOL    HW2  630   2.649   1.217   0.915 -0.9805  1.1156 -2.0388
  211SOL     OW  631   0.685   0.740   1.653 -0.1821  0.1495  0.0118
  211SOL    HW1  632   0.631   0.661   1.676 -0.4968  2.7626  0.4151
  211SOL    HW2  633   0.775   0.746   1.706  1.4305  0.5678  2.7260
  212SOL     OW  634   1.508   2.286   1.761  0.3512 -0.1238 -0.0749
  212SOL    HW1  635   1.490   2.331   1.672 -2.8437 -0.2096  0.7044
  212SOL    HW2  636   1.591   2.227   1.758 -2.8157 -0.0960 -0.4568
  213SOL     OW  637   2.808   0.145   1.629 -0.2625  0.9350 -0.3515
  213SOL    HW1  638   2.771   0.230   1.591  0.6704 -1.4870  3.4048
  213SOL    HW2  639   2.746   0.064   1.619 -1.5908  1.3688 -0.7584
  214SOL     OW  640   0.961   2.639   1.739 -0.3481 -0.2981 -0.2183
  214SOL    HW1  641   1.044   2.589   1.714 -0.4781  0.3196  0.6034
  214SOL    HW2  642   0.967   2.699   1.822 -1.5751  0.7532  2.6761
  215SOL     OW  643   2.483   1.757   1.504  0.1115  0.2288  0.1865
  215SOL    HW1  644   2.465   1.856   1.490 -1.2020 -1.2593 -0.2650
  215SOL    HW2  645   2.452   1.706   1.423 -0.1128  0.4685  0.8495
  216SOL     OW  646   0.313   0.934   1.699 -0.3345 -0.0361  0.0124
  216SOL    HW1  647   0.262   0.911   1.784  0.2328  0.4916  1.2426
  216SOL    HW2  648   0.254   0.974   1.627  1.1605 -3.0247 -2.5685
  217SOL     OW  649   2.731   0.091   1.264  1.1482  0.6121  0.4832
  217SOL    HW1  650   2.681   0.180   1.254  0.6818  0.4634  0.1030
  217SOL    HW2  651   2.812   0.073   1.208  3.7159 -1.1757 -1.9780
  218SOL     OW  652   1.327   2.256   1.277  0.2069 -0.0495 -0.4772
  218SOL    HW1  653   1.387   2.243   1.196 -0.0747 -2.8947 -2.6453
  218SOL    HW2  654   1.299   2.352   1.291  2.2006 -0.4946 -1.7604
  219SOL     OW  655   1.453   2.847   0.480 -0.6746  0.1145 -0.4966
  219SOL    HW1  656   1.395   2.788   0.539  0.0121  2.8509  1.5750
  219SOL    HW2  657   1.396   2.885   0.408 -0.3503 -1.8663 -0.3053
  220SOL     OW  658   1.592   2.418   0.025 -0.1150  0.0578 -0.2527
  220SOL    HW1  659   1.501   2.460   0.041 -0.4651  0.4797  0.6551
  220SOL    HW2  660   1.646   2.476   3.025  0.9065  0.2668 -2.0051
  221SOL     OW  661   2.725   2.023   0.691  0.1000  0.3659 -0.0869
  221SOL    HW1  662   2.650   2.066   0.629 -1.5471  0.2223 -0.2157
  221SOL    HW2  663   2.790   1.990   0.623 -1.3004 -0.0105 -0.1422
  222SOL     OW  664   0.861   2.122   0.752 -0.4222 -0.6958  0.0781
  222SOL    HW1  665   0.885   2.174   0.838 -0.7420  0.8233 -1.3089
  222SOL    HW2  666   0.792   2.177   0.697  0.6076 -0.1213  1.2627
  223SOL     OW  667   1.179   2.795   2.629  0.0591  0.3555  0.4777
  223SOL    HW1  668   1.104   2.859   2.599 -2.0464  2.3123  0.4552
  223SOL    HW2  669   1.132   2.707   2.649  0.3971 -1.2071  0.9741
  224SOL     OW  670   2.580   1.092   1.153  0.1615  0.0813 -0.0111
  224SOL    HW1  671   2.613   1.164   1.091  0.0965 -2.1060 -0.2402
  224SOL    HW2  672   2.483   1.074   1.148  0.0651 -1.3658 -0.4456
  225SOL     OW  673   2.912   1.688   0.951 -0.0645  0.0419  0.8687
  225SOL    HW1  674   3.011   1.704   0.944 -1.7100 -2.5635 -0.6343
  225SOL    HW2  675   2.859   1.722   0.874  0.2607 -1.0538  2.0558
  226SOL     OW  676   1.102   2.601   0.933 -0.2796  0.5766 -0.0904
  226SOL    HW1  677   1.014   2.577   0.890  2.0003 -0.2013 -0.1031
  226SOL    HW2  678   1.165   2.518   0.935 -0.2742  1.5999  0.8977
  227SOL     OW  679   1.204   1.195   1.273 -0.3219  0.1566  0.2785
  227SOL    HW1  680   1.200   1.120   1.344 -0.1795 -1.1634 -2.2980
  227SOL    HW2  681   1.110   1.215   1.237  0.1124  1.3138 -0.4052
  228SOL     OW  682   1.553   0.218   2.004 -0.0328 -0.2331  0.0586
  228SOL    HW1  683   1.589   0.159   2.078  0.0323 -0.4278 -1.4633
  228SOL    HW2  684   1.451   0.236   2.020 -0.8341 -1.3480 -1.8720
  229SOL     OW  685   2.986   0.816   2.306  0.2450  0.0470  0.0849
  229SOL    HW1  686   2.893   0.816   2.348  0.2792  2.9367 -0.2548
  229SOL    HW2  687   3.058   0.775   2.362  0.4174  0.1857 -0.0863
  230SOL     OW  688   0.306   1.024   0.759 -0.5675  0.4016  0.6632
  230SOL    HW1  689   0.224   1.032   0.704  1.0211  0.0348  0.0733
  230SOL    HW2  690   0.309   1.115   0.805 -0.8041  0.0758  0.6094
  231SOL     OW  691   2.099   3.002   2.530  0.1456  0.4231  0.2714
  231SOL    HW1  692   2.193   2.991   2.495  0.9309 -0.7793  2.7020
  231SOL    HW2  693   2.073   0.030   2.515 -0.8135 -0.3411 -0.2584
  232SOL     OW  694   0.424   1.541   2.859  0.5246 -0.1359 -0.2172
  232SOL    HW1  695   0.434   1.592   2.948  1.4553  0.1063  2.4120
  232SOL    HW2  696   0.335   1.565   2.811 -1.4228  0.5524  4.4016
  233SOL     OW  697   1.297   2.513   2.903  0.0037  0.2387 -0.0572
  233SOL    HW1  698   1.306   2.517   3.006 -1.7757 -2.4789  1.1813
  233SOL    HW2  699   1.355   2.592   2.867  1.1287 -0.3791  1.0086
  234SOL     OW  700   0.982   1.520   1.868  0.1916  0.2903 -0.5398
  234SOL    HW1  701   1.034   1.467   1.941 -1.8203  0.6639  0.3518
  234SOL    HW2  702   0.886   1.487   1.867  2.7642 -0.6332  0.4338
  235SOL     OW  703   0.253   1.904   1.784 -0.6690 -0.2672 -0.1536
  235SOL    HW1  704   0.268   1.880   1.686  3.6886 -0.2584 -0.3733
  235SOL    HW2  705   0.273   1.824   1.845 -0.5878 -0.0514 -2.9611
  236SOL     OW  706   1.537   2.085   2.738  0.8333 -0.1634  0.5624
  236SOL    HW1  707   1.632   2.114   2.761 -0.1564  0.2028 -0.6355
  236SOL    HW2  708   1.464   2.142   2.781 -0.8647  0.2979  0.9638
  237SOL     OW  709   1.459   0.453   0.910  0.0463  0.1058 -0.2596
  237SOL    HW1  710   1.556   0.483   0.914  1.8240 -0.7925 -0.4561
  237SOL    HW2  711   1.438   0.388   0.839  1.0900 -1.2280  0.0899
  238SOL     OW  712   0.941   0.322   2.509  0.2739 -0.0220  0.5378
  238SOL    HW1  713   0.915   0.236   2.460 -0.3898  0.4071  0.6967
  238SOL    HW2  714   0.997   0.380   2.445 -0.3248 -2.4022  1.5545
  239SOL     OW  715   0.714   2.919   1.619 -0.2452  0.2023  0.3785
  239SOL    HW1  716   0.650   2.977   1.671  1.9568 -1.2058 -0.0189
  239SOL    HW2  717   0.791   2.976   1.581 -0.9831 -2.2893  0.2206
  240SOL     OW  718   2.328   2.585   0.710 -0.4403 -0.2708  0.3695
  240SOL    HW1  719   2.275   2.622   0.634  4.4117 -1.6260 -0.6430
  240SOL    HW2  720   2.373   2.659   0.763  0.4927  0.1385  1.8966
  241SOL     OW  721   1.152   1.420   1.654  0.3907 -0.0028 -0.2347
  241SOL    HW1  722   1.085   1.348   1.618 -2.0003 -0.2603  3.0445
  241SOL    HW2  723   1.095   1.473   1.720 -3.4447  1.5503  0.8440
  242SOL     OW  724   2.781   0.781   0.347  0.1781  0.3559 -0.0668
  242SOL    HW1  725   2.858   0.845   0.329 -1.2136  1.4813 -2.0290
  242SOL    HW2  726   2.797   0.692   0.301  0.3608  0.4466 -0.4333
  243SOL     OW  727   0.622   0.695   1.231 -0.0954  0.5169 -0.1512
  243SOL    HW1  728   0.682   0.761   1.282  0.3746  0.6185  2.2864
  243SOL    HW2  729   0.655   0.669   1.135  0.3527  0.6751 -0.6515
  244SOL     OW  730   1.104   0.436   3.009  0.1721  0.5813  0.7097
  244SOL    HW1  731   1.018   0.472   3.047  1.2255  1.0612 -0.9631
  244SOL    HW2  732   1.087   0.394   2.915  0.0593 -2.2870 -2.8753
  245SOL     OW  733   2.070   0.499   2.896  0.7628 -0.6952  0.3601
  245SOL    HW1  734   2.157   0.448   2.880 -0.0286 -1.8844 -1.7502
  245SOL    HW2  735   2.041   0.539   2.810 -1.3585 -0.8027  2.9179
  246SOL     OW  736   0.754   0.844   1.430 -0.1556 -0.1057  0.1333
  246SOL    HW1  737   0.711   0.825   1.523  0.2954  0.7290 -0.1856
  246SOL    HW2  738   0.855   0.829   1.428 -2.5137 -1.0744 -0.3487
  247SOL     OW  739   0.721   2.948   2.056  0.0677 -0.0204 -0.5300
  247SOL    HW1  740   0.635   2.990   2.090  0.5986  0.6774 -1.9914
  247SOL    HW2  741   0.778   3.018   2.012  1.4217  1.3121 -0.6155
  248SOL     OW  742   0.062   1.601   1.935 -0.2281 -0.2322 -0.2469
  248SOL    HW1  743   0.046   1.560   1.844  2.4087  2.1239  3.3860
  248SOL    HW2  744   0.145   1.664   1.931  1.9881  1.0074  0.5676
  249SOL     OW  745   0.037   0.015   2.890  0.0891  0.1587 -0.1820
  249SOL    HW1  746   0.074   0.109   2.868  1.3770  0.4328  0.4050
  249SOL    HW2  747   0.080   3.056   2.979  1.3018  0.9934 -1.5341
  250SOL     OW  748   2.886   0.165   0.392 -0.3919 -0.2129  0.0703
  250SOL    HW1  749   2.860   0.067   0.398 -2.1806  1.0391  1.0157
  250SOL    HW2  750   2.920   0.184   0.298 -2.5225 -1.0928 -0.0165
  251SOL     OW  751   0.618   1.315   1.029 -0.3304  0.7860  0.0636
  251SOL    HW1  752   0.546   1.368   1.071 -0.4321  0.5156  1.0175
  251SOL    HW2  753   0.616   1.326   0.930  1.1866 -2.1705  2.1047
  252SOL     OW  754   1.475   2.899   1.385  0.2798 -0.5252  0.4824
  252SOL    HW1  755   1.456   2.904   1.483 -0.0688 -0.8563 -3.1261
  252SOL    HW2  756   1.398   2.845   1.340  0.0381 -2.7489 -2.7490
  253SOL     OW  757   2.019   2.035   2.658  0.5586  0.3931 -0.1507
  253SOL    HW1  758   2.042   2.101   2.732 -1.6587  0.3069 -1.1261
  253SOL    HW2  759   1.986   1.944   2.690  1.0031  3.4368  1.8931
  254SOL     OW  760   0.343   1.715   1.941  0.5366 -0.7116 -0.6291
  254SOL    HW1  761   0.406   1.658   1.890  1.7649 -0.3215  0.3416
  254SOL    HW2  762   0.393   1.744   2.027 -1.4245  1.0023  3.2913
  255SOL     OW  763   0.916   3.030   1.487  0.3255 -0.4013 -0.5763
  255SOL    HW1  764   0.967   3.027   1.396  2.1220 -0.1991 -1.8270
  255SOL    HW2  765   0.940   0.039   1.549 -3.0709 -0.6992 -0.9358
  256SOL     OW  766   2.461   2.135   1.064 -0.0213 -0.2807  0.0347
  256SOL    HW1  767   2.525   2.066   1.020 -0.2402 -0.9576 -0.4585
  256SOL    HW2  768   2.396   2.175   0.996  0.6185 -2.1450 -0.4633
  257SOL     OW  769   0.369   2.283   0.001 -0.0748  0.4595  0.0254
  257SOL    HW1  770   0.414   2.241   0.082 -0.2202  0.2272  3.6399
  257SOL    HW2  771   0.432   2.293   2.986 -0.1482  1.4336  0.0677
  258SOL     OW  772   0.980   2.106   2.539  0.0434 -0.1682 -0.2355
  258SOL    HW1  773   0.956   2.188   2.599 -2.6638  2.0206  1.0458
  258SOL    HW2  774   0.969   2.027   2.600 -0.0961  1.6132  2.2399
  259SOL     OW  775   0.904   1.862   2.657 -0.0897 -0.5722 -0.0024
  259SOL    HW1  776   0.829   1.813   2.609 -2.8456  0.0188 -1.4314
  259SOL    HW2  777   0.919   1.834   2.752 -1.3564  0.1976 -1.6168
  260SOL     OW  778   1.996   1.311   1.935  0.4942  0.0826 -0.0653
  260SOL    HW1  779   2.059   1.383   1.952 -1.4478 -0.7853  1.2292
  260SOL    HW2  780   1.947   1.285   2.022 -1.7857 -1.4989 -0.6558
  261SOL     OW  781   1.329   0.752   0.794 -0.1733 -0.3199 -0.5374
  261SOL    HW1  782   1.255   0.684   0.806  1.1834  0.5603 -2.1187
  261SOL    HW2  783   1.289   0.844   0.816 -1.8080 -2.3770 -0.2209
  262SOL     OW  784   1.617   2.083   2.480  0.7562 -0.0091 -0.4702
  262SOL    HW1  785   1.694   2.144   2.461 -1.3239 -0.8186 -1.5792
  262SOL    HW2  786   1.575   2.104   2.572 -1.5175  1.9353 -0.8158
  263SOL     OW  787   0.209   1.599   0.015 -0.0037 -0.3918  0.0423
  263SOL    HW1  788   0.139   1.553   0.078  1.8180  0.6402  1.0966
  263SOL    HW2  789   0.307   1.585   0.049 -0.0061 -2.7465 -0.1195
  264SOL     OW  790   0.563   2.005   0.593  0.4718  0.6974 -0.5800
  264SOL    HW1  791   0.518   2.094   0.597  0.4266 -1.6435  0.9833
  264SOL    HW2  792   0.567   1.961   0.688 -1.6473 -0.1109 -1.4014
  265SOL     OW  793   0.487   1.241   0.161 -0.0572 -0.0571 -0.1899
  265SOL    HW1  794   0.509   1.156   0.209 -0.1698  1.3852 -1.9891
  265SOL    HW2  795   0.560   1.310   0.185  1.7184 -1.8379 -0.7300
  266SOL     OW  796   1.103   1.615   2.818  0.3039 -0.0917  0.5177
  266SOL    HW1  797   1.108   1.660   2.726 -0.0868 -0.9618  1.8361
  266SOL    HW2  798   1.053   1.671   2.885  0.8545  2.4534  0.5459
  267SOL     OW  799   0.890   0.865   2.312  0.0892 -0.0201  0.4581
  267SOL    HW1  800   0.979   0.809   2.300  0.0667 -0.8505 -1.7769
  267SOL    HW2  801   0.910   0.967   2.314 -1.3744  2.5098  0.0868
  268SOL     OW  802   0.379   0.754   2.531  0.1504  0.0164  0.2387
  268SOL    HW1  803   0.454   0.742   2.467 -2.0811  1.2499 -1.1880
  268SOL    HW2  804   0.418   0.787   2.617 -2.5752  0.1386 -0.6669
  269SOL     OW  805   2.005   2.808   2.673 -0.4722  0.2967  0.8342
  269SOL    HW1  806   2.035   2.886   2.609  0.2228  2.9091 -2.2558
  269SOL    HW2  807   1.925   2.761   2.626 -0.0358  0.4850 -2.4879
  270SOL     OW  808   0.934   1.527   2.430 -0.3671  0.4063  0.7105
  270SOL    HW1  809   0.921   1.442   2.484 -0.2655 -0.1887 -1.5025
  270SOL    HW2  810   0.862   1.595   2.450  0.4797 -1.5554  0.7409
  271SOL     OW  811   0.167   0.263   2.867  0.0838 -0.1623  0.5165
  271SOL    HW1  812   0.228   0.263   2.784  0.1939 -2.8881 -3.2066
  271SOL    HW2  813   0.222   0.256   2.953  3.2625  1.5877  1.4150
  272SOL     OW  814   2.328   0.749   0.423  0.3127 -0.3266  0.4526
  272SOL    HW1  815   2.338   0.671   0.483 -0.4147  1.5258 -2.8754
  272SOL    HW2  816   2.257   0.722   0.354  1.1059  1.2336  1.1389
  273SOL     OW  817   0.342   2.983   1.803  0.1176  0.3984  0.7656
  273SOL    HW1  818   0.251   3.026   1.818 -0.7325 -0.7840  1.2945
  273SOL    HW2  819   0.360   2.911   1.874 -2.1296 -1.1032  0.9045
  274SOL     OW  820   2.795   0.322   1.884 -0.5846 -0.9059  0.3286
  274SOL    HW1  821   2.888   0.322   1.843 -2.0485  0.7291  0.5448
  274SOL    HW2  822   2.721   0.312   1.811 -1.2947  0.6195  3.8342
  275SOL     OW  823   1.680   1.757   0.739 -0.4029 -0.2672  0.3385
  275SOL    HW1  824   1.701   1.665   0.779  2.4929 -0.1293  2.4621
  275SOL    HW2  825   1.764   1.794   0.696  0.0600 -1.8544 -1.2195
  276SOL     OW  826   0.694   1.097   2.060  0.0184 -0.0780 -0.3274
  276SOL    HW1  827   0.679   1.006   2.098 -0.2112 -1.9774 -1.5684
  276SOL    HW2  828   0.606   1.149   2.059  0.6990  3.3211  2.7445
  277SOL     OW  829   1.708   2.661   2.075 -0.4623 -0.7724 -0.3159
  277SOL    HW1  830   1.763   2.592   2.124  2.5656  1.8777  1.8149
  277SOL    HW2  831   1.744   2.681   1.979  1.9116 -1.6008 -1.8321
  278SOL     OW  832   2.068   2.738   2.368 -0.0970  0.3321  0.2834
  278SOL    HW1  833   2.002   2.696   2.432  2.2566  3.1157  0.3014
  278SOL    HW2  834   2.164   2.708   2.389  1.0231 -0.2564  0.0413
  279SOL     OW  835   1.826   1.202   0.234 -0.3414 -0.1425  0.0107
  279SOL    HW1  836   1.845   1.290   0.285 -0.7786 -1.1671  0.3859
  279SOL    HW2  837   1.860   1.207   0.137 -0.9015  0.3248  2.3037
  280SOL     OW  838   0.695   1.431   0.113 -0.2648 -0.6745 -0.0411
  280SOL    HW1  839   0.787   1.432   0.159  1.9380  1.5365 -1.4053
  280SOL    HW2  840   0.705   1.377   0.029 -1.4104 -1.6070  0.5301
  281SOL     OW  841   0.072   3.020   1.792  0.7974 -0.2740  0.0969
  281SOL    HW1  842   0.092   2.923   1.812  0.3550 -1.8692 -0.9335
  281SOL    HW2  843   3.047   3.045   1.834  3.9945  0.4414  1.5351
  282SOL     OW  844   3.047   2.278   0.841  0.0224 -0.3405 -0.9181
  282SOL    HW1  845   0.016   2.353   0.789 -0.8877 -3.1466  3.3394
  282SOL    HW2  846   2.948   2.293   0.855 -0.6873  0.4405 -2.5479
  283SOL     OW  847   1.440   1.956   2.096 -0.5295  0.5633  0.3440
  283SOL    HW1  848   1.409   2.019   2.169  2.0510 -0.7691 -0.7561
  283SOL    HW2  849   1.507   1.895   2.140 -1.8638 -1.5111 -1.8013
  284SOL     OW  850   1.722   0.129   0.558 -0.1016 -0.4413  0.0095
  284SOL    HW1  851   1.763   0.116   0.467 -1.5780 -0.6428  3.1874
  284SOL    HW2  852   1.635   0.177   0.544  3.3500  0.3782  0.1523
  285SOL     OW  853   0.019   2.630   2.681  0.1815  0.1199 -0.1123
  285SOL    HW1  854   3.033   2.662   2.603 -0.4417 -2.2447  1.9575
  285SOL    HW2  855   0.089   2.555   2.654  1.1304  0.1143  1.2780
  286SOL     OW  856   2.809   2.422   1.431 -0.0454 -0.1669 -0.0841
  286SOL    HW1  857   2.867   2.384   1.358 -2.1985  0.7623  0.6564
  286SOL    HW2  858   2.740   2.352   1.472 -3.0690 -2.5737  1.0019
  287SOL     OW  859   0.514   1.416   0.762 -0.4141  0.5399 -0.0642
  287SOL    HW1  860   0.432   1.374   0.801  3.2601  0.0575 -0.5969
  287SOL    HW2  861   0.505   1.518   0.761 -0.3661  3.5246  1.8309
  288SOL     OW  862   2.153   1.807   2.975  0.6424  0.0269 -0.3880
  288SOL    HW1  863   2.108   1.841   2.886  0.9734  0.4465 -1.7387
  288SOL    HW2  864   2.192   1.711   2.961 -1.9700 -2.9258  1.5167
  289SOL     OW  865   0.170   1.642   2.813  0.2134  0.4799  0.1166
  289SOL    HW1  866   0.078   1.684   2.815 -1.4031  0.9737 -0.2233
  289SOL    HW2  867   0.203   1.617   2.907 -0.7591 -0.8623 -0.3202
  290SOL     OW  868   1.114   1.685   1.115  0.2688 -0.2616 -0.4268
  290SOL    HW1  869   1.169   1.621   1.057  4.0107 -0.0165 -1.1450
  290SOL    HW2  870   1.111   1.770   1.062  0.2787  0.8128  2.0522
  291SOL     OW  871   1.657   0.964   2.901  0.3864  0.5501  0.1255
  291SOL    HW1  872   1.570   0.974   2.849  1.8988  1.2065  0.0066
  291SOL    HW2  873   1.639   0.934   2.999 -0.7883  0.3970  3.6119
  292SOL     OW  874   1.225   1.445   0.403 -0.2980  0.7729 -1.2582
  292SOL    HW1  875   1.164   1.482   0.479  0.9613 -2.5989  0.3894
  292SOL    HW2  876   1.212   1.487   0.313 -0.8611 -0.1700  0.3836
  293SOL     OW  877   1.160   2.830   1.094 -0.3947 -0.6140  0.3491
  293SOL    HW1  878   1.247   2.876   1.069  0.9475 -1.5696 -0.0793
  293SOL    HW2  879   1.146   2.750   1.032 -0.4562 -2.9415  0.5423
  294SOL     OW  880   2.258   1.285   2.970  0.2241  0.0755  0.2752
  294SOL    HW1  881   2.187   1.252   2.907 -2.0581  2.8660 -0.6670
  294SOL    HW2  882   2.344   1.288   2.919  0.6727  0.8475  1.7110
  295SOL     OW  883   1.392   2.114   2.305  0.0457  0.2183  0.3073
  295SOL    HW1  884   1.353   2.137   2.398  0.9144 -1.8773  2.0382
  295SOL    HW2  885   1.493   2.105   2.310  1.0577 -0.3139  1.4754
  296SOL     OW  886   1.806   0.558   1.698 -0.4923  0.0543  0.5049
  296SOL    HW1  887   1.822   0.654   1.728 -1.7916 -1.4055 -1.5000
  296SOL    HW2  888   1.795   0.543   1.598  1.3474 -1.0895  0.5882
  297SOL     OW  889   0.032   0.603   1.839  0.9709 -0.2471 -0.6678
  297SOL    HW1  890   3.060   0.514   1.870  0.9362 -1.1075  0.0802
  297SOL    HW2  891   3.041   0.631   1.763 -0.7265  0.3764  2.4769
  298SOL     OW  892   1.158   2.446   1.678 -0.1775 -0.8227 -0.2840
  298SOL    HW1  893   1.101   2.364   1.651  0.0892  2.6969  1.3531
  298SOL    HW2  894   1.195   2.441   1.771 -0.2860  1.1706  0.8261
  299SOL     OW  895   1.410   2.700   2.735  0.4434  0.3992  0.0958
  299SOL    HW1  896   1.482   2.772   2.755 -0.5781  2.0116  2.6855
  299SOL    HW2  897   1.324   2.725   2.682  0.5157 -0.8626 -5.6384
  300SOL     OW  898   2.795   1.175   2.757  0.0969  0.7056  0.0525
  300SOL    HW1  899   2.740   1.256   2.725 -1.6212  2.9350 -0.2404
  300SOL    HW2  900   2.797   1.176   2.857 -0.6054 -0.6165  2.6677
  301SOL     OW  901   1.907   1.101   1.518 -0.1492 -0.1707  0.1806
  301SOL    HW1  902   1.886   1.014   1.567  0.6948 -0.6038 -0.6212
  301SOL    HW2  903   1.915   1.174   1.591  0.7076  0.6285 -0.2262
  302SOL     OW  904   2.401   1.949   2.448  0.4361 -0.2214 -0.1993
  302SOL    HW1  905   2.458   1.916   2.368  3.7004 -1.9684 -4.1335
  302SOL    HW2  906   2.309   1.978   2.421  0.9248 -0.0556 -1.9666
  303SOL     OW  907   0.492   2.421   2.174  0.0011  0.4728  0.3693
  303SOL    HW1  908   0.591   2.426   2.191  1.3645  2.3255  1.9639
  303SOL    HW2  909   0.464   2.445   2.078 -0.3244 -1.7430 -0.1091
  304SOL     OW  910   3.065   0.782   1.176  0.6658  0.5854  0.3386
  304SOL    HW1  911   0.080   0.842   1.175 -1.3526 -0.2546  0.0285
  304SOL    HW2  912   0.028   0.684   1.153  0.4276 -3.9825  2.2383
  305SOL     OW  913   2.769   0.790   1.736 -0.3701 -0.1255  0.2315
  305SOL    HW1  914   2.845   0.751   1.685  1.9268 -2.7269 -0.5794
  305SOL    HW2  915   2.806   0.875   1.781 -0.3201  2.9045 -1.3774
  306SOL     OW  916   2.439   1.128   1.568 -0.1537  0.0229  0.2452
  306SOL    HW1  917   2.343   1.101   1.582  0.2160  0.9683 -1.1566
  306SOL    HW2  918   2.461   1.217   1.612 -1.9204 -0.1089 -0.7397
  307SOL     OW  919   2.404   0.046   1.149 -0.2588 -0.3556 -0.7123
  307SOL    HW1  920   2.454   0.103   1.083  0.0792 -1.6451  0.1215
  307SOL    HW2  921   2.453   3.031   1.177  1.0106  2.8714  0.6661
  308SOL     OW  922   2.940   1.752   1.562 -0.0021 -0.0805  0.1342
  308SOL    HW1  923   2.963   1.827   1.624  2.9434 -0.0586 -2.4576
  308SOL    HW2  924   2.847   1.718   1.591 -0.2512  0.5225  3.0680
  309SOL     OW  925   2.308   2.236   1.638 -0.2750 -0.2522  0.2819
  309SOL    HW1  926   2.393   2.291   1.643 -1.5103 -0.8563  0.0139
  309SOL    HW2  927   2.234   2.277   1.698 -1.3782  0.3773 -2.1492
  310SOL     OW  928   2.258   1.562   2.919  0.6613 -0.4760 -0.4600
  310SOL    HW1  929   2.269   1.573   2.821  0.2667  1.2463  0.3877
  310SOL    HW2  930   2.245   1.466   2.947 -0.5234 -1.1929  0.7847
  311SOL     OW  931   1.872   1.225   3.029 -0.1411  0.3194 -0.3721
  311SOL    HW1  932   1.771   1.234   3.010 -1.2021  0.0703  0.2887
  311SOL    HW2  933   1.917   1.243   2.939 -0.7580 -0.9026  3.2493
  312SOL     OW  934   1.003   2.269   2.181 -0.4662 -0.0421  0.3016
  312SOL    HW1  935   1.008   2.170   2.214 -1.2422  0.9832 -0.9135
  312SOL    HW2  936   0.924   2.322   2.210 -0.1172 -2.2906  0.1796
  313SOL     OW  937   0.306   0.313   0.645 -0.0618  0.0059  0.0092
  313SOL    HW1  938   0.247   0.322   0.566  2.2660  0.7141  3.1332
  313SOL    HW2  939   0.339   0.220   0.660 -1.4601 -0.1670  2.2752
  314SOL     OW  940   0.660   1.862   1.063 -0.3775  0.2605 -0.3019
  314SOL    HW1  941   0.621   1.873   1.156  0.5246 -1.8008 -0.6618
  314SOL    HW2  942   0.613   1.914   0.991 -2.4827 -1.8323 -0.0496
  315SOL     OW  943   0.678   2.148   2.166  0.0340  0.4018  0.3780
  315SOL    HW1  944   0.690   2.134   2.065  2.9105 -0.8645 -1.8408
  315SOL    HW2  945   0.723   2.236   2.192 -1.1382  0.2363 -1.7025
  316SOL     OW  946   0.497   1.999   0.895 -0.6636 -0.0516 -0.6079
  316SOL    HW1  947   0.507   2.101   0.919 -1.7645 -1.1901 -0.1601
  316SOL    HW2  948   0.400   1.965   0.892 -1.4249 -0.6582 -0.2173
  317SOL     OW  949   1.793   0.640   0.585  0.0773 -0.0536  0.4355
  317SOL    HW1  950   1.857   0.716   0.608  0.3856  0.3152 -1.1936
  317SOL    HW2  951   1.834   0.571   0.524 -1.3383 -0.8347 -0.8396
  318SOL     OW  952   2.300   2.258   0.247  0.3847 -0.1218  0.1269
  318SOL    HW1  953   2.216   2.199   0.241  1.1882  1.6900 -1.1114
  318SOL    HW2  954   2.376   2.200   0.215  2.0831 -0.4199  0.2358
  319SOL     OW  955   1.339   1.612   2.980 -0.0628 -0.5611 -0.5455
  319SOL    HW1  956   1.269   1.600   2.909 -0.8946 -0.3790  4.2315
  319SOL    HW2  957   1.395   1.689   2.952 -1.1389  1.5161  1.6124
  320SOL     OW  958   0.609   2.561   2.621  0.2652 -0.1378  0.5549
  320SOL    HW1  959   0.544   2.519   2.555 -1.3672  0.1014  1.1857
  320SOL    HW2  960   0.569   2.580   2.713 -2.4170  0.3431 -0.8195
  321SOL     OW  961   0.897   2.680   2.869  0.2021 -0.0725  0.3414
  321SOL    HW1  962   0.950   2.622   2.810  1.0325  0.9654 -0.2610
  321SOL    HW2  963   0.834   2.749   2.823  0.3484  1.8623 -0.4124
  322SOL     OW  964   2.287   0.637   2.215  0.6337  0.4355  0.2300
  322SOL    HW1  965   2.275   0.548   2.263  3.1626 -0.6805 -1.9585
  322SOL    HW2  966   2.297   0.712   2.277 -1.4911 -0.3612 -1.0826
  323SOL     OW  967   2.943   0.937   0.729 -0.1663  0.6022  0.0586
  323SOL    HW1  968   2.948   0.927   0.833  1.9411 -2.8223  2.1431
  323SOL    HW2  969   2.847   0.943   0.701  2.6728 -1.0115  1.1796
  324SOL     OW  970   0.414   0.799   2.057  0.5779 -0.1407  0.0741
  324SOL    HW1  971   0.369   0.730   1.994  1.9212  0.4036 -0.1051
  324SOL    HW2  972   0.514   0.803   2.048 -2.0973  2.5497  1.0694
  325SOL     OW  973   0.484   0.006   2.108 -0.1972 -0.1547  0.2728
  325SOL    HW1  974   0.495   0.072   2.183 -2.7713  0.3641  0.5010
  325SOL    HW2  975   0.420   0.039   2.039  1.4079 -0.9010 -0.2682
  326SOL     OW  976   2.707   2.256   0.215  0.2058 -0.1513  0.4122
  326SOL    HW1  977   2.728   2.262   0.115  1.9908  0.6071 -0.6029
  326SOL    HW2  978   2.788   2.251   0.276  1.0294 -1.6687 -0.3514
  327SOL     OW  979   2.300   1.376   0.602 -0.3186 -0.2308 -0.6650
  327SOL    HW1  980   2.228   1.414   0.540  0.0320  1.3166 -0.4354
  327SOL    HW2  981   2.364   1.450   0.625 -0.7189 -1.9647 -1.1591
  328SOL     OW  982   2.850   1.635   2.280 -0.2158  0.0353 -1.0210
  328SOL    HW1  983   2.945   1.645   2.324  1.0339  0.4133  1.1079
  328SOL    HW2  984   2.860   1.649   2.182 -1.2656 -1.3368  1.5206
  329SOL     OW  985   0.300   2.135   1.549 -0.2287 -0.5127  0.1864
  329SOL    HW1  986   0.227   2.163   1.483 -0.3850  2.1776  0.6128
  329SOL    HW2  987   0.304   2.037   1.563 -1.2924 -0.6838  1.0801
  330SOL     OW  988   2.475   1.439   2.382  0.0631 -0.1401 -0.0921
  330SOL    HW1  989   2.564   1.393   2.376 -2.0304 -1.7431  2.2408
  330SOL    HW2  990   2.418   1.419   2.300 -1.4453 -1.2202  1.6675
  331SOL     OW  991   2.624   2.541   1.057 -0.3464 -0.2601  0.2105
  331SOL    HW1  992   2.684   2.470   1.011  1.3273 -2.8106 -1.1318
  331SOL    HW2  993   2.535   2.501   1.088 -1.4627 -1.3070  2.2600
  332SOL     OW  994   0.570   2.950   0.777 -0.3431 -0.1190 -0.8179
  332SOL    HW1  995   0.499   2.878   0.788  0.5810 -2.0783 -1.6499
  332SOL    HW2  996   0.656   2.928   0.823 -1.1221  1.7777  0.9225
  333SOL     OW  997   2.315   2.597   2.361 -0.1623 -0.6308 -0.4546
  333SOL    HW1  998   2.301   2.510   2.416  1.1524  0.5149  1.3280
  333SOL    HW2  999   2.411   2.634   2.377  2.0232 -0.5439  2.5027
  334SOL     OW 1000   0.819   1.216   0.382 -0.1605 -0.3156 -0.1371
  334SOL    HW1 1001   0.889   1.201   0.459 -0.5638  1.8481 -1.0412
  334SOL    HW2 1002   0.749   1.285   0.413  0.0829  0.6520  0.1569
  335SOL     OW 1003   0.201   2.145   2.152 -0.3818  0.0930 -0.5472
  335SOL    HW1 1004   0.285   2.099   2.189 -1.8866 -1.4502 -0.4589
  335SOL    HW2 1005   0.215   2.249   2.157 -1.1904  0.1867 -0.7680
  336SOL     OW 1006   2.886   2.940   2.398  0.2240  0.7250  0.0939
  336SOL    HW1 1007   2.967   2.954   2.339 -0.9094  2.6013 -0.4149
  336SOL    HW2 1008   2.799   2.992   2.362 -2.6030  3.1445  3.1793
  337SOL     OW 1009   1.038   1.181   0.940 -0.4688  0.3131  0.5799
  337SOL    HW1 1010   1.016   1.263   0.885 -1.3173  0.3448 -2.6722
  337SOL    HW2 1011   0.988   1.187   1.031  1.8042  0.0433 -0.4664
  338SOL     OW 1012   1.080   1.941   0.982 -0.2504 -0.8185  0.1162
  338SOL    HW1 1013   1.144   2.020   0.990  1.0729  0.7352  2.0694
  338SOL    HW2 1014   0.982   1.968   1.001 -1.3200  0.0707 -3.0063
  339SOL     OW 1015   0.114   1.381   1.510 -0.0126 -0.2698  0.0136
  339SOL    HW1 1016   0.056   1.352   1.431 -0.7411  0.5318 -1.4572
  339SOL    HW2 1017   0.053   1.430   1.572  1.2864 -0.2574  0.6366
  340SOL     OW 1018   1.478   2.924   1.950  0.5107  0.3317  0.1947
  340SOL    HW1 1019   1.575   2.954   1.945 -1.4309 -0.9713  3.6560
  340SOL    HW2 1020   1.442   2.946   2.043 -0.8556  0.5924  0.3557
  341SOL     OW 1021   1.695   1.655   1.094 -0.2136 -0.0720 -0.1715
  341SOL    HW1 1022   1.722   1.600   1.012 -1.8284 -1.2889  2.7257
  341SOL    HW2 1023   1.765   1.727   1.116  1.0191  0.7878  0.7632
  342SOL     OW 1024   2.955   1.230   0.869  0.5213 -0.0870  0.3522
  342SOL    HW1 1025   2.966   1.132   0.856 -0.5003  0.5742 -1.0473
  342SOL    HW2 1026   3.016   1.281   0.806 -1.0353 -1.9343 -0.1037
  343SOL     OW 1027   2.801   0.381   1.516  0.1878 -0.4505  0.1013
  343SOL    HW1 1028   2.721   0.445   1.540 -0.3148  1.2316 -2.4779
  343SOL    HW2 1029   2.823   0.389   1.415 -0.0268  1.3773 -1.1490
  344SOL     OW 1030   1.828   0.325   0.993  0.3894  0.7637  0.0487
  344SOL    HW1 1031   1.905   0.329   1.054 -2.1838  0.4955 -2.6931
  344SOL    HW2 1032   1.780   0.415   0.986  0.3300 -1.9147  0.1096
  345SOL     OW 1033   0.584   2.965   2.533 -0.0427 -0.1128  0.1441
  345SOL    HW1 1034   0.526   3.002   2.605  3.3777 -2.4386  1.0729
  345SOL    HW2 1035   0.604   3.035   2.458  1.7161  1.4915 -2.6050
  346SOL     OW 1036   2.454   1.604   0.615 -0.2516  0.2223  0.3580
  346SOL    HW1 1037   2.519   1.621   0.536 -0.2534 -1.1344  0.3020
  346SOL    HW2 1038   2.479   1.659   0.695  0.1982 -1.3224  0.9415
  347SOL     OW 1039   2.453   0.051   1.918 -0.1949 -0.1203  0.5065
  347SOL    HW1 1040   2.422   3.043   1.857  1.5932 -0.6007 -2.7413
  347SOL    HW2 1041   2.406   0.044   2.007 -0.8659 -0.4801 -2.0305
  348SOL     OW 1042   1.301   1.186   1.671  0.0370 -0.3604 -0.5924
  348SOL    HW1 1043   1.229   1.142   1.615  1.0450 -0.8049  1.1719
  348SOL    HW2 1044   1.271   1.285   1.679 -0.7564  3.7245 -2.3751
  349SOL     OW 1045   2.519   0.881   1.732 -0.0590  0.3882  0.4220
  349SOL    HW1 1046   2.615   0.850   1.743 -1.9955  0.9123 -1.3665
  349SOL    HW2 1047   2.506   0.946   1.656  0.0541 -1.7322 -0.3041
  350SOL     OW 1048   2.052   2.162   0.218 -0.3154 -0.1243  0.2801
  350SOL    HW1 1049   1.993   2.245   0.212 -1.8612 -1.3605 -0.2250
  350SOL    HW2 1050   1.989   2.084   0.224  1.9842 -1.3841  1.7691
  351SOL     OW 1051   0.791   0.559   2.008  0.3529 -0.1736 -0.3101
  351SOL    HW1 1052   0.881   0.525   1.987  1.5114  1.7475 -0.4027
  351SOL    HW2 1053   0.723   0.526   1.934 -1.3441 -2.5099 -0.1413
  352SOL     OW 1054   1.969   2.653   1.905 -0.0012  0.3492  0.1856
  352SOL    HW1 1055   2.042   2.676   1.970 -3.4261  0.7681  0.3999
  352SOL    HW2 1056   1.971   2.556   1.872  2.8528 -0.1796  1.2547
  353SOL     OW 1057   0.631   0.800   2.391 -0.1991  0.2269  0.7017
  353SOL    HW1 1058   0.732   0.806   2.374  1.0642 -2.4798 -0.7145
  353SOL    HW2 1059   0.583   0.888   2.377 -0.6835 -2.5214 -1.5872
  354SOL     OW 1060   0.709   1.978   2.992 -0.1107  0.4783 -0.0393
  354SOL    HW1 1061   0.740   2.075   2.983 -1.6361  0.0375  1.4882
  354SOL    HW2 1062   0.659   1.949   2.908 -3.8400  0.3849 -0.5642
  355SOL     OW 1063   1.775   2.758   1.032 -0.3178  0.1652  0.1528
  355SOL    HW1 1064   1.714   2.826   0.990 -0.2225 -1.6192  1.4931
  355SOL    HW2 1065   1.779   2.766   1.133 -0.5434  0.2655  0.4090
  356SOL     OW 1066   2.243   1.023   0.145 -0.2451  0.5223 -0.2584
  356SOL    HW1 1067   2.310   1.099   0.127  0.9895 -3.0673 -0.5806
  356SOL    HW2 1068   2.188   1.051   0.224 -1.4415 -0.7243 -1.0255
  357SOL     OW 1069   0.041   0.146   2.082  0.3301 -0.1196 -0.0017
  357SOL    HW1 1070   0.143   0.147   2.070 -0.2644 -1.9654 -0.2293
  357SOL    HW2 1071   3.055   0.125   1.997 -0.5379 -3.4222 -3.1607
  358SOL     OW 1072   0.061   1.349   0.720 -0.0496  0.2718 -0.2322
  358SOL    HW1 1073   0.062   1.279   0.645  0.1310  2.0927  0.4595
  358SOL    HW2 1074   0.093   1.438   0.684  1.3046  1.4901 -1.4695
  359SOL     OW 1075   2.746   0.341   2.787  0.0511  0.3611  0.7872
  359SOL    HW1 1076   2.844   0.351   2.813  0.0091  1.0037  0.9164
  359SOL    HW2 1077   2.732   0.364   2.691 -0.6800  0.7562  1.9853
  360SOL     OW 1078   1.373   1.035   1.118 -0.2027 -0.4758 -0.4989
  360SOL    HW1 1079   1.408   0.954   1.167 -1.9970  2.0953  0.4421
  360SOL    HW2 1080   1.350   1.108   1.185  0.9124 -2.2645  0.5259
  361SOL     OW 1081   2.573   2.589   1.378  0.4481 -0.0840  0.5296
  361SOL    HW1 1082   2.667   2.551   1.394 -0.0969  0.1912 -0.1033
  361SOL    HW2 1083   2.565   2.605   1.277  1.4707  0.1641 -0.7651
  362SOL     OW 1084   1.134   0.564   0.833  0.0628 -0.0629 -0.4643
  362SOL    HW1 1085   1.097   0.475   0.866  0.8234  0.5607  1.0425
  362SOL    HW2 1086   1.060   0.616   0.779  0.7026  1.1575 -2.7407
  363SOL     OW 1087   1.916   1.854   0.626 -0.1190  0.6922 -0.1908
  363SOL    HW1 1088   1.986   1.792   0.586  0.9777 -0.9672  0.0925
  363SOL    HW2 1089   1.884   1.920   0.557  0.6848  0.4968 -3.5778
  364SOL     OW 1090   0.527   0.486   1.377 -0.3873  0.2244  0.1417
  364SOL    HW1 1091   0.525   0.412   1.305 -0.9265 -0.9749  0.3353
  364SOL    HW2 1092   0.578   0.569   1.342  1.2577  0.5387  0.1395
  365SOL     OW 1093   0.260   0.200   1.092 -0.6718 -0.5145  0.1315
  365SOL    HW1 1094   0.194   0.179   1.165  2.6324 -0.0721  0.3066
  365SOL    HW2 1095   0.222   0.261   1.021  1.9245 -2.0481 -0.1907
  366SOL     OW 1096   2.836   1.359   0.189  0.2014  0.3007 -0.0358
  366SOL    HW1 1097   2.736   1.343   0.217 -3.1253 -0.7325  2.3357
  366SOL    HW2 1098   2.859   1.450   0.167 -0.2693 -0.6288 -1.0195
  367SOL     OW 1099   2.264   2.404   2.623 -0.3348 -0.6284 -0.3192
  367SOL    HW1 1100   2.255   2.502   2.659  0.2260 -0.6788  1.0634
  367SOL    HW2 1101   2.337   2.357   2.679 -1.5163 -0.0600  0.2497
  368SOL     OW 1102   2.241   1.837   0.769 -0.0161  0.2020  0.1504
  368SOL    HW1 1103   2.248   1.910   0.696 -3.0774  1.9936 -0.8059
  368SOL    HW2 1104   2.161   1.770   0.762 -2.0412 -2.7694  4.0386
  369SOL     OW 1105   1.933   0.565   2.591 -0.8414 -0.3487 -0.2853
  369SOL    HW1 1106   2.016   0.618   2.630  1.3552  3.2618  0.4820
  369SOL    HW2 1107   1.847   0.609   2.630 -1.0223  0.0180  1.3903
  370SOL     OW 1108   0.503   0.297   1.151 -0.0970 -0.0831 -0.1339
  370SOL    HW1 1109   0.412   0.253   1.130 -0.2358 -1.4393  0.4240
  370SOL    HW2 1110   0.581   0.265   1.101 -1.3807 -0.1533  2.4479
  371SOL     OW 1111   2.972   1.409   2.953  0.2102  0.1539  0.0593
  371SOL    HW1 1112   3.016   1.379   2.865 -1.3655 -1.1538  0.4247
  371SOL    HW2 1113   2.992   1.505   2.980 -0.5383  2.0728 -1.1457
  372SOL     OW 1114   0.590   0.567   2.240 -0.0278 -0.2596  0.1179
  372SOL    HW1 1115   0.650   0.591   2.162 -0.1959  1.0228  0.6704
  372SOL    HW2 1116   0.591   0.649   2.302  2.1033 -0.2684  3.5835
  373SOL     OW 1117   0.693   2.903   0.124 -0.1385 -0.1574  0.1562
  373SOL    HW1 1118   0.745   2.944   0.204  1.2582  4.5165  1.1816
  373SOL    HW2 1119   0.594   2.908   0.129  1.1068  2.6141  0.1908
  374SOL     OW 1120   0.871   1.367   2.919  0.3778  0.4652 -0.0626
  374SOL    HW1 1121   0.971   1.346   2.925 -2.7029 -1.3153  2.5554
  374SOL    HW2 1122   0.815   1.282   2.930 -0.7547 -0.8636  0.4688
  375SOL     OW 1123   1.030   0.470   1.950 -0.4087  0.3760 -0.4292
  375SOL    HW1 1124   1.045   0.476   1.849  2.1460  1.4158 -0.1648
  375SOL    HW2 1125   1.024   0.381   1.989 -1.5463  0.9782 -2.2159
  376SOL     OW 1126   0.347   2.709   1.934 -0.3514 -0.2319  0.7667
  376SOL    HW1 1127   0.312   2.728   2.029  0.8643  0.5128  2.2137
  376SOL    HW2 1128   0.416   2.639   1.935 -2.0600  4.6829  0.7180
  377SOL     OW 1129   2.693   2.074   2.834 -0.0825 -0.5712 -0.0643
  377SOL    HW1 1130   2.656   2.097   2.742  0.9713 -2.1944 -0.9995
  377SOL    HW2 1131   2.639   1.993   2.872 -4.4303 -1.3307 -0.4039
  378SOL     OW 1132   2.038   0.214   0.321  0.0083  0.5170  0.1927
  378SOL    HW1 1133   2.066   0.121   0.346  2.0401  1.8771 -0.1159
  378SOL    HW2 1134   2.110   0.267   0.276  0.1008  0.6750  1.8647
  379SOL     OW 1135   1.637   0.594   0.381 -0.7450  0.2801 -0.0948
  379SOL    HW1 1136   1.686   0.627   0.467  4.2608  1.9963  0.9033
  379SOL    HW2 1137   1.708   0.567   0.309 -2.2593  2.3302  1.6787
  380SOL     OW 1138   2.510   2.064   1.986  0.1704  0.3387 -0.4952
  380SOL    HW1 1139   2.500   2.163   1.965  0.6341 -0.3631 -0.2272
  380SOL    HW2 1140   2.487   2.000   1.913 -0.3786  3.0835  2.0062
  381SOL     OW 1141   2.383   1.395   2.114 -0.8332  0.5951  0.0013
  381SOL    HW1 1142   2.321   1.394   2.030 -0.4840  1.6306 -0.7242
  381SOL    HW2 1143   2.352   1.332   2.192  0.8863 -1.3029  1.9741
  382SOL     OW 1144   2.897   2.329   2.671 -0.2538 -0.0426  0.2769
  382SOL    HW1 1145   2.963   2.258   2.699  1.2522  1.0171  0.3123
  382SOL    HW2 1146   2.933   2.424   2.665  0.5855  1.8336  1.5217
  383SOL     OW 1147   1.010   1.102   3.024  0.2571 -0.6070  0.0826
  383SOL    HW1 1148   0.977   1.074   0.051 -0.8130 -1.9210  1.7030
  383SOL    HW2 1149   1.040   1.198   3.031  0.5298 -3.0383  1.5912
  384SOL     OW 1150   1.567   1.795   2.490 -0.4051 -0.3473 -0.4027
  384SOL    HW1 1151   1.575   1.895   2.479  0.9689 -0.2272  0.0155
  384SOL    HW2 1152   1.565   1.749   2.396 -1.6864 -3.7671 -2.7290
  385SOL     OW 1153   1.723   2.767   0.405  0.3084 -0.3867  0.1453
  385SOL    HW1 1154   1.630   2.775   0.445 -2.5850  0.2902 -0.0794
  385SOL    HW2 1155   1.738   2.667   0.393 -1.1527  1.1008 -0.9552
  386SOL     OW 1156   1.859   1.310   0.571  0.4528  0.2467 -0.3572
  386SOL    HW1 1157   1.801   1.227   0.584 -2.0732 -1.1808 -0.9720
  386SOL    HW2 1158   1.824   1.365   0.493  0.2504  0.9186  2.1976
  387SOL     OW 1159   2.722   1.840   1.324  0.4437  0.3645 -0.0984
  387SOL    HW1 1160   2.638   1.833   1.381  1.0443 -1.0410  0.5304
  387SOL    HW2 1161   2.767   1.754   1.299  0.7839  2.5995  0.7954
  388SOL     OW 1162   0.121   1.031   1.504 -0.4563  0.1886  0.4907
  388SOL    HW1 1163   0.136   1.133   1.522  1.0158  0.9743  0.2723
  388SOL    HW2 1164   0.029   1.010   1.472  2.3288  2.1091  1.3663
  389SOL     OW 1165   2.238   0.901   2.826  0.4442  0.0455  0.5310
  389SOL    HW1 1166   2.298   0.874   2.911  0.3570  0.0932  2.7584
  389SOL    HW2 1167   2.175   0.976   2.847 -0.5939  0.5441 -2.2130
  390SOL     OW 1168   0.744   1.522   2.751 -0.3069  0.5481  0.1369
  390SOL    HW1 1169   0.793   1.468   2.827  1.2041 -2.0709  3.0985
  390SOL    HW2 1170   0.739   1.619   2.777 -0.5600  0.5538  1.5957
  391SOL     OW 1171   0.906   2.153   0.263 -0.5309  0.3362 -0.4926
  391SOL    HW1 1172   0.846   2.194   0.199  4.5403 -0.1471  1.3297
  391SOL    HW2 1173   0.991   2.211   0.272  0.9815 -0.7355 -1.6535
  392SOL     OW 1174   0.018   2.578   2.267 -0.0643  0.1395 -0.3854
  392SOL    HW1 1175   3.034   2.529   2.194  3.2427  0.2051  1.9351
  392SOL    HW2 1176   3.028   2.606   2.345  1.9518  0.0978 -2.0759
  393SOL     OW 1177   1.427   2.188   0.425  0.0038  0.0564  0.9628
  393SOL    HW1 1178   1.469   2.117   0.487  2.5079 -0.3024  0.3452
  393SOL    HW2 1179   1.476   2.190   0.335 -1.1131 -0.9992  1.0877
  394SOL     OW 1180   0.634   0.128   2.381  0.0248  0.6490 -0.4003
  394SOL    HW1 1181   0.590   0.194   2.445  1.9613 -3.5620 -0.8504
  394SOL    HW2 1182   0.654   0.182   2.295 -0.0405  2.6092 -3.2085
  395SOL     OW 1183   0.519   1.555   1.373 -0.0563 -0.2370 -0.3439
  395SOL    HW1 1184   0.614   1.592   1.383  1.6687  0.7058 -3.0672
  395SOL    HW2 1185   0.495   1.554   1.272 -2.1731 -1.6347  0.3983
  396SOL     OW 1186   1.979   1.380   2.786  0.3077 -0.1213  0.5838
  396SOL    HW1 1187   2.007   1.280   2.775  1.1977 -2.9395 -0.5758
  396SOL    HW2 1188   1.965   1.436   2.698  1.4465  1.8670 -0.9129
  397SOL     OW 1189   0.130   0.613   2.835 -0.8702 -0.5618  0.3072
  397SOL    HW1 1190   0.093   0.583   2.930  0.6898  0.5587  2.2205
  397SOL    HW2 1191   0.116   0.714   2.822 -3.3893  1.7732  0.5779
  398SOL     OW 1192   0.952   2.581   0.244  0.1078  0.5204 -0.3390
  398SOL    HW1 1193   0.945   2.654   0.181 -1.0971 -1.3022  2.7298
  398SOL    HW2 1194   0.998   2.497   0.205  0.9806 -1.7170 -0.7802
  399SOL     OW 1195   1.865   2.447   2.178  0.7327 -0.0191  1.0180
  399SOL    HW1 1196   1.920   2.427   2.093  1.9563 -0.6755 -0.3183
  399SOL    HW2 1197   1.924   2.449   2.255  0.2729 -1.2434 -0.6545
  400SOL     OW 1198   2.536   1.373   1.400 -0.3387 -0.7236  0.6849
  400SOL    HW1 1199   2.557   1.386   1.498 -1.9265 -1.0677  0.0872
  400SOL    HW2 1200   2.611   1.332   1.340  2.0109 -0.9020  1.3398
  401SOL     OW 1201   1.752   0.956   0.919 -0.0185 -0.4444 -0.1012
  401SOL    HW1 1202   1.703   0.900   0.849 -0.1553  2.1614  2.1336
  401SOL    HW2 1203   1.725   0.928   1.009  1.7780  1.4509 -1.2651
  402SOL     OW 1204   0.252   2.971   2.366  0.1798 -0.2853  0.9313
  402SOL    HW1 1205   0.291   3.067   2.356 -1.2981  0.6281 -0.8603
  402SOL    HW2 1206   0.326   2.907   2.386 -0.5911  2.4304 -1.4444
  403SOL     OW 1207   2.721   1.602   1.614 -0.5335  0.8604 -0.5736
  403SOL    HW1 1208   2.734   1.504   1.642  1.0508  0.8793 -1.2578
  403SOL    HW2 1209   2.634   1.627   1.565  2.1815 -1.9919 -1.5047
  404SOL     OW 1210   2.448   1.862   1.777  0.2336 -0.5706 -0.4008
  404SOL    HW1 1211   2.353   1.899   1.786 -0.5948  1.0519 -0.0783
  404SOL    HW2 1212   2.459   1.826   1.682  1.1062 -1.0217  2.1337
  405SOL     OW 1213   2.130   0.234   2.421 -0.1126  0.3523 -0.3036
  405SOL    HW1 1214   2.082   0.294   2.353  0.8019 -0.0468  0.0942
  405SOL    HW2 1215   2.225   0.270   2.435 -0.8899 -1.0303 -1.1900
  406SOL     OW 1216   0.907   1.329   2.594 -0.3404  0.1644 -0.6849
  406SOL    HW1 1217   0.924   1.248   2.652 -3.4390  2.0503  0.6945
  406SOL    HW2 1218   0.857   1.405   2.635  0.0943  0.7434 -1.7723
  407SOL     OW 1219   1.959   2.228   0.796 -0.0025  0.2153  0.4298
  407SOL    HW1 1220   1.986   2.217   0.698  3.7688 -0.5764 -1.5376
  407SOL    HW2 1221   2.006   2.307   0.830 -4.1867 -2.2139 -1.8734
  408SOL     OW 1222   0.163   3.042   0.914  0.0750  0.8166 -0.1827
  408SOL    HW1 1223   0.128   3.020   1.008 -0.6949 -4.2737  1.0764
  408SOL    HW2 1224   0.087   3.049   0.848 -2.3583  1.7837 -0.6683
  409SOL     OW 1225   2.007   1.484   0.710 -0.5174  0.1042 -0.1321
  409SOL    HW1 1226   2.020   1.430   0.797  0.8186 -0.9922  2.0192
  409SOL    HW2 1227   1.955   1.425   0.645  1.8169 -0.0634  1.4953
  410SOL     OW 1228   2.192   2.386   3.053 -0.7324  0.8252  0.1157
  410SOL    HW1 1229   2.291   2.403   3.030  0.2008 -0.1580 -0.5382
  410SOL    HW2 1230   2.184   2.316   0.059  0.3991 -1.4288  1.9788
  411SOL     OW 1231   3.057   2.909   0.495 -0.3683 -0.4012  0.3532
  411SOL    HW1 1232   0.014   2.968   0.577 -0.8212  0.6899  1.6756
  411SOL    HW2 1233   2.985   2.957   0.441  0.8602  0.0672 -1.7049
  412SOL     OW 1234   1.398   2.660   0.744 -0.0884 -0.3205 -0.8258
  412SOL    HW1 1235   1.334   2.738   0.749  0.6657 -0.1353  0.4905
  412SOL    HW2 1236   1.453   2.651   0.825  0.1417  0.2957 -3.3750
  413SOL     OW 1237   1.692   0.096   2.601  0.1868  0.0167  0.4751
  413SOL    HW1 1238   1.685   0.056   2.506 -1.6049  0.0938 -1.8359
  413SOL    HW2 1239   1.771   0.161   2.599  1.3375  0.1468 -3.4885
  414SOL     OW 1240   0.430   0.622   0.545 -0.1701 -0.2805  0.0454
  414SOL    HW1 1241   0.478   0.554   0.490  0.1543 -0.8532  2.6488
  414SOL    HW2 1242   0.444   0.600   0.641 -0.9442  0.9890  0.5699
  415SOL     OW 1243   0.204   0.958   1.147 -0.1404  1.1153 -0.1493
  415SOL    HW1 1244   0.232   0.919   1.053 -0.6877  0.3134 -1.1401
  415SOL    HW2 1245   0.278   0.929   1.209  1.5822 -1.9939 -2.4665
  416SOL     OW 1246   0.352   0.147   0.015 -0.5194 -0.3168  0.1085
  416SOL    HW1 1247   0.391   0.220   0.073  1.8133  0.6632  2.2341
  416SOL    HW2 1248   0.262   0.107   0.053 -1.7259  2.4135 -1.0851
  417SOL     OW 1249   2.143   0.153   0.775 -0.2760 -0.2109  0.1757
  417SOL    HW1 1250   2.212   0.226   0.778 -2.2745  0.6828 -0.7198
  417SOL    HW2 1251   2.054   0.199   0.784  2.3496  2.7808  1.1618
  418SOL     OW 1252   0.504   0.416   2.493  0.3640  0.1842 -0.0780
  418SOL    HW1 1253   0.576   0.437   2.563  1.7267 -5.2075  0.4590
  418SOL    HW2 1254   0.529   0.456   2.403 -1.4634 -0.2205 -1.3143
  419SOL     OW 1255   0.547   0.879   0.509 -0.1458 -0.3815  0.1144
  419SOL    HW1 1256   0.477   0.805   0.514  1.9172  1.2242 -0.5988
  419SOL    HW2 1257   0.552   0.940   0.593  0.5769 -2.7017  1.7774
  420SOL     OW 1258   2.214   1.754   1.280 -0.0747 -0.1722 -0.0049
  420SOL    HW1 1259   2.241   1.849   1.262 -1.5918 -1.2758  2.4023
  420SOL    HW2 1260   2.298   1.696   1.278  0.5384  2.4094 -2.4560
  421SOL     OW 1261   1.142   1.737   2.497 -0.4106 -0.0859 -0.0424
  421SOL    HW1 1262   1.052   1.702   2.476  2.9823 -2.3392 -0.3117
  421SOL    HW2 1263   1.207   1.715   2.422  0.8015  0.8997  0.2655
  422SOL     OW 1264   2.573   0.630   0.053  0.3636  0.2805  0.4756
  422SOL    HW1 1265   2.589   0.577   0.141  0.1156 -1.6171  0.2534
  422SOL    HW2 1266   2.651   0.636   3.054 -1.7506 -0.5838  1.3191
  423SOL     OW 1267   1.798   2.084   0.462 -0.5407 -0.2176 -0.0128
  423SOL    HW1 1268   1.806   2.020   0.382 -0.7082  0.0105 -0.6762
  423SOL    HW2 1269   1.705   2.079   0.502 -0.2719  0.6975  0.3126
  424SOL     OW 1270   0.268   1.591   1.465  0.1583 -0.2990 -0.2726
  424SOL    HW1 1271   0.360   1.580   1.424 -1.6916 -1.4347 -1.8861
  424SOL    HW2 1272   0.210   1.509   1.446  1.3973  2.1550  0.2072
  425SOL     OW 1273   2.655   2.696   2.105  0.0264  0.4751  0.2707
  425SOL    HW1 1274   2.747   2.741   2.104 -1.5087  1.3377  0.1283
  425SOL    HW2 1275   2.665   2.595   2.083  0.3231 -0.8879 -1.2286
  426SOL     OW 1276   1.667   2.493   0.334 -0.2318 -0.3904 -0.4721
  426SOL    HW1 1277   1.617   2.497   0.251 -0.6872 -0.8399  0.5755
  426SOL    HW2 1278   1.608   2.490   0.419 -1.6352 -1.1374  1.6901
  427SOL     OW 1279   0.215   0.478   2.618  0.0271  0.8409  0.3566
  427SOL    HW1 1280   0.285   0.527   2.565  0.0261  0.7994  0.0649
  427SOL    HW2 1281   0.165   0.536   2.684  0.5115  1.8425 -1.5100
  428SOL     OW 1282   2.089   1.140   2.761 -0.5816 -0.3348  0.0930
  428SOL    HW1 1283   2.122   1.148   2.663  0.3882 -0.5087 -0.7533
  428SOL    HW2 1284   2.008   1.075   2.759 -0.7431  1.4387  1.5542
  429SOL     OW 1285   3.004   0.268   0.618 -0.3200  0.5108 -0.1640
  429SOL    HW1 1286   2.947   0.230   0.542 -2.9759  0.2717 -0.6341
  429SOL    HW2 1287   2.954   0.282   0.704  1.2030  2.4999 -1.1376
  430SOL     OW 1288   1.065   2.779   1.983  0.2333 -0.2961  0.2567
  430SOL    HW1 1289   0.994   2.772   2.057 -2.2927  0.7743 -2.6821
  430SOL    HW2 1290   1.120   2.693   1.968 -1.4713  0.9834 -2.6269
  431SOL     OW 1291   0.080   1.912   1.076 -0.0199 -0.0608 -0.1856
  431SOL    HW1 1292   3.053   1.896   1.046  1.0797  1.1595 -1.6334
  431SOL    HW2 1293   0.083   1.903   1.177  0.0258  0.8452  0.5246
  432SOL     OW 1294   2.416   2.776   2.056  0.6859  0.1268  0.0340
  432SOL    HW1 1295   2.509   2.753   2.092  1.6019 -1.3883  2.6802
  432SOL    HW2 1296   2.396   2.876   2.071  1.3376  0.8516  1.2340
  433SOL     OW 1297   1.079   1.971   0.065  0.5978 -0.3579 -0.4557
  433SOL    HW1 1298   1.164   2.027   0.068  2.2051 -1.6067 -0.9082
  433SOL    HW2 1299   1.062   1.931   0.158  2.8715 -3.1225 -1.0286
  434SOL     OW 1300   0.153   2.399   2.592  0.0169 -0.1494 -0.7081
  434SOL    HW1 1301   0.118   2.317   2.548 -0.2345  2.1319  0.1826
  434SOL    HW2 1302   0.176   2.382   2.690  1.6898  0.0530  3.8831
  435SOL     OW 1303   0.090   1.105   0.578  0.2858  0.3573 -0.5395
  435SOL    HW1 1304   0.093   1.125   0.477 -0.0115  3.5977  0.1117
  435SOL    HW2 1305   0.031   1.023   0.591 -0.3483  1.1414 -0.0108
  436SOL     OW 1306   0.778   2.549   2.007  0.9478 -0.4440 -0.2002
  436SOL    HW1 1307   0.738   2.615   1.941  0.7928 -0.6400 -0.4086
  436SOL    HW2 1308   0.811   2.466   1.960  0.7710 -1.1052  1.4029
  437SOL     OW 1309   1.206   2.036   1.444 -0.0628  0.3220  0.1158
  437SOL    HW1 1310   1.239   2.109   1.381 -1.1936 -0.8111 -1.7191
  437SOL    HW2 1311   1.286   1.994   1.499  1.3858  0.1424  1.4591
  438SOL     OW 1312   0.240   2.287   0.537  0.0930  0.0284  0.7748
  438SOL    HW1 1313   0.263   2.330   0.446  0.6442  0.0320 -1.9652
  438SOL    HW2 1314   0.229   2.184   0.528  0.7559 -1.5328  0.0473
  439SOL     OW 1315   0.406   0.009   1.409  0.2250 -0.3577  0.3572
  439SOL    HW1 1316   0.397   3.050   1.313 -1.1258  1.0179 -0.4158
  439SOL    HW2 1317   0.361   3.000   1.463  0.1179  1.7339  0.6150
  440SOL     OW 1318   2.664   2.566   2.477  0.1421  0.6703 -0.3984
  440SOL    HW1 1319   2.657   2.526   2.575 -0.4787 -2.5506 -0.8565
  440SOL    HW2 1320   2.632   2.487   2.414 -1.6604 -2.9827  0.2693
  441SOL     OW 1321   3.011   0.331   1.741  0.2233 -0.9696  0.4360
  441SOL    HW1 1322   2.950   0.324   1.657 -0.5748 -0.8852 -3.3466
  441SOL    HW2 1323   0.044   0.325   1.714  2.6209 -0.3448  1.3116
  442SOL     OW 1324   1.860   2.282   3.047  0.2866 -0.2590  0.1399
  442SOL    HW1 1325   1.903   2.315   0.067 -1.3769 -1.3419 -0.7559
  442SOL    HW2 1326   1.777   2.333   3.029 -0.2101 -2.2498  0.6604
  443SOL     OW 1327   0.034   0.872   2.840 -0.1281 -0.1839 -0.2024
  443SOL    HW1 1328   0.076   0.917   2.924 -0.8074 -2.6434 -0.4384
  443SOL    HW2 1329   0.040   0.935   2.763  1.2197 -1.6847 -0.9979
  444SOL     OW 1330   1.591   1.310   2.290  0.2245  0.3917  0.2639
  444SOL    HW1 1331   1.565   1.218   2.251  0.4558 -0.2373  0.2102
  444SOL    HW2 1332   1.600   1.382   2.219  1.6093 -2.7987 -1.0390
  445SOL     OW 1333   0.146   2.484   1.106 -0.3501  0.2670 -0.3795
  445SOL    HW1 1334   0.055   2.521   1.124  2.7444  1.5365  2.1090
  445SOL    HW2 1335   0.180   2.520   1.016 -2.1604  1.1188 -1.2064
  446SOL     OW 1336   2.846   1.637   1.200  0.4583  0.2258 -0.3495
  446SOL    HW1 1337   2.807   1.544   1.222  1.6091 -2.0583 -0.8711
  446SOL    HW2 1338   2.845   1.654   1.102  1.3669  0.5615  4.3162
  447SOL     OW 1339   0.225   0.779   0.508  0.3323  0.1333 -0.3414
  447SOL    HW1 1340   0.255   0.864   0.452  0.0303  0.5925  1.1627
  447SOL    HW2 1341   0.301   0.715   0.517 -1.9308  2.5861 -1.2721
  448SOL     OW 1342   1.305   2.091   1.908 -0.0556  0.1321 -0.7448
  448SOL    HW1 1343   1.365   2.130   1.831 -0.2124  2.2997 -0.0881
  448SOL    HW2 1344   1.362   2.050   1.983  0.5116 -0.6077 -0.6039
  449SOL     OW 1345   0.939   1.419   0.264  1.1591 -0.9081  0.0684
  449SOL    HW1 1346   0.892   1.337   0.307  0.7583  0.3184  1.2958
  449SOL    HW2 1347   1.024   1.389   0.215  3.6932 -1.7126 -0.0257
  450SOL     OW 1348   0.001   2.306   1.851 -0.0573  0.1029 -0.3731
  450SOL    HW1 1349   0.037   2.210   1.869  2.4945 -0.8042  1.3821
  450SOL    HW2 1350   2.971   2.309   1.824  0.7877  1.0780  0.5218
  451SOL     OW 1351   2.394   0.895   2.612  0.6851 -0.1290 -0.3989
  451SOL    HW1 1352   2.332   0.904   2.696 -1.7356 -1.1344 -0.7623
  451SOL    HW2 1353   2.484   0.852   2.634 -1.0282 -0.2607  0.2640
  452SOL     OW 1354   1.704   0.562   0.986 -0.5711  0.1540  0.5973
  452SOL    HW1 1355   1.674   0.636   0.921  1.1722  0.5198 -2.9874
  452SOL    HW2 1356   1.777   0.608   1.044 -0.4839  0.7040  1.5077
  453SOL     OW 1357   1.690   0.907   1.165  0.5784 -0.0926  0.4634
  453SOL    HW1 1358   1.602   0.862   1.197 -0.3032 -1.6455  0.1331
  453SOL    HW2 1359   1.712   0.983   1.227  0.7185 -0.1834  2.1140
  454SOL     OW 1360   2.983   1.224   0.383  0.2477 -0.4888 -0.0269
  454SOL    HW1 1361   2.925   1.241   0.466 -2.8189 -0.0638  0.5172
  454SOL    HW2 1362   2.939   1.283   0.308  0.3428 -1.4438 -0.7346
  455SOL     OW 1363   2.338   2.656   1.508 -0.1489  0.3795  0.1086
  455SOL    HW1 1364   2.303   2.741   1.472  0.3577 -2.2248  0.5817
  455SOL    HW2 1365   2.432   2.638   1.471  1.2734 -0.1443  0.2310
  456SOL     OW 1366   0.147   2.794   1.374  0.3966  0.3587  0.3676
  456SOL    HW1 1367   0.201   2.806   1.459 -0.7417 -0.6793  1.2567
  456SOL    HW2 1368   0.054   2.756   1.387  1.9253 -0.9660 -0.4016
  457SOL     OW 1369   1.210   2.861   0.704  0.6429  0.1326  0.1016
  457SOL    HW1 1370   1.220   2.942   0.642 -0.2721 -0.9712 -1.4739
  457SOL    HW2 1371   1.130   2.867   0.769 -1.6197  0.1453  3.2526
  458SOL     OW 1372   2.507   2.870   1.230  0.2501 -0.4523  0.2759
  458SOL    HW1 1373   2.569   2.892   1.311 -0.8550  1.2491  1.9282
  458SOL    HW2 1374   2.436   2.804   1.259  1.4532 -2.5707  1.0018
  459SOL     OW 1375   2.583   0.365   2.983  0.2055 -0.4413 -0.6462
  459SOL    HW1 1376   2.558   0.462   2.995  2.0991 -2.0455  0.7276
  459SOL    HW2 1377   2.635   0.345   2.901 -2.8824 -0.2165  1.2773
  460SOL     OW 1378   2.451   2.428   3.016  0.3007 -0.2932  0.0159
  460SOL    HW1 1379   2.432   2.526   3.002  0.5190 -2.0414  2.5131
  460SOL    HW2 1380   2.535   2.414   0.005  2.4073 -0.3070  0.4747
  461SOL     OW 1381   0.745   1.718   0.381  0.1229  0.3661  0.6534
  461SOL    HW1 1382   0.802   1.750   0.304  0.8208 -0.9441 -1.4216
  461SOL    HW2 1383   0.731   1.619   0.365 -2.2450  1.7646 -0.9419
  462SOL     OW 1384   2.086   2.123   1.096  0.7137  0.1016 -0.1330
  462SOL    HW1 1385   2.022   2.199   1.085  3.2602 -1.3972  1.7374
  462SOL    HW2 1386   2.172   2.156   1.059  0.6129 -1.3607  1.5547
  463SOL     OW 1387   2.568   1.088   0.852  0.2052  0.1768 -0.0365
  463SOL    HW1 1388   2.590   1.011   0.784 -1.4568 -0.5830 -0.4379
  463SOL    HW2 1389   2.471   1.131   0.837 -3.2453 -0.5182  0.8997
  464SOL     OW 1390   0.995   2.914   0.864  0.1885  0.2983 -0.4874
  464SOL    HW1 1391   0.951   2.930   0.777 -0.6842  1.2224 -1.0510
  464SOL    HW2 1392   0.929   2.856   0.914  1.4920 -0.8312 -0.9380
  465SOL     OW 1393   2.226   1.453   0.298 -0.2735 -0.0703 -0.1516
  465SOL    HW1 1394   2.141   1.492   0.260 -1.9040  0.5993 -1.6754
  465SOL    HW2 1395   2.299   1.524   0.278  2.5358  1.1301 -1.4454
  466SOL     OW 1396   2.171   0.132   2.881  0.6050 -0.6400  0.4663
  466SOL    HW1 1397   2.145   0.210   2.822  0.7978 -1.3907  0.2681
  466SOL    HW2 1398   2.099   0.060   2.869 -0.9462 -1.7257  0.7985
  467SOL     OW 1399   1.136   1.048   1.495  0.5998 -0.2329  0.3222
  467SOL    HW1 1400   1.108   0.959   1.453  1.7104  0.1248 -0.2420
  467SOL    HW2 1401   1.056   1.112   1.516  0.2741  0.7983  2.4630
  468SOL     OW 1402   0.500   1.034   2.399  0.4166 -0.3047  0.1875
  468SOL    HW1 1403   0.405   1.077   2.390 -2.5570 -0.1699  0.6234
  468SOL    HW2 1404   0.533   1.067   2.488 -0.1918 -2.1077  0.0929
  469SOL     OW 1405   0.534   2.180   0.178  0.5071 -0.0753  0.1539
  469SOL    HW1 1406   0.607   2.251   0.198 -0.8616 -0.7319  1.4536
  469SOL    HW2 1407   0.554   2.088   0.218 -2.5035  0.9506 -1.9841
  470SOL     OW 1408   2.516   1.316   2.928  0.2180  0.1893 -0.1380
  470SOL    HW1 1409   2.519   1.220   2.956  2.4716 -1.9319  3.4443
  470SOL    HW2 1410   2.586   1.376   2.961 -3.5515 -0.3624 -2.7139
  471SOL     OW 1411   2.512   1.079   2.197 -0.3515 -0.1267 -0.3893
  471SOL    HW1 1412   2.609   1.114   2.197  0.4158  0.7317 -2.2544
  471SOL    HW2 1413   2.479   1.086   2.101 -1.2564 -2.3126 -0.0734
  472SOL     OW 1414   0.401   2.749   0.689 -0.1154  0.2436  0.4550
  472SOL    HW1 1415   0.445   2.660   0.703 -1.5792 -0.8094 -1.1764
  472SOL    HW2 1416   0.369   2.751   0.589 -1.3798  0.9402 -0.7772
  473SOL     OW 1417   0.533   0.185   2.893  0.0471  0.2434 -0.4555
  473SOL    HW1 1418   0.468   0.154   2.962 -0.2072  2.1752  0.3967
  473SOL    HW2 1419   0.488   0.210   2.805  0.3069 -0.1408 -0.4685
  474SOL     OW 1420   1.781   0.395   1.991  0.1160 -0.1753  0.0678
  474SOL    HW1 1421   1.813   0.415   1.898  1.1169 -0.7383 -0.9668
  474SOL    HW2 1422   1.702   0.332   1.987  2.8895  1.3679  2.1911
  475SOL     OW 1423   1.128   2.304   0.236  0.4230 -0.1865 -0.2639
  475SOL    HW1 1424   1.176   2.255   0.162 -0.6647  0.5452  1.5818
  475SOL    HW2 1425   1.198   2.364   0.278 -0.1599  2.3447  0.5990
  476SOL     OW 1426   0.567   1.033   0.735 -0.5615  0.3489  0.6811
  476SOL    HW1 1427   0.615   0.981   0.806  1.1522  0.9069 -1.1901
  476SOL    HW2 1428   0.465   1.017   0.738 -2.0229  0.3124  0.0259
  477SOL     OW 1429   1.712   2.497   1.418  0.2964 -0.1241 -0.2367
  477SOL    HW1 1430   1.623   2.461   1.458 -1.9774 -0.0285  0.5932
  477SOL    HW2 1431   1.692   2.519   1.324  0.6232  0.3454  1.5247
  478SOL     OW 1432   0.573   1.581   2.334 -0.1483  0.1509  0.1966
  478SOL    HW1 1433   0.635   1.531   2.265  2.6553 -1.2929 -2.3067
  478SOL    HW2 1434   0.573   1.526   2.420  0.2929  0.3042  0.1364
  479SOL     OW 1435   2.947   0.075   1.085 -0.3046 -0.4199  0.3781
  479SOL    HW1 1436   3.026   0.064   1.147  1.6143 -0.5950 -1.9515
  479SOL    HW2 1437   2.963   0.148   1.014 -1.2264 -0.7212 -2.2372
  480SOL     OW 1438   2.824   2.974   0.396  0.0909 -0.2354  0.2581
  480SOL    HW1 1439   2.762   2.962   0.479  1.2006  2.7525  2.8634
  480SOL    HW2 1440   2.788   2.927   0.309 -1.2353 -1.8479 -0.9018
  481SOL     OW 1441   2.687   2.795   1.013 -0.3046  0.2575  0.3820
  481SOL    HW1 1442   2.669   2.694   1.022  2.7374  2.0648 -1.9543
  481SOL    HW2 1443   2.624   2.853   1.064  0.3531  2.1375 -2.1143
  482SOL     OW 1444   1.229   2.457   2.216  0.1124 -0.4043  0.0346
  482SOL    HW1 1445   1.144   2.404   2.189  1.2546  0.4762 -0.3574
  482SOL    HW2 1446   1.312   2.400   2.194 -0.8826  1.1576  0.2701
  483SOL     OW 1447   0.415   1.712   2.562  0.3229 -0.0474  0.3418
  483SOL    HW1 1448   0.500   1.706   2.616 -1.5808 -1.5609 -2.1565
  483SOL    HW2 1449   0.393   1.807   2.545 -0.0358  0.4883 -1.2174
  484SOL     OW 1450   0.963   1.140   2.296  0.3726  0.1159  0.2523
  484SOL    HW1 1451   0.868   1.177   2.274  0.0853  0.7039  0.7393
  484SOL    HW2 1452   1.021   1.222   2.323  0.6601 -1.1259  0.4863
  485SOL     OW 1453   2.716   0.329   0.538 -0.1495 -0.2665  0.0473
  485SOL    HW1 1454   2.635   0.268   0.553 -0.4743 -2.2703 -2.3091
  485SOL    HW2 1455   2.781   0.278   0.481 -0.3758 -0.4105  0.6667
  486SOL     OW 1456   1.604   2.953   0.947 -0.5805 -0.0457  0.7726
  486SOL    HW1 1457   1.670   3.023   0.985  2.1147  0.9323  0.7060
  486SOL    HW2 1458   1.592   2.954   0.844  1.6716 -1.2354  1.1110
  487SOL     OW 1459   0.562   2.263   0.973 -0.6870  0.0649 -0.1496
  487SOL    HW1 1460   0.666   2.249   0.970  4.0093 -0.3631 -0.1658
  487SOL    HW2 1461   0.546   2.356   0.933  1.5810 -0.3754  1.9496
  488SOL     OW 1462   2.357   1.268   0.141  0.0189 -0.2017  0.4277
  488SOL    HW1 1463   2.293   1.327   0.199 -0.6502  0.3119 -0.1234
  488SOL    HW2 1464   2.316   1.259   0.047  1.2561  1.3640 -1.1974
  489SOL     OW 1465   1.373   2.989   1.074 -0.2093 -0.6356  0.1809
  489SOL    HW1 1466   1.390   3.040   1.161  0.9206  0.1564  0.4883
  489SOL    HW2 1467   1.459   2.951   1.036 -1.9187 -0.5352  0.4783
  490SOL     OW 1468   0.956   1.032   0.214  0.4955 -0.1244  0.7903
  490SOL    HW1 1469   1.028   1.019   0.279 -3.8651 -0.5288 -2.1625
  490SOL    HW2 1470   0.886   1.091   0.257 -0.1555  0.7292 -0.9855
  491SOL     OW 1471   0.733   2.813   0.950 -0.0792  0.1207  0.1124
  491SOL    HW1 1472   0.728   2.871   1.037 -0.0513  2.9837  2.0733
  491SOL    HW2 1473   0.666   2.740   0.951 -0.2526 -1.9501  0.9424
  492SOL     OW 1474   1.162   1.403   2.058  0.5231  0.1139  0.2028
  492SOL    HW1 1475   1.141   1.388   2.158 -0.7007  2.5212  0.0468
  492SOL    HW2 1476   1.244   1.461   2.039  0.4649  2.3929  0.0380
  493SOL     OW 1477   0.101   2.462   0.699 -0.2072  0.0548 -0.3984
  493SOL    HW1 1478   0.138   2.378   0.655  1.6111 -1.1122  1.2796
  493SOL    HW2 1479   0.083   2.536   0.633 -0.2601 -0.0665 -0.9418
  494SOL     OW 1480   2.534   1.862   2.969 -0.1579  0.4275 -0.0812
  494SOL    HW1 1481   2.444   1.921   2.977 -3.7262  3.4515  0.0246
  494SOL    HW2 1482   2.519   1.763   2.991  0.7058  1.5176  0.0555
  495SOL     OW 1483   2.711   1.485   2.960 -0.0712  0.0837  0.2636
  495SOL    HW1 1484   2.695   1.536   2.871  0.1882  1.5614  1.6142
  495SOL    HW2 1485   2.804   1.443   2.966  0.2599 -2.2203  0.1934
  496SOL     OW 1486   2.645   2.959   1.639  0.1355 -0.1912  0.2820
  496SOL    HW1 1487   2.543   2.974   1.648 -1.6971 -0.4270 -2.1904
  496SOL    HW2 1488   2.674   2.910   1.720 -3.2498 -0.2611 -1.6673
  497SOL     OW 1489   2.520   1.214   0.501 -0.1128  0.0831  0.4994
  497SOL    HW1 1490   2.501   1.115   0.494 -0.4716 -1.2511 -1.8110
  497SOL    HW2 1491   2.440   1.254   0.544  0.3585 -1.9439  1.1318
  498SOL     OW 1492   0.046   2.202   2.382 -0.1729 -0.1685  0.1285
  498SOL    HW1 1493   0.091   2.194   2.291 -1.4662 -0.2979 -0.9394
  498SOL    HW2 1494   3.016   2.193   2.372  2.4888  0.3720  0.3515
  499SOL     OW 1495   0.990   1.901   0.331 -0.1233  0.5355  0.2403
  499SOL    HW1 1496   1.011   1.895   0.431  0.2845  0.8182  0.3365
  499SOL    HW2 1497   0.986   2.003   0.319 -0.4140  0.3450  3.0039
  500SOL     OW 1498   0.981   2.965   2.615  0.4978 -0.5011 -0.4926
  500SOL    HW1 1499   0.992   3.048   2.673  0.7800 -1.0316  1.0720
  500SOL    HW2 1500   0.923   2.902   2.667  1.1004  1.5847  0.4434
  501SOL     OW 1501   1.258   0.175   1.233  0.2992 -0.0515  0.3730
  501SOL    HW1 1502   1.344   0.148   1.282 -0.2139 -1.0344 -0.9360
  501SOL    HW2 1503   1.270   0.245   1.160  0.0255 -0.6485  0.1955
  502SOL     OW 1504   2.996   0.273   2.283 -0.0546 -0.0781 -0.2142
  502SOL    HW1 1505   0.003   0.294   2.350 -0.9424 -1.7420 -1.1296
  502SOL    HW2 1506   3.039   0.238   2.196  0.6832 -0.2904 -2.7733
  503SOL     OW 1507   2.132   2.038   2.417 -0.2002 -0.0493  0.3158
  503SOL    HW1 1508   2.111   2.124   2.366  1.3338  4.9356  2.4023
  503SOL    HW2 1509   2.111   2.049   2.514 -1.2291  1.1404  0.3009
  504SOL     OW 1510   1.362   0.495   1.855 -0.4119 -0.3242  0.5945
  504SOL    HW1 1511   1.388   0.440   1.936 -0.5877  1.2362 -3.2659
  504SOL    HW2 1512   1.428   0.472   1.781 -1.1525  0.8104  0.9318
  505SOL     OW 1513   2.894   0.806   1.383  0.0883  0.1289  0.6310
  505SOL    HW1 1514   2.897   0.902   1.419  2.6357 -1.2093  0.2503
  505SOL    HW2 1515   2.938   0.800   1.292 -3.1224 -1.2804  2.4324
  506SOL     OW 1516   0.466   1.226   2.094 -0.5542  0.2453 -0.2855
  506SOL    HW1 1517   0.462   1.325   2.097  0.6519 -0.4130  0.5447
  506SOL    HW2 1518   0.423   1.175   2.173 -1.3775  0.1149 -0.1999
  507SOL     OW 1519   0.472   2.788   2.373  0.1331 -0.5546 -0.5854
  507SOL    HW1 1520   0.505   2.852   2.443 -1.3592 -2.8413 -1.0770
  507SOL    HW2 1521   0.534   2.780   2.296  0.9271  1.5557  0.0900
  508SOL     OW 1522   1.470   0.791   1.259 -0.3199 -0.2585 -0.0694
  508SOL    HW1 1523   1.500   0.719   1.321  1.0994  0.9460  2.0736
  508SOL    HW2 1524   1.424   0.746   1.181  2.8980  2.6540 -0.9016
  509SOL     OW 1525   0.914   1.819   1.582  0.3077 -0.5012 -0.0601
  509SOL    HW1 1526   0.944   1.893   1.647  0.2170  1.3801  1.3356
  509SOL    HW2 1527   0.984   1.808   1.505 -0.3620  0.1140  0.9226
  510SOL     OW 1528   2.355   0.916   2.350  0.0388 -0.2428 -0.4433
  510SOL    HW1 1529   2.374   0.916   2.453  1.2457 -0.6327  1.2237
  510SOL    HW2 1530   2.419   0.973   2.298  0.9245  1.9001  1.8729
  511SOL     OW 1531   0.806   1.651   0.919 -0.3857  0.3963  0.3781
  511SOL    HW1 1532   0.798   1.673   0.820  0.9605  0.9668  0.6263
  511SOL    HW2 1533   0.780   1.725   0.979  0.1971 -0.6427  1.7024
  512SOL     OW 1534   2.520   2.129   0.568  0.7013 -1.0061  0.2164
  512SOL    HW1 1535   2.429   2.087   0.571  0.6885  0.5586  1.5849
  512SOL    HW2 1536   2.509   2.232   0.589  1.1015 -0.4604 -0.3665
  513SOL     OW 1537   2.656   1.569   2.712  0.8803  0.7738 -0.9112
  513SOL    HW1 1538   2.634   1.478   2.674  0.9817 -0.3198 -0.3953
  513SOL    HW2 1539   2.652   1.635   2.638 -2.3140 -0.0312 -1.2608
  514SOL     OW 1540   0.361   2.167   2.695  0.0495  0.1294 -0.1543
  514SOL    HW1 1541   0.304   2.113   2.757 -1.1683 -1.4989 -2.2094
  514SOL    HW2 1542   0.438   2.216   2.747  1.6586  0.2885  0.4074
  515SOL     OW 1543   1.866   1.619   2.057 -0.0183 -0.6021 -0.2996
  515SOL    HW1 1544   1.890   1.614   1.959 -1.9625  0.6911 -1.0835
  515SOL    HW2 1545   1.843   1.717   2.083 -1.7371 -2.9645 -2.4008
  516SOL     OW 1546   2.071   2.243   2.831  0.2818 -0.0805 -0.4517
  516SOL    HW1 1547   2.029   2.258   2.926 -0.0362 -0.1836  2.1622
  516SOL    HW2 1548   2.163   2.281   2.825  0.5920 -0.6589  1.5060
  517SOL     OW 1549   1.407   1.178   0.006  0.0565 -1.1404 -0.0198
  517SOL    HW1 1550   1.360   1.104   3.025  0.4214  1.7947  1.1866
  517SOL    HW2 1551   1.476   1.148   0.073  0.7740  0.1642  0.1446
  518SOL     OW 1552   2.662   0.012   2.312 -0.0993 -0.1399 -0.2100
  518SOL    HW1 1553   2.657   0.052   2.219  1.6827 -1.3923  1.5467
  518SOL    HW2 1554   2.571   0.017   2.359  1.7209  2.3384 -0.6841
  519SOL     OW 1555   1.838   2.092   2.012  0.0357  0.0468  0.3457
  519SOL    HW1 1556   1.788   2.181   2.028 -2.7990 -0.7071  0.7561
  519SOL    HW2 1557   1.938   2.106   1.990  1.7154  0.7814 -0.9010
  520SOL     OW 1558   2.740   3.008   2.612  0.0207  0.2596  0.0323
  520SOL    HW1 1559   2.787   3.003   2.704 -0.2286 -1.0886 -2.1742
  520SOL    HW2 1560   2.807   3.007   2.535  1.6424  1.8342 -2.2271
  521SOL     OW 1561   0.349   1.441   2.290  0.1636 -0.2790 -0.1354
  521SOL    HW1 1562   0.251   1.466   2.273  0.8541  2.6470 -0.6414
  521SOL    HW2 1563   0.414   1.514   2.312  1.9575  0.1812 -0.6779
  522SOL     OW 1564   0.990   0.168   1.641 -0.1332 -0.7545 -0.7558
  522SOL    HW1 1565   1.086   0.166   1.677 -3.1570  1.3238 -2.4394
  522SOL    HW2 1566   0.952   0.265   1.634 -0.6275  0.3144 -0.2718
  523SOL     OW 1567   0.241   2.610   0.882 -0.1029  0.2870 -0.0161
  523SOL    HW1 1568   0.263   2.688   0.818  0.5333  0.6475 -3.0278
  523SOL    HW2 1569   0.189   2.546   0.824  1.5702 -1.6911 -0.2628
  524SOL     OW 1570   1.576   2.491   0.607 -0.4477  0.7115 -0.0133
  524SOL    HW1 1571   1.592   2.401   0.652  2.5150 -1.4971  1.7401
  524SOL    HW2 1572   1.524   2.551   0.664  4.7906 -1.6549  1.2488
  525SOL     OW 1573   2.332   0.603   1.205  0.2876 -0.0207  0.1362
  525SOL    HW1 1574   2.327   0.694   1.251  1.6874 -0.0267 -2.0209
  525SOL    HW2 1575   2.344   0.620   1.106  0.9114 -2.4685 -0.5325
  526SOL     OW 1576   0.910   2.517   0.771 -0.2408 -0.2283  0.6622
  526SOL    HW1 1577   0.949   2.459   0.698  3.5341 -1.0391 -1.3096
  526SOL    HW2 1578   0.845   2.578   0.728  2.3976 -1.7175 -1.5015
  527SOL     OW 1579   2.261   2.031   0.540 -0.0100  0.3797 -0.2872
  527SOL    HW1 1580   2.261   1.955   0.473 -1.3888  2.7093  2.3494
  527SOL    HW2 1581   2.181   2.094   0.536  0.6859 -0.0422  0.0764
  528SOL     OW 1582   2.235   0.459   0.546  0.4234 -0.2519 -0.2430
  528SOL    HW1 1583   2.134   0.451   0.556 -1.7394 -1.0070  0.7598
  528SOL    HW2 1584   2.261   0.431   0.449  0.8013  3.2790 -0.2283
  529SOL     OW 1585   1.108   1.356   2.345  0.0301  0.2752 -0.0206
  529SOL    HW1 1586   1.039   1.424   2.373 -0.2711 -1.3358 -0.2690
  529SOL    HW2 1587   1.198   1.383   2.385 -0.1471  2.1337  1.4794
  530SOL     OW 1588   2.391   0.830   3.067  0.6487 -0.1569 -0.3297
  530SOL    HW1 1589   2.427   0.735   0.023  0.7968 -3.1085  2.1710
  530SOL    HW2 1590   2.340   0.874   0.081  0.4530  1.1168 -1.4813
  531SOL     OW 1591   1.170   1.033   0.373  0.0278  0.2082  1.0306
  531SOL    HW1 1592   1.199   0.955   0.431  0.9602  1.5971  2.9592
  531SOL    HW2 1593   1.238   1.113   0.378 -0.9168  0.3366  0.3347
  532SOL     OW 1594   1.901   3.004   0.835 -0.2165 -0.1098 -0.5166
  532SOL    HW1 1595   1.849   3.041   0.918 -1.9074 -0.7494  1.1452
  532SOL    HW2 1596   1.998   3.036   0.845  1.4903  0.3829 -0.4974
  533SOL     OW 1597   1.270   0.879   2.096  0.3109 -0.5197 -0.0534
  533SOL    HW1 1598   1.253   0.969   2.053  0.8706 -2.9320 -0.0764
  533SOL    HW2 1599   1.338   0.824   2.042 -0.0322 -1.7946  1.8299
  534SOL     OW 1600   1.933   3.032   2.822 -0.1905 -0.2514 -0.1733
  534SOL    HW1 1601   1.952   2.959   2.754  0.9082  1.8537  0.3389
  534SOL    HW2 1602   1.931   3.001   2.916  3.3798  2.7643  2.6080
  535SOL     OW 1603   0.356   2.916   0.366  0.1270  0.3564  0.3026
  535SOL    HW1 1604   0.404   3.003   0.383 -2.1059  0.8298 -1.3156
  535SOL    HW2 1605   0.255   2.930   0.381 -0.5611  1.5957  2.4257
  536SOL     OW 1606   0.520   2.641   1.002  0.4095 -0.5461  0.0247
  536SOL    HW1 1607   0.433   2.698   1.002 -0.2735  0.4985  1.1120
  536SOL    HW2 1608   0.541   2.610   1.099  0.9677  0.9274  3.1852
  537SOL     OW 1609   1.820   0.449   1.404  0.1683  0.2613 -0.5921
  537SOL    HW1 1610   1.907   0.432   1.354  2.0975  0.3734 -1.4890
  537SOL    HW2 1611   1.770   0.359   1.420 -0.4524 -0.3555  2.7549
  538SOL     OW 1612   2.901   2.650   0.289 -0.3145  0.3346  0.0225
  538SOL    HW1 1613   2.950   2.557   0.297 -0.0172 -1.5491 -0.5921
  538SOL    HW2 1614   2.861   2.674   0.378  1.0103 -1.0814 -1.0550
  539SOL     OW 1615   2.810   1.990   2.343 -0.6793  0.2033 -0.3329
  539SOL    HW1 1616   2.717   1.942   2.336 -2.5066 -2.8704  3.0184
  539SOL    HW2 1617   2.877   1.952   2.277 -0.9945 -0.6479 -1.0208
  540SOL     OW 1618   3.049   2.610   1.647  0.8599 -0.2559 -0.4923
  540SOL    HW1 1619   0.040   2.540   1.602 -0.4567  0.0274  0.9018
  540SOL    HW2 1620   2.954   2.574   1.680  0.9485 -1.4675  2.0021
  541SOL     OW 1621   2.737   2.876   1.878 -0.2014 -0.1156  0.3425
  541SOL    HW1 1622   2.664   2.823   1.923 -0.0636 -1.5192 -1.9903
  541SOL    HW2 1623   2.821   2.855   1.930  0.6177  2.1012  1.7630
  542SOL     OW 1624   2.954   0.511   2.174  0.2894  0.0791 -0.1548
  542SOL    HW1 1625   2.966   0.423   2.228  2.7765 -1.9777  1.3241
  542SOL    HW2 1626   2.869   0.517   2.117 -2.4327 -0.7023 -2.4961
  543SOL     OW 1627   0.864   0.658   0.736 -0.0842  0.0745 -0.3054
  543SOL    HW1 1628   0.849   0.660   0.635 -0.2949  1.8505  1.3399
  543SOL    HW2 1629   0.837   0.744   0.786  0.2278 -0.6214  2.4528
  544SOL     OW 1630   2.762   2.334   0.964  0.1428  0.6773  0.3969
  544SOL    HW1 1631   2.686   2.266   0.953  0.8829  0.1094 -3.9762
  544SOL    HW2 1632   2.831   2.308   1.034 -0.1626 -0.1684  0.0224
  545SOL     OW 1633   1.076   1.661   0.231  0.4088  0.0002 -0.1390
  545SOL    HW1 1634   1.054   1.734   0.295 -1.2756  0.7016  2.0850
  545SOL    HW2 1635   1.002   1.586   0.239  1.7329 -2.2471 -0.8695
  546SOL     OW 1636   2.374   0.518   1.991 -0.3740  0.2245 -0.0318
  546SOL    HW1 1637   2.364   0.599   2.052  0.3300 -1.4731 -0.3397
  546SOL    HW2 1638   2.419   0.436   2.034  1.7485 -1.4435 -0.2310
  547SOL     OW 1639   0.306   0.191   2.295 -0.0239  0.2466 -0.4529
  547SOL    HW1 1640   0.239   0.223   2.365 -2.8219 -0.4307 -0.5257
  547SOL    HW2 1641   0.348   0.267   2.242 -2.2634 -2.0744 -0.1113
  548SOL     OW 1642   1.981   1.812   2.353  0.1869  0.3315  0.9640
  548SOL    HW1 1643   2.013   1.890   2.411 -0.3076 -1.9901  1.5624
  548SOL    HW2 1644   2.065   1.755   2.335  2.4679  1.0099  0.0936
  549SOL     OW 1645   2.538   0.697   0.770 -0.5084 -0.5124  0.2761
  549SOL    HW1 1646   2.616   0.710   0.703 -2.1012  3.9606 -1.0193
  549SOL    HW2 1647   2.561   0.740   0.855 -2.6743 -0.7115  0.8424
  550SOL     OW 1648   1.557   1.529   0.562 -0.6562 -0.1253  0.4471
  550SOL    HW1 1649   1.503   1.612   0.536  1.0580  0.4445 -0.7105
  550SOL    HW2 1650   1.585   1.477   0.474 -1.9847 -0.0606 -3.6598
  551SOL     OW 1651   1.063   0.325   0.936  0.1262 -0.1636  0.6278
  551SOL    HW1 1652   0.963   0.304   0.933  1.3025 -0.7443  1.3838
  551SOL    HW2 1653   1.119   0.239   0.929  0.8202 -0.2933 -0.1059
  552SOL     OW 1654   2.212   2.422   2.058 -1.0442  0.2256  0.5593
  552SOL    HW1 1655   2.191   2.520   2.079  1.2781 -2.4213 -0.0560
  552SOL    HW2 1656   2.252   2.384   2.147  0.5520  1.3487  0.6487
  553SOL     OW 1657   2.943   0.214   0.131 -0.3326  0.4144 -0.4084
  553SOL    HW1 1658   2.984   0.308   0.117 -0.6726 -0.9659  2.0121
  553SOL    HW2 1659   2.873   0.195   0.064 -0.2626  1.0375  1.5730
  554SOL     OW 1660   1.497   2.694   1.830 -0.0353  0.2649 -0.0096
  554SOL    HW1 1661   1.435   2.706   1.751  0.1118  0.1351  1.7622
  554SOL    HW2 1662   1.502   2.783   1.878 -4.2738  0.4001 -2.6709
  555SOL     OW 1663   2.363   2.629   1.827  0.1291  0.5369 -0.1286
  555SOL    HW1 1664   2.273   2.661   1.788 -0.3625  0.1719 -2.5482
  555SOL    HW2 1665   2.381   2.670   1.914 -1.1820 -1.9525 -1.6445
  556SOL     OW 1666   0.908   2.778   0.047 -0.3570  1.0482 -0.5025
  556SOL    HW1 1667   0.911   2.726   3.025  1.5969 -0.9509  0.5648
  556SOL    HW2 1668   0.821   2.831   0.060  2.0166  0.6889  1.3857
  557SOL     OW 1669   0.341   1.981   2.492 -0.2698  0.1666 -0.2578
  557SOL    HW1 1670   0.381   1.995   2.403 -0.1038  0.2379  0.1429
  557SOL    HW2 1671   0.362   2.053   2.555  0.0679 -0.3563 -2.3355
  558SOL     OW 1672   2.549   1.334   2.660 -0.1175 -0.2486 -0.1600
  558SOL    HW1 1673   2.506   1.328   2.751 -0.2177 -1.4650 -2.2600
  558SOL    HW2 1674   2.489   1.363   2.586 -1.1965  2.1543  0.7550
  559SOL     OW 1675   2.311   2.320   2.267  0.2025  0.1818  0.1592
  559SOL    HW1 1676   2.405   2.355   2.282 -1.2617  0.3618 -1.5542
  559SOL    HW2 1677   2.306   2.221   2.228  1.3928  0.6529  3.6057
  560SOL     OW 1678   0.398   0.414   2.151  0.1329  0.5926  0.0954
  560SOL    HW1 1679   0.307   0.463   2.154  0.1894  1.5383  1.4065
  560SOL    HW2 1680   0.471   0.473   2.177 -3.4284 -3.8914  3.6292
  561SOL     OW 1681   0.775   0.545   0.248 -0.2408 -0.0867 -0.4827
  561SOL    HW1 1682   0.712   0.471   0.277 -0.6698  0.7856  1.8057
  561SOL    HW2 1683   0.814   0.525   0.158 -0.8687  2.5496 -1.6946
  562SOL     OW 1684   0.946   1.220   1.562 -0.0490  0.1212  0.7186
  562SOL    HW1 1685   0.915   1.185   1.654  1.6911  0.8064  0.8035
  562SOL    HW2 1686   0.862   1.252   1.510 -0.3035 -0.6809 -0.5414
  563SOL     OW 1687   1.647   2.925   2.987 -0.4360  0.4767  0.3066
  563SOL    HW1 1688   1.596   2.843   3.017 -0.4267 -3.1318  2.8109
  563SOL    HW2 1689   1.713   2.958   3.056  0.4245  0.5759 -2.9263
  564SOL     OW 1690   0.222   2.028   0.558  0.7353 -0.6372  0.4033
  564SOL    HW1 1691   0.265   1.943   0.525 -2.9577  1.1197 -0.2091
  564SOL    HW2 1692   0.225   2.030   0.660 -1.2035 -1.8860 -0.0511
  565SOL     OW 1693   0.420   2.464   2.460  0.0306 -0.1209 -0.0859
  565SOL    HW1 1694   0.440   2.447   2.366 -0.5045  1.6329  2.4388
  565SOL    HW2 1695   0.322   2.475   2.476  2.4724 -0.7987 -0.7397
  566SOL     OW 1696   1.264   2.711   2.307 -0.0889 -0.0409  0.1322
  566SOL    HW1 1697   1.342   2.693   2.369 -2.6980  1.3515 -2.4168
  566SOL    HW2 1698   1.239   2.618   2.268 -0.2688  2.0569 -1.9172
  567SOL     OW 1699   1.801   2.067   1.215 -0.0014  0.2852  0.1189
  567SOL    HW1 1700   1.705   2.036   1.203 -1.4877 -0.1641  0.2144
  567SOL    HW2 1701   1.867   2.022   1.147  1.6621 -1.6797 -2.8055
  568SOL     OW 1702   2.105   0.702   0.010  0.1237  0.2670 -0.3696
  568SOL    HW1 1703   2.047   0.778   3.049 -3.1808  0.0708  0.1160
  568SOL    HW2 1704   2.090   0.623   3.008 -0.3647 -3.4610 -0.6369
  569SOL     OW 1705   2.762   1.394   2.353 -0.0002  0.0127 -0.5111
  569SOL    HW1 1706   2.774   1.489   2.326 -0.0858 -1.4976 -0.1458
  569SOL    HW2 1707   2.840   1.353   2.406 -0.9824 -1.8112 -0.9480
  570SOL     OW 1708   2.823   2.547   1.787  0.3047 -0.0102  0.3908
  570SOL    HW1 1709   2.752   2.604   1.741  0.8947  1.8659 -1.7215
  570SOL    HW2 1710   2.795   2.448   1.784 -1.2632 -0.8504 -0.4423
  571SOL     OW 1711   0.275   0.329   1.737  0.2277 -0.2910  0.1884
  571SOL    HW1 1712   0.317   0.289   1.652  1.1232 -0.5359 -0.6121
  571SOL    HW2 1713   0.250   0.428   1.725 -3.3801 -2.9685 -0.4925
  572SOL     OW 1714   0.168   2.053   0.832 -0.1806 -0.4602  0.6242
  572SOL    HW1 1715   0.100   2.132   0.821  1.3384  1.0663 -1.1197
  572SOL    HW2 1716   0.145   2.006   0.914  1.4057  1.8698 -1.0831
  573SOL     OW 1717   0.951   0.759   0.067 -0.3025  0.3035 -0.5100
  573SOL    HW1 1718   0.978   0.846   0.115  1.2304  1.5515  0.5270
  573SOL    HW2 1719   0.851   0.750   0.053 -0.4852  0.0145 -0.4931
  574SOL     OW 1720   2.755   2.828   0.171  0.2908 -0.5681  0.6329
  574SOL    HW1 1721   2.769   2.834   0.071 -0.8592  0.9857  2.1090
  574SOL    HW2 1722   2.814   2.752   0.203 -2.9173  0.6369 -0.5508
  575SOL     OW 1723   1.089   1.768   1.381 -0.3687 -0.2874  0.2084
  575SOL    HW1 1724   1.086   1.732   1.286  1.3162  0.9473 -1.0098
  575SOL    HW2 1725   1.137   1.855   1.385  3.6850  0.4862 -1.8804
  576SOL     OW 1726   2.936   2.728   1.382  0.3885  0.3576 -0.5453
  576SOL    HW1 1727   2.867   2.803   1.378 -0.5873  3.0892  0.2612
  576SOL    HW2 1728   2.953   2.694   1.471 -0.5315 -0.4880 -0.8768
  577SOL     OW 1729   2.271   1.514   1.664  0.1732  0.2766  0.2889
  577SOL    HW1 1730   2.235   1.427   1.624  0.3031 -0.8006 -0.3286
  577SOL    HW2 1731   2.226   1.596   1.620 -1.6855  2.2185 -0.5610
  578SOL     OW 1732   1.264   0.079   2.989  0.8339  0.1345 -0.2863
  578SOL    HW1 1733   1.222   3.057   3.012  0.8417  3.0372 -1.0959
  578SOL    HW2 1734   1.282   0.094   2.888  0.8547  1.2841  1.4318
  579SOL     OW 1735   2.560   1.903   2.232 -0.4184  0.2764  0.1327
  579SOL    HW1 1736   2.526   1.976   2.174 -1.0467  0.4326  2.1404
  579SOL    HW2 1737   2.575   1.815   2.182 -1.8922 -0.3746 -0.5142
  580SOL     OW 1738   1.804   0.707   1.402  0.0367 -0.3681 -0.1317
  580SOL    HW1 1739   1.797   0.606   1.394 -0.1944  0.9452 -1.5753
  580SOL    HW2 1740   1.879   0.746   1.349  0.2471 -2.7684  0.7589
  581SOL     OW 1741   0.790   1.635   1.367  0.1874  0.1695  0.1401
  581SOL    HW1 1742   0.830   1.587   1.289 -0.1572  1.8044  1.8303
  581SOL    HW2 1743   0.852   1.669   1.439 -2.1658 -0.2783 -1.3081
  582SOL     OW 1744   2.948   2.803   2.042 -0.1803 -0.2542 -0.0670
  582SOL    HW1 1745   3.034   2.778   1.985  1.5612  0.0919  1.5946
  582SOL    HW2 1746   2.979   2.859   2.120  0.8132 -0.3220  0.1681
  583SOL     OW 1747   2.150   1.312   1.507 -0.2999 -0.1936 -0.0497
  583SOL    HW1 1748   2.074   1.382   1.494 -2.4452  2.8775  1.5574
  583SOL    HW2 1749   2.213   1.306   1.431  1.5336  0.6132  2.1683
  584SOL     OW 1750   1.244   1.914   2.677 -0.7479  0.5163 -0.3753
  584SOL    HW1 1751   1.329   1.887   2.725 -0.4616  2.5445 -1.4823
  584SOL    HW2 1752   1.219   1.840   2.606  1.2216 -2.6843 -0.6298
  585SOL     OW 1753   0.333   2.648   0.427 -0.2485 -0.4322 -0.1313
  585SOL    HW1 1754   0.337   2.723   0.361 -0.4626 -1.5100  0.0232
  585SOL    HW2 1755   0.380   2.564   0.391  1.6669  0.2339 -2.4399
  586SOL     OW 1756   1.717   2.440   2.596  0.4269  1.0614 -0.1718
  586SOL    HW1 1757   1.624   2.424   2.561  1.1419  0.1818  0.8563
  586SOL    HW2 1758   1.772   2.350   2.599  1.8423 -2.9210 -0.5803
  587SOL     OW 1759   2.650   1.705   0.425  0.2254  0.0706  0.4072
  587SOL    HW1 1760   2.643   1.803   0.418 -0.6626 -0.7990  0.9152
  587SOL    HW2 1761   2.736   1.666   0.383  0.8458 -0.3612 -2.6541
  588SOL     OW 1762   2.060   0.021   1.272  0.1859  0.4288  0.2130
  588SOL    HW1 1763   2.078   0.016   1.172 -0.7921  1.2955 -0.4493
  588SOL    HW2 1764   2.047   0.115   1.301  1.4749  0.2269 -0.2799
  589SOL     OW 1765   0.781   0.724   0.461  0.6606  0.1143  0.4439
  589SOL    HW1 1766   0.698   0.779   0.481  0.8070 -2.4121 -0.2077
  589SOL    HW2 1767   0.770   0.668   0.379 -0.6573 -0.2581 -1.6176
  590SOL     OW 1768   2.495   2.098   0.168  0.2764  0.0755 -0.2119
  590SOL    HW1 1769   2.576   2.154   0.179 -2.9084  1.6787 -1.4121
  590SOL    HW2 1770   2.456   2.098   0.070 -2.3551  0.0191 -1.9185
  591SOL     OW 1771   0.133   2.437   1.517  0.3981  0.5876 -0.2146
  591SOL    HW1 1772   0.212   2.463   1.459  1.8356  1.7235  0.3546
  591SOL    HW2 1773   0.110   2.340   1.489  0.2556 -1.5502  3.3106
  592SOL     OW 1774   0.768   1.116   1.373  0.0726  0.6998 -0.1908
  592SOL    HW1 1775   0.699   1.173   1.414 -0.0766 -2.2556  1.3562
  592SOL    HW2 1776   0.762   1.021   1.403  1.4083  4.6853 -0.0697
  593SOL     OW 1777   0.897   1.522   1.156 -0.5403  0.2867  0.3725
  593SOL    HW1 1778   0.972   1.588   1.137  0.1349  1.5736 -1.6796
  593SOL    HW2 1779   0.844   1.504   1.065 -1.9581  0.6953 -2.2467
  594SOL     OW 1780   0.312   1.880   2.784  0.5748 -0.4402 -0.0956
  594SOL    HW1 1781   0.268   1.952   2.843 -0.0430 -0.8238 -4.0159
  594SOL    HW2 1782   0.251   1.803   2.777  2.0246  2.8107  0.5678
  595SOL     OW 1783   1.271   0.421   1.105  0.0424  0.3739  0.0710
  595SOL    HW1 1784   1.349   0.422   1.035 -0.9708  1.3248 -0.4036
  595SOL    HW2 1785   1.181   0.399   1.065 -0.3710 -0.2909 -0.6259
  596SOL     OW 1786   0.247   1.226   0.335  0.0337 -0.4318 -0.2148
  596SOL    HW1 1787   0.168   1.251   0.273 -3.0388  1.5958  0.6347
  596SOL    HW2 1788   0.274   1.128   0.341 -0.5082 -0.7399  1.4316
  597SOL     OW 1789   3.009   2.300   2.963  0.0091  0.2543 -0.4483
  597SOL    HW1 1790   3.044   2.242   2.886 -0.0100  1.0893  1.5545
  597SOL    HW2 1791   3.052   2.271   3.053  0.5391  1.1004  0.0843
  598SOL     OW 1792   2.300   1.802   2.073 -0.1452 -0.0683 -0.1147
  598SOL    HW1 1793   2.392   1.763   2.058  0.4258  0.8832  0.8071
  598SOL    HW2 1794   2.253   1.761   2.157  1.4956 -1.5148  2.3016
  599SOL     OW 1795   0.975   0.391   0.413 -0.1101  0.4239 -0.0267
  599SOL    HW1 1796   0.905   0.427   0.354  0.7748  0.5875  2.0388
  599SOL    HW2 1797   1.066   0.385   0.363  0.0682  0.2572  0.1600
  600SOL     OW 1798   0.641   2.808   0.447 -0.0640 -0.0902  0.2093
  600SOL    HW1 1799   0.551   2.845   0.414 -1.2609  0.1181 -3.2031
  600SOL    HW2 1800   0.659   2.711   0.418 -0.4437 -1.3961 -0.9958
  601SOL     OW 1801   0.453   0.903   1.255  0.1961  0.2182 -0.4039
  601SOL    HW1 1802   0.517   0.971   1.216 -0.3236 -2.6211  2.3852
  601SOL    HW2 1803   0.492   0.811   1.234 -1.3267 -1.3591 -0.3209
  602SOL     OW 1804   0.252   2.791   1.086 -0.0223 -0.4863  0.2565
  602SOL    HW1 1805   0.188   2.769   1.161 -0.3917  0.2385 -1.3272
  602SOL    HW2 1806   0.229   2.733   1.004 -1.1064 -0.9268  3.3608
  603SOL     OW 1807   1.008   2.718   2.397 -0.4005 -0.0936  0.0106
  603SOL    HW1 1808   0.929   2.736   2.334 -0.5977 -0.6820 -1.4326
  603SOL    HW2 1809   1.095   2.743   2.349 -1.4934 -0.4172  0.7620
  604SOL     OW 1810   0.728   2.801   2.694 -0.2599 -0.0149  0.0198
  604SOL    HW1 1811   0.674   2.715   2.679 -1.5071 -1.3452  0.4450
  604SOL    HW2 1812   0.684   2.880   2.646  1.2371  1.4589  0.0424
  605SOL     OW 1813   1.462   0.751   1.936 -0.4018 -0.3641  0.5803
  605SOL    HW1 1814   1.405   0.672   1.924  1.9528  5.1526 -0.0723
  605SOL    HW2 1815   1.544   0.724   1.995 -0.9558  0.3060  1.8664
  606SOL     OW 1816   2.034   0.306   2.665  0.0160 -0.2591  0.0368
  606SOL    HW1 1817   1.977   0.387   2.639 -0.0113 -3.1471 -1.6932
  606SOL    HW2 1818   2.087   0.267   2.583 -2.6127  1.0137 -1.6082
  607SOL     OW 1819   0.706   0.644   0.996 -0.5246  0.0530 -0.3956
  607SOL    HW1 1820   0.700   0.744   0.969 -1.9908  0.7636  0.1005
  607SOL    HW2 1821   0.681   0.586   0.917  1.4858  0.5389  0.9782
  608SOL     OW 1822   0.229   2.405   2.186 -0.1882  0.3299 -0.5882
  608SOL    HW1 1823   0.331   2.420   2.193  0.3415 -0.3092 -0.0701
  608SOL    HW2 1824   0.174   2.492   2.210 -1.0393 -0.2419 -1.3965
  609SOL     OW 1825   1.634   0.506   2.928 -0.4490  0.0209 -1.0801
  609SOL    HW1 1826   1.704   0.451   2.980 -0.5895 -2.2557 -1.5435
  609SOL    HW2 1827   1.581   0.557   3.003  2.0194  2.8125 -0.3802
  610SOL     OW 1828   0.658   2.955   1.174  0.0051 -0.0969  0.4235
  610SOL    HW1 1829   0.565   2.989   1.145 -1.6958  1.2670  2.3622
  610SOL    HW2 1830   0.729   3.029   1.168  1.6639  0.6473  0.1050
  611SOL     OW 1831   1.480   0.792   0.329 -0.1965 -0.5823  0.1717
  611SOL    HW1 1832   1.512   0.880   0.366 -0.1854 -3.0159  1.6755
  611SOL    HW2 1833   1.545   0.723   0.365 -3.0032 -0.2025  2.7255
  612SOL     OW 1834   1.675   0.620   2.666  0.4772  0.1917 -0.5075
  612SOL    HW1 1835   1.604   0.644   2.601  3.0443  0.0855  2.2491
  612SOL    HW2 1836   1.644   0.571   2.748  1.7561  1.1679 -2.5576
  613SOL     OW 1837   2.308   0.709   0.920  0.3547 -0.3533 -0.1948
  613SOL    HW1 1838   2.219   0.677   0.885  0.5219 -1.4177  0.4986
  613SOL    HW2 1839   2.385   0.686   0.853  1.4672 -0.8084  1.0738
  614SOL     OW 1840   2.524   0.375   2.166  0.7085 -0.4547 -0.0417
  614SOL    HW1 1841   2.595   0.446   2.143  1.1993  2.5392  0.4140
  614SOL    HW2 1842   2.540   0.282   2.127  0.0157  1.4460  1.9783
  615SOL     OW 1843   0.876   2.072   1.177 -0.2402 -0.4007 -0.3342
  615SOL    HW1 1844   0.855   1.994   1.239  2.2798  0.2004 -1.4420
  615SOL    HW2 1845   0.815   2.151   1.182 -0.1072  0.3945 -1.2638
  616SOL     OW 1846   1.788   1.226   2.459 -0.4408 -0.4854 -0.4133
  616SOL    HW1 1847   1.708   1.246   2.396  1.6356 -3.2926 -2.2203
  616SOL    HW2 1848   1.847   1.299   2.492 -3.0502  0.6740  0.3161
  617SOL     OW 1849   1.527   0.092   3.008  0.3475 -0.1523 -0.2346
  617SOL    HW1 1850   1.428   0.096   3.017 -1.8645 -0.9357 -0.2101
  617SOL    HW2 1851   1.547   3.062   2.982  1.2106  3.1778  0.5300
  618SOL     OW 1852   1.584   1.726   2.211  0.0205  0.2137 -0.2106
  618SOL    HW1 1853   1.679   1.769   2.199  2.4852  1.4962  0.2086
  618SOL    HW2 1854   1.590   1.639   2.154  0.2795  1.5044 -1.3028
  619SOL     OW 1855   2.532   1.508   1.016  0.0302 -0.0344  0.3851
  619SOL    HW1 1856   2.528   1.592   0.963 -3.3845 -1.0551  0.8117
  619SOL    HW2 1857   2.588   1.441   0.966 -0.7086  0.0937  3.5455
  620SOL     OW 1858   2.245   2.665   2.730 -0.3321  0.1653 -0.0481
  620SOL    HW1 1859   2.329   2.706   2.764 -1.1567 -0.3183 -1.7038
  620SOL    HW2 1860   2.173   2.735   2.713  3.9480  1.4439  1.6058
  621SOL     OW 1861   2.845   1.472   0.711  0.1501  0.1319 -0.0135
  621SOL    HW1 1862   2.810   1.394   0.655  0.5653  0.3344 -1.4620
  621SOL    HW2 1863   2.891   1.434   0.789 -0.2728 -1.0447 -1.4765
  622SOL     OW 1864   1.099   2.416   2.473  0.0764  0.3437  0.5528
  622SOL    HW1 1865   1.158   2.403   2.393 -0.1796 -0.4580 -1.3088
  622SOL    HW2 1866   1.021   2.480   2.458 -0.4173  0.7367  0.2477
  623SOL     OW 1867   0.179   2.477   0.045 -0.1014  0.2350 -0.4201
  623SOL    HW1 1868   0.231   2.405   0.001  0.3873 -0.4049  0.3687
  623SOL    HW2 1869   0.095   2.440   0.090 -1.0718 -1.0780  0.0897
  624SOL     OW 1870   0.376   2.852   2.873  0.0364  0.5451 -0.0122
  624SOL    HW1 1871   0.276   2.839   2.861  2.7603 -0.2088 -0.7258
  624SOL    HW2 1872   0.399   2.864   2.974  0.0981 -0.6611  0.8081
  625SOL     OW 1873   0.807   2.212   2.885 -0.6868  0.5267 -0.5021
  625SOL    HW1 1874   0.812   2.260   2.796 -0.4545 -0.7206 -0.1490
  625SOL    HW2 1875   0.897   2.163   2.901 -0.5577 -1.2806 -1.5176
  626SOL     OW 1876   2.850   0.507   0.239  0.2085 -0.4601 -0.6344
  626SOL    HW1 1877   2.762   0.467   0.213  0.6660 -0.1940  0.5938
  626SOL    HW2 1878   2.920   0.479   0.175 -3.6119  1.0364  0.4784
  627SOL     OW 1879   1.677   1.706   3.015  0.1559 -0.2784 -0.2247
  627SOL    HW1 1880   1.751   1.635   3.013  0.4147  1.4533  4.1123
  627SOL    HW2 1881   1.604   1.664   0.003  0.6029  1.4387 -0.3937
  628SOL     OW 1882   1.234   1.255   2.663 -0.0419  0.5575 -0.2135
  628SOL    HW1 1883   1.144   1.271   2.616 -0.6501  2.1357 -2.6741
  628SOL    HW2 1884   1.305   1.295   2.603  0.5356  1.2677 -0.9905
  629SOL     OW 1885   0.564   0.052   1.724 -0.4474  0.0613 -0.1451
  629SOL    HW1 1886   0.465   0.027   1.735 -3.2655 -1.7503  0.0604
  629SOL    HW2 1887   0.575   0.138   1.666 -1.0561  1.8639 -0.7313
  630SOL     OW 1888   2.183   1.112   1.910  0.4400 -0.3945  0.2019
  630SOL    HW1 1889   2.100   1.175   1.921  0.9386 -0.7084 -0.9575
  630SOL    HW2 1890   2.191   1.037   1.980  1.3878 -1.8726 -0.4893
  631SOL     OW 1891   1.886   0.257   0.718 -0.1992 -0.3669 -0.2238
  631SOL    HW1 1892   1.844   0.283   0.809 -0.5449  0.1192 -1.3850
  631SOL    HW2 1893   1.823   0.201   0.660 -1.8618  2.0571  0.6898
  632SOL     OW 1894   2.946   0.617   1.592 -0.1624  0.4417 -0.2603
  632SOL    HW1 1895   2.941   0.677   1.507  0.3867 -1.9303  2.3185
  632SOL    HW2 1896   2.909   0.520   1.576  1.6898  3.1838 -0.5372
  633SOL     OW 1897   0.842   0.405   0.021  0.8593  0.0394  0.0438
  633SOL    HW1 1898   0.781   0.440   3.016  0.8833  0.2264 -0.1234
  633SOL    HW2 1899   0.845   0.303   0.012  0.5965 -0.5357  0.0213
  634SOL     OW 1900   0.528   2.621   2.855 -0.2234  0.0194  0.7756
  634SOL    HW1 1901   0.568   2.620   2.947 -0.4878  1.5133  0.1547
  634SOL    HW2 1902   0.471   2.707   2.842  0.4494  0.4833 -2.0847
  635SOL     OW 1903   0.034   0.737   0.682  0.3457  0.3857  0.1088
  635SOL    HW1 1904   3.032   0.814   0.686 -1.2441 -2.3234  2.4853
  635SOL    HW2 1905   0.110   0.770   0.622  0.3191  2.0395  1.3100
  636SOL     OW 1906   0.284   1.208   3.054 -0.6367 -0.2696  0.0318
  636SOL    HW1 1907   0.357   1.236   0.057  0.3979  0.9374 -0.2258
  636SOL    HW2 1908   0.194   1.241   0.026 -0.5338  0.4810  0.5074
  637SOL     OW 1909   0.077   2.631   0.479  0.3150  0.4966 -0.1013
  637SOL    HW1 1910   0.175   2.659   0.468 -1.8589 -1.0788  1.2302
  637SOL    HW2 1911   0.020   2.720   0.496  1.5353  1.7110 -1.1878
  638SOL     OW 1912   2.860   2.255   0.461 -0.3169 -0.4153 -0.5193
  638SOL    HW1 1913   2.911   2.175   0.492  1.4260  2.4623  4.6542
  638SOL    HW2 1914   2.817   2.306   0.540 -1.0267  1.1919  1.5840
  639SOL     OW 1915   1.594   0.907   0.088 -0.2944 -0.0872 -0.2680
  639SOL    HW1 1916   1.579   0.809   0.097 -1.3196  0.0076 -1.9933
  639SOL    HW2 1917   1.579   0.962   0.175  0.3507 -0.5502  1.0494
  640SOL     OW 1918   1.773   2.187   1.695  0.3551  0.2726 -0.3927
  640SOL    HW1 1919   1.827   2.178   1.616 -1.6780 -1.1029  3.6453
  640SOL    HW2 1920   1.747   2.091   1.730 -0.8994 -3.9615 -3.1858
  641SOL     OW 1921   3.049   0.015   0.718 -0.0942 -0.2771  0.5839
  641SOL    HW1 1922   3.058   0.114   0.696  0.5751 -0.2675 -0.3157
  641SOL    HW2 1923   2.957   3.055   0.748  1.4494 -2.9876  0.4371
  642SOL     OW 1924   1.173   0.623   1.724 -0.0251  0.4268  0.1957
  642SOL    HW1 1925   1.219   0.603   1.634 -1.6396 -0.3536  1.3447
  642SOL    HW2 1926   1.233   0.577   1.793 -0.5093 -3.4632 -1.8041
  643SOL     OW 1927   0.780   2.313   2.636 -0.2383  0.0936 -0.0081
  643SOL    HW1 1928   0.716   2.264   2.575  2.3830  2.7466 -0.0367
  643SOL    HW2 1929   0.791   2.411   2.603 -3.5321  0.8669 -0.7803
  644SOL     OW 1930   1.340   2.444   0.363 -0.0518  0.2059 -0.8419
  644SOL    HW1 1931   1.382   2.360   0.398  1.3367  0.4224 -0.4464
  644SOL    HW2 1932   1.297   2.504   0.440 -1.1179 -0.7440  2.5141
  645SOL     OW 1933   1.631   1.173   1.868  0.5709  0.3677 -0.1621
  645SOL    HW1 1934   1.705   1.213   1.814 -0.1935  1.3718  1.6943
  645SOL    HW2 1935   1.592   1.094   1.820  1.2958  2.5921 -0.3984
  646SOL     OW 1936   0.249   0.526   0.012 -0.0968  0.2358  0.1517
  646SOL    HW1 1937   0.294   0.474   0.088  1.9872  1.9762  0.1544
  646SOL    HW2 1938   0.327   0.567   3.023  0.0270  0.4850 -1.1216
  647SOL     OW 1939   1.039   0.194   0.583 -0.3990  0.2420 -0.0568
  647SOL    HW1 1940   1.013   0.259   0.510  1.9013 -2.5568 -3.9023
  647SOL    HW2 1941   1.110   0.130   0.548 -1.4373  1.0781  0.1695
  648SOL     OW 1942   2.266   2.699   1.174  0.0389 -0.1375  0.3219
  648SOL    HW1 1943   2.250   2.736   1.084  1.1855  0.0079  1.9247
  648SOL    HW2 1944   2.220   2.606   1.183 -1.7909 -1.0603  1.2042
  649SOL     OW 1945   0.518   1.857   0.070  0.0051 -0.1801 -0.0246
  649SOL    HW1 1946   0.593   1.891   0.012  2.0378 -0.1608 -0.5886
  649SOL    HW2 1947   0.525   1.885   0.166 -0.3627 -1.5394 -1.2702
  650SOL     OW 1948   2.204   2.005   1.743 -0.5318  0.5404  0.4445
  650SOL    HW1 1949   2.235   2.092   1.700 -0.2160 -1.2770 -1.2138
  650SOL    HW2 1950   2.129   1.959   1.689 -1.9408 -2.9042  0.2884
  651SOL     OW 1951   0.093   2.981   2.592  0.5691  0.1209 -0.2284
  651SOL    HW1 1952   0.107   2.962   2.494 -1.5883 -0.1048 -0.0283
  651SOL    HW2 1953   0.021   3.057   2.593 -2.6711  3.8600  1.9844
  652SOL     OW 1954   2.961   1.782   0.594  0.4250 -0.3386  0.0224
  652SOL    HW1 1955   2.871   1.760   0.640  0.1857 -0.0652  0.2034
  652SOL    HW2 1956   3.021   1.703   0.607 -1.2418  1.0499 -0.8610
  653SOL     OW 1957   2.901   0.426   1.273  0.2417  0.0069 -0.2104
  653SOL    HW1 1958   2.891   0.490   1.196  1.5760  1.3073  0.3520
  653SOL    HW2 1959   2.988   0.446   1.320  1.3433  0.7294 -2.4636
  654SOL     OW 1960   0.783   0.141   2.980  0.4658 -0.2341 -0.4425
  654SOL    HW1 1961   0.788   0.086   3.059  2.0986  0.2856 -2.8459
  654SOL    HW2 1962   0.697   0.131   2.932  0.5530  0.5145  1.6938
  655SOL     OW 1963   0.407   3.029   1.142  0.1379  0.0997  0.6308
  655SOL    HW1 1964   0.361   0.039   1.090 -0.8372  2.5091  0.2377
  655SOL    HW2 1965   0.350   2.948   1.143 -0.9077  1.4753  3.6887
  656SOL     OW 1966   0.222   2.739   2.172 -0.2697 -0.3047 -0.3923
  656SOL    HW1 1967   0.251   2.806   2.238 -2.0005 -3.3975 -1.0494
  656SOL    HW2 1968   0.139   2.695   2.206  3.5269  2.1950 -2.4294
  657SOL     OW 1969   2.315   0.408   2.833  0.3622 -0.1411 -0.3779
  657SOL    HW1 1970   2.392   0.347   2.848  0.6416  2.6724 -0.5243
  657SOL    HW2 1971   2.331   0.462   2.748  0.3180  3.2265  0.5652
  658SOL     OW 1972   1.917   1.829   1.088 -0.0543 -0.1408  0.4737
  658SOL    HW1 1973   1.933   1.863   0.993  1.6939 -1.7651  0.1398
  658SOL    HW2 1974   2.007   1.800   1.128  0.4035 -2.4018  3.7761
  659SOL     OW 1975   2.374   2.235   2.814 -0.1706 -0.1140 -0.6555
  659SOL    HW1 1976   2.425   2.284   2.883 -0.2405 -1.4884  1.4177
  659SOL    HW2 1977   2.442   2.184   2.756 -1.4778  1.4890  0.7185
  660SOL     OW 1978   1.187   0.388   0.225 -0.3244  0.5083 -0.0983
  660SOL    HW1 1979   1.280   0.375   0.258  0.3600  0.0667  0.7744
  660SOL    HW2 1980   1.168   0.400   0.122  0.7657 -1.9256 -0.2609
  661SOL     OW 1981   2.401   2.892   0.490  0.3441 -0.2521 -0.0267
  661SOL    HW1 1982   2.429   2.913   0.393  0.8735  1.2418  1.7542
  661SOL    HW2 1983   2.348   2.969   0.527  1.7992  0.4563  1.7211
  662SOL     OW 1984   0.825   0.126   1.178  0.2914 -0.3219 -0.1472
  662SOL    HW1 1985   0.820   0.163   1.080  1.6664 -1.1920 -2.1788
  662SOL    HW2 1986   0.919   0.098   1.197 -0.7933 -0.4206  1.4911
  663SOL     OW 1987   1.650   2.768   2.318 -0.3310  0.2835  0.2131
  663SOL    HW1 1988   1.651   2.739   2.224  2.4554 -0.6863  0.1739
  663SOL    HW2 1989   1.569   2.727   2.366  0.3871  1.1255  0.9643
  664SOL     OW 1990   0.786   2.137   1.532 -0.1459  0.3282 -0.5774
  664SOL    HW1 1991   0.703   2.147   1.586 -0.7613 -0.4122 -0.6500
  664SOL    HW2 1992   0.769   2.168   1.434 -1.4480 -1.8901  0.8528
  665SOL     OW 1993   0.845   2.302   1.843  0.0480  0.0106 -0.0161
  665SOL    HW1 1994   0.796   2.210   1.839  0.9053 -2.1659 -4.2153
  665SOL    HW2 1995   0.924   2.297   1.775  1.0118 -0.2337 -0.4428
  666SOL     OW 1996   0.131   2.817   2.815 -0.3678  0.1764 -0.2826
  666SOL    HW1 1997   0.091   2.904   2.783 -0.4464 -0.7004 -0.1706
  666SOL    HW2 1998   0.086   2.735   2.770 -2.4031 -2.1466  1.7990
  667SOL     OW 1999   1.557   1.506   1.582 -0.0572 -0.1870 -0.5878
  667SOL    HW1 2000   1.465   1.531   1.554  1.2950 -1.6328 -3.6653
  667SOL    HW2 2001   1.617   1.535   1.506 -1.5779 -1.6886 -1.3388
  668SOL     OW 2002   1.302   0.258   2.043 -0.0378  0.6962  0.1922
  668SOL    HW1 2003   1.260   0.247   1.955 -2.0481 -0.5984  0.1529
  668SOL    HW2 2004   1.238   0.274   2.120  0.9758  0.8356  1.4237
  669SOL     OW 2005   2.678   2.169   1.590 -0.3030  0.3791 -0.1375
  669SOL    HW1 2006   2.626   2.095   1.541  0.2534  1.8155 -0.7933
  669SOL    HW2 2007   2.613   2.251   1.583  0.2871 -1.3015  2.3154
  670SOL     OW 2008   1.554   2.172   0.159  0.0690  0.2840 -0.1068
  670SOL    HW1 2009   1.598   2.101   0.097  2.2345 -0.7942 -1.3782
  670SOL    HW2 2010   1.585   2.264   0.129 -1.5544 -0.6216 -0.2255
  671SOL     OW 2011   1.262   1.018   0.883 -0.1314 -0.0835  0.1019
  671SOL    HW1 2012   1.325   1.026   0.966  0.9344 -0.3813  1.2392
  671SOL    HW2 2013   1.182   1.078   0.896  0.9291 -1.7685  0.1073
  672SOL     OW 2014   2.821   1.102   2.488  0.2876  0.3331  0.2186
  672SOL    HW1 2015   2.798   1.129   2.584 -2.1161 -0.9222  0.2235
  672SOL    HW2 2016   2.897   1.159   2.455  0.4164  1.7139 -2.1479
  673SOL     OW 2017   0.039   1.834   1.353  0.2423 -0.0047  0.3903
  673SOL    HW1 2018   3.009   1.831   1.382 -0.8140  2.2241 -1.0974
  673SOL    HW2 2019   0.098   1.830   1.434  1.2236 -0.3822 -0.0261
  674SOL     OW 2020   0.746   2.359   2.316  0.3599  0.1729 -0.1500
  674SOL    HW1 2021   0.711   2.302   2.390  1.3003  1.5015 -2.1763
  674SOL    HW2 2022   0.797   2.439   2.353 -1.8837 -1.5036 -1.7450
  675SOL     OW 2023   0.831   1.139   1.780 -0.0684  0.3371  0.2477
  675SOL    HW1 2024   0.733   1.106   1.780  0.6594 -2.1922 -2.2871
  675SOL    HW2 2025   0.886   1.083   1.842  0.8744  2.9370 -1.5804
  676SOL     OW 2026   2.434   0.428   0.769  0.8175  0.0771  0.2757
  676SOL    HW1 2027   2.379   0.439   0.687 -1.3108 -0.0752  0.0200
  676SOL    HW2 2028   2.478   0.515   0.784 -4.1959 -3.4703  0.0412
  677SOL     OW 2029   2.483   1.607   3.061 -0.0267  0.1569  0.0783
  677SOL    HW1 2030   2.399   1.582   3.007 -0.3007 -2.3305 -0.6165
  677SOL    HW2 2031   2.562   1.543   3.038  0.1886  0.1589 -0.2986
  678SOL     OW 2032   0.089   0.359   1.414 -0.1510 -0.2420 -0.7583
  678SOL    HW1 2033   0.165   0.350   1.480  0.5094  0.0579 -0.8389
  678SOL    HW2 2034   0.049   0.264   1.408 -0.9458 -0.4302  1.7938
  679SOL     OW 2035   2.258   0.383   0.278 -0.2947  0.0834 -0.2024
  679SOL    HW1 2036   2.236   0.482   0.255 -0.0601  0.4436  2.3311
  679SOL    HW2 2037   2.295   0.327   0.201 -1.4381 -0.3323  1.9539
  680SOL     OW 2038   0.089   2.043   1.924 -0.3417  0.3597  0.3429
  680SOL    HW1 2039   0.155   1.987   1.865  0.9682 -0.3455 -2.1841
  680SOL    HW2 2040   0.133   2.069   2.012  0.3668  0.6795 -2.2335
  681SOL     OW 2041   2.290   1.998   1.235 -0.2550  0.3345 -0.2005
  681SOL    HW1 2042   2.198   2.045   1.220 -0.2747  1.1020  0.8020
  681SOL    HW2 2043   2.354   2.029   1.164 -2.5017 -1.2555  0.1588
  682SOL     OW 2044   2.982   1.928   2.110 -0.0882  0.0065 -0.5429
  682SOL    HW1 2045   2.947   1.830   2.096  0.4882 -0.4711  2.1123
  682SOL    HW2 2046   3.040   1.966   2.035 -0.2991 -0.2054  0.0692
  683SOL     OW 2047   0.096   2.196   1.390  0.7249 -0.1630  0.2634
  683SOL    HW1 2048   0.135   2.208   1.295 -2.0359  0.9612  0.6793
  683SOL    HW2 2049   0.018   2.132   1.404  0.8326 -2.0164 -1.5065
  684SOL     OW 2050   2.747   0.847   2.460 -0.1490  0.5694  0.1311
  684SOL    HW1 2051   2.754   0.947   2.472  1.7765 -0.4944 -0.2388
  684SOL    HW2 2052   2.696   0.803   2.534 -1.5741 -0.1354 -3.7974
  685SOL     OW 2053   1.363   1.216   0.424 -0.0497 -0.1713 -0.3783
  685SOL    HW1 2054   1.379   1.191   0.520 -0.7786  0.3183 -1.0281
  685SOL    HW2 2055   1.306   1.304   0.426 -0.5165  1.5395  0.3236
  686SOL     OW 2056   0.215   0.120   0.352  0.5492 -0.3779  0.0239
  686SOL    HW1 2057   0.144   0.061   0.318  1.0545  1.9012 -0.4715
  686SOL    HW2 2058   0.176   0.203   0.395  0.1572  1.4441  0.6499
  687SOL     OW 2059   1.364   1.406   2.439 -0.0632 -0.0578 -0.5324
  687SOL    HW1 2060   1.342   1.493   2.394  0.3009 -1.2395  1.8312
  687SOL    HW2 2061   1.446   1.369   2.397 -1.5677  2.1937 -2.3933
  688SOL     OW 2062   1.514   1.242   1.520  0.5004  0.3276 -0.0825
  688SOL    HW1 2063   1.545   1.338   1.550 -0.7455  1.8196  0.5889
  688SOL    HW2 2064   1.432   1.215   1.570  1.8979  0.5360 -2.9859
  689SOL     OW 2065   2.177   2.860   1.389  0.4386  0.6660  0.2373
  689SOL    HW1 2066   2.162   2.964   1.382  0.6597  0.6713  0.1318
  689SOL    HW2 2067   2.188   2.812   1.300 -0.2531 -0.8953  0.9128
  690SOL     OW 2068   0.031   1.166   1.114 -0.1821  0.3117 -0.2116
  690SOL    HW1 2069   3.031   1.185   1.040 -0.5133  1.7787 -0.3265
  690SOL    HW2 2070   0.081   1.076   1.098 -1.0105 -1.9223  0.5844
  691SOL     OW 2071   0.441   2.204   1.239  0.2353  0.2009  0.2655
  691SOL    HW1 2072   0.479   2.198   1.142 -0.1253 -1.8394  0.3324
  691SOL    HW2 2073   0.394   2.295   1.250  0.0635  1.8972 -0.6185
  692SOL     OW 2074   2.324   0.702   1.767  0.5673 -0.4066 -0.2291
  692SOL    HW1 2075   2.397   0.774   1.762 -3.0595 -1.0941 -1.1632
  692SOL    HW2 2076   2.346   0.632   1.835 -1.8925 -0.5211  0.3471
  693SOL     OW 2077   0.504   1.807   2.166  0.1231  0.1583 -0.8909
  693SOL    HW1 2078   0.583   1.838   2.111 -1.1395 -1.1209  0.4806
  693SOL    HW2 2079   0.528   1.754   2.251  0.4826 -2.0381 -1.9376
  694SOL     OW 2080   1.638   1.292   1.191 -0.1513 -0.4747  0.0636
  694SOL    HW1 2081   1.659   1.224   1.261  0.6976  2.1116 -2.3553
  694SOL    HW2 2082   1.567   1.345   1.237  1.4610 -2.1566  2.3906
  695SOL     OW 2083   0.919   1.424   0.807 -0.5148 -0.4730  0.0241
  695SOL    HW1 2084   0.885   1.515   0.845 -0.8514  1.8362 -2.5167
  695SOL    HW2 2085   0.841   1.361   0.777  0.8642  1.5853 -0.4466
  696SOL     OW 2086   0.865   2.929   0.354 -0.7392  0.1669  0.7818
  696SOL    HW1 2087   0.952   2.890   0.394 -2.8478  2.5269  1.7310
  696SOL    HW2 2088   0.781   2.885   0.393  1.0373 -0.9775  1.8453
  697SOL     OW 2089   1.542   0.466   1.650 -0.2585  0.6099  0.1118
  697SOL    HW1 2090   1.629   0.500   1.697 -0.2758  0.7037 -1.2946
  697SOL    HW2 2091   1.537   0.516   1.562 -0.8872  1.6971  1.2168
  698SOL     OW 2092   1.608   1.492   2.087 -0.4742  0.0554 -0.0011
  698SOL    HW1 2093   1.700   1.526   2.058  0.4211  0.7584 -0.3043
  698SOL    HW2 2094   1.547   1.477   2.004 -1.7805 -1.6031  0.6126
  699SOL     OW 2095   2.553   0.261   1.762  0.2566  0.2971 -0.8359
  699SOL    HW1 2096   2.525   0.189   1.829 -1.2907 -0.7631  0.4349
  699SOL    HW2 2097   2.479   0.287   1.703  0.5591 -0.0942 -0.1053
  700SOL     OW 2098   1.177   2.186   0.559  0.2137 -0.2104 -0.1125
  700SOL    HW1 2099   1.259   2.180   0.498 -0.3541  0.3009  2.1460
  700SOL    HW2 2100   1.119   2.106   0.545 -0.5206  0.4955 -0.8304
  701SOL     OW 2101   2.394   3.032   2.485  0.1506  0.2391  0.6249
  701SOL    HW1 2102   2.430   2.957   2.543  1.0790  2.2160  0.8404
  701SOL    HW2 2103   2.414   0.053   2.529 -1.8219 -0.7299 -2.5857
  702SOL     OW 2104   0.843   3.065   0.682 -0.1468 -0.2116 -0.1108
  702SOL    HW1 2105   0.749   0.031   0.662  1.3493  0.5581  0.6595
  702SOL    HW2 2106   0.916   0.053   0.636  2.1029  0.1548 -0.1738
  703SOL     OW 2107   2.362   3.040   2.160 -0.7727  0.0623  0.2557
  703SOL    HW1 2108   2.273   0.014   2.174  3.3655 -1.6249 -0.8100
  703SOL    HW2 2109   2.398   3.011   2.249 -1.7462 -1.8270  0.1629
  704SOL     OW 2110   2.630   1.976   0.366  0.2874  0.2704  0.4829
  704SOL    HW1 2111   2.588   1.997   0.277  1.9840 -0.8712 -2.9028
  704SOL    HW2 2112   2.600   2.030   0.444 -0.8161  1.2907 -2.3825
  705SOL     OW 2113   2.550   2.802   2.562 -0.1579  0.0254 -0.5925
  705SOL    HW1 2114   2.624   2.874   2.564 -0.2707 -2.3691 -1.2247
  705SOL    HW2 2115   2.584   2.716   2.518  1.6772  1.2912 -1.7113
  706SOL     OW 2116   2.618   0.332   1.214 -0.6442  0.9009 -0.0473
  706SOL    HW1 2117   2.567   0.389   1.287 -3.9497  4.6881  0.2207
  706SOL    HW2 2118   2.722   0.348   1.209 -0.3124  1.3610  2.5911
  707SOL     OW 2119   0.904   0.050   2.403  0.2544 -0.3937  0.0910
  707SOL    HW1 2120   0.916   3.050   2.479 -0.8670 -0.7827  0.3290
  707SOL    HW2 2121   0.807   0.060   2.387  0.8976  0.8125  2.2799
  708SOL     OW 2122   0.274   2.285   1.802  0.2661 -0.5446  0.6409
  708SOL    HW1 2123   0.293   2.239   1.714 -1.1199  0.1967  0.9814
  708SOL    HW2 2124   0.179   2.323   1.789  1.3650  1.3362  1.1050
  709SOL     OW 2125   1.316   0.217   1.549 -0.0918 -0.4487  0.5024
  709SOL    HW1 2126   1.317   0.309   1.510 -0.4076  0.2448  0.0868
  709SOL    HW2 2127   1.337   0.152   1.476  0.4500 -1.9971  1.8987
  710SOL     OW 2128   1.102   2.918   2.977  0.2091 -0.2291  0.1185
  710SOL    HW1 2129   1.034   2.870   3.031  1.1304  0.9797 -1.6058
  710SOL    HW2 2130   1.060   2.946   2.889  0.8197 -1.4874  0.0647
  711SOL     OW 2131   1.284   2.177   2.553 -0.7653  0.2964  0.2032
  711SOL    HW1 2132   1.276   2.082   2.590  0.8225  0.8190  2.1505
  711SOL    HW2 2133   1.194   2.224   2.562 -0.1738 -2.5733  1.9681
  712SOL     OW 2134   1.026   2.071   2.885  0.1664 -0.6418 -0.5423
  712SOL    HW1 2135   1.071   2.028   2.805  0.6756  1.4593  0.2342
  712SOL    HW2 2136   1.034   2.015   2.972 -2.0577 -2.5788  0.3528
  713SOL     OW 2137   1.887   1.221   2.157 -0.4078 -0.3836  0.4943
  713SOL    HW1 2138   1.802   1.177   2.132  3.2094  2.8992  1.8253
  713SOL    HW2 2139   1.941   1.168   2.224 -0.5965  1.2879 -3.8211
  714SOL     OW 2140   0.738   1.361   1.871  0.2148  0.5706 -0.6372
  714SOL    HW1 2141   0.641   1.345   1.842 -0.0945 -2.4291  2.5272
  714SOL    HW2 2142   0.793   1.280   1.834  1.1360 -1.4911  0.6527
  715SOL     OW 2143   2.589   0.425   0.242 -0.0662  0.0199  0.3639
  715SOL    HW1 2144   2.609   0.383   0.336 -1.1626 -2.2443  0.9293
  715SOL    HW2 2145   2.517   0.369   0.194 -2.9072 -1.6433 -3.1575
  716SOL     OW 2146   2.780   2.267   1.833  0.2631 -0.2278  0.0520
  716SOL    HW1 2147   2.729   2.227   1.760  3.1078  3.1060  1.8331
  716SOL    HW2 2148   2.765   2.215   1.915  2.0897 -1.4206 -0.8717
  717SOL     OW 2149   2.349   0.954   1.051  0.4382  0.0577  0.0816
  717SOL    HW1 2150   2.249   0.978   1.065 -0.5462 -1.7454  0.3995
  717SOL    HW2 2151   2.354   0.866   1.000  1.1226  2.1153  1.8235
  718SOL     OW 2152   1.303   1.561   1.498  0.0516  0.3208  0.0127
  718SOL    HW1 2153   1.253   1.491   1.548  1.9800 -1.3623 -1.0505
  718SOL    HW2 2154   1.247   1.642   1.485  0.0173 -0.4935 -1.7140
  719SOL     OW 2155   2.870   0.629   3.001 -0.1315  0.1925  0.3575
  719SOL    HW1 2156   2.880   0.681   2.910  0.9722  3.0449 -0.9551
  719SOL    HW2 2157   2.919   0.542   3.003 -2.7153  0.8300  3.3932
  720SOL     OW 2158   0.835   0.374   0.695  0.3512 -0.0081 -0.7230
  720SOL    HW1 2159   0.908   0.343   0.632  1.0819 -0.5164  0.0437
  720SOL    HW2 2160   0.844   0.473   0.719  0.8243  1.1186 -2.8683
  721SOL     OW 2161   2.707   0.923   0.606 -0.6091  0.2920 -0.0522
  721SOL    HW1 2162   2.612   0.943   0.591  2.6361 -1.1800 -0.0466
  721SOL    HW2 2163   2.750   0.879   0.525  0.8145  1.7753  3.2529
  722SOL     OW 2164   0.580   2.228   2.475 -0.0264 -0.6249  0.4231
  722SOL    HW1 2165   0.543   2.151   2.420  0.9512 -0.9533 -2.3866
  722SOL    HW2 2166   0.504   2.297   2.492  0.5568  0.1729  1.5084
  723SOL     OW 2167   1.795   0.073   1.056  0.7997  0.4397  0.4227
  723SOL    HW1 2168   1.784   0.171   1.038 -1.2566 -1.7499  1.2343
  723SOL    HW2 2169   1.806   0.047   1.152 -0.0191 -1.7650 -0.4500
  724SOL     OW 2170   1.396   1.770   1.859 -0.1320  0.4891  0.1042
  724SOL    HW1 2171   1.382   1.793   1.956  0.1226  1.0517  0.1688
  724SOL    HW2 2172   1.311   1.728   1.818  1.2779 -0.5312  1.1980
  725SOL     OW 2173   1.220   2.735   1.333 -0.1925 -0.2946 -0.7396
  725SOL    HW1 2174   1.124   2.746   1.374 -0.4011 -1.2180  0.5601
  725SOL    HW2 2175   1.207   2.753   1.234  0.4919  0.8751 -1.1817
  726SOL     OW 2176   2.042   2.637   0.130  0.3246  0.5233  0.0779
  726SOL    HW1 2177   2.047   2.636   0.028 -0.3848 -1.4767 -0.3354
  726SOL    HW2 2178   2.023   2.542   0.168 -0.7148  0.7700  0.3203
  727SOL     OW 2179   1.445   1.742   1.145  0.5473 -0.1723 -0.6177
  727SOL    HW1 2180   1.542   1.718   1.131 -0.3442  1.8174  1.0891
  727SOL    HW2 2181   1.378   1.668   1.121  0.1378  0.0975  1.1056
  728SOL     OW 2182   2.168   2.703   2.092  0.0238 -0.1278 -0.4120
  728SOL    HW1 2183   2.129   2.735   2.183 -1.3720  0.1507 -1.2957
  728SOL    HW2 2184   2.266   2.732   2.081 -2.0220 -3.3340 -0.3282
  729SOL     OW 2185   1.966   2.408   1.388  0.4472 -0.3149 -0.0074
  729SOL    HW1 2186   1.864   2.426   1.402 -0.6992 -1.0847  1.8185
  729SOL    HW2 2187   2.025   2.449   1.465  0.4030 -0.5411  1.0160
  730SOL     OW 2188   1.958   0.748   2.288 -1.1282  0.3695 -0.2882
  730SOL    HW1 2189   1.882   0.785   2.229  0.8578  0.5412  0.6855
  730SOL    HW2 2190   1.960   0.815   2.367  0.0860 -1.8399  0.5498
  731SOL     OW 2191   0.908   2.643   1.159 -0.2859 -0.0344 -0.2437
  731SOL    HW1 2192   0.942   2.677   1.251  1.4748  0.9921  2.4529
  731SOL    HW2 2193   0.975   2.659   1.082  2.1666  0.6621  0.4342
  732SOL     OW 2194   1.184   0.060   0.888  0.0187  0.3520 -0.0792
  732SOL    HW1 2195   1.104   0.004   0.868  1.4099  0.4117  0.3639
  732SOL    HW2 2196   1.248   0.003   0.944 -1.2141 -1.9197 -1.8840
  733SOL     OW 2197   1.343   1.187   0.700  0.0572 -0.1215 -0.0599
  733SOL    HW1 2198   1.365   1.272   0.750 -1.0503 -1.3352  0.2972
  733SOL    HW2 2199   1.303   1.113   0.762 -0.1565 -0.2556  0.5756
  734SOL     OW 2200   2.547   2.090   2.620 -0.1023 -0.4997  0.7580
  734SOL    HW1 2201   2.602   2.164   2.567 -0.8154  0.1223 -0.3085
  734SOL    HW2 2202   2.494   2.030   2.556  0.8274  0.9801 -0.8615
  735SOL     OW 2203   0.789   0.206   0.915 -0.9701 -0.1276 -0.3973
  735SOL    HW1 2204   0.792   0.118   0.862 -0.8129 -3.5007 -1.2202
  735SOL    HW2 2205   0.775   0.284   0.852 -0.3859  0.6421  3.3512
  736SOL     OW 2206   1.469   2.378   2.474  0.6052 -0.0923  0.5479
  736SOL    HW1 2207   1.522   2.358   2.393  1.1465 -1.6167  0.8750
  736SOL    HW2 2208   1.402   2.304   2.491 -1.9817  2.6922  0.5046
  737SOL     OW 2209   0.721   2.257   1.279 -0.0909 -0.4604 -0.3721
  737SOL    HW1 2210   0.618   2.249   1.286 -2.1973  1.5040  0.8299
  737SOL    HW2 2211   0.742   2.347   1.234 -1.5911 -2.2528 -2.2939
  738SOL     OW 2212   1.599   2.911   2.712  0.0038 -0.0734 -0.0595
  738SOL    HW1 2213   1.637   2.993   2.662  0.2940 -0.0821  2.5405
  738SOL    HW2 2214   1.659   2.891   2.792  2.0752 -2.6545  1.7603
  739SOL     OW 2215   1.134   2.306   1.948  0.7288 -0.4643  0.4249
  739SOL    HW1 2216   1.070   2.282   2.027  2.2513  0.9551  0.6098
  739SOL    HW2 2217   1.191   2.225   1.930 -3.5234  1.0596  2.2788
  740SOL     OW 2218   1.474   2.387   1.513 -0.2134 -0.0401  0.2576
  740SOL    HW1 2219   1.430   2.340   1.436  2.8516  1.9563  0.1656
  740SOL    HW2 2220   1.430   2.478   1.526  1.1080 -1.3183  0.8993
  741SOL     OW 2221   2.593   1.320   0.268  0.0170  0.3676  0.3157
  741SOL    HW1 2222   2.580   1.291   0.363 -1.0470  0.7589 -2.0971
  741SOL    HW2 2223   2.499   1.315   0.230 -1.7153  0.5760  0.7206
  742SOL     OW 2224   0.755   1.726   2.482 -0.0975 -0.2315 -0.2054
  742SOL    HW1 2225   0.749   1.818   2.445 -1.6020 -1.1122  1.0325
  742SOL    HW2 2226   0.663   1.683   2.474 -1.1212 -0.8535  0.6203
  743SOL     OW 2227   0.598   1.159   2.624 -0.4790 -0.7611 -0.5976
  743SOL    HW1 2228   0.660   1.080   2.639  1.0843  1.7169 -1.6510
  743SOL    HW2 2229   0.561   1.193   2.711 -1.6471 -0.1029 -2.2860
  744SOL     OW 2230   2.112   2.483   1.157 -0.1572  0.4164 -0.8595
  744SOL    HW1 2231   2.076   2.495   1.066 -0.1584  0.3720  2.6725
  744SOL    HW2 2232   2.035   2.466   1.223  0.9308  0.4652  0.8285
  745SOL     OW 2233   2.108   1.693   1.521 -0.2847 -0.0461  0.0560
  745SOL    HW1 2234   2.153   1.709   1.432  1.3174 -2.4838  1.1298
  745SOL    HW2 2235   2.064   1.780   1.554 -1.8334 -1.5505 -0.3800
  746SOL     OW 2236   2.175   0.969   0.754  0.5673  0.0920 -0.1334
  746SOL    HW1 2237   2.216   1.066   0.768  0.8311 -0.0547 -0.4128
  746SOL    HW2 2238   2.157   0.928   0.846  1.6032 -2.6627 -0.4886
  747SOL     OW 2239   1.624   2.071   0.950 -0.0025 -0.1083 -0.6466
  747SOL    HW1 2240   1.716   2.027   0.938 -1.4450 -1.3549  2.0348
  747SOL    HW2 2241   1.590   2.064   1.045  0.0680 -0.6866 -0.5186
  748SOL     OW 2242   0.512   1.700   0.747  0.1802  0.5306 -0.4162
  748SOL    HW1 2243   0.602   1.710   0.708  0.8860  3.4658 -2.1133
  748SOL    HW2 2244   0.524   1.722   0.847  0.5423  2.0922  2.4565
  749SOL     OW 2245   0.019   2.969   2.224 -0.3730 -0.2492 -0.3237
  749SOL    HW1 2246   0.014   3.056   2.179 -0.6633 -2.3129  0.8411
  749SOL    HW2 2247   0.107   2.969   2.278  1.5856 -0.0293  1.3941
  750SOL     OW 2248   2.066   0.338   1.115 -0.0466  0.5252  0.6148
  750SOL    HW1 2249   2.114   0.352   1.027 -0.1597 -2.8846 -0.0182
  750SOL    HW2 2250   2.145   0.303   1.172  0.5938 -1.0662  0.6978
  751SOL     OW 2251   2.170   2.871   0.171 -0.6621  0.0676 -0.1210
  751SOL    HW1 2252   2.123   2.784   0.162  1.1475  1.6728  1.6933
  751SOL    HW2 2253   2.265   2.862   0.128  1.2916  0.5760 -1.3735
  752SOL     OW 2254   1.838   1.961   0.236  0.9075 -0.5032 -0.0635
  752SOL    HW1 2255   1.780   1.958   0.150  0.3437  0.4403 -0.4301
  752SOL    HW2 2256   1.910   1.895   0.234  0.9264  0.0270 -1.4882
  753SOL     OW 2257   1.917   1.480   2.549 -0.2340 -0.2920 -0.3254
  753SOL    HW1 2258   1.943   1.487   2.451 -2.0638  0.8147  1.7819
  753SOL    HW2 2259   1.834   1.536   2.571  0.6153  2.6069 -2.2962
  754SOL     OW 2260   2.950   2.352   1.189  0.7562  0.1387  0.2755
  754SOL    HW1 2261   2.917   2.441   1.147  0.6261  1.6422 -1.5525
  754SOL    HW2 2262   3.037   2.362   1.234 -2.7056  1.5824 -0.4812
  755SOL     OW 2263   2.057   0.648   0.844 -0.0220  0.4142  0.2847
  755SOL    HW1 2264   2.001   0.695   0.774 -1.4950 -0.4663  1.5651
  755SOL    HW2 2265   2.001   0.635   0.927  1.2205 -1.2144 -0.8969
  756SOL     OW 2266   1.131   1.342   2.904 -0.1545  0.0168  0.1076
  756SOL    HW1 2267   1.134   1.437   2.867  0.3650 -2.2368 -0.2330
  756SOL    HW2 2268   1.172   1.277   2.835  3.0204  0.0832 -1.2938
  757SOL     OW 2269   1.955   2.733   1.451 -0.2308  0.3302  1.1736
  757SOL    HW1 2270   1.983   2.644   1.492 -1.5182 -2.8547  1.9851
  757SOL    HW2 2271   2.038   2.784   1.423 -3.8571 -1.7898  2.2189
  758SOL     OW 2272   0.673   2.526   1.199 -0.2249  0.1168 -0.1916
  758SOL    HW1 2273   0.634   2.546   1.287  3.9421 -2.0778 -0.6581
  758SOL    HW2 2274   0.750   2.587   1.174  0.6015  0.5028 -1.1440
  759SOL     OW 2275   2.342   1.328   1.028 -0.1882 -0.2702 -0.2473
  759SOL    HW1 2276   2.250   1.366   1.002  0.8024 -0.6821  2.5300
  759SOL    HW2 2277   2.417   1.396   1.052  1.0737 -0.6827  0.1520
  760SOL     OW 2278   2.036   1.109   1.279 -0.3526  0.1134 -0.0910
  760SOL    HW1 2279   1.990   1.124   1.370  1.0227  1.1719  0.3512
  760SOL    HW2 2280   2.121   1.164   1.287  0.3083  0.6978  3.8920
  761SOL     OW 2281   2.063   3.017   0.404  0.2916 -0.2362 -0.0757
  761SOL    HW1 2282   1.992   2.983   0.469  1.4822  0.7747  1.2922
  761SOL    HW2 2283   2.083   2.952   0.327  2.4373 -2.5559 -0.5755
  762SOL     OW 2284   1.784   2.110   2.856  0.0908  0.0144  1.0134
  762SOL    HW1 2285   1.855   2.063   2.807  1.9461  0.2081  1.3774
  762SOL    HW2 2286   1.821   2.163   2.929 -0.9105 -0.3510 -0.8486
  763SOL     OW 2287   0.642   1.065   1.149  0.4375  0.1907 -0.3652
  763SOL    HW1 2288   0.630   1.161   1.105 -0.8091  0.4853 -0.6739
  763SOL    HW2 2289   0.701   1.085   1.230 -0.4579 -1.5783 -0.8025
  764SOL     OW 2290   2.735   2.267   3.015 -0.4143  0.1665 -0.1958
  764SOL    HW1 2291   2.834   2.299   3.005  2.9755 -3.2673 -0.3265
  764SOL    HW2 2292   2.709   2.204   2.940 -0.3186  1.1921  0.4497
  765SOL     OW 2293   0.831   0.086   1.866 -0.4432 -0.4547 -0.2020
  765SOL    HW1 2294   0.751   0.042   1.827  1.4571 -1.5931 -0.7791
  765SOL    HW2 2295   0.903   0.085   1.793  0.9116  0.5302  1.4288
  766SOL     OW 2296   2.900   1.948   2.641  0.1315  0.0327  0.0696
  766SOL    HW1 2297   2.810   1.920   2.628 -0.4823  2.7688  0.3319
  766SOL    HW2 2298   2.945   1.958   2.550  0.2789 -0.3993 -0.3331
  767SOL     OW 2299   3.040   1.526   1.679  0.2854 -0.3976  0.1967
  767SOL    HW1 2300   2.954   1.467   1.686  0.6968  0.0552 -1.7147
  767SOL    HW2 2301   3.024   1.601   1.611  1.4896 -2.3521  1.0473
  768SOL     OW 2302   1.000   0.802   2.865 -0.2865 -0.1409 -0.3753
  768SOL    HW1 2303   0.971   0.791   2.963  1.5144 -0.2786 -2.7045
  768SOL    HW2 2304   1.084   0.745   2.851  1.1644  3.1984 -0.6954
  769SOL     OW 2305   1.940   2.404   0.255 -0.1874  0.5709  0.4418
  769SOL    HW1 2306   1.860   2.459   0.285  0.0069  0.3447 -0.3964
  769SOL    HW2 2307   2.013   2.397   0.329  3.2478  1.1253  4.7333
  770SOL     OW 2308   2.735   0.055   0.001  0.1772  0.6989 -0.4084
  770SOL    HW1 2309   2.739   0.010   0.093  2.4834 -1.3610 -1.0501
  770SOL    HW2 2310   2.677   0.135   3.065  0.5490 -1.7573  1.0377
  771SOL     OW 2311   1.510   2.456   1.980 -0.2025  0.0633 -0.1722
  771SOL    HW1 2312   1.532   2.543   1.935 -1.8918 -1.2365  3.5419
  771SOL    HW2 2313   1.490   2.386   1.911 -0.6972  2.3799  2.1387
  772SOL     OW 2314   0.653   0.438   2.879 -0.5847  0.3890  0.4387
  772SOL    HW1 2315   0.698   0.452   2.790  0.6809 -0.3122  2.4560
  772SOL    HW2 2316   0.603   0.351   2.886  3.0589  2.8572  2.4021
  773SOL     OW 2317   2.898   1.057   1.488 -0.1459  0.1260 -0.2773
  773SOL    HW1 2318   2.799   1.073   1.469 -0.6244 -0.5480 -0.5311
  773SOL    HW2 2319   2.916   1.058   1.590  0.1136 -1.0352  0.5186
  774SOL     OW 2320   1.556   1.074   0.310  0.0306  0.5617 -0.2962
  774SOL    HW1 2321   1.490   1.138   0.353 -1.0955  3.2136  0.7006
  774SOL    HW2 2322   1.647   1.116   0.293  0.1059  0.2193 -1.0714
  775SOL     OW 2323   2.364   2.552   0.220  0.2250 -0.1825  0.1992
  775SOL    HW1 2324   2.316   2.618   0.158 -0.1129  1.9312 -3.2724
  775SOL    HW2 2325   2.324   2.463   0.213  2.5013  4.0317 -0.6284
  776SOL     OW 2326   2.558   0.776   2.069 -0.5518 -0.0146 -0.3386
  776SOL    HW1 2327   2.512   0.845   2.011 -1.3375  0.2809  3.3074
  776SOL    HW2 2328   2.564   0.804   2.167  0.3898  1.6543  2.1908
  777SOL     OW 2329   0.292   1.190   2.371  0.0508  0.1517  0.3178
  777SOL    HW1 2330   0.306   1.287   2.348  0.2999 -0.5123  3.3583
  777SOL    HW2 2331   0.202   1.151   2.347  1.7217 -0.5394 -0.3315
  778SOL     OW 2332   0.680   0.246   0.272 -0.3475 -0.3313  0.2932
  778SOL    HW1 2333   0.747   0.198   0.212 -2.3703  2.3912 -1.9097
  778SOL    HW2 2334   0.636   0.173   0.329  1.7081 -1.0694  1.3430
  779SOL     OW 2335   0.735   0.937   2.652 -0.2073 -0.5609 -0.4992
  779SOL    HW1 2336   0.812   0.992   2.690  0.7566  0.3707 -0.5083
  779SOL    HW2 2337   0.764   0.853   2.608 -2.2680  1.3819  2.2302
  780SOL     OW 2338   2.067   1.074   2.291  0.0661  0.4654 -0.0957
  780SOL    HW1 2339   2.050   1.017   2.372 -2.4490 -1.8071  2.2177
  780SOL    HW2 2340   2.095   1.015   2.207  0.1171  0.8641 -0.5064
  781SOL     OW 2341   2.940   1.132   1.778 -0.3538  0.0699  0.2554
  781SOL    HW1 2342   3.040   1.147   1.799  0.6548 -0.8486 -3.0404
  781SOL    HW2 2343   2.902   1.069   1.847  2.5883  0.7966 -0.5676
  782SOL     OW 2344   0.989   1.837   2.183  0.2160 -0.7018 -0.8110
  782SOL    HW1 2345   1.047   1.915   2.214 -0.2086  0.2392  0.1274
  782SOL    HW2 2346   0.900   1.852   2.233 -0.1356  0.9116  0.2583
  783SOL     OW 2347   0.535   2.566   1.483 -0.4354  0.0321 -0.0555
  783SOL    HW1 2348   0.586   2.530   1.568  1.9766 -1.6022  2.7670
  783SOL    HW2 2349   0.585   2.648   1.453 -0.8288 -1.1909 -2.4636
  784SOL     OW 2350   1.351   0.493   2.674 -0.1988  0.0581  0.0245
  784SOL    HW1 2351   1.427   0.424   2.675 -2.3788 -0.3251 -1.5560
  784SOL    HW2 2352   1.360   0.552   2.590  2.0737  0.5794  0.2613
  785SOL     OW 2353   1.093   0.341   2.746  0.3960 -0.6953  0.2140
  785SOL    HW1 2354   1.186   0.378   2.731  1.2368  1.3891  2.0938
  785SOL    HW2 2355   1.034   0.327   2.662 -0.2948 -2.0821  0.2069
  786SOL     OW 2356   0.354   1.605   0.354 -0.0708  0.2312  0.2428
  786SOL    HW1 2357   0.372   1.519   0.405  0.1240  1.8294  0.0496
  786SOL    HW2 2358   0.414   1.604   0.272 -0.6380  1.3935 -0.0792
  787SOL     OW 2359   1.798   1.475   0.336 -0.1228 -0.0424 -0.1433
  787SOL    HW1 2360   1.879   1.518   0.291 -0.8544 -0.5973 -0.5603
  787SOL    HW2 2361   1.709   1.490   0.288 -1.4201 -0.4618  1.0442
  788SOL     OW 2362   1.951   1.486   1.475 -0.2512 -0.2953 -0.0570
  788SOL    HW1 2363   1.866   1.520   1.435  2.1631  0.0754  1.6158
  788SOL    HW2 2364   2.009   1.565   1.499 -0.9775  0.0319  0.1023
  789SOL     OW 2365   0.285   1.368   1.743 -0.2257 -0.0681  0.2785
  789SOL    HW1 2366   0.348   1.448   1.749  0.8827  0.5725  0.0625
  789SOL    HW2 2367   0.218   1.397   1.666 -0.7081 -1.2647  0.9245
  790SOL     OW 2368   0.402   2.885   0.094  0.2983 -0.2972  0.0367
  790SOL    HW1 2369   0.318   2.840   0.063 -0.4123 -0.9012  0.5972
  790SOL    HW2 2370   0.383   2.928   0.185  1.0379 -0.5239 -1.1856
  791SOL     OW 2371   0.381   0.246   2.666  0.1549 -0.0493  0.1529
  791SOL    HW1 2372   0.385   0.316   2.591 -1.8490 -1.1955  1.8680
  791SOL    HW2 2373   0.361   0.154   2.627  1.9889 -0.2482 -2.3066
  792SOL     OW 2374   2.045   0.499   2.346  0.5977 -0.1313 -0.6969
  792SOL    HW1 2375   2.032   0.587   2.301  1.1275 -1.4237  0.4628
  792SOL    HW2 2376   2.002   0.501   2.439  1.2803  1.8388 -1.8121
  793SOL     OW 2377   0.408   0.546   1.070 -0.0062  0.2831 -0.3983
  793SOL    HW1 2378   0.440   0.458   1.118  0.8728 -0.5622  2.5059
  793SOL    HW2 2379   0.329   0.574   1.130  1.8707 -1.5076  1.0672
  794SOL     OW 2380   0.581   0.470   1.862 -0.6771 -0.3244  0.2562
  794SOL    HW1 2381   0.572   0.424   1.773 -1.4512 -1.1375  2.7313
  794SOL    HW2 2382   0.496   0.458   1.914  1.4821 -1.6721  0.8591
  795SOL     OW 2383   0.068   1.326   0.089  0.1184 -0.1354  0.3224
  795SOL    HW1 2384   0.015   1.355   0.009 -0.9476  0.2919 -1.4037
  795SOL    HW2 2385   0.043   1.383   0.173  0.9940  0.1461  2.0551
  796SOL     OW 2386   0.096   0.064   0.103 -0.5842  0.2642 -0.0580
  796SOL    HW1 2387   0.003   0.096   0.110  0.2825 -0.7567  1.6460
  796SOL    HW2 2388   0.103   3.040   0.153 -0.7814  0.5496  1.6912
  797SOL     OW 2389   1.478   2.657   2.469  0.1347  0.0507  0.1761
  797SOL    HW1 2390   1.452   2.700   2.557  0.3569 -0.9229  0.3978
  797SOL    HW2 2391   1.491   2.561   2.479 -0.9383 -0.0969  1.1375
  798SOL     OW 2392   2.885   0.542   0.803  0.5822  0.0638  0.1936
  798SOL    HW1 2393   2.812   0.546   0.725  1.0392 -1.0538  1.5034
  798SOL    HW2 2394   2.969   0.592   0.766  0.0399  2.4316 -1.3500
  799SOL     OW 2395   2.381   0.558   2.567 -0.0562  0.0479  0.3108
  799SOL    HW1 2396   2.380   0.481   2.500 -1.5460  1.2922  1.2255
  799SOL    HW2 2397   2.458   0.622   2.562  1.4371  1.5841  0.3764
  800SOL     OW 2398   0.056   2.049   0.238 -0.2559 -0.0122 -0.3050
  800SOL    HW1 2399   0.079   2.048   0.337 -0.4152  0.9817  1.1173
  800SOL    HW2 2400   0.111   1.974   0.193 -0.4551 -1.2886  0.4257
  801SOL     OW 2401   1.312   1.523   1.005 -0.7630 -0.1273 -0.2183
  801SOL    HW1 2402   1.316   1.449   1.079  3.9027 -0.1529  1.3315
  801SOL    HW2 2403   1.359   1.497   0.921 -0.5690  2.6033  0.3373
  802SOL     OW 2404   1.179   1.686   2.078  0.3520  0.2040 -0.5188
  802SOL    HW1 2405   1.103   1.739   2.125 -0.1179  0.0213  2.0701
  802SOL    HW2 2406   1.151   1.669   1.985  2.8439  0.1550  2.9428
  803SOL     OW 2407   0.335   1.810   1.143  0.3520 -0.0110  0.0082
  803SOL    HW1 2408   0.252   1.867   1.124 -0.6249  0.1039  1.5170
  803SOL    HW2 2409   0.383   1.847   1.227 -0.1785  2.4843  1.3912
  804SOL     OW 2410   1.131   2.467   1.352 -0.4499  0.1244 -0.0711
  804SOL    HW1 2411   1.171   2.556   1.334 -3.2446 -2.6334 -0.3434
  804SOL    HW2 2412   1.070   2.467   1.430 -0.0959  0.5049 -0.2212
  805SOL     OW 2413   1.886   1.518   3.003 -0.2221  0.0709  0.4435
  805SOL    HW1 2414   1.933   1.460   2.932 -3.6894 -1.3206  0.5302
  805SOL    HW2 2415   1.826   1.454   3.057 -2.9381 -0.5943  0.1579
  806SOL     OW 2416   2.141   2.465   0.869 -0.0334  0.2203 -0.0546
  806SOL    HW1 2417   2.220   2.491   0.808  1.9810 -0.2009  1.5821
  806SOL    HW2 2418   2.057   2.519   0.849 -0.4531 -0.2390 -1.3118
  807SOL     OW 2419   2.960   0.537   2.633 -0.5434 -0.6581  0.3048
  807SOL    HW1 2420   2.879   0.529   2.573 -1.0058  0.3493  1.6576
  807SOL    HW2 2421   3.029   0.592   2.585  1.3033  0.6706 -1.8555
  808SOL     OW 2422   0.275   0.962   0.318 -0.1701 -0.2166 -0.4230
  808SOL    HW1 2423   0.365   0.995   0.289 -1.0103 -1.4783  2.5826
  808SOL    HW2 2424   0.241   0.903   0.250  1.8400  0.1282 -1.0831
  809SOL     OW 2425   2.447   1.057   1.942 -0.3942  0.4574 -0.2297
  809SOL    HW1 2426   2.355   1.094   1.941  2.2541  0.0794  2.0919
  809SOL    HW2 2427   2.466   1.027   1.846 -1.0494 -2.5892 -2.7521
  810SOL     OW 2428   1.190   0.566   1.411 -0.2104  0.1599  0.0500
  810SOL    HW1 2429   1.103   0.521   1.382  1.0965 -0.0887 -1.5672
  810SOL    HW2 2430   1.266   0.502   1.393  0.5628  0.9865 -0.4585
  811SOL     OW 2431   2.145   2.782   1.732  0.1419 -0.1327 -0.5803
  811SOL    HW1 2432   2.130   2.785   1.634  0.5300 -0.1900  0.9003
  811SOL    HW2 2433   2.053   2.787   1.773 -1.1767 -3.5171 -0.4767
  812SOL     OW 2434   1.377   2.248   2.901 -0.3138  0.2987 -0.2339
  812SOL    HW1 2435   1.301   2.305   2.869 -0.0834 -0.5325  1.3981
  812SOL    HW2 2436   1.450   2.300   2.941 -2.3362 -0.9123 -1.1276
  813SOL     OW 2437   1.782   0.878   1.626 -0.4515  0.2600 -0.0200
  813SOL    HW1 2438   1.683   0.895   1.623  0.8644  1.1786 -0.3254
  813SOL    HW2 2439   1.805   0.812   1.550 -0.5221  2.1322  0.0125
  814SOL     OW 2440   0.640   0.337   1.617  0.5685  0.1792  0.6720
  814SOL    HW1 2441   0.643   0.286   1.526  0.2409 -0.1472 -0.2025
  814SOL    HW2 2442   0.732   0.381   1.626  1.0737 -0.1124  0.0797
  815SOL     OW 2443   0.558   0.989   0.259 -0.3432 -0.3782 -0.0991
  815SOL    HW1 2444   0.611   0.923   0.204 -1.6904 -1.0315  1.3313
  815SOL    HW2 2445   0.580   0.962   0.358 -1.5501 -0.5481 -1.6022
  816SOL     OW 2446   2.230   1.603   2.636  0.3603  0.6403  0.6338
  816SOL    HW1 2447   2.133   1.635   2.629  2.1512 -0.7668 -1.7454
  816SOL    HW2 2448   2.292   1.688   2.648  2.2506  0.9243  0.3746
  817SOL     OW 2449   0.709   2.562   0.391 -0.4588 -0.0721  0.0368
  817SOL    HW1 2450   0.797   2.580   0.346  0.3627 -0.4514  3.8180
  817SOL    HW2 2451   0.712   2.478   0.455 -2.0746 -1.5740  4.4579
  818SOL     OW 2452   1.855   0.394   3.048  0.0386  0.2408 -0.3826
  818SOL    HW1 2453   1.937   0.441   3.011  3.6693 -0.0930  1.0441
  818SOL    HW2 2454   1.831   0.309   2.996 -2.6739  1.0725 -3.7627
  819SOL     OW 2455   1.627   0.251   0.127  0.4290 -0.4740 -0.4013
  819SOL    HW1 2456   1.689   0.310   0.074 -0.0848  0.6048  1.6010
  819SOL    HW2 2457   1.579   0.185   0.065  3.7364  0.7673 -0.1629
  820SOL     OW 2458   1.847   0.554   0.212 -0.0380 -0.0557 -0.0622
  820SOL    HW1 2459   1.844   0.459   0.182  3.3833  0.3787 -0.4872
  820SOL    HW2 2460   1.870   0.605   0.126 -0.4143 -3.2133  1.6743
  821SOL     OW 2461   2.572   0.072   0.271 -0.1248  0.1061  0.1732
  821SOL    HW1 2462   2.582   0.112   0.367  0.6406  0.7013  3.6126
  821SOL    HW2 2463   2.503   0.124   0.211 -2.6693  2.4966 -1.8984
  822SOL     OW 2464   0.675   2.517   1.718 -0.5724  0.3771 -0.3989
  822SOL    HW1 2465   0.651   2.613   1.751 -0.4304  2.4492 -0.6688
  822SOL    HW2 2466   0.730   2.459   1.784  0.6234 -0.3266  1.0431
  823SOL     OW 2467   0.053   1.589   1.240 -0.4309 -0.2298  0.2408
  823SOL    HW1 2468   0.066   1.684   1.280  1.5354  1.0363 -0.8307
  823SOL    HW2 2469   3.020   1.578   1.230  1.1277 -1.2179  1.8526
  824SOL     OW 2470   1.738   3.016   2.368 -0.6357  0.6115  0.1510
  824SOL    HW1 2471   1.697   2.922   2.360  2.3027  0.5199 -0.4413
  824SOL    HW2 2472   1.831   3.022   2.330 -0.7633  0.6897  0.5980
  825SOL     OW 2473   1.645   1.123   0.662  0.5305 -0.0098 -0.1987
  825SOL    HW1 2474   1.682   1.106   0.759  1.3887  0.1333  1.1245
  825SOL    HW2 2475   1.542   1.136   0.661 -0.4460  1.3384  0.8847
  826SOL     OW 2476   1.827   0.732   3.032  0.3110 -0.1389  0.2096
  826SOL    HW1 2477   1.860   0.819   2.994  0.0680 -0.3764  0.8238
  826SOL    HW2 2478   1.730   0.698   3.018 -2.5092 -0.9269  1.3146
  827SOL     OW 2479   0.643   1.304   1.513  0.6282  0.1907 -0.5674
  827SOL    HW1 2480   0.597   1.276   1.601 -0.7015  1.2519  0.0531
  827SOL    HW2 2481   0.621   1.403   1.480  0.6079  0.9297 -0.4257
  828SOL     OW 2482   2.174   1.516   1.943 -0.2497  0.6409 -0.3399
  828SOL    HW1 2483   2.180   1.607   1.991 -2.3786  1.3910 -2.0243
  828SOL    HW2 2484   2.156   1.527   1.841  0.3785  2.0573 -1.3408
  829SOL     OW 2485   0.227   1.884   0.069  0.3011 -0.3002 -0.1433
  829SOL    HW1 2486   0.207   1.788   0.039  1.2424  3.0010 -0.9181
  829SOL    HW2 2487   0.326   1.901   0.075  0.5702  2.0130  0.4544
  830SOL     OW 2488   1.834   1.028   0.460 -0.3459 -0.1433 -0.2393
  830SOL    HW1 2489   1.748   1.055   0.509  1.9471 -0.7728 -1.2174
  830SOL    HW2 2490   1.826   1.038   0.356 -2.0751 -0.5249 -2.3731
  831SOL     OW 2491   2.813   1.846   3.047  0.0371  0.2320  0.3011
  831SOL    HW1 2492   2.724   1.871   3.002 -1.4574  2.3146 -1.8124
  831SOL    HW2 2493   2.829   1.900   0.066 -2.2295  1.4593  1.0095
  832SOL     OW 2494   0.880   0.096   0.182 -0.1405  0.3422  0.1725
  832SOL    HW1 2495   0.878   0.007   0.237 -0.6361 -0.3885  2.9089
  832SOL    HW2 2496   0.976   0.126   0.166  2.5003  0.9005 -0.5600
  833SOL     OW 2497   1.087   0.689   2.190 -0.5820 -0.4633  0.0912
  833SOL    HW1 2498   1.152   0.762   2.163 -2.9499 -0.9581  1.7575
  833SOL    HW2 2499   1.054   0.650   2.105 -0.4592  0.1587 -0.8385
  834SOL     OW 2500   0.152   0.353   0.866  0.6077 -0.2131 -0.3727
  834SOL    HW1 2501   0.193   0.333   0.773  1.4681 -0.9986 -1.6186
  834SOL    HW2 2502   0.134   0.453   0.878  0.8507  0.0969  0.5934
  835SOL     OW 2503   2.842   2.985   0.885 -0.0560 -0.1394  0.3742
  835SOL    HW1 2504   2.789   2.901   0.909 -2.1863 -0.5471 -1.5761
  835SOL    HW2 2505   2.889   3.015   0.966 -1.5429  0.8484  1.1464
  836SOL     OW 2506   0.560   1.916   0.336  0.1704 -0.1135 -0.5074
  836SOL    HW1 2507   0.553   1.966   0.428 -0.1262 -1.1885  2.5665
  836SOL    HW2 2508   0.623   1.842   0.354 -2.0118  4.2557  1.2003
  837SOL     OW 2509   1.417   1.612   2.628 -0.3927  0.2258  0.3423
  837SOL    HW1 2510   1.329   1.579   2.592 -0.1246  0.1109  0.0420
  837SOL    HW2 2511   1.458   1.694   2.582  0.1908 -0.2011  0.7355
  838SOL     OW 2512   0.189   0.931   1.948  0.3357 -0.0358 -0.5993
  838SOL    HW1 2513   0.102   0.887   1.987 -0.0674  1.9215  0.2921
  838SOL    HW2 2514   0.272   0.886   1.984 -0.7657  2.4452 -1.8282
  839SOL     OW 2515   0.453   0.497   0.796 -0.0535 -0.0883 -0.4697
  839SOL    HW1 2516   0.387   0.437   0.743 -2.5681 -0.4070 -1.7961
  839SOL    HW2 2517   0.429   0.502   0.893  1.4987  1.2962  0.5933
  840SOL     OW 2518   2.406   0.342   2.419  0.7233 -0.3507 -0.1593
  840SOL    HW1 2519   2.444   0.289   2.495 -1.6346  1.9583 -2.2782
  840SOL    HW2 2520   2.463   0.337   2.338 -1.1257  1.1434  2.1480
  841SOL     OW 2521   0.936   2.402   3.047 -0.0301 -0.4373  0.1200
  841SOL    HW1 2522   0.968   2.476   2.984  0.5093  0.8769 -0.4175
  841SOL    HW2 2523   0.898   2.327   2.986  0.4819 -1.6640  0.3144
  842SOL     OW 2524   0.382   0.074   0.776 -0.4486 -0.2327  0.5087
  842SOL    HW1 2525   0.450   3.064   0.770  3.2835 -1.2331 -0.8024
  842SOL    HW2 2526   0.308   0.044   0.838  1.9254  0.0798 -0.6381
  843SOL     OW 2527   2.993   0.835   0.056 -0.2132  0.0450  0.3113
  843SOL    HW1 2528   2.933   0.757   0.026 -1.3433  0.2688  1.4051
  843SOL    HW2 2529   2.940   0.921   0.047  0.1581 -1.9630 -0.8045
  844SOL     OW 2530   1.092   2.545   2.730 -0.1570 -0.0566 -0.0460
  844SOL    HW1 2531   1.126   2.490   2.649  2.9382 -0.1699  0.7198
  844SOL    HW2 2532   1.165   2.548   2.802 -0.7100 -0.1159  0.2069
  845SOL     OW 2533   2.529   0.205   2.612 -0.2598  0.1352  0.2138
  845SOL    HW1 2534   2.628   0.229   2.622  0.9785 -0.1011 -0.9213
  845SOL    HW2 2535   2.493   0.192   2.702  3.0335  1.6030 -1.6164
  846SOL     OW 2536   1.929   1.835   2.796  0.0659  0.5929  0.2098
  846SOL    HW1 2537   1.867   1.792   2.729 -0.2514  0.6527 -1.8859
  846SOL    HW2 2538   1.885   1.826   2.886  0.4126 -1.8008 -0.5756
  847SOL     OW 2539   2.474   2.899   0.174 -0.0318  0.1186  0.2585
  847SOL    HW1 2540   2.493   2.998   0.177 -2.7989  0.3308 -2.5559
  847SOL    HW2 2541   2.558   2.843   0.199  1.7387 -2.4132  0.0837
  848SOL     OW 2542   0.536   0.410   0.421 -0.6963  0.0070 -0.3435
  848SOL    HW1 2543   0.538   0.363   0.511 -2.2703  0.0722 -2.1603
  848SOL    HW2 2544   0.596   0.365   0.356 -2.7888 -0.3630  0.4287
  849SOL     OW 2545   1.376   2.968   1.620  0.4971 -0.2692 -0.4020
  849SOL    HW1 2546   1.291   2.959   1.683  2.2177  0.4578  2.6816
  849SOL    HW2 2547   1.453   3.003   1.674  0.2940 -1.9702  3.4239
  850SOL     OW 2548   0.770   1.233   0.703 -0.3597 -0.2900  0.0799
  850SOL    HW1 2549   0.854   1.179   0.687 -2.4614 -0.9349  0.3791
  850SOL    HW2 2550   0.686   1.178   0.681  1.2756  1.0199  2.0160
  851SOL     OW 2551   0.374   0.956   3.003  0.0732 -0.4112 -0.0138
  851SOL    HW1 2552   0.330   0.877   3.049 -1.4845  0.5980 -1.2379
  851SOL    HW2 2553   0.333   1.042   3.028  2.6189 -2.5407 -0.5100
  852SOL     OW 2554   1.220   0.173   1.800 -0.4936 -0.4463 -0.3984
  852SOL    HW1 2555   1.232   0.076   1.826  0.3779  1.2878 -2.3547
  852SOL    HW2 2556   1.271   0.188   1.711  1.2885  3.7600 -1.9386
  853SOL     OW 2557   2.428   1.638   0.259  0.1576  0.3738  0.2152
  853SOL    HW1 2558   2.444   1.637   0.159  0.0688 -1.4415 -4.8022
  853SOL    HW2 2559   2.515   1.632   0.311 -0.8655 -1.8282 -0.5102
  854SOL     OW 2560   0.961   1.000   1.982  0.3673  0.6954  0.3056
  854SOL    HW1 2561   0.896   1.053   2.039 -1.0879 -0.4384 -1.0863
  854SOL    HW2 2562   1.054   1.030   1.991 -2.5819 -0.0549  0.5760
  855SOL     OW 2563   0.186   2.745   3.058 -0.1838  0.0601 -0.1342
  855SOL    HW1 2564   0.142   2.762   2.965 -3.3697 -0.1015 -0.5049
  855SOL    HW2 2565   0.198   2.646   0.005 -1.9868  0.5202  0.5138
  856SOL     OW 2566   0.703   0.811   2.073 -0.2911 -0.1109  0.5210
  856SOL    HW1 2567   0.756   0.732   2.033  3.2611  0.0830 -0.1395
  856SOL    HW2 2568   0.728   0.822   2.170  0.2154 -0.1786  1.9365
  857SOL     OW 2569   1.134   0.917   2.579 -0.4068  0.7296 -0.2024
  857SOL    HW1 2570   1.185   0.955   2.499  1.3229 -2.8914  2.9927
  857SOL    HW2 2571   1.133   0.815   2.576  0.0767  0.8216  0.0129
  858SOL     OW 2572   3.051   1.254   2.095 -0.5391 -0.5547 -0.0980
  858SOL    HW1 2573   0.019   1.342   2.137 -1.9811  1.4837 -0.5588
  858SOL    HW2 2574   0.029   1.234   2.006  0.2547 -0.2807  0.7023
  859SOL     OW 2575   2.520   0.220   0.972  0.0229 -0.3756  0.0075
  859SOL    HW1 2576   2.546   0.270   1.054  0.1855 -2.0598 -2.3109
  859SOL    HW2 2577   2.526   0.282   0.894 -2.6808 -4.2478  2.6110
  860SOL     OW 2578   1.740   2.934   0.183  0.0813  0.1233 -0.2397
  860SOL    HW1 2579   1.730   3.022   0.227 -1.6345  0.5448 -1.1575
  860SOL    HW2 2580   1.723   2.866   0.256 -0.5986  1.2658  0.1184
  861SOL     OW 2581   0.927   0.583   1.147  0.1408  0.2639 -0.0480
  861SOL    HW1 2582   0.838   0.603   1.101 -1.4399  1.8531  2.2615
  861SOL    HW2 2583   0.987   0.665   1.150  0.5176  1.3697 -1.6925
  862SOL     OW 2584   1.349   0.209   2.443  0.1907  0.2834  0.2588
  862SOL    HW1 2585   1.329   0.155   2.524 -0.8745  1.7727  0.3383
  862SOL    HW2 2586   1.410   0.155   2.379 -0.6089  1.5718  2.6177
  863SOL     OW 2587   2.468   2.373   0.646 -0.3248  0.1489 -0.1296
  863SOL    HW1 2588   2.503   2.405   0.557  1.3322  0.1964 -0.5190
  863SOL    HW2 2589   2.412   2.445   0.689  0.4375 -1.5796  0.2188
  864SOL     OW 2590   2.667   0.140   2.056  0.5231  0.4175  0.7255
  864SOL    HW1 2591   2.589   0.108   1.995 -1.0223 -0.8314  1.0494
  864SOL    HW2 2592   2.740   0.190   2.005 -2.0558 -0.0531  0.7944
  865SOL     OW 2593   1.512   0.951   1.761  0.0988 -0.3217  0.8323
  865SOL    HW1 2594   1.493   0.870   1.820  2.2097  0.2481  0.2849
  865SOL    HW2 2595   1.424   0.986   1.722  1.5593  1.1315  1.8176
  866SOL     OW 2596   1.638   2.536   1.145  0.3004 -0.7454 -0.0004
  866SOL    HW1 2597   1.581   2.471   1.101  1.7641  1.9408 -0.0165
  866SOL    HW2 2598   1.676   2.605   1.082  1.2980  1.0618 -0.1086
  867SOL     OW 2599   2.170   2.720   0.526 -0.0134 -0.4204  1.0101
  867SOL    HW1 2600   2.083   2.765   0.562 -0.2657  0.0932 -1.0783
  867SOL    HW2 2601   2.245   2.790   0.516  1.4003 -1.6228 -0.5230
  868SOL     OW 2602   0.453   2.075   1.896  0.2685 -0.0130 -0.7200
  868SOL    HW1 2603   0.376   2.039   1.842  0.7036 -0.2390 -1.8317
  868SOL    HW2 2604   0.439   2.177   1.914  0.5948 -1.0241  0.5306
  869SOL     OW 2605   2.071   2.375   2.424  0.7329  0.1782 -0.1811
  869SOL    HW1 2606   2.119   2.391   2.513 -0.8769  1.0751  2.9803
  869SOL    HW2 2607   2.131   2.340   2.352  1.0015  1.5739 -0.4981
  870SOL     OW 2608   1.771   1.515   0.844  0.2078 -0.8517 -0.2020
  870SOL    HW1 2609   1.845   1.514   0.777 -1.9725 -0.2194  0.3241
  870SOL    HW2 2610   1.751   1.421   0.870  0.7729  1.5471 -0.0955
  871SOL     OW 2611   0.410   1.542   1.127  0.4931  0.0712 -0.7878
  871SOL    HW1 2612   0.398   1.641   1.117 -1.6562  0.8284 -2.3698
  871SOL    HW2 2613   0.327   1.488   1.099  0.9113  1.6124 -2.7393
  872SOL     OW 2614   0.580   1.442   2.563 -0.0565  0.2127 -0.1549
  872SOL    HW1 2615   0.588   1.345   2.589 -0.0971 -1.4562  1.7028
  872SOL    HW2 2616   0.636   1.489   2.632  0.7715 -1.9889 -1.5310
  873SOL     OW 2617   0.800   1.798   1.977  0.1845  0.1065  0.2127
  873SOL    HW1 2618   0.883   1.827   2.029 -1.5116  1.2370  1.4040
  873SOL    HW2 2619   0.799   1.697   1.974 -0.0496  0.5403 -2.7276
  874SOL     OW 2620   0.914   0.731   1.785  0.7375 -0.0199 -0.0975
  874SOL    HW1 2621   1.005   0.696   1.752  0.0260 -2.3364 -0.7062
  874SOL    HW2 2622   0.917   0.784   1.869  3.9017 -0.8126 -0.6821
  875SOL     OW 2623   2.754   2.652   0.535 -0.1318  0.1908 -0.9041
  875SOL    HW1 2624   2.678   2.595   0.491 -1.0027 -0.3559  1.2755
  875SOL    HW2 2625   2.722   2.750   0.542 -0.4278 -0.6293 -1.2186
  876SOL     OW 2626   0.671   1.458   0.487 -0.3974 -0.3683  0.0413
  876SOL    HW1 2627   0.697   1.453   0.585  1.4582  0.6089 -1.2857
  876SOL    HW2 2628   0.571   1.449   0.485  3.0045  2.8507 -2.4111
  877SOL     OW 2629   2.635   0.047   0.778 -0.7253 -0.0302  0.6661
  877SOL    HW1 2630   2.572   0.087   0.848  1.5957 -0.0221  0.8500
  877SOL    HW2 2631   2.719   0.016   0.822 -1.7883 -1.6934 -1.2067
  878SOL     OW 2632   2.114   1.684   0.541  0.2090  0.4547 -0.0122
  878SOL    HW1 2633   2.216   1.677   0.526  0.1927  0.7536 -0.9438
  878SOL    HW2 2634   2.069   1.603   0.587 -2.2441 -2.1257  2.2539
  879SOL     OW 2635   2.446   1.591   1.267  0.3296  0.8134  0.0126
  879SOL    HW1 2636   2.481   1.513   1.324  0.6490 -1.8285  1.0626
  879SOL    HW2 2637   2.462   1.579   1.168 -0.1234  0.2544  1.7407
  880SOL     OW 2638   0.491   2.299   0.607 -0.1408 -0.4601  0.0803
  880SOL    HW1 2639   0.391   2.280   0.582  1.1533 -1.3084 -0.1429
  880SOL    HW2 2640   0.506   2.373   0.677  0.0834 -1.4196 -2.1777
  881SOL     OW 2641   0.935   0.935   0.810 -0.0438  0.0913  0.3654
  881SOL    HW1 2642   0.993   0.898   0.731  2.3855  0.4935  0.8282
  881SOL    HW2 2643   0.976   1.017   0.854 -2.0059  0.8981 -0.2270
  882SOL     OW 2644   2.433   0.966   0.541 -0.6965 -0.9261  0.8893
  882SOL    HW1 2645   2.349   0.983   0.590 -2.1769  1.7652  0.5510
  882SOL    HW2 2646   2.408   0.896   0.468 -1.4023 -0.1714  2.5040
  883SOL     OW 2647   1.536   0.144   1.737  0.8020  0.4073  0.2394
  883SOL    HW1 2648   1.535   0.172   1.834 -1.6656  0.8089 -0.3067
  883SOL    HW2 2649   1.477   0.194   1.670  0.8577  0.2647  1.0718
  884SOL     OW 2650   2.739   2.935   1.399 -0.5471  0.0711  0.3413
  884SOL    HW1 2651   2.736   3.024   1.347  1.1482 -2.7615  0.7711
  884SOL    HW2 2652   2.709   2.946   1.498 -0.4558  3.4145 -0.7752
  885SOL     OW 2653   1.473   0.950   2.459  0.0350 -0.2145  0.5772
  885SOL    HW1 2654   1.391   0.971   2.401 -2.1392 -1.6536  0.8225
  885SOL    HW2 2655   1.460   0.978   2.558 -0.5782  0.1222  0.0776
  886SOL     OW 2656   1.594   0.602   2.099 -0.2274  0.1798 -0.2810
  886SOL    HW1 2657   1.659   0.530   2.070 -1.6977  0.6157 -0.7571
  886SOL    HW2 2658   1.533   0.555   2.168 -0.1485 -0.2064  0.2653
  887SOL     OW 2659   1.442   0.433   1.333  0.4050 -0.3471  0.2723
  887SOL    HW1 2660   1.379   0.447   1.254  0.5505 -0.5468  2.5366
  887SOL    HW2 2661   1.541   0.432   1.303  4.5271 -0.3200 -1.3965
  888SOL     OW 2662   2.538   1.666   2.116 -0.1865  0.3009  0.7141
  888SOL    HW1 2663   2.605   1.651   2.044 -2.6734  3.8952  0.1442
  888SOL    HW2 2664   2.495   1.581   2.157  1.3884 -0.5385  0.2419
  889SOL     OW 2665   1.685   2.272   0.775 -0.5228 -0.0138 -0.5778
  889SOL    HW1 2666   1.654   2.192   0.832  2.5112  0.6067  0.4337
  889SOL    HW2 2667   1.784   2.279   0.786 -2.7136  0.3362  1.8599
  890SOL     OW 2668   1.047   1.944   0.605 -0.7478 -0.0701 -0.4292
  890SOL    HW1 2669   1.112   1.892   0.663 -2.2682  0.5109 -1.0631
  890SOL    HW2 2670   0.995   2.010   0.664  1.3540  0.0999 -2.3398
  891SOL     OW 2671   2.609   0.738   2.703 -0.3426 -0.6282  0.3933
  891SOL    HW1 2672   2.700   0.754   2.745 -0.1000 -0.6804  0.6773
  891SOL    HW2 2673   2.553   0.683   2.759  0.7917 -1.3614 -2.1360
  892SOL     OW 2674   1.116   0.656   2.560 -0.4197  0.3281  0.3214
  892SOL    HW1 2675   1.105   0.577   2.494  2.6562 -3.8825 -1.6789
  892SOL    HW2 2676   1.158   0.627   2.647 -0.0664  0.7972 -1.5023
  893SOL     OW 2677   1.482   0.086   1.339 -0.2171 -0.0657  0.0310
  893SOL    HW1 2678   1.557   0.133   1.391 -2.0940 -1.2779  2.0825
  893SOL    HW2 2679   1.484   3.051   1.359 -1.0294  1.1732  0.7813
  894SOL     OW 2680   2.655   2.914   0.590  0.3215  0.3305 -0.2819
  894SOL    HW1 2681   2.556   2.915   0.582  3.4499  2.1750  1.0202
  894SOL    HW2 2682   2.686   2.950   0.680 -0.9773 -0.9740 -0.7753
  895SOL     OW 2683   1.747   2.521   2.889  0.2283 -1.0004 -0.1719
  895SOL    HW1 2684   1.735   2.487   2.797  0.6106  1.5252  2.4457
  895SOL    HW2 2685   1.839   2.573   2.901  2.2902  1.4134  0.2058
  896SOL     OW 2686   2.106   0.041   2.111 -0.1827  0.8362 -0.3235
  896SOL    HW1 2687   2.067   3.021   2.152 -1.9506  0.8983 -1.4396
  896SOL    HW2 2688   2.058   0.123   2.147 -0.7130  2.1852  1.4117
  897SOL     OW 2689   0.280   1.855   1.510 -0.0675 -0.6275  0.1148
  897SOL    HW1 2690   0.263   1.748   1.519  0.4985 -2.1579  0.5824
  897SOL    HW2 2691   0.348   1.879   1.440  2.5071 -3.0461  0.0164
  898SOL     OW 2692   2.651   1.698   1.870  0.0768 -0.0198 -0.0689
  898SOL    HW1 2693   2.578   1.767   1.853 -1.0061 -2.4822 -1.7868
  898SOL    HW2 2694   2.684   1.661   1.780  1.8614  0.1714  0.2076
  899SOL     OW 2695   1.517   2.010   1.198 -0.3947  0.8357  0.7065
  899SOL    HW1 2696   1.434   2.065   1.216  2.0656  0.6147 -0.5717
  899SOL    HW2 2697   1.499   1.913   1.165  2.3037  1.1729 -0.6943
  900SOL     OW 2698   0.984   0.092   2.820 -0.5831  0.1157 -0.4347
  900SOL    HW1 2699   0.904   0.117   2.883 -0.2401 -0.1195 -2.9221
  900SOL    HW2 2700   1.037   0.176   2.811 -2.1801 -2.6727 -1.4558
  901SOL     OW 2701   1.329   1.646   2.311  0.4531 -0.0681  0.0463
  901SOL    HW1 2702   1.264   1.675   2.235 -1.3193 -0.2395 -3.2766
  901SOL    HW2 2703   1.427   1.670   2.286  0.6616 -0.9172  0.7964
  902SOL     OW 2704   2.859   3.027   2.850 -0.8476 -0.5456  0.0343
  902SOL    HW1 2705   2.813   0.011   2.922  1.1251  2.1639 -0.6625
  902SOL    HW2 2706   2.962   3.041   2.859 -1.2728  0.3930  1.6220
  903SOL     OW 2707   2.200   0.915   2.110  0.0703 -0.0671  0.3978
  903SOL    HW1 2708   2.172   0.832   2.055  1.6555  0.8014  1.8060
  903SOL    HW2 2709   2.246   0.892   2.198  0.3552 -1.5340 -0.0899
  904SOL     OW 2710   1.482   0.431   2.302 -0.6836  0.3276  0.0294
  904SOL    HW1 2711   1.584   0.413   2.325  2.8711  0.6630  1.0535
  904SOL    HW2 2712   1.437   0.360   2.360  0.1021  1.2195 -0.8757
  905SOL     OW 2713   2.103   2.526   1.578  0.0971  0.1316 -0.1754
  905SOL    HW1 2714   2.197   2.565   1.564 -0.3951 -0.7677 -0.1349
  905SOL    HW2 2715   2.099   2.481   1.672 -3.3702 -0.1804  3.1530
  906SOL     OW 2716   1.467   1.889   0.287 -0.2652 -0.6902  0.1457
  906SOL    HW1 2717   1.411   1.822   0.235 -0.3372 -1.1376 -1.5293
  906SOL    HW2 2718   1.493   1.967   0.230  4.4750 -2.2399  0.0441
  907SOL     OW 2719   0.693   2.676   0.682 -0.2078 -0.4188  0.6648
  907SOL    HW1 2720   0.718   2.731   0.763 -3.2730 -2.3865 -3.5347
  907SOL    HW2 2721   0.677   2.724   0.598 -0.2459 -1.3950  0.6540
  908SOL     OW 2722   1.225   2.561   1.944  0.4069 -0.0180  0.2974
  908SOL    HW1 2723   1.321   2.548   1.979  0.9834 -2.0771 -0.1004
  908SOL    HW2 2724   1.180   2.471   1.956  0.1973  1.3009  2.7666
  909SOL     OW 2725   2.119   0.458   1.927 -0.0996  0.3817 -0.3394
  909SOL    HW1 2726   2.212   0.460   1.958 -3.7066 -2.1398 -1.5122
  909SOL    HW2 2727   2.065   0.404   1.991  1.2756 -2.9648 -0.6120
  910SOL     OW 2728   1.254   0.979   2.943 -0.3119  0.4587 -0.0207
  910SOL    HW1 2729   1.161   1.025   2.939  1.1549 -2.9783 -0.9201
  910SOL    HW2 2730   1.248   0.893   3.001 -3.5169 -0.3395  2.3579
  911SOL     OW 2731   2.843   1.123   3.045 -0.4409 -0.1672 -0.0719
  911SOL    HW1 2732   2.748   1.091   3.067  0.0275  0.4066 -1.4267
  911SOL    HW2 2733   2.871   1.207   0.018  0.7806 -1.4605 -3.3898
  912SOL     OW 2734   0.389   2.411   0.301 -0.2116  0.5404 -0.2764
  912SOL    HW1 2735   0.464   2.346   0.313 -0.9931  0.8105  0.0825
  912SOL    HW2 2736   0.345   2.397   0.211 -1.2811  0.0446  2.4763
  913SOL     OW 2737   2.752   2.213   2.480 -0.6278 -0.3806 -0.3604
  913SOL    HW1 2738   2.782   2.126   2.431 -0.3429 -1.0847 -0.2730
  913SOL    HW2 2739   2.827   2.247   2.544 -0.2829 -1.5799  3.2061
  914SOL     OW 2740   1.374   1.887   1.594  0.2963 -0.2460 -0.6795
  914SOL    HW1 2741   1.440   1.841   1.532  2.9300  0.4517 -1.5785
  914SOL    HW2 2742   1.394   1.866   1.692 -0.6628 -1.7928 -2.6562
  915SOL     OW 2743   0.823   2.735   2.199  0.3346 -0.2952 -0.1979
  915SOL    HW1 2744   0.812   2.656   2.139  3.2088  2.9615  1.9145
  915SOL    HW2 2745   0.792   2.818   2.151 -1.2450  3.7221 -0.9118
  916SOL     OW 2746   0.572   0.972   1.749 -0.7891 -0.7109 -0.3416
  916SOL    HW1 2747   0.469   0.967   1.753  0.7267 -0.7433 -0.3040
  916SOL    HW2 2748   0.615   0.885   1.713 -2.2326 -2.0529  1.0013
  917SOL     OW 2749   2.725   0.619   0.598  0.3964  0.3619 -0.0180
  917SOL    HW1 2750   2.714   0.522   0.566  1.1179 -1.5233 -0.2170
  917SOL    HW2 2751   2.752   0.677   0.518  1.1729  1.1182  1.8729
  918SOL     OW 2752   1.823   2.695   2.507 -0.8126 -0.3480  0.4827
  918SOL    HW1 2753   1.795   2.603   2.539  1.1074 -2.5140 -3.2819
  918SOL    HW2 2754   1.760   2.730   2.436  2.8281 -0.1263  0.1663
  919SOL     OW 2755   1.737   2.625   1.697  0.5518  0.8229 -0.3137
  919SOL    HW1 2756   1.645   2.643   1.734 -2.5452 -1.4982 -2.7840
  919SOL    HW2 2757   1.731   2.630   1.594 -2.1089  0.8623  0.7928
  920SOL     OW 2758   0.499   0.630   2.979 -0.1751 -0.1088 -0.0430
  920SOL    HW1 2759   0.480   0.714   2.930 -0.8916  1.6834  2.4868
  920SOL    HW2 2760   0.556   0.562   2.926  1.5040 -0.0304  0.5657
  921SOL     OW 2761   2.867   0.756   2.781 -0.1651  0.4591  0.0983
  921SOL    HW1 2762   2.944   0.815   2.804 -2.6293 -1.2295 -1.3590
  921SOL    HW2 2763   2.897   0.678   2.721 -1.3180 -1.3891 -2.0560
  922SOL     OW 2764   0.758   1.759   0.658  0.3248 -0.4390 -0.1381
  922SOL    HW1 2765   0.812   1.842   0.684  1.0358 -2.1565 -1.3169
  922SOL    HW2 2766   0.740   1.753   0.556  1.2541 -2.2176 -1.6808
  923SOL     OW 2767   0.518   1.246   1.748 -0.2377 -0.1449  0.1884
  923SOL    HW1 2768   0.415   1.258   1.741 -2.5409  0.6157 -1.3556
  923SOL    HW2 2769   0.532   1.145   1.755 -1.4062  0.5648 -0.6002
  924SOL     OW 2770   1.778   0.176   2.913  0.5734  0.1773 -0.0540
  924SOL    HW1 2771   1.695   0.126   2.943  1.4028  0.7384 -1.2858
  924SOL    HW2 2772   1.839   0.112   2.858 -1.6535 -1.9516  1.1718
  925SOL     OW 2773   2.737   1.362   1.239 -0.1652 -0.0536 -0.6943
  925SOL    HW1 2774   2.735   1.334   1.139 -0.3114  0.8738 -3.0866
  925SOL    HW2 2775   2.812   1.314   1.290  0.7751 -0.0048 -1.4122
  926SOL     OW 2776   2.073   0.294   1.413 -0.0814  0.2795 -0.6053
  926SOL    HW1 2777   2.075   0.316   1.512 -1.1683  0.1386 -0.0558
  926SOL    HW2 2778   2.159   0.314   1.369 -1.0628 -0.3509 -0.5770
  927SOL     OW 2779   1.791   3.043   1.333  0.1388  0.3040 -0.1459
  927SOL    HW1 2780   1.755   2.947   1.313  1.1369  1.2026  2.3211
  927SOL    HW2 2781   1.887   3.029   1.349 -0.9959 -1.2320 -1.7563
  928SOL     OW 2782   0.057   1.080   2.296  0.3679 -0.1873 -0.1202
  928SOL    HW1 2783   0.024   1.136   2.219 -0.9461  2.1858 -1.0284
  928SOL    HW2 2784   0.020   0.981   2.290 -0.9858 -0.9974  1.7549
  929SOL     OW 2785   2.626   0.839   0.960 -0.3879  0.1265 -0.0613
  929SOL    HW1 2786   2.604   0.939   0.961 -0.1197 -0.3986  2.2353
  929SOL    HW2 2787   2.619   0.790   1.049  0.7877 -3.6408 -0.2019
  930SOL     OW 2788   2.961   2.493   2.037  0.1846  0.0470  0.3044
  930SOL    HW1 2789   2.976   2.579   1.986 -1.8557 -0.1668 -2.2903
  930SOL    HW2 2790   3.011   2.419   1.990  0.4590  2.4472  1.8393
  931SOL     OW 2791   1.903   0.718   1.096 -0.2476  0.0590 -0.8715
  931SOL    HW1 2792   1.822   0.776   1.114  0.5042  0.4375 -0.5893
  931SOL    HW2 2793   1.981   0.751   1.149 -1.1667 -0.9160  0.5423
  932SOL     OW 2794   0.111   1.173   1.850 -0.0819 -1.2691 -0.1656
  932SOL    HW1 2795   0.153   1.082   1.878  0.9600 -1.0581 -3.6238
  932SOL    HW2 2796   0.185   1.235   1.811  0.4766  0.6618 -0.6604
  933SOL     OW 2797   2.914   2.082   1.424  0.1810  0.1925  0.0851
  933SOL    HW1 2798   2.880   2.115   1.513  0.4113  0.0738  1.8041
  933SOL    HW2 2799   2.865   2.001   1.397  1.9013 -0.5997  2.0681
  934SOL     OW 2800   0.726   1.906   1.367  0.5196  0.0213  0.4487
  934SOL    HW1 2801   0.748   1.807   1.363 -2.7796 -0.9603  1.1013
  934SOL    HW2 2802   0.763   1.952   1.453  0.3628  3.9964  0.7131
  935SOL     OW 2803   2.824   1.375   1.743  0.4173 -0.0211  0.4368
  935SOL    HW1 2804   2.874   1.289   1.755 -2.7324  3.5803  2.0865
  935SOL    HW2 2805   2.762   1.381   1.820 -0.9574  1.7124 -2.3318
  936SOL     OW 2806   2.506   1.358   1.709  0.2278  0.4352 -0.0210
  936SOL    HW1 2807   2.532   1.325   1.802 -3.2343  0.3426 -0.9552
  936SOL    HW2 2808   2.436   1.430   1.704  2.0551 -0.7308 -2.2243
  937SOL     OW 2809   2.047   0.831   1.302 -0.0438  0.5125 -0.2211
  937SOL    HW1 2810   2.076   0.814   1.396  0.0987 -1.2137  0.4427
  937SOL    HW2 2811   2.041   0.928   1.284 -0.2042 -1.5518  2.5664
  938SOL     OW 2812   0.523   2.333   2.858 -0.3799  0.1199 -0.5706
  938SOL    HW1 2813   0.538   2.430   2.839 -0.4490  0.6814  2.6745
  938SOL    HW2 2814   0.613   2.280   2.864 -0.5674 -0.6334  0.0555
  939SOL     OW 2815   2.391   1.816   2.709 -0.0184 -0.4313  0.1554
  939SOL    HW1 2816   2.466   1.822   2.776 -0.8399 -1.0190  0.9825
  939SOL    HW2 2817   2.404   1.879   2.627  0.9701 -1.0784  1.6272
  940SOL     OW 2818   1.570   1.955   0.544  0.0162 -0.1152 -0.5158
  940SOL    HW1 2819   1.529   1.909   0.459 -1.1122 -1.1297 -1.0462
  940SOL    HW2 2820   1.605   1.892   0.618 -1.4749  1.5186  1.2243
  941SOL     OW 2821   2.011   2.579   2.940 -0.3920  0.1697 -0.0138
  941SOL    HW1 2822   2.060   2.494   2.973  1.1526 -3.7146  0.7592
  941SOL    HW2 2823   2.062   2.620   2.861  3.0670 -0.0410  0.9883
  942SOL     OW 2824   1.208   2.577   0.550 -0.1199  0.1841 -0.3557
  942SOL    HW1 2825   1.228   2.594   0.648 -3.1583  1.2363 -0.6336
  942SOL    HW2 2826   1.120   2.521   0.543 -3.2971 -0.3323 -0.8118
  943SOL     OW 2827   2.195   1.058   1.653 -0.3448 -0.2471 -0.2200
  943SOL    HW1 2828   2.181   1.088   1.752 -1.0981  1.9355  0.3796
  943SOL    HW2 2829   2.152   1.131   1.597 -1.6890  1.7987 -1.3690
  944SOL     OW 2830   1.435   1.008   2.755 -0.1370  0.5315  0.6107
  944SOL    HW1 2831   1.359   0.999   2.822 -0.9770 -0.1376  3.0808
  944SOL    HW2 2832   1.459   1.105   2.736 -0.0505 -1.1630 -0.6435
  945SOL     OW 2833   2.847   2.015   1.135 -0.3235  0.2835 -0.5336
  945SOL    HW1 2834   2.819   1.934   1.193  2.0747 -0.4311  1.6784
  945SOL    HW2 2835   2.877   2.082   1.200 -0.4774 -2.5995 -3.0042
  946SOL     OW 2836   0.495   0.835   2.791  0.2379 -0.4326  0.0418
  946SOL    HW1 2837   0.461   0.891   2.868 -0.5988 -3.1624 -3.9502
  946SOL    HW2 2838   0.576   0.874   2.746 -0.2088 -1.8028 -2.0804
  947SOL     OW 2839   1.999   0.021   1.845 -0.3068 -0.0981  0.3617
  947SOL    HW1 2840   2.048   0.018   1.932 -1.9889 -0.3938 -2.0999
  947SOL    HW2 2841   2.059   0.015   1.766 -0.8562  0.2562 -1.0560
  948SOL     OW 2842   0.154   1.634   0.957 -0.6489 -0.2261  0.2493
  948SOL    HW1 2843   0.209   1.692   1.021 -0.7817 -0.5002 -0.2541
  948SOL    HW2 2844   0.143   1.539   0.998  1.0008 -1.0908 -0.7604
  949SOL     OW 2845   1.229   1.113   1.958 -0.1988  0.0252 -0.2299
  949SOL    HW1 2846   1.253   1.121   1.856  0.2897  0.9210 -0.4919
  949SOL    HW2 2847   1.213   1.205   1.997  1.4383 -1.1051 -0.0333
  950SOL     OW 2848   0.317   0.814   0.936  0.0717  0.4486 -0.0714
  950SOL    HW1 2849   0.318   0.880   0.862 -2.6760 -0.8232  2.0461
  950SOL    HW2 2850   0.398   0.749   0.943  1.4439  0.1610  0.9216
  951SOL     OW 2851   0.443   2.050   2.249 -0.0219 -0.2637  0.1937
  951SOL    HW1 2852   0.440   1.951   2.224  0.0993  1.7958  4.7033
  951SOL    HW2 2853   0.530   2.092   2.213  1.0448 -0.8218 -1.0333
  952SOL     OW 2854   1.538   1.467   0.246 -0.4791 -0.3131  0.3830
  952SOL    HW1 2855   1.462   1.532   0.271 -0.6458 -0.7359  0.6895
  952SOL    HW2 2856   1.531   1.432   0.150 -1.1455 -2.4456  1.2299
  953SOL     OW 2857   1.234   0.704   0.050 -0.0304 -0.0482  0.8611
  953SOL    HW1 2858   1.209   0.645   3.036  1.2866 -2.9490 -0.7812
  953SOL    HW2 2859   1.143   0.730   0.091 -1.6778  1.8240 -1.6999
  954SOL     OW 2860   2.102   1.169   0.310 -0.0758 -0.6570 -0.1694
  954SOL    HW1 2861   2.133   1.257   0.351 -0.7670  0.7074  0.5721
  954SOL    HW2 2862   2.005   1.148   0.332 -3.6980 -3.1033 -1.9914
  955SOL     OW 2863   2.477   2.764   2.825  0.5723 -0.4066  0.2350
  955SOL    HW1 2864   2.489   2.802   2.732  2.2014 -1.7159  1.1620
  955SOL    HW2 2865   2.563   2.764   2.871 -1.7435  0.9513 -1.0699
  956SOL     OW 2866   1.035   0.816   1.382 -0.3587  0.4393  0.0022
  956SOL    HW1 2867   1.053   0.820   1.284  1.0065  1.1506  1.0979
  956SOL    HW2 2868   1.086   0.733   1.419 -0.4327  0.0477  0.0807
  957SOL     OW 2869   1.676   1.096   1.369  0.5551  0.2027 -0.1170
  957SOL    HW1 2870   1.767   1.095   1.415  1.1111  1.7986 -0.2081
  957SOL    HW2 2871   1.599   1.138   1.433 -1.5036 -0.6723  1.3233
  958SOL     OW 2872   0.326   1.763   0.563 -0.2597 -0.4375 -0.1199
  958SOL    HW1 2873   0.341   1.716   0.472 -3.6948 -1.0239 -0.6408
  958SOL    HW2 2874   0.395   1.728   0.631  1.1668  2.4856  0.4701
  959SOL     OW 2875   2.048   1.310   0.914 -0.0723 -0.7213 -0.4395
  959SOL    HW1 2876   1.989   1.304   0.998  0.2920 -1.3767 -0.6733
  959SOL    HW2 2877   2.098   1.224   0.907 -0.0111  2.3022 -0.2760
  960SOL     OW 2878   0.002   1.286   2.737 -0.5113 -0.1851 -0.2900
  960SOL    HW1 2879   0.092   1.254   2.702 -1.9284  1.1114  1.0943
  960SOL    HW2 2880   3.006   1.206   2.750  0.7102 -1.8222 -2.1168
  961SOL     OW 2881   1.052   1.551   0.605 -0.3177 -0.1927 -0.0609
  961SOL    HW1 2882   1.002   1.501   0.676  0.2147 -0.4671  2.2320
  961SOL    HW2 2883   1.106   1.626   0.648 -0.2441  1.5347 -1.3044
  962SOL     OW 2884   1.002   1.153   0.591 -0.1834 -0.0091  0.4291
  962SOL    HW1 2885   1.064   1.085   0.546 -0.0720 -2.9917  0.9794
  962SOL    HW2 2886   1.047   1.240   0.624  0.1491 -0.1176 -4.2112
  963SOL     OW 2887   1.089   2.060   2.297  0.1679 -0.2676  0.1134
  963SOL    HW1 2888   1.187   2.087   2.309 -1.1169  0.7417 -0.8187
  963SOL    HW2 2889   1.044   2.081   2.387 -0.4188  2.4803 -0.4224
  964SOL     OW 2890   2.747   2.790   2.947 -0.1141 -0.3130  0.4733
  964SOL    HW1 2891   2.790   2.866   2.895 -0.7816  1.6769  1.4312
  964SOL    HW2 2892   2.805   2.706   2.943  0.3822  0.9607 -0.5599
  965SOL     OW 2893   0.698   2.403   0.150 -0.3530 -0.2329 -0.2938
  965SOL    HW1 2894   0.785   2.396   0.098 -0.2891  1.1444 -0.5056
  965SOL    HW2 2895   0.698   2.480   0.220 -0.4126  0.6639 -0.1778
  966SOL     OW 2896   3.005   1.801   2.841 -0.0437 -0.2715  0.1816
  966SOL    HW1 2897   2.965   1.821   2.934  2.0483  1.6744 -0.8446
  966SOL    HW2 2898   2.952   1.849   2.770  0.4125  1.6866 -0.0563
  967SOL     OW 2899   1.964   2.955   0.036  0.3951 -0.3491 -0.0523
  967SOL    HW1 2900   1.882   2.951   0.104 -0.1045  1.5233 -0.8950
  967SOL    HW2 2901   2.054   2.947   0.074 -1.6198  1.4452  0.9604
  968SOL     OW 2902   1.910   2.874   0.586  0.0482  0.7373 -0.1192
  968SOL    HW1 2903   1.825   2.837   0.548  1.0005 -3.4052 -2.0519
  968SOL    HW2 2904   1.900   2.933   0.667 -0.6861 -0.9968  1.6077
  969SOL     OW 2905   0.693   1.250   2.318 -0.1816 -0.3235  0.4748
  969SOL    HW1 2906   0.617   1.188   2.299  1.5945  1.0199 -0.9644
  969SOL    HW2 2907   0.721   1.250   2.415  1.2833 -0.2592 -1.2345
  970SOL     OW 2908   1.715   1.268   0.926 -0.1795 -0.1795 -0.0788
  970SOL    HW1 2909   1.718   1.168   0.943 -0.5486 -1.1614  1.7409
  970SOL    HW2 2910   1.695   1.317   1.012 -1.0287  1.8080  0.5693
  971SOL     OW 2911   2.162   0.056   1.635  0.4176  0.2024 -0.0466
  971SOL    HW1 2912   2.106   0.141   1.635  0.7381 -0.6763  0.0392
  971SOL    HW2 2913   2.221   0.047   1.550  0.0933  0.7772 -0.2568
  972SOL     OW 2914   0.086   2.756   1.871 -0.3940  0.8003  0.2214
  972SOL    HW1 2915   0.182   2.736   1.896 -0.1623 -0.2082 -2.1186
  972SOL    HW2 2916   0.056   2.695   1.794  1.6897  1.5731  0.0487
  973SOL     OW 2917   0.141   0.252   2.483 -0.0606  0.3923 -0.0792
  973SOL    HW1 2918   0.070   0.197   2.536 -3.0734 -1.1418  1.8357
  973SOL    HW2 2919   0.178   0.327   2.544  1.0321  2.5131  2.0009
  974SOL     OW 2920   2.282   1.232   2.303  0.0230 -0.4781 -0.9924
  974SOL    HW1 2921   2.359   1.171   2.286 -0.3738 -0.0316 -0.4193
  974SOL    HW2 2922   2.196   1.180   2.293 -0.1413 -0.6063 -2.3755
  975SOL     OW 2923   0.635   0.161   1.419  0.4098  0.2113  0.5829
  975SOL    HW1 2924   0.560   0.095   1.442 -0.6917  1.1361 -1.9580
  975SOL    HW2 2925   0.675   0.127   1.333 -1.4729  1.4108 -1.9467
  976SOL     OW 2926   0.748   1.973   2.375 -0.3344  0.4497  0.2635
  976SOL    HW1 2927   0.715   2.038   2.305  0.5885 -1.0044  0.4018
  976SOL    HW2 2928   0.819   2.021   2.424 -1.1435  0.8786 -1.5864
  977SOL     OW 2929   0.492   0.077   0.402  0.1194 -0.7293  0.0814
  977SOL    HW1 2930   0.515   0.130   0.488 -0.0395  1.1205  2.3479
  977SOL    HW2 2931   0.406   0.112   0.361  4.1956  0.1598 -2.7611
  978SOL     OW 2932   2.796   1.188   2.166  0.0473 -0.5711 -0.1072
  978SOL    HW1 2933   2.888   1.210   2.129 -2.8432  2.9268 -0.1391
  978SOL    HW2 2934   2.780   1.257   2.242 -0.6028 -1.0206  1.9606
  979SOL     OW 2935   1.829   0.197   1.757  0.8429  0.2359 -0.5017
  979SOL    HW1 2936   1.733   0.168   1.749  0.4455  2.1205 -2.6830
  979SOL    HW2 2937   1.885   0.122   1.801 -0.8804 -2.0808  0.3077
  980SOL     OW 2938   1.647   1.702   1.760 -0.1085 -0.9331  0.6586
  980SOL    HW1 2939   1.621   1.626   1.699  0.5655 -0.8263 -0.6454
  980SOL    HW2 2940   1.567   1.724   1.821  1.0560  0.8250 -1.3777
  981SOL     OW 2941   2.625   0.792   1.247 -0.0083  0.4295 -0.0597
  981SOL    HW1 2942   2.532   0.813   1.274 -0.8730  0.5662  0.0631
  981SOL    HW2 2943   2.691   0.779   1.326  0.7919  0.9898 -1.8150
  982SOL     OW 2944   0.357   3.037   2.683 -0.4352  0.5808 -1.1154
  982SOL    HW1 2945   0.363   2.973   2.764 -0.5712 -0.7232  1.5762
  982SOL    HW2 2946   0.263   3.036   2.657  2.2213 -0.7774  3.7175
  983SOL     OW 2947   2.659   0.625   2.325 -0.0605  0.1374 -0.5569
  983SOL    HW1 2948   2.700   0.713   2.360  0.0878  2.1994  1.1494
  983SOL    HW2 2949   2.679   0.600   2.228 -1.1125 -2.8735  0.5901
  984SOL     OW 2950   1.229   2.980   1.860 -0.4617  0.0580 -0.1524
  984SOL    HW1 2951   1.327   2.970   1.884 -0.4853  1.1204  0.5928
  984SOL    HW2 2952   1.169   2.918   1.912  1.1370 -0.3413 -0.6639
  985SOL     OW 2953   1.817   1.860   2.153 -0.4451  0.3016 -0.0311
  985SOL    HW1 2954   1.880   1.843   2.234  0.5698 -2.5408  0.0304
  985SOL    HW2 2955   1.835   1.951   2.116 -0.1288 -0.9188  0.0605
  986SOL     OW 2956   2.299   0.346   1.260 -0.0398  0.4396 -0.5370
  986SOL    HW1 2957   2.394   0.307   1.247  0.6701 -0.5457 -1.8449
  986SOL    HW2 2958   2.296   0.448   1.243 -0.6269 -0.1926 -1.0428
  987SOL     OW 2959   2.660   1.074   1.404 -0.0691  0.2589 -0.3268
  987SOL    HW1 2960   2.584   1.093   1.472  0.1475 -2.9546  3.7293
  987SOL    HW2 2961   2.635   1.066   1.304 -0.5817  0.2363  0.8335
  988SOL     OW 2962   2.813   0.969   1.957  0.1510 -0.3623  0.1661
  988SOL    HW1 2963   2.885   0.903   1.986 -0.5843  0.8454  1.5905
  988SOL    HW2 2964   2.779   1.011   2.040  1.1925 -1.1694  0.8260
  989SOL     OW 2965   1.287   2.153   0.088  0.1833 -0.2928 -0.2176
  989SOL    HW1 2966   1.374   2.131   0.137 -0.9781  1.8074  1.7720
  989SOL    HW2 2967   1.304   2.177   3.059 -1.2401 -0.4938 -2.3275
  990SOL     OW 2968   1.467   0.673   2.492 -0.1421  0.4357  0.5641
  990SOL    HW1 2969   1.498   0.626   2.410 -0.5359  2.3394 -0.1832
  990SOL    HW2 2970   1.489   0.772   2.494 -0.4263 -1.3763  1.4245
  991SOL     OW 2971   1.292   0.840   0.525  0.2042  0.4311 -0.0685
  991SOL    HW1 2972   1.328   0.806   0.614  1.2619  1.7952 -1.6189
  991SOL    HW2 2973   1.353   0.809   0.454 -1.5568 -1.7884  1.1161
  992SOL     OW 2974   2.638   1.965   0.952 -0.1573 -0.1018  0.1012
  992SOL    HW1 2975   2.661   1.983   0.853  2.8430 -0.6764  0.5426
  992SOL    HW2 2976   2.718   1.983   1.014  0.1545 -0.4394  2.4636
  993SOL     OW 2977   0.135   0.633   0.917  0.7062 -0.3075 -0.2162
  993SOL    HW1 2978   0.222   0.687   0.924  1.1592 -2.1050  3.6744
  993SOL    HW2 2979   0.089   0.674   0.833 -1.1239  0.3039 -0.4473
  994SOL     OW 2980   0.066   1.940   2.461  0.2458 -1.0369 -0.3768
  994SOL    HW1 2981   0.059   2.038   2.438  0.1500 -1.8741 -0.5088
  994SOL    HW2 2982   0.152   1.928   2.515  1.6832  0.1634 -2.2819
  995SOL     OW 2983   1.853   0.975   2.720  0.3223  0.0450 -0.4113
  995SOL    HW1 2984   1.768   0.967   2.781 -2.2684  0.5124 -0.6063
  995SOL    HW2 2985   1.830   0.938   2.626 -0.3495 -1.0044 -1.6575
  996SOL     OW 2986   2.786   1.239   0.560 -0.5691  0.0010 -0.0494
  996SOL    HW1 2987   2.784   1.157   0.618 -2.0962  0.8037  0.8913
  996SOL    HW2 2988   2.691   1.255   0.531 -0.0661 -0.7390  0.9608
  997SOL     OW 2989   1.746   0.814   2.104  0.2824  0.3417  0.1209
  997SOL    HW1 2990   1.703   0.720   2.104  2.0615  1.0959  1.5739
  997SOL    HW2 2991   1.798   0.822   2.017 -1.8254  0.8433 -1.2847
  998SOL     OW 2992   2.921   1.696   0.329  0.6673  0.2357  0.3215
  998SOL    HW1 2993   2.885   1.777   0.276 -2.2651  3.0886  0.4430
  998SOL    HW2 2994   2.934   1.731   0.426 -3.1020 -0.9279 -2.2450
  999SOL     OW 2995   0.032   2.278   0.140  0.2503 -0.1557  0.0295
  999SOL    HW1 2996   0.035   2.180   0.171 -0.6074 -0.5696 -0.4279
  999SOL    HW2 2997   3.064   2.339   0.217 -2.1867  0.0915 -0.2048
 1000SOL     OW 2998   0.869   0.712   2.637 -0.2569  0.0959 -0.2697
 1000SOL    HW1 2999   0.884   0.758   2.733  0.4703  1.0391 -0.4031
 1000SOL    HW2 3000   0.962   0.705   2.587  0.9489 -2.8706  2.1258
   3.06717   3.06717   3.06717
