1000 SPC/Fw water molecules t= 472.00000 step= 472000
 3000
    1SOL     OW    1   2.803   3.043   1.837 -0.2388 -0.2645 -0.0080
    1SOL    HW1    2   2.811   3.034   1.737  0.9794  1.8499 -1.6250
    1SOL    HW2    3   2.715   3.084   1.869  0.5020  1.2921  0.0005
    2SOL     OW    4   2.874   2.882   2.887  0.2414 -0.0799  0.2196
    2SOL    HW1    5   2.893   2.913   2.982 -4.0692 -0.6981 -2.4351
    2SOL    HW2    6   2.939   2.808   2.865 -1.7119 -0.2711  0.1120
    3SOL     OW    7   1.224   2.468   0.022  0.2670 -0.7308  0.1930
    3SOL    HW1    8   1.256   2.392   3.071  2.2607  1.0240  1.2605
    3SOL    HW2    9   1.258   2.442   0.114  1.4210  1.5667 -1.8614
    4SOL     OW   10   1.349   2.878   2.387 -0.6627 -0.1039 -0.0747
    4SOL    HW1   11   1.452   2.898   2.382  3.8578  2.0789  0.4810
    4SOL    HW2   12   1.307   2.936   2.462  2.0600 -0.2858  2.1876
    5SOL     OW   13   1.971   0.162   2.461 -0.0576 -0.0429 -0.4978
    5SOL    HW1   14   1.926   0.208   2.386  0.3517 -2.2412 -0.2979
    5SOL    HW2   15   1.920   0.079   2.484 -0.8975  0.2512  3.2775
    6SOL     OW   16   3.063   1.645   1.170  0.5605 -0.5162  0.1148
    6SOL    HW1   17   0.007   1.726   1.180 -1.8960 -3.0041  1.0020
    6SOL    HW2   18   3.023   1.646   1.075  1.9747 -0.3761  0.8569
    7SOL     OW   19   1.267   1.733   0.505 -0.3206  0.8089 -0.1872
    7SOL    HW1   20   1.202   1.713   0.574  2.7409 -1.3799 -1.2419
    7SOL    HW2   21   1.325   1.652   0.476  2.2787 -1.2701 -1.4725
    8SOL     OW   22   0.211   0.534   0.281  0.8161  0.1858 -0.2297
    8SOL    HW1   23   0.280   0.614   0.272 -1.0840  2.1526 -0.7393
    8SOL    HW2   24   0.142   0.532   0.207  0.0825 -2.2220 -1.3547
    9SOL     OW   25   0.208   3.000   1.663 -0.3626 -0.1953  0.2814
    9SOL    HW1   26   0.298   2.973   1.630  1.4585 -1.8387  1.4886
    9SOL    HW2   27   0.154   2.918   1.686  0.0022  0.3651  1.0171
   10SOL     OW   28   1.269   1.962   0.365  0.0122 -0.8638  0.3220
   10SOL    HW1   29   1.314   1.881   0.410 -1.2758 -1.4269 -0.0532
   10SOL    HW2   30   1.264   2.040   0.429  2.7821  0.4264 -0.6532
   11SOL     OW   31   1.956   0.748   1.279 -1.1098  0.1085  0.0039
   11SOL    HW1   32   1.991   0.838   1.242  0.7538 -1.1777  1.3668
   11SOL    HW2   33   1.916   0.750   1.372 -0.9392 -0.6464 -1.6325
   12SOL     OW   34   0.270   0.760   2.127 -0.2383 -0.0532  0.5120
   12SOL    HW1   35   0.278   0.841   2.064 -1.0583 -0.2063 -3.1062
   12SOL    HW2   36   0.250   0.786   2.222 -0.4101  0.9549 -0.8928
   13SOL     OW   37   2.156   3.032   0.297  0.5467 -0.1532  0.4603
   13SOL    HW1   38   2.240   3.024   0.355  0.0358  1.4507  2.3805
   13SOL    HW2   39   2.116   2.937   0.277  0.4810 -0.1426  0.2638
   14SOL     OW   40   2.236   2.034   0.146  0.0961 -0.3284 -0.3484
   14SOL    HW1   41   2.326   2.003   0.104  0.8377  1.9166 -0.8547
   14SOL    HW2   42   2.239   2.054   0.250 -2.4128 -1.1525  3.4643
   15SOL     OW   43   3.018   0.014   3.046  0.3135 -0.1473  0.5598
   15SOL    HW1   44   2.979   3.038   3.088 -1.2633  1.2770 -1.5588
   15SOL    HW2   45   0.009   0.012   3.046 -2.2658 -1.4653 -1.1141
   16SOL     OW   46   3.094   0.612   1.121 -0.3543  0.7294  0.0718
   16SOL    HW1   47   3.047   0.523   1.096 -2.0460  0.4280  1.6950
   16SOL    HW2   48   3.085   0.625   1.220 -0.0682 -2.0809 -0.1627
   17SOL     OW   49   0.685   0.437   0.841 -0.1160 -0.1544 -0.5084
   17SOL    HW1   50   0.662   0.346   0.878  4.0423 -1.5209 -1.6727
   17SOL    HW2   51   0.646   0.507   0.903 -0.9841 -1.9220 -1.1202
   18SOL     OW   52   2.917   0.009   0.884 -0.1931 -0.2849  0.4075
   18SOL    HW1   53   2.874   3.079   0.798 -3.5664  1.9092  1.1759
   18SOL    HW2   54   2.995   0.074   0.861  2.5818  0.9572 -1.1338
   19SOL     OW   55   1.833   1.315   1.229  0.3551  0.4569 -0.5043
   19SOL    HW1   56   1.784   1.387   1.178  0.6333 -1.0614  1.1471
   19SOL    HW2   57   1.935   1.321   1.218 -0.1582  0.0837 -0.3118
   20SOL     OW   58   2.203   1.790   2.457 -0.5909 -0.2187 -0.1873
   20SOL    HW1   59   2.137   1.866   2.488 -1.0979 -0.4769 -3.1163
   20SOL    HW2   60   2.159   1.704   2.437  1.0536  2.1999 -0.0533
   21SOL     OW   61   1.372   2.807   0.420  0.1793  0.0536  0.3216
   21SOL    HW1   62   1.303   2.754   0.469  0.1157  0.8635  0.0694
   21SOL    HW2   63   1.341   2.855   0.331  1.4771  0.5194 -0.8324
   22SOL     OW   64   2.403   0.758   0.015  0.0994 -0.1961 -0.2640
   22SOL    HW1   65   2.491   0.802   0.041 -2.8837  0.3285 -1.4096
   22SOL    HW2   66   2.383   0.689   0.086  2.7522  0.1622  0.5432
   23SOL     OW   67   0.757   0.526   2.213 -0.1204 -0.7747 -0.0476
   23SOL    HW1   68   0.764   0.431   2.184 -1.2936  3.8494  2.6633
   23SOL    HW2   69   0.841   0.546   2.261  0.8590  0.0425  0.0937
   24SOL     OW   70   2.159   2.172   0.911 -0.1866  0.0354 -0.5411
   24SOL    HW1   71   2.194   2.237   0.978  0.4095 -1.3792 -1.6552
   24SOL    HW2   72   2.086   2.218   0.853 -2.4439 -1.5091 -0.5735
   25SOL     OW   73   1.409   0.120   3.055  0.3003  0.2250  0.0428
   25SOL    HW1   74   1.412   0.098   2.956 -3.9480  1.3434  1.7472
   25SOL    HW2   75   1.484   0.068   3.102  1.1564  0.6794  2.3334
   26SOL     OW   76   1.074   2.850   2.774 -0.1149  0.8361  0.2902
   26SOL    HW1   77   1.056   2.900   2.861 -1.9836 -1.8480 -1.6973
   26SOL    HW2   78   1.051   2.748   2.781  2.0068 -1.5954  1.7472
   27SOL     OW   79   1.089   0.611   1.359 -0.0824 -0.4237  0.4761
   27SOL    HW1   80   1.053   0.625   1.261 -0.4858 -2.4412 -1.6582
   27SOL    HW2   81   1.028   0.542   1.401  0.4601  0.3322  0.8880
   28SOL     OW   82   0.332   2.048   1.040  0.9545 -0.4313 -0.2631
   28SOL    HW1   83   0.391   2.102   0.983  2.7045 -2.1423 -3.4938
   28SOL    HW2   84   0.312   2.098   1.130  0.5914  0.6369 -0.9821
   29SOL     OW   85   2.562   1.037   1.006  0.6850  0.9964 -0.1585
   29SOL    HW1   86   2.618   1.122   1.009  0.5521 -0.9511 -2.0457
   29SOL    HW2   87   2.516   1.017   1.093  2.0472  0.8424  0.0945
   30SOL     OW   88   1.532   0.045   1.823  0.2352 -0.1630  0.6136
   30SOL    HW1   89   1.514   3.064   1.781 -2.7131  0.4886  0.3362
   30SOL    HW2   90   1.527   0.026   1.921  0.0558 -0.0609 -1.9128
   31SOL     OW   91   1.251   3.108   1.109 -0.1138 -0.0151  0.6183
   31SOL    HW1   92   1.292   0.074   1.056  0.0779 -2.6104  2.0971
   31SOL    HW2   93   1.295   3.018   1.087  0.6584 -0.5104 -1.0372
   32SOL     OW   94   2.484   1.261   1.961  0.6164  0.1460  0.5292
   32SOL    HW1   95   2.391   1.264   1.920  0.3941  0.0669  2.4819
   32SOL    HW2   96   2.515   1.346   2.011 -0.1865  2.1520  2.0453
   33SOL     OW   97   2.298   2.802   2.795 -0.0659 -0.3302 -0.2460
   33SOL    HW1   98   2.218   2.836   2.848  0.1311 -0.0080 -3.3291
   33SOL    HW2   99   2.314   2.864   2.714 -0.0788 -0.9405  0.4157
   34SOL     OW  100   1.994   1.038   3.034 -0.2371 -0.8462 -0.6334
   34SOL    HW1  101   2.083   1.042   3.084 -0.2432 -0.6316 -1.2229
   34SOL    HW2  102   1.955   0.941   3.026  0.6702 -1.1964  0.7800
   35SOL     OW  103   2.696   1.135   1.449 -0.2069  0.1094  0.3761
   35SOL    HW1  104   2.603   1.177   1.458 -1.1607  0.0931 -1.2071
   35SOL    HW2  105   2.765   1.173   1.517  2.2450  2.4991  1.9805
   36SOL     OW  106   2.426   2.335   2.858  0.1973  0.0765  0.0524
   36SOL    HW1  107   2.432   2.355   2.961  0.2672  0.7142  0.5638
   36SOL    HW2  108   2.394   2.420   2.812  1.1388 -1.0513 -2.8179
   37SOL     OW  109   1.841   2.977   2.001 -0.0943 -0.4718  0.2443
   37SOL    HW1  110   1.858   3.056   2.062 -1.3536 -2.8532  0.3423
   37SOL    HW2  111   1.923   2.933   1.954  1.9116 -3.3226  1.8525
   38SOL     OW  112   0.552   0.817   2.545  0.7149  1.1470  0.3240
   38SOL    HW1  113   0.553   0.744   2.472  0.1092  1.7373  0.7003
   38SOL    HW2  114   0.467   0.869   2.552  1.6921  0.3142 -0.6687
   39SOL     OW  115   1.598   0.513   1.774 -0.1246 -0.4122 -0.7920
   39SOL    HW1  116   1.592   0.570   1.861  0.8514  1.4225 -1.1003
   39SOL    HW2  117   1.639   0.420   1.793 -0.1769 -0.2700 -0.7842
   40SOL     OW  118   0.838   2.350   0.554 -0.2034 -0.1789 -0.3813
   40SOL    HW1  119   0.866   2.262   0.507  1.4902  1.9545 -1.6480
   40SOL    HW2  120   0.912   2.416   0.568 -1.3793 -1.6467 -0.0963
   41SOL     OW  121   2.274   2.138   1.290  0.0186  0.2254 -0.4992
   41SOL    HW1  122   2.260   2.219   1.231  2.7009  0.8199  0.9531
   41SOL    HW2  123   2.355   2.085   1.250  0.3416 -1.2770  1.3023
   42SOL     OW  124   2.408   0.173   0.367  0.2066  0.4204 -0.2916
   42SOL    HW1  125   2.368   0.210   0.280 -0.2830 -0.1354  0.6339
   42SOL    HW2  126   2.480   0.237   0.399 -2.6265  1.4250 -0.9946
   43SOL     OW  127   0.737   1.425   2.586  0.2601  0.3312  0.0903
   43SOL    HW1  128   0.715   1.478   2.500  0.0997  0.0650  0.6498
   43SOL    HW2  129   0.756   1.327   2.559 -1.3024 -0.5014 -1.2260
   44SOL     OW  130   2.126   2.882   1.126 -0.4229 -0.0795 -0.0283
   44SOL    HW1  131   2.062   2.833   1.185  2.1810 -0.0476 -0.7281
   44SOL    HW2  132   2.081   2.932   1.051 -2.2179 -0.1392 -2.5797
   45SOL     OW  133   0.406   2.225   2.823  0.1579  0.5530 -0.4871
   45SOL    HW1  134   0.337   2.268   2.882  0.9816 -2.0307  0.3190
   45SOL    HW2  135   0.492   2.281   2.820  0.4945 -1.3678  0.0925
   46SOL     OW  136   0.532   2.726   2.296  0.1925  0.7048  1.2149
   46SOL    HW1  137   0.594   2.662   2.246  0.6495  2.1471 -0.3918
   46SOL    HW2  138   0.519   2.683   2.389 -0.5851 -2.3401 -0.6006
   47SOL     OW  139   0.466   1.780   0.661 -0.5352  0.2598  0.0506
   47SOL    HW1  140   0.402   1.836   0.601 -0.4416  1.2315 -0.7757
   47SOL    HW2  141   0.530   1.722   0.606  0.5053  0.3677 -0.9497
   48SOL     OW  142   0.818   2.724   1.368 -0.0751  0.0022  0.1756
   48SOL    HW1  143   0.817   2.641   1.311  1.9384 -1.1018  0.7105
   48SOL    HW2  144   0.903   2.736   1.418 -2.8456  0.6999  0.0150
   49SOL     OW  145   0.209   3.007   0.073 -0.0387 -0.0339  0.1934
   49SOL    HW1  146   0.210   2.971   0.170  3.1416 -0.3443 -0.7260
   49SOL    HW2  147   0.187   2.940   0.002 -0.7011 -0.8447 -0.1680
   50SOL     OW  148   1.687   0.651   0.421  0.3055  0.0053  0.2683
   50SOL    HW1  149   1.586   0.675   0.421 -1.6488  0.6744 -1.3356
   50SOL    HW2  150   1.732   0.688   0.337  0.6720  0.6083  0.5780
   51SOL     OW  151   1.998   3.081   0.693  0.5593 -1.0183 -0.6857
   51SOL    HW1  152   1.952   2.994   0.666 -1.3627  0.3628  1.0561
   51SOL    HW2  153   2.061   0.013   0.625 -0.4969 -1.1651  2.7360
   52SOL     OW  154   0.477   1.794   1.102 -0.2978  0.1714  0.1734
   52SOL    HW1  155   0.531   1.769   1.019  0.1359 -1.4690  0.6140
   52SOL    HW2  156   0.418   1.875   1.091 -0.5457 -1.2163 -0.5195
   53SOL     OW  157   0.138   1.159   2.870 -0.2229 -0.0025  0.6812
   53SOL    HW1  158   0.201   1.079   2.899  0.5811 -1.2012 -1.6401
   53SOL    HW2  159   0.082   1.196   2.949  0.0990  0.0467  0.7593
   54SOL     OW  160   2.599   2.321   2.637 -0.4651 -0.1398 -0.3099
   54SOL    HW1  161   2.542   2.344   2.721 -1.1960 -1.3156  3.3420
   54SOL    HW2  162   2.570   2.225   2.617 -3.0020  0.8888  3.2241
   55SOL     OW  163   2.628   2.254   1.328 -0.5854 -0.4480 -0.0053
   55SOL    HW1  164   2.687   2.312   1.271 -1.8201  1.8258 -1.4140
   55SOL    HW2  165   2.650   2.255   1.428  1.0229  2.5326 -1.1469
   56SOL     OW  166   1.403   0.683   1.507 -0.5507  0.6921  0.2357
   56SOL    HW1  167   1.505   0.693   1.515 -0.4308 -1.8087 -1.2150
   56SOL    HW2  168   1.380   0.704   1.410 -0.7780 -3.2688  1.2138
   57SOL     OW  169   1.916   1.708   1.086  0.5706  0.0063 -0.4102
   57SOL    HW1  170   1.936   1.795   1.039 -0.5605  1.7857  0.5755
   57SOL    HW2  171   1.983   1.691   1.165 -1.0951  1.0694 -0.0591
   58SOL     OW  172   2.192   0.226   2.104  0.2428  0.2528  0.1297
   58SOL    HW1  173   2.199   0.179   2.195  1.6293 -0.2105 -1.7062
   58SOL    HW2  174   2.217   0.324   2.112  1.2282 -3.6617  0.7651
   59SOL     OW  175   1.687   2.916   2.349  0.0019  0.8282  0.1482
   59SOL    HW1  176   1.663   2.904   2.253 -1.9314 -2.5160  2.6212
   59SOL    HW2  177   1.787   2.915   2.358 -0.0991  1.1221  0.5868
   60SOL     OW  178   1.546   1.960   2.873 -0.5537 -0.2885 -0.1925
   60SOL    HW1  179   1.604   1.956   2.792  1.5172  0.8562  3.1623
   60SOL    HW2  180   1.447   1.958   2.854  0.4671 -0.7929  0.0191
   61SOL     OW  181   0.634   2.133   0.041  0.2498 -0.5059  0.4619
   61SOL    HW1  182   0.596   2.104   3.065 -0.1814  0.9557 -0.0968
   61SOL    HW2  183   0.647   2.060   0.105  3.2888  1.1732 -0.8578
   62SOL     OW  184   1.461   1.858   1.567 -0.1444  0.2120 -0.6384
   62SOL    HW1  185   1.387   1.807   1.617 -0.4710 -3.0341 -1.5119
   62SOL    HW2  186   1.544   1.798   1.561  0.5887 -1.4577 -0.4631
   63SOL     OW  187   1.075   1.928   0.604 -0.4120  0.4846 -0.0053
   63SOL    HW1  188   1.018   1.981   0.538  0.8855 -0.5206 -1.7930
   63SOL    HW2  189   1.140   1.867   0.551  0.0024 -0.7866 -0.2040
   64SOL     OW  190   1.908   1.361   2.455  0.1855 -0.6991 -0.5593
   64SOL    HW1  191   1.837   1.371   2.532  0.1200  0.7174  2.4422
   64SOL    HW2  192   1.947   1.451   2.429  1.0094 -0.4557  1.0161
   65SOL     OW  193   1.718   1.736   1.527 -0.8131 -0.4342 -0.5328
   65SOL    HW1  194   1.814   1.710   1.546 -0.4236 -0.2884 -1.2440
   65SOL    HW2  195   1.718   1.815   1.460 -0.6963  0.1590  3.5412
   66SOL     OW  196   0.019   0.992   0.917 -0.0342  0.5349  0.4860
   66SOL    HW1  197   3.101   0.900   0.879 -1.3866 -3.3481  1.5241
   66SOL    HW2  198   3.066   1.030   0.986  2.4075 -0.3380 -1.7615
   67SOL     OW  199   2.228   2.358   1.135 -0.8499  0.4074 -0.1322
   67SOL    HW1  200   2.192   2.412   1.214 -0.5852  1.3498  1.6663
   67SOL    HW2  201   2.309   2.400   1.088  0.5104  0.3061 -3.7160
   68SOL     OW  202   2.437   2.746   1.675  0.0067 -0.3082 -0.3949
   68SOL    HW1  203   2.451   2.718   1.577  0.8616  0.5168 -3.6120
   68SOL    HW2  204   2.381   2.833   1.679 -2.0480  1.3724  0.7033
   69SOL     OW  205   2.590   2.804   2.965  0.1979  0.0343  0.0764
   69SOL    HW1  206   2.570   2.744   2.888  0.7339  2.9355  3.1727
   69SOL    HW2  207   2.682   2.840   2.948  0.2265 -1.6908  1.7074
   70SOL     OW  208   0.985   1.532   2.554 -0.0781 -0.4877 -0.4911
   70SOL    HW1  209   1.026   1.524   2.460 -1.9744  0.2749  0.6581
   70SOL    HW2  210   0.891   1.492   2.559  0.9077  0.7466 -2.1284
   71SOL     OW  211   0.759   1.759   2.004  0.0563 -0.3480 -0.3230
   71SOL    HW1  212   0.814   1.674   1.971  1.9981 -2.9625 -1.1799
   71SOL    HW2  213   0.788   1.836   1.946  2.3172 -0.5399 -0.5463
   72SOL     OW  214   2.883   1.212   1.608 -0.7791 -0.0328  0.2825
   72SOL    HW1  215   2.881   1.159   1.691 -3.6176  2.0345  0.0383
   72SOL    HW2  216   2.941   1.292   1.612 -0.1803 -0.3060 -2.5555
   73SOL     OW  217   0.703   2.189   2.539 -0.3357  0.0784  0.7230
   73SOL    HW1  218   0.710   2.287   2.506  0.1359 -0.0972  1.4735
   73SOL    HW2  219   0.765   2.177   2.622 -1.4387  0.9392  3.2170
   74SOL     OW  220   1.168   0.227   2.219  0.1747 -0.6529 -0.3432
   74SOL    HW1  221   1.075   0.185   2.235 -1.6858  4.4032 -0.2508
   74SOL    HW2  222   1.172   0.317   2.271 -1.4238  3.2385 -1.3696
   75SOL     OW  223   1.141   2.987   0.769  0.0387  0.7760 -0.4981
   75SOL    HW1  224   1.093   3.035   0.846 -2.0032 -3.8113  1.2630
   75SOL    HW2  225   1.231   3.029   0.742 -1.2111  1.1824  2.2478
   76SOL     OW  226   0.471   1.600   2.670 -0.7109 -0.2180 -0.3506
   76SOL    HW1  227   0.503   1.696   2.646  1.1186  3.5350  0.9067
   76SOL    HW2  228   0.551   1.533   2.646  4.5520 -1.2659  1.0750
   77SOL     OW  229   0.677   2.509   0.724 -0.1433  0.2188  0.0357
   77SOL    HW1  230   0.745   2.463   0.664 -0.4874 -0.1005 -0.8753
   77SOL    HW2  231   0.589   2.466   0.712 -1.2950  1.6005  1.1713
   78SOL     OW  232   2.625   1.183   3.102  0.1178  0.0896 -0.4552
   78SOL    HW1  233   2.695   1.211   3.032 -1.4026  0.8110  0.6214
   78SOL    HW2  234   2.635   1.246   0.075  0.8311  5.1887  2.4217
   79SOL     OW  235   0.697   1.497   2.853 -0.0107 -0.2017 -0.3631
   79SOL    HW1  236   0.711   1.461   2.758  2.4389 -2.1014 -2.4585
   79SOL    HW2  237   0.666   1.594   2.859  0.9176 -0.7743  1.4313
   80SOL     OW  238   2.217   1.168   1.321 -0.3161  0.0014 -0.3419
   80SOL    HW1  239   2.236   1.173   1.423  0.5418  2.4560  3.2709
   80SOL    HW2  240   2.195   1.262   1.286  0.3075 -0.2180  0.4090
   81SOL     OW  241   1.958   0.984   2.373 -0.3072  0.6050 -0.0908
   81SOL    HW1  242   1.927   1.043   2.448  1.6033  1.2531 -0.0464
   81SOL    HW2  243   1.888   0.924   2.337  2.6868 -0.6805  1.2551
   82SOL     OW  244   2.251   1.902   1.439  0.4225  0.0834 -0.4179
   82SOL    HW1  245   2.231   1.983   1.376  2.2130  0.0429 -1.5693
   82SOL    HW2  246   2.216   1.923   1.533 -0.7618 -0.1762 -0.6610
   83SOL     OW  247   2.194   2.692   3.067  0.3267 -0.5392 -0.0547
   83SOL    HW1  248   2.230   2.620   0.015  2.7333  1.3727 -2.2025
   83SOL    HW2  249   2.259   2.772   3.067  1.9125 -0.1851  0.3493
   84SOL     OW  250   0.764   0.752   0.630  0.4996 -0.1566  0.1952
   84SOL    HW1  251   0.859   0.711   0.646  0.5322  0.2545 -0.1593
   84SOL    HW2  252   0.691   0.680   0.621  0.9030  2.0600  2.1560
   85SOL     OW  253   2.109   1.418   1.243  0.3429  0.4528 -0.2840
   85SOL    HW1  254   2.096   1.370   1.153  0.3993 -4.0073 -0.5180
   85SOL    HW2  255   2.104   1.517   1.232  2.2233 -1.4771  2.1646
   86SOL     OW  256   0.467   0.909   1.113  0.5579  0.3844  0.4065
   86SOL    HW1  257   0.421   0.836   1.061 -0.7283 -6.1420 -0.3788
   86SOL    HW2  258   0.557   0.929   1.076 -0.5016  3.1179 -2.8577
   87SOL     OW  259   0.011   2.259   2.429  0.0793 -0.5031  0.5793
   87SOL    HW1  260   0.102   2.218   2.412 -1.7286  0.3362 -0.2161
   87SOL    HW2  261   3.080   2.298   2.342  1.1915  0.3400  3.3938
   88SOL     OW  262   0.276   2.945   0.330 -0.4456  0.2954  0.5015
   88SOL    HW1  263   0.228   2.918   0.416  1.2020 -0.1555 -0.1401
   88SOL    HW2  264   0.365   2.994   0.337  0.4280 -2.9746  1.3192
   89SOL     OW  265   1.390   0.213   0.955 -0.1997 -0.8934 -0.0530
   89SOL    HW1  266   1.353   0.245   0.867  0.4452  1.7535  0.8331
   89SOL    HW2  267   1.433   0.288   1.014  0.5321  3.8785  2.6245
   90SOL     OW  268   3.093   1.087   1.987  1.0166  0.6526  0.0259
   90SOL    HW1  269   0.037   1.075   2.070 -3.6658  0.8477 -1.8495
   90SOL    HW2  270   3.093   0.996   1.940 -0.0697  0.2697  0.2466
   91SOL     OW  271   2.121   2.646   0.674 -0.0576 -0.0852  0.1262
   91SOL    HW1  272   2.126   2.556   0.626 -0.0828 -1.8322  3.3150
   91SOL    HW2  273   2.158   2.637   0.772 -1.0390 -0.7464  0.0688
   92SOL     OW  274   1.672   1.583   1.112 -0.0206  0.2774  0.3369
   92SOL    HW1  275   1.770   1.626   1.106  2.8006  2.2745 -1.2163
   92SOL    HW2  276   1.663   1.520   1.033 -2.1966  0.6810 -1.8769
   93SOL     OW  277   0.419   1.376   0.435 -0.1449  0.5159 -0.1562
   93SOL    HW1  278   0.483   1.297   0.411  2.4117 -1.3039 -0.9626
   93SOL    HW2  279   0.482   1.453   0.466  1.6030 -1.3908 -1.9053
   94SOL     OW  280   0.787   2.543   0.977 -0.3633 -0.4862  0.5570
   94SOL    HW1  281   0.751   2.514   0.884 -0.9291 -2.5624  0.6380
   94SOL    HW2  282   0.717   2.569   1.049 -0.4993  1.4029 -2.1649
   95SOL     OW  283   0.473   0.936   0.386  0.4447  0.0838 -0.5191
   95SOL    HW1  284   0.415   0.967   0.463 -0.1377 -1.2259  0.2528
   95SOL    HW2  285   0.441   0.852   0.339  2.0889 -2.3336 -2.9199
   96SOL     OW  286   0.792   2.581   2.215 -0.2239  0.8421  0.4281
   96SOL    HW1  287   0.739   2.608   2.131  2.1882 -0.7833 -0.1019
   96SOL    HW2  288   0.861   2.518   2.180  0.1330  2.8865 -3.4361
   97SOL     OW  289   2.703   0.812   0.844 -0.0590  0.6937 -0.2987
   97SOL    HW1  290   2.737   0.859   0.930  1.6472  0.2892  0.0097
   97SOL    HW2  291   2.611   0.850   0.819  0.6663  0.4505 -1.5247
   98SOL     OW  292   0.219   2.034   2.098 -0.1979 -0.1633  0.5171
   98SOL    HW1  293   0.208   1.933   2.076  0.0202 -0.4675  1.1810
   98SOL    HW2  294   0.144   2.083   2.052 -0.7049 -1.8235  0.7217
   99SOL     OW  295   3.020   0.468   1.556 -0.5371 -0.3157 -0.6891
   99SOL    HW1  296   3.014   0.366   1.565  0.7352 -1.2563  0.3855
   99SOL    HW2  297   3.020   0.521   1.646 -0.2838  2.4355  0.1840
  100SOL     OW  298   2.246   0.155   2.366  0.0068  0.2085 -0.2430
  100SOL    HW1  299   2.309   0.222   2.411  0.1208  1.0003  1.1888
  100SOL    HW2  300   2.157   0.147   2.413 -0.8535 -0.1876 -0.1308
  101SOL     OW  301   0.934   3.026   1.919  0.4934  0.2034  0.4748
  101SOL    HW1  302   1.008   3.092   1.912 -0.8893  0.7956  1.8940
  101SOL    HW2  303   0.884   3.027   2.012 -0.1704  0.2876  3.7477
  102SOL     OW  304   0.677   0.712   1.690 -0.9289  0.2150 -0.1938
  102SOL    HW1  305   0.642   0.789   1.744  1.7911 -0.9661 -1.2714
  102SOL    HW2  306   0.767   0.670   1.725  3.0793 -1.7868 -0.9869
  103SOL     OW  307   0.445   0.845   2.870 -0.0473  0.1039 -0.4267
  103SOL    HW1  308   0.355   0.867   2.920 -1.8363  1.5293 -0.4742
  103SOL    HW2  309   0.524   0.907   2.894 -3.1767 -1.1220  0.9985
  104SOL     OW  310   0.629   0.017   1.885  0.2406  0.0048  0.6800
  104SOL    HW1  311   0.723   0.058   1.884 -0.4449 -2.6176 -0.3348
  104SOL    HW2  312   0.565   0.079   1.941  0.0559  0.5442  0.6142
  105SOL     OW  313   2.799   2.744   1.998 -0.3843 -0.1020 -0.4456
  105SOL    HW1  314   2.811   2.784   1.906 -0.8476  0.8236 -1.9514
  105SOL    HW2  315   2.707   2.775   2.038 -1.6158  2.2321 -0.0795
  106SOL     OW  316   0.560   3.047   0.856  0.0313 -0.3903  0.4276
  106SOL    HW1  317   0.645   3.063   0.800  0.3314 -1.0397 -0.4551
  106SOL    HW2  318   0.587   3.009   0.950  1.9456 -1.3524  2.4008
  107SOL     OW  319   3.021   1.948   1.105 -0.0856  0.1971  0.3212
  107SOL    HW1  320   2.992   2.040   1.136 -0.3421 -1.6618  1.3862
  107SOL    HW2  321   2.949   1.881   1.134 -0.3694  1.5687  0.6244
  108SOL     OW  322   0.389   2.457   0.749 -0.2887 -0.4474  0.0594
  108SOL    HW1  323   0.308   2.479   0.807  1.3761 -0.6822 -2.5116
  108SOL    HW2  324   0.367   2.365   0.703  0.6860 -0.5382 -1.6515
  109SOL     OW  325   1.685   2.733   0.762 -0.3628 -0.0067  0.5526
  109SOL    HW1  326   1.663   2.764   0.854  1.2267 -1.0080 -1.3089
  109SOL    HW2  327   1.785   2.748   0.748  1.1426 -3.0077  0.8719
  110SOL     OW  328   1.795   1.953   0.699  0.0847  0.0215  0.8470
  110SOL    HW1  329   1.876   1.910   0.645  1.4058 -2.8501  0.2753
  110SOL    HW2  330   1.818   1.955   0.797  0.6342  0.9060 -0.9375
  111SOL     OW  331   1.846   2.667   1.942 -0.0003  0.4134  0.2740
  111SOL    HW1  332   1.915   2.616   1.886 -0.0337 -2.6779 -1.6310
  111SOL    HW2  333   1.889   2.686   2.033  0.8576 -0.1342 -0.5777
  112SOL     OW  334   1.776   2.463   2.464 -0.6770  0.5116  0.1093
  112SOL    HW1  335   1.769   2.491   2.559 -0.1330 -1.1666 -1.9686
  112SOL    HW2  336   1.725   2.524   2.399 -0.2166 -1.2018  0.3070
  113SOL     OW  337   2.540   2.281   2.087 -0.1493 -0.0450 -0.4385
  113SOL    HW1  338   2.556   2.356   2.157 -0.2634  0.6891  1.1378
  113SOL    HW2  339   2.461   2.303   2.031  2.9508 -1.6518 -1.3312
  114SOL     OW  340   0.253   1.153   1.491  0.6699  0.8730  0.3125
  114SOL    HW1  341   0.209   1.223   1.431  0.3645 -1.3012 -0.0076
  114SOL    HW2  342   0.266   1.069   1.434  0.2958  0.7170 -0.5541
  115SOL     OW  343   2.630   0.587   2.809 -0.0876 -0.2665  0.2836
  115SOL    HW1  344   2.566   0.664   2.822 -1.1906 -1.4043  0.1593
  115SOL    HW2  345   2.712   0.590   2.871  0.4880  0.2803  0.4615
  116SOL     OW  346   2.768   0.263   3.054 -0.1067 -0.0760 -0.4106
  116SOL    HW1  347   2.835   0.228   0.012 -0.1211  1.9147  0.8945
  116SOL    HW2  348   2.795   0.238   2.959  3.2632 -0.4439 -1.1027
  117SOL     OW  349   2.748   2.719   0.808 -0.1040  0.2381  0.5172
  117SOL    HW1  350   2.661   2.761   0.767 -1.3295  1.0477 -2.1181
  117SOL    HW2  351   2.719   2.663   0.885  0.0213 -0.5829  1.9021
  118SOL     OW  352   0.922   2.093   2.359  0.1304  0.3155  0.4907
  118SOL    HW1  353   0.822   2.065   2.357  0.8794 -3.5169 -0.7400
  118SOL    HW2  354   0.948   2.133   2.451 -2.2135  0.1382  1.2828
  119SOL     OW  355   0.704   2.692   0.239 -0.9420  0.3549  0.2397
  119SOL    HW1  356   0.643   2.758   0.195 -1.2468 -0.9247  1.6439
  119SOL    HW2  357   0.688   2.698   0.341 -0.6009 -0.1213 -1.7609
  120SOL     OW  358   1.405   0.707   0.370  0.1058 -0.0066 -0.0972
  120SOL    HW1  359   1.342   0.629   0.347 -1.4729  0.8288  0.7414
  120SOL    HW2  360   1.454   0.749   0.299 -1.4271 -2.3850  3.5299
  121SOL     OW  361   1.672   0.805   1.081 -0.5164 -0.6122 -0.3616
  121SOL    HW1  362   1.755   0.779   1.028 -0.3554  2.8091  3.7160
  121SOL    HW2  363   1.694   0.888   1.137  2.5643  3.1218  2.3313
  122SOL     OW  364   2.004   1.690   2.111 -0.7636 -0.0594  0.6853
  122SOL    HW1  365   2.089   1.749   2.106  1.5759 -1.1899 -0.1125
  122SOL    HW2  366   1.919   1.744   2.118  1.2741  1.8677  1.5207
  123SOL     OW  367   0.316   1.007   0.606 -0.1385  0.3862  0.6549
  123SOL    HW1  368   0.286   1.104   0.609  2.6344  1.0891 -0.1112
  123SOL    HW2  369   0.383   0.990   0.681 -1.7926 -1.7359 -2.6217
  124SOL     OW  370   0.683   0.360   2.750  0.4984 -0.1552 -0.2092
  124SOL    HW1  371   0.772   0.311   2.769  3.7861  1.2178  1.1774
  124SOL    HW2  372   0.682   0.458   2.725 -1.1092  1.1546  0.5192
  125SOL     OW  373   0.760   3.033   2.894  0.2659 -0.2434  0.4233
  125SOL    HW1  374   0.843   2.998   2.940 -1.0456 -1.5561 -0.5847
  125SOL    HW2  375   0.754   2.992   2.803  0.4007  0.0505 -1.3858
  126SOL     OW  376   0.688   1.515   0.084 -0.1173 -0.6890 -0.0628
  126SOL    HW1  377   0.697   1.418   0.082  0.3911  2.3635  3.9460
  126SOL    HW2  378   0.768   1.553   0.128  2.8351 -2.5223 -2.2003
  127SOL     OW  379   1.144   2.739   0.933 -0.1462  0.4091 -0.1919
  127SOL    HW1  380   1.117   2.815   0.869 -2.0054 -2.4912  1.0340
  127SOL    HW2  381   1.218   2.773   0.995  2.5417 -2.0198  2.0289
  128SOL     OW  382   1.704   2.001   0.197 -0.1072  0.3105  0.4175
  128SOL    HW1  383   1.620   1.969   0.145 -1.8152 -0.2632  3.4683
  128SOL    HW2  384   1.762   2.048   0.129 -0.8801  0.3997 -1.3533
  129SOL     OW  385   1.974   1.664   1.767 -0.0221  0.1294  0.1549
  129SOL    HW1  386   1.991   1.622   1.676  1.3843  1.6619  1.0340
  129SOL    HW2  387   1.908   1.618   1.830 -1.0870  0.3226  2.0518
  130SOL     OW  388   2.198   1.781   1.858  0.1512  0.2428 -0.5863
  130SOL    HW1  389   2.115   1.739   1.820  2.2145  0.0539 -1.0184
  130SOL    HW2  390   2.270   1.709   1.862 -1.7936  1.2901 -1.0555
  131SOL     OW  391   0.995   2.343   1.932  0.0273 -0.2149 -0.4293
  131SOL    HW1  392   1.044   2.406   1.868  0.0816  1.4522 -3.0678
  131SOL    HW2  393   0.896   2.357   1.908  0.6689 -0.1492 -1.3103
  132SOL     OW  394   2.572   1.582   0.787 -0.3761  0.3305 -0.3738
  132SOL    HW1  395   2.635   1.502   0.797 -2.1671 -1.1665 -2.4064
  132SOL    HW2  396   2.614   1.667   0.828  0.8901  3.1126 -0.3212
  133SOL     OW  397   0.814   1.974   1.853 -0.1605 -0.2523 -0.0534
  133SOL    HW1  398   0.784   1.956   1.757  1.3396 -0.8881 -1.5882
  133SOL    HW2  399   0.766   2.054   1.893 -0.1202 -1.7586  1.4247
  134SOL     OW  400   2.966   1.672   0.917 -0.3028  0.1986  0.2844
  134SOL    HW1  401   2.906   1.593   0.882 -0.8459  1.1197 -2.0607
  134SOL    HW2  402   3.027   1.711   0.841 -0.2596  1.7248 -1.2616
  135SOL     OW  403   2.011   1.355   2.838  0.0085  0.2105 -0.4423
  135SOL    HW1  404   2.039   1.453   2.835  3.0157 -1.0814  0.0691
  135SOL    HW2  405   2.073   1.287   2.794 -5.1712 -0.5276 -2.2333
  136SOL     OW  406   3.039   1.679   1.451  0.3469 -0.0565  0.2287
  136SOL    HW1  407   3.037   1.659   1.352 -0.0105  0.0021 -1.1091
  136SOL    HW2  408   3.105   1.759   1.476  1.9190  2.4080 -0.3753
  137SOL     OW  409   2.785   1.276   2.897 -0.1968 -0.4005  0.1519
  137SOL    HW1  410   2.794   1.177   2.879  0.8176 -1.2480 -1.0840
  137SOL    HW2  411   2.742   1.328   2.816 -3.2426  1.2180  0.1201
  138SOL     OW  412   2.788   0.390   0.801  0.4376 -0.7895  0.2015
  138SOL    HW1  413   2.720   0.358   0.871 -2.3935  1.1655 -0.4799
  138SOL    HW2  414   2.741   0.469   0.753  2.2816 -1.5632 -0.7881
  139SOL     OW  415   2.258   2.338   2.547  0.3000  0.3407  0.2488
  139SOL    HW1  416   2.290   2.412   2.610  0.0021 -0.8425  0.8378
  139SOL    HW2  417   2.288   2.348   2.452 -2.3982 -2.2958 -0.5834
  140SOL     OW  418   0.860   1.525   0.898  0.1678 -0.0294  0.0640
  140SOL    HW1  419   0.847   1.606   0.840  0.1343  1.2593  0.1624
  140SOL    HW2  420   0.846   1.437   0.849  0.6833 -4.3692  0.8255
  141SOL     OW  421   1.116   1.271   0.846 -0.1535 -0.1124  0.3101
  141SOL    HW1  422   1.182   1.315   0.905 -0.7460 -0.9856 -0.4442
  141SOL    HW2  423   1.169   1.221   0.773  1.3913  0.3686  3.6661
  142SOL     OW  424   1.326   0.730   1.263  0.2166  0.0353  0.1418
  142SOL    HW1  425   1.263   0.657   1.300 -0.0994 -1.1174 -0.1004
  142SOL    HW2  426   1.361   0.719   1.166 -0.3215  0.3957 -3.6212
  143SOL     OW  427   0.302   0.464   2.975 -0.0041 -0.7874 -0.0256
  143SOL    HW1  428   0.218   0.418   3.011 -1.0001  1.6499 -2.1722
  143SOL    HW2  429   0.295   0.465   2.872  0.6816 -0.9870  0.8028
  144SOL     OW  430   2.582   0.024   0.048  0.1532 -0.1315 -0.6999
  144SOL    HW1  431   2.489   0.040   0.084 -0.2410  2.1644  0.4333
  144SOL    HW2  432   2.612   0.099   3.099  0.7270 -2.1645 -1.4827
  145SOL     OW  433   2.363   2.974   2.594  0.2012  0.5822  0.1321
  145SOL    HW1  434   2.408   2.987   2.504  1.8104 -1.1406  2.7212
  145SOL    HW2  435   2.385   3.050   2.655 -1.1765 -3.4133  1.4631
  146SOL     OW  436   2.956   2.605   0.413  0.7914  0.3158  0.0432
  146SOL    HW1  437   3.029   2.567   0.355  0.3748  0.8891  0.3891
  146SOL    HW2  438   2.883   2.644   0.354 -0.8053 -2.3854  2.7510
  147SOL     OW  439   1.398   0.733   0.026  0.3562 -0.3805 -0.2081
  147SOL    HW1  440   1.310   0.781   0.049  1.1405  3.8077 -1.9348
  147SOL    HW2  441   1.385   0.632   0.021 -1.5397 -0.0778 -0.7639
  148SOL     OW  442   1.239   0.115   0.155 -0.2215  0.4714 -0.3437
  148SOL    HW1  443   1.257   0.176   0.237  0.8570 -0.2882  0.1004
  148SOL    HW2  444   1.318   0.122   0.088 -1.0140  1.9439  0.2994
  149SOL     OW  445   1.427   1.052   2.817  0.2288  0.2324 -0.3476
  149SOL    HW1  446   1.506   1.001   2.866  5.1856 -1.9934  3.3854
  149SOL    HW2  447   1.338   1.010   2.835  1.7037  1.6298  1.2183
  150SOL     OW  448   1.426   2.930   2.862 -0.3858  0.7653  0.1190
  150SOL    HW1  449   1.527   2.930   2.880 -2.8931 -2.6975  4.7096
  150SOL    HW2  450   1.373   2.870   2.929 -3.8512 -1.4653 -0.9129
  151SOL     OW  451   0.021   1.267   3.094 -0.5510  0.7579  0.2970
  151SOL    HW1  452   3.073   1.189   0.019 -1.0230 -2.0050  3.2170
  151SOL    HW2  453   0.113   1.268   0.026 -0.1377  0.8627 -3.7885
  152SOL     OW  454   0.696   0.335   1.553  0.0323  0.2566  0.2737
  152SOL    HW1  455   0.604   0.380   1.547 -1.9650  1.4420 -1.5615
  152SOL    HW2  456   0.684   0.237   1.532 -0.6949  0.5820  0.1766
  153SOL     OW  457   2.559   0.030   1.907 -0.2640  0.2891 -0.0410
  153SOL    HW1  458   2.461   0.023   1.924  0.3507  1.7171 -1.3160
  153SOL    HW2  459   2.592   0.126   1.890  2.8434  1.4445 -0.0855
  154SOL     OW  460   2.310   0.011   1.975 -0.1823  0.3079  0.0400
  154SOL    HW1  461   2.267   3.035   2.021  1.4550 -2.8663  2.1166
  154SOL    HW2  462   2.267   0.095   2.011 -1.3894  3.0045  0.0658
  155SOL     OW  463   3.088   1.286   0.495  0.0179 -0.1653 -0.4409
  155SOL    HW1  464   0.069   1.294   0.540  0.2837  1.4095 -0.8840
  155SOL    HW2  465   3.038   1.199   0.516 -0.9219  0.4766 -0.7206
  156SOL     OW  466   1.641   1.217   0.225  0.3838  0.7084 -0.3549
  156SOL    HW1  467   1.575   1.150   0.265  0.3608 -0.4284 -0.1800
  156SOL    HW2  468   1.646   1.192   0.128 -2.9919 -1.3489  2.1129
  157SOL     OW  469   0.967   2.502   3.025 -0.0513 -0.0807 -0.6505
  157SOL    HW1  470   1.044   2.480   3.094  1.9426 -2.3255  0.7250
  157SOL    HW2  471   0.882   2.451   3.046  3.4538  3.3978  2.8185
  158SOL     OW  472   1.881   0.830   1.550 -0.2200  0.0567 -0.4012
  158SOL    HW1  473   1.943   0.841   1.631 -3.6921  1.1814 -3.2500
  158SOL    HW2  474   1.800   0.894   1.566 -0.3265 -0.3861  1.1083
  159SOL     OW  475   3.031   0.262   0.538  0.2721 -0.1379  0.7413
  159SOL    HW1  476   3.020   0.231   0.440 -0.7888 -2.3683  0.7046
  159SOL    HW2  477   2.950   0.260   0.597 -0.4505  0.8182  0.2654
  160SOL     OW  478   2.495   2.009   1.720 -1.0951  0.0808  0.7216
  160SOL    HW1  479   2.539   1.921   1.709 -0.5522  2.0017 -0.8645
  160SOL    HW2  480   2.396   2.006   1.691 -0.0264 -0.7507 -0.8569
  161SOL     OW  481   0.132   0.143   0.147 -0.2748  0.1645 -0.3091
  161SOL    HW1  482   0.143   0.050   0.108 -0.9440 -0.5161 -1.5370
  161SOL    HW2  483   0.208   0.177   0.208 -0.5381 -0.4354  0.4346
  162SOL     OW  484   0.565   0.768   2.088  0.0450 -0.3910  0.2143
  162SOL    HW1  485   0.464   0.758   2.105  0.0339 -2.9837  2.9882
  162SOL    HW2  486   0.602   0.674   2.094 -0.9527 -1.6010  0.6311
  163SOL     OW  487   2.924   0.073   2.510  0.5173 -0.1194  0.1552
  163SOL    HW1  488   2.854   0.144   2.500 -0.8363  0.7663 -0.6528
  163SOL    HW2  489   2.900   3.108   2.441 -3.0165  0.0645 -3.7828
  164SOL     OW  490   2.302   1.564   0.040  0.1101  0.2866 -0.4159
  164SOL    HW1  491   2.253   1.637   3.097 -1.0487  1.1453  0.8354
  164SOL    HW2  492   2.253   1.478   0.027 -1.1052  0.0317  0.7444
  165SOL     OW  493   0.547   0.234   1.247  0.5263 -0.5828  0.1728
  165SOL    HW1  494   0.561   0.335   1.251  1.0762  2.7640 -0.4631
  165SOL    HW2  495   0.538   0.188   1.338  0.5799  3.7714  1.7061
  166SOL     OW  496   3.001   0.191   0.282 -0.0769 -0.2147 -0.1428
  166SOL    HW1  497   3.092   0.172   0.245 -1.6048  2.1277  1.3621
  166SOL    HW2  498   2.931   0.117   0.257 -1.8768 -2.1210 -0.1883
  167SOL     OW  499   2.261   0.535   0.648 -0.3649  0.5849  0.1773
  167SOL    HW1  500   2.281   0.602   0.724  0.5914 -3.8931 -0.6214
  167SOL    HW2  501   2.205   0.456   0.689 -0.2614 -0.4880  2.3339
  168SOL     OW  502   1.120   0.446   2.402  0.4504  0.3176  0.1684
  168SOL    HW1  503   1.125   0.447   2.502 -1.9311 -4.5076 -1.2015
  168SOL    HW2  504   1.098   0.537   2.363  0.6779 -1.3993  0.8973
  169SOL     OW  505   0.801   1.865   1.185  0.0359  0.4085  0.7361
  169SOL    HW1  506   0.883   1.897   1.128  0.0949 -1.2714  1.2566
  169SOL    HW2  507   0.714   1.891   1.140 -0.7491 -1.3446  0.9204
  170SOL     OW  508   2.940   0.221   1.621  0.4496 -0.1861  0.1931
  170SOL    HW1  509   2.986   0.134   1.588  0.1618  0.6823  2.2225
  170SOL    HW2  510   2.836   0.217   1.617 -2.3593 -0.3206  1.7993
  171SOL     OW  511   2.392   1.178   2.240 -0.4216 -0.2160 -0.2369
  171SOL    HW1  512   2.411   1.202   2.144  0.9375 -1.0879  2.5456
  171SOL    HW2  513   2.416   1.080   2.255  0.0071 -1.8934  2.3154
  172SOL     OW  514   1.295   2.207   1.179 -0.4802 -0.1725  0.1626
  172SOL    HW1  515   1.224   2.220   1.105 -0.2500  1.6542 -1.9297
  172SOL    HW2  516   1.338   2.115   1.168  0.9298 -0.3833  0.1743
  173SOL     OW  517   2.408   2.401   0.010  0.2545  0.1482  0.5009
  173SOL    HW1  518   2.355   2.374   0.090 -0.2936 -0.5912  2.3995
  173SOL    HW2  519   2.438   2.497   0.017 -1.9076 -0.4804 -0.5567
  174SOL     OW  520   1.800   0.721   0.197  0.1748 -0.1046 -0.1841
  174SOL    HW1  521   1.811   0.636   0.138  1.8786  1.9087 -1.5702
  174SOL    HW2  522   1.889   0.769   0.228  1.1109  4.3245  0.6183
  175SOL     OW  523   0.730   1.745   1.424  0.3627 -0.2967  0.2265
  175SOL    HW1  524   0.631   1.714   1.423 -3.0761  0.6207  2.3026
  175SOL    HW2  525   0.754   1.802   1.342 -1.9327 -0.1736  0.4623
  176SOL     OW  526   0.337   0.022   0.730  1.1828 -0.0711  0.8688
  176SOL    HW1  527   0.424   3.105   0.772 -2.5363  3.2179 -0.5698
  176SOL    HW2  528   0.291   3.052   0.686 -0.7772 -2.3565  1.6754
  177SOL     OW  529   2.892   1.370   0.262  0.3919  0.0035 -0.1937
  177SOL    HW1  530   2.921   1.282   0.210 -0.8655 -2.1198 -0.6824
  177SOL    HW2  531   2.960   1.408   0.325  0.0187 -0.5674  1.6082
  178SOL     OW  532   2.751   2.491   2.079  0.9227  0.0605  0.2726
  178SOL    HW1  533   2.787   2.583   2.050  0.9017 -0.1073 -2.0613
  178SOL    HW2  534   2.668   2.509   2.139 -0.2627 -1.4196 -0.5672
  179SOL     OW  535   2.302   0.060   0.113  0.0694 -0.1095 -0.1882
  179SOL    HW1  536   2.280   0.158   0.099  0.2363 -0.9568 -0.5386
  179SOL    HW2  537   2.223   0.021   0.167  1.8259  2.2693  1.5695
  180SOL     OW  538   2.467   0.509   0.488 -0.6456  0.0909 -0.4117
  180SOL    HW1  539   2.382   0.514   0.547 -0.5379 -1.3707  1.4710
  180SOL    HW2  540   2.532   0.563   0.540 -3.0093 -0.5410 -1.0600
  181SOL     OW  541   3.046   3.047   2.721 -0.4896  0.2676 -0.1213
  181SOL    HW1  542   3.000   3.104   2.648  0.6574  0.9537  0.2643
  181SOL    HW2  543   2.972   3.013   2.776  2.6381  1.4408 -1.9585
  182SOL     OW  544   2.609   2.096   2.476 -0.1476  0.3034 -0.1279
  182SOL    HW1  545   2.679   2.126   2.410 -0.4860 -0.5440 -2.5165
  182SOL    HW2  546   2.624   1.996   2.483  0.9608 -0.1670  0.3146
  183SOL     OW  547   2.867   0.866   1.445  1.0085  0.2529  0.0388
  183SOL    HW1  548   2.912   0.938   1.387  1.3241  3.2201  0.3057
  183SOL    HW2  549   2.867   0.895   1.541  1.1898  0.7868  0.3758
  184SOL     OW  550   3.078   1.381   1.180 -0.0025  0.2216 -0.4772
  184SOL    HW1  551   3.071   1.483   1.193 -2.1651 -2.0702  1.2825
  184SOL    HW2  552   3.083   1.356   1.086  0.0383 -0.5763  3.3649
  185SOL     OW  553   3.086   3.084   1.262 -0.4744 -0.3091  0.2394
  185SOL    HW1  554   3.012   3.017   1.241 -0.1340 -1.3032 -0.6723
  185SOL    HW2  555   3.070   0.071   1.232  2.8811 -0.4028 -1.0669
  186SOL     OW  556   2.094   2.489   2.126  0.1646 -0.0339  0.0238
  186SOL    HW1  557   2.046   2.405   2.097 -3.1919 -1.0398  0.3951
  186SOL    HW2  558   2.168   2.455   2.189  3.9742  0.8743  2.0263
  187SOL     OW  559   0.233   1.270   0.608 -0.6458  0.6535 -0.2764
  187SOL    HW1  560   0.296   1.314   0.537  1.4853  0.2487 -0.8901
  187SOL    HW2  561   0.229   1.323   0.695 -1.3763 -2.1071  2.5832
  188SOL     OW  562   1.867   1.826   3.020  0.0718 -0.6178  0.6655
  188SOL    HW1  563   1.840   1.923   3.045 -0.8294  2.1671  1.8250
  188SOL    HW2  564   1.958   1.804   3.059 -2.2864 -0.2686  1.1090
  189SOL     OW  565   0.089   1.734   2.986  0.4111  0.0411 -0.3737
  189SOL    HW1  566   0.184   1.692   2.964 -0.4171  0.5712  3.4390
  189SOL    HW2  567   0.065   1.798   2.913 -0.3885 -2.4636  0.5330
  190SOL     OW  568   2.136   0.501   2.500  0.3100 -0.1222  0.0882
  190SOL    HW1  569   2.142   0.604   2.517 -1.3126  0.2386  1.6296
  190SOL    HW2  570   2.230   0.459   2.490  1.6294  1.3544 -2.3647
  191SOL     OW  571   0.829   1.273   2.268  0.2530  0.7701 -0.2386
  191SOL    HW1  572   0.770   1.236   2.190 -2.0711 -0.1693 -0.8330
  191SOL    HW2  573   0.824   1.203   2.345  0.4314 -3.6073 -0.9753
  192SOL     OW  574   1.793   1.446   1.942  0.3096 -0.4537  0.7630
  192SOL    HW1  575   1.774   1.444   1.841 -1.4764 -1.3800 -1.3023
  192SOL    HW2  576   1.794   1.348   1.971  0.5357 -1.7141 -2.0664
  193SOL     OW  577   0.808   3.080   0.730 -0.3548  0.2973  0.5568
  193SOL    HW1  578   0.843   3.005   0.668  0.3091 -2.4719  0.6715
  193SOL    HW2  579   0.875   0.002   0.801 -0.2893 -0.2852 -1.7268
  194SOL     OW  580   1.486   1.358   1.775  0.2466  0.0583  0.4110
  194SOL    HW1  581   1.473   1.332   1.677 -1.4399 -0.6878  0.7727
  194SOL    HW2  582   1.408   1.392   1.828  2.8226 -0.0436  0.6614
  195SOL     OW  583   1.641   0.103   0.786 -0.1990 -0.1845 -0.8756
  195SOL    HW1  584   1.609   0.198   0.760 -0.4371  1.8098 -1.8859
  195SOL    HW2  585   1.739   0.087   0.769  1.3465 -1.3669 -1.0879
  196SOL     OW  586   1.064   1.609   2.078 -0.0665  0.3099 -0.4805
  196SOL    HW1  587   1.078   1.699   2.117 -0.7015 -1.5824  2.8874
  196SOL    HW2  588   1.010   1.610   1.995  2.3685  1.1727  1.0006
  197SOL     OW  589   0.485   0.281   2.551 -0.2199  0.4701  0.1328
  197SOL    HW1  590   0.564   0.319   2.607  0.7446  0.7793  0.3655
  197SOL    HW2  591   0.505   0.191   2.515 -1.6458  2.1302  2.4695
  198SOL     OW  592   2.929   1.010   1.105 -0.2683 -0.1089 -0.3201
  198SOL    HW1  593   2.851   0.941   1.120  1.9904  0.5527 -0.2084
  198SOL    HW2  594   2.921   1.098   1.159  2.5089  1.7423 -0.9394
  199SOL     OW  595   0.522   2.389   1.083  0.1528  0.3074 -0.5765
  199SOL    HW1  596   0.505   2.368   0.984 -0.7667 -1.8468 -1.2168
  199SOL    HW2  597   0.458   2.465   1.116 -1.7524 -0.7546  0.4995
  200SOL     OW  598   2.846   1.927   2.696 -0.2601 -0.6244 -0.5728
  200SOL    HW1  599   2.902   1.841   2.674 -2.2775  0.2039 -0.0436
  200SOL    HW2  600   2.749   1.913   2.714 -0.7464 -1.0562 -1.9745
  201SOL     OW  601   0.881   2.461   1.280 -0.5151  0.0594 -0.0782
  201SOL    HW1  602   0.948   2.495   1.209  2.5665  0.1506 -3.4041
  201SOL    HW2  603   0.825   2.378   1.250  0.8718 -0.7742  0.6581
  202SOL     OW  604   1.087   2.781   0.311 -0.0556  1.2745  0.1411
  202SOL    HW1  605   1.019   2.768   0.238 -1.5537  2.2294  0.0558
  202SOL    HW2  606   1.177   2.786   0.272 -3.4494 -2.0245 -0.5340
  203SOL     OW  607   1.737   2.938   2.819  0.0356 -0.3680  0.3217
  203SOL    HW1  608   1.752   3.005   2.745 -2.0189 -1.1843  5.2290
  203SOL    HW2  609   1.766   2.847   2.786 -0.5176  1.4011  1.7712
  204SOL     OW  610   0.322   1.579   1.563  0.2800  0.1825 -0.1706
  204SOL    HW1  611   0.388   1.610   1.493  1.7032 -0.7239  0.5276
  204SOL    HW2  612   0.366   1.539   1.647 -1.6521 -1.8664  3.1075
  205SOL     OW  613   2.228   1.322   2.391 -0.7570 -0.2395  0.0867
  205SOL    HW1  614   2.276   1.270   2.321 -1.2132 -0.6819 -1.2334
  205SOL    HW2  615   2.131   1.292   2.401  2.2049 -0.3205 -1.0818
  206SOL     OW  616   0.323   1.968   2.953  0.3373  0.3177 -0.4889
  206SOL    HW1  617   0.263   1.918   2.890  3.3417  3.7203  1.1319
  206SOL    HW2  618   0.329   2.063   2.916 -1.2282 -1.0474 -0.6325
  207SOL     OW  619   0.601   2.633   2.021 -0.5190 -0.4640  0.4347
  207SOL    HW1  620   0.577   2.536   2.014  0.6130  1.5564 -0.0738
  207SOL    HW2  621   0.579   2.681   1.938 -0.2620 -1.1140  1.3651
  208SOL     OW  622   0.047   2.698   1.375 -0.0971 -0.7628 -0.0418
  208SOL    HW1  623   0.015   2.665   1.468  1.0140  1.0520 -0.9068
  208SOL    HW2  624   0.111   2.774   1.387 -2.5361 -1.1855 -1.2824
  209SOL     OW  625   1.193   2.704   2.255 -0.0282 -0.0843  0.2736
  209SOL    HW1  626   1.160   2.622   2.309 -1.2261 -2.2847 -0.2387
  209SOL    HW2  627   1.240   2.774   2.315 -0.2282  0.4862  1.9738
  210SOL     OW  628   2.866   1.138   2.125 -0.2027  0.5243 -0.6064
  210SOL    HW1  629   2.934   1.096   2.066  0.4952  2.5896  0.0721
  210SOL    HW2  630   2.850   1.075   2.207 -0.9156  3.6860  1.7384
  211SOL     OW  631   1.501   3.093   2.091 -0.3725  0.9415  0.5251
  211SOL    HW1  632   1.546   3.003   2.083 -0.0192  1.2256 -1.2495
  211SOL    HW2  633   1.400   3.072   2.096  0.9994  1.2204  1.0906
  212SOL     OW  634   1.653   2.744   1.767  0.1643  0.1995  0.0624
  212SOL    HW1  635   1.724   2.733   1.846  0.2485 -0.5866  0.7816
  212SOL    HW2  636   1.682   2.825   1.704  1.0405  1.2817  0.5318
  213SOL     OW  637   2.407   0.634   1.663 -0.1052  0.0791  0.4362
  213SOL    HW1  638   2.378   0.551   1.609 -0.8750 -2.1900  0.6567
  213SOL    HW2  639   2.484   0.680   1.612 -0.1970  0.4485 -0.5086
  214SOL     OW  640   0.745   2.131   0.771 -1.0855 -0.1540  0.4568
  214SOL    HW1  641   0.789   2.043   0.750  1.1653  3.2534  1.5384
  214SOL    HW2  642   0.761   2.201   0.698 -2.3298 -0.4072 -3.1416
  215SOL     OW  643   2.443   1.852   0.714 -0.1689 -0.0315  0.0760
  215SOL    HW1  644   2.542   1.819   0.724  1.8553 -1.4554 -1.8296
  215SOL    HW2  645   2.411   1.823   0.616  0.1642 -0.0134 -2.0214
  216SOL     OW  646   2.747   0.697   1.811  0.3963 -0.4335 -0.2831
  216SOL    HW1  647   2.699   0.736   1.894  1.1130 -1.3740  1.3309
  216SOL    HW2  648   2.688   0.679   1.732 -0.2834  0.0771  1.6287
  217SOL     OW  649   2.090   0.517   1.305  0.3338  0.3118 -0.3628
  217SOL    HW1  650   2.110   0.490   1.209 -3.1856 -0.3976  1.1024
  217SOL    HW2  651   2.020   0.590   1.305  0.6353 -0.3273  2.7755
  218SOL     OW  652   1.909   2.336   1.243 -0.4991 -0.0056  0.6374
  218SOL    HW1  653   1.938   2.386   1.156  4.1248  1.6267 -2.4222
  218SOL    HW2  654   1.830   2.376   1.291  3.3773  0.8834  0.4533
  219SOL     OW  655   2.075   2.429   0.050  0.0044 -0.4280  0.1114
  219SOL    HW1  656   2.084   2.327   0.030 -1.3724 -2.2551 -3.1521
  219SOL    HW2  657   2.016   2.451   0.132 -0.3940  2.7629 -0.4824
  220SOL     OW  658   1.586   2.660   3.097  0.0875 -0.3388 -0.3428
  220SOL    HW1  659   1.591   2.621   0.081 -3.0958 -0.9006 -0.7175
  220SOL    HW2  660   1.654   2.736   3.107  0.5632 -2.2524  0.9537
  221SOL     OW  661   3.079   2.221   1.796 -0.5532  0.2311 -0.6091
  221SOL    HW1  662   3.021   2.183   1.721 -1.2633 -0.0391  0.6978
  221SOL    HW2  663   3.069   2.179   1.890 -0.6248 -0.9535  1.3946
  222SOL     OW  664   1.961   2.492   0.998  0.0619  0.1884  0.3537
  222SOL    HW1  665   2.045   2.550   1.001  1.1450  2.0562  0.5876
  222SOL    HW2  666   1.944   2.443   0.908  1.9996 -2.7975  0.3701
  223SOL     OW  667   1.384   2.540   1.525  0.1966 -0.0567 -0.2420
  223SOL    HW1  668   1.433   2.536   1.616  2.0293 -1.4038  1.4855
  223SOL    HW2  669   1.372   2.441   1.490 -0.5089 -0.4076 -0.8436
  224SOL     OW  670   2.836   2.533   1.445 -0.1196 -0.1791  0.3515
  224SOL    HW1  671   2.931   2.512   1.410  0.6863 -2.0867  0.7463
  224SOL    HW2  672   2.829   2.513   1.544  1.5982 -2.6236 -2.5540
  225SOL     OW  673   2.304   2.093   0.681  0.3119 -0.3280 -0.1740
  225SOL    HW1  674   2.356   2.007   0.694  1.4857  1.9766 -0.4153
  225SOL    HW2  675   2.251   2.114   0.762 -1.3029 -1.3459 -0.0836
  226SOL     OW  676   1.327   2.360   0.270  0.4523 -0.1293 -0.1559
  226SOL    HW1  677   1.407   2.326   0.220 -1.4165  0.1815  2.9363
  226SOL    HW2  678   1.356   2.403   0.358 -0.0776  2.1252  0.3283
  227SOL     OW  679   2.126   1.006   0.637  0.1598  0.3436 -0.0642
  227SOL    HW1  680   2.042   1.055   0.627  2.3080  0.1643  0.1675
  227SOL    HW2  681   2.141   0.930   0.570 -1.2979 -0.4819  1.9720
  228SOL     OW  682   1.842   0.508   0.044 -0.0473 -0.1456  0.5102
  228SOL    HW1  683   1.914   0.467   3.095 -1.6122  1.6584  3.8691
  228SOL    HW2  684   1.778   0.434   0.067  0.7545  1.1550 -1.4151
  229SOL     OW  685   2.798   0.978   2.324 -0.2704  0.1450  0.1543
  229SOL    HW1  686   2.702   1.008   2.336  0.1359 -2.5006 -0.0386
  229SOL    HW2  687   2.839   0.932   2.406  0.4675 -2.4602  1.3714
  230SOL     OW  688   0.396   1.255   0.971  0.5079 -0.1581 -0.0404
  230SOL    HW1  689   0.403   1.277   1.071  0.5470 -1.6411 -1.4097
  230SOL    HW2  690   0.487   1.223   0.933  2.0442 -0.2591  0.4251
  231SOL     OW  691   2.562   0.316   2.708  0.3727  0.1096  0.0415
  231SOL    HW1  692   2.567   0.404   2.744 -3.1914 -2.3720 -0.4848
  231SOL    HW2  693   2.625   0.303   2.628 -1.1687 -0.3382 -0.4851
  232SOL     OW  694   2.887   2.037   0.735 -0.0097 -0.5420 -0.3539
  232SOL    HW1  695   2.985   2.045   0.773 -0.0750  1.0395  2.2555
  232SOL    HW2  696   2.835   2.124   0.751  0.1721 -0.2710 -0.8114
  233SOL     OW  697   1.507   2.586   2.345  0.1356 -0.3946 -0.4510
  233SOL    HW1  698   1.474   2.678   2.320 -1.5670  1.4427  1.2709
  233SOL    HW2  699   1.562   2.544   2.266  1.7838  0.0540 -0.3749
  234SOL     OW  700   1.320   1.822   1.318 -0.2118  0.2028 -0.1791
  234SOL    HW1  701   1.394   1.848   1.378 -1.4719  0.6802 -0.0075
  234SOL    HW2  702   1.330   1.870   1.230  1.2430 -3.3709  0.5088
  235SOL     OW  703   1.050   1.877   1.765 -0.1077  0.0706  0.0104
  235SOL    HW1  704   0.975   1.939   1.790 -0.7304 -0.8936 -2.7251
  235SOL    HW2  705   1.013   1.796   1.711 -0.9620  0.4768 -1.5632
  236SOL     OW  706   0.993   2.575   2.769 -0.1612  0.3513 -0.3950
  236SOL    HW1  707   1.079   2.530   2.739  1.7029 -0.6181 -1.8753
  236SOL    HW2  708   0.982   2.534   2.863  0.8129  0.7897 -3.8195
  237SOL     OW  709   0.614   0.044   1.514  0.5306 -0.1083 -0.0218
  237SOL    HW1  710   0.693   0.036   1.447  0.9428 -1.0279  1.7724
  237SOL    HW2  711   0.559   3.074   1.527  1.9541  1.0548 -0.5077
  238SOL     OW  712   0.996   0.755   0.333 -0.1688 -0.0870 -0.0975
  238SOL    HW1  713   1.074   0.803   0.385  0.1604  4.8606  1.0197
  238SOL    HW2  714   0.908   0.779   0.378 -3.0827  0.7943 -0.3473
  239SOL     OW  715   2.433   0.789   2.846  0.2054 -0.6477 -0.0373
  239SOL    HW1  716   2.350   0.779   2.788  3.3715  0.0224  1.1203
  239SOL    HW2  717   2.406   0.786   2.946 -0.3590  0.1775  1.9909
  240SOL     OW  718   2.618   2.072   0.999  0.2409 -0.0805 -0.3703
  240SOL    HW1  719   2.585   2.020   1.079 -0.7426  2.3061 -3.1353
  240SOL    HW2  720   2.678   2.009   0.946 -1.1124 -1.9172  1.1201
  241SOL     OW  721   1.139   1.574   0.978 -0.7182 -0.0809  0.2255
  241SOL    HW1  722   1.194   1.493   1.012 -0.4013 -0.4258  1.9090
  241SOL    HW2  723   1.058   1.540   0.927  0.4650 -3.0118  0.7840
  242SOL     OW  724   0.937   0.501   0.880 -0.0857 -0.0861  0.1365
  242SOL    HW1  725   0.838   0.476   0.862 -0.8137  0.2257  1.1441
  242SOL    HW2  726   0.968   0.569   0.811  2.2264  0.1104  0.6009
  243SOL     OW  727   0.543   0.630   1.007  0.2136  0.0322 -0.3066
  243SOL    HW1  728   0.476   0.583   1.066 -2.3645 -1.4646  0.0574
  243SOL    HW2  729   0.499   0.700   0.939 -3.3887  1.3876  0.5451
  244SOL     OW  730   1.237   0.158   0.416 -0.4589 -0.2496  0.8490
  244SOL    HW1  731   1.206   0.064   0.424 -1.9070  1.4385 -1.0427
  244SOL    HW2  732   1.159   0.213   0.444  1.6267 -0.8471  0.1463
  245SOL     OW  733   2.054   0.805   0.272 -0.7249 -0.1852  0.2167
  245SOL    HW1  734   2.065   0.773   0.371  1.2505 -0.4198  2.9941
  245SOL    HW2  735   2.101   0.896   0.264 -1.2450  1.4746  2.4064
  246SOL     OW  736   0.403   0.219   1.691  0.2080  0.3102  0.1616
  246SOL    HW1  737   0.470   0.148   1.715  0.3183 -0.3830  0.1910
  246SOL    HW2  738   0.444   0.309   1.689 -1.1255 -1.4410  4.0406
  247SOL     OW  739   1.138   0.107   1.943  0.0622  0.0823 -0.6763
  247SOL    HW1  740   1.163   0.161   1.863 -1.8624 -1.6086  3.5075
  247SOL    HW2  741   1.182   0.126   2.032 -2.4648 -0.5780  0.8782
  248SOL     OW  742   0.491   1.680   2.000 -0.6105  0.1302 -0.0544
  248SOL    HW1  743   0.582   1.718   2.011 -3.8763 -0.6717 -0.7575
  248SOL    HW2  744   0.470   1.640   2.092  0.8654 -1.8067 -0.4784
  249SOL     OW  745   0.481   2.476   0.305  0.2817  0.1451  0.3510
  249SOL    HW1  746   0.410   2.547   0.277 -1.3974 -0.8153 -2.2110
  249SOL    HW2  747   0.566   2.490   0.256 -0.0287  2.0618 -1.0022
  250SOL     OW  748   0.802   0.297   2.067  0.8886  0.1448 -0.0351
  250SOL    HW1  749   0.703   0.290   2.053 -0.1424 -1.3515  3.1355
  250SOL    HW2  750   0.838   0.315   1.973 -0.3365  2.2921 -0.3258
  251SOL     OW  751   2.902   2.069   1.585 -0.1469  0.5154  0.6509
  251SOL    HW1  752   2.904   1.980   1.635  2.5582 -1.6442  0.4306
  251SOL    HW2  753   2.814   2.090   1.542  0.7149 -0.2171  2.1563
  252SOL     OW  754   1.387   0.290   1.847 -0.0306 -0.7759  0.7029
  252SOL    HW1  755   1.371   0.339   1.932  1.0544 -3.6839 -2.5612
  252SOL    HW2  756   1.437   0.205   1.864  0.5115  2.2039 -2.7273
  253SOL     OW  757   2.420   2.037   2.104  0.3539  0.4836 -0.0495
  253SOL    HW1  758   2.507   2.078   2.075  0.1111 -3.4392  0.1947
  253SOL    HW2  759   2.398   2.055   2.204 -4.3213  0.2799  4.1636
  254SOL     OW  760   0.836   1.568   1.166  0.7018  0.2417 -0.6588
  254SOL    HW1  761   0.837   1.673   1.167 -2.0419  2.3382 -1.8478
  254SOL    HW2  762   0.853   1.536   1.070 -1.3532 -0.2820 -0.2481
  255SOL     OW  763   0.393   2.739   1.870  0.2016 -0.2945 -0.0592
  255SOL    HW1  764   0.482   2.786   1.859  2.8933 -0.0174  1.5816
  255SOL    HW2  765   0.324   2.786   1.814 -0.9955  0.4748  0.8358
  256SOL     OW  766   0.394   2.783   0.724  0.1072  0.5665  0.2036
  256SOL    HW1  767   0.403   2.683   0.721 -1.3717 -1.7275  0.6164
  256SOL    HW2  768   0.484   2.829   0.738  1.1366 -0.1863  4.1248
  257SOL     OW  769   1.084   2.495   2.418  0.1218  0.8858 -0.0253
  257SOL    HW1  770   1.016   2.489   2.496 -1.5655 -0.3958  1.2578
  257SOL    HW2  771   1.061   2.434   2.341 -0.2944 -1.5404  0.3126
  258SOL     OW  772   1.371   2.124   2.141  0.4617  0.0234  0.2316
  258SOL    HW1  773   1.299   2.161   2.074 -0.9774 -2.0615 -0.7869
  258SOL    HW2  774   1.450   2.188   2.149  0.7980  0.4890  1.1030
  259SOL     OW  775   0.852   0.865   2.437 -0.1333 -0.0869 -0.1416
  259SOL    HW1  776   0.842   0.915   2.350  1.6170 -0.1362  0.7892
  259SOL    HW2  777   0.763   0.849   2.479 -1.8829  0.5959 -0.6125
  260SOL     OW  778   2.694   0.686   2.560 -0.2034 -0.5082  0.2943
  260SOL    HW1  779   2.655   0.649   2.649 -0.2247 -1.2033 -0.1664
  260SOL    HW2  780   2.702   0.606   2.499  2.6301  2.9770  1.2987
  261SOL     OW  781   0.865   1.277   0.742 -0.2110 -0.7928  0.6613
  261SOL    HW1  782   0.963   1.264   0.772  0.5886 -1.2284  0.2754
  261SOL    HW2  783   0.860   1.285   0.642  0.7701  2.4541  3.2373
  262SOL     OW  784   2.358   2.121   2.382  0.1390  0.5005 -0.1440
  262SOL    HW1  785   2.295   2.154   2.455  2.7965  0.0545 -1.2732
  262SOL    HW2  786   2.451   2.097   2.422 -0.9499  0.9886 -1.1881
  263SOL     OW  787   0.819   2.809   0.987 -0.1559 -0.2816  0.9318
  263SOL    HW1  788   0.878   2.843   1.063 -0.8436  3.0095 -2.0155
  263SOL    HW2  789   0.821   2.709   0.972 -0.1716 -0.2053 -2.0497
  264SOL     OW  790   2.832   2.151   0.409 -0.1982 -0.1348  0.0995
  264SOL    HW1  791   2.811   2.175   0.504 -0.7401  1.5340  0.4528
  264SOL    HW2  792   2.751   2.127   0.351 -2.0824  1.1613  1.1866
  265SOL     OW  793   1.872   1.119   2.595 -0.1002 -0.5752 -0.7593
  265SOL    HW1  794   1.776   1.089   2.576 -1.6341  0.1263  2.4010
  265SOL    HW2  795   1.875   1.220   2.576  0.9474  2.2444  0.7187
  266SOL     OW  796   1.280   1.846   2.168 -0.2842  0.0203  0.4744
  266SOL    HW1  797   1.324   1.935   2.143  2.7292 -1.4209  2.8444
  266SOL    HW2  798   1.188   1.859   2.210  1.3795  1.3555  1.0848
  267SOL     OW  799   2.537   0.891   2.386  0.2923 -0.0954  0.0522
  267SOL    HW1  800   2.488   0.946   2.457 -2.5245  1.1003  1.4038
  267SOL    HW2  801   2.612   0.841   2.430 -0.6498 -1.6198 -2.2279
  268SOL     OW  802   1.030   1.155   2.936  0.0035  0.4627  0.1551
  268SOL    HW1  803   0.992   1.243   2.979 -1.9881  0.1320  0.9415
  268SOL    HW2  804   1.130   1.150   2.956 -0.2628 -1.7268 -0.9667
  269SOL     OW  805   3.075   2.129   2.052  0.0747 -0.0916 -0.1535
  269SOL    HW1  806   3.052   2.044   2.104  0.6417 -2.4376  1.3289
  269SOL    HW2  807   3.030   2.207   2.104 -2.3607  0.1008  1.7093
  270SOL     OW  808   0.020   1.895   0.105 -0.7156  0.2073 -0.4165
  270SOL    HW1  809   3.053   1.847   0.154 -0.9734 -3.0543  0.2202
  270SOL    HW2  810   0.058   1.830   0.032  1.0435  0.3761 -4.8184
  271SOL     OW  811   0.325   0.266   0.325 -0.0299 -0.2295  0.0299
  271SOL    HW1  812   0.347   0.265   0.426 -0.0345  0.3924  1.4500
  271SOL    HW2  813   0.269   0.351   0.307 -4.0987  3.6757 -0.0448
  272SOL     OW  814   3.013   2.811   0.613 -0.0213  0.4580  0.0309
  272SOL    HW1  815   2.928   2.866   0.629  0.1900  0.1788 -0.4323
  272SOL    HW2  816   3.003   2.766   0.521  3.2240 -0.8425  1.2154
  273SOL     OW  817   0.349   0.088   2.096  0.2342 -0.1862  0.2372
  273SOL    HW1  818   0.299   0.030   2.161 -0.9183 -0.3041 -0.7459
  273SOL    HW2  819   0.303   0.085   2.006  0.5619 -2.4414 -0.7719
  274SOL     OW  820   0.389   0.519   1.189  0.0030 -0.1405 -0.3414
  274SOL    HW1  821   0.350   0.466   1.108  0.1993  2.0739 -1.5422
  274SOL    HW2  822   0.313   0.568   1.236 -1.0106  2.2673  0.0643
  275SOL     OW  823   1.042   1.817   1.019 -0.0432  0.3032 -0.3189
  275SOL    HW1  824   1.114   1.888   1.017  1.7210 -2.2859  1.0582
  275SOL    HW2  825   1.086   1.724   1.020 -0.6178  2.1385 -1.1951
  276SOL     OW  826   0.469   1.478   1.792  0.3559 -0.2583  0.3920
  276SOL    HW1  827   0.477   1.557   1.852 -1.0726 -1.2513  0.0571
  276SOL    HW2  828   0.402   1.410   1.826  0.1488  1.4405 -2.0115
  277SOL     OW  829   1.230   2.225   1.958 -0.6040  0.6119 -0.7576
  277SOL    HW1  830   1.133   2.252   1.978 -2.3100  2.0484  0.2512
  277SOL    HW2  831   1.227   2.189   1.860 -0.0928  2.2684 -2.5721
  278SOL     OW  832   2.177   2.936   2.139 -0.2584  0.3532  0.3237
  278SOL    HW1  833   2.168   2.855   2.076 -0.3558 -2.3328 -1.4648
  278SOL    HW2  834   2.101   2.943   2.206  1.6841 -0.9913 -1.8873
  279SOL     OW  835   1.728   1.605   3.079  0.3598  0.3692 -0.3402
  279SOL    HW1  836   1.757   1.535   3.010 -2.3016  1.7583  0.8296
  279SOL    HW2  837   1.769   1.695   3.042  0.9656  0.5784 -3.5037
  280SOL     OW  838   1.614   0.405   0.511  0.0340 -0.5737  0.3170
  280SOL    HW1  839   1.618   0.418   0.615  1.5357  0.4040  1.5038
  280SOL    HW2  840   1.634   0.487   0.456 -0.0122  1.4442 -1.5217
  281SOL     OW  841   0.468   0.466   1.751 -0.1633  0.2039  0.6774
  281SOL    HW1  842   0.378   0.456   1.787 -0.2649 -0.7512  0.1117
  281SOL    HW2  843   0.500   0.568   1.743  0.1661 -0.3121 -0.1432
  282SOL     OW  844   0.185   2.871   0.568  0.4153 -0.5009 -0.0855
  282SOL    HW1  845   0.086   2.840   0.581 -0.8898 -1.8157  0.5098
  282SOL    HW2  846   0.246   2.832   0.642 -1.4818 -1.3728  2.5861
  283SOL     OW  847   1.302   2.308   1.414 -0.3488  0.5471  0.1705
  283SOL    HW1  848   1.296   2.272   1.317 -1.2809 -0.5333 -0.0656
  283SOL    HW2  849   1.328   2.230   1.474 -0.9645  0.8328 -1.0562
  284SOL     OW  850   2.393   2.688   1.404  0.5061 -0.3028  0.7148
  284SOL    HW1  851   2.476   2.671   1.343 -2.6636 -0.2533  0.9238
  284SOL    HW2  852   2.316   2.628   1.383  1.2953 -0.8620  1.4414
  285SOL     OW  853   0.487   2.181   0.864 -0.0203  0.5016 -0.1473
  285SOL    HW1  854   0.587   2.158   0.846  1.3383 -0.1529  0.2762
  285SOL    HW2  855   0.428   2.143   0.790  3.0770  1.1759  2.7032
  286SOL     OW  856   0.073   2.790   1.757 -0.0062  0.5030  0.0150
  286SOL    HW1  857   0.043   2.784   1.852  1.6294  0.4835 -2.6486
  286SOL    HW2  858   0.056   2.700   1.708  0.5721 -0.1013 -0.3329
  287SOL     OW  859   0.628   1.185   0.859 -0.4171 -0.8447  0.0342
  287SOL    HW1  860   0.701   1.246   0.827 -0.9522 -0.2288  1.5439
  287SOL    HW2  861   0.607   1.114   0.793  0.4856  0.7852  0.7395
  288SOL     OW  862   1.338   2.026   2.570  0.8287  0.1365 -0.5276
  288SOL    HW1  863   1.366   1.945   2.516  1.0628  3.5125 -1.3432
  288SOL    HW2  864   1.320   2.002   2.668 -0.4246  0.1041  2.9628
  289SOL     OW  865   2.538   1.527   2.740  0.1078  1.3133 -0.5597
  289SOL    HW1  866   2.517   1.490   2.838 -2.5286  1.7921  2.0166
  289SOL    HW2  867   2.450   1.544   2.688  1.2731  0.1140  2.4403
  290SOL     OW  868   1.249   1.342   1.089  0.3759 -0.3213 -0.5580
  290SOL    HW1  869   1.170   1.346   1.155  2.5901  1.6677  1.9485
  290SOL    HW2  870   1.339   1.346   1.138  1.8574 -0.8245  0.9450
  291SOL     OW  871   1.173   0.857   0.107 -0.0600 -0.3009 -0.7317
  291SOL    HW1  872   1.128   0.855   0.199 -0.2410  0.8107 -0.4254
  291SOL    HW2  873   1.103   0.821   0.039 -0.7959  2.8044 -3.2873
  292SOL     OW  874   1.952   1.610   0.219 -0.1511 -0.0587  0.4066
  292SOL    HW1  875   2.018   1.536   0.240 -2.9253  1.0908 -0.6701
  292SOL    HW2  876   1.861   1.566   0.193  1.0496 -0.7458 -0.8307
  293SOL     OW  877   1.621   3.105   1.057 -0.0029  0.1000 -0.1256
  293SOL    HW1  878   1.615   0.048   1.142  0.6572 -1.4061 -2.1656
  293SOL    HW2  879   1.586   0.036   0.969 -0.1682  1.1960 -0.9683
  294SOL     OW  880   2.250   0.996   0.018 -0.3093 -0.1582 -0.1228
  294SOL    HW1  881   2.294   0.904   0.013 -1.4184  1.0377 -0.3176
  294SOL    HW2  882   2.255   1.031   0.115 -0.8615 -0.3228  1.1646
  295SOL     OW  883   2.030   2.011   2.542  0.4452  0.0877  0.5777
  295SOL    HW1  884   1.984   1.962   2.615 -0.0315  1.6444 -3.2599
  295SOL    HW2  885   1.970   2.085   2.510  0.1252 -0.6690 -0.6722
  296SOL     OW  886   1.438   1.345   1.465  0.6679 -0.1470  0.3402
  296SOL    HW1  887   1.454   1.403   1.386 -1.8371  0.4529  1.2413
  296SOL    HW2  888   1.341   1.363   1.504 -0.1958 -0.1612 -1.0578
  297SOL     OW  889   0.208   0.865   2.366 -0.5034 -0.0125  0.3953
  297SOL    HW1  890   0.202   0.766   2.392 -1.3989  0.0884 -0.3925
  297SOL    HW2  891   0.264   0.918   2.432 -1.2556  0.1400 -0.4111
  298SOL     OW  892   1.729   2.436   1.429  0.0993  0.0184  0.8021
  298SOL    HW1  893   1.693   2.391   1.511 -1.3078 -0.4047 -2.5902
  298SOL    HW2  894   1.786   2.517   1.454  2.4268 -0.9660 -1.9450
  299SOL     OW  895   1.107   0.475   2.680 -0.5563 -0.1465 -0.1269
  299SOL    HW1  896   1.197   0.495   2.719 -2.7192 -0.1528 -1.3114
  299SOL    HW2  897   1.072   0.386   2.714 -0.5684  1.2823  2.1462
  300SOL     OW  898   2.313   1.481   0.423  0.0651 -0.5025 -0.2938
  300SOL    HW1  899   2.382   1.541   0.369  3.1740  1.9553 -2.7142
  300SOL    HW2  900   2.234   1.457   0.372  2.5921 -3.6778  3.5074
  301SOL     OW  901   2.377   0.385   2.500 -1.1951 -0.1412 -0.1508
  301SOL    HW1  902   2.444   0.364   2.429 -0.8596  0.4131 -0.5604
  301SOL    HW2  903   2.412   0.368   2.594  1.0955  0.7620  0.4109
  302SOL     OW  904   2.646   1.809   2.488  0.2425 -0.3291 -0.5508
  302SOL    HW1  905   2.723   1.755   2.454 -4.2298  0.6455  2.7096
  302SOL    HW2  906   2.560   1.760   2.466  0.4561 -1.0647 -1.1653
  303SOL     OW  907   0.035   2.640   2.500 -0.3360  0.2073 -0.0520
  303SOL    HW1  908   0.050   2.574   2.428 -1.9603  2.5865  0.5753
  303SOL    HW2  909   0.047   2.599   2.594 -1.1516 -0.5044 -0.3118
  304SOL     OW  910   2.816   1.242   1.231  0.3994 -0.1868 -0.3107
  304SOL    HW1  911   2.768   1.201   1.309 -2.5201  2.0429  0.6265
  304SOL    HW2  912   2.914   1.270   1.256  1.5720  0.9914  2.3198
  305SOL     OW  913   0.174   0.279   2.241 -0.4905  0.3368  0.0119
  305SOL    HW1  914   0.135   0.232   2.161  0.4036 -1.1864  0.8689
  305SOL    HW2  915   0.105   0.264   2.315 -0.0623 -1.3475  0.8802
  306SOL     OW  916   1.260   1.417   0.400 -0.2959  0.0747 -0.4013
  306SOL    HW1  917   1.247   1.320   0.373 -0.5394  0.2831 -0.2308
  306SOL    HW2  918   1.345   1.436   0.452  2.8289  1.2108  1.2624
  307SOL     OW  919   2.784   0.070   1.120  0.5895 -0.2968 -0.0602
  307SOL    HW1  920   2.807   0.042   1.027 -0.0561  2.5254 -1.5464
  307SOL    HW2  921   2.829   0.156   1.145  1.5321  0.2197 -1.2039
  308SOL     OW  922   3.011   1.702   2.644  0.3195  0.7466  0.1197
  308SOL    HW1  923   2.953   1.670   2.726 -0.2310  0.5625  1.3554
  308SOL    HW2  924   3.001   1.628   2.568 -1.3014 -2.7635 -1.5729
  309SOL     OW  925   0.141   1.870   2.746  0.1068 -0.6537  0.2414
  309SOL    HW1  926   0.068   1.939   2.721  0.6626  1.1580  0.4912
  309SOL    HW2  927   0.147   1.795   2.680 -0.2325  1.4950  0.8382
  310SOL     OW  928   2.273   0.342   0.087  0.6707 -0.3315 -0.4437
  310SOL    HW1  929   2.295   0.386   0.001 -1.0100 -1.7275  1.4433
  310SOL    HW2  930   2.213   0.407   0.140 -1.7279  0.1165 -2.5261
  311SOL     OW  931   2.069   1.066   2.772  0.4650 -0.0587 -0.2730
  311SOL    HW1  932   1.983   1.065   2.717  0.4672  3.0229 -0.4285
  311SOL    HW2  933   2.040   1.062   2.869 -2.2607 -1.1843 -1.2897
  312SOL     OW  934   1.288   1.470   1.974  0.1530  0.0605 -0.3039
  312SOL    HW1  935   1.348   1.549   2.001 -1.0300 -0.1589 -1.0518
  312SOL    HW2  936   1.191   1.503   1.977 -3.1331  2.4242  0.5867
  313SOL     OW  937   3.108   0.541   0.125 -0.1330 -0.4296 -0.1621
  313SOL    HW1  938   0.031   0.463   0.070  1.5542  0.0877  3.4572
  313SOL    HW2  939   3.030   0.514   0.183 -1.3502  3.3984 -3.0082
  314SOL     OW  940   0.399   1.879   1.453  0.0275 -0.6595 -0.2640
  314SOL    HW1  941   0.458   1.898   1.533 -1.1872 -2.6000 -0.7098
  314SOL    HW2  942   0.416   1.790   1.414  1.9473  0.7420  2.7213
  315SOL     OW  943   1.126   1.631   1.447  0.0384  0.3848 -0.9070
  315SOL    HW1  944   1.193   1.591   1.512  0.4701 -1.9206 -1.1869
  315SOL    HW2  945   1.162   1.718   1.417  0.4184  1.7833  1.4863
  316SOL     OW  946   0.118   2.278   0.575 -0.4296  0.1592 -0.4055
  316SOL    HW1  947   0.074   2.205   0.517 -2.8252 -1.1383  2.8556
  316SOL    HW2  948   0.211   2.246   0.604  0.5071  1.9302 -0.8439
  317SOL     OW  949   2.467   0.192   1.182  0.5920  0.8043 -0.3845
  317SOL    HW1  950   2.465   0.223   1.278 -0.9369 -1.1214 -1.5234
  317SOL    HW2  951   2.474   0.088   1.178  1.4989  0.2543  0.8196
  318SOL     OW  952   1.299   2.953   0.168  0.5733 -0.4209 -0.3677
  318SOL    HW1  953   1.318   2.910   0.078  2.5738 -0.2953  0.2355
  318SOL    HW2  954   1.285   3.056   0.151 -1.3473  2.8796  3.1087
  319SOL     OW  955   1.729   0.009   2.564 -0.5858 -0.1100  0.0866
  319SOL    HW1  956   1.687   0.103   2.569 -0.9138 -1.1317 -0.5011
  319SOL    HW2  957   1.689   3.061   2.491 -0.3339 -3.2907  2.7554
  320SOL     OW  958   2.694   2.064   1.895 -0.4821 -0.0723  0.1846
  320SOL    HW1  959   2.729   1.977   1.940 -0.9376  0.8717  2.2888
  320SOL    HW2  960   2.604   2.040   1.852 -0.0186 -1.6997 -0.6228
  321SOL     OW  961   0.201   2.581   3.110  0.6367  0.4059 -0.4037
  321SOL    HW1  962   0.232   2.600   0.091  2.1038 -0.8373 -2.3060
  321SOL    HW2  963   0.221   2.489   3.080 -0.0251  2.2553 -2.7852
  322SOL     OW  964   2.631   0.776   2.049  0.4627  0.1155  0.1405
  322SOL    HW1  965   2.657   0.868   2.027 -1.4875 -1.2018  1.0016
  322SOL    HW2  966   2.534   0.774   2.082 -2.3583 -2.6771 -0.5460
  323SOL     OW  967   1.919   1.185   0.302  0.4394  0.0799  0.1348
  323SOL    HW1  968   1.837   1.226   0.260 -0.3667 -0.1427  2.0629
  323SOL    HW2  969   1.906   1.166   0.404 -2.3102  1.4854  2.3172
  324SOL     OW  970   0.087   0.386   1.369  0.0020 -0.3209  0.8570
  324SOL    HW1  971   0.137   0.464   1.322  2.4790 -0.3410  2.6927
  324SOL    HW2  972   0.025   0.412   1.442  5.5759 -1.8966 -1.1156
  325SOL     OW  973   2.835   2.925   1.519  0.1361  0.2053  0.0110
  325SOL    HW1  974   2.931   2.961   1.518  1.6179  1.4758 -0.1354
  325SOL    HW2  975   2.794   2.927   1.428 -0.5155 -0.9773  0.3526
  326SOL     OW  976   1.619   2.665   0.307 -0.3335  0.2902 -0.2128
  326SOL    HW1  977   1.543   2.717   0.343  1.7715 -1.6167 -1.0021
  326SOL    HW2  978   1.614   2.574   0.335  0.3464  3.4614 -1.1741
  327SOL     OW  979   1.976   2.211   0.435  1.1419 -0.0521 -0.0014
  327SOL    HW1  980   1.880   2.199   0.467 -3.3137  0.3055  0.2425
  327SOL    HW2  981   2.025   2.126   0.411 -0.0060  1.5829  0.0477
  328SOL     OW  982   2.714   2.335   1.851 -0.2829  0.1213  0.4414
  328SOL    HW1  983   2.695   2.233   1.877  0.6391 -0.4024  1.7271
  328SOL    HW2  984   2.709   2.385   1.944 -0.7612  1.5176  2.9703
  329SOL     OW  985   0.248   2.380   1.230  0.8287 -0.0880 -0.0473
  329SOL    HW1  986   0.178   2.404   1.301 -2.2131 -2.5503 -1.2016
  329SOL    HW2  987   0.304   2.296   1.258  0.2656 -1.0543 -1.2846
  330SOL     OW  988   2.197   0.857   2.457  0.1036 -0.7769 -0.3032
  330SOL    HW1  989   2.125   0.913   2.412  0.3055  0.7587  1.7903
  330SOL    HW2  990   2.276   0.920   2.483  2.1192  0.7946  2.3833
  331SOL     OW  991   2.346   1.442   0.716  0.1757 -0.8514 -0.0170
  331SOL    HW1  992   2.316   1.443   0.617 -2.3321  0.3750  2.6906
  331SOL    HW2  993   2.428   1.503   0.727 -0.0489  0.9763  0.1302
  332SOL     OW  994   0.207   3.010   1.347 -0.0082  0.3375  0.0456
  332SOL    HW1  995   0.123   3.050   1.298 -1.4027 -1.7470 -3.0466
  332SOL    HW2  996   0.244   3.084   1.409 -1.1620  0.0413  0.3021
  333SOL     OW  997   0.065   1.548   2.044 -0.3284  0.4174 -0.1649
  333SOL    HW1  998   0.132   1.629   2.034  0.7672  0.2509 -0.8118
  333SOL    HW2  999   0.083   1.475   1.976 -0.0273  0.1681  1.2710
  334SOL     OW 1000   0.306   0.943   1.314  0.3808 -0.0935 -0.0180
  334SOL    HW1 1001   0.208   0.930   1.281  1.0982  0.8332  2.0834
  334SOL    HW2 1002   0.376   0.925   1.234  3.5648  0.6282 -0.6589
  335SOL     OW 1003   2.942   1.651   1.900  0.3750  0.2461 -0.4480
  335SOL    HW1 1004   3.024   1.690   1.947 -0.1799  0.7930 -0.0873
  335SOL    HW2 1005   2.924   1.550   1.917 -1.2793 -1.3068  1.3462
  336SOL     OW 1006   1.933   2.772   2.675 -0.0786 -0.3034  0.2830
  336SOL    HW1 1007   1.985   2.691   2.633  0.6916  1.8160  1.7516
  336SOL    HW2 1008   1.965   2.785   2.770 -0.9249 -0.7951 -2.3419
  337SOL     OW 1009   0.691   0.621   1.243 -0.7771  0.1356  0.2729
  337SOL    HW1 1010   0.655   0.695   1.306  2.3660  1.4707 -0.7891
  337SOL    HW2 1011   0.635   0.623   1.157 -0.7580  1.3642  0.8826
  338SOL     OW 1012   1.477   2.384   0.992 -0.2102 -0.5545 -0.3357
  338SOL    HW1 1013   1.521   2.419   1.078 -0.5337 -3.4406 -0.6941
  338SOL    HW2 1014   1.386   2.354   1.025 -2.7569 -0.2694  1.2230
  339SOL     OW 1015   0.346   2.118   1.323  0.4487 -0.2062 -0.4121
  339SOL    HW1 1016   0.385   2.168   1.398 -2.0116  0.5360 -0.8104
  339SOL    HW2 1017   0.352   2.022   1.339  0.0475  3.4985 -0.1657
  340SOL     OW 1018   0.538   0.257   1.993  0.2357 -0.9510  0.1095
  340SOL    HW1 1019   0.490   0.335   1.939 -1.2047  0.9056 -0.6206
  340SOL    HW2 1020   0.467   0.207   2.051 -3.3286 -2.6015  0.0888
  341SOL     OW 1021   1.952   1.532   0.629  0.0326  0.6322 -0.4198
  341SOL    HW1 1022   1.982   1.451   0.683  0.7262 -1.5054 -0.3384
  341SOL    HW2 1023   2.025   1.598   0.620 -0.8855 -0.5439  0.2518
  342SOL     OW 1024   1.726   1.453   0.486 -0.7020  0.1036 -0.3176
  342SOL    HW1 1025   1.743   1.472   0.384  1.5223  0.5860 -3.1521
  342SOL    HW2 1026   1.795   1.494   0.550 -0.0732 -0.8892  3.8937
  343SOL     OW 1027   2.026   0.001   0.979  0.2615 -0.5896 -0.4971
  343SOL    HW1 1028   2.113   0.050   1.000 -1.4333 -0.6700 -2.6148
  343SOL    HW2 1029   2.024   3.081   0.883  1.1830  0.8086 -0.4970
  344SOL     OW 1030   2.860   0.130   2.824  0.4172  0.2786 -0.0814
  344SOL    HW1 1031   2.889   0.081   2.909  1.5544  2.7457 -4.1018
  344SOL    HW2 1032   2.784   0.088   2.769  0.1466 -1.6000  2.1091
  345SOL     OW 1033   1.373   2.720   1.327  0.0098  0.0916 -0.1909
  345SOL    HW1 1034   1.418   2.799   1.377  1.6215  3.1634 -5.1870
  345SOL    HW2 1035   1.356   2.639   1.390  1.3324 -0.9518 -1.8107
  346SOL     OW 1036   2.158   2.298   1.500 -0.1231  0.4888 -0.3953
  346SOL    HW1 1037   2.121   2.239   1.572  0.3308  1.8514 -0.3647
  346SOL    HW2 1038   2.195   2.242   1.419  3.3405 -0.6192 -0.5752
  347SOL     OW 1039   2.446   3.005   0.948  0.4932  0.6882 -0.0335
  347SOL    HW1 1040   2.399   3.096   0.946 -3.9670 -0.7992 -0.3923
  347SOL    HW2 1041   2.477   2.988   1.044 -0.1263  0.5028 -0.5212
  348SOL     OW 1042   0.714   1.061   1.341  0.3087 -0.3722 -0.4637
  348SOL    HW1 1043   0.717   1.057   1.239 -0.4984 -0.3940  1.5407
  348SOL    HW2 1044   0.692   0.968   1.377 -0.4294  1.3759 -0.6144
  349SOL     OW 1045   2.269   0.207   2.887 -0.0612 -0.2480  0.3209
  349SOL    HW1 1046   2.304   0.301   2.903  1.2177 -2.4640 -1.1473
  349SOL    HW2 1047   2.342   0.140   2.876 -0.5342 -1.2983  0.4358
  350SOL     OW 1048   2.485   1.959   0.063  0.1036 -0.2091 -0.7513
  350SOL    HW1 1049   2.534   1.869   0.079 -0.9233  0.3441 -0.9772
  350SOL    HW2 1050   2.490   1.995   3.081 -0.1276 -0.2592  2.1718
  351SOL     OW 1051   1.223   0.509   0.618  0.3838  0.1850  0.6778
  351SOL    HW1 1052   1.264   0.422   0.661  1.5842 -0.9593 -0.5965
  351SOL    HW2 1053   1.212   0.495   0.515 -1.7760  0.2239  0.5686
  352SOL     OW 1054   1.803   2.181   2.466  0.3042  0.1206  0.0244
  352SOL    HW1 1055   1.795   2.279   2.453  1.2535 -0.3307 -1.5909
  352SOL    HW2 1056   1.739   2.122   2.406 -0.5731  1.1942  0.8987
  353SOL     OW 1057   0.458   0.667   3.076 -0.1942 -0.4194 -0.3096
  353SOL    HW1 1058   0.409   0.578   3.057  3.0979 -0.5613 -2.1956
  353SOL    HW2 1059   0.439   0.735   2.998 -0.6941  4.8172  2.0347
  354SOL     OW 1060   1.226   1.963   0.088 -0.7727  0.4352  0.1357
  354SOL    HW1 1061   1.140   2.013   0.074 -0.3832 -2.5235 -2.6421
  354SOL    HW2 1062   1.249   1.956   0.188 -0.3917 -0.0850  2.8869
  355SOL     OW 1063   2.735   2.745   1.699 -1.0516  0.6994 -0.8290
  355SOL    HW1 1064   2.775   2.820   1.641  0.3172 -1.4693  1.9040
  355SOL    HW2 1065   2.637   2.736   1.687 -1.2921 -0.0876 -0.5846
  356SOL     OW 1066   2.756   0.893   0.529  0.2440  0.3365  0.0936
  356SOL    HW1 1067   2.789   0.797   0.512  1.1812 -0.5042 -0.4548
  356SOL    HW2 1068   2.722   0.897   0.625  0.6740  1.1626 -2.3392
  357SOL     OW 1069   2.579   0.332   0.978 -0.2599 -0.7046 -0.1328
  357SOL    HW1 1070   2.521   0.418   0.975 -1.6502  2.1702 -1.8360
  357SOL    HW2 1071   2.557   0.274   1.056  3.3185 -1.0975  0.3465
  358SOL     OW 1072   1.032   2.519   1.060 -0.4217  0.0713 -1.1889
  358SOL    HW1 1073   0.937   2.510   1.012  0.7644  1.0520 -2.5754
  358SOL    HW2 1074   1.077   2.601   1.021 -2.3033 -2.9654  0.8153
  359SOL     OW 1075   0.136   2.562   2.735  0.6226 -0.1361  0.0011
  359SOL    HW1 1076   0.234   2.576   2.759 -1.5580  0.9242 -0.1878
  359SOL    HW2 1077   0.084   2.607   2.814  0.9692  2.8541  2.6662
  360SOL     OW 1078   0.743   1.089   1.822 -0.6323 -0.4487 -0.3615
  360SOL    HW1 1079   0.783   1.112   1.735 -0.2078  0.4358  3.4230
  360SOL    HW2 1080   0.668   1.021   1.812  1.4753  0.6043  2.7089
  361SOL     OW 1081   2.401   3.016   0.398 -0.3832 -0.0892 -0.2909
  361SOL    HW1 1082   2.490   2.985   0.439 -2.9677 -0.8739  1.7327
  361SOL    HW2 1083   2.410   0.006   0.392  1.8128 -4.2060 -0.1054
  362SOL     OW 1084   0.197   0.098   0.968 -0.1786 -0.2667  0.3262
  362SOL    HW1 1085   0.246   0.075   0.879 -2.8525 -0.8578 -0.7758
  362SOL    HW2 1086   0.242   0.054   1.045 -3.0219 -0.3915  1.0686
  363SOL     OW 1087   0.801   1.333   0.481  0.3838 -0.2920 -0.2378
  363SOL    HW1 1088   0.715   1.282   0.454 -1.8743 -0.5553 -0.1913
  363SOL    HW2 1089   0.851   1.363   0.397 -3.5351  0.8930 -0.3730
  364SOL     OW 1090   0.732   1.392   1.746 -0.1330 -0.0297 -0.0447
  364SOL    HW1 1091   0.741   1.299   1.712 -2.7535 -0.3168 -2.0926
  364SOL    HW2 1092   0.642   1.437   1.729 -0.3114 -0.3458  0.9421
  365SOL     OW 1093   2.579   0.971   0.345 -0.4305 -0.2361  0.1047
  365SOL    HW1 1094   2.654   0.935   0.410 -0.0718 -1.0848  0.9885
  365SOL    HW2 1095   2.519   1.043   0.385  0.9587 -0.7719  1.8033
  366SOL     OW 1096   2.790   1.801   1.151  0.3737 -0.7076 -0.2019
  366SOL    HW1 1097   2.747   1.877   1.203  1.5658  1.5377  0.7484
  366SOL    HW2 1098   2.782   1.709   1.197  0.7631 -3.2228  2.0437
  367SOL     OW 1099   2.241   2.187   1.994 -0.0057 -0.1705  0.1377
  367SOL    HW1 1100   2.155   2.158   1.940  1.0271 -0.9648  0.5425
  367SOL    HW2 1101   2.296   2.108   2.034 -0.7496 -1.3381 -0.3287
  368SOL     OW 1102   2.677   1.297   1.003  0.0317 -0.2064  0.5314
  368SOL    HW1 1103   2.724   1.354   0.929  3.2735 -0.0085  1.6145
  368SOL    HW2 1104   2.737   1.311   1.087  0.2189 -0.6194 -1.8356
  369SOL     OW 1105   2.513   2.640   0.046 -0.0799 -0.1289 -0.4809
  369SOL    HW1 1106   2.471   2.695   0.123 -0.4179  2.0155  3.2648
  369SOL    HW2 1107   2.548   2.700   3.081 -0.7687  1.2531 -1.6244
  370SOL     OW 1108   3.102   3.107   1.527  0.2365  0.4306  0.1125
  370SOL    HW1 1109   0.082   3.091   1.583  2.4807 -2.2666  1.1378
  370SOL    HW2 1110   0.011   3.107   1.427  0.1152 -2.2926 -0.7793
  371SOL     OW 1111   0.670   1.770   2.788 -0.4686  0.2466 -0.4216
  371SOL    HW1 1112   0.748   1.779   2.723  0.5033 -0.5789 -0.4786
  371SOL    HW2 1113   0.633   1.865   2.813 -1.9134 -0.5468  0.9803
  372SOL     OW 1114   0.939   1.124   0.298  0.3518 -0.3777  0.5185
  372SOL    HW1 1115   0.887   1.062   0.356  1.2966  1.6076  0.3194
  372SOL    HW2 1116   0.944   1.083   0.206  2.2957  0.6881 -0.4621
  373SOL     OW 1117   1.641   2.549   2.862  0.3896 -0.1114  0.3558
  373SOL    HW1 1118   1.640   2.583   2.955 -1.8477 -0.5010 -2.0564
  373SOL    HW2 1119   1.585   2.614   2.804  3.0936  0.8771 -1.6072
  374SOL     OW 1120   0.209   2.034   0.256 -0.1906  0.4250  0.6008
  374SOL    HW1 1121   0.261   2.108   0.202 -0.4766  2.7826  0.6196
  374SOL    HW2 1122   0.157   1.973   0.193 -1.0925 -1.0369  2.2887
  375SOL     OW 1123   0.899   1.581   1.845  0.0979 -0.3596 -0.1358
  375SOL    HW1 1124   0.841   1.495   1.836  0.2578 -1.7523  1.7033
  375SOL    HW2 1125   0.904   1.625   1.750  0.3028  2.4797 -1.7813
  376SOL     OW 1126   0.753   2.407   1.827  0.0266 -0.5393 -0.2356
  376SOL    HW1 1127   0.691   2.461   1.772  0.4066 -1.7064  1.5313
  376SOL    HW2 1128   0.701   2.360   1.896 -1.4954  0.8758 -0.6518
  377SOL     OW 1129   2.513   1.491   2.121  0.2091  0.1448  0.2562
  377SOL    HW1 1130   2.520   1.592   2.100  0.4111  1.8358  1.4197
  377SOL    HW2 1131   2.593   1.463   2.179  0.4992 -1.8614 -1.2105
  378SOL     OW 1132   0.983   2.952   3.006 -0.1291  0.2237 -0.7900
  378SOL    HW1 1133   0.985   2.911   3.096  1.3129 -0.3870  1.2781
  378SOL    HW2 1134   1.002   3.051   3.007 -1.4425  0.8060 -1.5220
  379SOL     OW 1135   2.123   0.312   0.761 -0.3631 -0.0073 -0.3000
  379SOL    HW1 1136   2.157   0.246   0.691 -3.0145  0.1775  1.0459
  379SOL    HW2 1137   2.027   0.300   0.785  0.0690 -0.6574  2.2588
  380SOL     OW 1138   3.107   2.151   1.426  0.3277 -0.5826  0.4700
  380SOL    HW1 1139   3.033   2.104   1.480 -0.9253 -0.2299 -1.0612
  380SOL    HW2 1140   3.083   2.151   1.329  1.3434 -1.7351  0.5100
  381SOL     OW 1141   1.849   1.913   1.840 -0.1645 -0.0418 -0.2491
  381SOL    HW1 1142   1.794   1.949   1.763 -0.2773  3.0377  1.7683
  381SOL    HW2 1143   1.904   1.833   1.810  0.0554 -0.7829  0.8566
  382SOL     OW 1144   3.076   0.308   2.825  0.0303 -0.6141 -0.1176
  382SOL    HW1 1145   0.048   0.305   2.768 -1.1011 -0.3949  1.9575
  382SOL    HW2 1146   3.012   0.241   2.797 -2.1421 -0.1532  1.2543
  383SOL     OW 1147   1.722   1.370   2.659 -0.1727 -0.5608  0.8743
  383SOL    HW1 1148   1.630   1.325   2.644 -1.5427 -0.7787 -0.2669
  383SOL    HW2 1149   1.737   1.400   2.756 -0.7138 -0.0489 -0.6832
  384SOL     OW 1150   1.098   2.244   0.992  0.1090 -0.1022 -0.0229
  384SOL    HW1 1151   1.104   2.339   1.023  0.3035 -1.9752 -1.4663
  384SOL    HW2 1152   1.017   2.195   1.023  3.2600 -1.1793  3.0944
  385SOL     OW 1153   2.002   2.324   0.769  0.0398 -0.4187  0.2310
  385SOL    HW1 1154   1.903   2.323   0.745 -0.7231  1.1770  0.1560
  385SOL    HW2 1155   2.054   2.331   0.678  1.1286  1.3116  1.1234
  386SOL     OW 1156   2.047   1.929   0.995 -0.4006 -0.4445 -0.0179
  386SOL    HW1 1157   2.089   2.005   0.938  2.1171 -0.2283 -0.4439
  386SOL    HW2 1158   2.016   1.970   1.083 -1.0374  1.9355  1.3982
  387SOL     OW 1159   0.421   2.229   1.620 -0.4329  0.4612 -1.0240
  387SOL    HW1 1160   0.324   2.249   1.641  0.1868  1.7250 -0.6801
  387SOL    HW2 1161   0.445   2.130   1.639  1.6908 -1.4262 -2.2738
  388SOL     OW 1162   3.003   0.605   1.800  0.5477  0.2155  0.3485
  388SOL    HW1 1163   2.904   0.637   1.803 -0.3557 -1.6897 -2.5221
  388SOL    HW2 1164   3.017   0.514   1.850 -1.6309 -0.0658 -0.2512
  389SOL     OW 1165   1.881   1.152   0.584  0.2620 -0.4847 -1.0721
  389SOL    HW1 1166   1.877   1.185   0.677 -1.2664  0.3082 -1.5853
  389SOL    HW2 1167   1.789   1.111   0.570  1.9551 -0.8857  0.6272
  390SOL     OW 1168   0.877   2.216   2.738 -0.0642 -0.1171 -0.5657
  390SOL    HW1 1169   0.840   2.306   2.770  0.2611  1.0065  3.0002
  390SOL    HW2 1170   0.971   2.222   2.708 -0.7791 -1.5904  0.8547
  391SOL     OW 1171   0.870   2.005   2.913  0.6391 -0.7203 -0.3636
  391SOL    HW1 1172   0.783   1.962   2.938  3.8901  2.8335 -3.9560
  391SOL    HW2 1173   0.854   2.075   2.842  0.1212  0.2702 -1.7335
  392SOL     OW 1174   3.082   2.817   2.017  0.1918 -0.1144  0.5390
  392SOL    HW1 1175   2.982   2.795   2.006 -3.7848 -1.7089  2.0126
  392SOL    HW2 1176   3.095   2.899   2.075 -1.0920 -1.7752  0.8804
  393SOL     OW 1177   1.920   2.479   0.269 -0.0145  0.0843 -0.1268
  393SOL    HW1 1178   1.962   2.519   0.356  1.0645  4.1734 -0.8545
  393SOL    HW2 1179   1.837   2.421   0.291 -0.2472  0.2512  1.4445
  394SOL     OW 1180   0.581   0.599   2.391 -0.5000  0.7551 -0.2249
  394SOL    HW1 1181   0.493   0.553   2.379 -0.2914  1.6405  1.2839
  394SOL    HW2 1182   0.654   0.572   2.326  0.2331 -0.0497  1.1459
  395SOL     OW 1183   0.455   1.278   1.225 -0.0402 -0.1821  0.5094
  395SOL    HW1 1184   0.477   1.184   1.252 -1.4479 -2.0337  0.1711
  395SOL    HW2 1185   0.516   1.339   1.279 -0.5425 -2.1743  0.2993
  396SOL     OW 1186   1.672   1.589   2.136  0.4443  0.2050 -0.1072
  396SOL    HW1 1187   1.730   1.530   2.076 -1.3497  1.8922  2.7757
  396SOL    HW2 1188   1.647   1.545   2.222  0.2921  4.3839  0.7456
  397SOL     OW 1189   0.855   0.406   0.026  0.0297 -0.2818  0.1664
  397SOL    HW1 1190   0.791   0.485   0.036 -0.5882  1.7591  0.5193
  397SOL    HW2 1191   0.802   0.323   3.105  1.3668 -0.8455 -1.2554
  398SOL     OW 1192   0.505   1.870   2.583  0.5929  0.4887 -0.0341
  398SOL    HW1 1193   0.459   1.963   2.593 -2.5812  1.9841 -1.7327
  398SOL    HW2 1194   0.582   1.879   2.517 -0.3937 -0.1204 -0.6346
  399SOL     OW 1195   3.007   1.900   2.207 -0.2229  0.0514  0.1077
  399SOL    HW1 1196   2.982   1.954   2.292 -0.6882  1.9220 -1.3033
  399SOL    HW2 1197   3.077   1.821   2.231  4.2276 -3.7568 -0.2232
  400SOL     OW 1198   2.317   0.873   1.778 -0.3880 -0.1486 -0.0811
  400SOL    HW1 1199   2.362   0.943   1.724  2.6616  0.8100  1.4233
  400SOL    HW2 1200   2.361   0.783   1.757  0.2843  2.1436  1.4837
  401SOL     OW 1201   1.138   1.529   0.677 -0.3144  0.1981 -0.1867
  401SOL    HW1 1202   1.177   1.505   0.771 -1.3289 -3.8964  1.1062
  401SOL    HW2 1203   1.176   1.461   0.614 -0.5741  2.9985 -0.8812
  402SOL     OW 1204   3.057   2.616   2.196  0.3574  0.4012  0.3325
  402SOL    HW1 1205   3.052   2.700   2.137 -0.7467 -1.9074  1.3095
  402SOL    HW2 1206   0.044   2.586   2.199 -1.5135 -1.1539 -0.9737
  403SOL     OW 1207   0.426   1.549   2.232  0.9281  0.1566 -0.1643
  403SOL    HW1 1208   0.355   1.612   2.275  0.9459  0.9497  1.0327
  403SOL    HW2 1209   0.404   1.448   2.229  1.2443 -0.3832 -2.5761
  404SOL     OW 1210   1.768   2.059   1.615 -0.0337 -0.1625 -0.0568
  404SOL    HW1 1211   1.725   2.156   1.620 -0.6987  1.4275 -0.0380
  404SOL    HW2 1212   1.762   2.021   1.522  2.5720  0.4939 -0.0880
  405SOL     OW 1213   3.033   2.654   2.887  0.8704 -0.2504 -0.0324
  405SOL    HW1 1214   3.051   2.657   2.989 -2.2904 -0.5883 -0.5008
  405SOL    HW2 1215   2.955   2.586   2.870 -1.4778 -1.3309  2.1766
  406SOL     OW 1216   0.671   1.208   0.064 -0.3513  0.5264  0.5572
  406SOL    HW1 1217   0.752   1.150   0.043  0.4773  2.2288 -1.1492
  406SOL    HW2 1218   0.618   1.234   3.094  2.6916  0.6624 -2.9211
  407SOL     OW 1219   2.105   2.458   2.852 -0.3992 -0.4957 -0.2140
  407SOL    HW1 1220   2.177   2.484   2.784 -1.0127  2.6855  0.5430
  407SOL    HW2 1221   2.136   2.482   2.947 -0.2433  2.5724 -0.0978
  408SOL     OW 1222   2.918   2.914   0.053  0.0338  0.6519 -0.4846
  408SOL    HW1 1223   2.901   2.812   0.061 -0.6115 -0.6014 -0.0596
  408SOL    HW2 1224   2.873   2.964   0.134 -0.4054  0.4321 -0.2920
  409SOL     OW 1225   2.233   1.466   0.947  0.3445  0.1003  0.1888
  409SOL    HW1 1226   2.229   1.565   0.977 -1.5411  1.3251 -0.0389
  409SOL    HW2 1227   2.289   1.449   0.860  2.2387 -1.2105 -0.1930
  410SOL     OW 1228   2.810   1.812   0.584  0.2211 -0.1345 -0.2610
  410SOL    HW1 1229   2.819   1.901   0.634 -3.5324  0.9686 -0.2709
  410SOL    HW2 1230   2.902   1.771   0.563  0.0163  0.5271 -1.7658
  411SOL     OW 1231   0.187   1.411   0.872  0.7797 -0.2777  0.3431
  411SOL    HW1 1232   0.223   1.510   0.871 -1.0982  1.0186  2.2001
  411SOL    HW2 1233   0.254   1.351   0.920 -0.8167 -0.9719  0.4028
  412SOL     OW 1234   2.306   2.110   0.397 -0.2427  0.6884  0.0805
  412SOL    HW1 1235   2.324   2.209   0.381 -0.1580 -2.6133  0.8974
  412SOL    HW2 1236   2.287   2.099   0.497 -1.7193 -0.0832  0.7627
  413SOL     OW 1237   1.869   0.778   2.204  0.1852 -0.3056 -0.1264
  413SOL    HW1 1238   1.790   0.758   2.147 -0.1971  0.0702  2.3863
  413SOL    HW2 1239   1.921   0.861   2.173  0.0539  2.0803  2.8367
  414SOL     OW 1240   2.807   3.102   0.222 -0.2135 -0.6459 -0.0012
  414SOL    HW1 1241   2.714   3.099   0.180 -0.0760  0.0531  0.1738
  414SOL    HW2 1242   2.797   3.079   0.320 -0.3281  0.7613 -1.5226
  415SOL     OW 1243   0.855   2.129   1.020 -0.3586 -0.0318 -0.1801
  415SOL    HW1 1244   0.782   2.152   1.090 -0.5203  0.7660 -0.0493
  415SOL    HW2 1245   0.815   2.120   0.928  1.3821  0.2186  3.4045
  416SOL     OW 1246   0.328   2.844   2.767 -0.1260 -0.0615 -0.2795
  416SOL    HW1 1247   0.292   2.893   2.683  0.9417 -2.1178  0.8451
  416SOL    HW2 1248   0.370   2.755   2.741 -0.2348  3.3994  2.2916
  417SOL     OW 1249   2.717   0.555   1.134 -0.2855  0.2319 -0.7389
  417SOL    HW1 1250   2.686   0.497   1.059  0.2185  0.5925 -2.7085
  417SOL    HW2 1251   2.770   0.500   1.208  2.3202 -1.8945  2.0840
  418SOL     OW 1252   0.050   0.329   3.079  0.5419 -0.4082  0.1480
  418SOL    HW1 1253   0.052   0.244   0.022  0.7500 -0.3697 -0.4963
  418SOL    HW2 1254   0.005   0.317   2.990 -1.4614  1.8605  0.4060
  419SOL     OW 1255   0.073   1.553   1.702 -0.0461 -0.1119  0.6717
  419SOL    HW1 1256   0.004   1.485   1.683  1.7386  0.1959 -0.0153
  419SOL    HW2 1257   0.146   1.559   1.629  1.6991  1.2429 -1.0587
  420SOL     OW 1258   0.599   1.603   0.499  0.0966  0.5286  0.3481
  420SOL    HW1 1259   0.616   1.691   0.447 -0.1226  1.5398  0.1508
  420SOL    HW2 1260   0.687   1.560   0.522  2.3661 -1.7122 -0.3722
  421SOL     OW 1261   2.301   2.373   2.273  0.3729  0.3019  0.2377
  421SOL    HW1 1262   2.340   2.279   2.274 -1.7798  0.1609  1.4178
  421SOL    HW2 1263   2.379   2.434   2.248 -0.9014  1.4342 -1.4179
  422SOL     OW 1264   3.073   0.580   2.774  0.0096  0.7787 -0.6067
  422SOL    HW1 1265   3.094   0.593   2.675  1.3300  0.6801 -0.9715
  422SOL    HW2 1266   3.096   0.483   2.806  1.9402 -2.1457  1.4840
  423SOL     OW 1267   1.359   2.160   0.592 -0.0065 -0.3821 -0.2074
  423SOL    HW1 1268   1.384   2.252   0.556  3.8152 -2.7846  1.3136
  423SOL    HW2 1269   1.273   2.157   0.645  1.5363  1.1655 -2.0368
  424SOL     OW 1270   0.741   1.958   1.606 -0.1154  0.1056 -0.1120
  424SOL    HW1 1271   0.733   2.055   1.574  1.2096 -2.4731  0.3695
  424SOL    HW2 1272   0.758   1.897   1.523 -0.4568 -0.3402 -0.0081
  425SOL     OW 1273   2.755   2.674   2.648 -0.2932  1.4688  0.8036
  425SOL    HW1 1274   2.807   2.685   2.562  0.0044 -0.4320  1.2782
  425SOL    HW2 1275   2.782   2.588   2.702 -0.1825 -1.3103  2.6719
  426SOL     OW 1276   1.838   0.677   0.646 -0.2206  0.5423 -0.4843
  426SOL    HW1 1277   1.840   0.599   0.712  1.4123 -3.6884 -0.3786
  426SOL    HW2 1278   1.782   0.661   0.562 -0.1861  2.9693 -2.0540
  427SOL     OW 1279   0.279   1.270   0.083  0.4482 -0.3036  0.0268
  427SOL    HW1 1280   0.261   1.173   0.121 -0.9471 -1.1471 -0.6170
  427SOL    HW2 1281   0.360   1.261   0.023  1.7654  0.7543 -0.3915
  428SOL     OW 1282   1.265   1.131   0.094  0.5136 -0.7538 -0.6891
  428SOL    HW1 1283   1.234   1.035   0.093  2.3880  1.0052  2.4668
  428SOL    HW2 1284   1.300   1.167   0.007  0.4966  1.3518  2.1130
  429SOL     OW 1285   2.823   2.508   0.626 -1.1152 -0.0431  0.2534
  429SOL    HW1 1286   2.786   2.591   0.669  0.5566 -0.0706 -1.2582
  429SOL    HW2 1287   2.875   2.533   0.539 -0.9862 -0.8553 -0.7532
  430SOL     OW 1288   0.404   2.515   2.422  0.3098 -0.0094 -0.0579
  430SOL    HW1 1289   0.444   2.430   2.378  1.0173  0.8607 -1.2343
  430SOL    HW2 1290   0.304   2.520   2.411  0.4767 -2.7733  0.9344
  431SOL     OW 1291   2.985   1.064   0.573  0.1064  0.2506 -0.3123
  431SOL    HW1 1292   2.892   1.023   0.556 -2.7057 -0.9094 -2.5140
  431SOL    HW2 1293   3.060   0.992   0.566  1.2222 -2.9388  2.4394
  432SOL     OW 1294   2.159   2.697   1.969 -1.0634  0.7269  0.1518
  432SOL    HW1 1295   2.258   2.705   1.953 -1.3338 -0.8910 -0.7311
  432SOL    HW2 1296   2.140   2.620   2.032  4.1331 -1.6482  1.8442
  433SOL     OW 1297   1.538   2.502   0.741  0.1273 -0.2322 -0.1376
  433SOL    HW1 1298   1.522   2.476   0.838  0.5325  0.8629  1.5606
  433SOL    HW2 1299   1.582   2.596   0.736  1.1665  1.4927 -1.5127
  434SOL     OW 1300   1.038   1.861   2.277 -0.3493  0.2212  0.3046
  434SOL    HW1 1301   0.999   1.955   2.262 -1.5693  0.1440 -0.4955
  434SOL    HW2 1302   1.012   1.837   2.370 -0.0385  1.5233 -0.2843
  435SOL     OW 1303   2.974   1.069   0.094  0.4554 -0.0104 -0.1080
  435SOL    HW1 1304   2.952   1.000   0.022  1.9348  1.3423 -3.9345
  435SOL    HW2 1305   3.027   1.023   0.169  1.3787 -2.0712 -1.2029
  436SOL     OW 1306   0.309   2.726   2.140 -0.5272  0.0431  0.0844
  436SOL    HW1 1307   0.341   2.707   2.045  0.6750  2.6700  2.1591
  436SOL    HW2 1308   0.395   2.724   2.203  1.5095  0.1234  0.0181
  437SOL     OW 1309   1.801   2.959   1.665  0.2982  0.1943 -0.0040
  437SOL    HW1 1310   1.875   2.925   1.730  0.3636 -0.6225 -1.2217
  437SOL    HW2 1311   1.812   3.057   1.634  1.0900  0.1701 -1.4675
  438SOL     OW 1312   0.101   1.850   0.677 -0.2103 -0.1821 -0.4824
  438SOL    HW1 1313   0.074   1.928   0.741 -1.4544 -1.2638 -1.0852
  438SOL    HW2 1314   0.140   1.768   0.733 -0.5992 -1.8721 -0.1221
  439SOL     OW 1315   0.341   0.361   0.956 -0.2340 -0.2762 -0.0886
  439SOL    HW1 1316   0.436   0.326   0.980 -0.3647  0.0982  1.0735
  439SOL    HW2 1317   0.285   0.279   0.956  2.6980  3.6482  0.3690
  440SOL     OW 1318   3.103   2.891   2.377 -0.6917  0.3088 -0.2029
  440SOL    HW1 1319   0.011   2.797   2.413 -1.9596  0.5598 -0.0114
  440SOL    HW2 1320   3.004   2.904   2.363 -1.2838  0.6408  0.2124
  441SOL     OW 1321   0.083   0.909   0.496  0.3494 -0.1777 -0.1865
  441SOL    HW1 1322   0.159   0.962   0.537  0.8802  0.1928 -1.0911
  441SOL    HW2 1323   0.066   0.815   0.522 -0.6633  3.4916 -0.0825
  442SOL     OW 1324   1.419   2.421   2.568 -0.2457 -0.7296 -0.4449
  442SOL    HW1 1325   1.407   2.461   2.477  0.2218 -0.1737  0.2227
  442SOL    HW2 1326   1.464   2.329   2.572 -0.6758 -0.1566  2.1202
  443SOL     OW 1327   0.750   0.130   0.346  0.0598 -0.1153 -0.5905
  443SOL    HW1 1328   0.830   0.078   0.308  0.6369 -0.5426 -0.5780
  443SOL    HW2 1329   0.706   0.183   0.274  1.0704 -0.9074  0.4314
  444SOL     OW 1330   1.557   1.639   2.611 -0.1110  0.0937 -0.9479
  444SOL    HW1 1331   1.538   1.688   2.523  0.9359  1.5636 -1.2857
  444SOL    HW2 1332   1.625   1.562   2.598  1.1969 -2.8672 -2.2220
  445SOL     OW 1333   0.115   0.444   0.544 -0.1246 -0.6369 -0.7808
  445SOL    HW1 1334   0.042   0.377   0.549  1.5173  0.0938 -0.9578
  445SOL    HW2 1335   0.150   0.450   0.447  0.4102 -2.1120 -2.0284
  446SOL     OW 1336   1.817   0.907   0.812  0.4455 -0.1589 -0.2499
  446SOL    HW1 1337   1.840   0.851   0.729  1.6033  0.7347 -1.6752
  446SOL    HW2 1338   1.713   0.924   0.814  0.7846 -3.9984 -1.6720
  447SOL     OW 1339   0.008   0.867   0.229 -0.5104  0.1191  0.2023
  447SOL    HW1 1340   3.101   0.773   0.196 -0.1000  3.3713 -2.5796
  447SOL    HW2 1341   0.009   0.872   0.332  0.1399  1.6226  2.3377
  448SOL     OW 1342   1.778   1.961   1.369 -0.5478 -0.3389  0.1517
  448SOL    HW1 1343   1.725   1.937   1.282 -1.7630  0.0708  0.2536
  448SOL    HW2 1344   1.861   2.018   1.348 -0.9300  3.3270 -0.3404
  449SOL     OW 1345   0.929   1.397   0.262 -0.3090 -0.7885 -1.0476
  449SOL    HW1 1346   0.954   1.299   0.280 -2.7059 -0.5920 -0.5709
  449SOL    HW2 1347   1.005   1.454   0.215 -0.8659 -0.0838 -1.0919
  450SOL     OW 1348   2.413   2.729   2.300  0.4325 -0.6644  0.5357
  450SOL    HW1 1349   2.309   2.736   2.311  1.0222  1.4178 -3.1732
  450SOL    HW2 1350   2.450   2.797   2.233  2.1859  3.7874  1.7168
  451SOL     OW 1351   2.180   0.812   2.713 -0.0737  0.2197 -0.4133
  451SOL    HW1 1352   2.147   0.906   2.736 -0.2769 -2.0168 -0.1425
  451SOL    HW2 1353   2.195   0.806   2.614  1.5664  3.2323  1.6608
  452SOL     OW 1354   1.543   1.108   1.049 -0.6140  0.2989 -0.0679
  452SOL    HW1 1355   1.464   1.068   1.099  2.2915  1.3811 -0.3643
  452SOL    HW2 1356   1.634   1.077   1.089  2.0239  0.0379  1.1642
  453SOL     OW 1357   1.688   0.640   1.534  0.3395  0.3001 -0.2470
  453SOL    HW1 1358   1.664   0.592   1.623 -2.3894 -0.6932  1.6258
  453SOL    HW2 1359   1.758   0.716   1.545 -0.0059 -1.8563 -2.7053
  454SOL     OW 1360   2.617   1.166   2.675 -0.3060 -0.3170  0.4420
  454SOL    HW1 1361   2.692   1.127   2.731 -1.5454  1.0145 -0.2386
  454SOL    HW2 1362   2.528   1.175   2.729  1.4819 -0.6007 -1.2370
  455SOL     OW 1363   2.807   1.511   1.336  0.6349 -0.7237 -0.4139
  455SOL    HW1 1364   2.848   1.500   1.426 -0.0135  0.3643 -3.8989
  455SOL    HW2 1365   2.826   1.431   1.277 -1.8249 -1.0856  1.0373
  456SOL     OW 1366   1.278   2.894   1.579 -0.2512 -0.3919 -0.1291
  456SOL    HW1 1367   1.318   2.912   1.667  0.6075 -1.2053  1.0760
  456SOL    HW2 1368   1.353   2.911   1.511 -0.2802  2.0520  2.4168
  457SOL     OW 1369   1.624   2.839   1.043 -0.5465 -0.3630  0.6191
  457SOL    HW1 1370   1.701   2.790   1.085 -2.8519 -0.4523 -1.2559
  457SOL    HW2 1371   1.644   2.940   1.024 -0.5871  3.9847 -3.3487
  458SOL     OW 1372   2.944   2.846   0.958 -0.1199 -0.1818  0.1158
  458SOL    HW1 1373   2.868   2.808   0.906  0.3289  3.2824 -0.6850
  458SOL    HW2 1374   2.940   2.947   0.946 -0.3009 -3.4093 -1.7539
  459SOL     OW 1375   1.554   0.854   0.194 -0.2087 -0.0025  0.3114
  459SOL    HW1 1376   1.489   0.809   0.126 -1.1082 -0.4069  1.1036
  459SOL    HW2 1377   1.652   0.820   0.179 -0.7340  0.4283  2.0099
  460SOL     OW 1378   0.414   2.584   2.671 -0.0561 -0.2680  0.1652
  460SOL    HW1 1379   0.397   2.539   2.580 -2.7022 -0.0539 -1.2116
  460SOL    HW2 1380   0.517   2.582   2.688  1.0505  1.4783 -0.3374
  461SOL     OW 1381   0.279   1.491   0.247  0.2529  0.5106  0.2067
  461SOL    HW1 1382   0.329   1.458   0.333 -0.6392  3.5847  0.1020
  461SOL    HW2 1383   0.269   1.420   0.173 -1.5292  0.1843 -3.1768
  462SOL     OW 1384   1.703   2.098   0.468  0.0386  0.5037 -0.5128
  462SOL    HW1 1385   1.740   2.034   0.542  0.9340 -2.6819  3.2966
  462SOL    HW2 1386   1.682   2.048   0.384 -1.8327 -1.1075 -0.6495
  463SOL     OW 1387   2.640   0.333   0.382 -0.0636  0.2333  0.4736
  463SOL    HW1 1388   2.593   0.410   0.431  0.1247 -1.3381  0.9601
  463SOL    HW2 1389   2.637   0.340   0.280  1.0455 -0.3545  0.8956
  464SOL     OW 1390   0.945   2.124   0.443  0.3863 -0.0173  0.3081
  464SOL    HW1 1391   1.018   2.164   0.381 -0.6396 -2.8044 -4.1045
  464SOL    HW2 1392   0.877   2.070   0.391 -2.4050  1.2349 -2.1804
  465SOL     OW 1393   2.190   0.439   1.040 -0.3893 -0.1922  0.2908
  465SOL    HW1 1394   2.150   0.389   0.959 -1.0166 -1.2528 -0.8593
  465SOL    HW2 1395   2.275   0.490   1.025 -2.0588 -1.0417  1.5666
  466SOL     OW 1396   2.247   0.127   0.590 -0.4171  0.2756 -0.4249
  466SOL    HW1 1397   2.297   0.161   0.507  2.3844 -2.0074 -0.5364
  466SOL    HW2 1398   2.309   0.089   0.660 -0.6650  1.3104 -1.4111
  467SOL     OW 1399   1.001   0.684   2.308  0.1071  0.0803 -0.0555
  467SOL    HW1 1400   0.928   0.740   2.344  0.5789 -0.4346  2.7878
  467SOL    HW2 1401   1.027   0.721   2.220  0.3974 -0.4680 -0.0977
  468SOL     OW 1402   2.529   0.372   2.090  0.0943  0.5589 -0.1098
  468SOL    HW1 1403   2.437   0.400   2.058  2.4582  0.9103 -0.7444
  468SOL    HW2 1404   2.577   0.452   2.140  1.7361  3.3223  1.2421
  469SOL     OW 1405   1.113   2.538   1.757 -0.0584  0.0753 -0.4755
  469SOL    HW1 1406   1.115   2.543   1.655  1.2951  1.3080  0.5429
  469SOL    HW2 1407   1.076   2.623   1.797 -1.9098  0.0336  2.9672
  470SOL     OW 1408   2.206   1.242   1.887 -0.2624 -0.0627 -0.0620
  470SOL    HW1 1409   2.215   1.147   1.921  1.5772  0.9007  3.4116
  470SOL    HW2 1410   2.151   1.302   1.944  1.7976 -1.4545 -1.5745
  471SOL     OW 1411   3.035   1.495   2.987  0.0934 -0.1734 -0.8026
  471SOL    HW1 1412   3.110   1.557   2.969 -1.8718 -2.4633  0.3115
  471SOL    HW2 1413   3.073   1.409   3.022 -0.7904  0.8900 -1.2998
  472SOL     OW 1414   0.374   2.146   0.625  0.3273  0.2755 -0.1922
  472SOL    HW1 1415   0.326   2.074   0.567 -0.6435 -2.0971  3.1116
  472SOL    HW2 1416   0.451   2.194   0.575  0.5903 -2.1853 -2.9216
  473SOL     OW 1417   0.989   2.325   2.226  0.5934 -0.1657  0.1368
  473SOL    HW1 1418   1.010   2.331   2.127 -1.5422 -2.6952  1.7376
  473SOL    HW2 1419   0.946   2.236   2.258 -2.0976 -0.3520  0.4946
  474SOL     OW 1420   0.927   2.958   2.553 -0.1553  0.3950  0.0758
  474SOL    HW1 1421   0.916   2.912   2.463 -0.6010 -1.3021  1.8560
  474SOL    HW2 1422   1.011   2.936   2.612  0.4452 -0.2835  1.4564
  475SOL     OW 1423   1.071   2.257   0.227 -0.0287 -0.2735 -0.4925
  475SOL    HW1 1424   1.170   2.286   0.229  0.7633 -1.1896 -2.6474
  475SOL    HW2 1425   1.054   2.199   0.149  2.4957  0.2530 -0.3261
  476SOL     OW 1426   0.949   0.635   1.122 -0.0046  0.9313 -0.1376
  476SOL    HW1 1427   0.949   0.592   1.027  1.8101 -1.2047  0.4206
  476SOL    HW2 1428   0.854   0.628   1.164  0.0100  0.0977  1.7008
  477SOL     OW 1429   1.984   2.081   1.242 -0.1810  0.0140  0.0811
  477SOL    HW1 1430   2.085   2.097   1.251 -0.0480 -2.7994  1.6914
  477SOL    HW2 1431   1.932   2.170   1.252 -0.9543  0.6834 -0.8920
  478SOL     OW 1432   0.031   0.740   3.028  0.7967  0.4371 -0.1367
  478SOL    HW1 1433   0.008   0.690   2.940  1.2549  1.2194  1.0317
  478SOL    HW2 1434   0.022   0.677   3.105 -0.4041  0.5882  1.0389
  479SOL     OW 1435   0.827   0.011   1.336 -0.5803  0.2713 -0.1457
  479SOL    HW1 1436   0.823   0.106   1.303 -1.9752 -0.9177 -2.3689
  479SOL    HW2 1437   0.913   3.093   1.385  1.1803 -3.1155  1.5849
  480SOL     OW 1438   2.650   2.432   0.344  0.1725  0.1142 -0.5128
  480SOL    HW1 1439   2.661   2.389   0.249 -0.1720 -1.4453  0.4504
  480SOL    HW2 1440   2.717   2.405   0.411 -2.1948  0.5643 -1.5784
  481SOL     OW 1441   3.060   0.661   1.379 -0.1417  0.2711 -0.7201
  481SOL    HW1 1442   2.989   0.734   1.385  3.5106 -1.5166 -0.2508
  481SOL    HW2 1443   3.038   0.598   1.455  0.1272 -1.7654  0.3436
  482SOL     OW 1444   0.978   0.003   0.948  0.1014  0.2436 -0.1308
  482SOL    HW1 1445   1.011   0.096   0.963  0.5537  0.7112 -2.6643
  482SOL    HW2 1446   0.967   3.062   1.036  1.5951  0.6347 -0.8722
  483SOL     OW 1447   0.150   1.595   2.641 -0.1073 -0.4424  0.2945
  483SOL    HW1 1448   0.202   1.590   2.732 -1.0694  0.1248  1.5183
  483SOL    HW2 1449   0.054   1.618   2.654  1.1752  0.5663  0.2125
  484SOL     OW 1450   1.768   1.851   2.104 -0.3279  0.1687 -0.0171
  484SOL    HW1 1451   1.765   1.881   2.008  1.0551  1.4077  1.3369
  484SOL    HW2 1452   1.730   1.754   2.111  0.0148 -2.1785  1.7510
  485SOL     OW 1453   0.242   2.968   2.542  0.4111  0.3035  0.2261
  485SOL    HW1 1454   0.182   3.032   2.592  1.4901 -1.6545 -1.9552
  485SOL    HW2 1455   0.182   2.903   2.490 -1.3890 -0.7586  1.9898
  486SOL     OW 1456   1.564   2.935   0.564 -0.0445 -0.4868 -0.1898
  486SOL    HW1 1457   1.612   2.885   0.637  1.9397  0.0670 -1.0899
  486SOL    HW2 1458   1.507   2.877   0.505  1.0291 -1.4248  1.5311
  487SOL     OW 1459   1.361   0.021   0.658  0.2678  0.0636  0.1273
  487SOL    HW1 1460   1.351   3.087   0.567  0.0066  0.8045  5.3518
  487SOL    HW2 1461   1.456   0.001   0.688 -0.5436 -1.5553 -2.2056
  488SOL     OW 1462   2.321   0.729   0.813  0.2102  0.0094 -0.6148
  488SOL    HW1 1463   2.379   0.809   0.781  0.1621  1.2934  1.6238
  488SOL    HW2 1464   2.240   0.772   0.857  3.5815  1.8481 -0.1440
  489SOL     OW 1465   1.129   0.138   1.321  0.0596  0.1872 -0.2798
  489SOL    HW1 1466   1.175   0.069   1.260  0.1479 -0.1426  0.5362
  489SOL    HW2 1467   1.039   0.163   1.289 -1.8163  0.5179 -0.3742
  490SOL     OW 1468   0.675   0.594   0.074 -0.6922  0.1618 -0.0701
  490SOL    HW1 1469   0.678   0.601   0.178  0.0496  0.8553 -0.4737
  490SOL    HW2 1470   0.585   0.622   0.033 -1.9189  1.8648  0.8562
  491SOL     OW 1471   1.135   3.024   0.485  0.2848 -0.0370 -0.2514
  491SOL    HW1 1472   1.122   3.014   0.590  0.1700 -0.2194  0.8048
  491SOL    HW2 1473   1.109   2.937   0.430 -0.8256 -0.2405 -3.5048
  492SOL     OW 1474   1.246   1.477   1.643 -0.5282 -0.4274  0.5393
  492SOL    HW1 1475   1.258   1.558   1.699  0.7512 -2.8304 -1.9784
  492SOL    HW2 1476   1.183   1.411   1.689  1.0027  1.2578 -1.3394
  493SOL     OW 1477   0.550   1.892   0.338 -0.8608 -0.2722  0.1143
  493SOL    HW1 1478   0.477   1.925   0.391  2.8606 -2.5098  3.6318
  493SOL    HW2 1479   0.509   1.846   0.256 -0.0590 -0.6903  1.6123
  494SOL     OW 1480   1.981   1.887   0.512  0.3013 -0.3548 -0.1796
  494SOL    HW1 1481   2.029   1.805   0.545  0.7269  0.5571 -2.1183
  494SOL    HW2 1482   1.916   1.851   0.441 -1.4617 -2.3387  1.1372
  495SOL     OW 1483   0.252   1.356   2.533 -0.3523  0.2195 -0.1481
  495SOL    HW1 1484   0.221   1.442   2.582 -0.1609 -1.6471  2.5290
  495SOL    HW2 1485   0.170   1.293   2.522  0.4424  0.2927  2.9205
  496SOL     OW 1486   0.492   0.015   2.471  0.3035  0.3716  0.2997
  496SOL    HW1 1487   0.404   3.090   2.509 -1.4536 -0.7150  0.0192
  496SOL    HW2 1488   0.509   3.080   2.376 -0.5397  2.6891 -1.0522
  497SOL     OW 1489   1.599   1.177   0.580  0.1189 -0.1341 -0.0716
  497SOL    HW1 1490   1.551   1.135   0.498 -0.3559 -1.2857  2.7615
  497SOL    HW2 1491   1.632   1.272   0.556  0.6242 -0.3933  2.0146
  498SOL     OW 1492   2.807   2.671   0.147 -0.2028  0.3429 -0.0083
  498SOL    HW1 1493   2.864   2.629   0.074  0.2280  0.4327  1.2150
  498SOL    HW2 1494   2.706   2.649   0.140  1.1652  0.8941 -0.3467
  499SOL     OW 1495   2.133   2.409   0.527  0.5630  0.0379  0.1267
  499SOL    HW1 1496   2.070   2.341   0.492  1.8582 -0.2656  1.2272
  499SOL    HW2 1497   2.223   2.407   0.473  0.4433 -0.6006 -0.9678
  500SOL     OW 1498   0.366   0.616   2.726 -0.3908 -0.3325 -0.5180
  500SOL    HW1 1499   0.362   0.715   2.754 -1.0813  1.3417 -3.3532
  500SOL    HW2 1500   0.460   0.579   2.729 -4.6790  0.7693  1.7704
  501SOL     OW 1501   1.420   2.885   1.826  0.5251 -0.2101 -0.6450
  501SOL    HW1 1502   1.489   2.819   1.793 -5.0994  0.5534  0.6943
  501SOL    HW2 1503   1.386   2.856   1.919 -0.8529 -2.6745 -2.0245
  502SOL     OW 1504   3.101   0.267   2.443  0.1971 -0.2487 -0.2967
  502SOL    HW1 1505   3.043   0.187   2.461 -0.2117 -1.1258  0.4529
  502SOL    HW2 1506   0.063   0.265   2.515  0.0571 -1.3950  0.9399
  503SOL     OW 1507   1.707   2.541   2.154  0.0234 -0.3525  0.0432
  503SOL    HW1 1508   1.700   2.509   2.058  1.9478  0.2362 -1.3186
  503SOL    HW2 1509   1.778   2.616   2.166  0.2027 -0.3717  0.1198
  504SOL     OW 1510   1.810   0.127   1.573  0.3135 -0.4570 -0.2067
  504SOL    HW1 1511   1.714   0.149   1.560 -1.8753  0.1360  0.3330
  504SOL    HW2 1512   1.872   0.189   1.520  1.2688 -1.0579 -1.6150
  505SOL     OW 1513   2.613   1.770   1.675 -0.0812  0.1952 -0.0550
  505SOL    HW1 1514   2.712   1.791   1.668  0.5350  0.7279  0.5801
  505SOL    HW2 1515   2.576   1.765   1.582  0.1164 -0.5977 -0.3100
  506SOL     OW 1516   0.151   1.353   1.862  0.2977 -0.7807  0.0970
  506SOL    HW1 1517   0.062   1.306   1.854 -0.4874 -2.3272  0.4286
  506SOL    HW2 1518   0.164   1.434   1.798  0.5527  3.8466  0.4592
  507SOL     OW 1519   0.451   2.906   1.592 -0.1756  0.5672 -0.3061
  507SOL    HW1 1520   0.521   2.876   1.660 -3.3567  0.4957  1.8594
  507SOL    HW2 1521   0.445   2.848   1.510  0.3550  0.0636 -2.8966
  508SOL     OW 1522   0.995   0.806   1.512 -0.2345  0.0914  0.4555
  508SOL    HW1 1523   0.948   0.753   1.587 -0.1268  0.2100 -1.4763
  508SOL    HW2 1524   1.019   0.745   1.438  0.6014  2.3980  2.3603
  509SOL     OW 1525   1.532   2.498   1.765  0.1223  0.3134 -0.0142
  509SOL    HW1 1526   1.581   2.588   1.758 -1.4151 -0.2691 -0.2375
  509SOL    HW2 1527   1.453   2.506   1.836 -2.0791 -1.8131  2.5379
  510SOL     OW 1528   2.343   1.193   2.769 -0.6640 -0.2755 -0.6221
  510SOL    HW1 1529   2.249   1.155   2.755  2.0004  3.8745 -1.3324
  510SOL    HW2 1530   2.352   1.220   2.871 -2.1867  0.1750 -0.5440
  511SOL     OW 1531   0.674   1.416   1.339 -0.3077  0.0161 -0.8497
  511SOL    HW1 1532   0.739   1.463   1.268  1.5415  0.7504 -0.5174
  511SOL    HW2 1533   0.727   1.362   1.407  0.0625  1.2804 -1.3472
  512SOL     OW 1534   2.655   1.600   0.450  0.1949 -0.1598  0.4667
  512SOL    HW1 1535   2.718   1.663   0.496 -1.4659 -0.4002  0.5962
  512SOL    HW2 1536   2.578   1.651   0.411 -2.6977 -0.8283 -0.8905
  513SOL     OW 1537   0.728   1.835   2.417  0.4468 -0.2418 -0.1643
  513SOL    HW1 1538   0.800   1.851   2.489 -0.3803 -0.0989  1.8661
  513SOL    HW2 1539   0.722   1.733   2.392  0.0066 -1.4473  0.5838
  514SOL     OW 1540   0.129   2.294   1.605  0.1497 -0.4968 -0.5175
  514SOL    HW1 1541   0.090   2.256   1.517 -0.7800 -0.3495  0.9586
  514SOL    HW2 1542   0.062   2.283   1.684  1.3823 -0.8417  0.3924
  515SOL     OW 1543   2.188   1.218   1.595  0.2316 -0.0573  0.0708
  515SOL    HW1 1544   2.185   1.228   1.698 -1.2173  0.8292 -2.4002
  515SOL    HW2 1545   2.093   1.233   1.558  0.5889  0.5548 -2.4746
  516SOL     OW 1546   2.440   2.852   0.201 -0.2344  0.1865 -0.3462
  516SOL    HW1 1547   2.494   2.899   0.133 -1.7074 -1.1564  0.3209
  516SOL    HW2 1548   2.430   2.910   0.285 -1.1292 -3.3136 -2.0691
  517SOL     OW 1549   1.138   1.630   3.020 -0.1714 -0.0174  0.0926
  517SOL    HW1 1550   1.225   1.601   2.971  1.5264 -1.0681 -2.3226
  517SOL    HW2 1551   1.137   1.603   0.006  1.4249  0.1136 -2.8066
  518SOL     OW 1552   1.471   2.964   1.415 -0.3505 -0.5905 -0.3155
  518SOL    HW1 1553   1.516   3.038   1.461  1.1249 -2.9395 -3.1613
  518SOL    HW2 1554   1.460   2.975   1.314 -1.0988  2.5447 -0.4496
  519SOL     OW 1555   2.231   2.667   0.959  0.1966 -0.7032 -0.2787
  519SOL    HW1 1556   2.201   2.732   1.035  0.9153 -1.5348  2.4895
  519SOL    HW2 1557   2.332   2.650   0.964  3.1579  3.2260 -0.6196
  520SOL     OW 1558   2.980   2.351   2.204 -0.0456  0.5157 -0.2526
  520SOL    HW1 1559   2.879   2.358   2.194 -0.7681  1.6150 -0.6769
  520SOL    HW2 1560   3.015   2.450   2.211  0.4872  5.3894  1.4501
  521SOL     OW 1561   2.822   1.020   2.816  0.4137 -0.3175 -0.2143
  521SOL    HW1 1562   2.835   0.952   2.891 -1.5725  1.2713 -2.2324
  521SOL    HW2 1563   2.845   0.973   2.730  2.1659 -0.5199  2.7540
  522SOL     OW 1564   0.967   0.711   2.720  0.6280 -0.3663  0.6941
  522SOL    HW1 1565   1.033   0.635   2.708 -3.6449  1.1902 -0.1295
  522SOL    HW2 1566   0.871   0.677   2.720 -0.6246  0.2024  1.4612
  523SOL     OW 1567   0.012   2.314   0.825 -0.4446  0.4332 -0.1601
  523SOL    HW1 1568   0.088   2.369   0.859  0.7711 -0.5499  0.0582
  523SOL    HW2 1569   0.008   2.307   0.722  0.7045 -2.0173 -1.4115
  524SOL     OW 1570   1.910   2.647   0.023 -0.3825  0.2300  0.0684
  524SOL    HW1 1571   1.890   2.572   0.086 -2.7754 -0.5793 -1.1207
  524SOL    HW2 1572   1.976   2.613   3.060 -0.8990 -2.5275 -1.3889
  525SOL     OW 1573   2.345   0.500   1.402  0.9635 -0.0556 -0.5349
  525SOL    HW1 1574   2.401   0.562   1.342  0.0441 -2.4404 -3.3337
  525SOL    HW2 1575   2.243   0.505   1.369 -2.6154 -0.8630 -3.0862
  526SOL     OW 1576   1.177   2.642   0.524  0.5473  0.0944  0.1587
  526SOL    HW1 1577   1.117   2.620   0.597 -0.8839  3.1963 -1.7515
  526SOL    HW2 1578   1.115   2.665   0.444 -1.5132 -0.4674 -1.9957
  527SOL     OW 1579   2.335   2.788   0.554  0.3053  0.3031 -0.1555
  527SOL    HW1 1580   2.241   2.754   0.587  1.6445  0.4071 -0.9454
  527SOL    HW2 1581   2.329   2.878   0.501  0.5695 -0.2891 -4.0509
  528SOL     OW 1582   1.916   0.784   3.027 -0.1327 -0.1184  0.1940
  528SOL    HW1 1583   1.856   0.715   3.076 -3.9164 -2.3602  0.0093
  528SOL    HW2 1584   1.999   0.738   2.989  0.7130  2.1183 -0.2231
  529SOL     OW 1585   1.556   1.467   2.363  0.8349  0.7403 -0.4767
  529SOL    HW1 1586   1.492   1.516   2.425  0.8925  0.6329 -0.4941
  529SOL    HW2 1587   1.510   1.385   2.316 -1.7567 -2.2297 -2.7032
  530SOL     OW 1588   2.344   2.918   3.051  0.1984 -0.3373 -0.5413
  530SOL    HW1 1589   2.339   3.010   3.095  0.6164  0.5604 -0.8743
  530SOL    HW2 1590   2.428   2.900   2.996  2.3615  0.3142  0.4089
  531SOL     OW 1591   1.739   1.140   3.069 -0.3376 -0.1013 -0.3437
  531SOL    HW1 1592   1.834   1.099   3.085 -2.1015 -1.9781 -1.5770
  531SOL    HW2 1593   1.673   1.075   3.030  0.7794 -0.8457  0.1704
  532SOL     OW 1594   1.592   0.457   0.762 -0.0972  0.5417 -0.1440
  532SOL    HW1 1595   1.557   0.550   0.748  3.4125 -0.1444  3.6600
  532SOL    HW2 1596   1.685   0.461   0.799 -2.6871  0.8280 -2.3116
  533SOL     OW 1597   0.650   1.016   2.904  0.3608  0.5605  0.1816
  533SOL    HW1 1598   0.617   1.115   2.912  1.5582  0.1301  1.0300
  533SOL    HW2 1599   0.743   1.015   2.857  1.3938  3.3164  0.2743
  534SOL     OW 1600   1.618   0.356   0.119 -0.1579  0.1780  0.9434
  534SOL    HW1 1601   1.545   0.340   0.186  1.2254 -1.0330  4.2157
  534SOL    HW2 1602   1.580   0.351   0.024 -2.6214  1.4294  0.3054
  535SOL     OW 1603   0.728   2.377   3.066 -0.2816 -0.8087 -0.0525
  535SOL    HW1 1604   0.686   2.455   0.013  0.8052  0.6641 -1.3231
  535SOL    HW2 1605   0.704   2.284   3.105 -0.4128 -0.9708  1.3231
  536SOL     OW 1606   0.534   3.046   0.314 -0.0169 -0.5155  0.4834
  536SOL    HW1 1607   0.550   0.036   0.323 -1.6828  1.2334  0.8709
  536SOL    HW2 1608   0.603   2.993   0.371  0.6994 -0.9656 -0.4769
  537SOL     OW 1609   1.970   0.377   0.393  0.1148 -0.2602  0.1003
  537SOL    HW1 1610   1.969   0.275   0.372 -2.2285  1.5553 -0.5534
  537SOL    HW2 1611   1.881   0.396   0.434 -0.6963 -0.3233  0.5504
  538SOL     OW 1612   2.554   2.096   2.916  0.2201 -0.3016  0.0414
  538SOL    HW1 1613   2.479   2.164   2.892 -1.3884 -0.3252  2.6799
  538SOL    HW2 1614   2.541   2.022   2.848  1.1885 -0.0974 -2.3723
  539SOL     OW 1615   2.592   1.511   3.009  0.0792 -0.0790 -0.1579
  539SOL    HW1 1616   2.520   1.476   3.070  1.2148  1.0508 -0.5125
  539SOL    HW2 1617   2.685   1.479   3.048  3.0662  1.4131  1.5631
  540SOL     OW 1618   0.907   2.775   1.799 -0.5790 -0.5391 -0.8211
  540SOL    HW1 1619   0.927   2.868   1.839  0.3036  1.9775  0.6918
  540SOL    HW2 1620   0.916   2.786   1.698 -0.8730  1.9824 -0.2087
  541SOL     OW 1621   2.406   3.054   2.325 -0.4616  0.2810  0.1459
  541SOL    HW1 1622   2.334   0.022   2.339 -1.2693  1.6127  0.1122
  541SOL    HW2 1623   2.364   2.968   2.296  0.6624  2.5519  1.3230
  542SOL     OW 1624   0.251   0.911   3.041 -0.1528  0.4583  0.6514
  542SOL    HW1 1625   0.170   0.846   3.051 -0.7008  0.4804  1.8582
  542SOL    HW2 1626   0.258   0.969   0.016 -1.8761  4.5978 -0.1964
  543SOL     OW 1627   0.406   0.780   0.832  0.2655  0.3004 -0.0669
  543SOL    HW1 1628   0.362   0.870   0.856  0.4874  0.5175  0.5918
  543SOL    HW2 1629   0.340   0.719   0.779  0.3961 -2.2300 -2.2451
  544SOL     OW 1630   2.482   0.698   1.256 -0.5321 -0.1133 -0.5919
  544SOL    HW1 1631   2.574   0.661   1.239 -1.2750  1.3036  0.9488
  544SOL    HW2 1632   2.490   0.801   1.270  0.1221 -1.0761 -3.5947
  545SOL     OW 1633   1.571   1.769   0.485 -0.2017 -0.3163  0.1973
  545SOL    HW1 1634   1.571   1.842   0.558  0.8765  2.0631 -0.4109
  545SOL    HW2 1635   1.658   1.759   0.430  0.7755 -0.9228 -1.1635
  546SOL     OW 1636   2.252   2.496   1.669 -0.4888  0.1136  0.6073
  546SOL    HW1 1637   2.264   2.409   1.613 -0.6837 -1.2840 -0.8614
  546SOL    HW2 1638   2.274   2.579   1.608  1.6845  3.2313 -0.3220
  547SOL     OW 1639   0.519   2.299   2.317  0.4441 -0.3355 -0.0387
  547SOL    HW1 1640   0.517   2.298   2.216  0.4229 -0.2145  1.9223
  547SOL    HW2 1641   0.605   2.262   2.360 -2.3723 -0.0105  3.6951
  548SOL     OW 1642   1.370   0.514   2.740 -0.7535 -0.0367 -0.4872
  548SOL    HW1 1643   1.430   0.532   2.819  0.7725 -1.1682 -0.8894
  548SOL    HW2 1644   1.417   0.528   2.651  2.5537 -2.1129  0.4522
  549SOL     OW 1645   2.679   0.632   0.147  0.4196  0.1485 -0.6937
  549SOL    HW1 1646   2.595   0.600   0.196 -1.5774  1.2067 -0.8744
  549SOL    HW2 1647   2.671   0.728   0.117  0.4143  1.1767  2.0253
  550SOL     OW 1648   2.183   1.053   0.284 -0.0949 -0.4496  0.1166
  550SOL    HW1 1649   2.250   1.078   0.353  0.2932  0.5783 -0.7370
  550SOL    HW2 1650   2.092   1.099   0.292  1.3700 -0.7575 -1.0589
  551SOL     OW 1651   1.442   0.433   1.115  0.1142 -0.1308  0.3083
  551SOL    HW1 1652   1.384   0.503   1.070 -2.5661 -1.2509 -0.9528
  551SOL    HW2 1653   1.512   0.468   1.180  1.1913  0.3279  1.7453
  552SOL     OW 1654   2.062   2.974   2.540  0.0419  0.4604 -0.3449
  552SOL    HW1 1655   2.009   2.907   2.603 -1.0163 -0.8672  2.5100
  552SOL    HW2 1656   2.148   2.996   2.588 -2.2568 -0.3564 -2.0283
  553SOL     OW 1657   0.527   3.008   2.235  0.0965  0.1225  0.3623
  553SOL    HW1 1658   0.525   2.908   2.249 -1.6566  2.1083 -1.0358
  553SOL    HW2 1659   0.458   3.035   2.169 -1.2338 -0.1477  1.1484
  554SOL     OW 1660   0.271   0.156   1.416  0.1600 -0.0621 -0.1278
  554SOL    HW1 1661   0.213   0.237   1.395  3.2801 -0.5761 -3.3456
  554SOL    HW2 1662   0.354   0.174   1.472 -1.7174  0.6052 -3.3885
  555SOL     OW 1663   2.557   1.757   2.102  0.4977  0.1949 -0.6935
  555SOL    HW1 1664   2.484   1.826   2.100 -2.2615  0.9095  0.5508
  555SOL    HW2 1665   2.654   1.792   2.089  3.5432 -1.1838  0.9928
  556SOL     OW 1666   1.075   0.414   2.990 -0.3488 -0.4865 -0.1833
  556SOL    HW1 1667   1.080   0.355   2.905 -1.1966  1.1585 -1.1031
  556SOL    HW2 1668   0.984   0.412   3.033 -0.3464  0.1877  0.5880
  557SOL     OW 1669   0.245   2.153   2.333 -0.2061  0.1377  0.8378
  557SOL    HW1 1670   0.306   2.105   2.404 -1.4042 -0.3963 -1.2290
  557SOL    HW2 1671   0.233   2.093   2.252  3.3026  1.0472  1.7871
  558SOL     OW 1672   1.905   0.517   2.684 -0.5715 -0.0132  0.2115
  558SOL    HW1 1673   1.969   0.478   2.614 -1.8113 -0.0276 -0.4287
  558SOL    HW2 1674   1.850   0.441   2.718 -1.8483 -0.9270 -0.6690
  559SOL     OW 1675   2.198   1.998   1.698 -0.1279  0.4522  0.7292
  559SOL    HW1 1676   2.198   1.921   1.766 -2.1129 -2.5501 -1.2767
  559SOL    HW2 1677   2.114   2.053   1.707 -0.4745  3.2834  1.0441
  560SOL     OW 1678   2.012   0.972   2.072  0.8051  0.3615  0.0083
  560SOL    HW1 1679   2.111   0.978   2.047 -1.5847  0.9272 -1.9346
  560SOL    HW2 1680   1.960   0.965   1.985 -5.5341 -0.7870 -0.1316
  561SOL     OW 1681   0.191   0.030   2.779  0.2773  0.0315 -0.2468
  561SOL    HW1 1682   0.104   3.093   2.779 -0.4426  2.5154 -4.2585
  561SOL    HW2 1683   0.241   0.020   2.869  0.0308  0.4116 -1.1192
  562SOL     OW 1684   0.931   1.688   1.614 -0.4273  0.2419  0.4623
  562SOL    HW1 1685   1.002   1.635   1.558  0.8398 -1.1578 -1.7505
  562SOL    HW2 1686   0.854   1.706   1.552  1.4237  0.1740  1.0462
  563SOL     OW 1687   1.039   0.102   3.014  0.6001  0.2207 -0.1661
  563SOL    HW1 1688   1.118   0.126   3.073 -1.7423  0.7484 -0.9499
  563SOL    HW2 1689   0.952   0.094   3.072 -3.2172  0.3474  1.3228
  564SOL     OW 1690   2.952   2.463   0.979 -0.2893 -0.5041  0.0609
  564SOL    HW1 1691   2.994   2.413   0.901 -0.7678  1.1708  0.1158
  564SOL    HW2 1692   2.953   2.559   0.957  0.0537 -1.0866 -0.5240
  565SOL     OW 1693   0.708   2.249   1.221 -0.0110 -0.8153 -0.4423
  565SOL    HW1 1694   0.680   2.225   1.319  0.4036  0.5970  3.0621
  565SOL    HW2 1695   0.637   2.305   1.179 -0.0043 -0.4084  3.7285
  566SOL     OW 1696   1.237   0.136   2.562  0.5197  0.4050 -0.3330
  566SOL    HW1 1697   1.272   0.050   2.604 -0.2766  2.4337  3.2058
  566SOL    HW2 1698   1.135   0.130   2.547  2.2366 -0.7988  0.7298
  567SOL     OW 1699   2.519   2.907   0.721 -0.1311 -0.3561  0.9628
  567SOL    HW1 1700   2.473   2.950   0.799 -0.2114  2.0112  1.5795
  567SOL    HW2 1701   2.453   2.845   0.682 -0.5626  1.1455 -2.0885
  568SOL     OW 1702   1.378   1.496   0.845 -0.4595  0.2868 -0.4165
  568SOL    HW1 1703   1.380   1.579   0.901  0.4019 -3.3089 -2.2764
  568SOL    HW2 1704   1.384   1.518   0.746  1.6402 -0.9138  0.9067
  569SOL     OW 1705   2.702   1.356   2.515  0.1313 -0.2381 -0.2059
  569SOL    HW1 1706   2.645   1.433   2.550 -0.9262  0.4555  0.1846
  569SOL    HW2 1707   2.661   1.267   2.545  0.3539 -0.3160  4.8596
  570SOL     OW 1708   2.983   0.326   1.881 -0.5326 -0.2562  0.2501
  570SOL    HW1 1709   3.050   0.273   1.938 -1.6812  0.9396  2.8784
  570SOL    HW2 1710   2.969   0.277   1.796  0.0818  0.6611  3.1975
  571SOL     OW 1711   0.200   0.127   1.830  0.3252 -0.4041 -0.1315
  571SOL    HW1 1712   0.286   0.177   1.795  3.3655  0.4289 -2.5124
  571SOL    HW2 1713   0.176   0.047   1.774 -0.5258 -1.1086  2.5570
  572SOL     OW 1714   2.992   2.212   1.177 -0.4241  0.2708  0.0444
  572SOL    HW1 1715   2.896   2.240   1.154 -3.3647 -2.3315  1.5327
  572SOL    HW2 1716   3.058   2.290   1.181  1.8703  1.4675  0.0471
  573SOL     OW 1717   1.067   0.694   3.029 -0.0242 -0.4868 -0.1826
  573SOL    HW1 1718   0.971   0.734   3.028  2.0814 -0.5172 -0.8062
  573SOL    HW2 1719   1.073   0.593   3.017 -0.5881 -0.4458 -0.3690
  574SOL     OW 1720   2.345   2.551   2.710 -0.1325  0.4253 -0.2106
  574SOL    HW1 1721   2.408   2.579   2.634  2.1949  2.9014  0.9039
  574SOL    HW2 1722   2.305   2.636   2.748 -1.2820 -2.0655 -0.3787
  575SOL     OW 1723   1.367   2.865   1.094  0.3330 -0.1164 -0.0884
  575SOL    HW1 1724   1.378   2.810   1.177  0.9241  1.8114 -3.7485
  575SOL    HW2 1725   1.449   2.864   1.033 -0.3415 -0.4535 -2.5055
  576SOL     OW 1726   1.044   0.282   0.991  0.0511 -0.2655  0.0701
  576SOL    HW1 1727   1.148   0.285   0.987  0.8612 -1.5129  0.5447
  576SOL    HW2 1728   1.004   0.373   0.961  0.7015  2.1216  0.4885
  577SOL     OW 1729   2.334   1.171   0.685 -0.6026  0.3576 -0.1367
  577SOL    HW1 1730   2.318   1.268   0.696 -2.1866 -2.6613 -0.2030
  577SOL    HW2 1731   2.245   1.125   0.679  0.3658  1.4315 -0.9233
  578SOL     OW 1732   1.839   0.485   0.865  0.4594 -0.1105  0.0554
  578SOL    HW1 1733   1.840   0.398   0.918  1.8772 -1.5821  1.7768
  578SOL    HW2 1734   1.888   0.554   0.921  3.7447 -0.8065  2.1090
  579SOL     OW 1735   1.768   0.756   2.783 -0.1483  0.2760 -0.1764
  579SOL    HW1 1736   1.796   0.666   2.737  1.2799 -0.9999 -0.3456
  579SOL    HW2 1737   1.839   0.787   2.848  1.0355  1.5794  1.3662
  580SOL     OW 1738   1.462   0.803   2.200  0.1441 -0.5179 -0.0876
  580SOL    HW1 1739   1.413   0.839   2.282 -0.3973 -1.9646  1.6398
  580SOL    HW2 1740   1.539   0.862   2.177 -0.2955  0.9199  2.0729
  581SOL     OW 1741   0.265   0.580   0.728 -0.2259 -0.1069  0.5653
  581SOL    HW1 1742   0.297   0.517   0.801 -1.5991  0.0890 -0.0551
  581SOL    HW2 1743   0.225   0.519   0.654  2.3161 -1.3488 -0.1762
  582SOL     OW 1744   2.663   0.277   1.870 -0.0342 -0.0212  0.2913
  582SOL    HW1 1745   2.767   0.293   1.889  2.5201 -2.3117  1.6274
  582SOL    HW2 1746   2.609   0.319   1.950  0.9196 -1.6911  4.1486
  583SOL     OW 1747   0.223   0.623   2.509 -0.1681 -0.1657  0.4606
  583SOL    HW1 1748   0.282   0.618   2.593  0.3548 -0.8068  1.2135
  583SOL    HW2 1749   0.271   0.578   2.426  0.3110  0.8692 -0.9851
  584SOL     OW 1750   2.136   2.191   3.044  0.0060  0.8370  0.1626
  584SOL    HW1 1751   2.175   2.124   3.106  0.6002 -1.9258 -0.1547
  584SOL    HW2 1752   2.186   2.198   2.957  1.1966 -2.3716  1.4617
  585SOL     OW 1753   0.255   2.311   3.039  0.0016  0.0361 -0.3799
  585SOL    HW1 1754   0.171   2.265   3.072  1.2830 -0.8996  0.3439
  585SOL    HW2 1755   0.320   2.309   0.005 -2.0846 -0.9469 -0.6665
  586SOL     OW 1756   2.061   1.571   2.354  0.0253  0.3621  0.4626
  586SOL    HW1 1757   2.026   1.646   2.294  0.8206 -3.3841 -0.2816
  586SOL    HW2 1758   2.128   1.515   2.311 -0.8204  1.5499  3.3396
  587SOL     OW 1759   2.536   1.865   2.734  0.0196  0.3234 -0.0179
  587SOL    HW1 1760   2.534   1.780   2.788  2.8337  2.6115 -0.7273
  587SOL    HW2 1761   2.573   1.850   2.641  1.9372 -0.5466  0.9635
  588SOL     OW 1762   2.972   0.270   1.244  0.5645 -0.1553  0.5113
  588SOL    HW1 1763   2.973   0.314   1.147 -0.5886 -0.6317 -4.6046
  588SOL    HW2 1764   3.051   0.305   1.300 -1.7886  1.5736  0.8095
  589SOL     OW 1765   0.997   0.287   0.488  0.4397 -0.1265 -0.0399
  589SOL    HW1 1766   0.987   0.363   0.422  1.9557 -1.8707  2.5567
  589SOL    HW2 1767   0.907   0.269   0.523  1.1638 -0.1911  0.3035
  590SOL     OW 1768   2.400   1.865   0.446  0.2515 -0.1520 -0.2908
  590SOL    HW1 1769   2.391   1.964   0.416  1.0564 -0.3889  0.0720
  590SOL    HW2 1770   2.415   1.805   0.362 -2.4040 -3.1405 -2.8039
  591SOL     OW 1771   0.380   2.630   1.164 -0.0225  0.3335 -0.4788
  591SOL    HW1 1772   0.299   2.582   1.207 -3.3143 -0.6463  0.5614
  591SOL    HW2 1773   0.343   2.709   1.112  3.0052 -0.5835  1.6574
  592SOL     OW 1774   1.324   1.006   1.168  0.5537  0.2778 -0.4462
  592SOL    HW1 1775   1.242   1.058   1.199  2.2696 -1.7747 -1.5114
  592SOL    HW2 1776   1.316   0.913   1.206  0.1847 -0.7930  1.8994
  593SOL     OW 1777   0.923   2.302   1.651  0.0242  0.0361  0.7929
  593SOL    HW1 1778   0.990   2.363   1.601  1.0783  0.7350  1.2188
  593SOL    HW2 1779   0.853   2.349   1.710  0.1625  2.3744 -0.1816
  594SOL     OW 1780   1.180   1.517   0.153 -0.6270  0.2329 -0.3491
  594SOL    HW1 1781   1.195   1.449   0.230 -0.3756  0.6023  0.3496
  594SOL    HW2 1782   1.267   1.566   0.144 -1.0404 -0.0145  0.8136
  595SOL     OW 1783   1.653   0.962   1.553 -0.0562 -0.3891 -0.2754
  595SOL    HW1 1784   1.661   1.047   1.495 -0.8716  1.3802  0.6456
  595SOL    HW2 1785   1.563   0.956   1.604 -3.7606 -0.8172 -1.2260
  596SOL     OW 1786   3.105   0.870   1.773  0.1621 -0.0638 -0.2504
  596SOL    HW1 1787   3.085   0.769   1.768  1.1107  0.1350 -1.0509
  596SOL    HW2 1788   3.024   0.928   1.750  1.3323 -3.0798  0.0940
  597SOL     OW 1789   1.258   2.938   2.080  0.2695 -0.3109 -0.1252
  597SOL    HW1 1790   1.178   2.983   2.038 -1.9037  0.8174 -0.0696
  597SOL    HW2 1791   1.226   2.871   2.154 -0.8690  0.0903  2.8118
  598SOL     OW 1792   2.532   1.348   1.549  0.9090 -0.0798  0.2357
  598SOL    HW1 1793   2.455   1.377   1.492  0.7000 -0.8901  0.8108
  598SOL    HW2 1794   2.533   1.410   1.632  1.7404 -0.3252  1.8791
  599SOL     OW 1795   0.928   2.736   0.087 -0.6627  0.0757  0.6156
  599SOL    HW1 1796   0.836   2.713   0.125 -0.4029 -0.9637 -1.3228
  599SOL    HW2 1797   0.950   2.664   0.019 -1.3031  1.7352  0.9420
  600SOL     OW 1798   3.015   2.317   0.159 -0.1118  0.3203  0.4137
  600SOL    HW1 1799   2.926   2.282   0.200 -0.0458 -0.4288 -0.3035
  600SOL    HW2 1800   3.061   2.239   0.109 -0.8819 -1.2963 -1.8972
  601SOL     OW 1801   0.585   0.801   1.422 -0.0577 -0.3579  0.3635
  601SOL    HW1 1802   0.487   0.831   1.421 -0.2993  2.8439  1.0078
  601SOL    HW2 1803   0.617   0.762   1.509  0.8102 -2.3351 -0.0688
  602SOL     OW 1804   0.595   0.223   0.997 -0.2781 -0.1851 -0.4965
  602SOL    HW1 1805   0.593   0.210   1.100  1.8370  0.3479  1.4938
  602SOL    HW2 1806   0.618   0.132   0.956  0.8068 -2.5366 -0.7077
  603SOL     OW 1807   0.170   0.252   2.635  0.2667  0.1772  0.1240
  603SOL    HW1 1808   0.174   0.156   2.674  1.0238 -1.9474 -0.3852
  603SOL    HW2 1809   0.262   0.298   2.611  1.6674  2.0282 -2.0184
  604SOL     OW 1810   1.081   2.482   1.464  0.2214 -0.2912 -0.0959
  604SOL    HW1 1811   1.171   2.450   1.430 -0.1800 -3.6199 -1.6278
  604SOL    HW2 1812   1.000   2.463   1.400 -1.0023  2.4621 -2.1910
  605SOL     OW 1813   1.473   1.122   1.919 -0.5979  0.1156 -0.8621
  605SOL    HW1 1814   1.473   1.198   1.855 -0.0684 -1.3506  1.1953
  605SOL    HW2 1815   1.376   1.102   1.948 -2.4801 -0.2707 -4.4114
  606SOL     OW 1816   2.039   2.830   2.907 -0.2175 -0.5264  0.7691
  606SOL    HW1 1817   2.086   2.763   2.971  1.8732 -0.0767 -0.9696
  606SOL    HW2 1818   2.062   2.929   2.925  0.5654  1.9979  0.1140
  607SOL     OW 1819   0.867   0.320   1.796  0.0921 -0.5625  0.7575
  607SOL    HW1 1820   0.958   0.358   1.764  0.6597 -1.6052  0.6678
  607SOL    HW2 1821   0.801   0.313   1.717 -1.6248 -0.9909 -1.3112
  608SOL     OW 1822   0.183   2.527   2.259  0.2535  0.4512 -0.2528
  608SOL    HW1 1823   0.224   2.448   2.212  1.3654  1.6035  1.1548
  608SOL    HW2 1824   0.224   2.616   2.235 -0.9258  0.1069  0.8280
  609SOL     OW 1825   1.218   1.164   0.341 -0.2421  0.3163  0.3042
  609SOL    HW1 1826   1.119   1.149   0.349  1.0512  0.1320  0.6551
  609SOL    HW2 1827   1.237   1.160   0.237  1.5615  2.0972 -1.2292
  610SOL     OW 1828   0.397   3.074   1.130  0.2090  0.2185 -0.8471
  610SOL    HW1 1829   0.498   3.066   1.145 -1.0619  1.5089 -0.7302
  610SOL    HW2 1830   0.346   3.067   1.218  1.0473  4.0685  3.2453
  611SOL     OW 1831   1.236   1.153   0.636 -0.9495 -0.0797  0.2313
  611SOL    HW1 1832   1.232   1.151   0.533 -1.9103  0.7392 -1.6352
  611SOL    HW2 1833   1.264   1.063   0.678  1.8456  0.8316  2.3439
  612SOL     OW 1834   2.097   1.766   0.040  0.0291 -0.6674  0.3656
  612SOL    HW1 1835   2.148   1.833   0.094  0.5852 -0.0133  2.3905
  612SOL    HW2 1836   2.054   1.694   0.099 -1.4559  3.4272  0.0353
  613SOL     OW 1837   1.731   1.481   0.192 -0.2536  0.3667  0.2218
  613SOL    HW1 1838   1.695   1.385   0.212 -0.8911 -1.0175  1.5392
  613SOL    HW2 1839   1.712   1.512   0.097  1.2524 -4.3949  1.5549
  614SOL     OW 1840   2.719   0.260   2.494  0.4165  0.0648 -0.2959
  614SOL    HW1 1841   2.639   0.249   2.426 -0.6945 -2.0601  1.9838
  614SOL    HW2 1842   2.788   0.326   2.470 -1.0791 -1.3488 -0.0626
  615SOL     OW 1843   0.868   1.574   0.564  0.5617 -0.1302 -0.3277
  615SOL    HW1 1844   0.874   1.474   0.543  1.0818  0.7761 -2.1560
  615SOL    HW2 1845   0.950   1.603   0.609  0.5548 -1.3142 -3.2096
  616SOL     OW 1846   1.579   0.884   2.965 -0.5397  0.7532  0.0126
  616SOL    HW1 1847   1.634   0.822   2.904  1.2838  2.2408 -3.0723
  616SOL    HW2 1848   1.514   0.828   3.021  2.1590  0.4781  2.3783
  617SOL     OW 1849   1.506   0.212   0.378  0.3511  0.5048  0.0016
  617SOL    HW1 1850   1.555   0.285   0.435  0.7893  0.0377 -0.5199
  617SOL    HW2 1851   1.405   0.204   0.404 -3.2045 -1.3015  1.7922
  618SOL     OW 1852   2.930   2.042   2.417  0.4777 -0.4196  0.1350
  618SOL    HW1 1853   2.979   2.132   2.433 -0.6654 -1.8301 -1.8410
  618SOL    HW2 1854   2.881   2.008   2.499 -1.9903 -1.3882 -0.3960
  619SOL     OW 1855   2.255   1.740   0.975 -0.3797 -0.2121 -0.2837
  619SOL    HW1 1856   2.177   1.811   0.965 -1.2991  3.0159 -0.3431
  619SOL    HW2 1857   2.335   1.758   0.915  0.9656 -0.4846  1.2908
  620SOL     OW 1858   2.426   0.245   1.480  0.2121  0.4302 -0.1572
  620SOL    HW1 1859   2.396   0.339   1.459  0.2103  1.8769  0.3650
  620SOL    HW2 1860   2.351   0.177   1.465  1.6570  1.7785 -0.2951
  621SOL     OW 1861   0.042   2.026   0.862 -0.5404 -0.4447 -0.0004
  621SOL    HW1 1862   3.105   1.973   0.935  0.4131  0.6842  0.8211
  621SOL    HW2 1863   0.044   2.130   0.872 -0.0125  0.5366 -0.1977
  622SOL     OW 1864   0.682   1.542   2.331 -0.3901 -0.4707 -0.4150
  622SOL    HW1 1865   0.585   1.560   2.310  0.9236  0.6389  1.0203
  622SOL    HW2 1866   0.723   1.457   2.290  2.0169  0.4020 -0.5264
  623SOL     OW 1867   2.522   2.642   2.536 -0.6571 -0.8195  0.5367
  623SOL    HW1 1868   2.494   2.682   2.449  0.3364 -0.2984  0.6761
  623SOL    HW2 1869   2.615   2.673   2.576  1.7434  0.4920  1.5135
  624SOL     OW 1870   0.934   1.731   0.270 -0.3355  0.3962  0.3388
  624SOL    HW1 1871   0.930   1.679   0.359 -0.0721 -1.9699  0.0708
  624SOL    HW2 1872   1.030   1.737   0.238 -0.9051  0.5259 -1.9509
  625SOL     OW 1873   0.718   1.966   2.189 -0.1355  0.2253 -0.0235
  625SOL    HW1 1874   0.717   1.927   2.284  1.0079 -4.1544  0.2878
  625SOL    HW2 1875   0.733   1.894   2.116 -1.4936  2.0110 -0.4279
  626SOL     OW 1876   0.101   2.451   0.364 -0.4692  0.1633  0.3008
  626SOL    HW1 1877   0.107   2.400   0.451 -0.4255  1.2431 -0.6859
  626SOL    HW2 1878   0.033   2.405   0.297 -0.9455 -0.5595  1.5494
  627SOL     OW 1879   0.966   1.789   2.571  0.0058  0.5183 -0.1852
  627SOL    HW1 1880   0.978   1.688   2.569 -0.2575  0.0619 -1.8401
  627SOL    HW2 1881   1.034   1.821   2.641 -2.3078 -1.4238 -0.5742
  628SOL     OW 1882   1.515   1.954   0.662 -0.4447  0.3067 -0.3331
  628SOL    HW1 1883   1.490   2.047   0.632  1.0826 -2.8480  1.3861
  628SOL    HW2 1884   1.611   1.945   0.694 -1.5458  0.8300  0.3296
  629SOL     OW 1885   0.931   0.655   1.762  0.3102 -0.4277 -0.3577
  629SOL    HW1 1886   0.969   0.685   1.850 -1.8489 -0.6512  1.4244
  629SOL    HW2 1887   0.988   0.579   1.723  1.6745 -2.2138  1.8276
  630SOL     OW 1888   2.675   0.269   1.604 -0.4420 -0.3608  0.2037
  630SOL    HW1 1889   2.578   0.265   1.559  0.2726 -0.7121  0.3640
  630SOL    HW2 1890   2.663   0.272   1.707  0.3179  0.7990  1.0748
  631SOL     OW 1891   1.423   0.670   0.730  0.0799 -0.6502  0.1931
  631SOL    HW1 1892   1.412   0.769   0.699 -2.5019 -0.0135 -0.2626
  631SOL    HW2 1893   1.349   0.617   0.690  0.5468  2.7039  3.0047
  632SOL     OW 1894   2.267   0.487   2.090 -0.0108 -0.2123  0.0999
  632SOL    HW1 1895   2.206   0.551   2.148  0.9841  1.3354  1.4310
  632SOL    HW2 1896   2.245   0.505   1.991  0.1240 -0.8395  0.0778
  633SOL     OW 1897   1.293   1.254   2.941  0.3514 -0.1753  0.2648
  633SOL    HW1 1898   1.271   1.329   2.874 -2.3203 -0.8323 -0.5483
  633SOL    HW2 1899   1.362   1.188   2.897 -0.0749 -0.4835  1.3398
  634SOL     OW 1900   0.381   2.211   0.147  0.1004  0.3571 -0.7666
  634SOL    HW1 1901   0.383   2.284   0.216  2.3702 -1.3661  0.0176
  634SOL    HW2 1902   0.477   2.181   0.117 -0.2357 -3.6434 -0.3332
  635SOL     OW 1903   2.763   1.411   1.921  0.1271  0.1981 -0.0299
  635SOL    HW1 1904   2.716   1.420   2.010  1.6722  2.0622 -0.2753
  635SOL    HW2 1905   2.695   1.435   1.849 -0.4253 -2.7652 -0.2726
  636SOL     OW 1906   0.453   1.824   0.066  0.3763 -0.9135 -0.1489
  636SOL    HW1 1907   0.454   1.722   0.046  3.8015 -1.4752 -1.8374
  636SOL    HW2 1908   0.408   1.872   3.100 -0.4040  2.9163  1.5260
  637SOL     OW 1909   0.006   2.094   0.440 -0.2632  0.0311 -0.3163
  637SOL    HW1 1910   0.065   2.059   0.371 -1.9095  3.2696  2.4945
  637SOL    HW2 1911   3.022   2.072   0.422  1.5213  1.0191 -0.3321
  638SOL     OW 1912   2.628   2.689   0.392  0.1039  0.1502  0.1750
  638SOL    HW1 1913   2.526   2.689   0.412  1.3251  2.2365 -1.2584
  638SOL    HW2 1914   2.653   2.595   0.355 -0.8961 -3.3916 -0.9446
  639SOL     OW 1915   0.972   0.482   0.275 -0.1909 -0.3593 -0.2275
  639SOL    HW1 1916   0.928   0.453   0.191 -0.2285  2.4182  0.8276
  639SOL    HW2 1917   0.952   0.585   0.281  0.0750  0.7709  0.4035
  640SOL     OW 1918   2.364   2.412   1.907 -0.0544  0.1593 -0.1489
  640SOL    HW1 1919   2.311   2.325   1.926  1.6977  2.1522 -0.9662
  640SOL    HW2 1920   2.352   2.443   1.809  1.0015 -1.9944 -0.8192
  641SOL     OW 1921   2.743   2.966   1.268 -0.0845 -0.0597  0.2746
  641SOL    HW1 1922   2.757   3.048   1.211  1.6066 -0.5261 -0.4822
  641SOL    HW2 1923   2.814   2.893   1.239 -0.3867 -1.5138 -2.0957
  642SOL     OW 1924   1.409   0.980   1.664 -0.0706  0.1650  0.2590
  642SOL    HW1 1925   1.453   1.026   1.747  1.1112  1.3935 -3.0821
  642SOL    HW2 1926   1.347   0.906   1.697  1.1710  1.7672  1.4833
  643SOL     OW 1927   1.029   1.456   2.300 -0.0888  0.1406 -0.0932
  643SOL    HW1 1928   0.956   1.381   2.280 -0.1479 -3.7160  1.1101
  643SOL    HW2 1929   1.033   1.515   2.219  2.4928  1.5732  0.6091
  644SOL     OW 1930   1.396   0.393   2.106 -0.5483  0.4965  0.8625
  644SOL    HW1 1931   1.332   0.326   2.150  1.9106  1.5024 -4.7058
  644SOL    HW2 1932   1.483   0.405   2.160  0.0853 -1.0755 -2.6651
  645SOL     OW 1933   1.895   1.283   1.572  0.0193  0.1033  0.3506
  645SOL    HW1 1934   1.832   1.230   1.509 -0.5353 -0.2174 -0.9323
  645SOL    HW2 1935   1.852   1.366   1.609 -1.5504 -0.3815 -0.8324
  646SOL     OW 1936   1.578   2.248   0.091 -0.1055 -0.3636 -0.3232
  646SOL    HW1 1937   1.596   2.282   3.108 -0.9417  2.5278  0.7847
  646SOL    HW2 1938   1.595   2.148   0.093  1.2343  2.9718  0.7550
  647SOL     OW 1939   1.804   2.639   1.136 -0.3168  0.0967  0.0055
  647SOL    HW1 1940   1.863   2.578   1.074  1.5810  2.6149 -2.0800
  647SOL    HW2 1941   1.719   2.589   1.166 -1.6913 -0.1949  1.9130
  648SOL     OW 1942   3.107   2.554   1.632 -0.3279 -0.3602 -0.0723
  648SOL    HW1 1943   3.009   2.553   1.675 -1.2357 -1.8717  1.0132
  648SOL    HW2 1944   0.040   2.465   1.634 -0.7894  3.2291 -0.9783
  649SOL     OW 1945   1.238   2.390   2.774 -0.2943  0.0206  0.1396
  649SOL    HW1 1946   1.249   2.324   2.846 -0.0122 -0.5775 -1.2682
  649SOL    HW2 1947   1.315   2.391   2.707 -1.3769 -2.4172  3.1406
  650SOL     OW 1948   2.653   1.745   0.133  0.0805 -0.1243  0.3339
  650SOL    HW1 1949   2.732   1.799   0.172 -0.7010  0.7038 -1.1971
  650SOL    HW2 1950   2.678   1.673   0.067 -1.8217  3.5093  1.5304
  651SOL     OW 1951   2.746   2.192   2.238 -0.3467  0.6650 -0.1710
  651SOL    HW1 1952   2.689   2.228   2.162 -0.0820  0.6495 -0.3098
  651SOL    HW2 1953   2.793   2.108   2.210  1.2885 -0.4666  1.6622
  652SOL     OW 1954   2.358   2.406   0.364  0.4469  0.3867 -0.3702
  652SOL    HW1 1955   2.326   2.492   0.314  0.7645  0.6908 -0.8024
  652SOL    HW2 1956   2.460   2.415   0.381  1.4083 -0.3304 -1.0559
  653SOL     OW 1957   2.881   1.785   1.662  0.4182  0.1503  0.3891
  653SOL    HW1 1958   2.914   1.739   1.749 -0.8609  0.8929  3.9193
  653SOL    HW2 1959   2.934   1.757   1.583  0.6507 -0.1814 -0.2893
  654SOL     OW 1960   0.904   1.022   0.035  0.2696  0.6879  0.6444
  654SOL    HW1 1961   0.977   1.066   3.093  1.4837 -1.2462  0.2079
  654SOL    HW2 1962   0.877   0.932   3.101 -2.7464 -2.8974 -0.2884
  655SOL     OW 1963   1.004   1.095   1.014  0.8333  0.8846  0.4295
  655SOL    HW1 1964   1.018   1.127   1.109 -0.2711  4.6533 -1.2992
  655SOL    HW2 1965   1.050   1.158   0.947 -1.2664 -1.1454 -1.7356
  656SOL     OW 1966   1.400   2.697   2.072 -0.2156 -0.6394  0.5697
  656SOL    HW1 1967   1.377   2.604   2.048  1.9952  0.4462 -1.2693
  656SOL    HW2 1968   1.341   2.734   2.139  3.8757  0.0599 -2.7675
  657SOL     OW 1969   2.108   1.399   0.269 -0.3789  0.5002  0.8164
  657SOL    HW1 1970   2.038   1.326   0.287 -2.3742  1.3507  2.1313
  657SOL    HW2 1971   2.154   1.394   0.178  0.1669 -0.6438  2.8656
  658SOL     OW 1972   1.864   2.649   1.556  0.7879 -0.0615  0.1434
  658SOL    HW1 1973   1.917   2.589   1.619 -0.1801  3.3609  2.7491
  658SOL    HW2 1974   1.854   2.741   1.592 -0.7006 -2.7417 -4.6496
  659SOL     OW 1975   2.905   1.772   0.266 -0.1387 -0.4644  0.4066
  659SOL    HW1 1976   2.970   1.697   0.279  0.4645 -0.6012  0.7307
  659SOL    HW2 1977   2.902   1.826   0.352 -0.7394 -0.5001 -0.1012
  660SOL     OW 1978   1.234   0.258   0.749 -0.4846  0.1827  0.1409
  660SOL    HW1 1979   1.133   0.266   0.727 -1.4321  0.3747  0.1342
  660SOL    HW2 1980   1.269   0.170   0.714 -1.6886  1.0138 -0.4364
  661SOL     OW 1981   1.984   0.337   2.996 -0.0397  0.1135  0.3140
  661SOL    HW1 1982   2.059   0.313   2.933 -1.3781  1.1578  0.0518
  661SOL    HW2 1983   1.965   0.272   3.068 -0.4198  1.3751  1.4933
  662SOL     OW 1984   0.382   0.278   0.607 -0.6051 -0.2224 -0.4234
  662SOL    HW1 1985   0.347   0.209   0.668  0.5569  0.1222 -1.9995
  662SOL    HW2 1986   0.483   0.297   0.620  2.3727  2.1365 -0.8591
  663SOL     OW 1987   1.470   2.683   2.704 -0.5339  0.2283 -0.1112
  663SOL    HW1 1988   1.421   2.770   2.699  2.4115  0.8254  2.1727
  663SOL    HW2 1989   1.406   2.605   2.686  0.7492  0.9848  0.3943
  664SOL     OW 1990   0.558   2.493   1.655  0.0900 -0.1888 -0.5080
  664SOL    HW1 1991   0.492   2.423   1.635 -0.9977 -1.5883 -1.5978
  664SOL    HW2 1992   0.564   2.560   1.580 -1.4870  0.6902  0.6271
  665SOL     OW 1993   1.564   2.512   1.220 -0.1659  0.1504  0.0033
  665SOL    HW1 1994   1.503   2.587   1.247  1.2414 -2.0555  1.9789
  665SOL    HW2 1995   1.613   2.474   1.302 -2.3996 -2.2448  0.4369
  666SOL     OW 1996   0.920   2.803   2.321  0.7778  0.4497 -0.3645
  666SOL    HW1 1997   1.015   2.775   2.297 -1.4420 -1.1589  2.0661
  666SOL    HW2 1998   0.858   2.723   2.301 -0.8291 -3.3586  1.6822
  667SOL     OW 1999   2.689   0.654   1.513  0.2702  0.6582 -0.2219
  667SOL    HW1 2000   2.752   0.725   1.488  1.5320  0.1142 -0.2044
  667SOL    HW2 2001   2.713   0.561   1.474 -1.3620 -0.9438 -1.2625
  668SOL     OW 2002   1.198   0.206   1.590 -0.3738  0.2657 -0.6365
  668SOL    HW1 2003   1.160   0.181   1.502 -0.8697  3.0675  4.0258
  668SOL    HW2 2004   1.265   0.281   1.576 -0.9527  0.4334 -0.2006
  669SOL     OW 2005   2.166   2.551   1.345  0.0964  0.2691 -0.8683
  669SOL    HW1 2006   2.082   2.605   1.336 -0.4268 -0.4825  1.0638
  669SOL    HW2 2007   2.154   2.479   1.419  0.2357  0.0811 -0.0045
  670SOL     OW 2008   1.593   2.289   2.916  0.8412  0.1758  0.4346
  670SOL    HW1 2009   1.598   2.383   2.870 -1.0718  3.1892 -2.0250
  670SOL    HW2 2010   1.663   2.222   2.884 -0.2086  1.7113  1.6920
  671SOL     OW 2011   0.603   1.198   0.351  0.6344  0.0661  0.1534
  671SOL    HW1 2012   0.625   1.228   0.255  1.5015 -1.6758 -0.0892
  671SOL    HW2 2013   0.594   1.097   0.348 -1.0697 -0.7679  1.9367
  672SOL     OW 2014   2.909   0.855   3.041 -0.1041  0.5508  0.4840
  672SOL    HW1 2015   3.002   0.811   3.050 -0.2605 -1.0480  1.1432
  672SOL    HW2 2016   2.843   0.777   3.033  2.5766  0.6861  0.3857
  673SOL     OW 2017   0.123   1.879   1.445 -0.1372 -0.3414  0.0695
  673SOL    HW1 2018   0.096   1.973   1.411 -0.3797  2.9665 -0.1348
  673SOL    HW2 2019   0.225   1.861   1.445  1.1435 -1.8317  2.0252
  674SOL     OW 2020   1.390   2.117   1.592 -0.1832 -0.0431  0.1358
  674SOL    HW1 2021   1.290   2.098   1.606 -0.7259 -0.1357  0.8182
  674SOL    HW2 2022   1.440   2.023   1.584  2.4267  1.3416  0.4002
  675SOL     OW 2023   1.048   1.442   1.287 -0.7873 -0.3235 -0.3085
  675SOL    HW1 2024   1.074   1.515   1.359  0.8462  1.9285  1.3160
  675SOL    HW2 2025   0.978   1.490   1.233  3.1765  1.0996  0.2140
  676SOL     OW 2026   2.431   0.567   1.000 -0.4720 -0.2488  0.3123
  676SOL    HW1 2027   2.404   0.627   0.925 -0.9178 -1.9708  0.7165
  676SOL    HW2 2028   2.451   0.617   1.082 -1.3165 -3.3411 -1.3960
  677SOL     OW 2029   2.569   0.331   0.134 -0.2546 -0.5016 -0.8788
  677SOL    HW1 2030   2.473   0.336   0.113  2.8788  1.3395  2.6844
  677SOL    HW2 2031   2.633   0.327   0.053 -1.3268  2.3665  0.4656
  678SOL     OW 2032   2.441   1.365   1.084 -0.0472 -0.3612  0.1484
  678SOL    HW1 2033   2.508   1.310   1.032 -1.7999 -0.1659 -2.6377
  678SOL    HW2 2034   2.354   1.381   1.036  2.4790  0.0007  1.3558
  679SOL     OW 2035   2.807   0.551   3.035  0.6325  0.3917  0.2991
  679SOL    HW1 2036   2.787   0.558   0.026 -1.6453 -0.2562  2.1694
  679SOL    HW2 2037   2.813   0.453   3.001  2.3877 -2.2027  0.1821
  680SOL     OW 2038   0.368   1.301   2.290  0.5300 -0.0549  0.0373
  680SOL    HW1 2039   0.431   1.224   2.302 -1.8793  3.2297  1.9758
  680SOL    HW2 2040   0.321   1.332   2.378 -0.4530 -1.5619  0.9436
  681SOL     OW 2041   2.658   2.218   1.600  1.0769  0.1201  0.3294
  681SOL    HW1 2042   2.697   2.263   1.683 -0.1811 -1.4130  0.0664
  681SOL    HW2 2043   2.571   2.170   1.624 -1.0511  0.8311 -1.1217
  682SOL     OW 2044   0.573   2.002   2.892  0.1321  0.4773  0.0752
  682SOL    HW1 2045   0.538   2.072   2.826 -0.5900 -1.0552 -2.2134
  682SOL    HW2 2046   0.495   1.944   2.928 -0.6621  0.6137  1.2680
  683SOL     OW 2047   2.597   1.997   1.249  0.3056  0.3817 -0.0682
  683SOL    HW1 2048   2.561   1.941   1.322  1.1239  0.3861 -0.0000
  683SOL    HW2 2049   2.607   2.096   1.280 -1.5635  0.3402  1.6111
  684SOL     OW 2050   2.704   1.079   1.926  0.5318  0.3142 -0.8422
  684SOL    HW1 2051   2.610   1.124   1.904 -2.4562  3.5407 -0.0626
  684SOL    HW2 2052   2.748   1.130   2.009 -0.3948  1.0610  3.8837
  685SOL     OW 2053   1.059   0.841   0.962 -0.5983 -0.1912  0.2180
  685SOL    HW1 2054   1.019   0.933   0.981 -2.7366  0.9384 -0.1268
  685SOL    HW2 2055   1.066   0.789   1.047  2.1144 -0.2213  1.2388
  686SOL     OW 2056   0.736   0.167   3.035  0.0536 -0.1679 -0.0838
  686SOL    HW1 2057   0.740   0.078   2.988  1.7850  0.8074  0.9923
  686SOL    HW2 2058   0.646   0.214   3.010 -0.1850  0.6453 -1.5824
  687SOL     OW 2059   0.665   2.171   1.998  0.0740 -0.4310 -0.8243
  687SOL    HW1 2060   0.568   2.167   1.970  1.1950  0.4374  1.1271
  687SOL    HW2 2061   0.672   2.108   2.082  1.4881  0.1246  0.8647
  688SOL     OW 2062   1.985   0.281   1.421 -0.9552  0.3456  0.4174
  688SOL    HW1 2063   1.924   0.271   1.339 -1.6067  1.6463 -0.3451
  688SOL    HW2 2064   2.001   0.381   1.435 -0.2839 -0.4455  2.4988
  689SOL     OW 2065   2.073   0.710   0.512 -0.2342 -0.0394 -1.0512
  689SOL    HW1 2066   1.995   0.681   0.577 -1.9007 -1.6185  1.3805
  689SOL    HW2 2067   2.155   0.654   0.535 -1.8778  1.7517 -0.3660
  690SOL     OW 2068   3.036   1.070   1.398 -0.3615  0.0073 -0.0676
  690SOL    HW1 2069   0.025   1.068   1.411 -0.6911 -0.2273  0.7824
  690SOL    HW2 2070   2.993   1.140   1.458  0.9945 -1.3964  1.4461
  691SOL     OW 2071   0.207   1.011   1.734  0.0037 -0.2426  0.3531
  691SOL    HW1 2072   0.204   1.077   1.656  0.5758  1.9340 -0.0291
  691SOL    HW2 2073   0.113   0.965   1.742 -1.1772 -1.7905 -2.1549
  692SOL     OW 2074   0.752   0.959   2.200 -0.4905 -0.4651  0.6275
  692SOL    HW1 2075   0.693   0.881   2.169  3.0835 -1.1432  0.9668
  692SOL    HW2 2076   0.828   0.976   2.137 -0.1594  1.6548  0.7484
  693SOL     OW 2077   0.376   1.286   1.993  0.1322 -0.2127  0.3154
  693SOL    HW1 2078   0.284   1.297   1.953  0.0374  1.5103  2.2371
  693SOL    HW2 2079   0.372   1.296   2.096  0.0206  2.0338  1.8266
  694SOL     OW 2080   1.468   1.530   0.554  0.2616  0.3079  0.3154
  694SOL    HW1 2081   1.547   1.478   0.517  1.0880  2.0950  1.1425
  694SOL    HW2 2082   1.496   1.627   0.546 -1.8132 -0.7439  0.8944
  695SOL     OW 2083   0.289   1.014   0.899  0.1493 -0.0248 -0.6107
  695SOL    HW1 2084   0.319   1.110   0.910 -2.5262  2.1348 -0.9415
  695SOL    HW2 2085   0.187   1.015   0.907  0.9403  0.7298 -2.3458
  696SOL     OW 2086   0.569   2.275   0.487 -0.0787 -0.2321 -0.9877
  696SOL    HW1 2087   0.521   2.345   0.427 -0.7128  0.8465 -1.9124
  696SOL    HW2 2088   0.669   2.289   0.476 -0.9826 -1.6275 -0.4857
  697SOL     OW 2089   1.213   0.787   1.671  0.2845 -0.4165  0.2739
  697SOL    HW1 2090   1.287   0.737   1.616  0.8965 -1.1913 -0.7504
  697SOL    HW2 2091   1.126   0.796   1.620  0.7312 -0.6063  1.2603
  698SOL     OW 2092   1.712   1.501   1.663  0.1061 -0.3186  0.7256
  698SOL    HW1 2093   1.631   1.462   1.708  1.5835 -0.1622 -2.5672
  698SOL    HW2 2094   1.701   1.605   1.651  1.8274  0.6249  0.1540
  699SOL     OW 2095   3.060   0.680   2.451  0.5121 -0.1351  0.0966
  699SOL    HW1 2096   3.047   0.716   2.357  1.1533 -3.3009  1.2115
  699SOL    HW2 2097   0.045   0.647   2.465 -0.4157  1.3400  2.7495
  700SOL     OW 2098   1.745   2.305   0.663 -0.0590  0.0388 -0.0200
  700SOL    HW1 2099   1.707   2.231   0.600  0.2288 -3.4476 -2.1459
  700SOL    HW2 2100   1.674   2.372   0.673  0.3666 -1.6735  1.5440
  701SOL     OW 2101   0.290   1.711   2.405 -0.3991  0.1950  0.4696
  701SOL    HW1 2102   0.236   1.655   2.465  1.0320 -1.1767 -2.0152
  701SOL    HW2 2103   0.354   1.771   2.454 -2.4243 -2.1515 -0.8580
  702SOL     OW 2104   0.497   0.270   3.038 -0.0317  0.4476  0.1946
  702SOL    HW1 2105   0.419   0.207   3.052  1.1937 -1.1895  1.6091
  702SOL    HW2 2106   0.464   0.356   2.998 -0.3087 -3.1598  0.5042
  703SOL     OW 2107   1.522   0.380   2.955  0.8704 -0.3904  0.2092
  703SOL    HW1 2108   1.595   0.392   2.893 -1.5265  1.0806  0.9761
  703SOL    HW2 2109   1.485   0.286   2.962  0.4246 -2.1902  0.0649
  704SOL     OW 2110   2.701   1.814   0.893  0.7061  0.2017  0.6385
  704SOL    HW1 2111   2.734   1.801   0.988 -0.8511  1.0526  1.3851
  704SOL    HW2 2112   2.780   1.815   0.830 -2.9406 -0.2631  0.7759
  705SOL     OW 2113   2.816   1.861   2.031 -0.1418  0.0472  0.1897
  705SOL    HW1 2114   2.856   1.814   1.949  1.1762 -0.3593  0.3374
  705SOL    HW2 2115   2.884   1.898   2.096 -2.1505  2.6546 -0.3891
  706SOL     OW 2116   0.083   2.720   1.006 -0.1840 -0.7073  0.3908
  706SOL    HW1 2117   3.103   2.748   0.972 -0.0439 -0.2177  0.8326
  706SOL    HW2 2118   0.154   2.794   0.997 -1.9606  1.4830 -4.8397
  707SOL     OW 2119   0.991   0.016   0.233  0.2390 -0.1702  0.2231
  707SOL    HW1 2120   1.024   3.068   0.309 -0.4821  1.2134  0.6252
  707SOL    HW2 2121   1.063   0.085   0.212  0.7240  0.5986 -0.9429
  708SOL     OW 2122   0.680   2.217   1.500  0.6102 -0.1023  0.0798
  708SOL    HW1 2123   0.759   2.254   1.547 -1.2255  1.0060 -0.8848
  708SOL    HW2 2124   0.589   2.245   1.536  0.2677 -2.1107 -2.6736
  709SOL     OW 2125   1.636   0.138   2.249  0.5015  0.2002  0.0915
  709SOL    HW1 2126   1.557   0.172   2.305 -1.3647 -1.7190 -3.1289
  709SOL    HW2 2127   1.598   0.065   2.185 -1.1804  0.1469  0.1067
  710SOL     OW 2128   1.292   2.999   2.650  0.5799  0.5358  0.0740
  710SOL    HW1 2129   1.208   2.957   2.691  0.9616  0.6689 -0.0712
  710SOL    HW2 2130   1.362   2.997   2.724 -1.3863 -0.8971 -1.9057
  711SOL     OW 2131   1.105   2.170   2.570  0.3699  0.2823  0.3445
  711SOL    HW1 2132   1.187   2.102   2.562  1.6177  2.3019  0.2265
  711SOL    HW2 2133   1.137   2.254   2.520 -1.7798 -1.2572 -1.3838
  712SOL     OW 2134   1.274   2.001   2.925 -0.0481 -0.2199  0.3905
  712SOL    HW1 2135   1.200   1.945   2.884 -0.9485 -0.2342 -0.0644
  712SOL    HW2 2136   1.265   1.995   3.026 -2.0526 -1.1247  0.4302
  713SOL     OW 2137   0.936   1.007   2.005  0.1205 -0.2714 -0.1059
  713SOL    HW1 2138   0.867   1.022   1.933  1.5268  0.4538 -0.7042
  713SOL    HW2 2139   0.993   0.929   1.983  0.4323  1.1917 -0.3682
  714SOL     OW 2140   1.441   1.512   1.256  0.2814  0.3714  0.3116
  714SOL    HW1 2141   1.535   1.532   1.224 -1.0322 -1.1053 -2.6017
  714SOL    HW2 2142   1.392   1.599   1.278  1.2391  0.8638 -0.8067
  715SOL     OW 2143   2.740   0.165   0.627 -0.0654 -0.0875 -0.2340
  715SOL    HW1 2144   2.722   0.247   0.688  1.4900  0.7456 -2.2877
  715SOL    HW2 2145   2.721   0.192   0.533  0.1824 -0.9253  2.5410
  716SOL     OW 2146   0.616   2.786   0.494 -0.2010 -0.3199 -0.5314
  716SOL    HW1 2147   0.666   2.801   0.586  0.5736 -1.9752  1.9536
  716SOL    HW2 2148   0.515   2.779   0.499  4.8666 -1.7495  0.3432
  717SOL     OW 2149   2.883   0.498   0.275 -0.0411 -0.1043  0.7478
  717SOL    HW1 2150   2.864   0.403   0.308 -0.2972 -0.4922 -1.0171
  717SOL    HW2 2151   2.795   0.540   0.247 -0.2383  2.6775 -0.3898
  718SOL     OW 2152   1.634   1.872   1.135  0.5284  0.3182  0.4563
  718SOL    HW1 2153   1.650   1.777   1.115  3.5814  1.9427  2.5229
  718SOL    HW2 2154   1.678   1.925   1.060 -0.2624  1.3184  0.9378
  719SOL     OW 2155   2.753   2.301   1.079  0.2221  0.5183  0.3364
  719SOL    HW1 2156   2.686   2.230   1.032 -0.1436 -1.4914  0.8177
  719SOL    HW2 2157   2.808   2.349   1.006 -2.7536  2.6809 -3.5494
  720SOL     OW 2158   0.727   1.020   1.066 -0.3823  0.1182 -0.2475
  720SOL    HW1 2159   0.828   1.012   1.073 -0.1066 -1.0178  1.0326
  720SOL    HW2 2160   0.692   1.076   0.990  2.4828  2.2307  0.2277
  721SOL     OW 2161   1.436   0.712   1.013  0.1469 -0.1134 -0.1562
  721SOL    HW1 2162   1.433   0.688   0.919 -0.1800  1.0884  0.5214
  721SOL    HW2 2163   1.527   0.757   1.032 -1.5857  1.3129  1.7314
  722SOL     OW 2164   1.252   1.300   2.169  0.2549 -0.9315  0.0109
  722SOL    HW1 2165   1.289   1.347   2.084  1.8100  1.6531  0.8685
  722SOL    HW2 2166   1.190   1.367   2.217 -1.1626 -0.1483  0.9161
  723SOL     OW 2167   1.041   2.992   1.446  0.3025  0.5447 -0.5464
  723SOL    HW1 2168   1.132   3.024   1.478 -0.6064 -0.3033 -1.0054
  723SOL    HW2 2169   1.015   2.902   1.489  2.7593  2.3389  1.1666
  724SOL     OW 2170   2.005   2.181   1.721  0.0196  0.2813  0.4724
  724SOL    HW1 2171   1.979   2.235   1.803  0.9761 -1.9320 -0.2707
  724SOL    HW2 2172   1.923   2.157   1.663  2.5400 -0.6044  0.7627
  725SOL     OW 2173   0.994   2.910   1.180 -0.6401 -0.1274 -0.4176
  725SOL    HW1 2174   0.979   2.929   1.281 -0.4274  1.5666  2.7059
  725SOL    HW2 2175   1.094   2.920   1.160  3.6331  0.0553  1.0486
  726SOL     OW 2176   1.605   3.066   0.059  0.0791  0.4955  0.7252
  726SOL    HW1 2177   1.646   3.092   0.148 -1.9118 -0.7765 -1.8357
  726SOL    HW2 2178   1.668   2.998   0.012 -0.2650 -0.9170 -0.9909
  727SOL     OW 2179   1.298   1.948   0.826  0.5558 -0.2169  0.2691
  727SOL    HW1 2180   1.385   1.949   0.768 -0.1264  1.1036 -1.5009
  727SOL    HW2 2181   1.221   1.964   0.762 -0.3021  0.9374  0.6946
  728SOL     OW 2182   1.872   0.101   2.148  0.2283  0.0547  0.0148
  728SOL    HW1 2183   1.780   0.142   2.160 -0.6167  0.2514 -1.0804
  728SOL    HW2 2184   1.946   0.169   2.136  0.8048  1.1477  0.9921
  729SOL     OW 2185   2.508   1.816   1.438 -0.3753  0.2377 -0.2990
  729SOL    HW1 2186   2.411   1.835   1.431  4.3887 -0.4545  1.3466
  729SOL    HW2 2187   2.529   1.724   1.396  1.0986 -3.3532  1.0217
  730SOL     OW 2188   1.883   0.419   2.356  0.1768 -0.6886  0.0403
  730SOL    HW1 2189   1.964   0.379   2.406  1.1027  1.1527 -1.5195
  730SOL    HW2 2190   1.903   0.519   2.332  1.1796 -1.8455 -1.4485
  731SOL     OW 2191   0.468   0.466   1.453  0.0650  0.0735  0.3931
  731SOL    HW1 2192   0.421   0.516   1.525 -1.4462 -1.1915 -1.2650
  731SOL    HW2 2193   0.449   0.502   1.361  1.4312 -1.6357 -0.5280
  732SOL     OW 2194   1.783   0.305   1.230  0.4146  0.4885 -0.2926
  732SOL    HW1 2195   1.748   0.398   1.237  0.5355 -1.3436 -1.2539
  732SOL    HW2 2196   1.719   0.231   1.268 -1.8318 -0.8753  2.4749
  733SOL     OW 2197   0.874   1.128   1.582 -0.0750  0.0014 -0.1249
  733SOL    HW1 2198   0.818   1.131   1.497  0.7713 -1.5988  1.7875
  733SOL    HW2 2199   0.965   1.088   1.567 -1.3589 -1.7129  0.1421
  734SOL     OW 2200   2.450   1.657   0.258 -0.1241 -0.5962  0.4339
  734SOL    HW1 2201   2.385   1.626   0.186  0.0647 -0.7870  0.1620
  734SOL    HW2 2202   2.536   1.697   0.216 -3.5304 -3.4407 -1.8451
  735SOL     OW 2203   0.409   0.707   0.231 -0.3071  0.3062 -0.0843
  735SOL    HW1 2204   0.412   0.721   0.128  2.0069 -0.6646 -1.8330
  735SOL    HW2 2205   0.484   0.640   0.257 -3.6785 -1.5878  0.1179
  736SOL     OW 2206   1.865   2.406   2.748 -1.0054 -0.0289 -0.0208
  736SOL    HW1 2207   1.963   2.427   2.780  3.0045 -0.0400  1.3666
  736SOL    HW2 2208   1.803   2.471   2.796 -1.7858  2.4183 -1.1824
  737SOL     OW 2209   0.889   1.880   0.794  0.0211 -0.5225  0.3614
  737SOL    HW1 2210   0.943   1.854   0.874 -0.7505 -3.1546 -0.7994
  737SOL    HW2 2211   0.944   1.866   0.706 -0.8102  0.3241 -0.0868
  738SOL     OW 2212   1.945   2.976   2.300  0.2589 -0.3009  0.6839
  738SOL    HW1 2213   1.906   3.069   2.267  0.7379  4.3234 -0.3037
  738SOL    HW2 2214   1.986   2.986   2.390 -1.8900  1.1353 -0.6677
  739SOL     OW 2215   1.593   2.266   2.219  0.2602  0.0498 -0.8703
  739SOL    HW1 2216   1.638   2.350   2.179 -0.4721  0.2542  1.5512
  739SOL    HW2 2217   1.534   2.289   2.299 -0.7675 -0.9492  1.1899
  740SOL     OW 2218   1.657   2.363   1.963  0.1063  0.2755  0.5462
  740SOL    HW1 2219   1.599   2.426   1.909 -2.0705  3.3402 -0.4114
  740SOL    HW2 2220   1.597   2.297   2.019 -0.0479 -0.2484  1.1048
  741SOL     OW 2221   2.312   1.506   2.567 -0.3916 -0.3876 -0.5009
  741SOL    HW1 2222   2.286   1.433   2.500  0.9145 -2.1345  0.5639
  741SOL    HW2 2223   2.363   1.585   2.525  0.7296  0.0664 -0.2306
  742SOL     OW 2224   0.933   1.407   2.970  0.3743  0.1118 -0.6094
  742SOL    HW1 2225   0.994   1.481   3.003 -1.1409  0.5945  0.2865
  742SOL    HW2 2226   0.841   1.446   2.951 -0.3662 -3.5211 -3.0063
  743SOL     OW 2227   1.644   1.082   2.453  0.0030 -0.4607 -0.4551
  743SOL    HW1 2228   1.644   1.074   2.353  1.3148 -0.3728  2.1601
  743SOL    HW2 2229   1.608   1.173   2.489  0.7158  2.1506  2.0104
  744SOL     OW 2230   2.261   2.953   1.359  0.1589  0.1958  0.0832
  744SOL    HW1 2231   2.286   2.868   1.410 -1.2704  1.5496  0.6333
  744SOL    HW2 2232   2.212   2.932   1.269  2.2914 -1.6338 -0.9438
  745SOL     OW 2233   2.459   0.957   0.768  0.3917  0.0266 -0.3877
  745SOL    HW1 2234   2.483   0.991   0.863 -0.8139 -2.9939 -2.5421
  745SOL    HW2 2235   2.421   1.039   0.721 -0.3334 -0.3991  1.1954
  746SOL     OW 2236   2.155   1.700   1.256  0.0284 -0.4871  0.1760
  746SOL    HW1 2237   2.195   1.715   1.165  3.1346 -2.3193  4.2258
  746SOL    HW2 2238   2.194   1.761   1.329  0.6981 -0.7182  1.6880
  747SOL     OW 2239   2.037   2.767   0.261 -0.0965 -0.0167 -0.1322
  747SOL    HW1 2240   1.947   2.785   0.305 -0.5284  0.9732 -0.1147
  747SOL    HW2 2241   2.033   2.715   0.174  1.5515 -1.4561  0.6342
  748SOL     OW 2242   0.976   2.067   0.042  0.1159 -0.3450 -0.4856
  748SOL    HW1 2243   0.916   2.047   0.118  0.5582  2.5092 -3.2502
  748SOL    HW2 2244   0.934   2.051   3.060  0.3663  1.4753 -2.3601
  749SOL     OW 2245   2.828   0.215   2.179  0.3611 -0.2923 -0.7541
  749SOL    HW1 2246   2.919   0.249   2.145  2.0265 -0.5068 -0.1470
  749SOL    HW2 2247   2.772   0.297   2.204  0.0911  1.3922  1.8859
  750SOL     OW 2248   1.112   0.774   1.928 -0.1727 -0.6856  0.0093
  750SOL    HW1 2249   1.166   0.697   1.976  0.1972  1.4496  2.3737
  750SOL    HW2 2250   1.141   0.782   1.828 -0.1106 -0.5275  0.1218
  751SOL     OW 2251   2.423   2.666   1.938 -0.4259  0.1784 -0.3182
  751SOL    HW1 2252   2.390   2.573   1.967  0.1098  0.0316 -0.8054
  751SOL    HW2 2253   2.416   2.684   1.835 -2.5103 -1.0301 -0.6626
  752SOL     OW 2254   2.034   1.308   1.014  0.0191 -0.3432 -0.2661
  752SOL    HW1 2255   1.964   1.265   0.955 -1.0704 -1.6159  1.9625
  752SOL    HW2 2256   2.094   1.370   0.961 -0.0455  1.5910 -0.5763
  753SOL     OW 2257   1.382   1.189   2.366  0.0073  0.6275 -0.9995
  753SOL    HW1 2258   1.333   1.213   2.278 -1.5864  2.0498 -2.7039
  753SOL    HW2 2259   1.376   1.090   2.399 -1.4923  1.4049  2.4013
  754SOL     OW 2260   0.203   2.471   0.964 -0.2866  0.3393 -0.3870
  754SOL    HW1 2261   0.153   2.559   0.970  1.0640 -0.2521  1.9771
  754SOL    HW2 2262   0.219   2.435   1.059 -0.6636 -0.7191 -1.9970
  755SOL     OW 2263   2.501   3.029   1.232  0.3339  0.0774 -0.6075
  755SOL    HW1 2264   2.594   3.000   1.264 -0.2804 -2.9338 -0.4671
  755SOL    HW2 2265   2.424   2.989   1.287 -0.8507 -1.5778  0.9156
  756SOL     OW 2266   2.010   2.029   2.029 -0.3668 -0.0606 -0.1669
  756SOL    HW1 2267   1.966   1.964   1.963 -4.0856  0.2318 -0.8347
  756SOL    HW2 2268   2.067   1.972   2.094  1.0186 -3.0873  0.7014
  757SOL     OW 2269   2.944   3.047   2.073 -0.2953 -0.8509  0.7201
  757SOL    HW1 2270   2.910   3.056   1.979  0.4019 -2.1520 -0.4575
  757SOL    HW2 2271   2.868   3.038   2.135 -0.3759  2.0818 -1.2272
  758SOL     OW 2272   0.540   2.660   1.421  0.2190  0.1197  0.0102
  758SOL    HW1 2273   0.637   2.684   1.405 -1.1099 -0.2077  0.9066
  758SOL    HW2 2274   0.491   2.649   1.338  2.0286 -2.7853  2.3358
  759SOL     OW 2275   2.077   0.852   0.852 -0.1559  0.3491  0.4599
  759SOL    HW1 2276   1.981   0.875   0.844  4.6214 -1.0986  0.4680
  759SOL    HW2 2277   2.129   0.914   0.789  1.7418  0.0788 -1.4040
  760SOL     OW 2278   1.375   0.404   1.603  0.1176 -0.2026  0.4237
  760SOL    HW1 2279   1.395   0.392   1.705 -2.7731 -0.1388  0.6840
  760SOL    HW2 2280   1.412   0.493   1.568 -0.1370 -0.1048  2.0870
  761SOL     OW 2281   1.861   0.237   0.989  0.5132  0.7965  0.0834
  761SOL    HW1 2282   1.890   0.139   0.996  0.8972 -0.7892  2.2880
  761SOL    HW2 2283   1.848   0.279   1.081  1.6798  1.8498  3.4005
  762SOL     OW 2284   1.821   2.845   0.387 -0.2140  0.2472  0.6489
  762SOL    HW1 2285   1.787   2.933   0.354  0.4294 -1.2066 -0.1425
  762SOL    HW2 2286   1.752   2.772   0.372 -0.0279  0.0615  0.5689
  763SOL     OW 2287   0.857   0.471   1.381 -0.6128  0.1786 -0.0660
  763SOL    HW1 2288   0.807   0.426   1.460 -2.2488  1.3892 -0.3440
  763SOL    HW2 2289   0.796   0.533   1.328 -2.6148 -1.5284  0.9865
  764SOL     OW 2290   2.553   2.513   2.251  0.2062 -0.2377  0.2319
  764SOL    HW1 2291   2.600   2.474   2.332 -0.3740 -0.6166  1.7252
  764SOL    HW2 2292   2.502   2.603   2.264 -1.1875  0.3335  0.3162
  765SOL     OW 2293   0.034   1.212   2.468  0.3366 -0.3312 -0.0738
  765SOL    HW1 2294   3.082   1.168   2.401  0.8083 -0.3707  1.4354
  765SOL    HW2 2295   0.004   1.200   2.569  0.6398  0.5532  2.4397
  766SOL     OW 2296   2.974   1.444   2.469  0.5994  0.1016  0.3114
  766SOL    HW1 2297   2.893   1.417   2.522  0.5484  0.6567 -3.7511
  766SOL    HW2 2298   3.041   1.370   2.447  1.6360 -0.7108 -0.2908
  767SOL     OW 2299   0.482   1.974   1.727  0.2079 -0.2156  0.0676
  767SOL    HW1 2300   0.582   1.959   1.732  0.3712 -0.3581 -1.8412
  767SOL    HW2 2301   0.445   2.011   1.818 -0.3268 -1.3640  0.6039
  768SOL     OW 2302   0.825   0.783   3.008  0.3435 -0.2549  0.7732
  768SOL    HW1 2303   0.789   0.854   2.944  0.7485 -1.3440 -1.2582
  768SOL    HW2 2304   0.758   0.728   3.059  1.3211 -0.2127  1.5320
  769SOL     OW 2305   1.327   2.747   3.066 -0.0389 -0.2544 -0.3354
  769SOL    HW1 2306   1.266   2.665   3.067  0.6165 -0.1977 -2.0476
  769SOL    HW2 2307   1.420   2.708   3.055  1.5315  0.3640  1.0204
  770SOL     OW 2308   0.965   0.120   2.543  0.4798 -0.4058 -0.1390
  770SOL    HW1 2309   0.933   0.149   2.449 -4.1503 -1.0180 -1.8047
  770SOL    HW2 2310   0.932   0.024   2.561  1.8908  0.2096 -4.3483
  771SOL     OW 2311   0.715   2.781   0.739 -0.2532  0.4058 -0.4177
  771SOL    HW1 2312   0.701   2.678   0.741  3.2499 -0.4781 -2.7329
  771SOL    HW2 2313   0.771   2.813   0.826  2.3239  3.0730  1.6238
  772SOL     OW 2314   2.602   0.912   0.095 -0.0205  0.5702  0.5656
  772SOL    HW1 2315   2.596   0.938   0.196 -2.0226  3.0502  0.0671
  772SOL    HW2 2316   2.617   1.000   0.039  1.5359  0.2047 -2.2606
  773SOL     OW 2317   1.897   1.063   1.770 -0.3921  0.2656 -0.2283
  773SOL    HW1 2318   1.965   0.993   1.754 -1.0699  2.7492 -0.1381
  773SOL    HW2 2319   1.906   1.141   1.703 -0.3988 -0.2011 -0.4673
  774SOL     OW 2320   0.695   0.208   0.604 -0.0883 -0.3187  0.6699
  774SOL    HW1 2321   0.729   0.136   0.669  1.9394 -0.7250 -1.9441
  774SOL    HW2 2322   0.719   0.174   0.509  1.1071 -3.9361  0.1163
  775SOL     OW 2323   1.687   3.096   0.390  0.4134  0.4554  0.6329
  775SOL    HW1 2324   1.633   3.044   0.465 -1.1422 -0.0874  3.2915
  775SOL    HW2 2325   1.639   0.073   0.369  0.5610 -1.8360  2.2284
  776SOL     OW 2326   2.534   0.228   2.311 -0.3063  0.5980  0.0982
  776SOL    HW1 2327   2.544   0.265   2.216  3.6007 -1.8127 -1.0300
  776SOL    HW2 2328   2.540   0.122   2.306  2.0024 -3.1904 -2.3854
  777SOL     OW 2329   1.485   1.439   3.026  0.6940 -1.2806  0.2025
  777SOL    HW1 2330   1.579   1.406   3.021 -0.6811 -1.0067  2.4249
  777SOL    HW2 2331   1.417   1.364   3.027 -0.8655  2.2724 -0.7393
  778SOL     OW 2332   0.290   2.644   0.255  0.6221 -0.2566  0.0714
  778SOL    HW1 2333   0.227   2.597   0.319  0.0813 -2.2862 -1.3154
  778SOL    HW2 2334   0.290   2.743   0.266  1.7589  2.8620 -2.4987
  779SOL     OW 2335   0.034   1.520   0.375 -0.2388  0.8537 -0.0940
  779SOL    HW1 2336   0.021   1.424   0.417  1.3693 -3.6019  0.4085
  779SOL    HW2 2337   0.101   1.511   0.300  2.6097 -0.3346  0.8086
  780SOL     OW 2338   1.731   0.272   1.836  0.0008  0.4122 -0.4677
  780SOL    HW1 2339   1.667   0.193   1.848  0.7333 -0.5795  0.9603
  780SOL    HW2 2340   1.796   0.258   1.757  2.2235  1.7273 -2.9219
  781SOL     OW 2341   1.670   1.215   1.427  0.1163 -0.0349  0.5138
  781SOL    HW1 2342   1.579   1.263   1.411  0.5406  1.5198 -0.0111
  781SOL    HW2 2343   1.734   1.267   1.360  1.1952  1.7655 -0.8655
  782SOL     OW 2344   1.922   2.303   1.950 -0.6867  0.6172 -0.2524
  782SOL    HW1 2345   1.826   2.327   1.969  1.1494  0.8990 -1.3630
  782SOL    HW2 2346   1.945   2.227   2.005  0.8799  1.6095 -2.5819
  783SOL     OW 2347   1.253   0.637   2.104  0.3139  0.0997 -0.0413
  783SOL    HW1 2348   1.331   0.702   2.130  0.1528  0.6875  1.5706
  783SOL    HW2 2349   1.293   0.543   2.107 -1.8019  1.3744 -1.1746
  784SOL     OW 2350   1.617   1.050   2.185 -0.3886 -0.0121 -0.0467
  784SOL    HW1 2351   1.553   1.118   2.154  1.3742 -1.0127  0.3494
  784SOL    HW2 2352   1.703   1.053   2.127  1.8910 -0.2100 -0.4363
  785SOL     OW 2353   2.121   0.543   0.234  0.4221  0.0885 -0.1963
  785SOL    HW1 2354   2.117   0.639   0.268  1.0243  0.1333  1.2491
  785SOL    HW2 2355   2.055   0.478   0.282 -1.9728 -0.1442 -1.2322
  786SOL     OW 2356   2.835   1.447   0.807 -0.0957  0.4600 -0.3045
  786SOL    HW1 2357   2.804   1.457   0.710 -0.5382 -1.0712 -3.3696
  786SOL    HW2 2358   2.906   1.373   0.814  0.6980 -0.3580 -0.6679
  787SOL     OW 2359   1.802   1.799   0.339  0.3732  0.2092 -0.3578
  787SOL    HW1 2360   1.755   1.872   0.279  1.8847  1.5988 -1.3435
  787SOL    HW2 2361   1.838   1.724   0.284  0.6354  0.7089  0.2293
  788SOL     OW 2362   2.328   1.498   1.408  0.3737 -0.1560 -0.3153
  788SOL    HW1 2363   2.412   1.524   1.348  3.1469 -0.3127 -2.4276
  788SOL    HW2 2364   2.244   1.488   1.349 -0.7794  2.3743 -0.4929
  789SOL     OW 2365   2.856   1.671   2.361  0.1332  0.3609  0.0613
  789SOL    HW1 2366   2.853   1.571   2.356  1.0805  0.8156  0.0289
  789SOL    HW2 2367   2.950   1.702   2.337  1.2618  1.3043  0.7043
  790SOL     OW 2368   0.677   2.951   2.643 -0.4258 -0.2330  0.0985
  790SOL    HW1 2369   0.761   2.974   2.589  0.5557  1.0300 -3.3379
  790SOL    HW2 2370   0.597   3.010   2.613 -2.5972 -1.0749 -2.3472
  791SOL     OW 2371   0.741   2.649   2.652 -0.9034 -0.0820  0.5494
  791SOL    HW1 2372   0.839   2.635   2.681 -2.1441  0.8102 -1.2432
  791SOL    HW2 2373   0.710   2.743   2.657  0.4358 -0.2120  2.0655
  792SOL     OW 2374   1.639   0.418   2.236 -0.0208 -1.0207  0.2827
  792SOL    HW1 2375   1.639   0.317   2.245  1.6518  0.4596  2.1433
  792SOL    HW2 2376   1.719   0.456   2.286 -1.1992  2.8470 -1.6445
  793SOL     OW 2377   2.692   3.081   2.192 -0.2937  0.8049 -0.1077
  793SOL    HW1 2378   2.726   0.054   2.147  1.2963 -2.4221  0.4907
  793SOL    HW2 2379   2.591   3.062   2.186 -2.2266  1.5381 -0.4094
  794SOL     OW 2380   0.562   0.895   1.833  0.4946 -0.0087  0.2682
  794SOL    HW1 2381   0.556   0.848   1.926  0.5091  1.6776 -1.5158
  794SOL    HW2 2382   0.469   0.900   1.786 -1.5471  0.6224 -1.4399
  795SOL     OW 2383   2.757   1.366   0.522  0.6746 -0.2807  0.3882
  795SOL    HW1 2384   2.709   1.453   0.493  1.2422  2.2338 -0.9685
  795SOL    HW2 2385   2.807   1.331   0.437  0.9599 -0.6072 -0.9514
  796SOL     OW 2386   2.864   2.434   2.800 -0.9955  0.2390 -0.1624
  796SOL    HW1 2387   2.791   2.378   2.762 -1.0835  0.5780  3.1996
  796SOL    HW2 2388   2.955   2.394   2.779 -1.5849  1.0367 -1.0854
  797SOL     OW 2389   2.653   2.321   0.094 -0.3465 -0.0609 -0.5301
  797SOL    HW1 2390   2.695   2.256   0.026 -1.7821 -0.6634  0.9311
  797SOL    HW2 2391   2.559   2.348   0.066 -0.6079 -1.4742 -0.1182
  798SOL     OW 2392   0.324   0.774   1.703  0.2752 -0.8503  0.5074
  798SOL    HW1 2393   0.267   0.693   1.695  1.0003 -0.8231 -0.1810
  798SOL    HW2 2394   0.273   0.865   1.707  2.5277  1.5008  3.1617
  799SOL     OW 2395   2.638   0.579   2.238 -0.6301  0.0493  0.1668
  799SOL    HW1 2396   2.735   0.579   2.268  5.4869  2.2467  0.8163
  799SOL    HW2 2397   2.626   0.640   2.163 -3.1990 -1.2128  3.2197
  800SOL     OW 2398   2.793   2.286   0.775  0.1314 -0.1873 -0.1459
  800SOL    HW1 2399   2.692   2.273   0.778  0.5255  0.3157 -0.4283
  800SOL    HW2 2400   2.823   2.375   0.739  1.3212 -1.5559 -0.2681
  801SOL     OW 2401   1.250   0.915   0.791  0.4173 -0.3893  0.2737
  801SOL    HW1 2402   1.166   0.877   0.832  0.8732 -0.0545 -1.2381
  801SOL    HW2 2403   1.319   0.922   0.860 -1.8360 -1.9744 -4.8945
  802SOL     OW 2404   1.373   1.957   1.088  0.9720 -0.1224  0.6225
  802SOL    HW1 2405   1.465   1.918   1.104 -2.2445  0.3743 -1.5427
  802SOL    HW2 2406   1.356   1.958   0.985 -0.5777  1.8483  0.8827
  803SOL     OW 2407   3.047   1.744   0.502  0.2866 -0.2825  0.1870
  803SOL    HW1 2408   3.092   1.660   0.460 -2.0518 -1.8034 -0.9618
  803SOL    HW2 2409   0.011   1.802   0.543 -2.2006 -2.1380  0.9538
  804SOL     OW 2410   1.388   2.444   0.529  0.4547  0.5768 -0.1581
  804SOL    HW1 2411   1.308   2.495   0.508  3.3206 -0.1017 -1.9042
  804SOL    HW2 2412   1.437   2.467   0.616  1.7826  1.8220 -2.3957
  805SOL     OW 2413   1.466   1.827   2.371 -0.2502  0.1195  0.4996
  805SOL    HW1 2414   1.398   1.818   2.294  1.4379 -6.2554  0.8957
  805SOL    HW2 2415   1.541   1.892   2.344  1.8613 -1.9537 -0.3923
  806SOL     OW 2416   1.563   0.143   1.301 -0.3379  0.6091 -0.0736
  806SOL    HW1 2417   1.543   0.125   1.399 -0.0521  3.8254 -0.9913
  806SOL    HW2 2418   1.489   0.193   1.255  1.4138 -0.0153  1.4284
  807SOL     OW 2419   2.071   0.019   2.916  0.1382 -0.4536 -0.3600
  807SOL    HW1 2420   2.015   0.037   2.993  2.5217  3.7359 -1.1554
  807SOL    HW2 2421   2.146   0.088   2.902 -1.6797  0.6037 -2.3446
  808SOL     OW 2422   0.421   1.535   0.012  0.9081  0.4040  0.8874
  808SOL    HW1 2423   0.362   1.546   0.094  3.2546 -1.5405  2.4492
  808SOL    HW2 2424   0.517   1.529   0.040 -0.0465 -0.7855 -0.8404
  809SOL     OW 2425   2.884   0.883   2.595 -0.3314  0.1066  0.2167
  809SOL    HW1 2426   2.966   0.835   2.557 -1.8895  1.0487  0.5018
  809SOL    HW2 2427   2.812   0.814   2.598  1.8397 -1.9303 -0.0201
  810SOL     OW 2428   2.896   0.451   2.406 -0.3394  0.4128 -0.1718
  810SOL    HW1 2429   2.932   0.543   2.416 -0.4088 -0.0659 -0.9053
  810SOL    HW2 2430   2.970   0.381   2.402  0.7858  1.6172 -0.6493
  811SOL     OW 2431   1.970   2.496   1.751 -0.2606 -0.3582 -0.4187
  811SOL    HW1 2432   1.949   2.430   1.825 -0.0345  2.6793  0.8230
  811SOL    HW2 2433   2.072   2.499   1.739 -0.6880 -1.0149  0.5281
  812SOL     OW 2434   1.258   0.494   0.298  0.0027  0.5627  0.1185
  812SOL    HW1 2435   1.155   0.502   0.312 -2.9062  1.1602  1.2395
  812SOL    HW2 2436   1.284   0.464   0.205 -0.7681 -1.0165 -0.4103
  813SOL     OW 2437   1.640   0.697   2.029  0.1387  0.2778 -0.2437
  813SOL    HW1 2438   1.542   0.692   2.064  1.8369 -3.5019 -0.8786
  813SOL    HW2 2439   1.657   0.786   1.981 -0.5762  1.5286 -2.1634
  814SOL     OW 2440   2.079   0.966   1.171 -0.3959 -0.6251  0.2775
  814SOL    HW1 2441   2.112   1.047   1.221  0.9381  0.8806 -0.0648
  814SOL    HW2 2442   2.093   0.980   1.070  2.3794 -0.7945 -0.4681
  815SOL     OW 2443   0.564   0.997   0.703  1.0274 -0.8882 -0.0811
  815SOL    HW1 2444   0.610   0.993   0.612  1.6581 -2.2829 -2.5713
  815SOL    HW2 2445   0.588   0.918   0.761  0.4254 -2.1961 -1.4545
  816SOL     OW 2446   2.232   2.147   2.768 -0.1662  0.1301 -0.2151
  816SOL    HW1 2447   2.276   2.232   2.738  1.7395  0.5395  0.3737
  816SOL    HW2 2448   2.145   2.135   2.715 -0.9153  1.3898 -2.2819
  817SOL     OW 2449   2.949   2.822   1.216 -0.2546 -0.5458 -0.3472
  817SOL    HW1 2450   2.944   2.820   1.115  1.9592  3.4216  0.6883
  817SOL    HW2 2451   3.030   2.774   1.257 -3.0385  0.7007  0.1037
  818SOL     OW 2452   1.327   0.447   0.038  0.4547  0.1225  0.2006
  818SOL    HW1 2453   1.231   0.419   0.007 -1.9798 -2.9489  0.4384
  818SOL    HW2 2454   1.395   0.427   3.074  0.7607 -0.6942 -0.1346
  819SOL     OW 2455   0.567   0.550   0.631 -0.0691 -0.1880  0.5024
  819SOL    HW1 2456   0.470   0.568   0.656 -0.2255  0.4534  1.7442
  819SOL    HW2 2457   0.613   0.482   0.696  0.0596 -0.7353 -2.2077
  820SOL     OW 2458   1.944   0.661   1.011  0.4025  0.1454  0.7242
  820SOL    HW1 2459   2.020   0.711   0.967 -3.9061 -2.4590  1.5005
  820SOL    HW2 2460   1.929   0.686   1.111  1.4432 -2.2815  0.3388
  821SOL     OW 2461   2.654   2.946   0.452  0.2234  0.2965  0.2600
  821SOL    HW1 2462   2.708   2.968   0.534 -0.8056 -0.6971  1.0440
  821SOL    HW2 2463   2.653   2.846   0.418  1.5629  1.8382  0.9668
  822SOL     OW 2464   0.742   2.455   2.454  0.2062  0.6281  0.0919
  822SOL    HW1 2465   0.766   2.491   2.361  3.3311  0.7735  1.3981
  822SOL    HW2 2466   0.740   2.528   2.524  2.9994 -0.3185  2.0596
  823SOL     OW 2467   2.989   1.282   1.847 -0.0478 -0.1853 -0.0341
  823SOL    HW1 2468   2.903   1.330   1.873 -1.9183 -1.3004 -0.1167
  823SOL    HW2 2469   3.021   1.215   1.914 -1.5015  3.9171 -1.3016
  824SOL     OW 2470   0.811   3.032   2.167 -0.2907  0.1069 -0.1873
  824SOL    HW1 2471   0.826   2.948   2.222  0.7062 -0.7856  3.2807
  824SOL    HW2 2472   0.715   3.063   2.167  2.9038 -0.0096 -1.3932
  825SOL     OW 2473   1.502   1.925   0.031  0.0580  0.1731 -0.0847
  825SOL    HW1 2474   1.409   1.949   0.053  0.6447  1.4710  0.6255
  825SOL    HW2 2475   1.521   1.955   3.045  1.7340  0.2448 -0.2084
  826SOL     OW 2476   1.324   2.249   2.992  0.2666 -0.3898  0.0537
  826SOL    HW1 2477   1.425   2.271   2.988  0.7372 -0.2458  2.0043
  826SOL    HW2 2478   1.306   2.156   2.949 -2.6154 -2.0485 -1.1048
  827SOL     OW 2479   0.225   1.783   2.034 -0.0876 -0.0248 -0.1512
  827SOL    HW1 2480   0.179   1.809   1.946  1.4991  1.3376 -0.1795
  827SOL    HW2 2481   0.325   1.757   2.023 -2.3272  1.1081 -3.9697
  828SOL     OW 2482   0.154   1.842   1.082  0.0499 -0.3399 -0.4514
  828SOL    HW1 2483   0.225   1.908   1.066  1.1923 -2.3498 -0.4720
  828SOL    HW2 2484   0.062   1.888   1.094 -2.6371 -2.7057  0.9310
  829SOL     OW 2485   2.945   2.494   3.099 -0.6497 -0.7680  0.6720
  829SOL    HW1 2486   2.971   2.417   0.053 -0.9002 -0.9821 -0.7794
  829SOL    HW2 2487   2.929   2.446   3.010  0.7645  0.7900 -0.0003
  830SOL     OW 2488   1.192   0.871   0.466 -0.7841 -0.0667  0.3072
  830SOL    HW1 2489   1.278   0.817   0.442 -0.5089 -2.9906  0.2379
  830SOL    HW2 2490   1.185   0.898   0.564 -3.4944 -0.3743 -1.2179
  831SOL     OW 2491   2.795   2.179   3.035  0.2686 -0.2395 -0.1990
  831SOL    HW1 2492   2.712   2.151   2.982 -1.2377 -0.0618  0.4649
  831SOL    HW2 2493   2.881   2.145   2.996  1.7426 -0.2068 -0.9432
  832SOL     OW 2494   1.633   2.359   0.326  0.0438 -0.6116  0.4826
  832SOL    HW1 2495   1.610   2.325   0.232  1.0214  1.1182 -1.0916
  832SOL    HW2 2496   1.614   2.280   0.394 -0.5893 -0.0335 -0.6472
  833SOL     OW 2497   0.367   1.017   2.551  0.0339 -0.0436  0.3073
  833SOL    HW1 2498   0.356   1.081   2.631  1.5782  0.4042  1.5781
  833SOL    HW2 2499   0.442   1.050   2.486  3.5987 -0.7496 -0.9793
  834SOL     OW 2500   3.004   0.736   0.894 -0.2069 -0.0301 -0.3564
  834SOL    HW1 2501   3.054   0.681   0.965  0.2309 -0.3465 -1.3511
  834SOL    HW2 2502   2.909   0.754   0.927  1.6916  0.9331 -1.2051
  835SOL     OW 2503   2.132   0.696   2.223 -0.1886  0.1824 -0.4337
  835SOL    HW1 2504   2.159   0.744   2.309  0.1188 -0.4442  4.9338
  835SOL    HW2 2505   2.042   0.725   2.195  4.0698 -2.0562  0.3566
  836SOL     OW 2506   0.792   1.960   0.268 -0.1301  0.2922 -0.1389
  836SOL    HW1 2507   0.700   1.949   0.305  0.3389 -0.3772 -1.7047
  836SOL    HW2 2508   0.834   1.869   0.241 -0.1853 -0.3020 -0.1504
  837SOL     OW 2509   2.315   1.546   1.947  0.1172 -0.5352 -0.2142
  837SOL    HW1 2510   2.370   1.539   2.033 -1.2493  0.3200 -3.4299
  837SOL    HW2 2511   2.218   1.510   1.957  1.2145  0.8904 -4.1006
  838SOL     OW 2512   0.097   1.075   2.229 -0.3946 -0.0058  0.4209
  838SOL    HW1 2513   0.134   0.993   2.279 -1.5740 -0.9141 -1.6506
  838SOL    HW2 2514   0.156   1.157   2.245  2.1587  0.6359 -1.2133
  839SOL     OW 2515   0.523   2.973   2.980 -0.0933 -0.0646 -0.1402
  839SOL    HW1 2516   0.464   2.915   2.917 -1.4991 -0.5493  1.0494
  839SOL    HW2 2517   0.622   2.982   2.949 -1.4488 -0.3941 -1.3109
  840SOL     OW 2518   3.029   1.211   2.721 -0.2911 -0.1869 -0.1164
  840SOL    HW1 2519   0.009   1.192   2.763 -3.2774  0.6946  1.5916
  840SOL    HW2 2520   2.956   1.190   2.792  0.3776  0.9231  2.1347
  841SOL     OW 2521   0.443   2.131   2.566 -0.3175 -0.1432  0.8392
  841SOL    HW1 2522   0.418   2.176   2.654 -0.3554  0.5947 -0.2490
  841SOL    HW2 2523   0.544   2.131   2.547  1.0012 -0.6452 -1.9260
  842SOL     OW 2524   0.900   0.254   1.228  1.3689 -0.1417 -0.0301
  842SOL    HW1 2525   0.925   0.270   1.130  0.2833  0.8200  0.0344
  842SOL    HW2 2526   0.880   0.340   1.277  1.0566 -1.1106 -0.7891
  843SOL     OW 2527   0.026   1.686   2.285 -0.4004  0.3318 -0.0118
  843SOL    HW1 2528   0.024   1.607   2.220 -1.4183 -0.4748  1.7672
  843SOL    HW2 2529   0.122   1.716   2.303  1.2235  1.0754  1.5896
  844SOL     OW 2530   1.659   1.999   2.290 -0.1715 -0.8436  0.0641
  844SOL    HW1 2531   1.708   1.933   2.227  0.2166 -2.5992 -0.5415
  844SOL    HW2 2532   1.637   2.086   2.239 -0.4732  0.6721  0.1213
  845SOL     OW 2533   2.158   2.751   2.391 -0.3481  0.2628  0.1590
  845SOL    HW1 2534   2.124   2.673   2.444  1.5772  3.1992 -0.9149
  845SOL    HW2 2535   2.134   2.841   2.427  1.2511 -0.6272  0.1426
  846SOL     OW 2536   2.188   1.869   2.832  0.3833  0.1515  0.0853
  846SOL    HW1 2537   2.226   1.962   2.814 -0.3356  1.2648  1.1093
  846SOL    HW2 2538   2.090   1.871   2.812  1.2790  0.4838 -3.4037
  847SOL     OW 2539   2.505   0.050   2.766 -0.0433  0.0915  0.1758
  847SOL    HW1 2540   2.508   0.147   2.735 -1.0841 -1.6516 -2.5476
  847SOL    HW2 2541   2.588   0.002   2.725  1.7177 -0.9490 -1.3134
  848SOL     OW 2542   2.401   0.569   0.223 -0.2491  0.0167  0.2068
  848SOL    HW1 2543   2.302   0.544   0.205 -0.3176  1.7578  0.1026
  848SOL    HW2 2544   2.432   0.548   0.316  1.8866  0.7093  0.1542
  849SOL     OW 2545   1.423   0.155   2.776 -0.2298 -0.1571  0.1645
  849SOL    HW1 2546   1.351   0.199   2.724  2.7805 -0.5467  2.1811
  849SOL    HW2 2547   1.505   0.132   2.724 -2.6184  0.4994  0.2790
  850SOL     OW 2548   2.851   0.643   0.496 -0.8122 -0.1232 -0.3000
  850SOL    HW1 2549   2.882   0.587   0.418 -1.0105  0.7715  2.1713
  850SOL    HW2 2550   2.931   0.657   0.558 -0.7498 -0.2080  0.6035
  851SOL     OW 2551   0.176   1.336   1.319 -0.7872 -0.3156  0.1490
  851SOL    HW1 2552   0.263   1.328   1.274 -0.6242 -2.3270  2.4027
  851SOL    HW2 2553   0.095   1.347   1.251  0.7470  1.5145 -2.2359
  852SOL     OW 2554   1.347   0.929   2.484 -0.0186 -0.5302  0.3040
  852SOL    HW1 2555   1.424   0.894   2.542 -0.4405  0.9813  2.2588
  852SOL    HW2 2556   1.253   0.939   2.536 -0.2453  2.2452  0.0044
  853SOL     OW 2557   2.150   1.353   0.006 -0.0951  0.2160  0.6373
  853SOL    HW1 2558   2.233   1.301   3.083 -0.4433 -1.1157 -0.3532
  853SOL    HW2 2559   2.072   1.322   3.064  1.9837 -0.9932 -1.7185
  854SOL     OW 2560   1.197   1.119   1.981  0.2666 -0.1922 -0.3031
  854SOL    HW1 2561   1.102   1.080   1.968 -1.1689 -2.1638 -0.7312
  854SOL    HW2 2562   1.208   1.167   2.068 -2.1064  0.9537  0.3928
  855SOL     OW 2563   0.371   2.427   1.888  0.1435 -0.0732 -0.1669
  855SOL    HW1 2564   0.397   2.499   1.820  1.3958 -0.1979  1.1612
  855SOL    HW2 2565   0.271   2.444   1.902 -0.4424  0.1187 -0.3922
  856SOL     OW 2566   0.788   1.157   2.536 -0.0387 -0.0692 -0.9130
  856SOL    HW1 2567   0.880   1.173   2.559 -3.7838  2.1384 -1.8533
  856SOL    HW2 2568   0.753   1.070   2.580 -0.2965  0.0650 -0.5337
  857SOL     OW 2569   0.878   0.969   2.799 -0.5675 -0.0104 -0.1177
  857SOL    HW1 2570   0.952   1.034   2.833  0.3725  0.8405  1.5333
  857SOL    HW2 2571   0.910   0.877   2.778  0.6279  4.3000 -0.8559
  858SOL     OW 2572   0.203   0.446   1.812  0.2521 -0.1637 -0.3495
  858SOL    HW1 2573   0.156   0.359   1.793  0.7887 -0.2807 -0.7295
  858SOL    HW2 2574   0.155   0.503   1.879 -2.7787 -1.0632 -0.2579
  859SOL     OW 2575   2.278   0.144   0.945  0.2773  0.6464 -0.6284
  859SOL    HW1 2576   2.307   0.199   1.026  0.3689  0.9354 -0.8104
  859SOL    HW2 2577   2.225   0.204   0.880 -2.6443 -0.5462 -2.0965
  860SOL     OW 2578   1.167   1.056   1.510  0.7744  0.2194 -0.4545
  860SOL    HW1 2579   1.109   0.972   1.500 -0.0683  0.2434 -0.4064
  860SOL    HW2 2580   1.248   1.038   1.560 -2.3781  3.3587  1.4374
  861SOL     OW 2581   1.743   1.013   1.230  0.2159  0.0558  0.5346
  861SOL    HW1 2582   1.751   0.941   1.301  0.7342 -1.3666 -0.4360
  861SOL    HW2 2583   1.757   1.109   1.259 -1.7102  2.8914 -0.5697
  862SOL     OW 2584   0.909   0.148   2.271  0.0711 -0.1776 -0.1759
  862SOL    HW1 2585   0.881   0.054   2.237 -1.3870 -1.1086  1.0772
  862SOL    HW2 2586   0.886   0.219   2.199 -2.1114  0.3154  1.0646
  863SOL     OW 2587   2.779   0.412   1.368 -0.1876 -0.0931 -0.4043
  863SOL    HW1 2588   2.735   0.388   1.454  0.2876 -2.1972  1.7068
  863SOL    HW2 2589   2.843   0.342   1.334  0.9053  2.3511  2.6826
  864SOL     OW 2590   2.838   2.949   2.390 -0.2332  0.2623  0.2978
  864SOL    HW1 2591   2.841   2.847   2.401  0.8777 -0.1817  0.4090
  864SOL    HW2 2592   2.778   2.981   2.315 -2.1615 -0.4547  2.9784
  865SOL     OW 2593   1.055   1.208   2.637 -0.1779 -0.9607 -0.8592
  865SOL    HW1 2594   1.047   1.252   2.731 -1.3237  3.3567 -1.1195
  865SOL    HW2 2595   1.130   1.258   2.590 -0.2492 -0.4971 -2.4005
  866SOL     OW 2596   2.661   2.554   1.086  0.3306  0.0097 -0.0560
  866SOL    HW1 2597   2.656   2.611   1.172  1.2270 -1.1837  2.7933
  866SOL    HW2 2598   2.707   2.461   1.105 -1.6196 -3.4691 -1.7905
  867SOL     OW 2599   2.663   2.681   1.312 -0.1220  0.1437  0.0456
  867SOL    HW1 2600   2.710   2.771   1.299  1.3870  1.0077  3.8592
  867SOL    HW2 2601   2.729   2.629   1.368  0.4267  1.8966 -0.3976
  868SOL     OW 2602   3.073   1.409   1.491  0.3248 -0.0192  0.5513
  868SOL    HW1 2603   0.053   1.390   1.447 -0.7153  2.0801 -1.3121
  868SOL    HW2 2604   3.057   1.512   1.491 -0.8813  2.1295  2.4966
  869SOL     OW 2605   2.192   1.876   2.153 -0.3726  0.1665 -0.1254
  869SOL    HW1 2606   2.264   1.897   2.085 -1.5662  2.3461  0.6729
  869SOL    HW2 2607   2.216   1.894   2.250 -1.5462 -1.9697  0.0958
  870SOL     OW 2608   1.572   0.994   0.786  0.4342 -0.3536  0.5098
  870SOL    HW1 2609   1.525   1.037   0.866  0.2463 -0.0844 -1.4307
  870SOL    HW2 2610   1.558   1.059   0.707 -2.0027 -0.0781  0.7619
  871SOL     OW 2611   2.544   1.512   1.768 -0.6854  0.3393 -0.1905
  871SOL    HW1 2612   2.469   1.519   1.836  0.1368  1.0853  0.3439
  871SOL    HW2 2613   2.555   1.603   1.726 -0.0847 -1.4070  1.6035
  872SOL     OW 2614   1.360   1.605   2.825 -0.6937 -0.0331  0.4331
  872SOL    HW1 2615   1.418   1.600   2.909 -0.5529  0.7067 -0.2902
  872SOL    HW2 2616   1.423   1.617   2.745  2.1752  0.1172 -1.3261
  873SOL     OW 2617   1.080   1.290   1.763  0.0343  0.2680  0.4507
  873SOL    HW1 2618   0.975   1.300   1.764 -3.5132  0.5519 -0.2418
  873SOL    HW2 2619   1.113   1.209   1.814 -2.2140  1.0451 -1.2465
  874SOL     OW 2620   1.090   1.145   1.282 -0.2123  0.4196 -0.0474
  874SOL    HW1 2621   1.137   1.118   1.370  0.6098 -1.3161 -0.0617
  874SOL    HW2 2622   1.051   1.237   1.287 -0.2226 -1.5802  1.4532
  875SOL     OW 2623   2.730   3.016   2.625  0.4987 -0.3384 -0.4463
  875SOL    HW1 2624   2.770   3.002   2.533  0.9653 -0.9657 -0.7726
  875SOL    HW2 2625   2.762   2.946   2.691  2.7178 -0.2492 -0.5464
  876SOL     OW 2626   0.750   0.866   0.391 -0.2147  0.2477 -0.0973
  876SOL    HW1 2627   0.657   0.885   0.366  1.2741 -1.4450 -2.1173
  876SOL    HW2 2628   0.755   0.825   0.488  1.7132 -0.0583  0.3525
  877SOL     OW 2629   1.903   2.820   0.651  0.2082  0.2686 -0.0471
  877SOL    HW1 2630   1.880   2.805   0.552  1.0760  2.2788  1.2756
  877SOL    HW2 2631   1.984   2.767   0.687  0.8896  0.6079  1.6523
  878SOL     OW 2632   2.643   2.093   0.239  0.1577  0.6287  0.7212
  878SOL    HW1 2633   2.599   2.024   0.179 -1.8521 -0.0850  0.5478
  878SOL    HW2 2634   2.650   2.179   0.187 -1.8190 -2.0623  0.2221
  879SOL     OW 2635   0.113   2.449   1.931 -0.4304 -0.2850  0.3793
  879SOL    HW1 2636   0.054   2.532   1.914 -2.4139 -1.9377 -2.3920
  879SOL    HW2 2637   0.058   2.364   1.924 -0.0118 -1.4656  2.3724
  880SOL     OW 2638   0.258   1.676   0.816  0.1664 -0.2413  0.2980
  880SOL    HW1 2639   0.255   1.732   0.902 -0.6327 -2.1917 -0.9850
  880SOL    HW2 2640   0.333   1.710   0.758 -0.4245 -0.1150  1.0887
  881SOL     OW 2641   1.436   0.257   2.391  0.0913  0.1598  0.1689
  881SOL    HW1 2642   1.355   0.195   2.413 -0.0336  0.3913  0.1013
  881SOL    HW2 2643   1.407   0.340   2.343 -2.5708 -0.8855  1.4670
  882SOL     OW 2644   2.508   1.233   0.454 -0.0072  0.2352 -0.0804
  882SOL    HW1 2645   2.603   1.255   0.479 -1.6719 -1.5662 -0.5829
  882SOL    HW2 2646   2.438   1.232   0.532 -0.9052  0.1729  1.1560
  883SOL     OW 2647   1.563   0.581   2.505 -0.1888  0.2833 -0.0207
  883SOL    HW1 2648   1.569   0.678   2.520 -0.4696 -2.9308  1.9265
  883SOL    HW2 2649   1.529   0.567   2.409 -0.4711 -1.0360  1.5549
  884SOL     OW 2650   0.004   0.166   2.045 -1.0199  0.0790 -0.1780
  884SOL    HW1 2651   3.071   0.084   2.085 -0.8989 -0.3887  1.5083
  884SOL    HW2 2652   0.057   0.145   1.965 -1.0298 -1.0178 -1.1884
  885SOL     OW 2653   1.988   1.226   2.190 -0.2308  0.2123 -0.2124
  885SOL    HW1 2654   2.014   1.129   2.190 -0.0492  2.8610 -0.4950
  885SOL    HW2 2655   1.937   1.260   2.270 -2.3184  1.1429  0.0532
  886SOL     OW 2656   1.793   0.289   2.789  0.4103 -0.1095 -0.0619
  886SOL    HW1 2657   1.830   0.308   2.883 -2.8083  0.3794  0.9065
  886SOL    HW2 2658   1.800   0.192   2.760  2.2861 -0.1429  0.9634
  887SOL     OW 2659   1.054   2.743   1.545 -0.4692 -0.1965 -0.0786
  887SOL    HW1 2660   1.141   2.799   1.569 -0.7853  1.3246  1.4281
  887SOL    HW2 2661   1.076   2.653   1.502  1.1140  1.3606 -0.8541
  888SOL     OW 2662   2.446   0.971   1.274  0.1893  0.3823  0.1502
  888SOL    HW1 2663   2.349   1.009   1.281 -0.3937 -0.1582 -1.4129
  888SOL    HW2 2664   2.488   0.979   1.364 -0.9158 -1.5530  0.7821
  889SOL     OW 2665   1.975   2.733   1.314  0.1723  0.8411 -0.0213
  889SOL    HW1 2666   1.900   2.711   1.254  2.3912  1.0296  1.2785
  889SOL    HW2 2667   1.951   2.715   1.415  1.8587  0.0736  2.1475
  890SOL     OW 2668   1.040   2.537   0.730 -0.1742 -0.1214  0.5070
  890SOL    HW1 2669   1.086   2.445   0.730  0.0079  0.4408 -0.2372
  890SOL    HW2 2670   1.064   2.591   0.812  1.0293  0.8301 -0.6831
  891SOL     OW 2671   2.812   1.493   0.042 -0.1092 -0.3316  0.5373
  891SOL    HW1 2672   2.840   1.438   0.123  0.3233  0.7243  1.0957
  891SOL    HW2 2673   2.892   1.520   3.098 -1.5959  1.9536  0.2054
  892SOL     OW 2674   2.439   1.699   2.388  0.2108 -0.2442 -0.5354
  892SOL    HW1 2675   2.461   1.718   2.289 -1.8345  0.1184 -0.9486
  892SOL    HW2 2676   2.349   1.740   2.415  0.3503 -0.0668 -3.2827
  893SOL     OW 2677   2.434   2.459   0.983 -0.5604  0.5067  0.1334
  893SOL    HW1 2678   2.458   2.393   0.911 -0.7049 -0.5071  1.2712
  893SOL    HW2 2679   2.521   2.504   1.016  2.8181  2.1321  2.4140
  894SOL     OW 2680   3.067   0.670   0.641 -0.0089 -0.1737  0.4846
  894SOL    HW1 2681   3.051   0.706   0.737  1.8583  0.4860  3.5775
  894SOL    HW2 2682   0.029   0.597   0.653  3.6560  0.1974  0.5239
  895SOL     OW 2683   2.742   2.448   2.451 -0.2934 -0.0062 -0.3839
  895SOL    HW1 2684   2.699   2.413   2.537  0.9866  1.4016 -1.0105
  895SOL    HW2 2685   2.790   2.371   2.401  2.4547 -1.7410  1.1546
  896SOL     OW 2686   2.047   2.548   2.526  0.1954  0.1901 -0.3637
  896SOL    HW1 2687   2.103   2.462   2.537 -0.9754  1.4145  1.5196
  896SOL    HW2 2688   1.960   2.531   2.478  2.5415 -3.4562 -0.1146
  897SOL     OW 2689   0.095   1.818   1.810 -0.5332  0.0983  0.1738
  897SOL    HW1 2690   0.087   1.729   1.761  0.7586  0.8503  1.0773
  897SOL    HW2 2691   0.041   1.887   1.762 -1.9408 -1.0037 -2.6032
  898SOL     OW 2692   0.409   2.168   1.941  0.1056  0.1434  0.1928
  898SOL    HW1 2693   0.341   2.118   2.000  0.0731  1.1474 -2.2137
  898SOL    HW2 2694   0.376   2.263   1.915 -1.0407  0.8501 -1.5656
  899SOL     OW 2695   1.521   0.157   1.570 -0.4843  0.5469  0.0798
  899SOL    HW1 2696   1.471   0.246   1.581 -2.8668 -0.6775 -2.0877
  899SOL    HW2 2697   1.532   0.112   1.661 -2.0538 -0.9534 -0.6501
  900SOL     OW 2698   1.457   1.071   0.369 -0.2412 -0.4612 -0.1895
  900SOL    HW1 2699   1.473   0.992   0.307 -1.7641 -1.1915  1.4236
  900SOL    HW2 2700   1.357   1.098   0.363 -2.0189 -3.9113  0.6186
  901SOL     OW 2701   1.482   1.265   2.602  0.3602  0.1813 -0.0782
  901SOL    HW1 2702   1.415   1.273   2.522 -1.3326  0.6952 -2.1517
  901SOL    HW2 2703   1.451   1.198   2.673 -2.4313  0.2088 -3.0464
  902SOL     OW 2704   3.074   2.475   1.252  0.5721 -0.3687  0.0026
  902SOL    HW1 2705   3.089   2.571   1.284  0.3497  0.8933  1.1028
  902SOL    HW2 2706   3.019   2.475   1.166  1.1439  1.2231 -0.0944
  903SOL     OW 2707   2.728   1.385   2.261 -0.1556 -0.3177 -0.2987
  903SOL    HW1 2708   2.721   1.380   2.364 -0.8487 -1.5899  3.6309
  903SOL    HW2 2709   2.795   1.315   2.224  1.3274 -2.0893  0.4312
  904SOL     OW 2710   1.428   1.638   0.083 -0.0254 -0.6166 -0.6446
  904SOL    HW1 2711   1.481   1.571   0.028  0.6533 -2.0470  3.9034
  904SOL    HW2 2712   1.482   1.725   0.084 -1.0592 -2.4462 -0.2858
  905SOL     OW 2713   2.027   2.899   1.808  0.2870  0.1499  0.0801
  905SOL    HW1 2714   2.057   2.819   1.863 -1.9452  0.7380  0.1232
  905SOL    HW2 2715   2.101   2.950   1.764 -0.2510 -2.8534  1.5269
  906SOL     OW 2716   1.766   2.880   3.088 -0.5015 -0.4216  0.2220
  906SOL    HW1 2717   1.835   2.814   0.012 -1.2746 -0.9108 -0.4499
  906SOL    HW2 2718   1.782   2.914   2.993 -0.2755  0.3479  1.5565
  907SOL     OW 2719   0.313   2.854   1.000  0.1835 -0.0511 -0.1441
  907SOL    HW1 2720   0.348   2.944   1.032 -0.4210 -1.7874  0.6902
  907SOL    HW2 2721   0.329   2.838   0.897 -0.7679  0.9534 -1.3344
  908SOL     OW 2722   0.640   2.855   1.826  0.2632 -0.0700  0.0139
  908SOL    HW1 2723   0.627   2.959   1.841 -0.5938 -2.1133 -0.6779
  908SOL    HW2 2724   0.736   2.837   1.834 -1.9841  0.0162  3.1933
  909SOL     OW 2725   1.678   0.551   1.253 -0.0831  0.8083  0.2933
  909SOL    HW1 2726   1.671   0.598   1.339  0.3559 -2.0573 -4.0878
  909SOL    HW2 2727   1.654   0.610   1.175  1.0246  1.1455 -0.7967
  910SOL     OW 2728   0.591   0.525   0.346  0.4443 -0.2871  0.1514
  910SOL    HW1 2729   0.598   0.535   0.448  0.0529  1.6294 -1.6754
  910SOL    HW2 2730   0.602   0.430   0.309 -1.5980  0.2376  0.5832
  911SOL     OW 2731   0.326   0.047   3.004 -0.3668  0.5217 -0.5134
  911SOL    HW1 2732   0.284   0.007   3.097 -0.3202  1.1030  3.6523
  911SOL    HW2 2733   0.405   3.099   2.970  0.9787 -0.3557 -1.7891
  912SOL     OW 2734   3.102   2.332   2.695  0.2389 -0.2945  0.2045
  912SOL    HW1 2735   0.043   2.416   2.728  3.4495 -1.3472 -0.4941
  912SOL    HW2 2736   3.109   2.326   2.590  1.1269  1.3223 -2.2864
  913SOL     OW 2737   2.292   2.639   0.234  0.3581 -0.4090  0.2567
  913SOL    HW1 2738   2.200   2.660   0.275 -1.5558 -0.7042 -0.1456
  913SOL    HW2 2739   2.348   2.725   0.237  3.2967  1.6310  1.1322
  914SOL     OW 2740   1.434   1.690   1.989 -0.1194  0.6674 -0.0736
  914SOL    HW1 2741   1.528   1.649   2.008  1.7305 -2.5492  0.6037
  914SOL    HW2 2742   1.399   1.746   2.069 -1.3941  0.2102  0.7899
  915SOL     OW 2743   2.849   2.689   2.386  0.0604  0.5547 -0.3625
  915SOL    HW1 2744   2.923   2.657   2.324 -1.6052  0.1319  1.2367
  915SOL    HW2 2745   2.772   2.620   2.397 -1.8348  0.5300  0.9023
  916SOL     OW 2746   2.982   0.690   2.181  0.2554 -0.2430 -0.1455
  916SOL    HW1 2747   2.943   0.749   2.110 -1.5077 -1.3354  2.2631
  916SOL    HW2 2748   3.026   0.607   2.142  1.5987 -0.7195  0.6812
  917SOL     OW 2749   1.923   0.086   0.050  0.3791  0.4711  0.7827
  917SOL    HW1 2750   1.921   0.092   0.153  1.7535  0.8420  2.1819
  917SOL    HW2 2751   1.900   3.101   0.020 -0.5384  0.3029 -0.4574
  918SOL     OW 2752   1.937   2.726   2.186 -0.0377 -0.2821  0.3611
  918SOL    HW1 2753   1.936   2.825   2.213  0.3042  0.1833  1.6677
  918SOL    HW2 2754   2.023   2.677   2.216 -0.5064  0.3270 -2.4632
  919SOL     OW 2755   1.612   2.266   1.646  0.0622  0.2639  0.5803
  919SOL    HW1 2756   1.585   2.339   1.711 -1.6975  0.8352  1.7422
  919SOL    HW2 2757   1.535   2.203   1.622 -1.2608 -1.6935 -0.8873
  920SOL     OW 2758   0.247   1.032   0.187 -0.7340  0.2990  0.1504
  920SOL    HW1 2759   0.158   0.989   0.212 -0.1280  2.4288  1.7358
  920SOL    HW2 2760   0.322   0.971   0.225 -1.1505  1.3198  0.6236
  921SOL     OW 2761   2.353   1.078   2.495  0.4332 -0.2533 -0.3900
  921SOL    HW1 2762   2.371   1.145   2.421 -0.1822  0.0734 -2.4480
  921SOL    HW2 2763   2.347   1.126   2.587 -0.2226  0.6884  1.1214
  922SOL     OW 2764   1.083   1.828   2.812 -0.5449  0.7184 -0.3347
  922SOL    HW1 2765   1.002   1.883   2.847 -0.2481  2.1085 -0.2546
  922SOL    HW2 2766   1.109   1.745   2.869 -1.1528  0.5622  4.3946
  923SOL     OW 2767   0.553   1.111   2.365  0.0285  0.1270  0.2203
  923SOL    HW1 2768   0.629   1.153   2.407 -0.1915 -1.4574 -1.1182
  923SOL    HW2 2769   0.585   1.050   2.291  0.1642 -1.4900  0.4713
  924SOL     OW 2770   0.632   2.408   2.807 -0.4345  0.0372  0.3639
  924SOL    HW1 2771   0.641   2.416   2.909 -0.9044  0.9389  0.7984
  924SOL    HW2 2772   0.652   2.501   2.762  0.3854 -0.2061  1.0651
  925SOL     OW 2773   1.611   1.372   0.935  0.5220 -0.2578  0.0244
  925SOL    HW1 2774   1.578   1.286   0.972  1.3761  1.1479 -0.2096
  925SOL    HW2 2775   1.535   1.426   0.895 -3.0223  1.5402 -0.0341
  926SOL     OW 2776   1.619   0.266   2.575  0.0054  0.5437  0.4313
  926SOL    HW1 2777   1.531   0.278   2.523 -1.2389 -1.1560 -1.5858
  926SOL    HW2 2778   1.672   0.351   2.580  2.1491 -0.3954 -0.0437
  927SOL     OW 2779   2.546   2.859   2.087 -0.1654 -0.7477 -0.4109
  927SOL    HW1 2780   2.490   2.801   2.021 -0.0752  1.1916 -0.6177
  927SOL    HW2 2781   2.559   2.948   2.038 -0.5086 -1.2969  1.2096
  928SOL     OW 2782   0.568   1.278   2.943  0.3411 -0.1612 -0.4973
  928SOL    HW1 2783   0.499   1.259   2.868  0.0338 -1.3385  0.1488
  928SOL    HW2 2784   0.627   1.358   2.917  0.7370 -1.3508  0.4673
  929SOL     OW 2785   3.109   0.185   0.806  0.7080 -0.1048 -0.3259
  929SOL    HW1 2786   0.011   0.180   0.706 -1.1533  1.5112  1.3936
  929SOL    HW2 2787   0.073   0.147   0.858 -1.3389  1.6798 -1.3133
  930SOL     OW 2788   2.211   0.501   1.828  0.4094  0.3969 -0.7685
  930SOL    HW1 2789   2.207   0.409   1.793 -3.8215  1.5733 -0.9074
  930SOL    HW2 2790   2.286   0.557   1.791  0.7427 -0.9004  0.0781
  931SOL     OW 2791   2.376   1.231   3.026 -0.0351  0.4768 -0.0586
  931SOL    HW1 2792   2.335   1.140   3.053 -3.1396  0.3252  0.6696
  931SOL    HW2 2793   2.478   1.232   3.055  0.1462 -0.5064  2.0241
  932SOL     OW 2794   2.549   1.548   1.271  0.2329  0.0838  0.0422
  932SOL    HW1 2795   2.649   1.538   1.290  2.5295  0.6285 -2.0056
  932SOL    HW2 2796   2.515   1.473   1.210  0.1523 -1.4260 -1.3548
  933SOL     OW 2797   2.854   2.515   1.710  0.0809  0.6288  0.2941
  933SOL    HW1 2798   2.802   2.446   1.764  3.1756  3.7856  2.5735
  933SOL    HW2 2799   2.801   2.603   1.706 -2.1544  2.9312 -1.4088
  934SOL     OW 2800   0.672   3.028   1.119 -0.4970  0.1022 -0.1706
  934SOL    HW1 2801   0.696   2.930   1.111 -1.7480  1.2710  0.9988
  934SOL    HW2 2802   0.742   3.070   1.182  0.4631 -0.0406 -1.1352
  935SOL     OW 2803   2.387   0.794   2.175  0.1913  0.3885 -0.3170
  935SOL    HW1 2804   2.301   0.734   2.178  0.7217  0.3416  3.2149
  935SOL    HW2 2805   2.418   0.823   2.264 -1.7371  0.7226 -0.6936
  936SOL     OW 2806   2.266   0.990   2.001 -0.0264 -0.3540 -0.4178
  936SOL    HW1 2807   2.262   0.947   1.910  1.3015  0.3519 -0.6531
  936SOL    HW2 2808   2.308   0.927   2.068 -0.3492  0.0181  0.3489
  937SOL     OW 2809   1.780   1.178   1.997  0.3360  0.4150  0.5220
  937SOL    HW1 2810   1.828   1.150   1.911 -0.9780  1.3618  2.1433
  937SOL    HW2 2811   1.842   1.192   2.078 -0.8057 -2.2808  0.9645
  938SOL     OW 2812   0.535   2.565   0.012  0.1167 -0.0692 -0.0347
  938SOL    HW1 2813   0.552   2.643   0.078  1.7851 -1.1432  2.1316
  938SOL    HW2 2814   0.461   2.583   3.059  1.7674 -1.7330  1.9312
  939SOL     OW 2815   2.327   0.469   2.948 -0.1387  0.0286 -0.2182
  939SOL    HW1 2816   2.246   0.504   2.895 -1.5863  0.2084 -0.0046
  939SOL    HW2 2817   2.395   0.543   2.964 -2.3973  1.2880  0.0223
  940SOL     OW 2818   1.116   2.205   0.721  0.0360  0.1435  0.1667
  940SOL    HW1 2819   1.124   2.220   0.825  2.1062 -0.0816 -0.3793
  940SOL    HW2 2820   1.074   2.116   0.690  0.8490 -2.3564 -0.3556
  941SOL     OW 2821   1.134   2.133   1.701 -0.3001  0.6082 -0.0722
  941SOL    HW1 2822   1.060   2.194   1.671 -0.7833  1.2422  1.0117
  941SOL    HW2 2823   1.094   2.042   1.721 -1.2223  1.6739  0.6505
  942SOL     OW 2824   0.022   2.135   3.065  0.4061 -0.7167  0.2680
  942SOL    HW1 2825   0.007   2.044   0.002 -0.2725 -1.1391 -0.4077
  942SOL    HW2 2826   3.085   2.136   2.977 -2.7798 -2.3028  0.5433
  943SOL     OW 2827   2.202   0.086   1.442 -0.5054  0.4302  0.0016
  943SOL    HW1 2828   2.227   3.105   1.399 -3.5470 -0.6106  0.7920
  943SOL    HW2 2829   2.125   0.134   1.394  0.4957  1.5386  0.2920
  944SOL     OW 2830   1.807   2.144   2.801 -0.4956  0.0176  0.0377
  944SOL    HW1 2831   1.775   2.064   2.749  1.4946  0.3287 -1.9735
  944SOL    HW2 2832   1.831   2.233   2.748  0.9953  0.9017  1.4962
  945SOL     OW 2833   2.509   2.237   0.814  0.1811  0.0272 -0.4860
  945SOL    HW1 2834   2.535   2.161   0.876  0.8589  1.0429  0.6114
  945SOL    HW2 2835   2.422   2.224   0.760 -1.4170  1.9932 -4.7028
  946SOL     OW 2836   1.204   1.418   2.746  0.0343 -0.2603 -0.4664
  946SOL    HW1 2837   1.141   1.455   2.674  0.6996  0.3984 -0.8472
  946SOL    HW2 2838   1.265   1.497   2.783  1.4227 -0.3595 -0.9673
  947SOL     OW 2839   0.104   0.539   2.068 -0.0548  0.0098 -0.0081
  947SOL    HW1 2840   0.155   0.619   2.097 -0.8422 -0.5159 -0.0377
  947SOL    HW2 2841   0.142   0.457   2.109  1.5086  1.7113  2.5642
  948SOL     OW 2842   3.046   1.295   0.908 -0.0715 -0.0625  0.2053
  948SOL    HW1 2843   0.008   1.359   0.874  3.1714  1.2255 -0.5183
  948SOL    HW2 2844   3.069   1.203   0.886 -3.2688  2.9180  0.8335
  949SOL     OW 2845   0.661   0.623   2.687 -0.0519  0.4519  0.0651
  949SOL    HW1 2846   0.666   0.719   2.720 -0.4356  0.8277  0.3222
  949SOL    HW2 2847   0.630   0.624   2.591  2.0379 -0.7030  1.0899
  950SOL     OW 2848   0.223   0.652   1.387  0.1243 -0.3368 -0.2885
  950SOL    HW1 2849   0.124   0.655   1.392  2.9673  2.2271  0.3946
  950SOL    HW2 2850   0.264   0.749   1.401  1.6039 -0.5780  3.0969
  951SOL     OW 2851   0.376   1.239   2.736 -0.4066  0.1603 -0.1017
  951SOL    HW1 2852   0.346   1.308   2.666  1.0283  0.7266 -0.3442
  951SOL    HW2 2853   0.293   1.217   2.792 -2.6322  1.3858 -0.6339
  952SOL     OW 2854   1.710   2.115   0.950 -0.2492 -0.1099  0.4727
  952SOL    HW1 2855   1.635   2.150   1.016  1.7161  1.8916  1.5242
  952SOL    HW2 2856   1.729   2.171   0.867 -1.3990 -3.6869 -0.3949
  953SOL     OW 2857   0.518   2.854   0.128  0.0684  0.1140 -0.2977
  953SOL    HW1 2858   0.511   2.920   0.201 -0.1280  0.5480  1.8301
  953SOL    HW2 2859   0.510   2.900   0.035 -0.6349 -3.0649 -2.5460
  954SOL     OW 2860   2.776   0.805   1.177  0.3671  0.2658  0.1148
  954SOL    HW1 2861   2.805   0.806   1.275  0.7771  0.8702  0.2827
  954SOL    HW2 2862   2.761   0.709   1.148 -1.1225  1.3899 -1.1294
  955SOL     OW 2863   1.770   1.392   2.934 -0.2189  0.3523 -0.8279
  955SOL    HW1 2864   1.851   1.387   2.873  1.4497  0.7568 -0.8063
  955SOL    HW2 2865   1.760   1.307   2.994  0.8741 -0.6241 -1.3226
  956SOL     OW 2866   1.175   0.915   2.881 -0.2658 -0.7850 -0.4162
  956SOL    HW1 2867   1.155   0.824   2.920  0.1330  1.0715 -2.5327
  956SOL    HW2 2868   1.143   0.915   2.785  0.2580 -0.6642  2.6692
  957SOL     OW 2869   1.101   0.469   1.647  0.3494  0.0629 -0.3389
  957SOL    HW1 2870   1.176   0.529   1.617 -0.3252 -0.6708 -1.4478
  957SOL    HW2 2871   1.131   0.376   1.626 -0.3837 -0.5966  2.6778
  958SOL     OW 2872   0.295   1.911   0.484  0.2631 -0.4218  0.1857
  958SOL    HW1 2873   0.208   1.891   0.538  0.6740  2.0900 -3.3289
  958SOL    HW2 2874   0.280   1.943   0.386 -2.3605 -0.6914  0.0131
  959SOL     OW 2875   2.048   0.839   1.747 -0.5560  0.2471  0.3109
  959SOL    HW1 2876   2.154   0.846   1.746  4.3733  4.0510 -1.6742
  959SOL    HW2 2877   2.018   0.738   1.769  0.6190  2.0485 -2.2544
  960SOL     OW 2878   0.308   1.595   2.884 -0.1315  0.1769  0.1792
  960SOL    HW1 2879   0.371   1.583   2.803 -1.2359  0.1449 -1.1206
  960SOL    HW2 2880   0.364   1.570   2.965 -1.6696 -0.4163 -2.9399
  961SOL     OW 2881   0.633   1.817   0.888  0.9501  0.3536 -0.5873
  961SOL    HW1 2882   0.576   1.813   0.804  3.4226  0.4828  0.1876
  961SOL    HW2 2883   0.724   1.861   0.875 -1.7491  2.0814  0.3611
  962SOL     OW 2884   0.496   1.649   1.346 -0.1343  0.1426  0.7103
  962SOL    HW1 2885   0.491   1.695   1.253 -1.7462 -1.6127 -1.0940
  962SOL    HW2 2886   0.552   1.565   1.342 -1.4754 -1.0513  0.8927
  963SOL     OW 2887   1.547   2.195   2.566 -0.4109  0.0300  0.8929
  963SOL    HW1 2888   1.484   2.119   2.543 -0.0670 -2.9619  1.6718
  963SOL    HW2 2889   1.644   2.167   2.586  0.7155  1.6597  0.5676
  964SOL     OW 2890   0.190   2.997   2.226  0.0571 -0.2172  0.0679
  964SOL    HW1 2891   0.119   2.963   2.292  1.6565 -0.2467  0.4333
  964SOL    HW2 2892   0.238   2.925   2.170  0.3808 -0.1949  1.0861
  965SOL     OW 2893   2.991   2.102   2.842 -0.0784  0.2620  0.3238
  965SOL    HW1 2894   3.034   2.177   2.795 -0.1812 -5.3939  2.6089
  965SOL    HW2 2895   2.936   2.043   2.778 -0.0432  2.5605 -0.0457
  966SOL     OW 2896   2.851   1.599   2.825 -0.1158 -0.2631 -0.0829
  966SOL    HW1 2897   2.745   1.593   2.832 -1.4303 -0.4231  0.4767
  966SOL    HW2 2898   2.893   1.526   2.882 -1.2597 -1.5889  0.0803
  967SOL     OW 2899   1.956   0.092   0.320 -0.1352  0.5054  0.3480
  967SOL    HW1 2900   1.869   0.045   0.355 -2.3316  0.1884 -0.7345
  967SOL    HW2 2901   2.037   0.030   0.339 -0.1548  2.3330  0.4523
  968SOL     OW 2902   2.769   3.016   0.676  0.0466 -0.9008 -0.7025
  968SOL    HW1 2903   2.683   2.979   0.716  1.2403 -1.7007  1.5540
  968SOL    HW2 2904   2.755   0.006   0.652  1.8252  4.4207 -1.0529
  969SOL     OW 2905   0.309   0.979   1.983  0.0311  0.2425 -0.2989
  969SOL    HW1 2906   0.276   0.979   1.886  0.8903 -2.6392  1.9689
  969SOL    HW2 2907   0.333   1.069   2.016 -1.0914 -0.7134 -4.1953
  970SOL     OW 2908   1.924   1.823   2.731 -0.1606  0.1135 -0.5887
  970SOL    HW1 2909   1.969   1.742   2.692  2.9482 -0.3351  0.1103
  970SOL    HW2 2910   1.899   1.813   2.828  1.8877  2.7180  1.4737
  971SOL     OW 2911   2.189   0.254   1.700 -0.0903  0.2917  0.1163
  971SOL    HW1 2912   2.145   0.210   1.619  5.4065 -3.2504  0.7405
  971SOL    HW2 2913   2.168   0.191   1.778 -1.6493  0.3138 -1.8171
  972SOL     OW 2914   2.978   0.396   1.003  0.3520 -0.7679  0.2119
  972SOL    HW1 2915   2.917   0.424   0.929  0.0413 -0.6024  1.3721
  972SOL    HW2 2916   3.045   0.336   0.956 -2.2590  1.1468 -3.2090
  973SOL     OW 2917   0.362   0.432   2.357  0.9354 -0.1155 -0.6195
  973SOL    HW1 2918   0.305   0.380   2.279 -0.3108 -1.2221  0.1685
  973SOL    HW2 2919   0.411   0.365   2.416 -0.0320  0.0311 -1.7494
  974SOL     OW 2920   2.846   0.946   1.727 -0.0783 -0.0830 -0.4343
  974SOL    HW1 2921   2.804   1.012   1.795 -0.2072  0.8600  0.9247
  974SOL    HW2 2922   2.784   0.864   1.725  0.5937  1.0925 -0.1873
  975SOL     OW 2923   1.615   2.859   2.104 -0.2648 -0.0885  0.0372
  975SOL    HW1 2924   1.698   2.864   2.050  2.6147 -2.6087  1.7698
  975SOL    HW2 2925   1.560   2.777   2.088  0.1037 -1.7722  0.7353
  976SOL     OW 2926   1.996   1.585   1.494 -0.2813  0.4453  0.0592
  976SOL    HW1 2927   2.075   1.639   1.465 -0.9263 -2.5138  2.9389
  976SOL    HW2 2928   1.983   1.506   1.436 -2.4668  1.5378 -2.4188
  977SOL     OW 2929   0.152   2.834   2.967 -0.3177 -0.3330 -0.0615
  977SOL    HW1 2930   0.220   2.841   2.890 -1.4380  0.5004 -1.0532
  977SOL    HW2 2931   0.158   2.749   3.016 -0.7223  2.2334 -3.5925
  978SOL     OW 2932   2.069   1.419   2.043  0.0629 -0.0264 -0.1678
  978SOL    HW1 2933   2.033   1.510   2.070 -0.7522  0.5067  3.3435
  978SOL    HW2 2934   2.036   1.343   2.100 -2.0609  0.7976  0.7653
  979SOL     OW 2935   1.108   0.956   2.613 -0.4418 -0.7612  0.9075
  979SOL    HW1 2936   1.024   0.902   2.588  2.0317 -0.7147 -1.4358
  979SOL    HW2 2937   1.094   1.061   2.612  3.7787 -0.1596 -0.1916
  980SOL     OW 2938   1.693   1.937   2.636  0.0542 -0.1998  0.0765
  980SOL    HW1 2939   1.681   1.928   2.537  2.6996  0.5958 -3.3776
  980SOL    HW2 2940   1.748   1.863   2.670  1.3323  0.7010 -0.8629
  981SOL     OW 2941   1.664   0.929   1.886 -0.5362 -0.3759  0.2748
  981SOL    HW1 2942   1.747   0.949   1.828  1.2437 -0.8885 -0.6919
  981SOL    HW2 2943   1.604   1.007   1.901  0.5665  0.9104 -1.6440
  982SOL     OW 2944   0.572   0.267   0.198  0.2030  0.1950 -0.8866
  982SOL    HW1 2945   0.482   0.268   0.248 -1.1809  2.8550  3.0268
  982SOL    HW2 2946   0.556   0.268   0.098 -1.2714 -0.9336 -0.5406
  983SOL     OW 2947   2.094   0.618   2.879 -0.1397  0.4097  0.6588
  983SOL    HW1 2948   2.134   0.691   2.816  1.5395  2.5639 -2.9642
  983SOL    HW2 2949   2.024   0.564   2.830  1.2768 -1.4280  0.8550
  984SOL     OW 2950   1.005   0.248   2.775  0.0436  0.6035  0.0830
  984SOL    HW1 2951   0.989   0.199   2.683 -1.6050 -1.3406 -0.9028
  984SOL    HW2 2952   1.027   0.182   2.846 -2.3312  1.5780  2.1643
  985SOL     OW 2953   1.323   2.483   1.925  0.4220 -0.1101  0.4205
  985SOL    HW1 2954   1.300   2.384   1.935  0.4894 -2.6125  0.1754
  985SOL    HW2 2955   1.270   2.537   1.854 -0.7872  0.0271 -1.0256
  986SOL     OW 2956   2.296   3.027   1.662 -0.4768 -0.2195  0.3673
  986SOL    HW1 2957   2.253   3.075   1.582  0.0538 -1.9794 -0.8593
  986SOL    HW2 2958   2.335   3.094   1.725 -2.7549 -2.4223 -1.0095
  987SOL     OW 2959   1.828   1.222   0.840  0.5550  0.8551  0.1885
  987SOL    HW1 2960   1.769   1.137   0.837 -1.5214  0.4455  2.3886
  987SOL    HW2 2961   1.766   1.297   0.871  1.5073  1.7414 -0.2887
  988SOL     OW 2962   2.448   1.045   1.617  0.3075  0.0197  0.2801
  988SOL    HW1 2963   2.386   1.116   1.580  2.0130  1.5353 -1.3255
  988SOL    HW2 2964   2.539   1.082   1.632 -0.4266 -0.5068  1.3734
  989SOL     OW 2965   1.876   2.093   3.082 -0.1750  0.3594 -0.1662
  989SOL    HW1 2966   1.837   2.122   2.995 -0.7295  0.1475  2.3531
  989SOL    HW2 2967   1.973   2.126   3.077 -0.4307 -0.3200 -1.1125
  990SOL     OW 2968   1.590   0.839   2.570 -0.1282 -0.4230 -0.1739
  990SOL    HW1 2969   1.624   0.916   2.509 -0.4835 -0.6667  0.4045
  990SOL    HW2 2970   1.644   0.829   2.654 -4.3739 -1.3115 -1.2347
  991SOL     OW 2971   1.024   0.678   0.679 -0.0533  0.0832  0.4512
  991SOL    HW1 2972   1.103   0.617   0.653  1.5489  1.8800  0.5227
  991SOL    HW2 2973   1.042   0.727   0.764 -0.0526 -3.0485 -3.4837
  992SOL     OW 2974   0.059   0.907   1.205  0.0912 -0.0416  0.0725
  992SOL    HW1 2975   3.084   0.956   1.179  0.6732 -0.5371  3.1249
  992SOL    HW2 2976   0.062   0.814   1.158 -2.2031 -2.1997 -0.0727
  993SOL     OW 2977   1.954   0.587   1.784 -0.2074  0.4956  0.1855
  993SOL    HW1 2978   1.904   0.550   1.864  2.4782 -1.5137 -1.8941
  993SOL    HW2 2979   2.038   0.536   1.758 -0.1875 -1.2288 -1.4074
  994SOL     OW 2980   1.291   1.741   1.743 -0.3201 -0.0208 -0.6430
  994SOL    HW1 2981   1.326   1.741   1.838 -0.4569 -0.4371 -0.1522
  994SOL    HW2 2982   1.209   1.806   1.736 -2.0119  1.8695 -3.5327
  995SOL     OW 2983   2.129   1.583   2.772  0.0993  0.3136  0.7565
  995SOL    HW1 2984   2.189   1.556   2.690  3.2171  0.7457 -1.6432
  995SOL    HW2 2985   2.173   1.665   2.819 -0.3600  2.5314  2.5914
  996SOL     OW 2986   2.173   1.691   0.543  0.2763 -0.1880 -0.0831
  996SOL    HW1 2987   2.238   1.767   0.520  2.0628 -3.3060 -0.5922
  996SOL    HW2 2988   2.207   1.601   0.514 -0.3362  1.8098 -2.5735
  997SOL     OW 2989   1.828   0.498   1.987  0.0727 -0.5152  0.9673
  997SOL    HW1 2990   1.750   0.560   2.000  2.9604 -0.1486 -0.0046
  997SOL    HW2 2991   1.809   0.404   1.947 -2.5213 -0.5278  1.7068
  998SOL     OW 2992   2.644   0.599   0.697 -0.2416  0.3773 -1.2872
  998SOL    HW1 2993   2.656   0.664   0.773 -1.2213  0.6862  0.9857
  998SOL    HW2 2994   2.716   0.618   0.623 -0.9894 -1.0163  1.0015
  999SOL     OW 2995   2.556   1.368   0.214  0.0487 -0.4643 -0.2827
  999SOL    HW1 2996   2.605   1.446   0.259 -0.9976  1.1760 -1.2336
  999SOL    HW2 2997   2.530   1.298   0.282  0.7080 -0.0004  2.1557
 1000SOL     OW 2998   0.631   1.208   2.050  0.2048 -0.1493  0.1225
 1000SOL    HW1 2999   0.541   1.223   2.013  1.2017 -1.9708  0.8943
 1000SOL    HW2 3000   0.702   1.182   1.984 -0.1200 -2.1039  0.4481
   3.11017   3.11017   3.11017
