1000 SPC/Fw water molecules t= 299.00000 step= 299000
 3000
    1SOL     OW    1   2.437   3.094   0.941 -0.2427 -0.0055  0.1126
    1SOL    HW1    2   2.435   3.039   0.853 -1.5817 -1.2890 -1.1307
    1SOL    HW2    3   2.530   3.099   0.982 -1.4613  0.9702  1.5578
    2SOL     OW    4   3.022   2.333   1.091  0.0222 -0.0290  0.3498
    2SOL    HW1    5   3.070   2.268   1.034 -0.8745 -0.7734  1.4515
    2SOL    HW2    6   3.028   2.431   1.050 -1.7154  2.0431  0.8406
    3SOL     OW    7   0.796   2.729   2.832  0.3772 -0.0020 -0.0522
    3SOL    HW1    8   0.722   2.701   2.896  0.1656 -0.0079  3.3773
    3SOL    HW2    9   0.763   2.729   2.736  0.9372  0.8421 -0.8457
    4SOL     OW   10   2.039   2.303   1.642 -0.2139 -0.3503 -0.1966
    4SOL    HW1   11   2.137   2.335   1.636  1.2164 -0.1328 -1.0805
    4SOL    HW2   12   2.026   2.215   1.692 -0.2174  0.6220  0.2556
    5SOL     OW   13   1.681   0.818   1.337  0.1400  0.1456  0.3633
    5SOL    HW1   14   1.640   0.783   1.252 -2.7865 -1.1745 -1.6071
    5SOL    HW2   15   1.611   0.879   1.380 -0.7099 -1.1694  1.9950
    6SOL     OW   16   1.940   2.758   0.068 -0.1677 -0.1314 -0.1281
    6SOL    HW1   17   2.011   2.829   0.080  0.6793 -0.4047  3.6600
    6SOL    HW2   18   1.846   2.772   0.120 -2.8594 -1.4002 -0.1710
    7SOL     OW   19   2.849   1.254   1.232  0.5506  0.2367  0.3649
    7SOL    HW1   20   2.905   1.338   1.252 -0.0926 -0.3839  0.5989
    7SOL    HW2   21   2.752   1.262   1.276 -1.8534 -2.4309  0.5163
    8SOL     OW   22   1.538   2.402   1.055 -0.5896  0.7912  0.0601
    8SOL    HW1   23   1.599   2.440   1.125 -3.1754  1.7136  1.4211
    8SOL    HW2   24   1.523   2.306   1.080 -1.1264 -0.6508  0.5847
    9SOL     OW   25   1.380   2.920   2.356 -0.2845 -1.1177 -0.2397
    9SOL    HW1   26   1.369   2.879   2.447  0.2519  1.6684 -0.4563
    9SOL    HW2   27   1.346   2.861   2.280 -1.3609  0.7289  1.4560
   10SOL     OW   28   0.705   2.161   1.194 -0.2237 -0.1574 -0.3122
   10SOL    HW1   29   0.787   2.123   1.250 -0.6807  0.8008  0.7490
   10SOL    HW2   30   0.739   2.211   1.112  2.1636 -0.8124 -0.4581
   11SOL     OW   31   1.825   1.554   1.096 -0.0934 -0.2014  0.4494
   11SOL    HW1   32   1.862   1.636   1.147 -0.0547  0.0818 -2.7787
   11SOL    HW2   33   1.759   1.505   1.154  1.9699  1.5450  0.3072
   12SOL     OW   34   2.399   2.669   1.689  1.1533  0.0397 -0.4514
   12SOL    HW1   35   2.491   2.674   1.720  1.1295  0.1041  2.4374
   12SOL    HW2   36   2.327   2.695   1.756 -0.2662 -2.2090 -0.2868
   13SOL     OW   37   2.158   2.906   0.150  0.6065  0.1434  1.1098
   13SOL    HW1   38   2.103   2.929   0.232 -0.2146  2.6386  1.1236
   13SOL    HW2   39   2.256   2.924   0.163 -2.2650 -0.9388  1.2478
   14SOL     OW   40   1.978   2.358   0.814  0.0214 -0.2198 -0.1154
   14SOL    HW1   41   1.902   2.408   0.768 -2.8424  2.0596  0.8321
   14SOL    HW2   42   1.972   2.264   0.783 -0.7365  0.6681 -0.0935
   15SOL     OW   43   2.942   2.087   1.980 -0.5887  0.1970 -0.1492
   15SOL    HW1   44   3.035   2.122   1.957 -2.5363 -3.3159 -2.1662
   15SOL    HW2   45   2.955   1.996   2.031  1.4343  0.1491 -0.5683
   16SOL     OW   46   1.916   2.783   0.569 -0.1799 -0.1953 -0.0536
   16SOL    HW1   47   1.943   2.859   0.504 -0.2780  0.8714 -0.8605
   16SOL    HW2   48   1.958   2.806   0.657 -2.7207 -1.4575  1.1026
   17SOL     OW   49   0.762   0.023   1.111  0.4902 -0.0639 -0.1582
   17SOL    HW1   50   0.667   0.007   1.082 -0.2691  0.8017 -1.1229
   17SOL    HW2   51   0.768   0.041   1.208 -0.4985  0.9281 -1.8625
   18SOL     OW   52   1.580   1.112   0.046  0.2492  1.0990 -0.3343
   18SOL    HW1   53   1.591   1.108   0.149 -0.5621  0.6907  3.6101
   18SOL    HW2   54   1.576   1.017   0.007  0.9200  0.1796  1.6509
   19SOL     OW   55   1.839   1.949   0.371  0.0310  0.3458  0.4012
   19SOL    HW1   56   1.909   1.936   0.446  0.2057 -1.4072  0.7428
   19SOL    HW2   57   1.783   1.861   0.359 -0.6758 -2.8682  0.7981
   20SOL     OW   58   2.603   1.755   2.193 -0.1124  0.0510 -0.9918
   20SOL    HW1   59   2.533   1.830   2.197  0.1869 -0.1199  2.1583
   20SOL    HW2   60   2.648   1.742   2.281 -0.4052  0.0592 -1.9773
   21SOL     OW   61   1.322   1.101   0.647  0.2651 -0.3293 -0.3020
   21SOL    HW1   62   1.394   1.169   0.617  2.7685  2.2153  1.3287
   21SOL    HW2   63   1.305   1.030   0.577  1.7682  1.6435  2.6970
   22SOL     OW   64   2.020   3.034   1.462  0.2687  0.4186  0.3175
   22SOL    HW1   65   1.983   3.006   1.550  2.5997  1.3761  0.9562
   22SOL    HW2   66   2.028   0.030   1.466 -1.6017  1.4208 -1.1102
   23SOL     OW   67   2.901   0.710   1.874  0.3833 -0.1347 -0.3099
   23SOL    HW1   68   2.839   0.780   1.912  1.3052 -2.5391 -0.3894
   23SOL    HW2   69   2.967   0.743   1.801  0.7567  0.0224 -0.4669
   24SOL     OW   70   2.325   2.625   0.314 -0.1649 -0.0290 -0.4183
   24SOL    HW1   71   2.298   2.688   0.388 -0.1175  0.1436  1.3969
   24SOL    HW2   72   2.249   2.616   0.241  1.5390  2.6182 -1.2003
   25SOL     OW   73   1.107   3.093   2.250 -0.5600  0.5562  0.4273
   25SOL    HW1   74   1.100   3.070   2.346  0.5494  0.9993  1.1219
   25SOL    HW2   75   1.183   0.052   2.239 -0.2811 -0.5452 -1.4816
   26SOL     OW   76   1.848   2.345   0.389  0.3023  0.5739  0.3782
   26SOL    HW1   77   1.937   2.289   0.385 -0.5253  0.8149 -0.6294
   26SOL    HW2   78   1.768   2.279   0.396  0.1507 -2.0560 -1.1774
   27SOL     OW   79   2.290   1.621   0.058  0.5312  0.5002 -0.6276
   27SOL    HW1   80   2.233   1.608   3.081 -2.1147 -0.4075 -0.1315
   27SOL    HW2   81   2.380   1.570   0.044  0.1978 -1.0859 -1.6231
   28SOL     OW   82   0.722   1.610   1.641 -0.0437 -0.0984  0.2693
   28SOL    HW1   83   0.789   1.602   1.717 -2.7328 -1.1419 -0.6993
   28SOL    HW2   84   0.745   1.558   1.558  1.0896  1.8575  1.8932
   29SOL     OW   85   2.441   2.243   1.449  0.1817  0.0391  0.1043
   29SOL    HW1   86   2.498   2.289   1.381 -1.5998 -0.4598  0.0803
   29SOL    HW2   87   2.379   2.306   1.501  0.0391  1.6864  1.8533
   30SOL     OW   88   1.480   0.504   0.761  0.0370  0.2490  0.4232
   30SOL    HW1   89   1.390   0.485   0.812 -1.6251  1.5899 -1.7315
   30SOL    HW2   90   1.529   0.587   0.787 -0.6442 -1.9902 -0.8627
   31SOL     OW   91   1.908   2.736   1.874 -0.1400 -0.1580  0.5609
   31SOL    HW1   92   1.809   2.713   1.872 -2.6452 -0.8260 -0.6938
   31SOL    HW2   93   1.958   2.653   1.841  0.5871  1.6526  0.5212
   32SOL     OW   94   0.863   1.742   0.939  0.0770 -0.4769  0.5279
   32SOL    HW1   95   0.820   1.836   0.945  1.0570  0.6634 -0.5628
   32SOL    HW2   96   0.923   1.738   0.856  1.2548  0.6428  0.4302
   33SOL     OW   97   0.357   0.405   2.547  0.1074 -0.4443 -1.2254
   33SOL    HW1   98   0.309   0.342   2.607  3.5061  0.7685 -0.2322
   33SOL    HW2   99   0.406   0.350   2.472 -0.5840 -1.8452 -3.6544
   34SOL     OW  100   2.025   2.981   0.401 -0.7506 -0.2350 -0.0868
   34SOL    HW1  101   2.052   3.065   0.459 -0.3241  1.4090  2.2442
   34SOL    HW2  102   1.934   2.994   0.356  0.8497 -0.3355 -1.3186
   35SOL     OW  103   2.192   2.600   1.394  0.3373  0.0288 -0.1349
   35SOL    HW1  104   2.220   2.697   1.407 -1.5625  2.1689 -3.4498
   35SOL    HW2  105   2.091   2.600   1.371  0.4424  0.8694 -0.0412
   36SOL     OW  106   1.801   2.344   2.509  0.6227 -0.0356  0.3090
   36SOL    HW1  107   1.831   2.267   2.448  1.2121 -1.4161  2.2504
   36SOL    HW2  108   1.878   2.405   2.524 -0.2247 -1.2184 -1.9572
   37SOL     OW  109   0.760   0.017   1.855  0.0379  0.5975  0.0843
   37SOL    HW1  110   0.664   0.036   1.887  1.0382  1.2069 -0.9962
   37SOL    HW2  111   0.817   3.103   1.938  0.4815 -0.9063 -0.4027
   38SOL     OW  112   3.082   0.193   2.535  0.1858 -0.5715  0.0160
   38SOL    HW1  113   3.026   0.138   2.601  1.4227 -0.2768 -0.6889
   38SOL    HW2  114   0.068   0.208   2.569 -1.8787 -1.4742 -0.4674
   39SOL     OW  115   2.202   1.024   1.564  0.0457 -0.5219  0.6528
   39SOL    HW1  116   2.201   0.994   1.656  1.4668 -3.1280 -0.3962
   39SOL    HW2  117   2.240   1.119   1.551 -0.7614  0.9633  0.2381
   40SOL     OW  118   1.200   2.798   3.021 -0.0306 -0.1373  0.3104
   40SOL    HW1  119   1.103   2.814   2.991 -0.7535  2.3411 -1.5141
   40SOL    HW2  120   1.261   2.883   3.021  0.8026  2.2462 -2.2449
   41SOL     OW  121   2.459   1.554   1.126 -0.4240  0.1731 -0.3753
   41SOL    HW1  122   2.521   1.570   1.202 -0.5208  1.8756  0.1104
   41SOL    HW2  123   2.507   1.512   1.039  0.8163 -1.3942 -0.4814
   42SOL     OW  124   0.238   0.381   1.124  0.0005  0.1547  0.0322
   42SOL    HW1  125   0.336   0.398   1.114 -1.1608 -0.3591  2.7092
   42SOL    HW2  126   0.208   0.329   1.042  0.2245 -0.5942 -1.3356
   43SOL     OW  127   2.746   1.660   2.427 -0.2372  0.3391  0.6805
   43SOL    HW1  128   2.715   1.732   2.497 -1.7795  1.2391 -0.6555
   43SOL    HW2  129   2.736   1.567   2.462  1.4343  0.8111 -1.3591
   44SOL     OW  130   2.471   3.042   1.816  0.2901 -0.3654  0.0349
   44SOL    HW1  131   2.494   0.008   1.743  0.8217  3.1499 -2.1285
   44SOL    HW2  132   2.479   3.093   1.910  1.8642 -0.5611  2.2850
   45SOL     OW  133   0.764   2.912   1.679  0.0743  0.0962 -0.0598
   45SOL    HW1  134   0.736   2.820   1.719  0.1142  1.7173  0.2272
   45SOL    HW2  135   0.768   2.971   1.759 -0.8289 -1.9830 -0.3274
   46SOL     OW  136   1.341   2.829   2.619 -0.5442 -0.6085 -0.1330
   46SOL    HW1  137   1.258   2.772   2.639 -0.7942 -2.5716 -0.6323
   46SOL    HW2  138   1.341   2.920   2.667 -0.2408  2.7437 -0.2803
   47SOL     OW  139   1.710   2.066   0.785  0.3102 -0.0381 -0.1102
   47SOL    HW1  140   1.609   2.055   0.790  0.4846 -1.8380  1.1125
   47SOL    HW2  141   1.749   2.030   0.873 -2.0394 -0.8787 -1.4894
   48SOL     OW  142   1.018   2.257   0.704  0.0935  0.6255  0.2819
   48SOL    HW1  143   1.009   2.359   0.683  0.7386  0.4385 -1.6975
   48SOL    HW2  144   0.930   2.209   0.696  0.0395  0.5664  0.9013
   49SOL     OW  145   2.172   2.843   2.500 -0.3395  0.0995 -0.0154
   49SOL    HW1  146   2.238   2.917   2.468  3.1834  2.5412  2.1069
   49SOL    HW2  147   2.229   2.760   2.510 -0.6979  1.6398  1.8177
   50SOL     OW  148   1.642   0.164   0.224 -0.3721  0.0780  0.0477
   50SOL    HW1  149   1.643   0.260   0.256  0.2489  0.3543  1.9200
   50SOL    HW2  150   1.585   0.156   0.139 -0.6157 -1.2636 -0.1415
   51SOL     OW  151   2.143   0.943   0.733 -0.0314 -0.6659  0.1157
   51SOL    HW1  152   2.182   0.944   0.642 -3.8031  0.9801  0.6923
   51SOL    HW2  153   2.079   0.866   0.735  1.1314 -1.4632  1.3811
   52SOL     OW  154   1.173   1.420   1.170  1.0912 -0.3743  0.1647
   52SOL    HW1  155   1.237   1.373   1.234 -0.9882  4.6118 -0.7931
   52SOL    HW2  156   1.131   1.357   1.102  3.8685  4.0899  3.5797
   53SOL     OW  157   0.987   1.602   2.466  0.1965 -0.7083 -0.2235
   53SOL    HW1  158   0.958   1.625   2.371  1.5907  2.6233 -1.5151
   53SOL    HW2  159   0.984   1.689   2.524  2.4810 -1.7817  1.4056
   54SOL     OW  160   2.618   0.403   1.617  0.4296 -0.0006  0.1425
   54SOL    HW1  161   2.617   0.306   1.645  1.2976  1.2497  0.3286
   54SOL    HW2  162   2.569   0.413   1.526 -0.3941  3.2394  0.7217
   55SOL     OW  163   2.834   2.054   0.778 -0.5132  0.2571  0.4781
   55SOL    HW1  164   2.813   2.043   0.878  2.2733  0.4779 -0.6829
   55SOL    HW2  165   2.757   2.106   0.731 -0.8986 -0.8023  1.5821
   56SOL     OW  166   1.110   0.582   2.242  0.1907  0.3866 -0.4904
   56SOL    HW1  167   1.181   0.525   2.280 -2.3761  0.6401 -1.2698
   56SOL    HW2  168   1.055   0.530   2.175 -0.2108 -0.7069  1.8643
   57SOL     OW  169   1.251   1.381   0.044  0.3546 -0.2078 -0.3937
   57SOL    HW1  170   1.318   1.400   3.074 -0.5754 -0.5571 -1.9434
   57SOL    HW2  171   1.177   1.320   0.010 -0.0980 -1.4522  2.7059
   58SOL     OW  172   0.333   0.962   1.555 -0.4807  0.0190  0.4320
   58SOL    HW1  173   0.281   1.038   1.590  1.4599  1.7324  0.7924
   58SOL    HW2  174   0.291   0.923   1.469  1.5338 -0.6345  0.1307
   59SOL     OW  175   1.410   3.007   3.014 -0.2859  0.0898 -0.1653
   59SOL    HW1  176   1.510   2.996   3.010 -0.2880 -3.1883  1.5908
   59SOL    HW2  177   1.380   3.077   3.078 -0.0488 -1.8832 -0.0756
   60SOL     OW  178   3.102   1.943   0.290  0.8105  0.1014 -0.0285
   60SOL    HW1  179   3.073   1.984   0.380 -2.0163 -1.2881 -2.6004
   60SOL    HW2  180   3.088   1.843   0.287  1.1460 -0.3591  1.7588
   61SOL     OW  181   1.166   2.884   0.711  0.1859  0.0717  0.0485
   61SOL    HW1  182   1.260   2.871   0.745  0.1851 -0.2343 -0.7761
   61SOL    HW2  183   1.155   2.857   0.612  3.1303 -1.5866  1.7908
   62SOL     OW  184   2.013   1.945   2.596 -0.8767  0.1584 -0.2813
   62SOL    HW1  185   1.990   1.902   2.504  2.9146 -1.8293  0.5318
   62SOL    HW2  186   2.102   1.999   2.577 -1.4123  0.9159 -1.4269
   63SOL     OW  187   2.368   2.633   0.729 -0.7941  0.7830  0.6491
   63SOL    HW1  188   2.375   2.657   0.629  0.8361 -2.7516 -0.6180
   63SOL    HW2  189   2.315   2.548   0.742  0.3628 -1.9015 -0.2908
   64SOL     OW  190   1.749   1.035   2.498  0.0663  0.3638 -0.0896
   64SOL    HW1  191   1.749   1.093   2.583  1.4106 -0.3708  0.1137
   64SOL    HW2  192   1.660   1.030   2.454  3.9471  1.9936  2.4371
   65SOL     OW  193   1.619   1.596   2.676 -0.0898 -0.8252 -0.1782
   65SOL    HW1  194   1.615   1.498   2.661 -3.4150  0.2251 -0.2746
   65SOL    HW2  195   1.540   1.650   2.649 -0.5054 -3.9951  2.9275
   66SOL     OW  196   0.358   0.747   1.754 -0.1432 -0.4605 -0.3803
   66SOL    HW1  197   0.333   0.805   1.672  0.6049  1.7430 -0.7531
   66SOL    HW2  198   0.460   0.719   1.760  0.5685 -3.6186 -0.5695
   67SOL     OW  199   2.396   2.714   2.820  0.1847 -0.1137  0.4243
   67SOL    HW1  200   2.339   2.775   2.877  2.0617 -0.6115 -2.8741
   67SOL    HW2  201   2.481   2.758   2.786 -1.1510 -0.8925  1.5322
   68SOL     OW  202   1.390   2.548   1.223  0.0892  0.1103 -0.5974
   68SOL    HW1  203   1.301   2.574   1.184  0.8149 -2.1894 -0.6215
   68SOL    HW2  204   1.437   2.494   1.151 -2.8968  1.9279  0.3711
   69SOL     OW  205   0.560   2.626   0.222  0.0877 -0.0285  0.0369
   69SOL    HW1  206   0.644   2.572   0.201 -3.6555 -2.4122  1.2834
   69SOL    HW2  207   0.489   2.562   0.259  2.2323 -0.8024 -0.0111
   70SOL     OW  208   2.404   0.141   2.595 -0.1903 -0.0407 -0.5139
   70SOL    HW1  209   2.382   0.240   2.602  2.1797  0.0648  0.2564
   70SOL    HW2  210   2.401   0.111   2.499  2.1646 -0.5435 -0.1931
   71SOL     OW  211   0.689   1.340   2.423 -0.6291 -0.3595  0.7455
   71SOL    HW1  212   0.611   1.328   2.489  1.7222 -2.9514 -0.5776
   71SOL    HW2  213   0.692   1.432   2.383 -1.1370 -1.0453  1.7049
   72SOL     OW  214   3.072   2.019   0.042 -0.2082  0.3320 -0.3486
   72SOL    HW1  215   3.077   1.980   0.133  0.3089 -3.2864 -1.2718
   72SOL    HW2  216   2.974   2.030   0.014 -1.3549  1.7705  0.6542
   73SOL     OW  217   1.535   1.239   0.578 -0.1455  0.1984 -0.0666
   73SOL    HW1  218   1.548   1.340   0.594 -1.9284 -0.3495 -0.9138
   73SOL    HW2  219   1.555   1.214   0.479 -1.0839  2.0793  1.3707
   74SOL     OW  220   2.214   2.593   2.663  0.6486 -0.1362 -0.8289
   74SOL    HW1  221   2.131   2.543   2.696  2.2420  0.1216 -0.5410
   74SOL    HW2  222   2.260   2.643   2.738  0.5534 -1.7671 -1.1967
   75SOL     OW  223   2.329   1.941   0.896  0.0704  0.1759  0.4692
   75SOL    HW1  224   2.352   2.025   0.945 -0.6085  0.0936 -4.2369
   75SOL    HW2  225   2.393   1.867   0.917 -0.0235  0.8982  0.8092
   76SOL     OW  226   1.853   2.467   1.569  0.0637  0.4357  0.6086
   76SOL    HW1  227   1.860   2.548   1.508  1.3343 -0.5749 -2.3111
   76SOL    HW2  228   1.947   2.424   1.585  3.4081 -0.9549  0.3740
   77SOL     OW  229   2.193   3.004   2.120  0.3332 -0.0900  0.2987
   77SOL    HW1  230   2.106   2.948   2.127 -1.2408 -1.4910  0.0996
   77SOL    HW2  231   2.213   3.008   2.020 -0.4337  2.0898 -2.2302
   78SOL     OW  232   1.597   0.904   2.980 -0.1934  0.2292  0.2693
   78SOL    HW1  233   1.507   0.860   2.953 -0.0197 -2.4102  1.0260
   78SOL    HW2  234   1.675   0.847   2.950 -1.4455  1.4678  0.6062
   79SOL     OW  235   2.335   1.690   2.484 -0.2136  0.4047  0.4355
   79SOL    HW1  236   2.370   1.785   2.458  0.3636  3.2377 -0.5753
   79SOL    HW2  237   2.333   1.671   2.583  0.4209 -0.3149 -0.5951
   80SOL     OW  238   1.904   1.515   1.482 -0.2209 -0.3335  0.2999
   80SOL    HW1  239   1.933   1.608   1.452  1.2417  3.3301  1.5433
   80SOL    HW2  240   1.914   1.442   1.409 -0.7822  0.0330 -2.4080
   81SOL     OW  241   1.538   0.388   1.163  0.3557  0.5181  0.0874
   81SOL    HW1  242   1.522   0.370   1.263  0.1106 -0.7574  0.6839
   81SOL    HW2  243   1.449   0.379   1.119  1.1531 -0.8562 -0.9961
   82SOL     OW  244   1.485   2.447   1.817  0.2501  0.1197  0.3194
   82SOL    HW1  245   1.511   2.403   1.906  1.5827 -0.0632 -2.3865
   82SOL    HW2  246   1.413   2.520   1.829 -1.1202 -0.6470  3.0994
   83SOL     OW  247   0.223   0.216   0.600 -0.9851 -0.5417 -0.4417
   83SOL    HW1  248   0.257   0.219   0.504  1.9463 -0.6000 -3.4305
   83SOL    HW2  249   0.127   0.185   0.603  0.2080  0.9242  1.2899
   84SOL     OW  250   0.662   1.162   0.219 -0.0745 -0.6562 -0.2419
   84SOL    HW1  251   0.648   1.238   0.147 -0.4432  0.1334 -0.3785
   84SOL    HW2  252   0.676   1.073   0.174 -1.1808  1.3169 -0.1440
   85SOL     OW  253   2.731   1.844   1.552 -0.1024  0.7866 -0.4995
   85SOL    HW1  254   2.770   1.933   1.586 -0.7202 -2.0311 -0.7267
   85SOL    HW2  255   2.711   1.781   1.628 -1.4838 -0.8949 -1.8954
   86SOL     OW  256   0.001   2.561   1.450 -0.3469 -0.4830  0.3161
   86SOL    HW1  257   0.039   2.510   1.531  1.9383 -0.6560  0.0609
   86SOL    HW2  258   3.010   2.597   1.465  0.4646 -1.4667  0.1095
   87SOL     OW  259   0.503   0.269   2.370  0.0414 -0.8733 -0.7741
   87SOL    HW1  260   0.601   0.290   2.354 -1.4156  0.5842  0.4871
   87SOL    HW2  261   0.483   0.169   2.358  0.6826 -2.2952 -0.2291
   88SOL     OW  262   0.463   2.097   1.278  0.5967 -0.2436  0.8635
   88SOL    HW1  263   0.557   2.123   1.245 -0.3897  1.5669 -0.6257
   88SOL    HW2  264   0.411   2.185   1.286  0.6860  2.5032  0.0511
   89SOL     OW  265   0.937   0.444   1.413 -0.1646  0.0216 -0.4682
   89SOL    HW1  266   0.979   0.398   1.491  1.8546  1.6694 -5.0819
   89SOL    HW2  267   0.955   0.396   1.326 -2.6069  3.5054 -0.9846
   90SOL     OW  268   2.692   1.332   1.773 -0.6042  0.1961 -0.4570
   90SOL    HW1  269   2.767   1.263   1.804  0.2526 -1.1879  3.7441
   90SOL    HW2  270   2.602   1.304   1.816 -2.1675 -2.2197  1.2798
   91SOL     OW  271   1.393   0.863   1.196 -0.0338 -0.7139  0.0941
   91SOL    HW1  272   1.416   0.774   1.243  1.1474  1.0809  1.2057
   91SOL    HW2  273   1.392   0.858   1.096 -1.6081  1.4825  1.1978
   92SOL     OW  274   2.465   1.189   0.998  0.5630  0.3406  0.4651
   92SOL    HW1  275   2.523   1.257   1.042 -0.3928 -0.9009  1.4102
   92SOL    HW2  276   2.429   1.226   0.909  1.0019  0.7916 -1.5709
   93SOL     OW  277   2.410   0.753   2.498  0.5224 -0.2980  0.0227
   93SOL    HW1  278   2.472   0.733   2.416 -0.3123  2.8999  1.3876
   93SOL    HW2  279   2.325   0.803   2.480  1.0339  2.1479  0.6258
   94SOL     OW  280   2.415   1.928   2.395  0.4013  0.2819 -0.1140
   94SOL    HW1  281   2.405   1.966   2.296 -2.4094 -1.0836 -1.6387
   94SOL    HW2  282   2.362   1.991   2.456  0.3937  0.5684  0.6189
   95SOL     OW  283   2.199   0.699   0.976  0.0070  0.0083  0.2399
   95SOL    HW1  284   2.192   0.602   0.995 -0.5023 -1.2531 -0.0396
   95SOL    HW2  285   2.272   0.743   1.032 -0.1745 -0.3660 -1.1009
   96SOL     OW  286   2.503   2.834   2.018  0.0357 -0.1988 -0.2893
   96SOL    HW1  287   2.432   2.768   1.992 -0.7518  3.6272  1.1404
   96SOL    HW2  288   2.494   2.918   1.957  0.3394  0.0194  0.0005
   97SOL     OW  289   2.554   0.936   1.332 -0.3822  0.8674  0.1223
   97SOL    HW1  290   2.646   0.886   1.337  1.3485 -3.8378  0.3720
   97SOL    HW2  291   2.497   0.917   1.419  2.5407 -1.7156  2.7876
   98SOL     OW  292   1.458   2.071   1.643 -0.0610 -0.2081 -0.3311
   98SOL    HW1  293   1.499   1.979   1.656 -2.1667 -1.8596  1.7123
   98SOL    HW2  294   1.517   2.127   1.586 -1.2431 -3.1999  3.2995
   99SOL     OW  295   2.521   2.128   1.823  0.0311  0.8485 -0.9628
   99SOL    HW1  296   2.577   2.048   1.850 -0.6414 -0.6278 -2.3697
   99SOL    HW2  297   2.476   2.124   1.737  3.7610  0.1043  2.0964
  100SOL     OW  298   0.980   0.760   2.728  0.1280 -0.1709 -0.0641
  100SOL    HW1  299   0.897   0.808   2.686 -1.6848  2.5966  1.7864
  100SOL    HW2  300   1.046   0.823   2.768 -0.8539 -0.4285  2.3015
  101SOL     OW  301   2.105   0.333   2.783  0.0331  0.0631  0.1524
  101SOL    HW1  302   2.023   0.282   2.751  0.9660 -1.6617  2.1998
  101SOL    HW2  303   2.096   0.378   2.873  0.0502  1.7131 -0.9131
  102SOL     OW  304   0.488   0.409   1.727  0.6756 -0.0961 -0.1175
  102SOL    HW1  305   0.544   0.491   1.755  0.1687  0.0155 -1.1762
  102SOL    HW2  306   0.422   0.378   1.799 -1.5052 -0.7913 -1.9632
  103SOL     OW  307   0.323   0.497   2.873  0.3302 -0.1500 -0.1614
  103SOL    HW1  308   0.424   0.490   2.853 -0.9254  0.2853  1.0264
  103SOL    HW2  309   0.272   0.506   2.784 -1.0387 -0.2576  1.0863
  104SOL     OW  310   0.855   0.417   2.607 -0.5129  0.2870  0.2509
  104SOL    HW1  311   0.952   0.442   2.609 -1.0640  0.2622  1.4969
  104SOL    HW2  312   0.832   0.360   2.691  1.4019 -2.1374  4.0248
  105SOL     OW  313   2.343   1.802   1.873 -0.2542 -0.2880 -0.0729
  105SOL    HW1  314   2.278   1.834   1.949 -0.9326  1.8535  1.3935
  105SOL    HW2  315   2.426   1.856   1.869  1.3220  1.9857 -1.5955
  106SOL     OW  316   1.961   0.544   0.274  0.2006 -0.6488  0.2047
  106SOL    HW1  317   2.014   0.510   0.352  0.3759  1.8468  0.5186
  106SOL    HW2  318   2.017   0.595   0.199  4.1919  1.6990 -2.8457
  107SOL     OW  319   2.999   1.900   0.978 -0.1613 -0.7608 -0.2251
  107SOL    HW1  320   2.999   1.868   1.076 -0.8708  1.2440 -2.0858
  107SOL    HW2  321   3.060   1.832   0.935 -1.0311  1.0388  0.8537
  108SOL     OW  322   2.666   2.607   1.804  0.1625 -0.9595  0.6491
  108SOL    HW1  323   2.718   2.694   1.804  0.0520 -1.4778  1.1918
  108SOL    HW2  324   2.719   2.531   1.758  0.1218 -1.7530 -1.3133
  109SOL     OW  325   2.035   2.959   0.984  0.4221  0.0818 -0.5339
  109SOL    HW1  326   2.019   2.992   0.889  1.2976 -2.4355  0.9917
  109SOL    HW2  327   2.056   2.857   0.985  0.7909  0.2474 -0.7100
  110SOL     OW  328   0.621   1.998   2.544 -0.8363 -0.3726  0.2604
  110SOL    HW1  329   0.557   2.047   2.612 -2.4829 -1.7408  1.9101
  110SOL    HW2  330   0.621   2.046   2.452  1.5865  2.4445 -0.1836
  111SOL     OW  331   1.508   2.332   2.135 -0.1566  0.2497 -0.0279
  111SOL    HW1  332   1.425   2.395   2.130 -1.3052  0.6634  1.9696
  111SOL    HW2  333   1.592   2.387   2.123  0.9454  0.5601  0.5764
  112SOL     OW  334   2.176   2.062   3.052 -0.2903  0.1745  0.2277
  112SOL    HW1  335   2.266   2.108   3.074  1.8097  1.6611  0.8729
  112SOL    HW2  336   2.104   2.129   3.027  1.5542 -0.9409  2.1445
  113SOL     OW  337   1.513   1.928   1.261 -0.1148  0.1817  0.3783
  113SOL    HW1  338   1.416   1.905   1.257  1.1189 -1.8526  2.4700
  113SOL    HW2  339   1.566   1.856   1.306 -2.3188  1.9711 -0.3352
  114SOL     OW  340   2.915   1.106   0.838 -0.7798 -0.3022  0.5048
  114SOL    HW1  341   2.898   1.124   0.739 -2.5424  0.2747  2.6951
  114SOL    HW2  342   2.889   1.186   0.892  1.7210  0.9515 -0.6789
  115SOL     OW  343   0.938   0.813   0.216  0.6822  0.5904  0.3144
  115SOL    HW1  344   0.990   0.898   0.209  1.9812 -1.2973  1.4654
  115SOL    HW2  345   0.838   0.834   0.206  0.3114  0.9968  0.6793
  116SOL     OW  346   2.734   1.382   2.477 -0.2016  0.8628  0.2796
  116SOL    HW1  347   2.780   1.307   2.528  2.4355  1.7674 -2.3105
  116SOL    HW2  348   2.748   1.361   2.373  0.8535 -1.0858 -4.2440
  117SOL     OW  349   0.137   3.034   0.922  0.3201 -0.7065 -0.0815
  117SOL    HW1  350   0.180   2.947   0.889 -0.6274 -1.9395 -1.0676
  117SOL    HW2  351   0.050   3.056   0.864 -2.3705  0.5477 -1.4856
  118SOL     OW  352   0.980   1.846   2.591  0.9352  0.1925 -0.7648
  118SOL    HW1  353   1.071   1.884   2.611  1.8006  1.3768  2.0043
  118SOL    HW2  354   0.921   1.865   2.669 -0.2927  1.4996  2.1277
  119SOL     OW  355   0.346   2.476   0.342 -0.3010  0.7255 -0.1580
  119SOL    HW1  356   0.393   2.388   0.330 -0.6121  2.1472 -0.2183
  119SOL    HW2  357   0.282   2.491   0.262 -0.0022 -0.7238 -0.2846
  120SOL     OW  358   1.347   0.830   2.899  0.0242  0.3739  0.1447
  120SOL    HW1  359   1.349   0.764   2.819 -2.6460  0.9145  1.4093
  120SOL    HW2  360   1.256   0.867   2.902 -0.8609 -1.1457 -3.2026
  121SOL     OW  361   1.409   2.851   0.829 -0.3753  0.1272 -0.2737
  121SOL    HW1  362   1.465   2.883   0.751 -0.2043 -0.8793  3.0716
  121SOL    HW2  363   1.456   2.770   0.871  1.3049 -0.5822  0.6022
  122SOL     OW  364   2.290   2.421   1.592 -0.2103  0.0701  0.3660
  122SOL    HW1  365   2.355   2.475   1.643  0.2541 -2.0449  0.8442
  122SOL    HW2  366   2.244   2.477   1.521 -1.8306  0.0340  0.0906
  123SOL     OW  367   0.413   2.212   0.696 -0.1506  0.7375 -0.6784
  123SOL    HW1  368   0.441   2.225   0.791  1.4675 -2.5996  0.1144
  123SOL    HW2  369   0.382   2.303   0.659  0.8963  0.3392 -0.3938
  124SOL     OW  370   2.599   0.681   0.186 -0.3308  0.3470 -1.1351
  124SOL    HW1  371   2.544   0.609   0.244 -1.4649  0.8744  2.2676
  124SOL    HW2  372   2.662   0.630   0.123 -2.3199 -1.8710 -2.7333
  125SOL     OW  373   0.558   1.195   0.454  0.1871  0.3193 -0.2461
  125SOL    HW1  374   0.565   1.108   0.510  2.9481  0.8490  2.3595
  125SOL    HW2  375   0.588   1.180   0.358 -1.2283 -0.4623  2.3889
  126SOL     OW  376   0.229   1.621   1.085  0.1390  0.2540  0.3352
  126SOL    HW1  377   0.318   1.572   1.062 -1.0390  0.2234  0.9356
  126SOL    HW2  378   0.238   1.710   1.140 -1.9937  0.0309  1.7997
  127SOL     OW  379   0.969   1.979   2.340  0.0028 -0.4886 -0.0482
  127SOL    HW1  380   1.062   1.946   2.325 -1.1156 -1.2178  0.0307
  127SOL    HW2  381   0.934   1.941   2.433  0.1604 -1.3077  1.9942
  128SOL     OW  382   1.021   1.135   3.059  0.3202 -0.0717 -0.0740
  128SOL    HW1  383   1.068   1.092   0.036  1.5251  1.1643  1.6706
  128SOL    HW2  384   0.924   1.156   3.077  0.3376 -2.4125  2.6039
  129SOL     OW  385   2.420   1.661   0.717  0.1952 -1.0189  0.1457
  129SOL    HW1  386   2.465   1.692   0.803  1.5519  2.0381 -0.1120
  129SOL    HW2  387   2.317   1.652   0.732  0.8465 -1.1120 -0.2280
  130SOL     OW  388   2.579   1.611   1.421 -0.8970 -0.1786 -0.4778
  130SOL    HW1  389   2.623   1.689   1.470 -0.9702  0.8053  1.2764
  130SOL    HW2  390   2.625   1.519   1.447 -2.2871 -1.5897  0.5101
  131SOL     OW  391   3.054   2.909   3.014  0.0365  1.1660 -0.8493
  131SOL    HW1  392   3.015   2.999   2.978 -1.5602  2.3578 -0.3831
  131SOL    HW2  393   0.023   2.917   3.081 -0.8226 -0.2539 -2.1246
  132SOL     OW  394   0.467   1.549   0.745 -0.3385  0.3903 -0.3671
  132SOL    HW1  395   0.548   1.524   0.685  2.2153  0.8909  0.1714
  132SOL    HW2  396   0.379   1.517   0.701  1.2773 -1.9117  0.2986
  133SOL     OW  397   0.768   0.366   1.160 -0.2426 -0.1847 -0.1601
  133SOL    HW1  398   0.785   0.464   1.182 -1.4244 -2.1418 -2.5638
  133SOL    HW2  399   0.851   0.308   1.177 -2.7796 -1.4188 -0.5407
  134SOL     OW  400   0.154   1.779   3.031  0.5328  0.3267  0.2599
  134SOL    HW1  401   0.120   1.723   2.957  2.5106  0.2714  2.0206
  134SOL    HW2  402   0.127   1.875   3.021  0.7543  0.9793  0.7271
  135SOL     OW  403   1.801   0.624   1.491 -0.5362  0.3567 -0.2543
  135SOL    HW1  404   1.769   0.703   1.442 -3.5949  0.3035  0.4764
  135SOL    HW2  405   1.757   0.541   1.453  0.5900 -0.0409  1.7874
  136SOL     OW  406   0.122   1.332   0.229  0.1737  0.3793  0.3569
  136SOL    HW1  407   0.189   1.289   0.295 -1.3239  0.7704  1.9804
  136SOL    HW2  408   0.042   1.372   0.277  0.1422 -1.0462 -0.2889
  137SOL     OW  409   0.077   1.201   0.975  0.0076  0.2939 -0.0792
  137SOL    HW1  410   0.063   1.174   0.878 -1.3139 -0.4136 -1.5556
  137SOL    HW2  411   0.063   1.304   0.991  0.1015  2.1464  2.1380
  138SOL     OW  412   1.946   0.803   0.951  0.2106 -0.2524  0.8337
  138SOL    HW1  413   2.039   0.764   0.953 -3.7599 -0.6865  0.0009
  138SOL    HW2  414   1.933   0.859   1.036  1.6562 -0.3780  2.3848
  139SOL     OW  415   1.657   2.565   0.353 -0.9224 -0.1279 -0.0042
  139SOL    HW1  416   1.630   2.574   0.453  1.3405  0.8320  1.6985
  139SOL    HW2  417   1.730   2.491   0.348  0.7338 -1.0594 -0.6927
  140SOL     OW  418   1.292   1.680   1.689  0.2549  0.2254  0.7755
  140SOL    HW1  419   1.284   1.738   1.774  0.7861 -3.3387 -1.0317
  140SOL    HW2  420   1.242   1.592   1.705  0.4902 -0.5229  0.9724
  141SOL     OW  421   1.662   2.137   0.379  0.0575  0.7594  0.1507
  141SOL    HW1  422   1.740   2.067   0.375 -2.4580 -0.6529 -0.2481
  141SOL    HW2  423   1.586   2.102   0.442 -0.5836 -2.7909  1.6406
  142SOL     OW  424   0.884   0.607   2.946  0.7351  0.3559 -0.1937
  142SOL    HW1  425   0.954   0.618   3.021  0.5121  0.3622  1.2418
  142SOL    HW2  426   0.915   0.659   2.866 -0.0020 -1.1609 -0.2079
  143SOL     OW  427   0.384   2.044   0.015  0.1059 -0.1481 -0.6011
  143SOL    HW1  428   0.310   2.061   3.053  0.1527 -0.9254 -0.3623
  143SOL    HW2  429   0.386   2.111   0.095  1.8830  1.5788  2.0714
  144SOL     OW  430   1.535   2.776   1.384 -0.1030 -0.2392  0.9511
  144SOL    HW1  431   1.469   2.731   1.321 -0.4098  0.9420 -0.7086
  144SOL    HW2  432   1.557   2.867   1.341 -0.1147  1.8308 -1.2273
  145SOL     OW  433   2.013   1.118   3.007  0.0971 -0.1982  0.4487
  145SOL    HW1  434   2.031   1.082   3.100 -0.1763  2.2067  0.0240
  145SOL    HW2  435   1.921   1.169   3.003 -0.5143 -1.1166  1.2770
  146SOL     OW  436   0.003   2.600   1.052 -0.2563  0.0536  0.0674
  146SOL    HW1  437   3.054   2.653   1.120  0.7263  1.0191 -0.0622
  146SOL    HW2  438   0.012   2.653   0.967  0.0616 -1.0666  1.8293
  147SOL     OW  439   2.192   2.973   1.848  0.6338  0.7650  0.0292
  147SOL    HW1  440   2.110   2.945   1.798  1.0240  0.4449 -0.1756
  147SOL    HW2  441   2.274   2.999   1.791  1.8479 -0.3850 -1.5066
  148SOL     OW  442   1.098   2.907   1.951  0.0224 -0.1115  0.4186
  148SOL    HW1  443   1.112   2.956   1.861  0.6629  2.4776  1.5827
  148SOL    HW2  444   1.024   2.951   2.007 -0.4000  3.0145  0.4072
  149SOL     OW  445   1.911   0.276   2.445  0.2811 -0.5165 -0.9293
  149SOL    HW1  446   1.821   0.307   2.413 -0.9462  2.1927 -0.7018
  149SOL    HW2  447   1.957   0.226   2.373 -1.4918 -1.5839  0.4490
  150SOL     OW  448   0.033   3.066   0.400 -0.1791 -0.6990 -0.0400
  150SOL    HW1  449   0.048   0.008   0.313 -0.6273 -0.5070  0.7374
  150SOL    HW2  450   0.001   0.024   0.473  2.1187  0.6318 -0.9613
  151SOL     OW  451   0.419   2.225   0.217  0.0058  0.1190 -0.2640
  151SOL    HW1  452   0.426   2.190   0.315 -1.5394 -0.6370  2.0298
  151SOL    HW2  453   0.321   2.221   0.185 -2.2967  1.0381 -1.1346
  152SOL     OW  454   2.736   0.275   0.641  0.6335 -0.1138  0.1561
  152SOL    HW1  455   2.728   0.276   0.742  0.4527 -0.6623 -1.6400
  152SOL    HW2  456   2.742   0.374   0.606 -5.7661  0.0902  0.6854
  153SOL     OW  457   2.479   0.466   1.037 -0.0126  0.0884  0.2095
  153SOL    HW1  458   2.436   0.429   0.949 -1.3434  1.2070  1.4751
  153SOL    HW2  459   2.551   0.404   1.073  1.6827 -0.6796  0.2943
  154SOL     OW  460   0.794   0.333   2.341 -0.3679 -0.2493 -0.0807
  154SOL    HW1  461   0.813   0.383   2.430  0.7987 -1.7336  2.1392
  154SOL    HW2  462   0.788   0.398   2.260  0.1263 -1.5393 -2.3020
  155SOL     OW  463   0.572   1.777   1.209  0.6213  0.1155  0.2705
  155SOL    HW1  464   0.505   1.715   1.258 -0.5045 -1.4041  0.1368
  155SOL    HW2  465   0.624   1.828   1.278  1.1552 -0.2044 -0.4696
  156SOL     OW  466   2.595   2.050   0.140 -0.5414  0.2112 -0.4142
  156SOL    HW1  467   2.528   2.125   0.115 -2.8899  0.2018  1.4442
  156SOL    HW2  468   2.537   1.971   0.177  1.2282  1.2790 -0.0386
  157SOL     OW  469   1.054   0.649   0.407 -0.5848  0.2083  0.5948
  157SOL    HW1  470   0.990   0.576   0.447  0.0673 -0.9473  3.0894
  157SOL    HW2  471   1.004   0.703   0.347  1.2287  0.3119  0.1967
  158SOL     OW  472   2.458   0.004   2.820  0.4038 -0.2016 -0.1480
  158SOL    HW1  473   2.451   0.046   2.729 -0.1186 -1.9062  0.5205
  158SOL    HW2  474   2.370   0.021   2.872 -2.4123 -0.0260 -1.4552
  159SOL     OW  475   0.519   0.278   0.579  0.0873 -0.2458 -0.1805
  159SOL    HW1  476   0.439   0.213   0.577 -1.8082  0.4713  0.7711
  159SOL    HW2  477   0.581   0.264   0.660  0.2577  0.0190  0.4837
  160SOL     OW  478   1.218   1.510   2.565  0.0031  0.3309 -0.5819
  160SOL    HW1  479   1.127   1.538   2.531  1.0755 -0.7464  2.5579
  160SOL    HW2  480   1.207   1.500   2.666 -1.6840  1.4630  2.2030
  161SOL     OW  481   0.036   1.264   2.572  0.8214  0.1047  0.4691
  161SOL    HW1  482   0.074   1.344   2.627 -1.8537  1.6540 -0.0296
  161SOL    HW2  483   3.042   1.248   2.593 -0.9576  2.4648 -1.9042
  162SOL     OW  484   0.614   2.345   1.380 -0.2014 -0.2906  0.5520
  162SOL    HW1  485   0.639   2.273   1.310 -1.0609 -1.0022  0.4623
  162SOL    HW2  486   0.516   2.359   1.377 -0.4201 -0.7382 -0.7500
  163SOL     OW  487   2.024   0.148   2.241 -0.5584 -0.5279  0.3774
  163SOL    HW1  488   2.111   0.095   2.258  2.8113 -3.1019  4.4457
  163SOL    HW2  489   2.017   0.166   2.143 -1.2139 -1.5332 -0.0713
  164SOL     OW  490   2.085   1.551   0.450 -0.5718  0.0926  0.3646
  164SOL    HW1  491   2.031   1.589   0.371  1.1634  1.3985 -1.5054
  164SOL    HW2  492   2.183   1.533   0.419  1.2792  1.3855 -2.2003
  165SOL     OW  493   2.810   0.132   1.656  0.4602 -0.2525  0.3279
  165SOL    HW1  494   2.868   0.086   1.726  1.7592  0.4664  1.0783
  165SOL    HW2  495   2.865   0.192   1.599  2.0237  1.0417  0.7639
  166SOL     OW  496   2.090   1.023   0.151  0.5254  0.0343 -0.0709
  166SOL    HW1  497   2.191   1.029   0.166 -1.7966  1.2261  2.7333
  166SOL    HW2  498   2.032   1.041   0.234 -0.4342 -0.4954 -0.0748
  167SOL     OW  499   2.898   0.631   0.311  0.1430  0.2142  0.3945
  167SOL    HW1  500   2.839   0.574   0.249  1.7293 -1.7184 -1.6634
  167SOL    HW2  501   2.980   0.658   0.253  1.8126  0.9972 -0.0298
  168SOL     OW  502   1.555   2.637   2.552 -0.2905  0.2984 -0.1056
  168SOL    HW1  503   1.495   2.715   2.580  0.1973 -1.3203  1.1825
  168SOL    HW2  504   1.592   2.591   2.637  0.7194 -0.9047 -2.4060
  169SOL     OW  505   0.733   1.712   0.480  0.4074  0.3725 -0.4383
  169SOL    HW1  506   0.766   1.695   0.382  2.4010  0.9696 -0.8199
  169SOL    HW2  507   0.707   1.620   0.522 -1.4188  0.6211  0.4111
  170SOL     OW  508   0.012   0.202   1.135 -0.5418 -0.0502  0.3062
  170SOL    HW1  509   0.081   0.263   1.183  1.2358  2.0749  0.0561
  170SOL    HW2  510   0.035   0.099   1.134 -1.8813 -1.8567 -1.7764
  171SOL     OW  511   1.496   2.220   2.764  0.3915 -0.0427  0.5745
  171SOL    HW1  512   1.573   2.286   2.785  1.2963  0.5508  2.3261
  171SOL    HW2  513   1.522   2.141   2.701  3.0021 -0.2494  0.8039
  172SOL     OW  514   2.771   0.009   1.288 -0.0268 -0.1657  0.0641
  172SOL    HW1  515   2.678   3.103   1.331 -3.6229 -1.8137 -0.6961
  172SOL    HW2  516   2.833   0.020   1.368 -0.2578  0.3568  2.7735
  173SOL     OW  517   1.640   0.658   2.712 -0.2604  0.0619 -0.0980
  173SOL    HW1  518   1.704   0.676   2.792  0.4825  0.8958  0.8713
  173SOL    HW2  519   1.687   0.676   2.619  0.6565  0.5770  0.5778
  174SOL     OW  520   1.621   3.077   2.735 -0.1363 -0.0873  0.5658
  174SOL    HW1  521   1.610   0.073   2.725 -0.1913 -0.7177 -0.2501
  174SOL    HW2  522   1.680   3.045   2.657  1.7062  1.0374 -1.1137
  175SOL     OW  523   2.246   2.382   0.788 -0.1065 -0.6068  0.5072
  175SOL    HW1  524   2.287   2.313   0.847 -0.5724  1.5198 -0.0622
  175SOL    HW2  525   2.143   2.380   0.795  0.9050 -2.3116  0.0345
  176SOL     OW  526   1.525   0.232   2.778 -0.0011 -0.5059 -0.3977
  176SOL    HW1  527   1.446   0.288   2.804  0.3546 -0.7145  1.3293
  176SOL    HW2  528   1.610   0.248   2.841  3.7871  0.7599  1.6010
  177SOL     OW  529   1.044   1.700   0.285  0.5560 -0.5388 -0.3063
  177SOL    HW1  530   1.108   1.778   0.273  0.8636 -0.2289 -0.9991
  177SOL    HW2  531   0.951   1.725   0.255  2.7662 -0.6846  1.0308
  178SOL     OW  532   2.637   2.223   0.348 -0.7328 -0.3479  0.5359
  178SOL    HW1  533   2.645   2.161   0.266  0.0785 -0.1859 -0.2886
  178SOL    HW2  534   2.554   2.282   0.336 -0.7273  0.9696  1.2073
  179SOL     OW  535   3.011   2.681   2.878 -0.1989  0.1178 -0.3517
  179SOL    HW1  536   3.005   2.772   2.923 -1.8557 -1.0117  0.5710
  179SOL    HW2  537   2.998   2.693   2.779  1.2369  0.7192 -1.4382
  180SOL     OW  538   1.775   1.372   0.856  0.0063  0.2448  0.8934
  180SOL    HW1  539   1.796   1.439   0.929 -0.2466  0.3327 -0.4629
  180SOL    HW2  540   1.688   1.323   0.869 -0.0684  0.0095  1.7139
  181SOL     OW  541   1.865   0.775   1.942  0.0557  0.0111  0.2005
  181SOL    HW1  542   1.836   0.860   1.997  0.2615 -0.3873  2.8158
  181SOL    HW2  543   1.787   0.736   1.891 -0.1920  3.5658 -1.9791
  182SOL     OW  544   2.470   2.965   2.484 -0.6185 -0.0490 -1.0540
  182SOL    HW1  545   2.530   2.952   2.566  1.1320  1.9454  0.7479
  182SOL    HW2  546   2.495   2.892   2.415  1.0511 -1.2102 -1.1833
  183SOL     OW  547   1.506   0.525   2.161  0.0351 -0.0966 -0.7900
  183SOL    HW1  548   1.471   0.457   2.097  1.0713 -1.2003  1.3497
  183SOL    HW2  549   1.572   0.477   2.218  2.6394  1.5143 -1.5901
  184SOL     OW  550   0.175   1.103   1.235  0.3256 -0.0467 -0.2622
  184SOL    HW1  551   0.134   1.141   1.145  0.9759  2.7757 -1.3575
  184SOL    HW2  552   0.104   1.070   1.301  0.2257 -1.5072 -1.6276
  185SOL     OW  553   2.078   0.467   0.514 -0.4523  0.9872  0.5806
  185SOL    HW1  554   2.044   0.392   0.569 -2.1749 -0.1215 -0.8327
  185SOL    HW2  555   2.127   0.536   0.569 -1.0668 -0.7530 -2.2296
  186SOL     OW  556   0.604   2.697   3.021 -0.2562 -0.2802 -0.0384
  186SOL    HW1  557   0.520   2.655   2.979 -1.3035 -0.8920  1.6664
  186SOL    HW2  558   0.614   2.664   0.008  1.3354  1.4422 -2.6445
  187SOL     OW  559   2.676   0.946   2.916 -0.7530  0.0539  0.4646
  187SOL    HW1  560   2.639   0.946   2.819 -1.9581  0.0321 -0.1351
  187SOL    HW2  561   2.751   0.878   2.930 -0.1225 -1.9332  1.8710
  188SOL     OW  562   0.061   1.535   1.618  0.4737  1.1045  0.3145
  188SOL    HW1  563   0.025   1.464   1.685 -0.4782 -1.5738 -0.2957
  188SOL    HW2  564   0.134   1.491   1.564  1.0662  0.3875  1.1126
  189SOL     OW  565   2.527   0.294   0.047  0.2310  0.7796 -0.4235
  189SOL    HW1  566   2.598   0.246   0.106  1.2664 -1.6579  0.3524
  189SOL    HW2  567   2.566   0.354   3.077  0.8010  0.0592 -1.6530
  190SOL     OW  568   1.226   1.144   1.976  0.2779  0.2551 -0.4441
  190SOL    HW1  569   1.306   1.149   2.038 -0.1043  2.8748 -1.1986
  190SOL    HW2  570   1.140   1.173   2.016 -0.6569 -0.2291 -1.7215
  191SOL     OW  571   2.839   0.445   1.987  0.1532 -0.1136 -0.2232
  191SOL    HW1  572   2.741   0.426   1.963  1.0778 -0.2542  0.6951
  191SOL    HW2  573   2.864   0.542   1.969  1.1809  0.7285 -1.2542
  192SOL     OW  574   2.065   1.426   1.143 -0.0461  0.2468 -0.5786
  192SOL    HW1  575   2.034   1.346   1.204 -2.0261 -3.6719  1.5685
  192SOL    HW2  576   1.979   1.466   1.107  1.3609  2.5712  0.4885
  193SOL     OW  577   1.196   0.657   1.167  0.1551  0.4854  0.2670
  193SOL    HW1  578   1.199   0.669   1.065 -0.5120 -1.3900 -1.3306
  193SOL    HW2  579   1.103   0.684   1.200  0.4108  1.8518 -2.9547
  194SOL     OW  580   1.011   2.537   1.808 -0.1703 -0.2897  0.3125
  194SOL    HW1  581   1.094   2.563   1.750  0.9257 -0.5083  2.1097
  194SOL    HW2  582   1.004   2.583   1.899 -3.9497 -0.5188 -1.0199
  195SOL     OW  583   1.770   0.246   2.944 -0.0823  0.4791 -0.1344
  195SOL    HW1  584   1.816   0.207   2.862 -0.3243  1.8606 -0.0017
  195SOL    HW2  585   1.811   0.221   3.031  0.8375  0.3942 -0.1695
  196SOL     OW  586   1.009   2.267   1.812 -0.2714 -0.2230  0.1268
  196SOL    HW1  587   0.929   2.220   1.779 -0.0354 -1.9260  0.6664
  196SOL    HW2  588   1.011   2.368   1.792  2.8882  1.8940  2.0838
  197SOL     OW  589   1.161   2.856   1.012  0.3359  0.1720 -0.3993
  197SOL    HW1  590   1.162   2.755   1.026  0.9306  0.1101  0.4772
  197SOL    HW2  591   1.233   2.882   0.948 -1.6062  0.7360 -0.1648
  198SOL     OW  592   0.911   0.856   0.853 -0.0396  0.4897 -0.3014
  198SOL    HW1  593   0.919   0.898   0.945  0.1211  0.2261 -0.0497
  198SOL    HW2  594   0.851   0.919   0.800  1.0523 -2.8620  2.8420
  199SOL     OW  595   3.035   2.629   1.831 -0.2782 -0.3802 -0.2909
  199SOL    HW1  596   3.084   2.718   1.851 -1.7935 -0.4732 -1.4652
  199SOL    HW2  597   2.938   2.654   1.825  2.5122 -1.5775 -0.3506
  200SOL     OW  598   2.097   2.199   2.146  0.5111 -0.2605  0.0757
  200SOL    HW1  599   2.175   2.190   2.079  0.1705 -0.6966  1.3609
  200SOL    HW2  600   2.136   2.229   2.237  2.0244 -1.0235  2.9917
  201SOL     OW  601   0.337   1.647   1.919 -0.5749 -0.5950  0.6182
  201SOL    HW1  602   0.382   1.654   1.828 -0.1146  0.6568  0.9722
  201SOL    HW2  603   0.338   1.551   1.944 -0.4298  1.5957  0.6946
  202SOL     OW  604   2.467   0.449   0.277 -0.1594 -0.0878 -0.1525
  202SOL    HW1  605   2.507   0.397   0.200  0.5311 -0.8241  0.4324
  202SOL    HW2  606   2.457   0.390   0.362 -2.4222 -1.2082 -0.6584
  203SOL     OW  607   1.096   2.297   2.073 -0.3538  0.4611 -0.4668
  203SOL    HW1  608   1.003   2.341   2.087  1.9288  1.2579 -1.9403
  203SOL    HW2  609   1.113   2.271   1.976 -0.4465  0.0372  2.0908
  204SOL     OW  610   1.255   2.118   1.830 -0.8375 -0.3020 -0.2218
  204SOL    HW1  611   1.326   2.133   1.757  1.3808 -2.4123 -1.4254
  204SOL    HW2  612   1.160   2.141   1.796 -0.7579 -0.5855 -0.5844
  205SOL     OW  613   1.571   1.625   1.924  0.1025  0.4867 -0.0201
  205SOL    HW1  614   1.617   1.545   1.889 -0.5602  0.6737  2.6063
  205SOL    HW2  615   1.608   1.714   1.889 -0.6862 -0.2287 -0.7370
  206SOL     OW  616   0.487   0.822   2.416  0.1295  0.5394 -0.1833
  206SOL    HW1  617   0.529   0.759   2.481 -0.2812  3.3640  0.9498
  206SOL    HW2  618   0.547   0.909   2.407 -2.7843  1.8109  1.1915
  207SOL     OW  619   1.148   2.991   1.681 -0.6756 -0.3989 -0.0823
  207SOL    HW1  620   1.189   3.066   1.632  2.7247 -2.2114  0.0166
  207SOL    HW2  621   1.101   2.922   1.613 -0.6994 -1.2071 -1.7663
  208SOL     OW  622   0.700   2.748   2.078 -0.1540  0.1244 -0.5445
  208SOL    HW1  623   0.666   2.829   2.123 -0.2295 -0.6186 -1.1729
  208SOL    HW2  624   0.634   2.708   2.019  3.7633  0.7311  0.9265
  209SOL     OW  625   1.346   0.725   0.029  0.5353 -0.5339  0.0949
  209SOL    HW1  626   1.434   0.682   0.047 -3.0485  0.5671 -0.1316
  209SOL    HW2  627   1.344   0.769   3.039 -2.8546 -0.8401  1.8361
  210SOL     OW  628   2.756   0.525   0.555 -0.3223 -0.6926 -0.4198
  210SOL    HW1  629   2.716   0.599   0.620  1.0411  0.6407  4.8787
  210SOL    HW2  630   2.822   0.562   0.488 -1.4560 -2.0552  2.2944
  211SOL     OW  631   0.506   0.415   1.208  0.1175  0.2847 -0.0556
  211SOL    HW1  632   0.507   0.511   1.193  2.4194 -4.0091  2.6762
  211SOL    HW2  633   0.599   0.374   1.195  2.9419 -0.7792 -1.4282
  212SOL     OW  634   1.254   1.832   1.172  0.2207  0.0449 -0.5784
  212SOL    HW1  635   1.224   1.754   1.114 -0.3839 -3.9202  0.2156
  212SOL    HW2  636   1.237   1.804   1.270 -1.0197 -2.5399 -1.3451
  213SOL     OW  637   2.303   0.293   1.730 -0.4064  0.0781  0.0028
  213SOL    HW1  638   2.376   0.220   1.717  2.3747 -1.8958 -0.8863
  213SOL    HW2  639   2.261   0.293   1.825 -0.0354  2.0903 -0.7071
  214SOL     OW  640   1.050   2.406   2.449  0.4550  0.2688 -0.0620
  214SOL    HW1  641   1.127   2.345   2.430  1.4753  2.9073 -4.0158
  214SOL    HW2  642   0.992   2.380   2.530 -5.5682 -2.3235  0.5828
  215SOL     OW  643   2.733   1.633   1.710  0.1362  0.6725  0.4291
  215SOL    HW1  644   2.697   1.595   1.795  0.5386 -2.7044 -1.7626
  215SOL    HW2  645   2.736   1.560   1.639  0.4651  1.0184 -0.1928
  216SOL     OW  646   0.583   1.012   1.532 -0.1421 -0.5800 -0.7297
  216SOL    HW1  647   0.596   1.091   1.597 -1.6777  2.5468  0.4359
  216SOL    HW2  648   0.481   0.996   1.527 -1.6346  0.0605  0.9965
  217SOL     OW  649   3.057   0.130   0.590 -0.2779 -0.6596  0.2489
  217SOL    HW1  650   3.051   0.066   0.673  0.3705 -0.4350  1.1637
  217SOL    HW2  651   2.982   0.201   0.592  1.7819 -0.4365  0.8180
  218SOL     OW  652   1.665   1.694   0.933 -0.9693  0.0970  0.1204
  218SOL    HW1  653   1.706   1.786   0.959 -0.5706  0.4231  3.1005
  218SOL    HW2  654   1.732   1.621   0.959  1.1302 -0.8989  0.7806
  219SOL     OW  655   1.686   0.409   0.308  0.0482 -0.2946  0.2561
  219SOL    HW1  656   1.622   0.462   0.371 -1.4476 -0.6064  2.9207
  219SOL    HW2  657   1.778   0.457   0.302  0.6783  1.0578  0.4466
  220SOL     OW  658   1.435   1.717   0.805 -0.3771 -0.4383  0.8295
  220SOL    HW1  659   1.534   1.709   0.837  1.3593 -0.0798  0.0199
  220SOL    HW2  660   1.374   1.683   0.875  0.7107  0.1805  0.1965
  221SOL     OW  661   2.947   1.071   0.240  0.0379  0.4765  0.3132
  221SOL    HW1  662   2.903   1.155   0.200  1.7533  0.6571  1.3268
  221SOL    HW2  663   2.876   1.004   0.268 -3.2465  2.3282 -3.3855
  222SOL     OW  664   0.919   2.649   1.351 -0.0283  0.2597 -0.2308
  222SOL    HW1  665   0.821   2.638   1.327 -1.9260  0.5940 -0.0150
  222SOL    HW2  666   0.967   2.559   1.336  2.6335 -2.0787 -2.4709
  223SOL     OW  667   1.345   0.423   0.047 -0.5223 -0.2553  0.2330
  223SOL    HW1  668   1.347   0.414   3.051  0.2068  0.0552 -1.7019
  223SOL    HW2  669   1.404   0.499   0.076  0.5205 -1.7341  0.3951
  224SOL     OW  670   2.764   0.660   1.038  0.0832  0.6525 -0.0589
  224SOL    HW1  671   2.755   0.759   1.015  0.9645 -0.9593  0.2731
  224SOL    HW2  672   2.745   0.638   1.137 -1.6605 -1.9145 -0.1048
  225SOL     OW  673   0.748   1.479   1.406 -0.0805  0.0202  0.2148
  225SOL    HW1  674   0.849   1.487   1.391 -1.8386  0.6261 -0.9991
  225SOL    HW2  675   0.715   1.432   1.326  0.1193  2.8643 -0.2586
  226SOL     OW  676   0.924   2.712   0.734  0.6215 -0.1286  0.3446
  226SOL    HW1  677   0.838   2.764   0.724 -1.3680 -2.2387 -1.1085
  226SOL    HW2  678   1.012   2.772   0.722  1.1629  2.0211  1.1321
  227SOL     OW  679   1.221   1.864   1.866  0.5175 -0.8272  0.1112
  227SOL    HW1  680   1.122   1.843   1.853  1.7736  2.6690 -1.5511
  227SOL    HW2  681   1.239   1.963   1.853  1.6124  0.1504 -1.0618
  228SOL     OW  682   0.688   0.276   1.853  0.5792 -0.0588  0.2126
  228SOL    HW1  683   0.637   0.318   1.773 -0.1425  1.7699  1.0001
  228SOL    HW2  684   0.731   0.182   1.844  2.1092 -1.7142  1.2844
  229SOL     OW  685   2.764   0.584   3.099 -0.3470 -0.0333  0.1777
  229SOL    HW1  686   2.826   0.650   3.054  1.4111 -0.1172 -0.8661
  229SOL    HW2  687   2.822   0.520   0.053 -1.6668 -2.0595  2.4010
  230SOL     OW  688   0.122   0.617   1.705 -0.6422  0.3238  0.0818
  230SOL    HW1  689   0.222   0.644   1.686  1.6967 -0.0493 -0.8488
  230SOL    HW2  690   0.057   0.694   1.689 -0.5898  0.1709 -0.0678
  231SOL     OW  691   1.120   2.858   1.279  0.2334 -0.0119  0.7818
  231SOL    HW1  692   1.053   2.786   1.292  0.5736  0.2278 -1.5192
  231SOL    HW2  693   1.139   2.866   1.178 -1.2809 -0.7758 -0.0840
  232SOL     OW  694   2.866   2.574   0.433  0.3688 -0.4510  0.1244
  232SOL    HW1  695   2.857   2.483   0.395 -1.2410  2.3939 -1.2834
  232SOL    HW2  696   2.776   2.616   0.417  0.6316 -0.3518 -0.8013
  233SOL     OW  697   1.354   2.573   2.956  0.6038 -0.4074  0.2981
  233SOL    HW1  698   1.315   2.523   2.879 -3.2952 -1.2498 -0.2205
  233SOL    HW2  699   1.307   2.658   2.971  0.4162 -0.4763  0.2073
  234SOL     OW  700   0.852   1.291   1.856  0.5626 -0.4208  0.1054
  234SOL    HW1  701   0.831   1.384   1.891  1.2312  0.4077 -2.4208
  234SOL    HW2  702   0.863   1.225   1.930 -1.7080  2.1925 -1.4682
  235SOL     OW  703   0.062   2.291   2.837 -0.1354 -0.0442  0.0865
  235SOL    HW1  704   0.103   2.360   2.777 -0.2183  2.2131 -1.7655
  235SOL    HW2  705   3.078   2.328   2.878 -0.1470  2.9449  0.8608
  236SOL     OW  706   1.850   2.114   2.738 -0.3364  0.5091 -0.0624
  236SOL    HW1  707   1.920   2.056   2.685  0.2957  0.6930  1.2019
  236SOL    HW2  708   1.766   2.128   2.678 -1.8370 -1.1102 -0.9109
  237SOL     OW  709   2.045   1.108   0.935 -0.3311 -0.1700 -0.9749
  237SOL    HW1  710   2.068   1.021   0.894  2.4985  1.7702  0.2182
  237SOL    HW2  711   2.030   1.175   0.861 -0.5998 -0.2173 -2.2868
  238SOL     OW  712   1.263   2.771   2.117 -0.4105  0.3702  0.1877
  238SOL    HW1  713   1.193   2.730   2.175 -1.2883  0.4683 -0.7514
  238SOL    HW2  714   1.221   2.836   2.046  0.3486 -0.9420 -1.0039
  239SOL     OW  715   0.723   2.141   1.916 -0.0927 -0.7521 -0.0543
  239SOL    HW1  716   0.797   2.074   1.921 -1.6602  0.6605  1.1317
  239SOL    HW2  717   0.733   2.187   1.828 -0.8150  1.7634 -2.3474
  240SOL     OW  718   3.000   3.080   0.796  0.1604  0.4676  0.0389
  240SOL    HW1  719   2.925   3.024   0.754  0.0807 -1.4513  0.7316
  240SOL    HW2  720   2.961   0.051   0.855 -2.2928  2.1142 -0.0748
  241SOL     OW  721   1.159   1.851   2.943 -0.2232  0.6203 -0.8740
  241SOL    HW1  722   1.190   1.784   3.013 -0.4054 -1.7507 -0.2620
  241SOL    HW2  723   1.227   1.912   2.899  2.2095 -1.2680 -3.1142
  242SOL     OW  724   2.467   0.835   3.076  0.0635  0.2614 -0.8473
  242SOL    HW1  725   2.496   0.768   0.043  1.7329 -0.6759  0.8365
  242SOL    HW2  726   2.543   0.880   3.028 -2.4373  0.6491 -2.0136
  243SOL     OW  727   0.753   0.493   2.008 -0.0762 -0.6247 -0.4469
  243SOL    HW1  728   0.848   0.517   1.977  0.8534 -0.7142 -0.4852
  243SOL    HW2  729   0.712   0.418   1.949  2.3202 -2.5242  0.7605
  244SOL     OW  730   1.812   2.491   2.962 -0.1568 -0.3636 -0.1105
  244SOL    HW1  731   1.727   2.540   2.980  0.7317 -1.2910  1.6552
  244SOL    HW2  732   1.835   2.420   3.032  1.0280 -0.1331  0.0024
  245SOL     OW  733   1.923   2.317   0.108 -0.2997 -0.0825 -0.0509
  245SOL    HW1  734   1.824   2.329   0.136 -4.7956  1.5070 -0.7520
  245SOL    HW2  735   1.991   2.370   0.160 -0.3901 -5.3542  5.1827
  246SOL     OW  736   1.015   0.991   2.340  0.0795  0.2982  0.5675
  246SOL    HW1  737   1.042   1.009   2.244  0.7177 -0.4228  2.7948
  246SOL    HW2  738   0.967   1.068   2.385  1.1128  0.3765 -2.8035
  247SOL     OW  739   3.043   1.005   2.954  0.1284 -0.2382  0.3324
  247SOL    HW1  740   2.962   1.060   2.929  2.7766 -0.9669 -2.8989
  247SOL    HW2  741   0.022   1.066   2.966  1.0738  2.8633 -2.8246
  248SOL     OW  742   3.025   1.086   1.801 -1.1172  0.0678  0.7747
  248SOL    HW1  743   2.928   1.082   1.826 -1.0907  0.9860  0.0747
  248SOL    HW2  744   3.078   1.058   1.886  1.9840 -1.6826  1.3397
  249SOL     OW  745   0.023   0.404   0.145 -0.2745 -0.1060 -0.4860
  249SOL    HW1  746   0.037   0.413   0.040  1.7573  0.1111 -3.5824
  249SOL    HW2  747   0.090   0.455   0.207  1.4362  1.6897  1.5946
  250SOL     OW  748   2.737   0.161   0.194 -0.9890 -0.6203 -0.1910
  250SOL    HW1  749   2.755   0.087   0.120 -0.3150  0.5843 -1.0321
  250SOL    HW2  750   2.739   0.124   0.287  1.2515 -1.1676  2.3364
  251SOL     OW  751   1.102   1.526   2.054 -0.1731 -0.0327 -0.2757
  251SOL    HW1  752   1.170   1.582   2.102 -1.5744  1.4278  0.5148
  251SOL    HW2  753   1.136   1.442   2.002 -1.0649  3.0011 -2.6282
  252SOL     OW  754   1.955   1.777   1.395  0.0730 -0.6987 -0.2318
  252SOL    HW1  755   1.946   1.824   1.486 -0.1723 -0.5477 -3.6146
  252SOL    HW2  756   2.044   1.809   1.346  0.5378 -0.2731  0.5933
  253SOL     OW  757   1.868   2.295   2.036 -0.2525 -0.0253  0.3214
  253SOL    HW1  758   1.964   2.287   2.072  0.4838 -1.2414  1.8441
  253SOL    HW2  759   1.811   2.362   2.090 -1.3766 -1.2310  1.7977
  254SOL     OW  760   0.662   2.175   2.329 -0.2159 -0.3535 -0.2946
  254SOL    HW1  761   0.636   2.240   2.254  0.7949 -1.0331 -2.1667
  254SOL    HW2  762   0.760   2.193   2.348 -0.6896 -0.7160 -0.7828
  255SOL     OW  763   1.609   0.290   0.653 -0.2695  0.0272  0.0337
  255SOL    HW1  764   1.554   0.368   0.698 -3.0005  0.6171  1.4610
  255SOL    HW2  765   1.706   0.315   0.630  2.9150  1.1658 -1.1883
  256SOL     OW  766   1.881   2.227   1.368  0.3840 -0.4454  0.1574
  256SOL    HW1  767   1.869   2.324   1.398 -0.5971 -1.2021  1.8357
  256SOL    HW2  768   1.976   2.193   1.371  0.1388  0.4734 -0.8642
  257SOL     OW  769   0.428   2.575   2.883 -0.1066  0.1609 -0.2224
  257SOL    HW1  770   0.466   2.478   2.886 -1.9789 -2.6457  2.1999
  257SOL    HW2  771   0.344   2.585   2.945 -1.0747 -1.1338  2.1993
  258SOL     OW  772   0.531   0.958   1.912 -0.4289  0.6480 -0.0380
  258SOL    HW1  773   0.581   0.888   1.853  1.7043  0.1961 -0.0033
  258SOL    HW2  774   0.575   0.946   2.003  0.0718 -0.8070  1.8931
  259SOL     OW  775   1.203   0.913   2.507  0.8193 -0.6205 -0.3800
  259SOL    HW1  776   1.267   0.985   2.525  0.0447 -4.2918 -2.7225
  259SOL    HW2  777   1.130   0.949   2.444 -2.9272  0.3711 -1.7371
  260SOL     OW  778   2.344   0.766   0.513 -0.1361  0.7469  0.1142
  260SOL    HW1  779   2.308   0.692   0.580  1.3297 -1.5722 -1.2149
  260SOL    HW2  780   2.270   0.827   0.474  0.4892  5.5672  0.3930
  261SOL     OW  781   1.098   0.295   0.572 -0.1422  0.4750  0.2961
  261SOL    HW1  782   1.146   0.345   0.497  3.2757  2.0506 -2.6161
  261SOL    HW2  783   1.020   0.347   0.611 -2.9802  0.9773  0.3617
  262SOL     OW  784   2.030   2.500   2.463  0.2090  0.3640  0.1863
  262SOL    HW1  785   2.104   2.530   2.530 -3.1753 -0.3662  0.6305
  262SOL    HW2  786   2.001   2.581   2.399  0.0756 -0.9597 -1.7684
  263SOL     OW  787   0.416   1.793   2.972  0.4395  0.1742 -0.5498
  263SOL    HW1  788   0.317   1.773   2.996 -0.1942 -0.9241 -1.7981
  263SOL    HW2  789   0.453   1.869   3.027  1.3889  1.3346 -0.2361
  264SOL     OW  790   0.466   1.711   1.674  0.3992 -0.3961 -0.0668
  264SOL    HW1  791   0.559   1.675   1.668  0.2410  0.3617  0.6720
  264SOL    HW2  792   0.418   1.710   1.583 -2.1944 -0.3933  0.7387
  265SOL     OW  793   1.009   0.987   0.551  0.4736  0.4603  0.1346
  265SOL    HW1  794   0.977   1.043   0.465  0.2185  2.2065 -0.7141
  265SOL    HW2  795   1.052   0.898   0.529 -0.6368 -1.7300  3.3090
  266SOL     OW  796   1.552   1.593   0.048 -0.0957 -0.5840  0.6488
  266SOL    HW1  797   1.635   1.650   0.024  0.2105  2.0263 -1.7960
  266SOL    HW2  798   1.544   1.574   0.147 -0.9280  1.3573 -1.2310
  267SOL     OW  799   0.041   0.277   2.897  0.2587 -0.4135  0.6350
  267SOL    HW1  800   0.011   0.366   2.854  0.2323 -2.1835 -0.0004
  267SOL    HW2  801   0.106   0.230   2.833  2.1447 -0.4902  1.3316
  268SOL     OW  802   1.092   0.269   2.869  0.4903  0.2113 -0.1402
  268SOL    HW1  803   1.015   0.316   2.911  0.4460 -3.4613 -1.3484
  268SOL    HW2  804   1.108   0.180   2.912 -0.7562  2.0408 -2.4439
  269SOL     OW  805   1.647   0.344   2.310  0.5058 -0.0589 -0.0789
  269SOL    HW1  806   1.647   0.289   2.223 -1.5156  0.5980  0.6478
  269SOL    HW2  807   1.586   0.297   2.369  2.6652  1.7384 -2.8670
  270SOL     OW  808   0.728   0.819   2.602  0.1111 -0.5640 -0.0099
  270SOL    HW1  809   0.749   0.775   2.512  1.5636  0.2097  0.8240
  270SOL    HW2  810   0.666   0.769   2.662  0.6900  1.2329 -0.9216
  271SOL     OW  811   0.070   0.992   0.142 -0.0978 -0.0155 -0.6055
  271SOL    HW1  812   0.087   1.056   0.067  0.5484  1.3932  0.2072
  271SOL    HW2  813   3.082   1.004   0.178  0.2459 -1.1400 -3.7729
  272SOL     OW  814   2.252   1.197   2.893 -0.6914  0.3979 -0.1709
  272SOL    HW1  815   2.228   1.194   2.793  0.7595  1.6484  0.2599
  272SOL    HW2  816   2.185   1.155   2.950  1.7625  1.7954 -2.5036
  273SOL     OW  817   2.935   0.353   2.372 -0.3495  0.6787 -0.1680
  273SOL    HW1  818   3.009   0.388   2.312  1.8078 -1.5409  1.3689
  273SOL    HW2  819   2.976   0.282   2.437  0.8769 -2.2678  0.6110
  274SOL     OW  820   2.544   0.123   1.621 -0.4342 -0.4811 -0.5472
  274SOL    HW1  821   2.532   0.095   1.526  1.1463  1.1318  1.5045
  274SOL    HW2  822   2.648   0.122   1.641  1.7478  2.9495 -1.3290
  275SOL     OW  823   1.846   1.315   0.261 -0.2238  0.4701 -0.3269
  275SOL    HW1  824   1.887   1.322   0.170  0.5798 -1.2822  1.4893
  275SOL    HW2  825   1.798   1.399   0.292  3.4897  0.6826 -1.5274
  276SOL     OW  826   0.269   1.130   2.620  0.0563 -0.3792  0.3594
  276SOL    HW1  827   0.182   1.172   2.590 -0.0633  0.5423  1.6685
  276SOL    HW2  828   0.266   1.038   2.577 -1.4016  2.0519  0.0764
  277SOL     OW  829   1.717   2.507   2.115  0.3227 -0.0190  1.0682
  277SOL    HW1  830   1.717   2.560   2.204 -1.5019 -1.4511 -2.2719
  277SOL    HW2  831   1.692   2.570   2.037 -3.8098 -0.4459 -3.4784
  278SOL     OW  832   1.941   0.172   1.251  0.0603  0.4931  0.4395
  278SOL    HW1  833   1.871   0.106   1.209 -1.1860 -2.2703 -1.6375
  278SOL    HW2  834   2.021   0.186   1.186  2.3957 -0.9791 -0.4561
  279SOL     OW  835   0.890   1.467   2.690 -0.1793  0.1964 -0.0736
  279SOL    HW1  836   0.881   1.534   2.765 -0.9297  2.0341  1.3159
  279SOL    HW2  837   0.906   1.507   2.600  0.1170 -0.2212 -1.1176
  280SOL     OW  838   0.712   2.003   0.514 -0.3955 -0.4119  0.2013
  280SOL    HW1  839   0.721   1.904   0.541  0.3469  0.9048  0.7273
  280SOL    HW2  840   0.756   2.011   0.424 -1.3005  0.3711  1.6273
  281SOL     OW  841   0.210   3.098   2.284 -0.0231  0.6982  0.3310
  281SOL    HW1  842   0.247   3.007   2.244  0.0797  1.4990  1.8002
  281SOL    HW2  843   0.110   3.105   2.270  0.8759 -2.2815  0.9255
  282SOL     OW  844   0.228   1.868   1.214  0.7721  0.0319 -0.0276
  282SOL    HW1  845   0.252   1.950   1.159  2.6672  0.7171 -0.4525
  282SOL    HW2  846   0.130   1.880   1.242 -1.1655  1.3577  0.0607
  283SOL     OW  847   1.585   2.037   2.589 -0.0022 -0.5005 -0.3267
  283SOL    HW1  848   1.519   1.958   2.585 -1.9852  0.8747  0.7261
  283SOL    HW2  849   1.593   2.087   2.498  0.8840 -0.4411  5.2920
  284SOL     OW  850   2.234   0.790   0.142  0.2111  0.0620  0.3661
  284SOL    HW1  851   2.174   0.875   0.154  1.4520 -0.8169 -0.1898
  284SOL    HW2  852   2.325   0.818   0.098  1.5666  0.0409 -0.9177
  285SOL     OW  853   2.690   2.856   2.659 -0.1393 -0.2943  0.4920
  285SOL    HW1  854   2.706   2.889   2.753 -0.8764  2.7178 -0.7822
  285SOL    HW2  855   2.697   2.756   2.650  0.4303  1.2081 -0.3936
  286SOL     OW  856   1.904   2.646   1.377 -0.7673 -0.5177  0.1394
  286SOL    HW1  857   1.901   2.749   1.384 -0.8786  1.3140 -0.7299
  286SOL    HW2  858   1.842   2.625   1.299 -1.8408 -1.2536 -0.3653
  287SOL     OW  859   0.625   1.086   1.058 -0.0194 -0.3419  0.2935
  287SOL    HW1  860   0.654   1.164   1.114 -1.1828 -3.3628 -1.6430
  287SOL    HW2  861   0.707   1.049   1.007 -0.4341 -0.7743  1.1220
  288SOL     OW  862   1.433   2.412   0.055  0.1966  0.2497 -1.0208
  288SOL    HW1  863   1.395   2.456   0.138 -0.0665  2.0177 -2.2538
  288SOL    HW2  864   1.417   2.478   3.086 -2.3971  4.6448  0.2614
  289SOL     OW  865   0.081   1.852   2.652 -0.0731 -0.4772 -0.0237
  289SOL    HW1  866   0.058   1.790   2.731  0.4031 -0.3979  0.4268
  289SOL    HW2  867   0.168   1.901   2.673 -1.8483  0.0636 -1.2264
  290SOL     OW  868   1.190   2.085   0.828  0.9461  0.1371 -0.0108
  290SOL    HW1  869   1.126   2.156   0.788 -1.7546  2.6782  0.9494
  290SOL    HW2  870   1.156   2.058   0.923  0.3812 -2.2916 -0.1483
  291SOL     OW  871   1.950   1.424   0.051 -0.3350 -0.1293  0.4745
  291SOL    HW1  872   2.018   1.446   3.081  2.5671  0.6415 -3.6302
  291SOL    HW2  873   1.946   1.500   0.122 -0.5678  1.6235  1.7002
  292SOL     OW  874   1.149   1.453   1.671 -0.5429  0.7113 -0.6329
  292SOL    HW1  875   1.066   1.394   1.662 -0.3286  2.2648 -1.7039
  292SOL    HW2  876   1.227   1.396   1.693 -3.1515 -0.4783 -2.4240
  293SOL     OW  877   2.024   2.685   1.030 -0.4941 -0.0804 -0.3544
  293SOL    HW1  878   2.123   2.711   1.035 -0.3554  2.3846 -1.2075
  293SOL    HW2  879   2.004   2.606   1.090 -1.2366 -0.3981  4.1338
  294SOL     OW  880   0.201   1.272   2.364 -0.1458  0.5866  0.0841
  294SOL    HW1  881   0.144   1.267   2.448 -2.5632  0.2677  0.2371
  294SOL    HW2  882   0.147   1.318   2.291 -1.2068 -0.6115 -2.0461
  295SOL     OW  883   0.972   1.979   3.102  0.0230 -0.1392  0.2664
  295SOL    HW1  884   1.026   2.066   0.013 -0.5417  2.8295  0.6189
  295SOL    HW2  885   1.035   1.913   3.047  3.0547  0.1023 -0.3527
  296SOL     OW  886   1.929   1.808   2.383 -0.1321 -0.0925  0.3349
  296SOL    HW1  887   1.998   1.731   2.373  0.8442 -1.5120  0.2382
  296SOL    HW2  888   1.837   1.785   2.340 -2.0120  1.8494 -0.4489
  297SOL     OW  889   2.752   0.666   2.667  0.6826 -0.3062 -0.6255
  297SOL    HW1  890   2.757   0.631   2.573 -0.2919 -1.2512 -1.6916
  297SOL    HW2  891   2.651   0.675   2.695 -1.5648  1.4449 -1.4595
  298SOL     OW  892   0.845   2.118   2.654  0.0568  0.4851  0.2360
  298SOL    HW1  893   0.863   2.081   2.748 -0.3669  0.4871  2.8232
  298SOL    HW2  894   0.773   2.065   2.605  0.6163 -0.1269 -0.4721
  299SOL     OW  895   1.135   2.686   2.647  0.1040 -0.1374  0.4269
  299SOL    HW1  896   1.117   2.652   2.553 -0.8160  0.0760 -2.6273
  299SOL    HW2  897   1.075   2.635   2.710 -2.3717  2.2422 -0.1254
  300SOL     OW  898   2.872   0.406   0.157  0.2406 -0.6394 -0.6378
  300SOL    HW1  899   2.819   0.323   0.178  0.4128 -1.0266 -3.4901
  300SOL    HW2  900   2.974   0.393   0.141  0.4206  1.2121  0.8095
  301SOL     OW  901   0.860   0.629   1.231 -0.2081  0.1306 -0.4990
  301SOL    HW1  902   0.877   0.553   1.300 -0.7599  2.1804 -0.7965
  301SOL    HW2  903   0.848   0.719   1.278 -0.7016  0.0011 -1.0680
  302SOL     OW  904   3.031   2.078   2.683  0.1680  0.0479  0.0084
  302SOL    HW1  905   0.003   2.013   2.653  4.0477 -0.3299 -1.1430
  302SOL    HW2  906   3.071   2.157   2.728 -1.3152 -0.1825 -0.5574
  303SOL     OW  907   2.973   2.927   2.633 -0.4617  0.4863  0.9133
  303SOL    HW1  908   2.885   2.896   2.593  1.0429  0.8978  1.4953
  303SOL    HW2  909   2.956   3.029   2.641  0.5128 -1.6164  2.2893
  304SOL     OW  910   2.551   0.458   1.911 -0.9510  0.1204 -0.0466
  304SOL    HW1  911   2.563   0.431   1.814  2.5616  2.1590 -2.1110
  304SOL    HW2  912   2.491   0.397   1.967  0.7064  1.7501  0.5685
  305SOL     OW  913   0.327   3.088   2.543  0.0616  0.1419 -0.5366
  305SOL    HW1  914   0.417   3.090   2.500 -2.4228 -1.6621 -0.6974
  305SOL    HW2  915   0.257   3.104   2.471 -1.5636 -0.8422  1.9084
  306SOL     OW  916   2.579   1.223   1.346 -0.0642  0.1278 -0.3492
  306SOL    HW1  917   2.566   1.120   1.342 -1.6480 -3.0447 -1.6321
  306SOL    HW2  918   2.493   1.271   1.315  0.0272  2.3719 -3.1776
  307SOL     OW  919   1.923   0.572   1.195  0.1630  0.2269 -0.0766
  307SOL    HW1  920   1.869   0.497   1.235  1.3940  0.1783 -1.5099
  307SOL    HW2  921   1.856   0.623   1.138  3.0135 -2.8747  0.3973
  308SOL     OW  922   0.121   2.252   1.457 -0.4204 -0.0023  0.4189
  308SOL    HW1  923   0.077   2.247   1.550  2.6657 -0.1622  1.0186
  308SOL    HW2  924   0.081   2.186   1.390  0.6587 -2.3429  0.9173
  309SOL     OW  925   2.360   1.807   1.466 -0.1568  0.0772  0.4541
  309SOL    HW1  926   2.416   1.729   1.433 -0.7383 -1.9524  2.2246
  309SOL    HW2  927   2.289   1.774   1.532  2.4257 -1.0680 -1.1779
  310SOL     OW  928   2.755   1.773   3.044  0.1745 -0.1781  0.3630
  310SOL    HW1  929   2.792   1.868   3.046  0.8873 -0.1442  0.7461
  310SOL    HW2  930   2.753   1.737   0.034 -0.3441  1.1560  1.6452
  311SOL     OW  931   2.087   1.520   2.687 -0.3167 -0.2312 -0.0588
  311SOL    HW1  932   2.144   1.608   2.696  1.7907  1.1161  0.3150
  311SOL    HW2  933   2.012   1.530   2.622  1.9222  1.0767  0.4584
  312SOL     OW  934   2.613   2.278   1.007 -0.1602 -0.2918 -0.1647
  312SOL    HW1  935   2.666   2.190   1.023 -0.1610  0.7118  0.2624
  312SOL    HW2  936   2.662   2.332   0.939  0.6608 -1.6175 -0.2923
  313SOL     OW  937   2.624   2.660   1.345  0.4100  0.5296 -0.1150
  313SOL    HW1  938   2.599   2.731   1.416 -0.3931  1.1156  0.5480
  313SOL    HW2  939   2.592   2.698   1.255  0.3005 -1.8607  2.2026
  314SOL     OW  940   0.888   2.022   1.333 -0.2109  0.4251  0.8903
  314SOL    HW1  941   0.967   2.079   1.366 -0.3950 -0.0430 -1.0038
  314SOL    HW2  942   0.915   1.931   1.289  2.7783 -0.4750 -1.9755
  315SOL     OW  943   0.408   2.795   2.451 -0.2373  0.2191  0.7676
  315SOL    HW1  944   0.393   2.725   2.523 -0.7364  1.4667  1.2297
  315SOL    HW2  945   0.426   2.888   2.484  0.1612  0.5009 -0.4666
  316SOL     OW  946   0.051   1.738   0.853 -0.1381  0.1024  0.2919
  316SOL    HW1  947   0.139   1.723   0.893 -2.6478  0.7220  0.4714
  316SOL    HW2  948   0.047   1.784   0.761  1.4522 -1.1616 -3.8192
  317SOL     OW  949   1.926   0.195   0.382 -0.3858  0.7541 -0.1797
  317SOL    HW1  950   1.828   0.183   0.361  0.8816  1.8805 -3.2261
  317SOL    HW2  951   1.948   0.196   0.484  0.2993 -2.3921  1.0048
  318SOL     OW  952   2.954   2.863   0.394  0.1472 -0.2863 -0.1222
  318SOL    HW1  953   2.983   2.790   0.464 -1.4001 -0.1238  2.6195
  318SOL    HW2  954   3.016   2.948   0.394  3.6278 -1.1030 -0.0870
  319SOL     OW  955   0.771   1.531   3.099  0.0512  0.3932  0.1067
  319SOL    HW1  956   0.832   1.568   3.029 -1.6374 -0.6956  0.0615
  319SOL    HW2  957   0.775   1.430   0.000 -0.8672 -1.0541 -0.3879
  320SOL     OW  958   0.722   2.738   2.569 -0.1324 -0.3855 -0.0266
  320SOL    HW1  959   0.797   2.727   2.500 -0.1852 -0.0844 -2.6534
  320SOL    HW2  960   0.690   2.831   2.568  0.9597 -1.7313 -2.2556
  321SOL     OW  961   1.080   0.019   2.982 -0.1161  0.3399  0.1359
  321SOL    HW1  962   1.020   0.043   3.059 -0.2557 -3.9324 -2.6424
  321SOL    HW2  963   1.046   3.039   2.939 -0.0483 -2.5207  1.9211
  322SOL     OW  964   2.144   1.141   1.977 -0.1459  0.1040  0.0351
  322SOL    HW1  965   2.144   1.084   2.062  0.1176 -1.2689  1.3307
  322SOL    HW2  966   2.190   1.227   2.002  2.1676 -4.7422 -1.0956
  323SOL     OW  967   2.512   0.916   0.350  0.7932  0.2104  0.5993
  323SOL    HW1  968   2.440   0.880   0.413  1.9527  2.2985  3.7387
  323SOL    HW2  969   2.529   0.851   0.273  0.7370  1.7372  0.8417
  324SOL     OW  970   0.143   0.611   2.633  0.0573 -0.0772 -0.1803
  324SOL    HW1  971   0.056   0.571   2.672 -1.2845 -1.6084 -0.3512
  324SOL    HW2  972   0.185   0.549   2.561  1.1750 -0.7240  0.8007
  325SOL     OW  973   1.418   2.994   1.828 -0.3741 -0.4670 -0.1359
  325SOL    HW1  974   1.462   3.018   1.741 -0.0193 -0.9380  0.5566
  325SOL    HW2  975   1.324   3.036   1.831 -1.4892  1.6591 -0.2887
  326SOL     OW  976   2.509   0.002   1.358 -0.5134 -0.4579 -0.2211
  326SOL    HW1  977   2.463   3.020   1.374 -1.6439 -0.1100 -0.6389
  326SOL    HW2  978   2.454   0.061   1.300  1.4120 -3.1039 -2.7601
  327SOL     OW  979   1.804   0.742   2.917 -0.3868  0.4564 -0.1094
  327SOL    HW1  980   1.799   0.665   2.977  2.6632 -0.8047 -0.1722
  327SOL    HW2  981   1.899   0.772   2.898  1.2333  0.7147 -1.7567
  328SOL     OW  982   3.063   1.442   2.068 -0.5219 -0.4322  0.4403
  328SOL    HW1  983   3.080   1.346   2.098  0.3272 -0.7945 -3.1981
  328SOL    HW2  984   3.037   1.501   2.140 -0.4904 -1.7709 -0.8799
  329SOL     OW  985   1.639   2.715   1.945  0.2237 -0.3274  0.3586
  329SOL    HW1  986   1.548   2.717   1.904  3.3346  3.2315 -0.9144
  329SOL    HW2  987   1.659   2.799   2.003 -0.7172 -0.2152 -1.2296
  330SOL     OW  988   2.414   1.558   1.935 -0.1190 -0.1928 -0.4133
  330SOL    HW1  989   2.395   1.657   1.921  0.1022 -0.9115  0.2537
  330SOL    HW2  990   2.505   1.540   1.980  5.0375  3.6692  0.4881
  331SOL     OW  991   0.298   2.084   1.038  0.3053  0.2221 -0.3440
  331SOL    HW1  992   0.323   2.046   0.949 -0.4677  0.1707 -0.7034
  331SOL    HW2  993   0.386   2.097   1.093  0.7969  0.7414  1.3827
  332SOL     OW  994   0.569   0.612   0.946  0.0510 -0.1566  0.9561
  332SOL    HW1  995   0.535   0.626   1.042  0.6819 -1.2730 -1.5002
  332SOL    HW2  996   0.659   0.569   0.949  0.3913 -0.0862 -2.3762
  333SOL     OW  997   1.977   2.752   2.341 -0.0439 -0.0821  0.2882
  333SOL    HW1  998   1.959   2.801   2.251 -2.8957 -1.1225 -3.2007
  333SOL    HW2  999   2.052   2.796   2.399  1.1119  1.8821  1.8083
  334SOL     OW 1000   1.189   1.059   1.269 -0.4028 -0.0782 -0.3630
  334SOL    HW1 1001   1.272   0.996   1.254 -0.1925 -0.9841 -1.2188
  334SOL    HW2 1002   1.148   1.055   1.364 -2.6785  1.9517  0.1562
  335SOL     OW 1003   0.303   2.715   2.674 -0.3532 -0.0506  0.0547
  335SOL    HW1 1004   0.265   2.808   2.701 -2.6343  0.5443  0.0188
  335SOL    HW2 1005   0.369   2.678   2.743  0.5428 -2.1430  2.9637
  336SOL     OW 1006   2.516   2.395   1.922  0.0573 -0.3595 -0.2163
  336SOL    HW1 1007   2.555   2.477   1.875  0.2466  0.7880  1.4878
  336SOL    HW2 1008   2.540   2.303   1.888  0.2284 -1.2454 -0.5141
  337SOL     OW 1009   2.328   1.543   0.333 -0.0034  0.0881 -0.0141
  337SOL    HW1 1010   2.405   1.595   0.369 -1.5417  2.9441 -1.9816
  337SOL    HW2 1011   2.315   1.565   0.236  1.2643  0.2588 -0.2953
  338SOL     OW 1012   1.263   1.811   1.443  0.1218  0.1302  0.4331
  338SOL    HW1 1013   1.253   1.756   1.528  0.3220 -1.8887  0.2436
  338SOL    HW2 1014   1.243   1.912   1.459  1.4520  0.2397  2.0203
  339SOL     OW 1015   2.993   0.557   1.415  0.1010 -0.2552  0.1996
  339SOL    HW1 1016   2.971   0.558   1.518 -0.0780  2.1265  0.1033
  339SOL    HW2 1017   3.095   0.555   1.406 -0.5627  0.2017 -1.3060
  340SOL     OW 1018   1.638   2.830   1.626 -0.4897  0.2103 -0.0466
  340SOL    HW1 1019   1.571   2.798   1.554 -0.3197 -3.2437 -0.1055
  340SOL    HW2 1020   1.654   2.753   1.692 -2.4626 -0.8685  0.0630
  341SOL     OW 1021   2.165   1.415   0.885 -0.5340  0.2751  0.9226
  341SOL    HW1 1022   2.130   1.416   0.980  2.0344 -2.9448 -1.6165
  341SOL    HW2 1023   2.124   1.489   0.825 -1.8802  1.4444 -1.5643
  342SOL     OW 1024   0.510   1.804   0.937 -0.1068  0.0838 -0.3167
  342SOL    HW1 1025   0.535   1.806   1.033 -1.0001 -0.4527  1.2179
  342SOL    HW2 1026   0.519   1.706   0.903  0.3598  1.0289  2.0752
  343SOL     OW 1027   2.420   0.852   1.548  0.2060 -0.1875  0.2985
  343SOL    HW1 1028   2.426   0.756   1.520  3.4342 -1.9357  1.7228
  343SOL    HW2 1029   2.323   0.883   1.563  0.4326  0.5371 -0.2067
  344SOL     OW 1030   2.285   0.195   0.846 -0.2479  0.3522  0.1996
  344SOL    HW1 1031   2.325   0.271   0.797  1.7645  1.5270  0.1417
  344SOL    HW2 1032   2.352   0.130   0.890  2.5525 -1.5250  1.3439
  345SOL     OW 1033   3.056   2.669   2.579  0.4291  0.5420 -0.3467
  345SOL    HW1 1034   3.077   2.655   2.480 -2.8486  0.7021 -1.1358
  345SOL    HW2 1035   3.033   2.768   2.587  1.4313 -2.1916  1.3570
  346SOL     OW 1036   2.887   1.167   0.588 -0.4088  0.0511  0.3323
  346SOL    HW1 1037   2.826   1.228   0.528 -2.2207  1.6011  0.8211
  346SOL    HW2 1038   2.903   1.079   0.542 -0.9825  0.6829  0.3075
  347SOL     OW 1039   1.684   2.568   1.219  0.2451 -0.2846 -0.2842
  347SOL    HW1 1040   1.677   2.619   1.130 -1.2765 -1.0332 -0.5988
  347SOL    HW2 1041   1.639   2.616   1.297  0.5991  1.2345 -2.4278
  348SOL     OW 1042   1.284   0.891   1.800 -0.1315 -0.4206 -0.6364
  348SOL    HW1 1043   1.326   0.971   1.751  1.1218  0.0822 -1.0980
  348SOL    HW2 1044   1.215   0.922   1.871 -3.8289 -1.4898  1.0757
  349SOL     OW 1045   2.297   1.437   2.353  0.0906  0.2381 -0.4799
  349SOL    HW1 1046   2.347   1.366   2.406 -0.6425  0.2883  3.2102
  349SOL    HW2 1047   2.319   1.527   2.396  0.4961  0.2804  2.0642
  350SOL     OW 1048   0.044   2.108   1.023 -0.0255 -0.2824 -0.1153
  350SOL    HW1 1049   0.147   2.099   1.022 -0.1062  0.0555  2.7278
  350SOL    HW2 1050   3.104   2.023   0.989  1.4683 -1.5581 -0.1478
  351SOL     OW 1051   0.341   0.327   1.935  0.1698 -0.3953 -0.5725
  351SOL    HW1 1052   0.260   0.368   1.892 -0.5163 -0.9409  0.5402
  351SOL    HW2 1053   0.345   0.345   2.031  0.7773 -0.4519  0.2115
  352SOL     OW 1054   1.004   2.808   1.565  0.1538  0.0922 -0.7112
  352SOL    HW1 1055   0.925   2.856   1.617 -0.4822  1.5664  4.2164
  352SOL    HW2 1056   0.966   2.755   1.487 -2.5840 -0.4448 -1.7840
  353SOL     OW 1057   0.676   1.596   2.300  0.6124  0.0511  0.2274
  353SOL    HW1 1058   0.759   1.642   2.263 -2.5577  0.1431  0.3679
  353SOL    HW2 1059   0.642   1.649   2.381  1.0097 -1.3678  1.4284
  354SOL     OW 1060   1.485   1.583   0.334  0.0522 -0.4627  0.2529
  354SOL    HW1 1061   1.443   1.492   0.353 -1.1756  0.9580 -1.5346
  354SOL    HW2 1062   1.435   1.655   0.380  0.6588 -1.9724  0.4135
  355SOL     OW 1063   2.022   0.224   0.637  0.1908  0.2310  0.3285
  355SOL    HW1 1064   2.002   0.271   0.727 -1.6004 -1.5534 -2.3032
  355SOL    HW2 1065   2.081   0.138   0.654  3.0484 -2.0224  1.1591
  356SOL     OW 1066   0.105   1.228   3.087  0.3453  0.0809 -0.3439
  356SOL    HW1 1067   0.190   1.257   3.034 -0.5430  0.4397 -1.1812
  356SOL    HW2 1068   0.121   1.267   0.076  0.5148  1.5168 -0.9226
  357SOL     OW 1069   2.805   3.098   2.000 -0.2631  0.3964 -0.3576
  357SOL    HW1 1070   2.856   0.052   2.070 -0.1919 -0.5546 -1.6755
  357SOL    HW2 1071   2.867   3.082   1.925  1.6846  0.9330  1.5594
  358SOL     OW 1072   0.492   1.270   2.593  0.0656 -0.1292 -0.2706
  358SOL    HW1 1073   0.449   1.362   2.590 -0.7527  0.1411  1.8016
  358SOL    HW2 1074   0.417   1.199   2.592 -0.3100  0.1584 -0.8712
  359SOL     OW 1075   2.455   2.524   2.576  0.1484 -0.0905  0.0702
  359SOL    HW1 1076   2.364   2.537   2.614  0.4984  0.2621 -2.0844
  359SOL    HW2 1077   2.457   2.461   2.499 -0.2754  0.3624  1.0841
  360SOL     OW 1078   1.536   1.253   0.900 -0.0880  0.5618 -0.1324
  360SOL    HW1 1079   1.452   1.285   0.851  0.0392  2.8861 -1.0617
  360SOL    HW2 1080   1.526   1.201   0.988  1.2189  1.8615  1.0222
  361SOL     OW 1081   2.195   2.321   1.184 -0.5232  0.3156  0.0074
  361SOL    HW1 1082   2.100   2.349   1.158 -0.7525  1.1715 -2.3658
  361SOL    HW2 1083   2.197   2.261   1.263  0.1326  0.2488  0.9330
  362SOL     OW 1084   1.945   1.211   0.701  0.1475  0.3593 -0.0897
  362SOL    HW1 1085   1.965   1.182   0.602 -0.9186 -2.1799 -2.9496
  362SOL    HW2 1086   1.895   1.302   0.708 -0.6885  0.1670 -0.4475
  363SOL     OW 1087   2.611   2.174   0.628 -0.5725 -0.4590 -0.0341
  363SOL    HW1 1088   2.525   2.121   0.641  0.1267 -0.1247  0.5335
  363SOL    HW2 1089   2.650   2.169   0.533 -1.6395  0.2213 -5.0493
  364SOL     OW 1090   2.287   0.161   1.245 -0.0605 -0.5836  0.3784
  364SOL    HW1 1091   2.240   0.131   1.161 -0.9344 -0.5564 -4.4001
  364SOL    HW2 1092   2.285   0.263   1.260 -0.4625 -1.0602 -0.4988
  365SOL     OW 1093   0.413   2.748   1.269 -0.3748 -0.1258 -0.3766
  365SOL    HW1 1094   0.420   2.769   1.170  0.9633 -0.1233 -1.2149
  365SOL    HW2 1095   0.339   2.679   1.276 -0.4685  0.6670  0.7997
  366SOL     OW 1096   3.008   1.436   0.424  0.1022  0.0015 -0.6063
  366SOL    HW1 1097   2.915   1.393   0.427  0.0863 -2.2388  1.6232
  366SOL    HW2 1098   3.040   1.465   0.519 -2.5458  1.7491 -0.9175
  367SOL     OW 1099   2.110   2.249   2.735  0.0870  0.3481 -0.4186
  367SOL    HW1 1100   2.063   2.213   2.820  0.4901  0.2854  0.9525
  367SOL    HW2 1101   2.195   2.194   2.716 -1.2095  2.3433  0.2793
  368SOL     OW 1102   2.744   2.033   1.056 -0.1728  0.0270  0.6526
  368SOL    HW1 1103   2.715   1.965   1.121  0.3331  4.1684 -2.1160
  368SOL    HW2 1104   2.845   2.050   1.060 -1.1268  0.1444 -1.2831
  369SOL     OW 1105   0.824   1.111   0.712  0.4440 -0.1512  0.1771
  369SOL    HW1 1106   0.738   1.133   0.662  4.3802  3.0644  0.7067
  369SOL    HW2 1107   0.889   1.055   0.649 -0.7283  0.1743 -0.1802
  370SOL     OW 1108   0.642   0.191   0.816 -0.0460 -0.2914 -0.0722
  370SOL    HW1 1109   0.579   0.176   0.892 -2.3860 -1.0064 -0.4187
  370SOL    HW2 1110   0.742   0.188   0.847  2.1057  0.0459 -1.3577
  371SOL     OW 1111   2.530   1.197   2.813  0.0585  0.0927 -0.2916
  371SOL    HW1 1112   2.535   1.119   2.749  0.6123  0.7543 -0.8767
  371SOL    HW2 1113   2.427   1.205   2.839 -1.9540 -4.5658 -1.0380
  372SOL     OW 1114   0.576   0.565   2.537 -0.1729 -0.1946  0.1606
  372SOL    HW1 1115   0.645   0.497   2.555 -2.2166 -0.2888  0.6527
  372SOL    HW2 1116   0.486   0.518   2.538  0.4790 -1.4205  1.1229
  373SOL     OW 1117   0.581   0.439   2.818 -0.5367 -0.4675 -0.1071
  373SOL    HW1 1118   0.652   0.367   2.822  2.0866  2.2465 -0.1069
  373SOL    HW2 1119   0.615   0.519   2.872 -0.3225  0.4009  0.0911
  374SOL     OW 1120   1.057   2.462   0.004 -0.3068  0.0377 -0.1245
  374SOL    HW1 1121   1.050   2.488   3.009  1.8451  0.3553 -1.1728
  374SOL    HW2 1122   1.100   2.537   0.055  0.2468  0.0094 -2.7334
  375SOL     OW 1123   1.110   0.016   0.521  0.5879 -0.0608  0.4054
  375SOL    HW1 1124   1.170   3.067   0.585 -1.0452 -0.5091 -2.3880
  375SOL    HW2 1125   1.091   0.110   0.556 -1.8857  0.8880 -2.7430
  376SOL     OW 1126   0.110   2.456   2.014  0.5212  0.1503  0.0189
  376SOL    HW1 1127   0.027   2.470   1.954  1.1884 -1.5802 -0.7504
  376SOL    HW2 1128   0.182   2.525   2.008  0.8517 -1.0970  1.4962
  377SOL     OW 1129   2.809   2.026   3.070  0.1292 -0.7155 -0.0245
  377SOL    HW1 1130   2.732   2.053   0.028  0.4751  0.7234 -0.9456
  377SOL    HW2 1131   2.805   2.075   2.979  0.1330  0.5640  0.2356
  378SOL     OW 1132   1.882   0.614   0.762 -0.4177 -0.2208 -0.1871
  378SOL    HW1 1133   1.902   0.524   0.805  0.5804  0.2856 -2.6683
  378SOL    HW2 1134   1.880   0.685   0.834 -1.1852 -1.2390 -4.1409
  379SOL     OW 1135   1.247   1.319   0.835 -0.2509 -0.5021 -0.6193
  379SOL    HW1 1136   1.260   1.247   0.764  3.0188  0.0769  0.0599
  379SOL    HW2 1137   1.202   1.399   0.792 -0.6432  1.5762 -0.7693
  380SOL     OW 1138   2.613   1.862   1.861  0.6523 -0.0863  0.2151
  380SOL    HW1 1139   2.678   1.795   1.821 -0.1065 -0.9152 -0.8952
  380SOL    HW2 1140   2.648   1.902   1.949  1.5533 -2.2340 -1.7029
  381SOL     OW 1141   3.059   1.170   2.165 -0.5443  0.4340  0.1571
  381SOL    HW1 1142   2.969   1.126   2.192  1.1787 -2.6512  1.6470
  381SOL    HW2 1143   0.010   1.102   2.108  0.7025  1.2291 -2.6639
  382SOL     OW 1144   2.876   2.334   0.321  0.3349  0.1858 -0.5011
  382SOL    HW1 1145   2.931   2.304   0.400 -0.4740  0.5405  0.2380
  382SOL    HW2 1146   2.782   2.292   0.328 -1.1175 -0.5154  2.6223
  383SOL     OW 1147   1.505   1.026   2.324 -0.2925 -0.1226  0.1002
  383SOL    HW1 1148   1.497   1.075   2.234  0.9115  1.2380  2.1131
  383SOL    HW2 1149   1.511   0.928   2.319  0.5743  1.6683 -0.9829
  384SOL     OW 1150   1.149   2.145   2.613  0.0206  0.1750  0.5630
  384SOL    HW1 1151   1.203   2.223   2.645  0.7413  1.0563 -4.6076
  384SOL    HW2 1152   1.049   2.151   2.629  0.2231  1.9428  2.4114
  385SOL     OW 1153   2.430   2.241   0.090  0.5304  0.0104 -0.2501
  385SOL    HW1 1154   2.428   2.299   0.010  1.3444  0.8078 -1.5302
  385SOL    HW2 1155   2.432   2.303   0.174 -0.4942 -0.0666  0.3777
  386SOL     OW 1156   1.610   1.131   0.312  0.1371  0.2434  0.2391
  386SOL    HW1 1157   1.697   1.184   0.311 -0.5212 -0.6324  0.6084
  386SOL    HW2 1158   1.627   1.048   0.373  1.4088 -2.8257 -0.1700
  387SOL     OW 1159   2.893   0.971   1.222 -0.3802  0.0189  0.0715
  387SOL    HW1 1160   2.885   1.077   1.230  0.1087  2.2516 -1.4101
  387SOL    HW2 1161   2.834   0.952   1.141 -2.0318  3.5910 -0.0648
  388SOL     OW 1162   0.258   0.821   1.307  0.1113  0.6280 -0.4003
  388SOL    HW1 1163   0.187   0.897   1.284 -1.0810 -0.6193 -0.9820
  388SOL    HW2 1164   0.211   0.732   1.336 -0.7140 -3.1222 -2.4728
  389SOL     OW 1165   1.871   1.107   2.257  0.2386  0.4177 -0.1462
  389SOL    HW1 1166   1.862   1.073   2.349  0.6162  0.8336 -2.7052
  389SOL    HW2 1167   1.839   1.205   2.249 -0.8377 -0.0075 -2.0696
  390SOL     OW 1168   1.353   2.256   0.416 -0.3202  0.1799  0.6242
  390SOL    HW1 1169   1.305   2.251   0.324  0.8209  0.3711  0.8791
  390SOL    HW2 1170   1.404   2.170   0.443  0.9280 -2.6348  2.7296
  391SOL     OW 1171   1.087   2.029   1.074  0.0237 -0.2060 -0.6026
  391SOL    HW1 1172   1.141   1.951   1.111  2.4032  0.3974  0.8986
  391SOL    HW2 1173   0.990   2.007   1.048 -0.8516 -0.6105  0.0505
  392SOL     OW 1174   2.355   2.557   2.185  0.0398  0.1312 -0.1115
  392SOL    HW1 1175   2.252   2.558   2.195 -2.2715 -2.7053  1.6269
  392SOL    HW2 1176   2.378   2.585   2.091  0.9145  0.7500  0.0621
  393SOL     OW 1177   1.498   1.968   3.104  0.2527  0.4290 -0.4386
  393SOL    HW1 1178   1.474   1.921   3.013 -3.9936  1.1960 -2.6964
  393SOL    HW2 1179   1.592   2.004   3.094 -2.1577  0.3735 -0.4816
  394SOL     OW 1180   0.024   0.466   2.218  0.5673  0.3044 -0.0230
  394SOL    HW1 1181   0.022   0.558   2.162  0.0109  1.5589  1.0375
  394SOL    HW2 1182   0.122   0.437   2.235 -1.6616  0.7009  1.0580
  395SOL     OW 1183   0.297   1.135   0.731 -0.5714 -0.0037 -0.1097
  395SOL    HW1 1184   0.298   1.100   0.828  0.5173 -1.2220  2.3734
  395SOL    HW2 1185   0.331   1.063   0.670  1.4067 -0.3505  2.2720
  396SOL     OW 1186   2.558   0.964   2.658  0.4192 -0.1138  0.5819
  396SOL    HW1 1187   2.482   0.933   2.602 -0.2501  0.3336 -1.1603
  396SOL    HW2 1188   2.643   0.940   2.609  1.6107 -1.3630  0.5394
  397SOL     OW 1189   0.499   0.851   3.094  0.9719  0.2759  0.0305
  397SOL    HW1 1190   0.468   0.924   3.034  2.6263 -1.7692 -0.3989
  397SOL    HW2 1191   0.528   0.773   3.037  1.6801  0.7332  0.9995
  398SOL     OW 1192   1.316   2.916   0.305 -0.1040  0.1052 -0.1206
  398SOL    HW1 1193   1.384   2.968   0.354 -1.7065 -3.0674 -1.6836
  398SOL    HW2 1194   1.297   2.957   0.216 -1.2270  0.5296  4.3665
  399SOL     OW 1195   2.000   2.465   1.865 -0.7723  0.0627 -0.8767
  399SOL    HW1 1196   1.943   2.393   1.915 -1.5256 -0.1837  0.8671
  399SOL    HW2 1197   2.016   2.429   1.769  1.2785  1.2663  1.1133
  400SOL     OW 1198   0.015   1.368   1.818 -0.3138 -0.5022  0.0785
  400SOL    HW1 1199   3.085   1.274   1.802  1.0875 -1.3145  1.2970
  400SOL    HW2 1200   0.011   1.393   1.918  1.5267 -1.7642 -1.6471
  401SOL     OW 1201   0.561   0.950   0.608 -0.2178  0.4288  0.0037
  401SOL    HW1 1202   0.531   0.859   0.567 -0.0461 -1.6933 -0.1966
  401SOL    HW2 1203   0.583   0.943   0.705 -0.4958 -0.4032  1.3226
  402SOL     OW 1204   0.686   2.970   2.264 -0.3128 -0.5816 -0.1941
  402SOL    HW1 1205   0.703   2.960   2.364  0.0972  0.6735  2.1332
  402SOL    HW2 1206   0.601   3.023   2.246 -1.6565  1.2724 -0.3092
  403SOL     OW 1207   2.892   1.922   1.776 -0.6531 -0.4096 -0.0498
  403SOL    HW1 1208   2.882   1.991   1.852 -0.6215  1.1592  2.4755
  403SOL    HW2 1209   2.982   1.871   1.780  0.3295 -2.7097  1.1971
  404SOL     OW 1210   2.692   2.066   2.097 -0.1443  0.4925 -0.3396
  404SOL    HW1 1211   2.683   2.137   2.171  0.7893 -1.8696  1.1699
  404SOL    HW2 1212   2.764   2.087   2.032 -1.0471  0.9483  2.1234
  405SOL     OW 1213   1.890   0.162   2.692  0.4245 -0.3575  0.5658
  405SOL    HW1 1214   1.886   0.065   2.666  1.5771 -0.9175 -1.7731
  405SOL    HW2 1215   1.908   0.218   2.606 -0.7620  1.9803 -0.1750
  406SOL     OW 1216   1.202   1.912   0.278  0.0457  0.0040 -0.1534
  406SOL    HW1 1217   1.221   1.892   0.183  1.8398 -1.0990  0.6609
  406SOL    HW2 1218   1.159   2.000   0.292  1.3521 -1.0603 -0.6110
  407SOL     OW 1219   1.361   1.332   0.272 -0.4387 -0.0002 -0.2389
  407SOL    HW1 1220   1.329   1.372   0.185 -1.3670  1.1353 -0.1236
  407SOL    HW2 1221   1.415   1.246   0.255 -0.7262  2.1736 -2.2936
  408SOL     OW 1222   0.404   0.496   1.485 -0.3420  0.7048  0.4720
  408SOL    HW1 1223   0.431   0.461   1.578  0.8404  1.3201 -0.5137
  408SOL    HW2 1224   0.477   0.484   1.418 -0.6622 -1.2041 -1.0783
  409SOL     OW 1225   2.856   1.550   2.893  0.3118  0.2373  0.3445
  409SOL    HW1 1226   2.772   1.523   2.840 -1.9630  1.5800  1.8430
  409SOL    HW2 1227   2.831   1.631   2.948 -1.0594 -1.8283  2.1016
  410SOL     OW 1228   2.603   2.783   0.820 -0.2172 -0.0920 -0.5342
  410SOL    HW1 1229   2.677   2.756   0.888 -0.4414 -0.7456  2.4109
  410SOL    HW2 1230   2.553   2.703   0.786  0.1991 -0.2782  2.4843
  411SOL     OW 1231   2.971   0.924   0.525 -0.3072 -0.5270  0.2958
  411SOL    HW1 1232   2.957   0.846   0.589 -1.4632  1.2420  0.9167
  411SOL    HW2 1233   2.915   0.906   0.441 -1.1256  2.0349  1.3513
  412SOL     OW 1234   1.762   3.010   0.308  0.3239 -0.3267  0.8201
  412SOL    HW1 1235   1.721   3.097   0.267  1.2459 -1.6718 -0.4872
  412SOL    HW2 1236   1.710   2.925   0.294  0.8872  1.2966  0.4351
  413SOL     OW 1237   1.530   0.280   1.415 -0.2075  0.0805  0.7721
  413SOL    HW1 1238   1.473   0.208   1.372  1.2603  3.1237 -1.9167
  413SOL    HW2 1239   1.475   0.340   1.481 -0.8735  0.7374  2.6719
  414SOL     OW 1240   0.299   1.240   0.405  0.3384  0.7997 -0.8115
  414SOL    HW1 1241   0.251   1.146   0.418  2.5769 -3.6445 -0.2291
  414SOL    HW2 1242   0.396   1.219   0.420 -0.6037  1.4011 -0.9278
  415SOL     OW 1243   2.788   1.662   0.187  0.0321  0.0198  0.1730
  415SOL    HW1 1244   2.887   1.650   0.197 -2.5076  0.7502  1.4295
  415SOL    HW2 1245   2.756   1.717   0.267  1.8219 -0.6635  0.7516
  416SOL     OW 1246   2.628   0.446   2.902 -0.3930  0.6934 -0.5901
  416SOL    HW1 1247   2.560   0.504   2.858 -0.5760  0.1490  1.1063
  416SOL    HW2 1248   2.695   0.498   2.960 -0.8816 -2.3241 -0.7576
  417SOL     OW 1249   2.499   2.937   0.401  0.0691 -0.2088 -0.1980
  417SOL    HW1 1250   2.550   2.845   0.403 -0.2877 -3.1534 -0.4202
  417SOL    HW2 1251   2.464   2.964   0.309  1.7571  1.2500 -2.1602
  418SOL     OW 1252   0.409   0.348   3.088  0.5563  0.2939  0.2937
  418SOL    HW1 1253   0.369   0.374   0.071 -1.1561  0.1736  2.3435
  418SOL    HW2 1254   0.358   0.401   3.015 -0.6765  0.0149 -0.1722
  419SOL     OW 1255   0.576   0.872   0.860 -0.0930 -0.2488  0.4991
  419SOL    HW1 1256   0.551   0.914   0.945 -2.7482 -0.6447 -2.4262
  419SOL    HW2 1257   0.595   0.773   0.872 -1.6890  1.6864 -0.4268
  420SOL     OW 1258   0.266   0.830   0.814  0.1179  0.2319  0.4996
  420SOL    HW1 1259   0.326   0.885   0.871 -0.1086  1.1680 -1.3852
  420SOL    HW2 1260   0.168   0.836   0.836  2.0454 -0.2798  0.2144
  421SOL     OW 1261   0.805   2.016   0.204 -0.2469 -0.4632  0.5523
  421SOL    HW1 1262   0.715   1.977   0.179  1.1309 -2.2330 -1.2555
  421SOL    HW2 1263   0.870   2.001   0.123  2.9094  0.8676  0.2867
  422SOL     OW 1264   2.413   0.338   2.101  0.2622  0.3728 -0.0546
  422SOL    HW1 1265   2.486   0.297   2.162 -1.6361 -0.9376  2.1928
  422SOL    HW2 1266   2.354   0.403   2.156 -0.7976 -1.6444  1.7431
  423SOL     OW 1267   2.089   1.835   0.083  0.7768  0.3098  0.0206
  423SOL    HW1 1268   2.163   1.764   0.084 -0.9279  2.1002  0.3520
  423SOL    HW2 1269   2.123   1.928   0.055 -0.1246 -1.4889 -0.8220
  424SOL     OW 1270   1.625   1.467   2.336  0.5916 -0.3383 -0.0297
  424SOL    HW1 1271   1.719   1.435   2.312 -3.7158  1.6536 -0.5249
  424SOL    HW2 1272   1.601   1.446   2.431 -0.9206 -0.6175  0.6784
  425SOL     OW 1273   0.028   2.613   2.310  0.5282 -0.2342  0.7012
  425SOL    HW1 1274   0.096   2.688   2.298  1.1255 -0.7072  1.5846
  425SOL    HW2 1275   0.060   2.518   2.308 -0.0507 -0.4719  0.6569
  426SOL     OW 1276   2.237   2.810   0.470 -0.4885  1.1243  0.5233
  426SOL    HW1 1277   2.145   2.828   0.427 -0.1595 -0.0366 -0.6592
  426SOL    HW2 1278   2.303   2.888   0.466  4.0288  2.3988  2.8482
  427SOL     OW 1279   0.636   1.064   2.434  0.4927  0.8345  0.3048
  427SOL    HW1 1280   0.639   1.161   2.402 -0.4018  1.2301 -1.2370
  427SOL    HW2 1281   0.611   1.057   2.536  1.3466  1.5654  1.9491
  428SOL     OW 1282   2.869   1.178   2.594  0.5824 -0.3230 -0.1718
  428SOL    HW1 1283   2.868   1.086   2.548  0.0866  1.1366 -0.4802
  428SOL    HW2 1284   2.863   1.170   2.701  0.3217 -1.2992  2.6734
  429SOL     OW 1285   2.465   0.286   0.502 -0.0696  0.5237 -0.1166
  429SOL    HW1 1286   2.562   0.254   0.515  0.3635  0.6340 -0.0776
  429SOL    HW2 1287   2.415   0.219   0.445 -1.7437  1.3651 -1.2764
  430SOL     OW 1288   1.611   1.967   2.202  0.2476  0.0360  0.1032
  430SOL    HW1 1289   1.543   2.004   2.137  3.8381  0.7343  1.0704
  430SOL    HW2 1290   1.642   2.045   2.265  2.8343  1.5107  0.2996
  431SOL     OW 1291   0.011   1.766   1.757 -0.4436 -0.1465 -0.2243
  431SOL    HW1 1292   0.032   1.673   1.727  0.0483  1.9634 -0.9686
  431SOL    HW2 1293   0.102   1.820   1.772  1.2246  0.5391 -0.2379
  432SOL     OW 1294   1.303   1.938   2.530  0.1483 -0.0005 -0.1745
  432SOL    HW1 1295   1.273   1.940   2.434  1.9822  2.4160  0.4846
  432SOL    HW2 1296   1.262   2.021   2.575  3.1858 -0.3286 -0.9963
  433SOL     OW 1297   1.027   2.509   0.568  0.0950 -0.4209 -0.2390
  433SOL    HW1 1298   1.015   2.539   0.469 -1.5935  0.8533  0.1294
  433SOL    HW2 1299   0.973   2.571   0.632 -1.5946  0.5647  1.2066
  434SOL     OW 1300   0.231   2.177   2.573 -0.0540 -0.7796 -0.3540
  434SOL    HW1 1301   0.185   2.264   2.600 -1.3748 -0.4599 -0.7219
  434SOL    HW2 1302   0.274   2.184   2.481 -1.2353  0.0346  1.5469
  435SOL     OW 1303   0.278   1.454   0.591  0.2754 -0.4856 -0.0090
  435SOL    HW1 1304   0.221   1.373   0.615 -0.3408 -1.6931 -1.4346
  435SOL    HW2 1305   0.335   1.428   0.509  1.2576 -1.5593  1.7370
  436SOL     OW 1306   0.319   2.390   1.727 -0.3388  0.3263 -0.3176
  436SOL    HW1 1307   0.226   2.384   1.692 -0.0825  1.7437 -0.2527
  436SOL    HW2 1308   0.346   2.304   1.766  0.8773  3.2651  1.2244
  437SOL     OW 1309   1.228   0.456   0.395  0.2967 -0.3195  0.3118
  437SOL    HW1 1310   1.206   0.396   0.314  0.0829  1.3130 -0.6438
  437SOL    HW2 1311   1.169   0.543   0.397 -1.5842 -0.7693  0.6217
  438SOL     OW 1312   0.534   2.247   0.950 -0.3725  0.5476  0.4574
  438SOL    HW1 1313   0.616   2.305   0.964 -0.7569  0.7879  2.2332
  438SOL    HW2 1314   0.460   2.297   0.994  1.9206  1.1943 -0.1158
  439SOL     OW 1315   0.680   2.661   1.781  0.2462  0.1770 -0.2656
  439SOL    HW1 1316   0.745   2.605   1.829 -0.7324 -0.5988  1.2604
  439SOL    HW2 1317   0.610   2.595   1.739  0.1111 -0.1959  1.2992
  440SOL     OW 1318   1.516   3.087   1.585 -0.2654 -0.6070  0.5926
  440SOL    HW1 1319   1.600   0.044   1.582  2.3515 -0.7449  1.6283
  440SOL    HW2 1320   1.543   2.994   1.566  1.0379  0.3326  0.6903
  441SOL     OW 1321   0.184   0.236   1.454  0.0845 -0.4659 -0.8676
  441SOL    HW1 1322   0.259   0.250   1.384  1.7152  1.1178 -2.2975
  441SOL    HW2 1323   0.212   0.273   1.545 -0.8975 -0.8385  1.4531
  442SOL     OW 1324   1.968   2.131   0.678 -0.3718 -0.1979  0.2818
  442SOL    HW1 1325   1.875   2.091   0.679  2.3052  0.8335 -0.8793
  442SOL    HW2 1326   2.005   2.144   0.582 -1.4921  1.1999 -2.9434
  443SOL     OW 1327   2.629   0.275   2.265 -0.2473  0.7124 -0.1720
  443SOL    HW1 1328   2.700   0.345   2.275  0.4390  0.2591  0.9054
  443SOL    HW2 1329   2.628   0.212   2.349 -0.5088 -1.4377  3.6491
  444SOL     OW 1330   2.201   0.939   1.808  0.0863  0.4297  0.1324
  444SOL    HW1 1331   2.160   1.021   1.860 -2.2153 -0.8940 -0.2064
  444SOL    HW2 1332   2.162   0.852   1.846 -0.2612  0.7219 -1.1508
  445SOL     OW 1333   2.731   2.202   1.546 -0.5967  1.1357 -0.6169
  445SOL    HW1 1334   2.646   2.162   1.514  3.4740  3.1353 -1.0722
  445SOL    HW2 1335   2.792   2.234   1.470 -4.5407  1.5786 -0.3033
  446SOL     OW 1336   2.800   1.547   0.665 -0.1266  0.1223 -0.6933
  446SOL    HW1 1337   2.730   1.474   0.662  1.0273  0.6945 -0.9897
  446SOL    HW2 1338   2.897   1.514   0.669 -3.1568 -0.7783  1.2875
  447SOL     OW 1339   0.920   1.399   0.516  0.6314 -0.3353 -0.2742
  447SOL    HW1 1340   0.932   1.415   0.618 -0.4672 -2.7140  1.1505
  447SOL    HW2 1341   0.994   1.440   0.465 -3.2823 -0.0303 -1.4635
  448SOL     OW 1342   1.372   1.186   1.534  0.0333 -0.1346  0.6181
  448SOL    HW1 1343   1.441   1.219   1.600 -1.2010 -3.4283  1.6683
  448SOL    HW2 1344   1.370   1.252   1.453  2.3713 -0.4695  3.2318
  449SOL     OW 1345   0.595   1.302   3.104  0.3097 -0.5347  0.5224
  449SOL    HW1 1346   0.524   1.375   0.014  4.2177 -0.5597 -0.4733
  449SOL    HW2 1347   0.624   1.305   3.003 -2.3382  1.4119 -0.9343
  450SOL     OW 1348   2.318   2.201   1.992 -0.6391 -0.1309  0.0185
  450SOL    HW1 1349   2.381   2.165   1.919 -0.1725 -2.3896  1.7249
  450SOL    HW2 1350   2.341   2.298   2.013 -0.2323 -1.4821 -1.0961
  451SOL     OW 1351   1.818   3.035   2.267  0.0357  0.0327  0.7441
  451SOL    HW1 1352   1.823   3.008   2.364  0.4630  0.6956 -0.1851
  451SOL    HW2 1353   1.862   0.017   2.246  0.6595  0.4199  0.1176
  452SOL     OW 1354   1.003   0.012   1.398 -0.4938  0.0123 -0.4627
  452SOL    HW1 1355   0.992   3.021   1.364 -2.0201  0.1043 -1.9558
  452SOL    HW2 1356   0.946   0.031   1.481 -1.9273 -0.3949  1.3584
  453SOL     OW 1357   1.346   0.991   0.900  0.1685 -0.1290  0.2047
  453SOL    HW1 1358   1.285   0.911   0.874  0.0664  0.4671  0.4030
  453SOL    HW2 1359   1.344   1.050   0.814 -1.0663  1.0349  0.8073
  454SOL     OW 1360   0.448   1.487   1.003  0.1648 -0.0230 -0.0098
  454SOL    HW1 1361   0.436   1.501   0.904  0.4943 -1.0678  0.2635
  454SOL    HW2 1362   0.546   1.495   1.021 -3.3977 -0.5876 -1.9543
  455SOL     OW 1363   2.769   3.070   0.030  0.1178 -0.0733  0.1395
  455SOL    HW1 1364   2.782   2.982   0.073 -1.8282 -2.4114  2.2847
  455SOL    HW2 1365   2.715   3.059   3.049  0.9557 -2.7433 -0.1558
  456SOL     OW 1366   2.604   2.385   1.282 -0.6357 -0.4570 -0.0950
  456SOL    HW1 1367   2.603   2.484   1.307  1.2948 -1.0364  1.0136
  456SOL    HW2 1368   2.600   2.376   1.180 -0.7684  0.5560 -2.2041
  457SOL     OW 1369   1.397   0.154   0.076 -0.5522 -0.1687 -0.1565
  457SOL    HW1 1370   1.378   0.253   0.062 -0.6847  1.6901 -1.4298
  457SOL    HW2 1371   1.335   0.105   0.134 -0.8937  0.0602 -2.0156
  458SOL     OW 1372   2.733   0.072   0.472 -0.0992  0.3917  0.4559
  458SOL    HW1 1373   2.752   0.163   0.514  0.6761 -1.1288 -2.0678
  458SOL    HW2 1374   2.670   0.016   0.523 -2.4367  2.1597  0.0488
  459SOL     OW 1375   2.150   0.430   2.441  0.1911 -0.0618 -0.2589
  459SOL    HW1 1376   2.223   0.406   2.504  0.1064  0.7308 -2.3462
  459SOL    HW2 1377   2.063   0.385   2.455  1.1198  1.2507 -2.1405
  460SOL     OW 1378   2.802   0.311   2.713  0.7346  0.4607 -0.1233
  460SOL    HW1 1379   2.746   0.365   2.778  0.1465  2.3590  1.5711
  460SOL    HW2 1380   2.744   0.257   2.651 -0.1392  1.4108  0.3480
  461SOL     OW 1381   0.905   1.778   1.207  0.1648  0.3520  0.7072
  461SOL    HW1 1382   0.949   1.695   1.244  0.8466  1.4930 -2.5469
  461SOL    HW2 1383   0.872   1.755   1.111  1.5034  2.5922  0.3348
  462SOL     OW 1384   2.547   2.835   1.521  0.0864  0.5080  0.2396
  462SOL    HW1 1385   2.615   2.861   1.591  0.1815  0.0410  0.6541
  462SOL    HW2 1386   2.472   2.779   1.569 -0.5799 -0.3708  2.6303
  463SOL     OW 1387   2.740   1.338   0.423 -0.3924 -0.2236 -0.0026
  463SOL    HW1 1388   2.743   1.314   0.325  0.2570 -0.5123  1.5819
  463SOL    HW2 1389   2.646   1.347   0.466 -1.5742 -1.0275  1.5892
  464SOL     OW 1390   0.203   2.569   1.256 -0.2311  0.3642 -0.1303
  464SOL    HW1 1391   0.144   2.550   1.175 -1.5552  1.0357 -0.6888
  464SOL    HW2 1392   0.150   2.572   1.345  3.2547  3.2005 -0.7652
  465SOL     OW 1393   0.172   1.698   0.482 -0.2692 -0.0999  0.0236
  465SOL    HW1 1394   0.113   1.685   0.403  2.7792 -1.0025  0.6801
  465SOL    HW2 1395   0.182   1.609   0.537  0.0504 -0.5648  1.6379
  466SOL     OW 1396   1.201   0.297   2.598  0.1053 -0.0860  0.5142
  466SOL    HW1 1397   1.205   0.263   2.695 -1.5011  0.2199  1.1777
  466SOL    HW2 1398   1.137   0.377   2.594 -2.2870  0.5943  2.0892
  467SOL     OW 1399   0.695   0.677   2.206  0.1658  0.2690 -0.0608
  467SOL    HW1 1400   0.691   0.601   2.137  1.7989  0.3218  0.8189
  467SOL    HW2 1401   0.777   0.672   2.265 -1.3063 -1.2750 -3.2603
  468SOL     OW 1402   0.701   0.950   2.177 -0.0527  0.3289  0.3282
  468SOL    HW1 1403   0.699   0.849   2.194 -0.1496  3.3839  3.1091
  468SOL    HW2 1404   0.690   0.992   2.267  1.2046 -1.1037 -1.0845
  469SOL     OW 1405   0.153   2.188   0.174  0.2956 -0.1623  0.3309
  469SOL    HW1 1406   0.108   2.117   0.229 -2.9207 -1.6079 -0.3388
  469SOL    HW2 1407   0.098   2.262   0.130 -2.3990  2.3102 -0.0994
  470SOL     OW 1408   2.480   2.035   2.935  0.3218 -0.2806  0.3559
  470SOL    HW1 1409   2.474   1.946   2.978 -0.2439  2.6238 -0.4554
  470SOL    HW2 1410   2.564   2.049   2.880  2.0040  0.4637 -0.5807
  471SOL     OW 1411   2.050   0.749   2.190 -0.7790  0.0579 -0.2969
  471SOL    HW1 1412   2.085   0.845   2.178 -1.7257  3.6819  0.5255
  471SOL    HW2 1413   2.019   0.705   2.103 -0.6731  0.4884 -0.5899
  472SOL     OW 1414   0.676   2.591   1.292 -0.0530 -0.2368  0.1057
  472SOL    HW1 1415   0.665   2.489   1.313  0.3112 -2.9399 -0.5507
  472SOL    HW2 1416   0.591   2.640   1.260  1.8576  0.5039 -0.8963
  473SOL     OW 1417   0.608   2.996   2.575  0.1693 -0.3114 -0.1170
  473SOL    HW1 1418   0.598   2.978   2.676 -1.5351  0.1883  1.3229
  473SOL    HW2 1419   0.664   3.076   2.549 -3.1773 -0.1757 -0.9141
  474SOL     OW 1420   1.834   0.052   1.846  0.2148  0.0257  0.4901
  474SOL    HW1 1421   1.787   0.097   1.766 -1.2719 -0.3794 -0.6689
  474SOL    HW2 1422   1.767   3.089   1.893 -0.6681 -1.4478  2.7744
  475SOL     OW 1423   1.728   2.986   0.936 -0.1658 -0.7589  0.0169
  475SOL    HW1 1424   1.715   3.062   0.866  0.5508 -1.6926 -3.0442
  475SOL    HW2 1425   1.823   2.983   0.968  0.4339  0.4865 -2.3538
  476SOL     OW 1426   0.352   0.579   0.753 -0.0763 -0.3785  0.1268
  476SOL    HW1 1427   0.320   0.676   0.775  2.8180  0.3955 -1.3085
  476SOL    HW2 1428   0.433   0.558   0.810  1.1577 -0.9631 -0.2418
  477SOL     OW 1429   1.332   2.455   0.605 -0.3623 -0.7330 -0.2804
  477SOL    HW1 1430   1.341   2.380   0.537 -0.7981  1.4922 -0.6073
  477SOL    HW2 1431   1.238   2.483   0.605  2.4232  0.6273 -0.7595
  478SOL     OW 1432   0.155   2.471   2.656 -0.7666  0.5352  0.1693
  478SOL    HW1 1433   0.228   2.540   2.661 -1.6389  2.7337  0.6384
  478SOL    HW2 1434   0.073   2.517   2.624  0.4564  1.3520  0.4273
  479SOL     OW 1435   2.664   0.310   1.160 -0.3414  0.3700  0.1657
  479SOL    HW1 1436   2.761   0.325   1.185  0.3217  0.9150  1.2944
  479SOL    HW2 1437   2.653   0.211   1.142 -2.4371  0.8322  2.2642
  480SOL     OW 1438   0.200   2.844   0.344 -0.2560 -0.0868  0.1353
  480SOL    HW1 1439   0.145   2.924   0.378  1.8713  0.5249 -1.5039
  480SOL    HW2 1440   0.162   2.755   0.383 -0.9974 -1.0958  0.4262
  481SOL     OW 1441   2.349   2.061   1.612  0.1727  0.4580  0.2617
  481SOL    HW1 1442   2.361   1.964   1.577  1.6046  1.6049 -2.4181
  481SOL    HW2 1443   2.378   2.129   1.543  2.5629 -1.4876 -0.1773
  482SOL     OW 1444   1.054   2.492   2.834 -0.0743  0.2971 -0.1069
  482SOL    HW1 1445   1.132   2.436   2.812 -0.1336  1.5042 -0.8500
  482SOL    HW2 1446   0.975   2.458   2.777  0.4247  1.0046 -3.6195
  483SOL     OW 1447   0.414   2.526   2.382 -0.0324  0.7744 -0.7865
  483SOL    HW1 1448   0.379   2.623   2.386  0.9644  0.6942  2.4502
  483SOL    HW2 1449   0.440   2.500   2.286 -1.4129 -0.9849 -3.1410
  484SOL     OW 1450   1.375   0.433   1.548 -0.3085  0.0201  0.0457
  484SOL    HW1 1451   1.308   0.422   1.622  2.9206 -1.7653 -1.0012
  484SOL    HW2 1452   1.339   0.511   1.495 -3.0291  1.0957  5.4993
  485SOL     OW 1453   2.173   1.028   2.485  0.0975 -0.0299 -0.5046
  485SOL    HW1 1454   2.105   0.967   2.534  0.1997  1.7206 -1.4212
  485SOL    HW2 1455   2.187   1.113   2.540 -0.9393 -1.0014  0.8070
  486SOL     OW 1456   2.328   2.924   1.157 -0.3998 -0.5374  0.0540
  486SOL    HW1 1457   2.339   2.846   1.090 -4.5160 -0.0176  1.0933
  486SOL    HW2 1458   2.332   3.005   1.100 -1.8075 -1.8245  2.5135
  487SOL     OW 1459   0.817   2.172   1.646  0.1627  0.1509  0.3722
  487SOL    HW1 1460   0.746   2.110   1.602 -1.7291  0.4356 -1.6052
  487SOL    HW2 1461   0.890   2.203   1.582 -0.2373  0.2028  0.1108
  488SOL     OW 1462   2.635   1.454   2.744  0.3144 -0.0923  0.4465
  488SOL    HW1 1463   2.679   1.443   2.655 -1.9599  0.5061  2.2187
  488SOL    HW2 1464   2.581   1.371   2.773  0.5802 -2.1610  2.1917
  489SOL     OW 1465   1.959   3.045   0.734  0.0017 -0.2012 -0.2175
  489SOL    HW1 1466   1.874   3.082   0.683 -1.9763 -0.1678 -0.8549
  489SOL    HW2 1467   2.043   3.055   0.680  0.9753  1.2837  0.7194
  490SOL     OW 1468   0.893   1.165   0.381 -0.6532 -0.2504  0.1901
  490SOL    HW1 1469   0.892   1.247   0.441 -2.1689 -1.8742  3.1419
  490SOL    HW2 1470   0.806   1.163   0.325  3.0347  1.8190  0.4466
  491SOL     OW 1471   0.340   2.376   1.363  0.5019 -0.1915 -0.2390
  491SOL    HW1 1472   0.316   2.472   1.354  3.1208 -4.5252  1.6479
  491SOL    HW2 1473   0.264   2.331   1.414  1.4175 -2.1276 -0.7695
  492SOL     OW 1474   1.336   1.727   2.079 -0.5568 -0.3305 -0.1540
  492SOL    HW1 1475   1.436   1.697   2.082  3.6498 -0.8720 -0.4719
  492SOL    HW2 1476   1.299   1.733   1.988 -0.4115  1.5251  0.8735
  493SOL     OW 1477   2.763   2.530   0.843  0.5184 -0.1611  0.6264
  493SOL    HW1 1478   2.841   2.533   0.775 -0.4711 -1.0994 -0.5100
  493SOL    HW2 1479   2.781   2.607   0.912  0.5416  0.0477 -3.1109
  494SOL     OW 1480   3.013   2.260   0.564  0.1469 -0.0036 -0.4420
  494SOL    HW1 1481   3.101   2.299   0.595  2.5105  1.0010 -2.1559
  494SOL    HW2 1482   2.995   2.165   0.607  3.0913 -1.6883  4.9683
  495SOL     OW 1483   2.844   2.830   0.147 -0.0354  0.0920  0.1888
  495SOL    HW1 1484   2.879   2.852   0.245  0.0475  1.5739  3.5153
  495SOL    HW2 1485   2.911   2.771   0.091  0.4102  1.3688  0.2385
  496SOL     OW 1486   2.546   0.449   1.366 -0.4603 -0.5157  0.1983
  496SOL    HW1 1487   2.446   0.442   1.345  1.2493  0.1622  0.1544
  496SOL    HW2 1488   2.599   0.393   1.300  0.8425  1.5291 -2.0800
  497SOL     OW 1489   2.934   1.343   3.054  0.0715  0.6388  1.0457
  497SOL    HW1 1490   3.035   1.330   3.059  0.3135  0.9085 -1.5047
  497SOL    HW2 1491   2.921   1.428   3.000  0.1376 -0.7385  2.2489
  498SOL     OW 1492   2.943   1.635   1.929 -0.5258 -0.2432 -0.2370
  498SOL    HW1 1493   2.995   1.565   1.976 -0.6121 -3.1255 -3.0124
  498SOL    HW2 1494   2.975   1.659   1.832  1.6395 -1.5277  1.0185
  499SOL     OW 1495   0.871   2.374   2.660  0.1410  0.3199  0.8577
  499SOL    HW1 1496   0.781   2.423   2.655 -2.9138 -0.6820 -1.9021
  499SOL    HW2 1497   0.861   2.271   2.663 -0.7427 -0.5053  0.4662
  500SOL     OW 1498   1.809   0.502   3.060 -0.3630 -0.2529 -0.3514
  500SOL    HW1 1499   1.912   0.504   3.048 -1.5048 -2.3573 -2.2310
  500SOL    HW2 1500   1.768   0.429   3.003  3.6334  0.0283 -0.7576
  501SOL     OW 1501   1.070   0.288   1.602 -0.0109  0.1379 -0.0682
  501SOL    HW1 1502   1.105   0.343   1.682 -2.0268  3.0539  2.9581
  501SOL    HW2 1503   1.138   0.215   1.584  1.8818  2.1315 -0.4197
  502SOL     OW 1504   2.648   0.911   1.704 -0.2480  0.3348 -0.3109
  502SOL    HW1 1505   2.739   0.915   1.656  0.1380 -1.2009 -2.4692
  502SOL    HW2 1506   2.577   0.880   1.638  1.3397  0.6894  2.6469
  503SOL     OW 1507   2.444   1.986   2.140 -0.4118 -0.4863  0.0761
  503SOL    HW1 1508   2.539   2.015   2.124  2.2306 -1.4885  1.7297
  503SOL    HW2 1509   2.384   2.036   2.074 -1.0227  3.0898 -1.0630
  504SOL     OW 1510   1.484   0.909   1.498  0.0986 -0.1715 -0.2528
  504SOL    HW1 1511   1.443   1.001   1.482  1.3934  0.7509  2.2253
  504SOL    HW2 1512   1.419   0.835   1.479 -1.9897  1.8609  1.0773
  505SOL     OW 1513   0.819   0.659   1.546 -0.5634 -0.2688 -0.0711
  505SOL    HW1 1514   0.906   0.697   1.587 -0.0460  0.1761  0.9042
  505SOL    HW2 1515   0.840   0.565   1.523  0.1722  3.0196  1.7899
  506SOL     OW 1516   0.259   0.186   2.717  0.0854 -0.1417  0.2222
  506SOL    HW1 1517   0.327   0.200   2.795  2.0065  0.4921 -1.3150
  506SOL    HW2 1518   0.288   0.109   2.659 -2.2560  1.5841 -0.3528
  507SOL     OW 1519   0.137   0.133   0.145  0.2171 -0.4225  0.2919
  507SOL    HW1 1520   0.088   0.217   0.170  2.0803 -1.1409  0.4995
  507SOL    HW2 1521   0.156   0.126   0.043 -0.5357  0.3589 -1.8725
  508SOL     OW 1522   1.067   0.785   1.604 -0.4997  0.0800 -0.4933
  508SOL    HW1 1523   1.085   0.879   1.569  1.3884 -0.3645  0.4320
  508SOL    HW2 1524   1.137   0.772   1.681  0.5896  1.4956  2.2296
  509SOL     OW 1525   1.534   2.106   1.051  0.3997  0.0425  0.2270
  509SOL    HW1 1526   1.536   2.027   1.116 -2.2788  2.0591 -0.0468
  509SOL    HW2 1527   1.488   2.072   0.969 -1.5061 -1.8709  2.5549
  510SOL     OW 1528   2.276   1.371   2.087 -0.4604 -0.6767  0.1336
  510SOL    HW1 1529   2.316   1.453   2.040  1.4847  1.5115  1.1365
  510SOL    HW2 1530   2.285   1.381   2.189  1.8973 -0.3155  0.5518
  511SOL     OW 1531   1.021   2.238   1.478 -0.2139  0.1855  0.3488
  511SOL    HW1 1532   1.027   2.329   1.437  1.3204 -1.4694 -1.0545
  511SOL    HW2 1533   1.112   2.196   1.501  1.7918 -1.4657  0.8337
  512SOL     OW 1534   2.789   1.720   0.912 -0.1120  0.0962 -0.1496
  512SOL    HW1 1535   2.765   1.662   0.831  1.1857 -0.2229 -1.2933
  512SOL    HW2 1536   2.852   1.792   0.883  0.4474  0.0786  1.3623
  513SOL     OW 1537   0.172   1.446   2.724 -0.1658  0.1710  0.0865
  513SOL    HW1 1538   0.208   1.506   2.649  1.9147  1.0981  1.4136
  513SOL    HW2 1539   0.249   1.396   2.765 -0.9796  0.2117  0.4084
  514SOL     OW 1540   2.795   2.460   2.373  0.2427 -0.7576  0.2954
  514SOL    HW1 1541   2.881   2.432   2.417  1.0622 -0.6475 -0.7139
  514SOL    HW2 1542   2.809   2.500   2.279 -0.8374  0.4464  1.0420
  515SOL     OW 1543   2.277   1.237   0.736  0.5457  0.6300 -0.2458
  515SOL    HW1 1544   2.214   1.155   0.724  0.0697  1.8840 -2.8968
  515SOL    HW2 1545   2.231   1.310   0.788  0.8993 -2.8976 -1.9765
  516SOL     OW 1546   2.424   1.865   0.225  0.1532 -0.1276 -0.5029
  516SOL    HW1 1547   2.430   1.810   0.310  0.2408 -3.0426 -5.3354
  516SOL    HW2 1548   2.390   1.801   0.156 -5.3079 -2.0746 -0.4579
  517SOL     OW 1549   0.701   1.064   2.718 -0.5341  0.4588 -0.0684
  517SOL    HW1 1550   0.784   1.118   2.742 -1.7078 -0.3989 -1.6048
  517SOL    HW2 1551   0.733   0.973   2.677  1.4407  1.7371 -0.2369
  518SOL     OW 1552   2.801   2.961   2.262  0.4059  0.3843  0.1492
  518SOL    HW1 1553   2.772   3.005   2.175  0.5922 -1.3395  0.8387
  518SOL    HW2 1554   2.739   2.882   2.295 -0.0735 -0.4338 -0.7960
  519SOL     OW 1555   1.207   1.574   2.824 -0.4306 -0.2027  0.3219
  519SOL    HW1 1556   1.292   1.558   2.876  2.1016 -0.6997 -1.6868
  519SOL    HW2 1557   1.209   1.669   2.780  0.4120 -3.1660 -2.0532
  520SOL     OW 1558   2.598   2.768   2.322 -0.4086  0.1870 -0.5545
  520SOL    HW1 1559   2.564   2.785   2.229  1.3100  1.4602  1.3765
  520SOL    HW2 1560   2.621   2.668   2.342  0.5072 -0.8759 -1.1713
  521SOL     OW 1561   0.671   1.488   2.042  0.2517 -0.3808 -0.1295
  521SOL    HW1 1562   0.677   1.514   2.142  1.7553 -1.3362  0.1614
  521SOL    HW2 1563   0.586   1.427   2.029 -1.0279 -1.5055  2.4311
  522SOL     OW 1564   0.978   2.683   2.061  0.3571 -0.1366  0.2797
  522SOL    HW1 1565   0.880   2.714   2.061 -0.0710 -1.1185  0.1084
  522SOL    HW2 1566   1.032   2.759   2.014 -0.7168 -1.2788 -1.0718
  523SOL     OW 1567   2.800   2.405   1.687 -0.4752  0.0035 -0.6651
  523SOL    HW1 1568   2.862   2.389   1.768 -0.7346 -1.8552  1.5427
  523SOL    HW2 1569   2.773   2.322   1.630  0.5943 -2.0963 -0.2647
  524SOL     OW 1570   1.569   2.584   0.640  0.1058  0.2764 -0.2787
  524SOL    HW1 1571   1.479   2.533   0.624 -0.9314 -1.4183  1.6648
  524SOL    HW2 1572   1.629   2.521   0.693  1.9449 -1.1641  0.3384
  525SOL     OW 1573   2.732   0.936   0.984  0.2865 -0.4469  0.0081
  525SOL    HW1 1574   2.794   0.979   0.915 -1.2331 -0.1590  0.7100
  525SOL    HW2 1575   2.649   0.990   1.007 -1.6552  2.3851 -0.7998
  526SOL     OW 1576   1.303   2.429   0.921 -0.9708 -0.7163  0.7310
  526SOL    HW1 1577   1.401   2.419   0.952 -1.3266  1.6712  0.9710
  526SOL    HW2 1578   1.299   2.414   0.817  1.4762 -0.4753 -1.0173
  527SOL     OW 1579   2.355   2.196   0.990  0.0774  0.4406  0.2608
  527SOL    HW1 1580   2.300   2.234   1.065 -0.1861 -1.6866 -2.6386
  527SOL    HW2 1581   2.454   2.219   1.004 -1.9616 -1.2227 -0.1060
  528SOL     OW 1582   2.164   0.087   2.866  0.4894  0.1050  0.0581
  528SOL    HW1 1583   2.185   0.173   2.811  2.5959 -1.0387  1.9602
  528SOL    HW2 1584   2.100   0.026   2.819  0.4601  0.1845 -1.7778
  529SOL     OW 1585   1.455   1.433   2.140 -0.2587 -0.0601 -0.3649
  529SOL    HW1 1586   1.503   1.462   2.229  1.9814 -0.0153  1.1951
  529SOL    HW2 1587   1.502   1.484   2.064  2.1468  0.3945 -3.4928
  530SOL     OW 1588   2.473   1.278   2.519 -0.1481  0.0216 -0.1825
  530SOL    HW1 1589   2.525   1.191   2.515 -0.1406  2.7831 -0.0680
  530SOL    HW2 1590   2.544   1.353   2.515 -0.3148  2.1006  0.6543
  531SOL     OW 1591   0.628   0.640   3.003  0.3547 -0.2381  0.1551
  531SOL    HW1 1592   0.728   0.642   2.985  2.0504 -1.3957  3.9061
  531SOL    HW2 1593   0.613   0.611   3.098  0.5370 -2.0601  1.3586
  532SOL     OW 1594   1.533   1.516   0.622  0.4906  0.3612 -0.2015
  532SOL    HW1 1595   1.628   1.539   0.650  1.1761 -1.9569 -1.1160
  532SOL    HW2 1596   1.464   1.578   0.664  0.4147 -1.3615 -1.6782
  533SOL     OW 1597   0.223   0.734   1.994 -0.0093  0.3640 -0.6482
  533SOL    HW1 1598   0.268   0.721   1.906  1.2358  5.4466  0.4563
  533SOL    HW2 1599   0.296   0.741   2.070  3.6068 -0.8769  0.2589
  534SOL     OW 1600   1.321   0.689   2.456  0.2443 -0.1682 -0.3726
  534SOL    HW1 1601   1.413   0.709   2.417 -1.3083 -1.7576 -0.0320
  534SOL    HW2 1602   1.273   0.772   2.492 -0.0456  1.5177  0.0174
  535SOL     OW 1603   0.584   0.546   0.163 -0.1355  0.3721  0.2502
  535SOL    HW1 1604   0.516   0.468   0.178 -1.5201  1.0171  0.5811
  535SOL    HW2 1605   0.569   0.609   0.237 -3.1115 -3.9637  0.3185
  536SOL     OW 1606   0.870   0.332   3.025  0.5607 -0.3143 -0.0531
  536SOL    HW1 1607   0.876   0.433   3.000  0.9341  1.6105  1.1345
  536SOL    HW2 1608   0.830   0.328   0.020 -2.5058 -0.4520  4.6144
  537SOL     OW 1609   1.275   0.090   1.531  0.2868 -0.3715 -0.0338
  537SOL    HW1 1610   1.275   0.094   1.431 -0.9527 -1.4411 -2.1976
  537SOL    HW2 1611   1.368   0.055   1.565  3.2018 -0.4206  2.2029
  538SOL     OW 1612   0.183   2.873   0.075 -0.4907  0.4212 -0.0459
  538SOL    HW1 1613   0.205   2.972   0.069  1.1080 -0.6931  0.7208
  538SOL    HW2 1614   0.200   2.838   0.170  0.6584  0.8924  1.4469
  539SOL     OW 1615   2.506   1.228   1.982  0.4020 -0.1837 -0.0254
  539SOL    HW1 1616   2.460   1.152   1.931 -0.6350 -2.3015 -1.4654
  539SOL    HW2 1617   2.436   1.296   2.020 -0.5275 -0.3691  0.0601
  540SOL     OW 1618   2.115   2.071   1.786 -0.3635  0.0641  0.2729
  540SOL    HW1 1619   2.192   2.074   1.717  1.0618 -1.4653 -1.7533
  540SOL    HW2 1620   2.148   2.041   1.878  0.0368 -0.4233  0.3595
  541SOL     OW 1621   0.541   2.487   1.623  0.0710  0.5024  0.2187
  541SOL    HW1 1622   0.599   2.419   1.571 -0.6453  0.8873 -1.8199
  541SOL    HW2 1623   0.451   2.447   1.644  0.6465  1.8128 -0.6137
  542SOL     OW 1624   2.561   0.711   2.034 -0.0327  0.0047  0.4466
  542SOL    HW1 1625   2.534   0.799   1.993 -4.9022 -2.1686  1.3865
  542SOL    HW2 1626   2.543   0.628   1.975 -1.1243 -0.1361  2.6517
  543SOL     OW 1627   0.847   0.618   0.946 -0.9349  0.1761  0.3620
  543SOL    HW1 1628   0.898   0.697   0.903  4.8022  1.8475 -1.5725
  543SOL    HW2 1629   0.855   0.615   1.049 -1.6245  0.5625 -0.7638
  544SOL     OW 1630   2.134   2.122   1.385 -0.0528  0.1797  0.2022
  544SOL    HW1 1631   2.168   2.109   1.483 -0.6234  0.0867 -1.2243
  544SOL    HW2 1632   2.153   2.039   1.333  0.9240  0.7231 -0.8626
  545SOL     OW 1633   1.383   1.325   1.290 -0.0322 -0.5502  0.3059
  545SOL    HW1 1634   1.436   1.245   1.257  0.1147 -0.3573 -3.5179
  545SOL    HW2 1635   1.444   1.407   1.292  0.1915 -0.4017 -2.1132
  546SOL     OW 1636   2.920   0.081   2.711 -0.9433  0.3490 -1.1094
  546SOL    HW1 1637   2.858   0.159   2.690  0.9868  0.3126 -2.6076
  546SOL    HW2 1638   2.929   0.075   2.815 -0.1837  0.6285  1.4356
  547SOL     OW 1639   2.355   0.397   2.631 -0.4323 -0.1192 -0.1163
  547SOL    HW1 1640   2.285   0.394   2.708 -0.7175 -0.1921  1.4236
  547SOL    HW2 1641   2.418   0.477   2.636 -1.4865  0.7106 -1.8286
  548SOL     OW 1642   2.765   2.032   2.531 -0.4481  0.1617  0.1683
  548SOL    HW1 1643   2.704   1.956   2.566  1.1133 -1.9410 -0.6172
  548SOL    HW2 1644   2.855   2.042   2.587  1.5795  0.1638  2.5831
  549SOL     OW 1645   2.431   0.422   0.751 -0.1756  0.0050 -0.2842
  549SOL    HW1 1646   2.494   0.502   0.747 -0.9878  1.1085  1.1189
  549SOL    HW2 1647   2.435   0.365   0.665 -0.4196  0.8698 -0.1241
  550SOL     OW 1648   2.749   1.259   0.156 -0.3327 -0.6848  0.0099
  550SOL    HW1 1649   2.795   1.289   0.070  1.4647  1.0648 -1.1333
  550SOL    HW2 1650   2.659   1.228   0.136  3.0053 -1.2145 -0.3911
  551SOL     OW 1651   1.336   2.457   1.471  0.3368  0.0849  0.0051
  551SOL    HW1 1652   1.359   2.500   1.382 -2.2235  1.5975 -1.4749
  551SOL    HW2 1653   1.414   2.402   1.509  1.1784 -0.3278 -1.6253
  552SOL     OW 1654   2.692   2.394   2.870  0.3073 -0.2566 -0.0518
  552SOL    HW1 1655   2.703   2.458   2.787 -0.9939 -0.9066 -2.4142
  552SOL    HW2 1656   2.609   2.418   2.926 -1.6183 -0.2202  1.0642
  553SOL     OW 1657   0.671   3.074   0.659  0.1300  0.0236 -0.2813
  553SOL    HW1 1658   0.646   0.048   0.718  3.1992  3.2990  0.0086
  553SOL    HW2 1659   0.732   0.001   0.582 -0.7494 -0.7070  0.7664
  554SOL     OW 1660   1.805   2.032   1.947  0.2901  0.7002  0.5097
  554SOL    HW1 1661   1.838   2.129   1.968  1.2766  1.0577  1.2637
  554SOL    HW2 1662   1.777   1.991   2.037 -0.5317  3.7884  0.1140
  555SOL     OW 1663   1.307   2.500   2.077  0.7842 -0.0747 -0.1539
  555SOL    HW1 1664   1.220   2.445   2.076  1.5565 -2.7545 -1.9301
  555SOL    HW2 1665   1.295   2.600   2.093 -0.0783  2.5249  1.1097
  556SOL     OW 1666   1.789   1.592   0.629  0.2603  0.6111 -0.0321
  556SOL    HW1 1667   1.774   1.601   0.728 -0.1769 -0.3815 -0.1164
  556SOL    HW2 1668   1.881   1.564   0.599  2.7659  0.7925 -1.9582
  557SOL     OW 1669   1.408   2.084   2.048 -0.2047  0.0147 -0.6081
  557SOL    HW1 1670   1.346   2.084   1.969 -0.4610  2.5142  2.8988
  557SOL    HW2 1671   1.440   2.177   2.066 -3.4594  0.3880 -0.4763
  558SOL     OW 1672   0.044   0.966   2.404 -0.4426  0.3746 -0.2636
  558SOL    HW1 1673   0.125   0.940   2.461 -0.6823 -1.2297  1.2297
  558SOL    HW2 1674   0.059   1.053   2.356  1.9378  2.8064  0.9049
  559SOL     OW 1675   2.089   2.565   2.116  0.2767 -0.3721  0.1947
  559SOL    HW1 1676   2.047   2.534   2.028 -0.3918 -1.2406 -1.0000
  559SOL    HW2 1677   2.024   2.572   2.193  0.8134 -1.5997 -0.7248
  560SOL     OW 1678   0.239   0.008   3.019  0.7395  0.4629 -0.7450
  560SOL    HW1 1679   0.312   0.064   2.977 -0.0842 -1.2575 -0.4063
  560SOL    HW2 1680   0.178   3.074   2.943 -0.8416 -1.1567 -3.0747
  561SOL     OW 1681   1.913   0.751   0.485  0.3725  0.5592 -0.0160
  561SOL    HW1 1682   1.906   0.712   0.388  2.5628 -2.6857 -1.4159
  561SOL    HW2 1683   1.901   0.675   0.550 -2.1907  0.6339  0.6403
  562SOL     OW 1684   0.883   1.110   2.050 -0.1727 -0.2957  0.0950
  562SOL    HW1 1685   0.833   1.047   2.107  0.4378  0.9992  0.8254
  562SOL    HW2 1686   0.925   1.185   2.108 -0.8795  0.7621 -0.1404
  563SOL     OW 1687   1.660   2.291   0.146  0.3994 -0.1605 -0.8208
  563SOL    HW1 1688   1.641   2.232   0.225  2.0811  0.0584 -1.7249
  563SOL    HW2 1689   1.576   2.333   0.110  0.3662  0.6764  0.0802
  564SOL     OW 1690   0.343   1.958   0.799  0.4042  0.1238  0.0516
  564SOL    HW1 1691   0.375   2.018   0.728 -4.2152 -0.8313  1.2020
  564SOL    HW2 1692   0.421   1.911   0.846 -0.5605 -0.2000  1.9759
  565SOL     OW 1693   0.846   2.854   0.011  0.2376 -0.9301  0.2423
  565SOL    HW1 1694   0.782   2.799   3.061  1.5241  0.3487  0.2102
  565SOL    HW2 1695   0.841   2.953   3.102  0.2033 -2.3399  1.3339
  566SOL     OW 1696   2.013   2.486   2.806  0.3761  0.1495  0.8905
  566SOL    HW1 1697   2.041   2.396   2.772 -0.8531  5.0254  3.9321
  566SOL    HW2 1698   1.926   2.472   2.862 -0.7564  0.9749 -1.7598
  567SOL     OW 1699   2.523   1.767   0.961  0.0232 -0.1845  0.6112
  567SOL    HW1 1700   2.626   1.774   0.961 -0.6194  0.9748  2.0538
  567SOL    HW2 1701   2.501   1.714   1.047 -0.1572  0.5432  2.7978
  568SOL     OW 1702   1.964   0.879   2.584 -0.0164 -0.1959  0.8059
  568SOL    HW1 1703   1.965   0.785   2.543 -0.7270 -0.1946 -1.8257
  568SOL    HW2 1704   1.876   0.923   2.553  0.8097  2.7156  0.1624
  569SOL     OW 1705   2.082   1.584   2.302 -0.1552  0.2810  0.6372
  569SOL    HW1 1706   2.095   1.637   2.218  0.1573  2.2841  0.9643
  569SOL    HW2 1707   2.167   1.530   2.320  0.0497  0.3207 -1.1089
  570SOL     OW 1708   2.930   2.593   2.113 -0.7445 -0.2463  0.5834
  570SOL    HW1 1709   3.006   2.617   2.176  1.9074  2.1669 -2.2198
  570SOL    HW2 1710   2.880   2.679   2.083 -1.7304  0.5044 -0.6431
  571SOL     OW 1711   0.247   3.090   1.692  0.0401 -0.3249 -0.4110
  571SOL    HW1 1712   0.177   0.061   1.712 -2.5570 -0.3328  0.0223
  571SOL    HW2 1713   0.269   3.088   1.593  1.6232 -0.9802 -0.2596
  572SOL     OW 1714   0.806   2.000   0.955  0.4673 -0.3824 -0.0869
  572SOL    HW1 1715   0.724   2.007   1.015 -1.7502  1.0281 -1.7421
  572SOL    HW2 1716   0.782   2.044   0.867  0.8103  0.5552 -0.6964
  573SOL     OW 1717   1.074   0.663   0.016 -0.6016  0.1351  0.2281
  573SOL    HW1 1718   1.028   0.706   0.093  0.1476 -0.7592 -1.2253
  573SOL    HW2 1719   1.177   0.683   0.021  3.8321 -1.1972 -0.6476
  574SOL     OW 1720   0.317   0.164   0.342  0.1926  0.3502  0.1727
  574SOL    HW1 1721   0.376   0.091   0.379  0.6784  0.6162 -2.6422
  574SOL    HW2 1722   0.264   0.128   0.259  0.5158 -1.2127 -1.9773
  575SOL     OW 1723   0.707   1.853   1.438  0.1680  0.4079 -0.1129
  575SOL    HW1 1724   0.790   1.910   1.424  2.6058  0.6482  1.2110
  575SOL    HW2 1725   0.726   1.760   1.470 -1.1851 -2.0995 -0.2594
  576SOL     OW 1726   2.499   0.057   2.046  0.7982  0.0558 -0.1026
  576SOL    HW1 1727   2.454   0.135   2.097  0.5947  1.2259  1.2155
  576SOL    HW2 1728   2.600   0.062   2.063 -0.6646 -0.6070 -0.3976
  577SOL     OW 1729   2.695   1.574   2.019  0.0498 -0.6205 -0.3358
  577SOL    HW1 1730   2.661   1.633   2.099 -0.1593 -1.7276  1.5897
  577SOL    HW2 1731   2.793   1.604   2.007 -1.2794 -0.2759  0.9699
  578SOL     OW 1732   0.886   3.044   2.079 -0.5196 -0.1805  0.3590
  578SOL    HW1 1733   0.971   3.078   2.129 -0.3658  2.2834  2.4229
  578SOL    HW2 1734   0.813   3.027   2.154  0.9445 -1.0191  0.2712
  579SOL     OW 1735   2.152   1.945   2.040 -0.2753  0.4183  0.0296
  579SOL    HW1 1736   2.078   1.877   2.051 -2.4555  3.2704  0.2795
  579SOL    HW2 1737   2.144   2.023   2.100 -1.2514 -2.4874 -3.2422
  580SOL     OW 1738   1.661   1.134   1.900  0.2714 -0.4214 -0.1384
  580SOL    HW1 1739   1.675   1.100   1.807 -1.0722  1.7414  1.2050
  580SOL    HW2 1740   1.700   1.070   1.963 -0.9599  3.0641  0.9054
  581SOL     OW 1741   1.328   1.164   2.489  0.0775 -0.1112 -0.3672
  581SOL    HW1 1742   1.295   1.238   2.427  0.2076  1.4361 -0.3833
  581SOL    HW2 1743   1.394   1.106   2.437  1.3046  0.1592 -3.3418
  582SOL     OW 1744   0.099   2.190   1.933 -0.0890  0.6195 -0.1047
  582SOL    HW1 1745   0.167   2.132   1.976 -1.4856  0.2230  2.5657
  582SOL    HW2 1746   0.100   2.284   1.962 -1.1206 -0.1256  0.5017
  583SOL     OW 1747   1.789   1.000   0.813  0.1235 -0.4802 -0.1049
  583SOL    HW1 1748   1.859   0.947   0.863  3.2310  0.3963  2.6172
  583SOL    HW2 1749   1.825   1.085   0.775  0.7868 -0.4237 -0.2257
  584SOL     OW 1750   0.998   2.571   0.323  0.8217  0.0571  0.1711
  584SOL    HW1 1751   0.927   2.518   0.277  1.5575  3.9405 -0.0393
  584SOL    HW2 1752   1.073   2.595   0.260 -1.9120  0.9756  1.0019
  585SOL     OW 1753   0.171   2.524   0.146 -0.6872  0.1951 -0.2331
  585SOL    HW1 1754   0.081   2.481   0.149 -2.7608  0.3158  1.0708
  585SOL    HW2 1755   0.176   2.593   0.069 -0.0156 -0.2267  1.2037
  586SOL     OW 1756   2.287   1.288   0.419 -0.5034 -0.2281 -0.2273
  586SOL    HW1 1757   2.348   1.261   0.496  1.1287  0.5767  2.1629
  586SOL    HW2 1758   2.305   1.381   0.377 -0.3101  1.9305 -1.4940
  587SOL     OW 1759   2.986   1.988   0.557 -0.3642 -0.0698 -0.1641
  587SOL    HW1 1760   3.081   1.984   0.588 -3.5572  2.1443  1.2182
  587SOL    HW2 1761   2.921   1.993   0.630  2.6130  0.3730 -3.6152
  588SOL     OW 1762   3.031   0.711   0.717 -0.1354 -0.2136 -0.4242
  588SOL    HW1 1763   3.057   0.779   0.790 -0.4296  0.7221  0.7184
  588SOL    HW2 1764   3.077   0.625   0.734  1.1229 -0.4701 -2.8505
  589SOL     OW 1765   1.528   0.136   0.901 -0.5982 -0.5965 -0.2187
  589SOL    HW1 1766   1.430   0.145   0.881 -2.5780 -0.7501  0.7064
  589SOL    HW2 1767   1.578   0.200   0.838  0.0099  3.6248 -0.3821
  590SOL     OW 1768   2.418   2.374   0.323 -0.0782 -0.4319 -0.3208
  590SOL    HW1 1769   2.375   2.324   0.401  0.6639 -1.2903 -3.8460
  590SOL    HW2 1770   2.375   2.467   0.313 -0.4901 -1.1375  1.1043
  591SOL     OW 1771   0.417   2.438   2.079  0.3547  0.1955  0.3072
  591SOL    HW1 1772   0.518   2.412   2.067  1.1679  0.6415  0.9273
  591SOL    HW2 1773   0.354   2.358   2.061  1.7624 -2.7660 -3.0889
  592SOL     OW 1774   0.440   1.359   2.027  0.1903 -0.6626 -0.1407
  592SOL    HW1 1775   0.435   1.320   2.124 -2.3403 -0.0586  1.2230
  592SOL    HW2 1776   0.393   1.288   1.972 -0.6686  1.6668 -0.6369
  593SOL     OW 1777   1.548   1.742   1.622  0.2836 -0.3773 -0.0769
  593SOL    HW1 1778   1.451   1.714   1.639  0.2064  1.4262 -1.3515
  593SOL    HW2 1779   1.578   1.805   1.697 -0.5491  2.9111  1.8597
  594SOL     OW 1780   0.454   1.058   2.841  0.1987  0.0799  0.3563
  594SOL    HW1 1781   0.547   1.041   2.798  0.0647 -0.0235 -1.1216
  594SOL    HW2 1782   0.379   1.071   2.771 -0.8577 -3.4158  0.0116
  595SOL     OW 1783   1.955   0.375   0.864  0.3153 -0.3946 -0.4333
  595SOL    HW1 1784   2.022   0.413   0.928 -1.7313  1.4055 -1.1156
  595SOL    HW2 1785   1.878   0.329   0.914 -0.4436  1.2792  0.5002
  596SOL     OW 1786   0.346   1.022   1.013 -0.1261  0.1245  0.3369
  596SOL    HW1 1787   0.441   1.054   1.009 -1.7419  0.4187  0.7969
  596SOL    HW2 1788   0.309   1.030   1.110  2.2011  1.1069  1.6539
  597SOL     OW 1789   2.963   2.422   2.940  0.1671  0.0195  0.0904
  597SOL    HW1 1790   2.861   2.413   2.933  1.8297  2.3601 -0.3999
  597SOL    HW2 1791   2.988   2.518   2.925  1.7118  1.4405 -0.7421
  598SOL     OW 1792   2.250   2.061   2.554 -0.1219  0.0336  0.0566
  598SOL    HW1 1793   2.213   2.155   2.527  2.7632  3.2181  1.0475
  598SOL    HW2 1794   2.324   2.071   2.625  3.5765 -1.1690 -0.5019
  599SOL     OW 1795   1.501   0.814   0.430 -0.0434 -0.4765  0.0364
  599SOL    HW1 1796   1.538   0.721   0.434  3.2037  1.1296  0.2223
  599SOL    HW2 1797   1.575   0.872   0.466  0.7491 -2.9318  1.6223
  600SOL     OW 1798   1.092   0.324   0.182 -0.1131  0.4534  0.4158
  600SOL    HW1 1799   1.006   0.371   0.200  2.3443  0.4486  1.0809
  600SOL    HW2 1800   1.144   0.357   0.102  0.7581  1.1020 -1.1313
  601SOL     OW 1801   0.412   0.170   1.290 -0.4141  0.4650 -0.4083
  601SOL    HW1 1802   0.485   0.161   1.363  1.8943  1.4102  0.4366
  601SOL    HW2 1803   0.415   0.264   1.248  0.8194  1.4599 -1.8102
  602SOL     OW 1804   0.235   2.801   0.818  0.2539  0.2624 -0.5353
  602SOL    HW1 1805   0.301   2.787   0.742  0.8194  3.5959 -0.1044
  602SOL    HW2 1806   0.140   2.782   0.785  1.2779  2.3840 -1.1631
  603SOL     OW 1807   0.906   2.748   2.383 -0.2401 -0.1083  0.8512
  603SOL    HW1 1808   0.889   2.807   2.306  0.3531  0.3309 -0.5755
  603SOL    HW2 1809   1.000   2.703   2.370  1.7693 -0.8362 -2.4666
  604SOL     OW 1810   1.171   2.657   0.139 -0.2493 -0.0763  0.3292
  604SOL    HW1 1811   1.262   2.638   0.181  1.4856  1.7275 -0.2502
  604SOL    HW2 1812   1.179   2.702   0.045 -1.5058 -0.7896 -1.2846
  605SOL     OW 1813   1.696   1.008   1.653 -0.4444 -0.5672  0.1748
  605SOL    HW1 1814   1.640   0.991   1.571  0.2208  0.2504  2.1891
  605SOL    HW2 1815   1.789   1.038   1.628  0.1561 -1.0717  0.6674
  606SOL     OW 1816   0.913   0.723   2.365 -0.0133  0.1827  0.0325
  606SOL    HW1 1817   0.990   0.660   2.361 -0.4568  0.7721 -1.0003
  606SOL    HW2 1818   0.941   0.816   2.341  0.7024 -1.2779  0.7463
  607SOL     OW 1819   0.361   1.323   1.211 -0.2036  0.1146  0.2199
  607SOL    HW1 1820   0.300   1.243   1.233 -0.7487  0.9876  1.7909
  607SOL    HW2 1821   0.329   1.368   1.128 -1.3550 -2.2648 -0.2387
  608SOL     OW 1822   2.655   2.239   2.314  0.0752  0.5845 -0.1717
  608SOL    HW1 1823   2.678   2.339   2.324  0.4373  2.5109 -2.1841
  608SOL    HW2 1824   2.683   2.179   2.391  0.3730 -0.3032  0.1037
  609SOL     OW 1825   1.930   3.036   3.046 -0.0535  0.1174  0.1879
  609SOL    HW1 1826   1.929   0.011   0.002  1.6010 -1.8482 -1.8355
  609SOL    HW2 1827   2.023   3.002   3.039 -0.5276  1.5875 -1.8277
  610SOL     OW 1828   0.467   2.751   1.530 -0.1871  0.2294  0.0437
  610SOL    HW1 1829   0.489   2.656   1.555  1.0717  3.2267 -0.1686
  610SOL    HW2 1830   0.452   2.764   1.433 -0.9294  2.0319  1.1140
  611SOL     OW 1831   1.132   1.517   0.664  0.5298 -0.4411  0.0602
  611SOL    HW1 1832   1.084   1.607   0.665  3.0101  1.5232  0.7130
  611SOL    HW2 1833   1.149   1.494   0.563  0.1459  1.4396 -1.7551
  612SOL     OW 1834   0.746   0.105   2.495  0.4572 -0.3097 -0.2689
  612SOL    HW1 1835   0.766   0.182   2.429 -0.0064  2.4788  0.5953
  612SOL    HW2 1836   0.824   0.106   2.566  1.7640 -0.0905 -1.0058
  613SOL     OW 1837   2.800   1.787   0.463 -0.3670 -0.2637  0.3938
  613SOL    HW1 1838   2.813   1.697   0.508  0.1814 -2.7894  2.0888
  613SOL    HW2 1839   2.873   1.856   0.490 -0.2196 -0.0199  1.6904
  614SOL     OW 1840   1.719   0.154   1.592 -0.4401 -0.4564 -0.0946
  614SOL    HW1 1841   1.656   0.203   1.523 -0.4647  0.1587 -6.4327
  614SOL    HW2 1842   1.816   0.178   1.568  0.1448 -0.6244  1.1338
  615SOL     OW 1843   1.017   1.569   1.338  0.1781 -0.5041 -0.4913
  615SOL    HW1 1844   1.063   1.501   1.278 -1.6704 -1.1263  1.4875
  615SOL    HW2 1845   1.078   1.587   1.417  0.5953 -0.6717 -1.3544
  616SOL     OW 1846   1.432   1.454   2.944  0.1719  0.4262  0.8420
  616SOL    HW1 1847   1.460   1.364   2.909  1.8515 -0.3949 -2.3278
  616SOL    HW2 1848   1.504   1.497   2.998 -2.6743 -0.8306 -1.0972
  617SOL     OW 1849   1.696   2.754   0.172  0.5337 -0.0904  0.0722
  617SOL    HW1 1850   1.655   2.743   0.081  0.3835  1.5030 -0.1668
  617SOL    HW2 1851   1.673   2.677   0.234 -2.1291 -0.5833 -1.9830
  618SOL     OW 1852   1.110   0.573   2.581 -0.0211  0.2122  0.2413
  618SOL    HW1 1853   1.067   0.638   2.645 -1.4024 -0.0241  0.1891
  618SOL    HW2 1854   1.175   0.614   2.518 -1.1014 -1.0686 -0.5411
  619SOL     OW 1855   2.562   1.365   0.682  0.3515  0.1428  0.0052
  619SOL    HW1 1856   2.535   1.271   0.648  0.0223 -0.0276 -0.1951
  619SOL    HW2 1857   2.482   1.428   0.685  0.9497  0.0290  1.1965
  620SOL     OW 1858   2.481   2.506   2.977 -0.2085  0.6001 -0.3092
  620SOL    HW1 1859   2.466   2.587   2.915  0.2598  1.6248  0.1254
  620SOL    HW2 1860   2.392   2.475   3.012  2.6576  1.1553 -0.0697
  621SOL     OW 1861   2.487   1.241   0.027  0.4974 -0.3733 -0.0156
  621SOL    HW1 1862   2.422   1.181   0.078 -0.6767 -0.7146  0.3722
  621SOL    HW2 1863   2.509   1.201   3.044  1.8211  1.0734  0.9447
  622SOL     OW 1864   1.359   2.461   2.491 -0.5960  0.6685 -0.0883
  622SOL    HW1 1865   1.346   2.378   2.435 -1.1266 -0.2871  1.7742
  622SOL    HW2 1866   1.451   2.510   2.479  1.8211 -1.5129 -1.7913
  623SOL     OW 1867   0.755   1.697   0.214 -0.4786  0.2744  0.2616
  623SOL    HW1 1868   0.780   1.633   0.138  1.4174  1.3164  0.0778
  623SOL    HW2 1869   0.697   1.778   0.190 -1.1807 -1.0353  0.3957
  624SOL     OW 1870   0.528   0.145   2.896  0.8804 -0.2676  0.2364
  624SOL    HW1 1871   0.548   0.161   2.994 -2.0945  1.1260  0.3726
  624SOL    HW2 1872   0.611   0.160   2.842 -0.2818  2.3568  1.3625
  625SOL     OW 1873   1.120   1.939   0.593 -0.2318  0.4830 -0.3096
  625SOL    HW1 1874   1.159   2.012   0.652 -1.7259  3.4313  0.0924
  625SOL    HW2 1875   1.116   1.963   0.495 -0.2977 -1.6215 -1.8116
  626SOL     OW 1876   2.624   2.923   2.904 -0.2117  0.1089 -0.2599
  626SOL    HW1 1877   2.566   3.001   2.873 -2.5707  2.1173  0.1439
  626SOL    HW2 1878   2.593   2.883   2.994  0.4146  1.5145 -0.3449
  627SOL     OW 1879   1.593   1.310   2.575 -0.1927  0.1252 -0.6158
  627SOL    HW1 1880   1.498   1.273   2.577  2.1150  0.1522  2.2846
  627SOL    HW2 1881   1.652   1.268   2.649 -0.7032  2.1665  1.4615
  628SOL     OW 1882   0.422   0.696   2.175  0.0663 -0.2115 -0.5457
  628SOL    HW1 1883   0.429   0.757   2.251  0.3874 -0.0690  0.0934
  628SOL    HW2 1884   0.509   0.654   2.143  0.8533 -2.1746  0.7277
  629SOL     OW 1885   0.115   2.826   1.909 -0.5534  0.2490 -0.0188
  629SOL    HW1 1886   0.148   2.819   2.004 -0.1467  0.3952  2.1584
  629SOL    HW2 1887   0.195   2.816   1.841  1.8873 -2.2350 -2.7415
  630SOL     OW 1888   1.694   0.727   1.739  0.8904  0.4156  0.1786
  630SOL    HW1 1889   1.713   0.664   1.659 -1.0968  1.0226 -2.1488
  630SOL    HW2 1890   1.692   0.826   1.713 -2.5960 -0.5870 -1.3324
  631SOL     OW 1891   2.332   1.099   0.224  0.2741  0.6632  0.1026
  631SOL    HW1 1892   2.411   1.039   0.262  1.3816  0.4509  1.5045
  631SOL    HW2 1893   2.308   1.179   0.287 -1.4128  1.6510  2.0259
  632SOL     OW 1894   1.957   0.251   1.974  0.0890  0.2561  0.7302
  632SOL    HW1 1895   1.933   0.184   1.901  0.6022  1.1694  1.4211
  632SOL    HW2 1896   2.041   0.307   1.943  1.3485 -1.7280 -0.6126
  633SOL     OW 1897   0.815   2.897   0.289 -0.1406 -0.0029  0.3719
  633SOL    HW1 1898   0.865   2.886   0.198  0.6679 -0.5026 -0.0671
  633SOL    HW2 1899   0.751   2.821   0.304  1.6149  3.0359  0.3042
  634SOL     OW 1900   1.276   2.372   2.735  0.3090  0.1112 -0.4970
  634SOL    HW1 1901   1.310   2.428   2.657  0.9165  1.4943  1.4606
  634SOL    HW2 1902   1.358   2.324   2.771 -1.6174  0.1232  3.0055
  635SOL     OW 1903   2.289   0.113   0.004 -0.3537  0.4506  0.0395
  635SOL    HW1 1904   2.370   0.179   0.018 -1.2042 -0.7378  0.7655
  635SOL    HW2 1905   2.242   0.121   3.020  2.1306 -0.7104  3.7536
  636SOL     OW 1906   0.872   1.266   0.917 -0.2499 -0.0230  0.2944
  636SOL    HW1 1907   0.948   1.229   0.975  2.0330  0.2261 -1.3261
  636SOL    HW2 1908   0.859   1.214   0.832 -2.0551  3.9869 -1.5176
  637SOL     OW 1909   0.376   2.475   0.626 -0.1909 -0.5154 -0.0909
  637SOL    HW1 1910   0.434   2.556   0.660 -0.0001 -0.7126 -0.9653
  637SOL    HW2 1911   0.372   2.486   0.524  3.8558  0.3561 -2.4817
  638SOL     OW 1912   0.468   3.076   0.480 -0.7106  0.7981  0.3652
  638SOL    HW1 1913   0.543   3.060   0.549 -2.8281  0.0284 -0.5729
  638SOL    HW2 1914   0.448   2.990   0.427 -0.4231 -0.6540 -0.9310
  639SOL     OW 1915   1.152   1.474   0.396  0.3552  0.2996 -0.2024
  639SOL    HW1 1916   1.228   1.422   0.354  2.2630  0.9961 -0.7732
  639SOL    HW2 1917   1.122   1.559   0.348  0.7098  0.6546  1.5078
  640SOL     OW 1918   1.664   2.711   0.969 -0.5307 -0.1667 -0.4662
  640SOL    HW1 1919   1.728   2.674   0.899 -0.8323  0.9595 -2.3337
  640SOL    HW2 1920   1.651   2.810   0.960 -0.2927 -2.1405 -0.3499
  641SOL     OW 1921   2.959   2.548   0.672  0.4628  0.0619 -0.7358
  641SOL    HW1 1922   3.040   2.491   0.668 -1.0093  0.3273  0.8863
  641SOL    HW2 1923   2.916   2.564   0.578 -0.6175 -2.5952  0.0300
  642SOL     OW 1924   0.832   0.114   1.600 -0.4076 -0.5694 -0.4001
  642SOL    HW1 1925   0.805   0.077   1.690 -0.5036  0.4742 -0.6229
  642SOL    HW2 1926   0.905   0.179   1.610 -1.8054 -0.4401 -0.7742
  643SOL     OW 1927   0.724   1.867   2.146 -0.0137 -0.0770 -0.4897
  643SOL    HW1 1928   0.637   1.872   2.098  0.2517  0.8507 -0.4249
  643SOL    HW2 1929   0.738   1.942   2.211 -0.2398  1.0935  1.0036
  644SOL     OW 1930   0.821   0.019   0.445 -0.1390  0.1800  0.0869
  644SOL    HW1 1931   0.796   3.046   0.381 -0.0829 -1.3429 -2.6933
  644SOL    HW2 1932   0.923   0.035   0.438 -0.0520 -1.0725  0.3543
  645SOL     OW 1933   0.931   1.626   2.902  0.0698 -0.2267 -0.6967
  645SOL    HW1 1934   0.905   1.721   2.876 -0.3325 -0.9610 -0.3747
  645SOL    HW2 1935   1.032   1.605   2.889  1.1212 -0.8915  0.1928
  646SOL     OW 1936   0.407   1.515   3.071 -0.3541  0.2461  0.6540
  646SOL    HW1 1937   0.427   1.611   3.038  2.0071  0.0767 -0.2328
  646SOL    HW2 1938   0.353   1.520   0.051  0.8315 -0.6351  2.1899
  647SOL     OW 1939   1.076   3.099   0.867  0.0798  0.6282  0.1961
  647SOL    HW1 1940   1.124   3.060   0.952 -1.5993  0.0187 -0.4967
  647SOL    HW2 1941   1.067   3.023   0.794 -0.7122 -1.6024  0.8413
  648SOL     OW 1942   2.789   2.791   2.009  0.1932 -0.3409  0.4353
  648SOL    HW1 1943   2.688   2.804   2.026  0.1424  2.1126  0.9388
  648SOL    HW2 1944   2.834   2.882   1.997 -1.0279 -0.1297 -0.3952
  649SOL     OW 1945   0.613   2.329   3.090  0.0990 -0.1492 -0.2310
  649SOL    HW1 1946   0.580   2.342   2.996  1.9483  0.4901  0.3800
  649SOL    HW2 1947   0.537   2.289   0.043 -0.4328  0.1755 -0.0668
  650SOL     OW 1948   0.268   1.914   1.727 -0.1430  0.5355 -0.3809
  650SOL    HW1 1949   0.331   1.834   1.736 -0.5379  1.2683  1.2221
  650SOL    HW2 1950   0.284   1.962   1.639 -1.1933  0.4154  1.3815
  651SOL     OW 1951   0.585   0.167   0.050 -0.5381 -0.1642  0.0338
  651SOL    HW1 1952   0.526   0.249   0.026 -0.5625 -2.2067 -1.2300
  651SOL    HW2 1953   0.602   0.170   0.155 -1.7864 -1.9574  3.4834
  652SOL     OW 1954   2.508   1.749   0.479  0.3478  0.3674 -0.2453
  652SOL    HW1 1955   2.474   1.717   0.570 -0.7303 -1.8189 -0.6309
  652SOL    HW2 1956   2.608   1.770   0.479 -0.0894  1.0594 -1.3272
  653SOL     OW 1957   2.910   0.207   0.952  0.4002 -0.9175 -0.9974
  653SOL    HW1 1958   2.924   0.301   0.912  1.3473 -0.7377 -0.3433
  653SOL    HW2 1959   2.970   0.197   1.039  1.0952 -2.0885  1.8390
  654SOL     OW 1960   1.545   0.157   2.476 -0.0636 -0.2306 -0.0628
  654SOL    HW1 1961   1.541   0.196   2.568  0.5762 -0.3010  1.3110
  654SOL    HW2 1962   1.579   0.061   2.477  0.8414 -0.7493  1.0823
  655SOL     OW 1963   1.101   2.446   1.321  0.0436 -0.2203  0.5539
  655SOL    HW1 1964   1.189   2.433   1.372 -2.4617 -3.7904  2.7078
  655SOL    HW2 1965   1.094   2.384   1.236 -0.3692 -1.5052 -0.8257
  656SOL     OW 1966   0.475   0.044   2.205  0.0603  0.6848 -0.3571
  656SOL    HW1 1967   0.486   0.066   2.101 -0.1661 -3.1877 -2.2019
  656SOL    HW2 1968   0.376   0.051   2.231 -0.7401 -1.8704 -2.2594
  657SOL     OW 1969   2.110   0.659   1.878 -0.4546  0.5319  0.3627
  657SOL    HW1 1970   2.019   0.691   1.911  0.6301  0.9492  0.7948
  657SOL    HW2 1971   2.119   0.665   1.777 -0.1785  2.7455  3.1053
  658SOL     OW 1972   2.173   1.853   1.264  0.1133  0.0128 -0.5780
  658SOL    HW1 1973   2.255   1.851   1.322 -0.7102 -0.2049 -1.2050
  658SOL    HW2 1974   2.185   1.793   1.180 -1.7392 -4.0842 -1.6507
  659SOL     OW 1975   2.591   2.782   0.052  0.0709  0.0655 -0.5747
  659SOL    HW1 1976   2.688   2.783   0.088  1.3802 -1.8779  2.6835
  659SOL    HW2 1977   2.554   2.687   0.062 -1.1943 -2.6085  2.4191
  660SOL     OW 1978   0.938   1.195   2.749  0.8889  0.6187  0.0439
  660SOL    HW1 1979   0.938   1.298   2.753  0.2730  0.6108  0.1360
  660SOL    HW2 1980   1.033   1.167   2.773  0.1427  1.8125 -1.5447
  661SOL     OW 1981   2.344   2.536   1.185  0.1539 -0.2071 -0.1084
  661SOL    HW1 1982   2.297   2.564   1.270  0.0424  3.4006  0.0330
  661SOL    HW2 1983   2.307   2.441   1.157 -0.2120 -1.7537  0.5286
  662SOL     OW 1984   0.683   0.878   0.211 -0.4143 -0.2901  0.2211
  662SOL    HW1 1985   0.620   0.841   0.281 -0.4968 -0.9194 -0.1346
  662SOL    HW2 1986   0.627   0.887   0.126  1.4718 -0.5699  3.5114
  663SOL     OW 1987   1.136   2.210   3.064  0.0530 -0.2354  0.5843
  663SOL    HW1 1988   1.216   2.188   0.019 -2.5782 -0.6540 -0.9971
  663SOL    HW2 1989   1.099   2.304   3.088 -1.2566 -0.5862 -1.6415
  664SOL     OW 1990   0.702   2.928   1.399  0.2650  0.4039 -0.3062
  664SOL    HW1 1991   0.684   2.847   1.338  0.8368 -1.8402  1.0084
  664SOL    HW2 1992   0.713   2.902   1.496 -2.0210  1.9039 -0.6196
  665SOL     OW 1993   1.908   1.700   1.805  0.6937  0.1589  0.5902
  665SOL    HW1 1994   1.890   1.785   1.747  1.4535  2.9279 -0.9728
  665SOL    HW2 1995   1.880   1.616   1.755 -1.6109 -0.7746  0.7306
  666SOL     OW 1996   0.458   2.800   0.410  0.0459 -0.3472 -0.0889
  666SOL    HW1 1997   0.358   2.812   0.396  2.8303 -0.6014 -0.6193
  666SOL    HW2 1998   0.491   2.736   0.337 -1.2362  0.5989 -1.4692
  667SOL     OW 1999   1.668   1.729   1.383  0.2009 -0.3971  0.4001
  667SOL    HW1 2000   1.757   1.770   1.387 -0.5739 -2.6154  2.1791
  667SOL    HW2 2001   1.610   1.736   1.469 -0.2844 -1.1272 -2.3412
  668SOL     OW 2002   0.353   0.416   2.193 -0.5116  0.0653  0.4070
  668SOL    HW1 2003   0.372   0.516   2.192  0.3091  0.1021  1.5186
  668SOL    HW2 2004   0.406   0.369   2.266 -0.1902 -0.2393 -2.8929
  669SOL     OW 2005   1.878   2.074   2.363 -0.5733  0.7805 -0.5748
  669SOL    HW1 2006   1.945   2.100   2.287  2.5624  1.6214 -0.0218
  669SOL    HW2 2007   1.866   1.971   2.368  0.5983  0.5272 -1.2461
  670SOL     OW 2008   2.323   2.252   0.555  0.5860  0.0563 -0.8503
  670SOL    HW1 2009   2.319   2.154   0.585 -0.6383 -0.4859 -0.5740
  670SOL    HW2 2010   2.302   2.314   0.634 -0.4414  1.5387  3.7865
  671SOL     OW 2011   0.643   1.333   1.213 -0.2241  0.1739 -0.0184
  671SOL    HW1 2012   0.685   1.395   1.141  0.0465 -0.2548 -1.5965
  671SOL    HW2 2013   0.542   1.334   1.202 -0.7491  0.3430 -0.9908
  672SOL     OW 2014   2.770   1.323   2.192  0.0980  0.2379 -0.5125
  672SOL    HW1 2015   2.714   1.395   2.154 -0.7928 -2.4607 -0.0436
  672SOL    HW2 2016   2.838   1.304   2.120 -0.5435 -0.1442  0.8463
  673SOL     OW 2017   2.972   1.594   2.259  0.4615  0.2336  0.4728
  673SOL    HW1 2018   2.880   1.621   2.294 -2.5923 -0.4911 -1.8742
  673SOL    HW2 2019   3.047   1.621   2.327 -1.6646  0.9132  0.2233
  674SOL     OW 2020   0.884   2.445   2.202 -0.7615  0.2495 -0.3144
  674SOL    HW1 2021   0.920   2.422   2.296 -0.2409 -0.0986 -1.7902
  674SOL    HW2 2022   0.918   2.539   2.172  0.1035  2.4706 -1.5266
  675SOL     OW 2023   0.637   0.775   1.390 -0.1979  0.2840 -0.2463
  675SOL    HW1 2024   0.716   0.726   1.432 -1.5955  0.5594  3.1480
  675SOL    HW2 2025   0.608   0.857   1.450 -0.0063  1.9405  0.0501
  676SOL     OW 2026   2.147   0.927   0.450  0.2647  0.3575 -0.1455
  676SOL    HW1 2027   2.064   0.865   0.445  1.9051  0.7587  1.9377
  676SOL    HW2 2028   2.121   1.024   0.437 -1.0347 -1.8364 -0.2214
  677SOL     OW 2029   0.008   1.654   2.815 -0.2903  0.7283 -0.5520
  677SOL    HW1 2030   3.015   1.646   2.835  2.7594  0.7171  0.1363
  677SOL    HW2 2031   0.047   1.566   2.779 -0.4217 -0.4839 -0.4382
  678SOL     OW 2032   2.832   2.612   1.526  0.5599 -0.2583  0.1188
  678SOL    HW1 2033   2.762   2.629   1.450  1.7013  1.0538 -1.1122
  678SOL    HW2 2034   2.795   2.541   1.589 -1.3664  0.4010 -0.0056
  679SOL     OW 2035   2.199   3.079   0.608 -0.4022 -0.2591  0.0692
  679SOL    HW1 2036   2.257   0.030   0.541 -1.4334 -0.1793  0.1976
  679SOL    HW2 2037   2.254   3.030   0.672 -2.2385  1.1604 -1.8498
  680SOL     OW 2038   0.107   2.324   2.276  0.3721 -0.0683  0.1711
  680SOL    HW1 2039   0.197   2.281   2.285 -0.9377  3.1831 -2.9671
  680SOL    HW2 2040   0.099   2.358   2.184 -1.0877  0.9006  1.9916
  681SOL     OW 2041   0.287   1.423   1.458 -0.4109  0.0513 -0.3789
  681SOL    HW1 2042   0.304   1.372   1.373 -1.2737  1.9884  0.4349
  681SOL    HW2 2043   0.361   1.402   1.532  0.7666 -0.2184 -0.4508
  682SOL     OW 2044   0.326   2.072   1.506  0.1090  0.4582 -0.0434
  682SOL    HW1 2045   0.359   2.038   1.416  3.4037  0.2677 -1.0966
  682SOL    HW2 2046   0.261   2.146   1.500  1.4444 -2.9381 -0.1649
  683SOL     OW 2047   3.003   1.726   1.461 -0.1063 -0.1704  0.4862
  683SOL    HW1 2048   2.921   1.732   1.521 -1.2626 -0.9538  0.7423
  683SOL    HW2 2049   3.088   1.693   1.506  2.3407  2.8966 -1.4281
  684SOL     OW 2050   3.091   1.649   0.271  0.4009 -0.0568 -0.0218
  684SOL    HW1 2051   3.050   1.562   0.303  1.3595 -0.3574 -0.5171
  684SOL    HW2 2052   0.076   1.627   0.221  0.8578 -0.4297  0.8667
  685SOL     OW 2053   1.254   0.789   0.550  0.3010  0.3224  0.2581
  685SOL    HW1 2054   1.200   0.739   0.483  1.6857  2.9207  2.8186
  685SOL    HW2 2055   1.354   0.773   0.530  1.3274 -2.5954  0.7233
  686SOL     OW 2056   0.119   3.075   1.176  0.1454 -0.0779  0.0653
  686SOL    HW1 2057   0.170   3.025   1.248 -0.9016  1.0580  2.8358
  686SOL    HW2 2058   0.145   3.036   1.083  0.0064 -1.3436 -2.0543
  687SOL     OW 2059   0.969   1.290   2.224 -0.1759  0.6048  0.4212
  687SOL    HW1 2060   0.943   1.269   2.318  0.9862 -0.6555  0.1636
  687SOL    HW2 2061   1.057   1.328   2.216 -3.5528 -2.9075  1.3724
  688SOL     OW 2062   0.955   1.825   1.921 -0.4480  0.4449  0.2759
  688SOL    HW1 2063   0.866   1.857   1.881  0.5324  1.5605  1.7160
  688SOL    HW2 2064   0.992   1.907   1.969  2.0758  0.4615  0.7659
  689SOL     OW 2065   2.161   0.430   1.060  0.1410 -0.3948 -0.4181
  689SOL    HW1 2066   2.252   0.423   1.105  0.0744 -2.6610  2.2019
  689SOL    HW2 2067   2.089   0.456   1.124 -0.5297 -0.7973  0.5497
  690SOL     OW 2068   2.862   1.336   0.964  0.1775 -0.4505 -0.3901
  690SOL    HW1 2069   2.948   1.388   0.945  1.0443 -2.1612  1.6313
  690SOL    HW2 2070   2.865   1.296   1.059  0.8130 -0.7224 -1.7027
  691SOL     OW 2071   0.053   2.431   1.684  0.0197 -0.2798 -0.3794
  691SOL    HW1 2072   3.089   2.358   1.683 -0.8943  1.7897 -1.7776
  691SOL    HW2 2073   0.036   2.511   1.745 -0.6417 -0.6789 -0.7901
  692SOL     OW 2074   1.891   2.956   1.244 -0.3640  0.2769  0.3022
  692SOL    HW1 2075   1.951   2.946   1.159  1.0296 -1.0785 -0.6656
  692SOL    HW2 2076   1.944   2.993   1.320  1.1314  2.1346  0.0520
  693SOL     OW 2077   0.418   1.510   2.506  0.1590 -0.3435  0.3464
  693SOL    HW1 2078   0.449   1.602   2.532 -2.0198 -0.2913 -0.4566
  693SOL    HW2 2079   0.375   1.512   2.413  0.4622  1.2557 -0.6846
  694SOL     OW 2080   1.894   0.934   1.179 -0.4199 -0.2366  0.5655
  694SOL    HW1 2081   1.982   0.931   1.229 -3.0474  1.1076 -1.1980
  694SOL    HW2 2082   1.819   0.912   1.241  0.4712 -0.5059  1.4837
  695SOL     OW 2083   0.907   0.873   1.345  0.0184 -0.1744  0.0529
  695SOL    HW1 2084   0.859   0.963   1.346 -2.3689  1.3100  2.3937
  695SOL    HW2 2085   0.924   0.840   1.438 -2.6450  0.6408  0.7141
  696SOL     OW 2086   1.698   0.042   0.629 -0.6425  0.2115  0.2070
  696SOL    HW1 2087   1.614   3.089   0.627  0.1061  0.1404 -0.9754
  696SOL    HW2 2088   1.674   0.138   0.630  2.4000 -0.3120 -0.9230
  697SOL     OW 2089   0.878   0.183   0.910 -0.0600 -0.0408 -0.1426
  697SOL    HW1 2090   0.941   0.106   0.908 -2.9580  2.6274 -0.9247
  697SOL    HW2 2091   0.835   0.175   1.002 -1.1611  2.6790  0.4002
  698SOL     OW 2092   1.475   1.152   2.090 -0.2506 -0.1638  0.4045
  698SOL    HW1 2093   1.555   1.138   2.030  1.8735 -1.0448  0.9080
  698SOL    HW2 2094   1.476   1.247   2.126 -0.1305  2.3267 -2.4702
  699SOL     OW 2095   1.583   0.874   0.961 -0.0456 -0.1504  0.3100
  699SOL    HW1 2096   1.667   0.910   0.920  0.9845  0.5517 -1.0160
  699SOL    HW2 2097   1.500   0.922   0.923  2.0651  0.7472  0.6173
  700SOL     OW 2098   1.412   2.638   0.261 -0.0109  0.2433  0.1909
  700SOL    HW1 2099   1.412   2.737   0.287  0.5054  2.0299 -2.4715
  700SOL    HW2 2100   1.500   2.600   0.296 -1.6806 -1.6780 -0.8826
  701SOL     OW 2101   2.238   2.421   3.073 -0.0761  0.3081 -0.5603
  701SOL    HW1 2102   2.215   2.487   0.044  0.9260 -1.2734 -2.9661
  701SOL    HW2 2103   2.157   2.394   3.022  0.9033  0.5958 -1.0763
  702SOL     OW 2104   0.946   0.420   0.763 -0.1257  0.5579  0.4877
  702SOL    HW1 2105   0.954   0.336   0.815  0.5094  1.6133 -0.5207
  702SOL    HW2 2106   0.898   0.490   0.821 -0.6023  1.6669 -1.0280
  703SOL     OW 2107   2.252   0.517   2.212 -0.0173  0.1240 -0.3074
  703SOL    HW1 2108   2.242   0.486   2.310 -1.1844 -2.5010  1.1707
  703SOL    HW2 2109   2.181   0.584   2.180  0.8791  0.6123  1.7208
  704SOL     OW 2110   0.096   2.431   0.627 -0.3485  0.3143 -1.0592
  704SOL    HW1 2111   0.076   2.490   0.545  1.3737 -1.2719  1.5395
  704SOL    HW2 2112   0.193   2.454   0.662  1.8219  1.2024 -0.2157
  705SOL     OW 2113   2.681   2.509   2.130  0.1192  0.0490  0.5456
  705SOL    HW1 2114   2.762   2.549   2.079  0.9193 -1.8967 -0.8084
  705SOL    HW2 2115   2.623   2.464   2.060 -0.2198 -2.2778  0.1464
  706SOL     OW 2116   2.323   2.727   1.007 -0.3922 -0.4174  0.3210
  706SOL    HW1 2117   2.351   2.637   1.055 -0.3666  0.9448 -0.9095
  706SOL    HW2 2118   2.348   2.715   0.910 -2.5084 -1.6443  1.6235
  707SOL     OW 2119   0.665   2.339   2.086 -0.3673 -0.4613  0.1497
  707SOL    HW1 2120   0.703   2.258   2.033  1.6967 -0.4648  1.6704
  707SOL    HW2 2121   0.739   2.398   2.128  2.0024  0.6414  1.5591
  708SOL     OW 2122   3.004   2.322   2.466  0.4585  0.9079  0.0472
  708SOL    HW1 2123   3.000   2.223   2.496  2.7579  0.0038 -0.0872
  708SOL    HW2 2124   3.074   2.335   2.392  1.5887 -0.6257 -2.8281
  709SOL     OW 2125   1.953   2.876   2.093 -0.1122 -0.5423 -1.0974
  709SOL    HW1 2126   1.925   2.834   2.002 -0.1258  0.0765 -0.1048
  709SOL    HW2 2127   1.883   2.945   2.121 -1.9953 -1.1882 -2.1626
  710SOL     OW 2128   1.558   0.769   2.254 -0.1602  0.1635 -0.1385
  710SOL    HW1 2129   1.616   0.731   2.327 -1.1977 -3.3286  2.0606
  710SOL    HW2 2130   1.525   0.688   2.204  2.0261 -0.5752 -0.0562
  711SOL     OW 2131   0.780   2.118   2.949 -0.7398  0.7067  0.5482
  711SOL    HW1 2132   0.857   2.070   2.998  2.3709 -2.2357  0.2963
  711SOL    HW2 2133   0.759   2.209   2.993  0.7950  0.4083 -0.4270
  712SOL     OW 2134   0.589   2.487   2.612  0.0587 -0.0676 -0.3559
  712SOL    HW1 2135   0.645   2.573   2.600 -0.0865  1.2879  1.2858
  712SOL    HW2 2136   0.528   2.466   2.534  3.4004  2.1088  0.4986
  713SOL     OW 2137   1.767   1.183   2.750 -0.3601 -0.2591  0.2075
  713SOL    HW1 2138   1.833   1.209   2.677  0.4308  0.2009 -1.2032
  713SOL    HW2 2139   1.780   1.230   2.840 -1.8941 -2.3594 -0.1411
  714SOL     OW 2140   1.563   1.290   1.695  0.5456  0.1041  0.0628
  714SOL    HW1 2141   1.629   1.366   1.684  0.6105 -2.1909 -0.3160
  714SOL    HW2 2142   1.581   1.242   1.784 -2.6214 -0.1210  0.3505
  715SOL     OW 2143   1.970   0.636   2.421  0.6456 -0.7873 -0.0303
  715SOL    HW1 2144   2.035   0.561   2.439 -0.4176  0.6198  0.2945
  715SOL    HW2 2145   1.983   0.671   2.328  0.7847  1.3455  0.0937
  716SOL     OW 2146   2.915   2.390   1.947 -0.5000 -0.2139 -0.4285
  716SOL    HW1 2147   2.899   2.295   1.970  0.3773 -1.1135 -0.6688
  716SOL    HW2 2148   2.948   2.450   2.029  3.3952  1.2630  0.7670
  717SOL     OW 2149   2.610   1.432   0.933 -0.6034  0.1757 -0.1346
  717SOL    HW1 2150   2.707   1.408   0.964  0.6005 -1.6908  0.4974
  717SOL    HW2 2151   2.604   1.415   0.833  2.9784  0.0560  1.9690
  718SOL     OW 2152   0.918   1.674   2.188 -0.3281  0.2949  0.4136
  718SOL    HW1 2153   0.873   1.738   2.120  0.7544  0.8271 -1.4661
  718SOL    HW2 2154   0.976   1.599   2.141  2.4166 -2.6826 -0.1745
  719SOL     OW 2155   2.040   0.893   2.838 -0.3701 -0.1938  0.1889
  719SOL    HW1 2156   1.994   0.898   2.749  0.3767  1.4969  4.0196
  719SOL    HW2 2157   2.030   0.977   2.892  1.4420 -0.3093  1.2759
  720SOL     OW 2158   0.552   0.550   0.551  0.3464 -0.0555 -0.3523
  720SOL    HW1 2159   0.485   0.572   0.623 -1.1768 -1.0797 -0.1313
  720SOL    HW2 2160   0.562   0.448   0.537 -0.4323 -2.9158  1.5788
  721SOL     OW 2161   2.779   0.883   0.339  0.4539  0.0782  0.0125
  721SOL    HW1 2162   2.687   0.902   0.378  0.5406  1.0839 -0.9436
  721SOL    HW2 2163   2.789   0.787   0.309  0.0055  3.8622  3.1323
  722SOL     OW 2164   2.810   0.616   2.399 -0.0077 -0.0192  0.5015
  722SOL    HW1 2165   2.890   0.679   2.376  1.1085  1.1226 -0.5606
  722SOL    HW2 2166   2.842   0.519   2.417  0.8369 -2.4089  2.0647
  723SOL     OW 2167   2.141   0.256   0.244 -0.0900 -0.5044  0.7344
  723SOL    HW1 2168   2.157   0.354   0.215  0.2045  1.7423 -0.8007
  723SOL    HW2 2169   2.054   0.247   0.297  0.6249  2.6249 -0.0063
  724SOL     OW 2170   0.511   1.867   1.986 -0.1133 -0.4047 -0.1176
  724SOL    HW1 2171   0.435   1.800   1.980 -2.9905 -0.4577  0.1728
  724SOL    HW2 2172   0.580   1.839   1.918  3.0225 -2.8686 -0.2283
  725SOL     OW 2173   1.627   2.983   1.221  0.3282 -0.5154  0.4823
  725SOL    HW1 2174   1.626   2.986   1.120  1.5501 -1.2701  0.7365
  725SOL    HW2 2175   1.723   2.994   1.242 -1.5950  3.0961 -2.7457
  726SOL     OW 2176   2.102   2.568   0.159 -0.2712  0.1048 -0.0710
  726SOL    HW1 2177   2.065   2.633   0.094  2.2744 -1.7812  0.4019
  726SOL    HW2 2178   2.056   2.587   0.253 -0.3285 -0.0974  2.3589
  727SOL     OW 2179   1.634   1.462   1.311  0.3328 -0.6885 -0.1799
  727SOL    HW1 2180   1.655   1.405   1.389 -0.0282  0.2550 -0.6928
  727SOL    HW2 2181   1.654   1.565   1.331  0.0978  0.4542 -0.0670
  728SOL     OW 2182   1.953   2.942   1.711  0.0075 -0.8772 -0.1491
  728SOL    HW1 2183   1.907   3.018   1.763 -0.3023 -0.2634  1.4446
  728SOL    HW2 2184   1.938   2.849   1.754 -0.6779 -1.6048  0.2125
  729SOL     OW 2185   2.052   1.907   0.862 -0.2663 -0.8229  0.0926
  729SOL    HW1 2186   2.058   1.997   0.819 -1.3669 -0.0779  0.5301
  729SOL    HW2 2187   2.133   1.885   0.919 -0.1447  0.0139  1.3583
  730SOL     OW 2188   1.373   0.639   2.719  0.0749  0.4616 -0.3150
  730SOL    HW1 2189   1.331   0.618   2.630 -0.6495 -0.3688 -0.1363
  730SOL    HW2 2190   1.477   0.647   2.722  0.7519  1.9086  0.0075
  731SOL     OW 2191   0.477   0.029   1.032  0.0951  0.2223  0.1635
  731SOL    HW1 2192   0.433   0.087   1.102  1.2166 -1.5639 -0.8346
  731SOL    HW2 2193   0.444   3.039   1.038  0.1828  3.5586  0.1688
  732SOL     OW 2194   1.490   0.529   0.441  0.0934 -0.3394  0.1311
  732SOL    HW1 2195   1.396   0.511   0.416  1.3933 -1.2599 -0.4132
  732SOL    HW2 2196   1.509   0.492   0.530 -1.2723 -0.5426  0.5985
  733SOL     OW 2197   0.563   2.012   1.616  0.5484  0.0852  0.0203
  733SOL    HW1 2198   0.595   1.950   1.538  1.0887  0.4081 -0.9538
  733SOL    HW2 2199   0.465   2.042   1.600  1.7018  2.8606  0.4099
  734SOL     OW 2200   0.040   2.601   0.381 -0.0328  0.8487  0.9322
  734SOL    HW1 2201   3.051   2.569   0.367 -1.3892  0.0836 -1.6881
  734SOL    HW2 2202   0.102   2.578   0.305  2.6353 -1.5219  0.8598
  735SOL     OW 2203   1.182   0.023   1.164  0.2227  0.4894  0.3281
  735SOL    HW1 2204   1.134   3.102   1.247  0.3713  2.6924 -2.9613
  735SOL    HW2 2205   1.283   0.010   1.166 -3.5159  1.5356  0.1101
  736SOL     OW 2206   2.076   2.141   0.405 -0.8699  0.5944  0.3223
  736SOL    HW1 2207   2.165   2.180   0.435 -1.7812  0.4496 -1.1103
  736SOL    HW2 2208   2.086   2.083   0.321 -1.4853  1.1767  1.2813
  737SOL     OW 2209   3.081   1.471   1.055 -0.1076  0.3508  0.1160
  737SOL    HW1 2210   0.056   1.539   1.053  3.9153  0.0484  0.4828
  737SOL    HW2 2211   3.039   1.474   1.150  1.6410  0.1373  2.5884
  738SOL     OW 2212   2.163   2.281   2.385 -0.1419 -0.1999  0.4416
  738SOL    HW1 2213   2.114   2.362   2.414  4.8770 -0.0141 -2.2811
  738SOL    HW2 2214   2.263   2.309   2.375  2.5737  2.2103  1.5816
  739SOL     OW 2215   1.306   2.054   2.864 -0.2233  0.0583 -0.1197
  739SOL    HW1 2216   1.259   2.099   2.938  0.5780  3.8782 -0.5720
  739SOL    HW2 2217   1.381   2.109   2.834 -2.5604 -0.1030  0.9320
  740SOL     OW 2218   1.465   0.078   1.222  0.1917 -0.5321 -0.9958
  740SOL    HW1 2219   1.487   0.129   1.138  2.0685 -2.2082  0.1620
  740SOL    HW2 2220   1.529   3.098   1.232  0.3962 -1.6064 -0.3450
  741SOL     OW 2221   0.066   1.243   0.663  0.7451 -0.1111  0.0789
  741SOL    HW1 2222   0.146   1.184   0.678  0.5445  0.7730 -0.5226
  741SOL    HW2 2223   0.007   1.206   0.590 -0.8266  1.2675  2.8269
  742SOL     OW 2224   0.916   1.198   2.474  0.0028  0.2739 -1.0240
  742SOL    HW1 2225   0.914   1.190   2.571 -1.1579 -0.0874 -2.0743
  742SOL    HW2 2226   0.833   1.239   2.442  0.5356 -1.9699  0.1280
  743SOL     OW 2227   0.994   0.860   1.983 -0.0335  0.1719  0.3593
  743SOL    HW1 2228   0.981   0.959   1.987  0.4433  0.2223 -1.5662
  743SOL    HW2 2229   1.074   0.835   2.039 -0.4691  0.2609  0.5948
  744SOL     OW 2230   1.977   0.213   1.498 -0.2865  0.3770 -0.0416
  744SOL    HW1 2231   1.979   0.195   1.393 -0.6084  0.4523 -0.8959
  744SOL    HW2 2232   2.049   0.275   1.530  2.4870 -1.6521  1.2851
  745SOL     OW 2233   2.289   1.277   1.528  0.8375 -0.1113  0.1273
  745SOL    HW1 2234   2.295   1.346   1.602  1.7802  0.4033 -0.4986
  745SOL    HW2 2235   2.332   1.308   1.443 -1.6426  0.9478 -3.9443
  746SOL     OW 2236   2.017   1.200   0.438 -0.2942 -0.0041 -0.0664
  746SOL    HW1 2237   1.952   1.242   0.371 -0.4732 -0.4940  2.0124
  746SOL    HW2 2238   2.103   1.255   0.444 -1.7393 -0.1968  1.3834
  747SOL     OW 2239   2.753   1.612   1.165 -0.0642  0.5523 -0.2046
  747SOL    HW1 2240   2.785   1.624   1.071  0.2436  0.1440 -1.1479
  747SOL    HW2 2241   2.736   1.700   1.217  0.7212 -1.9819  1.0190
  748SOL     OW 2242   0.479   2.114   0.452  0.8274 -0.1944 -0.1436
  748SOL    HW1 2243   0.428   2.156   0.530  1.1108 -0.7188  2.4794
  748SOL    HW2 2244   0.578   2.094   0.476 -2.2367 -0.2486  3.2696
  749SOL     OW 2245   2.713   2.549   2.622 -0.0790 -0.4657  0.8177
  749SOL    HW1 2246   2.751   2.516   2.529  1.2937 -2.1615 -1.6297
  749SOL    HW2 2247   2.610   2.538   2.616  1.0841  1.7337 -1.5611
  750SOL     OW 2248   2.456   0.859   0.824 -0.4726 -0.0131  0.3365
  750SOL    HW1 2249   2.458   0.846   0.920 -1.0476  0.6951 -3.3129
  750SOL    HW2 2250   2.365   0.874   0.782  0.5015  1.3485 -0.5715
  751SOL     OW 2251   2.410   3.025   0.157  0.2999 -0.3196  0.0185
  751SOL    HW1 2252   2.374   3.097   0.095 -0.2157 -1.3454  2.3470
  751SOL    HW2 2253   2.479   2.967   0.119 -2.3392 -0.2816 -0.3947
  752SOL     OW 2254   3.058   2.753   0.815 -0.1102 -0.0993 -0.8673
  752SOL    HW1 2255   3.002   2.834   0.787 -0.8383  2.2488 -1.2724
  752SOL    HW2 2256   3.022   2.665   0.792  1.5067  3.3256  1.6591
  753SOL     OW 2257   1.744   0.946   2.097  0.1210  0.0813 -0.3997
  753SOL    HW1 2258   1.806   1.002   2.155 -1.7923 -0.7160  1.5096
  753SOL    HW2 2259   1.690   0.885   2.157 -2.2572  3.0498  1.0251
  754SOL     OW 2260   1.702   2.000   1.459 -0.0747 -0.1090 -0.1313
  754SOL    HW1 2261   1.751   2.086   1.459  0.7739 -1.3724  1.4428
  754SOL    HW2 2262   1.653   1.980   1.369 -2.2554  2.3937  0.2559
  755SOL     OW 2263   2.478   1.133   0.581 -0.3969  0.1341  0.4109
  755SOL    HW1 2264   2.512   1.041   0.552 -1.1316  1.2333  1.9777
  755SOL    HW2 2265   2.424   1.133   0.665  4.3988  1.6872 -0.3569
  756SOL     OW 2266   0.645   1.369   2.812  0.1528 -0.2962  0.2446
  756SOL    HW1 2267   0.581   1.317   2.748  1.2338 -2.5427 -2.8772
  756SOL    HW2 2268   0.739   1.383   2.773  0.1652 -0.6457  0.5659
  757SOL     OW 2269   1.661   2.383   0.821 -0.1832  0.3952 -0.1076
  757SOL    HW1 2270   1.683   2.287   0.794 -2.3729 -1.1024 -1.3979
  757SOL    HW2 2271   1.617   2.393   0.916 -1.6262 -2.7603  2.0209
  758SOL     OW 2272   1.208   2.642   1.646  0.0829 -0.5016 -0.2156
  758SOL    HW1 2273   1.132   2.702   1.612  3.0077 -0.6923  2.8330
  758SOL    HW2 2274   1.259   2.588   1.574  0.9423 -2.8160 -0.5281
  759SOL     OW 2275   0.008   0.897   0.916 -0.1303  0.4530 -0.4152
  759SOL    HW1 2276   3.070   0.985   0.884  0.5023  0.3253  0.7229
  759SOL    HW2 2277   0.016   0.900   1.021  1.7956  0.5596  0.2947
  760SOL     OW 2278   2.357   1.347   1.255  0.0293 -0.0314  0.6900
  760SOL    HW1 2279   2.284   1.290   1.208 -3.0375  2.9590 -0.4012
  760SOL    HW2 2280   2.380   1.427   1.194  1.9284 -0.5145 -1.0159
  761SOL     OW 2281   1.903   0.166   0.077  0.1065  0.3082 -0.2277
  761SOL    HW1 2282   1.819   0.168   0.132 -0.1428  1.9917  1.2288
  761SOL    HW2 2283   1.981   0.198   0.129 -1.1011  0.5487 -3.3928
  762SOL     OW 2284   2.135   1.479   2.962 -0.0053 -0.0503  0.0035
  762SOL    HW1 2285   2.199   1.397   2.960  1.8663 -0.3525 -0.8032
  762SOL    HW2 2286   2.103   1.505   2.870  3.8225 -1.2404  0.7683
  763SOL     OW 2287   0.385   2.149   1.837  0.0700  0.6044  0.2323
  763SOL    HW1 2288   0.477   2.118   1.862 -2.3652  0.0624 -1.7669
  763SOL    HW2 2289   0.328   2.072   1.803  4.8442  1.8452 -0.3823
  764SOL     OW 2290   3.052   2.390   0.122  0.7031 -0.1869 -0.2288
  764SOL    HW1 2291   2.975   2.361   0.189 -3.4636 -2.7205 -0.3959
  764SOL    HW2 2292   3.012   2.389   0.028  1.0450 -2.1370 -0.6369
  765SOL     OW 2293   0.299   3.019   1.424 -0.2081  0.0887 -0.0303
  765SOL    HW1 2294   0.328   0.003   1.384 -2.0508 -0.9512  2.1075
  765SOL    HW2 2295   0.377   2.951   1.443  2.4256 -1.5411  2.8175
  766SOL     OW 2296   2.883   1.949   2.291  0.2259 -0.0106 -0.0078
  766SOL    HW1 2297   2.806   1.963   2.222 -2.4976  0.8726 -2.1443
  766SOL    HW2 2298   2.849   1.970   2.384  0.0851  0.0982 -3.4795
  767SOL     OW 2299   2.471   0.948   2.191  0.0635  0.0348  0.1365
  767SOL    HW1 2300   2.475   0.954   2.087  1.2060 -1.0116  1.2618
  767SOL    HW2 2301   2.505   0.858   2.228  1.5844 -0.5320 -2.1036
  768SOL     OW 2302   1.321   3.078   2.731  0.1653  0.2695 -0.3127
  768SOL    HW1 2303   1.263   3.075   2.815 -1.8231 -0.9664  0.5649
  768SOL    HW2 2304   1.419   3.073   2.759 -0.4820 -0.2681  0.5727
  769SOL     OW 2305   2.793   2.742   1.012 -0.0060  0.1022  0.0644
  769SOL    HW1 2306   2.872   2.757   1.072  1.4173  0.1301 -1.7411
  769SOL    HW2 2307   2.718   2.804   1.047  2.3524 -0.5952  0.6896
  770SOL     OW 2308   0.582   2.949   2.892  0.1645 -0.8641 -0.9481
  770SOL    HW1 2309   0.607   2.864   2.941  2.5621  0.8970  0.4061
  770SOL    HW2 2310   0.528   3.009   2.955  1.0370 -0.8915 -0.9345
  771SOL     OW 2311   1.244   1.962   2.265 -0.0933 -0.1985  0.1866
  771SOL    HW1 2312   1.311   2.008   2.199 -0.8211  0.3334 -1.2698
  771SOL    HW2 2313   1.222   1.875   2.220  0.0976  1.2682  2.2409
  772SOL     OW 2314   1.623   2.689   3.014 -0.3182  0.0277  0.4704
  772SOL    HW1 2315   1.532   2.650   2.982  0.3572 -0.3711 -1.1188
  772SOL    HW2 2316   1.641   2.791   2.989  0.8682 -0.0373 -1.1674
  773SOL     OW 2317   2.166   0.682   1.322 -0.5352  0.3989 -0.6785
  773SOL    HW1 2318   2.173   0.780   1.287 -2.5796  2.2989 -0.8038
  773SOL    HW2 2319   2.074   0.653   1.284 -0.6869  2.9715  0.3837
  774SOL     OW 2320   0.912   0.971   1.079  0.3534 -0.0409 -0.4507
  774SOL    HW1 2321   0.990   1.036   1.080 -3.1476 -1.8330 -0.3863
  774SOL    HW2 2322   0.902   0.912   1.164 -1.0778 -1.3998 -1.6743
  775SOL     OW 2323   1.997   2.753   2.870 -0.3737 -0.6985  0.0981
  775SOL    HW1 2324   1.943   2.743   2.956  1.1882  0.8109  1.1648
  775SOL    HW2 2325   2.002   2.660   2.825  1.2125  1.7095 -0.8964
  776SOL     OW 2326   2.144   0.949   1.306  0.2192  0.1247 -0.3934
  776SOL    HW1 2327   2.165   0.974   1.403 -0.3766  1.1015  1.1990
  776SOL    HW2 2328   2.175   1.026   1.247  1.2044  0.4105  3.0150
  777SOL     OW 2329   0.094   0.998   1.998  0.0833 -0.4049 -0.3575
  777SOL    HW1 2330   0.120   0.898   1.993  2.5213 -0.4907 -3.0915
  777SOL    HW2 2331   0.178   1.056   1.998  0.5859  1.2663 -1.7385
  778SOL     OW 2332   0.275   0.804   0.157  0.4463 -0.3222 -0.4931
  778SOL    HW1 2333   0.357   0.818   0.100 -1.6563  0.2114 -0.2324
  778SOL    HW2 2334   0.210   0.881   0.157 -0.6300 -2.2377 -1.9037
  779SOL     OW 2335   0.780   0.226   2.785 -0.3632  0.4568 -0.6428
  779SOL    HW1 2336   0.816   0.240   2.878 -2.3357 -1.0264 -1.1978
  779SOL    HW2 2337   0.812   0.131   2.755  0.0696 -3.3727 -0.0526
  780SOL     OW 2338   2.221   1.280   2.622  0.0112 -0.5285  0.3432
  780SOL    HW1 2339   2.323   1.291   2.609  3.0720  2.6426 -1.7850
  780SOL    HW2 2340   2.179   1.369   2.644 -1.1478 -0.6472  0.2804
  781SOL     OW 2341   2.778   1.108   1.897 -0.5363 -0.1157 -0.3818
  781SOL    HW1 2342   2.694   1.163   1.916  1.2332 -0.0966  1.8800
  781SOL    HW2 2343   2.783   1.033   1.965  0.6923 -0.6586  0.0542
  782SOL     OW 2344   0.789   1.874   2.825  0.2218  0.0128  0.0352
  782SOL    HW1 2345   0.714   1.817   2.789  2.3990  2.2888  1.5731
  782SOL    HW2 2346   0.755   1.957   2.877 -1.1357 -0.6121  2.6156
  783SOL     OW 2347   1.140   2.299   1.095 -0.3731  0.2587  0.5279
  783SOL    HW1 2348   1.223   2.323   1.041 -0.6498  3.6504 -1.4462
  783SOL    HW2 2349   1.119   2.200   1.082  0.3206 -0.8974  0.7334
  784SOL     OW 2350   1.704   0.607   2.416 -0.2388 -0.2783  0.1093
  784SOL    HW1 2351   1.803   0.613   2.411 -0.7067 -2.2511 -0.3540
  784SOL    HW2 2352   1.668   0.514   2.393  1.4761 -0.1027 -3.8580
  785SOL     OW 2353   3.053   0.149   1.815  0.2837  0.1205 -0.0709
  785SOL    HW1 2354   3.037   0.190   1.907 -0.5057  1.1780 -0.8456
  785SOL    HW2 2355   3.060   0.047   1.820  1.0247 -1.4731  0.2977
  786SOL     OW 2356   1.014   2.100   0.355 -0.1369  1.0781  0.5634
  786SOL    HW1 2357   0.934   2.075   0.293 -0.8779  2.0398 -1.8588
  786SOL    HW2 2358   0.991   2.177   0.416  2.1064  0.9462 -0.6292
  787SOL     OW 2359   1.267   0.182   0.803  0.3600 -0.5541  0.0166
  787SOL    HW1 2360   1.251   0.229   0.712  1.8569 -1.3618 -2.4453
  787SOL    HW2 2361   1.199   0.111   0.813  2.6608  0.8117 -1.7504
  788SOL     OW 2362   2.937   1.483   1.307 -0.0974 -0.0618 -0.4018
  788SOL    HW1 2363   2.884   1.550   1.249  0.4609  0.4879 -4.1944
  788SOL    HW2 2364   2.953   1.523   1.400 -0.0251  3.3227  1.2148
  789SOL     OW 2365   2.666   1.111   2.305  0.2709 -1.0494 -0.5847
  789SOL    HW1 2366   2.575   1.085   2.263 -0.3061  0.4564  1.3241
  789SOL    HW2 2367   2.711   1.190   2.259  1.0500  1.5311 -0.0248
  790SOL     OW 2368   0.810   0.387   0.193 -0.0529  0.1400 -0.1463
  790SOL    HW1 2369   0.757   0.468   0.183  1.7983 -4.2371 -0.5982
  790SOL    HW2 2370   0.747   0.311   0.228 -0.4039 -1.6260 -1.1017
  791SOL     OW 2371   2.954   0.088   2.967  0.3872 -0.4409  0.3035
  791SOL    HW1 2372   2.884   0.076   3.041 -1.2757  0.0487  1.4255
  791SOL    HW2 2373   2.995   0.183   2.972 -1.2378  2.3372  2.2005
  792SOL     OW 2374   1.302   0.322   2.084  0.2241 -0.4547 -0.1423
  792SOL    HW1 2375   1.378   0.265   2.043  0.7641 -1.0033  2.3701
  792SOL    HW2 2376   1.321   0.339   2.183 -1.6796 -3.3806 -1.4710
  793SOL     OW 2377   2.915   0.378   1.257 -0.7047  0.2826 -0.2249
  793SOL    HW1 2378   2.984   0.334   1.202 -1.6340  2.1305 -1.4022
  793SOL    HW2 2379   2.953   0.454   1.313  2.2314 -2.1208 -0.0845
  794SOL     OW 2380   3.086   0.682   2.068 -0.2152 -0.1988 -0.0837
  794SOL    HW1 2381   0.071   0.702   2.028 -1.0073 -0.5624 -0.1777
  794SOL    HW2 2382   3.022   0.663   1.992 -0.1925  0.9952  1.2502
  795SOL     OW 2383   0.664   1.441   0.557  0.1129  0.1204  0.0903
  795SOL    HW1 2384   0.763   1.414   0.561 -0.6614 -3.9442  0.5919
  795SOL    HW2 2385   0.613   1.364   0.510  1.3102 -0.7372 -0.3340
  796SOL     OW 2386   3.078   0.726   0.124 -0.3118  1.0292  0.3851
  796SOL    HW1 2387   3.096   0.824   0.126 -2.4792 -2.1524  0.4164
  796SOL    HW2 2388   0.051   0.675   0.089  1.3076 -1.3948 -1.5566
  797SOL     OW 2389   1.806   2.973   2.539 -0.2717  0.4882 -0.4976
  797SOL    HW1 2390   1.901   2.959   2.573  4.6579 -1.5688  0.4996
  797SOL    HW2 2391   1.752   2.889   2.530  2.3532  0.1212 -1.2356
  798SOL     OW 2392   2.990   3.038   1.486 -0.4648  0.1290 -0.3267
  798SOL    HW1 2393   3.025   0.031   1.483 -1.4352  0.7442 -1.6175
  798SOL    HW2 2394   3.053   2.966   1.453 -3.2505 -1.5018  3.4884
  799SOL     OW 2395   2.470   0.953   1.900  0.5030 -0.1751 -0.4448
  799SOL    HW1 2396   2.376   0.930   1.868 -0.9230 -3.5881  3.1893
  799SOL    HW2 2397   2.540   0.962   1.825 -0.4013  0.0889 -0.3250
  800SOL     OW 2398   0.120   1.909   0.650  0.0253 -0.0442  0.3724
  800SOL    HW1 2399   0.198   1.943   0.709  0.7591 -0.1906  1.0504
  800SOL    HW2 2400   0.171   1.863   0.574  1.8496 -0.5563  1.8939
  801SOL     OW 2401   1.744   1.692   0.391  0.6149 -0.2029 -0.0854
  801SOL    HW1 2402   1.647   1.672   0.370  0.9159 -0.7950  0.2263
  801SOL    HW2 2403   1.767   1.679   0.490 -0.1840 -1.0750  1.1068
  802SOL     OW 2404   1.243   1.198   2.747 -0.0173  0.1257 -0.2999
  802SOL    HW1 2405   1.261   1.210   2.650 -0.3306 -0.6632 -0.9136
  802SOL    HW2 2406   1.324   1.225   2.801 -1.0884 -2.4972  0.7858
  803SOL     OW 2407   0.328   2.023   2.131  0.1111  0.6317 -0.0358
  803SOL    HW1 2408   0.410   2.011   2.071 -0.9029  1.1977 -1.0104
  803SOL    HW2 2409   0.269   1.939   2.121 -2.5571  0.3003  0.2404
  804SOL     OW 2410   1.445   1.999   0.810 -0.2905  0.3862 -0.2993
  804SOL    HW1 2411   1.438   1.897   0.792 -1.6024 -0.8393  1.2467
  804SOL    HW2 2412   1.347   2.034   0.806 -2.7600 -3.0785 -0.4699
  805SOL     OW 2413   2.365   2.205   2.767  0.0687 -0.7495  0.0122
  805SOL    HW1 2414   2.406   2.137   2.827  0.1865 -0.7127  1.2201
  805SOL    HW2 2415   2.379   2.300   2.810  2.4469  1.6279  0.9475
  806SOL     OW 2416   0.091   0.481   0.791 -0.1352  0.3729  0.4128
  806SOL    HW1 2417   0.091   0.387   0.836 -0.5965 -0.2283  3.6351
  806SOL    HW2 2418   0.185   0.515   0.782 -0.6301 -2.6611 -1.4474
  807SOL     OW 2419   2.889   0.756   2.933  0.1542 -0.3816  0.2045
  807SOL    HW1 2420   2.855   0.748   2.835 -0.8249 -1.9200 -1.7554
  807SOL    HW2 2421   2.961   0.831   2.950  2.7948  3.7399  0.5264
  808SOL     OW 2422   0.764   2.153   0.728 -0.0651 -0.6925 -0.4702
  808SOL    HW1 2423   0.766   2.087   0.649  0.2328 -4.4353 -1.8932
  808SOL    HW2 2424   0.665   2.178   0.739 -0.7737 -0.7436 -1.7479
  809SOL     OW 2425   2.676   0.114   2.524 -0.5836 -0.0861 -0.6249
  809SOL    HW1 2426   2.731   0.038   2.487  1.3150  1.4476 -0.5245
  809SOL    HW2 2427   2.597   0.088   2.585 -0.0363 -1.6247 -0.5308
  810SOL     OW 2428   1.719   0.923   0.550 -0.4976 -0.0861 -0.1763
  810SOL    HW1 2429   1.702   0.944   0.648 -2.0682 -3.1809  0.6914
  810SOL    HW2 2430   1.808   0.872   0.543  0.8659 -1.6168  1.7743
  811SOL     OW 2431   1.664   2.961   1.983 -0.2181  0.0241 -0.2550
  811SOL    HW1 2432   1.572   2.953   1.938 -1.2663  0.6405 -0.3103
  811SOL    HW2 2433   1.654   3.002   2.078 -0.1770 -1.7582  0.3125
  812SOL     OW 2434   1.981   2.577   0.384  0.0539 -0.7670 -0.2624
  812SOL    HW1 2435   1.926   2.495   0.398  1.9467  0.7792  0.4774
  812SOL    HW2 2436   1.965   2.644   0.459 -1.9821 -1.2584 -2.9009
  813SOL     OW 2437   0.995   0.567   1.924  0.7001  0.0637 -0.2532
  813SOL    HW1 2438   1.091   0.550   1.906 -2.6984  2.5024  0.3062
  813SOL    HW2 2439   0.985   0.667   1.927 -0.6802  1.8029  0.6277
  814SOL     OW 2440   0.058   2.836   1.426  0.5673  0.2177  0.0353
  814SOL    HW1 2441   0.158   2.861   1.420  3.7011 -2.6936  0.1737
  814SOL    HW2 2442   0.054   2.734   1.431  0.5098 -1.8548  1.5954
  815SOL     OW 2443   0.219   0.265   0.877 -0.2763 -0.4353  0.0468
  815SOL    HW1 2444   0.248   0.266   0.778  0.7406 -0.5978  1.9686
  815SOL    HW2 2445   0.186   0.175   0.912 -0.1001  0.5815 -1.8112
  816SOL     OW 2446   3.038   1.845   2.061 -0.5108 -0.3633 -0.0425
  816SOL    HW1 2447   3.003   1.853   2.153 -1.8621 -1.6016 -1.6979
  816SOL    HW2 2448   2.986   1.774   2.013 -0.3797  2.1721  0.6259
  817SOL     OW 2449   1.178   0.065   0.221  0.1154 -0.2067  0.0131
  817SOL    HW1 2450   1.148   0.163   0.214  0.7844 -1.7948  1.1745
  817SOL    HW2 2451   1.135   0.003   0.294 -0.9519  0.0505  2.6771
  818SOL     OW 2452   1.570   0.557   0.108  0.4422  0.2512 -0.7846
  818SOL    HW1 2453   1.667   0.568   0.072  2.3631  4.6569  4.4812
  818SOL    HW2 2454   1.572   0.478   0.173  0.8494 -0.5459  0.7571
  819SOL     OW 2455   2.245   2.858   2.980  0.3148  0.0570  0.3243
  819SOL    HW1 2456   2.176   2.801   2.931  0.4462 -2.1593  0.3040
  819SOL    HW2 2457   2.227   2.880   3.080  0.0133 -2.9405  0.9889
  820SOL     OW 2458   1.496   1.186   2.887 -0.0499 -0.0028  0.1886
  820SOL    HW1 2459   1.504   1.147   2.981  0.6137  0.8717 -2.5159
  820SOL    HW2 2460   1.556   1.132   2.824 -0.2954  1.9273 -3.2130
  821SOL     OW 2461   0.167   0.535   1.357 -0.8034  0.2651 -0.6023
  821SOL    HW1 2462   0.249   0.536   1.419  2.7202  1.0302 -1.4790
  821SOL    HW2 2463   0.182   0.471   1.274  1.0976  0.1177 -1.0766
  822SOL     OW 2464   1.145   2.639   2.369  0.4510  0.4176  0.4178
  822SOL    HW1 2465   1.247   2.649   2.370  0.2255  1.5460 -0.4316
  822SOL    HW2 2466   1.115   2.554   2.417  0.4245  2.1744  0.4013
  823SOL     OW 2467   0.481   1.402   1.643 -0.2091  0.9921 -0.5878
  823SOL    HW1 2468   0.559   1.444   1.591  0.4596 -1.8779  2.1484
  823SOL    HW2 2469   0.514   1.332   1.714  1.2625 -3.5905  0.8372
  824SOL     OW 2470   1.722   2.673   2.331  0.2601 -0.3634 -0.1474
  824SOL    HW1 2471   1.805   2.730   2.344  3.2895  0.4564  0.4285
  824SOL    HW2 2472   1.665   2.649   2.412 -0.4446 -0.4430 -2.2548
  825SOL     OW 2473   1.090   1.032   0.181 -0.2119 -0.9427  0.6825
  825SOL    HW1 2474   1.181   0.992   0.202  0.3818 -0.3271 -0.0948
  825SOL    HW2 2475   1.054   1.079   0.266 -2.6869  1.8110  3.1022
  826SOL     OW 2476   2.253   0.718   2.907  0.1934  0.0087  0.4614
  826SOL    HW1 2477   2.178   0.787   2.893 -0.4755 -3.6519  2.5801
  826SOL    HW2 2478   2.327   0.763   2.955 -1.1859  0.3391 -0.6652
  827SOL     OW 2479   0.538   2.328   2.844 -0.3101  0.5051  0.1185
  827SOL    HW1 2480   0.565   2.375   2.757 -1.3856 -0.2110 -1.2923
  827SOL    HW2 2481   0.510   2.233   2.815  0.6122  0.6991 -0.2398
  828SOL     OW 2482   2.818   0.587   1.633  0.8020  0.0761 -0.2546
  828SOL    HW1 2483   2.736   0.524   1.630 -1.5638 -0.9155 -0.0488
  828SOL    HW2 2484   2.840   0.602   1.731  1.1952 -0.6325  2.1639
  829SOL     OW 2485   0.739   1.484   1.016 -0.0572  0.0682 -0.3556
  829SOL    HW1 2486   0.760   1.575   0.974  2.0939 -1.1150 -0.9773
  829SOL    HW2 2487   0.795   1.407   0.975 -1.9686 -0.5433 -1.7062
  830SOL     OW 2488   0.774   1.147   1.382  0.6543  0.4568 -0.2456
  830SOL    HW1 2489   0.718   1.211   1.329 -3.5247 -0.1755 -0.6219
  830SOL    HW2 2490   0.713   1.083   1.433  0.0027  1.4847  0.5004
  831SOL     OW 2491   0.552   1.897   0.167  0.5167  0.4138  0.2939
  831SOL    HW1 2492   0.483   1.851   0.227 -0.0901 -2.7684  3.6103
  831SOL    HW2 2493   0.513   1.972   0.115  0.6351 -3.0325  0.8636
  832SOL     OW 2494   0.775   0.016   3.043  0.3566 -0.0767 -0.2865
  832SOL    HW1 2495   0.723   3.061   2.977  0.7622 -1.9146  0.9663
  832SOL    HW2 2496   0.716   0.072   0.001  2.5263 -0.7470  0.5061
  833SOL     OW 2497   0.149   0.349   1.715 -0.4620 -0.0341  0.9445
  833SOL    HW1 2498   0.070   0.301   1.756  0.4956  0.5560  0.6247
  833SOL    HW2 2499   0.139   0.449   1.706  0.8876  1.5896  0.9768
  834SOL     OW 2500   2.866   0.462   0.857 -0.0877 -0.2466  0.0814
  834SOL    HW1 2501   2.849   0.517   0.938  1.5149  0.0716  1.1305
  834SOL    HW2 2502   2.871   0.528   0.775 -0.7180  3.7889  0.3757
  835SOL     OW 2503   2.689   0.073   1.037  0.2115 -0.5020 -0.5018
  835SOL    HW1 2504   2.765   0.133   0.993 -0.6782  2.4539 -0.8366
  835SOL    HW2 2505   2.724   0.036   1.126 -0.9297 -2.2025 -0.5788
  836SOL     OW 2506   0.153   2.061   2.957  0.1109 -0.4508 -0.1135
  836SOL    HW1 2507   0.137   2.140   2.891  1.6727 -1.0571  0.8937
  836SOL    HW2 2508   0.089   2.063   3.036  1.6518 -1.0354 -1.0557
  837SOL     OW 2509   1.714   1.876   2.853  0.1338 -0.6648 -0.0319
  837SOL    HW1 2510   1.757   1.961   2.826  0.3827 -1.7164  3.7904
  837SOL    HW2 2511   1.713   1.808   2.777  1.1829 -0.8869 -0.0575
  838SOL     OW 2512   2.838   0.859   1.475  0.1864  0.1396 -0.4340
  838SOL    HW1 2513   2.794   0.770   1.448 -0.5250 -1.5281 -1.2756
  838SOL    HW2 2514   2.871   0.908   1.392  0.6148  1.2546  0.2226
  839SOL     OW 2515   1.170   0.813   0.803 -0.1305 -0.1782  0.4570
  839SOL    HW1 2516   1.071   0.827   0.813  2.3758  0.0133 -0.1738
  839SOL    HW2 2517   1.199   0.824   0.705 -1.7067 -0.1772  0.5042
  840SOL     OW 2518   1.750   0.270   1.007  0.5431  0.0808  0.3639
  840SOL    HW1 2519   1.690   0.198   0.975  2.0360  0.8832  0.1483
  840SOL    HW2 2520   1.690   0.330   1.066 -4.1273  1.8657 -0.0993
  841SOL     OW 2521   0.466   2.739   0.672  0.4630 -0.1843 -0.1895
  841SOL    HW1 2522   0.483   2.755   0.575  3.7553 -0.0656 -1.5422
  841SOL    HW2 2523   0.536   2.792   0.724 -0.5260 -0.6494 -1.0938
  842SOL     OW 2524   0.517   0.760   0.376  0.0008  0.7753  0.3865
  842SOL    HW1 2525   0.529   0.682   0.440 -0.2500  1.6994 -2.5395
  842SOL    HW2 2526   0.427   0.759   0.332  2.6623 -0.6702  1.3105
  843SOL     OW 2527   0.951   1.269   1.595  0.2737  0.5250 -0.0601
  843SOL    HW1 2528   0.914   1.287   1.689  0.5068  1.9821 -0.4559
  843SOL    HW2 2529   0.883   1.247   1.524 -0.1780  1.6639  1.0886
  844SOL     OW 2530   1.344   2.147   0.120 -0.1366 -0.4756 -0.0557
  844SOL    HW1 2531   1.409   2.073   0.090 -0.3198 -0.5776  0.0945
  844SOL    HW2 2532   1.386   2.239   0.091  0.7607  4.0220 -0.6888
  845SOL     OW 2533   2.420   2.351   2.356  0.0493  0.2122 -0.0966
  845SOL    HW1 2534   2.410   2.440   2.296 -2.2221  4.2220 -2.8925
  845SOL    HW2 2535   2.486   2.284   2.321 -1.6931 -1.8416 -0.4539
  846SOL     OW 2536   1.961   2.209   2.965  0.3366  0.1511 -0.0983
  846SOL    HW1 2537   1.888   2.152   2.913 -3.8262 -3.6294  0.1275
  846SOL    HW2 2538   1.925   2.256   3.052 -1.9912  1.9661  0.4595
  847SOL     OW 2539   2.011   2.995   2.721 -0.0969 -0.1565  0.5037
  847SOL    HW1 2540   2.077   2.940   2.668 -0.6651  2.0733  1.8029
  847SOL    HW2 2541   1.964   2.947   2.794  0.1425 -0.8422 -1.3928
  848SOL     OW 2542   0.823   0.496   0.523 -0.2626  0.0222  0.2573
  848SOL    HW1 2543   0.731   0.534   0.526  1.9537 -2.5565 -0.7272
  848SOL    HW2 2544   0.851   0.482   0.621  2.5412 -0.5418  0.0580
  849SOL     OW 2545   0.872   2.901   1.002 -0.1817  0.1460 -0.2406
  849SOL    HW1 2546   0.859   2.992   1.051  1.5087  1.8443  1.2251
  849SOL    HW2 2547   0.969   2.892   0.976 -1.7982 -0.7809 -1.0569
  850SOL     OW 2548   0.243   1.682   0.162 -0.2001 -0.1649  0.0380
  850SOL    HW1 2549   0.274   1.745   0.234 -2.6485  0.5002 -1.2210
  850SOL    HW2 2550   0.204   1.738   0.085 -1.1200  0.1264  0.1577
  851SOL     OW 2551   0.128   1.000   0.421 -0.0626 -0.9169  0.2514
  851SOL    HW1 2552   0.114   0.995   0.321 -1.7821 -3.0525 -1.6972
  851SOL    HW2 2553   0.042   0.986   0.475 -1.2874  0.4148 -0.6057
  852SOL     OW 2554   1.867   1.928   1.663  0.5177 -0.0446 -0.0065
  852SOL    HW1 2555   1.898   1.983   1.746  2.5249 -0.0332  0.8647
  852SOL    HW2 2556   1.790   1.971   1.610 -0.9369 -0.5523 -1.7495
  853SOL     OW 2557   0.370   1.865   0.349  0.5637  0.1449 -0.2225
  853SOL    HW1 2558   0.337   1.796   0.420 -0.6682  1.0413  1.0002
  853SOL    HW2 2559   0.405   1.948   0.396  3.0136  1.1848  1.9456
  854SOL     OW 2560   1.888   1.274   1.338 -0.3503  0.4736  0.2952
  854SOL    HW1 2561   1.838   1.251   1.250 -1.6474  0.3825 -2.5583
  854SOL    HW2 2562   1.907   1.187   1.395  1.4596 -1.6290 -0.9356
  855SOL     OW 2563   0.804   2.455   0.144  0.2612 -0.2233 -0.0419
  855SOL    HW1 2564   0.892   2.469   0.089 -0.2511 -1.6239 -0.0600
  855SOL    HW2 2565   0.734   2.399   0.095  0.9819 -0.8765  0.1868
  856SOL     OW 2566   2.947   0.223   2.074  0.0692 -0.1679 -0.3251
  856SOL    HW1 2567   2.897   0.296   2.023  1.6282 -2.6724  1.0373
  856SOL    HW2 2568   2.973   0.264   2.165  0.1636  0.6920  0.4499
  857SOL     OW 2569   0.613   0.673   1.780  0.0361 -0.3568 -0.1820
  857SOL    HW1 2570   0.648   0.641   1.876  1.5038  1.4595 -0.8143
  857SOL    HW2 2571   0.689   0.688   1.716  0.4638  1.2626 -0.9340
  858SOL     OW 2572   0.460   1.253   2.262  0.3124 -0.1247 -0.3818
  858SOL    HW1 2573   0.366   1.255   2.304 -1.2574  0.3106 -3.3732
  858SOL    HW2 2574   0.532   1.308   2.312  0.1486 -1.9526 -0.0659
  859SOL     OW 2575   2.291   0.088   0.367  0.2475  0.0649  0.2228
  859SOL    HW1 2576   2.337   0.033   0.300 -2.6381 -3.1927 -3.0671
  859SOL    HW2 2577   2.232   0.155   0.313  1.8528 -0.3600  1.6041
  860SOL     OW 2578   1.671   2.942   2.968 -0.0916 -0.2331  0.0546
  860SOL    HW1 2579   1.654   2.990   2.877  0.4136  4.6870 -1.3512
  860SOL    HW2 2580   1.759   2.977   3.013  1.0812  0.4887  1.8398
  861SOL     OW 2581   0.192   0.616   0.327  0.2673 -0.2115  0.3479
  861SOL    HW1 2582   0.199   0.700   0.275 -0.4289 -3.1351  1.1449
  861SOL    HW2 2583   0.151   0.634   0.414  2.7088  3.0428 -0.7178
  862SOL     OW 2584   1.720   0.186   2.099 -0.3769 -0.1049  0.3920
  862SOL    HW1 2585   1.809   0.208   2.049 -1.3223  3.9426  0.6924
  862SOL    HW2 2586   1.639   0.176   2.037  3.0868  3.0162 -0.9910
  863SOL     OW 2587   3.087   2.103   1.287 -0.0981  0.2006  0.0270
  863SOL    HW1 2588   0.008   2.145   1.198  0.3371  2.3875 -4.2279
  863SOL    HW2 2589   2.989   2.129   1.308  0.5813 -0.5808 -0.9704
  864SOL     OW 2590   2.253   2.720   1.937  0.5410 -0.0501 -0.1372
  864SOL    HW1 2591   2.213   2.812   1.910  0.7287 -2.1577 -0.5132
  864SOL    HW2 2592   2.190   2.669   1.997 -2.4533  0.7362 -1.5124
  865SOL     OW 2593   0.991   0.239   1.234  0.0726 -0.4449 -0.0590
  865SOL    HW1 2594   1.066   0.193   1.185  0.7979  0.3535  0.1546
  865SOL    HW2 2595   0.979   0.193   1.322  1.8317 -5.7523 -0.8353
  866SOL     OW 2596   2.457   2.962   0.668  0.1503  0.3298 -0.0174
  866SOL    HW1 2597   2.482   2.954   0.571  1.0063 -1.3322 -0.2224
  866SOL    HW2 2598   2.490   2.877   0.714 -0.4352 -2.8247 -0.8179
  867SOL     OW 2599   2.825   2.890   0.698 -0.1485  0.0511  0.3254
  867SOL    HW1 2600   2.797   2.905   0.605  0.9937 -0.3613 -1.3627
  867SOL    HW2 2601   2.743   2.855   0.749  0.5258  2.8476  1.3256
  868SOL     OW 2602   1.259   2.265   2.315 -0.5678  0.3732  0.0447
  868SOL    HW1 2603   1.275   2.166   2.326 -2.2797  1.5490  0.5749
  868SOL    HW2 2604   1.220   2.282   2.222 -0.2499 -1.4891 -3.0492
  869SOL     OW 2605   1.939   1.653   0.209 -0.3005 -0.0100 -0.3837
  869SOL    HW1 2606   1.989   1.733   0.174 -1.0832  0.4206  1.7135
  869SOL    HW2 2607   1.854   1.692   0.241  1.4037  0.2524 -2.1900
  870SOL     OW 2608   2.623   2.474   0.613  0.1145 -0.0065 -0.2046
  870SOL    HW1 2609   2.644   2.513   0.702  1.4759 -0.0684 -3.2569
  870SOL    HW2 2610   2.607   2.374   0.619 -0.4202 -0.3707  0.9996
  871SOL     OW 2611   0.182   1.183   1.649  0.0342 -0.3943 -0.1894
  871SOL    HW1 2612   0.228   1.247   1.584  0.5729 -0.4983 -1.4107
  871SOL    HW2 2613   0.079   1.195   1.643  3.3874 -0.6422  0.5998
  872SOL     OW 2614   0.605   1.704   2.539  0.1754 -0.0632 -0.1599
  872SOL    HW1 2615   0.624   1.679   2.638  0.2530  0.2956  0.0952
  872SOL    HW2 2616   0.607   1.808   2.531  0.6260 -0.3421  1.2600
  873SOL     OW 2617   0.395   2.690   1.977  0.7618 -0.0107 -0.0079
  873SOL    HW1 2618   0.413   2.590   2.000 -0.0243 -1.6036 -0.7020
  873SOL    HW2 2619   0.383   2.704   1.872  0.2716 -0.9712 -0.4827
  874SOL     OW 2620   1.216   0.818   2.140 -0.3942  0.7088  0.4184
  874SOL    HW1 2621   1.319   0.811   2.138  1.6893  1.0410  0.9737
  874SOL    HW2 2622   1.177   0.739   2.198 -0.6514 -0.8865  1.6574
  875SOL     OW 2623   2.605   2.878   1.174 -0.6625  0.6267 -0.1192
  875SOL    HW1 2624   2.677   2.935   1.228  1.7110  0.4126  2.1044
  875SOL    HW2 2625   2.507   2.906   1.184  0.0026 -0.0724  1.8795
  876SOL     OW 2626   1.096   1.176   1.014 -0.2345 -0.1839 -0.4093
  876SOL    HW1 2627   1.144   1.146   1.101  0.4940 -0.3823 -1.4051
  876SOL    HW2 2628   1.163   1.224   0.953 -0.1679  1.1259 -1.1527
  877SOL     OW 2629   3.009   0.226   1.468  0.3358  0.3719 -0.0037
  877SOL    HW1 2630   2.967   0.305   1.419 -2.0765 -0.8310 -0.9599
  877SOL    HW2 2631   0.005   0.222   1.467 -1.2945 -3.2401 -0.6184
  878SOL     OW 2632   2.574   1.695   2.863 -0.1351 -0.2582 -0.2294
  878SOL    HW1 2633   2.645   1.721   2.932  0.0715  1.9264  2.7060
  878SOL    HW2 2634   2.590   1.599   2.830  0.5645 -2.3099 -1.6435
  879SOL     OW 2635   2.746   1.869   1.286  0.4922 -0.1863  0.1176
  879SOL    HW1 2636   2.738   1.869   1.387  3.0696 -0.7713 -1.5381
  879SOL    HW2 2637   2.845   1.858   1.254  0.0227 -0.7498 -2.1345
  880SOL     OW 2638   0.759   2.371   1.005 -0.5929 -0.2376  0.2019
  880SOL    HW1 2639   0.756   2.471   1.030 -2.5332 -0.0155 -0.1810
  880SOL    HW2 2640   0.801   2.350   0.911  1.2396 -1.0656 -0.7238
  881SOL     OW 2641   1.201   1.618   0.978  0.3370 -0.4631 -0.4051
  881SOL    HW1 2642   1.148   1.591   0.898 -0.4377 -0.9259  1.1702
  881SOL    HW2 2643   1.192   1.550   1.056 -0.8463  2.7442 -0.1070
  882SOL     OW 2644   2.763   0.940   2.481  0.4605 -0.4008  0.5821
  882SOL    HW1 2645   2.724   1.002   2.405 -0.1405  0.0145 -0.8607
  882SOL    HW2 2646   2.787   0.850   2.441 -0.6649  1.7545  1.0423
  883SOL     OW 2647   1.304   0.364   1.017  0.4210 -0.4944 -0.0851
  883SOL    HW1 2648   1.226   0.426   1.039  0.4446 -0.1585  3.2057
  883SOL    HW2 2649   1.280   0.274   0.975  1.8998  0.7155  0.9546
  884SOL     OW 2650   3.000   2.818   1.206 -0.2479 -0.3102 -0.3953
  884SOL    HW1 2651   3.037   2.894   1.150  0.9549 -1.5868  0.2080
  884SOL    HW2 2652   3.033   2.830   1.301 -0.7738 -0.7442 -1.2310
  885SOL     OW 2653   1.121   1.053   1.531  0.4835 -0.5382  0.2661
  885SOL    HW1 2654   1.040   1.116   1.537 -0.6228  2.8529  0.6577
  885SOL    HW2 2655   1.206   1.107   1.545 -0.6291 -0.1456  1.2706
  886SOL     OW 2656   1.118   0.957   2.868 -0.0352 -0.5393  0.2998
  886SOL    HW1 2657   1.060   0.998   2.940  0.3173 -4.2970  1.3269
  886SOL    HW2 2658   1.170   1.029   2.822 -0.9720  1.0819  1.6829
  887SOL     OW 2659   1.196   0.538   0.806 -0.0090  0.9004  0.1426
  887SOL    HW1 2660   1.183   0.636   0.803 -0.3783 -0.5972 -0.3081
  887SOL    HW2 2661   1.123   0.495   0.748 -2.2396 -0.8616  1.2942
  888SOL     OW 2662   2.011   1.234   1.760  0.4715  0.1525 -0.4168
  888SOL    HW1 2663   2.063   1.303   1.701 -0.0277  4.3981 -0.8117
  888SOL    HW2 2664   2.070   1.198   1.838 -0.4510 -0.5543  0.0302
  889SOL     OW 2665   2.877   2.275   1.315 -0.1227 -0.3663  0.2281
  889SOL    HW1 2666   2.939   2.325   1.250 -0.3366 -0.6439 -0.3353
  889SOL    HW2 2667   2.787   2.323   1.327  0.1465 -0.6881 -1.1558
  890SOL     OW 2668   1.472   2.018   0.527  0.0754  0.0854  0.3294
  890SOL    HW1 2669   1.472   2.044   0.626 -0.5203  0.0651  0.9309
  890SOL    HW2 2670   1.437   1.923   0.516  0.9684 -1.7984  0.5826
  891SOL     OW 2671   2.587   0.698   2.307  0.3685 -0.5517 -0.5293
  891SOL    HW1 2672   2.672   0.656   2.346  2.6914 -0.8294  0.2670
  891SOL    HW2 2673   2.566   0.646   2.221 -1.4963  2.8368  2.1905
  892SOL     OW 2674   0.331   2.830   1.744  0.1386  0.2462  0.6541
  892SOL    HW1 2675   0.305   2.926   1.733  0.3640 -1.9457  3.3634
  892SOL    HW2 2676   0.402   2.806   1.678 -2.0960 -0.6651 -3.3270
  893SOL     OW 2677   1.330   0.376   2.359 -0.4788 -0.0234 -0.7082
  893SOL    HW1 2678   1.306   0.336   2.454  0.0450 -1.8275  3.1344
  893SOL    HW2 2679   1.380   0.461   2.367 -2.1127 -2.3343  1.0060
  894SOL     OW 2680   2.629   0.637   0.767 -0.5887  0.7837  0.0075
  894SOL    HW1 2681   2.689   0.624   0.847  0.7829  2.3413 -2.7353
  894SOL    HW2 2682   2.574   0.721   0.778 -0.9758  0.5472  1.1437
  895SOL     OW 2683   1.725   1.721   2.188 -0.0233 -0.3714  0.7221
  895SOL    HW1 2684   1.679   1.637   2.220  0.9262  0.1948 -0.8894
  895SOL    HW2 2685   1.667   1.800   2.203 -1.3086  1.3391 -3.2129
  896SOL     OW 2686   1.780   0.388   1.359  0.4136  0.0946  1.0251
  896SOL    HW1 2687   1.859   0.323   1.363  0.9769 -0.5617  2.4048
  896SOL    HW2 2688   1.687   0.348   1.388  1.8454 -0.4051 -0.8740
  897SOL     OW 2689   0.716   1.843   1.781  0.7849  0.3527 -0.6888
  897SOL    HW1 2690   0.725   1.757   1.727 -0.9825  0.1748 -0.3918
  897SOL    HW2 2691   0.640   1.892   1.741  1.0771 -0.1972 -1.8076
  898SOL     OW 2692   1.979   1.720   2.067  0.8655 -0.2086  0.5292
  898SOL    HW1 2693   1.951   1.698   1.971  0.9102 -0.4179 -1.0311
  898SOL    HW2 2694   1.897   1.744   2.119  3.3018  2.5038 -1.5655
  899SOL     OW 2695   1.800   1.927   0.997 -0.0912  0.1327  0.0257
  899SOL    HW1 2696   1.891   1.908   0.955  1.5944  1.2097 -0.4333
  899SOL    HW2 2697   1.808   2.004   1.066 -0.3415 -1.2791 -1.0679
  900SOL     OW 2698   0.928   0.015   2.683  0.0815  0.3721 -0.1500
  900SOL    HW1 2699   0.940   3.043   2.751  0.4494  2.1245  0.3049
  900SOL    HW2 2700   1.014   0.026   2.628 -2.3398  0.4018  0.5819
  901SOL     OW 2701   1.236   1.368   2.319  0.5429 -0.8206 -0.6752
  901SOL    HW1 2702   1.216   1.444   2.384  0.7167  3.6763 -2.5210
  901SOL    HW2 2703   1.319   1.393   2.264  1.4578  0.7155  1.0728
  902SOL     OW 2704   2.091   0.519   3.019  0.4312 -0.4765 -0.6135
  902SOL    HW1 2705   2.140   0.579   2.956 -3.0969  0.6565 -0.1231
  902SOL    HW2 2706   2.146   0.498   3.102  0.3865 -0.2957 -0.7111
  903SOL     OW 2707   2.193   0.994   2.201  0.0151 -0.3685  0.5601
  903SOL    HW1 2708   2.293   0.970   2.193  3.9176 -0.3077 -0.9654
  903SOL    HW2 2709   2.172   1.021   2.292  1.4373 -0.5065 -4.0498
  904SOL     OW 2710   1.937   1.088   1.549 -0.0301  1.2386 -0.4422
  904SOL    HW1 2711   2.020   1.027   1.547  1.6831 -0.4161 -1.0100
  904SOL    HW2 2712   1.941   1.154   1.626  0.7183  1.4153 -2.8833
  905SOL     OW 2713   2.229   0.599   0.702 -0.4439 -0.0976 -0.2593
  905SOL    HW1 2714   2.267   0.503   0.715  1.4049 -0.5772  0.9242
  905SOL    HW2 2715   2.219   0.648   0.790 -0.4346 -0.0012  0.4028
  906SOL     OW 2716   2.401   1.979   0.646 -0.3225  0.1116 -0.0108
  906SOL    HW1 2717   2.399   1.893   0.589  2.3127  0.0282 -1.1106
  906SOL    HW2 2718   2.380   1.969   0.745  0.3491 -0.6624 -1.5713
  907SOL     OW 2719   1.495   3.079   0.438  0.1880  0.5135  0.3708
  907SOL    HW1 2720   1.461   0.064   0.466  0.6215  0.2772 -0.5892
  907SOL    HW2 2721   1.593   3.082   0.427  2.3341  0.9036  0.3234
  908SOL     OW 2722   1.599   2.199   2.359 -0.1536 -0.3086  0.0824
  908SOL    HW1 2723   1.564   2.248   2.279 -1.3520  1.7417 -2.0423
  908SOL    HW2 2724   1.632   2.270   2.425 -2.8615  1.2101 -0.3429
  909SOL     OW 2725   2.175   0.386   1.940  0.3431 -0.1322  0.2120
  909SOL    HW1 2726   2.240   0.393   2.021  0.2976  0.6102  1.4538
  909SOL    HW2 2727   2.153   0.476   1.904 -1.3566 -2.7841  0.1722
  910SOL     OW 2728   1.144   0.028   2.538  0.4192 -0.5637  0.4498
  910SOL    HW1 2729   1.165   0.124   2.514  0.7492 -1.6837 -0.6353
  910SOL    HW2 2730   1.212   3.102   2.606  0.3362 -0.5523  1.4746
  911SOL     OW 2731   2.833   1.158   2.862 -0.1417 -0.5403 -0.2750
  911SOL    HW1 2732   2.755   1.105   2.899  0.2943 -0.2234 -2.1150
  911SOL    HW2 2733   2.839   1.248   2.909  1.5734  0.8290 -1.1693
  912SOL     OW 2734   3.093   2.169   1.679 -0.4799 -0.1083 -0.0396
  912SOL    HW1 2735   3.045   2.082   1.662 -0.4493 -0.2654  0.4756
  912SOL    HW2 2736   0.033   2.180   1.771 -1.2841 -0.0720 -1.8913
  913SOL     OW 2737   2.599   1.812   2.611 -0.0964 -0.7551 -0.7865
  913SOL    HW1 2738   2.510   1.798   2.570  2.3510 -3.5014  2.2416
  913SOL    HW2 2739   2.604   1.761   2.699 -0.2054  1.4440  1.9446
  914SOL     OW 2740   2.128   1.633   0.707  0.1330  0.2120  0.5833
  914SOL    HW1 2741   2.093   1.598   0.614 -1.5566  1.0529 -1.8818
  914SOL    HW2 2742   2.074   1.716   0.744 -2.1753 -1.4233 -2.1721
  915SOL     OW 2743   0.261   2.835   2.213 -0.1543 -0.2026 -0.0118
  915SOL    HW1 2744   0.322   2.795   2.288  3.7160 -2.7935  3.3626
  915SOL    HW2 2745   0.307   2.827   2.123 -0.3734  0.3078  1.5994
  916SOL     OW 2746   0.652   2.871   0.846 -0.1920 -0.3831  0.0740
  916SOL    HW1 2747   0.739   2.866   0.903  2.0799 -2.8758 -2.8152
  916SOL    HW2 2748   0.664   2.949   0.776 -1.1506  4.7342 -2.5928
  917SOL     OW 2749   2.457   0.627   2.726 -0.0706 -0.3061  0.9117
  917SOL    HW1 2750   2.380   0.660   2.785  1.4304 -2.1605 -0.7786
  917SOL    HW2 2751   2.449   0.672   2.634  2.1950 -0.6017  2.9339
  918SOL     OW 2752   1.675   2.442   2.732 -0.1116 -1.1695 -0.1703
  918SOL    HW1 2753   1.745   2.468   2.798  2.5510  1.4975  0.0722
  918SOL    HW2 2754   1.719   2.385   2.659 -0.0089 -0.3049 -0.7011
  919SOL     OW 2755   1.792   2.172   1.121  0.1963 -0.5273 -0.0707
  919SOL    HW1 2756   1.817   2.173   1.223 -2.2733  0.9773 -2.4067
  919SOL    HW2 2757   1.693   2.151   1.105  1.4681  2.1676  1.4422
  920SOL     OW 2758   1.381   0.055   2.264  0.1634  0.1723  0.4315
  920SOL    HW1 2759   1.418   0.121   2.336 -2.2581 -0.5440  1.8081
  920SOL    HW2 2760   1.385   3.065   2.300  1.6053  1.3662  1.2037
  921SOL     OW 2761   0.256   0.872   2.534  0.1974  0.4463  0.3544
  921SOL    HW1 2762   0.344   0.842   2.491  1.2569 -2.3832 -1.3396
  921SOL    HW2 2763   0.219   0.798   2.586 -1.4929  3.1830  0.5338
  922SOL     OW 2764   3.015   1.853   1.244  0.0826 -0.2062  0.0651
  922SOL    HW1 2765   3.052   1.949   1.253  0.7807  0.1832 -0.8486
  922SOL    HW2 2766   3.021   1.801   1.331  0.4474  0.3077 -1.5316
  923SOL     OW 2767   0.269   1.579   2.264  0.0617  0.0506 -0.0471
  923SOL    HW1 2768   0.212   1.657   2.229  1.6272  0.9175 -1.8349
  923SOL    HW2 2769   0.327   1.547   2.184 -2.2524 -0.8853 -4.2151
  924SOL     OW 2770   1.451   0.123   2.002  0.3774 -0.0115 -0.5526
  924SOL    HW1 2771   1.464   0.050   1.925 -3.0103 -2.5662 -2.5172
  924SOL    HW2 2772   1.407   0.077   2.084 -0.6838 -0.6578  1.0951
  925SOL     OW 2773   3.053   1.489   0.693  0.1797 -0.1883 -0.1477
  925SOL    HW1 2774   3.074   1.566   0.756  0.2078  2.8484  0.0198
  925SOL    HW2 2775   3.092   1.397   0.716  1.7559 -1.1816 -4.1364
  926SOL     OW 2776   2.427   0.751   1.093  0.0752  0.0810  0.5916
  926SOL    HW1 2777   2.449   0.656   1.056  0.8163 -0.5978  1.6484
  926SOL    HW2 2778   2.488   0.777   1.171  0.7004  2.1222 -0.1853
  927SOL     OW 2779   1.671   0.656   1.087 -0.0956  0.1493  0.5472
  927SOL    HW1 2780   1.652   0.739   1.037 -1.5508 -3.7874  2.1120
  927SOL    HW2 2781   1.600   0.584   1.062  0.5177 -3.1550  0.9399
  928SOL     OW 2782   2.966   0.810   2.284  0.0576 -0.1524  0.3194
  928SOL    HW1 2783   3.022   0.864   2.347 -0.9539 -0.7132 -1.2053
  928SOL    HW2 2784   3.028   0.766   2.219 -1.5312  0.7777  0.0275
  929SOL     OW 2785   2.218   1.153   1.129  0.1801 -0.4888  0.3490
  929SOL    HW1 2786   2.307   1.127   1.092 -0.3981  1.2782 -2.1773
  929SOL    HW2 2787   2.146   1.142   1.052 -0.8629 -0.9043 -2.2523
  930SOL     OW 2788   1.967   2.428   1.090  0.2942  0.2070 -0.4785
  930SOL    HW1 2789   1.989   2.422   0.990  0.4796  0.4588  0.2245
  930SOL    HW2 2790   1.902   2.350   1.112  1.0175  0.3129 -0.6883
  931SOL     OW 2791   1.800   1.175   1.078  0.0959  0.4595  0.1643
  931SOL    HW1 2792   1.786   1.211   0.984  1.4218 -0.9135  0.4146
  931SOL    HW2 2793   1.880   1.111   1.081 -4.2492  1.0824  0.0889
  932SOL     OW 2794   3.025   0.832   1.669  0.3781  0.3832  0.6873
  932SOL    HW1 2795   2.958   0.841   1.593  0.6667  1.2559 -2.9180
  932SOL    HW2 2796   3.046   0.924   1.706  0.0668 -1.5816 -0.6111
  933SOL     OW 2797   2.162   1.732   1.682 -0.5915 -0.5264  0.3244
  933SOL    HW1 2798   2.074   1.722   1.731  2.4881 -0.9848 -0.6641
  933SOL    HW2 2799   2.239   1.754   1.744 -3.5487 -2.0508 -2.8460
  934SOL     OW 2800   1.397   2.719   1.806 -0.0168  0.8949  0.6881
  934SOL    HW1 2801   1.320   2.692   1.743  2.6853  0.5194  1.7440
  934SOL    HW2 2802   1.409   2.820   1.809 -0.6228  0.5563 -1.9113
  935SOL     OW 2803   0.003   0.932   1.366 -0.4740 -0.2857 -0.2848
  935SOL    HW1 2804   3.084   0.899   1.462 -0.1145  0.3706 -1.1655
  935SOL    HW2 2805   3.032   0.946   1.298  0.1703  2.5523 -3.0173
  936SOL     OW 2806   2.728   0.644   1.308 -0.6999  0.6749 -0.6928
  936SOL    HW1 2807   2.651   0.589   1.338 -2.2945  0.6741 -1.9285
  936SOL    HW2 2808   2.819   0.600   1.334  1.4354 -1.6646  0.4461
  937SOL     OW 2809   0.640   0.086   1.419  0.6531 -0.8231 -0.1249
  937SOL    HW1 2810   0.706   0.115   1.492  1.0644 -0.0393 -0.3077
  937SOL    HW2 2811   0.656   3.091   1.399  0.3545 -2.0636  3.3080
  938SOL     OW 2812   0.419   2.857   0.995  0.6788  0.3540 -0.0292
  938SOL    HW1 2813   0.495   2.850   0.929 -3.0627 -1.0996  0.5086
  938SOL    HW2 2814   0.334   2.815   0.952 -0.2903  0.2226 -0.4792
  939SOL     OW 2815   2.789   2.144   2.836  0.0648 -0.5488  0.9283
  939SOL    HW1 2816   2.860   2.131   2.766 -5.1575  0.4874 -1.2862
  939SOL    HW2 2817   2.744   2.237   2.819  0.9411  1.6418  0.8292
  940SOL     OW 2818   1.775   1.770   3.103 -0.3062 -0.2628 -0.5257
  940SOL    HW1 2819   1.874   1.772   0.020 -3.0147  0.5579 -1.4265
  940SOL    HW2 2820   1.752   1.795   3.005 -0.1903  0.4505  1.7084
  941SOL     OW 2821   1.632   2.864   0.658 -0.1444  0.4347 -0.5213
  941SOL    HW1 2822   1.592   2.768   0.660  1.4816  0.8324  1.6355
  941SOL    HW2 2823   1.734   2.869   0.649  1.7383 -0.2831  0.8961
  942SOL     OW 2824   2.177   1.698   1.041  0.0324 -0.2832 -0.6368
  942SOL    HW1 2825   2.185   1.600   1.070  0.8017 -0.6243 -0.0897
  942SOL    HW2 2826   2.267   1.739   1.018  0.6479  2.3390  0.2381
  943SOL     OW 2827   2.052   0.673   1.589  0.0181 -0.3336 -0.1062
  943SOL    HW1 2828   1.959   0.649   1.563 -0.4556 -1.2676  1.7520
  943SOL    HW2 2829   2.096   0.723   1.516 -0.4300 -1.1598  1.1597
  944SOL     OW 2830   1.418   0.667   1.822 -0.5549  0.1106 -0.1918
  944SOL    HW1 2831   1.359   0.750   1.815 -0.9678 -1.1365  0.2338
  944SOL    HW2 2832   1.516   0.682   1.790  2.8462 -0.8084 -1.9689
  945SOL     OW 2833   2.246   2.865   1.401  0.1777  0.0529 -0.2495
  945SOL    HW1 2834   2.284   2.894   1.314 -2.5458 -1.4372  4.0261
  945SOL    HW2 2835   2.185   2.936   1.441  0.5202  1.2478  0.8153
  946SOL     OW 2836   0.940   1.745   0.654 -0.5868  0.2389  0.0815
  946SOL    HW1 2837   1.017   1.811   0.632 -1.4827 -0.7885 -0.3922
  946SOL    HW2 2838   0.876   1.733   0.577  0.3150  0.0640 -2.9023
  947SOL     OW 2839   1.184   2.595   1.054 -0.0574 -0.4461  0.4598
  947SOL    HW1 2840   1.237   2.523   0.999  1.6991  0.8323 -1.5259
  947SOL    HW2 2841   1.095   2.559   1.090  0.6148 -0.5120  2.6583
  948SOL     OW 2842   0.368   1.703   1.406  0.4231 -0.1559  0.1146
  948SOL    HW1 2843   0.322   1.767   1.343  1.3011 -1.5077 -1.1392
  948SOL    HW2 2844   0.319   1.611   1.411 -0.5530 -0.1143 -0.3513
  949SOL     OW 2845   0.617   1.177   1.748  0.1091  0.4324  0.4514
  949SOL    HW1 2846   0.567   1.122   1.818 -2.6528  0.8959  0.8098
  949SOL    HW2 2847   0.708   1.206   1.789  2.0823  1.7251  1.7488
  950SOL     OW 2848   0.485   0.684   1.192  0.1348  0.4865  0.2017
  950SOL    HW1 2849   0.546   0.731   1.257 -1.2318  0.9965  1.1124
  950SOL    HW2 2850   0.388   0.705   1.210  1.2747 -2.7585  0.2787
  951SOL     OW 2851   0.960   2.058   2.068 -0.4527 -0.3457 -0.3431
  951SOL    HW1 2852   0.962   2.014   2.156  0.0540  0.6990  0.7800
  951SOL    HW2 2853   1.009   2.149   2.073  0.4700  2.4907  1.0232
  952SOL     OW 2854   1.290   1.677   0.003 -0.0188  0.5173 -0.5287
  952SOL    HW1 2855   1.388   1.653   0.023  0.1072  0.8982 -2.2934
  952SOL    HW2 2856   1.234   1.596   0.030 -0.7624  1.3686 -0.6268
  953SOL     OW 2857   1.010   2.890   2.827  0.2853  0.1107  0.0815
  953SOL    HW1 2858   0.930   2.826   2.836 -4.5059 -2.2007  2.2411
  953SOL    HW2 2859   1.077   2.849   2.762 -0.8087  0.3487 -2.0585
  954SOL     OW 2860   1.785   1.255   3.014  0.3190  0.1637 -0.3953
  954SOL    HW1 2861   1.711   1.204   3.066  1.9309 -0.4592  2.1671
  954SOL    HW2 2862   1.817   1.331   3.065 -1.1380 -3.3442  0.7087
  955SOL     OW 2863   0.199   2.645   3.012 -0.3358 -0.6564 -0.2653
  955SOL    HW1 2864   0.190   2.737   3.057 -0.8145 -2.0224  0.3702
  955SOL    HW2 2865   0.133   2.634   2.937  0.9069 -0.3217 -2.4964
  956SOL     OW 2866   1.284   0.687   1.445  0.1077  0.2230 -0.2838
  956SOL    HW1 2867   1.280   0.669   1.344 -0.4301  0.0810  0.7359
  956SOL    HW2 2868   1.191   0.704   1.480 -1.4453  1.5060  0.2982
  957SOL     OW 2869   1.595   1.907   1.845  0.0721  0.0579 -0.6490
  957SOL    HW1 2870   1.669   1.974   1.866  3.3707 -0.2416 -2.3203
  957SOL    HW2 2871   1.512   1.937   1.892 -0.8637  0.3317  1.1093
  958SOL     OW 2872   1.261   2.084   1.425  0.2627 -0.9535 -0.3361
  958SOL    HW1 2873   1.337   2.089   1.491  1.1733  1.4476  0.6977
  958SOL    HW2 2874   1.288   2.113   1.335 -0.0349  0.6932 -0.4739
  959SOL     OW 2875   1.561   1.100   1.179 -0.5825  0.5898 -0.0432
  959SOL    HW1 2876   1.659   1.112   1.144 -0.2042  1.2871  0.5605
  959SOL    HW2 2877   1.521   1.008   1.150  0.1953 -1.1918 -1.2074
  960SOL     OW 2878   0.347   1.308   2.910  0.2326 -0.1643  0.5649
  960SOL    HW1 2879   0.383   1.390   2.961  2.2377 -1.9685  0.0010
  960SOL    HW2 2880   0.413   1.231   2.912 -1.3005  0.1970  0.3047
  961SOL     OW 2881   0.853   1.575   1.858  0.0716  0.4504 -0.0630
  961SOL    HW1 2882   0.781   1.560   1.930 -2.1921 -0.5261 -0.0960
  961SOL    HW2 2883   0.913   1.655   1.883 -0.0802  0.5032  1.3419
  962SOL     OW 2884   1.363   1.777   0.489 -0.1237  0.1242  0.3108
  962SOL    HW1 2885   1.322   1.761   0.581 -1.2977 -0.0104  0.7102
  962SOL    HW2 2886   1.287   1.797   0.421 -2.3103  0.7463  0.1807
  963SOL     OW 2887   1.408   1.703   2.589 -0.0884 -0.3991  0.0923
  963SOL    HW1 2888   1.361   1.791   2.576 -1.9523 -2.2317  1.0753
  963SOL    HW2 2889   1.350   1.626   2.589  0.5474 -0.6708  0.0996
  964SOL     OW 2890   0.627   0.213   0.310 -0.1757  0.3457  0.2864
  964SOL    HW1 2891   0.565   0.265   0.367  1.4608 -2.1220 -1.8769
  964SOL    HW2 2892   0.677   0.149   0.370  0.9994 -1.4568 -0.6478
  965SOL     OW 2893   0.808   2.630   1.014 -0.4665  0.0590 -0.3007
  965SOL    HW1 2894   0.832   2.644   0.915  0.7580 -0.8575 -0.3580
  965SOL    HW2 2895   0.795   2.722   1.057 -3.1996 -0.9051 -0.8770
  966SOL     OW 2896   0.431   2.079   2.742  0.2275 -0.3501 -0.2538
  966SOL    HW1 2897   0.359   2.116   2.683 -0.3791 -1.5601  1.7370
  966SOL    HW2 2898   0.383   2.049   2.832  2.4341 -0.2729  2.2800
  967SOL     OW 2899   0.152   2.988   2.741 -0.5287 -0.1693  0.2949
  967SOL    HW1 2900   0.210   3.041   2.673  2.4910  0.4362 -1.9107
  967SOL    HW2 2901   0.053   2.975   2.717  0.0812 -1.6823 -1.7530
  968SOL     OW 2902   2.249   0.517   0.158  0.3005  0.5656 -0.2341
  968SOL    HW1 2903   2.333   0.487   0.213  0.9885  0.8433 -0.1062
  968SOL    HW2 2904   2.226   0.616   0.176 -0.3069  1.4672  0.1093
  969SOL     OW 2905   0.302   1.144   1.900  0.0394 -0.2725  0.3736
  969SOL    HW1 2906   0.252   1.148   1.808  2.1504 -2.1174  0.3782
  969SOL    HW2 2907   0.362   1.063   1.904 -1.1720  1.4406 -4.2660
  970SOL     OW 2908   2.705   1.406   1.516  0.2711  0.0072  0.1802
  970SOL    HW1 2909   2.725   1.368   1.607  2.2447 -1.4539  0.8119
  970SOL    HW2 2910   2.662   1.333   1.461 -2.5202 -0.1100 -0.2933
  971SOL     OW 2911   2.116   0.106   1.050  0.0047  0.5369  0.5225
  971SOL    HW1 2912   2.148   0.153   0.967  1.1802  1.7176  0.4578
  971SOL    HW2 2913   2.097   0.001   1.039  1.9305 -1.7252  3.6187
  972SOL     OW 2914   3.000   2.984   1.841  0.6070  0.3628  0.4571
  972SOL    HW1 2915   3.083   2.935   1.874 -2.3648 -1.6430 -1.5312
  972SOL    HW2 2916   2.948   2.939   1.765  1.0092  0.1606 -1.0745
  973SOL     OW 2917   0.194   0.575   3.090 -0.0442  0.1056 -0.2560
  973SOL    HW1 2918   0.251   0.627   0.053  1.3082 -0.4961  0.0856
  973SOL    HW2 2919   0.243   0.556   3.007 -0.0081  0.2992  3.0253
  974SOL     OW 2920   1.864   1.394   2.225  0.0235  0.3125 -0.3873
  974SOL    HW1 2921   1.950   1.427   2.265 -0.0201  1.1897  0.3020
  974SOL    HW2 2922   1.871   1.393   2.121  0.6966 -0.8207  0.2529
  975SOL     OW 2923   2.845   2.855   1.655  0.0185 -0.0893 -0.0292
  975SOL    HW1 2924   2.881   2.927   1.593  0.0572  0.3196  0.4650
  975SOL    HW2 2925   2.831   2.766   1.602 -0.9203 -1.4200 -0.2539
  976SOL     OW 2926   0.380   2.184   2.355  0.3989 -0.4600  0.6349
  976SOL    HW1 2927   0.479   2.175   2.359 -1.2148 -0.5982  1.7218
  976SOL    HW2 2928   0.349   2.109   2.296 -1.2462 -0.0517 -0.6272
  977SOL     OW 2929   1.141   2.787   0.464  0.3841  0.0529 -0.6555
  977SOL    HW1 2930   1.083   2.724   0.403 -2.0961 -3.1626 -1.6821
  977SOL    HW2 2931   1.209   2.835   0.412 -2.4437 -2.1229  0.1261
  978SOL     OW 2932   0.080   1.630   2.471 -0.7378  0.3028  0.0306
  978SOL    HW1 2933   0.162   1.629   2.411 -0.6371  0.3858 -0.7803
  978SOL    HW2 2934   0.081   1.706   2.535  0.2059 -0.5941 -3.0300
  979SOL     OW 2935   1.585   2.350   1.584  0.5911  0.1155 -0.4929
  979SOL    HW1 2936   1.542   2.365   1.677  1.0601 -0.2655 -0.5531
  979SOL    HW2 2937   1.681   2.378   1.577 -0.6369 -0.3497  1.1272
  980SOL     OW 2938   0.609   1.661   2.806  0.2404 -0.1095 -0.7781
  980SOL    HW1 2939   0.618   1.558   2.809  0.5024 -0.7124  1.5599
  980SOL    HW2 2940   0.536   1.692   2.869 -0.5962  0.2652 -0.9310
  981SOL     OW 2941   2.260   0.003   2.365  0.1381  0.0533  0.3021
  981SOL    HW1 2942   2.247   3.057   2.281  2.4479 -0.0349 -2.4406
  981SOL    HW2 2943   2.348   3.081   2.406  1.2651  2.1749 -1.8660
  982SOL     OW 2944   3.008   0.510   2.773 -0.5001  0.1559 -0.5096
  982SOL    HW1 2945   2.968   0.581   2.840 -1.4985  0.1746  1.6842
  982SOL    HW2 2946   2.936   0.446   2.744  0.9263  0.4291  2.2071
  983SOL     OW 2947   1.830   1.336   1.949  0.1847 -0.3464 -0.1542
  983SOL    HW1 2948   1.910   1.320   1.892 -0.1348 -0.2578  1.9360
  983SOL    HW2 2949   1.751   1.281   1.916  1.4248 -1.8775  1.1143
  984SOL     OW 2950   1.235   0.461   1.817 -0.0546 -0.2088 -0.2490
  984SOL    HW1 2951   1.254   0.414   1.906  0.4762  0.5408  2.4668
  984SOL    HW2 2952   1.306   0.532   1.803 -1.7603 -1.0458  1.3463
  985SOL     OW 2953   1.712   1.522   1.659  0.4004  0.2201 -0.3338
  985SOL    HW1 2954   1.650   1.600   1.628 -0.1138 -0.3930 -1.2691
  985SOL    HW2 2955   1.805   1.518   1.609  3.5523 -0.5023 -1.3132
  986SOL     OW 2956   2.153   0.412   1.516 -0.4715  0.1540  0.4596
  986SOL    HW1 2957   2.219   0.384   1.588  0.2401  2.6095 -0.1515
  986SOL    HW2 2958   2.111   0.499   1.546  0.5945 -0.9919 -0.3597
  987SOL     OW 2959   2.288   0.440   1.296  0.1124  0.1261 -0.3412
  987SOL    HW1 2960   2.235   0.402   1.376 -1.5679  1.3458 -0.6341
  987SOL    HW2 2961   2.264   0.541   1.296  1.3902  2.4395  0.6445
  988SOL     OW 2962   2.771   0.882   2.077 -0.7022 -1.0315 -0.3264
  988SOL    HW1 2963   2.699   0.808   2.066  1.3906  1.0172  1.7810
  988SOL    HW2 2964   2.829   0.865   2.157 -2.0305  2.3813 -0.5583
  989SOL     OW 2965   2.163   1.895   2.838  0.3190 -0.6321  0.6808
  989SOL    HW1 2966   2.100   1.917   2.763 -0.1415 -0.4936  2.2579
  989SOL    HW2 2967   2.152   1.964   2.913 -0.0785 -0.4963 -0.4617
  990SOL     OW 2968   1.337   0.387   2.874 -0.0320  0.7587 -0.0163
  990SOL    HW1 2969   1.244   0.344   2.863  1.9440 -3.5189 -3.4342
  990SOL    HW2 2970   1.354   0.469   2.816  2.6832  0.2922 -0.2939
  991SOL     OW 2971   1.345   0.921   0.234 -0.0248  0.4459  0.3361
  991SOL    HW1 2972   1.414   0.899   0.310 -0.1190 -0.9529  0.0965
  991SOL    HW2 2973   1.344   0.835   0.176 -0.5543 -1.4371 -0.5441
  992SOL     OW 2974   2.302   1.687   2.763 -0.4852 -0.2202  0.4908
  992SOL    HW1 2975   2.392   1.680   2.814  0.6796 -0.4669  0.0038
  992SOL    HW2 2976   2.246   1.767   2.801 -1.0894  3.3508 -0.7489
  993SOL     OW 2977   0.356   0.404   0.246 -0.5190  0.1739  0.0187
  993SOL    HW1 2978   0.308   0.317   0.273  1.3629  3.0785 -0.5360
  993SOL    HW2 2979   0.313   0.485   0.296  1.2976  1.9849 -0.1421
  994SOL     OW 2980   0.184   1.794   2.094  0.0036  0.0664  0.1615
  994SOL    HW1 2981   0.081   1.799   2.064 -1.4717 -0.9093  0.1946
  994SOL    HW2 2982   0.240   1.738   2.031 -1.0066  0.0328  0.6213
  995SOL     OW 2983   1.934   1.269   2.568 -0.1693 -0.0353  0.1412
  995SOL    HW1 2984   1.915   1.366   2.556  0.0267  1.3420  0.4151
  995SOL    HW2 2985   2.032   1.251   2.579  0.0822  1.2514  0.2954
  996SOL     OW 2986   1.847   1.546   2.552 -0.4493  0.0037 -0.4528
  996SOL    HW1 2987   1.842   1.599   2.471 -0.3769 -0.7157 -0.5895
  996SOL    HW2 2988   1.776   1.567   2.623  0.0291  0.7247  1.3228
  997SOL     OW 2989   2.236   1.439   1.741  0.5362  0.1286 -0.6790
  997SOL    HW1 2990   2.293   1.457   1.824 -1.7094 -0.2368 -1.5213
  997SOL    HW2 2991   2.218   1.527   1.699 -0.9500 -5.4695  1.9180
  998SOL     OW 2992   2.549   1.534   0.050  0.2755 -0.2290 -0.0424
  998SOL    HW1 2993   2.540   1.434   0.027 -0.2196  1.8088  1.6724
  998SOL    HW2 2994   2.645   1.560   0.071  0.6924 -2.0792  0.7657
  999SOL     OW 2995   2.573   2.651   0.426 -0.2533 -0.1854 -0.1765
  999SOL    HW1 2996   2.594   2.572   0.487 -0.9309  3.3675  0.5500
  999SOL    HW2 2997   2.484   2.629   0.388 -0.0796 -1.5302  0.0547
 1000SOL     OW 2998   0.469   0.062   1.924 -0.1986  0.2069  0.8105
 1000SOL    HW1 2999   0.415   3.105   1.870  3.9436  2.1987  0.0967
 1000SOL    HW2 3000   0.425   0.149   1.908 -3.1352 -3.9464  1.7842
   3.10514   3.10514   3.10514
