1000 SPC/Fw water molecules t= 493.00000 step= 493000
 3000
    1SOL     OW    1   2.835   2.851   1.115 -0.4306 -0.5874 -0.5893
    1SOL    HW1    2   2.770   2.919   1.124  2.5733 -4.2239  0.5224
    1SOL    HW2    3   2.878   2.862   1.023 -1.0446 -0.9136  0.8586
    2SOL     OW    4   2.907   2.461   2.772  0.0880  0.1205 -0.7661
    2SOL    HW1    5   2.968   2.526   2.821 -1.1524 -2.7835  0.1391
    2SOL    HW2    6   2.923   2.373   2.820 -2.2028 -0.6849 -1.3181
    3SOL     OW    7   1.066   1.786   0.215 -0.1982 -0.2121 -0.4285
    3SOL    HW1    8   1.069   1.737   0.304 -0.4043  0.4450 -0.6220
    3SOL    HW2    9   1.121   1.869   0.224 -2.2206 -1.5986 -2.1151
    4SOL     OW   10   1.449   2.741   2.578  0.2000 -0.3861 -0.4512
    4SOL    HW1   11   1.500   2.820   2.613  0.6954 -3.4333 -1.4642
    4SOL    HW2   12   1.406   2.759   2.487  2.1726  0.0619  0.5617
    5SOL     OW   13   1.908   0.121   2.909 -0.4698 -0.0931  0.0544
    5SOL    HW1   14   1.981   0.054   2.881  0.4256  1.4551 -1.2889
    5SOL    HW2   15   1.908   0.141   3.008 -1.0360  0.3985  0.2329
    6SOL     OW   16   3.056   1.488   0.861 -0.1442  0.2930 -0.3980
    6SOL    HW1   17   0.012   1.440   0.954  2.2635 -1.4227  1.9276
    6SOL    HW2   18   0.072   1.475   0.794  0.4016 -1.8300 -1.5910
    7SOL     OW   19   1.074   1.670   0.452 -0.4273 -0.2657  0.7324
    7SOL    HW1   20   1.072   1.573   0.433 -0.4100  1.4967  1.5037
    7SOL    HW2   21   1.106   1.686   0.544  1.8121 -0.0837 -1.8551
    8SOL     OW   22   0.262   0.527   0.396 -0.3830  0.1940 -0.8865
    8SOL    HW1   23   0.236   0.427   0.403 -1.2729 -0.6057 -1.1503
    8SOL    HW2   24   0.201   0.582   0.459 -0.6274 -1.8664  0.6764
    9SOL     OW   25   0.230   2.543   1.584 -0.1580  0.0484  0.2401
    9SOL    HW1   26   0.248   2.642   1.598 -1.8357  0.7916  0.0871
    9SOL    HW2   27   0.189   2.529   1.488  0.7095 -1.0621 -1.9600
   10SOL     OW   28   1.389   1.753   0.419  0.0725 -0.2792 -0.0309
   10SOL    HW1   29   1.412   1.765   0.321 -0.2960 -1.9918 -0.0912
   10SOL    HW2   30   1.408   1.840   0.470  1.2077  0.4130  0.5176
   11SOL     OW   31   1.976   0.301   1.619  0.1717 -0.1236  0.1274
   11SOL    HW1   32   1.905   0.251   1.673 -1.6836 -0.8499 -2.1434
   11SOL    HW2   33   1.942   0.393   1.595 -0.6581 -0.4705 -0.3141
   12SOL     OW   34   0.214   0.727   2.192 -0.2155  0.1371 -0.3306
   12SOL    HW1   35   0.316   0.736   2.201  0.1214  1.0035  0.4100
   12SOL    HW2   36   0.179   0.638   2.229 -0.0421  0.0142  0.9503
   13SOL     OW   37   2.099   0.379   0.443  0.3026  0.0973 -0.0296
   13SOL    HW1   38   2.006   0.406   0.414 -0.1508  1.6012  0.8070
   13SOL    HW2   39   2.141   0.453   0.498 -0.3003 -1.7474 -0.1854
   14SOL     OW   40   2.318   2.339   2.976 -0.0280 -0.1251 -0.1921
   14SOL    HW1   41   2.228   2.302   3.010 -3.4200  0.1597  1.9394
   14SOL    HW2   42   2.307   2.356   2.875 -0.7008  0.5844 -0.7606
   15SOL     OW   43   2.569   3.014   2.723  0.3427  0.1506  0.1343
   15SOL    HW1   44   2.628   2.971   2.794 -0.1355  1.4310  2.5230
   15SOL    HW2   45   2.467   3.018   2.738 -0.1135 -2.5039 -1.7845
   16SOL     OW   46   0.071   0.655   1.209  0.0330 -0.0903  0.5980
   16SOL    HW1   47   0.044   0.674   1.111 -1.6212 -0.5994 -2.4131
   16SOL    HW2   48   0.063   0.742   1.266 -2.3608  0.5390 -3.2574
   17SOL     OW   49   0.577   0.437   1.285  0.1297  0.3401 -0.1151
   17SOL    HW1   50   0.604   0.454   1.189  0.3204 -0.2400 -3.5137
   17SOL    HW2   51   0.476   0.453   1.289  0.4042  1.8602 -1.9119
   18SOL     OW   52   2.871   0.154   0.668  0.0141 -0.3034  0.4646
   18SOL    HW1   53   2.927   0.073   0.634 -1.5963 -1.4360 -1.4141
   18SOL    HW2   54   2.918   0.241   0.677 -1.8693 -1.3521 -0.2338
   19SOL     OW   55   2.023   1.830   0.943 -0.0600  0.0391 -0.0368
   19SOL    HW1   56   2.096   1.830   1.012 -1.4330  3.2399  1.5132
   19SOL    HW2   57   2.054   1.783   0.858 -0.8040  1.4114  0.1959
   20SOL     OW   58   1.917   1.653   2.120  0.1363 -0.2755 -0.5608
   20SOL    HW1   59   1.830   1.610   2.147  1.9235 -1.0036 -0.9355
   20SOL    HW2   60   1.901   1.751   2.111 -0.9510  3.7333 -2.6892
   21SOL     OW   61   1.187   0.245   0.335 -0.6723 -1.1681  0.0553
   21SOL    HW1   62   1.139   0.191   0.263  1.2279 -0.8165  1.0408
   21SOL    HW2   63   1.283   0.208   0.353  2.6127 -1.3678  1.6417
   22SOL     OW   64   2.211   0.912   2.896  0.1641  0.3073  0.3529
   22SOL    HW1   65   2.254   0.820   2.923  2.7267 -1.6973  0.3803
   22SOL    HW2   66   2.205   0.922   2.792  0.9932  0.4667 -1.8135
   23SOL     OW   67   0.252   0.214   2.250  0.6042 -0.2557  0.3753
   23SOL    HW1   68   0.226   0.132   2.304 -0.9282 -3.6646 -1.4678
   23SOL    HW2   69   0.294   0.284   2.312 -1.8148 -0.6260 -0.1035
   24SOL     OW   70   2.214   2.310   0.876 -0.0587  0.2548 -0.1725
   24SOL    HW1   71   2.260   2.365   0.951  0.1333  3.1684 -3.7389
   24SOL    HW2   72   2.162   2.228   0.908  0.3903 -3.6524  1.2934
   25SOL     OW   73   1.640   0.371   0.210  0.8933 -0.0623  0.6100
   25SOL    HW1   74   1.642   0.284   0.157 -0.0376 -1.7110  0.7446
   25SOL    HW2   75   1.697   0.446   0.167 -0.7095  2.9353  0.6226
   26SOL     OW   76   1.235   2.731   2.975 -0.2212 -0.3239  0.0624
   26SOL    HW1   77   1.134   2.740   2.977  0.6507 -0.3886 -1.2482
   26SOL    HW2   78   1.260   2.633   2.956  0.0813 -2.1387  0.9755
   27SOL     OW   79   0.851   0.709   1.337 -0.3410  0.2146  0.0209
   27SOL    HW1   80   0.771   0.688   1.397  0.1536 -0.3015 -1.0338
   27SOL    HW2   81   0.830   0.786   1.276 -0.1677 -0.0066  0.5462
   28SOL     OW   82   0.792   2.010   1.510  0.1015 -0.1471 -0.2412
   28SOL    HW1   83   0.825   1.956   1.432  2.2651  2.0435  2.2546
   28SOL    HW2   84   0.777   1.948   1.592 -0.0470 -1.5304  0.0374
   29SOL     OW   85   2.471   0.529   0.756 -0.2309  0.4374  0.0135
   29SOL    HW1   86   2.497   0.474   0.838 -0.5518 -0.0632  0.9211
   29SOL    HW2   87   2.461   0.626   0.776 -1.8296 -2.7779 -0.7416
   30SOL     OW   88   1.329   0.206   1.451  0.5652 -0.0432 -0.0526
   30SOL    HW1   89   1.277   0.168   1.534  0.6047  0.3859  2.6846
   30SOL    HW2   90   1.341   0.136   1.378 -1.6227 -3.6748 -2.2129
   31SOL     OW   91   1.094   0.256   1.142 -0.4872  0.0109  0.1441
   31SOL    HW1   92   1.053   0.323   1.206  2.7515  0.1064 -0.7439
   31SOL    HW2   93   1.042   0.170   1.128 -1.7111 -0.4248 -1.7723
   32SOL     OW   94   2.246   0.939   2.075  0.0267  0.3273  0.1972
   32SOL    HW1   95   2.323   1.003   2.062 -0.2995 -1.1660 -0.7577
   32SOL    HW2   96   2.260   0.850   2.025  0.9784  0.7797  1.3208
   33SOL     OW   97   2.433   2.741   2.796 -0.0442 -0.3076 -0.0150
   33SOL    HW1   98   2.508   2.671   2.793 -0.5168  0.5386  0.0255
   33SOL    HW2   99   2.422   2.777   2.699 -1.6811  1.0482 -1.4733
   34SOL     OW  100   2.142   1.046   0.049 -0.2170 -0.0559  0.1280
   34SOL    HW1  101   2.190   1.034   0.143  0.5802  3.0336  1.9276
   34SOL    HW2  102   2.175   0.979   3.037  1.0258  0.6025  3.4818
   35SOL     OW  103   2.844   0.970   1.238 -0.2369  0.3349  0.0758
   35SOL    HW1  104   2.857   0.903   1.158 -0.0976  0.7906  0.5521
   35SOL    HW2  105   2.845   1.068   1.205  0.8102 -2.1534  1.1061
   36SOL     OW  106   2.252   2.392   2.724 -0.0642 -0.2880  0.0008
   36SOL    HW1  107   2.171   2.451   2.702 -0.4168 -1.1292 -1.6871
   36SOL    HW2  108   2.327   2.405   2.649  0.4167 -0.2804 -0.4111
   37SOL     OW  109   1.743   0.091   2.049 -0.3585 -0.2632  0.4400
   37SOL    HW1  110   1.748   0.109   1.947  0.4338  0.2906  0.0394
   37SOL    HW2  111   1.838   0.081   2.088 -1.6626  2.7236  3.4216
   38SOL     OW  112   1.325   1.544   2.317  0.1419  0.1344  0.3329
   38SOL    HW1  113   1.384   1.618   2.277  1.1905  0.7963 -0.0636
   38SOL    HW2  114   1.389   1.472   2.352  2.6063  2.9703  2.0906
   39SOL     OW  115   1.613   0.150   1.533  0.4341  0.1177 -0.0866
   39SOL    HW1  116   1.625   0.171   1.434 -2.4300  0.4922 -0.5447
   39SOL    HW2  117   1.521   0.180   1.554  3.2373 -0.1872 -3.9133
   40SOL     OW  118   0.787   2.056   0.281 -0.0404  0.3622  0.1386
   40SOL    HW1  119   0.737   1.971   0.245  0.6961 -4.7647  0.6974
   40SOL    HW2  120   0.731   2.123   0.328  0.6542 -4.2795  1.5129
   41SOL     OW  121   2.244   2.282   1.233  0.7091 -0.0709  0.6792
   41SOL    HW1  122   2.251   2.369   1.183  1.4583 -1.7152  0.1445
   41SOL    HW2  123   2.335   2.262   1.274 -1.3202 -0.3245 -0.7687
   42SOL     OW  124   2.741   2.764   0.308 -0.1185 -0.7551 -0.9794
   42SOL    HW1  125   2.653   2.817   0.309  0.9371 -0.0717 -1.7265
   42SOL    HW2  126   2.792   2.781   0.397 -0.8115 -0.4231  3.9509
   43SOL     OW  127   0.870   1.863   2.139  0.4200  0.0151  0.7487
   43SOL    HW1  128   0.931   1.940   2.118  1.8843 -0.6563 -0.9599
   43SOL    HW2  129   0.911   1.778   2.100 -1.0664  2.3946  2.3271
   44SOL     OW  130   1.701   2.988   1.195 -0.4232 -0.3952 -0.0054
   44SOL    HW1  131   1.763   0.008   1.205  2.2877 -0.1260  2.0987
   44SOL    HW2  132   1.670   2.954   1.289  0.7820 -2.9686  1.2979
   45SOL     OW  133   0.002   2.289   2.344  0.1938 -0.6077  0.3766
   45SOL    HW1  134   0.056   2.273   2.432  0.6792 -0.4096  2.8090
   45SOL    HW2  135   2.971   2.262   2.365 -0.8417  0.6488 -0.0446
   46SOL     OW  136   0.889   2.584   1.924  1.0150  0.0536  0.0008
   46SOL    HW1  137   0.833   2.646   1.984 -1.1989  2.3698  0.1512
   46SOL    HW2  138   0.893   2.491   1.966  1.5099  0.0283 -1.1905
   47SOL     OW  139   0.383   1.938   0.685 -0.1669  0.1326 -0.4728
   47SOL    HW1  140   0.389   2.040   0.693  1.5445 -2.9067  0.1601
   47SOL    HW2  141   0.430   1.902   0.597  1.7058 -0.9713  0.7834
   48SOL     OW  142   0.861   2.885   1.730  0.2802 -0.2966  0.3674
   48SOL    HW1  143   0.761   2.861   1.713  1.1106 -2.2067  0.3016
   48SOL    HW2  144   0.893   2.909   1.823 -1.7779  0.9395 -0.5639
   49SOL     OW  145   0.568   2.657   3.030  0.0445  0.1905 -0.2128
   49SOL    HW1  146   0.493   2.707   2.971 -1.7658 -1.0320 -4.7729
   49SOL    HW2  147   0.567   2.699   0.062  0.9274  0.3124  0.1327
   50SOL     OW  148   1.579   1.084   0.809  0.2592 -0.0953 -0.5632
   50SOL    HW1  149   1.498   1.030   0.843 -1.6667  1.4263  0.1982
   50SOL    HW2  150   1.658   1.045   0.862  0.5084  0.6942  1.1237
   51SOL     OW  151   1.828   2.958   0.932  0.2738 -0.1633  0.0853
   51SOL    HW1  152   1.787   2.865   0.912 -0.6280  2.6341 -0.4987
   51SOL    HW2  153   1.781   3.012   1.005 -2.8825  1.6216 -1.6701
   52SOL     OW  154   0.738   1.497   0.985  0.2195  0.7222  0.1592
   52SOL    HW1  155   0.642   1.509   0.953  2.5040  1.2972  0.4578
   52SOL    HW2  156   0.737   1.425   1.058  0.8299  1.1576  1.2262
   53SOL     OW  157   0.122   0.724   3.000 -0.8475 -0.3705 -0.0069
   53SOL    HW1  158   0.044   0.694   2.942  1.2224 -2.2199 -1.0748
   53SOL    HW2  159   0.116   0.684   0.033 -0.3404  0.7604  0.7929
   54SOL     OW  160   2.073   1.995   2.891  0.3293 -0.1012  0.2301
   54SOL    HW1  161   1.998   1.987   2.962 -1.4575  0.3753  0.4597
   54SOL    HW2  162   2.164   1.984   2.930 -0.4788  3.1707 -1.2530
   55SOL     OW  163   2.476   2.245   1.340 -0.2613 -0.0496 -0.0350
   55SOL    HW1  164   2.531   2.330   1.338  1.3261  1.3334 -0.0839
   55SOL    HW2  165   2.501   2.193   1.425 -3.9930 -2.5094 -0.1831
   56SOL     OW  166   1.649   1.076   1.427 -0.7493  0.5928 -0.5748
   56SOL    HW1  167   1.749   1.072   1.441  0.6270  0.6225  2.7739
   56SOL    HW2  168   1.620   1.173   1.418  2.0305  0.7082 -3.1222
   57SOL     OW  169   2.303   1.914   0.835 -0.2450 -0.1879 -0.5001
   57SOL    HW1  170   2.302   1.966   0.924 -0.5480  1.9016 -0.9098
   57SOL    HW2  171   2.389   1.917   0.784  0.2460  1.4229 -1.9663
   58SOL     OW  172   2.002   0.089   2.126 -0.6439 -0.0123  0.1925
   58SOL    HW1  173   2.049   0.145   2.197 -2.4775  0.0788  1.8855
   58SOL    HW2  174   2.036   0.107   2.033 -1.3068 -0.2006  1.2284
   59SOL     OW  175   1.357   0.374   2.387 -0.2176  0.0961  0.0772
   59SOL    HW1  176   1.341   0.275   2.359 -2.1212 -0.4052  1.4454
   59SOL    HW2  177   1.434   0.424   2.341  0.4487 -0.1080  1.0106
   60SOL     OW  178   1.619   1.965   0.094  0.0809  0.5541  0.0754
   60SOL    HW1  179   1.552   1.899   0.134  1.6656  1.2305 -0.4378
   60SOL    HW2  180   1.579   2.053   0.072  0.7712 -2.6038 -1.0395
   61SOL     OW  181   0.524   1.954   2.983 -0.1170  0.3826 -0.0379
   61SOL    HW1  182   0.576   1.885   2.930 -0.3430 -1.1596  0.3952
   61SOL    HW2  183   0.431   1.976   2.943  0.4257  3.4147 -1.0293
   62SOL     OW  184   1.326   2.395   1.308 -0.1687  0.6649  0.3492
   62SOL    HW1  185   1.248   2.455   1.279  1.9364  1.7434 -1.7494
   62SOL    HW2  186   1.287   2.317   1.365  1.7232  1.1732 -1.8180
   63SOL     OW  187   0.487   1.842   0.469 -0.0311  0.0506 -0.4094
   63SOL    HW1  188   0.557   1.768   0.496  2.5996 -1.1457 -0.1553
   63SOL    HW2  189   0.509   1.885   0.384 -1.3684  0.5797  2.4217
   64SOL     OW  190   1.851   1.705   2.435 -0.7975  0.2747  0.1349
   64SOL    HW1  191   1.939   1.719   2.488  1.0731  0.6948 -0.1047
   64SOL    HW2  192   1.848   1.780   2.369 -0.8363  0.1723  1.1780
   65SOL     OW  193   1.851   2.106   1.312  0.7397 -0.5355 -0.1487
   65SOL    HW1  194   1.803   2.124   1.223  1.2343  0.5485  3.0638
   65SOL    HW2  195   1.798   2.041   1.368  0.9986 -0.3629  0.6176
   66SOL     OW  196   2.593   0.163   0.558  0.1981 -0.0796 -0.1853
   66SOL    HW1  197   2.681   0.122   0.587  0.2282  2.7541 -1.0059
   66SOL    HW2  198   2.518   0.117   0.611  0.5176 -0.2412  1.1668
   67SOL     OW  199   2.007   2.621   1.150 -0.9110 -0.4127  0.0501
   67SOL    HW1  200   1.911   2.643   1.175 -0.1456 -0.2519  1.3313
   67SOL    HW2  201   2.047   2.705   1.103  1.6698  1.0671 -2.2126
   68SOL     OW  202   2.771   2.433   1.463 -0.5946  0.1660 -0.1284
   68SOL    HW1  203   2.700   2.505   1.502 -0.6345  0.3561  1.4754
   68SOL    HW2  204   2.743   2.409   1.370 -1.7065  4.2442  0.6541
   69SOL     OW  205   2.666   2.576   2.830  0.1715  0.1861  0.3505
   69SOL    HW1  206   2.754   2.583   2.776  0.2257  0.0320  1.6823
   69SOL    HW2  207   2.688   2.594   2.932  0.9706 -0.1144  2.6137
   70SOL     OW  208   1.247   1.851   2.141  0.0444 -0.0372 -0.1164
   70SOL    HW1  209   1.183   1.918   2.190 -0.2011  2.5622 -0.3595
   70SOL    HW2  210   1.335   1.838   2.192  2.4302 -0.9958  0.5959
   71SOL     OW  211   1.151   2.095   1.895 -0.4061  0.6785  0.5602
   71SOL    HW1  212   1.186   2.014   1.948  1.3288 -1.7052 -0.5175
   71SOL    HW2  213   1.205   2.182   1.904  0.4053 -0.8036  1.5651
   72SOL     OW  214   2.432   1.112   1.386  0.1618 -0.3558  0.1851
   72SOL    HW1  215   2.519   1.141   1.425 -0.4036 -0.8221 -0.8696
   72SOL    HW2  216   2.369   1.071   1.457 -2.2366  0.9517  2.1328
   73SOL     OW  217   0.772   2.024   2.345 -0.1840  0.4939  0.0438
   73SOL    HW1  218   0.804   1.970   2.263 -0.5600  2.2481 -3.4440
   73SOL    HW2  219   0.750   2.124   2.323 -0.0960  1.2304 -3.3444
   74SOL     OW  220   0.865   0.235   2.482 -0.0564  0.0104  0.4449
   74SOL    HW1  221   0.924   0.168   2.535 -0.5530  0.6146  1.9409
   74SOL    HW2  222   0.921   0.281   2.404  1.5238 -1.1312 -0.9767
   75SOL     OW  223   1.024   2.636   0.769 -0.5918  0.1981 -0.1218
   75SOL    HW1  224   1.073   2.716   0.799 -1.0560 -3.6991 -0.5275
   75SOL    HW2  225   1.001   2.646   0.671  0.4708 -0.3008  0.6139
   76SOL     OW  226   0.414   1.048   2.608  0.0795  0.2407 -0.1152
   76SOL    HW1  227   0.467   1.133   2.618 -2.6583  0.4720 -1.2317
   76SOL    HW2  228   0.369   1.020   2.694  1.5891 -0.6847 -0.4219
   77SOL     OW  229   0.590   2.583   0.651  0.5916  0.3382  0.0851
   77SOL    HW1  230   0.505   2.537   0.690 -0.1796 -1.7538 -1.6802
   77SOL    HW2  231   0.671   2.561   0.705 -2.3408 -0.7304 -2.0367
   78SOL     OW  232   2.645   0.929   2.579  0.0046 -0.5706 -0.1769
   78SOL    HW1  233   2.586   0.879   2.515  2.3577  0.6755  1.7242
   78SOL    HW2  234   2.587   0.968   2.648  1.1970 -1.9604 -1.5714
   79SOL     OW  235   1.061   1.438   2.299  0.2777  0.0341  0.0352
   79SOL    HW1  236   1.145   1.494   2.320  0.8212  0.6090 -2.3077
   79SOL    HW2  237   0.978   1.494   2.295  0.2856 -0.1652  0.8138
   80SOL     OW  238   2.120   0.874   1.490  0.6146  0.5522 -0.1410
   80SOL    HW1  239   2.135   0.864   1.391  0.4055  0.3168 -1.3981
   80SOL    HW2  240   2.210   0.890   1.535  1.3919  1.2024 -0.7205
   81SOL     OW  241   2.220   0.916   2.620  0.0530 -0.7067 -0.2291
   81SOL    HW1  242   2.130   0.965   2.620  0.6754  0.4080 -0.2648
   81SOL    HW2  243   2.235   0.882   2.527  1.9516  0.3213  1.2029
   82SOL     OW  244   2.307   1.978   1.522  0.5140  0.3295 -0.2364
   82SOL    HW1  245   2.249   2.028   1.449 -3.7455  0.5951  0.3269
   82SOL    HW2  246   2.254   1.908   1.575  0.1420  1.0032  1.1605
   83SOL     OW  247   1.648   2.965   0.310 -0.2759  0.3863  0.1701
   83SOL    HW1  248   1.556   2.923   0.332  1.9582 -0.0014  2.2520
   83SOL    HW2  249   1.669   2.980   0.210  1.4359  1.5526 -0.7484
   84SOL     OW  250   0.986   0.559   0.641  0.6332 -0.5565  0.7417
   84SOL    HW1  251   1.044   0.475   0.626  1.8912  1.2530  1.4244
   84SOL    HW2  252   0.945   0.566   0.732 -3.2845  2.0437  0.9702
   85SOL     OW  253   2.174   1.623   1.237 -0.2783  0.5112  0.0743
   85SOL    HW1  254   2.172   1.555   1.165 -0.3767  2.6948 -0.5410
   85SOL    HW2  255   2.220   1.583   1.315  0.5031  0.5623 -2.3661
   86SOL     OW  256   0.495   0.710   1.141  0.2400  0.0274 -0.3946
   86SOL    HW1  257   0.470   0.745   1.232  0.9123 -1.2747  0.0330
   86SOL    HW2  258   0.506   0.784   1.070 -1.8963  1.0917 -1.4033
   87SOL     OW  259   0.039   1.992   2.409 -0.0272  0.2005  0.2577
   87SOL    HW1  260   3.058   1.896   2.409 -0.9120 -0.7489  0.6997
   87SOL    HW2  261   0.109   1.995   2.336 -1.0144 -1.0515  0.2194
   88SOL     OW  262   0.474   3.059   2.949  0.7231  0.6010  0.0401
   88SOL    HW1  263   0.529   0.060   2.890 -0.6754 -0.1056  0.5643
   88SOL    HW2  264   0.479   2.962   2.915 -0.9704  0.1437  0.9873
   89SOL     OW  265   1.526   0.524   1.190  0.1868  0.1300 -0.0097
   89SOL    HW1  266   1.508   0.599   1.124  2.2344  0.5277  1.7629
   89SOL    HW2  267   1.436   0.488   1.226 -1.7893 -1.2549  0.4616
   90SOL     OW  268   2.949   0.924   1.746 -0.2147  0.2555  0.3303
   90SOL    HW1  269   2.915   0.927   1.650  1.9264  0.8814  1.5329
   90SOL    HW2  270   2.969   0.825   1.772  0.0458 -0.7283 -1.0018
   91SOL     OW  271   1.773   2.683   0.869  0.4427 -0.3326  0.5209
   91SOL    HW1  272   1.825   2.685   0.782 -1.7909  2.7024 -0.3715
   91SOL    HW2  273   1.799   2.604   0.931  1.0572 -1.3003  2.3976
   92SOL     OW  274   1.911   2.209   0.692 -0.0415  0.5392  0.2765
   92SOL    HW1  275   1.963   2.281   0.646 -0.0499 -1.6359  2.0507
   92SOL    HW2  276   1.813   2.233   0.689 -0.5175 -1.0301 -0.3639
   93SOL     OW  277   0.349   1.172   0.181 -0.1688  0.1206  0.1817
   93SOL    HW1  278   0.292   1.089   0.175 -1.2044 -0.5031 -1.5269
   93SOL    HW2  279   0.423   1.158   0.254  2.3916 -2.9488  0.4535
   94SOL     OW  280   0.758   2.031   0.936  0.3220  0.3681  0.0632
   94SOL    HW1  281   0.845   2.080   0.914  1.0048  0.2894  1.7104
   94SOL    HW2  282   0.696   2.077   1.005  1.1548 -0.0240 -0.2312
   95SOL     OW  283   0.351   0.902   0.557  0.2446  0.5860 -0.4010
   95SOL    HW1  284   0.276   0.964   0.536 -0.0323 -1.4442  0.9278
   95SOL    HW2  285   0.442   0.932   0.516 -0.7662 -0.3069  1.4345
   96SOL     OW  286   1.158   2.705   2.097 -0.3677  0.6895  0.2477
   96SOL    HW1  287   1.233   2.757   2.045  0.1204  1.6836 -0.5916
   96SOL    HW2  288   1.098   2.649   2.040  1.2247  2.0531  1.9619
   97SOL     OW  289   2.503   0.811   0.435 -0.3221  0.0821  0.7376
   97SOL    HW1  290   2.433   0.862   0.485  1.4265 -1.2641 -0.5868
   97SOL    HW2  291   2.547   0.860   0.358 -0.7543 -2.5889 -0.1528
   98SOL     OW  292   0.155   1.855   1.794 -0.6086 -0.8885 -0.1909
   98SOL    HW1  293   0.192   1.941   1.758 -0.4122  1.3903  0.5884
   98SOL    HW2  294   0.218   1.817   1.866  1.4556 -0.1093 -0.0111
   99SOL     OW  295   0.158   0.472   1.819 -0.1784  0.3864  0.3392
   99SOL    HW1  296   0.186   0.443   1.724  0.6244 -1.0894  0.5181
   99SOL    HW2  297   0.204   0.403   1.876  0.1702 -1.3083 -0.9671
  100SOL     OW  298   1.941   0.767   2.297 -0.0752 -0.3866 -0.4039
  100SOL    HW1  299   1.913   0.718   2.211 -1.4221 -2.1327 -1.8565
  100SOL    HW2  300   1.862   0.770   2.353  2.1645  1.8431 -1.1573
  101SOL     OW  301   0.768   0.503   2.109  0.1997 -0.1200  0.0609
  101SOL    HW1  302   0.871   0.500   2.120  0.0235 -0.7634  0.7874
  101SOL    HW2  303   0.728   0.419   2.148  0.6208  2.9246 -0.8969
  102SOL     OW  304   0.286   0.318   1.617 -0.5991  0.1097 -0.7415
  102SOL    HW1  305   0.386   0.340   1.631 -1.9428 -0.4398 -0.0209
  102SOL    HW2  306   0.277   0.236   1.555 -0.5234  2.3821  0.2577
  103SOL     OW  307   0.492   0.816   0.150  0.1900 -0.3102  0.2854
  103SOL    HW1  308   0.490   0.760   0.236  1.6033  0.5615  0.8150
  103SOL    HW2  309   0.584   0.849   0.124 -1.2158  0.7463  2.2770
  104SOL     OW  310   0.603   2.738   1.732  0.9237  0.1247  0.4963
  104SOL    HW1  311   0.522   2.790   1.762  2.2821  0.5602 -1.4294
  104SOL    HW2  312   0.623   2.663   1.800  2.8716  1.3252  0.3332
  105SOL     OW  313   2.453   2.899   1.947 -0.1793  0.7249  0.4183
  105SOL    HW1  314   2.543   2.945   1.913  1.4966  0.8296 -2.6327
  105SOL    HW2  315   2.368   2.922   1.894 -0.7102 -2.5137 -1.0695
  106SOL     OW  316   0.474   2.845   0.750 -0.0752 -0.1243  0.4077
  106SOL    HW1  317   0.500   2.869   0.845 -1.6360  0.0677  3.9808
  106SOL    HW2  318   0.512   2.749   0.729 -0.3051 -0.4007 -0.3659
  107SOL     OW  319   0.028   1.327   1.076  0.3353 -0.3007 -0.0628
  107SOL    HW1  320   3.002   1.280   1.087 -0.2555  1.5441 -0.7449
  107SOL    HW2  321   0.087   1.321   1.158 -0.1553  0.4248 -3.4514
  108SOL     OW  322   0.205   2.353   0.997 -1.0319 -0.0173 -0.3901
  108SOL    HW1  323   0.120   2.339   0.946  2.9764  1.1786  0.3591
  108SOL    HW2  324   0.254   2.262   1.010  1.1798  0.9043 -0.0102
  109SOL     OW  325   1.138   2.639   0.330  0.3411  0.5396 -0.0398
  109SOL    HW1  326   1.233   2.658   0.353 -5.1716  2.1510 -4.2379
  109SOL    HW2  327   1.120   2.596   0.239 -0.0336  0.4643 -1.7992
  110SOL     OW  328   1.380   2.010   0.492  0.1466  1.0537 -0.1345
  110SOL    HW1  329   1.454   2.073   0.470 -1.6149 -2.7316 -1.0803
  110SOL    HW2  330   1.290   2.058   0.499 -0.4895 -2.1195  1.3831
  111SOL     OW  331   1.710   2.688   2.061  0.1329 -0.3726 -0.9313
  111SOL    HW1  332   1.808   2.677   2.085 -1.3554 -0.7339  0.3845
  111SOL    HW2  333   1.681   2.773   2.097  1.5753 -1.3392  3.4017
  112SOL     OW  334   2.142   2.752   2.650 -0.0655  0.0543  0.4921
  112SOL    HW1  335   2.096   2.658   2.651 -1.7921 -2.4848  2.6669
  112SOL    HW2  336   2.235   2.745   2.608 -0.5795 -2.5027 -1.0706
  113SOL     OW  337   2.366   1.912   2.153  0.1021 -0.5614  0.3112
  113SOL    HW1  338   2.399   2.004   2.184  1.3471 -1.9702 -0.7484
  113SOL    HW2  339   2.346   1.915   2.055 -0.1403  1.2666  2.0143
  114SOL     OW  340   0.007   1.195   1.629  0.0969 -0.2505  0.2567
  114SOL    HW1  341   0.005   1.116   1.692 -1.3752 -2.1632  0.7575
  114SOL    HW2  342   2.987   1.258   1.631  0.3111 -0.7942 -1.5626
  115SOL     OW  343   3.005   0.893   0.133 -0.3430 -0.4667 -0.1111
  115SOL    HW1  344   2.960   0.877   0.220  1.4810 -0.8092 -1.4838
  115SOL    HW2  345   0.045   0.890   0.150 -0.0428  0.5319  0.6780
  116SOL     OW  346   2.662   0.416   3.024 -0.1938 -0.0961 -0.2591
  116SOL    HW1  347   2.663   0.433   2.921  2.0901 -0.1943 -0.9672
  116SOL    HW2  348   2.745   0.367   3.047  2.0343  0.6923  0.0543
  117SOL     OW  349   2.851   2.735   0.555 -0.2817 -0.0550  0.7184
  117SOL    HW1  350   2.916   2.688   0.499  1.4043  1.2730  0.1139
  117SOL    HW2  351   2.826   2.685   0.640 -3.2238 -2.8261  1.6145
  118SOL     OW  352   1.162   2.295   2.146  0.0491  0.3666 -0.0310
  118SOL    HW1  353   1.217   2.296   2.061  0.7464  2.5046  1.2696
  118SOL    HW2  354   1.059   2.305   2.133 -0.0527 -1.1545 -0.5225
  119SOL     OW  355   0.748   2.449   3.044 -0.6173  0.0042 -0.3111
  119SOL    HW1  356   0.703   2.358   3.018 -0.9354 -0.3131 -1.3879
  119SOL    HW2  357   0.676   2.518   3.053  1.6231 -0.2785 -0.8320
  120SOL     OW  358   1.449   1.052   0.204 -0.5806  0.6202  0.1646
  120SOL    HW1  359   1.453   0.958   0.247  1.5248 -3.1765 -0.0625
  120SOL    HW2  360   1.357   1.093   0.206 -0.8947 -1.4945  2.7913
  121SOL     OW  361   1.447   1.117   1.134  0.4065  0.2213  0.2411
  121SOL    HW1  362   1.460   1.122   1.234  0.0394  2.7889 -2.6733
  121SOL    HW2  363   1.468   1.202   1.091 -1.5712 -2.1664  0.9741
  122SOL     OW  364   1.838   1.270   2.092  0.3910 -0.3917 -0.1353
  122SOL    HW1  365   1.796   1.256   2.002  0.4336  1.4919 -1.1341
  122SOL    HW2  366   1.867   1.183   2.135 -0.3304  2.6546  0.9695
  123SOL     OW  367   2.999   0.869   0.631 -0.0672 -0.3170  0.2974
  123SOL    HW1  368   3.021   0.966   0.643 -2.1742 -3.0022  1.0873
  123SOL    HW2  369   2.928   0.832   0.698  0.5377 -1.7048  1.2812
  124SOL     OW  370   0.739   0.383   2.905  0.2760 -0.4207  0.4315
  124SOL    HW1  371   0.658   0.396   2.966 -2.4377 -1.4640  1.6970
  124SOL    HW2  372   0.760   0.468   2.851  0.8006 -0.3324  0.6932
  125SOL     OW  373   0.717   2.878   2.681 -0.1965 -0.1049 -0.1543
  125SOL    HW1  374   0.617   2.891   2.662 -0.8626  0.3906 -1.6683
  125SOL    HW2  375   0.725   2.793   2.735 -3.7385  0.9605 -1.5971
  126SOL     OW  376   0.666   1.434   2.515  0.3001 -0.2316  0.6425
  126SOL    HW1  377   0.727   1.512   2.488  1.1989  4.9459 -2.0759
  126SOL    HW2  378   0.643   1.374   2.439 -0.2175  5.4736 -1.2275
  127SOL     OW  379   0.994   2.858   1.102  0.1111  0.2224  0.4224
  127SOL    HW1  380   0.975   2.935   1.165 -0.8206 -1.0993  1.7247
  127SOL    HW2  381   0.970   2.886   1.002 -1.1326  2.0113 -0.8639
  128SOL     OW  382   1.658   2.371   0.247 -0.4692  0.0086 -0.2699
  128SOL    HW1  383   1.567   2.417   0.245 -1.0619 -0.1353 -1.6852
  128SOL    HW2  384   1.725   2.428   0.190  3.2431  1.3253  0.1901
  129SOL     OW  385   1.907   1.670   1.269 -0.0512  0.2975  0.0278
  129SOL    HW1  386   2.008   1.642   1.252 -0.3199 -0.4312 -0.9889
  129SOL    HW2  387   1.870   1.735   1.202  0.5492  0.5681  2.3604
  130SOL     OW  388   1.821   1.861   1.467  0.0961 -0.2685  0.3161
  130SOL    HW1  389   1.881   1.815   1.399  1.2164  5.2057 -1.0122
  130SOL    HW2  390   1.727   1.817   1.462  1.8866  0.0412 -0.4274
  131SOL     OW  391   1.160   3.011   2.085  0.1387 -0.0538  0.0318
  131SOL    HW1  392   1.231   2.947   2.045 -0.9488 -3.1862 -1.6235
  131SOL    HW2  393   1.070   2.992   2.041 -0.0177 -0.9369 -0.8609
  132SOL     OW  394   2.714   1.555   0.573 -0.6975 -0.1604 -0.3823
  132SOL    HW1  395   2.618   1.582   0.566 -2.0141 -1.6838 -0.8327
  132SOL    HW2  396   2.743   1.562   0.671  1.8425 -3.1744 -0.3265
  133SOL     OW  397   0.515   1.569   1.646 -0.3060  0.5044 -0.0015
  133SOL    HW1  398   0.568   1.525   1.723 -0.6887  1.2023  0.6498
  133SOL    HW2  399   0.454   1.648   1.680 -2.3963  1.5294  2.4681
  134SOL     OW  400   0.008   1.162   0.728 -0.6482 -0.0558 -0.3777
  134SOL    HW1  401   0.092   1.144   0.677  0.7235  5.1490  1.4672
  134SOL    HW2  402   3.046   1.260   0.728  0.5329  0.0989  0.7283
  135SOL     OW  403   1.870   1.933   3.044 -0.4880 -0.2864 -0.2837
  135SOL    HW1  404   1.911   1.880   0.061 -0.8614  0.1316  0.6668
  135SOL    HW2  405   1.779   1.963   0.010  0.9876 -1.6194 -2.9670
  136SOL     OW  406   2.882   1.619   1.341  0.5116 -0.2216  0.4921
  136SOL    HW1  407   2.906   1.519   1.324 -0.2920 -1.4869  0.3794
  136SOL    HW2  408   2.887   1.639   1.442  1.5958  3.4464  2.8961
  137SOL     OW  409   2.404   1.099   2.734  0.4619 -0.3283  0.3774
  137SOL    HW1  410   2.340   1.050   2.673 -0.0397  1.4498  2.0060
  137SOL    HW2  411   2.382   1.075   2.828 -0.3460 -1.4433 -3.0654
  138SOL     OW  412   2.935   0.262   1.067 -0.5285  0.1090  0.4186
  138SOL    HW1  413   2.939   0.347   1.009  1.1306 -1.7109 -0.2238
  138SOL    HW2  414   2.947   0.282   1.165  0.0867 -0.7162  1.9868
  139SOL     OW  415   1.816   2.230   0.046  0.4320 -0.5293 -0.4298
  139SOL    HW1  416   1.731   2.225   0.100  1.5184 -1.9189  0.2539
  139SOL    HW2  417   1.787   2.230   3.008  0.5937  0.8676 -0.1545
  140SOL     OW  418   0.942   1.550   0.828 -0.7827 -0.0663  0.2386
  140SOL    HW1  419   0.856   1.535   0.876 -0.4622  0.2799 -0.4420
  140SOL    HW2  420   0.943   1.643   0.790  1.6546  0.2496  1.8342
  141SOL     OW  421   1.412   1.632   0.945  0.4425  0.5713  0.1205
  141SOL    HW1  422   1.386   1.573   0.868  2.2901  1.9551 -1.1440
  141SOL    HW2  423   1.511   1.637   0.961 -1.7800 -0.2341  0.2016
  142SOL     OW  424   0.791   0.921   1.196 -0.4303 -0.5182 -0.2748
  142SOL    HW1  425   0.787   0.882   1.101  0.8339  1.8865 -1.6987
  142SOL    HW2  426   0.872   0.978   1.197 -3.3103 -0.2858 -2.0249
  143SOL     OW  427   0.314   0.154   2.788  0.1011  0.2471  0.7860
  143SOL    HW1  428   0.366   0.098   2.859 -0.2215 -1.8214  1.2431
  143SOL    HW2  429   0.307   0.250   2.819  0.4868  2.2923 -0.6420
  144SOL     OW  430   2.159   0.121   0.403 -0.0865  0.7177  0.0681
  144SOL    HW1  431   2.257   0.119   0.372  3.5908 -1.8234  1.0576
  144SOL    HW2  432   2.129   0.217   0.416  0.8329  0.5401  2.7940
  145SOL     OW  433   2.026   2.933   2.795 -0.0548 -0.3469 -0.5844
  145SOL    HW1  434   1.989   2.976   2.709 -0.0869 -4.1164 -0.0684
  145SOL    HW2  435   2.085   2.856   2.765 -2.5510  1.0165  0.2334
  146SOL     OW  436   3.044   2.974   0.303  0.1344  0.8368  0.0923
  146SOL    HW1  437   0.083   2.947   0.295 -0.2007 -0.0401 -2.7226
  146SOL    HW2  438   2.996   2.950   0.215  0.9434  1.2630  0.4359
  147SOL     OW  439   1.932   1.151   0.318 -0.2662  0.3846 -0.0881
  147SOL    HW1  440   2.031   1.133   0.284  3.3207 -1.8967 -0.4754
  147SOL    HW2  441   1.871   1.168   0.235 -0.2233  0.8643  0.3134
  148SOL     OW  442   0.952   2.722   0.513  0.2655 -0.3262 -0.2723
  148SOL    HW1  443   1.029   2.725   0.452  0.0261  0.2079 -1.7089
  148SOL    HW2  444   0.897   2.809   0.514 -2.4043  0.8867 -0.0427
  149SOL     OW  445   1.352   0.705   2.375  0.1191  0.5766  0.9163
  149SOL    HW1  446   1.262   0.679   2.420 -1.4004  0.2030  2.2461
  149SOL    HW2  447   1.427   0.688   2.445  2.9872 -1.4442  1.9794
  150SOL     OW  448   1.323   3.034   2.654 -0.1480  0.1832 -0.4158
  150SOL    HW1  449   1.292   2.935   2.659  0.4079  0.4741 -1.5130
  150SOL    HW2  450   1.373   0.003   2.739  0.3090 -1.8273  1.6491
  151SOL     OW  451   0.129   1.112   2.952 -0.2288 -0.0608  0.0003
  151SOL    HW1  452   0.205   1.175   2.939  0.7408  0.9904 -1.4359
  151SOL    HW2  453   0.159   1.015   2.966  3.1509  0.0198 -1.8132
  152SOL     OW  454   0.634   0.151   1.503 -0.3398 -0.0452  0.7339
  152SOL    HW1  455   0.644   0.236   1.561  1.7039 -1.3674 -0.0815
  152SOL    HW2  456   0.554   0.101   1.545  0.2305  1.1415 -0.2220
  153SOL     OW  457   2.784   2.942   1.465 -0.1600  0.9182 -0.4952
  153SOL    HW1  458   2.837   2.981   1.542  0.5449 -0.0814 -1.0158
  153SOL    HW2  459   2.836   2.863   1.426 -2.7355 -1.3095 -0.4264
  154SOL     OW  460   2.441   0.182   1.943 -0.2443  0.1369  0.0664
  154SOL    HW1  461   2.415   0.174   1.847  3.6671 -0.6527  1.3986
  154SOL    HW2  462   2.363   0.227   1.993 -0.8560  3.4975  0.5164
  155SOL     OW  463   0.560   1.100   0.346 -0.3550 -0.1665  0.8385
  155SOL    HW1  464   0.588   1.020   0.399 -1.0545  0.9659 -2.2664
  155SOL    HW2  465   0.636   1.140   0.291 -0.5109 -1.3179 -0.1463
  156SOL     OW  466   1.922   1.567   0.280  0.6671 -0.4037 -0.0306
  156SOL    HW1  467   1.988   1.549   0.357 -0.5146 -0.6000 -1.2200
  156SOL    HW2  468   1.834   1.599   0.319  2.9437  0.8028  0.2984
  157SOL     OW  469   0.876   1.805   0.029 -0.0751 -0.3235 -0.0188
  157SOL    HW1  470   0.794   1.758   0.065  3.9516 -0.2107 -1.7047
  157SOL    HW2  471   0.956   1.795   0.091  4.2922 -1.4639  1.6282
  158SOL     OW  472   1.819   0.968   1.945 -0.0844  0.1958  0.3543
  158SOL    HW1  473   1.857   0.894   2.010  3.3844 -0.0584 -0.6071
  158SOL    HW2  474   1.894   1.018   1.899 -0.7673 -1.1640  3.4793
  159SOL     OW  475   0.442   0.178   0.564 -0.1773  0.0172 -0.0955
  159SOL    HW1  476   0.375   0.106   0.583 -1.9229  2.2776  1.4505
  159SOL    HW2  477   0.472   0.174   0.470 -2.2105 -0.5121  1.7279
  160SOL     OW  478   2.306   1.535   1.727  0.1782 -0.0518 -0.1295
  160SOL    HW1  479   2.369   1.575   1.795 -1.2222  2.4366  0.7827
  160SOL    HW2  480   2.249   1.463   1.765 -0.0343  0.6526  0.2461
  161SOL     OW  481   0.360   0.129   0.092 -0.7840 -0.3560  0.1820
  161SOL    HW1  482   0.305   0.062   0.146 -1.0966 -1.1798 -0.6827
  161SOL    HW2  483   0.410   0.080   0.015  0.4683 -0.4224 -0.2219
  162SOL     OW  484   2.986   0.609   2.565  0.2864  0.5346  0.8556
  162SOL    HW1  485   2.960   0.707   2.545 -0.2171 -0.9245 -1.7706
  162SOL    HW2  486   2.898   0.559   2.560 -0.5908  1.9641 -1.2122
  163SOL     OW  487   2.993   2.645   2.563 -0.8537  0.4970 -0.6541
  163SOL    HW1  488   3.003   2.559   2.614 -0.7752  0.6267  1.1739
  163SOL    HW2  489   2.935   2.708   2.614  2.6200  1.2991  0.6148
  164SOL     OW  490   2.621   2.115   0.306  0.1203  0.7282  0.0355
  164SOL    HW1  491   2.521   2.110   0.321 -0.6360 -0.4584 -0.4390
  164SOL    HW2  492   2.657   2.201   0.338 -0.3064  3.2933 -2.0814
  165SOL     OW  493   0.979   0.888   1.536  0.4323  0.0057 -0.0666
  165SOL    HW1  494   1.081   0.871   1.542 -1.5194 -1.0687 -0.3870
  165SOL    HW2  495   0.932   0.827   1.466 -0.0993 -2.0942  0.1020
  166SOL     OW  496   3.013   0.362   0.428 -0.2539  0.1396  0.6376
  166SOL    HW1  497   0.018   0.353   0.503  0.6992 -2.9698 -1.0063
  166SOL    HW2  498   3.056   0.308   0.355  0.6761 -0.5388  1.3289
  167SOL     OW  499   1.972   0.643   1.155 -0.1500  0.0697  0.5832
  167SOL    HW1  500   2.039   0.672   1.083  1.3993  1.7372  1.3899
  167SOL    HW2  501   2.021   0.605   1.235 -1.0783 -0.2771  0.2109
  168SOL     OW  502   1.060   0.564   2.134 -0.3567 -0.0933 -0.5247
  168SOL    HW1  503   1.143   0.531   2.079 -0.1242 -1.5681 -3.8186
  168SOL    HW2  504   1.056   0.663   2.156 -2.1460 -1.2517  1.5881
  169SOL     OW  505   1.084   1.958   1.375 -0.0173  0.7611 -0.3630
  169SOL    HW1  506   1.014   1.896   1.341  0.7156  1.7279 -0.2722
  169SOL    HW2  507   1.079   1.976   1.474 -2.5920  3.6091 -0.6239
  170SOL     OW  508   0.112   2.821   1.553  0.5344 -0.6441  0.6163
  170SOL    HW1  509   0.209   2.824   1.531  0.7118  1.1003  1.8967
  170SOL    HW2  510   0.051   2.823   1.468  0.4900  1.7491 -1.2022
  171SOL     OW  511   2.639   0.563   2.320 -0.1011 -0.3231 -0.0419
  171SOL    HW1  512   2.706   0.514   2.387  3.7997 -1.4530  3.6387
  171SOL    HW2  513   2.602   0.501   2.244 -1.4406 -1.1840  1.1467
  172SOL     OW  514   1.257   2.865   1.589  0.3880  0.1994 -0.6472
  172SOL    HW1  515   1.301   2.812   1.666 -0.0825 -1.4545 -0.3248
  172SOL    HW2  516   1.244   2.968   1.599 -1.0468  1.3633 -0.2330
  173SOL     OW  517   2.483   2.066   2.771 -0.1077 -0.1246  0.4426
  173SOL    HW1  518   2.442   2.032   2.856  2.4187  0.0453 -0.4428
  173SOL    HW2  519   2.526   2.160   2.787  0.6792 -0.4412  0.5793
  174SOL     OW  520   1.750   0.989   0.435  0.6550  0.4302 -0.1957
  174SOL    HW1  521   1.817   1.039   0.376 -1.9864  0.4090 -1.1822
  174SOL    HW2  522   1.696   1.059   0.487  0.5350 -0.4734 -0.5148
  175SOL     OW  523   0.954   1.441   1.339  0.1769  0.5457  0.1382
  175SOL    HW1  524   0.980   1.469   1.246  3.7964  2.5417  0.7370
  175SOL    HW2  525   0.966   1.519   1.405  2.6100 -0.1553 -2.2904
  176SOL     OW  526   0.105   0.057   0.745  0.2155  0.4060 -0.2334
  176SOL    HW1  527   0.183   0.009   0.701 -0.2481 -1.6327 -1.5239
  176SOL    HW2  528   0.026   0.001   0.712  0.1641 -3.9140 -0.6817
  177SOL     OW  529   2.611   0.801   2.854  0.2570  0.0063 -0.5685
  177SOL    HW1  530   2.698   0.815   2.901  0.5459 -1.1953 -0.0145
  177SOL    HW2  531   2.635   0.794   2.757 -1.4166 -0.4138  2.9740
  178SOL     OW  532   2.799   2.693   1.951  0.8201  0.1561  0.0646
  178SOL    HW1  533   2.837   2.629   2.027 -0.8501 -3.8456  2.6603
  178SOL    HW2  534   2.815   2.645   1.861  1.2888  2.9808 -0.8920
  179SOL     OW  535   2.172   2.908   0.385  0.2575  0.1826 -0.1711
  179SOL    HW1  536   2.087   2.857   0.350 -2.8121  2.1200 -0.3780
  179SOL    HW2  537   2.147   3.004   0.401  0.9193  0.0530 -1.5894
  180SOL     OW  538   1.990   0.633   0.793 -0.1797 -0.2932  0.0202
  180SOL    HW1  539   1.966   0.539   0.824  0.1822  1.1918  0.2102
  180SOL    HW2  540   1.914   0.681   0.750 -1.0626  0.2153 -0.1737
  181SOL     OW  541   3.026   0.303   2.718 -0.3980 -0.0836 -0.2185
  181SOL    HW1  542   0.045   0.294   2.654 -2.3915 -0.1815 -0.0116
  181SOL    HW2  543   3.037   0.251   2.806  1.8602 -3.1656 -2.1145
  182SOL     OW  544   2.686   1.992   2.220  0.6824 -0.4241 -0.0949
  182SOL    HW1  545   2.639   1.905   2.196 -2.9366  0.5886 -0.1497
  182SOL    HW2  546   2.618   2.064   2.239 -0.2578 -0.4674 -0.2230
  183SOL     OW  547   0.322   0.656   1.955 -0.9100 -0.4213  0.3282
  183SOL    HW1  548   0.267   0.671   2.039  1.1779  1.1064  1.6490
  183SOL    HW2  549   0.274   0.596   1.889 -0.7439  0.3455 -5.2479
  184SOL     OW  550   0.314   1.236   1.235  0.0214 -0.4413  0.1347
  184SOL    HW1  551   0.265   1.209   1.319  0.4168  0.8226  3.4487
  184SOL    HW2  552   0.399   1.182   1.233 -2.8216  1.7568 -0.0979
  185SOL     OW  553   2.919   2.348   1.099  0.3860  0.2736  0.6438
  185SOL    HW1  554   2.988   2.340   1.170  1.3184  2.3950 -2.6222
  185SOL    HW2  555   2.962   2.390   1.019 -2.3644  0.5922  0.8692
  186SOL     OW  556   1.510   2.816   2.957  0.3314  0.0858  0.1979
  186SOL    HW1  557   1.545   2.717   2.940  0.7253 -3.2762 -1.1891
  186SOL    HW2  558   1.407   2.805   2.946  1.2163  1.0108 -0.3885
  187SOL     OW  559   0.381   1.238   0.659  0.2612 -0.4826 -0.4688
  187SOL    HW1  560   0.421   1.201   0.743 -1.0458 -1.3087  0.8399
  187SOL    HW2  561   0.453   1.274   0.602 -1.8965 -1.2050  1.4659
  188SOL     OW  562   1.777   1.984   0.317  0.1324  0.6546 -0.4217
  188SOL    HW1  563   1.735   1.954   0.231 -0.6087  2.2759 -1.0607
  188SOL    HW2  564   1.721   2.058   0.359 -0.2401  0.4975  1.8867
  189SOL     OW  565   0.107   1.569   3.013  0.2933  0.2981 -0.0803
  189SOL    HW1  566   0.119   1.527   0.047 -0.3528 -0.3359  0.5263
  189SOL    HW2  567   0.190   1.623   2.980  1.1083 -0.3944  0.6153
  190SOL     OW  568   2.433   0.291   2.444  0.1517 -0.3311  0.0580
  190SOL    HW1  569   2.514   0.229   2.419  1.1791  2.7056 -1.4441
  190SOL    HW2  570   2.423   0.366   2.375  2.7592  2.6942  0.6494
  191SOL     OW  571   0.504   1.008   2.107 -0.1427 -0.0074  0.4877
  191SOL    HW1  572   0.417   1.062   2.080  1.4119  3.8890 -0.7305
  191SOL    HW2  573   0.568   1.002   2.033 -1.7607 -1.6888  0.3226
  192SOL     OW  574   1.867   1.236   1.631 -0.6032  0.4720  0.6633
  192SOL    HW1  575   1.853   1.216   1.731  1.5249  2.5426 -0.0247
  192SOL    HW2  576   1.886   1.161   1.564 -0.5080 -0.4782 -0.1719
  193SOL     OW  577   0.844   2.890   0.857 -0.3229  0.5355 -0.1522
  193SOL    HW1  578   0.854   2.935   0.764  0.6426  0.5605 -1.7743
  193SOL    HW2  579   0.745   2.877   0.881  0.1646  0.3052  0.1129
  194SOL     OW  580   1.335   1.903   1.315 -0.2540 -0.1724  0.1303
  194SOL    HW1  581   1.333   1.869   1.219 -0.8965 -2.0954 -1.2835
  194SOL    HW2  582   1.242   1.929   1.343  2.0580  2.0408 -1.7538
  195SOL     OW  583   1.783   0.459   1.116  0.3423 -0.0121  0.0382
  195SOL    HW1  584   1.862   0.524   1.117 -0.7202  0.7098  0.0859
  195SOL    HW2  585   1.691   0.496   1.148 -1.0744  1.8899 -2.8911
  196SOL     OW  586   1.173   1.731   1.922 -0.1647 -0.5161 -0.2070
  196SOL    HW1  587   1.225   1.788   1.855 -1.7804  0.4881  1.7889
  196SOL    HW2  588   1.188   1.766   2.016  0.7769  0.1899 -0.5720
  197SOL     OW  589   2.827   2.805   2.740 -0.3437 -0.5638 -0.5299
  197SOL    HW1  590   2.845   2.882   2.676 -0.1637  4.5189  0.4988
  197SOL    HW2  591   2.781   2.837   2.827 -0.4562 -0.7915  4.5293
  198SOL     OW  592   2.983   0.483   0.903 -0.2535 -0.5881  0.0382
  198SOL    HW1  593   0.022   0.489   0.877 -0.7339  0.1621  1.0547
  198SOL    HW2  594   2.929   0.550   0.848  0.4422 -2.5521 -1.0993
  199SOL     OW  595   0.599   1.812   0.836 -0.3110  0.4686  0.0802
  199SOL    HW1  596   0.524   1.871   0.794 -1.6959 -0.2081 -0.5484
  199SOL    HW2  597   0.681   1.870   0.852  1.1199  3.0563  0.5743
  200SOL     OW  598   2.741   1.757   3.038  0.2650  0.0395  0.5479
  200SOL    HW1  599   2.661   1.762   2.974 -1.7798  0.9933 -2.9074
  200SOL    HW2  600   2.791   1.674   3.014  1.2892  3.2248  0.3405
  201SOL     OW  601   1.189   2.487   1.543 -0.0583 -0.7283 -0.1313
  201SOL    HW1  602   1.246   2.553   1.498 -2.6513 -3.1259  1.1853
  201SOL    HW2  603   1.121   2.536   1.596  4.5689 -3.3225 -3.6791
  202SOL     OW  604   0.984   2.790   3.013  0.2404  0.0121 -0.1222
  202SOL    HW1  605   0.970   2.832   0.047 -0.2093  1.1268  0.2405
  202SOL    HW2  606   0.909   2.816   2.954  0.4244  1.1184 -0.2466
  203SOL     OW  607   1.291   2.984   0.019  0.1944 -0.1480  0.0393
  203SOL    HW1  608   1.355   3.021   3.009 -0.9629 -0.9030  2.2107
  203SOL    HW2  609   1.255   2.898   3.049  2.3181  0.2546  3.4127
  204SOL     OW  610   0.515   1.654   1.287 -0.6884 -0.1800  0.1847
  204SOL    HW1  611   0.477   1.659   1.193  0.9599  1.6800 -0.1229
  204SOL    HW2  612   0.582   1.581   1.300 -1.6521  1.0578 -2.6968
  205SOL     OW  613   1.711   1.215   1.854 -0.0296  0.1127  0.4150
  205SOL    HW1  614   1.718   1.114   1.872 -0.7048 -0.1886  0.7449
  205SOL    HW2  615   1.622   1.249   1.888 -0.8136 -0.4589 -1.6316
  206SOL     OW  616   0.020   1.838   0.060  0.5275  0.5217  0.9390
  206SOL    HW1  617   0.023   1.744   0.023 -0.4283  1.4586  1.3351
  206SOL    HW2  618   2.996   1.858   0.115  1.3937  2.4715 -3.1944
  207SOL     OW  619   0.340   2.133   2.022 -0.1171 -0.4493  0.0169
  207SOL    HW1  620   0.429   2.106   1.984 -0.0049 -1.0980 -0.3234
  207SOL    HW2  621   0.270   2.153   1.945 -3.9283  1.7108 -4.9375
  208SOL     OW  622   0.380   2.425   0.730 -0.5739 -0.1101  0.0063
  208SOL    HW1  623   0.301   2.371   0.705  0.4634 -2.8393  0.2676
  208SOL    HW2  624   0.379   2.480   0.811  2.2789 -0.2979  0.5040
  209SOL     OW  625   0.962   2.668   2.328  0.7190 -0.5378  0.5052
  209SOL    HW1  626   0.974   2.736   2.401  0.8658 -0.0523 -1.6783
  209SOL    HW2  627   1.043   2.669   2.271  1.9103  1.1076  3.1793
  210SOL     OW  628   2.634   1.340   1.828  0.1373  0.1296  0.6498
  210SOL    HW1  629   2.566   1.357   1.900 -0.3594 -1.4629 -0.3497
  210SOL    HW2  630   2.649   1.237   1.826  1.9877 -1.0370 -1.4090
  211SOL     OW  631   1.188   0.066   1.618 -0.7472  0.1461  0.2292
  211SOL    HW1  632   1.099   0.076   1.569 -0.1342  0.7310 -0.1057
  211SOL    HW2  633   1.192   0.118   1.705  0.8933 -2.1520 -2.0382
  212SOL     OW  634   2.021   2.750   1.903 -0.0413 -0.0309 -0.3001
  212SOL    HW1  635   2.046   2.730   2.000 -1.1032 -0.2797  0.7303
  212SOL    HW2  636   1.980   2.666   1.864  0.6227  0.7210  0.8742
  213SOL     OW  637   2.949   3.040   1.661  0.4492  0.3006  0.0395
  213SOL    HW1  638   2.902   0.062   1.692 -1.8302 -2.0880  0.0129
  213SOL    HW2  639   3.029   3.016   1.716 -1.1693  0.7080 -1.4429
  214SOL     OW  640   0.970   2.232   0.974 -0.5821  0.1151 -0.8456
  214SOL    HW1  641   0.986   2.216   1.075  1.1289 -0.9352 -0.1007
  214SOL    HW2  642   1.059   2.250   0.929 -1.1104 -3.1843 -0.4348
  215SOL     OW  643   2.534   2.192   0.582  0.2079  0.4734  0.2561
  215SOL    HW1  644   2.439   2.228   0.563 -1.8261  1.9921 -2.9095
  215SOL    HW2  645   2.611   2.245   0.542 -0.4111  0.8449  1.0808
  216SOL     OW  646   0.303   0.853   1.756  0.1105  0.0739  0.1867
  216SOL    HW1  647   0.341   0.792   1.824 -0.9338  1.3904  1.3403
  216SOL    HW2  648   0.217   0.822   1.718 -0.6262 -1.1388 -0.9956
  217SOL     OW  649   2.454   0.184   1.641  0.2154  0.4443 -0.4330
  217SOL    HW1  650   2.374   0.249   1.645 -2.2265 -3.2875 -0.1396
  217SOL    HW2  651   2.415   0.091   1.617 -0.2703  0.3226  1.0286
  218SOL     OW  652   2.053   2.574   1.633 -0.4321  0.0968  0.4229
  218SOL    HW1  653   1.992   2.628   1.572 -1.6295 -1.0214  1.9320
  218SOL    HW2  654   1.990   2.531   1.702 -2.7856  1.1018  0.2658
  219SOL     OW  655   2.008   2.445   2.942  0.0875 -0.5136 -0.4533
  219SOL    HW1  656   2.091   2.496   2.972  1.2684  1.6043  1.5619
  219SOL    HW2  657   1.991   2.360   2.995  0.6719 -0.6467 -0.5345
  220SOL     OW  658   1.380   2.890   0.262 -0.2267  0.2959 -0.3034
  220SOL    HW1  659   1.369   2.942   0.177  0.1966 -2.3414  0.9571
  220SOL    HW2  660   1.416   2.798   0.239 -4.7940  3.3007 -0.2608
  221SOL     OW  661   3.061   2.059   1.494  0.0350  0.0656 -0.1079
  221SOL    HW1  662   2.990   2.074   1.425 -0.3310 -0.8933  2.6683
  221SOL    HW2  663   0.074   2.125   1.494  2.0303  1.3831  2.1538
  222SOL     OW  664   1.768   2.719   1.222  0.1383 -0.1306  0.3391
  222SOL    HW1  665   1.769   2.817   1.190  1.0176 -1.2646  0.9183
  222SOL    HW2  666   1.780   2.720   1.323  3.0254  2.6663 -0.5290
  223SOL     OW  667   1.305   0.452   1.360  0.5774 -0.5226 -0.4373
  223SOL    HW1  668   1.305   0.357   1.402 -1.0214 -1.9546  0.3377
  223SOL    HW2  669   1.212   0.475   1.326  2.3057 -0.6537 -0.3529
  224SOL     OW  670   3.016   2.344   1.381  0.1454  0.0681 -0.5098
  224SOL    HW1  671   0.012   2.425   1.390 -0.8361 -0.2056 -0.6103
  224SOL    HW2  672   2.921   2.366   1.416 -3.1083  0.5573  1.5145
  225SOL     OW  673   2.569   2.096   1.064 -0.1604  0.4614  0.0162
  225SOL    HW1  674   2.525   2.144   1.139  1.5800 -0.4733 -2.3272
  225SOL    HW2  675   2.540   2.132   0.975 -0.5059 -0.8645  2.3039
  226SOL     OW  676   1.486   2.184   3.054 -0.2385  0.5704  0.0810
  226SOL    HW1  677   1.431   2.107   3.018  2.1643  1.4841  1.8023
  226SOL    HW2  678   1.551   2.214   2.981  1.1235 -1.4795 -0.7362
  227SOL     OW  679   1.799   1.338   0.779 -0.6424 -0.5174 -0.3291
  227SOL    HW1  680   1.844   1.419   0.823  1.7856 -0.0754 -0.2847
  227SOL    HW2  681   1.802   1.254   0.838  1.5569 -0.8501  2.3665
  228SOL     OW  682   1.891   0.715   0.362  0.8329 -0.4949  0.1270
  228SOL    HW1  683   1.867   0.616   0.372  0.4552 -1.1429 -0.4737
  228SOL    HW2  684   1.831   0.762   0.427  1.4531 -0.7518 -0.1536
  229SOL     OW  685   2.692   1.069   1.818 -0.6720  0.5142  0.3674
  229SOL    HW1  686   2.606   1.015   1.800 -2.3873 -0.0015 -0.6286
  229SOL    HW2  687   2.775   1.020   1.788 -1.4668  0.5991  0.2941
  230SOL     OW  688   0.589   1.061   1.286 -0.1291  0.0555 -0.0292
  230SOL    HW1  689   0.673   1.008   1.269  1.2767 -0.7478  0.3324
  230SOL    HW2  690   0.512   0.995   1.302  0.2679 -1.2930 -1.2342
  231SOL     OW  691   1.927   0.423   2.528  0.1987 -0.2674  0.0812
  231SOL    HW1  692   1.923   0.413   2.628 -0.8569  0.1579  0.1313
  231SOL    HW2  693   2.011   0.477   2.506  3.1594 -0.4181 -1.2934
  232SOL     OW  694   0.122   1.713   0.994 -0.0085  0.3098 -0.2157
  232SOL    HW1  695   0.103   1.680   1.090  1.1681 -0.2129  0.1219
  232SOL    HW2  696   0.059   1.664   0.933 -2.0568 -0.8085 -0.0412
  233SOL     OW  697   1.605   2.924   2.710  0.2429 -0.0561 -0.2345
  233SOL    HW1  698   1.638   3.026   2.721  1.0806  4.4119  2.2303
  233SOL    HW2  699   1.556   2.902   2.791 -0.7539 -0.8648 -1.8681
  234SOL     OW  700   1.531   2.587   1.491 -0.0232 -0.2194  0.2943
  234SOL    HW1  701   1.481   2.647   1.423  1.9534  2.1141 -0.8689
  234SOL    HW2  702   1.529   2.490   1.467 -0.1418  0.4203 -0.9735
  235SOL     OW  703   0.796   1.351   1.555 -0.1676  0.1275  0.2949
  235SOL    HW1  704   0.876   1.375   1.496 -0.8337  0.5287  0.0313
  235SOL    HW2  705   0.706   1.354   1.507 -2.3010  0.9439 -1.3527
  236SOL     OW  706   0.727   2.642   2.804  0.5380  0.9151  0.4669
  236SOL    HW1  707   0.814   2.591   2.819  0.1004  0.5284 -0.6481
  236SOL    HW2  708   0.670   2.655   2.889 -2.5768  0.4341  0.3772
  237SOL     OW  709   0.648   3.040   1.936 -0.4840  1.1373 -0.5870
  237SOL    HW1  710   0.648   3.027   2.038 -2.0174  0.2606  1.7423
  237SOL    HW2  711   0.561   0.005   1.892 -3.4215 -1.9863 -3.4862
  238SOL     OW  712   0.743   0.583   0.528  0.1002  0.1899 -0.5357
  238SOL    HW1  713   0.733   0.491   0.485 -1.0154  3.2127  1.5545
  238SOL    HW2  714   0.840   0.596   0.559  4.1353 -0.1797 -0.3917
  239SOL     OW  715   2.328   0.570   2.673  0.1930 -0.1703  0.4377
  239SOL    HW1  716   2.402   0.595   2.616 -1.6450 -0.5807 -0.9983
  239SOL    HW2  717   2.335   0.605   2.769 -1.5215 -1.3582 -0.0122
  240SOL     OW  718   2.813   1.980   0.999 -1.0653  0.2051  0.1880
  240SOL    HW1  719   2.730   2.029   1.026 -1.0262  1.2702  0.4609
  240SOL    HW2  720   2.879   1.971   1.076  0.2580 -0.3898  0.1505
  241SOL     OW  721   1.166   1.954   0.783 -0.0675 -0.0697  0.0978
  241SOL    HW1  722   1.261   1.930   0.756 -0.6661 -0.7610  1.2676
  241SOL    HW2  723   1.135   2.030   0.722  1.8204 -1.8433  0.7075
  242SOL     OW  724   0.791   0.175   0.700 -0.7092 -0.4781 -0.8837
  242SOL    HW1  725   0.868   0.186   0.769  1.6586  0.6401  0.4701
  242SOL    HW2  726   0.705   0.228   0.724 -2.8679 -0.7456 -1.7916
  243SOL     OW  727   0.301   0.466   1.269  0.2306  0.1452  0.2276
  243SOL    HW1  728   0.244   0.546   1.241 -0.2613 -0.9848 -1.2567
  243SOL    HW2  729   0.297   0.388   1.200 -1.1153 -0.9910  1.9445
  244SOL     OW  730   0.826   3.004   0.567 -0.6491  0.7360  0.4747
  244SOL    HW1  731   0.918   3.007   0.520 -0.1730 -0.4605  1.8382
  244SOL    HW2  732   0.805   0.035   0.605 -1.2762 -1.3718 -2.0724
  245SOL     OW  733   2.488   1.107   0.281 -0.3375  0.8361  0.3762
  245SOL    HW1  734   2.553   1.030   0.271 -1.0409  0.2150 -3.2081
  245SOL    HW2  735   2.518   1.197   0.241  1.7356  4.7271 -0.7320
  246SOL     OW  736   0.385   2.824   1.476 -0.3030 -0.4259 -0.2052
  246SOL    HW1  737   0.484   2.795   1.487  1.9735 -0.7855  1.3441
  246SOL    HW2  738   0.370   2.824   1.374  0.5317  0.9819 -2.0041
  247SOL     OW  739   0.952   0.199   2.036 -1.0059  0.3719  0.3784
  247SOL    HW1  740   0.973   0.098   2.025 -0.2767 -2.9132 -1.1542
  247SOL    HW2  741   0.885   0.225   1.961 -1.0068 -2.1194 -0.3330
  248SOL     OW  742   0.370   1.753   1.956 -0.0029  0.1605 -0.4289
  248SOL    HW1  743   0.465   1.793   1.952 -0.9365  0.1102 -1.2700
  248SOL    HW2  744   0.366   1.652   1.963 -1.4254  1.6380  1.5073
  249SOL     OW  745   0.969   2.244   0.157 -0.3503 -0.2593 -0.6070
  249SOL    HW1  746   0.895   2.244   0.229  0.9057 -1.1993  0.6544
  249SOL    HW2  747   0.992   2.343   0.134 -3.0443  0.1535 -3.7011
  250SOL     OW  748   0.602   3.037   2.209  0.1283  0.0499  0.6181
  250SOL    HW1  749   0.552   2.946   2.191  1.5658  0.1999 -1.9165
  250SOL    HW2  750   0.623   3.053   2.305 -3.5497  1.5689 -3.3231
  251SOL     OW  751   2.748   2.019   1.807  0.4189 -0.2876 -0.1300
  251SOL    HW1  752   2.790   1.957   1.874 -0.4546  0.6263  0.1354
  251SOL    HW2  753   2.764   1.973   1.718 -0.4354  0.7915  2.0286
  252SOL     OW  754   1.173   0.454   1.744  0.1750 -0.9215  0.0574
  252SOL    HW1  755   1.109   0.537   1.755 -2.7360  1.6213 -3.3912
  252SOL    HW2  756   1.136   0.417   1.654 -1.9465  2.1492 -1.1056
  253SOL     OW  757   2.471   1.655   2.480  0.1299  0.3063  0.6312
  253SOL    HW1  758   2.475   1.569   2.423 -1.4398  0.3795  1.6734
  253SOL    HW2  759   2.402   1.722   2.455  1.4382  1.7213 -1.2406
  254SOL     OW  760   0.492   1.184   0.917  0.2717  0.1153  0.5127
  254SOL    HW1  761   0.443   1.274   0.942  0.4955  1.0154  1.4346
  254SOL    HW2  762   0.592   1.185   0.942 -2.2127  0.3591 -3.5631
  255SOL     OW  763   0.112   2.344   1.690  0.0096 -0.4561 -0.2313
  255SOL    HW1  764   0.012   2.367   1.697  0.7274  1.2303 -1.0363
  255SOL    HW2  765   0.163   2.420   1.642  0.1585 -1.7116  0.3698
  256SOL     OW  766   0.278   2.972   0.254 -0.2851 -0.0373 -0.5554
  256SOL    HW1  767   0.285   2.977   0.358 -0.4686 -2.3372  0.8443
  256SOL    HW2  768   0.356   2.925   0.205 -0.6382  1.3410  0.0407
  257SOL     OW  769   1.280   2.387   2.372  0.2529 -0.1800  0.7014
  257SOL    HW1  770   1.359   2.323   2.384  2.8555 -0.3955  0.4586
  257SOL    HW2  771   1.239   2.366   2.282 -0.0204 -1.2536 -1.5301
  258SOL     OW  772   1.878   1.950   2.081  0.1349 -0.8019 -0.4635
  258SOL    HW1  773   1.774   1.943   2.075 -0.3255 -2.0866  2.5711
  258SOL    HW2  774   1.909   1.979   1.988 -0.2512 -0.3353  0.1509
  259SOL     OW  775   0.745   0.700   2.291  0.4289  0.0759 -0.1613
  259SOL    HW1  776   0.763   0.795   2.270  2.7470 -1.6490  0.9181
  259SOL    HW2  777   0.765   0.641   2.208 -2.4834 -2.7461 -4.8968
  260SOL     OW  778   2.371   0.676   2.944  0.2355 -0.1859 -0.7282
  260SOL    HW1  779   2.378   0.617   3.025  0.3671  1.4243 -2.7669
  260SOL    HW2  780   2.460   0.715   2.915  2.8717  1.4502  0.6567
  261SOL     OW  781   1.002   1.122   0.826 -0.3125 -0.4410  0.0937
  261SOL    HW1  782   1.060   1.084   0.751 -1.6460 -2.9984  1.4057
  261SOL    HW2  783   1.052   1.195   0.878  1.0750 -1.1149 -1.1879
  262SOL     OW  784   2.017   2.496   2.663  0.1948 -0.2311 -0.2816
  262SOL    HW1  785   1.930   2.527   2.612 -0.3122 -2.0910 -0.0583
  262SOL    HW2  786   1.990   2.465   2.758  0.0788  0.7105  0.3270
  263SOL     OW  787   0.775   2.386   1.040 -0.0787  0.5836  0.4540
  263SOL    HW1  788   0.824   2.430   1.119  1.7244  0.0630  2.3608
  263SOL    HW2  789   0.824   2.297   1.016 -0.6155 -0.4301 -0.0195
  264SOL     OW  790   2.783   1.893   0.729 -0.0175 -0.6009 -0.4123
  264SOL    HW1  791   2.825   1.930   0.814 -0.2825  1.5202 -0.4856
  264SOL    HW2  792   2.806   1.794   0.736 -0.6343 -0.5401 -1.7885
  265SOL     OW  793   1.915   1.455   2.688  0.3058 -0.1367  0.1835
  265SOL    HW1  794   1.987   1.389   2.721  2.1747  2.4967  0.3056
  265SOL    HW2  795   1.888   1.532   2.758  0.5330  3.3451  0.6580
  266SOL     OW  796   1.585   1.888   2.063  0.0287  0.2887  0.3290
  266SOL    HW1  797   1.573   1.785   2.042  0.5635 -3.2319 -1.2956
  266SOL    HW2  798   1.534   1.910   2.153 -2.1785  2.2904 -1.2768
  267SOL     OW  799   1.895   0.418   2.262 -0.0350 -0.1467  0.2934
  267SOL    HW1  800   1.930   0.446   2.352 -0.2479 -1.1398 -1.9502
  267SOL    HW2  801   1.806   0.472   2.249 -1.2963 -1.0533  1.8161
  268SOL     OW  802   1.018   0.992   2.948 -0.5774 -0.1186 -0.0428
  268SOL    HW1  803   1.065   1.084   2.941 -2.2510  1.1587 -0.6190
  268SOL    HW2  804   1.025   0.943   2.859  0.9478 -1.4800  0.0913
  269SOL     OW  805   2.969   2.001   2.125  0.2762  0.6908 -0.5729
  269SOL    HW1  806   2.965   1.932   2.051  0.1479 -1.2808  1.6972
  269SOL    HW2  807   2.880   1.999   2.172  1.3378 -1.8358 -0.9258
  270SOL     OW  808   2.836   1.508   3.029  0.3281  0.4320  0.6332
  270SOL    HW1  809   2.907   1.441   3.044 -3.1635  3.2634  3.1135
  270SOL    HW2  810   2.782   1.522   0.053 -3.2230  0.4078  0.3676
  271SOL     OW  811   0.779   0.309   0.450 -1.1896  0.1162  0.1721
  271SOL    HW1  812   0.802   0.256   0.535 -2.5112 -2.5689  3.5895
  271SOL    HW2  813   0.832   0.285   0.369  2.0755 -0.7417 -1.4617
  272SOL     OW  814   0.031   0.165   0.212  0.4203 -0.2367  0.0597
  272SOL    HW1  815   3.057   0.175   0.116 -0.3589 -1.9814 -2.6836
  272SOL    HW2  816   3.060   0.081   0.256 -0.7323  0.7024 -0.4118
  273SOL     OW  817   0.511   2.787   2.167 -0.2696  0.1230  0.0963
  273SOL    HW1  818   0.471   2.725   2.238  0.3092 -2.4448  1.7426
  273SOL    HW2  819   0.453   2.789   2.082  1.2227 -0.6856 -0.1540
  274SOL     OW  820   0.211   0.155   1.419  0.0777  0.5630  0.2346
  274SOL    HW1  821   0.123   0.118   1.385  0.5250  0.4129 -0.5415
  274SOL    HW2  822   0.255   0.194   1.337 -2.8002  0.1906 -0.0714
  275SOL     OW  823   0.843   1.812   1.329 -0.4802 -0.3533  0.8815
  275SOL    HW1  824   0.819   1.794   1.232 -1.0185  0.3465 -1.3878
  275SOL    HW2  825   0.852   1.729   1.389 -1.7524  1.1996 -1.3121
  276SOL     OW  826   0.123   1.355   2.045 -0.2923  0.8733 -0.2987
  276SOL    HW1  827   0.161   1.261   2.058 -0.8572 -0.1972  2.1504
  276SOL    HW2  828   0.157   1.398   1.958  1.6200  1.7576 -0.2000
  277SOL     OW  829   1.341   2.268   1.916 -0.6421 -0.0026  0.7469
  277SOL    HW1  830   1.350   2.323   1.832 -2.2428  1.0863 -1.2626
  277SOL    HW2  831   1.436   2.233   1.937  1.1953 -2.4974 -0.3307
  278SOL     OW  832   1.907   2.787   2.396  0.4194  0.4285  0.2361
  278SOL    HW1  833   1.917   2.684   2.379  1.4032 -1.4382 -1.0538
  278SOL    HW2  834   1.995   2.837   2.364  3.7087 -2.4063  1.8160
  279SOL     OW  835   1.412   1.527   0.050 -1.0044  0.5038 -0.2661
  279SOL    HW1  836   1.467   1.481   0.129  3.8388 -2.5451  3.3146
  279SOL    HW2  837   1.475   1.525   3.030 -0.4389  1.0961  0.2179
  280SOL     OW  838   1.178   0.568   1.053 -0.1255  0.3107  0.1726
  280SOL    HW1  839   1.127   0.623   0.981 -2.0666  0.0002  1.3642
  280SOL    HW2  840   1.238   0.495   1.012 -0.3017 -2.2307 -2.5759
  281SOL     OW  841   2.905   0.503   2.145 -0.2551  0.0763  0.0165
  281SOL    HW1  842   2.996   0.495   2.191 -0.4395 -1.5452  1.6131
  281SOL    HW2  843   2.877   0.600   2.129  2.9395 -2.0281  0.1755
  282SOL     OW  844   0.301   2.999   0.590 -0.0890  0.6447  0.2197
  282SOL    HW1  845   0.250   2.924   0.539 -2.8923  0.7491  1.7184
  282SOL    HW2  846   0.377   2.954   0.647  0.2976 -1.8521 -2.7601
  283SOL     OW  847   1.249   2.225   1.499  0.2769 -0.1941  0.3830
  283SOL    HW1  848   1.200   2.148   1.539 -2.6065  2.1419 -1.6777
  283SOL    HW2  849   1.212   2.318   1.527 -1.8619  2.9730 -0.0227
  284SOL     OW  850   2.169   2.609   1.353 -0.0371 -0.8054 -0.5875
  284SOL    HW1  851   2.124   2.570   1.436  1.2749 -1.0968 -0.5408
  284SOL    HW2  852   2.098   2.619   1.277 -1.7500  3.3124 -0.8858
  285SOL     OW  853   0.836   1.756   1.067 -0.0092 -0.9212 -0.4943
  285SOL    HW1  854   0.803   1.679   1.015 -0.1394  2.0657  0.7007
  285SOL    HW2  855   0.810   1.846   1.027  1.8330 -1.2756  0.4131
  286SOL     OW  856   0.107   2.668   1.957  0.2034 -0.4258 -0.6906
  286SOL    HW1  857   0.050   2.672   1.875  1.4008 -0.6635  3.0014
  286SOL    HW2  858   0.137   2.573   1.972  0.7990 -0.5773 -0.9649
  287SOL     OW  859   0.749   1.039   0.714 -0.5426  0.2024  0.4231
  287SOL    HW1  860   0.847   1.052   0.693  0.9098  0.9322 -0.1109
  287SOL    HW2  861   0.734   1.075   0.804  0.8422 -2.8323 -0.3923
  288SOL     OW  862   1.404   2.148   2.398 -0.2907 -0.7037  0.3639
  288SOL    HW1  863   1.333   2.079   2.412  0.2450  1.7368  0.1949
  288SOL    HW2  864   1.488   2.124   2.443 -0.7315 -0.4371 -1.2835
  289SOL     OW  865   1.887   1.145   2.399 -0.3507  0.0111 -0.2801
  289SOL    HW1  866   1.894   1.245   2.377  2.5560 -1.0087 -1.2875
  289SOL    HW2  867   1.956   1.094   2.342  1.1671 -0.9139 -0.0064
  290SOL     OW  868   1.857   1.961   0.592  0.2807  0.0509  0.4654
  290SOL    HW1  869   1.849   1.962   0.488 -1.6815  0.5084 -0.8283
  290SOL    HW2  870   1.885   2.052   0.627 -2.3216 -2.6920  0.5259
  291SOL     OW  871   1.356   0.801   2.945 -0.5748  0.0001 -0.1143
  291SOL    HW1  872   1.294   0.762   3.015 -0.6068  0.3444  1.5470
  291SOL    HW2  873   1.438   0.741   2.931  2.0707  1.7743  0.4499
  292SOL     OW  874   2.049   1.690   0.722  0.3092 -0.2708 -0.0438
  292SOL    HW1  875   2.092   1.639   0.645 -0.6977 -0.6547 -0.5568
  292SOL    HW2  876   1.965   1.740   0.695  0.4743 -1.3818 -0.4742
  293SOL     OW  877   1.846   0.134   1.206 -0.0204  0.1261  0.2003
  293SOL    HW1  878   1.922   0.192   1.177 -1.5980 -1.2958 -1.0888
  293SOL    HW2  879   1.759   0.191   1.211  0.1979  0.2552 -0.9208
  294SOL     OW  880   2.654   0.897   0.191  0.0320  0.4082  0.7941
  294SOL    HW1  881   2.621   0.805   0.152 -0.5427 -0.6135  1.2430
  294SOL    HW2  882   2.750   0.884   0.229  2.8370 -0.1152 -0.0769
  295SOL     OW  883   2.070   1.748   2.548  0.1079  0.4665 -0.1660
  295SOL    HW1  884   2.138   1.799   2.491  0.8665  1.5304 -0.1070
  295SOL    HW2  885   2.119   1.692   2.617 -0.8583 -2.0543 -1.2281
  296SOL     OW  886   1.303   1.818   1.072 -0.2415  0.0041 -0.1573
  296SOL    HW1  887   1.347   1.743   1.012  0.0261 -1.1754  1.0641
  296SOL    HW2  888   1.236   1.868   1.015  1.2658 -0.4051  0.7972
  297SOL     OW  889   0.496   0.796   2.907 -0.2302 -0.4524  0.5362
  297SOL    HW1  890   0.411   0.802   2.851  0.8904  0.1533 -4.7073
  297SOL    HW2  891   0.478   0.805   3.008 -0.9140 -2.7951  0.3888
  298SOL     OW  892   1.599   2.949   1.772 -0.1023  0.0999  0.6103
  298SOL    HW1  893   1.685   2.951   1.712  0.9162  1.4271 -1.4778
  298SOL    HW2  894   1.613   2.950   1.873 -0.6127  1.2215 -2.8448
  299SOL     OW  895   1.100   0.633   2.525 -0.0658 -0.4660  0.1223
  299SOL    HW1  896   1.061   0.694   2.599  0.8978  1.6779 -3.6024
  299SOL    HW2  897   1.099   0.536   2.549  0.2657 -1.1293  1.6124
  300SOL     OW  898   2.022   1.563   0.036 -0.4504 -0.1124  0.3108
  300SOL    HW1  899   1.967   1.568   0.124 -0.7898  3.5301  0.3098
  300SOL    HW2  900   2.065   1.471   0.015  3.8562 -1.3411  1.8972
  301SOL     OW  901   2.155   0.264   2.289 -0.0814 -0.2396  0.1045
  301SOL    HW1  902   2.192   0.245   2.380 -0.3884  2.0033  0.3255
  301SOL    HW2  903   2.086   0.339   2.290  0.8682 -1.2581  2.0560
  302SOL     OW  904   2.469   1.549   2.727  0.0986  0.0857 -0.3877
  302SOL    HW1  905   2.506   1.456   2.738  1.7949 -0.2916 -0.5097
  302SOL    HW2  906   2.486   1.591   2.632 -1.2614 -1.8894 -2.9706
  303SOL     OW  907   0.215   2.487   2.210  0.1232  0.1275 -0.4236
  303SOL    HW1  908   0.184   2.417   2.274  0.8138  0.6951 -2.2747
  303SOL    HW2  909   0.183   2.452   2.120 -0.6381 -1.1196 -0.8146
  304SOL     OW  910   2.820   1.077   0.864 -0.3983  0.2470  0.1741
  304SOL    HW1  911   2.735   1.096   0.810 -3.8754  1.6793 -0.2227
  304SOL    HW2  912   2.904   1.126   0.830  0.9126  0.6283 -0.7937
  305SOL     OW  913   2.982   0.293   1.945  0.1331 -0.2037 -0.3881
  305SOL    HW1  914   2.969   0.371   2.013  2.5104  2.0482 -0.2524
  305SOL    HW2  915   0.012   0.281   1.905 -0.5879 -2.5430 -0.9756
  306SOL     OW  916   1.470   1.925   0.746  0.5167 -0.5252 -0.0260
  306SOL    HW1  917   1.553   1.871   0.757 -4.2541 -2.0251 -0.5318
  306SOL    HW2  918   1.448   1.957   0.651 -1.0634 -1.3386  1.8193
  307SOL     OW  919   3.035   2.841   1.327 -0.0607  0.3703 -0.5444
  307SOL    HW1  920   3.053   2.940   1.337 -4.3238  2.5788 -1.0526
  307SOL    HW2  921   3.005   2.821   1.233  0.0060 -2.1084  2.6402
  308SOL     OW  922   2.986   1.732   2.400  0.2211  0.5829  0.1949
  308SOL    HW1  923   2.894   1.691   2.429 -1.9016 -0.6435  1.5269
  308SOL    HW2  924   3.048   1.658   2.374  1.1103  1.2080  0.5535
  309SOL     OW  925   0.308   1.714   2.874 -0.0923 -0.8941  0.2551
  309SOL    HW1  926   0.355   1.663   2.798  1.1869 -1.1951  0.5225
  309SOL    HW2  927   0.281   1.811   2.854 -0.8991 -1.0368 -0.6950
  310SOL     OW  928   2.103   0.560   2.965  0.3831  0.2011 -0.0049
  310SOL    HW1  929   2.015   0.595   2.922 -1.2449  2.1393 -1.3178
  310SOL    HW2  930   2.186   0.582   2.909 -0.0248 -0.3452 -2.6490
  311SOL     OW  931   1.872   1.060   3.053 -0.2611  0.3218 -0.2832
  311SOL    HW1  932   1.846   1.031   2.954  0.6282  0.8293 -0.5370
  311SOL    HW2  933   1.973   1.053   0.011  1.6182  1.1158  0.2859
  312SOL     OW  934   1.163   1.276   2.097  0.0495  0.2286 -0.0338
  312SOL    HW1  935   1.107   1.302   2.176 -1.3762  0.9493  3.2649
  312SOL    HW2  936   1.109   1.217   2.032 -3.7290  2.3234 -0.8171
  313SOL     OW  937   0.738   0.012   0.222  0.1239 -0.6734 -0.0849
  313SOL    HW1  938   0.777   0.111   0.217  1.6588  5.2838 -2.3698
  313SOL    HW2  939   0.709   3.056   0.315  1.0553 -0.2338  1.4311
  314SOL     OW  940   0.541   1.920   1.343  0.2474  0.3172  0.1693
  314SOL    HW1  941   0.525   1.829   1.299 -0.1266 -0.2106 -1.3574
  314SOL    HW2  942   0.588   1.908   1.434 -0.0612  1.1261  1.7169
  315SOL     OW  943   1.488   2.112   1.444 -0.2634 -0.4217  0.3910
  315SOL    HW1  944   1.458   2.038   1.376 -0.0922  0.8212 -1.7993
  315SOL    HW2  945   1.415   2.163   1.493  0.2070 -0.8465 -0.0803
  316SOL     OW  946   0.413   2.462   0.205  0.0453  0.2968  0.3002
  316SOL    HW1  947   0.502   2.418   0.196 -1.4122 -1.1568  0.4190
  316SOL    HW2  948   0.408   2.517   0.289  1.8177  0.7936 -1.8768
  317SOL     OW  949   2.555   0.365   0.959 -0.0095 -0.0369  0.0509
  317SOL    HW1  950   2.550   0.342   1.056  1.5662 -1.4477 -1.6566
  317SOL    HW2  951   2.605   0.292   0.912 -1.0136  1.3091  2.2128
  318SOL     OW  952   1.047   2.393   0.443 -0.2802  0.0431  0.0899
  318SOL    HW1  953   0.972   2.371   0.505  0.2682  0.4622  1.5621
  318SOL    HW2  954   1.029   2.482   0.398  1.1929 -1.9659  0.1174
  319SOL     OW  955   1.332   0.319   2.944 -0.2096  0.5112  0.2174
  319SOL    HW1  956   1.240   0.329   2.910  0.0377  1.2731 -0.1570
  319SOL    HW2  957   1.342   0.327   3.044  2.5773 -0.9451 -2.4435
  320SOL     OW  958   2.218   1.799   1.712  0.3910  0.0739  0.0931
  320SOL    HW1  959   2.122   1.794   1.737  0.1323 -0.2024 -1.3984
  320SOL    HW2  960   2.270   1.711   1.720  0.0024 -0.0410  0.2018
  321SOL     OW  961   0.150   2.896   3.001 -0.4174  0.5823  0.3361
  321SOL    HW1  962   0.069   2.870   3.059 -1.2212  2.9635 -0.9939
  321SOL    HW2  963   0.125   2.948   2.915 -0.5587 -2.0273  2.3255
  322SOL     OW  964   2.241   0.855   1.252 -0.0660 -0.2293 -0.3619
  322SOL    HW1  965   2.170   0.861   1.178 -1.2719  1.9439 -0.3568
  322SOL    HW2  966   2.317   0.912   1.231 -2.4502 -3.6297 -3.2526
  323SOL     OW  967   1.989   1.839   0.250  0.1481 -0.0399  0.0495
  323SOL    HW1  968   1.909   1.895   0.284 -0.3655  0.1394  2.0493
  323SOL    HW2  969   1.965   1.740   0.267  1.8149 -1.3499  1.1782
  324SOL     OW  970   3.044   0.063   1.362  0.0810  0.5227 -0.4811
  324SOL    HW1  971   2.950   0.089   1.332 -2.4851  1.5353 -0.7666
  324SOL    HW2  972   3.028   0.021   1.454  1.8441  0.5688 -0.8023
  325SOL     OW  973   2.766   2.640   0.798 -0.4712 -0.0915  0.2989
  325SOL    HW1  974   2.769   2.543   0.830 -1.0342  3.7806 -0.6213
  325SOL    HW2  975   2.680   2.685   0.836 -0.8161  1.1779  1.5645
  326SOL     OW  976   1.636   2.635   0.481  0.9778  0.3638  0.0689
  326SOL    HW1  977   1.597   2.651   0.387  1.5763  0.7362 -0.9821
  326SOL    HW2  978   1.717   2.573   0.488 -1.8503 -0.6260 -1.8512
  327SOL     OW  979   2.150   2.475   0.229  0.4709 -0.1205 -0.5866
  327SOL    HW1  980   2.131   2.428   0.145  0.3440  3.3512  2.0496
  327SOL    HW2  981   2.118   2.573   0.229  1.5949  2.3096  2.2573
  328SOL     OW  982   2.533   2.332   1.939  0.2731 -0.4522 -0.4056
  328SOL    HW1  983   2.628   2.312   1.919 -2.9164  0.6115  0.0089
  328SOL    HW2  984   2.512   2.433   1.925  1.0660  0.0935 -1.1702
  329SOL     OW  985   0.151   2.265   0.673  0.5703  0.4940 -0.7909
  329SOL    HW1  986   0.098   2.340   0.721 -1.7572  0.6153  1.5969
  329SOL    HW2  987   0.157   2.188   0.731 -0.3188  3.9795 -2.0420
  330SOL     OW  988   2.050   1.046   1.814  0.1151  0.0110 -0.3196
  330SOL    HW1  989   2.069   1.149   1.824  2.0584  3.8191  0.8215
  330SOL    HW2  990   2.128   0.986   1.795 -1.4458  0.4659 -0.3092
  331SOL     OW  991   2.388   1.657   0.919 -0.1239 -0.0509 -0.1952
  331SOL    HW1  992   2.435   1.683   1.006  2.6652 -3.2591 -1.4338
  331SOL    HW2  993   2.338   1.732   0.876  0.3411 -0.7353  2.2394
  332SOL     OW  994   0.086   2.580   1.352 -1.3254 -0.1889 -0.1515
  332SOL    HW1  995   0.163   2.561   1.285  1.0743 -0.3078  1.0280
  332SOL    HW2  996   0.016   2.640   1.308 -0.9465 -1.4794  1.7121
  333SOL     OW  997   2.940   1.638   1.631  0.7748 -0.0316 -0.2175
  333SOL    HW1  998   2.909   1.733   1.624  3.4524  0.4482 -0.3295
  333SOL    HW2  999   3.040   1.631   1.636 -1.0095 -2.3666  1.5925
  334SOL     OW 1000   0.330   0.622   1.531 -0.4227  0.6861 -0.6275
  334SOL    HW1 1001   0.236   0.659   1.545  0.5040  1.8583  3.6443
  334SOL    HW2 1002   0.326   0.527   1.494  3.4618  0.5982  3.0435
  335SOL     OW 1003   2.462   1.685   1.885 -0.1011 -0.8546  0.5403
  335SOL    HW1 1004   2.556   1.671   1.841 -0.5526  0.4752  0.4667
  335SOL    HW2 1005   2.437   1.785   1.876  0.2268 -1.3377 -1.5463
  336SOL     OW 1006   1.696   2.945   0.025  0.2087  0.7309 -0.6604
  336SOL    HW1 1007   1.630   2.884   3.035  1.5328  0.9279  1.1359
  336SOL    HW2 1008   1.793   2.923   0.008  0.5439  0.1101  0.1678
  337SOL     OW 1009   0.635   0.628   1.473  0.1638 -0.5232 -0.6359
  337SOL    HW1 1010   0.613   0.545   1.416 -0.3336  1.4725  1.2772
  337SOL    HW2 1011   0.561   0.699   1.478 -1.3599  1.5221 -1.9632
  338SOL     OW 1012   1.733   2.361   0.980  0.6279 -0.2582  0.5653
  338SOL    HW1 1013   1.824   2.345   1.024  0.6033  1.1581  0.6336
  338SOL    HW2 1014   1.668   2.405   1.042 -0.3637  0.1057 -0.5793
  339SOL     OW 1015   0.393   1.697   1.047 -0.1333 -0.1850  0.1204
  339SOL    HW1 1016   0.296   1.717   1.021  3.6949  0.6299  0.3675
  339SOL    HW2 1017   0.455   1.751   0.987 -0.5618 -1.2435 -0.4063
  340SOL     OW 1018   0.182   3.032   2.375 -0.2539  0.4695  0.3126
  340SOL    HW1 1019   0.147   3.007   2.286  0.7226  2.3862 -1.7186
  340SOL    HW2 1020   0.203   2.942   2.424 -0.8636 -3.4677  0.0711
  341SOL     OW 1021   2.351   1.345   0.583 -0.1863  0.3098  0.3382
  341SOL    HW1 1022   2.331   1.435   0.537 -3.2203 -1.7108  0.1028
  341SOL    HW2 1023   2.440   1.307   0.557  0.5073 -1.3312 -0.9772
  342SOL     OW 1024   1.620   2.168   0.442 -0.3587  0.1588  0.3448
  342SOL    HW1 1025   1.591   2.233   0.374 -1.7454 -0.6548  1.3410
  342SOL    HW2 1026   1.639   2.220   0.529 -1.2781  2.5751 -0.3352
  343SOL     OW 1027   1.909   0.401   0.864 -0.0545 -0.2976  0.5140
  343SOL    HW1 1028   1.909   0.414   0.965 -0.6218 -0.0932 -1.6719
  343SOL    HW2 1029   1.904   0.302   0.840  1.0654  0.1611 -2.0347
  344SOL     OW 1030   2.290   0.202   2.981  0.3972  0.2350  0.3881
  344SOL    HW1 1031   2.335   0.258   2.904  0.8926  1.7034 -0.2050
  344SOL    HW2 1032   2.302   0.261   0.002  0.6259  1.0971 -0.5653
  345SOL     OW 1033   1.348   0.113   1.159  0.1756  0.0293 -0.4224
  345SOL    HW1 1034   1.315   0.015   1.154 -0.3899  0.1387  1.1040
  345SOL    HW2 1035   1.271   0.177   1.150  0.6367 -2.1493 -1.1636
  346SOL     OW 1036   2.221   2.300   1.552 -0.2249  0.3286  0.2455
  346SOL    HW1 1037   2.119   2.298   1.575  1.1087  1.5302  2.4573
  346SOL    HW2 1038   2.226   2.279   1.450 -2.4401 -2.8170 -1.8149
  347SOL     OW 1039   2.595   2.900   0.597 -0.1461 -0.4180 -1.0410
  347SOL    HW1 1040   2.686   2.865   0.571 -1.6024 -1.5369 -0.0406
  347SOL    HW2 1041   2.583   2.879   0.695  0.5004  1.5208 -0.4013
  348SOL     OW 1042   0.765   1.175   0.968 -0.3447  0.3310  0.1520
  348SOL    HW1 1043   0.857   1.180   0.924 -0.6445  0.6981 -1.2396
  348SOL    HW2 1044   0.758   1.223   1.059 -0.1545 -0.5924 -0.7799
  349SOL     OW 1045   2.189   3.017   0.056 -0.1729  0.3735 -0.4403
  349SOL    HW1 1046   2.279   2.965   0.051  0.0745  0.5741 -0.3681
  349SOL    HW2 1047   2.195   0.054   0.026 -0.3561  1.3171 -3.8008
  350SOL     OW 1048   2.588   1.979   0.063 -0.1521 -0.0367 -0.1601
  350SOL    HW1 1049   2.624   2.027   0.145 -0.0294 -1.1149 -0.0012
  350SOL    HW2 1050   2.664   1.924   0.023  1.6572 -1.8057  0.2281
  351SOL     OW 1051   0.989   0.231   0.881  0.5517  0.0750 -0.7019
  351SOL    HW1 1052   1.045   0.160   0.831 -0.3914 -0.0916 -0.5336
  351SOL    HW2 1053   1.028   0.261   0.971 -1.3779  0.7113 -0.2901
  352SOL     OW 1054   2.075   2.156   2.684  0.3007  0.3928 -0.1468
  352SOL    HW1 1055   2.075   2.084   2.755  0.9142 -0.3218 -1.7477
  352SOL    HW2 1056   2.124   2.241   2.710  0.4240 -2.3599 -1.1195
  353SOL     OW 1057   0.821   0.636   0.108  0.1664 -0.6452 -0.2422
  353SOL    HW1 1058   0.791   0.733   0.094 -0.2426  2.1841  2.0941
  353SOL    HW2 1059   0.754   0.569   0.066  0.0053 -2.7313 -0.1110
  354SOL     OW 1060   0.853   1.883   2.721  0.4847 -0.3398  0.0532
  354SOL    HW1 1061   0.778   1.834   2.767 -1.2871  0.8359 -0.4918
  354SOL    HW2 1062   0.942   1.845   2.759  1.1290  3.0265 -0.4201
  355SOL     OW 1063   2.937   2.559   2.132 -0.4439  0.2501 -0.2029
  355SOL    HW1 1064   2.983   2.496   2.072  0.5496 -2.1307  0.2692
  355SOL    HW2 1065   3.000   2.617   2.192 -0.3187  0.4794  2.2089
  356SOL     OW 1066   2.827   0.683   0.756 -0.0659  0.2826 -0.1772
  356SOL    HW1 1067   2.734   0.721   0.766  0.5652  2.3335  1.1955
  356SOL    HW2 1068   2.850   0.646   0.660  1.8215 -0.4036 -0.6515
  357SOL     OW 1069   2.368   0.116   1.016  0.2772 -0.1890  0.4383
  357SOL    HW1 1070   2.354   0.132   1.114 -0.1404 -0.6255  0.7256
  357SOL    HW2 1071   2.300   0.172   0.965 -0.0388 -0.3568  1.7204
  358SOL     OW 1072   1.382   2.756   1.367  0.7735 -0.1424 -0.2187
  358SOL    HW1 1073   1.354   2.796   1.278 -2.5150  0.4431 -2.4425
  358SOL    HW2 1074   1.349   2.810   1.448  0.3992 -0.2059  1.1848
  359SOL     OW 1075   0.004   2.197   2.638 -0.0106  0.5037  0.0064
  359SOL    HW1 1076   0.047   2.111   2.598 -0.4141 -1.1042 -1.8456
  359SOL    HW2 1077   3.029   2.186   2.736 -2.8021  0.7209  0.7737
  360SOL     OW 1078   0.421   1.170   1.574  0.0882  0.2274 -0.4406
  360SOL    HW1 1079   0.408   1.162   1.677  0.7957  2.1844 -0.0846
  360SOL    HW2 1080   0.484   1.098   1.542 -1.7565  0.3259 -1.1499
  361SOL     OW 1081   2.431   2.802   0.385  0.5772 -0.1324 -0.0667
  361SOL    HW1 1082   2.331   2.824   0.391 -0.3158  1.5821 -2.8674
  361SOL    HW2 1083   2.483   2.860   0.451 -0.7645  3.2317 -1.4106
  362SOL     OW 1084   2.993   2.792   0.864  0.0136  0.0589 -0.7138
  362SOL    HW1 1085   0.001   2.728   0.835 -2.9838  1.5164  1.1603
  362SOL    HW2 1086   2.902   2.752   0.845  0.2992  0.0164 -2.3291
  363SOL     OW 1087   0.838   1.417   0.585  0.2317 -0.1614 -0.1461
  363SOL    HW1 1088   0.896   1.348   0.530  2.9646 -1.6785  0.0419
  363SOL    HW2 1089   0.894   1.464   0.656  1.9942  2.3051  1.2284
  364SOL     OW 1090   0.732   1.316   1.195  0.3915  0.0580 -0.0660
  364SOL    HW1 1091   0.656   1.300   1.261  0.1853 -1.0472 -2.8878
  364SOL    HW2 1092   0.816   1.344   1.244  0.1207  1.6383  0.3403
  365SOL     OW 1093   2.462   1.670   0.506  0.7179  0.6324  0.4098
  365SOL    HW1 1094   2.468   1.742   0.580  0.5005  1.9310  1.8891
  365SOL    HW2 1095   2.501   1.709   0.424 -1.4703  0.4782  4.4537
  366SOL     OW 1096   2.739   1.676   1.104 -0.1428 -0.2429  0.3947
  366SOL    HW1 1097   2.781   1.674   1.199  1.1126  0.1050 -0.2226
  366SOL    HW2 1098   2.671   1.749   1.102 -0.0730 -0.0311  1.2632
  367SOL     OW 1099   2.143   2.214   1.946 -0.2755  0.2284  0.1324
  367SOL    HW1 1100   2.083   2.144   1.900 -0.2989  1.8810 -0.0931
  367SOL    HW2 1101   2.228   2.215   1.891 -1.6976  0.9563 -0.0877
  368SOL     OW 1102   2.512   1.046   1.129  0.5347  0.0816 -0.4148
  368SOL    HW1 1103   2.490   1.069   1.227  1.3294 -1.3261 -1.1302
  368SOL    HW2 1104   2.558   0.950   1.126  3.3429 -0.3805 -2.3194
  369SOL     OW 1105   1.981   2.722   0.193  0.3710  0.6170 -0.5438
  369SOL    HW1 1106   1.922   2.760   0.265  2.7268  0.5920 -1.8276
  369SOL    HW2 1107   1.983   2.776   0.111  2.2710 -0.6596  0.8523
  370SOL     OW 1108   2.684   2.398   1.210  0.3715  0.3758 -0.5532
  370SOL    HW1 1109   2.653   2.495   1.190 -0.8518  0.8074 -0.3996
  370SOL    HW2 1110   2.767   2.372   1.149 -2.0838  0.4899 -0.6326
  371SOL     OW 1111   0.827   1.613   2.354  0.2581 -0.8022  0.4592
  371SOL    HW1 1112   0.859   1.694   2.407 -4.5290  0.7140  0.6322
  371SOL    HW2 1113   0.750   1.641   2.290 -0.5838 -0.2133 -0.8439
  372SOL     OW 1114   0.963   1.163   0.435 -0.1003  0.1092 -0.1839
  372SOL    HW1 1115   0.894   1.185   0.364 -0.2868 -1.5130 -4.7367
  372SOL    HW2 1116   1.001   1.068   0.432  1.3734  0.4646  0.2985
  373SOL     OW 1117   1.342   2.419   0.121 -0.2826  0.5961  0.0723
  373SOL    HW1 1118   1.332   2.380   0.219  1.2082 -2.8276  0.3300
  373SOL    HW2 1119   1.410   2.356   0.069  1.6934 -0.2144  1.7760
  374SOL     OW 1120   0.356   1.682   0.082 -0.1525  0.6933 -0.3163
  374SOL    HW1 1121   0.346   1.708   3.044  0.3711  1.6370 -1.4190
  374SOL    HW2 1122   0.377   1.582   0.092  1.0229  0.7067 -0.6433
  375SOL     OW 1123   0.881   1.677   1.934 -0.3266 -0.2118 -0.2517
  375SOL    HW1 1124   0.980   1.697   1.917  0.5568 -0.7997 -3.1463
  375SOL    HW2 1125   0.850   1.585   1.902 -0.0534  0.8592 -2.3838
  376SOL     OW 1126   0.559   2.460   1.479  0.3976 -0.1921  0.0585
  376SOL    HW1 1127   0.499   2.434   1.563 -1.7927 -0.1355  3.2262
  376SOL    HW2 1128   0.659   2.439   1.500  2.7711 -2.4373  1.2769
  377SOL     OW 1129   2.245   1.258   2.137 -0.3871 -0.4527 -1.2177
  377SOL    HW1 1130   2.210   1.265   2.233 -0.2225 -1.4257  0.5681
  377SOL    HW2 1131   2.195   1.324   2.081  2.4600  0.3525 -0.4447
  378SOL     OW 1132   1.155   0.369   2.562  0.2244  0.2713 -0.4478
  378SOL    HW1 1133   1.128   0.272   2.571 -2.3880  0.2449  1.9280
  378SOL    HW2 1134   1.223   0.381   2.487  0.5766  2.0023 -1.7802
  379SOL     OW 1135   1.580   0.713   0.745 -0.7882 -0.3129  0.6428
  379SOL    HW1 1136   1.583   0.723   0.849  2.0074 -1.3274  1.5188
  379SOL    HW2 1137   1.484   0.710   0.711  1.1149 -0.7550  1.6563
  380SOL     OW 1138   2.877   1.896   1.592 -0.0614  0.9999  0.4071
  380SOL    HW1 1139   2.965   1.946   1.574  2.4126  1.3494 -0.6379
  380SOL    HW2 1140   2.812   1.912   1.512 -2.1082 -1.4757 -0.5768
  381SOL     OW 1141   1.560   1.790   1.445  0.1754  0.1837  0.7712
  381SOL    HW1 1142   1.560   1.828   1.538 -0.4131 -1.4514 -0.3397
  381SOL    HW2 1143   1.481   1.822   1.391  0.1634 -0.6154  1.6805
  382SOL     OW 1144   3.027   0.446   3.034 -0.5813  0.3621  0.5632
  382SOL    HW1 1145   3.032   0.347   3.024  1.1243  1.2210 -2.1733
  382SOL    HW2 1146   3.052   0.481   0.059 -1.2373 -0.2878 -1.3675
  383SOL     OW 1147   1.689   1.389   2.582 -0.3226  0.4009  0.1959
  383SOL    HW1 1148   1.647   1.337   2.659  0.4840  0.8932  1.9696
  383SOL    HW2 1149   1.786   1.414   2.614  3.1307 -0.0887 -0.1323
  384SOL     OW 1150   0.958   2.440   1.267  0.8027 -1.0150 -0.1253
  384SOL    HW1 1151   1.025   2.505   1.223  3.1645  2.7960 -0.1245
  384SOL    HW2 1152   0.999   2.355   1.306 -4.7279 -0.8415  0.6234
  385SOL     OW 1153   1.960   2.318   1.122 -0.2443  0.0522 -0.4764
  385SOL    HW1 1154   2.014   2.400   1.146  0.1881  2.8955 -1.3358
  385SOL    HW2 1155   2.008   2.250   1.062 -0.0830 -0.2068  0.1685
  386SOL     OW 1156   2.113   2.069   1.323  0.9953  0.2217  0.3979
  386SOL    HW1 1157   2.012   2.065   1.327  1.5249  0.0887  0.0385
  386SOL    HW2 1158   2.145   2.155   1.282  1.0370 -2.3827 -1.2335
  387SOL     OW 1159   0.583   2.094   1.129 -0.0097 -0.4664 -0.0075
  387SOL    HW1 1160   0.565   2.183   1.170  1.1183 -1.9091 -4.2333
  387SOL    HW2 1161   0.575   2.022   1.201 -1.8931  0.5081  1.8325
  388SOL     OW 1162   3.014   0.659   1.813  0.5200 -0.0677  0.3338
  388SOL    HW1 1163   2.916   0.637   1.838  2.6042  0.9419  2.8772
  388SOL    HW2 1164   0.012   0.572   1.822  0.1654 -2.6173  0.6944
  389SOL     OW 1165   1.892   1.367   1.162 -0.4528  0.2625 -0.5226
  389SOL    HW1 1166   1.935   1.407   1.077 -1.3035  0.0828  0.3720
  389SOL    HW2 1167   1.792   1.352   1.153 -1.1186  0.8157 -2.3773
  390SOL     OW 1168   0.878   2.319   2.079 -0.0663 -0.1678 -0.3163
  390SOL    HW1 1169   0.817   2.285   2.154 -0.8775  0.5881 -1.6247
  390SOL    HW2 1170   0.833   2.300   1.988 -2.6905 -1.6373  0.7482
  391SOL     OW 1171   1.196   1.986   2.489  0.0930 -0.2432  0.4101
  391SOL    HW1 1172   1.118   1.923   2.479  0.2357 -1.5783  0.3299
  391SOL    HW2 1173   1.161   2.080   2.504  2.0906 -0.7485  1.6291
  392SOL     OW 1174   0.045   2.666   2.301 -0.2475 -0.2281  0.2873
  392SOL    HW1 1175   0.004   2.645   2.395 -0.4192 -0.9659 -0.2008
  392SOL    HW2 1176   0.125   2.601   2.287 -0.0085 -0.8092  0.6072
  393SOL     OW 1177   1.866   2.837   0.403  0.4733  0.1790 -0.1105
  393SOL    HW1 1178   1.771   2.876   0.392 -0.7356  0.0543 -0.8159
  393SOL    HW2 1179   1.866   2.795   0.494 -2.1604 -0.9001 -0.2268
  394SOL     OW 1180   0.632   0.644   2.534 -0.2082 -0.2899  0.0731
  394SOL    HW1 1181   0.540   0.690   2.523 -0.4754  0.0177 -2.2618
  394SOL    HW2 1182   0.692   0.654   2.450  1.2567  0.7183 -2.0871
  395SOL     OW 1183   0.528   1.390   1.442 -0.7802  0.2585  0.0884
  395SOL    HW1 1184   0.483   1.303   1.476 -2.9452  0.4007 -0.7441
  395SOL    HW2 1185   0.524   1.465   1.515 -0.7947  0.2264 -0.0920
  396SOL     OW 1186   1.539   1.616   2.005 -0.0821 -0.5383  0.1417
  396SOL    HW1 1187   1.449   1.569   1.993  2.7998 -1.0883 -2.0403
  396SOL    HW2 1188   1.595   1.559   2.066 -2.7842  0.1922  1.4147
  397SOL     OW 1189   0.715   0.657   2.831  0.1152 -0.4900 -0.4884
  397SOL    HW1 1190   0.714   0.683   2.735 -1.1943  1.4424 -1.7777
  397SOL    HW2 1191   0.627   0.690   2.874 -1.4938  0.4195 -0.6517
  398SOL     OW 1192   0.310   2.036   2.574  0.1063 -0.2191 -0.5970
  398SOL    HW1 1193   0.401   2.003   2.536  0.1209 -1.6138 -0.8504
  398SOL    HW2 1194   0.242   1.959   2.580  1.1857 -0.8284  0.4680
  399SOL     OW 1195   0.099   1.620   2.140 -0.0752 -0.1276 -0.6513
  399SOL    HW1 1196   0.147   1.535   2.113  0.8209  0.2648 -0.3353
  399SOL    HW2 1197   0.003   1.617   2.111  0.4689 -0.1083  1.3001
  400SOL     OW 1198   2.684   0.239   1.532 -0.3783 -0.2103 -0.0296
  400SOL    HW1 1199   2.595   0.214   1.573  1.6146  0.6388 -2.4904
  400SOL    HW2 1200   2.752   0.222   1.607  0.6218  1.1240  1.2481
  401SOL     OW 1201   0.680   1.638   0.165  0.4568  0.2998 -0.0208
  401SOL    HW1 1202   0.771   1.599   0.192  0.5437  0.6062  1.1532
  401SOL    HW2 1203   0.601   1.605   0.217  3.2299 -0.2602 -0.2438
  402SOL     OW 1204   0.130   2.393   1.955  0.2360  0.5389 -0.7440
  402SOL    HW1 1205   0.146   2.389   1.854  0.7879 -1.9941  2.2049
  402SOL    HW2 1206   0.053   2.329   1.989 -0.9055 -0.7314 -0.4712
  403SOL     OW 1207   0.238   1.118   2.085  0.4571  0.2219  0.3768
  403SOL    HW1 1208   0.182   1.045   2.041 -0.1285  2.2508 -2.2202
  403SOL    HW2 1209   0.246   1.103   2.188 -0.1125 -1.7979  1.5628
  404SOL     OW 1210   1.626   2.319   1.497  0.0907  0.3646  0.2708
  404SOL    HW1 1211   1.724   2.318   1.469 -1.5598  2.2691  1.4258
  404SOL    HW2 1212   1.571   2.232   1.479 -0.3598 -0.1974  1.2782
  405SOL     OW 1213   2.606   2.327   2.748 -0.5994 -0.9313  0.0884
  405SOL    HW1 1214   2.592   2.417   2.792  0.9995 -1.5708  1.1202
  405SOL    HW2 1215   2.627   2.340   2.644  0.5813  0.5536  0.7769
  406SOL     OW 1216   0.573   1.272   2.714 -0.1637  0.2533  0.5653
  406SOL    HW1 1217   0.645   1.204   2.748  4.7352 -1.7836  1.3263
  406SOL    HW2 1218   0.625   1.336   2.651 -0.1777  0.8625  0.6564
  407SOL     OW 1219   2.398   2.870   3.030 -0.6070 -0.6311 -0.4266
  407SOL    HW1 1220   2.413   2.838   2.935 -1.7234  2.6998 -0.9044
  407SOL    HW2 1221   2.386   2.793   0.036 -1.0890 -1.0031 -0.2853
  408SOL     OW 1222   2.689   2.644   0.037 -0.0325 -0.2662 -0.8192
  408SOL    HW1 1223   2.728   2.686   0.119 -2.9252  0.1713  0.2312
  408SOL    HW2 1224   2.631   2.563   0.063  0.6903  0.3377 -0.3162
  409SOL     OW 1225   2.152   1.154   0.531 -0.2080 -0.1312 -0.1375
  409SOL    HW1 1226   2.226   1.223   0.530 -1.8916 -0.5581  0.8060
  409SOL    HW2 1227   2.071   1.210   0.550  1.5950 -1.6640 -0.1420
  410SOL     OW 1228   2.812   1.633   0.833 -0.3447  0.0151  0.3887
  410SOL    HW1 1229   2.775   1.651   0.924  0.9258  0.4647 -1.3915
  410SOL    HW2 1230   2.905   1.594   0.845 -1.0322  3.0045 -1.7450
  411SOL     OW 1231   0.233   1.474   0.677 -0.0504  0.0331  0.7534
  411SOL    HW1 1232   0.311   1.533   0.717  1.9744  0.6839 -0.5897
  411SOL    HW2 1233   0.252   1.375   0.670 -2.8581 -1.9016  1.9273
  412SOL     OW 1234   2.235   2.225   0.617  0.2736 -0.2618  0.8834
  412SOL    HW1 1235   2.212   2.267   0.706 -1.5483  0.6874 -0.9978
  412SOL    HW2 1236   2.213   2.127   0.604  0.3101 -1.3060  0.5911
  413SOL     OW 1237   1.466   1.294   1.944  0.0630 -0.4720  0.2306
  413SOL    HW1 1238   1.403   1.235   1.889 -2.8009  1.0341  1.6780
  413SOL    HW2 1239   1.415   1.364   1.995  0.7559  2.3539  1.4707
  414SOL     OW 1240   2.944   2.868   0.059  0.1329  0.3519 -0.4191
  414SOL    HW1 1241   2.952   2.770   0.097 -1.2705 -2.5885  0.9746
  414SOL    HW2 1242   2.879   2.862   3.042  1.0414 -2.5391 -1.0478
  415SOL     OW 1243   1.077   2.050   1.639 -0.0349 -0.1748 -0.3517
  415SOL    HW1 1244   0.987   2.093   1.639  2.1714  0.9976  2.4068
  415SOL    HW2 1245   1.114   2.047   1.734 -1.4692  1.0341 -1.5482
  416SOL     OW 1246   2.786   2.361   2.534 -0.1124  0.3481 -0.1551
  416SOL    HW1 1247   2.835   2.373   2.621 -0.6939  1.4781 -0.5157
  416SOL    HW2 1248   2.788   2.262   2.506 -0.1153 -2.3400  2.1758
  417SOL     OW 1249   2.646   0.556   1.269 -0.6546 -0.0134 -0.4734
  417SOL    HW1 1250   2.602   0.472   1.235 -2.3057 -0.0923  1.2111
  417SOL    HW2 1251   2.737   0.523   1.306  0.1267 -1.7344  0.5632
  418SOL     OW 1252   2.816   0.121   0.097  0.3369 -0.0040  0.2019
  418SOL    HW1 1253   2.815   0.152   0.195  0.2552 -2.4954 -0.8262
  418SOL    HW2 1254   2.737   0.054   0.096 -1.0132 -0.4895 -0.9706
  419SOL     OW 1255   0.077   1.629   1.252  0.1549  0.1370 -0.0990
  419SOL    HW1 1256   3.048   1.646   1.292  3.5274  1.2559  0.3431
  419SOL    HW2 1257   0.149   1.640   1.320 -1.6012  1.9236 -1.9930
  420SOL     OW 1258   0.415   1.419   0.019 -0.1123  0.0208 -0.1625
  420SOL    HW1 1259   0.420   1.349   0.090 -3.8253 -0.1416 -0.0236
  420SOL    HW2 1260   0.368   1.375   2.999 -3.8048 -1.6252  2.2265
  421SOL     OW 1261   2.258   2.567   2.223 -0.3319 -0.3643  0.7112
  421SOL    HW1 1262   2.298   2.659   2.207  3.3287 -1.2315  2.2168
  421SOL    HW2 1263   2.336   2.507   2.245 -2.1455 -0.2858 -0.6603
  422SOL     OW 1264   0.350   0.752   2.517 -0.0294  0.3418 -0.3815
  422SOL    HW1 1265   0.365   0.751   2.413  0.9157  0.5009 -1.1961
  422SOL    HW2 1266   0.327   0.843   2.552 -1.2832 -2.3073 -1.0076
  423SOL     OW 1267   1.119   2.155   0.612 -0.1218 -0.3268  0.7096
  423SOL    HW1 1268   1.141   2.215   0.693 -0.2484 -0.8436  0.7539
  423SOL    HW2 1269   1.059   2.200   0.546  0.1011  0.3214  2.2382
  424SOL     OW 1270   0.758   1.787   1.695  0.5277  0.7472 -0.3126
  424SOL    HW1 1271   0.773   1.789   1.797 -1.8491 -0.3673  0.1897
  424SOL    HW2 1272   0.663   1.814   1.672 -2.3901 -0.1663 -3.0218
  425SOL     OW 1273   2.430   2.406   2.522 -0.1907 -0.3394 -0.0795
  425SOL    HW1 1274   2.405   2.361   2.435  1.6174 -1.4720  0.0894
  425SOL    HW2 1275   2.494   2.483   2.505 -0.9041  1.8142 -3.9869
  426SOL     OW 1276   1.512   0.750   1.006  0.2530 -0.5060 -0.0573
  426SOL    HW1 1277   1.600   0.792   1.043  0.7638 -3.7295 -0.5411
  426SOL    HW2 1278   1.438   0.818   0.981  3.7896  1.2791 -0.5590
  427SOL     OW 1279   0.000   1.591   2.775 -0.3874  0.3653  0.1163
  427SOL    HW1 1280   0.039   1.563   2.868 -0.1981  1.1653 -2.8068
  427SOL    HW2 1281   2.961   1.573   2.767 -1.2327  0.3032 -1.5879
  428SOL     OW 1282   0.928   1.493   0.187  0.0344  0.0557 -0.0104
  428SOL    HW1 1283   0.933   1.473   0.086  2.3341  0.6539  0.1406
  428SOL    HW2 1284   1.014   1.463   0.234 -1.7251 -1.1921 -0.2324
  429SOL     OW 1285   3.051   2.603   0.415  0.1312  0.1861  0.0382
  429SOL    HW1 1286   0.047   2.517   0.418  0.7765  0.8742  2.4235
  429SOL    HW2 1287   3.018   2.622   0.316  0.3057 -2.3013 -0.1726
  430SOL     OW 1288   0.450   2.293   2.204  0.1157  0.4018  0.1583
  430SOL    HW1 1289   0.408   2.270   2.291  1.4710  1.2072 -0.2634
  430SOL    HW2 1290   0.398   2.253   2.121 -1.2592 -0.4245 -1.0354
  431SOL     OW 1291   2.838   1.144   0.123  0.1754  0.8102  0.0963
  431SOL    HW1 1292   2.906   1.203   0.073  3.3782  0.0267  0.0129
  431SOL    HW2 1293   2.863   1.049   0.095 -1.7340 -1.7349 -2.0399
  432SOL     OW 1294   1.807   2.738   2.656  0.1588  0.1978  0.3533
  432SOL    HW1 1295   1.899   2.784   2.661  1.7179  2.1060 -0.9132
  432SOL    HW2 1296   1.740   2.814   2.636 -0.3157  2.7945 -1.4275
  433SOL     OW 1297   1.269   2.503   0.758  0.4668 -0.8551 -0.5229
  433SOL    HW1 1298   1.171   2.536   0.752  0.5278  4.0793 -1.3717
  433SOL    HW2 1299   1.315   2.563   0.831  0.4016  0.5918 -1.7146
  434SOL     OW 1300   1.471   1.836   2.324 -0.7043 -0.6253 -0.0723
  434SOL    HW1 1301   1.516   1.916   2.376 -2.2808  1.0721  2.9601
  434SOL    HW2 1302   1.491   1.749   2.381 -0.4479  0.1635 -0.0539
  435SOL     OW 1303   2.147   0.754   0.295  0.3224  0.1678  0.1263
  435SOL    HW1 1304   2.167   0.855   0.294 -0.5523  0.6824  0.0822
  435SOL    HW2 1305   2.045   0.751   0.308 -1.9101 -0.7153  0.3236
  436SOL     OW 1306   0.414   2.610   2.333  0.7426 -0.0863  0.4107
  436SOL    HW1 1307   0.354   2.558   2.270 -2.2222 -0.0434  1.1037
  436SOL    HW2 1308   0.443   2.558   2.413 -1.2066 -0.5661  0.3417
  437SOL     OW 1309   2.021   2.920   1.460  0.1743  0.0101  0.9152
  437SOL    HW1 1310   2.049   2.843   1.397  2.7849  2.3060  0.0136
  437SOL    HW2 1311   2.028   3.012   1.409  0.3972  1.1331 -1.3916
  438SOL     OW 1312   0.048   1.829   0.429 -0.2542 -0.1466  0.7590
  438SOL    HW1 1313   0.087   1.782   0.513  0.4762 -2.3992  0.3734
  438SOL    HW2 1314   0.127   1.859   0.370 -1.7047 -1.4623 -0.9563
  439SOL     OW 1315   0.174   2.867   0.997  0.4425  0.2560  0.1929
  439SOL    HW1 1316   0.155   2.963   1.020  0.4635  2.7562 -1.6765
  439SOL    HW2 1317   0.094   2.828   0.945  1.9953  1.1234 -2.1406
  440SOL     OW 1318   2.624   2.718   2.387 -0.6334  0.1976 -0.1442
  440SOL    HW1 1319   2.598   2.738   2.289 -0.0248 -1.0040  0.3382
  440SOL    HW2 1320   2.672   2.628   2.391 -1.9138 -3.0187  2.3677
  441SOL     OW 1321   0.140   0.691   0.548 -0.2662 -0.0644  0.4667
  441SOL    HW1 1322   0.212   0.760   0.563  0.5504  1.5353 -0.5219
  441SOL    HW2 1323   0.050   0.738   0.560  1.0977  1.1196 -0.8090
  442SOL     OW 1324   1.548   2.311   2.216  0.4208 -0.0328 -0.3390
  442SOL    HW1 1325   1.495   2.251   2.286  1.0793 -0.8418  3.3968
  442SOL    HW2 1326   1.503   2.406   2.212  0.8541  0.3101  2.1647
  443SOL     OW 1327   0.861   0.018   2.793  0.5677 -0.4062 -0.3657
  443SOL    HW1 1328   0.788   0.089   2.792  0.9607 -0.8705  1.7845
  443SOL    HW2 1329   0.811   2.997   2.760  0.3220  0.5787  0.1461
  444SOL     OW 1330   1.488   1.705   2.711  0.1979 -0.4231  0.1887
  444SOL    HW1 1331   1.392   1.710   2.673 -1.8638 -0.1349  1.5457
  444SOL    HW2 1332   1.548   1.689   2.632 -0.5002  0.9030 -0.2755
  445SOL     OW 1333   0.293   0.227   1.147  0.1106 -0.4649 -0.1171
  445SOL    HW1 1334   0.209   0.185   1.106 -0.3640 -0.1327 -0.9960
  445SOL    HW2 1335   0.383   0.193   1.106  1.7889 -2.2596 -0.8685
  446SOL     OW 1336   1.818   1.100   0.918 -0.1479  0.4779  0.3507
  446SOL    HW1 1337   1.868   1.102   1.005  2.3720 -2.6706  0.2164
  446SOL    HW2 1338   1.873   1.061   0.841  0.2259  2.8962 -2.8054
  447SOL     OW 1339   2.896   0.845   0.353 -0.1909 -0.7214 -0.0668
  447SOL    HW1 1340   2.888   0.766   0.415 -2.9568 -0.8191 -0.9501
  447SOL    HW2 1341   2.923   0.927   0.405  0.6748 -1.9249 -0.9919
  448SOL     OW 1342   2.211   1.865   1.133  0.2238  0.1003  0.0151
  448SOL    HW1 1343   2.201   1.776   1.185 -1.6231 -0.6510 -1.1125
  448SOL    HW2 1344   2.196   1.950   1.190 -0.7757 -1.7401 -0.9925
  449SOL     OW 1345   1.106   1.258   2.975 -0.6110  0.2832 -0.4630
  449SOL    HW1 1346   1.181   1.273   2.908 -0.7859 -0.0486  1.6980
  449SOL    HW2 1347   1.031   1.327   2.967  1.5239  0.4495 -1.0459
  450SOL     OW 1348   2.405   2.788   2.522 -0.1799 -0.2738 -0.6123
  450SOL    HW1 1349   2.495   2.761   2.479  0.6756  1.8124  0.9002
  450SOL    HW2 1350   2.373   2.880   2.495 -1.6362 -0.2658  3.9380
  451SOL     OW 1351   2.460   0.745   2.444  0.6040  0.0066  0.3492
  451SOL    HW1 1352   2.509   0.664   2.414 -0.6849  0.5125 -0.8036
  451SOL    HW2 1353   2.372   0.761   2.388 -1.9434 -2.0168 -0.6895
  452SOL     OW 1354   1.510   1.298   1.390 -0.0212 -0.3336 -0.2322
  452SOL    HW1 1355   1.513   1.363   1.311  1.6451 -1.4679  1.3398
  452SOL    HW2 1356   1.422   1.316   1.442 -0.9974 -1.2450 -0.0299
  453SOL     OW 1357   1.591   0.359   1.829 -0.6661 -0.4061 -0.1687
  453SOL    HW1 1358   1.540   0.277   1.816 -0.3306  0.6816 -0.3396
  453SOL    HW2 1359   1.544   0.430   1.770  1.4163 -0.8274 -2.7469
  454SOL     OW 1360   2.875   0.867   2.951 -0.0602  0.3926 -0.2649
  454SOL    HW1 1361   2.915   0.786   2.902  2.4757 -0.3198 -3.5904
  454SOL    HW2 1362   2.920   0.873   3.044  2.6659 -3.3419  1.7441
  455SOL     OW 1363   2.283   1.506   1.453  0.1951  0.0479  0.3311
  455SOL    HW1 1364   2.320   1.514   1.550 -2.0009 -0.1982  2.3253
  455SOL    HW2 1365   2.189   1.459   1.459 -1.0257 -3.5400 -2.4932
  456SOL     OW 1366   1.885   2.947   1.700  0.6294 -0.0366  0.0467
  456SOL    HW1 1367   1.937   2.893   1.770  1.2000 -1.7771 -0.8895
  456SOL    HW2 1368   1.931   2.962   1.612  2.5463  0.8375  2.5101
  457SOL     OW 1369   1.306   2.953   0.530 -0.3807 -0.1508 -0.1727
  457SOL    HW1 1370   1.379   3.020   0.555  0.5765 -0.9763  1.4354
  457SOL    HW2 1371   1.336   2.902   0.447  2.3000  1.0736  1.1199
  458SOL     OW 1372   2.969   2.984   0.560 -0.2996 -0.5322  0.3246
  458SOL    HW1 1373   2.928   2.889   0.576  0.8526 -1.0137 -0.0517
  458SOL    HW2 1374   2.991   2.996   0.459 -1.9134 -1.1247 -0.7763
  459SOL     OW 1375   1.926   1.323   0.548  0.3784 -0.3960 -0.4033
  459SOL    HW1 1376   1.878   1.263   0.481 -3.2426 -0.1643  1.8550
  459SOL    HW2 1377   1.872   1.328   0.634  0.1616 -2.2394 -1.1845
  460SOL     OW 1378   0.783   2.468   2.415  0.2068 -0.4118  0.1201
  460SOL    HW1 1379   0.838   2.544   2.375 -0.3254  0.3061  1.2714
  460SOL    HW2 1380   0.838   2.428   2.488 -0.1076 -0.8449 -4.0568
  461SOL     OW 1381   0.631   1.719   2.793 -0.0241  0.5804  0.0211
  461SOL    HW1 1382   0.553   1.716   2.726 -0.0726 -2.0374 -2.0127
  461SOL    HW2 1383   0.653   1.628   2.835  2.2014 -0.2865 -0.4070
  462SOL     OW 1384   2.352   2.058   0.388 -0.3709  0.0301  0.6425
  462SOL    HW1 1385   2.321   2.026   0.477 -0.3129 -0.3405  0.7883
  462SOL    HW2 1386   2.285   2.027   0.313  0.1517 -2.1362  1.5250
  463SOL     OW 1387   2.859   0.583   0.487 -0.3522  0.1228  0.1279
  463SOL    HW1 1388   2.922   0.505   0.477  0.1022  1.0829  1.0411
  463SOL    HW2 1389   2.762   0.555   0.513  2.7486 -3.6752  1.2678
  464SOL     OW 1390   0.492   1.527   0.332  0.0678 -0.0409  0.5466
  464SOL    HW1 1391   0.437   1.597   0.381 -3.2432 -1.8069  0.7234
  464SOL    HW2 1392   0.516   1.449   0.393 -1.5727 -1.1317  1.6759
  465SOL     OW 1393   2.339   0.137   1.303 -0.1864  0.2704 -0.2335
  465SOL    HW1 1394   2.343   0.039   1.331 -1.6274 -0.3165  0.5788
  465SOL    HW2 1395   2.254   0.171   1.345  3.0626  1.9714 -0.4798
  466SOL     OW 1396   2.250   2.906   0.840  0.5712  0.1328  0.2618
  466SOL    HW1 1397   2.247   2.845   0.760 -2.7093  0.2134 -2.0207
  466SOL    HW2 1398   2.292   2.999   0.813 -0.2779  0.9906 -0.6794
  467SOL     OW 1399   0.101   0.459   2.260 -0.9506 -0.1537 -0.2562
  467SOL    HW1 1400   0.074   0.427   2.351 -1.1206  0.3749 -2.1034
  467SOL    HW2 1401   0.180   0.403   2.222  1.1878 -1.5481 -1.0470
  468SOL     OW 1402   2.980   0.070   2.174 -0.4047  0.1983  1.0097
  468SOL    HW1 1403   2.970   0.082   2.071 -0.6895 -0.8152 -0.6868
  468SOL    HW2 1404   3.028   3.045   2.196 -2.5043  0.2879 -2.6980
  469SOL     OW 1405   0.909   0.139   1.577  0.3803  0.1455  0.4335
  469SOL    HW1 1406   0.883   0.127   1.676  0.5804 -2.7505  0.0770
  469SOL    HW2 1407   0.844   0.091   1.520 -0.2288  1.1717 -2.0192
  470SOL     OW 1408   2.564   0.789   1.679  0.7479 -0.2675  0.2408
  470SOL    HW1 1409   2.643   0.772   1.620 -5.5534 -1.4972 -0.4666
  470SOL    HW2 1410   2.583   0.782   1.776  0.0471 -2.8172 -0.5483
  471SOL     OW 1411   2.742   1.612   2.532 -0.0703  0.4192 -0.0086
  471SOL    HW1 1412   2.651   1.655   2.545 -0.2621 -2.2447 -0.8011
  471SOL    HW2 1413   2.767   1.546   2.606  0.7339 -1.3145  0.7065
  472SOL     OW 1414   0.877   1.893   0.481  0.0176  0.1915 -0.3577
  472SOL    HW1 1415   0.953   1.831   0.452 -0.5954  1.3059 -2.4092
  472SOL    HW2 1416   0.857   1.963   0.411  3.1048 -2.1871 -1.4072
  473SOL     OW 1417   1.570   2.159   1.985  0.1175 -0.4425 -0.5825
  473SOL    HW1 1418   1.544   2.064   2.018 -2.1153 -0.4316  2.3482
  473SOL    HW2 1419   1.551   2.224   2.061 -1.7473 -0.1405  2.0481
  474SOL     OW 1420   1.176   2.812   2.689 -0.0650  0.2621 -0.4024
  474SOL    HW1 1421   1.098   2.855   2.645 -0.0099  1.2316 -1.7469
  474SOL    HW2 1422   1.158   2.720   2.720 -1.7337  0.5301 -2.3508
  475SOL     OW 1423   0.955   1.861   2.477  0.4433  0.1837  0.5901
  475SOL    HW1 1424   0.911   1.940   2.427  0.3184  2.1184 -0.3935
  475SOL    HW2 1425   0.918   1.849   2.570  1.8267 -0.1000 -0.1682
  476SOL     OW 1426   0.597   0.513   1.000  0.3138 -0.3277  0.4026
  476SOL    HW1 1427   0.565   0.590   1.059  0.6929 -1.7256  0.1967
  476SOL    HW2 1428   0.594   0.546   0.904  1.5767 -0.1600  0.1811
  477SOL     OW 1429   1.904   2.413   1.402 -0.5477  0.4097  0.0946
  477SOL    HW1 1430   1.933   2.387   1.308 -1.5505  0.2577  0.3313
  477SOL    HW2 1431   1.951   2.360   1.473 -1.5769  2.4751  0.7397
  478SOL     OW 1432   0.256   0.416   2.884 -0.0270  0.0954  0.3124
  478SOL    HW1 1433   0.208   0.470   2.953  5.5139 -2.0057 -2.4035
  478SOL    HW2 1434   0.248   0.466   2.795 -1.7851  0.7334 -0.0890
  479SOL     OW 1435   1.020   0.508   1.280  0.4152  0.2495  0.0302
  479SOL    HW1 1436   0.960   0.588   1.303  0.3327  0.4584  0.3378
  479SOL    HW2 1437   1.077   0.530   1.203 -2.4074 -0.4861  0.6707
  480SOL     OW 1438   2.871   2.346   0.194  0.1420  0.3987  0.1395
  480SOL    HW1 1439   2.810   2.341   0.110  0.5974  1.9901  0.1474
  480SOL    HW2 1440   2.903   2.254   0.220  2.5563  1.0204 -0.4246
  481SOL     OW 1441   0.086   0.723   1.579  0.3966 -0.3769 -0.3729
  481SOL    HW1 1442   0.032   0.763   1.507  2.8931  0.0261 -0.3740
  481SOL    HW2 1443   0.031   0.687   1.656  0.8212  2.3889  0.7087
  482SOL     OW 1444   0.946   0.023   1.272  0.3601 -0.1123 -0.5338
  482SOL    HW1 1445   0.857   0.076   1.262 -0.2294 -0.1907 -0.9856
  482SOL    HW2 1446   0.935   3.016   1.349 -0.6963 -1.2147 -1.4113
  483SOL     OW 1447   2.995   1.436   2.362  0.1419 -0.5182  0.0812
  483SOL    HW1 1448   2.989   1.375   2.447 -0.0288  0.0222 -0.0446
  483SOL    HW2 1449   2.904   1.483   2.350 -0.4206 -1.2880  1.5258
  484SOL     OW 1450   1.731   1.669   1.813 -0.8388 -0.3984  0.3381
  484SOL    HW1 1451   1.666   1.630   1.887 -1.7220  1.5053  1.8550
  484SOL    HW2 1452   1.744   1.616   1.727 -0.0867 -0.3164  2.4952
  485SOL     OW 1453   0.297   2.792   2.481  0.2466  0.0021 -0.5656
  485SOL    HW1 1454   0.261   2.750   2.568 -2.4556  2.2952 -1.3260
  485SOL    HW2 1455   0.336   2.719   2.418  2.2851  1.4841  2.7250
  486SOL     OW 1456   1.157   0.068   0.746 -0.2955  0.0331  0.7401
  486SOL    HW1 1457   1.128   3.037   0.770  0.1800  3.6608 -2.4559
  486SOL    HW2 1458   1.255   0.075   0.769 -2.3296  0.3526  0.9361
  487SOL     OW 1459   1.534   0.118   0.972 -0.1120 -0.4473 -0.1986
  487SOL    HW1 1460   1.551   0.215   0.943 -0.1106  0.9274 -0.1092
  487SOL    HW2 1461   1.482   0.120   1.063 -0.1606  1.7371  1.3080
  488SOL     OW 1462   2.336   0.988   0.659  0.4799 -0.5039 -0.2523
  488SOL    HW1 1463   2.270   1.052   0.610 -2.2142  2.4436 -1.6859
  488SOL    HW2 1464   2.332   0.992   0.760 -2.6153  0.4953  1.9177
  489SOL     OW 1465   1.170   0.779   1.277  0.1656 -0.0455 -0.2250
  489SOL    HW1 1466   1.256   0.777   1.324 -2.1848 -0.2065 -1.5973
  489SOL    HW2 1467   1.178   0.717   1.193  0.8058  1.6562 -0.9301
  490SOL     OW 1468   1.019   0.636   2.934  0.1068  0.9242 -0.4185
  490SOL    HW1 1469   1.090   0.629   3.010  3.6791 -0.8786  0.7996
  490SOL    HW2 1470   0.923   0.627   2.973 -0.5270 -0.1656 -0.6319
  491SOL     OW 1471   0.842   2.339   0.608 -0.2453  0.0871  0.2428
  491SOL    HW1 1472   0.828   2.399   0.691  1.0297 -0.3305  1.0890
  491SOL    HW2 1473   0.783   2.258   0.614 -0.6198  2.9695 -1.0857
  492SOL     OW 1474   1.189   1.688   1.544 -0.7995  0.0933 -0.0861
  492SOL    HW1 1475   1.253   1.730   1.608  0.1321  0.3576 -0.3424
  492SOL    HW2 1476   1.231   1.673   1.455 -0.5609 -1.9196 -0.8608
  493SOL     OW 1477   0.650   1.511   2.965 -0.2964  0.3217  0.3802
  493SOL    HW1 1478   0.568   1.453   2.970  0.4301  2.5650 -1.1913
  493SOL    HW2 1479   0.644   1.567   3.056 -2.6926  2.1120  0.2045
  494SOL     OW 1480   1.904   2.657   0.640 -0.0644  0.0466  0.3203
  494SOL    HW1 1481   1.879   2.580   0.584 -0.0466  2.3930  1.6717
  494SOL    HW2 1482   2.007   2.667   0.637 -3.0340  2.1740 -0.2499
  495SOL     OW 1483   0.219   1.397   2.361 -0.1078 -0.0850  0.4604
  495SOL    HW1 1484   0.222   1.478   2.425 -1.7354 -0.0341  0.9094
  495SOL    HW2 1485   0.129   1.402   2.311 -2.2585  0.5247  0.2331
  496SOL     OW 1486   0.292   2.283   2.456  0.9762  0.0798 -0.3242
  496SOL    HW1 1487   0.325   2.190   2.477 -0.4630 -0.6371 -1.0865
  496SOL    HW2 1488   0.300   2.334   2.544  0.4951 -1.4855 -1.4554
  497SOL     OW 1489   1.614   1.500   0.620 -0.0447 -0.0760 -0.1263
  497SOL    HW1 1490   1.517   1.467   0.638 -0.1650  0.4627 -1.6024
  497SOL    HW2 1491   1.680   1.468   0.690  0.4966  0.4887  0.8988
  498SOL     OW 1492   3.000   2.593   0.134 -0.4314 -0.2699  0.2978
  498SOL    HW1 1493   3.042   2.605   0.039  0.5323  0.5755 -0.6846
  498SOL    HW2 1494   2.945   2.509   0.140 -1.9281  1.3820  0.8866
  499SOL     OW 1495   2.163   2.728   0.582  0.7133 -0.4036 -0.1229
  499SOL    HW1 1496   2.173   2.802   0.513 -1.0254  1.9185  1.3659
  499SOL    HW2 1497   2.255   2.688   0.602 -0.6148 -1.8578  0.2683
  500SOL     OW 1498   0.381   0.354   2.472 -0.0423  0.2345 -0.1111
  500SOL    HW1 1499   0.324   0.392   2.548 -0.1706 -2.2233 -0.2723
  500SOL    HW2 1500   0.484   0.370   2.485  2.0879  0.9748 -0.2940
  501SOL     OW 1501   1.809   2.640   1.505 -0.6127  0.2988  0.2675
  501SOL    HW1 1502   1.834   2.557   1.444  1.6292 -1.5948 -2.0707
  501SOL    HW2 1503   1.707   2.641   1.518 -0.8408  0.6643 -0.0492
  502SOL     OW 1504   0.149   0.178   2.567 -0.0287  0.3520 -0.2692
  502SOL    HW1 1505   0.228   0.164   2.629 -0.9744 -1.8417 -0.1311
  502SOL    HW2 1506   0.160   0.133   2.476  0.2757  0.0383 -2.3993
  503SOL     OW 1507   1.850   2.490   2.331 -0.2889  0.5779 -0.3495
  503SOL    HW1 1508   1.899   2.401   2.340  2.9191  0.6633 -0.2249
  503SOL    HW2 1509   1.754   2.484   2.358  1.9350 -0.1604 -3.0370
  504SOL     OW 1510   2.079   0.128   1.862 -0.4049 -0.5524 -0.2509
  504SOL    HW1 1511   1.980   0.140   1.845  0.1190 -1.8383  0.3465
  504SOL    HW2 1512   2.136   0.202   1.835 -1.9294 -5.3806  1.4049
  505SOL     OW 1513   2.621   1.421   1.127 -0.4356 -0.2937  0.2486
  505SOL    HW1 1514   2.644   1.517   1.106 -0.4591 -2.8758 -0.0501
  505SOL    HW2 1515   2.576   1.408   1.218  1.1682  0.3751 -1.2474
  506SOL     OW 1516   0.146   1.636   1.639  0.7121 -0.5206 -0.4518
  506SOL    HW1 1517   0.191   1.648   1.547  1.4415 -0.1893  0.6562
  506SOL    HW2 1518   0.149   1.730   1.685  1.6267  2.5698 -2.2632
  507SOL     OW 1519   0.487   2.314   1.261  0.1185  0.3068  0.1888
  507SOL    HW1 1520   0.533   2.359   1.340  2.1532 -1.3673 -0.7563
  507SOL    HW2 1521   0.454   2.381   1.191  1.5107  1.5418 -0.6748
  508SOL     OW 1522   0.518   0.270   1.904 -0.2951 -0.2856  0.5419
  508SOL    HW1 1523   0.547   0.272   2.000 -0.9248  1.6750  0.2802
  508SOL    HW2 1524   0.424   0.238   1.897 -1.1817  0.5921 -0.1728
  509SOL     OW 1525   1.628   2.537   1.848 -0.0133  0.2416  0.0777
  509SOL    HW1 1526   1.526   2.527   1.845 -0.8544  1.3872  0.0400
  509SOL    HW2 1527   1.661   2.586   1.933  1.7042  3.0380  3.7369
  510SOL     OW 1528   2.203   1.296   2.425  0.1886 -0.2493 -0.4840
  510SOL    HW1 1529   2.111   1.333   2.410  0.5495 -1.5394  1.4249
  510SOL    HW2 1530   2.204   1.248   2.513 -3.4886 -0.7668  0.8262
  511SOL     OW 1531   1.116   1.237   1.111 -0.1925 -0.4198  0.5605
  511SOL    HW1 1532   1.188   1.279   1.168 -0.2636 -0.8634 -0.3964
  511SOL    HW2 1533   1.094   1.147   1.151 -0.4383  0.2194  0.9661
  512SOL     OW 1534   2.940   1.622   0.422  0.1671  0.1111 -0.2292
  512SOL    HW1 1535   2.857   1.639   0.482 -1.3255  0.6436  2.4951
  512SOL    HW2 1536   2.986   1.708   0.400  3.7412  0.5140  0.2342
  513SOL     OW 1537   1.099   2.050   2.222  0.2775 -0.1109  0.6256
  513SOL    HW1 1538   1.040   2.079   2.298  2.3776  3.1644 -0.7853
  513SOL    HW2 1539   1.137   2.139   2.186 -1.0404 -0.5406 -2.9131
  514SOL     OW 1540   0.326   2.115   1.007  0.0529 -0.1169 -0.4462
  514SOL    HW1 1541   0.256   2.050   1.046  0.2152 -0.2256  1.3287
  514SOL    HW2 1542   0.424   2.099   1.040  0.3751 -0.2868  0.6615
  515SOL     OW 1543   1.818   0.733   1.720  0.0747 -0.1891 -0.4814
  515SOL    HW1 1544   1.801   0.829   1.741  2.7132  1.0745  1.4914
  515SOL    HW2 1545   1.775   0.693   1.636  0.9980 -2.2305  0.6822
  516SOL     OW 1546   2.027   0.454   0.149 -0.6003  0.3223  0.1451
  516SOL    HW1 1547   2.057   0.485   0.054 -0.6342 -0.9017 -1.5900
  516SOL    HW2 1548   2.102   0.443   0.214 -1.7593  0.5245 -1.2502
  517SOL     OW 1549   1.095   1.737   2.791 -0.5700 -1.0272 -0.0100
  517SOL    HW1 1550   1.091   1.720   2.894 -0.8625  1.3800  0.2184
  517SOL    HW2 1551   1.157   1.672   2.741  1.0389 -0.7164 -2.1751
  518SOL     OW 1552   1.446   2.750   1.739  0.3699  0.2695  0.2470
  518SOL    HW1 1553   1.506   2.833   1.739 -1.9371  0.0288  2.4420
  518SOL    HW2 1554   1.472   2.687   1.666 -1.2385  0.3922  2.1406
  519SOL     OW 1555   2.074   2.867   1.043  0.1135 -0.3350  0.0257
  519SOL    HW1 1556   2.148   2.881   0.975 -1.4446  1.0020  1.1599
  519SOL    HW2 1557   1.988   2.909   1.014  2.3290  0.8671  3.5988
  520SOL     OW 1558   2.450   1.636   2.147 -0.0130  0.0786  0.1568
  520SOL    HW1 1559   2.460   1.639   2.048  3.7494  1.6238  0.5852
  520SOL    HW2 1560   2.399   1.719   2.179  0.5208 -2.0487  2.4394
  521SOL     OW 1561   2.664   0.655   0.094 -0.0661  0.3682 -0.6940
  521SOL    HW1 1562   2.700   0.575   0.033  0.1026 -0.0530 -2.7068
  521SOL    HW2 1563   2.631   0.613   0.178  3.6007  0.3013  0.1930
  522SOL     OW 1564   0.775   0.884   2.587 -0.0654  0.0276  0.2684
  522SOL    HW1 1565   0.711   0.826   2.526 -2.2767 -2.0647 -1.8945
  522SOL    HW2 1566   0.786   0.981   2.555 -0.1572 -0.3211 -2.4725
  523SOL     OW 1567   0.190   2.398   0.427 -0.0528  0.3997  0.2323
  523SOL    HW1 1568   0.166   2.338   0.507  1.1004 -1.4658  0.8257
  523SOL    HW2 1569   0.220   2.344   0.347  1.2207  2.0415  0.3919
  524SOL     OW 1570   2.224   2.629   2.991  0.3011 -0.2292  0.8300
  524SOL    HW1 1571   2.277   2.656   2.908 -1.2820  2.8406 -1.0837
  524SOL    HW2 1572   2.268   2.650   0.021  0.9909 -2.0750  2.5310
  525SOL     OW 1573   2.567   0.465   1.687 -0.1351  0.4020 -0.0204
  525SOL    HW1 1574   2.583   0.370   1.711  0.5228  3.0976  0.7504
  525SOL    HW2 1575   2.516   0.464   1.596 -0.0132 -1.7122  2.1240
  526SOL     OW 1576   1.067   2.980   0.399 -0.1849 -0.0224  0.0528
  526SOL    HW1 1577   1.153   3.000   0.448  0.6601  0.5614 -1.3106
  526SOL    HW2 1578   1.061   3.039   0.313  2.1440  0.9424  1.1263
  527SOL     OW 1579   1.983   0.022   0.567  0.3370 -0.0299  0.0415
  527SOL    HW1 1580   1.960   2.996   0.522 -1.3092  1.5399 -0.9624
  527SOL    HW2 1581   2.056   0.069   0.511  0.9105 -1.1907  0.7399
  528SOL     OW 1582   1.816   0.936   2.804  0.1184  0.4015 -0.7017
  528SOL    HW1 1583   1.841   0.836   2.786 -1.0953 -3.1341  0.7623
  528SOL    HW2 1584   1.725   0.960   2.764  2.0064  2.9821 -4.1796
  529SOL     OW 1585   1.710   1.482   2.198 -0.0533 -0.2977 -0.2494
  529SOL    HW1 1586   1.630   1.464   2.258 -0.6804  3.3999 -0.8455
  529SOL    HW2 1587   1.763   1.400   2.168 -0.3944 -0.2994 -0.5158
  530SOL     OW 1588   2.371   2.679   0.161 -0.3156  0.0696  0.2610
  530SOL    HW1 1589   2.387   2.735   0.247 -0.5581  1.5984 -0.0556
  530SOL    HW2 1590   2.437   2.600   0.160  1.2264  1.7774  0.7472
  531SOL     OW 1591   1.843   1.621   2.887 -0.4432  0.1380  0.0767
  531SOL    HW1 1592   1.917   1.606   2.962  0.4195 -0.2278  0.4259
  531SOL    HW2 1593   1.847   1.713   2.843  1.0359 -1.2444  3.2203
  532SOL     OW 1594   1.591   0.265   1.257 -0.0223 -0.2122  0.4818
  532SOL    HW1 1595   1.497   0.246   1.215 -1.5706 -0.3250 -1.5792
  532SOL    HW2 1596   1.611   0.365   1.226  0.5291  1.3231  0.3396
  533SOL     OW 1597   0.750   0.911   0.104 -0.4946  0.2060 -0.1378
  533SOL    HW1 1598   0.842   0.907   0.138 -2.5420  0.3222 -0.7378
  533SOL    HW2 1599   0.732   0.997   0.056 -2.9433  0.5666 -1.5051
  534SOL     OW 1600   1.588   0.670   3.000 -0.4310  0.2030  0.1840
  534SOL    HW1 1601   1.633   0.579   2.991 -1.6688 -1.7930 -1.0914
  534SOL    HW2 1602   1.636   0.730   0.008  1.0872  2.1163  1.0173
  535SOL     OW 1603   0.689   2.087   2.722  0.0059  0.0932 -0.3785
  535SOL    HW1 1604   0.669   2.132   2.813  0.1499 -0.7638  0.5993
  535SOL    HW2 1605   0.753   2.007   2.740 -0.0356 -0.0916  1.0878
  536SOL     OW 1606   0.518   2.886   0.170 -0.0431 -0.3641 -0.5197
  536SOL    HW1 1607   0.596   2.943   0.156 -1.8346 -1.3757 -0.8435
  536SOL    HW2 1608   0.542   2.811   0.231  0.9130 -0.6976 -0.3702
  537SOL     OW 1609   1.910   0.199   0.118  0.1784 -0.4681  0.0854
  537SOL    HW1 1610   1.869   0.168   0.208 -1.4842 -0.9359  2.0262
  537SOL    HW2 1611   1.964   0.288   0.132  2.5485  0.9747 -1.1510
  538SOL     OW 1612   2.485   2.414   0.129 -0.1764  0.6412  0.4416
  538SOL    HW1 1613   2.421   2.403   0.050  0.5502  1.8660 -2.1244
  538SOL    HW2 1614   2.441   2.368   0.209 -0.7976 -1.4631  0.4074
  539SOL     OW 1615   2.533   1.026   3.009  0.1899 -0.8550  0.2998
  539SOL    HW1 1616   2.562   0.952   2.944  0.1570  2.7467 -0.8490
  539SOL    HW2 1617   2.577   1.017   0.037  0.3256 -1.1340  0.1743
  540SOL     OW 1618   0.904   2.986   1.987  0.4032  0.7498  0.3926
  540SOL    HW1 1619   0.891   2.897   2.043  1.0809 -1.5773  1.8700
  540SOL    HW2 1620   0.817   3.028   1.964  1.3326  0.5855  0.3694
  541SOL     OW 1621   2.389   3.027   2.369 -0.3033  0.0381  0.0800
  541SOL    HW1 1622   2.311   0.021   2.408  0.6602  0.4723  1.0029
  541SOL    HW2 1623   2.464   0.017   2.328  1.6442  0.8165  0.0222
  542SOL     OW 1624   0.632   0.431   0.135 -0.1506 -0.0934 -0.3479
  542SOL    HW1 1625   0.551   0.393   0.082  0.0008  0.0494  1.0164
  542SOL    HW2 1626   0.602   0.499   0.209  1.1826  0.2666  2.9074
  543SOL     OW 1627   0.432   0.937   0.980  0.4681 -0.3127  0.0274
  543SOL    HW1 1628   0.333   0.950   1.021 -2.0325  0.8339  0.3229
  543SOL    HW2 1629   0.477   1.029   0.974  0.9322 -2.9478  1.2734
  544SOL     OW 1630   2.378   0.647   1.385 -0.0917  0.7392  0.0732
  544SOL    HW1 1631   2.464   0.616   1.334  1.6233  0.8228 -1.3347
  544SOL    HW2 1632   2.339   0.733   1.342  0.7599 -0.5079  2.6488
  545SOL     OW 1633   1.142   1.618   3.059 -0.2811 -0.6209 -0.0550
  545SOL    HW1 1634   1.125   1.694   0.068 -1.1998  0.1555  2.1074
  545SOL    HW2 1635   1.223   1.556   0.006 -2.0481 -1.9108 -1.2879
  546SOL     OW 1636   2.426   2.662   1.360  0.6436  0.3906 -0.2366
  546SOL    HW1 1637   2.325   2.638   1.369 -0.9248  1.1323 -0.9582
  546SOL    HW2 1638   2.482   2.637   1.440  1.1210  1.4712 -3.7635
  547SOL     OW 1639   1.502   2.571   2.211  0.0838  0.8811 -0.1102
  547SOL    HW1 1640   1.575   2.602   2.149 -1.8294  0.4584 -1.2374
  547SOL    HW2 1641   1.459   2.650   2.262  0.6754  4.6031  2.2424
  548SOL     OW 1642   1.557   0.650   2.587  0.2545 -0.3659  0.3623
  548SOL    HW1 1643   1.539   0.725   2.655 -0.8759 -2.1136 -0.8162
  548SOL    HW2 1644   1.552   0.558   2.630 -1.8162  1.0516 -3.2632
  549SOL     OW 1645   2.184   0.612   0.526 -0.1618  0.1280 -0.4064
  549SOL    HW1 1646   2.161   0.667   0.602  3.7243 -3.3211 -2.8320
  549SOL    HW2 1647   2.162   0.660   0.439 -2.8788 -0.2770  0.6789
  550SOL     OW 1648   2.305   1.513   0.328 -0.0488 -0.6884 -0.0770
  550SOL    HW1 1649   2.375   1.575   0.374  1.0656 -1.8657  1.7791
  550SOL    HW2 1650   2.332   1.516   0.230  0.8877  1.2038  0.5588
  551SOL     OW 1651   2.062   0.124   1.401 -0.6960  0.1325 -0.0037
  551SOL    HW1 1652   2.058   0.197   1.475  1.5582  1.1939  0.3448
  551SOL    HW2 1653   1.989   0.138   1.337  2.3529  1.2510  0.6475
  552SOL     OW 1654   1.427   0.064   2.894  0.1108 -0.3057  0.0873
  552SOL    HW1 1655   1.386   0.154   2.903 -0.2807  1.1143 -3.3679
  552SOL    HW2 1656   1.528   0.073   2.876 -0.6311  0.5848  0.6153
  553SOL     OW 1657   0.798   2.758   2.110  0.1632 -0.1257 -0.1669
  553SOL    HW1 1658   0.696   2.768   2.111  2.0824  0.3715 -3.6260
  553SOL    HW2 1659   0.836   2.717   2.194  1.5744 -3.1210 -0.7673
  554SOL     OW 1660   0.369   2.826   1.201 -0.3635 -0.3308 -0.6522
  554SOL    HW1 1661   0.281   2.855   1.160 -1.9209 -3.8841 -0.2550
  554SOL    HW2 1662   0.442   2.849   1.137 -1.3986 -1.0446 -2.5039
  555SOL     OW 1663   2.432   1.429   2.318  0.2027 -0.6850 -0.0689
  555SOL    HW1 1664   2.404   1.504   2.253  0.4024 -2.3029 -0.0642
  555SOL    HW2 1665   2.350   1.372   2.342 -3.4594 -0.4770  1.0289
  556SOL     OW 1666   1.231   0.563   0.015 -0.2365  0.1460 -0.0590
  556SOL    HW1 1667   1.252   0.540   2.982 -0.8615  0.8557  0.4828
  556SOL    HW2 1668   1.279   0.495   0.081 -0.9166  0.6554  0.5609
  557SOL     OW 1669   0.212   1.947   2.221 -0.3227  0.3452  0.1490
  557SOL    HW1 1670   0.252   2.018   2.158  0.3521  4.7639  0.9308
  557SOL    HW2 1671   0.154   1.882   2.171 -0.5583  1.5686  1.1469
  558SOL     OW 1672   1.863   0.646   2.782  0.4372  0.1682  0.1610
  558SOL    HW1 1673   1.796   0.599   2.846 -0.5152 -0.7498  1.6649
  558SOL    HW2 1674   1.842   0.630   2.682  0.0048 -0.2174  0.4301
  559SOL     OW 1675   1.939   1.796   1.696 -0.6195 -0.0522  0.2891
  559SOL    HW1 1676   1.907   1.820   1.596  2.2738  0.4999  0.6632
  559SOL    HW2 1677   1.862   1.756   1.746  3.7239 -1.9559 -1.3000
  560SOL     OW 1678   1.633   0.586   1.986  0.1882 -0.8380 -0.0698
  560SOL    HW1 1679   1.590   0.641   1.910  0.7509  3.4346  0.8936
  560SOL    HW2 1680   1.628   0.488   1.961  1.7942 -0.0333  0.2264
  561SOL     OW 1681   0.061   3.047   2.789 -0.4989  0.6526  0.2233
  561SOL    HW1 1682   3.037   3.053   2.734  0.6357 -1.1902  0.3544
  561SOL    HW2 1683   0.130   0.059   2.764  2.3347  2.5126 -0.8576
  562SOL     OW 1684   0.917   1.636   1.518  0.0134  0.1217  0.6339
  562SOL    HW1 1685   1.015   1.652   1.538 -1.6110  2.8300  0.7553
  562SOL    HW2 1686   0.861   1.673   1.597  1.4804  1.5852  2.5667
  563SOL     OW 1687   1.103   0.050   0.159 -0.1149 -0.1832 -0.4810
  563SOL    HW1 1688   1.053   0.098   0.084 -1.6223 -1.1146 -0.6579
  563SOL    HW2 1689   1.176   3.051   0.118  2.6386  1.4068 -0.2319
  564SOL     OW 1690   0.203   2.751   0.494  0.1921 -0.3032 -0.1289
  564SOL    HW1 1691   0.283   2.688   0.494 -0.7514  0.9516  2.7706
  564SOL    HW2 1692   0.124   2.703   0.450  1.5146  0.6553  1.7922
  565SOL     OW 1693   0.565   2.577   1.125 -0.0641  0.7950 -0.0444
  565SOL    HW1 1694   0.638   2.645   1.147  2.2607 -1.9095 -0.6331
  565SOL    HW2 1695   0.612   2.493   1.088 -1.1434 -0.0953 -1.0553
  566SOL     OW 1696   1.246   0.131   2.275 -0.3213  0.8191 -0.5480
  566SOL    HW1 1697   1.176   0.201   2.276  1.4250 -2.7376 -0.9422
  566SOL    HW2 1698   1.217   0.049   2.220  2.2159  0.6179  0.7898
  567SOL     OW 1699   2.174   0.227   0.892 -0.5975 -0.3106  0.0839
  567SOL    HW1 1700   2.211   0.270   0.805 -1.1263  1.7941  0.1591
  567SOL    HW2 1701   2.089   0.174   0.878 -1.1755  1.7622  1.5700
  568SOL     OW 1702   1.684   1.768   0.691 -0.1735  0.1839 -0.4312
  568SOL    HW1 1703   1.736   1.837   0.641  1.7160 -0.5888  0.1467
  568SOL    HW2 1704   1.652   1.692   0.634 -0.9763 -1.1637 -0.4811
  569SOL     OW 1705   2.001   0.390   2.010 -0.2016  0.5045  0.0163
  569SOL    HW1 1706   1.928   0.419   1.950  0.4324 -0.7615  1.7161
  569SOL    HW2 1707   1.977   0.412   2.104  0.5831 -2.2008 -1.6881
  570SOL     OW 1708   0.079   2.896   2.166 -0.2538 -0.1584  0.9139
  570SOL    HW1 1709   0.046   2.886   2.072 -1.9902 -0.5410 -0.4633
  570SOL    HW2 1710   0.076   2.801   2.201  1.8867  1.1603 -2.3474
  571SOL     OW 1711   0.646   2.724   1.470  0.3482 -0.2633  0.2098
  571SOL    HW1 1712   0.669   2.725   1.569  0.0639  0.2674 -1.9469
  571SOL    HW2 1713   0.623   2.629   1.443  0.0699  0.1246  1.9551
  572SOL     OW 1714   0.212   2.216   1.396 -0.0642  0.3715  0.1796
  572SOL    HW1 1715   0.121   2.253   1.364  3.1548 -1.9095 -0.9167
  572SOL    HW2 1716   0.287   2.283   1.376 -0.1002  1.8437  0.3697
  573SOL     OW 1717   1.243   0.907   2.720  0.4311  0.4204  0.7088
  573SOL    HW1 1718   1.275   0.858   2.801  0.1093 -0.2195 -2.4283
  573SOL    HW2 1719   1.142   0.887   2.705 -0.9064 -0.0947 -1.1842
  574SOL     OW 1720   2.483   2.397   2.237  0.4269  0.2572 -0.8098
  574SOL    HW1 1721   2.577   2.426   2.264 -0.6097 -1.7327  0.8671
  574SOL    HW2 1722   2.477   2.376   2.136  2.5980 -3.0578  0.2418
  575SOL     OW 1723   1.192   2.856   0.794 -0.2518  0.1634  0.0654
  575SOL    HW1 1724   1.208   2.854   0.694 -1.8417 -1.2742 -0.4623
  575SOL    HW2 1725   1.278   2.868   0.845 -0.5171  0.1658  1.1919
  576SOL     OW 1726   1.308   0.396   0.902 -0.4085  0.4933 -0.3800
  576SOL    HW1 1727   1.301   0.465   0.830  0.7882 -1.7960  2.1403
  576SOL    HW2 1728   1.390   0.334   0.885  2.4078  1.2932  0.3971
  577SOL     OW 1729   2.196   1.994   0.162 -0.3989  0.0465 -0.4881
  577SOL    HW1 1730   2.260   1.965   0.088  1.8631  0.8852  1.5368
  577SOL    HW2 1731   2.128   1.922   0.190  1.3161 -1.1377 -2.8305
  578SOL     OW 1732   2.157   0.478   1.329 -0.1195 -0.9597 -0.2647
  578SOL    HW1 1733   2.252   0.514   1.333 -0.6040  0.8774 -0.3982
  578SOL    HW2 1734   2.098   0.516   1.405  2.4356  0.3548 -1.1218
  579SOL     OW 1735   1.633   1.040   2.438 -0.1210  0.2312 -0.5038
  579SOL    HW1 1736   1.554   1.079   2.388  2.7861  1.5542  1.2371
  579SOL    HW2 1737   1.727   1.078   2.418 -2.2005  1.2595  0.6801
  580SOL     OW 1738   1.307   1.144   1.782  0.1182  0.5838  0.3014
  580SOL    HW1 1739   1.240   1.173   1.714  0.8372 -0.7080  2.9985
  580SOL    HW2 1740   1.273   1.062   1.834 -0.2990 -1.5613  0.1775
  581SOL     OW 1741   0.201   1.022   1.075  0.5385 -0.4138  0.1273
  581SOL    HW1 1742   0.162   0.978   1.159 -0.1304  0.3983  0.1277
  581SOL    HW2 1743   0.225   1.117   1.089 -2.5793 -1.8615 -1.8039
  582SOL     OW 1744   2.751   0.602   1.827  0.1293 -0.2240  0.2342
  582SOL    HW1 1745   2.677   0.551   1.781 -1.0687  0.7529  1.8845
  582SOL    HW2 1746   2.717   0.670   1.895 -0.2387 -1.5977  0.4394
  583SOL     OW 1747   2.910   0.869   2.525 -0.0860  0.1284 -0.5008
  583SOL    HW1 1748   2.920   0.916   2.435  0.1223  0.1428 -1.3822
  583SOL    HW2 1749   2.814   0.876   2.560 -1.5905  1.9623 -0.6375
  584SOL     OW 1750   2.095   2.423   0.487  0.3023 -0.2865  0.0715
  584SOL    HW1 1751   2.156   2.351   0.518  0.6879  1.6414  0.4024
  584SOL    HW2 1752   2.114   2.449   0.391 -0.4005 -0.0061  1.2581
  585SOL     OW 1753   0.061   2.131   0.073 -0.7673 -0.1757 -0.0747
  585SOL    HW1 1754   0.062   2.033   0.048  1.5907  0.0061 -2.6724
  585SOL    HW2 1755   0.010   2.143   0.168  0.5704  0.3442  1.6661
  586SOL     OW 1756   1.882   2.001   2.353  0.0102  0.0884  0.3154
  586SOL    HW1 1757   1.915   1.987   2.260  1.2443  1.3278  3.2834
  586SOL    HW2 1758   1.927   2.085   2.402  2.0850  0.1236 -0.3661
  587SOL     OW 1759   2.216   1.577   2.714  0.0533 -0.4754 -0.7240
  587SOL    HW1 1760   2.314   1.554   2.738  1.5963 -2.2370  1.5226
  587SOL    HW2 1761   2.166   1.494   2.682  1.7901  1.6854  0.1625
  588SOL     OW 1762   2.782   0.144   1.287 -0.0096 -0.2469  0.0074
  588SOL    HW1 1763   2.726   0.070   1.241 -1.2063 -0.2190  0.9331
  588SOL    HW2 1764   2.733   0.170   1.371  2.3616 -3.1742 -0.4672
  589SOL     OW 1765   0.541   0.274   0.783 -0.1758  0.0913  0.7628
  589SOL    HW1 1766   0.479   0.241   0.707 -2.2373 -1.4432  2.1526
  589SOL    HW2 1767   0.527   0.375   0.790  3.1710  0.9961  1.4317
  590SOL     OW 1768   2.471   2.186   0.841 -0.0637  0.3396 -0.8127
  590SOL    HW1 1769   2.380   2.230   0.840  1.5008  0.0258 -0.5924
  590SOL    HW2 1770   2.514   2.178   0.749 -2.7233  0.8193  2.8740
  591SOL     OW 1771   1.208   2.267   0.835 -0.0916  0.3425 -0.1756
  591SOL    HW1 1772   1.247   2.250   0.932 -1.2840  0.5508  1.7598
  591SOL    HW2 1773   1.233   2.359   0.803  0.8264  0.2554 -1.5672
  592SOL     OW 1774   1.051   1.020   1.272  0.3450 -0.3073  0.0857
  592SOL    HW1 1775   1.112   0.940   1.286 -0.7872  3.3051  1.6437
  592SOL    HW2 1776   1.052   1.074   1.359 -0.5798 -3.7407  2.1703
  593SOL     OW 1777   0.857   2.501   1.508 -0.1131  0.2243 -0.0218
  593SOL    HW1 1778   0.925   2.559   1.566  3.9007  1.5355 -0.9645
  593SOL    HW2 1779   0.877   2.516   1.407 -1.1361  0.2483 -0.4880
  594SOL     OW 1780   0.923   1.469   2.990  0.1135 -0.1319  0.2070
  594SOL    HW1 1781   0.995   1.544   3.000 -0.7462  3.7183  1.7031
  594SOL    HW2 1782   0.833   1.510   2.964 -0.9941  0.8629  2.0196
  595SOL     OW 1783   1.272   1.379   1.490  0.3484  0.0130 -0.0612
  595SOL    HW1 1784   1.331   1.428   1.560  1.9048  0.6363 -0.5769
  595SOL    HW2 1785   1.229   1.438   1.418 -0.1050  0.0745 -0.6102
  596SOL     OW 1786   2.725   1.126   2.102  0.2842  0.3540  0.3576
  596SOL    HW1 1787   2.744   1.077   2.013 -1.1373  2.6283 -0.0651
  596SOL    HW2 1788   2.781   1.210   2.111  0.7962  1.0884  0.0542
  597SOL     OW 1789   1.413   2.415   1.700 -0.1566  0.3067 -0.1937
  597SOL    HW1 1790   1.340   2.422   1.632  0.9401 -0.3937  3.5267
  597SOL    HW2 1791   1.507   2.430   1.664  2.9073 -0.4836 -0.8787
  598SOL     OW 1792   2.191   1.216   1.284 -0.0738  0.0511  0.2918
  598SOL    HW1 1793   2.290   1.196   1.310  0.8793  1.5547  0.1037
  598SOL    HW2 1794   2.141   1.257   1.363 -1.7513 -1.4963 -1.4692
  599SOL     OW 1795   0.925   2.494   2.856  0.2237  0.2483 -0.2593
  599SOL    HW1 1796   1.018   2.455   2.880  1.2876  1.0749  0.5666
  599SOL    HW2 1797   0.865   2.475   2.935  1.4763  1.1879 -1.8567
  600SOL     OW 1798   2.950   2.108   0.290  0.2199 -0.8525  0.3050
  600SOL    HW1 1799   2.908   2.023   0.257 -2.4699  2.3618  1.1603
  600SOL    HW2 1800   2.959   2.102   0.389  0.4225  0.2568  1.4014
  601SOL     OW 1801   0.455   0.827   1.387  0.0388  0.1343 -0.0238
  601SOL    HW1 1802   0.518   0.878   1.452  1.2515  2.7818 -0.1743
  601SOL    HW2 1803   0.387   0.773   1.440  0.0600  2.0486  0.9074
  602SOL     OW 1804   0.719   0.182   1.244 -0.0958 -0.3993  0.0711
  602SOL    HW1 1805   0.675   0.158   1.336 -2.1797 -0.3792  2.3655
  602SOL    HW2 1806   0.711   0.286   1.238  0.2076  0.2843 -2.5358
  603SOL     OW 1807   0.374   2.781   2.893  0.4085  0.0725 -0.9358
  603SOL    HW1 1808   0.341   2.737   2.807 -0.2679 -3.3510 -1.6405
  603SOL    HW2 1809   0.298   2.839   2.932 -0.3288  1.0120 -0.9923
  604SOL     OW 1810   1.456   0.126   1.798 -0.1233  0.3483 -0.3805
  604SOL    HW1 1811   1.355   0.140   1.815  1.8641 -0.5209  2.2041
  604SOL    HW2 1812   1.481   0.025   1.788 -1.5778  2.7138  0.5963
  605SOL     OW 1813   1.447   1.450   1.684  0.1647 -0.0590  0.0090
  605SOL    HW1 1814   1.539   1.486   1.654 -1.5501  0.0828 -0.0416
  605SOL    HW2 1815   1.454   1.399   1.775  0.0966 -3.1669  0.3175
  606SOL     OW 1816   1.962   2.898   3.051 -0.3092 -0.2406  0.3653
  606SOL    HW1 1817   2.055   2.937   0.018 -0.2383 -0.2397 -0.8600
  606SOL    HW2 1818   1.968   2.891   2.948 -0.1629 -2.1093  1.1631
  607SOL     OW 1819   0.661   0.059   2.464 -0.1900  0.2625  0.1898
  607SOL    HW1 1820   0.627   0.003   2.543 -1.4300  0.5387 -1.6996
  607SOL    HW2 1821   0.739   0.117   2.489 -0.5384 -0.2445 -0.0433
  608SOL     OW 1822   3.000   2.255   2.082  0.0301  0.3040 -0.2188
  608SOL    HW1 1823   3.026   2.292   2.176  1.5201  0.1090  2.0882
  608SOL    HW2 1824   2.992   2.157   2.088  0.3400  3.9135  0.5203
  609SOL     OW 1825   0.788   1.157   3.056  0.6279  0.0297  0.0974
  609SOL    HW1 1826   0.724   1.140   2.977 -1.1593  3.1265  0.0582
  609SOL    HW2 1827   0.878   1.139   3.006  0.8635 -0.8705 -0.5081
  610SOL     OW 1828   0.407   2.632   0.910  0.3533 -0.0840 -0.2586
  610SOL    HW1 1829   0.369   2.722   0.941  0.5131  0.5163  0.3558
  610SOL    HW2 1830   0.465   2.596   0.987 -2.3843 -2.9639 -0.3409
  611SOL     OW 1831   1.104   1.416   0.386 -0.2063 -0.1836  0.4363
  611SOL    HW1 1832   1.201   1.416   0.427 -1.0213 -0.2955 -1.3372
  611SOL    HW2 1833   1.059   1.321   0.398  0.7985 -1.2959  0.3467
  612SOL     OW 1834   2.212   1.954   0.592 -0.2570 -0.2270 -0.2919
  612SOL    HW1 1835   2.120   1.919   0.565  0.2332  1.4118 -0.5571
  612SOL    HW2 1836   2.226   1.945   0.693 -0.0956 -0.0621  0.6630
  613SOL     OW 1837   1.673   1.651   0.400 -0.0195  0.1545  0.0527
  613SOL    HW1 1838   1.585   1.703   0.387 -2.6559  4.4981  1.2166
  613SOL    HW2 1839   1.674   1.584   0.474  2.0944  1.8043 -0.1866
  614SOL     OW 1840   2.814   0.368   2.546  0.3980 -1.0888 -0.4020
  614SOL    HW1 1841   2.865   0.330   2.627 -0.5976 -2.4573  3.2729
  614SOL    HW2 1842   2.859   0.342   2.461 -1.6185 -1.3121  1.1392
  615SOL     OW 1843   0.609   1.326   0.484 -0.2368 -0.5177  0.1308
  615SOL    HW1 1844   0.612   1.246   0.419  2.0916 -1.4116  1.3139
  615SOL    HW2 1845   0.697   1.345   0.523 -3.4642 -2.4491 -3.5112
  616SOL     OW 1846   1.529   0.957   2.688 -0.4441  0.4141  0.3135
  616SOL    HW1 1847   1.430   0.946   2.666  0.8690  1.6715  0.7526
  616SOL    HW2 1848   1.573   1.006   2.618 -2.1466 -1.9408  2.6534
  617SOL     OW 1849   1.407   0.788   0.320  0.0441  0.0634 -0.1608
  617SOL    HW1 1850   1.319   0.769   0.370 -0.1933 -1.5578 -1.0506
  617SOL    HW2 1851   1.470   0.713   0.339 -1.9141  0.7526 -0.7555
  618SOL     OW 1852   2.958   1.839   1.912  0.5215 -0.1610 -0.0898
  618SOL    HW1 1853   3.045   1.830   1.862  0.6946 -1.3218  0.7918
  618SOL    HW2 1854   2.932   1.758   1.965  0.7114 -1.0893  1.8652
  619SOL     OW 1855   2.521   1.891   0.667  0.0520 -0.2596 -0.0713
  619SOL    HW1 1856   2.622   1.879   0.693  0.0106 -0.8788 -0.7526
  619SOL    HW2 1857   2.514   1.983   0.619  1.4325  2.5032 -2.1418
  620SOL     OW 1858   2.616   3.029   1.086  0.4146  0.4805  0.2112
  620SOL    HW1 1859   2.665   0.038   1.036 -0.4066 -0.9396  1.4770
  620SOL    HW2 1860   2.514   3.042   1.076 -2.4892 -0.9751  0.4186
  621SOL     OW 1861   0.166   1.752   0.674  0.0466  0.0365 -0.3187
  621SOL    HW1 1862   0.178   1.653   0.678  0.1622  0.0568 -1.4070
  621SOL    HW2 1863   0.258   1.796   0.673 -0.0002  2.0801  1.6406
  622SOL     OW 1864   0.499   1.901   1.664  0.4623  0.2646 -0.2737
  622SOL    HW1 1865   0.418   1.926   1.604  1.7375 -1.3788 -1.6636
  622SOL    HW2 1866   0.498   1.963   1.749 -2.4664 -0.1058  1.4550
  623SOL     OW 1867   2.382   2.812   2.199  0.5346  0.2490 -0.1331
  623SOL    HW1 1868   2.387   2.858   2.106 -1.2150  1.2698 -2.3701
  623SOL    HW2 1869   2.381   2.877   2.276 -0.2927  0.2075 -0.2635
  624SOL     OW 1870   0.580   1.894   0.186  0.4959  0.6239  1.2110
  624SOL    HW1 1871   0.549   1.937   0.100  2.2532  1.0473  2.7513
  624SOL    HW2 1872   0.569   1.790   0.178  2.3568 -1.7312 -3.9892
  625SOL     OW 1873   0.624   1.815   2.044 -0.1488 -0.1631 -0.0691
  625SOL    HW1 1874   0.721   1.836   2.076  0.2297 -0.3939 -2.4119
  625SOL    HW2 1875   0.580   1.752   2.109  0.4833  0.4754 -1.2116
  626SOL     OW 1876   0.042   2.631   2.934 -0.5417  0.3756  0.3243
  626SOL    HW1 1877   0.126   2.585   2.967  1.0292  1.3212  0.2056
  626SOL    HW2 1878   0.062   2.711   2.881  0.3215 -1.3931 -1.1345
  627SOL     OW 1879   1.588   1.654   2.466  0.0769  0.0521 -0.5094
  627SOL    HW1 1880   1.686   1.676   2.449 -2.4067  1.4530 -1.2485
  627SOL    HW2 1881   1.585   1.555   2.492  0.7295  0.0985 -1.3253
  628SOL     OW 1882   1.159   2.063   0.217 -0.4914  0.0281  0.1532
  628SOL    HW1 1883   1.082   2.133   0.198 -0.0075  1.7046  0.5682
  628SOL    HW2 1884   1.240   2.111   0.260  0.2542  3.4823  0.1753
  629SOL     OW 1885   0.841   0.968   2.239  0.5772  0.2754  0.0495
  629SOL    HW1 1886   0.815   1.033   2.313  0.6382  0.9718  0.2568
  629SOL    HW2 1887   0.828   1.015   2.145  2.3059 -0.3887 -1.7077
  630SOL     OW 1888   3.011   2.637   1.743 -0.4014  0.0274 -0.4103
  630SOL    HW1 1889   3.053   2.660   1.652 -1.5462 -0.1893 -3.7375
  630SOL    HW2 1890   2.950   2.557   1.730  3.1774  1.0150  2.7579
  631SOL     OW 1891   1.353   0.954   0.932  0.2521 -0.1942  0.0158
  631SOL    HW1 1892   1.259   0.918   0.917  1.5670  0.8851  2.1036
  631SOL    HW2 1893   1.360   1.021   1.007  0.5433 -0.6978 -1.0207
  632SOL     OW 1894   2.280   0.381   2.095  0.0719 -0.2250  0.3977
  632SOL    HW1 1895   2.244   0.325   2.177 -0.0450 -0.9316  1.3243
  632SOL    HW2 1896   2.204   0.396   2.028 -1.8866  0.4615  1.1196
  633SOL     OW 1897   1.702   1.144   0.168  0.1144  0.1396  0.0534
  633SOL    HW1 1898   1.613   1.090   0.176 -2.8542 -3.1266  0.3836
  633SOL    HW2 1899   1.751   1.114   0.086  0.8003  0.6894  1.8456
  634SOL     OW 1900   0.230   1.882   0.215 -0.2988  0.1595 -0.2539
  634SOL    HW1 1901   0.294   1.807   0.193 -0.7876  1.4510 -0.4554
  634SOL    HW2 1902   0.155   1.880   0.146  1.2433  0.2655  1.6404
  635SOL     OW 1903   2.713   1.581   2.250 -0.0024  0.3105 -0.1091
  635SOL    HW1 1904   2.714   1.597   2.350 -2.9690 -0.3172 -2.8484
  635SOL    HW2 1905   2.623   1.615   2.213 -0.4480  1.7551  0.0898
  636SOL     OW 1906   0.154   1.629   2.537  0.0456  0.2803 -0.3283
  636SOL    HW1 1907   0.087   1.632   2.613  0.6627  0.5009 -1.2790
  636SOL    HW2 1908   0.177   1.722   2.506 -1.8826 -2.9602 -1.1664
  637SOL     OW 1909   0.331   2.188   0.307 -0.1120 -0.4696  0.0312
  637SOL    HW1 1910   0.288   2.108   0.257  2.8680 -1.3292 -3.9183
  637SOL    HW2 1911   0.432   2.177   0.332  2.7060  0.6109 -0.2039
  638SOL     OW 1912   2.508   2.535   0.474 -0.2071 -0.5910 -0.3532
  638SOL    HW1 1913   2.489   2.635   0.454  0.7504 -0.1188 -1.0712
  638SOL    HW2 1914   2.448   2.467   0.422 -3.1041 -3.0975 -1.7475
  639SOL     OW 1915   1.068   0.679   0.209 -0.5700  0.0661 -0.0392
  639SOL    HW1 1916   0.980   0.640   0.173  3.1086  1.1132 -0.7656
  639SOL    HW2 1917   1.147   0.622   0.167 -1.4405 -0.0526  0.6960
  640SOL     OW 1918   2.388   2.199   1.752  0.6920 -0.1492 -0.1633
  640SOL    HW1 1919   2.451   2.269   1.797 -2.6699  1.5767  1.5738
  640SOL    HW2 1920   2.316   2.243   1.692 -0.4832  1.5217  2.4294
  641SOL     OW 1921   2.635   2.664   1.143 -0.0930 -0.1070 -0.0067
  641SOL    HW1 1922   2.564   2.685   1.218 -1.1874  0.5206  1.2769
  641SOL    HW2 1923   2.705   2.740   1.136  0.9254  1.1280 -0.4637
  642SOL     OW 1924   0.812   1.050   1.696  1.0660 -0.2000  0.0097
  642SOL    HW1 1925   0.877   0.998   1.633  0.8760  0.2548  0.4802
  642SOL    HW2 1926   0.828   1.148   1.676  0.7370  0.5839 -2.3779
  643SOL     OW 1927   0.428   1.391   2.209 -0.1095  0.3615  0.5814
  643SOL    HW1 1928   0.352   1.376   2.274  0.8601 -1.7150 -5.0259
  643SOL    HW2 1929   0.388   1.398   2.115 -2.0792  0.9011  0.3514
  644SOL     OW 1930   1.022   0.319   2.269 -0.0091 -0.5425  0.1973
  644SOL    HW1 1931   1.071   0.408   2.255  2.2999 -1.3299 -1.6470
  644SOL    HW2 1932   0.993   0.284   2.178 -1.2903  0.8843 -0.5289
  645SOL     OW 1933   1.915   1.037   1.445 -0.0055 -0.2279  0.2338
  645SOL    HW1 1934   1.976   0.970   1.487 -1.0593  1.9351 -2.4411
  645SOL    HW2 1935   1.934   1.049   1.347 -2.3918 -2.3529  3.0580
  646SOL     OW 1936   1.515   2.652   0.223 -0.5720 -0.5177 -0.2484
  646SOL    HW1 1937   1.613   2.658   0.190  3.5720  0.7378  0.8823
  646SOL    HW2 1938   1.465   2.587   0.167  1.6571  0.4604 -0.9256
  647SOL     OW 1939   1.536   2.727   0.739  0.2777 -0.4221  0.0149
  647SOL    HW1 1940   1.615   2.686   0.791  0.1662 -0.4712 -1.8392
  647SOL    HW2 1941   1.563   2.736   0.642  1.8399 -0.4880 -2.1438
  648SOL     OW 1942   0.281   2.524   1.192  0.0922 -0.1967 -0.2215
  648SOL    HW1 1943   0.255   2.466   1.115 -2.7754 -0.4206  1.4284
  648SOL    HW2 1944   0.370   2.573   1.183  1.0852  1.0892 -0.7096
  649SOL     OW 1945   1.136   2.204   2.902 -0.4486 -0.2422  0.5275
  649SOL    HW1 1946   1.196   2.136   2.851  0.7596 -1.8419 -0.8283
  649SOL    HW2 1947   1.047   2.162   2.921  0.9906  0.9072  0.7464
  650SOL     OW 1948   2.419   1.298   3.018 -0.2435 -0.0747  0.4012
  650SOL    HW1 1949   2.419   1.196   3.015 -1.2218  2.1513 -1.0039
  650SOL    HW2 1950   2.502   1.336   0.003  0.9377  1.1261  0.7087
  651SOL     OW 1951   2.463   2.139   2.316  0.3651  0.1329  0.3564
  651SOL    HW1 1952   2.482   2.237   2.289 -2.5359 -1.9291 -0.0053
  651SOL    HW2 1953   2.408   2.138   2.405 -0.6357 -1.6295  2.0808
  652SOL     OW 1954   2.711   2.364   0.402 -0.7811  0.0975 -0.6554
  652SOL    HW1 1955   2.639   2.436   0.410 -0.8081  1.2791  0.7867
  652SOL    HW2 1956   2.772   2.374   0.321 -0.0324  3.1832 -3.6503
  653SOL     OW 1957   2.447   1.781   1.427 -0.3209 -0.5469 -0.3390
  653SOL    HW1 1958   2.406   1.864   1.469  2.4423 -2.3161 -1.2047
  653SOL    HW2 1959   2.392   1.694   1.434  0.7984 -2.9703 -0.2400
  654SOL     OW 1960   1.212   1.153   0.137  0.5022 -0.0245 -0.6801
  654SOL    HW1 1961   1.137   1.084   0.154  1.1551 -1.6024  0.0901
  654SOL    HW2 1962   1.191   1.211   0.057 -1.7172  1.2127  0.3736
  655SOL     OW 1963   1.359   1.461   0.724  0.1919  0.5153 -0.0088
  655SOL    HW1 1964   1.289   1.421   0.785  1.9200 -1.1250 -1.7232
  655SOL    HW2 1965   1.334   1.458   0.625  0.5386  0.9273  2.7820
  656SOL     OW 1966   1.673   2.527   2.544  0.6596 -0.2494 -0.1670
  656SOL    HW1 1967   1.574   2.537   2.546 -0.1003 -1.9462  2.3679
  656SOL    HW2 1968   1.717   2.615   2.571  0.4044 -0.3130  2.0369
  657SOL     OW 1969   2.094   1.544   0.498 -0.1728 -0.0448 -0.3079
  657SOL    HW1 1970   2.060   1.452   0.532 -2.8147 -1.2279  0.7087
  657SOL    HW2 1971   2.158   1.537   0.418  2.0410  2.4629  0.4443
  658SOL     OW 1972   2.314   3.011   1.576  0.3366 -0.2152  0.3856
  658SOL    HW1 1973   2.280   2.992   1.669  0.3768  1.4041 -1.9000
  658SOL    HW2 1974   2.244   2.995   1.506  0.8737 -3.5573  0.0983
  659SOL     OW 1975   2.744   1.565   0.235 -0.2433 -0.3647 -0.5149
  659SOL    HW1 1976   2.807   1.593   0.311 -1.7000 -0.1828  0.5144
  659SOL    HW2 1977   2.659   1.622   0.234 -1.7726  1.3721  1.5954
  660SOL     OW 1978   1.280   0.630   0.730 -0.4292  0.1317 -0.1588
  660SOL    HW1 1979   1.227   0.637   0.643 -0.9261  0.1260  0.2654
  660SOL    HW2 1980   1.254   0.689   0.806  1.6805 -0.5104  1.4819
  661SOL     OW 1981   1.785   0.566   0.108 -0.1840 -0.0245  0.3181
  661SOL    HW1 1982   1.869   0.526   0.154 -0.4179 -0.0641 -0.6187
  661SOL    HW2 1983   1.779   0.663   0.141 -0.7801  1.6544 -1.2705
  662SOL     OW 1984   0.533   0.219   0.294 -0.1170  0.3747 -0.4230
  662SOL    HW1 1985   0.523   0.160   0.212 -0.1107  4.5801  1.4891
  662SOL    HW2 1986   0.621   0.276   0.300  0.2129  0.5747  1.9644
  663SOL     OW 1987   1.206   2.467   2.885  0.3830 -0.3876 -0.0258
  663SOL    HW1 1988   1.193   2.363   2.897 -1.8859  1.1196 -0.6931
  663SOL    HW2 1989   1.203   2.479   2.785 -2.2281 -2.0869  0.7239
  664SOL     OW 1990   0.747   2.768   1.215  0.0032  0.8729 -0.1410
  664SOL    HW1 1991   0.732   2.757   1.316 -0.5762  0.0095  1.9403
  664SOL    HW2 1992   0.843   2.782   1.187 -0.7023  2.7218  0.6466
  665SOL     OW 1993   1.433   2.926   0.902  0.1407 -0.6206 -0.3954
  665SOL    HW1 1994   1.508   2.867   0.861  1.5443 -1.0830 -0.1644
  665SOL    HW2 1995   1.475   3.015   0.930  1.2753  0.6275  1.6599
  666SOL     OW 1996   0.833   2.309   2.651  0.0652 -0.2303  0.0743
  666SOL    HW1 1997   0.770   2.232   2.658 -1.2764  2.4065 -2.1528
  666SOL    HW2 1998   0.820   2.373   2.732  3.6866 -0.4829  3.0449
  667SOL     OW 1999   2.855   0.461   1.444  0.7351  0.2966  0.0181
  667SOL    HW1 2000   2.819   0.377   1.493 -0.5253 -2.6345  1.3118
  667SOL    HW2 2001   2.941   0.438   1.396 -1.7068 -0.0960  0.4564
  668SOL     OW 2002   0.551   0.382   1.652 -0.1278  0.1580  0.3167
  668SOL    HW1 2003   0.615   0.459   1.646 -2.0639  0.9076 -0.6193
  668SOL    HW2 2004   0.569   0.334   1.739  0.7688  0.9375 -2.7698
  669SOL     OW 2005   1.271   2.916   1.136  0.2760  0.4259  0.1932
  669SOL    HW1 2006   1.171   2.886   1.130 -2.1524  3.1315 -0.0560
  669SOL    HW2 2007   1.320   2.910   1.043  1.7664 -0.2064 -2.5831
  670SOL     OW 2008   1.767   2.579   2.908 -0.3144  0.0699  0.4324
  670SOL    HW1 2009   1.792   2.651   2.836 -0.2043  2.5242 -0.5209
  670SOL    HW2 2010   1.841   2.510   2.910 -2.7319  2.2227 -1.8925
  671SOL     OW 2011   0.314   1.307   2.828  0.2576 -0.4317  0.0726
  671SOL    HW1 2012   0.238   1.319   2.762  1.3588  0.6906  4.1692
  671SOL    HW2 2013   0.404   1.308   2.774  3.5186  2.1792 -0.6183
  672SOL     OW 2014   2.152   0.547   2.455  0.5950  0.1355  0.1876
  672SOL    HW1 2015   2.213   0.563   2.533  0.6754  0.7783 -0.1546
  672SOL    HW2 2016   2.165   0.622   2.383 -0.0535  0.7311 -0.5889
  673SOL     OW 2017   0.091   1.977   1.085  0.5176 -0.4073 -0.2889
  673SOL    HW1 2018   0.015   1.970   1.151  3.7710  0.0049  1.5246
  673SOL    HW2 2019   0.114   1.884   1.057 -0.9341  0.3102  0.6571
  674SOL     OW 2020   1.698   2.140   1.740  0.1488  0.2258  0.3595
  674SOL    HW1 2021   1.662   2.161   1.833 -0.7031  0.0236 -1.6196
  674SOL    HW2 2022   1.645   2.195   1.673  2.2979 -2.0153 -0.1553
  675SOL     OW 2023   1.046   1.591   1.110  0.2103  0.0135  0.0256
  675SOL    HW1 2024   0.961   1.648   1.116  0.0667  0.5071 -0.2600
  675SOL    HW2 2025   1.074   1.573   1.015  0.0779 -0.6696 -0.7639
  676SOL     OW 2026   2.144   0.757   0.980 -0.1349  0.2876 -0.4147
  676SOL    HW1 2027   2.092   0.725   0.897 -2.4615 -0.3299 -0.7402
  676SOL    HW2 2028   2.240   0.778   0.961  0.9723  0.4366  2.4855
  677SOL     OW 2029   2.445   0.152   0.324 -0.6644 -0.2216 -0.0128
  677SOL    HW1 2030   2.518   0.150   0.394 -0.7982  0.3202  0.2672
  677SOL    HW2 2031   2.440   0.241   0.268  1.3056  0.1541  0.5142
  678SOL     OW 2032   2.389   1.150   0.885 -0.0026  0.0194 -0.6404
  678SOL    HW1 2033   2.378   1.250   0.878 -0.0205 -0.8515  0.4973
  678SOL    HW2 2034   2.447   1.131   0.969  0.1003  0.8190 -0.2651
  679SOL     OW 2035   2.411   0.352   0.121 -0.1445 -0.0354 -0.1352
  679SOL    HW1 2036   2.381   0.447   0.135  1.1700  0.2672  0.5573
  679SOL    HW2 2037   2.510   0.357   0.102  0.7623  0.5402 -1.1860
  680SOL     OW 2038   0.542   1.649   2.239  0.5615 -0.2541  0.4636
  680SOL    HW1 2039   0.504   1.553   2.228  0.4675  0.3483 -1.5352
  680SOL    HW2 2040   0.478   1.695   2.303  0.2531  0.2656 -0.2845
  681SOL     OW 2041   2.568   2.083   1.565 -0.1543 -0.2386  0.3547
  681SOL    HW1 2042   2.620   2.102   1.650  1.0437 -1.3113  1.3463
  681SOL    HW2 2043   2.464   2.070   1.577 -1.4158 -0.0701 -0.7521
  682SOL     OW 2044   0.378   1.802   2.387 -0.4135 -0.2786  0.2988
  682SOL    HW1 2045   0.315   1.855   2.330  1.3546  1.1678 -0.2528
  682SOL    HW2 2046   0.455   1.864   2.405 -1.1228  1.7982 -4.1513
  683SOL     OW 2047   2.697   1.895   1.399 -0.2975  0.6519  0.1248
  683SOL    HW1 2048   2.624   1.826   1.403 -0.4754 -1.7912 -2.6835
  683SOL    HW2 2049   2.660   1.986   1.423  0.7288 -0.4574 -1.6860
  684SOL     OW 2050   2.717   1.623   1.793  0.2293  0.5436 -0.1585
  684SOL    HW1 2051   2.803   1.634   1.740  1.8280  1.7270  0.0728
  684SOL    HW2 2052   2.696   1.525   1.809  1.3337 -2.2753 -3.2057
  685SOL     OW 2053   0.865   0.790   0.908 -0.2791 -0.5446 -0.0989
  685SOL    HW1 2054   0.805   0.833   0.841  0.6640  0.7316 -0.8006
  685SOL    HW2 2055   0.856   0.687   0.899  0.2490 -0.2511 -1.7182
  686SOL     OW 2056   0.460   2.955   2.640 -0.0792 -0.0043  0.0397
  686SOL    HW1 2057   0.424   3.047   2.666  0.0156 -1.5619 -0.6659
  686SOL    HW2 2058   0.390   2.907   2.580 -0.4734  1.5002 -1.3046
  687SOL     OW 2059   0.567   2.045   1.902 -0.6695  0.3988  0.2602
  687SOL    HW1 2060   0.634   2.117   1.876 -1.4298 -0.2067 -0.0485
  687SOL    HW2 2061   0.613   1.964   1.945 -0.5155  0.6183  0.4794
  688SOL     OW 2062   2.233   0.355   1.725  0.0470 -0.6766 -0.1290
  688SOL    HW1 2063   2.135   0.338   1.694 -1.8343 -0.7742 -1.2943
  688SOL    HW2 2064   2.270   0.444   1.689  0.1592 -1.2336  2.1936
  689SOL     OW 2065   1.992   1.000   0.702  0.3391 -0.5596  0.2128
  689SOL    HW1 2066   2.052   1.048   0.635 -0.6260  1.2614  0.7285
  689SOL    HW2 2067   1.934   0.926   0.658 -0.3185 -1.9284 -0.3602
  690SOL     OW 2068   2.627   0.772   1.106 -0.8772  0.2133  0.0171
  690SOL    HW1 2069   2.728   0.780   1.070  2.5512 -1.0464 -0.9549
  690SOL    HW2 2070   2.625   0.684   1.163  0.0558 -3.1323  3.3203
  691SOL     OW 2071   0.062   0.960   1.956  0.5147 -0.1093 -0.1446
  691SOL    HW1 2072   0.051   0.880   2.018  1.5739  1.7626 -0.3067
  691SOL    HW2 2073   3.057   0.961   1.879  1.5044  1.1655  0.1659
  692SOL     OW 2074   0.601   1.300   1.863 -0.2279  0.2800  0.2588
  692SOL    HW1 2075   0.699   1.326   1.885  2.5967  0.2557  2.1896
  692SOL    HW2 2076   0.581   1.199   1.862  0.8841  0.4559 -1.0486
  693SOL     OW 2077   0.390   1.094   1.825 -0.2716  0.0172 -0.0144
  693SOL    HW1 2078   0.335   1.129   1.905 -1.6597 -0.8178 -0.2300
  693SOL    HW2 2079   0.362   1.000   1.789 -1.7640 -2.6389  0.4291
  694SOL     OW 2080   1.474   2.017   0.995  0.1971 -0.7553  0.3804
  694SOL    HW1 2081   1.478   1.995   0.897  0.4764 -0.9354 -0.4101
  694SOL    HW2 2082   1.412   1.956   1.049  2.3459  0.1515 -2.9465
  695SOL     OW 2083   2.864   0.834   1.016 -0.1837 -0.0826 -0.1273
  695SOL    HW1 2084   2.828   0.888   0.939 -0.9162 -0.6774 -0.4567
  695SOL    HW2 2085   2.951   0.782   0.986 -0.3952  2.0976 -0.0299
  696SOL     OW 2086   0.590   2.177   0.409  0.0527  0.0368  0.9733
  696SOL    HW1 2087   0.624   2.274   0.396  0.9711  0.3782 -0.0580
  696SOL    HW2 2088   0.589   2.157   0.511 -0.0711  0.6785  5.2266
  697SOL     OW 2089   1.504   0.973   1.669 -0.4596 -0.5359  0.3601
  697SOL    HW1 2090   1.582   0.996   1.605  0.4353  1.0211 -3.1421
  697SOL    HW2 2091   1.457   1.061   1.691  0.4456  2.1628 -2.9968
  698SOL     OW 2092   1.687   1.564   1.375 -0.0879  0.3167  0.5295
  698SOL    HW1 2093   1.627   1.645   1.390  0.0285 -0.7021  0.5608
  698SOL    HW2 2094   1.777   1.584   1.331 -0.6552  0.3413  2.9089
  699SOL     OW 2095   0.220   0.529   2.613  0.4170  0.0724 -0.8970
  699SOL    HW1 2096   0.124   0.552   2.584 -1.2203  0.6876 -2.6377
  699SOL    HW2 2097   0.284   0.608   2.591 -0.2479  1.0851 -1.1993
  700SOL     OW 2098   1.647   2.324   0.690 -0.4383 -0.4187  0.3578
  700SOL    HW1 2099   1.665   2.347   0.789  1.0387  0.4428 -0.6322
  700SOL    HW2 2100   1.572   2.375   0.650 -0.2986 -0.5681  1.6071
  701SOL     OW 2101   2.930   1.290   2.145 -1.0355  0.1892  0.4061
  701SOL    HW1 2102   2.922   1.329   2.241  1.1901  1.8311 -0.0539
  701SOL    HW2 2103   3.027   1.317   2.111  3.0725 -0.2419 -2.2967
  702SOL     OW 2104   0.613   0.181   2.758  0.4410  0.0182  0.3044
  702SOL    HW1 2105   0.668   0.239   2.818 -2.5511  0.4570 -1.8749
  702SOL    HW2 2106   0.609   0.232   2.667  0.4153  1.0873 -1.5688
  703SOL     OW 2107   1.698   0.447   2.887  0.3742  0.4292 -0.0136
  703SOL    HW1 2108   1.787   0.405   2.874 -0.5392  1.4048  3.2246
  703SOL    HW2 2109   1.633   0.427   2.811  1.5532  1.1938 -0.7830
  704SOL     OW 2110   2.808   1.236   1.100  0.0441 -0.1455 -0.7887
  704SOL    HW1 2111   2.800   1.182   1.013  2.1257 -0.7822 -1.2243
  704SOL    HW2 2112   2.731   1.306   1.107 -0.3345  0.9464 -2.1637
  705SOL     OW 2113   2.372   1.958   1.870  0.2753 -0.1863 -0.3787
  705SOL    HW1 2114   2.402   2.049   1.825 -2.2955  0.7070 -1.0845
  705SOL    HW2 2115   2.302   1.911   1.814 -0.5650 -1.1405 -0.7274
  706SOL     OW 2116   3.015   2.431   0.853  0.4036 -0.2755  0.2279
  706SOL    HW1 2117   0.010   2.514   0.824  1.3769  2.0432 -0.7765
  706SOL    HW2 2118   2.950   2.409   0.779  1.2817 -1.0369  1.4175
  707SOL     OW 2119   0.910   2.856   0.212  0.3015  0.1769 -0.7676
  707SOL    HW1 2120   0.854   2.937   0.219  1.1701 -1.5376  1.8468
  707SOL    HW2 2121   0.989   2.872   0.273  1.1206  1.2572 -1.4666
  708SOL     OW 2122   0.861   2.245   1.630 -0.9374 -0.4829  0.2821
  708SOL    HW1 2123   0.883   2.336   1.584 -0.7247  2.6154 -0.0132
  708SOL    HW2 2124   0.812   2.176   1.576 -0.6716  1.3726  2.8883
  709SOL     OW 2125   2.197   0.121   2.533 -0.2126 -0.4912  0.1551
  709SOL    HW1 2126   2.109   0.074   2.545  2.2355  1.3812 -0.6610
  709SOL    HW2 2127   2.267   0.092   2.604  0.7527 -2.7143 -3.1764
  710SOL     OW 2128   1.260   2.526   2.625  0.4556  1.2482 -0.0915
  710SOL    HW1 2129   1.265   2.485   2.530  0.3722  0.2573  0.3694
  710SOL    HW2 2130   1.311   2.615   2.623  1.3323 -0.8499  0.2331
  711SOL     OW 2131   1.047   2.206   2.476 -0.0277  0.0490 -0.3471
  711SOL    HW1 2132   1.108   2.285   2.446  0.7923  2.8473  1.0347
  711SOL    HW2 2133   0.987   2.234   2.550  1.4615  1.5408 -2.7474
  712SOL     OW 2134   1.218   1.977   2.774 -0.0835  0.0201 -0.1313
  712SOL    HW1 2135   1.256   1.985   2.680  1.8166  1.9355 -1.3148
  712SOL    HW2 2136   1.159   1.898   2.793 -1.8115  0.4022 -1.0782
  713SOL     OW 2137   0.731   0.995   1.941 -0.6752 -0.0178  0.2663
  713SOL    HW1 2138   0.757   1.031   1.848 -0.8002  0.8045  2.2417
  713SOL    HW2 2139   0.760   0.897   1.948  2.1262 -2.5422  0.1736
  714SOL     OW 2140   1.701   2.111   1.090  0.7264 -0.5731 -0.5711
  714SOL    HW1 2141   1.602   2.079   1.084  1.2350  1.5131  2.1233
  714SOL    HW2 2142   1.707   2.215   1.073  1.9321  3.2171 -2.7352
  715SOL     OW 2143   0.140   0.302   0.634  0.2588  0.7018 -0.0662
  715SOL    HW1 2144   0.124   0.210   0.681 -0.4665 -2.2369 -0.1530
  715SOL    HW2 2145   0.196   0.298   0.554 -2.3182  0.2964  0.9123
  716SOL     OW 2146   0.768   2.625   0.202  0.1744  0.3760 -0.4546
  716SOL    HW1 2147   0.808   2.573   0.128 -1.0629  1.1097  2.2183
  716SOL    HW2 2148   0.828   2.705   0.229  0.8916  1.3346 -1.7428
  717SOL     OW 2149   0.235   0.258   0.379 -0.0135 -0.4175 -0.4165
  717SOL    HW1 2150   0.330   0.242   0.355  1.6143 -1.9502 -0.3456
  717SOL    HW2 2151   0.179   0.208   0.309  0.6774 -1.3371 -2.2252
  718SOL     OW 2152   1.544   2.465   1.174 -0.2116  0.0850  0.1112
  718SOL    HW1 2153   1.490   2.427   1.251  1.0455  1.6572  0.4567
  718SOL    HW2 2154   1.619   2.524   1.214 -2.0685  1.4071 -0.6266
  719SOL     OW 2155   2.862   2.313   0.641  0.8077 -0.2497 -0.2191
  719SOL    HW1 2156   2.907   2.229   0.612  2.3106 -2.0440  0.2759
  719SOL    HW2 2157   2.807   2.345   0.560  0.8166 -0.2907  0.5351
  720SOL     OW 2158   1.143   1.385   0.894  0.1500 -0.2301  0.6386
  720SOL    HW1 2159   1.064   1.438   0.853 -0.9476  3.3792 -0.9854
  720SOL    HW2 2160   1.132   1.342   0.985 -0.1068  1.3473 -0.6362
  721SOL     OW 2161   0.869   0.522   0.893 -0.6560 -0.1445 -0.0612
  721SOL    HW1 2162   0.773   0.526   0.933 -0.8780 -2.9073 -0.0636
  721SOL    HW2 2163   0.916   0.432   0.909  1.2538  2.1841  1.6151
  722SOL     OW 2164   1.113   1.151   1.519 -0.7992  0.6845  0.1004
  722SOL    HW1 2165   1.165   1.239   1.509  2.5059 -0.5856 -4.3627
  722SOL    HW2 2166   1.170   1.072   1.542 -2.4172  1.7849  1.2969
  723SOL     OW 2167   0.785   0.265   1.810  0.4906 -0.4135 -0.1257
  723SOL    HW1 2168   0.779   0.347   1.746  2.2401 -0.6475 -2.2240
  723SOL    HW2 2169   0.708   0.259   1.870  3.2987  2.3272 -0.0016
  724SOL     OW 2170   1.941   2.046   1.828 -0.0909  0.2487 -0.0099
  724SOL    HW1 2171   1.947   1.949   1.792  3.8439 -0.5575 -1.1515
  724SOL    HW2 2172   1.864   2.097   1.786 -1.1161 -1.1375  0.5851
  725SOL     OW 2173   0.973   2.911   1.483  0.1846 -0.4333  0.5921
  725SOL    HW1 2174   1.074   2.925   1.495 -1.4363  1.4871  3.7986
  725SOL    HW2 2175   0.916   2.908   1.573 -2.3325  1.9619  0.0231
  726SOL     OW 2176   1.524   0.539   0.393 -0.2723  0.4030  0.1404
  726SOL    HW1 2177   1.472   0.496   0.471 -2.6669  2.4826  0.1030
  726SOL    HW2 2178   1.570   0.471   0.328  2.1913 -0.7400 -1.3298
  727SOL     OW 2179   1.298   2.200   1.087 -0.0082 -0.4287 -0.0893
  727SOL    HW1 2180   1.320   2.286   1.138  1.8039  1.7593  0.2389
  727SOL    HW2 2181   1.382   2.155   1.047  0.6573  0.5114  0.7663
  728SOL     OW 2182   1.628   0.170   2.292 -0.4902  0.2616  0.0314
  728SOL    HW1 2183   1.697   0.131   2.228  1.4340  0.0028 -0.9180
  728SOL    HW2 2184   1.587   0.097   2.351 -0.6314  0.9565  1.5230
  729SOL     OW 2185   2.374   1.411   0.851  0.1359  0.2502 -0.4209
  729SOL    HW1 2186   2.353   1.410   0.753 -0.3225  4.2388  1.1197
  729SOL    HW2 2187   2.390   1.505   0.882 -1.1820 -2.5099 -3.3483
  730SOL     OW 2188   2.000   1.067   2.637 -0.4369 -0.3786  0.3870
  730SOL    HW1 2189   1.935   1.115   2.571  1.9989  0.7700 -1.2397
  730SOL    HW2 2190   1.957   1.006   2.704 -1.0409  2.0636 -3.2794
  731SOL     OW 2191   0.390   0.009   1.575  0.1594 -0.3653  0.7065
  731SOL    HW1 2192   0.318   0.065   1.524 -0.6043  0.0035  0.7406
  731SOL    HW2 2193   0.410   2.982   1.524  2.3096 -2.5309 -0.2699
  732SOL     OW 2194   1.732   0.612   1.500  0.2602  0.2367  0.1179
  732SOL    HW1 2195   1.688   0.518   1.495  1.4337 -1.9795 -0.4059
  732SOL    HW2 2196   1.713   0.675   1.421  3.7641  0.3715  2.0736
  733SOL     OW 2197   0.881   1.372   1.822  0.4448 -0.1520 -0.9617
  733SOL    HW1 2198   0.850   1.383   1.726  1.4779 -1.2345  0.6379
  733SOL    HW2 2199   0.977   1.406   1.828  0.4908 -0.7052 -0.6383
  734SOL     OW 2200   2.525   1.748   0.244 -0.0725  0.4587 -0.6174
  734SOL    HW1 2201   2.481   1.681   0.187  1.5606  1.4881  1.8545
  734SOL    HW2 2202   2.526   1.834   0.192 -2.8737 -1.1591  2.2769
  735SOL     OW 2203   0.524   0.586   0.328 -0.2249  0.2978  0.0242
  735SOL    HW1 2204   0.422   0.565   0.334  1.1421  1.1577 -1.6106
  735SOL    HW2 2205   0.562   0.590   0.420 -1.9451  0.0733 -3.1258
  736SOL     OW 2206   1.765   2.595   0.113 -0.7163  0.1709  0.2045
  736SOL    HW1 2207   1.866   2.627   0.122  2.5485  0.9877 -0.8985
  736SOL    HW2 2208   1.740   2.578   0.016 -1.1709  1.2861 -1.4747
  737SOL     OW 2209   1.079   2.188   1.227 -0.1163 -0.4465 -0.0785
  737SOL    HW1 2210   1.080   2.113   1.297  0.0084  2.3076 -0.0593
  737SOL    HW2 2211   1.160   2.175   1.165  1.0584 -0.5308 -0.1584
  738SOL     OW 2212   1.942   3.024   2.546  0.5062 -0.3240 -0.1867
  738SOL    HW1 2213   1.853   0.015   2.548  2.3021  0.0081  3.9039
  738SOL    HW2 2214   1.942   2.947   2.480 -1.2134 -0.0749  1.8390
  739SOL     OW 2215   1.764   2.272   2.614 -0.6412  0.2673  0.2567
  739SOL    HW1 2216   1.842   2.252   2.550 -0.4458  0.2142  1.7666
  739SOL    HW2 2217   1.725   2.364   2.589  1.4735  0.4105 -2.5593
  740SOL     OW 2218   1.864   2.352   2.087 -0.2868 -0.0711  0.2405
  740SOL    HW1 2219   1.805   2.318   2.161  2.2245  0.9808  0.4294
  740SOL    HW2 2220   1.954   2.302   2.094  2.5758 -2.4448  2.8355
  741SOL     OW 2221   2.326   2.085   2.563  0.0904 -0.1179  1.0086
  741SOL    HW1 2222   2.241   2.110   2.617  0.3949 -0.7376  0.0386
  741SOL    HW2 2223   2.405   2.068   2.622 -2.9946  1.4455 -1.7758
  742SOL     OW 2224   1.292   1.296   2.769  0.0733  0.1830 -0.8444
  742SOL    HW1 2225   1.391   1.290   2.755 -0.7135 -0.0773 -0.7807
  742SOL    HW2 2226   1.247   1.298   2.677 -0.8259  0.7004 -1.3555
  743SOL     OW 2227   1.561   1.275   2.803  0.1895 -0.0711 -0.0490
  743SOL    HW1 2228   1.527   1.201   2.869  1.4118 -2.6327  1.0938
  743SOL    HW2 2229   1.567   1.369   2.850  1.1780  0.9046  1.3897
  744SOL     OW 2230   2.320   2.926   1.299  0.7437 -0.2010  0.5939
  744SOL    HW1 2231   2.369   2.836   1.324 -1.5833 -3.4013 -0.1284
  744SOL    HW2 2232   2.273   2.925   1.209  0.3825  2.2553 -2.5628
  745SOL     OW 2233   2.601   0.805   0.692  0.4886  0.2586 -0.1757
  745SOL    HW1 2234   2.573   0.759   0.606 -2.6173  1.5481 -1.2137
  745SOL    HW2 2235   2.605   0.905   0.682  1.0824 -1.9112  0.1924
  746SOL     OW 2236   2.501   1.827   1.145  0.1157  0.8589 -0.2262
  746SOL    HW1 2237   2.473   1.827   1.239  1.1817  1.3997  0.0272
  746SOL    HW2 2238   2.541   1.917   1.116  3.1060 -2.3237 -3.4334
  747SOL     OW 2239   1.597   0.144   0.079 -0.4429  0.8337  0.0472
  747SOL    HW1 2240   1.650   0.052   0.085  1.1806  0.6387  2.1213
  747SOL    HW2 2241   1.597   0.188   3.045 -0.2373 -0.2962  0.7319
  748SOL     OW 2242   0.769   1.249   0.246  0.0128 -0.2395 -0.0618
  748SOL    HW1 2243   0.808   1.343   0.234 -0.3901  0.4083 -0.7897
  748SOL    HW2 2244   0.763   1.207   0.151  0.4938  1.4498 -1.3439
  749SOL     OW 2245   2.779   0.743   2.158 -0.2488  0.1029 -0.1613
  749SOL    HW1 2246   2.738   0.681   2.227 -0.9972 -0.7988  2.4814
  749SOL    HW2 2247   2.813   0.833   2.198 -2.2071  1.2701 -0.0562
  750SOL     OW 2248   0.753   0.706   1.941  0.2260 -0.2696 -0.6273
  750SOL    HW1 2249   0.751   0.637   2.016 -0.8258 -1.3972 -1.2236
  750SOL    HW2 2250   0.674   0.700   1.877 -0.5590  0.6998  1.8017
  751SOL     OW 2251   2.517   2.588   1.838  0.2125  0.2552 -0.1435
  751SOL    HW1 2252   2.420   2.571   1.825  5.1223  0.4013 -0.2441
  751SOL    HW2 2253   2.532   2.675   1.887  0.3515 -1.4361  0.2214
  752SOL     OW 2254   1.959   1.493   0.944  0.0990 -0.4510 -0.3953
  752SOL    HW1 2255   2.044   1.442   0.969 -1.6783  0.1052 -0.0929
  752SOL    HW2 2256   1.985   1.589   0.929  0.7352 -2.6702  1.0637
  753SOL     OW 2257   1.043   1.117   1.910 -0.4516  0.5311  0.1365
  753SOL    HW1 2258   0.946   1.114   1.877  1.6179  0.1285 -1.2779
  753SOL    HW2 2259   1.076   1.025   1.938  1.5838 -1.9794  0.5055
  754SOL     OW 2260   0.680   2.431   0.376 -0.3368 -0.6559  0.1223
  754SOL    HW1 2261   0.708   2.503   0.306  1.5376 -2.9090 -2.4898
  754SOL    HW2 2262   0.705   2.464   0.468  1.1589 -3.0703 -1.8295
  755SOL     OW 2263   2.553   2.848   0.878  0.7828 -0.8671 -0.2274
  755SOL    HW1 2264   2.457   2.808   0.886  0.2033 -0.6094  0.7804
  755SOL    HW2 2265   2.577   2.897   0.960  0.0331 -2.7729  1.3389
  756SOL     OW 2266   2.280   1.870   2.414 -0.0315  0.2525 -0.3954
  756SOL    HW1 2267   2.295   1.959   2.464 -2.6207 -1.7821 -1.6546
  756SOL    HW2 2268   2.290   1.899   2.318  1.3885  3.0001  1.6090
  757SOL     OW 2269   0.104   2.952   1.811  0.8311  0.2648  0.4133
  757SOL    HW1 2270   0.117   2.914   1.718  1.2735  0.4685  2.2264
  757SOL    HW2 2271   0.033   2.906   1.867 -1.1737 -0.2833  0.4853
  758SOL     OW 2272   0.395   2.561   0.451  0.1444  0.3668  0.4534
  758SOL    HW1 2273   0.332   2.481   0.438  2.3566  2.9103  0.9076
  758SOL    HW2 2274   0.462   2.546   0.522  1.0615  1.0253 -1.5955
  759SOL     OW 2275   1.951   1.080   1.173  0.1261  0.6242  0.0828
  759SOL    HW1 2276   1.929   1.179   1.180  2.2929  0.0494  0.0805
  759SOL    HW2 2277   2.031   1.085   1.107 -2.0542 -0.2677 -1.2533
  760SOL     OW 2278   1.246   0.866   1.566 -0.0980 -0.3505 -0.3145
  760SOL    HW1 2279   1.286   0.789   1.509 -2.5334  1.3214  1.6363
  760SOL    HW2 2280   1.299   0.887   1.644 -2.1563 -2.1922 -0.9973
  761SOL     OW 2281   2.046   0.298   1.123 -0.1006  0.0320 -0.3171
  761SOL    HW1 2282   2.104   0.346   1.190  3.7266 -0.7592  1.0258
  761SOL    HW2 2283   2.102   0.277   1.041 -1.0379 -0.1241  0.0282
  762SOL     OW 2284   1.636   0.250   0.517 -0.1759  0.2754  0.7472
  762SOL    HW1 2285   1.723   0.203   0.487  4.0061  0.7616  0.8635
  762SOL    HW2 2286   1.644   0.326   0.586 -0.0768 -0.4261  0.8255
  763SOL     OW 2287   0.800   0.468   1.636  0.0832  0.1080  0.4488
  763SOL    HW1 2288   0.783   0.563   1.615 -0.8301 -1.8783  2.7975
  763SOL    HW2 2289   0.889   0.440   1.596 -0.6931 -0.6225  0.3594
  764SOL     OW 2290   2.160   2.326   2.261  0.0498  0.0512 -0.1840
  764SOL    HW1 2291   2.168   2.294   2.164  1.2797 -1.2622 -1.0648
  764SOL    HW2 2292   2.200   2.422   2.262 -0.7374  2.5351 -1.5188
  765SOL     OW 2293   2.942   1.269   2.576  0.2284  0.3028  0.2360
  765SOL    HW1 2294   2.887   1.348   2.606 -1.7003  2.8080 -2.0845
  765SOL    HW2 2295   2.932   1.193   2.642 -1.1599 -0.6695 -0.3846
  766SOL     OW 2296   2.959   0.624   2.829 -0.3278 -0.2859 -1.1294
  766SOL    HW1 2297   2.961   0.543   2.889  1.6298 -0.1237  0.2261
  766SOL    HW2 2298   2.987   0.598   2.734  0.9677  0.3891 -0.7393
  767SOL     OW 2299   0.432   2.361   1.753  0.4369 -0.1387 -0.2583
  767SOL    HW1 2300   0.384   2.275   1.779  0.8943 -2.8547  0.3361
  767SOL    HW2 2301   0.372   2.440   1.730 -3.2710 -1.5583 -0.7759
  768SOL     OW 2302   1.010   0.941   0.163 -0.3851 -0.1260 -0.1066
  768SOL    HW1 2303   1.047   0.845   0.183 -1.7964 -2.9911  1.4729
  768SOL    HW2 2304   1.011   0.962   0.060 -1.6218  1.4519  0.1151
  769SOL     OW 2305   1.293   2.319   0.372 -0.4468 -0.1689 -0.0062
  769SOL    HW1 2306   1.197   2.325   0.394 -0.5086 -0.0833  2.2808
  769SOL    HW2 2307   1.344   2.367   0.442 -0.4821 -5.8349  1.3461
  770SOL     OW 2308   1.215   0.208   1.857 -0.4670 -0.2087 -0.2894
  770SOL    HW1 2309   1.205   0.295   1.807  1.2076 -0.7949  0.2632
  770SOL    HW2 2310   1.183   0.210   1.953  1.0345 -2.7302 -0.1078
  771SOL     OW 2311   0.791   2.515   0.812  0.0114 -0.2887  0.1042
  771SOL    HW1 2312   0.865   2.585   0.809 -1.3484 -0.8790  2.9462
  771SOL    HW2 2313   0.773   2.479   0.906  0.9947 -0.4120 -1.8322
  772SOL     OW 2314   2.320   0.600   0.143  0.1186  0.2158  0.4204
  772SOL    HW1 2315   2.385   0.594   0.219 -2.6030  1.9722  0.9789
  772SOL    HW2 2316   2.232   0.636   0.177  0.7005 -1.9183 -1.9848
  773SOL     OW 2317   2.124   0.735   1.803  0.2886  0.1649 -0.3132
  773SOL    HW1 2318   2.164   0.670   1.736  0.7946 -2.6491  3.9333
  773SOL    HW2 2319   2.033   0.763   1.769  1.5303 -0.0220 -0.6740
  774SOL     OW 2320   0.371   0.758   0.783  0.4647 -0.4288 -0.4961
  774SOL    HW1 2321   0.350   0.826   0.708 -1.3613 -1.2393  0.3844
  774SOL    HW2 2322   0.410   0.811   0.866 -1.6751  0.2033  2.9202
  775SOL     OW 2323   1.598   0.372   0.935 -0.3274  0.0052 -0.0589
  775SOL    HW1 2324   1.681   0.379   0.994  0.1725 -1.5234  0.4215
  775SOL    HW2 2325   1.596   0.450   0.872 -0.5848 -0.6883  0.4087
  776SOL     OW 2326   2.104   2.918   2.273 -0.2735  0.3621 -0.4944
  776SOL    HW1 2327   2.202   2.908   2.247  2.0704  0.5475 -2.4406
  776SOL    HW2 2328   2.060   3.008   2.244 -1.4316  1.1785 -0.2429
  777SOL     OW 2329   1.365   1.464   0.442 -0.0701 -0.2879  0.1657
  777SOL    HW1 2330   1.353   1.566   0.433 -2.6933 -0.1632 -1.4161
  777SOL    HW2 2331   1.432   1.435   0.373 -1.0671 -1.7079  1.2029
  778SOL     OW 2332   0.268   2.522   3.054 -1.0427 -0.6076 -1.0358
  778SOL    HW1 2333   0.327   2.495   0.071 -2.4773  0.9131 -0.6237
  778SOL    HW2 2334   0.303   2.614   3.021  0.2626 -0.9875  1.3610
  779SOL     OW 2335   0.174   1.423   0.166  0.2655 -0.2383  0.1107
  779SOL    HW1 2336   0.257   1.370   0.147 -0.6599 -0.0890  0.2225
  779SOL    HW2 2337   0.157   1.447   0.264 -1.5815  0.3410 -1.6968
  780SOL     OW 2338   1.492   0.318   2.106  0.0313 -0.7747  0.2166
  780SOL    HW1 2339   1.560   0.302   2.033 -0.3227  3.0394  3.0243
  780SOL    HW2 2340   1.532   0.271   2.179 -2.7476  2.6122 -2.3597
  781SOL     OW 2341   1.810   1.843   1.098 -0.0330 -0.7052 -0.0278
  781SOL    HW1 2342   1.761   1.932   1.092 -3.0055 -0.1920 -0.0249
  781SOL    HW2 2343   1.897   1.849   1.039  1.0810 -0.5883 -1.4401
  782SOL     OW 2344   2.000   2.629   2.144 -0.1477  0.1370  0.2729
  782SOL    HW1 2345   1.938   2.555   2.165 -0.9496 -2.2021 -0.2933
  782SOL    HW2 2346   2.095   2.592   2.160 -0.5701 -2.5660  0.1689
  783SOL     OW 2347   1.461   0.517   1.668 -0.3911 -0.0635  0.1176
  783SOL    HW1 2348   1.383   0.453   1.653 -0.5585 -1.0601 -0.7772
  783SOL    HW2 2349   1.437   0.604   1.722 -1.3120 -0.9022 -0.9710
  784SOL     OW 2350   1.473   0.755   1.839  0.2334  0.1954 -0.4723
  784SOL    HW1 2351   1.491   0.833   1.775  3.6080  0.7552 -1.5968
  784SOL    HW2 2352   1.418   0.783   1.920  2.2758 -1.2800 -0.6889
  785SOL     OW 2353   1.795   0.814   0.631 -0.3655  0.1190  0.5377
  785SOL    HW1 2354   1.771   0.878   0.547  1.4759 -0.0616 -4.0195
  785SOL    HW2 2355   1.710   0.781   0.677 -0.7243  2.2382 -1.0065
  786SOL     OW 2356   3.005   1.163   0.352 -0.5868  0.2461  0.4509
  786SOL    HW1 2357   2.968   1.159   0.259 -0.7197 -2.8538 -2.5859
  786SOL    HW2 2358   3.040   1.252   0.382 -1.4487 -0.7931 -0.8805
  787SOL     OW 2359   1.413   1.775   0.157  0.4758 -0.6935 -0.1341
  787SOL    HW1 2360   1.414   1.685   0.107  2.2588 -1.2807  1.6764
  787SOL    HW2 2361   1.373   1.849   0.094 -0.9654  1.2702 -1.1727
  788SOL     OW 2362   2.130   1.067   0.975  0.4207 -0.0820 -0.2610
  788SOL    HW1 2363   2.226   1.100   0.980  0.2520  0.1162 -0.6943
  788SOL    HW2 2364   2.100   1.043   0.883  0.1414 -0.9601 -0.8794
  789SOL     OW 2365   2.909   1.601   2.048 -0.2147  0.6296  0.0923
  789SOL    HW1 2366   2.935   1.514   2.006  0.0331 -0.8879  1.6815
  789SOL    HW2 2367   2.828   1.582   2.110  1.2969 -0.4467 -1.2512
  790SOL     OW 2368   1.045   0.076   2.606 -0.5839 -0.0657  0.3527
  790SOL    HW1 2369   0.983   0.046   2.683 -3.6227  2.1330  0.9073
  790SOL    HW2 2370   1.143   0.064   2.631 -3.9856  0.6599 -0.4740
  791SOL     OW 2371   0.203   2.361   2.718 -0.4264 -0.3382 -0.3911
  791SOL    HW1 2372   0.211   2.317   2.813 -0.3314 -0.9922  0.8134
  791SOL    HW2 2373   0.158   2.300   2.654 -0.3648  0.0986  5.7487
  792SOL     OW 2374   1.302   0.466   1.999 -0.1062 -0.4821 -0.0065
  792SOL    HW1 2375   1.368   0.398   2.035  2.8359 -1.5352  2.1832
  792SOL    HW2 2376   1.276   0.452   1.901 -2.0762  0.7847 -0.9166
  793SOL     OW 2377   2.620   0.141   2.320 -0.2107  0.4730 -0.4240
  793SOL    HW1 2378   2.670   0.076   2.379 -2.2842  1.8911 -2.4226
  793SOL    HW2 2379   2.677   0.209   2.272 -0.5231  3.0422 -0.7280
  794SOL     OW 2380   0.233   0.248   1.956 -0.1183  0.2703 -0.2456
  794SOL    HW1 2381   0.256   0.236   2.056 -0.5768 -1.0548 -0.4933
  794SOL    HW2 2382   0.256   0.167   1.902 -1.2207 -2.7341 -1.8801
  795SOL     OW 2383   2.648   1.306   0.208  0.5249 -0.9065  0.1515
  795SOL    HW1 2384   2.728   1.248   0.181 -1.4056  1.0461 -0.5155
  795SOL    HW2 2385   2.674   1.403   0.220  0.8571 -0.9722  1.8848
  796SOL     OW 2386   2.708   1.938   2.614 -0.1211 -0.1336 -0.3012
  796SOL    HW1 2387   2.774   1.980   2.551  0.7487  1.7658 -0.3862
  796SOL    HW2 2388   2.630   2.004   2.634 -0.4700  2.7481 -1.0370
  797SOL     OW 2389   2.831   1.878   0.200 -0.5821 -0.5273  0.1036
  797SOL    HW1 2390   2.795   1.807   0.139  1.6585  1.4057  1.5685
  797SOL    HW2 2391   2.778   1.881   0.288  0.1645  2.3966  1.5228
  798SOL     OW 2392   0.548   0.680   1.791  0.0949 -0.8830  0.2850
  798SOL    HW1 2393   0.509   0.639   1.708  0.6914  2.4034  4.6250
  798SOL    HW2 2394   0.481   0.670   1.870 -0.0728 -0.1353  0.9315
  799SOL     OW 2395   2.660   1.319   2.445 -0.3409  0.3247 -0.5750
  799SOL    HW1 2396   2.684   1.227   2.413 -1.4928 -4.5746 -0.4186
  799SOL    HW2 2397   2.600   1.370   2.384 -0.5988  0.1777  0.3732
  800SOL     OW 2398   3.012   2.059   0.559  0.2060  0.2742 -0.0695
  800SOL    HW1 2399   3.055   1.987   0.502 -0.6124  1.1614  2.5874
  800SOL    HW2 2400   3.039   2.055   0.654 -2.1765  0.1941 -1.3214
  801SOL     OW 2401   1.126   0.816   0.852 -0.0237  0.0967 -0.0820
  801SOL    HW1 2402   1.030   0.802   0.881 -1.4250 -1.9778  0.6999
  801SOL    HW2 2403   1.139   0.875   0.771  2.2857  3.5805  1.6753
  802SOL     OW 2404   2.040   2.117   0.917  0.0100  0.4808 -0.1097
  802SOL    HW1 2405   2.040   2.015   0.934 -2.3238 -2.1487  0.3824
  802SOL    HW2 2406   1.974   2.144   0.842 -2.3166 -0.0490  1.1246
  803SOL     OW 2407   0.083   1.425   0.447  0.3800 -0.3055  0.0616
  803SOL    HW1 2408   0.124   1.449   0.535 -0.1985 -1.3863 -0.4014
  803SOL    HW2 2409   0.016   1.492   0.410  0.1404 -0.9912  0.7540
  804SOL     OW 2410   1.431   2.467   0.543  0.2843 -0.1621  0.4430
  804SOL    HW1 2411   1.372   2.494   0.622  0.0941 -0.3485 -0.5726
  804SOL    HW2 2412   1.485   2.547   0.513  2.3209  2.5854  0.2563
  805SOL     OW 2413   1.633   2.023   2.483  0.4760 -0.5139 -0.8673
  805SOL    HW1 2414   1.638   2.036   2.584  1.6948 -0.5548  0.1307
  805SOL    HW2 2415   1.722   2.034   2.433  3.1783  1.7651  0.4195
  806SOL     OW 2416   1.690   2.924   1.475  0.0064 -0.4922  0.0764
  806SOL    HW1 2417   1.642   3.007   1.507 -0.6423 -0.1184 -2.0342
  806SOL    HW2 2418   1.773   2.894   1.526  0.1887  1.6217 -0.8255
  807SOL     OW 2419   1.810   0.107   0.371  0.0401  0.3292 -0.8657
  807SOL    HW1 2420   1.870   0.086   0.446  0.1619 -0.6898  2.1896
  807SOL    HW2 2421   1.747   0.025   0.345 -2.6211 -2.2501 -0.4468
  808SOL     OW 2422   0.446   1.668   2.620 -0.3188 -0.0442  0.7600
  808SOL    HW1 2423   0.479   1.583   2.576 -0.0777 -1.2818  1.4503
  808SOL    HW2 2424   0.441   1.739   2.549 -0.6543  1.2426  0.2790
  809SOL     OW 2425   2.949   1.093   2.806 -0.0606 -0.0786 -0.2503
  809SOL    HW1 2426   3.034   1.125   2.856 -1.7490 -0.6925  0.1641
  809SOL    HW2 2427   2.919   0.998   2.839 -0.8041 -2.0316 -1.3304
  810SOL     OW 2428   2.645   0.421   2.762 -0.4937  0.8594  0.8466
  810SOL    HW1 2429   2.554   0.377   2.770  0.4020  1.5267  0.8819
  810SOL    HW2 2430   2.708   0.392   2.684 -1.1168  1.0323 -2.2940
  811SOL     OW 2431   2.257   2.507   1.820 -0.0224  0.4642  0.2423
  811SOL    HW1 2432   2.189   2.557   1.760 -1.4101  4.1830  0.0550
  811SOL    HW2 2433   2.207   2.438   1.875  2.9424 -1.7735 -0.5568
  812SOL     OW 2434   1.132   0.327   0.584  0.3825 -0.0372 -0.3175
  812SOL    HW1 2435   1.168   0.245   0.629 -0.7858  1.3739 -0.1950
  812SOL    HW2 2436   1.140   0.316   0.480  0.9989  1.2769 -1.8405
  813SOL     OW 2437   1.838   0.478   1.816 -0.7141  0.4358 -0.5313
  813SOL    HW1 2438   1.827   0.575   1.793 -0.2265 -1.7345 -2.1243
  813SOL    HW2 2439   1.745   0.433   1.818 -0.9628  0.9013 -0.4162
  814SOL     OW 2440   1.739   0.867   1.108  0.2569 -0.8125  0.4404
  814SOL    HW1 2441   1.804   0.797   1.136 -1.7102  0.6775 -2.4269
  814SOL    HW2 2442   1.783   0.956   1.085  1.6782  1.6234 -1.0516
  815SOL     OW 2443   0.617   0.890   0.536 -0.2032 -0.2158 -0.3624
  815SOL    HW1 2444   0.662   0.944   0.614 -1.7254  1.7348  2.2504
  815SOL    HW2 2445   0.649   0.793   0.533 -0.4021  2.3382  3.5857
  816SOL     OW 2446   2.346   2.335   0.359 -0.0345  0.0170  0.0414
  816SOL    HW1 2447   2.320   2.245   0.392  2.2353  1.0882  0.4821
  816SOL    HW2 2448   2.268   2.375   0.305 -2.6515 -0.5732 -2.3772
  817SOL     OW 2449   2.716   2.351   0.907  0.2044 -0.1000  0.3991
  817SOL    HW1 2450   2.757   2.301   0.829  0.9230  1.9441 -0.2055
  817SOL    HW2 2451   2.755   2.320   0.993  1.3994 -0.0652  1.6050
  818SOL     OW 2452   1.775   0.840   0.133 -0.3881 -0.1030  0.9503
  818SOL    HW1 2453   1.798   0.924   0.079  0.5129  1.1830 -1.9208
  818SOL    HW2 2454   1.804   0.851   0.229  1.6253  0.1093 -0.0213
  819SOL     OW 2455   0.601   0.627   0.754 -0.0816  0.1421  0.2146
  819SOL    HW1 2456   0.517   0.683   0.726  1.0078 -1.8314 -1.3623
  819SOL    HW2 2457   0.661   0.612   0.672  0.6134  3.8236  2.0660
  820SOL     OW 2458   2.029   0.605   1.528  0.1921  0.9126 -0.1755
  820SOL    HW1 2459   2.067   0.695   1.523  0.4795 -3.6070  0.0750
  820SOL    HW2 2460   1.929   0.612   1.530  1.3720  1.6736  2.4802
  821SOL     OW 2461   2.769   0.093   0.915  0.0827 -0.1377 -0.0455
  821SOL    HW1 2462   2.788   0.105   0.818  0.4437  3.1818  5.7724
  821SOL    HW2 2463   2.829   0.155   0.969 -0.3629 -0.4637 -1.4804
  822SOL     OW 2464   0.701   2.270   2.264  0.4216  0.8200  0.1194
  822SOL    HW1 2465   0.735   2.348   2.321  0.2445  0.0495 -0.0958
  822SOL    HW2 2466   0.604   2.278   2.243  0.3146  1.5153 -0.3048
  823SOL     OW 2467   2.694   1.205   1.497 -0.3529  0.0488  0.3497
  823SOL    HW1 2468   2.716   1.107   1.511  2.4815 -0.6626 -0.2544
  823SOL    HW2 2469   2.753   1.268   1.552 -1.4674 -3.8423  3.0377
  824SOL     OW 2470   0.568   2.547   2.612 -0.0774  0.2614  0.1866
  824SOL    HW1 2471   0.631   2.580   2.687  0.1740 -1.2868 -0.2338
  824SOL    HW2 2472   0.633   2.488   2.549  0.1094 -0.7198  2.0879
  825SOL     OW 2473   1.592   1.533   2.897  0.8929  0.0193  0.0632
  825SOL    HW1 2474   1.540   1.591   2.827 -1.5487 -0.7424 -2.8217
  825SOL    HW2 2475   1.691   1.563   2.899 -2.0475  2.2105  0.5055
  826SOL     OW 2476   0.908   2.096   3.011 -0.4686  0.0129  0.3316
  826SOL    HW1 2477   0.923   2.151   0.036 -1.2673 -0.0342  0.3463
  826SOL    HW2 2478   0.897   1.999   3.030 -2.0047  2.2790 -2.9901
  827SOL     OW 2479   0.154   1.406   1.765  0.1758 -0.2145 -0.3633
  827SOL    HW1 2480   0.165   1.491   1.717 -1.4870 -2.6209 -0.7275
  827SOL    HW2 2481   0.092   1.344   1.713  0.8014  1.3212 -0.4669
  828SOL     OW 2482   0.263   1.704   1.422 -0.5669  0.7199  0.5274
  828SOL    HW1 2483   0.277   1.799   1.450  0.4632  0.9280  0.6214
  828SOL    HW2 2484   0.353   1.667   1.390 -1.2464  0.7134 -0.4956
  829SOL     OW 2485   2.967   2.219   2.899  0.4943 -0.3982 -0.4536
  829SOL    HW1 2486   2.977   2.229   3.000 -0.3583  1.4758 -0.1511
  829SOL    HW2 2487   2.926   2.128   2.874 -1.1908 -0.6093 -0.8366
  830SOL     OW 2488   1.147   0.726   0.456  0.1475 -0.2885  0.1929
  830SOL    HW1 2489   1.084   0.666   0.514 -0.5548 -2.2064  1.8301
  830SOL    HW2 2490   1.108   0.713   0.360  1.9062  1.1068  0.8526
  831SOL     OW 2491   2.703   2.340   3.037 -0.9398  0.0556 -0.3421
  831SOL    HW1 2492   2.683   2.348   2.939 -0.3060 -3.2387  0.6998
  831SOL    HW2 2493   2.618   2.355   0.036  0.1945 -1.5515  0.1527
  832SOL     OW 2494   1.842   2.468   0.455  0.2667 -0.4810  0.5772
  832SOL    HW1 2495   1.810   2.404   0.383 -1.9588  3.5681  0.9427
  832SOL    HW2 2496   1.940   2.452   0.471 -1.5476  1.7807 -0.0442
  833SOL     OW 2497   0.286   1.104   2.362  0.1082 -0.1144  0.5494
  833SOL    HW1 2498   0.260   1.204   2.378  2.3634 -0.5150 -0.7838
  833SOL    HW2 2499   0.336   1.060   2.438  0.5523 -1.1183  0.3740
  834SOL     OW 2500   2.292   0.316   0.654  0.3365 -0.1006  0.1374
  834SOL    HW1 2501   2.348   0.401   0.670 -0.8512  0.5716 -1.3160
  834SOL    HW2 2502   2.233   0.322   0.573  0.5910  1.1765  0.8704
  835SOL     OW 2503   2.353   0.699   1.952  0.4331  0.7097 -0.6623
  835SOL    HW1 2504   2.268   0.713   1.895  2.4567 -1.4182  0.8117
  835SOL    HW2 2505   2.348   0.612   2.009 -1.5448 -1.4622 -0.7385
  836SOL     OW 2506   0.924   1.816   0.748  0.0507 -0.1541 -1.0001
  836SOL    HW1 2507   0.892   1.831   0.656 -0.0146  0.7608  1.0826
  836SOL    HW2 2508   0.985   1.889   0.786 -2.6877  0.6168  1.4692
  837SOL     OW 2509   2.349   1.128   1.784  0.4740  0.3443  0.1934
  837SOL    HW1 2510   2.264   1.188   1.793 -0.8376 -0.4379 -1.8247
  837SOL    HW2 2511   2.413   1.130   1.863  1.3884 -1.7100 -0.9499
  838SOL     OW 2512   0.114   0.964   2.591 -0.1413  0.0693  0.2963
  838SOL    HW1 2513   0.016   0.933   2.567 -3.4943 -1.6024  0.0184
  838SOL    HW2 2514   0.130   1.061   2.583 -0.3609 -1.8032  0.2731
  839SOL     OW 2515   3.001   0.158   2.989  0.6259 -0.2315 -0.1881
  839SOL    HW1 2516   3.040   0.071   2.952  1.4158  1.4574 -0.6881
  839SOL    HW2 2517   2.918   0.137   3.042  2.4521  0.7909 -1.7560
  840SOL     OW 2518   2.820   1.450   2.751 -0.2355  1.2424 -0.1440
  840SOL    HW1 2519   2.739   1.389   2.745  1.2570  0.2363 -0.9714
  840SOL    HW2 2520   2.831   1.475   2.845  0.7390 -1.6867 -1.8106
  841SOL     OW 2521   0.589   1.959   2.515  0.3129 -0.2192  0.1472
  841SOL    HW1 2522   0.650   1.964   2.437 -0.3535  0.7578  0.4196
  841SOL    HW2 2523   0.628   2.004   2.598 -1.6016  0.1355 -0.1384
  842SOL     OW 2524   0.546   0.117   1.003 -0.2939 -0.3685 -0.0305
  842SOL    HW1 2525   0.631   0.138   1.057  0.0610 -2.6151 -0.3884
  842SOL    HW2 2526   0.539   0.176   0.919  1.6355 -2.0745  0.5432
  843SOL     OW 2527   2.843   1.359   1.654  0.3965  0.9086 -0.1577
  843SOL    HW1 2528   2.877   1.449   1.672  2.0585 -3.3531 -0.3161
  843SOL    HW2 2529   2.776   1.325   1.724 -2.2307 -0.8009  0.7829
  844SOL     OW 2530   1.992   2.224   2.450 -0.4713 -0.3263 -0.0542
  844SOL    HW1 2531   2.032   2.185   2.536  1.4093  1.7430  0.5028
  844SOL    HW2 2532   2.062   2.270   2.398 -1.7014  0.9683 -0.0442
  845SOL     OW 2533   1.671   2.862   2.299  0.1580 -0.3291 -0.3705
  845SOL    HW1 2534   1.614   2.868   2.384 -4.3367 -0.1529 -0.8198
  845SOL    HW2 2535   1.767   2.846   2.324  0.7875  3.1492 -1.3372
  846SOL     OW 2536   2.378   1.574   0.056  0.0821 -0.1458  0.1086
  846SOL    HW1 2537   2.320   1.641   0.009 -1.7867 -0.6071 -0.4324
  846SOL    HW2 2538   2.358   1.481   0.018 -1.3806 -0.1520 -3.3682
  847SOL     OW 2539   2.307   3.049   2.779  1.1047 -0.4875 -0.0036
  847SOL    HW1 2540   2.256   2.981   2.838 -0.3589 -1.4025  1.8501
  847SOL    HW2 2541   2.341   0.061   2.841 -0.5379 -1.5738 -1.5566
  848SOL     OW 2542   1.831   0.443   0.412 -0.3782  0.3438 -0.4874
  848SOL    HW1 2543   1.775   0.379   0.362  0.0906  0.4317 -2.2367
  848SOL    HW2 2544   1.794   0.457   0.508 -1.1982 -0.8590  1.6540
  849SOL     OW 2545   1.092   0.409   2.816 -0.2147  0.1147 -0.6056
  849SOL    HW1 2546   1.123   0.413   2.718  0.8639 -0.2968 -0.9225
  849SOL    HW2 2547   1.059   0.502   2.853 -0.4217  2.5130 -1.7582
  850SOL     OW 2548   0.068   0.600   0.174  0.0618 -0.6159 -0.2113
  850SOL    HW1 2549   0.150   0.597   0.237  1.8153 -0.7988  0.6560
  850SOL    HW2 2550   3.057   0.656   0.214 -0.2021  2.2492  0.0384
  851SOL     OW 2551   0.187   1.104   1.446  0.3061  0.1336 -0.1530
  851SOL    HW1 2552   0.115   1.139   1.512  1.9975  3.0016  0.6533
  851SOL    HW2 2553   0.277   1.125   1.493 -0.8370  1.4790 -2.1133
  852SOL     OW 2554   1.185   0.877   1.923 -0.9699 -0.1103 -0.0909
  852SOL    HW1 2555   1.113   0.818   1.879  0.6084 -0.0424  0.9372
  852SOL    HW2 2556   1.230   0.835   2.001 -0.9330  0.4463 -0.5204
  853SOL     OW 2557   2.118   1.287   2.744 -0.5657 -0.7292 -0.4864
  853SOL    HW1 2558   2.110   1.274   2.846 -0.7072 -2.9791  3.5950
  853SOL    HW2 2559   2.083   1.205   2.699  0.0340 -0.8689  1.1140
  854SOL     OW 2560   1.115   1.482   1.746  0.0018 -0.0910 -0.2810
  854SOL    HW1 2561   1.196   1.441   1.698 -0.7547  0.2680 -3.2383
  854SOL    HW2 2562   1.110   1.583   1.739 -1.7853  3.4506  1.0478
  855SOL     OW 2563   0.254   2.117   1.730  0.4688 -0.4101  0.4071
  855SOL    HW1 2564   0.184   2.185   1.706  2.8123  2.2891 -1.6262
  855SOL    HW2 2565   0.288   2.076   1.643  0.4703 -0.9298 -2.2626
  856SOL     OW 2566   1.183   1.263   2.517 -0.2107  0.5943 -0.5508
  856SOL    HW1 2567   1.211   1.178   2.466  1.6906  1.5902  0.1794
  856SOL    HW2 2568   1.146   1.328   2.452  1.2597 -1.4695  1.7177
  857SOL     OW 2569   0.988   0.798   2.712  0.0922 -0.2430 -0.5306
  857SOL    HW1 2570   0.895   0.814   2.674 -2.3257  0.3386  1.4591
  857SOL    HW2 2571   0.987   0.745   2.799  1.8176  1.2006 -0.0779
  858SOL     OW 2572   0.361   0.018   1.839 -0.4131  0.2916 -0.2045
  858SOL    HW1 2573   0.399   0.014   1.742  1.2237 -1.3974  0.2681
  858SOL    HW2 2574   0.272   3.032   1.837  0.1532 -1.1282 -1.6832
  859SOL     OW 2575   2.376   0.079   0.747  0.7172 -0.3889 -0.2186
  859SOL    HW1 2576   2.341   0.168   0.703  2.7966  3.7745  0.0448
  859SOL    HW2 2577   2.378   0.084   0.851 -1.9155 -2.1269  3.2577
  860SOL     OW 2578   0.563   0.935   1.598  0.4914  0.3751  0.3543
  860SOL    HW1 2579   0.571   0.872   1.679 -0.0347  0.7693  0.0635
  860SOL    HW2 2580   0.648   0.993   1.589 -0.1974  0.4415 -1.7546
  861SOL     OW 2581   1.390   0.693   1.420  0.4647  0.5408 -0.0850
  861SOL    HW1 2582   1.401   0.597   1.394 -0.4181  0.8818  1.7877
  861SOL    HW2 2583   1.479   0.734   1.443 -4.4401 -1.0374  0.8199
  862SOL     OW 2584   0.958   2.869   2.534  0.4951  0.6339  0.0488
  862SOL    HW1 2585   0.980   2.962   2.504 -0.7587 -1.8827 -1.2867
  862SOL    HW2 2586   0.862   2.871   2.565  1.5343 -0.4891 -0.9763
  863SOL     OW 2587   2.569   0.299   1.231 -0.1047 -0.2911  0.4794
  863SOL    HW1 2588   2.660   0.259   1.238 -0.4878  1.0335  0.2844
  863SOL    HW2 2589   2.495   0.235   1.267 -4.1307 -2.4622  0.1770
  864SOL     OW 2590   2.701   2.975   2.488 -0.0369  0.6511  0.0559
  864SOL    HW1 2591   2.638   2.989   2.573 -0.7602 -0.8497  2.0631
  864SOL    HW2 2592   2.663   2.901   2.428 -1.9058  0.9755 -2.1159
  865SOL     OW 2593   1.412   1.129   2.270  0.1993 -0.2917  0.0821
  865SOL    HW1 2594   1.355   1.066   2.324 -0.3616  3.7248 -2.2392
  865SOL    HW2 2595   1.361   1.161   2.186 -0.7321  1.7350  0.1640
  866SOL     OW 2596   2.400   2.637   0.688  0.3164  0.5926  0.2185
  866SOL    HW1 2597   2.446   2.616   0.777 -0.1609 -1.7847  0.4430
  866SOL    HW2 2598   2.451   2.583   0.614  2.0341 -2.2918 -0.9883
  867SOL     OW 2599   2.518   2.520   0.932 -0.0935 -0.3054  0.2290
  867SOL    HW1 2600   2.564   2.565   1.010  0.5736  0.4044  0.6763
  867SOL    HW2 2601   2.572   2.438   0.910 -1.4528  1.2461  0.3425
  868SOL     OW 2602   2.920   1.349   1.311 -0.0241 -0.2497  0.0823
  868SOL    HW1 2603   2.903   1.297   1.396 -0.0642  0.9267  0.6772
  868SOL    HW2 2604   2.867   1.310   1.234 -1.4573  4.0020  2.1880
  869SOL     OW 2605   2.045   1.411   2.017  0.2563  0.2985  0.0503
  869SOL    HW1 2606   2.006   1.502   2.043 -0.2532  1.7421  2.8115
  869SOL    HW2 2607   1.974   1.344   2.041  0.0526  1.3860  1.0198
  870SOL     OW 2608   1.502   1.333   0.921  0.2775  0.1080 -0.1026
  870SOL    HW1 2609   1.554   1.256   0.874  0.3158  0.3615 -0.7510
  870SOL    HW2 2610   1.448   1.391   0.857 -0.6311 -0.2601  0.1478
  871SOL     OW 2611   2.117   1.315   1.778 -0.1998 -0.1833 -0.4335
  871SOL    HW1 2612   2.058   1.313   1.694 -1.5892  2.0953 -0.0786
  871SOL    HW2 2613   2.069   1.355   1.858 -0.1391 -0.9435  0.2077
  872SOL     OW 2614   1.528   1.358   2.365  0.2459  0.3679  0.3080
  872SOL    HW1 2615   1.590   1.355   2.445 -1.5404  2.6614 -2.9549
  872SOL    HW2 2616   1.490   1.265   2.345  1.6605 -1.8278 -0.0979
  873SOL     OW 2617   1.261   1.570   1.266  0.4470  0.2583 -0.0678
  873SOL    HW1 2618   1.194   1.603   1.195 -1.5047  2.2270  2.2439
  873SOL    HW2 2619   1.352   1.551   1.224 -2.1442 -1.3427  0.4160
  874SOL     OW 2620   1.540   1.475   1.170 -0.4293  0.6730 -0.7650
  874SOL    HW1 2621   1.597   1.515   1.245  0.1252 -1.0306  2.6485
  874SOL    HW2 2622   1.583   1.482   1.078 -0.2649  1.5480 -0.0185
  875SOL     OW 2623   2.392   0.323   2.745 -0.6270 -0.7714  0.2296
  875SOL    HW1 2624   2.353   0.412   2.710  1.1283  2.5845  0.5844
  875SOL    HW2 2625   2.387   0.255   2.665  1.5745 -1.6897 -1.5789
  876SOL     OW 2626   1.167   0.952   0.628 -0.2968  0.2612  0.7556
  876SOL    HW1 2627   1.166   0.869   0.570 -3.4677 -0.6830 -1.6731
  876SOL    HW2 2628   1.250   1.011   0.603  0.4748  1.7476 -0.9744
  877SOL     OW 2629   1.902   0.118   0.808  0.3309 -0.2274  0.1033
  877SOL    HW1 2630   1.947   0.076   0.728  0.9923 -1.6304 -1.2062
  877SOL    HW2 2631   1.852   0.040   0.854  0.1423 -3.0929  3.9810
  878SOL     OW 2632   2.730   1.904   0.448 -0.1924 -1.0642  0.0356
  878SOL    HW1 2633   2.753   1.931   0.543 -2.3471 -0.1658 -0.9931
  878SOL    HW2 2634   2.681   1.977   0.400 -1.4530 -0.5600 -2.0972
  879SOL     OW 2635   2.795   2.253   1.891  0.6214 -0.4964  0.4266
  879SOL    HW1 2636   2.855   2.246   1.974 -0.5974 -0.4269  0.9417
  879SOL    HW2 2637   2.787   2.158   1.847  0.8567 -0.9023 -1.0172
  880SOL     OW 2638   0.472   1.597   0.697 -0.3223 -0.4449 -0.0902
  880SOL    HW1 2639   0.539   1.589   0.621  0.5348 -1.0673 -0.0057
  880SOL    HW2 2640   0.512   1.663   0.763 -0.6318 -1.0450  1.2218
  881SOL     OW 2641   1.485   0.417   2.693 -0.6151  0.0309 -0.1944
  881SOL    HW1 2642   1.411   0.393   2.760 -1.3737 -2.7456  0.1780
  881SOL    HW2 2643   1.476   0.365   2.606  0.5096 -0.2891  0.7717
  882SOL     OW 2644   2.543   0.561   0.315 -0.5815 -0.2928  0.2098
  882SOL    HW1 2645   2.528   0.650   0.363  0.8386 -1.1482  2.4286
  882SOL    HW2 2646   2.565   0.495   0.389 -3.0043  2.0929 -1.4222
  883SOL     OW 2647   1.706   0.782   2.403 -0.6417 -0.5262 -0.3422
  883SOL    HW1 2648   1.654   0.729   2.476 -0.7383  2.7299 -1.2930
  883SOL    HW2 2649   1.673   0.876   2.400 -1.5389  0.3873 -0.9778
  884SOL     OW 2650   0.357   2.811   1.923  0.4002  0.1048 -0.4897
  884SOL    HW1 2651   0.266   2.762   1.939 -1.6812 -3.4498 -0.3229
  884SOL    HW2 2652   0.348   2.911   1.931  3.0221 -1.4932 -1.2933
  885SOL     OW 2653   1.883   0.678   2.054 -0.5267 -0.3379 -0.3189
  885SOL    HW1 2654   1.943   0.630   1.987  1.7316 -0.0786  1.9939
  885SOL    HW2 2655   1.783   0.658   2.040  0.8155 -1.1530 -3.3053
  886SOL     OW 2656   1.670   0.121   2.769  0.1665 -0.1152 -0.2464
  886SOL    HW1 2657   1.677   0.168   2.681  0.9622  3.2805  1.2218
  886SOL    HW2 2658   1.765   0.114   2.811  1.7461 -0.0757  0.6202
  887SOL     OW 2659   1.035   0.368   1.528  0.3355 -0.3464 -1.0127
  887SOL    HW1 2660   1.015   0.420   1.441  0.8747  0.3487  0.7218
  887SOL    HW2 2661   0.987   0.279   1.532  0.4550  0.0556  3.2673
  888SOL     OW 2662   2.319   0.600   1.649 -0.5154 -0.2334  0.1697
  888SOL    HW1 2663   2.404   0.645   1.689  2.8191 -0.8690 -1.9920
  888SOL    HW2 2664   2.313   0.606   1.548  1.5457 -2.1867  0.4685
  889SOL     OW 2665   1.515   0.056   0.657 -0.1677  0.4771 -0.4760
  889SOL    HW1 2666   1.564   0.133   0.610 -2.1471  1.8209  0.4818
  889SOL    HW2 2667   1.541   0.062   0.757 -0.5875  0.5853  2.4727
  890SOL     OW 2668   1.159   2.593   1.149 -0.0091 -0.6245  0.4387
  890SOL    HW1 2669   1.233   2.614   1.081 -1.0904  0.5863 -0.4002
  890SOL    HW2 2670   1.093   2.671   1.140  0.9095  0.8097 -1.8403
  891SOL     OW 2671   3.037   1.313   0.017  0.4212  0.2663  1.1120
  891SOL    HW1 2672   0.020   1.265   2.999  1.3700  0.4430 -0.7737
  891SOL    HW2 2673   0.047   1.350   0.077 -1.9436 -1.3638 -1.2654
  892SOL     OW 2674   1.944   1.426   2.382 -0.0076  0.4067  0.0314
  892SOL    HW1 2675   1.864   1.482   2.354 -1.1462  2.1498 -0.3466
  892SOL    HW2 2676   1.976   1.454   2.473  1.9249  0.2434 -0.7676
  893SOL     OW 2677   2.294   2.494   1.077 -0.3932 -0.4544 -0.5258
  893SOL    HW1 2678   2.248   2.578   1.101  0.2220 -0.7440 -0.1393
  893SOL    HW2 2679   2.391   2.503   1.038 -0.4397  0.9461 -0.9066
  894SOL     OW 2680   0.061   0.756   0.946 -0.0178 -0.0999  0.6882
  894SOL    HW1 2681   0.080   0.667   0.899 -0.3667  1.3226  0.4946
  894SOL    HW2 2682   0.128   0.825   0.919 -2.4080 -0.2124 -0.3588
  895SOL     OW 2683   2.839   2.113   2.400 -0.5777 -0.2746  0.5467
  895SOL    HW1 2684   2.801   2.078   2.310  1.8637  0.6396 -0.9765
  895SOL    HW2 2685   2.934   2.067   2.414  3.5456 -1.5553 -1.9832
  896SOL     OW 2686   1.438   3.049   2.403 -0.0392  0.4301  0.1079
  896SOL    HW1 2687   1.404   3.041   2.500 -2.3494  0.6255  1.2841
  896SOL    HW2 2688   1.373   0.043   2.348 -0.3180 -1.2411  1.0161
  897SOL     OW 2689   0.308   1.988   1.466  0.4475 -0.0485 -0.0628
  897SOL    HW1 2690   0.387   1.970   1.402  0.6173 -1.7345 -0.1444
  897SOL    HW2 2691   0.267   2.073   1.425 -0.9485  1.6967 -0.6306
  898SOL     OW 2692   0.714   2.274   1.861  0.0819 -0.4654 -0.9804
  898SOL    HW1 2693   0.778   2.269   1.780 -2.0013  0.6162  0.7813
  898SOL    HW2 2694   0.622   2.313   1.841  0.6250  3.1710 -0.0046
  899SOL     OW 2695   1.801   0.146   1.769 -0.0447 -0.2619  0.5707
  899SOL    HW1 2696   1.822   0.046   1.747 -3.3551 -0.5669 -0.4405
  899SOL    HW2 2697   1.715   0.171   1.723 -1.1174 -0.1628 -2.0521
  900SOL     OW 2698   1.639   1.176   0.566  0.3834 -0.0434  0.3583
  900SOL    HW1 2699   1.650   1.277   0.583  2.0717  2.0587  1.6165
  900SOL    HW2 2700   1.617   1.128   0.651 -1.2942 -0.2287 -3.7143
  901SOL     OW 2701   1.239   0.978   2.435 -0.2703 -0.3950  0.2966
  901SOL    HW1 2702   1.227   0.968   2.533  1.7041  0.8438 -0.6165
  901SOL    HW2 2703   1.199   0.902   2.380 -0.6484  0.6532  0.4994
  902SOL     OW 2704   0.090   2.004   0.813  0.3132 -0.2330  0.5021
  902SOL    HW1 2705   0.099   1.914   0.768 -2.1298  2.6496 -1.0729
  902SOL    HW2 2706   0.087   1.989   0.909 -1.0601  1.6479  0.6921
  903SOL     OW 2707   2.447   1.117   2.028 -0.0683 -0.3152  0.2409
  903SOL    HW1 2708   2.382   1.184   2.076 -2.6428  0.3464  0.5764
  903SOL    HW2 2709   2.543   1.115   2.070 -1.8000 -0.4393 -0.7602
  904SOL     OW 2710   1.304   1.970   3.050  0.2299 -0.3285  0.3765
  904SOL    HW1 2711   1.273   1.956   2.954  0.9603 -0.5733  2.9444
  904SOL    HW2 2712   1.243   2.025   0.043  2.3721 -0.2364  0.0629
  905SOL     OW 2713   2.210   2.941   1.830  0.3266  0.4778 -0.4123
  905SOL    HW1 2714   2.168   2.857   1.864  0.9726 -0.4416  0.1635
  905SOL    HW2 2715   2.157   3.014   1.873  0.0552 -0.3712 -1.0677
  906SOL     OW 2716   1.074   2.482   0.101  0.0947  0.2127 -0.4749
  906SOL    HW1 2717   1.054   2.532   0.014 -0.2193  0.6982 -1.6556
  906SOL    HW2 2718   1.173   2.454   0.108  2.5400  0.6081 -0.2254
  907SOL     OW 2719   0.147   2.626   0.789  0.1466 -0.2808  1.1110
  907SOL    HW1 2720   0.231   2.579   0.815 -3.9606  2.6874 -0.7283
  907SOL    HW2 2721   0.156   2.685   0.708 -0.9560  1.8355  0.5522
  908SOL     OW 2722   0.990   2.648   1.693  0.0253  0.0343  0.0412
  908SOL    HW1 2723   0.955   2.748   1.693  2.4088  2.4613  1.3811
  908SOL    HW2 2724   0.958   2.600   1.779  1.3667 -1.6547 -1.4844
  909SOL     OW 2725   1.613   0.830   1.348 -0.0793 -0.6752  0.4910
  909SOL    HW1 2726   1.642   0.824   1.250  0.5662  0.7856  0.6000
  909SOL    HW2 2727   1.620   0.928   1.377 -2.4927  1.4095  0.0976
  910SOL     OW 2728   0.842   0.258   0.157  0.4126  0.9287  0.0260
  910SOL    HW1 2729   0.768   0.326   0.155  5.2223 -3.6078  1.3320
  910SOL    HW2 2730   0.861   0.218   0.061  1.6773  1.1193 -2.3391
  911SOL     OW 2731   0.447   0.352   3.041 -0.2820 -0.0265 -0.2889
  911SOL    HW1 2732   0.410   0.276   0.039 -2.9329 -2.6039  1.7075
  911SOL    HW2 2733   0.386   0.378   2.963  0.3775  0.9313  2.4073
  912SOL     OW 2734   0.114   1.874   2.700  0.3850  0.4091 -0.1021
  912SOL    HW1 2735   0.111   1.776   2.727  0.4896  3.7245 -1.7098
  912SOL    HW2 2736   0.111   1.940   2.778  1.1627  1.2163 -0.5724
  913SOL     OW 2737   2.583   3.055   0.123 -0.3739  0.1048 -0.1412
  913SOL    HW1 2738   2.516   2.985   0.090  0.3725  2.5808  0.5710
  913SOL    HW2 2739   2.539   0.054   0.191  1.3492 -1.8218 -1.1506
  914SOL     OW 2740   1.293   1.511   2.015  0.5342  0.1168 -0.0429
  914SOL    HW1 2741   1.239   1.587   1.974  0.2371 -1.0951  0.7547
  914SOL    HW2 2742   1.233   1.442   2.062  1.4655 -0.0874  5.6478
  915SOL     OW 2743   2.731   2.475   2.307  0.0762  0.1110 -0.1949
  915SOL    HW1 2744   2.809   2.503   2.248  2.6057  0.4465 -0.2150
  915SOL    HW2 2745   2.767   2.417   2.388  3.2104 -3.6059  3.0015
  916SOL     OW 2746   2.896   0.969   2.270 -0.1557 -0.1679  0.1951
  916SOL    HW1 2747   3.000   0.954   2.265  2.1398 -1.2224  2.1286
  916SOL    HW2 2748   2.869   1.041   2.211  1.8163 -3.0580  2.8561
  917SOL     OW 2749   1.442   0.141   0.323  0.3135 -0.1862 -0.6393
  917SOL    HW1 2750   1.502   0.154   0.406 -0.6917 -0.9995 -1.8818
  917SOL    HW2 2751   1.491   0.147   0.229  1.6670  1.1917  1.1659
  918SOL     OW 2752   1.573   2.949   2.075  0.3977 -0.3916  0.6963
  918SOL    HW1 2753   1.614   2.925   2.168 -0.9438 -0.8099  1.6856
  918SOL    HW2 2754   1.627   3.031   2.043 -0.1717 -0.0757  1.0863
  919SOL     OW 2755   1.870   2.437   1.824 -0.0965 -0.0394 -0.0110
  919SOL    HW1 2756   1.776   2.473   1.815  3.1055  0.3362  0.0060
  919SOL    HW2 2757   1.882   2.405   1.922 -2.1932 -0.1688  1.2135
  920SOL     OW 2758   0.194   0.952   0.272 -0.2675 -0.4384  0.0973
  920SOL    HW1 2759   0.159   0.976   0.363  2.8309 -0.4682  0.8714
  920SOL    HW2 2760   0.293   0.932   0.280 -2.1531  1.8233 -3.5471
  921SOL     OW 2761   2.200   0.811   2.337  0.2394 -0.2866  0.2483
  921SOL    HW1 2762   2.098   0.787   2.330  0.3458  0.9265 -3.7257
  921SOL    HW2 2763   2.226   0.860   2.253 -0.6815 -0.0955  0.9092
  922SOL     OW 2764   1.261   1.723   2.560 -0.2010 -0.4625 -0.1707
  922SOL    HW1 2765   1.256   1.811   2.513 -4.7128  0.7868 -0.9831
  922SOL    HW2 2766   1.267   1.647   2.493  0.7796  1.5739 -1.2025
  923SOL     OW 2767   0.629   1.228   2.265  0.2747 -0.0780 -0.1223
  923SOL    HW1 2768   0.591   1.148   2.226  1.9663  0.1986  1.4510
  923SOL    HW2 2769   0.567   1.311   2.236 -4.1469  3.4280 -1.1755
  924SOL     OW 2770   0.296   2.031   2.855 -0.0937 -0.3399 -0.0023
  924SOL    HW1 2771   0.292   2.127   2.898 -0.2506  3.7134  3.1241
  924SOL    HW2 2772   0.296   2.040   2.752  1.6484 -1.6605 -0.6361
  925SOL     OW 2773   1.687   1.658   0.945  0.6222 -0.5519  0.2116
  925SOL    HW1 2774   1.735   1.722   1.009 -2.4849 -0.4718 -3.1347
  925SOL    HW2 2775   1.685   1.685   0.846 -0.2786 -2.8499 -1.2354
  926SOL     OW 2776   1.704   0.274   2.539  0.2126 -0.0522  0.3712
  926SOL    HW1 2777   1.664   0.259   2.447  1.3008  0.9914 -0.4688
  926SOL    HW2 2778   1.785   0.334   2.538 -1.9486  0.9168 -0.4045
  927SOL     OW 2779   2.602   2.606   1.589  0.5089 -0.4914 -0.2644
  927SOL    HW1 2780   2.586   2.708   1.592 -0.5177  0.3090  1.1489
  927SOL    HW2 2781   2.571   2.570   1.680 -1.9615  0.5879 -0.3081
  928SOL     OW 2782   0.683   1.006   2.824 -0.0828 -0.0633  0.2809
  928SOL    HW1 2783   0.609   0.951   2.865 -1.5449  1.3385 -0.1399
  928SOL    HW2 2784   0.721   0.958   2.746 -2.0145  1.6875  0.8902
  929SOL     OW 2785   0.089   0.083   1.015  0.4848  0.3578  0.0006
  929SOL    HW1 2786   0.111   0.100   0.919  1.7684  2.3157  1.6346
  929SOL    HW2 2787   3.059   0.123   1.030 -0.9747  1.6270 -0.6682
  930SOL     OW 2788   2.774   0.173   1.777  0.2509 -0.2119 -0.0086
  930SOL    HW1 2789   2.702   0.144   1.840  0.2499  2.1535 -2.1288
  930SOL    HW2 2790   2.840   0.232   1.826  0.3938  1.0055 -0.1917
  931SOL     OW 2791   2.147   1.307   3.022  0.0472 -0.0762  0.1239
  931SOL    HW1 2792   2.246   1.298   3.022  1.3151  3.5602 -1.8322
  931SOL    HW2 2793   2.106   1.223   0.004 -1.9380 -2.0386  0.5802
  932SOL     OW 2794   2.614   1.099   0.691  0.0963 -0.1699  0.2472
  932SOL    HW1 2795   2.528   1.098   0.740  1.7497  0.6334  0.3089
  932SOL    HW2 2796   2.617   1.129   0.593  1.0260  2.1730 -1.4079
  933SOL     OW 2797   2.887   2.406   1.691  0.8599 -0.2634  0.2049
  933SOL    HW1 2798   2.847   2.347   1.761  3.3035  1.2051 -0.1311
  933SOL    HW2 2799   2.828   2.418   1.603 -2.3861  1.0244 -3.7336
  934SOL     OW 2800   0.559   2.902   1.036 -0.7372 -0.2474 -0.1594
  934SOL    HW1 2801   0.634   2.871   1.105  2.2973 -0.7296  0.1809
  934SOL    HW2 2802   0.556   3.002   1.025 -0.9110 -1.3734 -0.2303
  935SOL     OW 2803   2.853   0.281   2.278  0.3092 -0.2548 -0.0576
  935SOL    HW1 2804   2.852   0.357   2.209 -0.8794 -0.0848  1.7142
  935SOL    HW2 2805   2.911   0.201   2.253 -0.6811  1.7846 -2.8606
  936SOL     OW 2806   2.795   0.691   1.559 -0.5203  0.3088 -0.6783
  936SOL    HW1 2807   2.767   0.648   1.647  0.5527 -0.0889 -0.8403
  936SOL    HW2 2808   2.826   0.617   1.500  0.0124  0.0166  4.2160
  937SOL     OW 2809   1.730   1.485   1.628 -1.0280 -0.5063 -0.1220
  937SOL    HW1 2810   1.715   1.494   1.528 -1.5257  1.5791  0.5901
  937SOL    HW2 2811   1.769   1.392   1.655 -0.2384 -0.0855  0.2251
  938SOL     OW 2812   0.662   2.182   2.980  0.7137 -0.3428  0.6504
  938SOL    HW1 2813   0.606   2.093   2.988  0.4805 -1.8653 -1.9737
  938SOL    HW2 2814   0.758   2.153   2.994  2.9289  0.6344  0.5888
  939SOL     OW 2815   1.948   0.357   2.797 -0.2624 -0.5148  0.2649
  939SOL    HW1 2816   2.009   0.417   2.853  1.3037  0.3505 -0.8422
  939SOL    HW2 2817   1.951   0.260   2.833 -0.1183 -0.8701 -1.0930
  940SOL     OW 2818   1.375   2.632   0.983 -0.2673  0.3659  0.3639
  940SOL    HW1 2819   1.445   2.567   1.018  0.9398 -1.6322 -0.2725
  940SOL    HW2 2820   1.419   2.710   0.936  0.2470 -0.9637 -0.1130
  941SOL     OW 2821   1.319   1.890   1.757  0.3067 -0.0357 -0.3426
  941SOL    HW1 2822   1.417   1.876   1.772 -2.0165 -0.4246  1.1864
  941SOL    HW2 2823   1.297   1.954   1.681 -1.4899  1.1498  0.0452
  942SOL     OW 2824   2.868   1.986   2.855  0.5859 -0.2879  0.4036
  942SOL    HW1 2825   2.865   1.903   2.916 -2.1088 -0.8227 -1.0433
  942SOL    HW2 2826   2.811   1.966   2.770  1.6525  0.8605 -1.3588
  943SOL     OW 2827   2.540   2.863   1.568  0.4769  0.2259  0.4379
  943SOL    HW1 2828   2.460   2.918   1.557  2.3103 -2.6669 -1.3305
  943SOL    HW2 2829   2.623   2.902   1.522 -2.4759  3.8345  1.7323
  944SOL     OW 2830   1.696   2.175   2.861  0.4066  0.1842  0.4798
  944SOL    HW1 2831   1.667   2.075   2.856 -0.8452 -0.2016 -0.6539
  944SOL    HW2 2832   1.735   2.202   2.771 -0.8345 -1.5712  0.0343
  945SOL     OW 2833   2.942   1.917   1.239 -0.2778 -0.0621 -0.1347
  945SOL    HW1 2834   2.849   1.886   1.272 -0.5370  0.4549 -0.0165
  945SOL    HW2 2835   3.010   1.888   1.309 -1.0598  0.4873 -0.8386
  946SOL     OW 2836   1.479   1.066   2.983 -0.1048 -0.7036  0.0531
  946SOL    HW1 2837   1.447   0.986   2.930 -0.4815  3.4596  0.9074
  946SOL    HW2 2838   1.462   1.048   0.020 -1.1902 -3.5045 -1.5528
  947SOL     OW 2839   0.081   0.943   2.285  0.5452  0.1302 -0.1730
  947SOL    HW1 2840   0.152   1.009   2.316  0.4358  0.6409  0.4708
  947SOL    HW2 2841   0.115   0.847   2.276  0.7588 -2.5110 -1.5816
  948SOL     OW 2842   0.161   1.089   0.500  0.1308 -0.1118 -0.1961
  948SOL    HW1 2843   0.083   1.124   0.443 -2.7396  0.3714  0.8099
  948SOL    HW2 2844   0.230   1.164   0.515 -2.5722  1.1407 -0.8267
  949SOL     OW 2845   0.643   0.367   2.540  0.3235 -0.2337 -0.0907
  949SOL    HW1 2846   0.646   0.470   2.556  1.7447  2.9175  2.3358
  949SOL    HW2 2847   0.738   0.334   2.513 -3.2978 -0.6898 -2.0114
  950SOL     OW 2848   0.004   0.406   1.289 -0.4050 -0.0623 -0.7602
  950SOL    HW1 2849   0.081   0.358   1.336 -1.9686  0.7343 -0.6377
  950SOL    HW2 2850   0.033   0.494   1.246  0.0587  1.0545  0.8053
  951SOL     OW 2851   0.249   0.863   2.802  0.2089  0.5857  0.2955
  951SOL    HW1 2852   0.202   0.877   2.713 -1.7443  1.1062 -0.8352
  951SOL    HW2 2853   0.191   0.827   2.880 -2.1250 -1.1803  3.2136
  952SOL     OW 2854   1.959   2.265   1.610  0.4750 -0.1055 -0.1904
  952SOL    HW1 2855   1.919   2.177   1.582  0.0395  2.2263 -1.2703
  952SOL    HW2 2856   1.910   2.316   1.687 -1.3031  1.2143  1.1822
  953SOL     OW 2857   0.226   2.276   2.963  0.1624  0.4496 -0.7179
  953SOL    HW1 2858   0.244   2.374   2.992  2.4209  1.2867  0.6303
  953SOL    HW2 2859   0.167   2.233   3.037 -0.3779 -0.7808  2.2254
  954SOL     OW 2860   2.419   0.788   0.927  0.6521  0.0067  0.1770
  954SOL    HW1 2861   2.489   0.774   1.000 -0.7156 -1.4381  0.6207
  954SOL    HW2 2862   2.460   0.803   0.838 -1.4119 -0.7588  2.9711
  955SOL     OW 2863   1.561   1.395   0.264 -0.4623 -0.1380  0.2554
  955SOL    HW1 2864   1.596   1.309   0.218  1.5711 -2.9539  1.6407
  955SOL    HW2 2865   1.646   1.437   0.284 -0.9836 -4.5290  0.1545
  956SOL     OW 2866   1.050   0.813   2.273  0.0949 -0.0889  0.5417
  956SOL    HW1 2867   0.974   0.876   2.278  2.3975 -0.1480  1.9845
  956SOL    HW2 2868   1.043   0.738   2.337 -1.2660 -0.1673  2.5772
  957SOL     OW 2869   0.626   0.248   2.191  0.2083  0.7225  0.2969
  957SOL    HW1 2870   0.625   0.149   2.161 -0.7514 -1.4613  0.0147
  957SOL    HW2 2871   0.624   0.256   2.291  0.0577 -0.5961 -2.4066
  958SOL     OW 2872   0.641   2.167   0.697 -0.2958 -0.7077  0.3712
  958SOL    HW1 2873   0.681   2.088   0.749 -0.4207 -1.1772  1.9351
  958SOL    HW2 2874   0.596   2.236   0.756 -1.4596 -1.3195  2.8114
  959SOL     OW 2875   2.607   0.814   1.955  0.3206 -0.4974 -0.5921
  959SOL    HW1 2876   2.508   0.796   1.967  2.4764 -0.2979 -1.9566
  959SOL    HW2 2877   2.654   0.802   2.044 -1.4639 -2.7104  0.2105
  960SOL     OW 2878   0.155   1.324   2.619 -0.0528  0.6083  0.0201
  960SOL    HW1 2879   0.154   1.416   2.576 -0.0002  1.6036  0.9133
  960SOL    HW2 2880   0.067   1.273   2.605 -0.9842  1.3250 -0.2047
  961SOL     OW 2881   0.688   1.667   0.520  0.2683 -0.3942  0.3318
  961SOL    HW1 2882   0.743   1.756   0.507  1.6059 -0.8867 -0.9931
  961SOL    HW2 2883   0.749   1.584   0.504 -0.3917 -0.6712  3.4022
  962SOL     OW 2884   0.422   1.417   1.038  0.4886 -0.0725 -0.2909
  962SOL    HW1 2885   0.366   1.382   1.118 -0.3285 -0.3771 -0.0572
  962SOL    HW2 2886   0.420   1.521   1.034  0.3445  3.1677 -1.1495
  963SOL     OW 2887   1.501   2.498   2.923 -0.2028 -0.3909 -0.1548
  963SOL    HW1 2888   1.460   2.414   2.888  1.9896 -1.4646  2.3287
  963SOL    HW2 2889   1.596   2.515   2.882  0.0631 -2.1118 -3.4373
  964SOL     OW 2890   0.319   2.605   2.686  0.5112 -0.4896 -0.3084
  964SOL    HW1 2891   0.416   2.591   2.663 -0.3408 -0.1157 -1.0479
  964SOL    HW2 2892   0.263   2.524   2.665 -2.3545  0.9527 -1.2167
  965SOL     OW 2893   2.530   1.763   2.861  0.2128  0.0743  0.5740
  965SOL    HW1 2894   2.503   1.679   2.816  0.0823  0.8268 -0.2116
  965SOL    HW2 2895   2.523   1.845   2.796 -0.5022  4.8259 -0.5668
  966SOL     OW 2896   2.595   1.295   2.715  0.2179  0.3061 -0.3071
  966SOL    HW1 2897   2.616   1.298   2.615  1.6987 -0.1378 -2.9761
  966SOL    HW2 2898   2.521   1.226   2.729 -0.3918 -0.7810  1.3686
  967SOL     OW 2899   1.724   0.491   0.677 -0.2475  0.4566  0.7577
  967SOL    HW1 2900   1.778   0.452   0.755  0.5653 -1.8230  1.7011
  967SOL    HW2 2901   1.683   0.583   0.700  1.2280 -0.1583  0.1783
  968SOL     OW 2902   2.775   0.227   0.343 -0.1326 -0.1480  0.3773
  968SOL    HW1 2903   2.717   0.198   0.423 -0.0037  1.3806 -2.0186
  968SOL    HW2 2904   2.856   0.284   0.375  1.9790 -0.2157  1.7023
  969SOL     OW 2905   0.459   0.772   2.266  0.0009  0.6326  0.0547
  969SOL    HW1 2906   0.550   0.727   2.257 -1.2843 -1.1155  0.5726
  969SOL    HW2 2907   0.460   0.862   2.219  1.2291  1.6030  1.3112
  970SOL     OW 2908   1.888   1.841   2.747  0.4247  0.0733  0.1495
  970SOL    HW1 2909   1.933   1.920   2.795 -0.3014  2.5671  2.8140
  970SOL    HW2 2910   1.936   1.818   2.661 -2.2418 -0.3389 -0.9496
  971SOL     OW 2911   2.925   2.939   1.954  0.0848  0.1844 -0.5742
  971SOL    HW1 2912   2.873   3.000   1.897 -0.0995 -2.3579  0.0541
  971SOL    HW2 2913   2.884   2.846   1.952  0.3570 -1.8638 -0.2258
  972SOL     OW 2914   0.182   0.524   0.820  0.4894 -0.6761 -0.0454
  972SOL    HW1 2915   0.168   0.463   0.741 -0.9857  1.4618 -0.4361
  972SOL    HW2 2916   0.250   0.599   0.800 -0.4876  1.4172  2.9441
  973SOL     OW 2917   2.910   0.058   2.639 -0.1744 -0.0567  0.1545
  973SOL    HW1 2918   2.940   0.152   2.613  0.6016 -0.4934 -1.1793
  973SOL    HW2 2919   2.849   0.022   2.569 -0.2572 -0.2551  0.2896
  974SOL     OW 2920   2.827   0.944   1.498 -0.0978  0.3355 -0.7725
  974SOL    HW1 2921   2.822   0.966   1.396  2.3222 -1.8534 -2.4589
  974SOL    HW2 2922   2.803   0.843   1.507 -0.1926 -4.2348 -0.5905
  975SOL     OW 2923   1.349   2.788   2.338 -0.2413 -0.3395 -0.5100
  975SOL    HW1 2924   1.390   2.880   2.317  3.9066 -2.4120 -0.2289
  975SOL    HW2 2925   1.294   2.745   2.267  0.9844  1.2496  2.9130
  976SOL     OW 2926   2.020   1.380   1.431  0.6073  0.2971 -0.6330
  976SOL    HW1 2927   1.952   1.351   1.506 -1.6225 -2.2392  4.0975
  976SOL    HW2 2928   1.974   1.378   1.340  0.5448 -1.0142 -2.7556
  977SOL     OW 2929   2.703   2.913   2.951  0.6866 -0.0896  0.0831
  977SOL    HW1 2930   2.649   2.828   2.969 -1.7445  0.7059  1.1683
  977SOL    HW2 2931   2.675   2.978   3.020 -1.4755 -3.9343 -1.6527
  978SOL     OW 2932   2.019   1.019   2.204 -0.4756 -0.0797 -0.1914
  978SOL    HW1 2933   2.105   0.993   2.156 -3.6087  0.2725  1.2633
  978SOL    HW2 2934   1.974   0.933   2.236  1.0643 -0.1670 -1.2233
  979SOL     OW 2935   0.801   1.167   2.464  0.3895 -0.0248  0.0161
  979SOL    HW1 2936   0.732   1.207   2.397 -0.8025  2.5417 -3.6489
  979SOL    HW2 2937   0.871   1.232   2.485 -1.6565 -3.7033 -1.8188
  980SOL     OW 2938   1.619   1.923   2.797 -0.6324 -0.3089 -0.6895
  980SOL    HW1 2939   1.542   1.864   2.812  1.3428  1.7778  0.5032
  980SOL    HW2 2940   1.699   1.864   2.769  1.6574  0.8754 -2.9266
  981SOL     OW 2941   0.994   0.720   1.781  0.3214 -0.2082  0.5880
  981SOL    HW1 2942   0.996   0.792   1.710  1.5972 -0.3547  2.2575
  981SOL    HW2 2943   0.907   0.718   1.832  1.2115  0.4866 -2.6959
  982SOL     OW 2944   0.992   0.191   2.987 -0.9527 -0.0708 -0.0079
  982SOL    HW1 2945   0.990   0.287   2.951 -1.4637 -0.1428 -1.9021
  982SOL    HW2 2946   0.955   0.138   2.906 -0.1412 -0.5647 -3.2604
  983SOL     OW 2947   2.226   1.016   0.303 -0.7437  0.4814  0.2883
  983SOL    HW1 2948   2.325   1.042   0.293 -1.1826  2.6275 -3.3880
  983SOL    HW2 2949   2.191   1.056   0.386  1.7434 -0.2511 -1.1503
  984SOL     OW 2950   1.348   0.376   0.147 -0.2339  0.1389 -0.0005
  984SOL    HW1 2951   1.444   0.387   0.171 -0.0228  0.2211 -2.0565
  984SOL    HW2 2952   1.307   0.318   0.218  1.9104  0.8843 -1.2461
  985SOL     OW 2953   1.355   2.819   1.971  0.0858 -0.4310 -0.3484
  985SOL    HW1 2954   1.440   2.870   1.996  0.0183 -1.6364 -0.2292
  985SOL    HW2 2955   1.361   2.781   1.879 -0.7770 -0.8223 -0.5014
  986SOL     OW 2956   2.661   0.026   2.010 -0.1588  0.4879  0.4142
  986SOL    HW1 2957   2.564   0.059   2.028 -2.3332  0.2698  0.6524
  986SOL    HW2 2958   2.717   0.024   2.091  0.3339  1.6016 -0.0648
  987SOL     OW 2959   2.185   1.381   1.041  0.2227  0.6090  0.7044
  987SOL    HW1 2960   2.251   1.375   0.963 -3.1963 -1.9836  0.1993
  987SOL    HW2 2961   2.214   1.318   1.119  3.7309  1.0995  2.6246
  988SOL     OW 2962   2.337   0.931   1.620  0.5813 -0.6792  0.3087
  988SOL    HW1 2963   2.420   0.873   1.645  0.8937 -4.1791 -0.1681
  988SOL    HW2 2964   2.330   1.013   1.685  1.6388  1.1044  0.1291
  989SOL     OW 2965   2.085   2.232   0.060  0.1658  0.6697 -0.1595
  989SOL    HW1 2966   1.983   2.221   0.058 -1.6374 -0.2617  0.9981
  989SOL    HW2 2967   2.125   2.145   0.101  1.7571 -2.6017 -0.6998
  990SOL     OW 2968   1.347   0.724   2.089 -0.0925 -0.2021 -0.1061
  990SOL    HW1 2969   1.349   0.751   2.184 -2.5407 -1.8152 -1.0245
  990SOL    HW2 2970   1.375   0.624   2.081 -0.1549 -1.9253 -0.1181
  991SOL     OW 2971   1.381   1.094   0.530 -0.6768  0.4806  0.5473
  991SOL    HW1 2972   1.479   1.126   0.527  1.3699  0.4323 -0.3917
  991SOL    HW2 2973   1.351   1.087   0.430 -0.1859  0.2212 -3.6504
  992SOL     OW 2974   0.068   0.890   1.317  0.3282 -0.3586  0.0133
  992SOL    HW1 2975   0.135   0.953   1.364  1.2985 -1.3894  1.7004
  992SOL    HW2 2976   3.040   0.937   1.297  0.4977  1.0648  0.5325
  993SOL     OW 2977   2.548   0.428   2.104 -0.0384  0.1278  0.3544
  993SOL    HW1 2978   2.459   0.381   2.081 -0.6964 -2.9003  0.4299
  993SOL    HW2 2979   2.608   0.439   2.024 -2.0519  1.8763  0.4747
  994SOL     OW 2980   1.590   1.882   1.712  0.6392 -0.7288 -0.0840
  994SOL    HW1 2981   1.633   1.804   1.766  1.3226 -1.3001  0.4354
  994SOL    HW2 2982   1.646   1.966   1.731  1.6572  0.7695 -2.3094
  995SOL     OW 2983   2.349   1.973   2.984  0.0137  0.2992 -0.2190
  995SOL    HW1 2984   2.445   1.969   3.025  1.2271  0.0887 -1.0583
  995SOL    HW2 2985   2.317   1.877   2.964  1.1725 -1.2340  1.0237
  996SOL     OW 2986   2.214   1.727   2.957 -0.2098  0.1431 -0.1398
  996SOL    HW1 2987   2.140   1.688   3.016 -1.7776 -3.3648 -4.0454
  996SOL    HW2 2988   2.210   1.679   2.870 -3.6898 -1.7671 -1.3911
  997SOL     OW 2989   1.659   0.541   2.263 -0.0522 -0.2818 -0.2566
  997SOL    HW1 2990   1.631   0.565   2.168 -0.8232 -2.1361  1.3513
  997SOL    HW2 2991   1.647   0.618   2.323 -0.7338 -1.3591 -0.1501
  998SOL     OW 2992   2.626   0.441   0.548  0.5161  0.0188 -0.3369
  998SOL    HW1 2993   2.572   0.478   0.629 -2.9675  0.2097  1.6093
  998SOL    HW2 2994   2.617   0.339   0.543  2.6419 -1.5132 -2.0759
  999SOL     OW 2995   2.611   1.315   0.508 -0.0422  0.3554  0.7156
  999SOL    HW1 2996   2.667   1.397   0.538 -0.6871  2.3196  1.9809
  999SOL    HW2 2997   2.619   1.284   0.408 -0.5070 -1.4212 -1.1653
 1000SOL     OW 2998   0.396   1.480   1.921 -0.0661  0.2345  0.0248
 1000SOL    HW1 2999   0.471   1.407   1.911  0.1017 -1.8581 -2.1802
 1000SOL    HW2 3000   0.319   1.457   1.858  0.5301 -0.7985  3.3130
   3.06103   3.06103   3.06103
