1000 SPC/Fw water molecules t=  68.00000 step= 68000
 3000
    1SOL     OW    1   2.043   2.664   0.866 -0.0364 -0.3667 -0.1552
    1SOL    HW1    2   1.943   2.667   0.842 -2.2488  0.0456 -0.4824
    1SOL    HW2    3   2.097   2.716   0.798  0.6685 -1.3287 -2.2155
    2SOL     OW    4   0.905   1.234   2.513  0.0740  0.5484 -0.2361
    2SOL    HW1    5   0.838   1.201   2.584  0.2396 -0.0196 -0.2054
    2SOL    HW2    6   0.942   1.322   2.538  0.8045 -2.8791 -0.6914
    3SOL     OW    7   1.519   2.698   2.480 -0.6462  0.2592  0.2451
    3SOL    HW1    8   1.587   2.745   2.539 -1.4795 -0.7788  0.6450
    3SOL    HW2    9   1.496   2.603   2.509  0.1946  0.2485  2.4457
    4SOL     OW   10   1.166   1.839   2.857 -0.5862 -0.5319  0.5119
    4SOL    HW1   11   1.155   1.883   2.764 -0.4835 -0.0766 -1.4789
    4SOL    HW2   12   1.265   1.843   2.873 -0.7660 -0.9001  0.0582
    5SOL     OW   13   0.749   0.718   1.874  0.2902 -0.8891  0.4132
    5SOL    HW1   14   0.849   0.697   1.865 -3.5361 -1.8897 -0.3050
    5SOL    HW2   15   0.728   0.781   1.952 -0.1006 -2.6878 -2.6337
    6SOL     OW   16   1.840   0.650   2.513 -0.5769 -0.1916 -0.2250
    6SOL    HW1   17   1.809   0.683   2.418 -1.1404  0.2706 -1.8263
    6SOL    HW2   18   1.884   0.557   2.513 -2.1118 -0.5117  0.7432
    7SOL     OW   19   0.291   0.322   1.659  0.2155  0.0725 -0.2469
    7SOL    HW1   20   0.252   0.344   1.566 -2.5812 -0.7537  0.9981
    7SOL    HW2   21   0.221   0.354   1.728 -3.2236  1.5537  1.9707
    8SOL     OW   22   1.965   3.020   1.811  0.3345 -0.1360 -0.0927
    8SOL    HW1   23   1.880   2.995   1.859 -1.2660  0.0092 -1.5693
    8SOL    HW2   24   1.987   0.009   1.812 -2.6379 -2.0696  0.5055
    9SOL     OW   25   0.197   3.028   0.781 -0.2435  0.4703 -0.2291
    9SOL    HW1   26   0.270   3.078   0.821 -1.0102  2.3369 -3.8966
    9SOL    HW2   27   0.169   3.060   0.687 -0.9188  0.3542 -1.8910
   10SOL     OW   28   0.546   2.218   2.503 -0.1065 -0.3632 -0.2627
   10SOL    HW1   29   0.526   2.315   2.474  0.0174  1.7406 -0.2232
   10SOL    HW2   30   0.601   2.213   2.592  0.4707 -1.8749  1.5777
   11SOL     OW   31   0.594   1.602   0.177  0.3397  0.0486 -0.5796
   11SOL    HW1   32   0.586   1.516   0.119  2.9369 -0.8583 -1.8256
   11SOL    HW2   33   0.611   1.574   0.275 -0.7988  0.3235  2.3553
   12SOL     OW   34   2.781   2.866   1.415  0.5349 -0.7186 -0.4804
   12SOL    HW1   35   2.771   2.875   1.311 -0.0480 -1.5715 -0.7656
   12SOL    HW2   36   2.852   2.800   1.439 -1.9021 -2.4191 -0.0507
   13SOL     OW   37   0.705   2.851   0.269 -0.2008  0.2785  0.2296
   13SOL    HW1   38   0.761   2.845   0.182 -1.3504 -1.0354 -0.8762
   13SOL    HW2   39   0.616   2.811   0.252  2.7473  2.0572 -0.9545
   14SOL     OW   40   1.544   1.733   1.345 -0.6264 -0.3093  0.6712
   14SOL    HW1   41   1.476   1.659   1.356 -0.0510  0.5440 -1.2954
   14SOL    HW2   42   1.640   1.700   1.338  0.5267  0.5190 -0.1392
   15SOL     OW   43   0.420   1.886   2.601 -0.2114  0.0731  0.1475
   15SOL    HW1   44   0.502   1.914   2.542  0.5799 -0.7934  1.5746
   15SOL    HW2   45   0.423   1.924   2.695 -0.7912  0.3759  2.0191
   16SOL     OW   46   1.533   0.474   2.686  0.1508 -0.1030  0.1339
   16SOL    HW1   47   1.552   0.543   2.614  0.1775 -0.6470  2.0136
   16SOL    HW2   48   1.557   0.513   2.776 -0.5251  1.1011 -2.8792
   17SOL     OW   49   0.017   2.452   2.505  0.7100 -0.1653  0.0746
   17SOL    HW1   50   0.043   2.523   2.567 -0.4761 -3.4928 -1.6559
   17SOL    HW2   51   0.073   2.453   2.424  0.7570 -0.3930  1.3489
   18SOL     OW   52   1.171   1.340   0.865  0.3213 -0.0406 -0.0415
   18SOL    HW1   53   1.147   1.436   0.883  1.1788 -0.6746  1.0105
   18SOL    HW2   54   1.104   1.278   0.919 -0.8225 -1.5217 -0.4977
   19SOL     OW   55   2.829   1.927   2.461 -0.7006 -0.1312 -0.1565
   19SOL    HW1   56   2.921   1.915   2.491 -0.3775 -1.2910 -2.2288
   19SOL    HW2   57   2.774   1.965   2.535  0.3708 -2.2295 -2.0241
   20SOL     OW   58   2.504   2.351   2.437  0.1102  0.3183 -0.0923
   20SOL    HW1   59   2.548   2.365   2.349  2.0690  2.0691 -0.5731
   20SOL    HW2   60   2.421   2.407   2.439  5.3595 -2.4687  0.8574
   21SOL     OW   61   1.544   1.756   0.314 -0.3193 -0.3968 -0.2367
   21SOL    HW1   62   1.589   1.685   0.374  0.8588 -1.7159  1.1073
   21SOL    HW2   63   1.492   1.820   0.378 -0.6429 -0.5750 -2.2483
   22SOL     OW   64   2.298   2.117   1.528  0.1297  0.0950  0.3845
   22SOL    HW1   65   2.346   2.105   1.617 -1.3619 -1.8240 -0.4358
   22SOL    HW2   66   2.350   2.179   1.466  1.6912  1.8927 -1.4405
   23SOL     OW   67   2.948   1.068   1.252 -0.1914  0.3512  0.1821
   23SOL    HW1   68   2.878   1.136   1.238  1.1578 -2.5601  1.6857
   23SOL    HW2   69   3.008   1.060   1.170 -1.7730 -1.4354 -0.4943
   24SOL     OW   70   2.406   1.449   1.924 -0.4749  0.3563  0.2768
   24SOL    HW1   71   2.459   1.446   1.834  1.6088 -1.1701  0.9220
   24SOL    HW2   72   2.413   1.360   1.974  3.1417 -1.0565  1.0756
   25SOL     OW   73   2.025   0.209   2.287  0.0227  0.3819 -0.1728
   25SOL    HW1   74   2.090   0.264   2.341 -0.6497 -0.1744  1.3440
   25SOL    HW2   75   2.035   0.108   2.301 -2.2725 -1.2159  0.7752
   26SOL     OW   76   1.028   3.103   0.379  0.3817 -0.1877 -0.1923
   26SOL    HW1   77   1.001   0.086   0.358  0.4344 -0.5526  2.6421
   26SOL    HW2   78   1.095   3.101   0.456 -2.3777  1.5429  1.2958
   27SOL     OW   79   0.858   1.660   0.774  0.1042 -0.1388  0.0314
   27SOL    HW1   80   0.832   1.719   0.693 -2.9996  0.1954 -1.5390
   27SOL    HW2   81   0.769   1.627   0.821 -1.0486 -3.0214  1.0586
   28SOL     OW   82   2.473   2.112   1.090 -0.0597  0.0827  0.3811
   28SOL    HW1   83   2.380   2.122   1.135 -3.7097 -1.6406  0.3661
   28SOL    HW2   84   2.499   2.194   1.034 -0.9104  3.7474 -0.8080
   29SOL     OW   85   2.130   0.130   1.608 -0.0987 -0.3166  0.5410
   29SOL    HW1   86   2.163   0.071   1.536 -1.6021 -0.9682  1.9907
   29SOL    HW2   87   2.198   0.139   1.687  1.2758 -3.7859  1.1413
   30SOL     OW   88   0.839   3.004   1.189 -0.0884 -0.2551 -1.1487
   30SOL    HW1   89   0.782   2.925   1.222  1.3050 -0.1667  0.1646
   30SOL    HW2   90   0.886   3.044   1.274  1.7696 -0.9792  2.3822
   31SOL     OW   91   3.090   2.019   2.036  0.8801  0.5150 -0.2222
   31SOL    HW1   92   0.057   1.962   2.013 -2.1534 -0.7465  0.3765
   31SOL    HW2   93   3.016   1.951   2.064  1.0335 -4.0024  2.7001
   32SOL     OW   94   1.370   1.619   2.072 -0.2372  0.3799 -0.1546
   32SOL    HW1   95   1.370   1.697   2.008  3.1289  3.2750  0.2268
   32SOL    HW2   96   1.465   1.585   2.102  1.2035  0.5948  1.0419
   33SOL     OW   97   0.440   0.177   3.016 -0.2507 -0.1300  0.0256
   33SOL    HW1   98   0.395   0.230   2.945  0.2150 -2.3104  5.6013
   33SOL    HW2   99   0.530   0.134   2.986 -1.6957  2.1318 -0.5478
   34SOL     OW  100   2.514   3.014   0.588  0.4619  0.2185 -0.2091
   34SOL    HW1  101   2.494   3.030   0.687  0.6818  0.0655 -0.6957
   34SOL    HW2  102   2.582   2.942   0.581 -0.7028 -0.3759  1.5566
   35SOL     OW  103   2.638   0.307   1.359 -0.0820 -0.5042 -0.6832
   35SOL    HW1  104   2.582   0.323   1.443  0.5245 -0.3507  2.9828
   35SOL    HW2  105   2.577   0.260   1.291 -0.9922 -0.7910  1.1393
   36SOL     OW  106   2.799   2.955   2.485  0.2783 -0.0481  0.1561
   36SOL    HW1  107   2.702   2.983   2.457 -0.6841 -0.2647 -1.9405
   36SOL    HW2  108   2.837   2.893   2.415  0.7860 -0.9483  2.1620
   37SOL     OW  109   1.655   2.566   2.952 -0.7821  0.2094  0.1689
   37SOL    HW1  110   1.665   2.669   2.968  3.9878  1.2547  0.1036
   37SOL    HW2  111   1.585   2.523   3.020 -0.3049 -1.5805 -0.5798
   38SOL     OW  112   3.066   0.985   0.019 -0.1265 -0.2472 -0.0763
   38SOL    HW1  113   3.003   0.974   3.054 -2.4935  0.2994 -2.8723
   38SOL    HW2  114   3.026   1.023   0.103  3.1605  2.8427 -0.7518
   39SOL     OW  115   1.798   1.757   2.067 -0.1141 -0.2953 -0.1381
   39SOL    HW1  116   1.760   1.843   2.103  0.1519  0.5055 -1.0299
   39SOL    HW2  117   1.740   1.684   2.102 -0.2200  2.8805 -1.8693
   40SOL     OW  118   0.253   0.299   2.497 -0.2241  0.0085  0.2009
   40SOL    HW1  119   0.180   0.287   2.567  1.4693 -0.1281  0.5028
   40SOL    HW2  120   0.343   0.313   2.547 -1.9732 -1.1999 -0.5630
   41SOL     OW  121   1.777   1.273   1.879 -0.0408  0.1677  0.4003
   41SOL    HW1  122   1.721   1.275   1.964 -1.4838 -1.0362 -2.3294
   41SOL    HW2  123   1.721   1.331   1.814 -2.7079  0.0803 -1.9825
   42SOL     OW  124   3.004   0.193   1.480 -0.2364 -0.1840  0.1697
   42SOL    HW1  125   2.949   0.156   1.404 -1.2366 -2.7949  2.7336
   42SOL    HW2  126   3.077   0.256   1.440  1.3163  0.2760 -2.0390
   43SOL     OW  127   1.398   1.263   1.769 -0.3338  0.0762  0.4263
   43SOL    HW1  128   1.298   1.262   1.757  2.1298 -0.9073 -1.6930
   43SOL    HW2  129   1.425   1.189   1.836  1.5925  0.5964  1.3351
   44SOL     OW  130   3.033   0.358   2.939 -0.3232  0.1971 -0.4282
   44SOL    HW1  131   3.090   0.328   3.018 -0.2329  1.3513  1.1988
   44SOL    HW2  132   2.950   0.299   2.929 -3.0967 -0.2480 -0.5925
   45SOL     OW  133   0.309   2.110   1.117 -0.6481  0.0220 -0.0546
   45SOL    HW1  134   0.279   2.133   1.210  2.4963  0.5197 -1.1224
   45SOL    HW2  135   0.269   2.023   1.084 -1.3063  1.0186  0.5729
   46SOL     OW  136   2.398   2.914   1.757  0.1368  0.0253 -0.0168
   46SOL    HW1  137   2.351   3.007   1.760  0.8188 -0.2101 -0.5274
   46SOL    HW2  138   2.483   2.925   1.815  1.2843  1.3155  0.4043
   47SOL     OW  139   0.494   1.549   1.241  0.1923 -0.1997  0.4955
   47SOL    HW1  140   0.514   1.466   1.177  1.6520 -1.6894 -2.6034
   47SOL    HW2  141   0.484   1.632   1.180  0.6511 -0.3738  0.1031
   48SOL     OW  142   0.420   2.786   0.206 -0.0082 -0.1431 -0.1561
   48SOL    HW1  143   0.372   2.876   0.228 -0.0600  2.8661  3.0441
   48SOL    HW2  144   0.368   2.708   0.246  0.4772  0.5057 -0.2498
   49SOL     OW  145   2.907   1.669   1.807 -0.1865 -0.6614 -0.0462
   49SOL    HW1  146   2.827   1.694   1.872 -1.2680  0.0665  1.3172
   49SOL    HW2  147   2.986   1.628   1.858  3.0288 -0.3477 -1.0531
   50SOL     OW  148   1.721   0.152   0.604  0.0069  0.0080  0.4213
   50SOL    HW1  149   1.747   0.192   0.510 -0.7799 -2.3236 -0.7852
   50SOL    HW2  150   1.673   0.224   0.657  2.5070  2.0588  0.5795
   51SOL     OW  151   1.127   0.637   1.147 -0.2794 -0.4363  0.5925
   51SOL    HW1  152   1.074   0.699   1.083 -0.7630 -1.4626  0.5466
   51SOL    HW2  153   1.088   0.541   1.144  0.1019 -0.7659 -0.2645
   52SOL     OW  154   0.820   1.273   0.558 -0.0593  0.7004 -0.7528
   52SOL    HW1  155   0.753   1.239   0.489  1.8612 -2.0371 -0.7703
   52SOL    HW2  156   0.769   1.287   0.648 -0.8642 -0.6245  0.4660
   53SOL     OW  157   1.414   3.071   2.397 -0.1099 -0.6408 -0.3028
   53SOL    HW1  158   1.450   3.073   2.491 -2.1625 -0.2340 -1.0227
   53SOL    HW2  159   1.481   0.003   2.328 -1.7585  3.8056 -2.4367
   54SOL     OW  160   1.700   0.695   1.630 -0.0108  0.5350  0.2049
   54SOL    HW1  161   1.672   0.692   1.531  1.0965  0.4850  1.7039
   54SOL    HW2  162   1.802   0.699   1.633  0.7803  2.6290  1.6969
   55SOL     OW  163   3.007   2.719   0.462 -0.1697  0.0225 -0.5870
   55SOL    HW1  164   2.967   2.630   0.436 -0.1337 -1.3881 -0.2749
   55SOL    HW2  165   2.994   2.728   0.564 -3.8431 -2.4348 -1.1253
   56SOL     OW  166   1.201   2.614   1.756  0.5885 -0.7237  0.0717
   56SOL    HW1  167   1.202   2.667   1.840 -0.0436  0.7109 -0.7812
   56SOL    HW2  168   1.223   2.671   1.669  1.7604  0.5484 -0.6787
   57SOL     OW  169   1.640   0.905   2.596  0.5738 -0.3134  0.0380
   57SOL    HW1  170   1.624   0.930   2.692 -1.5277  1.3340 -1.3681
   57SOL    HW2  171   1.605   0.811   2.574 -2.4942 -1.2363 -0.4959
   58SOL     OW  172   0.298   1.431   2.112  0.1211  0.2282 -0.2322
   58SOL    HW1  173   0.383   1.486   2.091  0.1276  1.0050  1.9578
   58SOL    HW2  174   0.319   1.335   2.103 -0.0179  0.9469  1.3764
   59SOL     OW  175   0.551   2.497   1.985  0.1894 -0.3921 -0.4992
   59SOL    HW1  176   0.606   2.409   1.993 -0.6586  0.7358  1.9249
   59SOL    HW2  177   0.598   2.561   2.053  0.0310  1.1666  2.2689
   60SOL     OW  178   2.473   2.478   0.207 -0.1224 -0.1201 -0.0923
   60SOL    HW1  179   2.531   2.398   0.226  1.3867 -0.3537 -1.8181
   60SOL    HW2  180   2.445   2.481   0.110  0.5692  0.9842  1.1195
   61SOL     OW  181   1.001   2.848   0.732  0.3616  0.4695 -0.4863
   61SOL    HW1  182   1.094   2.837   0.702 -0.3408  1.3968  0.5330
   61SOL    HW2  183   0.940   2.877   0.659 -1.2587  1.4724  0.1671
   62SOL     OW  184   1.614   2.246   2.562 -0.4972  0.2847 -0.2459
   62SOL    HW1  185   1.663   2.208   2.479 -0.6852  2.3292 -0.5517
   62SOL    HW2  186   1.621   2.188   2.648  2.9846  0.0207  3.3166
   63SOL     OW  187   2.115   0.654   2.814 -0.1545  0.1891 -0.3463
   63SOL    HW1  188   2.112   0.704   2.726 -0.9386 -2.7839  1.0525
   63SOL    HW2  189   2.209   0.643   2.843 -2.3191 -2.0019 -1.0949
   64SOL     OW  190   1.273   1.448   0.212  0.7885 -0.0824  0.3153
   64SOL    HW1  191   1.233   1.540   0.194 -0.6199 -1.3941  1.3343
   64SOL    HW2  192   1.285   1.434   0.308 -0.3776 -1.6825 -4.4406
   65SOL     OW  193   0.966   0.024   1.410 -0.4636 -0.5010  0.1099
   65SOL    HW1  194   1.069   0.018   1.404 -0.5570 -2.0819  1.6571
   65SOL    HW2  195   0.934   0.118   1.442 -0.5041  1.3886 -1.0368
   66SOL     OW  196   0.736   1.317   1.482  0.6152 -0.5302  0.0564
   66SOL    HW1  197   0.719   1.219   1.496  0.0390 -1.7478  0.8574
   66SOL    HW2  198   0.784   1.315   1.398 -0.4777  0.2312 -0.5321
   67SOL     OW  199   2.438   2.550   1.878 -0.4652 -0.0194 -0.2362
   67SOL    HW1  200   2.500   2.543   1.957 -0.4908 -1.6888 -1.2276
   67SOL    HW2  201   2.465   2.625   1.809  0.2160  1.7120 -3.3606
   68SOL     OW  202   0.911   1.124   1.797  0.2325  0.1984 -0.0656
   68SOL    HW1  203   0.834   1.134   1.862 -0.9103  2.3442  1.8865
   68SOL    HW2  204   0.900   1.051   1.732  2.1569 -1.0312  2.0560
   69SOL     OW  205   2.674   2.513   3.112 -0.2602  0.1101  0.1144
   69SOL    HW1  206   2.693   2.584   0.073  1.0149  0.8615  1.5949
   69SOL    HW2  207   2.602   2.545   3.049  1.4792 -0.3640  2.2683
   70SOL     OW  208   2.457   0.628   2.442  0.2447  0.0844  0.3917
   70SOL    HW1  209   2.482   0.555   2.510 -0.0600 -0.0400  0.4460
   70SOL    HW2  210   2.538   0.687   2.419 -0.7185 -0.3638  0.3606
   71SOL     OW  211   3.100   2.121   0.501  0.0695 -0.0573 -0.2920
   71SOL    HW1  212   3.016   2.088   0.451 -1.2743 -0.4958 -1.4761
   71SOL    HW2  213   0.024   2.210   0.472  1.5492 -2.6789 -0.5156
   72SOL     OW  214   2.884   2.060   0.347 -0.4453  0.4129 -0.0706
   72SOL    HW1  215   2.823   1.976   0.351  0.9884  1.5116 -0.1064
   72SOL    HW2  216   2.903   2.087   0.253 -0.6709 -0.7290  3.1706
   73SOL     OW  217   0.913   0.629   0.870  0.2607 -0.2128 -0.1309
   73SOL    HW1  218   1.012   0.658   0.879  1.3212 -0.0761  1.5961
   73SOL    HW2  219   0.856   0.709   0.847 -0.2183 -0.4233 -0.2197
   74SOL     OW  220   2.577   2.330   2.177 -0.1019  0.1922 -0.2802
   74SOL    HW1  221   2.487   2.280   2.163  1.5182  4.0572 -3.1900
   74SOL    HW2  222   2.659   2.279   2.146 -2.3790  1.6972  2.0286
   75SOL     OW  223   1.909   1.713   1.832 -0.0716  0.1000  0.2545
   75SOL    HW1  224   1.863   1.701   1.923 -2.0667 -2.4891  1.5442
   75SOL    HW2  225   1.838   1.713   1.757 -1.7971 -0.3025  0.8301
   76SOL     OW  226   1.194   2.020   1.082  0.4869  1.0615 -0.6601
   76SOL    HW1  227   1.261   1.949   1.111 -2.9989 -0.6619 -0.3820
   76SOL    HW2  228   1.098   1.982   1.065 -3.2754  0.8914  1.2088
   77SOL     OW  229   2.750   1.707   2.030 -0.1512  0.1832 -0.7919
   77SOL    HW1  230   2.753   1.614   2.070 -1.2816 -0.0211 -2.7265
   77SOL    HW2  231   2.808   1.777   2.081  1.1352  0.3224  1.0166
   78SOL     OW  232   1.668   0.432   0.652  0.0399 -0.0196  0.1108
   78SOL    HW1  233   1.608   0.445   0.737  0.3501  1.6263  2.5087
   78SOL    HW2  234   1.608   0.444   0.572 -2.3767 -0.5396  2.6646
   79SOL     OW  235   2.049   1.273   1.890  0.3843 -0.0554 -0.4132
   79SOL    HW1  236   2.075   1.258   1.985  1.4411  0.1180  0.3899
   79SOL    HW2  237   1.950   1.275   1.875  3.0012  2.7059  0.8988
   80SOL     OW  238   1.061   0.460   1.375  0.6679 -0.5085  0.1005
   80SOL    HW1  239   1.042   0.438   1.274 -0.2783 -0.5420 -1.2793
   80SOL    HW2  240   1.113   0.392   1.423  1.0728 -1.8057  0.4459
   81SOL     OW  241   0.813   2.644   0.819 -0.2015  0.1396  0.1808
   81SOL    HW1  242   0.749   2.720   0.847 -3.9243 -0.7593 -1.7922
   81SOL    HW2  243   0.905   2.689   0.804 -0.1057 -1.2980 -1.8046
   82SOL     OW  244   1.324   0.441   1.747  0.3137 -0.1969 -0.0853
   82SOL    HW1  245   1.420   0.461   1.722 -0.3514 -0.7112 -0.2997
   82SOL    HW2  246   1.321   0.368   1.814  0.2286  0.5641  0.4958
   83SOL     OW  247   0.384   2.401   0.695  0.2415 -0.0060  0.3536
   83SOL    HW1  248   0.380   2.341   0.611  1.2402  1.5062 -2.1081
   83SOL    HW2  249   0.348   2.341   0.772  0.5749 -0.9313 -3.9113
   84SOL     OW  250   2.668   1.538   3.051 -0.8118 -0.1092 -0.4824
   84SOL    HW1  251   2.757   1.491   3.044 -1.1858  0.0260  2.3157
   84SOL    HW2  252   2.687   1.634   3.023 -2.0427  1.1073  1.8516
   85SOL     OW  253   2.895   2.359   1.712  0.6831  0.0650 -0.1568
   85SOL    HW1  254   2.805   2.314   1.688 -0.9171  1.7497 -0.4546
   85SOL    HW2  255   2.911   2.354   1.814  0.6194  0.4669  1.7264
   86SOL     OW  256   1.637   2.715   1.206  0.1963 -0.4104  0.1870
   86SOL    HW1  257   1.726   2.662   1.226  1.6096  1.6967  0.1457
   86SOL    HW2  258   1.657   2.791   1.139  2.3181  1.1930  1.5948
   87SOL     OW  259   2.738   1.809   0.325 -0.2901 -0.2384  0.7200
   87SOL    HW1  260   2.641   1.782   0.342  0.6212 -0.7159 -3.4294
   87SOL    HW2  261   2.754   1.810   0.225 -0.1663  1.3562  0.1335
   88SOL     OW  262   0.979   0.408   1.132  0.0890 -0.3531 -0.2139
   88SOL    HW1  263   0.886   0.451   1.154  1.4633  0.1760 -0.7084
   88SOL    HW2  264   0.974   0.326   1.076 -0.0057  6.1732  2.4766
   89SOL     OW  265   0.774   2.934   1.772 -0.2078  0.0905 -0.0831
   89SOL    HW1  266   0.756   2.991   1.856 -1.7963 -1.9608  1.0942
   89SOL    HW2  267   0.787   2.836   1.796  1.5356 -0.6459  1.4739
   90SOL     OW  268   3.081   1.626   0.990 -0.1153  0.4381  0.2232
   90SOL    HW1  269   2.979   1.609   0.968 -0.3288  2.9884  0.1005
   90SOL    HW2  270   3.089   1.702   1.065 -1.0074 -0.7429  0.0458
   91SOL     OW  271   1.365   1.805   1.167 -0.0342 -0.1640 -0.3205
   91SOL    HW1  272   1.431   1.799   1.243  2.4311 -0.4978 -1.2694
   91SOL    HW2  273   1.297   1.729   1.183  0.1949 -0.0999  0.8940
   92SOL     OW  274   2.754   0.079   1.705  0.3571 -0.0122  0.9718
   92SOL    HW1  275   2.702   0.158   1.749 -1.5731 -0.5704  2.4096
   92SOL    HW2  276   2.844   0.111   1.665  2.3380  1.5272  1.3311
   93SOL     OW  277   0.205   1.162   2.789 -0.3661  0.5790 -0.8599
   93SOL    HW1  278   0.255   1.108   2.859  0.1802 -1.8712 -1.4494
   93SOL    HW2  279   0.277   1.212   2.741  0.0238  1.0182  2.9562
   94SOL     OW  280   2.309   0.064   1.802 -0.3526 -0.0060 -0.0783
   94SOL    HW1  281   2.281   0.062   1.899 -2.8966  1.7010 -0.0602
   94SOL    HW2  282   2.397   0.118   1.787 -0.8927  0.8330 -3.5147
   95SOL     OW  283   1.587   0.805   2.102  0.1384  0.2216 -0.2378
   95SOL    HW1  284   1.501   0.837   2.150 -1.4392  2.0983  0.5408
   95SOL    HW2  285   1.592   0.794   2.002 -1.2638 -3.2857 -2.4240
   96SOL     OW  286   2.913   0.729   1.703  0.0770  0.2543 -0.0123
   96SOL    HW1  287   2.983   0.718   1.775 -1.1090 -0.4826 -1.5399
   96SOL    HW2  288   2.886   0.826   1.684  0.9807 -1.6545 -2.0797
   97SOL     OW  289   2.265   3.110   1.377 -0.2908 -0.0949 -0.0225
   97SOL    HW1  290   2.330   3.080   1.450  1.0927  1.2899  3.6193
   97SOL    HW2  291   2.212   3.028   1.328 -0.5019 -4.3039 -2.6692
   98SOL     OW  292   2.172   2.627   1.508 -0.1553  0.6427  0.0559
   98SOL    HW1  293   2.252   2.648   1.571  3.1249 -0.0156  1.1703
   98SOL    HW2  294   2.085   2.599   1.552  3.1531  0.3080  1.0449
   99SOL     OW  295   2.471   0.408   1.561  0.3037  0.0559 -0.0294
   99SOL    HW1  296   2.395   0.425   1.500 -1.7000  0.1916  0.8662
   99SOL    HW2  297   2.532   0.485   1.580 -1.2073 -1.2912  0.3530
  100SOL     OW  298   2.311   1.683   2.068  0.3433 -0.4837 -0.2296
  100SOL    HW1  299   2.323   1.614   1.992 -0.1395 -0.5630 -1.1315
  100SOL    HW2  300   2.213   1.695   2.096  1.2422  2.1112  1.2567
  101SOL     OW  301   2.293   0.120   3.055 -0.1378 -0.4710 -0.0945
  101SOL    HW1  302   2.334   0.040   3.105  1.8465  0.5661 -0.4795
  101SOL    HW2  303   2.215   0.155   0.000 -1.9097 -0.2046 -1.7914
  102SOL     OW  304   0.721   0.507   1.161  0.2198 -1.0001 -0.7375
  102SOL    HW1  305   0.680   0.458   1.242  0.2648 -2.2029 -0.0743
  102SOL    HW2  306   0.646   0.529   1.095 -5.6645  1.6383 -1.7904
  103SOL     OW  307   2.860   0.253   2.313 -0.3439  0.1885  0.5635
  103SOL    HW1  308   2.772   0.223   2.355  1.2310  0.0326 -1.1158
  103SOL    HW2  309   2.945   0.193   2.323  0.0162  1.6183  0.1081
  104SOL     OW  310   0.003   2.892   1.559  0.2868 -0.0184 -0.2291
  104SOL    HW1  311   3.077   2.849   1.472 -0.6682  1.0746  1.5347
  104SOL    HW2  312   0.009   2.817   1.625 -1.7380 -1.8731 -1.5985
  105SOL     OW  313   1.373   1.101   2.001  0.2952  0.3574 -0.3942
  105SOL    HW1  314   1.316   1.182   2.031 -0.5434 -0.8224  1.6793
  105SOL    HW2  315   1.316   1.028   1.952 -0.3310 -0.8387  2.3162
  106SOL     OW  316   1.896   0.543   0.725 -0.3073 -0.0695 -0.5607
  106SOL    HW1  317   1.873   0.598   0.810  0.0885 -4.3637 -1.0475
  106SOL    HW2  318   1.813   0.496   0.683 -0.4805 -2.0261 -0.0981
  107SOL     OW  319   0.492   0.903   1.344  0.4138  0.4412  0.0328
  107SOL    HW1  320   0.484   0.840   1.421  0.3378  0.5736 -3.0553
  107SOL    HW2  321   0.571   0.873   1.289  0.9097 -2.0037 -0.6782
  108SOL     OW  322   3.037   0.539   2.268  0.5163 -0.2937 -0.0249
  108SOL    HW1  323   2.980   0.529   2.186  2.2891 -0.6183  1.1140
  108SOL    HW2  324   2.988   0.501   2.346  2.2160  0.2426 -2.8493
  109SOL     OW  325   2.015   3.102   2.699 -0.3780  0.2462  0.3448
  109SOL    HW1  326   2.110   0.015   2.727  0.3502 -0.0005 -0.4552
  109SOL    HW2  327   2.015   3.017   2.643 -0.0025 -1.1285 -0.6607
  110SOL     OW  328   0.001   1.841   2.896  0.6832 -0.1744  0.6159
  110SOL    HW1  329   3.020   1.864   2.858  1.3294  0.2817  0.0289
  110SOL    HW2  330   0.022   1.870   2.993 -2.2783 -0.8621  2.8785
  111SOL     OW  331   2.716   0.611   2.628 -0.6981 -0.0142 -0.5140
  111SOL    HW1  332   2.639   0.561   2.670  2.6646 -1.8758 -2.0256
  111SOL    HW2  333   2.799   0.548   2.605  0.9517 -4.4429 -0.6673
  112SOL     OW  334   2.798   2.621   0.986  0.0786  0.1399 -0.0093
  112SOL    HW1  335   2.724   2.607   1.052  1.3993 -0.8912  0.3180
  112SOL    HW2  336   2.887   2.603   1.036  1.9943 -1.0701  1.1468
  113SOL     OW  337   2.060   2.187   2.086 -0.1738  0.7645 -0.0165
  113SOL    HW1  338   2.063   2.285   2.076 -0.0949 -2.8366  1.0178
  113SOL    HW2  339   1.976   2.142   2.046 -1.1011 -3.4427 -0.3905
  114SOL     OW  340   2.769   0.004   0.308  0.1250 -0.0812  0.1314
  114SOL    HW1  341   2.671   3.104   0.305  3.8151 -1.3393  1.4013
  114SOL    HW2  342   2.788   0.100   0.343  0.0457  2.7268  0.5780
  115SOL     OW  343   2.745   1.786   3.029  0.5012  0.3733  0.0064
  115SOL    HW1  344   2.786   1.811   0.005 -3.4153  1.5966 -1.4732
  115SOL    HW2  345   2.799   1.814   2.951 -0.1655 -0.3932  3.8632
  116SOL     OW  346   0.041   1.521   1.939  0.0128 -0.3785 -0.3229
  116SOL    HW1  347   0.048   1.482   1.846  2.3940  0.4826  0.0969
  116SOL    HW2  348   0.095   1.464   2.003 -0.2837  0.1377 -0.7995
  117SOL     OW  349   2.119   0.245   0.990  0.3413  0.0044 -0.1257
  117SOL    HW1  350   2.069   0.160   0.956 -1.4259 -1.3359 -2.2631
  117SOL    HW2  351   2.073   0.276   1.072 -0.9989 -1.3253  0.9724
  118SOL     OW  352   3.105   2.282   1.945 -0.1916  0.4776  0.4417
  118SOL    HW1  353   3.099   2.182   1.967 -2.0457 -2.8593 -1.7163
  118SOL    HW2  354   0.092   2.309   1.921  1.9093 -0.2772  0.6339
  119SOL     OW  355   0.897   1.879   1.315 -0.0281  0.0421 -0.2732
  119SOL    HW1  356   0.843   1.960   1.308 -1.7538 -1.9899 -1.8559
  119SOL    HW2  357   0.843   1.811   1.366  4.7751 -1.6434  0.0814
  120SOL     OW  358   0.197   1.500   1.323 -0.3353 -0.3734 -0.3268
  120SOL    HW1  359   0.155   1.528   1.415 -1.5640 -0.1602 -1.6442
  120SOL    HW2  360   0.283   1.552   1.310  1.3563  1.5927 -2.1488
  121SOL     OW  361   1.838   1.185   1.084  0.1146 -0.3560  0.3427
  121SOL    HW1  362   1.808   1.277   1.120  0.8025  1.1605 -0.8514
  121SOL    HW2  363   1.827   1.101   1.141 -2.3489 -0.3202  1.3992
  122SOL     OW  364   1.923   1.859   2.633  0.0942  0.4228 -0.1589
  122SOL    HW1  365   1.893   1.775   2.577  0.6838 -1.1474 -1.9579
  122SOL    HW2  366   1.941   1.939   2.574 -0.5023 -1.2718 -0.7325
  123SOL     OW  367   2.965   2.906   0.273  0.2434  0.6010  0.4309
  123SOL    HW1  368   2.895   2.977   0.289  1.7138 -1.5623  1.2590
  123SOL    HW2  369   2.979   2.853   0.359 -1.0872 -1.4378  0.6577
  124SOL     OW  370   1.016   1.285   0.362 -0.0006 -0.0250  0.4986
  124SOL    HW1  371   0.937   1.273   0.428  1.8482  2.5340 -2.0395
  124SOL    HW2  372   1.030   1.384   0.337 -0.1922  0.8469 -2.9686
  125SOL     OW  373   0.138   1.566   2.332  0.1060  0.1247  0.7080
  125SOL    HW1  374   0.227   1.578   2.387  1.4751 -0.2150  0.6882
  125SOL    HW2  375   0.154   1.503   2.253 -0.1202 -1.7319  1.2305
  126SOL     OW  376   0.001   2.607   0.086 -0.3577 -0.4999  0.7721
  126SOL    HW1  377   3.037   2.666   0.041  0.7356  0.4247 -2.3866
  126SOL    HW2  378   0.073   2.669   0.121 -0.4000 -2.9679  1.0056
  127SOL     OW  379   2.929   1.766   0.515  0.0947  0.2482  0.0256
  127SOL    HW1  380   2.863   1.762   0.436  1.1736  0.3895 -4.4533
  127SOL    HW2  381   2.904   1.697   0.588 -1.4346  2.3086 -3.7440
  128SOL     OW  382   1.253   1.137   0.719  0.1732  0.0666  0.0666
  128SOL    HW1  383   1.243   1.226   0.766 -0.4167 -0.8925  1.4859
  128SOL    HW2  384   1.311   1.073   0.777 -0.7607 -1.8772  2.0128
  129SOL     OW  385   2.152   1.970   1.136 -0.3025 -0.3737  0.1861
  129SOL    HW1  386   2.082   1.961   1.065  1.8393 -1.3518 -0.9904
  129SOL    HW2  387   2.136   1.917   1.218 -0.4158  0.7834 -1.9813
  130SOL     OW  388   1.991   1.003   0.794  0.3442 -0.3556 -0.3892
  130SOL    HW1  389   1.919   1.014   0.726  0.0169  1.3228 -0.5000
  130SOL    HW2  390   2.037   1.092   0.815 -0.8294 -1.2528 -1.1797
  131SOL     OW  391   2.882   1.286   2.705  0.2099  0.1560 -0.1333
  131SOL    HW1  392   2.830   1.284   2.791 -0.3800 -0.6543 -1.4901
  131SOL    HW2  393   2.846   1.240   2.623  2.4649 -2.9350 -1.2729
  132SOL     OW  394   1.614   1.211   2.101  0.2294  0.2351 -0.5586
  132SOL    HW1  395   1.608   1.177   2.197 -0.2147 -0.4883  1.4021
  132SOL    HW2  396   1.554   1.153   2.045  0.8292  1.3444 -1.1258
  133SOL     OW  397   3.000   1.096   0.259 -0.5504 -0.0441  0.4277
  133SOL    HW1  398   2.961   1.020   0.310 -2.3773 -0.3923 -1.3052
  133SOL    HW2  399   3.084   1.134   0.307  2.5029 -0.5604 -0.0077
  134SOL     OW  400   2.582   1.008   0.519  0.0484  0.4364  0.1518
  134SOL    HW1  401   2.582   1.049   0.429  2.0777  1.9065  1.6633
  134SOL    HW2  402   2.513   1.052   0.579  1.2505  2.9858 -1.5092
  135SOL     OW  403   1.581   0.840   3.041  0.6594 -0.2665 -0.2677
  135SOL    HW1  404   1.625   0.750   3.017  1.0013  3.7821 -0.8434
  135SOL    HW2  405   1.651   0.903   3.079 -2.1207 -1.4903 -1.1364
  136SOL     OW  406   1.889   1.993   1.728 -0.0833 -0.1798 -0.4186
  136SOL    HW1  407   1.911   1.910   1.777 -0.2289  1.7948 -2.3587
  136SOL    HW2  408   1.790   1.988   1.712 -2.1324 -1.3144  3.0088
  137SOL     OW  409   2.583   2.607   0.433  0.2083  0.0048  0.1071
  137SOL    HW1  410   2.572   2.572   0.527  1.9529 -0.8418 -1.4070
  137SOL    HW2  411   2.518   2.545   0.378 -1.2267 -3.7895 -0.9841
  138SOL     OW  412   2.251   0.410   1.397  0.3680  0.1847  0.1015
  138SOL    HW1  413   2.164   0.386   1.451 -0.9012 -0.0560  1.9948
  138SOL    HW2  414   2.290   0.329   1.351  1.7679  0.4914 -2.6661
  139SOL     OW  415   2.677   0.166   2.510  0.3395  0.2010  0.7320
  139SOL    HW1  416   2.595   0.175   2.571 -0.9002  0.3590 -3.2389
  139SOL    HW2  417   2.758   0.145   2.571  3.4622  1.5670 -2.4583
  140SOL     OW  418   1.153   1.811   2.086 -0.3262  0.1622 -0.1276
  140SOL    HW1  419   1.198   1.804   2.176 -3.4096  1.8319 -1.0682
  140SOL    HW2  420   1.221   1.815   2.011  2.2719  2.0181  0.3309
  141SOL     OW  421   0.841   0.466   2.333  0.4563 -0.5587 -0.0853
  141SOL    HW1  422   0.758   0.530   2.326  0.0034  3.9153  0.0368
  141SOL    HW2  423   0.913   0.492   2.267 -2.1294  1.2051  0.8565
  142SOL     OW  424   2.750   2.746   2.740 -0.3547 -0.0515 -0.0807
  142SOL    HW1  425   2.669   2.732   2.797 -0.3779 -0.4146 -0.3490
  142SOL    HW2  426   2.729   2.740   2.640  1.0792 -2.4999  0.3939
  143SOL     OW  427   1.067   2.052   0.377 -0.2588  0.6811  0.2048
  143SOL    HW1  428   1.158   2.096   0.359  3.3381 -2.8680 -2.0184
  143SOL    HW2  429   1.053   2.025   0.476 -1.8961 -0.2259  1.1633
  144SOL     OW  430   1.476   2.499   0.026 -0.4487  0.0748  0.3390
  144SOL    HW1  431   1.398   2.448   3.095 -1.2265  0.8820 -0.7526
  144SOL    HW2  432   1.443   2.579   0.077 -0.3272  0.9220 -0.9964
  145SOL     OW  433   1.619   1.936   2.621 -0.0369 -0.3831  0.7605
  145SOL    HW1  434   1.715   1.920   2.634 -3.0609  1.3671 -0.5726
  145SOL    HW2  435   1.597   1.905   2.527  0.1365 -0.1291 -1.4761
  146SOL     OW  436   2.496   3.036   2.773  0.2118  0.3400  0.1761
  146SOL    HW1  437   2.536   3.003   2.863  1.5263  0.3619  0.3098
  146SOL    HW2  438   2.540   2.987   2.696 -1.7936 -1.2779  0.5567
  147SOL     OW  439   2.787   1.184   0.932 -0.1227 -0.1593 -0.4673
  147SOL    HW1  440   2.775   1.224   1.023  0.4545 -1.2353 -1.1430
  147SOL    HW2  441   2.768   1.256   0.866 -0.0781 -2.1403  0.2398
  148SOL     OW  442   2.223   2.768   0.043 -0.2592 -0.2880  0.5489
  148SOL    HW1  443   2.200   2.767   0.141  0.0990  1.0973  0.8830
  148SOL    HW2  444   2.142   2.790   3.094 -1.7975 -0.0641 -2.3367
  149SOL     OW  445   0.603   1.699   2.844  0.4289  0.1469 -0.2300
  149SOL    HW1  446   0.555   1.630   2.791  0.9421  1.3666  1.4602
  149SOL    HW2  447   0.697   1.668   2.862 -2.1556  2.6799  1.5160
  150SOL     OW  448   0.331   2.660   0.649 -0.4452  0.1402  0.0248
  150SOL    HW1  449   0.413   2.713   0.624 -1.5538  0.8953  0.4959
  150SOL    HW2  450   0.357   2.562   0.661  0.5676  1.0341  2.2981
  151SOL     OW  451   0.407   1.109   0.283  0.4783  0.0113  0.0990
  151SOL    HW1  452   0.348   1.035   0.322 -0.9193  1.7996  1.0907
  151SOL    HW2  453   0.389   1.191   0.334  1.8367 -3.7520  0.0115
  152SOL     OW  454   2.706   2.181   0.532  0.3207  0.4775 -0.1030
  152SOL    HW1  455   2.782   2.164   0.467 -2.4133 -0.8050  1.3375
  152SOL    HW2  456   2.649   2.094   0.556 -2.5108 -1.8247  3.4255
  153SOL     OW  457   1.858   2.337   0.736 -0.9356  0.2555 -0.2563
  153SOL    HW1  458   1.804   2.413   0.771  0.2947 -2.9849 -0.3246
  153SOL    HW2  459   1.806   2.296   0.655 -1.0267  0.8039  0.5098
  154SOL     OW  460   0.979   2.662   1.149  0.1538  0.2616  0.0847
  154SOL    HW1  461   1.000   2.741   1.094  0.2404 -0.0907  2.0699
  154SOL    HW2  462   0.885   2.629   1.130 -0.7479  1.8566 -1.7930
  155SOL     OW  463   2.840   1.918   0.729 -0.0732  0.1938  0.4826
  155SOL    HW1  464   2.748   1.942   0.706 -0.6646  0.9014  3.2164
  155SOL    HW2  465   2.897   1.913   0.647  1.2378 -0.4674  0.0759
  156SOL     OW  466   2.719   2.274   2.962  0.1038  0.0374  0.1896
  156SOL    HW1  467   2.693   2.277   2.864 -0.4441  0.3324  0.9532
  156SOL    HW2  468   2.695   2.357   3.017  0.0122 -4.0927 -1.9513
  157SOL     OW  469   0.588   1.998   1.573  0.2240  0.6436 -0.5683
  157SOL    HW1  470   0.651   2.022   1.491  1.3960  0.3947 -1.8497
  157SOL    HW2  471   0.486   2.013   1.552 -0.6721  0.8879  0.1392
  158SOL     OW  472   1.460   0.240   0.246  0.1046  0.2808  0.3596
  158SOL    HW1  473   1.539   0.247   0.183  3.0939  0.7539 -1.9559
  158SOL    HW2  474   1.466   0.149   0.292 -1.9361  0.5994 -0.4876
  159SOL     OW  475   1.430   0.632   0.295 -0.1549 -0.0418 -0.0587
  159SOL    HW1  476   1.419   0.566   0.369  0.5603  1.6513 -1.3877
  159SOL    HW2  477   1.343   0.657   0.249 -0.9758  0.8786 -0.5989
  160SOL     OW  478   0.747   1.341   0.811  0.2229  0.2520  0.5504
  160SOL    HW1  479   0.811   1.304   0.884 -1.2303 -2.0907  0.6731
  160SOL    HW2  480   0.680   1.411   0.852  0.9429 -1.2565  0.8994
  161SOL     OW  481   0.083   2.627   2.719  0.2313 -0.0045 -0.0484
  161SOL    HW1  482   0.045   2.600   2.807  2.2267 -0.6971 -3.1579
  161SOL    HW2  483   0.187   2.636   2.723  0.1611  1.8172  1.3770
  162SOL     OW  484   0.191   2.244   1.344 -0.4542  0.0791 -0.1525
  162SOL    HW1  485   0.159   2.311   1.276 -2.1322 -2.4942 -1.8271
  162SOL    HW2  486   0.110   2.217   1.401  1.9228 -2.6820 -0.5123
  163SOL     OW  487   0.081   0.634   2.895  0.1761 -0.5243 -0.6300
  163SOL    HW1  488   0.088   0.687   2.812  1.8851 -0.1702  1.3922
  163SOL    HW2  489   3.099   0.599   2.920 -2.2418 -1.4331 -2.3057
  164SOL     OW  490   0.450   3.064   2.472  0.0501  0.3561  0.0250
  164SOL    HW1  491   0.528   3.038   2.532  1.9757  0.4116 -2.5082
  164SOL    HW2  492   0.361   3.047   2.514 -0.2812 -0.8328 -1.4726
  165SOL     OW  493   2.453   0.827   1.668 -0.1851 -0.6168 -0.0102
  165SOL    HW1  494   2.439   0.877   1.579  0.5394  3.3233  0.7197
  165SOL    HW2  495   2.385   0.751   1.676  0.2736 -0.5250 -0.4892
  166SOL     OW  496   1.983   2.158   1.532  0.4323  0.1704 -0.3495
  166SOL    HW1  497   2.082   2.162   1.513  0.1195 -0.8581  2.4615
  166SOL    HW2  498   1.968   2.103   1.614  0.3011 -0.2832  0.4785
  167SOL     OW  499   0.731   0.931   2.371 -0.2904  0.2603 -0.2801
  167SOL    HW1  500   0.795   0.960   2.296 -1.2216 -1.1205 -0.7182
  167SOL    HW2  501   0.785   0.867   2.436  0.2867  1.3965  0.9164
  168SOL     OW  502   2.270   0.086   2.082  0.1007  0.1907  0.0350
  168SOL    HW1  503   2.276   0.187   2.110 -3.8527  1.4871  0.5740
  168SOL    HW2  504   2.207   0.039   2.144 -0.1456  2.7589 -1.7766
  169SOL     OW  505   0.280   0.889   0.354  0.7901  0.7210  0.6198
  169SOL    HW1  506   0.362   0.832   0.373 -0.9374 -2.0640  0.6261
  169SOL    HW2  507   0.216   0.840   0.288 -2.3340 -0.6873 -1.2168
  170SOL     OW  508   0.412   1.447   1.807 -0.3813  0.0401  0.2689
  170SOL    HW1  509   0.380   1.365   1.864 -0.2993 -0.3634 -0.7706
  170SOL    HW2  510   0.510   1.438   1.775  0.0994  2.0457 -0.9412
  171SOL     OW  511   1.136   2.157   1.780 -0.0083  0.0853 -0.6917
  171SOL    HW1  512   1.067   2.139   1.708  1.9211 -0.6590 -0.8638
  171SOL    HW2  513   1.186   2.242   1.761 -1.0797 -0.4322  2.7465
  172SOL     OW  514   1.489   2.733   1.998 -0.2375 -0.2976  0.0922
  172SOL    HW1  515   1.404   2.792   2.020 -2.1570  1.6291 -0.0277
  172SOL    HW2  516   1.534   2.716   2.088  0.4679  0.0515 -0.8689
  173SOL     OW  517   1.359   2.486   0.718  0.0259  0.4131 -0.0871
  173SOL    HW1  518   1.302   2.407   0.720  3.0198 -0.3758 -1.5741
  173SOL    HW2  519   1.386   2.513   0.815 -0.3328 -0.6112 -1.7435
  174SOL     OW  520   2.448   3.104   0.350 -0.2704 -0.3750 -0.1093
  174SOL    HW1  521   2.488   3.069   0.437 -0.8569  1.4864  1.6831
  174SOL    HW2  522   2.433   0.094   0.353  0.0382  2.9389  1.3622
  175SOL     OW  523   0.993   1.501   0.606  0.1218  0.2543  0.1732
  175SOL    HW1  524   0.947   1.542   0.693  0.5289  2.3725  2.1841
  175SOL    HW2  525   0.950   1.423   0.563  2.0343  2.3655 -0.1337
  176SOL     OW  526   0.762   1.787   0.544 -0.1095  0.1620 -0.0895
  176SOL    HW1  527   0.753   1.852   0.463  1.0376  0.4297 -0.8770
  176SOL    HW2  528   0.695   1.711   0.539 -2.3935 -1.3931 -0.0782
  177SOL     OW  529   1.119   1.237   1.493 -0.2687  0.2035  0.2901
  177SOL    HW1  530   1.107   1.270   1.590 -0.7384  2.0857  0.8037
  177SOL    HW2  531   1.177   1.153   1.500 -1.1440  2.3996  0.1841
  178SOL     OW  532   2.464   1.770   0.423  0.0427 -0.1448  0.5620
  178SOL    HW1  533   2.403   1.846   0.415  2.8286  0.3879  0.1471
  178SOL    HW2  534   2.418   1.682   0.414  2.1959  1.3492 -1.1736
  179SOL     OW  535   1.295   2.410   2.962 -0.1219  0.4025 -0.2530
  179SOL    HW1  536   1.269   2.444   2.871  1.6736 -0.1838  2.9207
  179SOL    HW2  537   1.257   2.318   2.987 -1.1501 -0.1960 -1.2280
  180SOL     OW  538   2.038   1.462   2.154  0.2701  0.0169  0.1498
  180SOL    HW1  539   2.056   1.561   2.173  0.6903  0.8921  1.6710
  180SOL    HW2  540   2.123   1.413   2.157  1.1629  0.7807 -1.3697
  181SOL     OW  541   0.889   0.781   2.516 -0.4375 -0.3977  0.0202
  181SOL    HW1  542   0.915   0.795   2.615  0.7488  3.2070  1.6393
  181SOL    HW2  543   0.963   0.742   2.459 -1.5267  2.6413  1.6731
  182SOL     OW  544   2.904   1.371   2.338  0.1980  0.1562  0.2124
  182SOL    HW1  545   2.830   1.329   2.392  1.2989  3.0095  1.4578
  182SOL    HW2  546   2.971   1.406   2.405  0.6846  0.4976  1.2562
  183SOL     OW  547   1.419   0.449   2.156 -0.5196 -0.0565 -0.0671
  183SOL    HW1  548   1.391   0.410   2.249 -1.7109  0.5735  0.3796
  183SOL    HW2  549   1.350   0.513   2.118  0.5624  2.2526 -0.8866
  184SOL     OW  550   0.623   0.486   1.829  0.2327 -0.5576  0.0541
  184SOL    HW1  551   0.661   0.581   1.835  0.2790 -0.3767  0.3215
  184SOL    HW2  552   0.568   0.483   1.743  0.1657  0.1554  2.1424
  185SOL     OW  553   2.145   1.778   0.557 -0.1652  0.3612  0.1534
  185SOL    HW1  554   2.176   1.866   0.592 -2.2104 -3.0280 -0.3171
  185SOL    HW2  555   2.146   1.711   0.638  0.2245 -0.0481 -0.8413
  186SOL     OW  556   0.208   1.941   0.278 -0.0873 -0.2810  0.0491
  186SOL    HW1  557   0.302   1.907   0.264 -0.4778  1.7968  2.2527
  186SOL    HW2  558   0.148   1.882   0.331  0.5102 -0.2336  3.8750
  187SOL     OW  559   1.998   2.043   0.414 -0.0881 -0.0472 -0.0218
  187SOL    HW1  560   1.979   2.145   0.421 -2.1091  3.6025  1.1277
  187SOL    HW2  561   1.931   2.000   0.351  1.0560 -0.5021 -2.3560
  188SOL     OW  562   0.946   2.321   1.038  0.4534  0.2486 -0.7171
  188SOL    HW1  563   0.988   2.307   1.130  2.6994 -0.4532  1.0469
  188SOL    HW2  564   0.865   2.379   1.055  1.3131  0.9140  1.9911
  189SOL     OW  565   2.201   1.307   2.871  0.2705 -0.1430 -0.8874
  189SOL    HW1  566   2.249   1.322   2.958 -1.3656 -0.2537 -0.8733
  189SOL    HW2  567   2.272   1.332   2.800  0.3997  2.6568  3.0331
  190SOL     OW  568   1.075   2.349   2.042 -0.3067 -0.1185  0.1228
  190SOL    HW1  569   1.074   2.247   2.047  2.8971  3.0588  1.0280
  190SOL    HW2  570   1.039   2.391   2.127  0.7724  1.3673  3.7108
  191SOL     OW  571   2.618   0.808   1.339 -0.7178 -0.1312  0.2373
  191SOL    HW1  572   2.653   0.848   1.252 -0.1346 -1.0203  1.0673
  191SOL    HW2  573   2.642   0.709   1.333 -1.9519 -1.6573 -1.1393
  192SOL     OW  574   2.659   0.622   1.624 -0.0026 -0.5424 -0.0347
  192SOL    HW1  575   2.605   0.701   1.648  0.6196  1.3465 -0.5368
  192SOL    HW2  576   2.753   0.642   1.647 -3.1953 -0.1870 -0.5662
  193SOL     OW  577   0.673   0.077   0.245 -0.9701  0.6781  0.1888
  193SOL    HW1  578   0.624   0.168   0.266 -0.1207  1.2083 -0.8639
  193SOL    HW2  579   0.648   0.005   0.312 -0.0220  0.9870  0.8499
  194SOL     OW  580   1.269   2.357   1.616  0.3737 -0.5238  0.3665
  194SOL    HW1  581   1.360   2.408   1.594  0.6286  1.2001 -0.2853
  194SOL    HW2  582   1.193   2.416   1.647 -0.2317 -1.0673  0.2612
  195SOL     OW  583   2.380   1.142   0.655 -0.2157  0.2305 -0.1489
  195SOL    HW1  584   2.325   1.205   0.706  2.3604  0.2469  0.2576
  195SOL    HW2  585   2.371   1.162   0.556  1.7755 -1.0982  1.5626
  196SOL     OW  586   0.966   2.169   1.569 -0.2165 -0.3532  0.0534
  196SOL    HW1  587   0.968   2.251   1.510 -0.4382  2.8216 -2.9629
  196SOL    HW2  588   0.880   2.174   1.631 -0.9328  1.1423  2.3041
  197SOL     OW  589   0.256   0.771   2.511 -0.7109  0.0135 -0.5832
  197SOL    HW1  590   0.239   0.851   2.447 -1.8383  0.5180 -1.5176
  197SOL    HW2  591   0.236   0.685   2.465 -2.8845  4.6797 -1.2897
  198SOL     OW  592   1.612   0.847   0.257 -0.6248 -0.4611 -0.5215
  198SOL    HW1  593   1.566   0.759   0.273  2.0095 -0.4903  1.0286
  198SOL    HW2  594   1.540   0.922   0.244  2.1063  0.2061  0.7236
  199SOL     OW  595   2.606   0.640   2.109 -0.0314  0.2726 -0.1783
  199SOL    HW1  596   2.591   0.695   2.194  3.2855  0.5125 -0.9478
  199SOL    HW2  597   2.560   0.685   2.029  1.7273  1.3638 -0.0310
  200SOL     OW  598   2.434   2.722   2.651  0.2632 -0.4623  0.2787
  200SOL    HW1  599   2.440   2.714   2.753  0.1605 -1.6843 -0.4702
  200SOL    HW2  600   2.511   2.680   2.598 -0.6309  1.3083 -1.1164
  201SOL     OW  601   2.380   0.219   1.253 -0.3975 -0.1807 -0.0130
  201SOL    HW1  602   2.335   0.140   1.295  1.1265  2.1936  1.5566
  201SOL    HW2  603   2.381   0.208   1.151 -1.1047 -1.7939  0.3239
  202SOL     OW  604   0.071   2.870   0.122  0.2747  0.2040  0.2208
  202SOL    HW1  605   3.091   2.894   0.156 -0.2711  0.7266 -1.6825
  202SOL    HW2  606   0.147   2.903   0.188  1.7202  0.1470  1.7533
  203SOL     OW  607   1.121   2.177   2.805 -0.0408  0.0788  0.3218
  203SOL    HW1  608   1.027   2.165   2.839  0.4807  1.2014  0.5206
  203SOL    HW2  609   1.145   2.117   2.724  2.6494 -1.1260 -2.0300
  204SOL     OW  610   0.646   1.950   2.440  0.5188 -0.1458 -0.4619
  204SOL    HW1  611   0.635   2.051   2.433 -2.3291 -1.9766 -0.2772
  204SOL    HW2  612   0.718   1.933   2.508 -0.4370  0.4539  1.2476
  205SOL     OW  613   0.943   1.021   1.073  0.5366  0.5214  0.6278
  205SOL    HW1  614   0.882   0.948   1.102  1.1487 -0.7368  1.5913
  205SOL    HW2  615   1.041   0.992   1.076 -0.6396  1.2498  0.9659
  206SOL     OW  616   0.049   0.746   2.656 -0.1220 -0.0454  0.1490
  206SOL    HW1  617   3.093   0.803   2.610  0.8180 -3.0070 -1.6971
  206SOL    HW2  618   0.137   0.765   2.609  0.6730  0.7150  0.0847
  207SOL     OW  619   1.755   2.407   1.920 -0.1662  0.0767 -0.0511
  207SOL    HW1  620   1.810   2.488   1.930 -1.2079 -0.8919 -0.8476
  207SOL    HW2  621   1.662   2.429   1.887  0.9843 -2.2931  1.4159
  208SOL     OW  622   0.681   2.816   1.258  0.1579 -0.0966 -0.0287
  208SOL    HW1  623   0.631   2.727   1.262  1.2221 -1.1277  1.3714
  208SOL    HW2  624   0.641   2.892   1.308 -0.4088 -1.2848 -0.0533
  209SOL     OW  625   1.504   1.302   0.129  0.0875  1.0513 -0.2412
  209SOL    HW1  626   1.450   1.378   0.166  1.1075 -2.0230 -1.3478
  209SOL    HW2  627   1.602   1.309   0.153  1.4868  0.2764 -0.1252
  210SOL     OW  628   2.357   0.680   0.693 -0.3340 -0.1883 -0.1653
  210SOL    HW1  629   2.263   0.722   0.700 -0.4797 -1.4469 -1.9954
  210SOL    HW2  630   2.350   0.579   0.703  2.0406 -1.6405  0.0208
  211SOL     OW  631   1.546   2.708   0.378  0.2426 -0.5120 -0.1801
  211SOL    HW1  632   1.467   2.695   0.321  2.0681  0.3751  2.2646
  211SOL    HW2  633   1.590   2.798   0.347  0.3550  3.4776 -2.4960
  212SOL     OW  634   2.109   2.249   0.731  0.9593  0.6991 -0.3958
  212SOL    HW1  635   2.179   2.306   0.774 -2.5701 -2.5025  1.2721
  212SOL    HW2  636   2.018   2.296   0.743 -0.3424 -0.1310  0.9801
  213SOL     OW  637   1.814   0.671   2.775  0.3127 -0.3749  0.1761
  213SOL    HW1  638   1.904   0.704   2.803 -2.0137  1.2842 -0.8350
  213SOL    HW2  639   1.820   0.645   2.679  1.1133 -1.7641  0.6686
  214SOL     OW  640   1.068   1.511   1.880 -0.4861  0.1027  0.2034
  214SOL    HW1  641   1.102   1.601   1.850 -0.6298 -0.3173  2.3570
  214SOL    HW2  642   1.096   1.504   1.977 -1.9719  3.2325 -0.2736
  215SOL     OW  643   0.047   1.406   0.692 -0.1811 -0.3222  0.0271
  215SOL    HW1  644   0.130   1.468   0.684 -1.2583  1.9347 -0.5952
  215SOL    HW2  645   3.078   1.465   0.713  1.6094  0.3982  1.8148
  216SOL     OW  646   0.463   2.595   2.443 -0.4346 -0.0994 -0.0627
  216SOL    HW1  647   0.432   2.530   2.371  0.2615 -0.2094 -2.1527
  216SOL    HW2  648   0.563   2.614   2.423  0.0085 -1.1409  0.2124
  217SOL     OW  649   2.693   0.939   1.116 -0.1400  0.2588 -0.3005
  217SOL    HW1  650   2.708   0.910   1.018 -1.2130  1.9675 -0.2857
  217SOL    HW2  651   2.716   1.035   1.133 -0.1781 -2.0192 -2.6365
  218SOL     OW  652   1.078   2.061   2.041 -0.1911  0.0745  0.0810
  218SOL    HW1  653   1.089   2.080   1.940  1.3024 -1.1708 -1.8052
  218SOL    HW2  654   1.124   1.971   2.059  0.0493  1.8880 -0.4221
  219SOL     OW  655   2.127   1.417   0.356  1.0051 -0.4033 -0.1949
  219SOL    HW1  656   2.107   1.428   0.256  0.3318  1.4147  0.9581
  219SOL    HW2  657   2.048   1.379   0.408  0.3058  0.7626 -0.3727
  220SOL     OW  658   2.103   1.029   0.414 -0.3897 -0.1795 -0.4157
  220SOL    HW1  659   2.195   1.074   0.428  3.0055  0.1885  1.9573
  220SOL    HW2  660   2.102   0.929   0.432 -1.2625 -1.3933 -0.9853
  221SOL     OW  661   2.879   0.524   0.283  0.2849 -0.4379 -0.0844
  221SOL    HW1  662   2.970   0.513   0.244 -5.1324  1.9564  1.0580
  221SOL    HW2  663   2.815   0.583   0.226 -1.8237 -0.1795 -0.5429
  222SOL     OW  664   1.431   1.372   0.441 -0.3141 -0.1250 -0.4741
  222SOL    HW1  665   1.387   1.430   0.513 -0.0156  3.0394 -0.3536
  222SOL    HW2  666   1.370   1.294   0.436 -0.0606  1.5866 -0.5495
  223SOL     OW  667   0.853   0.189   3.000  0.1674  0.0640 -0.0599
  223SOL    HW1  668   0.797   0.106   3.006 -1.7124  1.9762  1.7848
  223SOL    HW2  669   0.903   0.200   2.910 -0.1271 -0.2892 -0.7548
  224SOL     OW  670   1.230   0.186   1.334  0.1293 -0.2952  0.0719
  224SOL    HW1  671   1.246   0.231   1.423 -0.3712 -2.0781 -2.8039
  224SOL    HW2  672   1.305   0.129   1.298 -1.9248  1.7021 -2.6216
  225SOL     OW  673   0.202   2.432   1.641  0.4128 -1.1494 -0.0494
  225SOL    HW1  674   0.202   2.332   1.674 -2.6520 -1.1090 -0.7457
  225SOL    HW2  675   0.108   2.461   1.613 -0.7588  1.7372 -1.7021
  226SOL     OW  676   0.996   1.568   0.345 -0.1046 -0.0168  0.2211
  226SOL    HW1  677   0.979   1.559   0.446  0.8565 -2.0339 -2.2759
  226SOL    HW2  678   1.034   1.662   0.324  0.8605 -0.8894  2.3747
  227SOL     OW  679   0.601   1.541   0.908  0.0894 -1.0239 -0.2835
  227SOL    HW1  680   0.561   1.637   0.920  1.2617  3.3161  1.0074
  227SOL    HW2  681   0.580   1.480   0.987  1.2576  1.8643 -1.0532
  228SOL     OW  682   0.179   1.804   0.742  0.3694 -0.0473  0.5631
  228SOL    HW1  683   0.244   1.738   0.712 -1.6656 -0.9121 -1.5447
  228SOL    HW2  684   0.087   1.770   0.770  1.6346  2.1654 -1.0404
  229SOL     OW  685   2.475   0.189   2.687 -0.1720  0.2583 -0.1117
  229SOL    HW1  686   2.380   0.206   2.675  3.6436 -1.3419  0.0178
  229SOL    HW2  687   2.498   0.099   2.727 -0.2531 -1.9822 -0.7965
  230SOL     OW  688   1.703   1.112   0.864 -0.7716  0.0074 -0.1429
  230SOL    HW1  689   1.781   1.124   0.930 -1.3069  0.0260 -0.6623
  230SOL    HW2  690   1.666   1.208   0.842 -0.6426  1.6736 -2.7080
  231SOL     OW  691   1.291   1.422   2.542 -0.3893  0.0089  0.0972
  231SOL    HW1  692   1.334   1.491   2.483 -0.5992 -2.3960  0.2358
  231SOL    HW2  693   1.332   1.333   2.517  4.2669 -2.3605  0.4808
  232SOL     OW  694   2.454   2.449   0.632  0.6444 -0.0913 -0.1712
  232SOL    HW1  695   2.543   2.414   0.668  0.5671  1.4077  0.1065
  232SOL    HW2  696   2.403   2.482   0.714  1.0494 -1.4678  0.3330
  233SOL     OW  697   0.612   2.425   0.885 -0.1966 -0.3464  0.2938
  233SOL    HW1  698   0.686   2.477   0.841  0.5862 -1.3605  1.7519
  233SOL    HW2  699   0.549   2.394   0.813 -1.2682 -0.8897  0.2291
  234SOL     OW  700   0.554   0.534   2.761 -0.0826  0.0665 -0.6131
  234SOL    HW1  701   0.543   0.619   2.712  0.7912  3.0609  0.2596
  234SOL    HW2  702   0.546   0.552   2.864  0.0388  1.7596  4.2925
  235SOL     OW  703   2.699   0.742   2.381 -0.6613  0.4135  0.2606
  235SOL    HW1  704   2.728   0.695   2.466  2.3326 -0.5777 -1.1452
  235SOL    HW2  705   2.780   0.765   2.318 -0.7552  0.4193 -1.0088
  236SOL     OW  706   1.670   2.857   1.427 -0.1111  0.1636  0.3878
  236SOL    HW1  707   1.652   2.806   1.343  1.5187  1.2259  1.9601
  236SOL    HW2  708   1.704   2.793   1.495 -0.6139  0.3054 -0.8768
  237SOL     OW  709   1.000   1.629   2.362 -0.5240 -0.2775 -0.3430
  237SOL    HW1  710   0.920   1.674   2.326  0.2568 -0.1908 -0.7378
  237SOL    HW2  711   0.985   1.584   2.455  0.0880  0.4794  1.0513
  238SOL     OW  712   1.067   0.164   2.199 -0.5077  0.6497 -0.3139
  238SOL    HW1  713   1.109   0.148   2.292 -0.1084  0.1099  1.3733
  238SOL    HW2  714   0.994   0.094   2.181  0.9722 -0.7594 -0.3002
  239SOL     OW  715   0.406   2.264   2.126 -0.5269 -0.4827  0.4796
  239SOL    HW1  716   0.497   2.275   2.087 -2.1615  2.9004  0.9598
  239SOL    HW2  717   0.342   2.329   2.081 -0.1928 -1.8737  0.1075
  240SOL     OW  718   2.701   2.831   0.550  0.2203  0.2404  0.0720
  240SOL    HW1  719   2.648   2.758   0.501 -1.2823  1.4584  1.3934
  240SOL    HW2  720   2.773   2.789   0.611  1.1325  2.6897  0.4914
  241SOL     OW  721   2.633   1.397   0.844 -0.1524 -0.0756  0.4237
  241SOL    HW1  722   2.556   1.408   0.778  0.9090 -1.4213  1.5684
  241SOL    HW2  723   2.594   1.428   0.936 -1.2981 -0.5133  1.3566
  242SOL     OW  724   2.064   2.469   2.055  0.3757 -0.2463 -0.0513
  242SOL    HW1  725   2.124   2.446   1.976  0.1255  1.4674  0.0775
  242SOL    HW2  726   2.003   2.546   2.033  1.8078 -1.6377 -0.9007
  243SOL     OW  727   0.736   2.634   1.828 -0.1241 -0.3326 -0.4863
  243SOL    HW1  728   0.673   2.567   1.871  2.3279  1.0613  1.2680
  243SOL    HW2  729   0.834   2.605   1.849  2.1402  1.3279 -0.3241
  244SOL     OW  730   2.113   0.718   2.539 -0.3655 -0.3072  0.1345
  244SOL    HW1  731   2.015   0.697   2.525 -0.8317 -1.5382 -2.2169
  244SOL    HW2  732   2.176   0.656   2.483 -0.4094 -3.0601  0.2505
  245SOL     OW  733   1.328   0.489   1.017  1.0345 -0.1537 -0.2213
  245SOL    HW1  734   1.293   0.449   0.929 -2.6360  0.4413 -2.5492
  245SOL    HW2  735   1.265   0.554   1.062  1.0675 -0.1917 -0.4782
  246SOL     OW  736   1.892   2.613   0.010  0.5044  0.1460 -0.3416
  246SOL    HW1  737   1.952   2.654   3.049 -1.4007 -1.1287  0.9748
  246SOL    HW2  738   1.796   2.599   3.083 -3.3832 -0.7207  1.0679
  247SOL     OW  739   1.120   0.626   2.434 -0.1236 -0.2890  0.2041
  247SOL    HW1  740   1.102   0.580   2.522  1.2302  0.0478  1.4618
  247SOL    HW2  741   1.175   0.711   2.447 -0.5517  0.8854 -2.6646
  248SOL     OW  742   0.241   2.155   1.703 -0.2569 -0.0328 -0.3949
  248SOL    HW1  743   0.280   2.120   1.613  0.0839 -1.4501 -3.4735
  248SOL    HW2  744   0.295   2.127   1.787 -1.4766 -2.3577  1.8001
  249SOL     OW  745   2.553   0.530   0.052 -0.4008  0.1609  0.0810
  249SOL    HW1  746   2.579   0.461   3.085 -1.2015  0.6512  0.4201
  249SOL    HW2  747   2.463   0.567   0.035  1.0835 -1.7992  0.4311
  250SOL     OW  748   2.878   0.051   2.657 -0.1399 -0.1157  0.0177
  250SOL    HW1  749   2.972   0.046   2.695 -1.9799 -1.5659 -1.0067
  250SOL    HW2  750   2.866   3.080   2.598 -0.8604  1.0359  0.8718
  251SOL     OW  751   1.341   0.602   2.959  0.0731 -0.3721 -0.1925
  251SOL    HW1  752   1.307   0.668   3.035 -0.1760  1.6040  1.0405
  251SOL    HW2  753   1.445   0.597   2.966 -1.5447  1.6247 -0.6340
  252SOL     OW  754   1.391   2.055   1.867 -0.3309 -0.2266  0.0923
  252SOL    HW1  755   1.304   2.075   1.816 -0.4352 -1.0569  0.6212
  252SOL    HW2  756   1.375   2.083   1.961  1.1095 -0.5714 -3.7747
  253SOL     OW  757   2.387   2.558   1.136  0.0500  0.3145  0.1872
  253SOL    HW1  758   2.459   2.594   1.199 -1.6505 -0.8072  0.4196
  253SOL    HW2  759   2.415   2.470   1.091 -0.3837  1.3719 -2.2020
  254SOL     OW  760   2.164   1.347   0.713 -0.0926  0.1282 -0.0264
  254SOL    HW1  761   2.102   1.340   0.633  0.6723 -0.2019  2.3639
  254SOL    HW2  762   2.129   1.311   0.800  3.2048  1.3869 -0.7423
  255SOL     OW  763   1.418   0.025   1.248  0.6766  0.0501  0.6983
  255SOL    HW1  764   1.365   3.069   1.184 -4.2520 -2.8678 -3.3564
  255SOL    HW2  765   1.459   3.095   1.329 -2.0361  0.8545  0.7811
  256SOL     OW  766   1.851   2.390   1.427 -0.0304  0.1675  0.4735
  256SOL    HW1  767   1.911   2.305   1.434 -0.6492  2.1264 -1.3259
  256SOL    HW2  768   1.756   2.367   1.387 -1.4004 -1.3953 -1.3325
  257SOL     OW  769   0.751   2.598   2.523  0.7889 -0.4372  0.6602
  257SOL    HW1  770   0.806   2.677   2.489 -0.3515 -1.2984 -0.4634
  257SOL    HW2  771   0.696   2.624   2.604  0.9642  1.3503 -1.0227
  258SOL     OW  772   0.813   2.554   0.574  0.1350 -0.1382 -0.1244
  258SOL    HW1  773   0.899   2.566   0.521  0.4620  2.3611  0.5755
  258SOL    HW2  774   0.819   2.584   0.675 -1.8986 -0.9334  0.3409
  259SOL     OW  775   1.598   0.207   2.730  0.4426 -0.5275 -0.1234
  259SOL    HW1  776   1.639   0.168   2.812  0.7339 -0.6116 -2.2054
  259SOL    HW2  777   1.571   0.304   2.751  0.1945  0.7740  0.8821
  260SOL     OW  778   2.748   0.573   1.367  0.8969  0.0805 -0.1356
  260SOL    HW1  779   2.713   0.477   1.352 -0.5177  0.4394 -2.1790
  260SOL    HW2  780   2.716   0.599   1.460  1.6146  0.9503  1.0271
  261SOL     OW  781   0.789   0.412   2.597 -0.1584  0.4991  0.1366
  261SOL    HW1  782   0.704   0.458   2.626 -3.1458 -1.5449  2.4125
  261SOL    HW2  783   0.822   0.435   2.502  1.8918 -0.8017 -3.5471
  262SOL     OW  784   1.466   2.365   2.263  0.3214 -0.1166 -0.2198
  262SOL    HW1  785   1.412   2.389   2.179  1.1250  0.7896 -0.0646
  262SOL    HW2  786   1.564   2.388   2.245 -0.8885 -1.1311  2.2260
  263SOL     OW  787   0.470   1.938   2.861  0.0603  0.3488 -0.2756
  263SOL    HW1  788   0.517   2.007   2.922 -1.7583 -0.1280 -0.7965
  263SOL    HW2  789   0.516   1.847   2.871 -2.1977  0.5104 -0.4048
  264SOL     OW  790   1.084   1.631   0.934 -0.5936  0.1071 -0.3356
  264SOL    HW1  791   1.005   1.626   0.868  0.8677  0.5614  2.2648
  264SOL    HW2  792   1.173   1.652   0.888  0.1369  1.7455 -1.4307
  265SOL     OW  793   1.224   2.602   0.503 -0.4115  0.3632  0.0509
  265SOL    HW1  794   1.143   2.556   0.457 -0.4881 -0.4187 -1.2671
  265SOL    HW2  795   1.278   2.540   0.568  1.6195  0.3591 -1.9231
  266SOL     OW  796   1.921   0.652   0.970  0.4710  0.0648  0.1307
  266SOL    HW1  797   1.899   0.614   1.059  0.2546  3.4157  0.8777
  266SOL    HW2  798   1.989   0.723   0.985  1.6393 -1.1865 -0.4841
  267SOL     OW  799   3.095   1.338   2.842  0.0894 -0.0628  0.5522
  267SOL    HW1  800   0.064   1.279   2.816  2.0544  0.3930 -0.3152
  267SOL    HW2  801   3.014   1.321   2.776 -2.8336 -1.5690 -0.4793
  268SOL     OW  802   1.622   2.975   0.266  0.1960 -0.2472  0.6780
  268SOL    HW1  803   1.711   2.993   0.226 -2.5300 -0.8739 -1.4899
  268SOL    HW2  804   1.596   3.048   0.328 -2.6874  1.7684  1.6085
  269SOL     OW  805   2.763   0.853   2.726  0.5075 -0.2540  0.2582
  269SOL    HW1  806   2.742   0.762   2.689  0.1573  1.7683 -2.2334
  269SOL    HW2  807   2.831   0.903   2.661  0.2172  2.0729 -1.7407
  270SOL     OW  808   3.044   1.579   0.196 -0.1200  0.7180  0.5704
  270SOL    HW1  809   2.988   1.495   0.183  1.2364 -1.4948 -1.5480
  270SOL    HW2  810   0.024   1.560   0.159  0.8857 -0.2415 -1.9578
  271SOL     OW  811   2.707   1.240   2.482  0.6060  0.0688  0.1902
  271SOL    HW1  812   2.635   1.280   2.544 -0.6855  1.8140  2.3026
  271SOL    HW2  813   2.675   1.145   2.457 -2.2807 -0.1153  2.9889
  272SOL     OW  814   2.894   2.501   2.407  0.1779  0.4994  0.2028
  272SOL    HW1  815   2.980   2.468   2.457 -0.0226 -1.3245 -1.2605
  272SOL    HW2  816   2.873   2.431   2.336  4.0927 -1.7682 -0.8129
  273SOL     OW  817   0.228   2.729   0.893  0.2031 -0.0414 -0.7974
  273SOL    HW1  818   0.197   2.829   0.895  0.6739  2.8280 -0.1335
  273SOL    HW2  819   0.257   2.702   0.800 -0.8032 -1.2644  0.5445
  274SOL     OW  820   0.986   2.183   0.802 -1.0650 -0.7449  0.0094
  274SOL    HW1  821   1.041   2.241   0.740 -1.7237 -0.6607 -0.1777
  274SOL    HW2  822   0.975   2.232   0.896 -2.0595  3.6417  3.2151
  275SOL     OW  823   2.373   1.504   0.411  0.5256 -0.1109  0.3240
  275SOL    HW1  824   2.272   1.483   0.404  0.4056 -1.2288 -0.0490
  275SOL    HW2  825   2.424   1.483   0.328 -2.1688 -0.5375  5.1732
  276SOL     OW  826   2.673   1.527   1.284  0.0531  0.2796 -0.0828
  276SOL    HW1  827   2.728   1.476   1.358  0.6019 -0.3008  1.2963
  276SOL    HW2  828   2.733   1.594   1.241 -0.8002 -3.4461  1.3336
  277SOL     OW  829   2.389   3.069   0.853  0.3524  0.1025  0.3236
  277SOL    HW1  830   2.341   2.989   0.887  2.5695  0.3087 -5.2314
  277SOL    HW2  831   2.384   0.034   0.920 -0.7758  0.0224  0.5202
  278SOL     OW  832   1.583   0.263   2.471 -0.0517  0.6675  0.1723
  278SOL    HW1  833   1.537   0.355   2.469  0.6911 -0.6481 -1.5407
  278SOL    HW2  834   1.587   0.231   2.570  0.4828 -0.9127  2.3606
  279SOL     OW  835   1.379   2.672   1.321 -0.3840  0.0805  0.2518
  279SOL    HW1  836   1.460   2.701   1.276 -0.9843 -0.5088 -0.4940
  279SOL    HW2  837   1.321   2.621   1.251 -1.7294  1.2981 -0.5188
  280SOL     OW  838   0.977   1.074   0.713  0.2141  0.0585 -0.0371
  280SOL    HW1  839   0.936   1.153   0.666 -2.7176 -0.8948 -1.8594
  280SOL    HW2  840   1.076   1.093   0.730 -2.3778 -1.4327 -1.1750
  281SOL     OW  841   2.520   1.390   2.631  0.1257 -0.2271 -0.8673
  281SOL    HW1  842   2.550   1.478   2.673 -1.7525 -0.0538  2.4632
  281SOL    HW2  843   2.458   1.402   2.556  0.3828 -1.7030  6.1473
  282SOL     OW  844   2.881   1.321   0.160 -0.3985 -0.0241  0.3881
  282SOL    HW1  845   2.793   1.335   0.214 -0.7615  4.4759 -2.4477
  282SOL    HW2  846   2.920   1.230   0.187 -0.4502  0.4315 -3.7990
  283SOL     OW  847   1.837   2.685   2.556  0.0086  0.1577  0.6654
  283SOL    HW1  848   1.867   2.665   2.463  0.3748  0.0795 -0.0118
  283SOL    HW2  849   1.792   2.609   2.603  1.2649  0.4430  0.3672
  284SOL     OW  850   0.663   0.000   3.083  0.1953  0.5844  0.1230
  284SOL    HW1  851   0.643   0.033   0.065 -1.1005 -1.3370  1.3090
  284SOL    HW2  852   0.608   3.032   3.060  1.9151  1.4135  0.2495
  285SOL     OW  853   2.228   1.695   2.518 -0.2325 -0.1664  0.0434
  285SOL    HW1  854   2.224   1.697   2.622  0.9898 -0.8350 -1.5674
  285SOL    HW2  855   2.186   1.778   2.471 -2.3356  3.0841 -3.0428
  286SOL     OW  856   1.328   2.069   0.811 -0.2692 -0.4579  0.2966
  286SOL    HW1  857   1.289   2.086   0.902 -1.0701 -0.2111 -0.7390
  286SOL    HW2  858   1.432   2.064   0.814 -0.6699  1.2407  0.2302
  287SOL     OW  859   1.726   0.319   1.188  0.0130  0.2048 -0.7504
  287SOL    HW1  860   1.711   0.291   1.286 -2.3148 -0.4493  2.6284
  287SOL    HW2  861   1.828   0.328   1.165  1.4174 -0.7832  1.2480
  288SOL     OW  862   0.985   2.749   2.402 -0.1332 -0.5112 -0.0893
  288SOL    HW1  863   1.077   2.758   2.448 -1.0995 -1.4346  0.6777
  288SOL    HW2  864   0.986   2.678   2.333 -0.6586 -1.4979  1.4286
  289SOL     OW  865   3.091   1.171   0.515  0.8166 -0.7789 -0.6541
  289SOL    HW1  866   3.083   1.272   0.538  2.4414  1.5669  1.7975
  289SOL    HW2  867   3.005   1.115   0.532  1.4092 -3.9999  0.0639
  290SOL     OW  868   1.248   2.272   1.206 -0.2592 -0.2792  0.0862
  290SOL    HW1  869   1.328   2.239   1.260  2.9310  1.1252  3.7183
  290SOL    HW2  870   1.209   2.204   1.147 -0.2623  0.1924  0.0174
  291SOL     OW  871   1.806   2.719   0.724 -0.3924 -0.1965 -0.2262
  291SOL    HW1  872   1.855   2.809   0.713  2.1612  0.6207 -0.8725
  291SOL    HW2  873   1.808   2.660   0.639 -0.3571 -2.3596  1.1156
  292SOL     OW  874   0.345   0.180   2.015  0.2690 -0.0804  0.5634
  292SOL    HW1  875   0.363   0.142   2.108 -1.9460 -5.3470 -0.9128
  292SOL    HW2  876   0.325   0.108   1.951 -0.9330  0.4307  0.9784
  293SOL     OW  877   2.422   1.917   0.872 -0.3560 -0.2261 -0.1836
  293SOL    HW1  878   2.397   1.820   0.906  1.2085 -0.6511 -1.5772
  293SOL    HW2  879   2.449   1.982   0.948 -1.4163 -0.6532 -1.3201
  294SOL     OW  880   0.892   3.044   2.137 -0.1167  0.0632  1.0248
  294SOL    HW1  881   0.794   3.067   2.105 -0.6709  2.0312 -1.4574
  294SOL    HW2  882   0.913   2.941   2.113  1.0512 -5.7609 -1.9147
  295SOL     OW  883   1.314   1.327   1.280 -0.2061  0.6214 -0.6647
  295SOL    HW1  884   1.398   1.268   1.266 -1.8109  1.3786  1.6714
  295SOL    HW2  885   1.252   1.281   1.352  1.7371 -2.8703 -2.0068
  296SOL     OW  886   2.238   1.999   0.656 -0.1174  0.1555 -0.0424
  296SOL    HW1  887   2.303   1.972   0.732  1.2588 -0.5497  0.0893
  296SOL    HW2  888   2.177   2.069   0.696  2.4938 -3.6927  2.2866
  297SOL     OW  889   2.253   0.061   2.787  0.1618 -0.6324  0.6930
  297SOL    HW1  890   2.338   0.005   2.787  0.4708 -0.6169  1.3526
  297SOL    HW2  891   2.233   0.085   2.888 -1.8862 -0.2356 -0.0130
  298SOL     OW  892   1.205   0.134   2.434 -0.1756 -0.3547 -0.3484
  298SOL    HW1  893   1.141   0.100   2.506 -0.5012 -2.2753 -0.5340
  298SOL    HW2  894   1.286   0.072   2.434  1.5305 -2.2143  2.2597
  299SOL     OW  895   1.221   2.883   1.943 -0.2244  0.2014 -0.1048
  299SOL    HW1  896   1.165   2.928   1.871 -0.5798  2.1429 -0.5915
  299SOL    HW2  897   1.215   2.935   2.030  0.0313  0.8593 -2.0980
  300SOL     OW  898   2.523   0.235   1.775  0.4616 -0.0147  0.3316
  300SOL    HW1  899   2.592   0.290   1.829  0.7251 -0.5210  2.0021
  300SOL    HW2  900   2.493   0.287   1.694  3.1889 -1.8063  0.3334
  301SOL     OW  901   2.043   0.397   1.965  0.5276  0.1872  0.8154
  301SOL    HW1  902   2.136   0.389   2.002  0.3166 -0.5701  1.0647
  301SOL    HW2  903   1.998   0.309   1.943 -1.9012 -0.8317  0.5287
  302SOL     OW  904   0.339   2.525   2.923 -0.0085  0.2092 -0.0806
  302SOL    HW1  905   0.310   2.425   2.907 -2.1836 -4.8587 -0.0443
  302SOL    HW2  906   0.266   2.574   2.978 -1.1537  2.1165  0.3535
  303SOL     OW  907   1.799   2.068   1.325 -0.5338 -0.0740  0.3121
  303SOL    HW1  908   1.711   2.055   1.375  0.0472 -1.7682 -0.6661
  303SOL    HW2  909   1.876   2.067   1.389  1.5427 -0.0477 -1.1311
  304SOL     OW  910   0.007   0.613   1.094  0.3951 -0.3731  0.0664
  304SOL    HW1  911   3.054   0.652   1.163 -2.4225 -1.3789 -1.4681
  304SOL    HW2  912   0.041   0.685   1.026  2.8777 -1.4150 -1.5382
  305SOL     OW  913   0.761   0.873   0.828  0.6579 -0.3873 -0.0558
  305SOL    HW1  914   0.689   0.874   0.904 -1.8529 -0.5924  0.2579
  305SOL    HW2  915   0.813   0.960   0.825 -0.0669 -0.6408 -0.6631
  306SOL     OW  916   0.329   0.998   2.968  0.1240 -0.4805 -0.0305
  306SOL    HW1  917   0.401   0.981   2.898  2.8235 -4.5558 -0.3108
  306SOL    HW2  918   0.285   0.908   2.996 -1.8917 -2.3298 -0.3887
  307SOL     OW  919   1.200   0.272   1.583 -0.0814 -0.0635 -0.0520
  307SOL    HW1  920   1.265   0.339   1.621 -0.3702 -3.9949 -1.4252
  307SOL    HW2  921   1.201   0.187   1.641  3.0634  0.1224  0.3176
  308SOL     OW  922   0.342   0.804   0.993  0.0255  0.2165 -0.0636
  308SOL    HW1  923   0.320   0.780   0.898  1.1524  1.5719  2.1085
  308SOL    HW2  924   0.256   0.836   1.041  0.8516  0.7258  0.1696
  309SOL     OW  925   2.402   0.901   0.836  0.3317  0.4147 -0.5286
  309SOL    HW1  926   2.378   0.816   0.791 -0.4776  2.4826  0.8204
  309SOL    HW2  927   2.415   0.966   0.761 -1.4111  0.4784  2.2112
  310SOL     OW  928   0.956   1.105   2.894  0.1300  0.2207 -0.0562
  310SOL    HW1  929   1.048   1.056   2.907  0.5706 -0.0041  0.6668
  310SOL    HW2  930   0.889   1.071   2.962  2.6575  1.7625  3.0893
  311SOL     OW  931   2.548   2.778   2.236 -0.2148  0.1546 -0.1292
  311SOL    HW1  932   2.574   2.869   2.196  3.1377  1.6921  0.1203
  311SOL    HW2  933   2.454   2.769   2.268 -0.6309 -0.7149 -1.0455
  312SOL     OW  934   1.962   2.099   0.031 -0.1290 -0.2366 -0.7836
  312SOL    HW1  935   2.032   2.093   3.069  1.3891  1.4181  0.2620
  312SOL    HW2  936   1.967   2.192   0.078  2.2533  3.1058 -1.4710
  313SOL     OW  937   0.264   0.114   0.128  0.4306  0.6330  0.0752
  313SOL    HW1  938   0.234   0.199   0.179  0.2435 -0.5746  2.1877
  313SOL    HW2  939   0.347   0.126   0.069 -0.2441 -1.4508  2.4843
  314SOL     OW  940   2.624   1.321   2.866 -0.0259  0.1587  0.1410
  314SOL    HW1  941   2.644   1.409   2.910 -1.1621  3.1791  0.1525
  314SOL    HW2  942   2.592   1.342   2.772  1.7818 -0.5356  0.1585
  315SOL     OW  943   1.637   0.552   2.042  0.7578  0.0205 -0.8087
  315SOL    HW1  944   1.555   0.501   2.071  0.7017  3.0545 -0.3847
  315SOL    HW2  945   1.634   0.642   2.089  0.3455  0.8758  1.8160
  316SOL     OW  946   2.848   1.038   0.599  0.1493 -0.4201  0.4266
  316SOL    HW1  947   2.881   1.016   0.693 -1.2582  1.1595  0.2383
  316SOL    HW2  948   2.753   0.998   0.583 -1.4687 -0.1806  0.3611
  317SOL     OW  949   0.863   2.797   0.060 -0.4496  0.5524 -0.1949
  317SOL    HW1  950   0.837   2.697   0.072 -0.8599 -1.6352  3.0289
  317SOL    HW2  951   0.845   2.834   3.081 -1.2596 -0.9764  3.8785
  318SOL     OW  952   2.225   2.847   1.279 -0.0243 -0.0546  0.2042
  318SOL    HW1  953   2.166   2.764   1.275 -1.3061 -1.4306 -3.1107
  318SOL    HW2  954   2.288   2.843   1.360 -1.0052  0.3181  0.1646
  319SOL     OW  955   1.077   1.365   2.882 -0.5865 -0.0803 -0.2037
  319SOL    HW1  956   1.083   1.380   2.984  0.1022 -1.2330 -1.7461
  319SOL    HW2  957   1.028   1.281   2.858  1.3459  2.0316 -1.1457
  320SOL     OW  958   0.492   1.765   1.077  0.0177  0.2246  0.6458
  320SOL    HW1  959   0.396   1.801   1.071  0.5778 -0.6675 -0.3518
  320SOL    HW2  960   0.553   1.834   1.034  1.8118 -0.3965 -0.2834
  321SOL     OW  961   1.922   2.663   1.909  0.2945  0.0673 -0.0563
  321SOL    HW1  962   2.003   2.696   1.857 -0.5202  0.8970 -0.3261
  321SOL    HW2  963   1.845   2.733   1.906 -2.3437  1.5031 -2.6877
  322SOL     OW  964   2.409   2.052   2.443  0.0722 -0.4059 -0.1089
  322SOL    HW1  965   2.447   2.144   2.411  1.7659  1.8947  0.4038
  322SOL    HW2  966   2.460   1.969   2.406  1.0243 -3.9972  0.3025
  323SOL     OW  967   2.245   0.178   0.611 -0.2001  0.0061 -0.5422
  323SOL    HW1  968   2.286   0.102   0.661  3.3299  1.6413 -1.0812
  323SOL    HW2  969   2.301   0.213   0.534  1.1031  0.1629  1.7700
  324SOL     OW  970   2.918   2.770   2.332  0.4358  1.0656 -0.4429
  324SOL    HW1  971   3.015   2.769   2.343 -1.0202  4.3090 -1.5982
  324SOL    HW2  972   2.881   2.673   2.345 -1.9538  1.4043 -2.7973
  325SOL     OW  973   1.019   0.510   2.776 -0.3672 -0.0895  0.5136
  325SOL    HW1  974   1.100   0.456   2.733  1.9897  0.5848 -3.5314
  325SOL    HW2  975   0.931   0.493   2.730  4.5430 -0.9096  0.9781
  326SOL     OW  976   2.514   2.487   1.518 -0.1692 -0.0651  0.0463
  326SOL    HW1  977   2.425   2.448   1.481  1.6045 -0.1770 -0.8359
  326SOL    HW2  978   2.575   2.420   1.571  0.7803 -1.8751  0.5123
  327SOL     OW  979   2.393   3.010   0.088 -0.0889 -0.4824 -0.1572
  327SOL    HW1  980   2.401   3.033   0.189 -1.0050  0.9121  2.0063
  327SOL    HW2  981   2.342   2.923   0.075 -0.6879  2.1615 -2.8419
  328SOL     OW  982   0.491   0.751   1.580  0.0729  0.8294 -0.0929
  328SOL    HW1  983   0.496   0.652   1.600  1.7206 -0.3615  0.0465
  328SOL    HW2  984   0.441   0.801   1.652  1.6864 -0.4914  0.5145
  329SOL     OW  985   2.008   0.771   1.449  0.0474 -0.1631 -0.1781
  329SOL    HW1  986   1.991   0.713   1.535 -2.6073  0.2637  3.5992
  329SOL    HW2  987   2.105   0.756   1.418 -0.4793  1.0089 -2.2420
  330SOL     OW  988   0.503   0.578   0.998  0.3051  0.0673 -0.6139
  330SOL    HW1  989   0.437   0.497   1.009 -2.7205 -2.5521 -2.8053
  330SOL    HW2  990   0.455   0.665   1.010  2.1492 -0.4453  0.7022
  331SOL     OW  991   0.807   1.483   1.932 -0.8584 -0.4912  0.6809
  331SOL    HW1  992   0.904   1.519   1.926  1.0373 -1.2091 -1.3672
  331SOL    HW2  993   0.778   1.482   1.833 -0.6751  0.7380 -0.5006
  332SOL     OW  994   3.067   2.548   1.609 -0.6512 -0.0744 -0.4673
  332SOL    HW1  995   3.089   2.613   1.686  0.0651  1.0911 -0.1186
  332SOL    HW2  996   2.993   2.485   1.637  3.2772  1.7775  0.7691
  333SOL     OW  997   3.064   2.870   1.078 -0.2802 -0.2249  0.5979
  333SOL    HW1  998   3.068   2.881   0.978  0.6080  1.4019 -0.2908
  333SOL    HW2  999   3.056   2.770   1.108 -0.3102  0.0383  1.0657
  334SOL     OW 1000   0.268   1.280   0.446 -0.1003  0.1429 -0.0264
  334SOL    HW1 1001   0.184   1.222   0.448  0.1169  0.0460 -1.8005
  334SOL    HW2 1002   0.242   1.375   0.455 -2.2661 -2.0755  1.8187
  335SOL     OW 1003   0.622   2.586   3.009 -0.8241  0.0254 -0.0468
  335SOL    HW1 1004   0.525   2.564   3.017 -0.4646 -2.7511  1.6117
  335SOL    HW2 1005   0.669   2.564   3.095  1.1657 -4.1806 -1.3180
  336SOL     OW 1006   2.926   2.897   2.079 -0.1651 -0.5082  0.9180
  336SOL    HW1 1007   2.906   2.848   2.165 -0.1585  1.5889 -1.0146
  336SOL    HW2 1008   2.875   2.855   2.003  1.9905 -3.0138  3.3075
  337SOL     OW 1009   1.615   2.014   1.692 -0.5604  0.1512 -0.0988
  337SOL    HW1 1010   1.597   2.042   1.594 -0.4505  1.8024 -0.7122
  337SOL    HW2 1011   1.533   2.019   1.750  0.9604  2.3533 -1.8028
  338SOL     OW 1012   0.925   0.216   2.743 -0.3252  0.2895  0.5382
  338SOL    HW1 1013   0.867   0.282   2.695  0.9684 -0.0540  1.3117
  338SOL    HW2 1014   0.969   0.143   2.689 -0.3162  2.1376 -0.0986
  339SOL     OW 1015   0.505   1.100   2.413 -0.1589 -0.5091  0.0389
  339SOL    HW1 1016   0.528   1.155   2.332  2.1738  0.5170 -1.0183
  339SOL    HW2 1017   0.560   1.012   2.415 -1.1680  1.1970  0.4433
  340SOL     OW 1018   2.126   0.473   0.858  0.2706  0.2932 -0.0050
  340SOL    HW1 1019   2.128   0.381   0.909  0.1892 -4.0313  0.2848
  340SOL    HW2 1020   2.042   0.483   0.802 -1.4628 -1.5325 -0.5514
  341SOL     OW 1021   2.069   1.244   0.946 -0.2002  0.1203 -0.2753
  341SOL    HW1 1022   1.980   1.215   0.989  0.2625  1.6872 -1.0811
  341SOL    HW2 1023   2.139   1.247   1.016 -0.1627  0.1453 -3.0186
  342SOL     OW 1024   2.162   2.383   2.703 -0.0482  0.1165  0.1303
  342SOL    HW1 1025   2.238   2.359   2.768  2.9965 -0.4824  2.8426
  342SOL    HW2 1026   2.071   2.333   2.720  0.4463 -0.2022  0.0025
  343SOL     OW 1027   0.959   2.492   1.566 -0.4042  0.2363  0.3173
  343SOL    HW1 1028   0.954   2.581   1.518 -2.4396  5.0842 -1.7072
  343SOL    HW2 1029   0.868   2.468   1.600  1.2342  1.8372 -1.5230
  344SOL     OW 1030   2.427   2.899   1.498  0.0580  0.0362 -0.3909
  344SOL    HW1 1031   2.421   2.880   1.600 -0.2923  0.5077  4.3760
  344SOL    HW2 1032   2.505   2.962   1.483  0.4657 -1.2257 -0.0162
  345SOL     OW 1033   2.348   2.159   3.053 -0.1129 -0.5234 -0.0932
  345SOL    HW1 1034   2.404   2.105   0.005 -2.7193  0.8140 -2.1126
  345SOL    HW2 1035   2.269   2.109   3.012  0.1292  0.3953  0.7435
  346SOL     OW 1036   1.565   2.306   1.355  0.3121  0.1659  0.3814
  346SOL    HW1 1037   1.590   2.296   1.263  3.7447  1.4133  1.9900
  346SOL    HW2 1038   1.553   2.216   1.403  1.7256 -1.1923  0.7329
  347SOL     OW 1039   1.147   1.815   1.606  0.2768  0.0311 -0.3273
  347SOL    HW1 1040   1.119   1.884   1.539 -1.9304 -1.2579 -0.8574
  347SOL    HW2 1041   1.092   1.735   1.593 -0.5658  1.2228  1.0452
  348SOL     OW 1042   0.303   2.062   1.940  0.5589  0.2442  0.4079
  348SOL    HW1 1043   0.289   1.963   1.962 -0.3509  0.4893 -1.0854
  348SOL    HW2 1044   0.336   2.119   2.018 -0.7597  0.7732  2.1141
  349SOL     OW 1045   1.806   1.614   1.301 -0.5965  0.2584 -0.2971
  349SOL    HW1 1046   1.813   1.555   1.386 -0.6522 -2.3864  0.5994
  349SOL    HW2 1047   1.883   1.682   1.309  1.6073  0.2478  2.0349
  350SOL     OW 1048   2.358   2.215   0.492 -0.1209 -0.1767  0.0041
  350SOL    HW1 1049   2.301   2.151   0.545 -1.3507 -0.5711 -2.6632
  350SOL    HW2 1050   2.375   2.298   0.548 -0.1761 -2.0756 -0.3923
  351SOL     OW 1051   0.778   2.955   1.507  0.4100  0.5654  0.2598
  351SOL    HW1 1052   0.762   2.930   1.603  0.3567 -0.8115  2.3619
  351SOL    HW2 1053   0.850   3.026   1.498  0.7130 -2.2789  1.6390
  352SOL     OW 1054   0.174   1.161   0.807  0.7080 -0.6311  0.2483
  352SOL    HW1 1055   0.178   1.099   0.731  0.2526  1.1413  5.1771
  352SOL    HW2 1056   0.133   1.250   0.776 -2.7851  4.2993 -2.4410
  353SOL     OW 1057   1.231   1.771   2.345 -0.2175  0.0663  0.1738
  353SOL    HW1 1058   1.151   1.711   2.366 -1.4691 -1.8903 -0.2673
  353SOL    HW2 1059   1.317   1.728   2.383 -0.8624 -1.2129 -0.7394
  354SOL     OW 1060   1.750   2.854   1.983 -0.4472 -0.4859  0.2386
  354SOL    HW1 1061   1.756   2.889   2.076  1.6047 -0.7328  0.4397
  354SOL    HW2 1062   1.649   2.865   1.947 -2.8970  3.3048 -0.2987
  355SOL     OW 1063   2.032   1.360   0.079  0.3966  0.5703  0.3375
  355SOL    HW1 1064   2.126   1.364   0.050 -3.2984 -2.4504  3.5064
  355SOL    HW2 1065   1.973   1.315   0.016  1.1563 -0.8719 -1.9022
  356SOL     OW 1066   2.949   1.459   1.421 -0.2454  0.3905 -0.0475
  356SOL    HW1 1067   3.029   1.431   1.477 -0.8013 -2.5020  1.3074
  356SOL    HW2 1068   2.950   1.413   1.332 -0.5063 -0.1048 -0.5752
  357SOL     OW 1069   0.407   2.580   1.518  0.1706  0.6037  0.7098
  357SOL    HW1 1070   0.355   2.646   1.463  0.7712  1.1636 -0.6263
  357SOL    HW2 1071   0.345   2.506   1.552  5.2107  3.4236 -0.6932
  358SOL     OW 1072   2.592   1.777   1.506 -0.1636  0.1084  0.1343
  358SOL    HW1 1073   2.536   1.746   1.586  0.1098 -1.6802  1.6814
  358SOL    HW2 1074   2.654   1.696   1.480  1.5942 -4.0286 -0.2471
  359SOL     OW 1075   2.166   2.646   2.730  0.1138  0.3205 -0.2795
  359SOL    HW1 1076   2.261   2.675   2.708  1.6581 -1.8616 -1.3409
  359SOL    HW2 1077   2.142   2.547   2.703  1.7043 -1.1742  0.2358
  360SOL     OW 1078   1.266   3.000   1.063  0.8372 -0.3406 -0.5310
  360SOL    HW1 1079   1.329   2.970   0.988 -0.1726 -2.8202 -1.8672
  360SOL    HW2 1080   1.189   2.937   1.069  2.3470  4.1093  1.7921
  361SOL     OW 1081   2.174   0.389   0.274 -0.1716 -0.2307 -0.0598
  361SOL    HW1 1082   2.131   0.381   0.363 -0.2934  0.4588 -1.0962
  361SOL    HW2 1083   2.219   0.477   0.255  0.0290 -0.9771  1.7960
  362SOL     OW 1084   1.429   1.068   1.008  0.1128  0.5540  0.6090
  362SOL    HW1 1085   1.500   1.041   0.945  3.4625  1.4445 -2.0399
  362SOL    HW2 1086   1.468   1.097   1.097  0.9795 -1.1429 -3.0219
  363SOL     OW 1087   2.218   1.085   2.340  0.1087 -0.4034  0.7208
  363SOL    HW1 1088   2.255   1.040   2.426 -0.2859 -0.4933  1.7494
  363SOL    HW2 1089   2.137   1.045   2.294  1.3208 -0.4714  0.4572
  364SOL     OW 1090   0.255   0.162   1.094  0.4896 -0.6091 -0.1734
  364SOL    HW1 1091   0.214   0.245   1.138  0.0888  0.6143 -2.0875
  364SOL    HW2 1092   0.195   0.083   1.108 -0.7082 -2.2598  0.6334
  365SOL     OW 1093   0.623   0.125   2.770  0.3600  0.3537  0.1494
  365SOL    HW1 1094   0.633   0.044   2.707 -0.6320 -1.4382 -0.1145
  365SOL    HW2 1095   0.704   0.147   2.824 -2.3177 -0.8883  2.2361
  366SOL     OW 1096   1.914   2.226   2.746  0.6767  0.0384  0.7875
  366SOL    HW1 1097   1.822   2.264   2.768 -0.6189 -0.6315  0.6963
  366SOL    HW2 1098   1.928   2.142   2.795 -3.4042  1.3867 -3.8955
  367SOL     OW 1099   2.886   2.407   0.129 -0.0595  0.1177 -0.7652
  367SOL    HW1 1100   2.809   2.452   0.084 -0.7713 -1.3973 -0.6601
  367SOL    HW2 1101   2.960   2.468   0.136  1.1098 -0.2661 -1.7570
  368SOL     OW 1102   2.746   1.252   1.203 -0.2049 -1.0007  0.1786
  368SOL    HW1 1103   2.660   1.231   1.252  1.3103  1.2173 -0.2591
  368SOL    HW2 1104   2.757   1.351   1.189  0.0979 -0.0173 -1.2313
  369SOL     OW 1105   1.046   0.006   2.622 -0.5699 -0.1144 -0.1799
  369SOL    HW1 1106   0.989   3.075   2.552  0.5607 -1.3613  1.2372
  369SOL    HW2 1107   1.097   3.047   2.678  1.0432 -1.1825  0.8801
  370SOL     OW 1108   2.663   0.354   0.653 -0.0805 -0.7072 -0.0796
  370SOL    HW1 1109   2.715   0.437   0.677 -1.4189 -3.6305 -1.4858
  370SOL    HW2 1110   2.691   0.326   0.561 -0.1941  1.3787 -0.7825
  371SOL     OW 1111   1.605   2.240   1.101 -0.9289  0.0390 -0.4637
  371SOL    HW1 1112   1.696   2.197   1.098 -1.2191  2.7315 -0.3935
  371SOL    HW2 1113   1.609   2.332   1.063  0.2227 -2.2859 -0.0115
  372SOL     OW 1114   2.954   0.917   2.524  0.6090  0.0895  0.2353
  372SOL    HW1 1115   2.963   0.889   2.429 -0.9799 -0.0295  0.1757
  372SOL    HW2 1116   3.032   0.979   2.539 -3.4125 -2.2832  1.7318
  373SOL     OW 1117   2.814   1.699   0.922 -0.2724 -0.3367 -0.1559
  373SOL    HW1 1118   2.805   1.784   0.865 -4.7356  2.1394 -2.0358
  373SOL    HW2 1119   2.816   1.726   1.022 -1.7631 -0.1514  1.6694
  374SOL     OW 1120   0.688   3.016   2.624  0.1301 -0.5142  0.6981
  374SOL    HW1 1121   0.688   2.930   2.671  0.2756 -0.2743 -0.9467
  374SOL    HW2 1122   0.753   3.016   2.545 -2.0619  0.9586 -1.1920
  375SOL     OW 1123   0.028   0.021   3.092  0.3849 -0.0513  0.1722
  375SOL    HW1 1124   0.080   0.080   0.042 -1.8571  0.1216 -0.1464
  375SOL    HW2 1125   0.042   3.028   3.101 -0.1830 -1.1182  1.2165
  376SOL     OW 1126   3.087   1.986   1.635  0.3667  0.2458 -0.0068
  376SOL    HW1 1127   0.039   2.014   1.707  2.5025  2.4014  3.5295
  376SOL    HW2 1128   2.996   1.965   1.676  2.2467 -0.2114 -2.0847
  377SOL     OW 1129   1.749   2.190   2.329 -0.7508  0.2779 -0.0664
  377SOL    HW1 1130   1.685   2.123   2.276 -2.7934  0.4465 -2.8634
  377SOL    HW2 1131   1.763   2.272   2.270  2.8021  0.0193 -1.9514
  378SOL     OW 1132   0.456   0.306   2.670 -0.2954 -0.8196  0.0970
  378SOL    HW1 1133   0.493   0.394   2.705 -0.1730  2.2466  0.8464
  378SOL    HW2 1134   0.508   0.223   2.696  1.1847 -0.4218 -0.1141
  379SOL     OW 1135   0.458   0.662   0.403  0.2278 -0.1955  0.0633
  379SOL    HW1 1136   0.519   0.681   0.481  0.5780  0.6530  0.8832
  379SOL    HW2 1137   0.499   0.624   0.321 -1.0807  0.1620  1.4474
  380SOL     OW 1138   0.301   1.708   1.757 -0.0723  0.3447 -0.1234
  380SOL    HW1 1139   0.334   1.616   1.772 -1.1791  2.5975 -0.8056
  380SOL    HW2 1140   0.285   1.757   1.846  1.3569  3.4441  0.1841
  381SOL     OW 1141   0.362   1.199   1.925 -0.1799  0.0186  0.5370
  381SOL    HW1 1142   0.284   1.159   1.976  0.5844  0.4780 -1.2842
  381SOL    HW2 1143   0.373   1.166   1.832  1.4394  1.9350  0.1301
  382SOL     OW 1144   2.309   1.981   0.370 -0.1313 -0.0638 -0.1928
  382SOL    HW1 1145   2.209   1.978   0.361  0.7605  1.0926  0.4197
  382SOL    HW2 1146   2.347   2.056   0.430  0.4828 -2.1395  1.5161
  383SOL     OW 1147   0.208   1.998   2.780 -0.1084  0.3892  0.2133
  383SOL    HW1 1148   0.138   1.951   2.835  0.2591  0.7718 -1.8501
  383SOL    HW2 1149   0.302   1.966   2.813  0.2413 -1.1864  0.1855
  384SOL     OW 1150   0.867   2.071   2.868  0.6528 -0.0114  0.1319
  384SOL    HW1 1151   0.911   1.993   2.911 -0.8408  0.1826 -1.4646
  384SOL    HW2 1152   0.774   2.088   2.898  2.1737 -1.4825  0.1799
  385SOL     OW 1153   2.596   1.945   0.620 -0.3297  0.0241 -0.5545
  385SOL    HW1 1154   2.546   1.941   0.708  0.0701 -1.4025 -0.1218
  385SOL    HW2 1155   2.555   1.889   0.540 -3.2793  0.1619 -0.9961
  386SOL     OW 1156   2.335   1.348   1.619  0.0255  0.3749 -0.0087
  386SOL    HW1 1157   2.426   1.396   1.638  1.6085  3.1737  2.5609
  386SOL    HW2 1158   2.276   1.360   1.701  2.0464 -0.7397 -0.4736
  387SOL     OW 1159   2.738   1.462   2.151  0.0010 -0.3568  0.0650
  387SOL    HW1 1160   2.813   1.446   2.219  0.7815 -0.4991  0.0043
  387SOL    HW2 1161   2.654   1.504   2.189  2.1737  1.8795  0.7863
  388SOL     OW 1162   0.231   1.802   2.023  0.1353  0.0320  0.3527
  388SOL    HW1 1163   0.309   1.750   2.068  0.9721 -0.4918  0.0508
  388SOL    HW2 1164   0.145   1.753   2.044  1.9033 -0.3734  0.1002
  389SOL     OW 1165   1.792   1.009   1.812  0.3780 -0.0547 -0.0969
  389SOL    HW1 1166   1.842   1.012   1.722  1.4781  0.8263  0.6425
  389SOL    HW2 1167   1.813   1.098   1.859  1.4200  0.0691  1.6023
  390SOL     OW 1168   2.033   3.101   0.522  0.1711 -0.1246  0.1430
  390SOL    HW1 1169   1.976   3.063   0.595  0.5861 -1.8123 -1.8835
  390SOL    HW2 1170   2.075   0.075   0.559 -3.9673  0.2590  2.4103
  391SOL     OW 1171   1.882   1.620   1.035  0.2079 -0.1258 -0.5102
  391SOL    HW1 1172   1.985   1.612   1.043  1.8448 -0.4760 -0.9483
  391SOL    HW2 1173   1.839   1.619   1.129 -0.4546  0.8318 -0.9193
  392SOL     OW 1174   2.787   2.679   0.187 -0.0214 -0.8337  0.0280
  392SOL    HW1 1175   2.728   2.645   0.264 -0.1598  1.3191  1.0057
  392SOL    HW2 1176   2.852   2.752   0.207  3.0869  0.4939  1.2030
  393SOL     OW 1177   1.834   1.959   2.865 -0.2577  0.0074  0.1750
  393SOL    HW1 1178   1.814   1.900   2.942  0.2390 -0.5635 -1.7266
  393SOL    HW2 1179   1.869   1.896   2.790 -0.2939 -0.5563 -1.8686
  394SOL     OW 1180   0.212   2.979   2.597 -0.4380  0.5169  0.3306
  394SOL    HW1 1181   0.123   3.023   2.632 -1.7586 -1.8488 -0.5145
  394SOL    HW2 1182   0.286   2.973   2.664  0.0413 -1.9468 -3.5064
  395SOL     OW 1183   0.442   0.322   0.627 -0.6987 -0.5243 -0.1542
  395SOL    HW1 1184   0.374   0.385   0.591  2.7384 -0.2213  2.6775
  395SOL    HW2 1185   0.511   0.373   0.688  0.7961  3.3382  0.3022
  396SOL     OW 1186   1.763   0.898   0.475 -0.4725  0.0289 -0.1778
  396SOL    HW1 1187   1.717   0.882   0.384 -0.6455 -1.5604  2.5942
  396SOL    HW2 1188   1.842   0.836   0.488 -1.2427 -1.0730  0.9372
  397SOL     OW 1189   0.638   0.674   2.325  0.8583  0.1664  0.3448
  397SOL    HW1 1190   0.550   0.644   2.279  0.2424 -0.2169  0.1733
  397SOL    HW2 1191   0.660   0.771   2.316  2.2779 -1.8826  0.2422
  398SOL     OW 1192   0.818   0.219   0.555 -0.0792  0.1349 -0.5353
  398SOL    HW1 1193   0.844   0.292   0.622 -3.1465 -0.7512 -2.0517
  398SOL    HW2 1194   0.855   0.236   0.461 -0.7238  0.1790  0.0931
  399SOL     OW 1195   2.056   2.950   1.542 -0.2443  0.1101  0.4497
  399SOL    HW1 1196   2.067   2.975   1.641  1.7076 -1.1356 -0.5822
  399SOL    HW2 1197   2.067   2.849   1.534  0.0025 -0.0517 -1.7029
  400SOL     OW 1198   0.846   1.805   2.096  0.0057  0.7423 -0.5391
  400SOL    HW1 1199   0.945   1.813   2.104 -0.2098  1.4396  1.9610
  400SOL    HW2 1200   0.802   1.784   2.190  2.0185 -2.6950  2.4601
  401SOL     OW 1201   0.739   1.151   2.737 -0.7499 -0.3208 -0.1487
  401SOL    HW1 1202   0.818   1.141   2.797 -3.1862  1.6820  0.1109
  401SOL    HW2 1203   0.667   1.088   2.766  3.3733  3.3653 -3.7329
  402SOL     OW 1204   2.949   2.128   0.898  0.0346  0.2251  0.1329
  402SOL    HW1 1205   3.040   2.131   0.856 -2.3121 -0.7387  1.0751
  402SOL    HW2 1206   2.894   2.069   0.839 -0.3023  1.0091  0.8041
  403SOL     OW 1207   0.222   1.023   2.339  0.1973 -0.0064  0.3424
  403SOL    HW1 1208   0.226   1.050   2.239  0.8628  0.7399  0.5299
  403SOL    HW2 1209   0.313   1.045   2.379  3.3513  1.2095 -2.0088
  404SOL     OW 1210   0.277   2.398   1.928  0.6057 -0.1754 -0.4050
  404SOL    HW1 1211   0.246   2.423   1.837 -0.0722  2.0962 -0.1174
  404SOL    HW2 1212   0.366   2.443   1.946 -1.6044 -0.1571 -0.8617
  405SOL     OW 1213   0.082   0.399   1.877 -0.0512 -0.0139 -0.1885
  405SOL    HW1 1214   0.180   0.420   1.910  0.9681  0.9118 -0.0136
  405SOL    HW2 1215   0.025   0.366   1.955  0.8916  0.7146  0.3980
  406SOL     OW 1216   1.458   1.630   2.431  0.0513  0.2005 -0.2974
  406SOL    HW1 1217   1.524   1.694   2.386 -1.4765 -1.9689 -0.5374
  406SOL    HW2 1218   1.510   1.583   2.507  0.0994  2.0421 -1.3634
  407SOL     OW 1219   1.363   1.169   2.468  0.4269  0.4412 -0.3473
  407SOL    HW1 1220   1.298   1.171   2.389  0.3943  0.3709 -0.2112
  407SOL    HW2 1221   1.456   1.157   2.430 -2.0678  0.3961  0.8869
  408SOL     OW 1222   0.886   2.997   2.429  0.0732  0.4159 -0.2892
  408SOL    HW1 1223   0.840   3.040   2.349 -0.0046  1.7250 -2.3062
  408SOL    HW2 1224   0.919   2.903   2.395 -0.1327 -3.0980  0.8995
  409SOL     OW 1225   0.109   2.068   0.740  0.6543 -0.7653  0.3793
  409SOL    HW1 1226   0.091   2.112   0.651  2.5744  0.0880 -0.1670
  409SOL    HW2 1227   0.139   1.972   0.727  2.3479 -2.5112 -1.3410
  410SOL     OW 1228   2.514   1.479   0.173 -0.2619  0.5415  0.4184
  410SOL    HW1 1229   2.573   1.410   0.230 -1.8791 -4.0325  4.8711
  410SOL    HW2 1230   2.560   1.497   0.086  0.0513  1.2860  1.4426
  411SOL     OW 1231   0.091   3.073   1.174 -0.0578  0.5768 -0.4871
  411SOL    HW1 1232   0.120   3.056   1.272  2.2070 -0.5411  2.3055
  411SOL    HW2 1233   0.033   2.993   1.140 -1.7506  1.9273 -1.6761
  412SOL     OW 1234   1.657   0.662   1.354 -0.2773  0.1441  0.0631
  412SOL    HW1 1235   1.586   0.595   1.323 -0.0359  1.0607 -2.3546
  412SOL    HW2 1236   1.661   0.744   1.295  0.8215 -1.7581  1.5631
  413SOL     OW 1237   0.664   0.021   1.976 -0.0371  0.0026 -0.4872
  413SOL    HW1 1238   0.592   3.098   1.911  3.6247  0.7232 -1.6771
  413SOL    HW2 1239   0.654   0.116   2.003 -0.1848 -0.2893 -0.8236
  414SOL     OW 1240   2.852   1.660   2.617  0.8773 -0.2253  0.0469
  414SOL    HW1 1241   2.879   1.572   2.662  1.1457 -2.5780  1.2772
  414SOL    HW2 1242   2.906   1.669   2.538 -1.8787 -0.9983  2.9973
  415SOL     OW 1243   0.794   2.531   0.114 -0.1362 -0.3168 -0.3368
  415SOL    HW1 1244   0.896   2.527   0.108 -1.6106 -2.6201 -0.8889
  415SOL    HW2 1245   0.763   2.501   0.204 -0.3373 -0.0778 -1.2513
  416SOL     OW 1246   1.881   2.979   2.959  0.1583 -0.1965  0.2233
  416SOL    HW1 1247   1.876   3.051   3.028  1.2729  0.2716 -1.2392
  416SOL    HW2 1248   1.912   3.015   2.870  1.4045 -0.3759 -2.5091
  417SOL     OW 1249   0.029   0.487   0.619 -0.2839  0.1287  0.1619
  417SOL    HW1 1250   0.062   0.479   0.714 -3.5583  0.5624 -0.8070
  417SOL    HW2 1251   3.105   0.398   0.585 -1.4276 -4.5247  1.2213
  418SOL     OW 1252   2.392   0.201   0.983 -0.1437 -0.3995  0.5977
  418SOL    HW1 1253   2.301   0.254   0.976  0.3112  0.8170 -0.7905
  418SOL    HW2 1254   2.469   0.267   0.961 -0.8361 -0.0482  1.6704
  419SOL     OW 1255   3.056   2.912   0.794 -0.3448  0.2626  0.1408
  419SOL    HW1 1256   3.001   2.948   0.715 -0.3230 -1.0827  0.3302
  419SOL    HW2 1257   0.043   2.949   0.797  2.4730  1.2063  0.0415
  420SOL     OW 1258   0.040   1.388   1.709 -0.2512 -0.1804 -0.4892
  420SOL    HW1 1259   0.133   1.347   1.707  1.7943  0.4002  2.5697
  420SOL    HW2 1260   3.073   1.324   1.688 -2.2106  0.0640 -0.3740
  421SOL     OW 1261   1.329   2.833   0.591  0.0272 -0.5064 -0.1320
  421SOL    HW1 1262   1.272   2.753   0.573  1.6267  1.3638  1.1953
  421SOL    HW2 1263   1.424   2.814   0.561 -2.7738  0.5209 -1.5204
  422SOL     OW 1264   0.652   0.367   1.377  0.3146 -0.7137 -0.0745
  422SOL    HW1 1265   0.743   0.343   1.417  0.6722  1.2687  2.1368
  422SOL    HW2 1266   0.606   0.284   1.338 -0.6567  2.1240 -0.2605
  423SOL     OW 1267   1.139   1.272   1.773 -0.6982  0.1569 -0.1315
  423SOL    HW1 1268   1.141   1.370   1.808 -0.9532  1.5610  0.6984
  423SOL    HW2 1269   1.051   1.221   1.778  1.0492  0.3884  0.3153
  424SOL     OW 1270   2.052   1.837   0.049 -0.3482 -0.1065 -0.2994
  424SOL    HW1 1271   2.033   1.934   0.054  1.7467 -1.7504 -0.4526
  424SOL    HW2 1272   2.026   1.792   0.134  1.4164 -0.4051  1.9765
  425SOL     OW 1273   3.044   0.291   2.061  0.4765  0.1502  0.3443
  425SOL    HW1 1274   3.031   0.209   2.005  0.4988  1.8184  0.3979
  425SOL    HW2 1275   3.035   0.279   2.157  0.0319  5.4278 -0.7678
  426SOL     OW 1276   0.402   2.938   2.814 -0.8845 -0.5733 -0.8148
  426SOL    HW1 1277   0.413   2.939   2.918  0.4960  0.5657  0.2657
  426SOL    HW2 1278   0.403   2.838   2.780  0.0124  1.5604  0.2086
  427SOL     OW 1279   0.961   0.787   2.796 -0.4094 -0.0536  0.1295
  427SOL    HW1 1280   1.028   0.857   2.824  0.1615 -2.6117 -1.0346
  427SOL    HW2 1281   0.990   0.691   2.811  0.2538  0.7490  0.4436
  428SOL     OW 1282   2.801   0.955   1.511  0.5535  0.2224  0.1522
  428SOL    HW1 1283   2.741   0.906   1.444 -0.5034  0.8326  0.3080
  428SOL    HW2 1284   2.898   0.960   1.481  0.9001  1.0242  1.1545
  429SOL     OW 1285   2.206   2.926   1.024  0.4687  0.0976 -0.0056
  429SOL    HW1 1286   2.242   2.903   1.114 -1.1643  1.6476 -2.8684
  429SOL    HW2 1287   2.157   2.849   0.976 -2.5063 -3.0917 -0.0711
  430SOL     OW 1288   1.051   1.478   2.626  0.6486  0.3421 -0.2138
  430SOL    HW1 1289   1.040   1.444   2.720 -0.9343 -1.2170 -0.8494
  430SOL    HW2 1290   1.152   1.483   2.596  1.7574  4.0841  0.1557
  431SOL     OW 1291   2.781   1.580   1.589 -0.0511 -0.1481 -0.3396
  431SOL    HW1 1292   2.833   1.616   1.670  0.0445  0.4585  2.5731
  431SOL    HW2 1293   2.838   1.536   1.518 -0.7870  0.5975 -0.8192
  432SOL     OW 1294   0.958   2.409   2.531  0.2691  0.7374 -0.0029
  432SOL    HW1 1295   0.880   2.469   2.562  0.5754  1.7899  3.2446
  432SOL    HW2 1296   1.042   2.438   2.579 -2.8979  0.0257 -0.1084
  433SOL     OW 1297   1.758   0.297   2.120  0.1864  0.0433  0.2577
  433SOL    HW1 1298   1.854   0.282   2.154 -3.2977  0.2558  0.2898
  433SOL    HW2 1299   1.749   0.392   2.088  2.0787 -1.5182  0.3156
  434SOL     OW 1300   0.964   2.491   2.260 -0.0586  0.2896 -0.3729
  434SOL    HW1 1301   0.867   2.514   2.232 -2.9624  0.7926 -1.6193
  434SOL    HW2 1302   0.950   2.444   2.352 -0.0623  0.4802  0.6593
  435SOL     OW 1303   0.265   2.996   0.282  0.1318  0.0543 -1.1816
  435SOL    HW1 1304   0.269   3.078   0.223  1.5240 -0.0244  0.7820
  435SOL    HW2 1305   0.334   3.006   0.358  0.1483  0.6055 -0.6807
  436SOL     OW 1306   0.636   0.870   2.057  0.0045 -0.1024  0.8153
  436SOL    HW1 1307   0.583   0.954   2.088 -1.6508  2.8386  1.5114
  436SOL    HW2 1308   0.593   0.787   2.099  0.5278  2.3294  0.4094
  437SOL     OW 1309   0.664   2.265   2.736  0.5701  0.3108  0.6872
  437SOL    HW1 1310   0.741   2.316   2.773 -3.2741  1.4284  1.6061
  437SOL    HW2 1311   0.616   2.215   2.809  1.5984  3.9032  1.2144
  438SOL     OW 1312   0.915   1.335   1.296 -0.2277 -0.1734 -0.0108
  438SOL    HW1 1313   0.937   1.436   1.277  2.2091  2.7007 -2.0985
  438SOL    HW2 1314   0.991   1.303   1.355  1.0606  1.5520  1.3726
  439SOL     OW 1315   2.442   1.009   2.224 -0.0967  0.4589 -0.1356
  439SOL    HW1 1316   2.511   1.003   2.298  0.6580 -2.1164 -1.5067
  439SOL    HW2 1317   2.347   1.029   2.261 -1.6152 -2.5452 -0.5052
  440SOL     OW 1318   3.111   0.584   0.146  0.4715 -0.0934 -0.1894
  440SOL    HW1 1319   0.074   0.520   0.115  0.8421 -0.0933  0.4452
  440SOL    HW2 1320   0.042   0.678   0.148  0.5506 -1.0263 -0.8583
  441SOL     OW 1321   1.332   2.107   1.525  0.8317  0.3700  0.1245
  441SOL    HW1 1322   1.302   2.191   1.578 -3.2619 -2.9274 -4.8892
  441SOL    HW2 1323   1.247   2.071   1.485 -0.2375  1.4472  0.0557
  442SOL     OW 1324   2.127   1.628   0.786  0.2154  0.2289 -0.3418
  442SOL    HW1 1325   2.172   1.687   0.855  0.8335 -1.2037 -2.4639
  442SOL    HW2 1326   2.105   1.537   0.817  0.4579  1.5262 -0.2169
  443SOL     OW 1327   2.652   2.008   2.670  0.0306  0.5698 -0.5867
  443SOL    HW1 1328   2.628   2.103   2.664  3.4771 -3.0975 -0.9390
  443SOL    HW2 1329   2.580   1.958   2.720 -2.0149  1.8600 -3.4654
  444SOL     OW 1330   1.544   1.600   2.944 -0.2065 -0.2495 -0.4544
  444SOL    HW1 1331   1.579   1.615   3.044  0.4422 -0.6934  1.1868
  444SOL    HW2 1332   1.500   1.507   2.933 -2.2551  1.1418 -1.6629
  445SOL     OW 1333   2.647   2.974   1.878  0.2808  0.0613 -0.1871
  445SOL    HW1 1334   2.700   2.884   1.886 -0.1883 -0.2212  0.2865
  445SOL    HW2 1335   2.697   3.039   1.814 -0.3710  1.3507  2.6896
  446SOL     OW 1336   0.812   0.886   1.668  0.1127 -0.4774  0.4832
  446SOL    HW1 1337   0.862   0.841   1.595 -0.2513  1.8011  3.0918
  446SOL    HW2 1338   0.781   0.818   1.739  1.2164 -0.9268  1.8100
  447SOL     OW 1339   0.600   0.887   1.036 -0.0616 -0.0702 -0.3262
  447SOL    HW1 1340   0.505   0.857   1.024  1.4529 -1.9873 -1.1694
  447SOL    HW2 1341   0.656   0.833   1.101 -0.0770  0.4901 -1.1973
  448SOL     OW 1342   1.060   1.085   2.356 -0.2010  0.5781 -0.2609
  448SOL    HW1 1343   1.004   1.136   2.424  0.8494 -3.8444  0.1136
  448SOL    HW2 1344   1.002   1.054   2.278 -1.6135 -1.0570  0.8422
  449SOL     OW 1345   0.012   2.158   2.296  0.5331 -0.6681  0.3220
  449SOL    HW1 1346   0.053   2.123   2.380 -0.5264  1.9293 -2.0517
  449SOL    HW2 1347   0.003   2.091   2.217 -1.8273 -1.5700 -4.5352
  450SOL     OW 1348   2.476   1.904   2.138  0.2986 -0.0099  0.0520
  450SOL    HW1 1349   2.523   1.890   2.226 -1.5010  0.2208  1.2015
  450SOL    HW2 1350   2.406   1.833   2.119 -1.5679 -1.3649 -0.0886
  451SOL     OW 1351   2.521   1.244   1.361  0.0769  0.1375  0.2716
  451SOL    HW1 1352   2.546   1.258   1.458 -1.1975  0.6968 -0.4970
  451SOL    HW2 1353   2.429   1.195   1.340 -2.4376  1.8063  0.0454
  452SOL     OW 1354   0.211   1.244   1.540  0.3102  0.4740  0.2479
  452SOL    HW1 1355   0.154   1.204   1.465  0.7355 -1.3647  0.2232
  452SOL    HW2 1356   0.304   1.274   1.509 -1.9938  1.2200 -1.6583
  453SOL     OW 1357   0.291   0.773   0.695  0.3990 -0.2793 -0.3808
  453SOL    HW1 1358   0.382   0.748   0.658  1.0561  1.1422 -2.5966
  453SOL    HW2 1359   0.252   0.859   0.664  0.9507 -2.5613  1.4333
  454SOL     OW 1360   0.553   1.581   0.471 -0.4419 -0.4776  0.2865
  454SOL    HW1 1361   0.538   1.515   0.547 -0.0815  1.6420 -1.5023
  454SOL    HW2 1362   0.462   1.590   0.428 -1.0332 -2.5379  0.2584
  455SOL     OW 1363   1.633   0.772   0.949  0.3175  0.9400  0.5853
  455SOL    HW1 1364   1.658   0.818   0.865 -3.0196 -1.0592  0.3764
  455SOL    HW2 1365   1.644   0.671   0.937  1.0210 -0.4357 -3.0504
  456SOL     OW 1366   1.711   2.910   1.034 -0.4802 -0.1834  0.4257
  456SOL    HW1 1367   1.691   2.958   0.943 -2.8163 -0.9012 -0.8569
  456SOL    HW2 1368   1.733   2.982   1.101 -1.5998  0.1249 -0.0151
  457SOL     OW 1369   1.871   0.332   2.482 -0.2948  0.0866 -0.1747
  457SOL    HW1 1370   1.774   0.348   2.488  0.1674  1.3853 -0.1594
  457SOL    HW2 1371   1.892   0.261   2.414  0.1876 -0.5666 -0.2154
  458SOL     OW 1372   2.373   0.617   2.926 -0.1835 -0.4013 -0.5151
  458SOL    HW1 1373   2.339   0.531   2.958  1.9768  3.2038  0.0965
  458SOL    HW2 1374   2.437   0.604   2.847 -1.0835 -0.9905  2.3954
  459SOL     OW 1375   0.003   1.696   2.137 -0.3258  0.6682  0.6627
  459SOL    HW1 1376   0.055   1.667   2.216  0.0173  1.5143 -1.4722
  459SOL    HW2 1377   3.106   1.619   2.072 -1.5854  0.5137  3.5516
  460SOL     OW 1378   0.310   0.720   3.068 -0.1065 -0.7268 -0.5553
  460SOL    HW1 1379   0.226   0.688   3.022  2.8436 -1.0692 -0.7876
  460SOL    HW2 1380   0.395   0.665   3.045 -2.1508 -1.3952  0.9565
  461SOL     OW 1381   2.915   2.467   0.511 -0.6292  0.2354  0.7430
  461SOL    HW1 1382   2.959   2.401   0.451  1.7368 -1.9106  1.9481
  461SOL    HW2 1383   2.935   2.452   0.611  1.4626  0.4050  0.6515
  462SOL     OW 1384   3.084   0.030   1.706  0.2255  0.1289  0.5039
  462SOL    HW1 1385   3.083   3.045   1.658  1.5594 -2.2880 -1.9838
  462SOL    HW2 1386   3.052   0.107   1.644  0.8619 -0.1463  2.1135
  463SOL     OW 1387   1.835   2.142   1.955 -0.3233 -0.2336 -0.3262
  463SOL    HW1 1388   1.874   2.096   1.873 -0.6930 -1.7039 -0.3056
  463SOL    HW2 1389   1.803   2.236   1.940  1.6007  0.5052 -1.1360
  464SOL     OW 1390   0.318   2.788   1.343  0.6335 -0.6095  0.7870
  464SOL    HW1 1391   0.249   2.863   1.369 -1.5005  2.6226 -0.0523
  464SOL    HW2 1392   0.378   2.823   1.270 -0.0073  0.4048  0.3361
  465SOL     OW 1393   0.367   0.054   1.589 -0.0477 -0.5352 -0.4649
  465SOL    HW1 1394   0.369   0.018   1.683 -0.4835 -1.9426 -2.1891
  465SOL    HW2 1395   0.339   0.151   1.580  1.4159  2.5916 -0.2563
  466SOL     OW 1396   1.204   2.034   2.319  0.4196  0.0320 -0.3875
  466SOL    HW1 1397   1.208   1.936   2.339  1.0489  1.4828 -0.1352
  466SOL    HW2 1398   1.110   2.068   2.349 -2.1250 -0.4341 -0.5581
  467SOL     OW 1399   2.929   1.560   0.720 -0.0446 -0.5561 -0.1136
  467SOL    HW1 1400   2.881   1.600   0.799  1.0427 -2.1350  0.3550
  467SOL    HW2 1401   2.879   1.484   0.675  2.4321  0.6966  1.6306
  468SOL     OW 1402   2.276   2.035   2.678 -0.2923 -0.3023 -0.2436
  468SOL    HW1 1403   2.192   1.993   2.645  1.8735 -0.6684 -0.7634
  468SOL    HW2 1404   2.337   2.048   2.597 -1.2495  0.1260  0.5295
  469SOL     OW 1405   1.231   2.256   0.635 -0.2722  0.1991 -0.2499
  469SOL    HW1 1406   1.251   2.258   0.535  1.7257  0.4465 -2.0832
  469SOL    HW2 1407   1.268   2.168   0.679  3.4418 -2.8734 -0.0507
  470SOL     OW 1408   2.050   1.750   1.305 -0.6324  0.6101 -0.8352
  470SOL    HW1 1409   2.107   1.775   1.386 -0.6784  0.0470  0.7495
  470SOL    HW2 1410   2.106   1.695   1.244 -0.3705 -0.5932  0.7098
  471SOL     OW 1411   0.101   2.354   0.373 -0.2570  0.3151  0.1238
  471SOL    HW1 1412   0.110   2.458   0.373  3.5272 -0.2228  0.2904
  471SOL    HW2 1413   0.135   2.317   0.284 -0.5645 -1.8447 -2.5601
  472SOL     OW 1414   2.589   1.807   2.381  0.3742 -0.5518 -0.4519
  472SOL    HW1 1415   2.556   1.712   2.362 -0.6541  0.8154  0.3287
  472SOL    HW2 1416   2.682   1.809   2.418  0.2801  1.0861 -1.0816
  473SOL     OW 1417   1.430   2.612   0.960  0.8209  0.2704 -0.2158
  473SOL    HW1 1418   1.362   2.595   1.032  1.9632 -1.3941 -2.6938
  473SOL    HW2 1419   1.418   2.709   0.929  1.5196 -0.5883  0.7567
  474SOL     OW 1420   2.833   0.154   1.271 -0.3056 -0.3295  0.2847
  474SOL    HW1 1421   2.772   0.075   1.241  0.9754 -1.4269 -0.6646
  474SOL    HW2 1422   2.787   0.205   1.345  0.6044 -1.0883  2.4723
  475SOL     OW 1423   2.144   2.832   1.873  0.0894 -0.2611  0.6306
  475SOL    HW1 1424   2.240   2.857   1.838 -1.8701 -1.8870 -3.7414
  475SOL    HW2 1425   2.084   2.913   1.861  0.1095  1.6444  1.2456
  476SOL     OW 1426   0.151   0.491   0.862 -0.3417 -0.3613  0.1600
  476SOL    HW1 1427   0.237   0.442   0.889  1.0894  0.9456  0.0844
  476SOL    HW2 1428   0.096   0.526   0.939 -0.8709 -0.8844 -0.9063
  477SOL     OW 1429   0.677   1.977   1.000  0.2301  0.3680  0.0617
  477SOL    HW1 1430   0.657   2.058   1.059  0.4466  1.7912  3.3384
  477SOL    HW2 1431   0.776   1.958   0.981  0.6682 -0.4994 -0.4279
  478SOL     OW 1432   0.839   2.441   2.897 -0.7047 -0.2479 -0.4685
  478SOL    HW1 1433   0.845   2.361   2.958 -1.6769  1.9811  0.9175
  478SOL    HW2 1434   0.760   2.499   2.927  0.5544 -0.9439 -0.2247
  479SOL     OW 1435   0.162   1.120   2.068  0.5570  0.8629  0.2174
  479SOL    HW1 1436   0.098   1.181   2.114  0.0473 -2.7807 -3.8032
  479SOL    HW2 1437   0.111   1.046   2.014  2.3766 -1.4074 -0.5294
  480SOL     OW 1438   0.357   2.213   3.081 -0.6341 -0.0363 -0.5988
  480SOL    HW1 1439   0.304   2.199   0.054 -2.1741  3.6085  0.7386
  480SOL    HW2 1440   0.299   2.246   3.004  3.0714  1.3160  0.8386
  481SOL     OW 1441   1.721   3.000   2.220  0.1614 -0.6660 -0.0216
  481SOL    HW1 1442   1.774   3.021   2.305  0.8475 -0.8536  0.6475
  481SOL    HW2 1443   1.667   3.081   2.199 -1.9109 -0.8010  2.6750
  482SOL     OW 1444   1.707   1.963   0.053 -1.0488 -1.3360 -0.2793
  482SOL    HW1 1445   1.712   1.916   0.146  0.2606 -1.1301  2.0986
  482SOL    HW2 1446   1.800   2.003   0.031  1.0580 -2.1191 -0.4524
  483SOL     OW 1447   1.068   2.613   2.884 -0.0009 -0.0054  0.1454
  483SOL    HW1 1448   1.130   2.580   2.810  0.0347 -0.6196 -0.8139
  483SOL    HW2 1449   0.982   2.558   2.898 -2.2290  1.9075 -0.0328
  484SOL     OW 1450   0.653   2.840   0.901 -0.0824 -0.0830 -0.2300
  484SOL    HW1 1451   0.679   2.933   0.867  2.1565  1.2989 -1.8883
  484SOL    HW2 1452   0.629   2.842   1.001  0.3707  0.7520  1.1516
  485SOL     OW 1453   2.111   0.770   0.737  0.2572 -0.1855 -0.0948
  485SOL    HW1 1454   2.086   0.863   0.769  0.6743 -0.1223 -0.5109
  485SOL    HW2 1455   2.047   0.702   0.782 -1.7370 -4.4432 -0.0371
  486SOL     OW 1456   2.090   2.823   2.158  0.6645  0.2603 -0.6914
  486SOL    HW1 1457   2.172   2.767   2.183  0.9507 -1.0208 -0.4676
  486SOL    HW2 1458   2.085   2.829   2.057  0.9886  0.9313  0.2349
  487SOL     OW 1459   1.236   1.874   0.672 -0.1222  0.0787  0.3068
  487SOL    HW1 1460   1.134   1.891   0.654 -5.7326 -0.3736 -1.5052
  487SOL    HW2 1461   1.272   1.951   0.729  0.2068  3.2851 -0.7479
  488SOL     OW 1462   2.083   0.265   0.041 -0.1902  1.0700 -0.0937
  488SOL    HW1 1463   2.088   0.325   0.122  3.5304 -1.1698 -3.2650
  488SOL    HW2 1464   2.078   0.321   3.066  2.4054 -0.0426  0.2223
  489SOL     OW 1465   2.236   2.938   0.476  0.2689 -0.0657 -0.0139
  489SOL    HW1 1466   2.301   3.005   0.437 -0.0159 -1.6110  0.8393
  489SOL    HW2 1467   2.153   2.999   0.500 -2.3104  1.1669  0.8433
  490SOL     OW 1468   1.652   2.843   2.955  0.0161  0.1972  0.4737
  490SOL    HW1 1469   1.751   2.876   2.948  2.2947  1.2922  1.5556
  490SOL    HW2 1470   1.591   2.901   3.015  0.6492 -0.5751  0.9866
  491SOL     OW 1471   0.896   0.184   0.967 -0.1546 -0.3961 -0.4158
  491SOL    HW1 1472   0.979   0.127   1.000  0.6397 -2.9668 -1.4856
  491SOL    HW2 1473   0.806   0.157   1.009 -2.1885  1.4961 -1.3362
  492SOL     OW 1474   1.939   3.016   0.266  0.5789 -0.3250  0.3765
  492SOL    HW1 1475   1.977   3.061   0.347 -0.2034 -2.1410 -1.6820
  492SOL    HW2 1476   1.914   2.923   0.289  1.9554  1.7986  0.6957
  493SOL     OW 1477   1.653   2.506   2.693 -0.1681  0.6694 -0.0401
  493SOL    HW1 1478   1.641   2.405   2.682 -0.3334  0.6454 -0.1522
  493SOL    HW2 1479   1.648   2.533   2.790  2.6035  1.6201 -2.4623
  494SOL     OW 1480   0.367   1.195   0.986 -0.0029  0.0110 -0.7406
  494SOL    HW1 1481   0.347   1.130   1.061  1.0672  0.5806  0.2329
  494SOL    HW2 1482   0.292   1.193   0.916  3.1398  1.1088 -0.5909
  495SOL     OW 1483   2.987   0.325   1.733  0.1905  0.1487  0.3083
  495SOL    HW1 1484   3.004   0.300   1.635 -0.6964  1.2925 -0.7534
  495SOL    HW2 1485   3.066   0.365   1.775 -2.8866 -1.0724 -2.0519
  496SOL     OW 1486   2.639   2.563   2.078  0.6123 -0.4766  0.5586
  496SOL    HW1 1487   2.612   2.473   2.116 -0.7489 -0.2808  0.6334
  496SOL    HW2 1488   2.614   2.641   2.142  0.5708  0.0849  1.2431
  497SOL     OW 1489   1.663   1.329   2.671 -0.3383  0.1405 -0.1680
  497SOL    HW1 1490   1.746   1.288   2.634 -2.3457 -1.1157  0.4247
  497SOL    HW2 1491   1.596   1.257   2.679  3.5863  1.2879 -0.8322
  498SOL     OW 1492   0.734   2.109   0.701 -0.1438 -0.4489  0.4022
  498SOL    HW1 1493   0.817   2.131   0.753 -1.7013 -1.7929 -1.7989
  498SOL    HW2 1494   0.667   2.053   0.755 -0.6459  0.5876  0.5433
  499SOL     OW 1495   0.231   1.503   0.990 -0.0637  0.3060  0.6760
  499SOL    HW1 1496   0.135   1.535   0.983 -0.9132  1.7622  2.2380
  499SOL    HW2 1497   0.241   1.429   1.056 -1.3690  0.4693 -1.9494
  500SOL     OW 1498   1.532   2.465   0.517 -0.5086  0.0726  0.4777
  500SOL    HW1 1499   1.518   2.534   0.450 -0.7587 -4.0209 -0.7127
  500SOL    HW2 1500   1.470   2.486   0.596  1.0122  3.6852  2.7762
  501SOL     OW 1501   2.119   2.618   1.129  0.4692 -0.6296 -0.3035
  501SOL    HW1 1502   2.215   2.607   1.160  0.5037 -1.8362 -0.1071
  501SOL    HW2 1503   2.109   2.618   1.029  0.9813  1.1894 -0.8033
  502SOL     OW 1504   0.512   0.484   1.595 -0.5201  0.0630  0.0381
  502SOL    HW1 1505   0.433   0.416   1.622  1.0013 -3.2038  1.2476
  502SOL    HW2 1506   0.554   0.469   1.507 -0.6347  0.5506 -0.0542
  503SOL     OW 1507   2.004   0.338   1.495  0.0974 -0.3920 -0.0376
  503SOL    HW1 1508   1.902   0.347   1.496 -0.2508  1.9429  0.3279
  503SOL    HW2 1509   2.034   0.256   1.550  1.8426 -0.3460  0.3630
  504SOL     OW 1510   2.020   0.848   1.836  0.1243  0.5814 -0.1320
  504SOL    HW1 1511   1.928   0.899   1.833  0.5764  2.9155  0.4551
  504SOL    HW2 1512   2.097   0.914   1.835 -1.0543 -1.6083  0.7221
  505SOL     OW 1513   1.226   2.986   2.192 -0.1086  0.3078  0.1621
  505SOL    HW1 1514   1.155   3.006   2.265 -1.2829  0.8233  0.8832
  505SOL    HW2 1515   1.320   3.011   2.231  0.2520  1.3950  1.4372
  506SOL     OW 1516   0.338   0.436   1.956 -0.7802  0.4241 -0.4974
  506SOL    HW1 1517   0.423   0.445   1.905  0.5192  1.4388  1.2947
  506SOL    HW2 1518   0.331   0.342   1.993 -1.1651  1.3373  0.1008
  507SOL     OW 1519   1.597   0.095   2.980  0.1144  0.0726  0.2043
  507SOL    HW1 1520   1.567   0.162   3.050  0.0580 -1.6901  1.6039
  507SOL    HW2 1521   1.576   0.002   3.006 -1.0723 -2.8647  1.8497
  508SOL     OW 1522   2.241   0.553   2.297 -0.1757 -0.2422 -0.1397
  508SOL    HW1 1523   2.334   0.572   2.338  4.2912 -0.7104  3.6627
  508SOL    HW2 1524   2.232   0.630   2.231  1.2294  0.6315  1.9796
  509SOL     OW 1525   0.719   1.303   2.286 -0.2410 -0.0733  0.5292
  509SOL    HW1 1526   0.681   1.376   2.353 -1.4040  3.9443  0.2059
  509SOL    HW2 1527   0.783   1.252   2.344  0.5041 -0.6332 -3.5445
  510SOL     OW 1528   2.907   0.517   0.916 -0.3435 -0.1040 -0.0568
  510SOL    HW1 1529   2.966   0.576   0.980  0.1771  1.7191  2.8469
  510SOL    HW2 1530   2.880   0.573   0.833  1.1099  0.7194 -1.6780
  511SOL     OW 1531   1.699   1.398   1.154  0.3411 -0.3605 -0.2439
  511SOL    HW1 1532   1.658   1.448   1.074  0.4529  2.2769 -0.5823
  511SOL    HW2 1533   1.714   1.464   1.227  1.3617 -1.7506 -0.6078
  512SOL     OW 1534   0.521   1.356   0.636  0.6494 -0.1253 -0.3790
  512SOL    HW1 1535   0.524   1.278   0.566 -1.2242 -0.3577  1.5733
  512SOL    HW2 1536   0.578   1.333   0.718 -0.5802 -0.3190  0.5126
  513SOL     OW 1537   0.561   2.216   1.124 -0.1134 -0.2355  0.6595
  513SOL    HW1 1538   0.473   2.175   1.097  3.1108  1.5433 -1.7198
  513SOL    HW2 1539   0.561   2.308   1.081 -0.9381 -1.3802 -2.2248
  514SOL     OW 1540   0.174   2.193   0.165 -0.1423 -0.3199 -0.7148
  514SOL    HW1 1541   0.083   2.189   0.122  0.3578  2.4180  0.8547
  514SOL    HW2 1542   0.190   2.110   0.224 -3.4540  0.4320  0.0517
  515SOL     OW 1543   2.881   3.050   3.065 -0.3096 -0.2925  0.0547
  515SOL    HW1 1544   2.908   2.960   3.105  2.1594  0.3817  1.5813
  515SOL    HW2 1545   2.958   3.111   3.083  0.5706 -1.6469 -0.6012
  516SOL     OW 1546   2.018   3.108   0.955 -0.4662  0.5090  0.2983
  516SOL    HW1 1547   1.950   0.000   1.031  0.7009  0.2730 -2.6692
  516SOL    HW2 1548   2.094   3.050   0.981 -1.0229  1.0584  1.8099
  517SOL     OW 1549   1.649   1.567   0.472 -0.1297 -0.0158 -0.0218
  517SOL    HW1 1550   1.713   1.548   0.546  2.8369  1.0376 -2.8378
  517SOL    HW2 1551   1.571   1.504   0.465 -0.3416 -1.5601  1.6160
  518SOL     OW 1552   1.301   0.625   1.375 -0.6281  0.7055 -0.3608
  518SOL    HW1 1553   1.213   0.596   1.337  2.4583  0.1418  2.2102
  518SOL    HW2 1554   1.376   0.558   1.354  1.0261 -0.7872  0.6948
  519SOL     OW 1555   2.644   2.255   0.262 -0.7359 -0.1042  0.2246
  519SOL    HW1 1556   2.632   2.197   0.346  0.3099 -0.4083 -0.2413
  519SOL    HW2 1557   2.740   2.267   0.242 -2.3648 -1.5396  1.7257
  520SOL     OW 1558   2.218   1.902   1.832 -0.1567  0.2146 -0.2623
  520SOL    HW1 1559   2.236   1.825   1.770  0.1839  3.7858 -0.8492
  520SOL    HW2 1560   2.147   1.881   1.899  2.0505 -0.9675 -0.2683
  521SOL     OW 1561   1.606   2.744   2.227 -0.6035 -0.3346 -0.2037
  521SOL    HW1 1562   1.572   2.714   2.317  0.8727 -0.8698  2.7840
  521SOL    HW2 1563   1.646   2.839   2.231  2.3512  0.4354 -1.6510
  522SOL     OW 1564   2.784   0.296   1.933 -0.4359  0.6661 -0.1178
  522SOL    HW1 1565   2.846   0.319   1.860 -0.2691 -1.2263  2.5477
  522SOL    HW2 1566   2.826   0.226   1.993 -0.7131  2.6994 -1.6968
  523SOL     OW 1567   1.123   2.013   1.413  0.0202  0.2892  0.2202
  523SOL    HW1 1568   1.060   2.066   1.472  0.2914  1.2549 -3.3732
  523SOL    HW2 1569   1.082   1.976   1.330  3.2790 -3.3774  2.4344
  524SOL     OW 1570   2.169   2.026   2.924 -0.1283  0.0392 -0.1644
  524SOL    HW1 1571   2.213   2.044   2.835  1.4701 -1.9553  1.5697
  524SOL    HW2 1572   2.113   1.942   2.919  1.2595  1.2528  0.4662
  525SOL     OW 1573   2.680   1.065   0.241  0.1691 -0.2059  0.5660
  525SOL    HW1 1574   2.752   1.002   0.286 -0.4201 -2.1683 -0.2624
  525SOL    HW2 1575   2.647   1.018   0.155  0.0314 -1.6651  0.5193
  526SOL     OW 1576   1.014   2.901   1.019 -0.5687  0.1614  0.3147
  526SOL    HW1 1577   0.992   2.916   0.920 -4.4518  0.8374 -0.7008
  526SOL    HW2 1578   0.945   2.949   1.079 -0.2720 -0.1033 -1.0411
  527SOL     OW 1579   2.403   1.480   0.693  0.5381 -0.3321  0.2121
  527SOL    HW1 1580   2.315   1.432   0.702 -3.1856  1.9960  2.6352
  527SOL    HW2 1581   2.418   1.497   0.591  1.7123 -0.1217  1.7692
  528SOL     OW 1582   0.534   0.756   2.590  0.2386 -0.8065  0.0804
  528SOL    HW1 1583   0.600   0.745   2.510 -1.3233  0.2559  1.4098
  528SOL    HW2 1584   0.437   0.754   2.558  0.6844 -0.2111  0.3452
  529SOL     OW 1585   0.523   1.390   0.005 -0.0133 -0.1190 -0.4559
  529SOL    HW1 1586   0.458   1.454   3.077  4.0869 -0.8840 -1.7392
  529SOL    HW2 1587   0.476   1.300   0.017  3.0699  0.1654 -0.4491
  530SOL     OW 1588   1.314   0.919   1.744 -0.4629  1.1502 -0.0109
  530SOL    HW1 1589   1.400   0.875   1.782  1.0080 -3.5816 -1.2792
  530SOL    HW2 1590   1.240   0.893   1.805  1.9240  1.5578 -2.0082
  531SOL     OW 1591   1.240   2.153   3.043  0.3552  0.3259  0.1402
  531SOL    HW1 1592   1.203   2.141   2.947 -0.2153  1.1918 -1.3143
  531SOL    HW2 1593   1.321   2.093   3.061 -0.8995 -0.4345 -0.6162
  532SOL     OW 1594   2.255   0.769   0.036 -0.2691 -0.0246 -0.3061
  532SOL    HW1 1595   2.271   0.720   0.125 -1.1471 -2.0974  2.0085
  532SOL    HW2 1596   2.305   0.720   3.068 -0.3344 -1.0405 -1.9058
  533SOL     OW 1597   2.859   0.548   2.066  0.4625  0.1933  0.1222
  533SOL    HW1 1598   2.836   0.465   2.015 -0.5756  3.4173  0.5352
  533SOL    HW2 1599   2.768   0.601   2.084 -2.2211 -0.4621 -0.6159
  534SOL     OW 1600   1.899   0.063   0.047  0.2281  0.0319  0.2174
  534SOL    HW1 1601   1.909   3.107   0.125 -2.0004  0.5219  0.8487
  534SOL    HW2 1602   1.969   0.137   0.054 -0.4183  1.0607 -0.5025
  535SOL     OW 1603   0.460   0.376   0.087  0.3408 -0.2062  0.6994
  535SOL    HW1 1604   0.463   0.289   0.032 -0.1255 -1.6916 -2.6670
  535SOL    HW2 1605   0.494   0.355   0.182  1.4416  2.1830 -2.6884
  536SOL     OW 1606   0.657   1.469   1.683 -0.6789  0.8080 -0.7363
  536SOL    HW1 1607   0.633   1.564   1.652 -3.3616  1.8833  0.6921
  536SOL    HW2 1608   0.707   1.415   1.608  0.8013  0.7004  1.4380
  537SOL     OW 1609   0.263   2.695   1.853 -0.0162 -0.2066 -0.2021
  537SOL    HW1 1610   0.333   2.738   1.797  0.3170  2.7409 -1.3003
  537SOL    HW2 1611   0.298   2.686   1.943 -1.5441 -1.3619 -3.7985
  538SOL     OW 1612   3.021   2.172   0.099  0.6755 -0.2343 -0.2690
  538SOL    HW1 1613   2.963   2.258   0.115 -0.6667  0.7704  0.1596
  538SOL    HW2 1614   3.007   2.140   0.001 -0.4669 -1.4564 -0.6352
  539SOL     OW 1615   2.494   0.924   2.731  0.2080  0.3944 -0.1922
  539SOL    HW1 1616   2.593   0.918   2.744 -1.7489 -1.9404 -2.8998
  539SOL    HW2 1617   2.449   0.967   2.815 -4.0482  2.4426  1.6974
  540SOL     OW 1618   1.858   0.743   0.152  0.3610 -0.1377  0.8817
  540SOL    HW1 1619   1.917   0.826   0.148  1.1950  0.4506  0.4919
  540SOL    HW2 1620   1.765   0.781   0.161  0.6931 -0.5739 -2.2777
  541SOL     OW 1621   0.996   0.402   2.107  0.2111  0.0530 -0.9275
  541SOL    HW1 1622   1.025   0.308   2.142  0.8182 -2.7695 -0.6658
  541SOL    HW2 1623   0.907   0.396   2.063  0.0441  1.6323 -0.5602
  542SOL     OW 1624   1.739   2.431   2.183 -0.3876  0.3951 -0.0950
  542SOL    HW1 1625   1.788   2.515   2.214 -2.2246 -0.4300 -1.5073
  542SOL    HW2 1626   1.746   2.421   2.078  1.0936 -0.6415 -7.2379
  543SOL     OW 1627   0.850   2.938   0.503  0.7918 -0.0947 -0.0231
  543SOL    HW1 1628   0.901   3.019   0.465  0.8644 -0.0017 -0.7576
  543SOL    HW2 1629   0.791   2.892   0.428 -1.4167 -2.5715 -2.0192
  544SOL     OW 1630   2.890   1.877   2.194  0.0565  0.0125 -0.1971
  544SOL    HW1 1631   2.974   1.817   2.208  0.2128  3.5389  1.8519
  544SOL    HW2 1632   2.854   1.901   2.286 -0.9122 -1.2606  0.7199
  545SOL     OW 1633   1.557   2.039   1.423  0.1852 -0.0103  0.4052
  545SOL    HW1 1634   1.463   2.070   1.456 -4.2278  0.7427 -0.0640
  545SOL    HW2 1635   1.561   1.941   1.400  1.0241  1.0510 -2.3036
  546SOL     OW 1636   0.626   3.094   2.262  0.2298  0.3381  0.6413
  546SOL    HW1 1637   0.672   0.065   2.290 -0.8406 -1.0515 -1.3576
  546SOL    HW2 1638   0.550   3.071   2.324  1.7943 -0.8774  2.1248
  547SOL     OW 1639   1.095   0.513   0.573  0.2379 -0.1389  0.0383
  547SOL    HW1 1640   1.008   0.474   0.605 -2.4085 -1.0147  0.5739
  547SOL    HW2 1641   1.096   0.540   0.473 -0.2978  1.3949  2.0617
  548SOL     OW 1642   1.480   2.022   3.028  0.5001 -0.3755  0.0778
  548SOL    HW1 1643   1.566   2.003   3.081 -0.4000  1.5864  0.6719
  548SOL    HW2 1644   1.474   1.971   2.940  0.4032  2.1564  3.9299
  549SOL     OW 1645   2.017   0.962   0.127  0.0033  0.2080  0.2609
  549SOL    HW1 1646   2.074   1.007   0.056 -0.7517  0.8127 -1.1386
  549SOL    HW2 1647   2.038   0.985   0.223  0.0300 -0.9708 -0.5579
  550SOL     OW 1648   2.492   2.072   0.152  0.3654  0.7512  0.3742
  550SOL    HW1 1649   2.408   2.071   0.213 -1.1785 -1.5395 -4.3855
  550SOL    HW2 1650   2.548   2.151   0.178 -3.9665 -1.2541 -0.3022
  551SOL     OW 1651   1.166   0.647   1.627 -0.1127 -0.2047 -0.2716
  551SOL    HW1 1652   1.221   0.674   1.549 -1.6068  4.0189  3.8408
  551SOL    HW2 1653   1.210   0.570   1.679  0.8294  2.0290  1.2165
  552SOL     OW 1654   0.228   2.296   2.873  0.5043  0.4649  0.3287
  552SOL    HW1 1655   0.216   2.203   2.828  2.2695  0.2651  0.3372
  552SOL    HW2 1656   0.137   2.339   2.898 -0.3848  1.9268  3.1799
  553SOL     OW 1657   2.875   2.718   0.723  0.0466 -0.0949  0.5659
  553SOL    HW1 1658   2.811   2.661   0.783  0.2370 -1.8070  0.2678
  553SOL    HW2 1659   2.956   2.755   0.770 -2.9687  0.6330  1.3988
  554SOL     OW 1660   2.110   1.533   1.797 -0.7073  0.3117 -0.0678
  554SOL    HW1 1661   2.099   1.437   1.823  0.2795 -3.1104  1.4261
  554SOL    HW2 1662   2.038   1.591   1.832  1.3091 -1.3361  0.7585
  555SOL     OW 1663   1.458   2.089   2.217 -0.1067 -0.5486  0.0858
  555SOL    HW1 1664   1.375   2.056   2.261 -1.4578 -0.7302 -1.7716
  555SOL    HW2 1665   1.466   2.191   2.236 -0.0775 -0.8681 -1.6387
  556SOL     OW 1666   1.357   1.659   1.661 -0.3765  0.3066 -0.5499
  556SOL    HW1 1667   1.284   1.707   1.614  1.1751 -0.9282 -1.4907
  556SOL    HW2 1668   1.375   1.573   1.608  1.7616 -2.1983  0.0525
  557SOL     OW 1669   1.502   0.022   1.738  0.2414  0.4183 -0.0161
  557SOL    HW1 1670   1.533   3.038   1.730  0.8745  1.5364  1.7007
  557SOL    HW2 1671   1.409   0.027   1.778 -0.4893  1.5757 -1.6548
  558SOL     OW 1672   0.543   2.885   2.108  0.0970  0.1573 -0.0418
  558SOL    HW1 1673   0.533   2.917   2.012 -0.6522  0.8554  1.1978
  558SOL    HW2 1674   0.604   2.950   2.163 -0.0745  2.6979  1.7569
  559SOL     OW 1675   1.956   2.363   0.127  0.0420 -0.3754  0.2447
  559SOL    HW1 1676   1.911   2.452   0.090 -1.7519  2.9789 -1.4571
  559SOL    HW2 1677   2.047   2.390   0.172  0.8800  1.4242  0.1751
  560SOL     OW 1678   1.357   2.171   0.364  0.2998 -0.1282 -0.2124
  560SOL    HW1 1679   1.396   2.086   0.406  0.8979  0.0808  1.8437
  560SOL    HW2 1680   1.430   2.218   0.309 -1.8286 -0.1823  1.5778
  561SOL     OW 1681   1.256   0.402   0.175 -0.2716 -0.2865  0.1183
  561SOL    HW1 1682   1.220   0.379   0.084  1.3465  1.8310  1.3674
  561SOL    HW2 1683   1.330   0.339   0.188 -0.6568  1.0603  0.9974
  562SOL     OW 1684   0.603   1.499   2.105  0.3162  0.5489 -0.1444
  562SOL    HW1 1685   0.645   1.440   2.179 -0.1861  0.7230 -1.0989
  562SOL    HW2 1686   0.661   1.483   2.021 -0.1822  1.3208 -1.0447
  563SOL     OW 1687   1.252   2.029   2.618  0.2907  0.1727  0.0429
  563SOL    HW1 1688   1.266   2.050   2.517  0.3208 -2.2194  0.3348
  563SOL    HW2 1689   1.326   1.966   2.641 -0.3927 -1.3394 -3.4655
  564SOL     OW 1690   2.881   0.954   0.865  0.1883 -0.2649 -0.2460
  564SOL    HW1 1691   2.800   0.892   0.857 -3.1535  0.2608  2.0178
  564SOL    HW2 1692   2.851   1.046   0.902 -0.2290 -2.6297  0.6072
  565SOL     OW 1693   0.495   1.078   0.040 -0.6179 -0.0497  0.0984
  565SOL    HW1 1694   0.434   1.036   3.084  0.7493 -1.6502 -1.5419
  565SOL    HW2 1695   0.452   1.083   0.136  0.0382  1.4227  1.2171
  566SOL     OW 1696   2.536   2.745   2.915  0.0563  0.6422 -0.1595
  566SOL    HW1 1697   2.576   2.827   2.963 -1.0535  0.6086 -0.8593
  566SOL    HW2 1698   2.466   2.696   2.975 -0.7906 -0.9877  0.6412
  567SOL     OW 1699   1.526   1.178   1.220 -0.5716  0.0825 -0.1698
  567SOL    HW1 1700   1.607   1.240   1.186  1.8518  1.5162 -0.0195
  567SOL    HW2 1701   1.554   1.126   1.307  0.8730  0.4411 -1.8650
  568SOL     OW 1702   1.334   1.379   2.847 -0.2540 -0.7434  0.0534
  568SOL    HW1 1703   1.235   1.391   2.877 -1.2274 -0.0969 -0.6075
  568SOL    HW2 1704   1.342   1.392   2.749 -0.1991  4.0131 -0.1572
  569SOL     OW 1705   2.289   1.704   3.036  0.1268  0.0848  0.3283
  569SOL    HW1 1706   2.369   1.758   3.061  0.6239 -0.1872 -0.3598
  569SOL    HW2 1707   2.206   1.752   3.067 -1.0911  0.3399 -0.5673
  570SOL     OW 1708   2.922   2.299   2.207 -0.0316 -0.5939 -0.0937
  570SOL    HW1 1709   2.956   2.311   2.113  1.4291  1.2612  0.5967
  570SOL    HW2 1710   2.982   2.239   2.258 -3.5669  2.0742 -2.4989
  571SOL     OW 1711   2.845   1.939   1.721 -0.3800  0.2673 -0.3823
  571SOL    HW1 1712   2.858   1.838   1.719  2.7760 -0.9794  0.8016
  571SOL    HW2 1713   2.779   1.968   1.797 -3.6981  2.1468  2.7220
  572SOL     OW 1714   1.703   2.264   0.539  0.2050  0.3399 -0.0469
  572SOL    HW1 1715   1.623   2.324   0.522  2.2254 -2.4120 -0.9183
  572SOL    HW2 1716   1.740   2.240   0.449 -0.4619 -0.5383  2.4083
  573SOL     OW 1717   1.424   1.903   0.488  0.4325 -0.7338 -0.4204
  573SOL    HW1 1718   1.497   1.936   0.553 -1.2326 -0.2485 -0.0387
  573SOL    HW2 1719   1.344   1.862   0.545 -2.0802  0.5636 -0.2112
  574SOL     OW 1720   1.500   3.073   1.486 -0.3128  0.0755 -0.2661
  574SOL    HW1 1721   1.547   2.982   1.490  0.5253  2.5528  0.1528
  574SOL    HW2 1722   1.510   0.012   1.576  0.3490  0.4261  3.3768
  575SOL     OW 1723   0.346   1.115   1.272  0.3423  0.0817  0.5425
  575SOL    HW1 1724   0.413   1.036   1.275  1.4783 -0.5200  1.0263
  575SOL    HW2 1725   0.382   1.186   1.332  2.0851 -1.8167 -3.2775
  576SOL     OW 1726   2.519   0.567   0.931  0.1763 -0.2137 -0.3542
  576SOL    HW1 1727   2.578   0.498   0.964 -0.2039  2.7102  0.1290
  576SOL    HW2 1728   2.448   0.533   0.865  4.1973 -0.3726 -0.3822
  577SOL     OW 1729   1.523   0.680   2.486  0.0729 -0.4199  0.4831
  577SOL    HW1 1730   1.441   0.710   2.534 -0.2957 -0.9857 -1.5785
  577SOL    HW2 1731   1.505   0.668   2.386  0.1711  0.1624 -2.2720
  578SOL     OW 1732   2.034   1.460   2.560  0.3592 -0.0428 -0.3117
  578SOL    HW1 1733   1.993   1.508   2.644 -3.2784  0.8071  4.6344
  578SOL    HW2 1734   2.120   1.502   2.527  0.9098  1.9726 -1.0047
  579SOL     OW 1735   0.722   1.680   1.419 -0.0747 -0.4282  0.0428
  579SOL    HW1 1736   0.667   1.695   1.503  0.1802  0.9686 -2.6333
  579SOL    HW2 1737   0.677   1.619   1.352 -0.3102 -1.2725 -0.9432
  580SOL     OW 1738   1.527   2.288   0.192  0.2948  0.7501 -0.2692
  580SOL    HW1 1739   1.528   2.358   0.115 -0.2715 -1.2935  0.3533
  580SOL    HW2 1740   1.615   2.248   0.220  1.2063 -1.4337 -0.7268
  581SOL     OW 1741   0.925   0.968   2.158  0.3079 -0.4978 -0.0553
  581SOL    HW1 1742   0.861   0.989   2.081 -0.4084 -1.3074 -0.0353
  581SOL    HW2 1743   0.971   0.870   2.156  3.4953 -3.4478  0.6932
  582SOL     OW 1744   0.667   1.110   1.166 -0.2878  0.1756 -0.2328
  582SOL    HW1 1745   0.629   1.032   1.107  0.0926  0.2350  0.8782
  582SOL    HW2 1746   0.760   1.135   1.142 -0.1244 -1.2594 -0.5914
  583SOL     OW 1747   0.769   1.222   2.027 -0.0895  0.0092 -0.1199
  583SOL    HW1 1748   0.787   1.313   1.985 -1.0486  0.5122  1.8367
  583SOL    HW2 1749   0.785   1.229   2.131  2.4529  0.9530  2.7463
  584SOL     OW 1750   2.143   2.751   0.300 -0.3014 -0.2368 -0.3624
  584SOL    HW1 1751   2.045   2.763   0.300  1.0096  0.1953  0.1991
  584SOL    HW2 1752   2.188   2.824   0.355 -0.6687 -1.0235 -0.9364
  585SOL     OW 1753   1.956   0.256   2.723 -0.2169 -0.2594  0.0715
  585SOL    HW1 1754   1.950   0.155   2.731 -1.1101  3.8963  0.1441
  585SOL    HW2 1755   1.928   0.288   2.632  0.3334 -1.1343  1.5678
  586SOL     OW 1756   0.071   1.719   0.424 -0.0785 -0.0990  0.2305
  586SOL    HW1 1757   3.099   1.734   0.478  1.5968  0.1051 -1.4014
  586SOL    HW2 1758   0.035   1.682   0.334  0.9371  1.6245 -3.2762
  587SOL     OW 1759   1.887   1.895   0.636  0.6510  0.6444 -0.2312
  587SOL    HW1 1760   1.884   1.793   0.635  0.7281 -1.8954 -1.1412
  587SOL    HW2 1761   1.950   1.930   0.564  1.2927 -0.4510 -2.1371
  588SOL     OW 1762   0.384   0.311   0.910 -0.3797 -0.0633  0.0030
  588SOL    HW1 1763   0.344   0.237   0.968  0.4855  0.9165  1.6216
  588SOL    HW2 1764   0.435   0.272   0.832 -0.0190  0.6266  1.6175
  589SOL     OW 1765   1.185   0.758   0.838  0.2346 -0.4038  0.3571
  589SOL    HW1 1766   1.279   0.738   0.810 -1.4552  0.2774 -0.3735
  589SOL    HW2 1767   1.190   0.847   0.891 -1.2458  1.6781  2.9705
  590SOL     OW 1768   1.422   1.052   0.261 -0.2679 -0.0785  0.2581
  590SOL    HW1 1769   1.457   1.126   0.202  2.9637 -3.2252  0.1366
  590SOL    HW2 1770   1.356   1.082   0.329  0.5976 -0.1540 -2.4810
  591SOL     OW 1771   2.643   2.656   2.482  0.2561  0.1266  0.3115
  591SOL    HW1 1772   2.618   2.713   2.403 -2.7530  0.7739  0.1454
  591SOL    HW2 1773   2.661   2.562   2.458  0.3815  0.8780 -0.5607
  592SOL     OW 1774   1.580   2.095   0.873 -0.3046 -0.5244  0.0044
  592SOL    HW1 1775   1.663   2.100   0.813 -2.1651  0.4264 -2.1860
  592SOL    HW2 1776   1.590   2.149   0.961  0.4619 -2.1360 -1.1770
  593SOL     OW 1777   1.131   0.103   1.072 -0.7496  0.6452 -0.3638
  593SOL    HW1 1778   1.186   0.019   1.070  2.0619  1.1745  3.6909
  593SOL    HW2 1779   1.154   0.150   1.157  0.8051 -1.3386 -1.7220
  594SOL     OW 1780   2.958   0.829   2.278  0.0229  0.5202 -0.5766
  594SOL    HW1 1781   3.014   0.892   2.224 -0.9556  0.8634  1.2263
  594SOL    HW2 1782   2.985   0.730   2.290 -3.1614  0.4576  3.9212
  595SOL     OW 1783   0.531   2.577   1.269 -0.1802 -0.4142 -0.9894
  595SOL    HW1 1784   0.480   2.587   1.184  0.6642  1.5907 -0.2011
  595SOL    HW2 1785   0.473   2.569   1.350  3.1359  2.1496 -2.8866
  596SOL     OW 1786   0.102   0.786   1.428 -0.6088 -0.1903 -0.3155
  596SOL    HW1 1787   0.135   0.814   1.333  1.6690 -1.6332 -1.0158
  596SOL    HW2 1788   0.031   0.715   1.424  2.8090  3.1825  0.0386
  597SOL     OW 1789   1.797   1.873   0.298 -0.2633  0.2712  0.1431
  597SOL    HW1 1790   1.707   1.835   0.314  0.8954  0.4135 -3.4181
  597SOL    HW2 1791   1.874   1.808   0.330  1.8618 -1.1010  1.5486
  598SOL     OW 1792   0.496   2.753   1.719 -0.2873 -0.4481 -0.6870
  598SOL    HW1 1793   0.475   2.704   1.634  1.2474  0.7314  1.1988
  598SOL    HW2 1794   0.580   2.716   1.763  1.7909 -1.9483 -0.4210
  599SOL     OW 1795   2.465   1.896   2.837  0.1668 -0.0514  0.3327
  599SOL    HW1 1796   2.391   1.957   2.811  0.7111 -0.2544 -1.5668
  599SOL    HW2 1797   2.465   1.878   2.936 -1.9235 -0.9427 -1.3150
  600SOL     OW 1798   0.824   0.788   0.307  0.0445 -0.2030  0.5694
  600SOL    HW1 1799   0.894   0.830   0.243 -0.7435  1.5564 -0.0909
  600SOL    HW2 1800   0.839   0.830   0.397 -2.1727  1.3705 -0.7080
  601SOL     OW 1801   0.966   0.847   0.543 -0.2579 -0.0319 -0.6749
  601SOL    HW1 1802   0.971   0.916   0.620 -0.0680 -0.2351 -0.4523
  601SOL    HW2 1803   1.017   0.763   0.572 -1.3718  1.4621 -0.8164
  602SOL     OW 1804   1.420   2.925   0.846 -0.0591 -0.0381  0.3077
  602SOL    HW1 1805   1.513   2.969   0.842  0.3927  1.6683 -0.5865
  602SOL    HW2 1806   1.384   2.885   0.760  0.2444 -1.8123  2.6369
  603SOL     OW 1807   0.709   2.672   2.165  0.1795  0.4250  0.1225
  603SOL    HW1 1808   0.645   2.749   2.143  2.3307  0.2251 -1.2181
  603SOL    HW2 1809   0.802   2.712   2.153  3.0278 -2.0462  0.5920
  604SOL     OW 1810   0.013   0.139   2.289  0.2066  1.0135  0.3037
  604SOL    HW1 1811   0.037   0.067   2.222  2.6928 -1.4007 -1.6491
  604SOL    HW2 1812   0.094   0.182   2.338  1.4064  0.2322  1.9868
  605SOL     OW 1813   2.693   1.966   1.228  0.1910 -0.1620 -0.3346
  605SOL    HW1 1814   2.623   2.010   1.170 -0.3864 -0.2896  0.4990
  605SOL    HW2 1815   2.695   2.008   1.322  1.1738  2.7018  1.2203
  606SOL     OW 1816   0.329   1.567   3.033  0.0444 -0.0147  0.1672
  606SOL    HW1 1817   0.344   1.665   3.059 -0.1522  1.0068 -0.7653
  606SOL    HW2 1818   0.307   1.554   2.930 -1.9003 -1.9677  1.6125
  607SOL     OW 1819   0.894   0.245   0.303 -0.2317  0.2445  0.3282
  607SOL    HW1 1820   0.834   0.171   0.277  1.0433  1.5693 -0.1090
  607SOL    HW2 1821   0.918   0.302   0.225 -3.0544 -0.3389  1.1393
  608SOL     OW 1822   1.617   1.110   2.401  0.4170 -0.0142 -0.1395
  608SOL    HW1 1823   1.705   1.155   2.422  0.0362 -0.9940  1.1944
  608SOL    HW2 1824   1.593   1.035   2.468 -0.1880  0.7773  0.4727
  609SOL     OW 1825   3.014   0.273   0.834 -0.3804  0.0925  0.8448
  609SOL    HW1 1826   3.045   0.245   0.925 -0.3705  0.3511 -0.9138
  609SOL    HW2 1827   2.961   0.361   0.853 -2.0469 -0.3391  0.1915
  610SOL     OW 1828   0.585   2.757   0.607  0.2087 -0.0668 -0.2295
  610SOL    HW1 1829   0.664   2.696   0.589 -0.9118 -0.8690 -0.7139
  610SOL    HW2 1830   0.575   2.781   0.705  0.2601 -0.5336 -0.3477
  611SOL     OW 1831   1.602   1.016   2.837  0.8722  0.2375  0.5307
  611SOL    HW1 1832   1.612   0.929   2.895  1.5092  0.1054 -1.4368
  611SOL    HW2 1833   1.585   1.098   2.894  2.1490  0.7821 -1.2907
  612SOL     OW 1834   0.972   2.130   2.441 -0.0229  0.1230  0.3682
  612SOL    HW1 1835   0.928   2.083   2.517 -0.5647  3.4243 -2.2942
  612SOL    HW2 1836   0.987   2.230   2.457  3.3969 -0.8170  1.7996
  613SOL     OW 1837   1.169   2.282   0.178 -0.7621 -0.1314 -0.4870
  613SOL    HW1 1838   1.250   2.245   0.228 -0.9515  3.1755  1.0573
  613SOL    HW2 1839   1.158   2.240   0.088 -1.2675  0.1522 -1.0631
  614SOL     OW 1840   2.611   3.085   1.492 -0.3287  0.1794  0.6170
  614SOL    HW1 1841   2.673   3.023   1.442 -0.2124  1.4131  3.9543
  614SOL    HW2 1842   2.654   0.014   1.575 -0.0552 -0.9920 -0.5396
  615SOL     OW 1843   2.288   1.410   0.002  0.0656  0.2631 -0.0578
  615SOL    HW1 1844   2.283   1.503   3.071  0.9290 -0.5630 -4.0298
  615SOL    HW2 1845   2.378   1.399   0.051  0.1940 -0.5997 -3.3383
  616SOL     OW 1846   1.502   0.053   0.418  0.2783 -0.3130 -0.0910
  616SOL    HW1 1847   1.415   0.003   0.453 -1.3024 -3.0408  3.0113
  616SOL    HW2 1848   1.571   0.066   0.494  1.0627  1.5423  1.7714
  617SOL     OW 1849   1.001   1.057   0.139 -0.1434 -0.3464  0.1288
  617SOL    HW1 1850   0.910   1.047   0.098 -0.7560  3.0771  2.1933
  617SOL    HW2 1851   1.013   1.153   0.178 -0.5816  0.9970  1.1755
  618SOL     OW 1852   0.723   0.323   2.030 -0.3108 -0.3234 -0.5833
  618SOL    HW1 1853   0.674   0.328   2.120 -0.9997 -1.5237  2.7413
  618SOL    HW2 1854   0.664   0.384   1.970  0.0243  1.4323  0.7554
  619SOL     OW 1855   3.065   0.989   1.492 -0.0895 -0.7492  0.5021
  619SOL    HW1 1856   0.021   0.912   1.486  1.0601  1.2211 -3.4440
  619SOL    HW2 1857   3.042   1.025   1.394  0.1838  1.5230 -1.7155
  620SOL     OW 1858   1.971   1.153   2.796  0.3467  0.7781 -0.0438
  620SOL    HW1 1859   2.061   1.205   2.792  1.3777  1.4708 -1.4126
  620SOL    HW2 1860   1.966   1.085   2.720 -1.1597  0.5543 -1.9769
  621SOL     OW 1861   2.609   2.624   1.315  0.7778  0.4585  0.0626
  621SOL    HW1 1862   2.637   2.710   1.350  1.0095 -1.2653 -3.8091
  621SOL    HW2 1863   2.563   2.574   1.391  1.3452  0.0752 -1.6890
  622SOL     OW 1864   1.322   0.728   2.704  0.3335  0.5117  0.2135
  622SOL    HW1 1865   1.333   0.833   2.720 -0.1244  3.0577  0.2325
  622SOL    HW2 1866   1.305   0.674   2.793  1.5741 -3.2863  0.4678
  623SOL     OW 1867   1.156   0.395   3.036  0.1450 -0.4601  0.2077
  623SOL    HW1 1868   1.239   0.444   2.999 -0.8085 -2.7771  3.2245
  623SOL    HW2 1869   1.069   0.428   2.994  3.7491  2.4407  1.0329
  624SOL     OW 1870   1.830   0.508   0.016  0.3218  0.4901  0.1227
  624SOL    HW1 1871   1.864   0.593   0.063  2.5491 -2.1571 -1.6283
  624SOL    HW2 1872   1.894   0.490   3.049  0.4509  0.0443 -1.3472
  625SOL     OW 1873   0.925   1.282   1.031  0.2163 -0.2034  0.1003
  625SOL    HW1 1874   0.927   1.184   1.049 -0.0804  3.1171  3.1419
  625SOL    HW2 1875   0.916   1.315   1.127  2.1041 -1.5690 -1.4369
  626SOL     OW 1876   1.536   1.241   2.963 -0.1319  0.3570  0.2158
  626SOL    HW1 1877   1.533   1.249   3.065  0.9194 -1.4934 -1.8599
  626SOL    HW2 1878   1.460   1.293   2.924  0.3170 -2.8469  2.4133
  627SOL     OW 1879   0.952   2.767   2.061  0.3008 -0.1483 -0.1019
  627SOL    HW1 1880   0.962   2.692   1.996  2.3139  1.8969 -1.0903
  627SOL    HW2 1881   1.045   2.805   2.073 -1.0724 -1.3671 -0.3197
  628SOL     OW 1882   2.487   0.322   2.348 -0.4317 -0.1983 -0.0506
  628SOL    HW1 1883   2.532   0.332   2.255  0.4913 -2.6519  0.1764
  628SOL    HW2 1884   2.557   0.320   2.419  0.7904  0.0914 -2.0918
  629SOL     OW 1885   0.775   0.793   2.993  0.6154 -0.0695 -0.3086
  629SOL    HW1 1886   0.839   0.792   2.913  0.4154 -1.3464  0.9028
  629SOL    HW2 1887   0.804   0.725   3.065 -0.2263  1.7859  2.1760
  630SOL     OW 1888   1.285   0.260   2.040 -0.6290 -0.1770 -0.3097
  630SOL    HW1 1889   1.208   0.237   2.100  1.9833  0.9468 -0.2111
  630SOL    HW2 1890   1.354   0.317   2.092 -0.8577 -0.0528 -0.9602
  631SOL     OW 1891   2.745   0.626   0.682 -0.1287  0.3770  0.0683
  631SOL    HW1 1892   2.656   0.666   0.649 -2.7943  2.7868 -0.9165
  631SOL    HW2 1893   2.822   0.642   0.612  2.9996  0.9681 -2.1061
  632SOL     OW 1894   2.090   1.074   1.258  0.1584 -0.2526 -0.0548
  632SOL    HW1 1895   1.990   1.061   1.269 -0.7387  1.6127 -1.1817
  632SOL    HW2 1896   2.132   1.017   1.184  1.3869 -0.1547 -0.5756
  633SOL     OW 1897   1.443   0.689   0.772  0.1405 -0.0016  0.1608
  633SOL    HW1 1898   1.502   0.755   0.724 -2.5836 -0.4246 -1.3982
  633SOL    HW2 1899   1.471   0.675   0.869  1.2766  0.0812 -4.0025
  634SOL     OW 1900   1.906   2.968   0.743  0.4505 -0.1380 -0.4864
  634SOL    HW1 1901   1.953   3.034   0.810 -0.3882  0.8226 -1.8291
  634SOL    HW2 1902   1.802   2.967   0.764 -1.3247 -1.9257 -0.3341
  635SOL     OW 1903   1.593   0.865   1.197  0.1558  0.6636 -0.2761
  635SOL    HW1 1904   1.597   0.838   1.101 -2.0821 -0.4633  2.2047
  635SOL    HW2 1905   1.497   0.862   1.234  0.0947  1.7125 -0.7353
  636SOL     OW 1906   0.613   0.461   0.750 -0.3523 -0.4733  0.5691
  636SOL    HW1 1907   0.576   0.497   0.840  0.0941  1.5387 -1.1502
  636SOL    HW2 1908   0.705   0.422   0.755 -0.7538  0.6549  1.1915
  637SOL     OW 1909   2.012   2.336   0.480  1.0546 -0.4520 -0.2245
  637SOL    HW1 1910   2.055   2.295   0.564 -0.0449 -1.6755  1.0696
  637SOL    HW2 1911   2.081   2.386   0.427 -1.1854 -0.1327  1.2255
  638SOL     OW 1912   1.647   2.857   2.682 -0.0953 -0.4391 -0.5715
  638SOL    HW1 1913   1.646   2.828   2.780  1.2568 -0.3031 -0.9800
  638SOL    HW2 1914   1.729   2.826   2.639  1.0548  0.5704  1.9337
  639SOL     OW 1915   0.748   2.112   1.293  0.2418 -0.4654  0.3224
  639SOL    HW1 1916   0.822   2.182   1.294  1.0971  0.1555 -0.5228
  639SOL    HW2 1917   0.666   2.150   1.240 -0.3479  1.3042 -2.7958
  640SOL     OW 1918   0.163   2.616   0.402 -0.6379 -0.2157  0.0953
  640SOL    HW1 1919   0.081   2.679   0.396  2.1247 -0.6272  1.7532
  640SOL    HW2 1920   0.209   2.640   0.491 -0.7015 -1.6163 -1.7730
  641SOL     OW 1921   0.168   0.387   0.017 -0.0071  0.2555 -0.4167
  641SOL    HW1 1922   0.245   0.363   0.076 -1.0909  0.0788  0.3840
  641SOL    HW2 1923   0.202   0.388   3.032 -0.3600 -1.2840  0.9287
  642SOL     OW 1924   3.099   1.030   1.023  0.8326  0.4235 -0.2668
  642SOL    HW1 1925   3.025   0.997   0.963  1.0591  0.6197 -0.7071
  642SOL    HW2 1926   0.041   1.098   0.971  0.8413 -1.7123  4.3175
  643SOL     OW 1927   0.583   1.962   2.106  0.1157 -0.9108 -0.1402
  643SOL    HW1 1928   0.579   2.063   2.081  1.8832  5.0623  0.2815
  643SOL    HW2 1929   0.674   1.920   2.090  1.0141 -0.1486  0.1761
  644SOL     OW 1930   1.792   2.563   0.506 -0.6031  0.0063 -0.4921
  644SOL    HW1 1931   1.847   2.482   0.535  0.0707  1.2372  0.0509
  644SOL    HW2 1932   1.694   2.529   0.488 -0.5260 -0.4877  0.2762
  645SOL     OW 1933   1.662   2.486   1.005 -0.2160 -0.3823  0.2098
  645SOL    HW1 1934   1.721   2.545   1.066  0.2372 -0.5584  0.5068
  645SOL    HW2 1935   1.566   2.526   0.992  0.1661  1.1385  0.0663
  646SOL     OW 1936   1.303   2.681   0.245 -0.5603  0.3075 -0.5241
  646SOL    HW1 1937   1.283   2.650   0.338 -1.8207 -1.5987 -0.7724
  646SOL    HW2 1938   1.247   2.767   0.227 -1.9202  4.6679  0.0449
  647SOL     OW 1939   0.466   2.998   1.853 -0.3539  0.0245 -0.2164
  647SOL    HW1 1940   0.369   3.024   1.854 -0.1189 -1.1041  0.3857
  647SOL    HW2 1941   0.479   2.913   1.796 -0.3625  1.1702 -0.5754
  648SOL     OW 1942   1.814   0.990   1.291 -0.6530  0.2184  0.0668
  648SOL    HW1 1943   1.786   0.999   1.387  0.2056 -0.5625 -0.8370
  648SOL    HW2 1944   1.742   0.944   1.232  0.0277 -3.5774 -1.8586
  649SOL     OW 1945   1.638   2.171   2.829  0.4767 -0.6273  0.6561
  649SOL    HW1 1946   1.691   2.087   2.850  0.8712  3.1504  2.9782
  649SOL    HW2 1947   1.564   2.188   2.896 -0.4942  1.1556  1.3048
  650SOL     OW 1948   2.541   1.724   1.792  0.3800  0.2945  0.6942
  650SOL    HW1 1949   2.545   1.824   1.818  1.1312  0.3017  2.2791
  650SOL    HW2 1950   2.592   1.666   1.857  1.2845 -1.7023 -1.2606
  651SOL     OW 1951   1.434   1.846   2.798 -0.0688 -0.0851  0.0215
  651SOL    HW1 1952   1.441   1.745   2.798 -0.5472  0.0510 -0.2047
  651SOL    HW2 1953   1.509   1.882   2.739  0.8478  0.5277 -0.6685
  652SOL     OW 1954   0.923   2.841   2.877  0.0324  0.5992  0.7349
  652SOL    HW1 1955   0.972   2.747   2.882  0.1659 -2.1023 -0.6940
  652SOL    HW2 1956   0.988   2.917   2.901 -2.7892 -0.0124 -2.4284
  653SOL     OW 1957   2.223   2.232   1.170  0.3249 -0.0367  0.3123
  653SOL    HW1 1958   2.210   2.130   1.161  0.8695  2.0637  0.1588
  653SOL    HW2 1959   2.154   2.283   1.110  1.6492  1.1301  0.0458
  654SOL     OW 1960   2.754   2.737   1.912  0.1228  0.3575  0.4981
  654SOL    HW1 1961   2.736   2.710   1.815  1.4024  0.5881 -0.9517
  654SOL    HW2 1962   2.721   2.670   1.979  1.3805 -1.3364 -1.7604
  655SOL     OW 1963   2.947   2.076   1.175 -0.5694 -0.1379  0.4090
  655SOL    HW1 1964   2.949   2.076   1.071  0.4387  1.4036 -0.7384
  655SOL    HW2 1965   2.854   2.045   1.204  0.3134  0.7470  0.2673
  656SOL     OW 1966   0.412   2.676   2.713 -0.0602 -0.3511  0.2077
  656SOL    HW1 1967   0.453   2.637   2.627  0.3767 -0.3836 -0.0847
  656SOL    HW2 1968   0.421   2.615   2.795 -0.1503  0.4938 -0.4784
  657SOL     OW 1969   2.848   0.878   0.351 -0.3913 -0.1476 -0.1152
  657SOL    HW1 1970   2.889   0.832   0.434  2.2450  0.2584  2.5281
  657SOL    HW2 1971   2.804   0.810   0.289 -0.0636  0.3629  0.5151
  658SOL     OW 1972   1.510   1.856   0.951  0.7133  0.4471  0.4480
  658SOL    HW1 1973   1.446   1.859   1.031  1.9843  0.9383  1.6678
  658SOL    HW2 1974   1.542   1.947   0.910  2.5723 -0.7434 -1.1216
  659SOL     OW 1975   1.476   0.457   1.282 -0.2321  0.2400  0.0145
  659SOL    HW1 1976   1.512   0.362   1.288 -0.1543 -0.6408  0.4887
  659SOL    HW2 1977   1.443   0.468   1.186 -0.4210  2.2455 -0.8511
  660SOL     OW 1978   1.695   1.163   0.475  0.3437 -0.1803  0.2260
  660SOL    HW1 1979   1.706   1.060   0.465  0.5694 -0.7329  0.5486
  660SOL    HW2 1980   1.594   1.183   0.472  0.2295 -0.5890  1.8162
  661SOL     OW 1981   0.289   1.588   0.369  0.1571  0.3876 -0.4091
  661SOL    HW1 1982   0.263   1.545   0.279 -0.2608 -1.0508 -1.9918
  661SOL    HW2 1983   0.206   1.633   0.407 -1.6217 -0.1246 -1.7908
  662SOL     OW 1984   3.039   1.256   2.133 -0.0583 -0.0915 -0.0516
  662SOL    HW1 1985   2.988   1.248   2.043  1.0668 -2.5844  0.8972
  662SOL    HW2 1986   2.983   1.302   2.207  2.8824 -0.6478  2.4374
  663SOL     OW 1987   2.263   1.486   1.374  0.2548 -0.1528  0.0596
  663SOL    HW1 1988   2.328   1.554   1.333 -0.8465 -0.6290 -1.3575
  663SOL    HW2 1989   2.306   1.443   1.456 -0.2145 -1.1091 -2.4447
  664SOL     OW 1990   0.668   0.052   1.060 -0.4950  0.2774  0.0097
  664SOL    HW1 1991   0.730   3.095   1.109 -0.1417 -0.8352 -1.5678
  664SOL    HW2 1992   0.610   0.091   1.138  0.0817 -0.4388 -0.2462
  665SOL     OW 1993   1.213   2.960   2.788 -0.3506  0.1017  0.2260
  665SOL    HW1 1994   1.291   2.998   2.730  3.1238 -0.2798 -0.8560
  665SOL    HW2 1995   1.241   2.967   2.888 -1.0879  0.2567  1.3128
  666SOL     OW 1996   0.406   0.614   2.187  0.0601 -0.3830 -0.2438
  666SOL    HW1 1997   0.415   0.575   2.091  0.9219 -1.1113  0.9349
  666SOL    HW2 1998   0.308   0.611   2.221 -1.7955 -0.0070 -0.8747
  667SOL     OW 1999   1.824   1.455   2.314 -0.4768 -0.0703  0.4625
  667SOL    HW1 2000   1.905   1.457   2.251  2.7388  0.5154 -0.1195
  667SOL    HW2 2001   1.827   1.371   2.370 -0.2927 -4.5547 -0.3727
  668SOL     OW 2002   0.061   1.586   2.760 -0.1329  0.3408  0.3723
  668SOL    HW1 2003   0.034   1.507   2.815  0.9871 -0.1650  2.5735
  668SOL    HW2 2004   0.050   1.662   2.830 -0.1642 -0.5096  3.5346
  669SOL     OW 2005   2.339   2.950   2.475  0.0632 -0.4322  0.2675
  669SOL    HW1 2006   2.422   3.006   2.459 -1.0494 -1.4726 -0.5150
  669SOL    HW2 2007   2.355   2.886   2.549 -0.9485  2.6211 -0.4636
  670SOL     OW 2008   2.609   0.982   2.445 -0.7171  0.0210 -0.0334
  670SOL    HW1 2009   2.651   0.904   2.392 -0.6299 -0.6627 -1.3697
  670SOL    HW2 2010   2.568   0.962   2.536 -1.6122  0.6456 -2.0982
  671SOL     OW 2011   2.501   1.846   3.097  0.0629  0.2063  0.1989
  671SOL    HW1 2012   2.488   1.918   0.056  2.2591  0.2831 -1.7781
  671SOL    HW2 2013   2.598   1.817   3.085  0.4122  0.0058 -1.5282
  672SOL     OW 2014   2.503   1.562   2.254  0.5276  0.3393 -0.3544
  672SOL    HW1 2015   2.447   1.489   2.296  1.1147  1.3722  0.4742
  672SOL    HW2 2016   2.459   1.610   2.177  1.3656  0.4459  1.2316
  673SOL     OW 2017   2.995   1.405   1.135  0.0517  0.3293 -0.4332
  673SOL    HW1 2018   3.030   1.486   1.087  0.3579 -0.5003 -0.7460
  673SOL    HW2 2019   3.073   1.338   1.138 -0.0703  0.1867  0.8807
  674SOL     OW 2020   1.325   1.785   1.884 -0.1992 -0.2693 -0.5425
  674SOL    HW1 2021   1.373   1.878   1.879  0.0108  2.3095 -0.0682
  674SOL    HW2 2022   1.332   1.736   1.793 -1.4415 -1.0479 -1.1951
  675SOL     OW 2023   2.691   0.353   0.993  0.0966 -0.3087 -0.0770
  675SOL    HW1 2024   2.762   0.426   0.995 -1.9009 -1.4050  1.6809
  675SOL    HW2 2025   2.729   0.267   1.032  2.6034 -1.1147  0.8593
  676SOL     OW 2026   2.800   1.346   0.623 -0.2366  0.2927  0.0674
  676SOL    HW1 2027   2.736   1.353   0.702  0.1107  0.6057 -0.4866
  676SOL    HW2 2028   2.836   1.250   0.612  1.3288 -1.9656 -2.6253
  677SOL     OW 2029   1.617   1.487   2.148 -0.1007 -0.2944 -0.4132
  677SOL    HW1 2030   1.692   1.489   2.220  2.8756 -1.0077  1.3872
  677SOL    HW2 2031   1.585   1.391   2.140  0.9722 -3.5778 -0.1597
  678SOL     OW 2032   2.501   1.438   1.069  0.3092 -0.4051  0.4584
  678SOL    HW1 2033   2.555   1.490   1.140 -1.6551 -0.0111 -0.1398
  678SOL    HW2 2034   2.414   1.400   1.106 -1.3687  1.3564 -0.4248
  679SOL     OW 2035   0.397   2.559   1.015 -0.3025 -0.0487 -0.5877
  679SOL    HW1 2036   0.477   2.547   0.949 -1.5896  3.0847  0.6524
  679SOL    HW2 2037   0.331   2.629   0.983 -1.8951  1.0245 -0.8201
  680SOL     OW 2038   2.815   1.736   1.188 -0.2976  0.4017  0.2374
  680SOL    HW1 2039   2.915   1.764   1.210  1.1284  0.4780  0.5127
  680SOL    HW2 2040   2.744   1.800   1.223  1.1569  1.9436 -1.0356
  681SOL     OW 2041   0.780   0.804   1.229 -0.3403 -0.1945 -0.2011
  681SOL    HW1 2042   0.835   0.824   1.315  1.5316  0.4740  1.4979
  681SOL    HW2 2043   0.757   0.704   1.219  0.8408  0.0089 -0.2975
  682SOL     OW 2044   1.653   3.088   0.813  0.2190 -0.5756  0.8348
  682SOL    HW1 2045   1.619   0.037   0.884  1.2884 -0.4549 -4.2164
  682SOL    HW2 2046   1.691   0.032   0.737 -0.5617 -1.1159 -1.2013
  683SOL     OW 2047   2.580   1.411   1.686  0.3189 -0.2526  0.4018
  683SOL    HW1 2048   2.640   1.495   1.684  0.1559  1.5255 -3.4338
  683SOL    HW2 2049   2.634   1.324   1.680 -0.3234  3.2345  0.0788
  684SOL     OW 2050   0.154   1.579   1.576 -0.6044 -0.2231 -0.3400
  684SOL    HW1 2051   0.095   1.508   1.617  0.6641 -1.5209  0.7971
  684SOL    HW2 2052   0.225   1.612   1.644  0.1067 -0.2145  0.4166
  685SOL     OW 2053   2.002   1.684   0.339  0.1686  0.4718 -0.5912
  685SOL    HW1 2054   2.053   1.754   0.394 -1.3647  2.7413  1.5528
  685SOL    HW2 2055   2.031   1.590   0.363 -2.1025 -0.5332  0.6101
  686SOL     OW 2056   2.804   0.130   0.762 -0.0268 -0.0830 -0.4790
  686SOL    HW1 2057   2.878   0.179   0.809  2.2801  1.3186  0.1537
  686SOL    HW2 2058   2.725   0.190   0.735 -1.9166  0.1092  0.7974
  687SOL     OW 2059   1.437   3.061   2.670 -0.3895 -0.2234  0.1497
  687SOL    HW1 2060   1.468   0.036   2.714 -0.1550 -0.2953  0.0013
  687SOL    HW2 2061   1.506   2.988   2.680 -0.1453  2.0485  1.0740
  688SOL     OW 2062   1.622   1.800   2.322  0.2676 -0.0737  0.2490
  688SOL    HW1 2063   1.707   1.771   2.372  0.1156 -0.0567  0.1127
  688SOL    HW2 2064   1.643   1.873   2.254  0.8012 -0.8562 -1.3865
  689SOL     OW 2065   2.675   1.246   1.946 -0.2924 -0.0250 -0.2636
  689SOL    HW1 2066   2.698   1.337   1.983  0.5335  0.5536 -2.1312
  689SOL    HW2 2067   2.754   1.186   1.971  0.4766 -2.3111 -0.8770
  690SOL     OW 2068   1.840   2.122   1.066  0.2473  0.1831  0.1900
  690SOL    HW1 2069   1.821   2.104   1.164 -1.4993  3.4130 -2.6181
  690SOL    HW2 2070   1.887   2.044   1.021  0.5488 -0.3900  1.7753
  691SOL     OW 2071   0.553   1.351   1.097 -0.1446  0.4565  0.0584
  691SOL    HW1 2072   0.593   1.280   1.155  1.1573  0.0734  4.6120
  691SOL    HW2 2073   0.474   1.315   1.040  1.4311 -2.1537 -0.0931
  692SOL     OW 2074   2.526   3.026   2.118 -0.1382  0.4250 -0.0844
  692SOL    HW1 2075   2.446   3.091   2.117  1.3840 -0.4820  0.0418
  692SOL    HW2 2076   2.568   3.030   2.027 -3.3986 -3.1184  2.4325
  693SOL     OW 2077   3.052   1.526   2.505  0.3776 -0.0964 -0.8092
  693SOL    HW1 2078   3.092   1.516   2.604  0.1213  0.0126  2.8514
  693SOL    HW2 2079   0.011   1.538   2.434  0.8967 -0.2651  0.4997
  694SOL     OW 2080   2.002   0.348   1.203 -0.1727  0.3276 -0.1976
  694SOL    HW1 2081   2.019   0.340   1.302  2.0254  0.0928 -0.0932
  694SOL    HW2 2082   1.977   0.448   1.185 -0.2224  2.4402  1.3137
  695SOL     OW 2083   1.317   0.864   0.040  0.4571  0.3368 -0.0112
  695SOL    HW1 2084   1.290   0.865   0.140  0.9477 -1.3724 -1.8462
  695SOL    HW2 2085   1.411   0.903   0.031  0.1471 -1.6944  1.6016
  696SOL     OW 2086   1.875   0.179   1.896 -0.5067  0.4518 -0.1244
  696SOL    HW1 2087   1.846   0.206   1.991 -0.0468 -0.3559 -0.1868
  696SOL    HW2 2088   1.804   0.193   1.827  3.6925  2.0566  1.6227
  697SOL     OW 2089   1.583   0.127   2.242 -0.2423  0.0305 -0.0931
  697SOL    HW1 2090   1.569   0.165   2.338  0.0382 -0.7943 -0.5697
  697SOL    HW2 2091   1.615   0.199   2.174  0.2595 -0.4323 -0.8712
  698SOL     OW 2092   1.793   1.686   2.486 -0.4188  0.3942  0.2838
  698SOL    HW1 2093   1.725   1.653   2.556  1.7283 -0.2909  0.6941
  698SOL    HW2 2094   1.812   1.605   2.422 -1.5137 -1.0228 -1.6234
  699SOL     OW 2095   1.931   0.575   0.368  0.0272 -0.2710  0.0530
  699SOL    HW1 2096   1.923   0.647   0.295  1.8093  0.1670 -0.9503
  699SOL    HW2 2097   1.862   0.501   0.361 -1.6630  0.5338 -1.4775
  700SOL     OW 2098   1.505   2.989   0.012  0.0282 -0.2189  0.5063
  700SOL    HW1 2099   1.523   2.991   0.112 -1.2028  1.1827 -4.2910
  700SOL    HW2 2100   1.407   3.002   3.108  2.8115 -0.5707  1.8402
  701SOL     OW 2101   0.124   0.382   1.162 -0.4170 -0.1829 -0.1829
  701SOL    HW1 2102   0.107   0.479   1.148  2.3628  2.0241  0.9630
  701SOL    HW2 2103   0.050   0.323   1.126  0.3865  0.8744  2.7824
  702SOL     OW 2104   1.730   0.226   1.445  0.0783 -0.4518 -0.3289
  702SOL    HW1 2105   1.710   0.227   1.544  4.7219 -1.8401  0.6619
  702SOL    HW2 2106   1.781   0.139   1.431 -0.9182 -2.0191  1.0669
  703SOL     OW 2107   2.915   0.755   1.252  0.4080 -0.0810  0.4115
  703SOL    HW1 2108   2.842   0.692   1.288  1.2982  0.5722  1.1462
  703SOL    HW2 2109   2.887   0.852   1.231 -2.7763  2.3420 -0.7853
  704SOL     OW 2110   1.006   2.323   1.330 -0.3383  0.0812  0.3587
  704SOL    HW1 2111   1.103   2.315   1.297  2.1469  0.3704 -0.6927
  704SOL    HW2 2112   0.986   2.402   1.390 -0.6574 -1.5366  0.7386
  705SOL     OW 2113   0.394   1.651   2.410  0.3548  0.1284  0.0664
  705SOL    HW1 2114   0.412   1.682   2.317 -0.0475 -1.7946  3.4869
  705SOL    HW2 2115   0.393   1.726   2.473  0.2702 -2.0107 -1.1839
  706SOL     OW 2116   2.522   0.466   2.734 -0.3273 -0.3159 -0.4652
  706SOL    HW1 2117   2.477   0.379   2.709 -1.7790 -1.7662 -2.2595
  706SOL    HW2 2118   2.579   0.451   2.816 -1.9705 -1.5372  0.4269
  707SOL     OW 2119   1.861   2.661   2.260 -0.7321 -0.0652  0.4370
  707SOL    HW1 2120   1.920   2.726   2.208  0.2701 -0.5742  0.5978
  707SOL    HW2 2121   1.766   2.696   2.265  0.6229  0.5091  1.6396
  708SOL     OW 2122   0.741   2.374   1.651 -0.0443  0.0274  0.1757
  708SOL    HW1 2123   0.752   2.281   1.694 -0.5281 -2.6448 -2.0260
  708SOL    HW2 2124   0.652   2.415   1.675  1.1698 -1.3842 -0.1359
  709SOL     OW 2125   0.010   0.929   1.904 -0.0539 -0.2755 -0.2355
  709SOL    HW1 2126   0.060   0.938   1.815 -0.0706  0.6096  0.4479
  709SOL    HW2 2127   3.096   0.834   1.922  2.8777  1.7625  1.7422
  710SOL     OW 2128   0.130   0.396   1.442  0.6935 -0.2135  0.9630
  710SOL    HW1 2129   0.145   0.398   1.342 -1.6268 -0.8190  0.6336
  710SOL    HW2 2130   0.076   0.481   1.468 -1.2601 -0.5095  0.0920
  711SOL     OW 2131   3.051   2.564   1.119 -0.3074  0.3186 -0.2582
  711SOL    HW1 2132   3.034   2.483   1.175  3.1836  0.4875 -0.4587
  711SOL    HW2 2133   3.101   2.545   1.032  1.1458  0.4131 -3.2437
  712SOL     OW 2134   0.364   0.161   2.293  0.1106  0.0303 -0.3157
  712SOL    HW1 2135   0.379   0.061   2.324  0.1460 -4.2760 -0.4570
  712SOL    HW2 2136   0.319   0.218   2.367 -0.4876  0.6887  1.6109
  713SOL     OW 2137   2.396   0.259   0.389 -0.1937  0.0203 -0.1226
  713SOL    HW1 2138   2.316   0.298   0.338  1.4396  0.4862 -0.8008
  713SOL    HW2 2139   2.478   0.319   0.378 -0.8954  1.9672 -0.3710
  714SOL     OW 2140   1.692   1.589   0.089 -0.0941 -0.6016  0.1969
  714SOL    HW1 2141   1.632   1.625   0.164 -1.8863  3.4835 -0.7136
  714SOL    HW2 2142   1.759   1.529   0.132 -0.7543 -2.0254 -0.8117
  715SOL     OW 2143   3.039   0.239   0.544 -0.4585 -0.2863  0.6083
  715SOL    HW1 2144   3.089   0.154   0.536 -1.5384  3.9881  2.2337
  715SOL    HW2 2145   3.018   0.246   0.640  1.2191 -0.5948 -0.4808
  716SOL     OW 2146   1.212   0.555   2.036 -0.2018  0.2563  0.0169
  716SOL    HW1 2147   1.245   0.584   1.945  0.9007  0.1330 -1.9722
  716SOL    HW2 2148   1.145   0.479   2.035  0.0030 -0.7317  0.9505
  717SOL     OW 2149   0.240   0.381   2.852 -0.6085 -0.2721 -0.3179
  717SOL    HW1 2150   0.204   0.475   2.829 -1.1144 -0.3757 -1.8278
  717SOL    HW2 2151   0.283   0.347   2.769  0.0881  3.1985  0.2862
  718SOL     OW 2152   1.104   0.586   0.302 -0.0280  0.0244 -0.4113
  718SOL    HW1 2153   1.116   0.679   0.263  0.9110  0.6968  3.5984
  718SOL    HW2 2154   1.151   0.506   0.254  2.2329  0.2045  0.9427
  719SOL     OW 2155   2.587   2.291   2.710  0.1454 -0.0161  0.1525
  719SOL    HW1 2156   2.682   2.307   2.673 -0.0465 -1.5750 -3.6078
  719SOL    HW2 2157   2.520   2.293   2.633 -3.3801 -0.3916 -2.5580
  720SOL     OW 2158   1.350   0.879   1.301  0.6118  0.7302 -0.0088
  720SOL    HW1 2159   1.324   0.958   1.361  0.4297  0.8034 -1.3825
  720SOL    HW2 2160   1.316   0.784   1.328 -0.1861  0.4941  0.8878
  721SOL     OW 2161   3.015   2.718   1.367 -0.6287 -0.0727  0.3919
  721SOL    HW1 2162   3.062   2.676   1.450 -2.7507 -0.2229  1.1809
  721SOL    HW2 2163   2.998   2.643   1.296 -1.4134  1.9203 -2.5578
  722SOL     OW 2164   0.794   1.505   2.944  0.1536  0.1726 -0.0316
  722SOL    HW1 2165   0.738   1.458   3.016 -4.1743 -0.0329 -0.4483
  722SOL    HW2 2166   0.894   1.513   2.961  0.2324 -2.7986  0.5321
  723SOL     OW 2167   2.043   0.346   0.514 -0.5116  0.1329 -0.0155
  723SOL    HW1 2168   2.096   0.297   0.588 -0.5198  1.1050  0.5030
  723SOL    HW2 2169   1.966   0.398   0.555 -0.8384 -0.6498 -2.2545
  724SOL     OW 2170   0.800   2.254   0.020 -0.1555  0.4156  0.8947
  724SOL    HW1 2171   0.848   2.188   0.084 -0.2053 -1.3162  1.7284
  724SOL    HW2 2172   0.775   2.339   0.069 -1.3886  0.0550  0.1879
  725SOL     OW 2173   0.164   0.900   1.185  0.2073 -0.0625  0.4221
  725SOL    HW1 2174   0.100   0.949   1.123 -3.4162 -2.5011  0.9145
  725SOL    HW2 2175   0.225   0.967   1.229 -1.1433 -1.1518 -1.7366
  726SOL     OW 2176   2.542   0.706   0.487  0.7358  0.3423  0.8420
  726SOL    HW1 2177   2.582   0.799   0.490 -4.3439  0.7935 -3.1189
  726SOL    HW2 2178   2.471   0.699   0.564 -2.1639  2.1702  1.7541
  727SOL     OW 2179   1.872   1.230   2.516 -0.0505  0.1367  0.5276
  727SOL    HW1 2180   1.940   1.301   2.545  0.4899 -1.1058  0.1907
  727SOL    HW2 2181   1.900   1.138   2.552  0.5852 -3.1499  0.9090
  728SOL     OW 2182   1.843   3.082   1.426 -0.2502  0.3453 -0.1350
  728SOL    HW1 2183   1.932   3.059   1.466  1.0824  0.0696 -0.3369
  728SOL    HW2 2184   1.796   2.992   1.418 -0.7030 -0.4568  0.1643
  729SOL     OW 2185   2.241   0.781   2.150  0.6447  0.0135 -0.5831
  729SOL    HW1 2186   2.306   0.853   2.182 -1.3507  0.8578  4.3892
  729SOL    HW2 2187   2.150   0.821   2.139  1.5976 -1.5807  3.0059
  730SOL     OW 2188   0.949   0.723   1.471  0.2007 -0.4349 -0.2854
  730SOL    HW1 2189   1.034   0.723   1.531  1.8199 -1.2507  2.4231
  730SOL    HW2 2190   0.933   0.632   1.431  1.3136 -1.1358 -3.9836
  731SOL     OW 2191   0.197   0.305   0.299 -0.0794  0.4059 -0.3498
  731SOL    HW1 2192   0.156   0.270   0.383  0.8095 -0.5314 -2.0359
  731SOL    HW2 2193   0.223   0.401   0.321 -0.0672  0.0857 -0.7371
  732SOL     OW 2194   0.271   0.497   0.488 -0.1150 -0.0375  0.1087
  732SOL    HW1 2195   0.334   0.576   0.469 -2.6388 -0.2602 -1.0778
  732SOL    HW2 2196   0.183   0.522   0.532  0.8417  0.6139 -1.3377
  733SOL     OW 2197   1.610   1.588   2.670  0.4430  0.2277 -0.4496
  733SOL    HW1 2198   1.603   1.484   2.659  1.0346 -1.8099 -0.3332
  733SOL    HW2 2199   1.607   1.603   2.773 -0.9077 -2.2507 -0.2409
  734SOL     OW 2200   0.143   2.054   2.524  0.5677  0.6593 -0.2269
  734SOL    HW1 2201   0.219   2.074   2.458  3.3313  1.8893 -0.4508
  734SOL    HW2 2202   0.177   2.039   2.618 -0.5307 -1.6573  2.2102
  735SOL     OW 2203   1.911   0.610   1.240  0.4049  0.4686  0.4077
  735SOL    HW1 2204   1.964   0.670   1.301 -2.0620  0.7496 -0.9581
  735SOL    HW2 2205   1.809   0.620   1.260  0.4393  2.7277 -2.6421
  736SOL     OW 2206   1.077   1.436   0.036  0.5313  0.0223  0.0925
  736SOL    HW1 2207   1.003   1.443   0.104 -3.3118 -1.8636 -1.5018
  736SOL    HW2 2208   1.168   1.419   0.079  0.8588  1.2346 -0.4855
  737SOL     OW 2209   2.794   0.251   0.401 -0.3349 -0.0325 -0.8452
  737SOL    HW1 2210   2.773   0.347   0.369 -0.9996 -0.6898 -1.4493
  737SOL    HW2 2211   2.888   0.255   0.438 -0.1356  0.0336 -0.4655
  738SOL     OW 2212   0.749   2.119   1.754 -0.0509 -0.3596  0.0436
  738SOL    HW1 2213   0.683   2.061   1.698 -1.0057  0.1958  1.0653
  738SOL    HW2 2214   0.810   2.060   1.807 -1.8595  0.7199 -0.4549
  739SOL     OW 2215   1.245   2.747   2.531 -0.2122  0.3895  0.5021
  739SOL    HW1 2216   1.259   2.729   2.629  2.9841 -1.2718 -1.6475
  739SOL    HW2 2217   1.332   2.755   2.485 -0.1151  1.1380 -2.1430
  740SOL     OW 2218   1.950   2.543   1.649  0.1131 -0.0170 -0.3124
  740SOL    HW1 2219   1.927   2.477   1.576 -0.6732 -0.6360 -0.0978
  740SOL    HW2 2220   1.959   2.499   1.738  3.0878  3.0832  0.6621
  741SOL     OW 2221   2.280   0.631   0.284  0.5555  0.3015  0.2859
  741SOL    HW1 2222   2.373   0.635   0.317 -0.6664 -1.4892 -5.6602
  741SOL    HW2 2223   2.221   0.690   0.339 -0.4873 -0.4564 -2.3329
  742SOL     OW 2224   1.067   2.510   0.068 -0.4047  0.3655 -0.8572
  742SOL    HW1 2225   1.127   2.523   3.102  1.7858  2.1408 -0.0142
  742SOL    HW2 2226   1.100   2.425   0.119  1.8254 -1.5069  1.0415
  743SOL     OW 2227   2.440   0.760   1.945  0.1656  0.7357  0.0196
  743SOL    HW1 2228   2.348   0.761   1.986  4.1598 -1.5623  2.5357
  743SOL    HW2 2229   2.454   0.810   1.857  0.5388 -2.1707 -1.7144
  744SOL     OW 2230   2.419   0.404   0.747 -0.0985  0.3597  0.2557
  744SOL    HW1 2231   2.381   0.306   0.740  0.1049  0.0013  0.4925
  744SOL    HW2 2232   2.519   0.400   0.726 -0.8938 -1.5592  0.8980
  745SOL     OW 2233   2.665   1.145   1.646  0.1272 -0.5458  0.4593
  745SOL    HW1 2234   2.696   1.055   1.597 -0.7746 -0.2824  0.7968
  745SOL    HW2 2235   2.607   1.126   1.723  0.4823  0.9730  1.2047
  746SOL     OW 2236   1.270   1.502   0.611  0.1546  0.0526 -0.2699
  746SOL    HW1 2237   1.296   1.572   0.676  0.3122 -0.6414 -0.6500
  746SOL    HW2 2238   1.167   1.488   0.611 -1.9215  0.7566  0.2505
  747SOL     OW 2239   1.635   1.733   1.701  0.0535  0.0069  0.0604
  747SOL    HW1 2240   1.648   1.832   1.692 -0.4999 -1.3949 -0.2715
  747SOL    HW2 2241   1.534   1.710   1.697  0.6600  2.7817  1.3417
  748SOL     OW 2242   0.490   2.830   3.075 -0.2651  0.0181  0.1745
  748SOL    HW1 2243   0.540   2.749   3.037  2.1218 -3.7166 -1.5800
  748SOL    HW2 2244   0.463   2.814   0.059  0.8832  0.6338 -0.6054
  749SOL     OW 2245   0.412   1.261   2.635 -0.7050 -0.3567 -0.5437
  749SOL    HW1 2246   0.431   1.215   2.551 -1.3800  0.9060  2.2676
  749SOL    HW2 2247   0.487   1.320   2.663 -1.9050 -0.0345 -1.0475
  750SOL     OW 2248   1.808   0.753   2.254  0.3268 -0.7754  0.5242
  750SOL    HW1 2249   1.870   0.709   2.186  1.7308 -1.2655  2.1665
  750SOL    HW2 2250   1.720   0.778   2.208 -0.6211 -2.5708  0.7468
  751SOL     OW 2251   2.584   0.462   0.339 -0.5003  0.3901  0.6822
  751SOL    HW1 2252   2.577   0.471   0.238 -1.5835 -2.4761 -0.5436
  751SOL    HW2 2253   2.582   0.550   0.388  1.9695 -0.3940  0.7885
  752SOL     OW 2254   0.265   2.235   0.876 -0.1904 -0.1148 -0.0070
  752SOL    HW1 2255   0.200   2.180   0.816  2.3605  1.1799  0.2441
  752SOL    HW2 2256   0.288   2.186   0.961 -0.0966  1.1743 -4.3093
  753SOL     OW 2257   1.234   2.535   1.159 -0.6176 -0.3138 -0.3088
  753SOL    HW1 2258   1.253   2.436   1.169  2.5924  1.6568 -0.0459
  753SOL    HW2 2259   1.136   2.561   1.134 -0.3231  1.9350 -0.0018
  754SOL     OW 2260   0.216   3.082   1.855  0.2452 -0.2404  0.2906
  754SOL    HW1 2261   0.196   3.050   1.949 -1.9187 -0.2902  2.3939
  754SOL    HW2 2262   0.134   0.011   1.814  0.2911 -1.0734  0.1656
  755SOL     OW 2263   2.107   0.759   0.462  0.4186  0.0145  0.2285
  755SOL    HW1 2264   2.053   0.678   0.429 -0.3702  0.6365  0.7030
  755SOL    HW2 2265   2.092   0.775   0.561 -0.3597  1.8571  0.6180
  756SOL     OW 2266   2.262   2.459   2.480  0.2153 -0.1054 -0.0776
  756SOL    HW1 2267   2.241   2.420   2.574  0.4937 -0.4221  0.0229
  756SOL    HW2 2268   2.183   2.444   2.418  1.2047  0.1993 -1.4055
  757SOL     OW 2269   1.802   0.232   0.364 -0.1132 -0.1007  0.4518
  757SOL    HW1 2270   1.752   0.234   0.275  1.2106  2.1958 -0.2882
  757SOL    HW2 2271   1.901   0.262   0.354 -1.5746  2.3141  0.2931
  758SOL     OW 2272   2.240   0.673   1.319 -0.8066 -0.3649 -0.2857
  758SOL    HW1 2273   2.250   0.584   1.370 -0.7674  0.3391 -2.4642
  758SOL    HW2 2274   2.250   0.662   1.222 -0.1196 -0.2573  2.2460
  759SOL     OW 2275   2.252   0.646   1.029  0.1515 -0.3574 -0.1482
  759SOL    HW1 2276   2.354   0.645   1.027 -0.2229  1.3699  1.2285
  759SOL    HW2 2277   2.219   0.598   0.950 -0.1982  3.0507  1.7805
  760SOL     OW 2278   2.254   1.314   1.168 -0.0891 -0.3541  0.3231
  760SOL    HW1 2279   2.260   1.368   1.251  3.6678 -3.1207 -2.2236
  760SOL    HW2 2280   2.191   1.238   1.197 -1.2242 -0.4457 -0.3076
  761SOL     OW 2281   0.551   0.334   0.343 -0.0899 -0.1993  0.0429
  761SOL    HW1 2282   0.616   0.411   0.368  0.6931  0.7102 -0.3813
  761SOL    HW2 2283   0.499   0.289   0.417  0.5284 -0.3269 -2.2896
  762SOL     OW 2284   0.963   1.899   1.033  0.3030 -0.2168 -0.1154
  762SOL    HW1 2285   0.992   1.811   0.997 -0.8335 -0.3689  2.9324
  762SOL    HW2 2286   0.937   1.896   1.129  0.7797  0.8685 -3.5019
  763SOL     OW 2287   1.328   1.059   1.509 -0.2242 -0.1307 -0.6527
  763SOL    HW1 2288   1.296   0.994   1.585 -0.8916 -0.8839 -1.2928
  763SOL    HW2 2289   1.430   1.074   1.523 -0.3843 -1.1072  1.6397
  764SOL     OW 2290   0.318   1.666   2.744  0.4553 -0.3907  0.0701
  764SOL    HW1 2291   0.224   1.638   2.722  0.0754  3.0906 -1.0162
  764SOL    HW2 2292   0.337   1.756   2.697 -1.1021 -0.2657  2.6311
  765SOL     OW 2293   0.941   2.717   1.428  0.8770  0.2653  0.1361
  765SOL    HW1 2294   0.864   2.786   1.448 -3.8500  0.5374 -0.6473
  765SOL    HW2 2295   0.955   2.710   1.326 -3.0031 -0.6633  0.0217
  766SOL     OW 2296   2.839   2.369   2.646 -0.1874 -0.4705  0.2012
  766SOL    HW1 2297   2.932   2.322   2.658  1.9008 -3.5599  1.0211
  766SOL    HW2 2298   2.836   2.439   2.573 -0.0425  2.6423 -0.4001
  767SOL     OW 2299   1.236   0.874   2.452 -0.2019  0.2679 -0.0490
  767SOL    HW1 2300   1.266   0.893   2.546 -2.3135  1.3376  1.9468
  767SOL    HW2 2301   1.178   0.954   2.418  0.8151  0.7337 -0.7487
  768SOL     OW 2302   1.355   1.787   0.121  0.3375  0.1006  0.2059
  768SOL    HW1 2303   1.393   1.852   0.053 -2.4616 -1.5281 -0.0110
  768SOL    HW2 2304   1.425   1.775   0.198  1.7988 -0.8318  1.9886
  769SOL     OW 2305   0.314   2.033   1.477 -0.8500  0.0445 -0.1451
  769SOL    HW1 2306   0.271   2.110   1.422  0.6639 -1.5858 -3.1691
  769SOL    HW2 2307   0.253   1.957   1.514 -1.5768 -1.6279 -0.3994
  770SOL     OW 2308   1.353   0.996   2.691 -0.0411 -0.0458 -0.0755
  770SOL    HW1 2309   1.435   1.018   2.743 -0.2440  2.3402  1.3962
  770SOL    HW2 2310   1.345   1.055   2.611  1.2839 -1.4895  2.0026
  771SOL     OW 2311   0.148   2.991   2.129  0.1333  0.0089 -0.0838
  771SOL    HW1 2312   0.188   2.942   2.208  1.1741  1.6967  3.0255
  771SOL    HW2 2313   0.073   2.938   2.087 -2.0276  1.7218 -2.6660
  772SOL     OW 2314   2.398   2.147   1.829  0.2716  0.1334 -0.3616
  772SOL    HW1 2315   2.399   2.183   1.928 -0.5344  1.8208  2.2985
  772SOL    HW2 2316   2.333   2.071   1.817  0.2324 -0.0386  0.3136
  773SOL     OW 2317   0.571   1.728   1.643  0.0985 -0.2549 -0.0406
  773SOL    HW1 2318   0.478   1.718   1.678 -0.0838 -0.6728  1.2202
  773SOL    HW2 2319   0.587   1.831   1.631 -1.3821  3.4130  0.2350
  774SOL     OW 2320   1.325   0.382   2.399 -0.2996  0.1105 -0.0342
  774SOL    HW1 2321   1.279   0.295   2.420 -3.8595  4.4121  0.8220
  774SOL    HW2 2322   1.286   0.459   2.451 -0.3902 -2.7310  1.1028
  775SOL     OW 2323   2.028   2.762   2.952  0.1017  0.2477 -0.2560
  775SOL    HW1 2324   1.987   2.855   2.957 -1.0570  1.4423  0.4562
  775SOL    HW2 2325   2.067   2.734   2.864  0.8437 -1.4312  5.0672
  776SOL     OW 2326   3.088   0.666   1.929 -0.2848 -0.2129 -0.6373
  776SOL    HW1 2327   3.036   0.637   2.013  0.0363 -0.9535  1.3499
  776SOL    HW2 2328   0.059   0.618   1.895  0.2661 -1.4277 -1.8962
  777SOL     OW 2329   2.351   2.154   2.107  0.1305  0.5681 -0.2786
  777SOL    HW1 2330   2.387   2.060   2.131  1.4634 -1.8444  0.3404
  777SOL    HW2 2331   2.248   2.148   2.103  0.8842 -0.0315 -0.8202
  778SOL     OW 2332   1.897   1.197   2.149 -0.6166  0.4963 -0.1483
  778SOL    HW1 2333   1.943   1.287   2.145 -0.3531 -1.6023 -0.1622
  778SOL    HW2 2334   1.797   1.206   2.132  0.6296 -0.8677  0.8086
  779SOL     OW 2335   2.354   1.187   0.384  0.1976  0.2978  0.2040
  779SOL    HW1 2336   2.302   1.274   0.375 -0.2032 -0.9648 -0.5398
  779SOL    HW2 2337   2.355   1.129   0.296 -0.4588 -2.4728 -1.4035
  780SOL     OW 2338   2.312   0.359   2.944  0.0343 -0.2878  0.2267
  780SOL    HW1 2339   2.274   0.350   2.850  0.1306  2.7496  0.5548
  780SOL    HW2 2340   2.306   0.266   2.985 -2.2931  0.2733 -2.1287
  781SOL     OW 2341   0.117   1.818   1.456 -0.0454 -0.2669 -0.2878
  781SOL    HW1 2342   0.055   1.882   1.503  1.0154 -1.7649 -0.8212
  781SOL    HW2 2343   0.108   1.725   1.504  1.2897 -2.5517  1.5840
  782SOL     OW 2344   2.376   2.351   2.872  0.9545 -0.6196 -0.4883
  782SOL    HW1 2345   2.465   2.353   2.821 -2.7686  3.0620  3.2419
  782SOL    HW2 2346   2.375   2.274   2.940 -0.1662  1.0790 -1.2297
  783SOL     OW 2347   0.441   1.318   1.422 -0.9316 -0.4905 -0.1321
  783SOL    HW1 2348   0.536   1.310   1.456  0.6713 -0.0873  0.4922
  783SOL    HW2 2349   0.428   1.401   1.364  0.7120  0.8656  2.1565
  784SOL     OW 2350   1.625   0.580   2.922 -0.3280 -0.3931  0.0132
  784SOL    HW1 2351   1.695   0.633   2.870 -2.1413  0.0265 -0.1835
  784SOL    HW2 2352   1.674   0.531   2.997 -0.3879  1.6001  1.3719
  785SOL     OW 2353   2.421   2.736   0.906  1.0237  0.2324 -0.0726
  785SOL    HW1 2354   2.397   2.739   1.007  1.2703  1.6361  2.2303
  785SOL    HW2 2355   2.494   2.668   0.877 -0.8169 -0.1343 -0.2671
  786SOL     OW 2356   0.856   2.183   2.168 -0.0110 -0.6443  0.5548
  786SOL    HW1 2357   0.930   2.131   2.121 -0.1416 -1.4847 -0.6014
  786SOL    HW2 2358   0.872   2.170   2.270  0.3964  1.7532  2.4571
  787SOL     OW 2359   1.196   0.935   1.066 -0.3453  0.5293  0.2152
  787SOL    HW1 2360   1.217   0.900   1.159  0.6485 -0.8496  1.3906
  787SOL    HW2 2361   1.276   0.997   1.038  2.5044  0.6927  0.3316
  788SOL     OW 2362   2.938   0.649   0.519 -0.1910 -0.2265  0.1081
  788SOL    HW1 2363   3.018   0.619   0.573 -2.8941 -1.5073 -0.8681
  788SOL    HW2 2364   2.925   0.603   0.426 -1.7933  1.0195 -1.4105
  789SOL     OW 2365   3.090   1.826   1.207 -0.2616  0.3872  0.5818
  789SOL    HW1 2366   3.074   1.927   1.210  2.6689 -1.0936 -0.8822
  789SOL    HW2 2367   0.039   1.804   1.285  1.9215 -1.0873 -1.2853
  790SOL     OW 2368   1.047   0.727   2.179  0.6070  0.0936  0.2919
  790SOL    HW1 2369   1.108   0.674   2.121  0.1881  4.4443  0.8497
  790SOL    HW2 2370   1.053   0.684   2.274  3.4450  1.8828 -2.0176
  791SOL     OW 2371   1.439   0.378   0.495 -0.3809  0.2373 -0.2299
  791SOL    HW1 2372   1.445   0.341   0.403  1.1867 -0.6527  1.1012
  791SOL    HW2 2373   1.368   0.322   0.543 -0.1494 -2.0843  0.5868
  792SOL     OW 2374   1.529   2.844   1.762 -0.5871 -0.1939  0.1529
  792SOL    HW1 2375   1.511   2.792   1.849  0.9149  0.0764  2.5957
  792SOL    HW2 2376   1.599   2.800   1.705 -1.1347  1.0204 -1.3468
  793SOL     OW 2377   1.305   0.444   0.744 -0.2100 -0.3371 -0.1649
  793SOL    HW1 2378   1.376   0.520   0.738 -2.4955 -0.7410  2.6588
  793SOL    HW2 2379   1.226   0.463   0.679 -3.8207  2.1699 -1.5846
  794SOL     OW 2380   0.527   1.119   2.129 -0.4289  0.0794 -0.4502
  794SOL    HW1 2381   0.454   1.133   2.058 -0.5046  0.4927  0.6995
  794SOL    HW2 2382   0.612   1.167   2.106  1.7390 -0.0990 -2.8630
  795SOL     OW 2383   0.333   2.126   2.346 -0.0604  0.2724 -0.2609
  795SOL    HW1 2384   0.416   2.131   2.402  0.0027  3.3757  0.3695
  795SOL    HW2 2385   0.358   2.158   2.248  0.5888  1.0345 -3.0405
  796SOL     OW 2386   2.431   1.158   1.986  0.3773  0.0524  0.5570
  796SOL    HW1 2387   2.436   1.104   2.074 -0.2524  2.0119  0.6686
  796SOL    HW2 2388   2.520   1.202   1.966 -3.6130 -0.8377  0.5657
  797SOL     OW 2389   2.887   2.545   2.872 -0.1990 -0.0865 -0.2555
  797SOL    HW1 2390   2.847   2.631   2.829  0.7789  2.1803  2.2453
  797SOL    HW2 2391   2.858   2.465   2.811 -3.2338 -1.1596 -0.3695
  798SOL     OW 2392   0.104   2.412   2.264  0.1864 -0.1984  0.3024
  798SOL    HW1 2393   0.163   2.444   2.184  3.6026  1.3345 -0.8597
  798SOL    HW2 2394   0.075   2.313   2.270 -1.7727 -2.5068  2.9995
  799SOL     OW 2395   0.588   2.141   2.995  0.4821 -0.0739 -0.4706
  799SOL    HW1 2396   0.654   2.182   3.064  1.6287  1.2389 -0.7298
  799SOL    HW2 2397   0.491   2.165   3.020 -0.1222  2.4571  0.4255
  800SOL     OW 2398   0.850   1.676   0.118  0.3077  0.0949 -0.4348
  800SOL    HW1 2399   0.749   1.680   0.120  1.5498 -1.6840 -2.9214
  800SOL    HW2 2400   0.878   1.647   0.212  0.1507  0.4204 -3.9524
  801SOL     OW 2401   1.715   1.356   1.472  0.3855 -0.1854 -0.3484
  801SOL    HW1 2402   1.809   1.359   1.430 -0.7016 -1.0052 -0.3868
  801SOL    HW2 2403   1.705   1.395   1.565  0.8049 -1.8329  0.6637
  802SOL     OW 2404   2.665   1.324   0.331 -0.3942 -0.2101  0.0659
  802SOL    HW1 2405   2.707   1.353   0.419 -1.4425 -2.1784 -0.8098
  802SOL    HW2 2406   2.663   1.223   0.320 -2.1742  1.0123  0.2919
  803SOL     OW 2407   0.941   1.711   2.728  0.4326  0.1630  0.1681
  803SOL    HW1 2408   0.959   1.622   2.689 -1.7284  0.6462  3.1790
  803SOL    HW2 2409   1.026   1.748   2.771 -2.3562 -0.2190 -0.7296
  804SOL     OW 2410   1.782   1.350   0.228 -0.5449  0.1972 -0.1714
  804SOL    HW1 2411   1.777   1.305   0.317 -0.4112  2.2157 -0.7877
  804SOL    HW2 2412   1.875   1.343   0.188 -0.0760 -0.8219  1.1666
  805SOL     OW 2413   2.596   1.620   2.724  0.0248 -0.0719  0.1484
  805SOL    HW1 2414   2.525   1.673   2.763  2.2625 -2.2895 -1.2044
  805SOL    HW2 2415   2.674   1.672   2.690 -3.0503 -1.6630 -2.6044
  806SOL     OW 2416   0.453   2.993   0.469 -0.1283 -0.1059 -0.0908
  806SOL    HW1 2417   0.489   3.071   0.516  0.5348 -2.0609  0.2199
  806SOL    HW2 2418   0.489   2.901   0.494 -0.4111 -0.6835  0.7767
  807SOL     OW 2419   1.958   1.513   2.831  0.0037  0.0414  0.0993
  807SOL    HW1 2420   1.897   1.565   2.890 -1.6715 -2.9839 -0.1617
  807SOL    HW2 2421   1.994   1.435   2.887  0.0366  1.8343  0.2922
  808SOL     OW 2422   0.298   1.520   0.730 -0.2454 -0.0825 -0.2388
  808SOL    HW1 2423   0.371   1.458   0.697 -0.8263  0.8072  1.8765
  808SOL    HW2 2424   0.308   1.527   0.831  1.3122  1.4095 -1.7730
  809SOL     OW 2425   2.357   1.062   0.142 -0.3680 -0.1344 -0.2061
  809SOL    HW1 2426   2.304   1.004   0.077  1.6655 -0.6665 -4.0539
  809SOL    HW2 2427   2.449   1.050   0.110  0.0700 -4.0713 -2.7199
  810SOL     OW 2428   0.656   1.192   0.373  0.1152 -0.1258 -0.2819
  810SOL    HW1 2429   0.690   1.238   0.289  2.1767 -0.6037 -0.1891
  810SOL    HW2 2430   0.583   1.136   0.344  0.8115  0.1559  0.6500
  811SOL     OW 2431   1.482   2.525   1.518  0.1729 -0.3884 -0.0489
  811SOL    HW1 2432   1.451   2.597   1.451  2.2814  1.2600 -1.8913
  811SOL    HW2 2433   1.500   2.441   1.461 -0.2132  1.0367 -2.7307
  812SOL     OW 2434   0.990   2.552   1.894 -0.2935 -0.1515  0.3693
  812SOL    HW1 2435   1.046   2.572   1.807  1.7523 -0.0691 -2.4231
  812SOL    HW2 2436   1.022   2.470   1.947 -0.5040 -0.3728  1.1852
  813SOL     OW 2437   1.247   0.096   1.805  0.3177  0.6310  0.0512
  813SOL    HW1 2438   1.258   0.121   1.904 -1.1684  0.1839 -0.5165
  813SOL    HW2 2439   1.166   0.031   1.801 -0.6781 -1.7361  0.4190
  814SOL     OW 2440   1.188   2.446   2.673 -0.0784  0.2204 -0.3156
  814SOL    HW1 2441   1.262   2.442   2.605 -2.8175  2.2228  0.7239
  814SOL    HW2 2442   1.164   2.359   2.716 -1.6103  4.2103 -0.8907
  815SOL     OW 2443   0.739   0.210   2.376 -0.3496 -0.2124 -0.1069
  815SOL    HW1 2444   0.689   0.230   2.463 -0.0167 -1.0356  0.8964
  815SOL    HW2 2445   0.769   0.299   2.332  3.4342  2.1640  0.4564
  816SOL     OW 2446   2.003   0.428   2.927 -0.0478 -0.1161  0.8799
  816SOL    HW1 2447   2.030   0.514   2.876 -1.2624  0.9140  0.2282
  816SOL    HW2 2448   1.996   0.351   2.858 -0.2725 -1.7959 -0.9939
  817SOL     OW 2449   2.232   0.320   2.426 -0.1721  0.7028  0.3293
  817SOL    HW1 2450   2.323   0.286   2.390  0.3645 -0.5835  0.4179
  817SOL    HW2 2451   2.219   0.413   2.392  1.5194 -0.4736  0.6592
  818SOL     OW 2452   1.691   0.277   0.096 -0.2466 -0.1521 -0.7248
  818SOL    HW1 2453   1.713   0.374   0.085 -0.9833 -0.3304  1.5865
  818SOL    HW2 2454   1.760   0.218   0.056 -0.8546  0.2930  3.7881
  819SOL     OW 2455   2.188   1.696   2.780  0.3710 -0.6324 -0.0972
  819SOL    HW1 2456   2.096   1.646   2.784 -2.0236 -0.5998 -1.8092
  819SOL    HW2 2457   2.233   1.677   2.868 -0.8449  1.6049  0.9469
  820SOL     OW 2458   0.035   1.945   0.030 -0.2577  0.0533  0.5034
  820SOL    HW1 2459   0.007   2.033   0.074  1.3103  0.3522  1.2300
  820SOL    HW2 2460   0.130   1.928   0.055  0.0044  0.1600  1.2669
  821SOL     OW 2461   0.414   2.926   1.070 -0.3239  0.1308 -0.3737
  821SOL    HW1 2462   0.331   2.889   1.037  1.6308  1.4794 -0.9502
  821SOL    HW2 2463   0.453   2.991   1.002  1.0763 -0.5042 -1.1537
  822SOL     OW 2464   2.940   2.783   3.033 -0.3535  0.7015  0.2629
  822SOL    HW1 2465   2.865   2.719   3.023  1.5088 -1.5968 -2.4728
  822SOL    HW2 2466   2.984   2.804   2.945  0.1089 -0.6850 -2.3225
  823SOL     OW 2467   1.260   0.397   2.671  0.6298  0.1738  0.1355
  823SOL    HW1 2468   1.249   0.295   2.696 -0.8835 -4.6665 -0.0444
  823SOL    HW2 2469   1.359   0.423   2.671 -0.8846 -1.4487  1.8488
  824SOL     OW 2470   2.618   1.973   1.894  0.0800 -0.6536  0.0431
  824SOL    HW1 2471   2.624   1.956   1.992  1.5996 -0.8079 -2.5255
  824SOL    HW2 2472   2.533   2.019   1.870 -1.1072 -2.1056  1.1646
  825SOL     OW 2473   3.085   2.239   2.680  0.4841  0.2567  0.1646
  825SOL    HW1 2474   0.008   2.148   2.652 -3.8761 -3.7176  2.2202
  825SOL    HW2 2475   0.012   2.307   2.612 -0.4658  2.2744  1.0762
  826SOL     OW 2476   2.315   1.446   2.451 -0.1066  0.0026  0.3114
  826SOL    HW1 2477   2.222   1.396   2.442  1.4047  1.5750 -1.1882
  826SOL    HW2 2478   2.295   1.543   2.450  0.6990 -1.4900 -1.1152
  827SOL     OW 2479   2.282   2.376   1.396  0.5467  0.0839  0.2177
  827SOL    HW1 2480   2.247   2.321   1.318  0.2870  1.5398 -0.1134
  827SOL    HW2 2481   2.224   2.457   1.419 -2.0195 -1.1098 -1.4163
  828SOL     OW 2482   0.186   3.017   1.432 -0.3481 -0.2543 -0.2147
  828SOL    HW1 2483   0.116   2.968   1.490 -1.7102  0.0424 -0.9105
  828SOL    HW2 2484   0.242   3.071   1.495  1.3947 -1.1572  0.3954
  829SOL     OW 2485   1.402   2.425   2.522  0.1428  0.2130  1.0443
  829SOL    HW1 2486   1.478   2.369   2.563  0.3013 -1.4179  1.5304
  829SOL    HW2 2487   1.396   2.406   2.422  0.3348 -1.6877 -0.5729
  830SOL     OW 2488   0.885   0.378   0.770  0.0226 -0.0530 -0.3484
  830SOL    HW1 2489   0.898   0.304   0.836  2.0105  0.6479 -0.0448
  830SOL    HW2 2490   0.911   0.465   0.820 -0.0963 -0.7282 -1.0130
  831SOL     OW 2491   2.918   1.453   3.021 -0.2956 -0.3569  0.2548
  831SOL    HW1 2492   2.912   1.389   3.101 -2.0104  1.5070  2.1797
  831SOL    HW2 2493   3.007   1.437   2.967  1.1301 -2.7722 -2.5878
  832SOL     OW 2494   1.695   2.008   2.140 -0.3559  0.1945  0.1628
  832SOL    HW1 2495   1.601   2.041   2.161  1.5724 -1.5677 -0.1375
  832SOL    HW2 2496   1.744   2.073   2.075  0.1150  2.2345 -2.3779
  833SOL     OW 2497   0.541   0.352   2.214  0.7468  0.1793 -0.1454
  833SOL    HW1 2498   0.480   0.278   2.241  0.5512 -1.8469  0.8540
  833SOL    HW2 2499   0.498   0.443   2.232 -4.6463  0.7949  0.6872
  834SOL     OW 2500   0.631   1.054   1.551  0.2984  0.1096 -0.1884
  834SOL    HW1 2501   0.602   1.035   1.456 -0.2643  1.4148  1.0946
  834SOL    HW2 2502   0.708   0.992   1.583  0.8851  0.7175  1.7448
  835SOL     OW 2503   2.621   0.948   3.088 -0.5367 -0.6211  0.4643
  835SOL    HW1 2504   2.719   0.940   3.047  2.3018 -0.2187 -1.6579
  835SOL    HW2 2505   2.552   1.006   3.040 -1.6388 -0.2655  0.0887
  836SOL     OW 2506   1.137   1.809   0.271  0.3231  0.1201 -0.3543
  836SOL    HW1 2507   1.093   1.895   0.301 -1.2682  0.0943 -0.1370
  836SOL    HW2 2508   1.197   1.823   0.193  0.5796 -0.6666  1.4240
  837SOL     OW 2509   1.630   1.585   0.965 -0.4298  0.0239 -0.1050
  837SOL    HW1 2510   1.732   1.584   0.958  0.3784  4.0873  1.2937
  837SOL    HW2 2511   1.592   1.677   0.960 -0.8652 -1.0682 -1.7192
  838SOL     OW 2512   1.216   1.272   2.162 -0.4362 -0.2444  0.0091
  838SOL    HW1 2513   1.140   1.221   2.197  1.7883  0.2236  0.5532
  838SOL    HW2 2514   1.193   1.372   2.150  1.9975  1.9920  0.9615
  839SOL     OW 2515   0.852   1.940   2.626 -0.3250  1.2826 -0.0651
  839SOL    HW1 2516   0.876   1.845   2.658  3.0679 -1.2165  0.2794
  839SOL    HW2 2517   0.843   2.008   2.703  1.1868  0.7647  1.0582
  840SOL     OW 2518   0.746   2.375   0.359 -0.0414 -0.6311 -0.0997
  840SOL    HW1 2519   0.740   2.438   0.437 -0.1040 -1.2828 -0.4414
  840SOL    HW2 2520   0.700   2.289   0.387 -0.0719 -0.5100  0.2522
  841SOL     OW 2521   1.884   2.746   0.269 -0.0220 -0.8003 -0.5168
  841SOL    HW1 2522   1.821   2.689   0.324  1.5749  2.6867 -3.7848
  841SOL    HW2 2523   1.885   2.706   0.178 -0.9571  0.3130 -2.7713
  842SOL     OW 2524   0.548   0.565   3.031 -0.7773  0.1337 -0.3391
  842SOL    HW1 2525   0.510   0.502   3.097  3.3238  2.3271 -4.4551
  842SOL    HW2 2526   0.633   0.608   3.064  0.0283  0.6753  1.0233
  843SOL     OW 2527   1.243   0.163   0.725  0.3100  0.8465  0.3930
  843SOL    HW1 2528   1.245   0.139   0.822 -2.7159  0.0749 -2.3182
  843SOL    HW2 2529   1.258   0.265   0.708  0.9978  3.1606 -0.4650
  844SOL     OW 2530   3.021   2.864   2.768  0.4705  0.4252  0.1312
  844SOL    HW1 2531   3.078   2.785   2.746  0.8325  4.3475 -1.3383
  844SOL    HW2 2532   2.930   2.861   2.725  0.9436  1.1641 -0.7375
  845SOL     OW 2533   2.580   2.346   0.984 -0.2513  0.9488 -0.4836
  845SOL    HW1 2534   2.622   2.349   0.892  0.9732  0.5014 -0.2268
  845SOL    HW2 2535   2.642   2.380   1.057 -2.4829 -1.9744 -0.8438
  846SOL     OW 2536   3.060   1.864   2.571  0.1691 -0.6004 -0.4261
  846SOL    HW1 2537   0.023   1.926   2.535 -0.2286  0.0488 -0.6171
  846SOL    HW2 2538   3.099   1.783   2.617  1.1347 -0.3769  0.9139
  847SOL     OW 2539   1.010   0.697   1.851  0.0746 -0.3530  0.2032
  847SOL    HW1 2540   1.039   0.785   1.892  1.4851  0.8594 -0.9413
  847SOL    HW2 2541   1.063   0.684   1.762  2.0911  0.5042  0.0749
  848SOL     OW 2542   2.610   2.982   3.027  0.3866 -0.1417  0.2415
  848SOL    HW1 2543   2.545   3.006   3.100 -1.0789 -0.5028 -0.2234
  848SOL    HW2 2544   2.708   3.004   3.047  0.7041  0.5977  0.6445
  849SOL     OW 2545   0.690   2.742   2.762 -0.4836  0.0883  0.6672
  849SOL    HW1 2546   0.636   2.704   2.841  1.9901  0.8376 -0.4898
  849SOL    HW2 2547   0.772   2.790   2.794  0.5675 -0.8467  0.7096
  850SOL     OW 2548   1.192   2.758   1.502  1.2605  0.1799 -0.3277
  850SOL    HW1 2549   1.258   2.713   1.437 -0.3540 -0.0993 -0.1971
  850SOL    HW2 2550   1.093   2.738   1.474 -3.3838 -1.9825 -2.3026
  851SOL     OW 2551   2.581   0.381   2.100 -0.0752 -0.0432  0.0600
  851SOL    HW1 2552   2.572   0.485   2.104 -0.9824  1.4534 -0.1975
  851SOL    HW2 2553   2.653   0.357   2.034 -0.5048 -0.3336  1.7041
  852SOL     OW 2554   2.017   0.966   2.199 -0.7589 -0.2877  0.3104
  852SOL    HW1 2555   1.977   1.050   2.163  1.6199 -1.6937 -0.3071
  852SOL    HW2 2556   1.947   0.901   2.233  1.7035  0.3576 -0.6219
  853SOL     OW 2557   2.917   3.035   0.574 -1.0885  0.4447  0.0063
  853SOL    HW1 2558   2.870   3.108   0.629 -0.2945  0.5394 -0.5216
  853SOL    HW2 2559   2.854   2.990   0.508  3.8068  2.8200 -0.9691
  854SOL     OW 2560   2.224   1.257   2.130 -0.0732 -0.3756 -0.3722
  854SOL    HW1 2561   2.213   1.202   2.219  0.3174 -1.3543  0.7417
  854SOL    HW2 2562   2.284   1.215   2.058  1.3097  2.9152 -0.9066
  855SOL     OW 2563   1.047   2.443   0.378  0.0125  0.4117  0.0183
  855SOL    HW1 2564   0.955   2.398   0.358 -1.5693  0.1306  1.6788
  855SOL    HW2 2565   1.119   2.411   0.319 -0.0118  1.6715  2.5851
  856SOL     OW 2566   0.025   0.277   2.683 -0.3749 -0.2126 -0.8248
  856SOL    HW1 2567   0.023   0.182   2.725 -1.0235 -1.9339 -1.1640
  856SOL    HW2 2568   0.018   0.351   2.757 -2.2009 -0.9851 -0.4819
  857SOL     OW 2569   1.067   3.014   1.730  0.0223 -0.2256  0.3088
  857SOL    HW1 2570   1.111   3.021   1.642 -1.6461 -0.6875 -0.4442
  857SOL    HW2 2571   0.966   3.016   1.723  0.0986 -3.3864  0.2160
  858SOL     OW 2572   2.631   2.259   1.636 -0.0168  0.3093  0.2814
  858SOL    HW1 2573   2.640   2.185   1.566  3.2870 -0.2467  0.8576
  858SOL    HW2 2574   2.560   2.244   1.704  1.1504 -1.7088 -3.0579
  859SOL     OW 2575   1.516   2.529   1.824  0.0279  0.3795 -0.2148
  859SOL    HW1 2576   1.486   2.548   1.724 -1.9311 -0.4670  0.6305
  859SOL    HW2 2577   1.502   2.606   1.890  1.4438  1.1789 -0.7806
  860SOL     OW 2578   2.386   2.570   3.079 -0.5311  0.7863 -0.2966
  860SOL    HW1 2579   2.337   2.500   3.021  1.0554  0.0320  2.3408
  860SOL    HW2 2580   2.323   2.636   0.010  0.3803  0.9130 -0.1167
  861SOL     OW 2581   2.191   2.838   0.729  0.3231  0.1005 -0.7473
  861SOL    HW1 2582   2.216   2.869   0.634  1.7785 -0.5592 -0.1013
  861SOL    HW2 2583   2.277   2.817   0.785  0.8578 -0.0435  0.4215
  862SOL     OW 2584   1.845   3.070   2.444 -0.3588  0.6271  0.2038
  862SOL    HW1 2585   1.947   3.050   2.427  0.9658 -1.7476  0.5545
  862SOL    HW2 2586   1.829   3.090   2.538 -2.9285 -0.9677 -2.8454
  863SOL     OW 2587   0.048   0.785   0.886  0.2448 -0.4074 -0.8524
  863SOL    HW1 2588   0.100   0.740   0.815 -1.5342  3.2625  2.3090
  863SOL    HW2 2589   3.084   0.841   0.850  0.0308 -1.2071 -1.6757
  864SOL     OW 2590   0.335   2.728   2.118 -0.1963 -0.3288 -0.1590
  864SOL    HW1 2591   0.424   2.778   2.116  0.1432  2.9532 -0.0671
  864SOL    HW2 2592   0.281   2.772   2.191  0.9533  0.5129  1.9515
  865SOL     OW 2593   0.750   1.041   3.103 -0.2203  0.0144  0.1615
  865SOL    HW1 2594   0.747   0.942   3.074 -0.9558 -1.4165  0.3201
  865SOL    HW2 2595   0.657   1.075   0.016 -2.5125  0.6742  0.8949
  866SOL     OW 2596   2.859   0.871   2.978 -0.8078  0.2309 -0.4589
  866SOL    HW1 2597   2.809   0.870   2.887 -2.1923  0.0952 -0.3422
  866SOL    HW2 2598   2.879   0.775   3.012 -1.8287 -4.1578  0.7578
  867SOL     OW 2599   0.024   3.100   2.785 -0.6454  0.0417 -0.2864
  867SOL    HW1 2600   0.062   3.102   2.876 -0.6314 -0.5300 -0.9957
  867SOL    HW2 2601   3.086   3.009   2.765  2.1343  0.2995  0.0270
  868SOL     OW 2602   1.217   3.067   0.551 -0.2437  0.0567 -0.4477
  868SOL    HW1 2603   1.218   0.026   0.623  1.6210  0.8136 -1.7352
  868SOL    HW2 2604   1.261   2.977   0.582  2.4333 -4.0851  1.2821
  869SOL     OW 2605   1.329   1.680   0.830  0.2058 -0.2252  0.1770
  869SOL    HW1 2606   1.299   1.754   0.763 -2.7979  0.0981  0.0812
  869SOL    HW2 2607   1.400   1.724   0.887 -1.5994  0.6966 -0.7664
  870SOL     OW 2608   1.938   1.884   0.929 -0.0568 -0.0117 -0.3688
  870SOL    HW1 2609   1.909   1.901   0.833 -1.1668  2.0114 -0.9428
  870SOL    HW2 2610   1.914   1.787   0.951  3.0531  2.3001  0.9021
  871SOL     OW 2611   1.367   1.429   1.555  0.4690  0.3512  0.9793
  871SOL    HW1 2612   1.382   1.360   1.632  0.0556 -0.4950 -1.3727
  871SOL    HW2 2613   1.336   1.386   1.467 -3.9674  1.3196  1.2020
  872SOL     OW 2614   0.971   1.625   1.571  0.1106  0.6480  0.0058
  872SOL    HW1 2615   0.910   1.635   1.489  3.1280  2.4956 -1.2560
  872SOL    HW2 2616   0.956   1.536   1.616 -3.6704  0.8089 -1.7154
  873SOL     OW 2617   1.162   0.940   2.912  0.2665  0.5907 -0.0346
  873SOL    HW1 2618   1.207   0.928   3.000 -1.1628 -2.6318 -0.9508
  873SOL    HW2 2619   1.231   0.963   2.842  1.0154 -1.1733 -1.5381
  874SOL     OW 2620   0.141   1.278   1.189  0.4408 -0.6067 -0.2481
  874SOL    HW1 2621   0.149   1.367   1.237  3.2568  0.4626 -0.4187
  874SOL    HW2 2622   0.216   1.214   1.222  2.1131 -3.1883 -0.0204
  875SOL     OW 2623   2.693   0.006   0.980 -0.0415  0.6395  0.5248
  875SOL    HW1 2624   2.732   0.053   0.899 -2.3964  1.6552 -0.4046
  875SOL    HW2 2625   2.621   3.058   0.943 -0.9595 -0.0591 -0.4319
  876SOL     OW 2626   0.788   0.629   0.074 -0.8173 -0.8680 -0.0884
  876SOL    HW1 2627   0.820   0.532   0.055 -1.1574 -1.0121 -2.0859
  876SOL    HW2 2628   0.778   0.654   0.174 -2.6584  1.5875 -1.1645
  877SOL     OW 2629   3.050   0.178   1.112  0.0844 -0.0169  0.6170
  877SOL    HW1 2630   2.966   0.156   1.167  0.5642 -0.2863  0.9663
  877SOL    HW2 2631   0.001   0.101   1.117 -0.3762  0.3758 -1.5486
  878SOL     OW 2632   1.772   2.207   0.280  0.1016 -0.2331  0.7594
  878SOL    HW1 2633   1.850   2.258   0.235  1.2085 -0.1930 -2.3690
  878SOL    HW2 2634   1.731   2.139   0.218  1.2874 -0.2986 -0.8861
  879SOL     OW 2635   2.258   1.856   1.434  0.0234 -0.0245 -0.4978
  879SOL    HW1 2636   2.255   1.804   1.521 -3.3014  0.9585  1.2587
  879SOL    HW2 2637   2.276   1.952   1.470 -2.2289 -1.0869  3.8796
  880SOL     OW 2638   0.779   0.264   1.739  0.5985 -0.4425  0.9892
  880SOL    HW1 2639   0.692   0.320   1.742  1.1574  1.4229 -1.9445
  880SOL    HW2 2640   0.808   0.237   1.832 -3.4319 -1.3560 -1.9562
  881SOL     OW 2641   0.958   1.878   3.031  0.2460  0.3087 -0.5249
  881SOL    HW1 2642   1.046   1.854   2.982  1.3075  3.0307  0.3284
  881SOL    HW2 2643   0.912   1.799   3.076  0.5100 -1.0009  2.1522
  882SOL     OW 2644   2.112   1.178   1.524  0.5631 -0.9772 -0.0193
  882SOL    HW1 2645   2.200   1.206   1.565 -0.1514 -0.8207  1.3558
  882SOL    HW2 2646   2.129   1.147   1.428  0.4166  0.8594 -1.8103
  883SOL     OW 2647   1.365   0.804   2.231  0.1335  0.1999 -0.1982
  883SOL    HW1 2648   1.307   0.822   2.316 -4.1198  0.2327  0.5921
  883SOL    HW2 2649   1.361   0.704   2.213  1.1439  3.1788  0.7387
  884SOL     OW 2650   2.703   0.450   2.934 -0.2584 -0.0473  0.1046
  884SOL    HW1 2651   2.752   0.538   2.961  1.3196  1.8098  0.7086
  884SOL    HW2 2652   2.765   0.372   2.921  0.9969 -1.6463 -3.7834
  885SOL     OW 2653   0.329   2.222   0.483  0.1982  0.0431  0.7862
  885SOL    HW1 2654   0.274   2.134   0.479  0.7230  1.9752  1.2282
  885SOL    HW2 2655   0.276   2.298   0.448  1.8078  0.6859 -0.1329
  886SOL     OW 2656   1.807   1.286   3.000  0.6492 -0.2691  0.4376
  886SOL    HW1 2657   1.846   1.253   2.914 -0.2051  1.2340  1.7782
  886SOL    HW2 2658   1.709   1.311   2.987  0.5560  3.9932 -2.2878
  887SOL     OW 2659   1.608   0.486   1.783 -0.5222  0.2695  0.2009
  887SOL    HW1 2660   1.625   0.512   1.881 -0.5483  0.5814 -0.4863
  887SOL    HW2 2661   1.657   0.549   1.722 -2.3052 -0.3928  0.2497
  888SOL     OW 2662   2.960   1.198   1.636  0.0794  0.0766 -0.5034
  888SOL    HW1 2663   3.004   1.119   1.586 -1.3286 -0.3297 -1.7859
  888SOL    HW2 2664   2.868   1.225   1.602 -0.1424  0.2133  0.0074
  889SOL     OW 2665   2.972   2.392   0.779 -0.3154  0.2176 -0.7198
  889SOL    HW1 2666   3.059   2.431   0.815 -1.2635 -1.2120  0.5681
  889SOL    HW2 2667   2.944   2.314   0.843  0.3377 -0.7540  0.2615
  890SOL     OW 2668   0.273   2.857   2.366  0.4740 -0.1108  0.1767
  890SOL    HW1 2669   0.341   2.787   2.389  0.9293  1.8917 -1.4346
  890SOL    HW2 2670   0.236   2.905   2.450  1.4101 -0.2855 -2.5077
  891SOL     OW 2671   0.465   1.845   0.227  0.1236 -0.3291 -0.0402
  891SOL    HW1 2672   0.557   1.877   0.251 -1.2099 -1.2247 -1.5484
  891SOL    HW2 2673   0.469   1.745   0.224  1.5541  0.4056  0.5582
  892SOL     OW 2674   3.007   2.340   1.284  0.2503  0.3916 -0.3553
  892SOL    HW1 2675   3.036   2.316   1.381  1.4280  0.0161 -1.9283
  892SOL    HW2 2676   2.999   2.254   1.229  0.2213 -0.5453  0.3217
  893SOL     OW 2677   0.547   3.062   1.415 -0.3465 -0.1906  0.2263
  893SOL    HW1 2678   0.628   3.017   1.463  0.2356  0.4108 -0.8239
  893SOL    HW2 2679   0.471   3.081   1.481  0.0215 -1.5186  0.8453
  894SOL     OW 2680   2.383   1.656   0.948  0.0624  0.2360  0.0171
  894SOL    HW1 2681   2.441   1.590   0.998  0.6690 -0.7203  0.5491
  894SOL    HW2 2682   2.376   1.630   0.850 -0.1671 -0.2409  1.5554
  895SOL     OW 2683   2.675   2.709   1.647  0.0875  0.2461 -0.3734
  895SOL    HW1 2684   2.619   2.626   1.627 -0.3211 -0.4860 -0.8880
  895SOL    HW2 2685   2.663   2.783   1.577 -0.7282 -2.0847  1.4978
  896SOL     OW 2686   0.881   0.273   1.492  0.5789  0.0422  0.0922
  896SOL    HW1 2687   0.952   0.344   1.473  0.3599  2.5003 -0.5938
  896SOL    HW2 2688   0.856   0.272   1.594  0.8495 -1.6016  1.0436
  897SOL     OW 2689   0.973   1.590   1.237 -0.2105  0.0572  0.1724
  897SOL    HW1 2690   0.901   1.662   1.248 -2.6235 -1.8300  0.0154
  897SOL    HW2 2691   1.058   1.636   1.202  1.5046 -0.9184 -0.1471
  898SOL     OW 2692   1.700   2.683   1.618  0.6290  0.8205  0.2189
  898SOL    HW1 2693   1.623   2.623   1.594  2.5473 -0.2710 -0.1559
  898SOL    HW2 2694   1.779   2.627   1.647  1.2073  0.1765  0.9189
  899SOL     OW 2695   0.934   0.369   0.074 -0.4006  0.2772 -0.1851
  899SOL    HW1 2696   1.023   0.346   0.032 -2.6482  0.8566  1.1113
  899SOL    HW2 2697   0.867   0.315   0.017  0.9437 -1.6733  1.8860
  900SOL     OW 2698   1.363   2.410   2.023  0.1747  0.0350  0.0850
  900SOL    HW1 2699   1.264   2.390   2.032 -0.3346  0.3868 -0.5929
  900SOL    HW2 2700   1.391   2.424   1.925  2.7406  1.9981 -2.0625
  901SOL     OW 2701   0.912   2.053   0.152  0.0569  0.6537 -0.3146
  901SOL    HW1 2702   0.985   2.066   0.230 -0.8656  1.7068  0.8169
  901SOL    HW2 2703   0.951   1.983   0.086 -0.0061 -1.6394  1.4474
  902SOL     OW 2704   1.550   1.365   0.828  0.3212  0.3577 -0.2794
  902SOL    HW1 2705   1.556   1.449   0.885  0.3470 -1.3172  0.6961
  902SOL    HW2 2706   1.463   1.348   0.783  1.3443  0.6482  0.2873
  903SOL     OW 2707   2.461   1.111   2.926  0.0318  0.3510  0.5611
  903SOL    HW1 2708   2.530   1.188   2.907 -2.2069 -0.2833 -1.3420
  903SOL    HW2 2709   2.365   1.138   2.958 -2.2366  0.0865  1.6732
  904SOL     OW 2710   0.757   1.288   0.123  0.1270  0.1958 -0.7363
  904SOL    HW1 2711   0.785   1.210   0.064 -0.1232 -1.8869 -0.2988
  904SOL    HW2 2712   0.666   1.316   0.101  5.3320 -0.6741 -0.0821
  905SOL     OW 2713   1.797   0.012   1.162  0.3697  0.1636  0.6098
  905SOL    HW1 2714   1.754   0.106   1.142 -1.0747  0.8296 -1.3118
  905SOL    HW2 2715   1.821   0.007   1.258  0.5807  3.2073 -0.5621
  906SOL     OW 2716   2.731   2.435   1.185  0.2275  0.0029 -0.0459
  906SOL    HW1 2717   2.808   2.379   1.228  0.1383 -1.8996  0.8231
  906SOL    HW2 2718   2.688   2.511   1.243 -2.2391 -0.2097 -0.1484
  907SOL     OW 2719   1.251   1.166   0.443  0.3344 -0.0741  0.1845
  907SOL    HW1 2720   1.246   1.168   0.547  1.7997 -0.6663  1.4740
  907SOL    HW2 2721   1.160   1.175   0.401  0.1348 -1.5131 -0.7432
  908SOL     OW 2722   1.576   0.128   1.021  0.0280 -0.5546 -0.0534
  908SOL    HW1 2723   1.534   0.069   1.093  1.0653 -1.3962  0.1453
  908SOL    HW2 2724   1.580   0.224   1.056  1.9165 -2.1424  0.3588
  909SOL     OW 2725   2.386   0.908   1.422 -0.5577  0.1269  0.6451
  909SOL    HW1 2726   2.477   0.879   1.382  1.5014  0.2149 -1.9479
  909SOL    HW2 2727   2.308   0.856   1.379 -1.2372 -0.3739 -2.9645
  910SOL     OW 2728   1.986   0.676   2.059 -0.1830 -0.3582 -0.1467
  910SOL    HW1 2729   2.016   0.747   2.001  0.8284 -2.1060  1.5970
  910SOL    HW2 2730   2.015   0.581   2.027  0.5210  1.1905 -0.0084
  911SOL     OW 2731   2.295   0.918   2.551 -0.3923  0.3724 -0.0120
  911SOL    HW1 2732   2.375   0.914   2.612 -0.5574  0.2469  0.3672
  911SOL    HW2 2733   2.233   0.836   2.563 -2.3612 -2.5880 -0.0792
  912SOL     OW 2734   0.387   1.078   1.681 -0.0858  0.1859 -0.2097
  912SOL    HW1 2735   0.478   1.067   1.635 -2.3127 -0.8992  1.2823
  912SOL    HW2 2736   0.330   1.127   1.618  2.9177 -0.9414 -1.9982
  913SOL     OW 2737   3.086   2.237   1.541 -0.5997 -0.0551  0.4927
  913SOL    HW1 2738   3.062   2.139   1.559  1.7959  1.4578 -2.2671
  913SOL    HW2 2739   3.044   2.299   1.604 -0.3344 -0.3733 -1.4611
  914SOL     OW 2740   1.566   0.831   1.830 -0.6439  0.2699  0.0889
  914SOL    HW1 2741   1.633   0.911   1.826 -1.1557  2.4917  1.5552
  914SOL    HW2 2742   1.595   0.762   1.762  2.1259 -0.8764  2.4879
  915SOL     OW 2743   2.248   0.925   1.070 -0.0231 -0.0576 -0.1692
  915SOL    HW1 2744   2.268   0.822   1.075  1.1439 -1.5195 -1.0973
  915SOL    HW2 2745   2.302   0.959   0.994  2.8478  1.1043 -0.5308
  916SOL     OW 2746   1.993   2.354   1.036  0.1815  0.4045 -0.1646
  916SOL    HW1 2747   1.971   2.420   0.959  1.1262 -0.3856  0.0062
  916SOL    HW2 2748   1.933   2.270   1.035  2.0749  4.3860  2.7513
  917SOL     OW 2749   1.950   2.092   2.485  0.8763 -0.0978  0.2014
  917SOL    HW1 2750   1.889   2.115   2.405  1.5970 -2.9248 -1.9738
  917SOL    HW2 2751   1.954   2.166   2.554  0.6966 -0.6857  2.8084
  918SOL     OW 2752   2.047   2.469   2.327 -0.1160 -0.2189  0.1421
  918SOL    HW1 2753   1.956   2.515   2.334  0.6160 -2.8900 -2.1269
  918SOL    HW2 2754   2.077   2.453   2.226  2.4523 -1.8084 -2.1425
  919SOL     OW 2755   1.201   3.025   1.512 -0.0248  0.4294 -0.7123
  919SOL    HW1 2756   1.211   2.926   1.493  0.1875  2.2380 -1.8397
  919SOL    HW2 2757   1.291   3.068   1.499 -0.8313 -0.6801 -0.0013
  920SOL     OW 2758   2.928   0.443   2.532 -0.8470  0.4959  0.2369
  920SOL    HW1 2759   3.001   0.394   2.586  0.3503 -0.2107  1.0177
  920SOL    HW2 2760   2.876   0.371   2.478 -4.2765 -0.9357 -0.1951
  921SOL     OW 2761   0.185   0.872   1.696 -0.1751 -0.6340  0.4285
  921SOL    HW1 2762   0.173   0.812   1.615  0.0114  1.6412 -1.5816
  921SOL    HW2 2763   0.242   0.955   1.678 -1.5035  0.8057 -1.1527
  922SOL     OW 2764   2.174   2.467   0.305 -0.5103 -0.2872 -0.0727
  922SOL    HW1 2765   2.151   2.569   0.318 -1.8723  3.1178  0.5730
  922SOL    HW2 2766   2.275   2.448   0.297  1.5216  1.3390 -0.3873
  923SOL     OW 2767   0.615   2.153   0.457  0.1716 -0.2161 -0.1788
  923SOL    HW1 2768   0.666   2.151   0.545  2.9329  0.3149 -0.8457
  923SOL    HW2 2769   0.515   2.167   0.474  0.2542 -1.0205  0.8910
  924SOL     OW 2770   1.127   0.841   0.258 -0.3113 -0.1890 -0.2160
  924SOL    HW1 2771   1.073   0.912   0.207  0.2295 -2.1273  0.1475
  924SOL    HW2 2772   1.130   0.860   0.358 -0.2668  2.0334 -1.9965
  925SOL     OW 2773   2.647   0.818   0.866  0.1443  0.1020 -0.0513
  925SOL    HW1 2774   2.627   0.717   0.855 -1.5864  2.4177  0.1300
  925SOL    HW2 2775   2.552   0.859   0.882 -1.0368  1.0705  2.0148
  926SOL     OW 2776   0.494   0.154   1.258  0.1740  0.0174 -0.5816
  926SOL    HW1 2777   0.505   0.083   1.333  1.1448 -3.1251 -1.1734
  926SOL    HW2 2778   0.417   0.125   1.197  0.6285 -0.4353  0.7251
  927SOL     OW 2779   0.620   1.499   2.450 -0.2156 -0.2337 -0.4590
  927SOL    HW1 2780   0.631   1.477   2.554  0.6261  0.0585  0.5594
  927SOL    HW2 2781   0.528   1.538   2.434  1.8750 -1.6953  1.0905
  928SOL     OW 2782   0.173   0.546   2.369 -0.4341 -0.2518  0.4822
  928SOL    HW1 2783   0.077   0.546   2.330 -0.7576 -0.6207 -1.5537
  928SOL    HW2 2784   0.196   0.448   2.400  1.8662 -1.0811  0.3817
  929SOL     OW 2785   2.759   2.906   1.131  0.8973 -0.4212 -0.0939
  929SOL    HW1 2786   2.855   2.884   1.099  1.0364  2.6791 -0.8229
  929SOL    HW2 2787   2.725   2.986   1.075  0.7665  1.5440 -4.0924
  930SOL     OW 2788   1.968   0.623   1.662  0.5622 -0.1356  0.2753
  930SOL    HW1 2789   2.015   0.537   1.701  1.5549  1.1872 -0.2553
  930SOL    HW2 2790   1.964   0.693   1.738  1.2457  0.5663  0.4967
  931SOL     OW 2791   1.796   1.020   3.081  0.0966 -0.1498 -0.1785
  931SOL    HW1 2792   1.782   1.121   3.072  2.1583 -1.3200  2.8460
  931SOL    HW2 2793   1.889   1.006   0.005 -1.0268 -0.1722 -0.2123
  932SOL     OW 2794   1.961   1.265   0.508 -0.5694 -0.0060 -0.0177
  932SOL    HW1 2795   1.965   1.189   0.447  0.4327  3.1913 -0.8598
  932SOL    HW2 2796   1.867   1.272   0.547 -0.1622 -2.0461  0.1026
  933SOL     OW 2797   2.138   1.584   1.085 -0.0055  0.0291 -0.1353
  933SOL    HW1 2798   2.216   1.648   1.096 -2.0365  0.3587 -1.5810
  933SOL    HW2 2799   2.175   1.489   1.103 -1.2180  1.2018  3.0731
  934SOL     OW 2800   1.942   0.951   2.574  0.2501  0.5548 -0.1517
  934SOL    HW1 2801   2.022   0.889   2.553  0.1368  0.0222 -2.0933
  934SOL    HW2 2802   1.856   0.908   2.543  2.6745  0.7665  0.4428
  935SOL     OW 2803   0.167   0.992   0.580  0.5280  0.3153  0.3051
  935SOL    HW1 2804   0.228   0.958   0.504 -2.0184 -1.2993  2.2530
  935SOL    HW2 2805   0.107   1.064   0.545  2.4692  0.7484  3.5871
  936SOL     OW 2806   0.471   0.009   0.862  0.4301 -0.2672  0.3638
  936SOL    HW1 2807   0.524   0.045   0.942  1.5129 -0.4171  2.7460
  936SOL    HW2 2808   0.530   3.100   0.781  0.3852  1.4660  0.1691
  937SOL     OW 2809   2.946   0.056   1.999  0.3364 -0.2983  0.4633
  937SOL    HW1 2810   2.951   0.036   1.899 -0.5725  0.3521 -1.7498
  937SOL    HW2 2811   2.919   3.082   2.046  1.3372 -1.0698 -0.6748
  938SOL     OW 2812   0.015   2.455   2.973  0.5070 -0.2534 -0.2873
  938SOL    HW1 2813   3.030   2.473   2.954 -4.0377 -0.3291  1.3989
  938SOL    HW2 2814   0.034   2.486   3.067 -3.1538 -0.8791 -0.3412
  939SOL     OW 2815   1.229   1.561   1.170 -0.3008  0.3720  0.7444
  939SOL    HW1 2816   1.252   1.464   1.195 -0.8341  1.6043 -1.9789
  939SOL    HW2 2817   1.187   1.566   1.074 -1.3372  0.5792 -4.4438
  940SOL     OW 2818   2.937   0.595   3.049  0.3650 -0.2100  0.1394
  940SOL    HW1 2819   2.962   0.507   3.011  0.2488  1.9711 -0.6927
  940SOL    HW2 2820   2.993   0.618   0.019 -0.0744  2.9508 -1.2781
  941SOL     OW 2821   2.216   0.346   2.697 -0.4983 -0.3319  0.5715
  941SOL    HW1 2822   2.223   0.359   2.594 -0.0949 -1.7643 -2.6388
  941SOL    HW2 2823   2.129   0.312   2.722  4.6134  1.1559 -1.5925
  942SOL     OW 2824   1.580   0.488   0.934 -0.1385  0.0387  0.6565
  942SOL    HW1 2825   1.480   0.482   0.959 -0.3507 -0.1586  4.8828
  942SOL    HW2 2826   1.640   0.450   1.009  0.3682 -0.2203  0.2154
  943SOL     OW 2827   1.141   0.949   1.975  0.5036 -0.2152  0.4088
  943SOL    HW1 2828   1.159   0.925   2.072 -0.4208 -2.7355  1.5222
  943SOL    HW2 2829   1.083   1.034   1.963 -1.5318  0.2200  1.4480
  944SOL     OW 2830   1.899   1.002   1.580  0.4381  0.3783 -0.1212
  944SOL    HW1 2831   1.908   0.921   1.520 -1.5722 -0.2461  2.3935
  944SOL    HW2 2832   1.982   1.062   1.578  1.6655 -1.8923 -1.4571
  945SOL     OW 2833   2.824   0.178   2.902 -1.0397  0.2823 -0.1115
  945SOL    HW1 2834   2.825   0.135   2.807 -1.5304  1.7276  0.9511
  945SOL    HW2 2835   2.813   0.109   2.976 -2.8725  1.6535  0.5782
  946SOL     OW 2836   2.912   1.112   1.898 -0.0326 -0.3116  0.0070
  946SOL    HW1 2837   2.918   1.147   1.805 -0.0399  0.0851  0.1866
  946SOL    HW2 2838   2.983   1.047   1.922 -0.0533  0.9969  0.8807
  947SOL     OW 2839   1.083   2.930   0.194  0.2996  0.2828 -0.2688
  947SOL    HW1 2840   0.991   2.895   0.161 -2.2867 -0.0125  0.9733
  947SOL    HW2 2841   1.064   2.997   0.272  0.5725  0.6208 -0.4160
  948SOL     OW 2842   2.412   1.693   1.285  0.4107 -0.0098  0.6898
  948SOL    HW1 2843   2.361   1.748   1.354  2.8043 -0.5677  1.7456
  948SOL    HW2 2844   2.514   1.712   1.295  1.8042 -0.8403 -0.2805
  949SOL     OW 2845   0.184   1.460   0.129  0.0037 -0.1803 -0.4288
  949SOL    HW1 2846   0.157   1.371   0.087  3.4593 -0.1150  0.3122
  949SOL    HW2 2847   0.239   1.516   0.060  0.0626  0.6835 -1.8741
  950SOL     OW 2848   0.747   2.499   1.115  0.1978  0.0108 -0.6967
  950SOL    HW1 2849   0.690   2.509   1.198  0.3277  0.3538 -0.3220
  950SOL    HW2 2850   0.684   2.478   1.039  0.9156  1.7586  3.6901
  951SOL     OW 2851   0.637   1.423   2.727  0.0325 -0.1927  0.2222
  951SOL    HW1 2852   0.691   1.486   2.782  1.4441 -0.1439 -1.9837
  951SOL    HW2 2853   0.652   1.326   2.750 -0.5905  0.2223 -1.5135
  952SOL     OW 2854   0.576   0.710   0.637 -0.1977  0.2079 -0.0512
  952SOL    HW1 2855   0.584   0.615   0.676 -1.7390 -2.2204 -1.0704
  952SOL    HW2 2856   0.643   0.777   0.672 -2.6462 -0.0021  1.1584
  953SOL     OW 2857   2.564   3.068   2.396  0.2391  0.1712  0.1458
  953SOL    HW1 2858   2.551   3.057   2.295 -0.6046 -0.0862 -1.1264
  953SOL    HW2 2859   2.622   0.039   2.421  1.0866 -0.1546 -0.9237
  954SOL     OW 2860   1.626   0.911   0.716 -0.5997  0.4295 -0.7151
  954SOL    HW1 2861   1.663   0.986   0.773 -0.5585  0.4680 -1.7258
  954SOL    HW2 2862   1.675   0.919   0.628 -0.6586 -0.6535 -0.0744
  955SOL     OW 2863   0.712   1.950   0.322 -0.1751 -0.1807 -0.2343
  955SOL    HW1 2864   0.772   1.993   0.253 -1.0382  0.6637 -0.2743
  955SOL    HW2 2865   0.668   2.028   0.373  1.2810  3.1342 -0.1257
  956SOL     OW 2866   2.285   0.373   2.091  0.3140  0.2093 -0.4431
  956SOL    HW1 2867   2.245   0.425   2.171  0.3724  0.3402  1.1531
  956SOL    HW2 2868   2.384   0.384   2.085  2.7178 -1.8461 -0.3769
  957SOL     OW 2869   2.221   2.410   1.837 -0.4259  0.0222 -0.4766
  957SOL    HW1 2870   2.298   2.476   1.860  1.0528 -0.9733  1.3979
  957SOL    HW2 2871   2.263   2.330   1.787  1.7005 -0.1426  1.8282
  958SOL     OW 2872   1.608   1.111   1.536  0.1124  0.0881 -0.0481
  958SOL    HW1 2873   1.637   1.209   1.515 -1.0531 -1.0807  0.6496
  958SOL    HW2 2874   1.677   1.052   1.578 -0.1629  0.8287  0.9689
  959SOL     OW 2875   2.054   1.720   2.181  0.3159 -0.0054 -0.2445
  959SOL    HW1 2876   1.975   1.734   2.117  0.7869 -0.4109  1.4404
  959SOL    HW2 2877   2.074   1.807   2.232 -0.0098 -0.4361 -1.9000
  960SOL     OW 2878   0.581   0.921   2.809  0.2841  0.0937  0.1274
  960SOL    HW1 2879   0.557   0.894   2.710  1.5535 -0.6383 -0.4366
  960SOL    HW2 2880   0.658   0.864   2.847 -1.0559  1.8725  0.7025
  961SOL     OW 2881   0.127   1.262   3.083 -0.4516  0.4268  0.1036
  961SOL    HW1 2882   0.138   1.158   3.088  1.6730 -0.8212 -1.6104
  961SOL    HW2 2883   0.080   1.296   2.997  0.5799  0.4456  0.7806
  962SOL     OW 2884   0.755   1.731   2.335 -0.0598 -0.4783  0.2103
  962SOL    HW1 2885   0.691   1.655   2.352 -1.1943 -1.4674 -0.9346
  962SOL    HW2 2886   0.716   1.812   2.378  0.0731 -6.8641 -0.2918
  963SOL     OW 2887   2.967   2.155   2.945  0.7141 -0.1512 -0.0915
  963SOL    HW1 2888   2.867   2.171   2.964 -0.7250  1.9562 -0.7469
  963SOL    HW2 2889   2.999   2.196   2.856  1.3271  1.6293 -1.7367
  964SOL     OW 2890   0.906   1.897   1.793  0.3249  0.2297  0.3916
  964SOL    HW1 2891   0.880   1.831   1.864 -1.4069 -2.8803  0.3441
  964SOL    HW2 2892   0.982   1.862   1.726  2.1503 -0.4805  0.9685
  965SOL     OW 2893   1.636   2.005   0.597 -0.0731 -0.0863 -0.4422
  965SOL    HW1 2894   1.635   2.105   0.586 -1.2565 -2.6522  0.3769
  965SOL    HW2 2895   1.730   1.969   0.600 -0.4613  2.8550  1.0488
  966SOL     OW 2896   2.916   1.826   0.133  0.6022 -0.2090  0.0638
  966SOL    HW1 2897   3.005   1.860   0.091  1.2074  0.0228 -0.1297
  966SOL    HW2 2898   2.936   1.742   0.190 -0.2706 -1.7399  3.6765
  967SOL     OW 2899   2.105   3.040   2.323  0.1458  0.0290 -0.3183
  967SOL    HW1 2900   2.162   3.003   2.401 -0.7880 -1.4164  0.3114
  967SOL    HW2 2901   2.084   2.959   2.262 -0.2309  0.3065 -1.9018
  968SOL     OW 2902   0.779   0.528   0.356  0.1499  0.1998  0.4382
  968SOL    HW1 2903   0.797   0.621   0.380 -2.5244 -0.6043  3.0692
  968SOL    HW2 2904   0.868   0.484   0.331  0.8113 -1.2385 -1.0481
  969SOL     OW 2905   0.472   1.725   2.156 -0.2113 -0.9401 -0.5601
  969SOL    HW1 2906   0.511   1.817   2.139 -2.2594  1.5168  0.7219
  969SOL    HW2 2907   0.537   1.645   2.127 -1.1691  0.4021 -0.0850
  970SOL     OW 2908   1.860   2.584   1.226  0.0990 -0.0071  0.4591
  970SOL    HW1 2909   1.951   2.585   1.186 -2.7699  2.2466 -0.9507
  970SOL    HW2 2910   1.848   2.507   1.290  1.3170 -0.6183  1.4660
  971SOL     OW 2911   2.271   2.473   0.835 -0.1600 -0.1173 -0.3686
  971SOL    HW1 2912   2.210   2.552   0.818  0.1273  2.2600 -0.9756
  971SOL    HW2 2913   2.312   2.479   0.929  0.4379  0.6105  1.4219
  972SOL     OW 2914   0.071   1.036   2.559  0.3119  0.0387 -0.0330
  972SOL    HW1 2915   0.129   1.034   2.473  0.2077  1.8852  0.7586
  972SOL    HW2 2916   0.123   1.060   2.645 -0.0836 -1.1139 -0.6742
  973SOL     OW 2917   0.579   0.106   0.581  0.0978  0.3288  0.6327
  973SOL    HW1 2918   0.666   0.156   0.558  0.1599  2.5259 -1.9125
  973SOL    HW2 2919   0.510   0.175   0.607  0.9027  2.4975 -1.8383
  974SOL     OW 2920   2.217   1.051   1.842 -0.8281  0.0120  0.5881
  974SOL    HW1 2921   2.147   1.121   1.824  1.6289 -5.4053  1.0203
  974SOL    HW2 2922   2.307   1.091   1.865 -1.2845 -1.7706 -1.8316
  975SOL     OW 2923   0.072   3.091   0.541 -0.1848  0.1878 -0.0717
  975SOL    HW1 2924   3.089   3.073   0.553  3.0346  1.2367  0.3976
  975SOL    HW2 2925   0.109   3.043   0.454  0.9950 -0.3099 -2.0574
  976SOL     OW 2926   0.229   1.875   1.019  0.4315 -0.0398 -0.1994
  976SOL    HW1 2927   0.151   1.844   1.069  0.2036  0.8178 -0.2691
  976SOL    HW2 2928   0.214   1.853   0.921  0.0756 -1.2817 -0.3373
  977SOL     OW 2929   0.981   1.947   0.630  0.0353  0.2950  0.6768
  977SOL    HW1 2930   0.894   1.892   0.618 -0.3337 -0.3373  1.6506
  977SOL    HW2 2931   0.961   2.020   0.697  0.2711  0.6722  0.1092
  978SOL     OW 2932   0.134   0.805   0.127  0.1670 -0.2418  0.5724
  978SOL    HW1 2933   0.201   0.768   0.058 -0.9258  0.8863 -0.2563
  978SOL    HW2 2934   0.086   0.887   0.082 -1.2188 -0.5118 -0.1929
  979SOL     OW 2935   1.862   1.594   0.674  0.0540 -0.0650 -0.2132
  979SOL    HW1 2936   1.961   1.600   0.696 -1.5987 -0.9105  0.2389
  979SOL    HW2 2937   1.797   1.591   0.754 -3.9469  1.0738 -0.4774
  980SOL     OW 2938   0.643   2.217   1.998 -0.2168 -0.0891  0.2683
  980SOL    HW1 2939   0.729   2.196   2.051 -2.9648 -1.2753 -0.6889
  980SOL    HW2 2940   0.656   2.192   1.899 -2.6476 -0.8072 -0.0908
  981SOL     OW 2941   2.161   1.009   3.007 -0.2873 -0.0495  0.2709
  981SOL    HW1 2942   2.068   1.020   2.962 -3.5014  2.8224 -1.4772
  981SOL    HW2 2943   2.189   0.910   3.015 -0.9973 -2.7330  2.6752
  982SOL     OW 2944   0.009   2.726   1.789 -0.2464 -0.0501  0.1968
  982SOL    HW1 2945   3.069   2.752   1.869  2.9861  2.6539  3.2170
  982SOL    HW2 2946   0.100   2.695   1.818 -0.4710  0.5722  0.1961
  983SOL     OW 2947   1.661   0.234   1.721 -0.3094 -0.0014 -0.0107
  983SOL    HW1 2948   1.634   0.328   1.748 -0.0314 -2.4735  0.7660
  983SOL    HW2 2949   1.591   0.162   1.738  5.0948  0.6141  1.2584
  984SOL     OW 2950   2.054   2.860   2.573 -0.3911 -0.1251  0.3503
  984SOL    HW1 2951   2.120   2.808   2.631 -0.1203 -0.0217 -0.9668
  984SOL    HW2 2952   1.970   2.799   2.570 -1.7109 -2.0739 -1.2519
  985SOL     OW 2953   1.639   1.436   1.720 -0.4911 -0.4971  0.0340
  985SOL    HW1 2954   1.541   1.397   1.715 -2.4286 -2.3001 -2.0433
  985SOL    HW2 2955   1.641   1.538   1.738 -0.3075  3.7056  0.1802
  986SOL     OW 2956   2.281   2.709   2.323  0.0822 -0.0288  0.0507
  986SOL    HW1 2957   2.269   2.793   2.381  1.0504 -2.1100 -0.7248
  986SOL    HW2 2958   2.254   2.624   2.369 -0.8139  0.7058  2.5544
  987SOL     OW 2959   2.858   1.873   2.800  0.5475 -0.4626  0.0332
  987SOL    HW1 2960   2.842   1.806   2.724 -2.8726  0.4428  1.1161
  987SOL    HW2 2961   2.797   1.956   2.783  1.4284  0.3567  0.5262
  988SOL     OW 2962   3.036   0.568   1.476 -0.6763 -0.3597  0.6831
  988SOL    HW1 2963   3.014   0.628   1.553  1.6490  0.1119 -3.5734
  988SOL    HW2 2964   2.952   0.532   1.434  1.6129  0.9955  0.3144
  989SOL     OW 2965   1.986   1.417   1.452 -0.1372  0.4468  0.1347
  989SOL    HW1 2966   2.077   1.458   1.431 -1.4303  0.3319 -0.4309
  989SOL    HW2 2967   1.993   1.328   1.496 -3.5251  1.1341 -0.7439
  990SOL     OW 2968   2.726   0.702   0.147  0.2980 -0.0247  0.6788
  990SOL    HW1 2969   2.687   0.783   0.097  2.7225  2.4942 -0.2787
  990SOL    HW2 2970   2.679   0.617   0.112  0.5735  0.7539  1.8421
  991SOL     OW 2971   0.323   1.882   3.112  0.2632 -0.1399  0.3329
  991SOL    HW1 2972   0.368   1.911   3.028  2.2231  1.1332  1.3428
  991SOL    HW2 2973   0.372   1.901   0.087 -0.8537 -0.5655  0.8652
  992SOL     OW 2974   2.289   1.692   1.660 -0.2489 -0.1778  0.1503
  992SOL    HW1 2975   2.213   1.625   1.667  1.2949  1.3157 -0.8275
  992SOL    HW2 2976   2.367   1.662   1.718 -0.1605  1.1881  0.2934
  993SOL     OW 2977   0.755   3.062   0.765  0.3590  0.1195  0.2054
  993SOL    HW1 2978   0.767   0.048   0.791 -0.9872  1.8244 -0.4722
  993SOL    HW2 2979   0.775   3.044   0.662 -3.2733 -1.2981 -2.3706
  994SOL     OW 2980   2.686   2.022   1.483  0.0840 -0.3609 -0.2598
  994SOL    HW1 2981   2.758   2.031   1.552  0.8303 -1.1711  1.4346
  994SOL    HW2 2982   2.649   1.926   1.494  3.0539 -4.8866 -2.5672
  995SOL     OW 2983   2.133   1.911   2.381  0.0556 -0.3196  0.3800
  995SOL    HW1 2984   2.065   1.983   2.410  2.2250 -1.7473 -0.2162
  995SOL    HW2 2985   2.227   1.945   2.389 -0.3582 -0.7900  1.1203
  996SOL     OW 2986   1.876   1.704   3.008 -0.8376 -0.0287  0.0265
  996SOL    HW1 2987   1.809   1.660   3.069 -1.6464  1.2124  1.6106
  996SOL    HW2 2988   1.961   1.750   3.050  2.4124 -0.2983  0.9432
  997SOL     OW 2989   1.135   1.521   2.151  0.5896 -0.0527  0.0237
  997SOL    HW1 2990   1.086   1.539   2.236  0.2015 -0.9019  0.8534
  997SOL    HW2 2991   1.213   1.587   2.141  0.5660  1.8360  1.4837
  998SOL     OW 2992   2.681   2.368   0.716  0.1748 -0.2001  0.0366
  998SOL    HW1 2993   2.677   2.303   0.637 -1.3220  0.5843 -3.1553
  998SOL    HW2 2994   2.775   2.407   0.724 -2.2954  1.3570  0.1409
  999SOL     OW 2995   0.103   2.491   0.891 -0.1734  0.0951  0.5951
  999SOL    HW1 2996   0.170   2.426   0.921 -1.3907  5.0355 -0.4862
  999SOL    HW2 2997   0.152   2.583   0.888 -0.8359  0.6718 -1.7400
 1000SOL     OW 2998   1.228   3.008   3.069 -0.4492 -0.1699 -0.2002
 1000SOL    HW1 2999   1.190   2.956   0.037 -2.2658 -1.4527  0.9033
 1000SOL    HW2 3000   1.182   3.096   3.050  1.6203 -1.6144  3.1650
   3.11182   3.11182   3.11182
