1000 SPC/Fw water molecules t= 126.00000 step= 126000
 3000
    1SOL     OW    1   2.248   2.179   0.971 -0.0531 -0.5145  0.8671
    1SOL    HW1    2   2.277   2.119   0.892  1.1320  1.3471 -3.0727
    1SOL    HW2    3   2.222   2.120   1.050  1.1827 -1.5157  0.1066
    2SOL     OW    4   1.467   1.847   2.352 -0.6867 -0.0410  0.1666
    2SOL    HW1    5   1.415   1.870   2.441 -2.1715  0.2385  1.3776
    2SOL    HW2    6   1.440   1.758   2.313  3.6774  2.7898 -2.1146
    3SOL     OW    7   1.527   2.381   2.420 -0.0079  0.0516  0.2880
    3SOL    HW1    8   1.482   2.424   2.344  0.3315 -0.7223  2.7656
    3SOL    HW2    9   1.601   2.326   2.377 -1.4564  1.6272  1.8557
    4SOL     OW   10   1.141   2.275   2.111  0.2040  0.1399  0.2336
    4SOL    HW1   11   1.119   2.210   2.043  0.3517  2.5357  0.9451
    4SOL    HW2   12   1.123   2.238   2.204  2.0070 -1.0785  0.5875
    5SOL     OW   13   0.712   0.904   1.725 -0.3683 -0.2946 -0.3480
    5SOL    HW1   14   0.716   0.996   1.764  0.3934  1.5984  1.8851
    5SOL    HW2   15   0.628   0.858   1.760 -1.3018  0.1073 -1.1909
    6SOL     OW   16   2.175   0.852   0.009  0.6127  0.1563  0.1370
    6SOL    HW1   17   2.082   0.834   0.048  4.1005 -1.0420 -0.2899
    6SOL    HW2   18   2.244   0.791   0.045 -1.1443  1.4224  0.8581
    7SOL     OW   19   0.454   3.074   1.604  0.3364 -0.4627 -0.5245
    7SOL    HW1   20   0.504   0.019   1.689  3.1580 -1.0154 -1.1033
    7SOL    HW2   21   0.419   2.981   1.618  2.0842  1.2734 -0.9067
    8SOL     OW   22   1.251   2.894   1.613 -0.8547 -0.5841 -0.2406
    8SOL    HW1   23   1.327   2.836   1.642  0.9341 -0.0965 -2.7182
    8SOL    HW2   24   1.169   2.876   1.666  2.1425 -0.7610 -0.5755
    9SOL     OW   25   0.566   0.764   0.449 -0.0484 -0.1786 -1.0013
    9SOL    HW1   26   0.630   0.840   0.463 -1.5472  0.1566  2.4011
    9SOL    HW2   27   0.473   0.791   0.418 -0.3975 -3.8533  1.7122
   10SOL     OW   28   0.696   2.330   2.507 -0.4323 -0.1383  0.4627
   10SOL    HW1   29   0.682   2.288   2.601 -2.4313 -0.2812  0.3720
   10SOL    HW2   30   0.645   2.422   2.498 -2.4149  4.0806 -2.1668
   11SOL     OW   31   0.411   1.989   3.053  0.6731  0.8990 -0.0536
   11SOL    HW1   32   0.489   1.930   3.018  0.8890 -0.9767 -0.5763
   11SOL    HW2   33   0.343   1.943   0.025  3.3865  1.0082 -1.9648
   12SOL     OW   34   0.331   0.107   1.379  0.2857 -0.4717 -0.1409
   12SOL    HW1   35   0.392   0.064   1.454  0.5600 -0.3245  1.0616
   12SOL    HW2   36   0.246   0.054   1.357 -1.3640  0.0269  0.7374
   13SOL     OW   37   0.744   2.597   0.158 -0.1294  0.1794 -0.3397
   13SOL    HW1   38   0.828   2.538   0.153 -0.7246  0.4590 -0.2930
   13SOL    HW2   39   0.774   2.692   0.178 -3.4416 -1.1168  0.7597
   14SOL     OW   40   1.575   1.673   0.818  0.0944 -0.1781  0.1483
   14SOL    HW1   41   1.631   1.681   0.906  0.6815  0.1119  0.7120
   14SOL    HW2   42   1.506   1.750   0.797 -0.2352  0.0468 -0.4183
   15SOL     OW   43   2.910   1.119   2.188 -0.2431 -0.7567  0.6327
   15SOL    HW1   44   2.904   1.088   2.283  0.3784 -0.4042 -3.6839
   15SOL    HW2   45   2.924   1.218   2.183  1.8153 -1.0368 -0.8602
   16SOL     OW   46   1.351   2.930   2.977 -0.0075 -0.3408 -0.4667
   16SOL    HW1   47   1.349   2.840   2.921  1.2686 -0.3037 -2.3712
   16SOL    HW2   48   1.289   2.998   2.935 -0.2780 -2.6423 -0.6627
   17SOL     OW   49   0.650   2.398   2.123 -0.1417 -0.2893 -0.0953
   17SOL    HW1   50   0.666   2.321   2.189  1.8103  2.3129  0.6024
   17SOL    HW2   51   0.566   2.458   2.144 -2.6656  1.8278 -0.4836
   18SOL     OW   52   1.619   0.737   0.204  0.1882  0.0192 -0.3607
   18SOL    HW1   53   1.658   0.813   0.260  0.7160  1.1232  0.3624
   18SOL    HW2   54   1.682   0.659   0.202 -0.4737  1.7506  3.2532
   19SOL     OW   55   2.443   2.063   2.752 -0.6123  0.4771  0.2361
   19SOL    HW1   56   2.412   2.025   2.843 -0.8373 -2.6591 -0.6278
   19SOL    HW2   57   2.523   2.005   2.715  3.8498 -2.6604 -2.0040
   20SOL     OW   58   2.513   2.228   2.353  0.7773  0.5385  0.3799
   20SOL    HW1   59   2.534   2.326   2.344 -2.3581 -1.5551  0.4644
   20SOL    HW2   60   2.594   2.169   2.360  0.1403  3.5973 -0.4200
   21SOL     OW   61   0.632   2.154   0.118 -0.0475  0.3791 -0.0653
   21SOL    HW1   62   0.575   2.234   0.148  0.4759  1.2775  2.1048
   21SOL    HW2   63   0.581   2.083   0.070 -1.0652 -0.2633 -1.7922
   22SOL     OW   64   2.162   2.881   1.118 -0.1025  0.0481  0.3106
   22SOL    HW1   65   2.266   2.874   1.115  1.7514  1.9332 -0.2529
   22SOL    HW2   66   2.128   2.811   1.182  0.7463  2.0745 -1.8919
   23SOL     OW   67   0.395   1.239   1.536 -0.1691 -0.0268 -0.0918
   23SOL    HW1   68   0.345   1.306   1.484  0.5878 -1.6606  0.2684
   23SOL    HW2   69   0.456   1.285   1.611  0.9720  3.4405  4.4130
   24SOL     OW   70   2.225   1.949   1.655 -0.0169  0.4960 -0.5994
   24SOL    HW1   71   2.229   1.862   1.703  1.6094  1.0586 -1.8020
   24SOL    HW2   72   2.213   2.027   1.719  2.8255  0.2907  0.3948
   25SOL     OW   73   1.931   0.223   2.540 -0.2636  0.6911  0.0023
   25SOL    HW1   74   1.922   0.323   2.521 -1.4530  0.3767 -0.8522
   25SOL    HW2   75   1.863   0.165   2.490 -1.6547  0.1015  0.5589
   26SOL     OW   76   1.248   2.877   0.993  0.0211 -0.2986  0.7682
   26SOL    HW1   77   1.307   2.894   0.911  1.8153 -0.3904 -0.7042
   26SOL    HW2   78   1.254   2.957   1.058  0.4178 -0.1576 -0.5401
   27SOL     OW   79   1.255   1.829   0.045  0.0402  0.1524 -0.1234
   27SOL    HW1   80   1.281   1.741   0.089 -0.5333 -2.5390  0.3870
   27SOL    HW2   81   1.156   1.822   0.020 -0.0960  0.5550 -0.8397
   28SOL     OW   82   2.891   1.786   1.301 -0.1800  0.7092  0.2871
   28SOL    HW1   83   2.815   1.738   1.355 -2.4982 -1.6704  0.7355
   28SOL    HW2   84   2.982   1.764   1.344 -2.3425 -2.4140  1.2256
   29SOL     OW   85   2.214   2.518   1.983 -0.0172 -0.1205  0.1499
   29SOL    HW1   86   2.228   2.423   2.017  1.3112 -1.8367 -2.7100
   29SOL    HW2   87   2.136   2.568   2.027 -1.8840  0.8524 -2.5780
   30SOL     OW   88   0.867   2.566   1.185 -0.1873  0.1571 -0.0776
   30SOL    HW1   89   0.914   2.509   1.116  1.4441  0.3683  1.6108
   30SOL    HW2   90   0.763   2.575   1.166 -1.7156 -0.3711  1.2311
   31SOL     OW   91   2.999   2.035   2.077 -0.3301 -0.1873  0.2365
   31SOL    HW1   92   3.021   1.938   2.056 -1.7688 -0.6301  0.9255
   31SOL    HW2   93   3.085   2.088   2.084  1.2484 -1.5439  2.2884
   32SOL     OW   94   1.554   1.104   2.051  0.3516 -0.0022  0.0880
   32SOL    HW1   95   1.513   1.010   2.034 -0.2780 -2.1360 -1.4091
   32SOL    HW2   96   1.478   1.170   2.073  0.6887  1.0089  1.1668
   33SOL     OW   97   0.522   2.969   2.340  0.4860 -0.4308 -0.1760
   33SOL    HW1   98   0.434   2.927   2.370 -0.1028 -0.6269 -0.0021
   33SOL    HW2   99   0.585   2.987   2.418 -0.1768  0.4722  0.4785
   34SOL     OW  100   1.537   3.060   1.593  0.5066 -0.0056  0.0879
   34SOL    HW1  101   1.485   3.015   1.669  0.4875  0.9653 -2.7234
   34SOL    HW2  102   1.564   0.063   1.622  1.0437 -1.5578  3.6912
   35SOL     OW  103   2.109   0.560   1.163  0.0796  0.2357  0.0693
   35SOL    HW1  104   2.093   0.581   1.262 -0.0860 -2.9603  0.5635
   35SOL    HW2  105   2.017   0.566   1.116 -1.3452  1.9771  2.5496
   36SOL     OW  106   2.393   3.021   2.581 -0.2236  0.3847  0.6616
   36SOL    HW1  107   2.322   2.960   2.621  1.1702  0.0584 -1.5205
   36SOL    HW2  108   2.485   2.980   2.561  0.0094 -0.3104 -2.4827
   37SOL     OW  109   1.272   2.279   2.964 -0.4369  0.0872  0.1332
   37SOL    HW1  110   1.217   2.279   3.046  1.1287 -2.2463  0.7398
   37SOL    HW2  111   1.292   2.182   2.942  0.4009 -0.6858 -0.4021
   38SOL     OW  112   2.882   0.832   2.667  0.1130 -0.1882  0.1387
   38SOL    HW1  113   2.850   0.789   2.583 -2.2128  1.4354  1.7598
   38SOL    HW2  114   2.843   0.781   2.747  0.5634 -3.1941 -1.2621
   39SOL     OW  115   1.978   1.965   2.111 -0.3555 -0.3984  0.1570
   39SOL    HW1  116   1.934   1.958   2.020  0.2051  0.9538 -2.4604
   39SOL    HW2  117   2.031   2.050   2.114 -1.8956 -1.4838 -0.0246
   40SOL     OW  118   0.276   0.297   2.960 -0.3023  0.3233 -0.1279
   40SOL    HW1  119   0.297   0.278   3.058 -2.9302  0.1109  0.8787
   40SOL    HW2  120   0.311   0.214   2.902 -0.0419 -3.6862 -3.6352
   41SOL     OW  121   1.361   0.959   1.402 -0.6919  0.3507  0.1855
   41SOL    HW1  122   1.436   1.008   1.349  0.3043 -2.7353 -1.8851
   41SOL    HW2  123   1.351   0.983   1.500 -0.8267 -1.7463  0.2761
   42SOL     OW  124   0.111   0.245   1.935  0.2620 -0.4994 -0.3816
   42SOL    HW1  125   0.046   0.323   1.915  2.7616 -1.7289  2.0802
   42SOL    HW2  126   0.193   0.257   1.874  0.4457 -0.4932  2.5370
   43SOL     OW  127   1.586   1.591   2.026  0.7517  0.0595 -0.0752
   43SOL    HW1  128   1.515   1.602   2.101  2.4134  0.3159 -1.0575
   43SOL    HW2  129   1.631   1.500   2.030  1.7158 -2.2408  0.8436
   44SOL     OW  130   2.889   2.762   2.634  0.2015 -0.3197  0.0200
   44SOL    HW1  131   2.937   2.849   2.648  1.1751 -0.9834  0.4964
   44SOL    HW2  132   2.801   2.780   2.585 -3.2193  0.1764 -2.2036
   45SOL     OW  133   0.478   2.264   1.300 -0.5430  0.1135  0.2728
   45SOL    HW1  134   0.483   2.167   1.338 -0.8693  0.8039  0.7561
   45SOL    HW2  135   0.568   2.313   1.311 -1.0217 -1.2284 -0.9547
   46SOL     OW  136   2.344   2.469   1.716  0.0526 -0.1981  0.0556
   46SOL    HW1  137   2.302   2.436   1.800 -0.9565 -0.6952 -2.0212
   46SOL    HW2  138   2.420   2.531   1.742 -1.2584 -0.8619 -1.8707
   47SOL     OW  139   1.651   1.647   1.506 -0.7210  0.1190 -0.5076
   47SOL    HW1  140   1.585   1.690   1.571  3.0149 -2.6277 -2.6883
   47SOL    HW2  141   1.721   1.593   1.557 -0.0877  0.2735  1.0891
   48SOL     OW  142   0.287   2.128   0.388  0.0134 -0.1750 -0.0589
   48SOL    HW1  143   0.364   2.085   0.438  0.2785 -1.9267  1.4321
   48SOL    HW2  144   0.244   2.210   0.436  0.4645  1.4921 -1.7273
   49SOL     OW  145   0.009   1.063   2.001 -0.4475  0.1567  0.0481
   49SOL    HW1  146   0.088   1.125   2.025  0.9591  1.1059 -0.3900
   49SOL    HW2  147   3.020   1.081   2.069  1.6253  1.0242  0.6230
   50SOL     OW  148   1.989   0.836   0.687  0.6501 -0.4691 -0.2881
   50SOL    HW1  149   2.073   0.849   0.634 -0.1080 -0.9817  2.0758
   50SOL    HW2  150   1.911   0.790   0.635 -0.1041  0.2089 -0.0799
   51SOL     OW  151   1.125   0.633   0.693  0.2919 -0.1476 -0.0515
   51SOL    HW1  152   1.038   0.651   0.744  0.4714  2.6319 -2.7911
   51SOL    HW2  153   1.199   0.583   0.746  0.9928 -1.1610  0.0574
   52SOL     OW  154   1.341   1.106   0.300 -0.1628  0.6559 -0.1383
   52SOL    HW1  155   1.306   1.017   0.268 -1.4842 -0.0072 -0.3803
   52SOL    HW2  156   1.406   1.094   0.375 -2.4295  0.5143 -1.8232
   53SOL     OW  157   1.167   2.327   2.716 -0.0868 -0.2914 -0.3432
   53SOL    HW1  158   1.207   2.283   2.634 -2.2633  2.1680  1.8259
   53SOL    HW2  159   1.220   2.313   2.800 -0.0723  1.7305  0.9499
   54SOL     OW  160   1.431   0.787   1.685 -0.3662 -0.4223 -0.1000
   54SOL    HW1  161   1.331   0.801   1.656 -3.3327 -0.7502 -2.3436
   54SOL    HW2  162   1.478   0.727   1.617 -0.5859 -2.3620  2.0690
   55SOL     OW  163   2.055   2.860   0.484  0.5856  0.2597  0.1573
   55SOL    HW1  164   1.998   2.913   0.416  0.3163  2.7977 -1.6512
   55SOL    HW2  165   2.024   2.762   0.488 -2.5491  3.4033 -2.7033
   56SOL     OW  166   0.999   2.690   1.366  1.0466 -0.8126  0.3943
   56SOL    HW1  167   0.951   2.628   1.296  1.9957 -1.6411  0.2269
   56SOL    HW2  168   0.945   2.776   1.373  0.2580 -0.0292 -0.4336
   57SOL     OW  169   1.752   0.974   2.942  0.7804 -0.1919  0.4041
   57SOL    HW1  170   1.816   0.976   2.861 -0.4863  0.5636 -4.6580
   57SOL    HW2  171   1.782   1.038   3.015  1.3593  1.2809  1.3667
   58SOL     OW  172   2.984   1.098   1.758  0.7878 -0.3809  0.7296
   58SOL    HW1  173   3.026   1.104   1.850  1.4078  0.5400  1.2361
   58SOL    HW2  174   2.950   1.190   1.726  1.1236  2.5690 -0.7978
   59SOL     OW  175   0.633   2.582   2.421 -0.0708 -0.2627 -0.5906
   59SOL    HW1  176   0.582   2.558   2.337  0.4803 -0.3750 -0.1897
   59SOL    HW2  177   0.698   2.660   2.400 -0.4047  1.3208 -1.3132
   60SOL     OW  178   2.642   2.295   0.954  0.1212  0.4332  0.3909
   60SOL    HW1  179   2.554   2.276   1.002 -1.0515  0.1683 -1.1167
   60SOL    HW2  180   2.625   2.331   0.860 -1.2642  0.5427 -0.0210
   61SOL     OW  181   1.022   2.339   0.399  0.0217 -0.3414 -0.3349
   61SOL    HW1  182   1.125   2.330   0.397  3.0923  1.3150 -1.4994
   61SOL    HW2  183   0.974   2.262   0.346 -1.5286  0.8370  0.2864
   62SOL     OW  184   2.081   2.792   2.976  0.0653  0.3411  0.2946
   62SOL    HW1  185   2.132   2.703   2.987 -1.9351 -1.0042  4.1552
   62SOL    HW2  186   1.977   2.772   2.986 -2.3729  1.6361 -0.7958
   63SOL     OW  187   2.022   0.151   0.058  0.0731 -0.2544  0.0330
   63SOL    HW1  188   1.932   0.128   0.011  0.3482 -0.6221 -1.3425
   63SOL    HW2  189   2.104   0.108   0.011 -1.1700  1.7990 -0.9824
   64SOL     OW  190   0.916   1.068   2.586 -0.0188  1.1406 -0.1435
   64SOL    HW1  191   0.993   1.020   2.629 -2.7825 -3.3821  0.8941
   64SOL    HW2  192   0.857   1.006   2.527 -1.4009 -2.7669 -0.3016
   65SOL     OW  193   1.371   2.639   0.629  0.0409 -0.5878 -0.3690
   65SOL    HW1  194   1.404   2.574   0.559 -0.7313  2.4148 -0.6463
   65SOL    HW2  195   1.426   2.619   0.716  0.1447  2.0676  0.9029
   66SOL     OW  196   0.525   1.619   1.734 -0.0495 -0.7015 -0.0749
   66SOL    HW1  197   0.622   1.620   1.748 -0.5522  1.5953 -0.1073
   66SOL    HW2  198   0.486   1.531   1.770 -1.0183 -2.4935  3.0626
   67SOL     OW  199   2.397   2.934   2.160  0.2371  0.2522  0.5410
   67SOL    HW1  200   2.480   2.885   2.122 -1.7399 -4.7096 -0.9035
   67SOL    HW2  201   2.367   3.013   2.104  0.6914  0.1087 -1.9670
   68SOL     OW  202   0.887   0.752   1.563 -0.2916  0.0997 -0.1447
   68SOL    HW1  203   0.855   0.672   1.513  0.7921  1.0131  0.9077
   68SOL    HW2  204   0.811   0.799   1.601  0.0103  0.0645 -1.8013
   69SOL     OW  205   1.933   2.987   0.269  0.3376  0.2189  0.2158
   69SOL    HW1  206   1.838   2.943   0.262  0.8310 -0.0351  0.0836
   69SOL    HW2  207   1.917   0.001   0.286 -0.7928  2.4181  0.7024
   70SOL     OW  208   2.610   1.144   2.958  0.0845  0.3464 -0.2478
   70SOL    HW1  209   2.689   1.147   2.894 -3.1783 -0.7862  1.1017
   70SOL    HW2  210   2.626   1.091   3.042 -3.2152 -0.4987  2.6949
   71SOL     OW  211   2.938   1.657   3.038 -0.4134 -0.2415 -0.3033
   71SOL    HW1  212   2.910   1.643   2.941  1.7198  4.1728  2.5744
   71SOL    HW2  213   3.001   1.739   3.038  0.0093  1.7688 -0.2595
   72SOL     OW  214   2.987   1.957   0.368 -0.5680  0.6434 -0.3227
   72SOL    HW1  215   2.985   1.855   0.388  0.8986  0.1135  0.7176
   72SOL    HW2  216   3.080   1.986   0.332  0.0948  0.9637  2.9970
   73SOL     OW  217   0.992   0.946   0.402 -0.3013 -0.2971  0.0181
   73SOL    HW1  218   0.955   1.037   0.386  2.2147 -0.6594 -1.4618
   73SOL    HW2  219   0.969   0.883   0.326  2.7050  1.3588  0.2921
   74SOL     OW  220   0.228   1.912   1.868  0.1314  0.0312 -0.1799
   74SOL    HW1  221   0.213   2.006   1.907  0.8034  0.0443 -2.7693
   74SOL    HW2  222   0.328   1.896   1.852 -1.1532 -0.8812 -1.7953
   75SOL     OW  223   1.686   1.215   1.593  0.4343 -0.0227  0.2872
   75SOL    HW1  224   1.747   1.182   1.670 -0.6741 -0.0864  2.7417
   75SOL    HW2  225   1.592   1.233   1.634 -2.8170 -1.0853 -0.1089
   76SOL     OW  226   1.988   2.235   1.243  0.0167 -0.5532  0.1575
   76SOL    HW1  227   2.064   2.204   1.304 -2.7579  2.0001 -1.0440
   76SOL    HW2  228   2.012   2.332   1.216 -0.7409  2.1669  0.2896
   77SOL     OW  229   2.939   1.360   1.716 -0.2016  0.5646  0.4944
   77SOL    HW1  230   2.899   1.425   1.786 -0.1049 -0.8714  0.3684
   77SOL    HW2  231   3.016   1.400   1.659  1.0013  0.4222 -0.6740
   78SOL     OW  232   1.483   0.272   0.579 -0.2213 -0.3167  1.1159
   78SOL    HW1  233   1.494   0.253   0.677  1.7267  0.5786 -2.7292
   78SOL    HW2  234   1.562   0.324   0.534  1.1452  3.7183 -1.5387
   79SOL     OW  235   2.422   1.573   1.456 -0.4024 -0.5944 -0.7569
   79SOL    HW1  236   2.352   1.623   1.505 -1.2412 -0.5535  0.8247
   79SOL    HW2  237   2.412   1.479   1.482 -0.6624  3.0031  1.0234
   80SOL     OW  238   0.818   0.550   1.383 -0.1115 -0.1432 -0.0304
   80SOL    HW1  239   0.736   0.492   1.384 -0.4453  1.2573 -0.7395
   80SOL    HW2  240   0.852   0.566   1.286 -1.7928 -0.0056 -2.0279
   81SOL     OW  241   0.725   2.644   0.844 -0.1719 -0.0376  0.0010
   81SOL    HW1  242   0.778   2.656   0.931 -0.8965 -0.5956 -0.4351
   81SOL    HW2  243   0.741   2.727   0.786 -1.1707 -0.5721  0.4562
   82SOL     OW  244   1.635   3.011   1.911  0.7654  0.1228 -0.5197
   82SOL    HW1  245   1.631   2.929   1.850  0.3936  2.8717  1.6439
   82SOL    HW2  246   1.539   3.038   1.944 -1.1979 -0.6636  0.5646
   83SOL     OW  247   1.399   1.874   0.765  1.0048  0.1988 -0.1313
   83SOL    HW1  248   1.441   1.912   0.846  0.1824 -0.7274 -0.8521
   83SOL    HW2  249   1.435   1.923   0.685  1.4753 -0.2442  1.1346
   84SOL     OW  250   0.082   1.505   2.911 -0.1138 -0.3638  0.2195
   84SOL    HW1  251   0.134   1.430   2.866 -1.0751  0.3302  0.7055
   84SOL    HW2  252   3.068   1.513   2.886 -1.7443 -0.6867  0.8926
   85SOL     OW  253   0.391   2.257   1.019 -0.3732 -0.0485 -0.1475
   85SOL    HW1  254   0.432   2.332   0.965  1.0833 -2.5626  0.4385
   85SOL    HW2  255   0.397   2.282   1.120 -0.2854 -1.0084  3.2966
   86SOL     OW  256   2.114   2.384   1.615 -0.7881  0.6227 -0.3158
   86SOL    HW1  257   2.196   2.446   1.630 -1.4710 -1.1858 -2.9623
   86SOL    HW2  258   2.045   2.398   1.687  2.1882 -1.1688  2.3505
   87SOL     OW  259   2.926   2.074   0.599  0.0152 -0.3534  1.0409
   87SOL    HW1  260   3.007   2.139   0.622  2.3489  0.6982  1.4016
   87SOL    HW2  261   2.943   2.015   0.518 -1.1420 -1.5772 -0.5518
   88SOL     OW  262   0.995   0.820   1.055 -0.3331 -0.3754  0.1767
   88SOL    HW1  263   1.070   0.861   1.114 -1.4718  0.0381  2.4730
   88SOL    HW2  264   0.995   0.854   0.956 -1.5723 -1.5228 -1.8475
   89SOL     OW  265   1.024   0.005   1.979 -0.4896  0.5569  0.2537
   89SOL    HW1  266   0.960   0.075   2.019  1.5529  1.4421 -0.2337
   89SOL    HW2  267   1.110   0.002   2.031  1.7056 -0.5662 -1.4820
   90SOL     OW  268   0.091   2.013   1.591 -0.5551  0.0137  0.8319
   90SOL    HW1  269   0.082   1.919   1.623  0.0468  1.1583  2.3456
   90SOL    HW2  270   0.166   2.056   1.639 -2.1105 -3.4564 -0.7587
   91SOL     OW  271   1.399   2.196   1.348 -0.0132  0.1341  0.0659
   91SOL    HW1  272   1.380   2.129   1.417  1.1550  3.2596 -1.9778
   91SOL    HW2  273   1.500   2.192   1.327  4.2135 -3.7562 -2.0265
   92SOL     OW  274   2.529   2.894   1.466  0.2343  0.2412 -0.0550
   92SOL    HW1  275   2.556   2.950   1.383  0.6478 -0.3768 -0.4604
   92SOL    HW2  276   2.546   2.950   1.547  0.0394 -1.2804  0.1742
   93SOL     OW  277   3.056   1.036   2.724  0.1656 -0.8871  0.4831
   93SOL    HW1  278   0.029   0.980   2.782 -0.6895  0.3519 -2.6872
   93SOL    HW2  279   2.972   0.988   2.700  0.3920  0.1541  2.0507
   94SOL     OW  280   2.671   2.388   1.831 -0.1357 -0.1122  0.6377
   94SOL    HW1  281   2.685   2.384   1.927  1.1573 -2.0851 -3.0924
   94SOL    HW2  282   2.630   2.482   1.804 -2.8450  2.1172 -0.0325
   95SOL     OW  283   1.261   0.488   2.168  0.3376 -0.5336 -0.3445
   95SOL    HW1  284   1.165   0.456   2.183  0.2422 -0.7099  0.8709
   95SOL    HW2  285   1.259   0.590   2.186  1.3561 -0.5210  1.3800
   96SOL     OW  286   2.508   0.555   1.676  0.4154  0.1585 -0.0178
   96SOL    HW1  287   2.495   0.465   1.630 -0.6879 -0.3757  0.0881
   96SOL    HW2  288   2.489   0.545   1.775  1.2772 -1.6103 -3.1148
   97SOL     OW  289   2.058   0.451   1.859 -0.0274 -0.2420  0.0079
   97SOL    HW1  290   1.966   0.450   1.892 -0.6270  0.7925  0.9787
   97SOL    HW2  291   2.064   0.501   1.769  2.2189 -0.1593  0.6031
   98SOL     OW  292   1.983   2.518   1.238  0.5293 -0.5750  0.5852
   98SOL    HW1  293   1.964   2.533   1.141 -0.0744 -0.8540  0.2699
   98SOL    HW2  294   1.998   2.599   1.293  1.8353 -0.7374  1.0124
   99SOL     OW  295   2.625   0.273   1.994 -0.0337  0.5247 -0.4349
   99SOL    HW1  296   2.663   0.275   2.090 -1.6703  0.5261  2.2620
   99SOL    HW2  297   2.694   0.309   1.934  0.0344 -3.6438  0.3327
  100SOL     OW  298   2.254   1.628   1.649  0.3177 -0.5094  0.1186
  100SOL    HW1  299   2.169   1.619   1.704  0.0459  1.1281 -2.5087
  100SOL    HW2  300   2.329   1.666   1.707  2.4637  1.0911  0.5628
  101SOL     OW  301   1.579   3.085   0.999  0.2885  0.3761 -0.0224
  101SOL    HW1  302   1.605   0.001   1.099 -0.1399 -0.2468 -1.2950
  101SOL    HW2  303   1.636   3.015   0.956 -1.2049  1.1193  0.1216
  102SOL     OW  304   0.587   0.762   1.421 -0.0593  0.0243 -0.2782
  102SOL    HW1  305   0.621   0.668   1.405 -1.8069 -0.9930  0.1408
  102SOL    HW2  306   0.642   0.828   1.367 -2.2180 -0.7365  0.8521
  103SOL     OW  307   2.653   0.307   3.067  0.1201  0.1129 -0.4378
  103SOL    HW1  308   2.726   0.240   3.053 -2.6321  0.4426  0.1616
  103SOL    HW2  309   2.670   0.379   0.053  3.9857  0.6064 -2.2098
  104SOL     OW  310   2.699   0.157   1.562  0.2624  0.3652  0.2917
  104SOL    HW1  311   2.769   0.084   1.554  1.9749 -0.0412 -0.0710
  104SOL    HW2  312   2.739   0.246   1.547  0.5925 -2.1438  2.2657
  105SOL     OW  313   1.825   0.823   2.006  0.3249  0.0250  0.3127
  105SOL    HW1  314   1.836   0.745   2.074  1.0715  1.4859  1.2685
  105SOL    HW2  315   1.835   0.918   2.041 -2.5899 -0.1190  1.4881
  106SOL     OW  316   1.782   2.910   0.910 -0.3487 -0.2507  0.1224
  106SOL    HW1  317   1.822   2.925   1.002 -1.3994 -1.4073 -1.6485
  106SOL    HW2  318   1.847   2.930   0.838  1.8235 -0.9727 -1.3947
  107SOL     OW  319   0.808   1.069   0.919  0.0800  0.5825 -0.5393
  107SOL    HW1  320   0.765   1.157   0.935 -0.5375 -0.0218 -0.0792
  107SOL    HW2  321   0.737   0.997   0.924 -0.3567  1.6418  0.4016
  108SOL     OW  322   2.747   0.305   2.236 -0.1129 -0.4231 -0.9982
  108SOL    HW1  323   2.814   0.227   2.246  0.7778 -0.3721  2.6196
  108SOL    HW2  324   2.675   0.290   2.311 -2.2604 -3.0776 -1.6987
  109SOL     OW  325   1.810   0.350   0.182 -0.7765 -0.2263  0.0123
  109SOL    HW1  326   1.718   0.326   0.159  7.5044 -0.7170  1.8363
  109SOL    HW2  327   1.867   0.346   0.094  0.3020  0.9999 -0.7259
  110SOL     OW  328   0.099   2.193   2.806 -0.3045  0.1168  0.5334
  110SOL    HW1  329   0.064   2.286   2.793 -1.2221 -0.3153 -1.6974
  110SOL    HW2  330   0.071   2.159   2.902  0.4939 -1.5373  2.3173
  111SOL     OW  331   2.100   0.319   2.249 -0.3653  0.1415 -0.0079
  111SOL    HW1  332   2.175   0.381   2.210 -3.9390 -1.4128  0.6816
  111SOL    HW2  333   2.141   0.247   2.309  2.5863  0.4337  3.1567
  112SOL     OW  334   2.539   3.077   0.594 -0.2932  0.3219  0.0901
  112SOL    HW1  335   2.495   0.072   0.630  1.2995  0.9063 -3.0825
  112SOL    HW2  336   2.475   3.021   0.530 -1.9792 -0.3460 -0.1233
  113SOL     OW  337   2.520   1.934   1.534 -0.0388 -0.3859 -0.5922
  113SOL    HW1  338   2.549   1.943   1.440  3.5006  0.2470  3.0168
  113SOL    HW2  339   2.419   1.958   1.538 -3.1634  1.5817 -0.5591
  114SOL     OW  340   2.814   0.723   0.592  0.1726 -0.0106  0.1562
  114SOL    HW1  341   2.800   0.792   0.518 -0.1618 -0.8295 -0.7570
  114SOL    HW2  342   2.879   0.648   0.573 -2.3981  0.7262 -0.8771
  115SOL     OW  343   2.775   1.666   0.173  0.6821  0.7524  0.0448
  115SOL    HW1  344   2.842   1.671   0.251 -1.0654  0.9702 -0.9523
  115SOL    HW2  345   2.826   1.648   0.087  1.1660  2.7299 -0.9692
  116SOL     OW  346   0.053   1.514   1.927  0.3605 -0.1663 -0.0235
  116SOL    HW1  347   3.040   1.497   1.907  1.8649  1.5838 -1.3989
  116SOL    HW2  348   0.113   1.450   1.872  0.4197  0.3963 -0.3035
  117SOL     OW  349   2.776   0.113   0.537  0.1322  0.2611 -0.0212
  117SOL    HW1  350   2.721   0.046   0.583 -0.3579  3.5848  1.2778
  117SOL    HW2  351   2.727   0.126   0.447 -0.5887  0.7877 -0.6956
  118SOL     OW  352   0.403   2.463   1.749 -0.4331  0.2435  0.4270
  118SOL    HW1  353   0.352   2.447   1.663  0.4680  1.8448 -0.6621
  118SOL    HW2  354   0.470   2.540   1.740 -0.7744  1.2277 -0.0928
  119SOL     OW  355   1.742   2.251   1.145 -0.0298  0.2354  0.2877
  119SOL    HW1  356   1.834   2.247   1.193  0.3759  2.0555  0.1954
  119SOL    HW2  357   1.695   2.334   1.179 -2.5665 -1.2071 -0.4826
  120SOL     OW  358   0.434   1.845   2.217 -0.3689  0.2941  0.0089
  120SOL    HW1  359   0.485   1.786   2.288  0.9583  0.8583  2.2542
  120SOL    HW2  360   0.387   1.925   2.264  1.2408 -0.4950  2.1666
  121SOL     OW  361   2.814   1.552   0.836  0.1995  0.2755 -0.2797
  121SOL    HW1  362   2.851   1.574   0.929  0.1342 -1.2941  0.3761
  121SOL    HW2  363   2.743   1.480   0.842 -2.1889 -0.2118 -2.0524
  122SOL     OW  364   2.011   1.668   2.390  0.0638  0.2101 -0.4169
  122SOL    HW1  365   1.936   1.711   2.337  2.4293  3.7776 -2.3278
  122SOL    HW2  366   2.075   1.743   2.420  2.8284  1.1332 -2.0063
  123SOL     OW  367   2.795   0.375   0.656 -0.2636  0.2121  0.6965
  123SOL    HW1  368   2.884   0.412   0.623  3.2654  0.9366 -2.2902
  123SOL    HW2  369   2.774   0.283   0.615 -0.8778 -1.5429  2.1911
  124SOL     OW  370   1.337   1.129   2.620  0.0379 -0.5646  0.5292
  124SOL    HW1  371   1.388   1.136   2.533  1.3531  5.3828  0.6829
  124SOL    HW2  372   1.384   1.192   2.686 -2.0769 -2.2723 -3.0042
  125SOL     OW  373   0.287   1.552   2.554 -0.2725 -0.0366  0.5003
  125SOL    HW1  374   0.240   1.610   2.622  0.4240 -2.0440  0.4094
  125SOL    HW2  375   0.299   1.462   2.592 -0.7226  4.1886 -0.3022
  126SOL     OW  376   2.771   2.088   0.299 -0.3269  0.2182  0.3586
  126SOL    HW1  377   2.785   2.180   0.341 -0.3660 -1.7639 -0.3278
  126SOL    HW2  378   2.850   2.023   0.322  0.7927 -1.3809 -0.5306
  127SOL     OW  379   0.764   1.645   0.954  0.4652 -0.2846 -0.1877
  127SOL    HW1  380   0.706   1.692   1.027 -0.6755 -1.0131  1.6424
  127SOL    HW2  381   0.702   1.586   0.900 -3.4863 -0.1784 -2.9252
  128SOL     OW  382   1.506   0.766   3.047 -0.0134  0.1767 -0.6682
  128SOL    HW1  383   1.534   0.785   0.061  1.3332 -2.4779 -0.4431
  128SOL    HW2  384   1.488   0.851   2.995  0.2380 -1.5396 -1.7771
  129SOL     OW  385   2.347   1.812   1.102  0.1043 -0.6928  0.3634
  129SOL    HW1  386   2.439   1.837   1.135 -1.2731  0.8169 -1.2081
  129SOL    HW2  387   2.284   1.890   1.118  1.5331 -0.3950  1.2879
  130SOL     OW  388   1.796   1.298   0.510  0.1545 -0.0652 -0.4670
  130SOL    HW1  389   1.774   1.390   0.472  0.8058 -0.2974 -1.1435
  130SOL    HW2  390   1.834   1.304   0.606  1.2897  0.2814  1.4207
  131SOL     OW  391   2.852   1.071   2.440  0.3959 -0.2588 -0.4142
  131SOL    HW1  392   2.808   0.995   2.488  1.7872 -0.9117  0.3115
  131SOL    HW2  393   2.796   1.158   2.444  0.2611 -0.5294  2.4288
  132SOL     OW  394   2.084   1.456   1.425  0.1643 -0.2999 -0.0535
  132SOL    HW1  395   2.121   1.536   1.372 -1.8208 -0.5210 -0.8601
  132SOL    HW2  396   2.127   1.438   1.515  0.0641 -2.9147  0.7730
  133SOL     OW  397   0.314   1.619   3.033 -0.1098  0.3031 -0.3078
  133SOL    HW1  398   0.230   1.564   3.019 -0.0278  1.3738  1.8952
  133SOL    HW2  399   0.336   1.596   0.046  0.3049  0.0342  0.9476
  134SOL     OW  400   3.072   1.482   0.118 -0.0187 -0.2501  0.3130
  134SOL    HW1  401   0.046   1.424   0.067 -0.5056  2.2178  1.7641
  134SOL    HW2  402   3.023   1.547   0.058  2.5169 -0.0468  2.0220
  135SOL     OW  403   2.427   1.042   0.141  0.6561  0.3156  0.2254
  135SOL    HW1  404   2.386   1.047   0.046 -2.0347 -2.3663 -1.7128
  135SOL    HW2  405   2.455   1.130   0.175 -1.1588 -4.3885 -0.8462
  136SOL     OW  406   1.948   1.291   1.248  0.8058 -0.0145 -0.1924
  136SOL    HW1  407   1.965   1.356   1.324 -0.2225 -0.9841 -2.2096
  136SOL    HW2  408   1.849   1.267   1.244  2.8740  1.1751  0.4008
  137SOL     OW  409   2.479   2.113   0.381 -0.0456 -0.1810  0.2368
  137SOL    HW1  410   2.406   2.068   0.327 -0.6753 -2.6314 -0.5449
  137SOL    HW2  411   2.573   2.104   0.342 -0.0041  1.7178  1.7480
  138SOL     OW  412   1.354   0.086   1.858  0.4897 -0.3449  0.2986
  138SOL    HW1  413   1.347   0.143   1.773 -2.1981  0.3906 -2.6217
  138SOL    HW2  414   1.377   0.157   1.929  3.0525  0.6215  2.6432
  139SOL     OW  415   2.407   0.186   2.994  0.1946 -0.3440 -0.3103
  139SOL    HW1  416   2.466   0.270   2.991 -0.4798 -2.3031 -2.6664
  139SOL    HW2  417   2.432   0.131   3.076  2.0469 -0.1221  1.1829
  140SOL     OW  418   1.516   1.999   2.630  0.0000  0.0811 -0.5914
  140SOL    HW1  419   1.592   1.948   2.587  0.0042  0.1832 -0.5396
  140SOL    HW2  420   1.434   1.944   2.626 -0.3801 -1.1140  1.6861
  141SOL     OW  421   0.914   0.993   1.920 -0.3936 -0.1700 -0.3454
  141SOL    HW1  422   0.849   0.936   1.972  1.0808  1.4298  1.7057
  141SOL    HW2  423   0.956   0.938   1.844  0.0537  0.1848  0.9891
  142SOL     OW  424   2.258   2.640   0.261  0.4240 -0.3834  0.0330
  142SOL    HW1  425   2.256   2.732   0.215  2.6678  1.9903  0.8680
  142SOL    HW2  426   2.291   2.561   0.202 -0.0138 -1.8675 -0.3527
  143SOL     OW  427   0.822   2.035   3.033  0.2447  0.7952 -0.6247
  143SOL    HW1  428   0.898   2.086   2.984  3.3974 -1.9179 -1.2203
  143SOL    HW2  429   0.782   2.098   0.017  1.4692 -1.5458 -0.4013
  144SOL     OW  430   1.113   2.597   0.303 -0.4147 -0.2433 -0.2827
  144SOL    HW1  431   1.077   2.539   0.374  0.0607 -2.5219  0.9233
  144SOL    HW2  432   1.076   2.572   0.215  1.4544 -0.5249  1.7717
  145SOL     OW  433   2.364   1.732   2.995  0.3388 -0.0179 -0.2655
  145SOL    HW1  434   2.425   1.771   3.070 -1.1422  2.1234 -0.2760
  145SOL    HW2  435   2.277   1.785   2.990  1.8028  1.3866 -0.9118
  146SOL     OW  436   2.473   2.751   3.076 -0.1797 -0.8566 -0.2912
  146SOL    HW1  437   2.440   2.844   0.009 -0.4247  0.7098  2.2256
  146SOL    HW2  438   2.561   2.749   3.023  0.9562 -0.2802 -0.8193
  147SOL     OW  439   2.811   2.013   1.165  0.1260  0.1376  0.1866
  147SOL    HW1  440   2.823   2.014   1.064  0.1331  0.9364 -1.7875
  147SOL    HW2  441   2.843   1.933   1.215  0.0782  3.1252 -1.6104
  148SOL     OW  442   1.786   0.044   3.051  0.3524 -0.0660  0.6144
  148SOL    HW1  443   1.730   3.045   3.038 -1.8743  1.5051 -0.6633
  148SOL    HW2  444   1.738   0.103   0.033  1.5155  3.0567  0.2037
  149SOL     OW  445   1.142   1.404   2.667  0.5821 -0.1608  0.6567
  149SOL    HW1  446   1.197   1.452   2.736 -2.9304 -0.1684 -1.5431
  149SOL    HW2  447   1.076   1.342   2.709  1.0739  2.4126 -2.0538
  150SOL     OW  448   0.678   2.130   0.593  0.0537  0.0861 -0.5207
  150SOL    HW1  449   0.694   2.186   0.674  0.0027 -1.1221 -1.0283
  150SOL    HW2  450   0.730   2.048   0.604 -2.3196  1.7561  0.2221
  151SOL     OW  451   0.616   1.852   2.935  0.1286  0.0975  0.2985
  151SOL    HW1  452   0.650   1.756   2.930  0.5642 -2.6321  2.7409
  151SOL    HW2  453   0.691   1.912   2.962 -0.1252  0.8644 -1.0364
  152SOL     OW  454   2.495   1.268   0.276 -0.3492  0.3643  0.7422
  152SOL    HW1  455   2.397   1.271   0.308 -0.5738 -0.5686 -1.0120
  152SOL    HW2  456   2.526   1.364   0.260  1.0229  0.3745 -1.5847
  153SOL     OW  457   2.126   2.310   0.509 -0.6613  0.1225 -0.0481
  153SOL    HW1  458   2.095   2.315   0.410  0.1294  0.0318 -3.5467
  153SOL    HW2  459   2.068   2.367   0.569 -2.1517  2.7512  1.0553
  154SOL     OW  460   0.728   2.887   0.739 -0.1646 -0.2899  0.0978
  154SOL    HW1  461   0.786   2.966   0.748 -0.9392  0.1940  0.7689
  154SOL    HW2  462   0.736   2.854   0.642  2.4329 -0.0495 -0.0680
  155SOL     OW  463   0.425   2.034   0.630 -0.1343  0.3474  0.4979
  155SOL    HW1  464   0.521   2.072   0.626  2.3455 -1.1686 -0.3146
  155SOL    HW2  465   0.371   2.063   0.708  1.7347  1.7875  1.2763
  156SOL     OW  466   2.418   2.449   0.140 -0.4880  0.0500  0.0941
  156SOL    HW1  467   2.496   2.445   0.081 -2.2529 -1.2985  2.4293
  156SOL    HW2  468   2.446   2.417   0.231  1.0601 -0.1288 -1.1972
  157SOL     OW  469   1.020   2.010   1.475 -0.2156 -0.2109 -0.8082
  157SOL    HW1  470   0.952   2.079   1.499 -4.0483  2.2940  0.4062
  157SOL    HW2  471   1.080   2.000   1.557  0.4411  0.7274  1.4722
  158SOL     OW  472   1.775   0.586   3.043  0.2264  0.0651  0.0392
  158SOL    HW1  473   1.775   0.511   2.974  1.9555 -1.5613  0.5203
  158SOL    HW2  474   1.681   0.629   3.057  0.5110  1.9678 -2.4383
  159SOL     OW  475   1.074   0.512   2.988  0.0351  0.0198 -0.1368
  159SOL    HW1  476   1.167   0.528   2.950 -0.4932 -2.1067 -1.3138
  159SOL    HW2  477   1.062   0.551   3.080 -0.2431  3.9157  0.3557
  160SOL     OW  478   1.299   1.492   0.072 -0.4229  0.0268 -0.2078
  160SOL    HW1  479   1.226   1.507   0.145  0.7020 -1.0673 -0.9069
  160SOL    HW2  480   1.376   1.442   0.110 -0.6571  0.9978  1.3814
  161SOL     OW  481   0.083   2.064   2.560  0.6502 -0.1698 -0.1813
  161SOL    HW1  482   0.061   2.110   2.647 -0.7681  0.8073  0.6252
  161SOL    HW2  483   0.088   1.965   2.573 -1.9129 -0.2610  3.4059
  162SOL     OW  484   0.492   2.499   0.829 -0.8525 -0.1437 -0.2963
  162SOL    HW1  485   0.577   2.557   0.839 -1.5161  0.6269  0.0376
  162SOL    HW2  486   0.430   2.534   0.899 -0.1914  0.3883  0.0987
  163SOL     OW  487   2.875   0.886   3.019 -0.4194 -0.0773  0.0680
  163SOL    HW1  488   2.831   0.812   2.960 -0.0675  1.9785  0.9713
  163SOL    HW2  489   2.801   0.931   3.080 -3.0875 -0.9203  0.4920
  164SOL     OW  490   0.380   0.130   2.759 -0.0489  0.4990 -0.7472
  164SOL    HW1  491   0.346   0.036   2.729 -0.8345 -0.0872  0.9432
  164SOL    HW2  492   0.480   0.137   2.762 -1.9972 -0.3956 -1.4554
  165SOL     OW  493   1.870   0.309   1.624  0.9832 -0.4188  0.5037
  165SOL    HW1  494   1.926   0.236   1.662 -0.5798  2.7123 -0.6254
  165SOL    HW2  495   1.934   0.381   1.588  0.3005 -0.1481  1.9149
  166SOL     OW  496   1.973   2.890   1.527  0.0741 -0.2591 -0.0622
  166SOL    HW1  497   1.884   2.887   1.477 -2.2476  1.4737 -1.3053
  166SOL    HW2  498   1.960   2.855   1.626  2.8027 -0.4466 -0.0429
  167SOL     OW  499   1.105   0.344   1.923 -0.5546  0.3338 -0.4139
  167SOL    HW1  500   1.085   0.328   2.021  2.2565 -0.1224  0.2221
  167SOL    HW2  501   1.203   0.353   1.911 -0.4228  1.4819 -0.0613
  168SOL     OW  502   2.458   0.517   1.963 -0.3607  0.4053  0.0441
  168SOL    HW1  503   2.546   0.473   1.986 -3.1777  0.5077  1.4614
  168SOL    HW2  504   2.391   0.446   1.919  0.6775 -1.7634 -3.2818
  169SOL     OW  505   0.356   1.580   0.203  0.0481  0.4346  0.0398
  169SOL    HW1  506   0.319   1.627   0.282  3.5411  0.2132 -0.9761
  169SOL    HW2  507   0.352   1.479   0.214 -0.0252 -0.7102 -1.7168
  170SOL     OW  508   0.297   1.475   1.356  0.4663  0.2021  0.1298
  170SOL    HW1  509   0.300   1.574   1.375 -2.1534 -1.4400 -1.2855
  170SOL    HW2  510   0.203   1.442   1.335 -1.5685 -3.6945  3.8643
  171SOL     OW  511   0.932   2.416   2.398 -0.2973 -0.3568  0.3607
  171SOL    HW1  512   0.844   2.392   2.446  0.1770 -0.2157 -0.2130
  171SOL    HW2  513   0.980   2.333   2.370  3.2015  1.2704 -0.2539
  172SOL     OW  514   0.582   2.659   1.709  0.4662  0.3449  0.8862
  172SOL    HW1  515   0.653   2.583   1.705  0.3379 -0.0202  0.2517
  172SOL    HW2  516   0.596   2.718   1.627  1.9040  0.7884  0.5360
  173SOL     OW  517   1.461   2.184   0.971  0.0142 -0.3147 -0.0630
  173SOL    HW1  518   1.460   2.091   1.006  0.6298 -0.4466 -1.8144
  173SOL    HW2  519   1.408   2.246   1.030 -2.1159 -2.0102 -2.6783
  174SOL     OW  520   1.191   0.058   0.766 -0.0843 -0.1873 -0.5359
  174SOL    HW1  521   1.233   0.082   0.857 -0.4197 -0.2427  1.0437
  174SOL    HW2  522   1.233   3.061   0.733  0.3981 -0.5005 -1.0641
  175SOL     OW  523   1.095   1.221   0.205  0.2314  0.3502 -0.0564
  175SOL    HW1  524   1.067   1.323   0.209  1.8679 -0.7638 -0.2631
  175SOL    HW2  525   1.175   1.205   0.267  0.3005 -0.1471  0.8336
  176SOL     OW  526   1.401   0.576   0.266  0.0863 -0.2631 -0.1111
  176SOL    HW1  527   1.488   0.627   0.250  1.0946 -1.3458 -0.6580
  176SOL    HW2  528   1.419   0.483   0.228 -1.1871  1.1798  0.3524
  177SOL     OW  529   1.257   0.629   1.141 -0.3209 -0.0038  0.4051
  177SOL    HW1  530   1.179   0.583   1.095  1.2407  0.1032 -0.5521
  177SOL    HW2  531   1.222   0.727   1.165 -1.2290  2.1362  2.6877
  178SOL     OW  532   2.684   1.641   2.659  0.1619  0.3412  0.2571
  178SOL    HW1  533   2.640   1.640   2.566  0.7291  0.2461 -0.6930
  178SOL    HW2  534   2.613   1.621   2.732  2.4053  0.3683 -0.9262
  179SOL     OW  535   0.602   2.588   3.016 -0.1270  0.0017 -0.3787
  179SOL    HW1  536   0.589   2.685   2.990  0.8099 -0.3504  2.1574
  179SOL    HW2  537   0.635   2.575   0.027 -0.1350 -0.3034 -0.3655
  180SOL     OW  538   1.854   1.483   1.589  0.1943 -0.2373 -0.3697
  180SOL    HW1  539   1.923   1.496   1.516 -1.4526 -0.6698  1.1963
  180SOL    HW2  540   1.832   1.385   1.597 -0.7303  1.5203 -0.0287
  181SOL     OW  541   1.331   1.249   2.082  0.5334  0.0371 -0.0954
  181SOL    HW1  542   1.267   1.230   2.155  0.1515 -3.0350 -1.5054
  181SOL    HW2  543   1.285   1.280   1.995 -0.9911  0.2289  3.1365
  182SOL     OW  544   0.029   0.907   2.453 -0.2844 -0.1270 -0.1092
  182SOL    HW1  545   0.100   0.962   2.408 -0.7258 -4.5970  0.4014
  182SOL    HW2  546   3.052   0.959   2.513  0.5044 -1.0902 -0.6326
  183SOL     OW  547   1.601   0.570   2.372  0.1108 -0.1058 -0.0277
  183SOL    HW1  548   1.502   0.541   2.389  2.3722  1.7010 -1.2061
  183SOL    HW2  549   1.667   0.530   2.435  1.2315  0.6879  1.2463
  184SOL     OW  550   0.101   0.618   1.514  0.0376 -0.3481  0.1300
  184SOL    HW1  551   0.187   0.674   1.515 -0.8416 -2.2572 -1.4391
  184SOL    HW2  552   0.051   0.621   1.425  0.6170 -0.6080 -1.0379
  185SOL     OW  553   2.446   1.656   0.891 -0.3626 -0.3112  0.1354
  185SOL    HW1  554   2.403   1.674   0.982  0.4647 -2.9643  0.0152
  185SOL    HW2  555   2.513   1.726   0.861  0.4704 -0.2628  3.2965
  186SOL     OW  556   0.652   1.676   2.644  0.3632  0.2386  0.2828
  186SOL    HW1  557   0.579   1.657   2.575 -2.0396 -0.3086  0.1204
  186SOL    HW2  558   0.688   1.592   2.692  1.6467  0.2131  0.4922
  187SOL     OW  559   2.515   2.081   3.043  0.2432  0.0400  0.1790
  187SOL    HW1  560   2.594   2.142   3.055 -2.5158 -1.0321  2.1494
  187SOL    HW2  561   2.539   1.985   3.063 -0.0418  1.9769 -0.0640
  188SOL     OW  562   0.564   2.323   0.420 -0.2201  0.4310  0.4559
  188SOL    HW1  563   0.618   2.246   0.461  1.3006 -0.2424  1.7525
  188SOL    HW2  564   0.532   2.306   0.322  0.7636  1.5329  1.0249
  189SOL     OW  565   2.186   0.792   2.827 -0.5321 -0.1467 -0.1350
  189SOL    HW1  566   2.169   0.815   2.923 -0.8394 -1.8086 -0.6510
  189SOL    HW2  567   2.214   0.870   2.765  0.8717  0.2688  0.4150
  190SOL     OW  568   1.346   1.936   1.993 -0.1695 -0.5189  0.1804
  190SOL    HW1  569   1.357   2.038   1.982  2.0552 -0.9978 -0.2267
  190SOL    HW2  570   1.437   1.896   2.008 -2.5024  1.0984  0.4868
  191SOL     OW  571   2.190   0.872   1.210  0.3234 -0.4988 -0.3901
  191SOL    HW1  572   2.271   0.806   1.217  1.6532  1.2334  1.2440
  191SOL    HW2  573   2.141   0.873   1.121  0.7108  1.7633 -1.3214
  192SOL     OW  574   1.996   0.172   2.002 -0.3385 -0.0642 -0.0294
  192SOL    HW1  575   2.052   0.253   1.971  1.4223  1.5550  2.2036
  192SOL    HW2  576   1.937   0.197   2.078 -0.5106  0.7812  0.0899
  193SOL     OW  577   0.122   0.593   0.729 -0.1902 -0.0710  0.3181
  193SOL    HW1  578   0.070   0.587   0.812  1.2242  0.4809 -3.6053
  193SOL    HW2  579   0.219   0.621   0.745  1.3045 -1.1837 -2.1978
  194SOL     OW  580   1.542   2.438   1.727 -0.1821  0.5501 -0.2335
  194SOL    HW1  581   1.493   2.488   1.655 -0.2166 -2.1034  2.4669
  194SOL    HW2  582   1.639   2.411   1.691  1.1249  1.5750 -0.2873
  195SOL     OW  583   2.572   0.675   0.706 -0.0177  0.1828 -0.5329
  195SOL    HW1  584   2.556   0.574   0.702  1.6934 -1.1472 -0.2104
  195SOL    HW2  585   2.660   0.696   0.653 -1.2769  1.3474 -2.1632
  196SOL     OW  586   1.154   1.944   1.720 -0.2093  0.0862 -0.0234
  196SOL    HW1  587   1.186   2.033   1.752  1.9521 -2.0373 -0.7603
  196SOL    HW2  588   1.226   1.871   1.708  0.1904 -1.3003 -3.1131
  197SOL     OW  589   0.141   0.266   2.669 -0.1149 -0.0089  0.2588
  197SOL    HW1  590   0.222   0.200   2.663  0.1351 -0.3309 -0.2343
  197SOL    HW2  591   0.165   0.356   2.630 -2.4546 -0.8196 -1.2652
  198SOL     OW  592   1.141   0.907   0.619 -0.1730  0.3593  0.3977
  198SOL    HW1  593   1.130   0.807   0.639 -0.3620  0.1181  2.5353
  198SOL    HW2  594   1.090   0.922   0.532  1.2404 -2.6674  0.5923
  199SOL     OW  595   2.544   0.845   1.925 -0.1478  0.3961 -0.3187
  199SOL    HW1  596   2.592   0.927   1.957 -3.1344 -1.7996 -1.3866
  199SOL    HW2  597   2.482   0.868   1.850  3.0698 -3.6849 -0.6281
  200SOL     OW  598   2.414   2.721   2.371  0.8391  0.2924 -0.2773
  200SOL    HW1  599   2.473   2.800   2.386  1.2558 -0.7814 -2.1446
  200SOL    HW2  600   2.338   2.744   2.308 -0.4024  1.8838  2.0990
  201SOL     OW  601   2.444   0.280   1.594  0.1926 -0.8160  0.3455
  201SOL    HW1  602   2.532   0.235   1.610 -0.7177  1.3982 -2.6417
  201SOL    HW2  603   2.386   0.222   1.534  1.6024  0.2254 -1.8540
  202SOL     OW  604   2.312   3.070   0.287  0.0191  0.3540  0.3585
  202SOL    HW1  605   2.338   3.038   0.379 -0.7358  0.8361 -1.0976
  202SOL    HW2  606   2.254   2.999   0.238  0.1014 -1.7907  1.2064
  203SOL     OW  607   1.093   2.189   2.374 -0.1079  0.1266 -0.5538
  203SOL    HW1  608   1.009   2.147   2.412 -0.0012 -1.8078 -0.9273
  203SOL    HW2  609   1.177   2.168   2.435 -0.6125  0.6140  0.1054
  204SOL     OW  610   1.037   1.542   2.465  0.1520  0.4538  0.4101
  204SOL    HW1  611   1.098   1.490   2.529  1.0573 -1.4031 -0.5984
  204SOL    HW2  612   1.007   1.481   2.391 -1.5646 -0.1596 -0.1543
  205SOL     OW  613   1.053   1.368   1.296 -0.5820  1.0740 -1.2466
  205SOL    HW1  614   1.141   1.324   1.264  0.5906 -3.7100  0.3253
  205SOL    HW2  615   1.016   1.405   1.207  1.4994  0.9602 -2.5440
  206SOL     OW  616   0.384   0.483   2.775  0.1288  0.6340 -0.0261
  206SOL    HW1  617   0.343   0.473   2.680  0.9279 -1.1530 -1.0830
  206SOL    HW2  618   0.357   0.407   2.835  1.4467 -0.1207 -1.7431
  207SOL     OW  619   1.712   2.686   2.412 -0.2651 -0.0489  0.0146
  207SOL    HW1  620   1.736   2.784   2.399 -1.3542 -0.0310  2.3894
  207SOL    HW2  621   1.645   2.673   2.493 -0.9043 -3.5040 -2.1176
  208SOL     OW  622   0.764   2.321   1.307  0.0444  0.8567  0.0227
  208SOL    HW1  623   0.851   2.363   1.338  1.1107 -1.2752  1.4449
  208SOL    HW2  624   0.769   2.277   1.215 -0.9746  0.3857 -1.3011
  209SOL     OW  625   1.473   1.182   2.375 -0.2449  0.0800 -0.5923
  209SOL    HW1  626   1.442   1.182   2.283 -1.2819 -0.6424  2.4626
  209SOL    HW2  627   1.573   1.206   2.386  1.1549  2.5210  0.0823
  210SOL     OW  628   2.025   1.108   0.774 -0.2282 -0.2860  0.2009
  210SOL    HW1  629   2.028   1.114   0.877  0.1484 -0.5987 -1.4061
  210SOL    HW2  630   1.987   1.021   0.737 -0.7682 -2.3532  1.0579
  211SOL     OW  631   0.768   2.495   0.504  0.0487 -0.4020  0.0780
  211SOL    HW1  632   0.686   2.446   0.476  1.3520 -0.2538  0.7562
  211SOL    HW2  633   0.852   2.437   0.509 -2.1771 -0.2762 -0.2065
  212SOL     OW  634   1.878   1.752   0.271  0.4358  0.5556  0.0043
  212SOL    HW1  635   1.789   1.773   0.230  1.0350 -0.1757  0.4080
  212SOL    HW2  636   1.913   1.834   0.318 -3.1617 -1.1698  0.0049
  213SOL     OW  637   1.773   0.362   2.867  0.7017  0.3797  0.6253
  213SOL    HW1  638   1.744   0.267   2.888  1.4174 -0.8344 -0.6663
  213SOL    HW2  639   1.871   0.347   2.864 -1.9395 -1.8034  0.2935
  214SOL     OW  640   1.135   1.565   2.165 -0.0973  0.6121  0.1239
  214SOL    HW1  641   1.049   1.513   2.138 -2.6882  1.9200 -0.0320
  214SOL    HW2  642   1.139   1.652   2.117  3.5197 -0.5883  2.5637
  215SOL     OW  643   0.900   1.684   0.197 -0.0134  0.1097 -0.2471
  215SOL    HW1  644   0.925   1.736   0.114 -0.7725  3.0898  3.2882
  215SOL    HW2  645   0.803   1.657   0.191  1.1230  3.0922 -1.9172
  216SOL     OW  646   0.304   2.837   2.454 -0.7060  0.0465  0.3199
  216SOL    HW1  647   0.362   2.770   2.510  0.3480 -3.5567  2.8427
  216SOL    HW2  648   0.239   2.784   2.395  0.9977  2.0647  0.5829
  217SOL     OW  649   2.531   0.742   0.970  0.0904 -0.3533 -0.4055
  217SOL    HW1  650   2.559   0.732   0.874 -3.3388  0.2067  2.1538
  217SOL    HW2  651   2.557   0.665   1.030 -0.4202 -0.4818  0.9522
  218SOL     OW  652   1.989   1.539   2.040  1.0515  0.4380  0.1045
  218SOL    HW1  653   2.083   1.525   2.081  0.2902 -4.3691  0.1119
  218SOL    HW2  654   1.923   1.556   2.115  1.6462 -0.9425 -0.3653
  219SOL     OW  655   2.076   1.656   0.128 -0.1565 -0.1901 -0.2404
  219SOL    HW1  656   2.031   1.586   0.067 -0.1758 -1.2289 -1.8867
  219SOL    HW2  657   2.007   1.693   0.198 -0.2003 -0.9202 -0.1228
  220SOL     OW  658   1.568   1.114   0.481  0.1387 -0.7208  0.5507
  220SOL    HW1  659   1.491   1.131   0.546  0.0381 -1.5778 -1.3296
  220SOL    HW2  660   1.635   1.192   0.490  0.4504  1.4055  1.0286
  221SOL     OW  661   0.523   0.666   2.901  0.3451  0.1006 -0.1349
  221SOL    HW1  662   0.543   0.626   2.989  1.2328 -0.1735 -2.7374
  221SOL    HW2  663   0.462   0.602   2.843  1.2320  1.6741 -0.8855
  222SOL     OW  664   1.468   1.338   0.205  0.2105 -0.6677 -0.5768
  222SOL    HW1  665   1.496   1.397   0.286 -0.3632 -1.2969  1.8416
  222SOL    HW2  666   1.425   1.252   0.243 -0.0545  0.3792  1.1290
  223SOL     OW  667   1.098   0.181   0.302 -0.5456 -0.2645 -0.0642
  223SOL    HW1  668   1.024   0.127   0.347  0.5551 -0.1844  3.3281
  223SOL    HW2  669   1.167   0.207   0.370  1.3773 -0.1019  0.8680
  224SOL     OW  670   2.032   0.100   1.685 -0.0938 -0.3023 -0.4069
  224SOL    HW1  671   2.130   0.073   1.703  2.7648 -0.1153  0.0583
  224SOL    HW2  672   1.993   0.031   1.625 -1.6393  0.8613 -0.1786
  225SOL     OW  673   0.274   2.822   0.989 -0.7349 -0.1997 -0.2573
  225SOL    HW1  674   0.191   2.880   1.013  0.2219 -0.5357  0.4330
  225SOL    HW2  675   0.350   2.886   0.959 -0.6133  2.2946 -1.0200
  226SOL     OW  676   1.247   1.538   2.895  0.1753  0.3840  0.1474
  226SOL    HW1  677   1.323   1.595   2.863 -0.5563 -0.6355  0.8707
  226SOL    HW2  678   1.262   1.513   2.997  1.6157 -2.1908 -1.0017
  227SOL     OW  679   1.214   1.494   0.942 -0.3416  0.2319 -0.5048
  227SOL    HW1  680   1.212   1.584   0.904  0.6145 -3.3282 -0.7805
  227SOL    HW2  681   1.280   1.493   1.021 -0.0732  1.4040  3.2909
  228SOL     OW  682   0.371   1.569   0.849  0.3746  0.0209 -0.1500
  228SOL    HW1  683   0.462   1.533   0.826  2.9547  2.3483  0.1256
  228SOL    HW2  684   0.348   1.638   0.774 -3.0254 -1.6970  2.3576
  229SOL     OW  685   1.318   0.277   3.041 -0.2270  0.4015 -0.1272
  229SOL    HW1  686   1.373   0.350   3.005 -0.9423 -0.0502 -1.3274
  229SOL    HW2  687   1.216   0.294   3.035  1.6228 -0.9535  1.0919
  230SOL     OW  688   1.610   0.839   2.735 -0.5414 -0.0557  0.7025
  230SOL    HW1  689   1.688   0.772   2.717  1.6728 -0.6578 -3.2014
  230SOL    HW2  690   1.627   0.883   2.824 -0.7187  0.7802 -1.2885
  231SOL     OW  691   1.260   1.889   2.567 -0.0478 -0.6413 -0.2679
  231SOL    HW1  692   1.216   1.926   2.649  0.9917 -0.2702 -1.2191
  231SOL    HW2  693   1.190   1.848   2.497 -1.1786  1.3500 -1.4094
  232SOL     OW  694   2.367   2.232   0.596 -0.3362  0.1606 -0.0117
  232SOL    HW1  695   2.277   2.262   0.555 -0.6255  0.3140  0.2172
  232SOL    HW2  696   2.400   2.149   0.546  3.4878 -0.1999  0.8130
  233SOL     OW  697   2.372   2.628   0.515  0.5600  0.4427 -0.1157
  233SOL    HW1  698   2.311   2.609   0.437  3.3160  0.1021  0.5088
  233SOL    HW2  699   2.335   2.586   0.603 -1.4800 -2.5697  0.7803
  234SOL     OW  700   0.767   0.579   2.777  0.0103 -0.1737  0.3144
  234SOL    HW1  701   0.687   0.620   2.827 -2.8034  2.7937 -0.1319
  234SOL    HW2  702   0.843   0.643   2.778  0.0634 -0.8101 -2.8000
  235SOL     OW  703   2.852   0.393   2.499 -0.4293 -0.2342  0.5483
  235SOL    HW1  704   2.777   0.363   2.439 -1.9775 -1.8603  0.3977
  235SOL    HW2  705   2.865   0.496   2.492 -2.9968  2.1969  1.0582
  236SOL     OW  706   1.959   2.465   1.832 -0.1651 -0.5209  0.2266
  236SOL    HW1  707   1.905   2.406   1.895  0.9255  4.1045 -1.0180
  236SOL    HW2  708   1.999   2.543   1.887 -0.1207 -0.8495  1.6931
  237SOL     OW  709   0.724   1.610   2.066  0.3318  0.3439  0.2401
  237SOL    HW1  710   0.682   1.698   2.046  1.4957 -0.9684  1.1850
  237SOL    HW2  711   0.700   1.582   2.160  0.2903  0.3668 -0.6942
  238SOL     OW  712   1.497   0.322   2.720 -0.5463 -0.2093 -0.3038
  238SOL    HW1  713   1.499   0.385   2.806 -1.4661  1.7304  2.5444
  238SOL    HW2  714   1.578   0.261   2.727  2.7508  0.4163 -0.5888
  239SOL     OW  715   0.276   2.201   1.667  0.4728 -0.4138  0.2740
  239SOL    HW1  716   0.229   2.239   1.752 -2.0073  0.9278  2.2770
  239SOL    HW2  717   0.371   2.180   1.688  0.2734 -1.9057 -0.0153
  240SOL     OW  718   2.549   2.382   0.715 -0.0110 -0.1285 -0.1170
  240SOL    HW1  719   2.533   2.477   0.754  1.5646  1.8172 -0.1754
  240SOL    HW2  720   2.463   2.343   0.682  2.1708  1.8651  2.4223
  241SOL     OW  721   2.669   1.109   0.876  0.4396  0.3460 -0.5771
  241SOL    HW1  722   2.606   1.074   0.951 -2.4386 -2.0205  2.0020
  241SOL    HW2  723   2.622   1.132   0.792  0.0204 -1.7924  1.1242
  242SOL     OW  724   2.155   2.465   2.445  0.0058 -0.8720  0.1774
  242SOL    HW1  725   2.169   2.371   2.409 -0.1181  1.0098  1.9590
  242SOL    HW2  726   2.199   2.531   2.386 -0.3600 -0.6798  2.3662
  243SOL     OW  727   0.783   2.476   1.681  0.4692 -0.2288  0.3272
  243SOL    HW1  728   0.831   2.551   1.730 -1.2759  1.0750 -0.3501
  243SOL    HW2  729   0.831   2.453   1.592 -0.4033 -1.2553 -1.4500
  244SOL     OW  730   1.651   0.110   2.829  0.6525  0.4866 -0.6494
  244SOL    HW1  731   1.716   0.048   2.879  2.8710 -1.9693  2.0418
  244SOL    HW2  732   1.578   0.053   2.778 -4.4645 -0.9258 -1.9838
  245SOL     OW  733   1.191   3.084   1.407  0.1606  0.3750  0.2439
  245SOL    HW1  734   1.103   3.062   1.359  0.9653 -2.0481  0.3341
  245SOL    HW2  735   1.209   3.011   1.476  0.3842 -1.1029 -2.4332
  246SOL     OW  736   1.685   2.426   0.298  0.0441 -0.3981 -0.3537
  246SOL    HW1  737   1.770   2.484   0.308  2.6133  1.4549  0.2299
  246SOL    HW2  738   1.642   2.438   0.205 -0.3773 -0.6235 -0.2781
  247SOL     OW  739   1.371   0.534   2.489  0.2514  0.3332 -0.1372
  247SOL    HW1  740   1.276   0.557   2.465  0.0695  2.7785 -0.6314
  247SOL    HW2  741   1.363   0.440   2.525  0.2299  1.8162  2.0312
  248SOL     OW  742   0.541   2.105   1.714 -0.3543 -0.0209 -0.3934
  248SOL    HW1  743   0.590   2.180   1.765 -2.0611 -1.8928 -2.5550
  248SOL    HW2  744   0.525   2.017   1.763 -0.7517  1.2829 -2.7219
  249SOL     OW  745   2.177   0.303   0.599  1.1296 -0.0990  0.4130
  249SOL    HW1  746   2.210   0.287   0.505 -0.0498 -0.7583  0.9757
  249SOL    HW2  747   2.084   0.265   0.614  1.0182  0.7375  0.8573
  250SOL     OW  748   0.153   0.612   0.401  0.2207 -0.2169 -0.0215
  250SOL    HW1  749   0.196   0.543   0.344  0.6386 -0.0333 -3.7164
  250SOL    HW2  750   0.052   0.601   0.391 -0.5963 -1.3855  1.1290
  251SOL     OW  751   1.435   0.502   2.936  0.5784  0.5038  1.1398
  251SOL    HW1  752   1.471   0.575   2.991 -1.4178 -1.9796 -2.6657
  251SOL    HW2  753   1.407   0.551   2.850  1.8222 -1.1593  0.4937
  252SOL     OW  754   1.632   1.843   1.966  0.2933  0.6094 -0.0494
  252SOL    HW1  755   1.653   1.888   1.872 -1.8036  0.1326 -3.7446
  252SOL    HW2  756   1.594   1.747   1.961 -2.4405 -2.1093 -0.0271
  253SOL     OW  757   2.502   2.501   1.455 -0.4385  0.7049 -0.0018
  253SOL    HW1  758   2.520   2.482   1.556 -0.8678 -2.8468  3.9622
  253SOL    HW2  759   2.466   2.419   1.406 -1.6633 -0.0225 -1.1932
  254SOL     OW  760   2.922   0.993   1.156  0.7324  0.0299 -0.6247
  254SOL    HW1  761   2.961   1.008   1.251 -1.8353 -2.2434 -0.3964
  254SOL    HW2  762   2.994   0.985   1.082 -0.0659 -1.6884 -2.3855
  255SOL     OW  763   1.030   0.368   1.108  0.4265  0.8024 -0.1393
  255SOL    HW1  764   0.973   0.304   1.168 -0.0886  2.2762 -0.9479
  255SOL    HW2  765   0.975   0.451   1.090  0.3721  0.1086  0.6410
  256SOL     OW  766   1.848   2.175   1.490 -0.4802  0.6529 -0.2153
  256SOL    HW1  767   1.837   2.078   1.523 -1.6328 -4.5617 -0.4051
  256SOL    HW2  768   1.917   2.183   1.412  1.8929 -0.6796  0.8054
  257SOL     OW  769   0.694   2.961   2.551 -0.2569 -0.3120  0.0071
  257SOL    HW1  770   0.648   2.908   2.625 -1.4506  0.3208 -1.1135
  257SOL    HW2  771   0.741   2.898   2.480 -1.6135 -2.5818  0.8843
  258SOL     OW  772   0.866   2.154   0.236  0.2843  0.4192  0.3184
  258SOL    HW1  773   0.776   2.157   0.189 -1.7936  1.3421 -2.4361
  258SOL    HW2  774   0.881   2.060   0.277 -2.4794  2.1366  2.5903
  259SOL     OW  775   1.232   3.063   2.778  0.1135 -0.0223 -0.3356
  259SOL    HW1  776   1.173   3.054   2.695 -0.6873 -0.5061 -1.3532
  259SOL    HW2  777   1.331   3.046   2.750  2.6931  1.2556 -1.5051
  260SOL     OW  778   1.872   0.618   1.008  0.5798 -0.4389 -0.0707
  260SOL    HW1  779   1.856   0.559   1.085  1.0876  1.6250 -2.7643
  260SOL    HW2  780   1.807   0.602   0.931 -0.1468 -0.4342 -0.3439
  261SOL     OW  781   0.532   0.349   2.337  0.1592  0.0409  0.1579
  261SOL    HW1  782   0.448   0.338   2.280  1.1555  1.8540 -0.1564
  261SOL    HW2  783   0.580   0.435   2.304  0.0150  2.9027  1.7804
  262SOL     OW  784   0.183   2.098   2.046  0.2822 -0.4068 -0.2964
  262SOL    HW1  785   0.259   2.115   2.111 -0.8716 -1.2112  0.4493
  262SOL    HW2  786   0.168   2.181   1.986  1.5893  1.7631 -2.5009
  263SOL     OW  787   2.842   1.507   2.428  0.0998 -0.2338 -1.0269
  263SOL    HW1  788   2.942   1.515   2.430  1.6467  2.2398 -0.7123
  263SOL    HW2  789   2.807   1.570   2.495  2.3193 -1.9081 -3.4835
  264SOL     OW  790   1.040   1.059   0.834 -0.4352  0.1463 -0.4970
  264SOL    HW1  791   0.943   1.057   0.867  1.9656  1.0292  0.4912
  264SOL    HW2  792   1.057   1.000   0.750  2.6632 -3.6514  0.3191
  265SOL     OW  793   1.305   2.346   1.130 -0.4176 -0.1389 -0.2674
  265SOL    HW1  794   1.340   2.299   1.220  0.1768 -2.4579  2.7727
  265SOL    HW2  795   1.341   2.446   1.119 -0.6444  0.7996  1.1872
  266SOL     OW  796   1.688   0.854   1.160  0.7406  0.0231  0.5539
  266SOL    HW1  797   1.781   0.877   1.190 -1.3352  1.0657 -1.4069
  266SOL    HW2  798   1.681   0.847   1.061  0.3737 -0.6124 -0.2815
  267SOL     OW  799   2.267   1.078   2.986  0.1883  0.1584  0.5691
  267SOL    HW1  800   2.242   1.084   2.885  0.0262 -1.3728 -0.9817
  267SOL    HW2  801   2.228   0.991   3.019 -0.6861 -0.1014 -0.0334
  268SOL     OW  802   1.223   0.228   0.544 -0.4985 -0.1405 -0.4503
  268SOL    HW1  803   1.203   0.162   0.623  3.4080 -2.2454  0.0603
  268SOL    HW2  804   1.320   0.246   0.540  1.0780  0.0993 -0.6018
  269SOL     OW  805   2.784   0.667   2.474  0.6262 -0.1484 -0.1158
  269SOL    HW1  806   2.775   0.630   2.379  0.6525  1.7512  2.1689
  269SOL    HW2  807   2.691   0.659   2.512  2.3134 -0.7081 -0.7703
  270SOL     OW  808   0.332   1.319   2.767 -0.4029 -0.4366 -0.1044
  270SOL    HW1  809   0.344   1.271   2.851 -3.0944 -0.7346  0.0866
  270SOL    HW2  810   0.420   1.340   2.722 -2.3636 -1.2853  0.8658
  271SOL     OW  811   2.692   1.003   0.096  0.4081 -0.0713  0.3448
  271SOL    HW1  812   2.592   1.011   0.105 -1.0589  0.8501 -2.2363
  271SOL    HW2  813   2.741   1.040   0.181 -1.7011  0.7616  1.0984
  272SOL     OW  814   2.755   2.480   2.465 -0.1718  0.1492 -0.1198
  272SOL    HW1  815   2.800   2.545   2.394  0.5445  0.7296 -0.8435
  272SOL    HW2  816   2.815   2.404   2.481 -1.3603  0.6717 -1.1626
  273SOL     OW  817   3.073   3.021   2.715 -0.0121  0.1953  0.5573
  273SOL    HW1  818   3.041   0.022   2.676 -0.8108  2.7177  2.0669
  273SOL    HW2  819   3.059   3.019   2.813 -0.9801 -0.5746  1.4362
  274SOL     OW  820   0.711   2.289   0.825 -0.0612  0.3818 -0.7865
  274SOL    HW1  821   0.643   2.365   0.827 -0.1729 -3.3210  0.2490
  274SOL    HW2  822   0.804   2.316   0.813 -2.8015  0.0648  2.0865
  275SOL     OW  823   2.207   0.889   0.488  0.0132  0.0740 -0.2886
  275SOL    HW1  824   2.210   0.793   0.454  2.5009 -0.5633  1.3241
  275SOL    HW2  825   2.297   0.910   0.536 -0.0047 -0.7468  1.5602
  276SOL     OW  826   2.830   1.424   1.442 -0.1714 -0.1894 -0.5453
  276SOL    HW1  827   2.752   1.362   1.419  1.6504  1.1377  1.0882
  276SOL    HW2  828   2.868   1.395   1.532  2.4124  0.1776 -1.9498
  277SOL     OW  829   2.074   0.058   1.064  0.4185  0.3471 -0.2517
  277SOL    HW1  830   2.085   3.051   1.105 -3.3674 -0.5000  0.4469
  277SOL    HW2  831   2.013   0.115   1.124 -2.4765  0.9476  0.8813
  278SOL     OW  832   1.544   2.589   2.606  0.5485 -0.0593 -0.2024
  278SOL    HW1  833   1.549   2.509   2.549  2.9415  1.3451  0.5178
  278SOL    HW2  834   1.450   2.612   2.628  1.2096 -2.0127  0.9382
  279SOL     OW  835   1.700   1.969   1.210  0.0400 -0.0944 -0.1269
  279SOL    HW1  836   1.713   1.959   1.311 -0.9476 -0.5463  1.9402
  279SOL    HW2  837   1.737   2.063   1.186 -0.3072  4.3856  2.8439
  280SOL     OW  838   0.294   1.392   1.031 -0.1102  0.1150  0.2841
  280SOL    HW1  839   0.312   1.454   0.950  0.7654  2.3982 -3.0665
  280SOL    HW2  840   0.309   1.434   1.123  0.2320  1.5844 -0.5635
  281SOL     OW  841   2.691   1.279   2.524  0.3807 -0.3188 -0.6211
  281SOL    HW1  842   2.603   1.292   2.581  0.1945 -0.5762 -0.4754
  281SOL    HW2  843   2.721   1.368   2.489  0.0141 -1.7780  0.4191
  282SOL     OW  844   0.631   1.583   0.163  0.1688 -0.6529 -0.5641
  282SOL    HW1  845   0.527   1.593   0.174  0.7438 -0.3069 -1.0715
  282SOL    HW2  846   0.667   1.489   0.195 -0.1405  1.7132 -0.2422
  283SOL     OW  847   1.987   2.493   0.068  0.5456 -0.3049 -0.4486
  283SOL    HW1  848   2.057   2.567   0.058  0.5624 -1.8870  0.8259
  283SOL    HW2  849   1.986   2.432   3.068  1.6814 -2.0926 -3.2073
  284SOL     OW  850   0.878   2.965   1.042  0.3429 -0.6387 -0.3781
  284SOL    HW1  851   0.879   3.025   0.957  1.4540 -0.8194  1.5445
  284SOL    HW2  852   0.915   2.871   1.016 -0.0409 -0.3933 -1.5493
  285SOL     OW  853   2.207   1.367   2.619 -0.0101  0.5667 -0.3285
  285SOL    HW1  854   2.147   1.395   2.544 -0.1529 -2.4791  3.5979
  285SOL    HW2  855   2.148   1.321   2.686  0.5312 -0.0140 -3.3873
  286SOL     OW  856   1.938   2.553   0.965 -0.1921 -0.0368  0.3135
  286SOL    HW1  857   1.980   2.471   0.923  0.6092 -1.3219  1.0096
  286SOL    HW2  858   1.979   2.640   0.932 -2.2038 -0.7131 -0.5651
  287SOL     OW  859   1.292   0.275   1.017  0.3836 -0.0203 -0.1910
  287SOL    HW1  860   1.325   0.199   1.078  1.8643 -1.8678  1.8746
  287SOL    HW2  861   1.195   0.298   1.043 -0.2538 -0.1339  0.1420
  288SOL     OW  862   0.804   2.410   2.900  0.2289 -0.0640 -0.3261
  288SOL    HW1  863   0.734   2.482   2.897 -0.9198  2.0909 -1.7468
  288SOL    HW2  864   0.870   2.436   2.979  4.3240  3.1092  2.6033
  289SOL     OW  865   3.060   1.544   0.694  0.0851  0.7037 -0.7458
  289SOL    HW1  866   2.975   1.549   0.757  0.2450  0.7777 -1.3791
  289SOL    HW2  867   0.023   1.635   0.708  0.5197  0.7569  2.5686
  290SOL     OW  868   1.482   1.897   1.051 -0.4000 -0.1966  0.0696
  290SOL    HW1  869   1.571   1.886   1.098  1.6999 -1.2983 -1.3070
  290SOL    HW2  870   1.407   1.858   1.107  0.5101  3.9025 -0.8021
  291SOL     OW  871   1.471   3.020   0.313 -0.2079 -0.2953  0.2039
  291SOL    HW1  872   1.432   2.927   0.328 -2.5236  0.3189 -2.5671
  291SOL    HW2  873   1.407   3.071   0.252 -1.7514  0.2573  0.8812
  292SOL     OW  874   0.354   0.429   1.938  0.1006 -0.1067  0.0707
  292SOL    HW1  875   0.285   0.479   1.991 -1.8519 -2.6960 -0.3261
  292SOL    HW2  876   0.436   0.420   1.995  0.5796  0.6297 -2.6198
  293SOL     OW  877   2.534   1.988   1.232 -0.0901  0.0430  0.2536
  293SOL    HW1  878   2.628   2.012   1.202  0.9183  0.4923  2.6441
  293SOL    HW2  879   2.481   2.069   1.267 -0.8855 -0.7978 -2.5723
  294SOL     OW  880   0.878   0.106   2.489 -0.4735 -0.9012 -0.3295
  294SOL    HW1  881   0.875   0.200   2.532 -1.8684  2.5835 -0.5612
  294SOL    HW2  882   0.830   0.101   2.400  1.7923  1.5994  0.6695
  295SOL     OW  883   1.664   1.526   1.248  0.0615  0.0460  0.0898
  295SOL    HW1  884   1.697   1.424   1.250  1.3088 -2.9348  1.1899
  295SOL    HW2  885   1.642   1.559   1.343  0.2339  0.6587 -0.5601
  296SOL     OW  886   2.524   1.830   0.083  0.2594  0.4214 -0.1255
  296SOL    HW1  887   2.464   1.874   0.154  0.7291 -0.3246 -0.9523
  296SOL    HW2  888   2.605   1.776   0.117  1.1373 -3.8877 -0.2024
  297SOL     OW  889   2.649   0.194   0.301 -0.6625 -0.1873 -0.1319
  297SOL    HW1  890   2.624   0.163   0.205 -2.0370  1.5996 -1.1951
  297SOL    HW2  891   2.613   0.285   0.316  0.1240 -4.0314  0.1622
  298SOL     OW  892   0.810   0.007   2.948  0.2892  0.9084  0.2195
  298SOL    HW1  893   0.772   0.036   2.857 -0.8957  0.0657  0.4289
  298SOL    HW2  894   0.775   0.067   3.016 -1.0491  0.4816 -2.5892
  299SOL     OW  895   0.678   2.182   2.299 -0.1232 -0.0343  0.1147
  299SOL    HW1  896   0.730   2.101   2.331  0.0419 -1.9216  0.6593
  299SOL    HW2  897   0.681   2.245   2.381  1.7218 -1.5958 -0.7378
  300SOL     OW  898   2.901   2.936   2.267  0.4106 -0.0557 -0.2078
  300SOL    HW1  899   2.906   3.038   2.274 -0.0747 -0.6420 -0.5388
  300SOL    HW2  900   2.977   2.909   2.203  0.2122  0.3619 -0.4449
  301SOL     OW  901   1.171   0.668   1.879  0.4898  0.1252 -1.0113
  301SOL    HW1  902   1.190   0.604   1.802 -1.4554  1.2486  1.5031
  301SOL    HW2  903   1.199   0.628   1.973  1.3043  0.4432  2.4404
  302SOL     OW  904   0.002   2.174   3.055  0.0271  0.5387  0.5729
  302SOL    HW1  905   0.060   2.219   0.043 -0.9698 -0.4528 -0.8312
  302SOL    HW2  906   2.987   2.188   3.080  0.1072 -0.0842  1.7931
  303SOL     OW  907   2.330   2.716   1.517 -0.3313 -0.3723 -0.0749
  303SOL    HW1  908   2.377   2.622   1.519 -0.9191 -3.0444  0.5448
  303SOL    HW2  909   2.399   2.791   1.492 -1.4246 -0.5139  0.3470
  304SOL     OW  910   2.749   0.734   1.635 -0.2161 -0.0576 -0.1208
  304SOL    HW1  911   2.682   0.660   1.659  1.0875 -1.5813 -2.4986
  304SOL    HW2  912   2.806   0.758   1.713 -1.0508 -0.3588 -0.8059
  305SOL     OW  913   0.929   1.837   0.845  0.3758  0.0470  0.3087
  305SOL    HW1  914   0.933   1.920   0.901  2.8418 -0.8960  0.9598
  305SOL    HW2  915   0.854   1.773   0.874  1.0585  1.6314  0.6735
  306SOL     OW  916   0.398   1.410   2.049 -0.4892  0.2404  0.2670
  306SOL    HW1  917   0.376   1.511   2.037  0.9098  3.3941  1.3327
  306SOL    HW2  918   0.481   1.402   2.105 -0.6918  2.4819  0.1526
  307SOL     OW  919   0.920   0.294   1.714 -0.2940  0.4592 -0.0111
  307SOL    HW1  920   0.989   0.322   1.783  0.0555  0.7648 -1.0661
  307SOL    HW2  921   0.924   0.198   1.691  2.2390  1.8522  0.0881
  308SOL     OW  922   0.029   0.910   0.989  0.9436 -0.0903 -0.0161
  308SOL    HW1  923   0.113   0.961   1.010 -1.8151  1.7284  3.1881
  308SOL    HW2  924   0.003   0.913   0.892 -0.8804 -1.2683  0.3437
  309SOL     OW  925   2.679   1.030   1.293  0.7358 -0.1242 -0.1162
  309SOL    HW1  926   2.645   1.126   1.305  0.1932 -0.7845 -0.8109
  309SOL    HW2  927   2.760   1.035   1.237 -1.6571 -0.7026  1.4472
  310SOL     OW  928   0.190   1.677   2.337  0.1396 -0.5128 -0.2954
  310SOL    HW1  929   0.236   1.634   2.415 -0.2370 -1.3147 -1.8210
  310SOL    HW2  930   0.252   1.754   2.306  2.5596 -0.7281  2.9443
  311SOL     OW  931   2.692   2.802   2.098  0.2362  0.2846  0.1981
  311SOL    HW1  932   2.644   2.823   2.007 -1.0025 -1.6287  1.1208
  311SOL    HW2  933   2.756   2.876   2.117  0.4363 -0.3113  0.1894
  312SOL     OW  934   2.172   2.114   2.916  0.2936  0.0511  0.4310
  312SOL    HW1  935   2.103   2.186   2.943  2.0417 -0.9921 -1.2622
  312SOL    HW2  936   2.137   2.028   2.961 -2.7011 -1.1967  0.1148
  313SOL     OW  937   2.943   2.966   0.633  0.2089  0.3177  0.0913
  313SOL    HW1  938   2.912   3.030   0.558 -1.4571 -0.8028 -0.9257
  313SOL    HW2  939   3.037   2.929   0.617  1.8411 -0.1481 -0.1070
  314SOL     OW  940   1.814   1.112   0.061  0.4542 -0.7595 -0.2205
  314SOL    HW1  941   1.805   1.118   0.165 -2.4265  0.3096  0.1488
  314SOL    HW2  942   1.896   1.159   0.027 -1.9391 -0.0383 -0.5820
  315SOL     OW  943   1.477   2.998   2.683  0.7953 -0.1392  0.1303
  315SOL    HW1  944   1.485   3.049   2.592  0.0292 -0.2196 -1.9380
  315SOL    HW2  945   1.538   2.914   2.679 -0.8946  1.2775 -1.6548
  316SOL     OW  946   0.093   1.497   0.409 -0.0532 -0.2184 -1.0069
  316SOL    HW1  947   0.149   1.420   0.451 -0.6395 -4.7644  0.5777
  316SOL    HW2  948   0.073   1.482   0.310 -3.2759  2.3946 -1.4267
  317SOL     OW  949   0.622   2.895   2.998 -0.0935 -0.2430 -0.4982
  317SOL    HW1  950   0.548   2.936   3.051  1.1729  1.1562  0.2719
  317SOL    HW2  951   0.706   2.952   3.004  1.8007 -1.7229  0.8616
  318SOL     OW  952   2.399   2.337   1.105  0.4790 -0.1208  0.2780
  318SOL    HW1  953   2.326   2.285   1.054  1.6785 -1.0071 -0.5352
  318SOL    HW2  954   2.376   2.433   1.097 -0.5816 -2.2072 -0.5989
  319SOL     OW  955   1.303   1.993   2.910 -0.2666  0.2395  0.0568
  319SOL    HW1  956   1.210   1.965   2.875 -2.8571 -0.2577  1.0264
  319SOL    HW2  957   1.320   1.953   3.003  0.2792 -0.8543  1.7948
  320SOL     OW  958   0.740   1.964   1.248 -0.1632 -0.1913 -0.1537
  320SOL    HW1  959   0.753   2.047   1.193 -0.7454 -3.6309 -1.0981
  320SOL    HW2  960   0.712   1.986   1.345 -0.7864  1.6403 -1.1368
  321SOL     OW  961   1.265   2.675   2.610  0.3280  0.1667 -0.0275
  321SOL    HW1  962   1.240   2.735   2.534  1.1442  1.1509 -2.9888
  321SOL    HW2  963   1.187   2.612   2.631  0.6495  1.9380 -0.4662
  322SOL     OW  964   2.438   1.755   1.785 -0.0119  0.2259 -0.0013
  322SOL    HW1  965   2.422   1.823   1.858 -1.1428 -3.7752 -0.7374
  322SOL    HW2  966   2.473   1.793   1.696  0.3159 -1.1084 -0.1709
  323SOL     OW  967   2.804   0.757   1.142 -0.3079 -0.4441 -0.0037
  323SOL    HW1  968   2.808   0.728   1.046 -0.4162  1.1802 -3.3983
  323SOL    HW2  969   2.853   0.851   1.143  0.9409  1.7664  0.2056
  324SOL     OW  970   2.660   2.922   2.468  0.2177 -0.0973 -0.2657
  324SOL    HW1  971   2.675   3.015   2.509  0.2078  3.5795 -0.7359
  324SOL    HW2  972   2.739   2.903   2.405  1.2938  1.5112 -1.3117
  325SOL     OW  973   1.100   0.550   2.450 -0.1188  0.1151  0.0029
  325SOL    HW1  974   1.044   0.507   2.527  0.2298  0.5728  1.7403
  325SOL    HW2  975   1.039   0.579   2.369 -0.1203 -0.0475  0.4444
  326SOL     OW  976   1.943   2.904   2.179 -0.7149  0.6779  1.0980
  326SOL    HW1  977   2.039   2.923   2.203 -0.3528  3.2282  0.8097
  326SOL    HW2  978   1.929   2.965   2.099  0.3753  2.6303  1.2428
  327SOL     OW  979   2.184   0.062   2.923  0.0713 -0.2965 -0.2812
  327SOL    HW1  980   2.245   0.138   2.945  1.3075 -0.1592  0.6236
  327SOL    HW2  981   2.236   3.070   2.886  1.0906  1.5796 -1.1187
  328SOL     OW  982   0.056   1.327   2.173 -0.2434 -0.1608 -0.1983
  328SOL    HW1  983   0.109   1.384   2.106 -0.1408 -1.9924 -0.8973
  328SOL    HW2  984   0.023   1.389   2.254 -0.1559  0.8217  2.9769
  329SOL     OW  985   1.625   0.245   1.697  0.2851 -0.2316  0.3583
  329SOL    HW1  986   1.604   0.253   1.795 -0.8910 -1.5595  0.1148
  329SOL    HW2  987   1.725   0.274   1.692  0.2422  1.1286 -0.0669
  330SOL     OW  988   0.206   1.132   0.971 -0.1671  0.3640 -0.5823
  330SOL    HW1  989   0.127   1.176   0.928 -1.8085 -0.4998  0.1005
  330SOL    HW2  990   0.260   1.208   1.012 -1.0759  0.3244  1.6269
  331SOL     OW  991   0.323   1.660   2.015  0.5198  0.4137  0.3172
  331SOL    HW1  992   0.240   1.699   1.970  2.9333  0.5747  0.2426
  331SOL    HW2  993   0.365   1.728   2.081  3.2746  2.4808 -0.0368
  332SOL     OW  994   2.866   2.551   1.595 -0.2262  0.0447  0.1934
  332SOL    HW1  995   2.867   2.562   1.492 -2.8178  1.5457  1.6073
  332SOL    HW2  996   2.887   2.457   1.627 -2.2895  1.8803  1.3651
  333SOL     OW  997   2.339   0.075   0.976 -0.0947  0.9902 -0.0556
  333SOL    HW1  998   2.240   0.073   1.000  0.0071 -0.7096  2.8512
  333SOL    HW2  999   2.389   3.077   0.999  1.2088  1.4639 -1.4111
  334SOL     OW 1000   0.621   1.742   0.650  0.4402 -0.4049  0.3189
  334SOL    HW1 1001   0.642   1.644   0.674 -0.8162  0.4571 -1.7668
  334SOL    HW2 1002   0.522   1.767   0.651  2.2714 -1.0891 -1.3268
  335SOL     OW 1003   0.195   2.600   2.906  0.3605 -0.0542  0.6206
  335SOL    HW1 1004   0.126   2.592   2.829 -0.9095 -0.0929 -0.3195
  335SOL    HW2 1005   0.250   2.517   2.924  1.8456  0.4082  0.2665
  336SOL     OW 1006   0.127   2.673   2.342  0.0768  0.4094 -0.2596
  336SOL    HW1 1007   0.088   2.702   2.253 -1.5956 -0.3635 -0.6644
  336SOL    HW2 1008   0.137   2.572   2.335  0.0391 -0.7738 -1.1955
  337SOL     OW 1009   1.993   2.617   2.095 -0.3088 -0.0190 -0.2960
  337SOL    HW1 1010   1.972   2.712   2.123  3.0380 -1.0054 -1.4066
  337SOL    HW2 1011   1.943   2.555   2.153  1.4503  1.9598 -1.5717
  338SOL     OW 1012   0.668   0.046   0.252  0.0357  0.4121  0.0888
  338SOL    HW1 1013   0.685   0.117   0.179  0.9203  1.2926  0.5675
  338SOL    HW2 1014   0.566   0.035   0.273 -3.0722  0.3081 -1.6556
  339SOL     OW 1015   0.303   1.149   2.034 -0.1471 -0.5413 -0.3962
  339SOL    HW1 1016   0.334   1.099   1.953  2.6529 -0.6335  3.1765
  339SOL    HW2 1017   0.306   1.252   2.020  0.6185 -1.2733  0.2674
  340SOL     OW 1018   1.699   2.855   0.509 -0.1634  0.3815  0.0105
  340SOL    HW1 1019   1.713   2.791   0.587  1.2915 -2.1049  1.5137
  340SOL    HW2 1020   1.684   2.952   0.536 -0.3307  0.8445  1.3685
  341SOL     OW 1021   2.273   1.242   0.716 -0.1755  0.0632 -0.7742
  341SOL    HW1 1022   2.185   1.194   0.722  0.9191 -3.0255  2.5368
  341SOL    HW2 1023   2.318   1.241   0.809  1.2099 -1.2801 -1.1133
  342SOL     OW 1024   2.495   0.024   0.100 -0.0098 -0.7397 -0.2413
  342SOL    HW1 1025   2.438   0.013   0.185 -1.4401  2.5083  0.9853
  342SOL    HW2 1026   2.580   3.056   0.103  1.1171  2.2195  0.3545
  343SOL     OW 1027   1.249   2.207   1.755  0.1445 -0.1181 -0.1157
  343SOL    HW1 1028   1.212   2.266   1.680  0.2639 -2.5099  0.1090
  343SOL    HW2 1029   1.348   2.232   1.779  2.4974  1.1421 -2.7573
  344SOL     OW 1030   2.601   2.687   1.088  0.3492  0.3050 -0.1021
  344SOL    HW1 1031   2.567   2.658   0.995 -3.6135 -1.8666 -0.9958
  344SOL    HW2 1032   2.700   2.665   1.096  2.6764 -1.8562  0.3236
  345SOL     OW 1033   2.795   2.173   0.043  0.1262 -0.2523  0.0187
  345SOL    HW1 1034   2.801   2.270   0.069  3.0523 -1.5044 -0.3420
  345SOL    HW2 1035   2.783   2.123   0.130  0.9585  4.2409  1.0596
  346SOL     OW 1036   2.394   1.999   0.797  0.2916  0.1840 -0.5282
  346SOL    HW1 1037   2.441   2.085   0.761  0.8111  1.5838  0.2052
  346SOL    HW2 1038   2.455   1.927   0.831  0.1766 -1.7959  1.5383
  347SOL     OW 1039   1.372   2.006   1.543  0.0897  0.0569 -0.0243
  347SOL    HW1 1040   1.413   2.053   1.623  0.5366 -3.1543 -1.5227
  347SOL    HW2 1041   1.343   1.913   1.580 -2.8637 -1.8251  0.4324
  348SOL     OW 1042   0.514   1.608   2.384 -0.4557 -0.0900 -0.1665
  348SOL    HW1 1043   0.454   1.579   2.458  2.4718 -1.6762 -0.7343
  348SOL    HW2 1044   0.552   1.531   2.331  1.0695 -1.7903  0.9813
  349SOL     OW 1045   2.573   1.412   0.817 -1.0094  0.1918  0.0022
  349SOL    HW1 1046   2.578   1.411   0.716  0.0530 -0.9725  0.6562
  349SOL    HW2 1047   2.520   1.493   0.851  2.4001 -1.3444 -0.9226
  350SOL     OW 1048   2.956   2.353   0.917 -0.0759  0.0269  0.0080
  350SOL    HW1 1049   2.877   2.326   0.976 -0.8901  4.4671  0.5177
  350SOL    HW2 1050   2.952   2.451   0.881 -0.3859  1.0911 -0.7121
  351SOL     OW 1051   0.366   3.039   1.972  0.3491  0.3242  0.1605
  351SOL    HW1 1052   0.292   3.035   1.903  1.2160  2.5086  0.0366
  351SOL    HW2 1053   0.449   3.071   1.924  0.4889 -0.0577  1.4108
  352SOL     OW 1054   0.966   1.438   1.038  0.5082  0.3338 -0.4626
  352SOL    HW1 1055   0.901   1.515   1.033  0.7654  1.4926  1.8035
  352SOL    HW2 1056   1.056   1.467   1.001  2.1111  0.8859  0.8677
  353SOL     OW 1057   1.401   1.433   2.468 -0.0549  0.3191  0.7509
  353SOL    HW1 1058   1.311   1.423   2.498  3.0167 -0.3951  0.3666
  353SOL    HW2 1059   1.431   1.344   2.433  1.6199  0.7740  0.0995
  354SOL     OW 1060   1.462   2.920   1.366 -0.0202  0.7763  0.1384
  354SOL    HW1 1061   1.379   2.861   1.374 -1.2010  1.7680 -0.2614
  354SOL    HW2 1062   1.484   2.970   1.453 -0.1404  1.1444 -1.2094
  355SOL     OW 1063   2.282   1.431   0.514 -0.8797 -0.4692  0.1061
  355SOL    HW1 1064   2.296   1.349   0.574 -1.5156  2.6305 -0.6214
  355SOL    HW2 1065   2.250   1.402   0.424  3.7405 -1.6052  2.0674
  356SOL     OW 1066   2.722   1.732   1.979 -0.2580  0.2445 -0.7120
  356SOL    HW1 1067   2.687   1.798   1.914  0.8812 -4.5779 -0.7349
  356SOL    HW2 1068   2.714   1.769   2.075 -0.7324  3.2082 -1.8652
  357SOL     OW 1069   0.627   2.835   1.484  0.1547  0.2201 -0.6109
  357SOL    HW1 1070   0.634   2.787   1.394  0.4974  0.7254  3.0987
  357SOL    HW2 1071   0.663   2.930   1.481  0.1621  1.2468 -1.2322
  358SOL     OW 1072   2.345   1.286   1.782 -0.2505  0.7125  0.0018
  358SOL    HW1 1073   2.384   1.369   1.834  1.5492 -0.6408  4.9628
  358SOL    HW2 1074   2.338   1.213   1.856  0.8946  0.3404  2.4714
  359SOL     OW 1075   2.225   2.845   2.683 -0.3921 -0.2447  0.2431
  359SOL    HW1 1076   2.258   2.760   2.639 -0.7055  2.2096  1.3687
  359SOL    HW2 1077   2.185   2.825   2.773  3.0089 -1.2484 -0.6876
  360SOL     OW 1078   0.571   0.619   1.045 -0.0866  0.3739  0.2172
  360SOL    HW1 1079   0.595   0.522   1.028  2.4910 -0.1165  1.8380
  360SOL    HW2 1080   0.521   0.633   1.133  1.5983 -0.2386  0.4356
  361SOL     OW 1081   1.829   2.928   1.177 -0.4895  0.2959  0.3163
  361SOL    HW1 1082   1.772   3.010   1.199 -0.3998 -2.7502 -2.0242
  361SOL    HW2 1083   1.801   2.850   1.229  0.1399  2.8436 -2.2532
  362SOL     OW 1084   1.278   1.051   0.980  0.2649  0.0979  0.1752
  362SOL    HW1 1085   1.359   1.109   0.958  3.0962  1.1374 -0.1766
  362SOL    HW2 1086   1.192   1.084   0.937  0.2963 -0.6555  0.4921
  363SOL     OW 1087   2.277   1.666   2.686  0.0715 -0.3688 -0.8490
  363SOL    HW1 1088   2.331   1.655   2.771 -0.3229  1.5886 -0.3481
  363SOL    HW2 1089   2.265   1.576   2.637  0.4650  0.4635  0.8792
  364SOL     OW 1090   0.162   0.334   0.971 -0.3368 -0.0770 -0.0345
  364SOL    HW1 1091   0.161   0.306   1.071 -2.9588  0.8651 -0.7503
  364SOL    HW2 1092   0.100   0.413   0.961 -0.1137  0.4413  1.9610
  365SOL     OW 1093   0.249   3.001   2.647  0.5702  0.4105 -0.3232
  365SOL    HW1 1094   0.265   2.934   2.567 -1.0760  0.0484  0.0839
  365SOL    HW2 1095   0.148   3.000   2.665  1.6051  0.2765 -0.8845
  366SOL     OW 1096   2.308   2.213   0.101  0.3741 -0.6290  0.3578
  366SOL    HW1 1097   2.367   2.159   0.035 -2.1833  0.0865 -0.9095
  366SOL    HW2 1098   2.354   2.304   0.123  0.3104 -0.9866  1.0423
  367SOL     OW 1099   2.590   2.389   3.028 -0.1819 -0.6740 -0.6072
  367SOL    HW1 1100   2.618   2.335   2.944 -1.3592  1.2392  0.2784
  367SOL    HW2 1101   2.675   2.432   3.063 -2.0470 -3.1113 -0.0866
  368SOL     OW 1102   0.344   1.778   1.037  0.3234  0.1194 -0.5133
  368SOL    HW1 1103   0.381   1.707   0.979  0.8602  3.3701  2.1654
  368SOL    HW2 1104   0.249   1.748   1.067 -0.6498 -0.5360 -2.7149
  369SOL     OW 1105   0.646   2.789   2.746 -0.2339 -0.1084  0.2969
  369SOL    HW1 1106   0.651   2.851   2.827  0.9551 -1.7811 -2.0783
  369SOL    HW2 1107   0.734   2.735   2.734  0.4596 -2.1844 -1.6432
  370SOL     OW 1108   3.064   0.905   0.731 -0.1246  0.3104  0.3326
  370SOL    HW1 1109   0.068   0.917   0.686 -0.4723 -1.2540  2.0819
  370SOL    HW2 1110   3.007   0.833   0.687 -0.1926  0.4129  1.0092
  371SOL     OW 1111   1.861   2.190   0.908  0.6158 -0.1111  0.1303
  371SOL    HW1 1112   1.802   2.224   0.989  0.9494  1.9263  1.9062
  371SOL    HW2 1113   1.885   2.092   0.918 -2.3491 -1.0776 -3.7154
  372SOL     OW 1114   0.507   0.940   2.857 -0.5698 -0.1329  0.2904
  372SOL    HW1 1115   0.602   0.972   2.838  0.3936 -2.6679 -1.8779
  372SOL    HW2 1116   0.511   0.845   2.898 -1.2150  0.2337  1.3149
  373SOL     OW 1117   0.032   1.985   0.949 -0.5278 -0.0856 -0.2200
  373SOL    HW1 1118   3.050   2.034   0.893 -2.6560  0.6545 -0.7391
  373SOL    HW2 1119   0.012   1.977   1.049 -0.5729  1.5458 -1.4049
  374SOL     OW 1120   0.149   2.904   0.129  0.2801 -0.1364  0.0921
  374SOL    HW1 1121   0.196   2.816   0.129  0.0773  0.5433 -1.3841
  374SOL    HW2 1122   0.135   2.935   0.035  1.0197 -1.8367  0.8614
  375SOL     OW 1123   0.195   0.165   0.284 -0.0624  0.0161  0.4033
  375SOL    HW1 1124   0.166   0.151   0.379 -2.7917 -0.6238 -3.3244
  375SOL    HW2 1125   0.121   0.210   0.232 -2.4429 -0.8158  0.0927
  376SOL     OW 1126   3.046   2.473   1.916  0.3551 -0.1462  0.0787
  376SOL    HW1 1127   3.009   2.406   1.847 -0.9800 -0.1105  3.3517
  376SOL    HW2 1128   3.010   2.560   1.887  2.5295 -1.2709 -0.5596
  377SOL     OW 1129   1.918   2.513   2.836 -0.0296 -0.6848  0.1193
  377SOL    HW1 1130   1.870   2.580   2.895  0.8233  2.3351 -0.2370
  377SOL    HW2 1131   1.886   2.527   2.741  1.0989 -0.7600 -3.2552
  378SOL     OW 1132   0.500   0.286   0.384 -0.0713  0.3804  0.0313
  378SOL    HW1 1133   0.467   0.203   0.333 -1.5626 -0.0691  0.1763
  378SOL    HW2 1134   0.573   0.256   0.454  1.0252 -0.5047  1.4458
  379SOL     OW 1135   0.701   1.459   0.552  0.0195 -0.6543  0.2801
  379SOL    HW1 1136   0.693   1.469   0.449 -0.5321 -0.0015  1.5746
  379SOL    HW2 1137   0.796   1.458   0.581  0.0959 -0.0194 -1.1502
  380SOL     OW 1138   0.308   1.793   1.362 -0.5649 -0.2374  0.0560
  380SOL    HW1 1139   0.377   1.772   1.435  2.7793  0.8431  0.3113
  380SOL    HW2 1140   0.351   1.861   1.293  2.6361 -0.1141 -0.3744
  381SOL     OW 1141   0.503   1.344   1.808 -0.0301 -0.3361  0.3813
  381SOL    HW1 1142   0.582   1.282   1.818 -2.9508  1.4223  0.1972
  381SOL    HW2 1143   0.470   1.362   1.902  1.1792 -2.2678  0.6407
  382SOL     OW 1144   2.248   1.906   0.572 -0.0808  0.1253  0.0890
  382SOL    HW1 1145   2.318   1.918   0.645  1.4262 -3.4405 -1.9197
  382SOL    HW2 1146   2.278   1.834   0.506 -0.7358  0.7442  1.5960
  383SOL     OW 1147   2.699   1.794   2.247 -0.1742  0.1259 -0.0100
  383SOL    HW1 1148   2.666   1.876   2.297 -0.0198  0.3002  2.2746
  383SOL    HW2 1149   2.794   1.764   2.268 -0.2997 -1.1244 -1.1311
  384SOL     OW 1150   0.346   1.923   2.464 -0.3766  0.0416  0.2987
  384SOL    HW1 1151   0.395   1.907   2.555 -1.1574  0.5049  0.3531
  384SOL    HW2 1152   0.268   1.988   2.471  0.2333  2.1581 -0.4346
  385SOL     OW 1153   2.608   1.871   0.925  0.0386 -0.3518  0.2400
  385SOL    HW1 1154   2.655   1.797   0.982  0.1640 -0.0434 -0.5769
  385SOL    HW2 1155   2.676   1.943   0.908  2.2695 -1.4997  0.7239
  386SOL     OW 1156   1.695   0.935   0.887  0.2218  0.2065  0.2661
  386SOL    HW1 1157   1.793   0.937   0.857  2.4252  1.4942  1.0837
  386SOL    HW2 1158   1.644   0.871   0.822  0.7783 -1.4215  0.0675
  387SOL     OW 1159   0.446   0.734   1.730 -0.2965 -0.3633  0.3794
  387SOL    HW1 1160   0.445   0.795   1.811 -0.3809 -3.6229 -1.1135
  387SOL    HW2 1161   0.394   0.774   1.651  0.9063  1.0326 -2.3881
  388SOL     OW 1162   2.160   1.056   2.223  0.2232  0.6042  0.1880
  388SOL    HW1 1163   2.188   1.104   2.312  1.0900  0.2915  0.0263
  388SOL    HW2 1164   2.211   0.967   2.214  0.6788  2.4994  0.7736
  389SOL     OW 1165   1.965   1.327   1.869 -0.0340 -0.1555  0.5729
  389SOL    HW1 1166   2.014   1.322   1.779 -1.3158  0.6205 -3.9153
  389SOL    HW2 1167   1.975   1.417   1.916  0.1860 -0.0310 -1.4711
  390SOL     OW 1168   1.714   2.810   0.218 -0.4767  0.3695 -0.3446
  390SOL    HW1 1169   1.679   2.829   0.310  2.0084  1.1839 -1.2769
  390SOL    HW2 1170   1.634   2.792   0.155 -1.1990 -1.8190 -0.9632
  391SOL     OW 1171   2.151   2.005   1.170  0.0947  0.0136  0.0970
  391SOL    HW1 1172   2.070   1.985   1.116  0.5498 -0.4500  2.6353
  391SOL    HW2 1173   2.144   1.964   1.266  1.4948  2.7971  3.5135
  392SOL     OW 1174   0.066   2.749   1.392 -0.2606 -0.0501 -0.2998
  392SOL    HW1 1175   3.054   2.764   1.366  1.4330 -0.4526  0.7525
  392SOL    HW2 1176   0.111   2.686   1.323  1.1564  0.8113 -0.4718
  393SOL     OW 1177   2.078   1.860   3.022  0.0176 -0.2223  0.1031
  393SOL    HW1 1178   2.072   1.806   0.022 -0.0239 -0.2831  2.8701
  393SOL    HW2 1179   1.979   1.892   2.998 -1.1263 -0.8919  0.1993
  394SOL     OW 1180   0.252   0.459   2.524  0.1527  0.0486  0.0604
  394SOL    HW1 1181   0.258   0.433   2.424 -1.2192 -0.2893 -0.1741
  394SOL    HW2 1182   0.217   0.553   2.541  4.1114  0.0769  0.1573
  395SOL     OW 1183   0.884   0.730   0.776 -0.2115 -0.5362 -0.1160
  395SOL    HW1 1184   0.842   0.721   0.873 -2.0149  0.6943  2.9915
  395SOL    HW2 1185   0.829   0.786   0.714 -1.9491 -2.6049  0.2244
  396SOL     OW 1186   1.213   0.926   3.073 -0.3745 -0.0845  0.1779
  396SOL    HW1 1187   1.300   0.950   3.028 -1.3420  0.3307  0.3968
  396SOL    HW2 1188   1.231   0.875   0.074 -1.7477 -0.9059 -2.3373
  397SOL     OW 1189   0.531   0.761   2.078  0.3983 -0.7793 -0.3400
  397SOL    HW1 1190   0.489   0.709   2.002  2.1582 -1.4323 -0.0717
  397SOL    HW2 1191   0.454   0.818   2.119  0.1617 -0.3182  2.2817
  398SOL     OW 1192   0.860   0.071   0.428  0.3522  0.5388 -0.2757
  398SOL    HW1 1193   0.888   3.076   0.480 -0.2911  1.4231  0.2057
  398SOL    HW2 1194   0.774   0.047   0.381  0.3842  1.7359  1.6724
  399SOL     OW 1195   2.274   3.014   1.760  0.7544 -0.0770  0.4610
  399SOL    HW1 1196   2.261   2.914   1.764 -1.0422  0.7121 -0.0130
  399SOL    HW2 1197   2.328   3.044   1.841  0.7289  1.5444 -0.5749
  400SOL     OW 1198   0.650   1.871   2.061 -0.1352  0.5543  0.0282
  400SOL    HW1 1199   0.568   1.873   2.122  1.6322  0.9317  1.8165
  400SOL    HW2 1200   0.697   1.961   2.062 -0.2866 -1.8261 -0.6781
  401SOL     OW 1201   0.617   0.690   2.566  0.0949 -0.0792 -0.1824
  401SOL    HW1 1202   0.664   0.642   2.645  1.2107 -1.0293 -1.0516
  401SOL    HW2 1203   0.555   0.760   2.602 -0.0838  0.5849  0.5124
  402SOL     OW 1204   2.929   2.079   1.601  0.0700  0.0609  0.0327
  402SOL    HW1 1205   2.870   1.996   1.610 -1.1337  1.3639  0.2560
  402SOL    HW2 1206   3.023   2.055   1.592  0.3621 -0.2705 -1.7060
  403SOL     OW 1207   0.387   1.003   1.822  0.1161  0.0705 -0.0084
  403SOL    HW1 1208   0.295   0.985   1.786 -0.0386 -2.9226  1.2558
  403SOL    HW2 1209   0.439   1.074   1.775  1.1613  1.9297  3.3118
  404SOL     OW 1210   2.878   2.785   1.729 -0.2411 -0.1642 -0.1791
  404SOL    HW1 1211   2.978   2.817   1.742  2.4139  0.3906  1.6178
  404SOL    HW2 1212   2.868   2.719   1.654  1.3779  3.1759  0.7427
  405SOL     OW 1213   0.309   0.285   1.723 -0.2552  0.1127 -0.0370
  405SOL    HW1 1214   0.336   0.344   1.798  1.2945 -0.0822 -2.2874
  405SOL    HW2 1215   0.365   0.201   1.705 -0.2873 -1.5431 -0.6922
  406SOL     OW 1216   1.858   2.230   2.568  0.2692 -0.0967  0.2089
  406SOL    HW1 1217   1.868   2.332   2.570  0.9687 -0.0361  0.1428
  406SOL    HW2 1218   1.938   2.180   2.598  0.9089  1.6027 -1.1905
  407SOL     OW 1219   1.400   1.615   2.238 -0.0816 -0.0692 -0.1897
  407SOL    HW1 1220   1.305   1.602   2.204 -2.0313 -1.2784 -3.2455
  407SOL    HW2 1221   1.413   1.553   2.322  0.2428 -1.2729  4.0169
  408SOL     OW 1222   0.597   0.352   2.588  0.8210 -0.8330 -0.1190
  408SOL    HW1 1223   0.576   0.326   2.491  1.4272 -1.5070 -1.4523
  408SOL    HW2 1224   0.516   0.401   2.633 -1.8999  0.8367  1.1568
  409SOL     OW 1225   0.243   1.916   0.175  0.1819 -0.5105 -0.4727
  409SOL    HW1 1226   0.235   1.839   0.240  0.6715 -1.0135 -1.6537
  409SOL    HW2 1227   0.274   2.003   0.220  2.6080  0.1929  1.5360
  410SOL     OW 1228   2.576   1.524   0.282 -0.2323 -0.2217 -0.2242
  410SOL    HW1 1229   2.662   1.566   0.245  0.2373  0.1672  0.1440
  410SOL    HW2 1230   2.491   1.545   0.225  1.1901 -2.7751  0.7112
  411SOL     OW 1231   2.838   0.689   0.874 -0.4177 -0.5180  0.0746
  411SOL    HW1 1232   2.807   0.591   0.874 -1.9117  1.9838  0.3781
  411SOL    HW2 1233   2.817   0.732   0.786  0.6174 -0.3132  0.4114
  412SOL     OW 1234   1.231   0.900   1.174 -0.0854 -0.0376 -0.3253
  412SOL    HW1 1235   1.260   0.954   1.097 -1.5148 -0.7256 -0.3541
  412SOL    HW2 1236   1.286   0.926   1.257 -0.8355 -1.2051 -0.8827
  413SOL     OW 1237   0.620   2.725   1.213 -0.3916  0.0782  0.5578
  413SOL    HW1 1238   0.530   2.683   1.184  1.7258 -1.2102  1.3538
  413SOL    HW2 1239   0.638   2.813   1.162 -0.4694  0.7673  0.2390
  414SOL     OW 1240   2.936   1.606   2.766  0.2907  0.2036 -0.0778
  414SOL    HW1 1241   2.852   1.598   2.708  0.3752  0.9568  1.3464
  414SOL    HW2 1242   3.001   1.680   2.743  0.7969 -1.8929  1.1709
  415SOL     OW 1243   0.359   2.131   2.822 -0.0623 -0.0729  0.0581
  415SOL    HW1 1244   0.364   2.098   2.917 -2.3075 -0.1617 -4.1272
  415SOL    HW2 1245   0.257   2.136   2.797  0.1337 -1.0149 -0.6305
  416SOL     OW 1246   1.561   3.079   0.613  0.3829  0.5342 -0.0496
  416SOL    HW1 1247   1.646   0.043   0.638 -1.0374 -0.3812  0.6657
  416SOL    HW2 1248   1.515   0.042   0.533  0.7427  3.1789  0.1555
  417SOL     OW 1249   0.454   1.043   0.803 -0.7681  0.1257 -0.3022
  417SOL    HW1 1250   0.508   0.974   0.854  0.7515  1.3214 -0.1293
  417SOL    HW2 1251   0.376   1.085   0.850  2.4075  0.7150 -0.4673
  418SOL     OW 1252   2.324   1.115   2.008 -0.0205 -0.0145  0.2779
  418SOL    HW1 1253   2.304   1.043   1.939 -0.4511 -1.8029  0.0401
  418SOL    HW2 1254   2.258   1.112   2.085  1.6347 -1.4114 -1.8563
  419SOL     OW 1255   3.004   0.514   0.550 -0.3946  0.2890 -0.7353
  419SOL    HW1 1256   3.034   0.414   0.529 -0.3368 -2.9998 -1.1906
  419SOL    HW2 1257   3.082   0.553   0.608  4.0439  1.6314  4.4515
  420SOL     OW 1258   0.618   1.484   0.801 -0.2509  0.5573 -0.1942
  420SOL    HW1 1259   0.630   1.438   0.713  2.1643 -1.3940  0.7741
  420SOL    HW2 1260   0.651   1.424   0.878  1.0175 -3.0798  1.5924
  421SOL     OW 1261   0.961   2.401   0.732 -0.1302 -0.3670  0.1986
  421SOL    HW1 1262   0.982   2.490   0.703 -0.5309 -2.2012  0.3773
  421SOL    HW2 1263   1.022   2.327   0.704 -3.1606  0.4344 -1.2607
  422SOL     OW 1264   0.007   0.665   1.233  0.5203 -0.1299  0.4060
  422SOL    HW1 1265   3.000   0.705   1.208  0.7594 -0.2611 -0.1865
  422SOL    HW2 1266   0.082   0.725   1.198  0.4605  1.6686  4.4738
  423SOL     OW 1267   1.322   1.278   1.486  0.1457 -0.6161 -0.2541
  423SOL    HW1 1268   1.269   1.203   1.528  0.8272  1.6368 -1.0435
  423SOL    HW2 1269   1.315   1.277   1.387 -1.3270  0.6947  4.4959
  424SOL     OW 1270   2.007   1.272   2.794  0.1613  0.3746  0.0784
  424SOL    HW1 1271   2.021   1.246   2.894 -2.2654  0.5035  0.9636
  424SOL    HW2 1272   1.920   1.320   2.774  0.5458  1.6213 -0.8041
  425SOL     OW 1273   3.067   0.462   1.891 -0.3309 -0.1673 -0.0487
  425SOL    HW1 1274   0.007   0.556   1.852 -0.4738  0.9140 -0.1788
  425SOL    HW2 1275   2.971   0.437   1.866  2.2520 -3.2344  2.0114
  426SOL     OW 1276   2.697   2.740   2.909  0.2304  0.3221  0.0447
  426SOL    HW1 1277   2.794   2.727   2.928  1.7470  1.5130  1.6768
  426SOL    HW2 1278   2.665   2.677   2.831 -0.1375  1.7894 -0.0424
  427SOL     OW 1279   0.896   0.632   2.231 -0.5692 -0.2484  0.4016
  427SOL    HW1 1280   0.797   0.635   2.254  0.5844  0.0358  0.0197
  427SOL    HW2 1281   0.913   0.689   2.148 -0.0737 -1.3890 -0.7849
  428SOL     OW 1282   2.349   0.951   1.551 -0.0002  0.1646 -0.0409
  428SOL    HW1 1283   2.423   0.906   1.497 -3.2088  0.5575  0.4685
  428SOL    HW2 1284   2.287   1.004   1.489  0.4244  0.1439 -0.4949
  429SOL     OW 1285   2.646   2.655   0.472  0.2040  0.0669  0.1668
  429SOL    HW1 1286   2.693   2.685   0.556 -3.3273 -1.7932  0.6747
  429SOL    HW2 1287   2.554   2.621   0.492 -0.9073  0.3147  1.9940
  430SOL     OW 1288   1.701   1.825   2.515 -0.0131  0.2648 -0.0169
  430SOL    HW1 1289   1.642   1.851   2.438 -0.3600 -1.8546 -0.6035
  430SOL    HW2 1290   1.687   1.728   2.539  1.2391  3.4682  2.8044
  431SOL     OW 1291   0.085   1.694   1.076  0.1281  0.0822 -0.4782
  431SOL    HW1 1292   0.024   1.625   1.035  0.2058 -3.9814  0.4719
  431SOL    HW2 1293   0.029   1.752   1.137 -0.5646  1.3572 -2.8172
  432SOL     OW 1294   1.676   2.806   2.716  0.3212  0.5967 -0.0699
  432SOL    HW1 1295   1.626   2.720   2.714  2.0307  0.8459 -0.5176
  432SOL    HW2 1296   1.772   2.797   2.678 -2.6000 -1.7766  1.0619
  433SOL     OW 1297   1.719   0.105   2.388 -0.7310  0.3691  0.0403
  433SOL    HW1 1298   1.751   0.013   2.420 -0.1255  1.2051 -2.7574
  433SOL    HW2 1299   1.617   0.110   2.389 -0.1821 -0.6690 -1.6044
  434SOL     OW 1300   0.446   2.553   2.195 -0.1901  0.1351 -0.5071
  434SOL    HW1 1301   0.368   2.490   2.218  2.7605 -0.8314  0.8546
  434SOL    HW2 1302   0.410   2.642   2.157 -2.3404 -0.6736  1.1433
  435SOL     OW 1303   3.080   2.588   0.098 -0.3485 -0.1507  0.1740
  435SOL    HW1 1304   0.092   2.614   0.082 -1.7620 -1.6618 -2.6633
  435SOL    HW2 1305   3.077   2.563   0.197  0.5849  0.2964 -2.3572
  436SOL     OW 1306   0.740   0.480   1.791 -0.2212 -0.7139 -0.2426
  436SOL    HW1 1307   0.805   0.409   1.757 -1.2929 -0.5716 -0.3715
  436SOL    HW2 1308   0.653   0.472   1.739  1.7019  0.5310  1.7182
  437SOL     OW 1309   0.455   2.657   2.598 -0.3477 -0.4773 -0.1581
  437SOL    HW1 1310   0.533   2.615   2.546 -0.9685  1.9261  0.3847
  437SOL    HW2 1311   0.494   2.711   2.674 -1.0750 -0.3016 -0.9619
  438SOL     OW 1312   0.536   1.744   1.484 -0.0043 -0.4448  0.0437
  438SOL    HW1 1313   0.610   1.730   1.419 -0.9465 -0.6220 -0.8273
  438SOL    HW2 1314   0.544   1.689   1.566  0.5810  2.5116 -1.5526
  439SOL     OW 1315   2.225   1.054   2.733  0.6420 -0.4612  0.1524
  439SOL    HW1 1316   2.323   1.031   2.745 -1.6463  0.4103  1.2266
  439SOL    HW2 1317   2.208   1.075   2.633 -1.4710 -0.2254  1.1399
  440SOL     OW 1318   0.609   0.616   0.090 -0.3221 -0.2176 -0.1467
  440SOL    HW1 1319   0.641   0.562   0.175  0.1517 -3.2748  0.5513
  440SOL    HW2 1320   0.631   0.717   0.095 -1.7846 -1.1063  2.6998
  441SOL     OW 1321   0.796   2.151   1.548  0.4125  0.2219 -0.4030
  441SOL    HW1 1322   0.711   2.135   1.599 -0.2617 -0.0333 -2.3839
  441SOL    HW2 1323   0.768   2.220   1.475 -0.3705 -0.9841 -1.3093
  442SOL     OW 1324   2.843   1.765   0.653  0.7770  0.3536  0.2779
  442SOL    HW1 1325   2.748   1.805   0.636 -0.5320  1.9947  1.2272
  442SOL    HW2 1326   2.827   1.678   0.707 -1.2161 -3.3163  1.1138
  443SOL     OW 1327   2.706   2.028   2.409  0.1930 -0.1026  0.0441
  443SOL    HW1 1328   2.808   2.030   2.384  2.5999  1.1294 -0.5426
  443SOL    HW2 1329   2.692   2.002   2.507  0.1457  2.4613  0.1215
  444SOL     OW 1330   1.406   1.297   2.844 -1.2558  0.4954  0.0690
  444SOL    HW1 1331   1.368   1.392   2.847  1.1447  1.1738 -1.9438
  444SOL    HW2 1332   1.452   1.267   2.928 -0.8268  0.4410 -1.9755
  445SOL     OW 1333   2.658   0.054   1.819  0.1081 -0.5435  0.6877
  445SOL    HW1 1334   2.672   0.102   1.729  0.0770  0.5169  0.0423
  445SOL    HW2 1335   2.648   0.131   1.886  1.3557 -0.3158  0.7174
  446SOL     OW 1336   0.381   1.059   1.213 -0.3287  0.4167 -0.2641
  446SOL    HW1 1337   0.462   1.071   1.277  0.5101 -1.8806  1.8157
  446SOL    HW2 1338   0.374   1.129   1.141 -0.0081 -3.2009 -0.8879
  447SOL     OW 1339   1.182   1.733   0.851  0.0863 -0.0581 -0.4131
  447SOL    HW1 1340   1.100   1.791   0.820 -0.9058  2.5184 -0.5467
  447SOL    HW2 1341   1.279   1.762   0.821  3.1180  1.2511  1.0378
  448SOL     OW 1342   1.186   1.093   1.629  0.2208  0.5601  0.2811
  448SOL    HW1 1343   1.207   1.162   1.697 -0.3378 -1.4550  0.6749
  448SOL    HW2 1344   1.152   1.007   1.666  0.2464  0.9837 -2.0168
  449SOL     OW 1345   2.722   2.137   2.051  0.2265  0.0680 -0.1261
  449SOL    HW1 1346   2.707   2.227   2.096  1.3904 -1.4067 -0.8531
  449SOL    HW2 1347   2.814   2.108   2.068 -2.8863  0.7447 -1.4636
  450SOL     OW 1348   0.043   1.785   1.701  0.0449 -0.4751 -0.1435
  450SOL    HW1 1349   3.030   1.793   1.722  1.8271 -0.2439  0.3598
  450SOL    HW2 1350   0.097   1.803   1.782 -1.9928  1.2920 -1.7149
  451SOL     OW 1351   2.015   0.843   0.986 -0.0486  0.0245 -0.4958
  451SOL    HW1 1352   1.944   0.773   1.010  0.0678 -2.2551  0.2827
  451SOL    HW2 1353   2.052   0.815   0.897  1.2759 -0.7315  0.2051
  452SOL     OW 1354   0.713   1.310   0.985  0.3818  0.2740 -0.1193
  452SOL    HW1 1355   0.801   1.359   1.008  1.3749  1.3864  2.1332
  452SOL    HW2 1356   0.639   1.321   1.057 -0.9791  1.2841 -1.0104
  453SOL     OW 1357   1.196   2.086   0.787 -0.2222 -0.0612 -0.3272
  453SOL    HW1 1358   1.227   2.165   0.729 -0.5566 -2.6902 -1.2058
  453SOL    HW2 1359   1.258   2.007   0.780 -0.0240 -0.7214 -1.2568
  454SOL     OW 1360   0.631   1.588   2.980 -0.2325  0.6883  0.4334
  454SOL    HW1 1361   0.647   1.577   3.079 -0.2171  3.2021 -0.1617
  454SOL    HW2 1362   0.534   1.615   2.958 -0.6789  2.5406  0.3544
  455SOL     OW 1363   1.432   0.593   0.538 -0.6069 -0.5262  0.2603
  455SOL    HW1 1364   1.374   0.563   0.615 -0.2296 -2.2212  0.0397
  455SOL    HW2 1365   1.393   0.574   0.450 -0.8362 -0.4678 -0.3517
  456SOL     OW 1366   2.083   2.347   0.859  0.6991 -0.1538 -0.1336
  456SOL    HW1 1367   2.003   2.286   0.841  0.6253 -1.4274 -0.8676
  456SOL    HW2 1368   2.151   2.297   0.920 -1.4380 -0.3428  1.2318
  457SOL     OW 1369   1.633   2.907   2.965  0.1589 -0.0237  0.0079
  457SOL    HW1 1370   1.531   2.913   2.982  1.5852 -2.1167  0.9946
  457SOL    HW2 1371   1.644   2.869   2.871 -0.8575 -1.3303 -2.7217
  458SOL     OW 1372   2.287   0.454   0.264 -0.2560  0.1022  0.3742
  458SOL    HW1 1373   2.240   0.363   0.270  0.7500  2.1070 -2.1413
  458SOL    HW2 1374   2.252   0.522   0.331  1.1950  0.4582 -1.8961
  459SOL     OW 1375   0.073   0.812   2.148  0.1498  0.4275 -0.1662
  459SOL    HW1 1376   0.031   0.820   2.240 -2.1148 -1.2028 -2.0975
  459SOL    HW2 1377   0.028   0.882   2.088  1.6037  2.2801  0.5095
  460SOL     OW 1378   0.159   1.268   0.029 -0.3214  0.2701 -0.0003
  460SOL    HW1 1379   0.236   1.234   3.052  0.3828  1.3251 -2.5812
  460SOL    HW2 1380   0.074   1.212   0.032  2.0413  0.8557 -0.0955
  461SOL     OW 1381   2.766   2.784   0.693 -0.4455  0.0009 -0.2619
  461SOL    HW1 1382   2.815   2.864   0.656  0.8884  0.6906  0.4049
  461SOL    HW2 1383   2.688   2.818   0.750 -2.6920  2.7019  1.9951
  462SOL     OW 1384   0.049   0.061   1.581  0.1639  0.2691 -0.3036
  462SOL    HW1 1385   0.067   0.159   1.583  0.2895 -2.3739  0.4166
  462SOL    HW2 1386   0.076   0.010   1.499  1.4262  1.9750 -0.4322
  463SOL     OW 1387   2.137   2.198   2.333  0.6560  0.0471 -0.0508
  463SOL    HW1 1388   2.044   2.161   2.332  0.7682 -0.7892 -0.6323
  463SOL    HW2 1389   2.195   2.169   2.416 -0.4485 -0.7875  0.0218
  464SOL     OW 1390   0.763   0.023   1.477  0.4355 -0.2600  0.3554
  464SOL    HW1 1391   0.680   0.065   1.518 -0.6502  1.9421  0.6685
  464SOL    HW2 1392   0.834   0.015   1.546 -1.8230  1.3466 -3.2891
  465SOL     OW 1393   0.618   0.060   1.853 -0.1259  0.8078 -0.1878
  465SOL    HW1 1394   0.645   3.058   1.816 -0.2462  1.2695 -1.0377
  465SOL    HW2 1395   0.679   0.095   1.926  0.4281 -0.1947  0.9512
  466SOL     OW 1396   1.398   2.401   2.172  0.1104 -0.4343  0.1098
  466SOL    HW1 1397   1.298   2.386   2.159  2.6164  1.4884 -2.4620
  466SOL    HW2 1398   1.439   2.448   2.087  0.4305  1.9519 -0.7601
  467SOL     OW 1399   0.308   2.030   1.194 -0.2901 -0.3260  0.1223
  467SOL    HW1 1400   0.321   1.956   1.124  1.1659 -1.8678 -0.6002
  467SOL    HW2 1401   0.363   2.110   1.178 -3.6266 -2.9474  3.9316
  468SOL     OW 1402   2.541   1.640   2.434 -0.0459  0.1588 -0.6422
  468SOL    HW1 1403   2.561   1.661   2.339 -0.5228 -2.4963  0.7344
  468SOL    HW2 1404   2.454   1.589   2.435 -1.6690  1.7115 -1.0169
  469SOL     OW 1405   1.220   1.877   0.425 -0.1335 -0.5777 -0.3657
  469SOL    HW1 1406   1.282   1.955   0.437 -0.4192  0.6935  0.6923
  469SOL    HW2 1407   1.138   1.911   0.375 -2.6502  0.9271 -0.1204
  470SOL     OW 1408   2.585   1.292   1.318  0.1549 -0.5195  0.0069
  470SOL    HW1 1409   2.582   1.375   1.261 -2.1786  0.2469  0.1059
  470SOL    HW2 1410   2.509   1.302   1.391 -0.7312  2.8143 -1.2659
  471SOL     OW 1411   0.339   2.378   2.944  0.1976 -0.2044 -0.1164
  471SOL    HW1 1412   0.351   2.319   2.864 -0.6022 -2.1828  0.0739
  471SOL    HW2 1413   0.420   2.430   2.959 -2.5761 -0.9467 -1.5939
  472SOL     OW 1414   3.028   1.750   2.028 -0.0729 -1.0069  0.2443
  472SOL    HW1 1415   3.075   1.665   2.005  0.6729  0.1633  1.6053
  472SOL    HW2 1416   2.931   1.751   2.006  3.4723  0.2705 -1.4808
  473SOL     OW 1417   0.741   2.787   0.505  0.3514 -0.6083 -0.3858
  473SOL    HW1 1418   0.732   2.686   0.501 -1.7989 -0.2357  0.1380
  473SOL    HW2 1419   0.837   2.813   0.470  0.1303  0.5764 -0.4431
  474SOL     OW 1420   2.754   0.124   1.035 -0.4571  0.3475  0.2737
  474SOL    HW1 1421   2.724   0.217   1.005 -2.3083 -0.3743 -0.9904
  474SOL    HW2 1422   2.785   0.139   1.129  0.7387 -1.8820 -1.6013
  475SOL     OW 1423   1.900   3.026   1.948 -0.6666 -0.0645  0.0554
  475SOL    HW1 1424   1.802   3.041   1.934  4.7986 -1.5029 -1.5656
  475SOL    HW2 1425   1.949   0.031   1.946  0.7802 -1.8339 -0.4591
  476SOL     OW 1426   0.547   0.627   0.687 -0.1165 -0.1916 -0.0394
  476SOL    HW1 1427   0.568   0.696   0.615  4.3431 -0.9034 -1.5964
  476SOL    HW2 1428   0.487   0.561   0.642 -1.0267  0.6943  2.4352
  477SOL     OW 1429   0.796   2.166   1.076  0.4303 -0.3205 -0.5043
  477SOL    HW1 1430   0.747   2.205   0.999 -1.0093 -1.1160  0.2796
  477SOL    HW2 1431   0.874   2.107   1.054 -0.7061 -0.6485  1.9166
  478SOL     OW 1432   0.226   2.255   2.450 -0.4440 -0.2143 -0.5493
  478SOL    HW1 1433   0.168   2.184   2.489  3.7399 -0.0147 -0.1870
  478SOL    HW2 1434   0.245   2.325   2.520  2.9936  2.4876 -0.6111
  479SOL     OW 1435   0.055   0.686   1.767 -0.0370 -0.1085 -0.1588
  479SOL    HW1 1436   0.114   0.772   1.790  0.1956 -1.1552 -1.9900
  479SOL    HW2 1437   0.073   0.645   1.676  0.8104  0.6921  0.3783
  480SOL     OW 1438   2.803   2.471   0.070  0.1011 -0.5033 -0.1320
  480SOL    HW1 1439   2.754   2.545   0.118  0.1683 -0.6883 -2.8310
  480SOL    HW2 1440   2.902   2.503   0.066 -0.8217  0.1634  2.3422
  481SOL     OW 1441   1.636   2.005   2.210  0.8025  0.0501  0.1647
  481SOL    HW1 1442   1.662   1.939   2.139  0.3046  0.3493 -1.3071
  481SOL    HW2 1443   1.574   1.957   2.276  2.0506 -2.4557  1.1933
  482SOL     OW 1444   1.614   2.222   2.799 -0.2071 -0.0718 -0.2742
  482SOL    HW1 1445   1.574   2.149   2.735 -0.4505 -0.5326 -0.3284
  482SOL    HW2 1446   1.693   2.266   2.754 -0.5776 -0.0870  0.9711
  483SOL     OW 1447   0.736   1.948   2.644 -0.0363  0.2959 -0.5608
  483SOL    HW1 1448   0.660   1.878   2.649 -1.8038  1.8174 -1.4579
  483SOL    HW2 1449   0.700   2.037   2.665 -1.0627 -2.5009  2.8142
  484SOL     OW 1450   0.006   0.562   0.972 -0.1436 -0.6522  0.0773
  484SOL    HW1 1451   3.004   0.603   0.950  0.9097 -1.5477  2.8055
  484SOL    HW2 1452   0.058   0.614   1.043  1.6665  1.1597  0.2990
  485SOL     OW 1453   2.162   0.606   0.466  0.4898  0.4410  0.1488
  485SOL    HW1 1454   2.171   0.585   0.563  1.7201  2.4573 -1.9016
  485SOL    HW2 1455   2.065   0.620   0.435 -1.6385  0.8955  0.6993
  486SOL     OW 1456   1.820   2.942   2.426 -0.3519  0.3704  0.5176
  486SOL    HW1 1457   1.863   2.948   2.334 -2.2167 -3.4838 -1.4667
  486SOL    HW2 1458   1.886   2.956   2.503  1.2359 -1.0631  1.1210
  487SOL     OW 1459   1.622   1.381   0.763 -0.3462 -0.6479  0.2397
  487SOL    HW1 1460   1.719   1.361   0.760  0.0342  1.5452  2.6206
  487SOL    HW2 1461   1.608   1.482   0.781 -2.2392  2.3454  0.3299
  488SOL     OW 1462   2.298   1.315   0.015 -0.1651  0.1064 -0.0037
  488SOL    HW1 1463   2.295   1.234   3.043 -0.6225 -1.4385  3.4325
  488SOL    HW2 1464   2.386   1.363   0.005 -3.5682 -0.5699 -1.9700
  489SOL     OW 1465   2.379   0.158   0.721  0.0684  0.2856 -0.7222
  489SOL    HW1 1466   2.289   0.201   0.711 -0.2339 -0.5335  0.1926
  489SOL    HW2 1467   2.379   0.125   0.819  2.1002  0.0263  0.5585
  490SOL     OW 1468   1.481   2.761   0.106  0.3586 -0.3502 -0.2680
  490SOL    HW1 1469   1.442   2.756   0.200  0.5439 -2.2000  0.2428
  490SOL    HW2 1470   1.409   2.777   0.036  0.9703 -1.7980 -0.0558
  491SOL     OW 1471   0.767   0.899   0.571  0.0901  0.2246  0.3564
  491SOL    HW1 1472   0.729   0.983   0.612  2.0911 -1.9752  0.2963
  491SOL    HW2 1473   0.858   0.911   0.526 -2.2689 -0.4428  0.8258
  492SOL     OW 1474   1.525   0.319   0.147 -0.1982  0.3582  0.0658
  492SOL    HW1 1475   1.550   0.224   0.180 -2.1258 -1.4175  1.2840
  492SOL    HW2 1476   1.439   0.318   0.092 -2.7101  0.3442 -2.5223
  493SOL     OW 1477   1.963   2.279   2.967 -0.6131  0.6288 -0.3936
  493SOL    HW1 1478   1.874   2.241   3.004  0.7701 -2.5805  3.1117
  493SOL    HW2 1479   1.949   2.349   2.901  1.8807 -3.6676  0.5737
  494SOL     OW 1480   0.654   1.139   0.638  0.5363  0.5140  0.3654
  494SOL    HW1 1481   0.593   1.091   0.706 -2.2104 -1.2569 -1.4879
  494SOL    HW2 1482   0.605   1.203   0.578  1.2842  2.7054 -2.1677
  495SOL     OW 1483   3.011   2.665   1.111  0.0359 -0.2216 -0.2231
  495SOL    HW1 1484   3.010   2.640   1.011  1.8872  1.7274  3.2926
  495SOL    HW2 1485   2.973   2.585   1.163 -2.2558 -1.2306  0.2067
  496SOL     OW 1486   2.310   0.327   1.853 -0.5698 -0.2471  0.0334
  496SOL    HW1 1487   2.363   0.310   1.772 -0.4707  1.6550  2.4239
  496SOL    HW2 1488   2.213   0.358   1.835  2.3112  2.3071 -0.8357
  497SOL     OW 1489   1.888   1.914   2.713 -0.1340  0.0988  0.2721
  497SOL    HW1 1490   1.832   1.885   2.634 -0.4176 -0.4816 -0.6901
  497SOL    HW2 1491   1.956   1.979   2.682 -1.1565 -1.2444  1.2936
  498SOL     OW 1492   0.853   1.897   0.592  0.1357 -0.4194  0.5234
  498SOL    HW1 1493   0.782   1.827   0.584  2.1871  0.6308 -0.7296
  498SOL    HW2 1494   0.907   1.888   0.681 -0.4332  3.6717  0.6126
  499SOL     OW 1495   0.601   1.767   1.114  0.1413 -0.0164  0.0119
  499SOL    HW1 1496   0.636   1.854   1.152  0.1689  1.3882 -0.4170
  499SOL    HW2 1497   0.500   1.776   1.095 -3.2407 -2.2417 -1.1317
  500SOL     OW 1498   1.297   2.244   0.394 -0.1043 -0.0744  0.3735
  500SOL    HW1 1499   1.272   2.194   0.308 -1.1116  3.3488  1.2656
  500SOL    HW2 1500   1.333   2.174   0.459 -3.1696 -1.7567  0.8070
  501SOL     OW 1501   2.331   2.613   1.166 -0.2522 -0.0462  0.5276
  501SOL    HW1 1502   2.427   2.641   1.165 -1.4809 -0.5912 -2.1714
  501SOL    HW2 1503   2.287   2.618   1.256  2.7276 -2.4709 -1.3907
  502SOL     OW 1504   0.329   0.778   1.499  0.5701 -0.0243 -0.6418
  502SOL    HW1 1505   0.426   0.776   1.464 -0.4547  0.6176  1.9441
  502SOL    HW2 1506   0.294   0.868   1.488  0.9152 -0.9316  0.7190
  503SOL     OW 1507   2.005   0.589   1.612  0.3141  0.4795  0.2287
  503SOL    HW1 1508   1.920   0.618   1.572  0.2417 -0.8695  1.2520
  503SOL    HW2 1509   2.082   0.647   1.574  0.3543  3.3449  0.8907
  504SOL     OW 1510   1.554   0.581   1.973 -0.8992 -0.0875 -0.0018
  504SOL    HW1 1511   1.533   0.664   2.020  1.2508 -1.1118 -0.4182
  504SOL    HW2 1512   1.472   0.538   1.941  0.3809 -0.6068  1.4531
  505SOL     OW 1513   1.063   0.218   2.827 -0.5054  0.2277 -0.1843
  505SOL    HW1 1514   1.125   0.138   2.809 -0.4495  0.4547  0.7295
  505SOL    HW2 1515   1.016   0.204   2.916  1.6506  0.5203 -0.6817
  506SOL     OW 1516   0.506   0.477   1.637  0.4540 -0.2325 -0.2602
  506SOL    HW1 1517   0.497   0.576   1.668  3.1430 -1.0680  1.6888
  506SOL    HW2 1518   0.415   0.426   1.644  0.7040 -0.7150 -0.7980
  507SOL     OW 1519   1.341   0.047   0.097 -0.1132  0.1250 -0.2230
  507SOL    HW1 1520   1.362   3.060   0.031 -0.0388  3.0680  0.9799
  507SOL    HW2 1521   1.326   0.135   0.047 -0.9829 -2.6402  2.8835
  508SOL     OW 1522   2.535   0.690   2.555  0.2454 -0.0024  0.2121
  508SOL    HW1 1523   2.465   0.651   2.616  0.2402  0.5391 -2.8888
  508SOL    HW2 1524   2.494   0.753   2.487 -0.2901  0.6785 -0.1254
  509SOL     OW 1525   0.876   1.443   1.936 -0.1829  0.3250  0.7237
  509SOL    HW1 1526   0.862   1.430   1.837 -1.4861  3.7270  0.8332
  509SOL    HW2 1527   0.803   1.495   1.981 -2.0305  0.3791  0.7065
  510SOL     OW 1528   0.044   1.302   0.827  0.2270  0.1376 -0.6469
  510SOL    HW1 1529   0.028   1.396   0.792  2.1227  1.4572  0.3404
  510SOL    HW2 1530   3.050   1.248   0.801  0.9936  0.1553 -1.8485
  511SOL     OW 1531   1.759   1.691   1.022 -0.4090  0.7047 -0.6119
  511SOL    HW1 1532   1.738   1.639   1.109  1.3548  1.0058  2.9771
  511SOL    HW2 1533   1.824   1.638   0.971 -0.5206 -0.1040 -1.5460
  512SOL     OW 1534   0.835   1.104   0.156 -0.4842 -0.2204  0.0689
  512SOL    HW1 1535   0.900   1.146   0.221  2.6428 -0.4428  2.2248
  512SOL    HW2 1536   0.869   1.095   0.060  1.5243  2.2957  0.4331
  513SOL     OW 1537   0.171   2.340   0.487  0.1252 -0.1091  0.1101
  513SOL    HW1 1538   0.114   2.302   0.568 -2.1356  0.2434  1.2511
  513SOL    HW2 1539   0.248   2.396   0.523  1.2357 -0.6553 -1.6610
  514SOL     OW 1540   2.974   2.002   2.391  0.3764  0.5683 -0.2637
  514SOL    HW1 1541   3.035   2.029   2.465 -1.0234  1.3143  3.4965
  514SOL    HW2 1542   2.996   1.902   2.366  0.9163  0.4715 -1.0191
  515SOL     OW 1543   2.366   0.683   0.121  0.0663  0.0306 -0.2587
  515SOL    HW1 1544   2.444   0.711   0.177 -0.4925  0.0628  0.8769
  515SOL    HW2 1545   2.324   0.598   0.161 -0.0927 -3.5132  1.0854
  516SOL     OW 1546   2.561   2.884   0.809 -0.0126 -0.0428  0.6478
  516SOL    HW1 1547   2.531   2.944   0.887  0.4034 -0.4897  0.6650
  516SOL    HW2 1548   2.515   2.920   0.724 -2.9558  0.7104 -0.3949
  517SOL     OW 1549   1.415   1.756   2.832  0.3144  0.4133 -0.0304
  517SOL    HW1 1550   1.477   1.764   2.916 -0.1213  2.1431  0.2089
  517SOL    HW2 1551   1.351   1.834   2.833  0.7767  0.5482  3.4926
  518SOL     OW 1552   1.081   0.866   1.723  0.2774 -0.6768  0.6330
  518SOL    HW1 1553   1.025   0.815   1.657  1.9483  1.0609 -1.0223
  518SOL    HW2 1554   1.128   0.801   1.788 -0.6967 -1.5795 -1.6512
  519SOL     OW 1555   2.952   1.680   0.397  1.1118  0.1793  0.2778
  519SOL    HW1 1556   2.904   1.699   0.487 -1.1484  0.2724 -2.1102
  519SOL    HW2 1557   3.028   1.611   0.407  0.7402  1.3348  1.9460
  520SOL     OW 1558   2.209   2.154   1.814 -0.6334  0.1350  0.2913
  520SOL    HW1 1559   2.186   2.196   1.900 -0.0025 -0.5900 -1.0639
  520SOL    HW2 1560   2.308   2.133   1.806  2.1026 -0.6919 -1.6566
  521SOL     OW 1561   1.049   3.002   2.593 -0.1705  0.0221  0.9168
  521SOL    HW1 1562   0.997   3.086   2.564  2.8235  0.9074  0.8407
  521SOL    HW2 1563   0.986   2.918   2.594  0.3653  0.6710 -1.1886
  522SOL     OW 1564   2.301   0.485   2.221  0.1797 -0.1559 -0.6698
  522SOL    HW1 1565   2.356   0.521   2.143  0.4865 -1.6458  0.2844
  522SOL    HW2 1566   2.315   0.543   2.307  1.6258  0.9460  2.5156
  523SOL     OW 1567   1.787   2.403   1.642  0.0707  0.1196 -0.3232
  523SOL    HW1 1568   1.826   2.326   1.587 -0.6655 -0.6903 -2.0997
  523SOL    HW2 1569   1.847   2.431   1.720 -1.1106 -1.7228  0.2887
  524SOL     OW 1570   1.730   2.158   3.068 -0.2943 -0.2798 -0.2556
  524SOL    HW1 1571   1.669   2.182   2.989 -2.2095  0.0019 -2.3805
  524SOL    HW2 1572   1.779   2.068   3.040 -0.2852 -1.0364 -0.5553
  525SOL     OW 1573   0.175   0.621   0.019  0.6901 -0.5472  0.5473
  525SOL    HW1 1574   0.241   0.575   0.080 -1.2791  1.7511 -1.1384
  525SOL    HW2 1575   0.102   0.555   3.069 -0.0866 -1.3536  0.8306
  526SOL     OW 1576   1.096   2.684   0.690  0.2471  0.9991 -0.1840
  526SOL    HW1 1577   1.193   2.669   0.695  0.6037  1.3823 -0.1483
  526SOL    HW2 1578   1.055   2.721   0.771 -2.0114 -2.9068 -1.4441
  527SOL     OW 1579   2.578   1.840   0.623  0.4432  0.0327 -0.1965
  527SOL    HW1 1580   2.601   1.936   0.604 -1.6519  0.5321 -2.5805
  527SOL    HW2 1581   2.495   1.810   0.572  0.2928 -2.9343 -0.0288
  528SOL     OW 1582   0.740   0.933   2.122 -0.7063 -0.2167  0.1884
  528SOL    HW1 1583   0.742   0.930   2.227 -0.9162 -0.5016  1.5973
  528SOL    HW2 1584   0.661   0.872   2.094 -0.0111  0.5076 -0.3864
  529SOL     OW 1585   1.557   1.571   2.649  0.0265  0.5207  0.2908
  529SOL    HW1 1586   1.502   1.632   2.709 -1.0862 -1.0838 -1.5572
  529SOL    HW2 1587   1.500   1.521   2.579 -1.8728 -0.5037 -2.1676
  530SOL     OW 1588   1.709   0.994   2.272 -0.3112 -0.0542  0.0410
  530SOL    HW1 1589   1.669   1.028   2.187 -0.2677  1.2787  0.3221
  530SOL    HW2 1590   1.641   0.934   2.325 -0.9238 -3.6110  2.2146
  531SOL     OW 1591   0.660   2.196   2.746  0.4240  0.0828 -0.3114
  531SOL    HW1 1592   0.572   2.177   2.790  1.3310  2.1301 -3.0099
  531SOL    HW2 1593   0.733   2.217   2.812 -1.2407 -2.4476  0.9491
  532SOL     OW 1594   2.448   0.897   0.569 -0.1681 -0.0494  0.1951
  532SOL    HW1 1595   2.474   0.992   0.594 -3.1569 -2.3761 -0.4221
  532SOL    HW2 1596   2.479   0.830   0.638 -2.3669 -0.1745  0.9184
  533SOL     OW 1597   0.094   0.357   1.570 -0.6543 -0.2004 -0.8746
  533SOL    HW1 1598   0.170   0.340   1.636 -0.8605  3.6380  2.5670
  533SOL    HW2 1599   0.088   0.450   1.533 -0.2970  0.9833 -2.1896
  534SOL     OW 1600   0.675   0.216   0.038 -0.1421  0.3691 -0.6491
  534SOL    HW1 1601   0.571   0.215   0.039 -1.5701  0.3118  1.2600
  534SOL    HW2 1602   0.711   0.279   3.060 -1.2435 -2.4389  1.4930
  535SOL     OW 1603   0.405   3.019   0.018  0.0049 -0.0769 -0.2398
  535SOL    HW1 1604   0.332   2.997   3.034 -1.9791 -2.2678 -2.4418
  535SOL    HW2 1605   0.382   2.965   0.100 -0.8362  1.0260 -0.2159
  536SOL     OW 1606   0.740   1.589   1.270 -0.4987  0.4815 -0.0279
  536SOL    HW1 1607   0.688   1.655   1.213  1.1544 -0.3628 -0.2032
  536SOL    HW2 1608   0.797   1.641   1.337 -0.3689  2.6784  1.1264
  537SOL     OW 1609   0.900   2.686   1.790  0.1480  0.3826  0.1843
  537SOL    HW1 1610   0.992   2.722   1.786  0.1386 -0.7666 -1.7356
  537SOL    HW2 1611   0.875   2.655   1.885 -0.9318  0.2347 -2.0046
  538SOL     OW 1612   0.025   1.861   2.747 -0.5779 -0.3128 -0.4154
  538SOL    HW1 1613   3.058   1.903   2.819  2.3702  0.2790 -1.0736
  538SOL    HW2 1614   0.116   1.831   2.791  0.8919  0.6772  0.7675
  539SOL     OW 1615   2.497   1.005   2.749 -0.1221  0.1264  0.5467
  539SOL    HW1 1616   2.574   0.975   2.689  1.8334  0.2430  2.9788
  539SOL    HW2 1617   2.524   1.044   2.840  0.3229  1.3592 -0.1925
  540SOL     OW 1618   1.768   0.480   2.606  0.4030 -0.3434 -0.2196
  540SOL    HW1 1619   1.761   0.418   2.684  2.3494 -1.1737 -0.7766
  540SOL    HW2 1620   1.808   0.571   2.634  0.0969 -0.7151 -1.9041
  541SOL     OW 1621   0.808   0.167   2.060 -0.1971  0.2444  0.3670
  541SOL    HW1 1622   0.759   0.134   2.146 -1.0265 -0.2500  0.3612
  541SOL    HW2 1623   0.823   0.264   2.060 -0.7643 -2.0021  0.9549
  542SOL     OW 1624   1.800   2.688   3.017 -0.4582 -0.0408  0.3269
  542SOL    HW1 1625   1.784   2.621   0.006  0.7819  1.1157 -1.5433
  542SOL    HW2 1626   1.744   2.771   3.021  1.5497 -0.3807  0.0665
  543SOL     OW 1627   0.927   0.008   0.814 -0.4365  0.0027 -0.3930
  543SOL    HW1 1628   0.881   0.095   0.841 -3.5106 -1.5543  0.1923
  543SOL    HW2 1629   1.027   0.023   0.803 -1.1437 -2.7750  2.9228
  544SOL     OW 1630   2.479   1.485   1.897  0.2892 -0.3280  0.5694
  544SOL    HW1 1631   2.574   1.468   1.927  0.1342  2.3665 -0.3260
  544SOL    HW2 1632   2.478   1.573   1.846 -0.6548  1.1013  2.0409
  545SOL     OW 1633   2.164   1.653   1.213 -0.3458  0.2875  0.5066
  545SOL    HW1 1634   2.219   1.724   1.160  2.3539 -0.1392 -0.2287
  545SOL    HW2 1635   2.193   1.558   1.175 -1.2987  1.3473 -1.3259
  546SOL     OW 1636   0.056   0.128   2.154 -0.2733  0.5856  0.1574
  546SOL    HW1 1637   0.084   0.174   2.067  2.9828  1.7981 -0.6181
  546SOL    HW2 1638   0.108   0.038   2.175  1.5786 -2.1200  0.1577
  547SOL     OW 1639   1.441   0.689   0.943  0.2402  0.6024  0.1976
  547SOL    HW1 1640   1.376   0.685   1.018 -0.9942  0.4644 -0.8907
  547SOL    HW2 1641   1.454   0.784   0.918 -0.0580 -6.4097 -0.1884
  548SOL     OW 1642   1.475   2.445   2.909  0.3668  0.5743 -0.1288
  548SOL    HW1 1643   1.398   2.400   2.957  0.4143  2.0360  0.2868
  548SOL    HW2 1644   1.531   2.373   2.865 -0.0937  1.5323  1.2990
  549SOL     OW 1645   2.180   0.214   0.289 -0.4133  0.1701  0.0514
  549SOL    HW1 1646   2.094   0.202   0.232 -0.3038  0.2100  1.4080
  549SOL    HW2 1647   2.242   0.135   0.279  0.6117  2.3176  2.5526
  550SOL     OW 1648   2.659   2.112   0.633 -0.1056 -0.3620 -0.1704
  550SOL    HW1 1649   2.629   2.205   0.617  1.1211  0.0528 -3.0977
  550SOL    HW2 1650   2.759   2.100   0.621 -1.0957 -1.6069  0.7330
  551SOL     OW 1651   1.196   2.855   2.427 -0.0444 -0.1914  0.1578
  551SOL    HW1 1652   1.257   2.899   2.359  1.9823  2.2681 -1.0484
  551SOL    HW2 1653   1.140   2.923   2.473  2.9365 -1.9495 -1.0836
  552SOL     OW 1654   2.955   2.346   2.709 -0.3206  0.2745  0.5124
  552SOL    HW1 1655   2.947   2.306   2.615  0.7958 -1.4775  0.3300
  552SOL    HW2 1656   2.885   2.303   2.769 -0.2280  0.0817  1.9782
  553SOL     OW 1657   0.073   0.127   0.826  0.5500  0.3592 -0.2622
  553SOL    HW1 1658   0.103   0.204   0.883 -0.2887 -1.2253 -2.2263
  553SOL    HW2 1659   3.070   0.081   0.859 -1.1598  0.2547  0.5487
  554SOL     OW 1660   2.162   2.154   1.455  0.5973  0.5003  0.3184
  554SOL    HW1 1661   2.165   2.078   1.525 -1.3463  1.5908  0.2331
  554SOL    HW2 1662   2.141   2.236   1.506  3.3906 -1.3675  3.0027
  555SOL     OW 1663   1.582   2.223   2.049 -0.0426  0.4917  0.1645
  555SOL    HW1 1664   1.607   2.143   2.102 -1.0551  3.3013 -1.1124
  555SOL    HW2 1665   1.499   2.260   2.092  0.5159  0.0807  0.6838
  556SOL     OW 1666   1.292   1.257   1.221  0.6732 -0.2224  0.1049
  556SOL    HW1 1667   1.327   1.164   1.209 -0.1428  2.9575 -0.5324
  556SOL    HW2 1668   1.340   1.326   1.169 -0.1719 -2.7530 -2.0021
  557SOL     OW 1669   1.964   2.812   1.803 -0.4221  0.2778 -0.3586
  557SOL    HW1 1670   2.060   2.785   1.799 -0.1220  0.2427  1.6173
  557SOL    HW2 1671   1.945   2.898   1.856 -2.9474  1.1567  0.5386
  558SOL     OW 1672   0.148   3.082   1.814 -0.6467  0.3928  0.1758
  558SOL    HW1 1673   0.106   0.069   1.867 -0.5730  1.0721 -0.7410
  558SOL    HW2 1674   0.125   0.012   1.712 -0.1330  0.3034 -1.2756
  559SOL     OW 1675   1.969   2.952   0.740 -0.2569  0.2148 -0.1207
  559SOL    HW1 1676   2.011   3.041   0.741 -1.0254 -4.0250 -0.3801
  559SOL    HW2 1677   1.980   2.912   0.646 -1.2610 -1.7216  2.6761
  560SOL     OW 1678   1.685   2.708   0.735 -0.3779  0.2425  0.3798
  560SOL    HW1 1679   1.704   2.793   0.788  0.2093  3.2591  1.3435
  560SOL    HW2 1680   1.619   2.644   0.781  0.0354 -1.2842  1.5154
  561SOL     OW 1681   0.613   0.361   0.996 -0.1606 -0.3339  0.1237
  561SOL    HW1 1682   0.687   0.306   0.954  0.6361 -0.0774  0.8624
  561SOL    HW2 1683   0.529   0.372   0.934  1.3923 -1.0380  0.9778
  562SOL     OW 1684   0.484   1.228   2.366 -0.6075 -0.4723 -0.4739
  562SOL    HW1 1685   0.385   1.233   2.379 -0.6344 -0.7272 -0.8964
  562SOL    HW2 1686   0.503   1.129   2.360  0.6641  0.9980  0.2928
  563SOL     OW 1687   1.737   2.233   2.329  0.3421 -0.4978  0.0718
  563SOL    HW1 1688   1.723   2.135   2.297 -0.8962  0.5210  0.0889
  563SOL    HW2 1689   1.771   2.235   2.425 -0.9045 -0.9534  1.4752
  564SOL     OW 1690   2.926   1.139   0.738  0.2168 -0.4014  0.5701
  564SOL    HW1 1691   2.977   1.051   0.721 -0.9843  0.3494 -0.4777
  564SOL    HW2 1692   2.846   1.120   0.797 -2.6600  1.3837 -0.8482
  565SOL     OW 1693   0.683   0.892   0.065  0.0389  0.2339 -0.0102
  565SOL    HW1 1694   0.702   0.894   3.050  0.4076 -0.4129 -2.2993
  565SOL    HW2 1695   0.717   0.974   0.108 -0.4757 -0.3658 -0.6655
  566SOL     OW 1696   2.113   0.460   2.668 -0.1291 -0.7000 -0.8340
  566SOL    HW1 1697   2.105   0.376   2.724 -0.3492 -0.2919 -0.1563
  566SOL    HW2 1698   2.207   0.499   2.679 -1.1512 -0.8154  0.3421
  567SOL     OW 1699   1.512   0.810   0.698  0.5501  0.2246  1.1676
  567SOL    HW1 1700   1.493   0.728   0.643 -0.1084 -2.0969 -0.4355
  567SOL    HW2 1701   1.452   0.890   0.667 -0.4113 -1.0072 -1.4482
  568SOL     OW 1702   1.825   1.930   2.962 -0.5680 -0.1093 -0.0793
  568SOL    HW1 1703   1.746   1.871   2.974 -1.3650 -2.3922  1.1128
  568SOL    HW2 1704   1.840   1.936   2.863 -2.1056 -0.7464  1.4157
  569SOL     OW 1705   2.027   1.277   3.068 -0.2517  0.6988 -0.0830
  569SOL    HW1 1706   1.973   1.361   3.071  1.4156 -1.8353  1.3268
  569SOL    HW2 1707   2.130   1.300   3.075  0.4135  1.2676  1.3270
  570SOL     OW 1708   0.190   2.323   1.893 -0.0810 -0.2526 -0.7512
  570SOL    HW1 1709   0.269   2.389   1.891  3.0836 -3.4326  0.6855
  570SOL    HW2 1710   0.109   2.381   1.910  0.1587  1.6808 -0.5932
  571SOL     OW 1711   0.024   1.507   1.589  0.0184  0.3549 -0.4807
  571SOL    HW1 1712   0.027   1.595   1.635  1.4216 -0.3776  1.3526
  571SOL    HW2 1713   0.074   1.506   1.503 -1.4095  0.5661  0.1198
  572SOL     OW 1714   1.685   1.917   0.556  0.2333  0.3972 -0.0721
  572SOL    HW1 1715   1.738   1.836   0.599 -0.9472 -3.5331  1.1393
  572SOL    HW2 1716   1.752   1.977   0.509  1.4807  3.2601 -0.6510
  573SOL     OW 1717   1.834   2.120   0.434  0.2393  0.1670  0.1122
  573SOL    HW1 1718   1.862   2.181   0.358 -1.2946  1.7920 -1.4894
  573SOL    HW2 1719   1.801   2.177   0.513  1.2422  1.3895  1.1880
  574SOL     OW 1720   0.588   0.192   1.219  0.7482  0.2162 -0.3634
  574SOL    HW1 1721   0.494   0.191   1.261 -0.3346  2.1249  0.7234
  574SOL    HW2 1722   0.602   0.267   1.150 -0.3104 -2.7473 -1.6658
  575SOL     OW 1723   0.713   1.188   1.822  0.3584 -0.2841  0.0673
  575SOL    HW1 1724   0.771   1.246   1.762 -0.6831  3.2768  1.2757
  575SOL    HW2 1725   0.779   1.145   1.883  0.6049  3.9707 -2.3267
  576SOL     OW 1726   2.573   3.083   1.289  0.0522  0.0679  0.2631
  576SOL    HW1 1727   2.669   0.029   1.280 -1.0598 -0.8954  2.5513
  576SOL    HW2 1728   2.507   0.063   1.320  1.7223 -2.3062 -1.0512
  577SOL     OW 1729   1.132   1.166   2.226 -0.4431 -0.0142  0.2569
  577SOL    HW1 1730   1.101   1.195   2.133 -0.4854 -0.9542 -1.5917
  577SOL    HW2 1731   1.112   1.067   2.237 -0.1725 -1.4983  0.4637
  578SOL     OW 1732   2.062   1.406   2.404 -0.0179 -0.1959  0.3925
  578SOL    HW1 1733   2.009   1.367   2.322 -1.9396 -0.0410 -0.4989
  578SOL    HW2 1734   2.040   1.505   2.416  3.1791  1.4686  4.3099
  579SOL     OW 1735   1.520   2.190   1.797 -0.4485  0.0590 -0.1334
  579SOL    HW1 1736   1.557   2.195   1.895 -1.1084  1.2480  0.0595
  579SOL    HW2 1737   1.527   2.281   1.749  0.7484  1.7809 -2.0860
  580SOL     OW 1738   1.409   1.737   0.295  0.0065 -0.2111  0.3384
  580SOL    HW1 1739   1.440   1.642   0.309 -0.1020  0.4080  0.8375
  580SOL    HW2 1740   1.327   1.757   0.349  1.5544  0.7490 -0.9840
  581SOL     OW 1741   1.261   0.768   2.181 -0.2806 -0.8942  0.2496
  581SOL    HW1 1742   1.185   0.831   2.165  0.6266  0.4686  3.3691
  581SOL    HW2 1743   1.298   0.784   2.274 -1.8714 -3.6475 -0.9422
  582SOL     OW 1744   0.823   1.385   1.661  0.6859 -0.6542  0.0378
  582SOL    HW1 1745   0.808   1.488   1.674  0.2675 -0.0442 -1.9373
  582SOL    HW2 1746   0.797   1.357   1.567  1.4060  0.8046 -0.9590
  583SOL     OW 1747   1.019   1.241   2.004 -0.3532  0.5738 -0.3178
  583SOL    HW1 1748   0.984   1.147   1.974  1.5378  2.1093  2.0588
  583SOL    HW2 1749   0.955   1.318   1.982  1.1332  0.7019  0.0374
  584SOL     OW 1750   2.486   2.613   0.834 -0.1023 -0.2502 -0.0420
  584SOL    HW1 1751   2.393   2.598   0.850  1.2439 -0.0228 -0.8513
  584SOL    HW2 1752   2.497   2.706   0.795 -3.3641 -0.9557  1.0365
  585SOL     OW 1753   2.020   0.260   2.811  0.4870 -0.1948  0.0646
  585SOL    HW1 1754   1.984   0.238   2.719 -0.7765 -1.2402 -1.1333
  585SOL    HW2 1755   2.094   0.197   2.838  0.0267 -0.2300  0.3172
  586SOL     OW 1756   0.065   2.225   0.710  0.4405  0.2866  0.2207
  586SOL    HW1 1757   0.013   2.281   0.778  0.2791  1.0260 -0.2261
  586SOL    HW2 1758   0.148   2.194   0.761  0.2840 -1.5720  0.7483
  587SOL     OW 1759   1.570   1.735   3.064 -0.9939  0.2821 -0.6339
  587SOL    HW1 1760   1.598   1.789   0.063 -2.3756  0.6402  2.2528
  587SOL    HW2 1761   1.578   1.635   3.081 -0.1092  2.0954 -0.9331
  588SOL     OW 1762   0.215   0.318   1.262  0.3601 -0.0732  0.2196
  588SOL    HW1 1763   0.261   0.237   1.302 -2.2306  2.5448 -1.0020
  588SOL    HW2 1764   0.118   0.311   1.286 -1.3777  1.0746  1.8104
  589SOL     OW 1765   1.325   0.504   0.807 -0.4052  0.6384 -0.2244
  589SOL    HW1 1766   1.352   0.415   0.851  0.7400  0.3991 -0.5269
  589SOL    HW2 1767   1.373   0.571   0.862 -2.0523 -4.0976  1.7049
  590SOL     OW 1768   1.040   1.121   3.019  0.0863 -0.0701 -0.4268
  590SOL    HW1 1769   1.054   1.179   0.017  1.2721  2.9252  1.2866
  590SOL    HW2 1770   1.092   1.033   3.034 -0.1319 -2.4027  1.7751
  591SOL     OW 1771   2.530   2.493   2.330  0.2880 -0.0677  0.0102
  591SOL    HW1 1772   2.583   2.489   2.416 -1.0377 -0.5061 -2.0880
  591SOL    HW2 1773   2.465   2.574   2.326 -4.0178 -2.0785 -0.0684
  592SOL     OW 1774   2.065   1.852   1.387  0.3770 -0.7211 -0.0630
  592SOL    HW1 1775   2.126   1.868   1.464 -1.7927  2.3473 -0.3846
  592SOL    HW2 1776   2.098   1.771   1.328  0.6714  1.4134 -1.7929
  593SOL     OW 1777   1.003   0.388   1.480 -0.0453  0.9191  0.4034
  593SOL    HW1 1778   0.960   0.347   1.563 -1.8091 -1.4412 -2.1917
  593SOL    HW2 1779   0.941   0.451   1.428  3.2863  0.7816  0.4040
  594SOL     OW 1780   2.525   1.042   2.424  0.8265 -0.5926  0.0392
  594SOL    HW1 1781   2.575   1.125   2.462  1.6492 -0.4314  1.1001
  594SOL    HW2 1782   2.581   0.975   2.366 -0.6408 -2.1848 -1.0529
  595SOL     OW 1783   0.194   0.126   0.592 -0.4352 -0.0962  0.5497
  595SOL    HW1 1784   0.141   0.115   0.682 -1.4506 -1.4220  1.9629
  595SOL    HW2 1785   0.292   0.121   0.608 -0.9847 -0.9928  0.1011
  596SOL     OW 1786   3.045   1.454   1.045  0.0660 -0.3602  0.3975
  596SOL    HW1 1787   0.023   1.405   0.985  0.0942 -1.5085 -0.8511
  596SOL    HW2 1788   2.970   1.390   1.064  1.3559  0.8184 -1.4102
  597SOL     OW 1789   1.788   1.567   0.435 -0.0051  0.1161  0.1061
  597SOL    HW1 1790   1.798   1.602   0.527  0.3993 -0.7556  0.5380
  597SOL    HW2 1791   1.824   1.645   0.376 -1.2034 -0.7018 -0.6898
  598SOL     OW 1792   0.074   2.828   1.856  0.1202  0.8652 -0.0019
  598SOL    HW1 1793   0.102   2.745   1.802  1.0712 -1.2622  1.0275
  598SOL    HW2 1794   0.105   2.919   1.828 -0.5037 -2.6996 -0.5141
  599SOL     OW 1795   2.479   1.369   2.667 -0.6547  0.5343 -0.1799
  599SOL    HW1 1796   2.379   1.338   2.663 -1.4477 -0.4284  0.0129
  599SOL    HW2 1797   2.489   1.430   2.750  1.3675 -1.1563  1.3105
  600SOL     OW 1798   0.518   1.210   0.122  0.1880 -0.3867  0.1837
  600SOL    HW1 1799   0.613   1.234   0.151 -0.9605 -1.9467  0.2240
  600SOL    HW2 1800   0.457   1.244   0.191 -2.7254  4.7066 -1.1892
  601SOL     OW 1801   0.609   0.882   0.986  0.2124 -0.7287 -0.0965
  601SOL    HW1 1802   0.568   0.788   1.009 -1.1162 -0.1136 -0.3012
  601SOL    HW2 1803   0.659   0.916   1.070  1.5024 -1.2373  1.6899
  602SOL     OW 1804   1.458   2.483   0.424 -0.6713  0.0836 -0.1819
  602SOL    HW1 1805   1.387   2.424   0.378 -1.6589 -2.3800  2.0805
  602SOL    HW2 1806   1.553   2.454   0.399  0.4144 -0.7567 -0.2944
  603SOL     OW 1807   0.830   2.585   2.026 -0.5742 -0.0188  0.2337
  603SOL    HW1 1808   0.812   2.667   2.084 -0.4048  1.0900 -0.2743
  603SOL    HW2 1809   0.775   2.509   2.067 -0.4740 -3.4534  0.9441
  604SOL     OW 1810   0.233   0.367   2.268  0.7366 -0.0735  0.2424
  604SOL    HW1 1811   0.189   0.280   2.243  1.4633 -0.2383  1.3425
  604SOL    HW2 1812   0.199   0.443   2.210  0.4642 -0.0380  1.0361
  605SOL     OW 1813   2.993   1.057   1.415  0.3764 -0.0995  0.3541
  605SOL    HW1 1814   0.004   1.064   1.434 -2.7143  2.9172 -1.0921
  605SOL    HW2 1815   2.938   1.083   1.498  0.4823 -2.6128  1.4319
  606SOL     OW 1816   0.924   1.681   2.684 -0.2953 -0.9026  0.3766
  606SOL    HW1 1817   0.834   1.728   2.679  2.1655  2.0189  1.7930
  606SOL    HW2 1818   0.938   1.628   2.595 -1.3522  1.7368 -0.9595
  607SOL     OW 1819   0.419   0.022   0.362 -0.1592 -0.1611 -0.0191
  607SOL    HW1 1820   0.434   0.037   0.460 -0.4479 -2.1549 -3.4977
  607SOL    HW2 1821   0.323   0.031   0.330 -0.6923  0.1212  0.6350
  608SOL     OW 1822   2.197   1.798   2.200  0.6121 -0.4679 -0.0190
  608SOL    HW1 1823   2.113   1.855   2.177  0.4805 -0.0473  2.1076
  608SOL    HW2 1824   2.222   1.806   2.297 -0.8294  2.5768 -2.4418
  609SOL     OW 1825   2.457   0.384   1.307 -0.4942  0.2278 -0.3173
  609SOL    HW1 1826   2.450   0.340   1.216  1.4661  0.3781  1.3104
  609SOL    HW2 1827   2.387   0.342   1.371 -0.5516  2.1440 -0.6748
  610SOL     OW 1828   0.303   2.731   0.583  0.4571 -0.1645 -0.8825
  610SOL    HW1 1829   0.354   2.775   0.511  0.9487 -3.5948  1.3314
  610SOL    HW2 1830   0.337   2.638   0.602  1.6714  0.6898 -2.7622
  611SOL     OW 1831   1.600   1.236   3.071  0.8350  0.0406 -0.8489
  611SOL    HW1 1832   1.669   1.189   0.037 -0.5716  3.2598 -1.7694
  611SOL    HW2 1833   1.529   1.268   0.048 -1.7711 -2.5296  0.9288
  612SOL     OW 1834   0.704   2.288   1.853 -0.2147  0.0577 -0.3166
  612SOL    HW1 1835   0.648   2.355   1.910  0.8922 -1.0305  0.4503
  612SOL    HW2 1836   0.762   2.334   1.785 -0.0320 -0.8767  1.0783
  613SOL     OW 1837   0.393   2.472   0.580 -0.1953 -0.5763  0.0494
  613SOL    HW1 1838   0.413   2.455   0.679  1.2460  1.5104 -2.8700
  613SOL    HW2 1839   0.459   2.431   0.514 -3.0898  0.6405 -2.1897
  614SOL     OW 1840   2.122   2.734   1.361 -0.0347 -0.1008 -0.3702
  614SOL    HW1 1841   2.209   2.723   1.416  0.4233 -0.5244  0.9783
  614SOL    HW2 1842   2.055   2.783   1.418  0.2979  0.9038 -1.6586
  615SOL     OW 1843   1.708   0.935   0.354 -0.3612 -0.0096 -0.4281
  615SOL    HW1 1844   1.640   0.991   0.403 -2.1749 -0.7176  0.7868
  615SOL    HW2 1845   1.809   0.974   0.348  3.3429  1.4117 -2.2733
  616SOL     OW 1846   1.896   0.585   0.287  0.5331 -0.4843 -0.2994
  616SOL    HW1 1847   1.927   0.629   0.203 -1.8666 -1.1745  0.9863
  616SOL    HW2 1848   1.858   0.491   0.264 -2.1280 -2.1083 -1.8924
  617SOL     OW 1849   0.980   0.767   2.858 -1.0455  0.8464  0.4383
  617SOL    HW1 1850   1.048   0.812   2.793  4.4789 -0.7920 -1.3791
  617SOL    HW2 1851   1.024   0.698   2.920 -3.7285  3.1834 -0.6238
  618SOL     OW 1852   0.766   2.862   2.074  0.3206  0.3166 -0.4193
  618SOL    HW1 1853   0.823   2.908   2.008 -2.0345  0.5355  1.5902
  618SOL    HW2 1854   0.675   2.847   2.036  2.7568  1.0043  1.0369
  619SOL     OW 1855   0.005   1.401   1.314 -0.1632 -0.0771 -0.2939
  619SOL    HW1 1856   0.021   1.424   1.214  1.4243  1.1645  0.2012
  619SOL    HW2 1857   2.996   1.408   1.344  0.1990  0.4116 -0.5162
  620SOL     OW 1858   0.058   0.765   2.889 -0.1446  0.0515  0.1003
  620SOL    HW1 1859   0.105   0.714   2.966 -1.7959  1.4431 -0.1324
  620SOL    HW2 1860   3.052   0.806   2.915 -0.3041  1.0203  0.2063
  621SOL     OW 1861   2.245   2.271   2.083  0.2962 -0.7491  0.3779
  621SOL    HW1 1862   2.318   2.202   2.061 -0.1169 -0.4002 -2.0932
  621SOL    HW2 1863   2.202   2.244   2.173 -0.4913  0.3105 -0.1054
  622SOL     OW 1864   1.004   0.376   2.201 -0.4230  0.4979  0.5070
  622SOL    HW1 1865   1.010   0.310   2.278  0.7695 -0.4052 -2.0775
  622SOL    HW2 1866   0.938   0.450   2.215 -1.6680 -0.4799  1.1015
  623SOL     OW 1867   1.044   0.917   2.184  0.0974  0.0644  0.1219
  623SOL    HW1 1868   0.984   0.935   2.107 -1.1330  0.2609 -2.3341
  623SOL    HW2 1869   0.993   0.905   2.272 -1.2821 -0.3945  0.0156
  624SOL     OW 1870   2.516   0.834   0.294 -0.6877  0.0575 -0.5071
  624SOL    HW1 1871   2.466   0.908   0.242 -4.8022  0.3410  0.0326
  624SOL    HW2 1872   2.490   0.843   0.391  1.0257 -2.5578  1.1991
  625SOL     OW 1873   1.160   1.297   0.765 -0.0531 -0.2279 -0.1827
  625SOL    HW1 1874   1.184   1.366   0.835 -0.4389 -4.1088 -1.4090
  625SOL    HW2 1875   1.119   1.209   0.798  3.3313  2.1176 -0.1586
  626SOL     OW 1876   1.938   0.966   2.763 -0.5213 -0.3522  0.5758
  626SOL    HW1 1877   1.907   0.961   2.664 -0.0112  0.2971 -3.3801
  626SOL    HW2 1878   2.017   1.029   2.766 -2.0468  0.2581 -1.8548
  627SOL     OW 1879   1.020   2.916   2.939 -0.3086  0.0601  0.0118
  627SOL    HW1 1880   1.083   2.965   2.877  0.6275  1.8596  1.7740
  627SOL    HW2 1881   0.957   2.984   2.978 -1.2478 -2.5440  0.2481
  628SOL     OW 1882   2.180   0.134   2.462 -0.1739 -0.5479 -0.5953
  628SOL    HW1 1883   2.264   0.164   2.512 -0.7011  0.2319 -0.2841
  628SOL    HW2 1884   2.097   0.158   2.519  0.5322  2.0771  0.6319
  629SOL     OW 1885   0.840   0.390   2.970 -0.0617  0.3467 -0.3290
  629SOL    HW1 1886   0.932   0.430   2.974 -3.0588  1.5685 -1.2785
  629SOL    HW2 1887   0.794   0.457   2.905 -2.8386 -0.7182  0.3430
  630SOL     OW 1888   0.881   0.330   2.629 -0.0211 -0.2930 -0.2752
  630SOL    HW1 1889   0.929   0.298   2.712 -0.6150  2.5770 -0.4651
  630SOL    HW2 1890   0.791   0.370   2.642  1.0135 -0.0581  0.1389
  631SOL     OW 1891   2.517   1.153   0.634 -0.0649 -1.0933 -0.5696
  631SOL    HW1 1892   2.423   1.198   0.640 -1.1588  1.1372  0.0892
  631SOL    HW2 1893   2.585   1.208   0.575 -0.8687  0.7989  1.3232
  632SOL     OW 1894   1.920   0.896   1.287 -0.3066 -0.1872  0.4791
  632SOL    HW1 1895   2.007   0.884   1.237  0.6170  0.1540 -0.6117
  632SOL    HW2 1896   1.913   0.859   1.382 -2.3174  0.5601  0.2371
  633SOL     OW 1897   1.088   1.505   0.293 -0.1246  0.2739  0.6249
  633SOL    HW1 1898   1.014   1.571   0.268 -0.1815  0.8336 -2.3981
  633SOL    HW2 1899   1.139   1.531   0.378  1.0952  1.4378  1.8455
  634SOL     OW 1900   2.201   3.021   1.488 -0.3149  0.1284  0.2750
  634SOL    HW1 1901   2.117   2.965   1.489  0.2347 -0.1504 -0.6358
  634SOL    HW2 1902   2.241   3.018   1.584  0.4727  1.9119  3.2317
  635SOL     OW 1903   1.727   0.335   1.037 -0.3918 -0.0047 -0.0913
  635SOL    HW1 1904   1.701   0.410   1.096  0.3329 -2.8103 -2.8671
  635SOL    HW2 1905   1.649   0.323   0.972  0.7492  1.1461  4.0505
  636SOL     OW 1906   0.853   1.192   0.454  0.3396  0.1694 -0.1710
  636SOL    HW1 1907   0.798   1.170   0.538 -0.2371  0.5380 -1.2377
  636SOL    HW2 1908   0.915   1.269   0.482 -0.7802  0.6610 -0.8738
  637SOL     OW 1909   2.823   1.989   2.870 -0.4882  0.1846  0.4857
  637SOL    HW1 1910   2.843   1.973   2.968 -1.4610  1.0618  2.2550
  637SOL    HW2 1911   2.829   2.090   2.844 -0.8578 -1.8072  0.2722
  638SOL     OW 1912   1.337   2.678   2.873  0.0345 -0.1054  0.4264
  638SOL    HW1 1913   1.306   2.685   2.778  2.2943  1.0951  2.7750
  638SOL    HW2 1914   1.395   2.592   2.878 -0.9098  1.3765  0.7770
  639SOL     OW 1915   1.417   1.512   1.133  0.2101 -0.0738  0.9220
  639SOL    HW1 1916   1.365   1.600   1.142 -2.9941 -0.5157 -2.1885
  639SOL    HW2 1917   1.512   1.518   1.174 -2.6465  1.8304 -1.5235
  640SOL     OW 1918   2.347   2.905   0.508 -0.3162  0.1428  0.8164
  640SOL    HW1 1919   2.244   2.899   0.511 -3.5342 -0.7946  1.5840
  640SOL    HW2 1920   2.374   2.809   0.514 -0.4188 -0.4261 -2.9234
  641SOL     OW 1921   3.021   2.988   2.971 -0.6753  0.4108 -0.3278
  641SOL    HW1 1922   3.005   3.047   3.053 -0.6138  0.2326 -1.5178
  641SOL    HW2 1923   2.998   2.891   3.000  2.0357  1.7744  1.2220
  642SOL     OW 1924   2.831   0.650   1.381 -0.0280  0.5500 -1.1142
  642SOL    HW1 1925   2.804   0.707   1.301 -0.9433 -2.3968  0.8940
  642SOL    HW2 1926   2.828   0.710   1.465  0.6305  2.4520  0.4784
  643SOL     OW 1927   1.112   1.802   2.064 -0.1471  0.3792  0.6861
  643SOL    HW1 1928   1.042   1.832   1.997  1.1594  1.8088 -1.2663
  643SOL    HW2 1929   1.197   1.858   2.050 -0.8374 -0.9719  1.1278
  644SOL     OW 1930   1.779   2.316   0.673 -0.4751  0.4764  0.0814
  644SOL    HW1 1931   1.807   2.288   0.768 -2.0376  0.0314 -0.8584
  644SOL    HW2 1932   1.814   2.405   0.648 -2.7597 -1.2380 -0.5958
  645SOL     OW 1933   1.925   1.915   0.956  0.6935  0.1431  0.7522
  645SOL    HW1 1934   1.985   1.857   0.897  0.2347  1.8660 -0.2047
  645SOL    HW2 1935   1.853   1.864   1.005 -1.7764 -0.4793  0.4555
  646SOL     OW 1936   0.971   2.477   0.049  0.5725 -0.6186  0.4403
  646SOL    HW1 1937   1.021   2.549   3.075  1.2331  1.8630 -2.2379
  646SOL    HW2 1938   1.018   2.389   0.066 -3.4539  0.5445 -0.8999
  647SOL     OW 1939   0.509   2.808   2.000  0.5051 -0.1524  0.1150
  647SOL    HW1 1940   0.445   2.880   2.030  0.2522 -0.1286  0.1943
  647SOL    HW2 1941   0.485   2.767   1.910  1.1799 -0.7894 -0.5463
  648SOL     OW 1942   1.640   0.542   1.180 -0.3008  0.5111  0.7661
  648SOL    HW1 1943   1.549   0.521   1.206 -2.8615  0.1257 -0.5058
  648SOL    HW2 1944   1.677   0.623   1.231  1.6531  0.7762 -1.2220
  649SOL     OW 1945   1.615   2.141   0.226  0.1801 -0.0617  0.3875
  649SOL    HW1 1946   1.624   2.215   0.295  1.2260  1.4076  0.8266
  649SOL    HW2 1947   1.664   2.167   0.141  0.1847  0.2030  1.4657
  650SOL     OW 1948   1.959   1.651   1.783 -0.2417  0.0396  0.3128
  650SOL    HW1 1949   1.956   1.602   1.871 -1.7364  2.2390 -5.6372
  650SOL    HW2 1950   1.925   1.593   1.707 -1.5439 -2.1065  1.4051
  651SOL     OW 1951   1.594   2.513   0.053 -0.4521  0.0045 -0.2147
  651SOL    HW1 1952   1.554   2.608   0.071 -0.6315  2.1682 -1.1135
  651SOL    HW2 1953   1.568   2.482   3.046 -2.7177  2.1197 -0.5159
  652SOL     OW 1954   0.453   2.346   0.159  0.1398  0.0507  0.0636
  652SOL    HW1 1955   0.404   2.360   0.069 -1.4384  1.6726  0.9491
  652SOL    HW2 1956   0.476   2.440   0.198 -3.6823 -1.5534  0.3870
  653SOL     OW 1957   2.401   2.206   1.343 -0.2296 -0.2040  0.7467
  653SOL    HW1 1958   2.405   2.250   1.250 -2.7950  0.4722  1.1440
  653SOL    HW2 1959   2.307   2.205   1.383  0.7311  2.9850  0.6475
  654SOL     OW 1960   2.803   2.623   1.332  0.0726  0.0353 -0.3191
  654SOL    HW1 1961   2.735   2.696   1.322  0.8268  0.0027 -0.9207
  654SOL    HW2 1962   2.793   2.544   1.270  0.7260 -3.0046  0.2359
  655SOL     OW 1963   0.084   2.091   1.324 -0.4036 -0.1177 -0.2165
  655SOL    HW1 1964   0.089   2.068   1.426  3.1093  0.6728  2.6839
  655SOL    HW2 1965   0.172   2.073   1.277 -0.1565  1.3437 -0.3367
  656SOL     OW 1966   2.851   2.632   2.265  0.4697  0.1706  0.0163
  656SOL    HW1 1967   2.782   2.694   2.221 -2.4474  1.0038  2.0527
  656SOL    HW2 1968   2.923   2.684   2.313 -0.1294 -3.6467 -0.3847
  657SOL     OW 1969   3.008   1.118   0.019  0.1026  0.4181 -1.0339
  657SOL    HW1 1970   2.960   1.040   3.059 -0.3352 -2.1317 -1.0298
  657SOL    HW2 1971   2.932   1.184   0.042  0.5767 -3.3878 -1.7754
  658SOL     OW 1972   1.809   1.725   0.677 -0.2407 -0.2520  0.3364
  658SOL    HW1 1973   1.902   1.739   0.710 -1.6469 -0.2280  1.2114
  658SOL    HW2 1974   1.735   1.717   0.746 -0.6934 -0.1525 -0.0823
  659SOL     OW 1975   1.409   0.480   1.274  0.2956  0.3873  0.1545
  659SOL    HW1 1976   1.343   0.540   1.232  0.7220  1.0519 -0.9918
  659SOL    HW2 1977   1.358   0.397   1.310  0.8295 -1.6863 -1.9561
  660SOL     OW 1978   1.651   1.477   2.975  0.3681  0.8052  0.8749
  660SOL    HW1 1979   1.644   1.377   2.988  2.3572  0.8966  1.1530
  660SOL    HW2 1980   1.676   1.491   2.879 -1.8705  1.6121 -0.0881
  661SOL     OW 1981   0.149   2.243   0.182 -0.2300  0.1883 -0.1751
  661SOL    HW1 1982   0.211   2.204   0.253 -2.4575 -1.7687 -0.4511
  661SOL    HW2 1983   0.116   2.331   0.211  1.7635 -1.9557  1.0509
  662SOL     OW 1984   0.322   0.918   2.185 -0.0574 -0.3377 -0.1181
  662SOL    HW1 1985   0.234   0.865   2.179 -0.3981  1.4239 -0.8373
  662SOL    HW2 1986   0.320   1.009   2.140  1.4737  1.0382  0.4440
  663SOL     OW 1987   1.879   1.324   0.775  0.3623 -0.2717 -0.0456
  663SOL    HW1 1988   1.935   1.241   0.778 -2.2648  2.6646 -2.6953
  663SOL    HW2 1989   1.921   1.397   0.829  0.7967 -0.4441 -0.3626
  664SOL     OW 1990   0.857   0.589   1.097 -0.4952 -0.1057  0.0651
  664SOL    HW1 1991   0.894   0.684   1.108  1.1698  1.4297  0.5452
  664SOL    HW2 1992   0.759   0.589   1.072  0.5677  1.0593  0.7180
  665SOL     OW 1993   1.100   3.000   0.241  0.1313 -0.4486 -0.0066
  665SOL    HW1 1994   1.131   0.014   0.240 -0.2935  2.0666  0.4665
  665SOL    HW2 1995   1.119   2.959   0.154 -0.9782  1.8871  1.2043
  666SOL     OW 1996   2.975   0.186   2.609  0.2091 -0.1488  0.6621
  666SOL    HW1 1997   3.064   0.223   2.641 -1.2142 -0.6545 -0.0470
  666SOL    HW2 1998   2.930   0.268   2.563 -0.5638 -1.1239 -0.6973
  667SOL     OW 1999   2.370   1.900   1.987  0.0759 -0.3849 -0.6569
  667SOL    HW1 2000   2.426   1.972   2.033  0.5631  3.5567 -1.1516
  667SOL    HW2 2001   2.297   1.860   2.048 -0.4268  1.0311 -1.7491
  668SOL     OW 2002   0.540   1.351   2.612 -0.6286  0.3345  0.3187
  668SOL    HW1 2003   0.624   1.379   2.670  1.6675 -0.8576  1.7924
  668SOL    HW2 2004   0.567   1.306   2.527 -1.0414  1.2359  2.1476
  669SOL     OW 2005   2.313   2.529   2.648 -0.5149  0.0480 -0.3030
  669SOL    HW1 2006   2.248   2.501   2.573  0.0613 -0.9649  0.3849
  669SOL    HW2 2007   2.317   2.455   2.723 -1.2460 -0.7732  2.3778
  670SOL     OW 2008   2.274   1.139   2.474 -0.0946  0.0886  0.4015
  670SOL    HW1 2009   2.367   1.095   2.477 -0.0929 -0.6746  0.4765
  670SOL    HW2 2010   2.269   1.223   2.530  0.0345 -3.3983 -0.3386
  671SOL     OW 2011   2.591   1.391   3.035  0.1631  0.3687  0.2017
  671SOL    HW1 2012   2.585   1.291   3.009 -0.0815 -1.7098 -0.9477
  671SOL    HW2 2013   2.681   1.410   3.080  1.6443 -2.6460  0.0182
  672SOL     OW 2014   2.518   1.306   2.144  0.4361 -0.2218  0.8642
  672SOL    HW1 2015   2.454   1.354   2.213  0.2912  1.1654  1.3101
  672SOL    HW2 2016   2.453   1.280   2.077  0.0216  1.8593  2.9434
  673SOL     OW 2017   2.558   0.820   1.430 -0.4224  0.2204 -0.0748
  673SOL    HW1 2018   2.621   0.879   1.376 -2.1277 -1.5898 -0.5101
  673SOL    HW2 2019   2.600   0.781   1.515  0.3411  0.8563  3.1978
  674SOL     OW 2020   1.905   1.938   1.860 -0.2715  0.1179 -0.4613
  674SOL    HW1 2021   1.937   1.853   1.811 -0.0496 -3.0691 -2.6494
  674SOL    HW2 2022   1.818   1.972   1.814 -1.3455 -1.1587 -1.6829
  675SOL     OW 2023   0.344   0.741   0.831 -0.9922  0.0949  0.0456
  675SOL    HW1 2024   0.298   0.814   0.777  1.2785  1.7863 -1.3133
  675SOL    HW2 2025   0.441   0.719   0.795  1.7503 -0.8395  1.4737
  676SOL     OW 2026   2.024   1.153   1.029 -0.2342  0.2942 -0.7557
  676SOL    HW1 2027   1.990   1.222   1.094  0.7970  0.5233  0.0490
  676SOL    HW2 2028   2.077   1.078   1.074  1.5374  2.5003  0.3555
  677SOL     OW 2029   2.254   1.571   2.067  0.4626  0.3978  0.0708
  677SOL    HW1 2030   2.324   1.564   1.993 -0.6728  0.5724  1.4149
  677SOL    HW2 2031   2.231   1.664   2.098 -0.9153 -0.0145 -1.1905
  678SOL     OW 2032   0.037   1.814   0.724 -0.4688 -0.6900 -0.0664
  678SOL    HW1 2033   0.046   1.869   0.808 -1.8529  0.4051  0.6526
  678SOL    HW2 2034   3.026   1.814   0.687 -1.2595  0.3057 -0.4221
  679SOL     OW 2035   2.912   2.671   0.432 -0.4244  0.1596 -0.1548
  679SOL    HW1 2036   2.941   2.769   0.438  1.8600 -0.9832  1.1657
  679SOL    HW2 2037   2.815   2.667   0.440  0.7933  3.9556  0.3710
  680SOL     OW 2038   0.199   2.523   1.248  0.2430 -0.6436  0.4195
  680SOL    HW1 2039   0.227   2.473   1.333 -3.4925  0.6356 -1.6428
  680SOL    HW2 2040   0.144   2.459   1.188 -0.9785 -0.2238 -1.1392
  681SOL     OW 2041   0.618   1.134   1.393  0.5080 -0.1253 -0.4708
  681SOL    HW1 2042   0.680   1.213   1.367 -2.4997  0.7017  1.4304
  681SOL    HW2 2043   0.558   1.154   1.474  1.5931  1.0763 -1.1837
  682SOL     OW 2044   1.693   2.677   1.049  0.1042  0.1994 -0.1019
  682SOL    HW1 2045   1.782   2.636   1.025  0.7260 -0.9729 -0.3726
  682SOL    HW2 2046   1.704   2.780   1.052  2.5440  2.2406  1.0781
  683SOL     OW 2047   2.401   1.267   0.975 -0.4795  0.0748  0.4416
  683SOL    HW1 2048   2.467   1.318   0.914 -1.1068 -0.7997  0.8978
  683SOL    HW2 2049   2.452   1.189   1.021  1.8040 -1.1163 -0.8646
  684SOL     OW 2050   0.802   2.096   2.027  0.8676 -0.5007 -0.5533
  684SOL    HW1 2051   0.779   2.181   1.975 -2.3573  0.3968 -0.2544
  684SOL    HW2 2052   0.820   2.122   2.123  1.2868  1.2388  0.1138
  685SOL     OW 2053   2.347   1.579   0.152  0.5573 -0.0706 -0.6256
  685SOL    HW1 2054   2.387   1.613   0.065 -3.2480  0.0369  4.1847
  685SOL    HW2 2055   2.253   1.622   0.159 -2.2202 -0.3999 -0.3908
  686SOL     OW 2056   3.012   0.789   0.302 -0.3535 -0.2283  0.2506
  686SOL    HW1 2057   3.069   0.869   0.293 -0.6168 -1.3124  1.4015
  686SOL    HW2 2058   2.919   0.815   0.326  2.1320  1.2473  1.3595
  687SOL     OW 2059   1.014   2.839   0.458 -0.0354  1.1075  0.2308
  687SOL    HW1 2060   1.060   2.775   0.522  0.3469 -1.6130 -0.6145
  687SOL    HW2 2061   1.076   2.894   0.399 -0.8397  2.8033 -2.8599
  688SOL     OW 2062   1.819   1.746   2.188 -0.1731  0.1421 -0.2161
  688SOL    HW1 2063   1.753   1.718   2.112  3.2383  0.3226  1.1146
  688SOL    HW2 2064   1.867   1.836   2.165  1.3073  1.6959  0.0149
  689SOL     OW 2065   2.659   1.072   2.067  0.6276  0.4279 -0.1345
  689SOL    HW1 2066   2.586   1.141   2.083 -1.6550  1.2178  0.3848
  689SOL    HW2 2067   2.752   1.097   2.105  1.2406 -0.4437  1.0256
  690SOL     OW 2068   1.713   0.588   0.793 -0.8812  0.5160  0.7182
  690SOL    HW1 2069   1.613   0.598   0.800  3.6343  1.5917  1.3731
  690SOL    HW2 2070   1.745   0.629   0.702  1.5977 -3.4357 -3.7251
  691SOL     OW 2071   1.102   1.541   1.511  0.1672 -0.1763  0.0611
  691SOL    HW1 2072   1.087   1.520   1.610  1.6366 -1.4719  0.1617
  691SOL    HW2 2073   1.100   1.463   1.446 -0.3318 -2.7100  0.0785
  692SOL     OW 2074   1.660   0.284   1.968  0.4937  0.1756 -0.5553
  692SOL    HW1 2075   1.682   0.378   1.950 -0.0738  1.2476  0.9190
  692SOL    HW2 2076   1.720   0.249   2.043  3.8349  0.2596  0.0839
  693SOL     OW 2077   0.390   1.155   2.976 -1.0113  0.4558  0.2035
  693SOL    HW1 2078   0.437   1.169   3.064 -0.4021  0.5831 -0.2126
  693SOL    HW2 2079   0.428   1.067   2.935 -0.0145 -3.1330 -1.9273
  694SOL     OW 2080   2.231   2.567   0.759 -0.3495  0.7178  0.3002
  694SOL    HW1 2081   2.169   2.640   0.794  0.6466  2.4234 -0.2997
  694SOL    HW2 2082   2.194   2.478   0.782  1.1290 -0.9189 -0.6022
  695SOL     OW 2083   1.762   1.252   2.450  0.9554  1.0310 -0.8931
  695SOL    HW1 2084   1.798   1.329   2.504  1.4248 -0.4362 -2.3022
  695SOL    HW2 2085   1.817   1.167   2.466 -2.6101  0.0633  0.5813
  696SOL     OW 2086   1.227   0.278   1.345  0.2759  0.4151  0.5665
  696SOL    HW1 2087   1.138   0.326   1.365 -0.1913  1.8508 -1.0973
  696SOL    HW2 2088   1.218   0.180   1.364  1.3793 -0.1123  3.1108
  697SOL     OW 2089   1.397   0.287   2.027  0.3218  0.0410  0.3555
  697SOL    HW1 2090   1.366   0.380   2.067  0.0309 -0.1077  0.0156
  697SOL    HW2 2091   1.500   0.278   2.025  3.0157  1.1000 -0.3316
  698SOL     OW 2092   1.902   1.307   2.226  0.1100 -0.3917  0.0930
  698SOL    HW1 2093   1.896   1.223   2.171 -0.5751 -0.4642  0.5586
  698SOL    HW2 2094   1.846   1.296   2.314 -0.0979  0.8374 -0.3348
  699SOL     OW 2095   1.515   1.078   1.202  0.2382 -0.6719  0.5042
  699SOL    HW1 2096   1.574   0.998   1.197  2.1048  0.2039 -1.1186
  699SOL    HW2 2097   1.511   1.119   1.111 -0.2821 -3.2561  0.4684
  700SOL     OW 2098   1.658   0.094   0.209  0.5690 -0.2899  0.4589
  700SOL    HW1 2099   1.724   0.140   0.266 -0.3270 -1.4514  2.1095
  700SOL    HW2 2100   1.603   0.023   0.258  2.0172  1.3792  0.5371
  701SOL     OW 2101   0.341   2.800   1.683  0.2116 -0.9367  0.4235
  701SOL    HW1 2102   0.432   2.751   1.675  0.5900 -3.3889 -0.3485
  701SOL    HW2 2103   0.269   2.736   1.648  0.5992 -1.5918 -1.4539
  702SOL     OW 2104   1.379   2.626   1.089 -0.8398 -0.2131 -0.1062
  702SOL    HW1 2105   1.455   2.654   1.033  1.1722  0.1619 -1.4466
  702SOL    HW2 2106   1.301   2.689   1.069 -1.1613  0.4100 -0.0210
  703SOL     OW 2107   2.327   0.073   2.004  0.3536 -0.0893 -0.3651
  703SOL    HW1 2108   2.227   0.082   2.007  0.7659  3.3256 -0.9676
  703SOL    HW2 2109   2.378   0.159   1.980  1.3622 -0.2347 -0.9864
  704SOL     OW 2110   1.237   1.773   1.149 -0.0643  0.0929  0.2327
  704SOL    HW1 2111   1.192   1.754   1.058  1.4707  1.6316 -0.3795
  704SOL    HW2 2112   1.202   1.854   1.197  0.1782 -2.3511 -0.4963
  705SOL     OW 2113   2.862   1.492   1.933  0.3356  0.8264 -0.3671
  705SOL    HW1 2114   2.811   1.583   1.935  0.1503  2.9016 -0.6931
  705SOL    HW2 2115   2.834   1.442   2.018 -2.2314  2.5822  0.6712
  706SOL     OW 2116   1.355   2.925   0.714 -0.0102 -0.1667 -0.2112
  706SOL    HW1 2117   1.367   2.839   0.664 -1.8178 -0.5248  0.8721
  706SOL    HW2 2118   1.431   2.989   0.694  0.0420  0.8945  1.5649
  707SOL     OW 2119   1.030   2.533   2.626  0.6946  0.4759  0.3792
  707SOL    HW1 2120   0.996   2.512   2.533  1.7361  2.4024 -1.6991
  707SOL    HW2 2121   1.059   2.452   2.675  0.3516  3.0731  1.8940
  708SOL     OW 2122   0.270   2.384   1.472  0.6575  0.0076  0.4991
  708SOL    HW1 2123   0.247   2.304   1.531 -3.2497 -2.2881  0.0078
  708SOL    HW2 2124   0.337   2.359   1.403  0.9082  1.1059  1.4840
  709SOL     OW 2125   2.103   0.771   1.893 -0.2004  0.1674  0.3185
  709SOL    HW1 2126   2.014   0.814   1.912 -2.3016 -2.3612  1.4144
  709SOL    HW2 2127   2.091   0.673   1.884 -0.1226  3.5206  1.6373
  710SOL     OW 2128   2.893   0.371   1.552 -0.2734  0.5554  0.0665
  710SOL    HW1 2129   2.898   0.463   1.507  4.0373  1.9368 -1.8143
  710SOL    HW2 2130   2.984   0.330   1.541 -2.4896  0.9048  1.2550
  711SOL     OW 2131   3.083   2.479   0.330  0.3458 -0.0873  0.1295
  711SOL    HW1 2132   0.060   2.441   0.400 -1.1472 -0.6498  0.7388
  711SOL    HW2 2133   3.009   2.535   0.367  3.0416 -2.2381 -3.7455
  712SOL     OW 2134   0.253   2.471   2.624  0.1662 -0.2515  0.0939
  712SOL    HW1 2135   0.333   2.535   2.615  0.1137 -0.7540 -1.8830
  712SOL    HW2 2136   0.171   2.527   2.647 -1.2975 -1.1349 -0.4524
  713SOL     OW 2137   1.919   0.818   0.090  0.0657  0.5432  0.1601
  713SOL    HW1 2138   1.878   0.898   0.128  0.6481 -0.1782 -1.8415
  713SOL    HW2 2139   1.870   0.788   0.007 -1.0280 -0.7861  0.4271
  714SOL     OW 2140   1.451   2.043   0.516 -0.1775  0.2553  0.0240
  714SOL    HW1 2141   1.525   1.977   0.486  1.2274  0.3992 -2.3771
  714SOL    HW2 2142   1.490   2.117   0.570 -2.3124 -0.1123 -0.3386
  715SOL     OW 2143   3.041   0.261   0.506  0.0308 -0.1424 -0.2005
  715SOL    HW1 2144   2.951   0.218   0.504 -0.0384 -0.4939  0.9325
  715SOL    HW2 2145   0.023   0.188   0.510  0.2280  1.2674  1.0912
  716SOL     OW 2146   0.672   0.107   2.280  0.2113 -0.0081  0.9217
  716SOL    HW1 2147   0.608   0.183   2.272  1.3453 -0.6391  1.2755
  716SOL    HW2 2148   0.622   0.020   2.264 -1.5545  0.3617 -0.2451
  717SOL     OW 2149   0.008   0.453   3.012 -0.2197 -0.0219 -0.1761
  717SOL    HW1 2150   0.075   0.415   2.944 -0.2929  0.6300 -2.6504
  717SOL    HW2 2151   3.007   0.461   2.959 -2.8264 -1.1167  2.9798
  718SOL     OW 2152   1.116   0.462   0.445 -0.1763 -0.5107 -0.1617
  718SOL    HW1 2153   1.128   0.534   0.517  0.3568 -2.1443 -3.1126
  718SOL    HW2 2154   1.154   0.376   0.474  0.5967  2.3024 -2.1925
  719SOL     OW 2155   2.694   2.269   2.790  0.2085 -0.0062 -0.9892
  719SOL    HW1 2156   2.654   2.360   2.762 -0.5717 -0.5053  2.6026
  719SOL    HW2 2157   2.621   2.197   2.788  0.3730 -0.7525 -0.4724
  720SOL     OW 2158   1.711   0.814   1.769  0.4237  0.0393 -0.9212
  720SOL    HW1 2159   1.748   0.795   1.864  1.5442 -1.5938  1.8541
  720SOL    HW2 2160   1.606   0.816   1.773 -1.3987 -0.7059 -1.6529
  721SOL     OW 2161   2.711   0.441   0.926 -0.4003 -0.9389 -0.0972
  721SOL    HW1 2162   2.619   0.427   0.962  2.6846  0.3767  0.4351
  721SOL    HW2 2163   2.737   0.392   0.842 -0.4981 -2.3848  0.2483
  722SOL     OW 2164   1.316   2.182   2.525 -0.0549 -0.5950 -0.2183
  722SOL    HW1 2165   1.373   2.236   2.459 -0.3967  0.3676  0.3032
  722SOL    HW2 2166   1.375   2.124   2.580  0.7403  2.7210  0.4277
  723SOL     OW 2167   0.852   0.247   0.918 -0.4189 -0.3874  0.4222
  723SOL    HW1 2168   0.889   0.311   0.846  3.2813  0.9527  1.4004
  723SOL    HW2 2169   0.905   0.264   1.002  0.0918 -1.3901 -1.4143
  724SOL     OW 2170   0.885   2.020   2.440 -0.2529 -0.5385  0.2007
  724SOL    HW1 2171   0.821   1.990   2.514  0.0331 -0.1550 -0.8530
  724SOL    HW2 2172   0.943   1.944   2.414 -2.7172 -0.7880 -0.6155
  725SOL     OW 2173   0.280   0.790   1.126  0.2145 -0.2776  0.4717
  725SOL    HW1 2174   0.330   0.876   1.144 -0.4180  1.5443 -3.5412
  725SOL    HW2 2175   0.288   0.757   1.028 -1.1798  1.7731 -1.7084
  726SOL     OW 2176   1.767   0.147   0.645 -0.1310 -0.2624  0.1803
  726SOL    HW1 2177   1.698   0.216   0.679  0.6131  0.4922 -0.1020
  726SOL    HW2 2178   1.845   0.128   0.712  1.4213 -0.4694 -2.8962
  727SOL     OW 2179   1.931   1.106   2.013 -0.8280 -0.6545  0.6815
  727SOL    HW1 2180   1.946   1.201   1.972  0.0611 -1.0038 -0.0286
  727SOL    HW2 2181   1.995   1.084   2.087  0.5917  1.4501 -1.6218
  728SOL     OW 2182   1.761   2.674   1.630  0.2763  0.0741 -0.2588
  728SOL    HW1 2183   1.792   2.697   1.722 -0.4763 -1.2126  0.0846
  728SOL    HW2 2184   1.779   2.578   1.599 -2.6897 -0.9749 -1.8656
  729SOL     OW 2185   1.362   0.275   1.660  0.1051  0.1670 -0.6465
  729SOL    HW1 2186   1.317   0.263   1.567  0.2160 -0.7043 -2.4654
  729SOL    HW2 2187   1.465   0.283   1.653 -0.4247  0.1808 -0.7543
  730SOL     OW 2188   0.898   1.712   1.441  0.5180  0.3439  0.4221
  730SOL    HW1 2189   0.919   1.797   1.390  2.9360  3.7067  0.4759
  730SOL    HW2 2190   0.982   1.653   1.460  1.1324  1.8727  0.4300
  731SOL     OW 2191   0.398   0.200   0.097 -0.5289  0.4245  0.2401
  731SOL    HW1 2192   0.331   0.212   0.172 -1.5313  1.0005  0.1615
  731SOL    HW2 2193   0.405   0.102   0.075  2.2094 -0.2450 -1.7985
  732SOL     OW 2194   0.301   0.840   0.381 -0.0647 -0.2448 -0.0354
  732SOL    HW1 2195   0.244   0.756   0.398 -0.3282 -2.2589  1.4478
  732SOL    HW2 2196   0.297   0.869   0.283  0.3163 -0.3218  2.9397
  733SOL     OW 2197   1.493   1.566   1.774 -0.2633 -0.3842  0.1231
  733SOL    HW1 2198   1.541   1.561   1.863  1.9647 -2.5170 -1.0870
  733SOL    HW2 2199   1.484   1.477   1.729 -2.4639 -0.4035 -1.9437
  734SOL     OW 2200   3.022   2.432   2.189 -0.6455  0.4452  0.7263
  734SOL    HW1 2201   3.033   2.443   2.088  1.8212  0.0039 -2.9891
  734SOL    HW2 2202   2.950   2.496   2.223 -4.5764 -0.6658  2.3158
  735SOL     OW 2203   1.004   2.730   0.955  0.0027  0.5335 -0.0857
  735SOL    HW1 2204   1.019   2.632   0.981 -0.8960 -1.2523  1.6655
  735SOL    HW2 2205   1.076   2.789   0.991  1.6676 -1.4632 -1.9210
  736SOL     OW 2206   1.176   0.935   2.703  0.1916 -0.0011  0.2777
  736SOL    HW1 2207   1.225   0.847   2.713 -0.9181  0.3556  0.2043
  736SOL    HW2 2208   1.234   1.013   2.674 -1.4908 -0.5702 -1.8623
  737SOL     OW 2209   0.086   1.026   0.253 -0.0368  0.2887 -0.5763
  737SOL    HW1 2210   0.141   0.966   0.191  2.8962 -0.4849  0.3136
  737SOL    HW2 2211   0.029   1.078   0.190  0.5831 -1.4397  0.8807
  738SOL     OW 2212   0.131   2.634   1.632  0.0453  0.1474 -0.5688
  738SOL    HW1 2213   0.108   2.542   1.608  1.1353  1.5063  2.3034
  738SOL    HW2 2214   0.098   2.694   1.558 -0.2560  1.5059 -1.3998
  739SOL     OW 2215   1.353   2.752   0.341 -0.2849  0.1508  0.2640
  739SOL    HW1 2216   1.400   2.697   0.411  1.9487 -2.3338 -1.7195
  739SOL    HW2 2217   1.256   2.729   0.341  3.2044 -1.5168  0.3173
  740SOL     OW 2218   1.679   2.761   1.367 -0.0145  0.4355  0.0617
  740SOL    HW1 2219   1.589   2.806   1.354  1.7428 -1.8489  1.0682
  740SOL    HW2 2220   1.704   2.725   1.459 -1.8412 -0.0658  1.8083
  741SOL     OW 2221   2.175   0.540   0.727 -0.3881  0.8096  0.3356
  741SOL    HW1 2222   2.211   0.585   0.809 -2.7443  2.5295 -0.5409
  741SOL    HW2 2223   2.224   0.456   0.696  0.0221 -2.2668 -1.5064
  742SOL     OW 2224   1.106   2.554   2.058  0.2120  0.4266 -0.3423
  742SOL    HW1 2225   1.006   2.560   2.053 -2.6013 -0.0251  0.3816
  742SOL    HW2 2226   1.126   2.464   2.092  2.0641  0.4099  0.5079
  743SOL     OW 2227   2.304   0.923   1.813 -0.0037 -0.1371  0.3078
  743SOL    HW1 2228   2.325   0.937   1.714 -2.2209 -0.6446  1.0324
  743SOL    HW2 2229   2.218   0.867   1.825 -0.7209 -2.0121  1.6411
  744SOL     OW 2230   2.279   0.599   0.965 -0.1060 -0.3622 -0.5284
  744SOL    HW1 2231   2.338   0.678   0.976 -0.1380 -0.8115 -1.8904
  744SOL    HW2 2232   2.214   0.588   1.039  2.2832 -0.1411  1.5664
  745SOL     OW 2233   2.116   1.295   1.657  0.5693  0.2169  0.3437
  745SOL    HW1 2234   2.203   1.280   1.704 -1.3643  0.9916 -2.0294
  745SOL    HW2 2235   2.079   1.210   1.617 -3.5109 -0.5196  0.1367
  746SOL     OW 2236   1.372   1.412   0.639 -0.0219 -0.0032 -0.5622
  746SOL    HW1 2237   1.453   1.367   0.687 -1.5589 -2.2060  1.3235
  746SOL    HW2 2238   1.291   1.369   0.680  4.0026  0.1467 -0.3746
  747SOL     OW 2239   2.223   1.392   1.128 -0.3711  0.3031 -0.4280
  747SOL    HW1 2240   2.159   1.344   1.195 -0.4228  0.5392  0.1936
  747SOL    HW2 2241   2.267   1.333   1.063  1.3229  0.6550  0.4113
  748SOL     OW 2242   3.061   2.942   0.338  0.2832 -0.0230 -0.3540
  748SOL    HW1 2243   0.015   2.917   0.427  0.9579 -1.4431 -0.1560
  748SOL    HW2 2244   0.040   2.915   0.263 -0.5278  0.3629  2.1271
  749SOL     OW 2245   0.154   0.561   2.092  0.0584 -0.2364 -0.4984
  749SOL    HW1 2246   0.116   0.650   2.114  0.6974 -3.9186 -0.4476
  749SOL    HW2 2247   0.112   0.522   2.003  2.1453 -3.1435  0.6420
  750SOL     OW 2248   1.740   2.726   1.933  0.2354  0.3716 -0.5632
  750SOL    HW1 2249   1.718   2.782   2.013  0.7960  0.2563  0.2648
  750SOL    HW2 2250   1.830   2.753   1.894 -1.2800 -0.5375  1.0065
  751SOL     OW 2251   2.549   0.444   0.338  0.0003 -0.3154  0.5406
  751SOL    HW1 2252   2.456   0.438   0.292 -5.2940  1.9285 -2.2810
  751SOL    HW2 2253   2.533   0.452   0.438  2.9541  0.7443 -1.6564
  752SOL     OW 2254   0.272   2.096   0.836  0.1784  0.0951  0.5180
  752SOL    HW1 2255   0.201   2.035   0.868  0.3131 -1.3164 -1.1513
  752SOL    HW2 2256   0.327   2.139   0.913 -0.9408  2.0449  1.3289
  753SOL     OW 2257   0.884   0.207   1.246  0.2656  0.2671  0.3952
  753SOL    HW1 2258   0.784   0.202   1.248  1.8283  0.5637 -0.3730
  753SOL    HW2 2259   0.925   0.115   1.270 -0.9168 -0.6324 -0.9583
  754SOL     OW 2260   0.787   2.798   2.349  0.0124  0.6071  0.3580
  754SOL    HW1 2261   0.765   2.843   2.264  2.5200 -0.5144 -0.3736
  754SOL    HW2 2262   0.879   2.752   2.342  1.7123 -0.6773 -0.2312
  755SOL     OW 2263   2.166   1.060   0.288 -0.0381  0.3519 -0.1636
  755SOL    HW1 2264   2.182   1.004   0.378  0.8690 -2.4138 -0.2551
  755SOL    HW2 2265   2.227   1.024   0.215 -0.6845  1.3661  0.8727
  756SOL     OW 2266   2.319   2.112   2.510  0.0372  0.2386 -0.4187
  756SOL    HW1 2267   2.372   2.084   2.592 -3.1954 -1.4675 -0.0349
  756SOL    HW2 2268   2.374   2.170   2.452 -1.2388 -1.8746  1.8601
  757SOL     OW 2269   1.496   0.215   0.852 -0.0824  0.1090  0.1906
  757SOL    HW1 2270   1.422   0.245   0.914  1.8758  0.9606 -2.7251
  757SOL    HW2 2271   1.534   0.130   0.897  0.4864  0.6261 -0.1232
  758SOL     OW 2272   1.527   2.509   0.837  0.4575 -0.2769  0.3138
  758SOL    HW1 2273   1.574   2.511   0.929  2.0945  0.6893 -0.0520
  758SOL    HW2 2274   1.543   2.423   0.785 -0.0517 -1.0348  0.3407
  759SOL     OW 2275   2.387   0.692   1.259 -0.3095 -0.6285  0.6941
  759SOL    HW1 2276   2.385   0.596   1.301  0.7876 -0.3194  4.3323
  759SOL    HW2 2277   2.469   0.746   1.294 -1.2342 -2.8528 -0.3822
  760SOL     OW 2278   2.505   1.016   1.068 -0.0340  0.5121  0.0702
  760SOL    HW1 2279   2.530   1.038   1.162  0.1531 -2.1180  2.6381
  760SOL    HW2 2280   2.523   0.917   1.049 -1.0068  0.4998  0.1598
  761SOL     OW 2281   0.383   0.446   0.573 -0.0297 -0.3115  0.7022
  761SOL    HW1 2282   0.420   0.398   0.490 -0.5339 -1.2256 -2.7861
  761SOL    HW2 2283   0.286   0.472   0.564 -0.9614  2.5476  0.4503
  762SOL     OW 2284   1.798   1.875   1.473  0.1203  0.1334 -0.2295
  762SOL    HW1 2285   1.891   1.880   1.432 -1.9012 -0.0647 -1.7987
  762SOL    HW2 2286   1.775   1.777   1.496 -0.6561 -0.2576 -0.3934
  763SOL     OW 2287   1.219   1.284   1.836  0.6142 -0.1222  0.4939
  763SOL    HW1 2288   1.138   1.239   1.874  2.5133  1.1518  1.1418
  763SOL    HW2 2289   1.193   1.379   1.809 -3.5310 -0.4039  1.0357
  764SOL     OW 2290   3.010   1.752   2.311  0.1538  0.2155 -0.2006
  764SOL    HW1 2291   3.009   1.765   2.208  0.6300 -0.3483  2.2683
  764SOL    HW2 2292   0.012   1.715   2.343 -1.7356 -1.0730 -2.1839
  765SOL     OW 2293   1.444   2.536   1.492 -0.2022  0.3539 -0.2445
  765SOL    HW1 2294   1.520   2.502   1.427  1.3379  1.0701 -1.6154
  765SOL    HW2 2295   1.384   2.606   1.446  0.7864  0.0943 -2.2762
  766SOL     OW 2296   3.074   2.571   2.705 -0.2161 -0.5904 -0.0460
  766SOL    HW1 2297   3.032   2.643   2.645  2.8944 -1.7178 -0.3473
  766SOL    HW2 2298   3.024   2.487   2.698  1.4789  1.6491  0.8021
  767SOL     OW 2299   1.299   0.886   2.424 -0.3274  0.2068 -0.2832
  767SOL    HW1 2300   1.397   0.865   2.438 -1.5698  2.5892 -1.2923
  767SOL    HW2 2301   1.273   0.966   2.482 -1.2231  0.1803 -0.5898
  768SOL     OW 2302   1.318   2.073   0.169 -0.0963  0.4894  0.2844
  768SOL    HW1 2303   1.415   2.101   0.186 -0.8615 -0.1144 -1.4039
  768SOL    HW2 2304   1.306   1.972   0.150  0.2167 -1.5824  0.6472
  769SOL     OW 2305   0.389   2.596   1.069 -0.3286 -0.3448  0.0697
  769SOL    HW1 2306   0.308   2.565   1.122 -0.1368  1.2468 -1.3361
  769SOL    HW2 2307   0.362   2.689   1.030  1.4635  1.0525 -1.5125
  770SOL     OW 2308   1.477   0.992   2.912 -0.1297  0.3617  0.3234
  770SOL    HW1 2309   1.579   1.006   2.925 -1.9124  0.1052 -1.2062
  770SOL    HW2 2310   1.442   1.025   2.822  0.3437  1.6702 -0.1066
  771SOL     OW 2311   0.238   3.023   2.208 -0.4108  0.1039 -0.3098
  771SOL    HW1 2312   0.278   3.079   2.281  2.9205 -0.0674 -0.3648
  771SOL    HW2 2313   0.306   3.019   2.131  2.4757 -0.3184  0.0202
  772SOL     OW 2314   2.183   2.971   2.315  0.5922  0.1325  0.3731
  772SOL    HW1 2315   2.277   2.960   2.280 -2.9806 -0.3851 -0.3705
  772SOL    HW2 2316   2.183   3.048   2.375  1.1491 -1.8226 -0.2634
  773SOL     OW 2317   0.919   1.866   1.852  0.3468 -0.0726 -0.3649
  773SOL    HW1 2318   0.997   1.887   1.795  0.5190  1.3704  0.1218
  773SOL    HW2 2319   0.882   1.953   1.900  1.2078  1.4616  1.1451
  774SOL     OW 2320   1.241   0.098   2.167 -0.1743 -0.0364 -0.2826
  774SOL    HW1 2321   1.279   0.185   2.130 -0.3136 -2.8335 -1.9740
  774SOL    HW2 2322   1.196   0.108   2.261  1.2111  2.1258  1.1416
  775SOL     OW 2323   2.169   2.887   0.122  0.1001 -0.5666 -0.2484
  775SOL    HW1 2324   2.167   2.860   0.022  1.6047  0.9994  0.4315
  775SOL    HW2 2325   2.080   2.916   0.158  1.9130 -0.4475  1.0247
  776SOL     OW 2326   2.621   0.855   2.260  0.3301 -1.0881 -1.0583
  776SOL    HW1 2327   2.656   0.758   2.258 -2.6214 -0.8343  2.2298
  776SOL    HW2 2328   2.639   0.903   2.171 -0.7012  0.6137 -0.1763
  777SOL     OW 2329   2.466   2.124   2.095 -0.4230 -0.1192  0.0310
  777SOL    HW1 2330   2.462   2.164   2.190 -0.3966  2.9210  1.2168
  777SOL    HW2 2331   2.563   2.105   2.072  1.0855  2.3441  0.6352
  778SOL     OW 2332   1.922   1.010   2.479  0.0862 -0.5781 -0.2392
  778SOL    HW1 2333   1.857   0.988   2.401 -1.0264 -0.6544 -0.6820
  778SOL    HW2 2334   1.998   0.940   2.473 -3.8800 -1.0379  0.3807
  779SOL     OW 2335   3.060   0.264   0.135  0.1382  0.1942 -0.2193
  779SOL    HW1 2336   3.065   0.308   0.047  0.2804 -1.8611  2.9805
  779SOL    HW2 2337   3.022   0.339   0.193  1.2066 -1.7259 -0.9552
  780SOL     OW 2338   2.516   0.605   2.988 -0.3332 -0.4238  0.0618
  780SOL    HW1 2339   2.574   0.558   3.061  1.9948 -0.1693  1.4151
  780SOL    HW2 2340   2.439   0.657   3.035 -3.1929  0.3075  1.1092
  781SOL     OW 2341   0.114   3.014   1.330 -0.2282 -0.3836  0.1200
  781SOL    HW1 2342   0.070   3.008   1.240  0.1389  0.4338  0.8185
  781SOL    HW2 2343   0.114   2.919   1.367 -1.3393  0.7176  0.7707
  782SOL     OW 2344   1.885   2.540   0.567  0.5230  0.0783  0.3031
  782SOL    HW1 2345   1.909   2.556   0.467 -1.0209  1.1626 -0.4454
  782SOL    HW2 2346   1.831   2.616   0.609  0.5759 -1.5111 -1.5267
  783SOL     OW 2347   0.813   1.339   1.386  0.5856  0.2250 -0.5856
  783SOL    HW1 2348   0.794   1.409   1.321  2.4994  0.3217  0.2209
  783SOL    HW2 2349   0.906   1.305   1.377 -2.8020 -0.1441 -0.3239
  784SOL     OW 2350   1.355   0.714   2.721 -0.5628  0.4645 -0.0476
  784SOL    HW1 2351   1.342   0.651   2.641  0.1875 -3.8078 -2.0581
  784SOL    HW2 2352   1.442   0.772   2.709  2.6076 -0.3066 -1.1712
  785SOL     OW 2353   2.188   0.311   1.212  0.5544  0.5545 -0.0110
  785SOL    HW1 2354   2.172   0.410   1.187 -2.9943 -1.1349  0.8790
  785SOL    HW2 2355   2.096   0.264   1.207 -1.5327 -1.0798  0.3253
  786SOL     OW 2356   1.316   2.726   2.058 -0.0566 -0.4648 -0.0122
  786SOL    HW1 2357   1.398   2.666   2.043  0.7550 -0.7536  0.2733
  786SOL    HW2 2358   1.234   2.669   2.061  2.0129  0.4428  1.6104
  787SOL     OW 2359   1.657   0.035   1.253  0.1378  0.3748  0.1761
  787SOL    HW1 2360   1.620   3.054   1.317  0.6494  0.7877 -2.2626
  787SOL    HW2 2361   1.635   0.132   1.270 -1.1665 -0.8388  2.6517
  788SOL     OW 2362   2.753   1.146   0.323  0.4921  0.7338 -0.1235
  788SOL    HW1 2363   2.653   1.158   0.332 -0.2118 -0.8225 -0.8002
  788SOL    HW2 2364   2.807   1.217   0.371  1.5039  1.7464  0.8269
  789SOL     OW 2365   0.531   2.045   1.455 -0.4259 -0.8950 -0.5489
  789SOL    HW1 2366   0.514   1.945   1.458 -0.4943  2.9321 -0.2426
  789SOL    HW2 2367   0.511   2.084   1.550 -0.5267 -3.0116 -2.3447
  790SOL     OW 2368   0.637   0.612   2.291 -0.1945 -0.1975  0.4721
  790SOL    HW1 2369   0.615   0.639   2.385  0.4219 -1.6942 -1.7253
  790SOL    HW2 2370   0.584   0.663   2.220  0.7168  1.4408 -0.4180
  791SOL     OW 2371   1.927   0.397   0.799  0.0838  0.3840  0.4519
  791SOL    HW1 2372   1.847   0.457   0.786 -1.4088 -0.8815 -0.6969
  791SOL    HW2 2373   2.011   0.453   0.774 -0.1648  0.3049  1.9962
  792SOL     OW 2374   1.138   2.853   1.863 -0.1026  0.2575  0.3819
  792SOL    HW1 2375   1.086   2.928   1.911  1.7631 -2.3398  1.1896
  792SOL    HW2 2376   1.204   2.820   1.928 -1.0768 -0.2491  1.6910
  793SOL     OW 2377   0.464   0.032   0.626 -0.1899  0.1862 -0.1053
  793SOL    HW1 2378   0.496   0.114   0.677  1.8262  1.1916 -0.0793
  793SOL    HW2 2379   0.446   3.047   0.694 -2.5020 -1.1528  1.8823
  794SOL     OW 2380   0.126   0.966   1.694 -0.1122  0.2056 -0.2584
  794SOL    HW1 2381   0.041   1.012   1.721  1.4757 -1.8858 -0.0640
  794SOL    HW2 2382   0.155   0.995   1.600 -2.0824 -0.0772  0.9249
  795SOL     OW 2383   0.396   2.121   2.229  0.4811 -0.4622 -0.0495
  795SOL    HW1 2384   0.345   2.177   2.299  0.5843 -1.1652 -2.7300
  795SOL    HW2 2385   0.493   2.111   2.250  0.7637  0.2205  0.5587
  796SOL     OW 2386   2.285   0.831   2.117 -0.6208 -0.5286  0.0349
  796SOL    HW1 2387   2.217   0.814   2.045 -1.0825  0.6391  0.4927
  796SOL    HW2 2388   2.379   0.837   2.083 -1.4371  3.0825  0.1842
  797SOL     OW 2389   2.600   2.536   2.689 -1.1279 -0.2515 -0.0031
  797SOL    HW1 2390   2.497   2.547   2.665 -1.0243  0.3084 -1.6591
  797SOL    HW2 2391   2.660   2.536   2.603 -0.4937  1.1061  0.8678
  798SOL     OW 2392   0.042   2.854   2.135  0.3840  0.1796  0.2445
  798SOL    HW1 2393   0.118   2.909   2.172 -1.9741 -3.0986 -0.1252
  798SOL    HW2 2394   0.061   2.843   2.034  1.5327 -0.3356 -2.9714
  799SOL     OW 2395   0.207   2.419   2.236  0.1716  0.8998 -0.3157
  799SOL    HW1 2396   0.234   2.350   2.309  2.0050 -0.6524  0.9457
  799SOL    HW2 2397   0.105   2.416   2.209  1.0262 -0.5850  1.1078
  800SOL     OW 2398   0.047   1.915   3.068  0.4328 -0.1924  1.0084
  800SOL    HW1 2399   0.032   2.015   3.052 -0.6920 -0.8379  0.3774
  800SOL    HW2 2400   0.123   1.898   0.047 -1.8982 -2.9120  0.7718
  801SOL     OW 2401   1.696   1.242   1.307  0.3585 -0.0548  0.4611
  801SOL    HW1 2402   1.636   1.173   1.253 -2.5531 -1.9038  0.7340
  801SOL    HW2 2403   1.695   1.231   1.410 -0.8554  0.4741 -1.5575
  802SOL     OW 2404   0.223   1.306   0.550  0.0671 -0.1149 -0.6477
  802SOL    HW1 2405   0.236   1.323   0.649  1.0890  0.6920  0.6902
  802SOL    HW2 2406   0.178   1.214   0.538 -2.3578  2.0949  0.8274
  803SOL     OW 2407   1.138   1.528   1.787 -0.0014 -0.5692 -0.7259
  803SOL    HW1 2408   1.077   1.551   1.864  0.0017 -0.6800  0.5887
  803SOL    HW2 2409   1.183   1.617   1.760 -4.2693 -1.1898  0.1371
  804SOL     OW 2410   1.993   1.528   0.926  0.3819  0.9187 -0.1149
  804SOL    HW1 2411   2.042   1.474   0.997 -1.2797 -1.9471  1.2969
  804SOL    HW2 2412   2.058   1.549   0.846 -0.3375 -1.3497  0.2921
  805SOL     OW 2413   2.823   1.209   2.780 -0.4123 -0.4844 -0.0064
  805SOL    HW1 2414   2.782   1.243   2.696  0.2106  1.9458  4.2155
  805SOL    HW2 2415   2.925   1.195   2.769  1.6099 -1.6427  0.5168
  806SOL     OW 2416   0.255   2.663   0.086  0.0516  0.2105  0.0530
  806SOL    HW1 2417   0.250   2.636   3.076  4.0649 -1.0489 -0.5195
  806SOL    HW2 2418   0.337   2.622   0.130  2.5540 -1.6158  0.5163
  807SOL     OW 2419   2.513   1.559   2.844  0.0989 -0.4071  0.2454
  807SOL    HW1 2420   2.543   1.490   2.914 -1.5684  1.1777 -1.0484
  807SOL    HW2 2421   2.481   1.638   2.895  1.4484 -1.0111 -1.3066
  808SOL     OW 2422   1.153   2.012   1.250  0.0089  0.0193 -0.0722
  808SOL    HW1 2423   1.075   2.002   1.313  1.0359  0.7550  1.4385
  808SOL    HW2 2424   1.231   2.059   1.292 -0.6098 -0.2684 -1.8760
  809SOL     OW 2425   2.767   0.878   0.366 -0.3159 -0.7697 -0.1880
  809SOL    HW1 2426   2.756   0.980   0.381 -2.5106  2.7037 -0.7023
  809SOL    HW2 2427   2.687   0.841   0.321  0.2712  2.6077 -1.9432
  810SOL     OW 2428   0.973   1.419   0.579 -0.1247 -0.4055  0.2254
  810SOL    HW1 2429   1.039   1.366   0.637  0.2399 -0.1852 -0.5884
  810SOL    HW2 2430   1.018   1.508   0.565  2.2401 -3.0648  0.2496
  811SOL     OW 2431   1.657   2.483   1.290 -0.0086 -0.5238 -0.6159
  811SOL    HW1 2432   1.668   2.557   1.223 -1.6221 -0.8629  2.7033
  811SOL    HW2 2433   1.748   2.469   1.336  0.2599  1.6831 -0.5837
  812SOL     OW 2434   1.488   2.802   1.765 -0.0811  0.6711  0.0664
  812SOL    HW1 2435   1.556   2.743   1.726  2.1173  0.6532 -1.3206
  812SOL    HW2 2436   1.449   2.772   1.851  1.0402 -0.5158  2.1046
  813SOL     OW 2437   0.703   2.901   1.772 -0.1691  0.2879  0.1754
  813SOL    HW1 2438   0.791   2.859   1.760 -1.0640  1.4214 -2.2037
  813SOL    HW2 2439   0.642   2.828   1.804  0.6628 -1.0676 -1.3668
  814SOL     OW 2440   1.021   2.680   2.338  0.4661  0.3452 -0.2725
  814SOL    HW1 2441   1.096   2.726   2.389 -0.2674 -0.0531  0.8042
  814SOL    HW2 2442   1.022   2.579   2.334 -2.1739 -2.3723  0.7604
  815SOL     OW 2443   0.675   0.107   2.720  0.3211  0.3539 -0.2962
  815SOL    HW1 2444   0.709   0.043   2.647  0.3797  1.6566 -0.9435
  815SOL    HW2 2445   0.650   0.198   2.688  0.8839 -2.1866  0.5184
  816SOL     OW 2446   2.359   0.597   2.730 -0.0031  0.3245 -0.2117
  816SOL    HW1 2447   2.431   0.582   2.799 -3.8378  0.0967 -1.0798
  816SOL    HW2 2448   2.291   0.662   2.770 -3.0300  4.4946 -0.1935
  817SOL     OW 2449   2.213   2.751   1.766  0.4800  0.9276  0.1498
  817SOL    HW1 2450   2.242   2.736   1.670  0.7393  1.6673  0.2332
  817SOL    HW2 2451   2.232   2.675   1.828 -0.6466  0.5700  1.6381
  818SOL     OW 2452   1.071   0.589   0.180  0.0332  0.6941  0.0966
  818SOL    HW1 2453   0.997   0.657   0.204  1.5084 -0.3940  0.2543
  818SOL    HW2 2454   1.096   0.528   0.256 -0.3013  0.2067 -0.1167
  819SOL     OW 2455   2.007   1.651   2.742  0.0686  0.3116  0.4746
  819SOL    HW1 2456   2.106   1.667   2.720 -0.5233  0.0702  0.0941
  819SOL    HW2 2457   1.957   1.737   2.763 -0.2879 -0.2661  1.1429
  820SOL     OW 2458   0.029   1.440   2.422  0.0561  0.3239  0.0675
  820SOL    HW1 2459   0.049   1.359   2.475  1.6013  1.8798  0.9925
  820SOL    HW2 2460   0.098   1.518   2.417 -1.0296 -1.3830  0.4486
  821SOL     OW 2461   0.087   2.711   0.796  0.0763  0.5441  0.2556
  821SOL    HW1 2462   0.124   2.707   0.703 -0.3824 -0.6131 -0.0175
  821SOL    HW2 2463   0.160   2.734   0.862  1.4963 -1.9570 -0.9299
  822SOL     OW 2464   2.234   2.585   3.032  0.7142  0.1213  0.5701
  822SOL    HW1 2465   2.269   2.505   2.979  0.9062  0.3756 -0.9752
  822SOL    HW2 2466   2.305   2.634   3.082 -1.9565 -2.5857  2.3804
  823SOL     OW 2467   1.445   0.052   2.427 -0.5710 -0.8954 -0.2821
  823SOL    HW1 2468   1.374   0.123   2.417  0.8188  0.2861  1.7933
  823SOL    HW2 2469   1.428   3.066   2.359  1.6284  1.5466  0.0422
  824SOL     OW 2470   2.648   2.435   2.089  0.3199 -0.1335 -0.2670
  824SOL    HW1 2471   2.701   2.512   2.054  0.0833 -1.1901 -1.0803
  824SOL    HW2 2472   2.598   2.466   2.170  1.2469 -2.9679 -1.6359
  825SOL     OW 2473   2.929   2.274   2.419  0.1261  0.4412 -0.0627
  825SOL    HW1 2474   2.943   2.171   2.405  0.1842 -1.4444 -1.5950
  825SOL    HW2 2475   2.947   2.321   2.331 -1.8583  0.8641 -0.4603
  826SOL     OW 2476   1.878   0.705   2.703 -0.9973  0.2259 -0.4471
  826SOL    HW1 2477   1.895   0.796   2.747 -2.1107 -1.9298  1.5330
  826SOL    HW2 2478   1.956   0.646   2.713  0.7357  3.6294 -1.3769
  827SOL     OW 2479   2.836   1.801   1.648  0.4622 -0.5536 -0.5373
  827SOL    HW1 2480   2.775   1.861   1.706 -0.5381  1.5992  1.9155
  827SOL    HW2 2481   2.783   1.777   1.566 -0.5324  0.6290  2.3844
  828SOL     OW 2482   2.833   0.172   1.273  0.2561 -0.1748  0.7544
  828SOL    HW1 2483   2.892   0.153   1.351  0.7679 -1.9711  0.3779
  828SOL    HW2 2484   2.783   0.260   1.287 -0.9420  2.5259 -1.3925
  829SOL     OW 2485   1.080   1.941   2.779 -0.6204  0.3093 -0.5219
  829SOL    HW1 2486   0.990   1.986   2.764  2.6632  1.4715 -1.4984
  829SOL    HW2 2487   1.066   1.844   2.751 -1.7411  0.8354  1.8561
  830SOL     OW 2488   0.730   0.964   1.227  0.7172 -0.5005 -0.2313
  830SOL    HW1 2489   0.831   0.956   1.236  2.4655  0.7344 -0.4659
  830SOL    HW2 2490   0.689   1.033   1.293  0.1186  1.0797  0.6355
  831SOL     OW 2491   2.658   1.922   2.669 -0.3820  0.0366  0.2880
  831SOL    HW1 2492   2.666   1.823   2.636  3.6846 -1.2749  0.7962
  831SOL    HW2 2493   2.736   1.948   2.728 -1.1581 -0.1605 -3.3618
  832SOL     OW 2494   1.878   2.508   2.555 -0.7833 -0.4564  0.1052
  832SOL    HW1 2495   1.967   2.501   2.503 -1.1846 -0.6549 -0.3834
  832SOL    HW2 2496   1.808   2.571   2.512  0.5323  2.5840 -1.4952
  833SOL     OW 2497   0.649   0.434   2.041 -0.0883  0.3531  0.1597
  833SOL    HW1 2498   0.702   0.446   1.951 -0.8438 -1.1388 -3.2252
  833SOL    HW2 2499   0.671   0.515   2.101 -0.9465  2.0852  1.3564
  834SOL     OW 2500   3.030   0.396   1.265 -0.4037  0.2824  0.1001
  834SOL    HW1 2501   2.940   0.356   1.239 -1.0966  0.5991 -0.3628
  834SOL    HW2 2502   3.041   0.498   1.257  1.3777 -1.3179  0.8562
  835SOL     OW 2503   2.712   0.536   0.153 -0.0273  0.3930  0.2125
  835SOL    HW1 2504   2.639   0.506   0.223 -0.2661 -0.4903  1.2581
  835SOL    HW2 2505   2.806   0.542   0.195 -1.0509  2.8523  0.6519
  836SOL     OW 2506   1.630   1.861   0.194  0.0216  0.0955  0.0763
  836SOL    HW1 2507   1.632   1.960   0.201 -0.7166 -3.4253  0.1478
  836SOL    HW2 2508   1.552   1.817   0.244  0.4518  0.9475 -0.2756
  837SOL     OW 2509   2.062   1.779   0.790 -0.1936 -0.5380  0.0389
  837SOL    HW1 2510   2.127   1.705   0.807 -0.2722 -0.9845 -2.0243
  837SOL    HW2 2511   2.099   1.847   0.727 -0.2814 -1.8555 -1.0615
  838SOL     OW 2512   1.574   0.836   2.443  0.1204 -0.3199  0.1730
  838SOL    HW1 2513   1.568   0.852   2.543 -2.5089  0.2292 -0.3878
  838SOL    HW2 2514   1.564   0.739   2.418  2.8608 -0.6444 -0.9403
  839SOL     OW 2515   0.667   1.401   2.293 -0.3671 -0.6846 -0.2468
  839SOL    HW1 2516   0.603   1.326   2.322  1.6621 -1.9838  0.7429
  839SOL    HW2 2517   0.765   1.372   2.288  0.0506  3.2424  0.1092
  840SOL     OW 2518   1.197   1.577   0.518  0.2210  0.0186 -0.1630
  840SOL    HW1 2519   1.201   1.675   0.552  0.5324  1.0425  0.4897
  840SOL    HW2 2520   1.283   1.527   0.551 -0.6889 -2.8809 -1.2838
  841SOL     OW 2521   1.540   2.234   0.708  0.3436  0.2824  0.1179
  841SOL    HW1 2522   1.638   2.261   0.692  0.4527  1.5230 -0.1480
  841SOL    HW2 2523   1.526   2.205   0.805 -0.9669 -2.2605 -0.5994
  842SOL     OW 2524   0.372   0.499   0.165 -0.4353 -0.2273 -0.2924
  842SOL    HW1 2525   0.406   0.405   0.187 -0.8956 -1.7876  0.4397
  842SOL    HW2 2526   0.447   0.553   0.133 -0.6795 -3.1735 -0.2291
  843SOL     OW 2527   0.626   0.291   0.652 -0.0265  0.7263 -0.1728
  843SOL    HW1 2528   0.602   0.358   0.723  1.9952 -1.2085 -1.5151
  843SOL    HW2 2529   0.724   0.290   0.642 -0.3464  0.0291 -1.9642
  844SOL     OW 2530   2.735   0.071   2.582 -0.6871 -0.1949  0.1215
  844SOL    HW1 2531   2.834   0.075   2.581 -2.0379 -2.4893  0.9751
  844SOL    HW2 2532   2.702   0.122   2.662  1.1359  1.7880  1.5511
  845SOL     OW 2533   2.922   2.294   1.761 -0.2075  0.5241 -0.1297
  845SOL    HW1 2534   2.826   2.306   1.788  2.4603  0.1942 -4.1059
  845SOL    HW2 2535   2.933   2.208   1.704  1.6828 -2.4774 -0.0115
  846SOL     OW 2536   2.330   1.442   2.308 -0.0457 -0.3347 -0.6361
  846SOL    HW1 2537   2.298   1.494   2.228  0.9682 -0.3264 -1.2914
  846SOL    HW2 2538   2.254   1.402   2.357  2.3862  1.2270 -2.1472
  847SOL     OW 2539   0.881   0.676   1.952 -0.0597 -0.1060  0.2310
  847SOL    HW1 2540   0.833   0.610   1.887 -1.9236 -1.9923  2.0191
  847SOL    HW2 2541   0.982   0.670   1.930 -1.4704 -1.3155 -2.3842
  848SOL     OW 2542   2.638   0.186   2.817 -0.1836 -0.0568  0.2791
  848SOL    HW1 2543   2.620   0.093   2.847 -0.6301  3.6334  0.6827
  848SOL    HW2 2544   2.639   0.246   2.898  0.0305 -3.0457  3.3484
  849SOL     OW 2545   0.253   2.881   2.909  0.0815  0.3583  0.1577
  849SOL    HW1 2546   0.266   2.919   2.819 -1.1458  0.5283  1.4507
  849SOL    HW2 2547   0.228   2.784   2.909  0.7490  1.2191  2.9253
  850SOL     OW 2548   1.046   2.454   1.002  0.1999  0.2554  0.0139
  850SOL    HW1 2549   1.138   2.417   1.019  2.7583 -0.8728  1.3366
  850SOL    HW2 2550   1.020   2.442   0.903  1.5602  0.6097  0.3299
  851SOL     OW 2551   2.027   0.529   2.432 -0.2331  0.0745 -0.4247
  851SOL    HW1 2552   2.056   0.446   2.374 -0.1119 -0.8794  1.6340
  851SOL    HW2 2553   2.044   0.520   2.533 -1.5626 -1.9865  0.7574
  852SOL     OW 2554   1.254   0.294   2.618 -0.5553  0.0624  0.2394
  852SOL    HW1 2555   1.355   0.295   2.644 -0.8271 -0.4670 -2.1349
  852SOL    HW2 2556   1.190   0.291   2.696 -2.8119 -2.1010 -1.9466
  853SOL     OW 2557   2.968   2.717   2.980  0.0922 -0.7130  0.2280
  853SOL    HW1 2558   3.020   2.667   3.055  1.1514  0.7332 -0.9148
  853SOL    HW2 2559   2.995   2.694   2.882 -0.9380 -1.4497  1.8270
  854SOL     OW 2560   2.076   0.810   2.472 -0.4959  0.4134  0.5869
  854SOL    HW1 2561   2.177   0.808   2.477  0.9359 -0.5356  0.4818
  854SOL    HW2 2562   2.040   0.722   2.431 -0.8234  0.4558  0.0732
  855SOL     OW 2563   0.494   2.584   0.254  0.3891  0.1499 -0.1875
  855SOL    HW1 2564   0.470   2.656   0.320 -1.6907  0.6254 -1.1608
  855SOL    HW2 2565   0.592   2.586   0.238 -5.2521 -0.9315  3.0742
  856SOL     OW 2566   0.317   0.096   2.427 -0.0434  0.0625 -0.3176
  856SOL    HW1 2567   0.398   0.163   2.451  3.8289  0.2145  1.5317
  856SOL    HW2 2568   0.279   0.044   2.506 -2.9216  1.2712 -0.8045
  857SOL     OW 2569   0.932   3.004   1.305 -0.3636 -0.5684 -0.1760
  857SOL    HW1 2570   0.856   3.042   1.363 -1.7243  0.5890 -0.1700
  857SOL    HW2 2571   0.901   2.974   1.211 -0.0736  2.4192  2.0226
  858SOL     OW 2572   2.471   2.189   1.755  0.1850  1.1456 -0.1636
  858SOL    HW1 2573   2.449   2.208   1.655  0.1618 -1.9173 -0.0470
  858SOL    HW2 2574   2.532   2.266   1.778 -0.8735 -0.7587 -2.6674
  859SOL     OW 2575   1.805   2.353   2.003  0.4289  0.4130  0.1320
  859SOL    HW1 2576   1.731   2.293   2.041 -1.3843 -0.2894  2.4029
  859SOL    HW2 2577   1.813   2.435   2.064  0.0093  0.3780  2.8001
  860SOL     OW 2578   1.869   0.159   0.372  0.1133 -0.7032  0.1180
  860SOL    HW1 2579   1.893   0.240   0.311  0.9882  0.1136 -0.8152
  860SOL    HW2 2580   1.844   0.181   0.466 -0.1892 -3.2821 -4.4786
  861SOL     OW 2581   2.534   0.402   0.632 -0.3577 -0.0497  0.3509
  861SOL    HW1 2582   2.636   0.400   0.630 -1.2360  0.0724 -0.4600
  861SOL    HW2 2583   2.492   0.315   0.663  1.3502  2.7155  0.4048
  862SOL     OW 2584   0.910   2.763   2.709 -0.1035  0.1179  0.6881
  862SOL    HW1 2585   0.937   2.791   2.800  2.2567  1.0051 -0.9786
  862SOL    HW2 2586   0.958   2.679   2.668  0.4551 -0.4432 -0.5029
  863SOL     OW 2587   0.565   0.489   1.378  0.0367  0.0625 -0.0094
  863SOL    HW1 2588   0.532   0.472   1.469 -1.2323 -0.5787 -0.5527
  863SOL    HW2 2589   0.485   0.503   1.315 -0.1345  0.5428 -0.6071
  864SOL     OW 2590   2.863   3.025   1.561 -0.3306 -0.4665 -0.0672
  864SOL    HW1 2591   2.957   3.053   1.580 -2.7845 -1.5487 -0.0307
  864SOL    HW2 2592   2.834   2.939   1.602 -0.4853  3.3223 -1.5809
  865SOL     OW 2593   0.741   1.442   2.779  0.1720  0.1363  0.2779
  865SOL    HW1 2594   0.831   1.387   2.781  1.3266 -0.0913  0.0488
  865SOL    HW2 2595   0.719   1.487   2.870  0.4174  1.1234 -1.0974
  866SOL     OW 2596   2.916   0.172   2.960 -0.2759 -0.0765  0.0380
  866SOL    HW1 2597   2.962   0.131   3.042 -0.3444  0.5106  1.0994
  866SOL    HW2 2598   2.936   0.113   2.879  0.2376  1.5311 -1.3901
  867SOL     OW 2599   2.674   3.019   2.887  0.1981  0.0175  0.4235
  867SOL    HW1 2600   2.700   3.039   2.986 -0.6187 -1.5532  1.5302
  867SOL    HW2 2601   2.712   2.927   2.855  1.2297 -3.0593 -0.2860
  868SOL     OW 2602   1.231   0.846   0.267 -0.0733 -0.2222  0.1452
  868SOL    HW1 2603   1.167   0.854   0.344  1.5609 -0.0184  1.5176
  868SOL    HW2 2604   1.270   0.751   0.267  0.5923 -0.2901  1.9922
  869SOL     OW 2605   2.645   1.393   0.522  0.1055 -0.1601 -0.3327
  869SOL    HW1 2606   2.611   1.454   0.448  0.3849 -2.4552  0.7602
  869SOL    HW2 2607   2.745   1.378   0.521 -0.0850  3.8114  0.0033
  870SOL     OW 2608   2.370   1.694   0.460  0.2624  0.2571 -0.2059
  870SOL    HW1 2609   2.424   1.655   0.389  1.0154  0.5728  4.7612
  870SOL    HW2 2610   2.321   1.618   0.510 -1.2355  0.0595 -1.2997
  871SOL     OW 2611   1.358   1.074   0.679  0.1186 -0.0766  0.6918
  871SOL    HW1 2612   1.264   1.038   0.660 -1.7173 -0.9573 -0.9155
  871SOL    HW2 2613   1.361   1.156   0.734 -1.9404 -1.4954  1.4226
  872SOL     OW 2614   1.325   1.748   1.657  0.3298  0.2946  0.0129
  872SOL    HW1 2615   1.331   1.714   1.561 -3.2631 -0.3614 -4.5410
  872SOL    HW2 2616   1.396   1.699   1.719  0.1802 -0.1772  0.7939
  873SOL     OW 2617   1.082   1.803   2.373  0.0313  0.1147 -0.2356
  873SOL    HW1 2618   1.059   1.704   2.399  0.6613 -1.4261  0.2621
  873SOL    HW2 2619   1.112   1.812   2.280 -0.3641 -0.9745  3.0390
  874SOL     OW 2620   1.028   2.044   1.007 -0.6936  0.0773  0.3172
  874SOL    HW1 2621   1.086   2.073   0.925  0.2791  0.6308 -1.6707
  874SOL    HW2 2622   1.083   2.038   1.091 -0.3726  3.2365 -1.0785
  875SOL     OW 2623   1.929   0.223   1.197 -0.2281 -0.2741  0.0297
  875SOL    HW1 2624   1.869   0.215   1.279  2.9506  0.0519 -0.1573
  875SOL    HW2 2625   1.867   0.239   1.120  0.7650  1.7024  3.8031
  876SOL     OW 2626   0.720   0.577   0.337 -0.0798  0.1190 -0.3787
  876SOL    HW1 2627   0.661   0.631   0.401 -1.5266 -0.2025  0.7177
  876SOL    HW2 2628   0.765   0.494   0.378  1.5708 -0.8662 -1.0266
  877SOL     OW 2629   2.716   0.412   1.320  0.3610  0.2297  0.2921
  877SOL    HW1 2630   2.613   0.402   1.329  1.1461  1.2690  2.8434
  877SOL    HW2 2631   2.749   0.507   1.335 -0.5048  1.7546 -0.4726
  878SOL     OW 2632   2.070   2.277   0.225  0.0908 -0.1890 -0.0822
  878SOL    HW1 2633   2.032   2.355   0.172 -0.7116 -0.9084  0.9948
  878SOL    HW2 2634   2.157   2.245   0.177  1.7978  2.6318 -1.7311
  879SOL     OW 2635   2.709   1.671   1.447  0.6445 -0.1619  0.5042
  879SOL    HW1 2636   2.611   1.653   1.433  2.5146  0.4590 -0.3789
  879SOL    HW2 2637   2.763   1.584   1.451  1.5174 -0.4833 -1.0680
  880SOL     OW 2638   1.278   2.691   1.348 -0.4767  0.5134  0.2192
  880SOL    HW1 2639   1.305   2.652   1.257  1.2876 -3.6721 -1.9577
  880SOL    HW2 2640   1.177   2.701   1.350 -2.5689 -2.2946 -1.9037
  881SOL     OW 2641   1.102   2.219   0.094 -0.0791  0.3022  0.2012
  881SOL    HW1 2642   1.023   2.179   0.143  0.0248  0.0480  2.6404
  881SOL    HW2 2643   1.183   2.160   0.112 -0.7503  1.3045  2.2404
  882SOL     OW 2644   1.760   0.718   1.517 -0.2159 -0.1846  0.8030
  882SOL    HW1 2645   1.760   0.736   1.615 -0.1818  0.4643 -0.3591
  882SOL    HW2 2646   1.669   0.716   1.474  1.4843  1.0739 -0.1885
  883SOL     OW 2647   1.128   0.166   2.401 -0.1730  0.2403 -0.5943
  883SOL    HW1 2648   1.168   0.216   2.479  1.0881  1.0533  0.0343
  883SOL    HW2 2649   1.036   0.128   2.422  0.6762  0.7486 -1.8115
  884SOL     OW 2650   2.971   0.507   0.279 -0.6691 -0.1456 -0.4036
  884SOL    HW1 2651   2.967   0.505   0.385 -1.7391  2.1072  2.0111
  884SOL    HW2 2652   2.994   0.594   0.235 -0.6134 -0.3516  1.8401
  885SOL     OW 2653   0.859   1.379   0.027  0.5585  0.6475  0.1244
  885SOL    HW1 2654   0.894   1.458   3.062  0.3267  1.5753  0.5242
  885SOL    HW2 2655   0.796   1.322   3.058 -0.6919  0.6748  2.6157
  886SOL     OW 2656   1.828   1.451   2.665 -0.2815 -0.0499  0.0798
  886SOL    HW1 2657   1.751   1.506   2.632  0.0338  0.1954  3.2170
  886SOL    HW2 2658   1.904   1.513   2.691  0.9759 -3.8551 -1.7585
  887SOL     OW 2659   1.217   0.499   1.656 -0.3169 -0.3642 -0.1747
  887SOL    HW1 2660   1.127   0.491   1.613  1.3704  0.1961 -1.5880
  887SOL    HW2 2661   1.260   0.414   1.696 -2.7820  2.5113  1.6927
  888SOL     OW 2662   2.800   0.409   1.819 -0.2215 -0.0840  0.0593
  888SOL    HW1 2663   2.781   0.505   1.843 -2.1055 -0.4647 -0.8710
  888SOL    HW2 2664   2.839   0.396   1.720  0.1830  1.2089 -3.0732
  889SOL     OW 2665   2.919   2.583   0.793 -0.5003  0.1272 -0.1774
  889SOL    HW1 2666   2.839   2.639   0.757 -0.4188  0.2731  0.5363
  889SOL    HW2 2667   3.000   2.644   0.778  0.6774  0.0267  1.9088
  890SOL     OW 2668   2.672   2.685   0.191  0.0260 -0.0778  0.0941
  890SOL    HW1 2669   2.639   2.670   0.287  1.5654  0.1073 -0.8848
  890SOL    HW2 2670   2.595   2.710   0.133  0.5552 -1.3909 -1.8775
  891SOL     OW 2671   0.973   1.565   2.927  0.3005  0.0108  0.0935
  891SOL    HW1 2672   1.070   1.537   2.925  1.5118  0.4454 -0.6995
  891SOL    HW2 2673   0.953   1.597   2.832  3.4825 -2.4195  0.7326
  892SOL     OW 2674   2.940   3.062   0.899  0.1245 -0.1194  0.5397
  892SOL    HW1 2675   2.913   3.013   0.811  1.8133 -0.4582 -1.0950
  892SOL    HW2 2676   2.864   0.017   0.952  2.8312 -0.0035  0.0969
  893SOL     OW 2677   0.636   3.021   1.148  0.2604  0.1980  0.3850
  893SOL    HW1 2678   0.616   0.027   1.180  3.8003 -1.8347 -1.2212
  893SOL    HW2 2679   0.725   3.011   1.098 -1.2403  0.3032  0.1026
  894SOL     OW 2680   2.908   1.310   0.536 -0.5570 -0.3363  0.3140
  894SOL    HW1 2681   2.916   1.255   0.620 -1.1379 -3.1555  0.2577
  894SOL    HW2 2682   2.979   1.381   0.536 -0.5717 -1.0660  2.5923
  895SOL     OW 2683   2.583   2.615   1.718  0.0602  0.3312 -0.1048
  895SOL    HW1 2684   2.559   2.719   1.729  0.5082  2.5414  3.6604
  895SOL    HW2 2685   2.674   2.604   1.674 -0.5957  1.2223  0.7214
  896SOL     OW 2686   0.965   0.022   1.672 -0.0273 -0.1802  0.1179
  896SOL    HW1 2687   0.965   3.051   1.755  5.1913  1.8195 -1.8590
  896SOL    HW2 2688   1.052   0.027   1.626 -5.0015  0.5018  0.6418
  897SOL     OW 2689   0.796   1.670   1.687  0.1638 -0.1074  0.3432
  897SOL    HW1 2690   0.831   1.698   1.594  3.1352  0.7712 -2.2962
  897SOL    HW2 2691   0.828   1.742   1.753  2.2803  1.0126 -0.2292
  898SOL     OW 2692   1.525   2.555   1.972 -0.1826 -0.0214 -0.0943
  898SOL    HW1 2693   1.511   2.494   1.892  0.8183 -1.4764  2.2106
  898SOL    HW2 2694   1.620   2.590   1.965  1.3994  2.0729  1.6066
  899SOL     OW 2695   0.950   0.379   0.694  0.2169 -0.4669 -0.4668
  899SOL    HW1 2696   0.917   0.361   0.600 -1.6220  0.6582 -0.7728
  899SOL    HW2 2697   1.041   0.428   0.691 -1.2200 -0.1227 -0.4019
  900SOL     OW 2698   1.802   2.490   2.238  0.3845  0.4819  0.1004
  900SOL    HW1 2699   1.757   2.557   2.296  1.4425 -2.4155  0.5864
  900SOL    HW2 2700   1.781   2.395   2.265  1.6664 -1.7059 -3.3921
  901SOL     OW 2701   0.946   2.182   2.860 -0.8449 -0.4805 -0.3545
  901SOL    HW1 2702   1.038   2.214   2.829  0.7614 -1.0838  1.5639
  901SOL    HW2 2703   0.892   2.267   2.884 -0.9829  1.3267  2.7277
  902SOL     OW 2704   1.925   1.097   0.348 -0.2855  0.4352 -0.5723
  902SOL    HW1 2705   2.022   1.086   0.326 -0.7746 -2.1636  1.0540
  902SOL    HW2 2706   1.905   1.179   0.403  0.8647 -1.1884  1.4898
  903SOL     OW 2707   1.798   0.712   0.531 -0.1979  0.5440 -0.3690
  903SOL    HW1 2708   1.854   0.662   0.461  2.1300  1.8253 -2.3087
  903SOL    HW2 2709   1.737   0.787   0.496  0.4545  1.6040  0.8350
  904SOL     OW 2710   0.772   0.929   2.873 -0.0138 -0.0179  0.8853
  904SOL    HW1 2711   0.818   1.018   2.876 -0.4020 -2.7644  0.4441
  904SOL    HW2 2712   0.835   0.847   2.889 -1.1170  1.2508  0.4902
  905SOL     OW 2713   1.988   0.138   0.819  0.3994  0.0617 -0.3731
  905SOL    HW1 2714   2.013   0.092   0.910  1.0841  1.4456  2.0425
  905SOL    HW2 2715   1.946   0.230   0.830 -0.4302  1.4914  2.4587
  906SOL     OW 2716   0.042   2.335   1.147 -0.0613 -0.2152  0.3581
  906SOL    HW1 2717   0.021   2.272   1.229 -2.7649  0.8059 -0.1195
  906SOL    HW2 2718   3.061   2.319   1.068  0.5186  0.1569 -1.5781
  907SOL     OW 2719   0.886   0.778   0.230 -0.6069  0.3248 -0.4121
  907SOL    HW1 2720   0.832   0.704   0.273  1.6149 -2.6421 -2.3299
  907SOL    HW2 2721   0.828   0.829   0.164  1.0773 -0.7961 -0.9045
  908SOL     OW 2722   2.080   2.767   0.892 -0.2206  0.9928 -0.3230
  908SOL    HW1 2723   2.097   2.804   0.986  3.6055 -2.1632  0.0420
  908SOL    HW2 2724   2.054   2.840   0.831  3.9488 -1.5386  0.2293
  909SOL     OW 2725   2.221   1.109   1.381  0.6395 -0.3095  0.0091
  909SOL    HW1 2726   2.226   1.047   1.296  0.4673  0.2386 -1.8856
  909SOL    HW2 2727   2.124   1.120   1.419 -1.9668 -0.8050  1.6235
  910SOL     OW 2728   1.368   2.946   2.226 -0.0913 -0.1516  0.0380
  910SOL    HW1 2729   1.371   2.858   2.174  1.4871  0.3453  1.6690
  910SOL    HW2 2730   1.334   3.023   2.172  0.0558 -0.3023  2.1776
  911SOL     OW 2731   2.727   0.571   2.217  0.1821  0.1789  0.2246
  911SOL    HW1 2732   2.745   0.609   2.127 -0.3136 -0.9827  2.3883
  911SOL    HW2 2733   2.738   0.472   2.214  0.6527  0.2528  0.0361
  912SOL     OW 2734   0.240   1.049   1.446  0.5839 -0.6988  0.5932
  912SOL    HW1 2735   0.259   1.034   1.352  1.8540  0.7034  2.3064
  912SOL    HW2 2736   0.313   1.101   1.495 -2.0166 -1.2774 -0.5300
  913SOL     OW 2737   2.864   2.240   1.321 -0.7900 -0.3144 -0.3149
  913SOL    HW1 2738   2.892   2.202   1.411  0.2679 -0.0680  2.1323
  913SOL    HW2 2739   2.840   2.162   1.257 -2.0223  0.0707  0.5560
  914SOL     OW 2740   1.511   0.708   1.427  0.1575 -0.6300 -0.2682
  914SOL    HW1 2741   1.475   0.628   1.368 -0.5544  0.4048 -1.5828
  914SOL    HW2 2742   1.457   0.794   1.415  1.8655 -1.2179 -0.6412
  915SOL     OW 2743   1.687   0.267   1.390 -0.6010 -0.5730 -0.3143
  915SOL    HW1 2744   1.689   0.249   1.493 -0.8077  2.1318  0.1920
  915SOL    HW2 2745   1.693   0.369   1.363 -0.6295 -1.1063 -1.5722
  916SOL     OW 2746   2.784   2.423   1.159 -0.5566  0.7643 -0.1218
  916SOL    HW1 2747   2.731   2.374   1.084 -0.1490 -2.5144 -1.5528
  916SOL    HW2 2748   2.814   2.344   1.223  0.2954 -2.0760 -0.0818
  917SOL     OW 2749   2.328   1.965   0.251  0.0936 -0.3136  0.2081
  917SOL    HW1 2750   2.308   2.036   0.180  2.4637  0.1050  0.6355
  917SOL    HW2 2751   2.243   1.939   0.301 -0.1185  0.4191 -2.1871
  918SOL     OW 2752   1.963   2.938   2.669 -0.1364 -0.4029 -0.4320
  918SOL    HW1 2753   1.971   2.974   2.758  0.7731  0.6126 -0.7796
  918SOL    HW2 2754   2.062   2.922   2.638  0.1624  0.1179  0.0549
  919SOL     OW 2755   1.231   2.352   1.497  0.5179  0.6818 -0.2099
  919SOL    HW1 2756   1.285   2.284   1.447 -0.7754 -1.4043 -0.2890
  919SOL    HW2 2757   1.282   2.437   1.503 -0.4431 -1.5875 -1.8078
  920SOL     OW 2758   2.950   0.128   2.327  0.0848  0.0065  0.3552
  920SOL    HW1 2759   3.000   0.139   2.415  2.0186  3.2391 -1.0098
  920SOL    HW2 2760   3.012   0.143   2.243  1.5182 -0.8311 -0.4859
  921SOL     OW 2761   2.917   0.815   1.846  0.1628 -0.2782 -0.0213
  921SOL    HW1 2762   2.909   0.912   1.818 -1.6069 -0.4747  1.9786
  921SOL    HW2 2763   3.006   0.777   1.823 -0.1739  0.8208  0.0351
  922SOL     OW 2764   2.038   1.944   0.403  0.8900  0.2835  0.2597
  922SOL    HW1 2765   2.108   1.947   0.479  0.7906  1.4529 -3.1632
  922SOL    HW2 2766   1.976   2.020   0.413  1.3068 -2.0028 -1.4065
  923SOL     OW 2767   0.985   1.825   3.079 -0.0790  0.2906  0.2230
  923SOL    HW1 2768   0.975   1.750   3.007 -0.3566 -0.1898 -0.3644
  923SOL    HW2 2769   0.929   1.905   3.060 -0.3142 -3.9203 -0.2060
  924SOL     OW 2770   0.860   0.331   0.442 -0.1011 -0.4055  0.3550
  924SOL    HW1 2771   0.857   0.231   0.439 -0.8303  2.8486  2.4049
  924SOL    HW2 2772   0.944   0.366   0.405 -1.4570 -3.2402  3.6614
  925SOL     OW 2773   2.424   0.347   0.993  0.0007 -0.3420 -0.5649
  925SOL    HW1 2774   2.354   0.418   1.011  2.0704  2.0912  0.2839
  925SOL    HW2 2775   2.391   0.254   0.996  1.2864  1.7505 -3.5304
  926SOL     OW 2776   0.355   0.543   1.235 -0.3332  0.2913  0.2057
  926SOL    HW1 2777   0.299   0.624   1.225  0.6796 -3.3846  2.4306
  926SOL    HW2 2778   0.301   0.458   1.243  0.8440  0.7125 -0.2901
  927SOL     OW 2779   0.096   1.256   2.615  0.0015  0.5495 -0.3092
  927SOL    HW1 2780   0.186   1.272   2.658  1.0264  0.2843 -3.1018
  927SOL    HW2 2781   0.039   1.179   2.658 -3.5500 -0.8471 -0.7577
  928SOL     OW 2782   2.745   0.680   2.854 -0.4363 -0.3197  0.6070
  928SOL    HW1 2783   2.647   0.679   2.887  0.0577 -0.4871  1.0026
  928SOL    HW2 2784   2.770   0.586   2.820 -1.3867  0.7178  1.5848
  929SOL     OW 2785   2.343   0.120   1.358  0.5297 -0.0392  0.0937
  929SOL    HW1 2786   2.287   0.168   1.285  1.9181  1.4630 -1.0110
  929SOL    HW2 2787   2.294   0.036   1.393 -2.6413  0.7879  2.3619
  930SOL     OW 2788   1.962   1.083   1.531 -0.3235 -0.0437 -0.3104
  930SOL    HW1 2789   1.929   1.070   1.626 -0.6431  1.2053 -2.4828
  930SOL    HW2 2790   1.903   1.054   1.452 -0.7748  1.0466 -1.5921
  931SOL     OW 2791   2.171   1.339   0.288 -0.0342 -0.2281  0.2823
  931SOL    HW1 2792   2.153   1.239   0.261 -1.4925 -0.8393 -2.9810
  931SOL    HW2 2793   2.184   1.385   0.197 -0.7376 -1.5189  1.1628
  932SOL     OW 2794   2.846   1.244   1.052 -0.1358 -0.3851 -0.5151
  932SOL    HW1 2795   2.770   1.219   0.995  2.4715 -0.3743  1.8964
  932SOL    HW2 2796   2.875   1.161   1.106 -0.0849  0.5045 -1.0491
  933SOL     OW 2797   2.737   1.659   1.111 -0.2770 -0.4413  0.0687
  933SOL    HW1 2798   2.789   1.711   1.186  1.6000  1.2714  0.7992
  933SOL    HW2 2799   2.680   1.586   1.154 -1.3489  0.6534 -1.6433
  934SOL     OW 2800   1.834   0.631   2.229 -0.1670 -0.6845 -0.3042
  934SOL    HW1 2801   1.736   0.614   2.260 -1.6055  1.6711 -0.7845
  934SOL    HW2 2802   1.902   0.591   2.301  3.0628 -1.9328  1.5567
  935SOL     OW 2803   0.301   1.771   0.680  0.2127 -0.2198 -0.3856
  935SOL    HW1 2804   0.203   1.781   0.697  3.2503  0.5224  0.5489
  935SOL    HW2 2805   0.340   1.865   0.660 -0.7628  2.9771  0.6386
  936SOL     OW 2806   0.232   0.948   0.644  0.1529  0.4334  0.0096
  936SOL    HW1 2807   0.235   0.918   0.547 -0.0797 -1.5180  1.7869
  936SOL    HW2 2808   0.323   0.987   0.678  1.0335 -1.1685  1.1626
  937SOL     OW 2809   2.450   2.932   1.075  0.0471 -0.2127 -0.0817
  937SOL    HW1 2810   2.513   2.847   1.087 -1.3525 -2.8835  0.2433
  937SOL    HW2 2811   2.483   3.005   1.141 -0.5334 -0.2687 -0.4906
  938SOL     OW 2812   2.772   2.335   0.412  0.2948 -0.3036 -0.0211
  938SOL    HW1 2813   2.845   2.397   0.446  1.0638 -0.3658  0.8847
  938SOL    HW2 2814   2.683   2.379   0.373  1.4825  1.2642 -1.8048
  939SOL     OW 2815   0.934   1.930   0.338  0.4993  0.6670  0.1693
  939SOL    HW1 2816   0.937   1.836   0.299 -0.6409  0.3635 -1.3933
  939SOL    HW2 2817   0.898   1.916   0.435  0.4076 -1.2403  1.0657
  940SOL     OW 2818   2.866   0.402   2.817  0.2874 -0.1168  0.3466
  940SOL    HW1 2819   2.869   0.328   2.889 -1.1959  1.8894  0.4561
  940SOL    HW2 2820   2.829   0.368   2.725 -0.5320  1.3513 -3.8150
  941SOL     OW 2821   1.045   0.220   0.035  0.4134 -0.3403 -0.2416
  941SOL    HW1 2822   0.955   0.261   0.020 -0.3559 -1.5092 -1.8544
  941SOL    HW2 2823   1.070   0.210   0.130 -0.0801 -2.3274 -2.0588
  942SOL     OW 2824   0.976   0.961   1.371 -0.1941  0.2124  0.5364
  942SOL    HW1 2825   1.034   1.040   1.392 -2.0281 -1.2924 -0.1103
  942SOL    HW2 2826   0.941   0.913   1.450 -0.0191 -2.0463 -3.9492
  943SOL     OW 2827   1.450   0.845   1.999  0.7858 -0.1058 -0.8865
  943SOL    HW1 2828   1.414   0.840   1.906 -0.1060  0.2804 -0.9094
  943SOL    HW2 2829   1.381   0.815   2.065  2.9152  0.7821  1.3901
  944SOL     OW 2830   1.824   1.063   1.762 -0.1145 -0.4458  0.2815
  944SOL    HW1 2831   1.783   0.972   1.749 -0.4912  0.4733 -2.1885
  944SOL    HW2 2832   1.876   1.070   1.850 -0.1634 -5.0457 -1.0352
  945SOL     OW 2833   2.971   0.020   0.137 -0.5343 -0.2795  0.2452
  945SOL    HW1 2834   2.986   3.043   0.213 -0.2042  1.7274 -1.5616
  945SOL    HW2 2835   3.011   0.111   0.156  1.0166  1.4630 -1.3973
  946SOL     OW 2836   2.739   0.658   1.950  1.2870 -0.5435  0.0173
  946SOL    HW1 2837   2.810   0.729   1.937 -1.4416  0.7234 -0.2341
  946SOL    HW2 2838   2.644   0.699   1.933  1.7453  1.1747  1.4238
  947SOL     OW 2839   0.483   2.839   0.393  0.0626 -0.1118  0.0049
  947SOL    HW1 2840   0.582   2.829   0.414  1.2198 -1.9098  0.0214
  947SOL    HW2 2841   0.455   2.925   0.352 -0.7978 -4.2829 -0.4185
  948SOL     OW 2842   2.408   1.276   1.510  0.1635  0.1325  0.0515
  948SOL    HW1 2843   2.403   1.269   1.617  1.6244 -0.8820  0.4277
  948SOL    HW2 2844   2.340   1.209   1.468  1.0601  0.0076 -1.1338
  949SOL     OW 2845   0.521   0.948   2.382 -0.4025 -0.4380 -0.0283
  949SOL    HW1 2846   0.466   0.916   2.304 -1.8495  0.5340  1.3569
  949SOL    HW2 2847   0.473   0.926   2.469 -1.7613 -0.0847  0.6123
  950SOL     OW 2848   0.503   2.947   0.873 -0.2837 -0.0468 -0.3925
  950SOL    HW1 2849   0.551   2.979   0.958  1.1597  1.3685 -0.1849
  950SOL    HW2 2850   0.569   2.899   0.807  3.1324 -0.6842 -2.1057
  951SOL     OW 2851   0.916   1.295   2.365 -0.0832  0.5141  0.4491
  951SOL    HW1 2852   0.996   1.275   2.302  0.0534 -1.7280  0.8584
  951SOL    HW2 2853   0.927   1.246   2.451  0.2649  1.9641 -1.0646
  952SOL     OW 2854   0.748   1.371   0.263 -0.0149  1.1277 -0.0418
  952SOL    HW1 2855   0.798   1.368   0.174 -2.8405  1.6466  1.8056
  952SOL    HW2 2856   0.797   1.317   0.334 -0.0266  0.5606 -0.6417
  953SOL     OW 2857   2.588   0.264   2.442  0.0173  0.4092  0.2148
  953SOL    HW1 2858   2.492   0.265   2.468  0.6624 -0.9797 -1.8446
  953SOL    HW2 2859   2.630   0.181   2.487 -0.9362 -0.7008 -1.4509
  954SOL     OW 2860   1.557   1.177   0.940 -0.5626  0.0829 -0.1259
  954SOL    HW1 2861   1.608   1.097   0.901 -1.0440  0.3581 -0.0964
  954SOL    HW2 2862   1.592   1.262   0.889 -0.4481  4.6662  2.0218
  955SOL     OW 2863   0.457   1.914   2.716  0.4757  0.3231 -0.2143
  955SOL    HW1 2864   0.503   1.868   2.792 -5.0470  2.6428 -0.4222
  955SOL    HW2 2865   0.411   2.004   2.743  0.7199  0.7711 -1.2250
  956SOL     OW 2866   1.823   0.519   1.989  0.0850 -0.2558  0.0420
  956SOL    HW1 2867   1.858   0.529   2.085  1.8813  1.1486  0.2655
  956SOL    HW2 2868   1.745   0.583   1.973 -0.1538  0.2481  0.1651
  957SOL     OW 2869   2.069   2.087   2.648  0.8023 -0.5067  0.3106
  957SOL    HW1 2870   2.139   2.085   2.580 -4.1995 -0.8694  1.3672
  957SOL    HW2 2871   2.111   2.104   2.739 -1.2712 -1.2586 -0.4259
  958SOL     OW 2872   1.306   1.665   1.406  0.6430  0.2111  0.5921
  958SOL    HW1 2873   1.229   1.613   1.450 -3.2595 -3.7860  1.1055
  958SOL    HW2 2874   1.286   1.717   1.321 -2.1396  0.4938 -0.9899
  959SOL     OW 2875   2.353   2.377   2.876 -0.2148 -0.4673 -0.1523
  959SOL    HW1 2876   2.435   2.401   2.933  2.6348 -0.0020 -2.5009
  959SOL    HW2 2877   2.332   2.275   2.889 -1.0434 -3.8738  3.1861
  960SOL     OW 2878   0.154   0.742   2.641  0.1288  0.0380 -0.1189
  960SOL    HW1 2879   0.112   0.792   2.564  2.2685 -1.4384  1.5344
  960SOL    HW2 2880   0.098   0.752   2.723  1.2121  2.0536  0.2117
  961SOL     OW 2881   0.775   0.875   2.394  0.4300  0.1044  0.4493
  961SOL    HW1 2882   0.761   0.789   2.442  2.2845 -0.1070 -2.5668
  961SOL    HW2 2883   0.692   0.932   2.396 -1.8296 -0.5345 -0.1455
  962SOL     OW 2884   0.939   1.247   2.787  0.4284 -0.1460  0.0742
  962SOL    HW1 2885   0.983   1.201   2.872  2.6172 -3.0459  3.4778
  962SOL    HW2 2886   0.912   1.176   2.717  1.7312 -0.0426 -0.4839
  963SOL     OW 2887   2.518   2.385   0.396  0.2881  0.4388  0.0861
  963SOL    HW1 2888   2.453   2.428   0.458 -0.3247  0.6454 -0.1355
  963SOL    HW2 2889   2.515   2.287   0.409  2.8557 -0.0097 -2.0022
  964SOL     OW 2890   0.972   2.456   1.479  0.4897 -0.4118  0.0397
  964SOL    HW1 2891   1.058   2.407   1.489 -0.3247  0.7932 -2.1802
  964SOL    HW2 2892   0.988   2.554   1.453 -3.6897 -3.2327  0.5722
  965SOL     OW 2893   1.494   1.481   0.426 -0.3288  0.3652 -0.3019
  965SOL    HW1 2894   1.588   1.521   0.453  0.4872  0.7006 -1.1988
  965SOL    HW2 2895   1.434   1.468   0.510 -0.6773  0.7018 -2.0393
  966SOL     OW 2896   0.227   1.743   0.402  0.1005 -0.3695  0.0093
  966SOL    HW1 2897   0.242   1.783   0.495 -1.6205 -5.2586  1.2424
  966SOL    HW2 2898   0.158   1.666   0.410  1.8217 -0.5769  2.5756
  967SOL     OW 2899   1.824   0.259   2.201 -0.8134  0.0260 -0.2148
  967SOL    HW1 2900   1.914   0.283   2.231 -3.5713 -2.2736 -1.4667
  967SOL    HW2 2901   1.771   0.212   2.276 -3.5085  0.2654 -0.4889
  968SOL     OW 2902   1.658   0.444   0.459 -0.4509  1.2192 -0.3612
  968SOL    HW1 2903   1.583   0.505   0.495  0.5906  0.6897 -0.1437
  968SOL    HW2 2904   1.742   0.489   0.468 -0.9882 -1.5185  0.6095
  969SOL     OW 2905   0.181   1.118   2.362  0.3349  0.5941  0.1000
  969SOL    HW1 2906   0.155   1.176   2.285 -0.1724  1.5589  1.9398
  969SOL    HW2 2907   0.146   1.148   2.448  1.5946  1.4400 -0.1633
  970SOL     OW 2908   2.473   1.526   1.190 -0.2382 -0.2477 -0.4287
  970SOL    HW1 2909   2.383   1.482   1.184  2.7011  0.4319 -1.0039
  970SOL    HW2 2910   2.476   1.576   1.279  0.9464  0.7341  1.0639
  971SOL     OW 2911   3.067   2.931   1.102  0.4581  0.1087  0.3568
  971SOL    HW1 2912   3.027   2.840   1.121 -3.1584  2.4452 -2.6620
  971SOL    HW2 2913   3.025   2.971   1.021 -1.9126 -0.1639 -0.8650
  972SOL     OW 2914   0.403   0.848   2.634 -0.6016  0.1356  0.1112
  972SOL    HW1 2915   0.428   0.894   2.725  0.5767  2.3908  2.9970
  972SOL    HW2 2916   0.309   0.806   2.634  0.3759  1.7752 -1.3291
  973SOL     OW 2917   0.409   0.354   0.828 -0.5465  0.1422  0.1948
  973SOL    HW1 2918   0.321   0.379   0.869 -0.6384 -3.4519 -1.1005
  973SOL    HW2 2919   0.406   0.360   0.725  0.3115  1.3373  2.3592
  974SOL     OW 2920   2.207   0.725   1.501 -0.0869 -0.5076  0.4769
  974SOL    HW1 2921   2.224   0.789   1.424  0.0880  0.6997  1.0995
  974SOL    HW2 2922   2.276   0.733   1.571 -1.5574 -0.8316 -1.9354
  975SOL     OW 2923   2.743   2.998   0.110  0.4280 -0.0445 -0.6082
  975SOL    HW1 2924   2.832   3.045   0.134  0.9062 -0.1749  2.4791
  975SOL    HW2 2925   2.741   2.900   0.123  0.1611  0.7291 -1.7939
  976SOL     OW 2926   0.553   1.393   1.210  0.0550  0.2230  0.3203
  976SOL    HW1 2927   0.459   1.391   1.256 -1.6078  0.0218  0.6429
  976SOL    HW2 2928   0.620   1.447   1.264 -3.1970 -4.9919 -0.3861
  977SOL     OW 2929   1.296   2.283   0.654  0.0857 -0.8634 -0.3411
  977SOL    HW1 2930   1.290   2.306   0.555  1.2062 -0.0909 -0.4359
  977SOL    HW2 2931   1.395   2.260   0.680  2.6892 -0.3792  0.6051
  978SOL     OW 2932   0.242   0.856   0.118  0.2048  0.1154 -0.3502
  978SOL    HW1 2933   0.223   0.764   0.078 -0.0037  1.9215 -0.2548
  978SOL    HW2 2934   0.305   0.913   0.058  2.8607  0.7241 -0.0100
  979SOL     OW 2935   2.229   1.565   0.750 -0.0891  0.0476 -0.4308
  979SOL    HW1 2936   2.237   1.514   0.659  0.5390  0.0783 -0.7632
  979SOL    HW2 2937   2.315   1.602   0.789  0.2233 -0.4459  1.3162
  980SOL     OW 2938   0.499   1.868   1.841  0.6438  0.0579  0.3018
  980SOL    HW1 2939   0.487   1.775   1.801 -3.9210  1.3547  2.5886
  980SOL    HW2 2940   0.542   1.865   1.933 -2.3717 -0.8786  1.4579
  981SOL     OW 2941   2.830   1.343   0.086 -0.4396 -0.1077 -0.9271
  981SOL    HW1 2942   2.771   1.316   0.166 -0.0007  2.3814  0.8605
  981SOL    HW2 2943   2.921   1.379   0.109 -3.3775 -3.3611 -1.6588
  982SOL     OW 2944   2.655   2.878   1.847 -0.4145  0.0016  0.0754
  982SOL    HW1 2945   2.654   2.982   1.836  1.9844  1.3623 -0.6553
  982SOL    HW2 2946   2.750   2.847   1.825  4.9164 -2.5765 -1.5870
  983SOL     OW 2947   1.336   0.046   1.171  0.2325 -0.6994  0.2558
  983SOL    HW1 2948   1.286   0.023   1.259 -1.7825  1.7116  0.3451
  983SOL    HW2 2949   1.423   3.079   1.161  2.0571 -0.2735 -0.2432
  984SOL     OW 2950   1.098   2.670   3.013  0.0126  0.6470  0.4270
  984SOL    HW1 2951   1.059   2.762   2.991  2.0897 -2.0789  3.2958
  984SOL    HW2 2952   1.192   2.660   2.972 -1.4698  0.7757 -0.1116
  985SOL     OW 2953   1.668   1.967   1.730 -0.3636  0.3053  0.4319
  985SOL    HW1 2954   1.619   2.055   1.734 -0.1162  1.2161 -1.9138
  985SOL    HW2 2955   1.671   1.927   1.639 -0.1977 -0.2939  1.3613
  986SOL     OW 2956   2.383   0.200   2.629 -0.0906  0.2020  0.1768
  986SOL    HW1 2957   2.405   0.101   2.625 -1.4580 -2.2263  1.5805
  986SOL    HW2 2958   2.434   0.242   2.707 -0.0525 -0.3925  0.1861
  987SOL     OW 2959   2.786   1.378   2.165 -0.7652  0.0221 -0.4214
  987SOL    HW1 2960   2.692   1.365   2.135  0.6902  0.5612  1.5975
  987SOL    HW2 2961   2.788   1.428   2.257  0.7896 -1.7824  2.9053
  988SOL     OW 2962   2.352   0.807   2.381 -0.4070 -0.2378 -0.0126
  988SOL    HW1 2963   2.317   0.797   2.290  0.0646  2.9036  4.3971
  988SOL    HW2 2964   2.425   0.881   2.385  1.3707  0.7812 -2.5784
  989SOL     OW 2965   1.694   1.358   1.937 -0.6983  0.8467  0.3256
  989SOL    HW1 2966   1.680   1.261   1.959  0.5579  0.1953  0.1588
  989SOL    HW2 2967   1.784   1.352   1.880  6.6363 -1.0226  1.0002
  990SOL     OW 2968   0.326   1.307   0.269 -0.4384  0.0426  0.1812
  990SOL    HW1 2969   0.323   1.306   0.372 -1.1279  0.7619  1.1203
  990SOL    HW2 2970   0.238   1.282   0.233  1.8595  0.2272 -0.6960
  991SOL     OW 2971   0.286   1.742   2.803 -0.0595 -0.1920  0.4077
  991SOL    HW1 2972   0.364   1.798   2.768 -2.7104 -2.7597  3.3191
  991SOL    HW2 2973   0.302   1.700   2.895  1.5085 -2.1406 -0.6155
  992SOL     OW 2974   2.665   1.958   1.810  0.1969  0.3700 -0.2447
  992SOL    HW1 2975   2.698   2.016   1.886  0.8219  0.6268  0.1982
  992SOL    HW2 2976   2.591   2.009   1.765 -0.9288 -0.0685 -1.0588
  993SOL     OW 2977   0.112   2.926   0.563  0.1803 -0.2147 -0.0942
  993SOL    HW1 2978   0.163   3.015   0.568 -0.6455  2.9978 -1.6025
  993SOL    HW2 2979   0.176   2.846   0.583 -1.1317 -1.2775  1.1395
  994SOL     OW 2980   0.048   1.741   1.400  0.2173  0.1341  0.1312
  994SOL    HW1 2981   0.026   1.755   1.502 -2.0180  1.6577  2.4466
  994SOL    HW2 2982   0.143   1.764   1.374 -0.9490  2.0877  1.0970
  995SOL     OW 2983   2.217   1.835   2.473 -0.3134 -0.0907  0.2260
  995SOL    HW1 2984   2.277   1.919   2.473 -2.3511  1.1425  0.8571
  995SOL    HW2 2985   2.252   1.780   2.547 -2.1521  0.1401  0.9118
  996SOL     OW 2986   1.942   1.542   2.989  0.3783  0.1063 -0.3252
  996SOL    HW1 2987   1.846   1.567   3.012  0.6412 -1.2824 -0.6142
  996SOL    HW2 2988   1.956   1.558   2.890 -0.6611 -0.9767  0.3159
  997SOL     OW 2989   1.465   1.313   1.709 -0.2263  0.6476  0.0501
  997SOL    HW1 2990   1.419   1.284   1.796 -2.1009  0.2085  1.1256
  997SOL    HW2 2991   1.403   1.299   1.631 -1.2672 -0.9682 -1.9442
  998SOL     OW 2992   2.829   2.026   0.861  0.0951 -0.4150  0.2890
  998SOL    HW1 2993   2.773   2.110   0.854 -0.1569 -0.6391  0.5342
  998SOL    HW2 2994   2.881   2.007   0.774  1.6714  1.5004 -0.6774
  999SOL     OW 2995   1.922   2.623   0.308  0.3168 -0.6112  0.1288
  999SOL    HW1 2996   1.859   2.702   0.283 -0.8267  2.4209 -0.0218
  999SOL    HW2 2997   1.960   2.568   0.231  0.5572 -0.9467  3.1737
 1000SOL     OW 2998   0.815   2.879   0.213 -0.4491 -0.3595 -0.3481
 1000SOL    HW1 2999   0.904   2.885   0.264 -0.4604 -0.3272 -0.6431
 1000SOL    HW2 3000   0.762   2.966   0.215  1.2463  0.0150 -1.3451
   3.08635   3.08635   3.08635
