1000 SPC/Fw water molecules t= 391.00000 step= 391000
 3000
    1SOL     OW    1   2.815   3.008   1.805 -0.2602 -0.2247 -0.3472
    1SOL    HW1    2   2.737   3.077   1.820 -0.7458 -0.7745 -2.1600
    1SOL    HW2    3   2.774   2.917   1.800  1.1963  1.7191 -1.0142
    2SOL     OW    4   2.636   2.525   0.210  0.5999 -0.6867  0.5313
    2SOL    HW1    5   2.687   2.614   0.187  1.0528 -1.8647  1.5075
    2SOL    HW2    6   2.563   2.510   0.142  0.7865 -1.3439 -0.4714
    3SOL     OW    7   1.433   2.892   0.277  0.2279  0.0597 -0.2739
    3SOL    HW1    8   1.513   2.914   0.338  3.2973  0.0158  1.3271
    3SOL    HW2    9   1.377   2.974   0.261  0.8401 -2.6736 -0.5406
    4SOL     OW   10   1.180   2.974   2.528  0.4730 -0.3297  0.0993
    4SOL    HW1   11   1.265   2.922   2.503 -0.3529  0.0064 -2.2571
    4SOL    HW2   12   1.128   3.005   2.447  0.6022 -0.8998 -0.8054
    5SOL     OW   13   2.261   0.021   1.457  0.6361 -0.0117 -1.2023
    5SOL    HW1   14   2.265   0.046   1.359  0.5305 -0.9751  1.8265
    5SOL    HW2   15   2.179   0.074   1.495 -0.4188  3.1544  1.4608
    6SOL     OW   16   2.067   1.952   0.582  0.5022  0.1781  0.6617
    6SOL    HW1   17   2.076   1.871   0.514  1.1447  0.6701  0.0665
    6SOL    HW2   18   2.109   2.037   0.536 -0.8480 -0.9852  0.6276
    7SOL     OW   19   1.881   0.995   0.870 -0.0243 -0.2134  0.2251
    7SOL    HW1   20   1.868   1.042   0.956  2.2909  0.9983 -0.0424
    7SOL    HW2   21   1.819   0.914   0.865  1.2608  0.0445 -2.1049
    8SOL     OW   22   0.639   1.295   0.936 -0.5463  0.2550 -0.5191
    8SOL    HW1   23   0.682   1.337   1.013 -1.7542 -0.4414 -2.4788
    8SOL    HW2   24   0.633   1.358   0.852 -0.2007  2.1423 -2.7065
    9SOL     OW   25   0.282   2.717   1.762 -0.4627  0.1453  0.1697
    9SOL    HW1   26   0.254   2.727   1.669 -1.2164  0.3582  0.9559
    9SOL    HW2   27   0.304   2.623   1.793 -0.4824  2.5484 -0.3077
   10SOL     OW   28   1.091   2.338   0.520 -0.1247  0.6114 -0.2020
   10SOL    HW1   29   1.055   2.303   0.609  1.8823 -1.4986 -1.8616
   10SOL    HW2   30   1.160   2.274   0.488 -2.0027  1.6386  0.3420
   11SOL     OW   31   1.769   1.915   1.252  0.7819 -0.3451  0.4045
   11SOL    HW1   32   1.855   1.902   1.196  0.2581 -2.4840 -3.3485
   11SOL    HW2   33   1.739   2.014   1.270 -1.1618  1.6615  2.6401
   12SOL     OW   34   2.964   0.531   2.123  0.0419  0.0106 -0.4898
   12SOL    HW1   35   2.891   0.567   2.068  0.8296  0.9340 -1.4729
   12SOL    HW2   36   3.027   0.479   2.065 -0.0911  0.1061 -0.9848
   13SOL     OW   37   2.678   0.016   0.663 -0.0592 -0.0643 -0.3935
   13SOL    HW1   38   2.766   3.076   0.681  0.4530  0.5810 -0.5352
   13SOL    HW2   39   2.642   3.108   0.570 -0.1499  0.1646 -1.6597
   14SOL     OW   40   1.714   1.473   3.096 -0.1837 -0.0097 -0.2838
   14SOL    HW1   41   1.731   1.373   3.106  1.4012 -1.4024 -0.5353
   14SOL    HW2   42   1.659   1.502   3.015 -2.4784 -2.0073  0.6433
   15SOL     OW   43   2.690   2.428   1.686 -0.2905 -0.0573  0.0733
   15SOL    HW1   44   2.637   2.472   1.755  1.5745 -1.0672 -1.6704
   15SOL    HW2   45   2.751   2.350   1.721  1.1577 -3.0316 -0.1477
   16SOL     OW   46   2.678   3.067   1.013 -0.2113 -0.2930 -0.5130
   16SOL    HW1   47   2.640   3.055   1.108 -2.7808  0.5198 -1.0505
   16SOL    HW2   48   2.685   2.974   0.969 -2.5158 -0.1395 -2.1329
   17SOL     OW   49   1.217   0.332   1.460  0.3055 -0.3808 -0.3959
   17SOL    HW1   50   1.195   0.266   1.383 -0.2450  1.2697 -1.7152
   17SOL    HW2   51   1.187   0.300   1.554 -0.2002 -1.3042  0.4606
   18SOL     OW   52   1.480   0.287   0.961 -0.1197 -0.3710  0.4119
   18SOL    HW1   53   1.519   0.311   1.048 -0.4389  0.8007 -3.6087
   18SOL    HW2   54   1.530   0.210   0.921  1.0035  0.2611 -0.6621
   19SOL     OW   55   2.109   1.445   0.255 -0.4383  0.0603  0.2013
   19SOL    HW1   56   2.043   1.439   0.179 -1.6614 -0.2243  1.0180
   19SOL    HW2   57   2.164   1.528   0.244 -1.3319 -0.5627  1.2105
   20SOL     OW   58   1.999   1.449   2.318 -0.3340  0.4402 -0.2011
   20SOL    HW1   59   2.082   1.431   2.382  3.4793  0.0939 -0.3835
   20SOL    HW2   60   1.958   1.362   2.285  0.9288  0.0475  0.8653
   21SOL     OW   61   1.263   3.043   0.577 -0.7482  0.1004  0.0284
   21SOL    HW1   62   1.226   0.017   0.540  0.7121 -1.0287  2.4034
   21SOL    HW2   63   1.187   2.976   0.578 -0.0428 -0.1444 -1.2049
   22SOL     OW   64   2.660   0.765   0.982  0.3969  0.5251 -0.3375
   22SOL    HW1   65   2.739   0.705   0.964 -0.9477  2.0733 -0.6363
   22SOL    HW2   66   2.570   0.713   0.958 -3.3479  0.4830 -1.2439
   23SOL     OW   67   0.469   0.081   1.768  0.3038  0.1081  0.2689
   23SOL    HW1   68   0.506   0.172   1.806  2.4061  0.9198  0.8764
   23SOL    HW2   69   0.401   0.037   1.829  1.0666  3.2967 -0.6218
   24SOL     OW   70   2.553   2.813   0.652 -0.0429 -0.4268  0.2795
   24SOL    HW1   71   2.476   2.874   0.691 -1.5389 -0.3168  0.1409
   24SOL    HW2   72   2.583   2.849   0.563  0.2290 -0.8874 -1.5886
   25SOL     OW   73   1.964   0.040   2.675 -0.2097 -0.3987  0.0275
   25SOL    HW1   74   2.037   0.087   2.615  2.4609 -0.2126 -1.0172
   25SOL    HW2   75   1.890   0.099   2.711  0.8525  0.4655  0.1187
   26SOL     OW   76   1.555   2.481   0.025 -0.1478 -0.1303 -0.1431
   26SOL    HW1   77   1.569   2.578   0.054  0.7651  0.4754 -1.5293
   26SOL    HW2   78   1.503   2.422   0.094 -0.6391 -0.7842  1.2953
   27SOL     OW   79   1.290   0.602   1.088 -0.3492  0.8593  0.2714
   27SOL    HW1   80   1.220   0.613   1.019  1.0885 -0.5712 -1.7587
   27SOL    HW2   81   1.242   0.595   1.182 -0.0290  0.6002 -0.4321
   28SOL     OW   82   1.340   1.484   0.520  0.0850  0.4670 -0.0841
   28SOL    HW1   83   1.389   1.518   0.601 -1.1981 -0.4393 -3.7399
   28SOL    HW2   84   1.329   1.386   0.535  1.4006  0.9616  0.9915
   29SOL     OW   85   2.771   0.434   1.684 -0.3824  0.0515 -0.0583
   29SOL    HW1   86   2.731   0.433   1.781 -1.2969  0.3872  1.2675
   29SOL    HW2   87   2.696   0.395   1.625 -0.2573  1.1763 -2.3334
   30SOL     OW   88   1.357   2.730   1.363  0.0163 -0.3544  0.3487
   30SOL    HW1   89   1.256   2.725   1.375 -0.0075  2.5092  0.4203
   30SOL    HW2   90   1.396   2.748   1.453 -1.2642  0.0785 -3.3894
   31SOL     OW   91   1.818   2.989   1.654 -0.0838  0.6490 -0.3174
   31SOL    HW1   92   1.856   2.964   1.747 -0.3837  0.2630  1.7858
   31SOL    HW2   93   1.823   2.915   1.587  1.6438 -1.1993  1.1873
   32SOL     OW   94   1.514   1.855   2.962  0.2599 -0.7136  0.1663
   32SOL    HW1   95   1.609   1.823   2.936  3.3609  0.7194  0.2651
   32SOL    HW2   96   1.472   1.912   2.889 -0.8325  2.1761  1.9681
   33SOL     OW   97   2.744   0.721   2.480  0.2005 -0.1261  0.6760
   33SOL    HW1   98   2.663   0.781   2.468  0.0985 -0.0581 -1.0456
   33SOL    HW2   99   2.754   0.706   2.580 -1.8100 -0.1789 -0.7875
   34SOL     OW  100   1.988   0.508   0.514  0.6544 -0.4027 -0.2229
   34SOL    HW1  101   1.975   0.430   0.578 -0.2523 -0.1076 -0.6190
   34SOL    HW2  102   1.982   0.483   0.418  2.4519  1.2235  0.6725
   35SOL     OW  103   2.860   2.222   2.264  0.7897  0.3187 -0.0109
   35SOL    HW1  104   2.815   2.150   2.324  1.0754  0.5040  1.2992
   35SOL    HW2  105   2.873   2.306   2.322  3.1844 -0.8090 -0.7913
   36SOL     OW  106   2.363   1.892   2.921  0.2741  0.1573  0.0970
   36SOL    HW1  107   2.306   1.845   2.854 -0.3647  0.9352  0.0197
   36SOL    HW2  108   2.421   1.963   2.876 -1.7929  2.8209 -0.1914
   37SOL     OW  109   1.865   0.259   1.568 -0.0065 -0.3021 -0.1145
   37SOL    HW1  110   1.910   0.321   1.498  1.6958  1.1064  0.4276
   37SOL    HW2  111   1.915   0.170   1.570 -0.1433 -1.7280  1.2188
   38SOL     OW  112   0.324   0.318   2.747  0.3486  0.4793  0.1472
   38SOL    HW1  113   0.396   0.338   2.677 -0.3275 -1.6711 -0.4597
   38SOL    HW2  114   0.367   0.285   2.834 -0.8426 -0.2724  0.5898
   39SOL     OW  115   1.837   1.228   1.860  0.1289 -0.3944 -0.1196
   39SOL    HW1  116   1.865   1.314   1.812  0.9793  3.2339 -0.5966
   39SOL    HW2  117   1.921   1.173   1.876 -0.2666 -0.9836  1.8038
   40SOL     OW  118   1.200   1.827   0.866  0.6339  0.3317 -0.0848
   40SOL    HW1  119   1.124   1.810   0.927 -0.8115 -2.1346 -0.1271
   40SOL    HW2  120   1.278   1.772   0.885 -3.6779  0.8221 -0.5092
   41SOL     OW  121   1.980   1.690   0.881  0.2106  0.1603 -0.4139
   41SOL    HW1  122   1.983   1.681   0.985 -0.5906  0.1810  0.6874
   41SOL    HW2  123   1.951   1.605   0.836  2.0353  1.1744 -1.0907
   42SOL     OW  124   2.968   0.697   1.146  0.7219 -0.3253 -0.1731
   42SOL    HW1  125   3.010   0.613   1.177 -0.0467 -0.3927  0.6384
   42SOL    HW2  126   2.898   0.723   1.216 -1.0828  0.2309  1.6899
   43SOL     OW  127   0.305   1.856   2.955  0.1950  0.5977 -0.7453
   43SOL    HW1  128   0.369   1.841   3.032  2.2618  0.4668 -5.6180
   43SOL    HW2  129   0.306   1.956   2.934 -2.1581  3.1152  1.6286
   44SOL     OW  130   1.549   2.555   1.300  0.2976  0.1819  0.2639
   44SOL    HW1  131   1.489   2.635   1.297  1.3541 -1.4136 -1.4514
   44SOL    HW2  132   1.627   2.568   1.231  2.1241 -0.0304 -0.9056
   45SOL     OW  133   1.001   3.053   2.710 -0.1477  0.3589  0.0285
   45SOL    HW1  134   1.057   3.004   2.642 -2.4873  0.6743  1.5181
   45SOL    HW2  135   0.957   0.027   2.667 -0.1380 -0.7981  0.2919
   46SOL     OW  136   0.685   2.384   2.243 -0.3619 -0.1867 -0.2335
   46SOL    HW1  137   0.695   2.364   2.140  0.9538 -0.8864 -2.6089
   46SOL    HW2  138   0.685   2.488   2.248 -0.0943  1.8335 -2.1702
   47SOL     OW  139   1.028   2.172   1.129  0.0771 -0.2324 -0.2398
   47SOL    HW1  140   0.945   2.156   1.187 -2.4784 -0.4974 -2.0210
   47SOL    HW2  141   1.018   2.115   1.046 -1.1382  4.2945 -0.4215
   48SOL     OW  142   0.810   2.175   1.336  0.2351  0.1050  0.5300
   48SOL    HW1  143   0.743   2.249   1.316  0.7402 -0.5145  1.2390
   48SOL    HW2  144   0.763   2.099   1.387  0.2377  1.0350 -0.7653
   49SOL     OW  145   2.429   0.112   0.081 -0.1882 -0.0384 -0.0084
   49SOL    HW1  146   2.451   0.113   0.180  1.5168  0.9013 -0.3482
   49SOL    HW2  147   2.487   0.186   0.036  0.4375  1.5952  0.8136
   50SOL     OW  148   1.744   0.328   0.234  0.0145  0.4396  0.9742
   50SOL    HW1  149   1.803   0.253   0.272 -0.8093 -1.8108 -1.4974
   50SOL    HW2  150   1.742   0.411   0.294 -2.5501 -0.2818  2.0207
   51SOL     OW  151   1.946   0.682   1.074  0.9367  0.5887  0.1225
   51SOL    HW1  152   2.025   0.669   1.008  1.1519  2.2538 -3.6373
   51SOL    HW2  153   1.978   0.697   1.167  0.8641 -0.2869 -1.8039
   52SOL     OW  154   0.757   1.746   0.573 -0.4887 -0.2922 -0.0534
   52SOL    HW1  155   0.835   1.744   0.507  2.1765 -2.0405 -2.7167
   52SOL    HW2  156   0.683   1.686   0.537  2.4493 -0.1814 -0.5381
   53SOL     OW  157   0.378   1.490   3.074 -0.2230  0.1684  0.4358
   53SOL    HW1  158   0.375   1.456   0.063  2.0576  0.1632 -0.5776
   53SOL    HW2  159   0.432   1.574   3.058  0.3281  2.9136  0.1829
   54SOL     OW  160   2.254   1.385   2.012  0.3659  0.4171  0.1680
   54SOL    HW1  161   2.300   1.456   2.069 -0.1672  2.0474  3.3805
   54SOL    HW2  162   2.312   1.370   1.928 -1.0745 -0.5923  1.5668
   55SOL     OW  163   2.572   1.970   0.693  0.1604 -0.2116 -0.1753
   55SOL    HW1  164   2.491   2.027   0.682 -1.8686  0.5925  0.7029
   55SOL    HW2  165   2.568   1.920   0.784  1.3736 -0.2642  0.4445
   56SOL     OW  166   1.895   0.061   1.263 -0.1931  0.3565  0.1340
   56SOL    HW1  167   1.876   0.110   1.172  1.1697  0.4597  0.5766
   56SOL    HW2  168   1.861   0.106   1.348 -0.3531 -0.5062  0.2650
   57SOL     OW  169   1.452   1.308   0.117  0.8246 -0.0316 -0.2999
   57SOL    HW1  170   1.486   1.263   0.034 -0.7016 -1.1993  1.1122
   57SOL    HW2  171   1.454   1.255   0.205  1.6463  0.0119 -0.8424
   58SOL     OW  172   2.271   0.348   1.544 -0.3690  0.0060 -0.2613
   58SOL    HW1  173   2.373   0.367   1.533  2.0997 -1.8970 -2.3855
   58SOL    HW2  174   2.259   0.282   1.620 -0.1996 -0.3639  0.6502
   59SOL     OW  175   1.386   2.677   2.704 -0.5782  0.3069 -0.1600
   59SOL    HW1  176   1.444   2.732   2.643 -1.4698 -2.9242 -2.0099
   59SOL    HW2  177   1.426   2.584   2.724 -1.1902  0.4666  0.2054
   60SOL     OW  178   0.027   2.545   2.813  0.5029  0.4220  0.1046
   60SOL    HW1  179   0.009   2.502   2.904  0.1769  0.6496 -0.2909
   60SOL    HW2  180   3.046   2.582   2.775 -0.3761 -2.2260 -0.9714
   61SOL     OW  181   0.808   2.453   1.061 -0.0046 -0.2251  0.4108
   61SOL    HW1  182   0.908   2.448   1.030  1.4496 -0.9217 -1.4892
   61SOL    HW2  183   0.757   2.394   0.992  2.5393 -2.7942 -0.2201
   62SOL     OW  184   1.626   1.979   2.249  0.2365 -0.0028  0.2118
   62SOL    HW1  185   1.642   1.930   2.158  0.0475 -2.9458  0.3740
   62SOL    HW2  186   1.683   1.937   2.323  2.2134 -2.8378  0.6183
   63SOL     OW  187   1.727   1.738   0.100 -0.5027 -0.3040 -0.0424
   63SOL    HW1  188   1.634   1.765   0.134  1.2711 -1.8957 -2.7869
   63SOL    HW2  189   1.728   1.642   0.067  1.2065 -0.0027 -3.1124
   64SOL     OW  190   1.939   1.101   0.121 -0.1181  0.3640  0.2940
   64SOL    HW1  191   1.887   1.142   0.046  2.3122 -0.8661  0.1429
   64SOL    HW2  192   1.887   1.117   0.210  0.1441  2.7362  0.3019
   65SOL     OW  193   2.237   2.133   1.935 -0.0134 -0.2715 -0.6257
   65SOL    HW1  194   2.244   2.230   1.966  0.4350 -0.4885 -1.9104
   65SOL    HW2  195   2.142   2.100   1.954 -1.5481 -2.7477 -1.7941
   66SOL     OW  196   0.476   0.817   1.472  0.0371 -0.0880 -0.2077
   66SOL    HW1  197   0.427   0.810   1.384  0.5460 -0.3337 -1.6373
   66SOL    HW2  198   0.477   0.916   1.501 -0.2168 -3.5850 -0.9754
   67SOL     OW  199   2.352   2.975   0.112 -0.2754 -0.5330 -0.0105
   67SOL    HW1  200   2.326   2.973   0.210  1.7184 -2.8357 -1.2323
   67SOL    HW2  201   2.402   3.061   0.085  1.0784 -2.8352 -1.9923
   68SOL     OW  202   1.771   2.052   0.931 -0.3047 -0.0588  0.6962
   68SOL    HW1  203   1.782   1.985   0.849  0.4659 -0.8216  1.5112
   68SOL    HW2  204   1.670   2.057   0.946 -1.9211 -2.4125 -0.0967
   69SOL     OW  205   2.833   2.266   2.984  0.2252  0.2843 -0.3829
   69SOL    HW1  206   2.764   2.244   3.054 -0.1373  0.1571 -2.2323
   69SOL    HW2  207   2.926   2.285   3.025  1.0802  0.0681  0.4204
   70SOL     OW  208   2.853   1.018   2.180 -0.1761  0.3451  0.2761
   70SOL    HW1  209   2.901   1.049   2.266  0.4744 -2.1016  0.4894
   70SOL    HW2  210   2.918   0.979   2.112  0.7104  1.3447 -1.1945
   71SOL     OW  211   0.910   1.142   2.534 -0.2542 -0.0959 -0.1579
   71SOL    HW1  212   0.852   1.172   2.452  1.3360 -1.1152 -1.2406
   71SOL    HW2  213   0.897   1.041   2.545  0.2923 -0.0961  1.1890
   72SOL     OW  214   2.569   1.407   2.288  1.0467  0.3400  0.3851
   72SOL    HW1  215   2.532   1.477   2.222  2.5206  4.3436 -1.3757
   72SOL    HW2  216   2.617   1.334   2.236 -0.1744 -1.0442 -0.0691
   73SOL     OW  217   1.109   1.903   3.056  0.1393  0.1182 -0.4870
   73SOL    HW1  218   1.117   1.993   3.011 -0.1148 -0.6506 -1.3205
   73SOL    HW2  219   1.118   1.907   0.052 -1.8825  0.8645 -0.5685
   74SOL     OW  220   1.950   2.790   2.415  0.1658 -0.0347 -0.3957
   74SOL    HW1  221   1.957   2.690   2.434 -1.8558  0.5075 -1.0997
   74SOL    HW2  222   1.924   2.837   2.505  0.0216  0.9633  0.3128
   75SOL     OW  223   1.459   2.225   0.651  0.4211  0.2426  0.5323
   75SOL    HW1  224   1.444   2.250   0.748  0.9608 -0.5827 -2.6515
   75SOL    HW2  225   1.511   2.138   0.643 -0.3182 -1.9610 -2.5412
   76SOL     OW  226   2.801   1.777   2.472  0.5537 -0.1181  0.9341
   76SOL    HW1  227   2.727   1.726   2.524  0.7782 -2.0683  0.9535
   76SOL    HW2  228   2.872   1.795   2.540 -0.6665 -2.5439  0.1027
   77SOL     OW  229   0.025   2.473   1.772 -0.0822 -0.3086 -0.0010
   77SOL    HW1  230   0.023   2.556   1.831  1.8657  2.2883  0.0990
   77SOL    HW2  231   3.043   2.432   1.760  1.1860  1.9773  1.5372
   78SOL     OW  232   2.356   1.008   0.276  0.0110  0.2915  0.1027
   78SOL    HW1  233   2.292   0.935   0.302  3.5530 -0.2257  2.5340
   78SOL    HW2  234   2.307   1.091   0.250  0.4728 -3.0551  2.0854
   79SOL     OW  235   0.134   1.465   2.658  0.0254 -0.0891 -0.4350
   79SOL    HW1  236   0.146   1.566   2.660 -0.1975  2.8555  0.8449
   79SOL    HW2  237   0.211   1.419   2.618 -0.8151 -0.3885  0.5643
   80SOL     OW  238   1.757   1.676   1.833  0.7576  0.2832 -0.2068
   80SOL    HW1  239   1.757   1.588   1.892 -1.7233 -2.4294 -0.8594
   80SOL    HW2  240   1.856   1.709   1.822 -0.0967 -0.3429  0.1675
   81SOL     OW  241   1.929   1.245   2.163  0.7820  0.1435 -0.3606
   81SOL    HW1  242   1.975   1.222   2.077 -0.2842  0.7045  0.3384
   81SOL    HW2  243   1.883   1.160   2.197  0.1889 -1.0502  1.7473
   82SOL     OW  244   1.358   1.732   1.980  0.5435 -0.0363  0.2305
   82SOL    HW1  245   1.259   1.730   1.963  2.0147  4.2381 -2.2194
   82SOL    HW2  246   1.408   1.648   1.948 -0.3908  0.2540  0.7778
   83SOL     OW  247   0.037   0.280   0.303 -0.1005  0.2648  0.3881
   83SOL    HW1  248   0.036   0.182   0.278  0.3344 -0.1175 -1.1181
   83SOL    HW2  249   3.053   0.323   0.299  1.6729  3.0830 -2.3375
   84SOL     OW  250   0.160   0.605   0.281  0.2994 -0.2394 -0.4148
   84SOL    HW1  251   0.091   0.530   0.267  1.5718 -1.5273  0.5235
   84SOL    HW2  252   0.159   0.676   0.206 -1.1442  4.7217 -2.3826
   85SOL     OW  253   2.133   2.081   1.241  0.4449  0.0447 -0.2363
   85SOL    HW1  254   2.041   2.099   1.195 -0.8099  0.8077 -0.9681
   85SOL    HW2  255   2.152   2.137   1.323 -0.7391  0.2383  0.5289
   86SOL     OW  256   0.469   0.379   1.430  0.2534  0.0776 -0.0069
   86SOL    HW1  257   0.473   0.388   1.328  0.5075  1.0018 -0.1900
   86SOL    HW2  258   0.535   0.307   1.465  0.4619  1.8513  0.8465
   87SOL     OW  259   0.081   2.139   2.155 -0.8238 -0.1825  0.2638
   87SOL    HW1  260   0.003   2.168   2.096  1.0712 -1.0320  0.2693
   87SOL    HW2  261   0.146   2.218   2.155 -2.1609  3.1703 -0.4667
   88SOL     OW  262   0.101   2.137   2.958  0.0863 -0.2382  0.4571
   88SOL    HW1  263   0.201   2.161   2.954 -0.0868  2.6321 -1.1788
   88SOL    HW2  264   0.081   2.064   2.890  0.5146  1.8768  1.2305
   89SOL     OW  265   1.162   0.866   0.420 -0.7205  0.1206  0.3094
   89SOL    HW1  266   1.101   0.808   0.473  0.9375 -1.6829 -0.1446
   89SOL    HW2  267   1.105   0.930   0.365 -1.6240 -1.1413  3.9186
   90SOL     OW  268   3.066   1.313   2.493  0.2995 -0.1193 -0.4807
   90SOL    HW1  269   2.979   1.369   2.489 -3.2926 -0.2560 -1.7759
   90SOL    HW2  270   0.029   1.362   2.546 -0.8145 -0.9503  0.3355
   91SOL     OW  271   1.629   0.356   1.179 -0.0872 -0.5000 -0.1745
   91SOL    HW1  272   1.626   0.410   1.268  0.9857 -0.1002  1.9645
   91SOL    HW2  273   1.707   0.286   1.182 -0.5427 -0.1744 -2.5323
   92SOL     OW  274   2.291   1.158   1.316  0.0098 -0.3709 -0.4248
   92SOL    HW1  275   2.193   1.181   1.298 -0.9451 -0.1853 -0.1515
   92SOL    HW2  276   2.325   1.109   1.232 -3.3144  0.5825  2.2594
   93SOL     OW  277   0.327   1.298   2.905 -0.4945  0.1998  0.2347
   93SOL    HW1  278   0.356   1.374   2.966 -0.2895  0.8432 -1.6226
   93SOL    HW2  279   0.351   1.326   2.805 -0.1359 -0.2306 -1.8515
   94SOL     OW  280   1.595   2.530   2.165 -0.0481  0.4044 -0.1079
   94SOL    HW1  281   1.566   2.435   2.165  0.3031 -2.6536  1.7057
   94SOL    HW2  282   1.658   2.552   2.091  0.1057 -0.7881  3.4361
   95SOL     OW  283   0.503   0.453   1.145  0.4892 -0.1165 -0.1297
   95SOL    HW1  284   0.602   0.437   1.131  0.0710 -2.8935  1.8514
   95SOL    HW2  285   0.447   0.420   1.066  0.2490  0.1948  0.1290
   96SOL     OW  286   2.668   3.025   1.293  0.1798  0.4417 -0.3250
   96SOL    HW1  287   2.654   2.923   1.299 -0.0668  1.1662 -1.4107
   96SOL    HW2  288   2.721   3.057   1.371 -1.5144 -1.6037 -0.4717
   97SOL     OW  289   2.496   0.809   1.525 -0.4438 -0.0153 -0.2311
   97SOL    HW1  290   2.567   0.875   1.483  3.5465  2.0816 -0.8070
   97SOL    HW2  291   2.493   0.808   1.626  0.4199 -1.0451 -0.6853
   98SOL     OW  292   2.305   2.657   1.430  0.0828  0.2042 -0.0217
   98SOL    HW1  293   2.263   2.740   1.465  1.6523 -4.0079 -1.3704
   98SOL    HW2  294   2.394   2.670   1.389  1.9446  2.0472  5.9070
   99SOL     OW  295   0.581   2.914   1.399 -0.1392 -0.6379 -0.9077
   99SOL    HW1  296   0.537   2.986   1.457 -2.1912 -0.7967  0.5295
   99SOL    HW2  297   0.642   2.955   1.328  1.3612  2.3893  0.9678
  100SOL     OW  298   2.200   0.240   2.300 -0.0281  0.1404 -0.6283
  100SOL    HW1  299   2.183   0.340   2.301  1.9334  0.1175  1.3413
  100SOL    HW2  300   2.198   0.202   2.393  0.5332 -0.1726  0.1653
  101SOL     OW  301   2.883   0.229   2.319 -0.6872 -0.0891 -0.1677
  101SOL    HW1  302   2.895   0.183   2.407 -0.8856 -2.6708 -0.8469
  101SOL    HW2  303   2.872   0.331   2.329 -0.8929 -1.1286  1.4175
  102SOL     OW  304   0.541   0.578   1.603  0.3094  0.0534 -0.0593
  102SOL    HW1  305   0.513   0.501   1.536 -4.4793 -0.8887  0.3059
  102SOL    HW2  306   0.505   0.664   1.573  1.5273 -2.2941 -0.1424
  103SOL     OW  307   0.979   0.730   2.840  0.1573  0.1043  0.4523
  103SOL    HW1  308   1.020   0.647   2.890  1.2031 -3.2949  1.6296
  103SOL    HW2  309   0.912   0.780   2.902 -0.2444  1.2853  1.1037
  104SOL     OW  310   0.261   0.688   2.169 -0.5028  0.3068  0.1484
  104SOL    HW1  311   0.174   0.660   2.218 -2.5394  2.9349 -0.7294
  104SOL    HW2  312   0.249   0.716   2.070  1.7512 -0.8102 -2.1283
  105SOL     OW  313   2.580   2.103   1.299  0.2541  0.4909 -0.3439
  105SOL    HW1  314   2.580   2.189   1.349  0.1897  2.8944 -0.8807
  105SOL    HW2  315   2.532   2.109   1.212  1.9924 -0.5372 -0.4305
  106SOL     OW  316   1.712   0.051   0.337  0.4254  0.9611 -0.6892
  106SOL    HW1  317   1.696   0.104   0.425 -0.0843  3.1001 -0.8555
  106SOL    HW2  318   1.647   0.081   0.261 -0.9640 -0.6867 -1.4940
  107SOL     OW  319   2.027   2.118   0.815 -0.1865  0.0274  0.0021
  107SOL    HW1  320   1.936   2.095   0.847  4.0064 -1.3425  0.6768
  107SOL    HW2  321   2.043   2.069   0.727 -2.3695 -0.2739 -0.7061
  108SOL     OW  322   0.143   2.312   1.205  0.0517  0.2081  0.1383
  108SOL    HW1  323   0.048   2.324   1.171  0.0201  1.6478 -1.3858
  108SOL    HW2  324   0.198   2.364   1.135 -0.8938  3.9264 -1.5259
  109SOL     OW  325   1.915   2.417   0.729  0.1661  0.1258  0.0069
  109SOL    HW1  326   1.886   2.488   0.663  0.2548 -0.9849  1.5439
  109SOL    HW2  327   1.835   2.382   0.779 -1.9229 -0.2010 -3.6087
  110SOL     OW  328   1.165   1.768   1.774 -0.3110  0.1859 -0.5255
  110SOL    HW1  329   1.078   1.809   1.811 -1.5879 -1.5598 -0.0816
  110SOL    HW2  330   1.148   1.713   1.689  1.6093 -0.2606 -1.9607
  111SOL     OW  331   1.873   2.356   1.708 -0.3023 -0.1937 -0.6501
  111SOL    HW1  332   1.783   2.358   1.670  3.8756 -0.1878  0.9317
  111SOL    HW2  333   1.914   2.449   1.702  0.8546  0.2809  0.6590
  112SOL     OW  334   1.770   2.069   2.980 -0.4148  0.5880  0.1520
  112SOL    HW1  335   1.671   2.089   2.978  1.9987  0.9103 -0.5157
  112SOL    HW2  336   1.815   2.113   3.058 -1.6694 -1.8864 -1.7616
  113SOL     OW  337   1.974   2.042   1.689  0.0561 -0.0658 -0.2447
  113SOL    HW1  338   2.011   1.967   1.630 -1.9884 -1.1070  1.4370
  113SOL    HW2  339   1.896   2.079   1.637 -3.5486  0.7449  1.1281
  114SOL     OW  340   3.091   1.356   1.696  0.2871 -0.5001 -0.0007
  114SOL    HW1  341   3.093   1.323   1.601 -0.4075 -0.5930  1.7936
  114SOL    HW2  342   0.019   1.282   1.752  0.2159  1.5248  0.2220
  115SOL     OW  343   0.344   0.978   0.461 -0.3102 -0.4083  0.4927
  115SOL    HW1  344   0.411   0.949   0.530 -0.3948  0.8838 -0.0123
  115SOL    HW2  345   0.249   0.983   0.493 -1.8114  0.7803  1.5283
  116SOL     OW  346   2.519   1.254   2.785  0.3287  0.4219  0.2359
  116SOL    HW1  347   2.495   1.323   2.708 -0.2323  0.2582 -0.2559
  116SOL    HW2  348   2.621   1.243   2.773 -0.4201 -0.2980  0.6582
  117SOL     OW  349   2.971   2.596   0.309  0.7235 -0.0126 -0.2626
  117SOL    HW1  350   2.901   2.668   0.283  0.5105 -1.5540 -0.0189
  117SOL    HW2  351   2.955   2.559   0.405 -2.0282 -1.3692  0.3977
  118SOL     OW  352   0.588   2.012   2.761  0.2460 -0.0786 -0.1591
  118SOL    HW1  353   0.551   2.045   2.674 -0.0781  0.5934  0.9940
  118SOL    HW2  354   0.529   2.047   2.836  0.5982  1.0973 -1.2153
  119SOL     OW  355   0.713   2.185   0.705 -0.3891  0.5507  0.3179
  119SOL    HW1  356   0.718   2.121   0.782  0.0143 -0.1972  1.6896
  119SOL    HW2  357   0.726   2.141   0.609  0.7291  1.4285 -1.4509
  120SOL     OW  358   1.322   0.384   0.401  0.0030 -0.3570 -0.5870
  120SOL    HW1  359   1.311   0.455   0.327 -2.3848 -0.5752 -1.8975
  120SOL    HW2  360   1.277   0.300   0.371  1.0044  0.2321  0.4526
  121SOL     OW  361   1.332   2.360   0.892 -0.5742  0.0477  0.3222
  121SOL    HW1  362   1.384   2.451   0.872  1.7163 -0.3810 -2.4855
  121SOL    HW2  363   1.234   2.373   0.898 -1.1978  1.9245  0.5463
  122SOL     OW  364   2.898   2.300   1.836 -0.4118  0.1767 -0.3192
  122SOL    HW1  365   2.954   2.328   1.918 -0.2902 -1.9826  3.5059
  122SOL    HW2  366   2.904   2.200   1.831 -0.2973  0.3949  3.8350
  123SOL     OW  367   0.896   1.647   0.801 -0.1111 -0.2223 -0.2840
  123SOL    HW1  368   0.884   1.706   0.885 -1.1728  2.4853  1.0533
  123SOL    HW2  369   0.867   1.701   0.723  0.1474  1.0398  2.5615
  124SOL     OW  370   0.076   0.580   3.032  0.1322 -0.0303  0.2774
  124SOL    HW1  371   3.108   0.538   3.084  2.0475 -0.2408 -0.8422
  124SOL    HW2  372   0.082   0.542   2.938 -0.8215 -1.2067 -0.3415
  125SOL     OW  373   0.388   0.183   0.162  0.5733  0.0113  0.0731
  125SOL    HW1  374   0.315   0.253   0.138 -0.8161 -0.4587 -1.1606
  125SOL    HW2  375   0.480   0.226   0.149  1.4279 -1.6005 -2.8830
  126SOL     OW  376   0.057   1.666   0.418  0.3023  0.1906 -0.2412
  126SOL    HW1  377   3.105   1.618   0.352  2.7292  1.1498  2.5918
  126SOL    HW2  378   3.107   1.692   0.503 -1.6042 -1.9971  0.3859
  127SOL     OW  379   1.035   2.534   1.599 -0.5717  0.2203  0.1338
  127SOL    HW1  380   0.936   2.524   1.624  2.7580 -3.7324 -0.0640
  127SOL    HW2  381   1.065   2.446   1.555 -2.1113 -0.3128  2.8448
  128SOL     OW  382   1.235   1.478   0.090  0.8702  0.6399 -0.2647
  128SOL    HW1  383   1.234   1.552   0.017  2.5526  3.4666 -3.0038
  128SOL    HW2  384   1.313   1.407   0.079  2.3626 -2.6112  0.2040
  129SOL     OW  385   1.891   2.151   1.144  0.0529 -0.1820  0.1793
  129SOL    HW1  386   1.864   2.100   1.058 -0.3750 -1.2855 -4.0870
  129SOL    HW2  387   1.807   2.162   1.207 -2.6141 -0.9288 -2.1344
  130SOL     OW  388   2.051   2.253   1.523  0.3848  0.5380  0.0254
  130SOL    HW1  389   2.060   2.178   1.590  0.1388  0.4319 -0.0191
  130SOL    HW2  390   1.977   2.311   1.560  0.1577 -1.1735 -1.1512
  131SOL     OW  391   2.603   2.482   2.456 -0.2638  0.0688  0.9909
  131SOL    HW1  392   2.551   2.544   2.510  1.9140 -4.1102  1.9016
  131SOL    HW2  393   2.566   2.390   2.476  3.8349  0.9712 -2.4597
  132SOL     OW  394   2.949   2.112   0.556 -0.1136  0.0327  0.5779
  132SOL    HW1  395   2.989   2.027   0.586 -1.6677  2.7971  1.5850
  132SOL    HW2  396   2.890   2.145   0.631  1.8757 -0.0227 -1.9540
  133SOL     OW  397   0.540   0.300   1.916 -0.1287 -0.3753 -0.2018
  133SOL    HW1  398   0.614   0.290   1.989  1.4489 -0.4592  1.4760
  133SOL    HW2  399   0.530   0.400   1.905  1.3249 -2.1069 -0.4175
  134SOL     OW  400   2.676   1.714   0.320  0.3283  0.0138  0.1619
  134SOL    HW1  401   2.735   1.761   0.244  0.4243 -0.0737 -0.4660
  134SOL    HW2  402   2.589   1.760   0.341  1.2813  0.1176  1.0551
  135SOL     OW  403   1.678   1.380   2.472  0.1727  0.6820 -0.0288
  135SOL    HW1  404   1.751   1.313   2.501  1.8371 -1.4414 -2.1579
  135SOL    HW2  405   1.592   1.322   2.455  0.1718  0.5874  0.0218
  136SOL     OW  406   2.704   1.710   1.156 -0.4120  0.6786  0.4562
  136SOL    HW1  407   2.762   1.782   1.193 -1.0934 -0.0430  0.2118
  136SOL    HW2  408   2.750   1.661   1.079 -1.7471  1.4527  0.8056
  137SOL     OW  409   2.823   1.574   0.964 -0.3656 -0.2665 -0.0215
  137SOL    HW1  410   2.774   1.558   0.875  1.0590  0.6405  0.0037
  137SOL    HW2  411   2.865   1.487   1.003  1.2548 -2.4369  2.2261
  138SOL     OW  412   2.998   0.397   0.803  0.0568  0.3961 -0.2158
  138SOL    HW1  413   3.036   0.304   0.827  0.6197 -1.4444  3.4744
  138SOL    HW2  414   2.931   0.434   0.873 -0.0364  1.9149  2.8497
  139SOL     OW  415   0.085   2.783   0.169  0.0840 -0.0658  0.1646
  139SOL    HW1  416   0.054   2.701   0.217 -1.2915 -0.6967 -2.6991
  139SOL    HW2  417   0.074   2.873   0.223  0.4027  1.3904  0.0096
  140SOL     OW  418   0.758   1.767   1.698 -0.1348  0.5282 -0.1142
  140SOL    HW1  419   0.736   1.738   1.796 -2.8968  0.6947 -0.8192
  140SOL    HW2  420   0.840   1.836   1.694  0.4473  0.0793 -2.3671
  141SOL     OW  421   1.525   1.726   0.872  0.2308 -0.0174  0.1547
  141SOL    HW1  422   1.536   1.625   0.856  1.2486 -1.2440  2.8464
  141SOL    HW2  423   1.539   1.786   0.796 -0.0097 -1.5151  3.1061
  142SOL     OW  424   1.072   0.632   0.892  1.0272 -0.4333  0.1864
  142SOL    HW1  425   1.039   0.539   0.870 -1.0207 -0.5278 -0.6569
  142SOL    HW2  426   0.995   0.693   0.924  0.4146 -0.1915  1.5611
  143SOL     OW  427   0.842   1.374   2.656 -0.6071 -0.3985  0.0792
  143SOL    HW1  428   0.935   1.407   2.684 -1.6960 -0.8002 -0.0423
  143SOL    HW2  429   0.851   1.274   2.637  1.4719  1.7603 -0.6383
  144SOL     OW  430   2.145   2.998   0.858 -0.2447  0.0439 -0.2229
  144SOL    HW1  431   2.103   2.906   0.832 -1.9621  1.2676 -1.5224
  144SOL    HW2  432   2.183   2.995   0.952 -1.4808  0.5184  0.0507
  145SOL     OW  433   2.370   0.506   2.708  0.1658 -0.1397 -0.8802
  145SOL    HW1  434   2.337   0.532   2.799 -0.4436 -0.8774 -1.2480
  145SOL    HW2  435   2.444   0.438   2.712 -2.0466 -1.7456  2.3796
  146SOL     OW  436   3.058   2.739   0.593 -0.1881  0.0431  0.3404
  146SOL    HW1  437   2.999   2.657   0.614 -1.2068 -1.4320  0.5756
  146SOL    HW2  438   3.063   2.800   0.676 -0.1272 -0.1459 -0.5284
  147SOL     OW  439   1.185   1.139   2.654  0.5099 -0.4032  0.1565
  147SOL    HW1  440   1.094   1.159   2.616  2.2366 -1.2158  0.4794
  147SOL    HW2  441   1.219   1.064   2.595 -1.5944 -0.8414 -1.6728
  148SOL     OW  442   1.257   0.511   2.522  0.2833 -0.3245  0.4182
  148SOL    HW1  443   1.159   0.528   2.495 -0.2605  0.6775  1.9371
  148SOL    HW2  444   1.323   0.500   2.443  1.7864  2.1724  0.9121
  149SOL     OW  445   2.021   0.074   2.153 -0.3075 -0.2506  0.0249
  149SOL    HW1  446   2.057   0.021   2.073 -0.4143 -2.1957 -0.0286
  149SOL    HW2  447   2.087   0.134   2.194 -3.2500 -3.4556  0.2431
  150SOL     OW  448   2.460   2.616   3.089 -0.5261 -0.1477  0.0501
  150SOL    HW1  449   2.373   2.671   3.085 -1.0921 -1.3891 -2.6706
  150SOL    HW2  450   2.544   2.674   3.078  2.0390 -0.8469 -2.7123
  151SOL     OW  451   0.578   1.690   3.051  0.6623 -0.3631  0.8097
  151SOL    HW1  452   0.651   1.656   0.003 -0.3876  1.1976  1.1746
  151SOL    HW2  453   0.611   1.730   2.964 -0.3324  0.5197  1.7639
  152SOL     OW  454   0.229   0.036   1.534  0.6867 -0.0994  0.1189
  152SOL    HW1  455   0.305   3.095   1.568 -0.5446  0.8104  0.0684
  152SOL    HW2  456   0.165   0.068   1.607  0.5279 -0.6318  1.7644
  153SOL     OW  457   2.511   0.046   1.559  0.3680  0.5611  0.1723
  153SOL    HW1  458   2.572   3.075   1.546  2.7105  1.4737 -1.1111
  153SOL    HW2  459   2.416   0.035   1.516 -2.0256 -0.9956 -2.2566
  154SOL     OW  460   2.534   0.224   2.666  0.1489 -0.1713  0.3179
  154SOL    HW1  461   2.569   0.249   2.755 -0.9865 -0.2560 -1.9250
  154SOL    HW2  462   2.604   0.195   2.592  0.8402 -2.0181  0.4023
  155SOL     OW  463   0.068   1.381   0.497 -0.0800 -0.0927 -0.1675
  155SOL    HW1  464   0.140   1.340   0.556  0.5734  1.3067 -0.9816
  155SOL    HW2  465   0.081   1.481   0.484  0.0607 -0.1820 -0.5694
  156SOL     OW  466   3.023   1.565   0.201 -0.4198 -0.5543 -0.2229
  156SOL    HW1  467   3.100   1.507   0.166 -0.4390  0.0276  1.4907
  156SOL    HW2  468   2.951   1.583   0.128 -0.7045 -1.7063 -1.0108
  157SOL     OW  469   0.568   0.161   0.652  0.4061 -0.5578  0.5066
  157SOL    HW1  470   0.518   0.092   0.708  1.7785 -1.4958  0.0734
  157SOL    HW2  471   0.649   0.116   0.610  2.0105  1.5490 -0.3271
  158SOL     OW  472   1.766   0.983   1.318 -0.3526  0.2418  0.0873
  158SOL    HW1  473   1.843   1.003   1.380  0.3357  1.3494 -0.0542
  158SOL    HW2  474   1.678   1.002   1.366 -0.5230 -1.3775  0.9103
  159SOL     OW  475   0.221   0.266   0.548 -0.2945  0.3612  0.4968
  159SOL    HW1  476   0.290   0.342   0.544  2.7123  1.0470  0.4126
  159SOL    HW2  477   0.165   0.265   0.461 -1.2424 -0.0128 -3.0009
  160SOL     OW  478   2.271   2.433   1.545 -0.5577 -0.0136  0.2687
  160SOL    HW1  479   2.186   2.376   1.534 -2.1719  0.0871 -0.1300
  160SOL    HW2  480   2.251   2.529   1.511  0.7649  0.0651 -2.9158
  161SOL     OW  481   3.082   0.868   2.741 -0.2506 -0.2504  0.7369
  161SOL    HW1  482   0.066   0.830   2.755  1.5567  1.1137 -0.7695
  161SOL    HW2  483   3.081   0.969   2.742 -1.8916 -0.8066 -0.2530
  162SOL     OW  484   0.724   3.059   1.844 -0.4719  0.0278  0.5801
  162SOL    HW1  485   0.781   0.025   1.806  1.9139  0.5204 -0.4632
  162SOL    HW2  486   0.628   3.066   1.807 -1.1129  1.9749 -2.9748
  163SOL     OW  487   2.680   0.074   2.482  0.0315 -0.3694 -0.3727
  163SOL    HW1  488   2.651   3.088   2.455  1.1811  1.6563 -1.4270
  163SOL    HW2  489   2.689   0.137   2.403  1.1138  0.1785  0.4844
  164SOL     OW  490   2.059   1.759   0.402 -0.0967  0.0123  0.0068
  164SOL    HW1  491   1.996   1.804   0.339  1.7580 -1.1998  1.1284
  164SOL    HW2  492   2.144   1.731   0.349  1.2375  1.6117  2.4648
  165SOL     OW  493   0.198   0.305   1.468  0.0804  0.1522 -0.2734
  165SOL    HW1  494   0.291   0.317   1.433  0.7907  0.3946  0.5323
  165SOL    HW2  495   0.191   0.209   1.497 -1.0303  1.8979  2.9501
  166SOL     OW  496   1.935   0.906   0.517  0.6680 -0.2536  0.0169
  166SOL    HW1  497   1.870   0.975   0.469 -1.3410  1.5648 -1.8104
  166SOL    HW2  498   1.878   0.826   0.550  1.1972 -0.7277 -3.8753
  167SOL     OW  499   2.448   0.732   3.040 -0.2292 -0.3041 -0.1668
  167SOL    HW1  500   2.480   0.645   3.090  1.2442  2.4344  1.8505
  167SOL    HW2  501   2.358   0.722   2.984  0.0501  0.8416 -1.5892
  168SOL     OW  502   1.784   0.235   2.770 -0.3123 -0.8952 -0.1185
  168SOL    HW1  503   1.775   0.237   2.871  1.1674  2.5494  2.8384
  168SOL    HW2  504   1.826   0.324   2.742 -0.7126  1.0186 -1.5369
  169SOL     OW  505   0.469   1.631   0.953 -0.2798  0.0837 -0.0625
  169SOL    HW1  506   0.407   1.676   0.889  0.3990  0.0041  0.7766
  169SOL    HW2  507   0.434   1.634   1.045  2.7843  0.5850 -2.8908
  170SOL     OW  508   2.861   1.295   1.071 -0.1455 -0.3835 -0.0843
  170SOL    HW1  509   2.810   1.245   1.144  0.2038  0.5343  1.7013
  170SOL    HW2  510   2.851   1.246   0.983 -2.1828 -4.5417 -0.0322
  171SOL     OW  511   2.593   1.775   1.988  0.6453  0.2848 -0.0343
  171SOL    HW1  512   2.594   1.762   1.889  0.0789 -1.0874 -0.6941
  171SOL    HW2  513   2.521   1.833   2.018  1.6719 -2.2560 -3.1007
  172SOL     OW  514   0.556   1.676   1.513 -0.0685 -0.2659 -0.3466
  172SOL    HW1  515   0.517   1.770   1.506  0.4233 -0.9722  0.1923
  172SOL    HW2  516   0.633   1.686   1.581 -0.8343  0.1668 -0.5002
  173SOL     OW  517   1.858   1.641   2.738  0.3033  0.0266 -0.1349
  173SOL    HW1  518   1.766   1.608   2.709  1.0706 -0.7388  0.0208
  173SOL    HW2  519   1.850   1.708   2.819  2.3994  2.1478  3.3845
  174SOL     OW  520   1.405   0.750   2.876 -0.9544 -0.0032  0.3436
  174SOL    HW1  521   1.406   0.654   2.917  1.1917 -0.6230  0.4298
  174SOL    HW2  522   1.319   0.774   2.822 -0.3046  1.0046 -0.0468
  175SOL     OW  523   1.194   1.520   1.135  0.3974 -0.2077 -0.3557
  175SOL    HW1  524   1.239   1.541   1.223  1.5839 -2.8551 -1.4703
  175SOL    HW2  525   1.133   1.434   1.143 -2.4554  0.8595 -2.6771
  176SOL     OW  526   1.181   0.141   0.381 -0.6687 -0.1949 -0.0306
  176SOL    HW1  527   1.082   0.156   0.374  0.7816  0.7772 -1.4210
  176SOL    HW2  528   1.215   0.079   0.309 -1.6097  0.0374  0.6696
  177SOL     OW  529   0.443   1.175   0.307 -0.1220 -0.4177  0.2813
  177SOL    HW1  530   0.419   1.086   0.349  1.2999  0.6341 -1.0583
  177SOL    HW2  531   0.533   1.212   0.343 -0.4352  0.2946 -0.3319
  178SOL     OW  532   2.746   2.040   2.431 -0.4169 -0.0668 -0.1515
  178SOL    HW1  533   2.820   2.085   2.482 -2.1570 -0.7835  1.3660
  178SOL    HW2  534   2.748   1.936   2.444  0.2646 -1.4120  0.2542
  179SOL     OW  535   2.632   2.923   2.480 -0.3073  0.3795 -0.1765
  179SOL    HW1  536   2.666   2.944   2.577 -0.8609  2.8460  1.9312
  179SOL    HW2  537   2.702   2.866   2.430  2.9756  1.8664 -0.7149
  180SOL     OW  538   2.092   0.618   0.845 -0.2362  0.7341  0.3832
  180SOL    HW1  539   2.187   0.638   0.875  0.1337 -0.1664  0.0013
  180SOL    HW2  540   2.081   0.674   0.762  1.0790  1.5918 -0.3363
  181SOL     OW  541   2.419   0.793   2.577 -0.1034 -0.3572  0.0623
  181SOL    HW1  542   2.418   0.697   2.613  0.5421 -0.3618  0.2590
  181SOL    HW2  543   2.481   0.848   2.637 -1.2809 -2.2238  3.9968
  182SOL     OW  544   3.000   2.346   2.080  0.0029  0.1227  0.0257
  182SOL    HW1  545   3.073   2.388   2.144  1.9242  0.0193  0.0794
  182SOL    HW2  546   2.932   2.286   2.129 -0.6210 -1.0797  2.1170
  183SOL     OW  547   1.905   0.724   1.969  0.3364 -0.5294 -0.3938
  183SOL    HW1  548   1.985   0.758   1.914 -1.3150 -0.4743  1.4685
  183SOL    HW2  549   1.833   0.799   1.954 -0.2459  3.7855 -1.2899
  184SOL     OW  550   0.097   1.576   1.167  0.2831 -0.1046  0.5749
  184SOL    HW1  551   0.093   1.635   1.083  0.4449  2.2366  1.4327
  184SOL    HW2  552   0.003   1.563   1.208  1.4225  2.0841  0.0819
  185SOL     OW  553   0.034   0.207   0.965 -0.6064  0.1393 -0.2011
  185SOL    HW1  554   3.050   0.169   0.998  0.2089 -0.4801  2.1602
  185SOL    HW2  555   0.108   0.197   1.034  0.7112 -4.0185  2.1488
  186SOL     OW  556   2.240   2.480   2.586 -0.2328 -0.1050 -0.5669
  186SOL    HW1  557   2.144   2.483   2.625 -0.8156 -0.5949 -0.5208
  186SOL    HW2  558   2.269   2.385   2.576 -3.6614  1.1674 -0.9466
  187SOL     OW  559   0.491   1.512   0.538 -0.0501 -0.2577  0.8950
  187SOL    HW1  560   0.413   1.445   0.541 -2.8833  2.1097  0.0035
  187SOL    HW2  561   0.552   1.508   0.621  0.9867  0.9781 -0.5908
  188SOL     OW  562   1.866   1.114   1.112  0.2122  0.2737 -1.0931
  188SOL    HW1  563   1.952   1.159   1.143 -0.4127 -1.8260 -1.1330
  188SOL    HW2  564   1.841   1.055   1.195 -0.1720 -1.3858  0.3435
  189SOL     OW  565   3.009   0.775   2.475 -0.5583  0.5397  0.0908
  189SOL    HW1  566   3.022   0.801   2.571 -0.5837 -2.5414  1.1185
  189SOL    HW2  567   2.914   0.770   2.443  3.0170  1.8180  0.6374
  190SOL     OW  568   2.412   0.521   2.206 -0.0146 -0.2978 -0.0550
  190SOL    HW1  569   2.318   0.512   2.240  1.5511 -2.1850 -1.9130
  190SOL    HW2  570   2.442   0.428   2.197 -1.6078  2.9538  1.3801
  191SOL     OW  571   1.033   0.200   2.356  0.5957 -0.4915 -0.4476
  191SOL    HW1  572   0.958   0.206   2.426  2.4999 -0.5672  2.7563
  191SOL    HW2  573   1.055   0.103   2.337 -1.2616 -1.0241  0.0047
  192SOL     OW  574   0.943   1.953   1.694 -0.1939  0.3084 -0.3120
  192SOL    HW1  575   0.997   1.970   1.608  0.2181 -2.2704 -0.2893
  192SOL    HW2  576   0.890   2.030   1.725  0.1213 -1.8547 -0.5584
  193SOL     OW  577   1.216   0.017   0.837  0.1432 -0.1950  0.1292
  193SOL    HW1  578   1.177   3.044   0.880  0.4523 -2.3098 -2.5655
  193SOL    HW2  579   1.221   0.011   0.737  0.6431 -1.3894  1.5518
  194SOL     OW  580   0.739   2.093   1.830  0.1016 -0.4390 -0.4960
  194SOL    HW1  581   0.645   2.096   1.790 -0.7443  0.9958 -1.1656
  194SOL    HW2  582   0.776   2.188   1.856  0.2126 -0.2799  1.7927
  195SOL     OW  583   1.449   0.486   0.803  0.5316 -0.3789  0.1909
  195SOL    HW1  584   1.471   0.402   0.855 -2.0301  0.6868 -1.7024
  195SOL    HW2  585   1.383   0.542   0.854  1.7251 -1.4028 -0.0573
  196SOL     OW  586   1.093   1.651   2.077  0.0553 -0.9013  0.1467
  196SOL    HW1  587   1.074   1.632   2.177  0.6623  0.1714 -0.7813
  196SOL    HW2  588   1.058   1.740   2.059  1.8208  1.6193  0.3900
  197SOL     OW  589   0.560   0.598   1.858 -0.4951  0.2158 -0.1872
  197SOL    HW1  590   0.643   0.654   1.870  0.2116  0.1971  0.1136
  197SOL    HW2  591   0.544   0.580   1.761 -0.4256 -1.2257  2.1593
  198SOL     OW  592   0.724   0.687   0.712  0.2069  0.7666  0.0850
  198SOL    HW1  593   0.813   0.727   0.679  0.0518 -1.3434  1.0047
  198SOL    HW2  594   0.715   0.594   0.676 -2.7970  0.2483  3.5199
  199SOL     OW  595   0.263   2.371   1.647 -0.2530 -0.2645  0.2468
  199SOL    HW1  596   0.228   2.312   1.572  3.4678 -0.0826 -0.4129
  199SOL    HW2  597   0.188   2.391   1.716  0.1614 -0.9684  0.5793
  200SOL     OW  598   1.738   1.571   2.268  0.5555  0.0529  0.8538
  200SOL    HW1  599   1.819   1.630   2.273 -0.8986 -0.2660  1.7598
  200SOL    HW2  600   1.736   1.507   2.345 -0.6083 -0.6431  0.5150
  201SOL     OW  601   0.625   2.398   1.751 -0.2139  0.3399 -0.1257
  201SOL    HW1  602   0.661   2.450   1.674  0.4386  1.1923  0.7638
  201SOL    HW2  603   0.577   2.309   1.725 -0.3779  0.3035 -0.8966
  202SOL     OW  604   1.336   2.818   2.944  0.4691 -0.2722 -0.3786
  202SOL    HW1  605   1.363   2.759   2.864  0.0593  1.2544  0.2351
  202SOL    HW2  606   1.236   2.846   2.934  0.1973 -0.5859 -1.4666
  203SOL     OW  607   1.599   0.317   2.362 -0.2428  0.3268  0.6865
  203SOL    HW1  608   1.681   0.286   2.306  2.7358  1.1602  0.4639
  203SOL    HW2  609   1.556   0.242   2.413 -1.0126 -0.8649  0.1455
  204SOL     OW  610   0.506   1.481   2.143  0.8129  0.2666  0.3413
  204SOL    HW1  611   0.596   1.485   2.190 -0.8886 -0.6181 -3.7291
  204SOL    HW2  612   0.506   1.393   2.092 -2.8019 -0.8779  0.7864
  205SOL     OW  613   2.126   0.975   2.820 -0.0442 -0.4200  0.2357
  205SOL    HW1  614   2.133   0.929   2.728 -0.6850  0.6917  0.1264
  205SOL    HW2  615   2.186   1.061   2.822  1.8552  1.1410  1.2575
  206SOL     OW  616   0.140   1.756   2.702  0.0244  0.1082 -0.0807
  206SOL    HW1  617   0.199   1.781   2.625 -1.2329  1.4696  3.0326
  206SOL    HW2  618   0.185   1.777   2.789 -0.5032 -3.7945  0.8738
  207SOL     OW  619   0.904   2.872   1.904  0.5621 -0.2228  0.1066
  207SOL    HW1  620   0.859   2.779   1.918 -0.9144  2.5853  3.0876
  207SOL    HW2  621   0.833   2.943   1.876  0.1682  3.0091 -1.0065
  208SOL     OW  622   0.699   2.438   1.302  0.6396  0.3905  0.0933
  208SOL    HW1  623   0.614   2.500   1.293 -0.7145  2.4496 -1.2879
  208SOL    HW2  624   0.745   2.439   1.210  1.6825 -0.6226  0.8654
  209SOL     OW  625   1.129   2.805   0.155 -0.1106 -0.3108  0.3869
  209SOL    HW1  626   1.218   2.836   0.189  2.0041  4.5665  0.7231
  209SOL    HW2  627   1.069   2.879   0.125  3.2033 -0.9981  1.6445
  210SOL     OW  628   2.786   1.586   1.488  0.4535  0.0288  0.1947
  210SOL    HW1  629   2.706   1.646   1.469  4.5729  0.8686  1.9937
  210SOL    HW2  630   2.761   1.490   1.505  0.4080  1.1881  0.9895
  211SOL     OW  631   0.795   0.538   2.144 -0.5367  0.1345  0.5908
  211SOL    HW1  632   0.725   0.600   2.184  1.9486 -0.0453  0.6570
  211SOL    HW2  633   0.885   0.584   2.126  0.9915  1.5021 -1.1703
  212SOL     OW  634   1.458   2.174   1.564  0.8733 -0.6092 -0.3197
  212SOL    HW1  635   1.435   2.224   1.472  0.0637  0.5807 -1.8021
  212SOL    HW2  636   1.427   2.074   1.555 -1.5549 -0.2411 -0.4557
  213SOL     OW  637   2.587   0.311   1.539 -0.5754 -0.3192 -0.4665
  213SOL    HW1  638   2.611   0.348   1.448  3.9870 -0.3274 -0.3359
  213SOL    HW2  639   2.558   0.215   1.533 -2.4065  0.0350 -0.6291
  214SOL     OW  640   1.007   2.342   1.918  0.6550 -0.2350  0.0122
  214SOL    HW1  641   1.093   2.380   1.950 -4.4962 -1.8153 -0.6159
  214SOL    HW2  642   1.031   2.270   1.848  0.3465  1.7685  0.4394
  215SOL     OW  643   2.794   1.958   1.248  0.2423 -0.3957  0.3095
  215SOL    HW1  644   2.710   2.009   1.284  1.0139  0.7373 -1.2392
  215SOL    HW2  645   2.871   1.953   1.310 -0.6173 -2.5967 -0.7894
  216SOL     OW  646   0.119   0.662   1.566 -0.0389  0.2731  0.5889
  216SOL    HW1  647   0.019   0.643   1.573  0.6906  1.0100  0.1821
  216SOL    HW2  648   0.164   0.637   1.477 -0.2728 -0.1754 -0.3722
  217SOL     OW  649   2.874   0.381   1.369 -0.2288 -0.2837 -0.0131
  217SOL    HW1  650   2.896   0.349   1.464  1.0837  0.2831  0.4859
  217SOL    HW2  651   2.953   0.429   1.327 -0.7125 -0.9776  0.6599
  218SOL     OW  652   1.260   2.046   1.248 -0.0846 -0.2622  0.3232
  218SOL    HW1  653   1.207   2.104   1.187  1.1490  1.0056  1.8990
  218SOL    HW2  654   1.212   2.029   1.340 -0.2404 -2.5759  0.4924
  219SOL     OW  655   1.370   2.411   0.238  0.1636 -0.0517 -0.5521
  219SOL    HW1  656   1.355   2.493   0.298 -1.9948 -0.5758  0.3196
  219SOL    HW2  657   1.429   2.345   0.286  1.2938  3.0538  0.6779
  220SOL     OW  658   1.750   2.383   0.281 -0.5514  0.6464  0.5281
  220SOL    HW1  659   1.685   2.305   0.299 -1.9741  0.7190  0.1060
  220SOL    HW2  660   1.805   2.362   0.198  1.0133  0.8298  0.9715
  221SOL     OW  661   2.912   2.080   1.002  0.2574  0.4917  0.4769
  221SOL    HW1  662   2.850   2.086   0.924  3.3460  2.8390  1.8390
  221SOL    HW2  663   2.868   2.023   1.071  0.5838  0.1003 -0.8621
  222SOL     OW  664   0.966   2.246   0.750 -0.0802  0.0393 -0.4135
  222SOL    HW1  665   1.017   2.168   0.793  1.1176  0.6392 -0.3003
  222SOL    HW2  666   0.871   2.217   0.724 -2.1188 -2.4625  0.8060
  223SOL     OW  667   1.137   2.622   2.285 -0.4043 -0.2516 -0.4281
  223SOL    HW1  668   1.227   2.672   2.262 -1.9624  2.4224 -0.9961
  223SOL    HW2  669   1.058   2.638   2.220  0.7818 -1.5006  0.3855
  224SOL     OW  670   2.732   1.026   0.924  0.9195 -0.2965 -0.3151
  224SOL    HW1  671   2.632   1.044   0.896 -0.6918 -0.2221  1.0643
  224SOL    HW2  672   2.733   0.925   0.938 -1.3493  0.1876 -0.9273
  225SOL     OW  673   2.289   1.305   1.047  0.0999  0.2312 -0.1137
  225SOL    HW1  674   2.275   1.337   0.951 -1.4799  0.4006 -1.6206
  225SOL    HW2  675   2.383   1.324   1.079 -1.2153 -0.6353 -2.6569
  226SOL     OW  676   1.158   2.620   0.534  0.4183 -0.1681 -0.7634
  226SOL    HW1  677   1.237   2.635   0.472  0.2084  0.2816  1.6371
  226SOL    HW2  678   1.128   2.524   0.541 -0.2848  2.5643  0.7686
  227SOL     OW  679   1.029   1.307   1.124 -0.2179 -0.1541  0.5748
  227SOL    HW1  680   1.038   1.247   1.209  0.8882  2.9819  1.9602
  227SOL    HW2  681   1.043   1.255   1.036  2.8581  1.1048 -0.5039
  228SOL     OW  682   1.390   0.449   2.265  0.0785  0.2612  0.6476
  228SOL    HW1  683   1.479   0.410   2.291 -3.4508  1.5698  0.7821
  228SOL    HW2  684   1.339   0.374   2.218  0.1851  0.2482 -2.1150
  229SOL     OW  685   2.533   0.999   3.076  0.0091 -0.6760 -0.3126
  229SOL    HW1  686   2.633   0.994   3.101  0.4216  0.6308  0.1733
  229SOL    HW2  687   2.491   0.908   3.068 -0.8808  1.3219  1.1231
  230SOL     OW  688   1.035   1.214   0.609 -0.1828 -0.0192 -0.4530
  230SOL    HW1  689   1.101   1.167   0.542 -1.3679 -0.2413 -0.7982
  230SOL    HW2  690   1.077   1.302   0.642 -1.5177 -2.0836 -0.3950
  231SOL     OW  691   2.359   2.882   2.414 -0.0183  0.1721 -0.2910
  231SOL    HW1  692   2.452   2.909   2.436 -1.7749  0.5414 -1.3414
  231SOL    HW2  693   2.327   2.920   2.328 -0.6189 -1.3602 -1.0537
  232SOL     OW  694   0.202   2.041   0.093  0.3860  0.0623  0.2770
  232SOL    HW1  695   0.262   2.077   0.168  0.3960 -1.3403 -0.9944
  232SOL    HW2  696   0.167   2.111   0.029  0.0959 -1.3146  1.0967
  233SOL     OW  697   1.634   2.562   2.427  0.1895 -0.1231  0.5888
  233SOL    HW1  698   1.634   2.526   2.331 -0.9888  1.9148  0.4643
  233SOL    HW2  699   1.734   2.570   2.461  1.6980  2.8632  0.0161
  234SOL     OW  700   1.040   1.360   1.923 -0.1172 -0.2319 -0.5264
  234SOL    HW1  701   1.014   1.457   1.940 -1.0285 -0.8916  0.8406
  234SOL    HW2  702   0.967   1.296   1.961 -0.7860 -3.0054 -1.7487
  235SOL     OW  703   0.485   2.150   1.755  0.3084  0.1093 -0.5485
  235SOL    HW1  704   0.458   2.110   1.846  1.7111  2.7913 -1.7341
  235SOL    HW2  705   0.412   2.141   1.690 -0.3347  2.4109  0.2516
  236SOL     OW  706   2.120   2.525   2.842 -0.0310  0.0563 -0.4787
  236SOL    HW1  707   2.043   2.477   2.798  1.8148  0.5524 -0.3331
  236SOL    HW2  708   2.157   2.465   2.918 -0.1032  0.4537  1.4325
  237SOL     OW  709   1.513   3.033   1.055  0.1803 -0.1126 -0.1021
  237SOL    HW1  710   1.465   3.059   0.967 -1.5260 -1.3379 -2.6529
  237SOL    HW2  711   1.487   3.095   1.131  0.5461 -2.8341  2.5380
  238SOL     OW  712   1.122   0.495   2.952  0.4650 -0.6525 -0.0557
  238SOL    HW1  713   1.223   0.475   2.952  0.1160  0.1021 -2.3722
  238SOL    HW2  714   1.073   0.408   2.936  0.8810 -0.3428 -0.1105
  239SOL     OW  715   0.616   0.039   2.122  0.2059 -0.0427  0.3586
  239SOL    HW1  716   0.634   3.106   2.032  0.1574 -1.1889 -2.0275
  239SOL    HW2  717   0.661   0.131   2.133  0.5616  0.4617  1.0907
  240SOL     OW  718   2.172   2.534   0.680 -0.1042  0.0589  0.3767
  240SOL    HW1  719   2.092   2.470   0.699  1.0808 -0.8034 -0.6121
  240SOL    HW2  720   2.167   2.572   0.587  0.4993 -0.1919  0.7099
  241SOL     OW  721   1.044   1.606   1.557  0.4635  0.1970 -0.4875
  241SOL    HW1  722   0.998   1.537   1.613  0.4000 -0.1104  2.3723
  241SOL    HW2  723   0.972   1.655   1.499  1.0924  1.8771  0.3815
  242SOL     OW  724   0.142   0.551   0.858 -0.3765 -0.3245  0.5649
  242SOL    HW1  725   0.111   0.637   0.906  1.5740  0.6517  1.5653
  242SOL    HW2  726   0.063   0.486   0.844 -1.7319 -0.7961  1.9041
  243SOL     OW  727   0.727   0.767   1.445 -0.4971 -0.8782  0.4143
  243SOL    HW1  728   0.767   0.833   1.376  0.4173 -2.2221  0.9211
  243SOL    HW2  729   0.633   0.783   1.467  2.5294 -1.2711 -0.9239
  244SOL     OW  730   1.345   0.604   0.215  0.2064 -0.0863  0.4313
  244SOL    HW1  731   1.368   0.680   0.275 -1.4546 -0.7803  0.6533
  244SOL    HW2  732   1.418   0.588   0.144 -1.3618  0.2564 -1.4491
  245SOL     OW  733   2.041   0.417   0.256 -0.6555  0.6722 -0.5682
  245SOL    HW1  734   2.006   0.322   0.237 -0.7367 -1.1768 -1.1660
  245SOL    HW2  735   2.141   0.415   0.241  0.6193 -0.0111  2.6135
  246SOL     OW  736   0.722   0.830   1.928 -0.1529  0.1651 -0.3685
  246SOL    HW1  737   0.662   0.899   1.877  2.6806  3.5157  1.2057
  246SOL    HW2  738   0.790   0.784   1.863 -0.2261 -0.4946 -0.7721
  247SOL     OW  739   0.386   0.037   2.258  0.6065  0.5333  0.1790
  247SOL    HW1  740   0.379   0.126   2.305  1.6005 -0.7202 -0.7176
  247SOL    HW2  741   0.488   0.022   2.239 -0.1928  1.3681 -4.4274
  248SOL     OW  742   2.933   1.614   2.043 -0.2716  0.0797  0.5132
  248SOL    HW1  743   2.900   1.673   1.967 -1.1119  1.4659  2.9742
  248SOL    HW2  744   2.969   1.671   2.121 -0.9682  1.5224  1.2550
  249SOL     OW  745   0.180   0.061   2.778 -0.2700  0.0638  0.1292
  249SOL    HW1  746   0.260   0.108   2.823  1.8408  0.2235  1.7655
  249SOL    HW2  747   0.213   3.088   2.731 -1.7882  1.8570  1.8323
  250SOL     OW  748   2.950   0.080   0.037 -0.9445 -0.4074 -0.1380
  250SOL    HW1  749   3.029   0.076   0.100  1.2014  0.1684 -0.8552
  250SOL    HW2  750   2.984   0.103   3.055 -2.9280 -1.5959  0.3558
  251SOL     OW  751   0.359   1.292   1.155 -0.2017  0.3913  0.3105
  251SOL    HW1  752   0.261   1.281   1.156  4.3123  3.4349  0.5438
  251SOL    HW2  753   0.385   1.340   1.070  1.3432 -2.2801 -2.1674
  252SOL     OW  754   1.531   2.913   1.844  0.2991 -0.3466  0.1453
  252SOL    HW1  755   1.534   3.000   1.794 -0.3868 -1.3318 -0.4870
  252SOL    HW2  756   1.600   2.897   1.913 -0.8751 -1.3548 -0.2289
  253SOL     OW  757   1.935   2.076   2.464 -0.0964  0.0906 -0.5095
  253SOL    HW1  758   1.982   2.146   2.409 -0.6422  0.3384  2.8932
  253SOL    HW2  759   1.897   2.112   2.550 -0.0288 -2.0347  1.4322
  254SOL     OW  760   0.504   1.591   1.889  0.1916 -0.0335  0.2694
  254SOL    HW1  761   0.591   1.642   1.891 -1.9911 -3.6030 -1.2502
  254SOL    HW2  762   0.486   1.560   1.985 -1.6939  0.8508  2.5574
  255SOL     OW  763   1.149   0.216   1.706 -0.3862 -0.3152  0.0921
  255SOL    HW1  764   1.176   0.281   1.783 -1.1863  2.1229 -0.1355
  255SOL    HW2  765   1.047   0.207   1.710 -1.3264  3.5383 -0.9334
  256SOL     OW  766   2.772   2.504   1.018 -0.1844  0.2770 -0.3496
  256SOL    HW1  767   2.710   2.488   1.096  0.1931 -1.0904  2.0205
  256SOL    HW2  768   2.727   2.466   0.934  3.1821  0.3070 -3.0101
  257SOL     OW  769   0.587   2.201   3.101 -0.2100 -0.0657  0.5851
  257SOL    HW1  770   0.669   2.244   3.062 -2.8332  0.6127 -0.3926
  257SOL    HW2  771   0.545   2.247   0.071 -1.4260 -3.4547  1.4376
  258SOL     OW  772   1.116   2.385   2.424 -0.8766 -0.7802 -0.1455
  258SOL    HW1  773   1.019   2.388   2.462  1.9312  0.1869 -0.5370
  258SOL    HW2  774   1.147   2.476   2.385  0.8200  2.2247 -1.6031
  259SOL     OW  775   1.082   1.763   2.713 -0.7955  0.0580  0.1826
  259SOL    HW1  776   1.061   1.860   2.708 -0.2413 -0.9195  1.0884
  259SOL    HW2  777   1.042   1.720   2.797  0.2547 -0.4231  0.2604
  260SOL     OW  778   2.426   1.075   2.376 -0.7063 -0.2850 -0.2076
  260SOL    HW1  779   2.362   1.145   2.338  0.3339 -1.0297 -0.3857
  260SOL    HW2  780   2.406   1.065   2.474  0.6017  0.1134  0.1009
  261SOL     OW  781   1.284   0.715   0.745 -0.2946  0.0419 -0.2025
  261SOL    HW1  782   1.216   0.707   0.818  1.0378 -0.7428 -3.0389
  261SOL    HW2  783   1.292   0.810   0.710  1.2119  1.2387  0.3785
  262SOL     OW  784   1.905   2.404   2.287  0.2247  0.3355 -0.1463
  262SOL    HW1  785   1.827   2.338   2.265 -1.7991  0.2669  0.1507
  262SOL    HW2  786   1.943   2.458   2.209 -0.9772  3.4260 -0.3368
  263SOL     OW  787   0.021   1.895   0.224 -0.3157  0.0351  0.0543
  263SOL    HW1  788   0.054   1.820   0.284  2.0281  1.8162  3.1788
  263SOL    HW2  789   0.097   1.942   0.172 -1.4274 -0.6467  0.1728
  264SOL     OW  790   0.351   2.033   0.890  0.3085  0.5666  0.0589
  264SOL    HW1  791   0.331   1.942   0.856  1.3008  2.3069  0.9610
  264SOL    HW2  792   0.300   2.050   0.976  2.0707  1.0019 -0.4403
  265SOL     OW  793   0.697   1.571   0.352  0.3230 -0.5007  0.2469
  265SOL    HW1  794   0.606   1.544   0.390  0.7176  0.1653 -0.8726
  265SOL    HW2  795   0.773   1.515   0.396  0.5998 -1.3652 -0.2532
  266SOL     OW  796   0.800   2.008   2.437 -0.0484 -0.4708 -0.1167
  266SOL    HW1  797   0.806   2.077   2.512 -1.4719  0.1242  1.8180
  266SOL    HW2  798   0.839   2.041   2.346 -1.5940 -1.5245  1.5256
  267SOL     OW  799   1.054   0.769   2.387  0.1037  0.3184 -0.4494
  267SOL    HW1  800   1.035   0.672   2.380 -0.0517  4.1401  1.4175
  267SOL    HW2  801   1.141   0.790   2.338  0.5684 -0.3426  0.0179
  268SOL     OW  802   0.378   0.918   2.966  0.5027  0.3143  0.4250
  268SOL    HW1  803   0.422   0.959   2.886 -0.0464  0.3568 -1.5854
  268SOL    HW2  804   0.392   0.976   3.049  0.5188 -0.1728 -0.9102
  269SOL     OW  805   2.327   2.610   2.370 -0.1363 -0.3612  0.0524
  269SOL    HW1  806   2.357   2.702   2.405 -0.0452 -0.9869  1.1668
  269SOL    HW2  807   2.269   2.560   2.440 -1.7323 -0.6408  1.5505
  270SOL     OW  808   1.398   1.442   2.486  0.2696 -0.5989 -0.0904
  270SOL    HW1  809   1.418   1.506   2.410  0.8974 -0.1380 -2.1490
  270SOL    HW2  810   1.377   1.500   2.564  3.0861 -0.4700 -4.2435
  271SOL     OW  811   0.377   0.182   2.977 -0.0674  0.3907 -0.4175
  271SOL    HW1  812   0.385   0.081   2.972 -0.7968  1.5987 -0.9548
  271SOL    HW2  813   0.297   0.214   3.031  3.8521 -1.8532  1.0908
  272SOL     OW  814   2.873   0.675   0.380  0.2478 -0.0369  0.5698
  272SOL    HW1  815   2.894   0.699   0.476  0.6452  1.1243  1.2199
  272SOL    HW2  816   2.776   0.703   0.356  0.9624  1.6802 -1.3905
  273SOL     OW  817   0.338   3.071   1.997 -0.3713 -0.0686  0.3993
  273SOL    HW1  818   0.364   3.090   2.095  0.3825  1.2635  1.9686
  273SOL    HW2  819   0.273   2.990   1.989  0.5536  0.4185  0.2954
  274SOL     OW  820   0.171   0.718   1.904  0.0234 -0.3868  0.4758
  274SOL    HW1  821   0.073   0.741   1.906 -1.0340  0.0420  1.2607
  274SOL    HW2  822   0.189   0.629   1.864  0.6854  0.5622 -0.0537
  275SOL     OW  823   1.133   1.809   0.591 -0.2676 -0.5752 -0.2142
  275SOL    HW1  824   1.155   1.795   0.689  0.8461  0.1375 -0.9872
  275SOL    HW2  825   1.220   1.827   0.540  0.3354 -0.9383  1.8910
  276SOL     OW  826   0.862   0.923   2.134  0.2086  0.0417  0.5857
  276SOL    HW1  827   0.818   0.865   2.202  1.8652  1.4884 -2.4244
  276SOL    HW2  828   0.825   0.886   2.048  1.3425  0.5682  2.6481
  277SOL     OW  829   1.257   2.550   1.778  0.4358 -0.2697  0.4907
  277SOL    HW1  830   1.174   2.549   1.717  0.9924  0.1691 -1.9003
  277SOL    HW2  831   1.237   2.504   1.868  0.3637 -0.9266 -1.7050
  278SOL     OW  832   1.938   2.888   1.887  0.9070 -0.1774  0.0474
  278SOL    HW1  833   1.853   2.884   1.945 -1.5264 -0.6253  2.4108
  278SOL    HW2  834   2.015   2.932   1.933 -0.8382 -1.4595  1.5985
  279SOL     OW  835   1.480   1.549   0.283 -0.2894 -0.0098  0.4754
  279SOL    HW1  836   1.425   1.527   0.367  1.2806 -0.5283  1.0829
  279SOL    HW2  837   1.479   1.473   0.212 -0.4342  0.0373 -2.8034
  280SOL     OW  838   0.802   1.612   0.093  0.1685  0.3011 -0.0509
  280SOL    HW1  839   0.895   1.567   0.097  1.0263  2.1818  1.2711
  280SOL    HW2  840   0.756   1.609   0.184 -0.5222 -2.9958  0.0223
  281SOL     OW  841   0.544   0.036   1.517 -0.3695  0.0618 -0.0598
  281SOL    HW1  842   0.513   0.062   1.614 -1.3672  1.6204 -0.3497
  281SOL    HW2  843   0.630   0.090   1.493  3.4991 -1.5605  1.7958
  282SOL     OW  844   0.197   2.393   0.561  0.4322  0.7169  0.1352
  282SOL    HW1  845   0.199   2.492   0.537 -1.8798  0.1901  0.2774
  282SOL    HW2  846   0.167   2.336   0.481  0.3211 -0.9710  2.1980
  283SOL     OW  847   1.671   2.249   2.214  0.2394 -0.1265  0.1040
  283SOL    HW1  848   1.707   2.244   2.118  0.1891  0.2612  0.3625
  283SOL    HW2  849   1.655   2.155   2.253 -2.5327 -1.2636  0.9627
  284SOL     OW  850   1.977   2.777   0.648 -0.3296  0.1359  0.5992
  284SOL    HW1  851   1.950   2.869   0.673  1.5982 -1.2360  1.9407
  284SOL    HW2  852   1.896   2.716   0.657 -0.5194 -0.8170 -1.2201
  285SOL     OW  853   0.310   2.406   2.410  0.3255 -0.2040 -0.1221
  285SOL    HW1  854   0.373   2.337   2.381 -3.4655  2.0237  0.2273
  285SOL    HW2  855   0.362   2.486   2.454  1.6379  2.4645 -2.6208
  286SOL     OW  856   3.085   2.852   0.836  0.5747  0.2328 -0.0713
  286SOL    HW1  857   3.084   2.923   0.913 -0.4236  0.6691  0.9169
  286SOL    HW2  858   3.079   2.758   0.879 -2.3301  0.7074  1.7361
  287SOL     OW  859   0.629   1.527   0.758  0.0002  0.0791  0.5978
  287SOL    HW1  860   0.573   1.577   0.829 -0.2335 -1.2182  0.6682
  287SOL    HW2  861   0.732   1.547   0.766  2.1698  0.2666  0.6486
  288SOL     OW  862   2.299   2.202   2.570 -0.3984 -0.1825 -0.1900
  288SOL    HW1  863   2.389   2.178   2.530 -0.1512 -0.2899  1.9830
  288SOL    HW2  864   2.220   2.199   2.509 -1.4867  0.9860  0.6064
  289SOL     OW  865   2.913   2.058   2.782 -0.1676  0.3024  0.6467
  289SOL    HW1  866   2.855   2.074   2.863  0.6878 -4.2884 -0.9051
  289SOL    HW2  867   2.933   1.958   2.769 -0.5140 -0.0684  0.1169
  290SOL     OW  868   1.395   1.821   1.285  0.5475 -0.3389 -0.3570
  290SOL    HW1  869   1.454   1.788   1.211 -1.8361 -0.9534 -1.9883
  290SOL    HW2  870   1.343   1.907   1.254 -1.2501  2.1836  0.2673
  291SOL     OW  871   1.495   1.190   2.981  0.4587  0.2270  0.3355
  291SOL    HW1  872   1.494   1.214   2.879  0.3916  0.2522 -0.8861
  291SOL    HW2  873   1.442   1.108   3.004 -0.3582  2.1524  0.9463
  292SOL     OW  874   1.161   1.653   0.294  0.2022 -0.4409 -0.7494
  292SOL    HW1  875   1.156   1.600   0.380 -0.2141 -0.1155  2.7241
  292SOL    HW2  876   1.197   1.590   0.221  1.7463  0.4578 -0.7228
  293SOL     OW  877   1.486   2.578   0.875  0.3994 -0.0695 -0.0324
  293SOL    HW1  878   1.459   2.636   0.957  0.3722  1.6077 -0.9429
  293SOL    HW2  879   1.543   2.643   0.821 -3.0082  1.7688 -0.9374
  294SOL     OW  880   2.158   1.339   3.017 -0.1191 -0.3522  0.3099
  294SOL    HW1  881   2.098   1.387   3.081 -1.9639  1.1453 -0.7638
  294SOL    HW2  882   2.245   1.309   3.061 -2.3711  0.6866  0.5620
  295SOL     OW  883   1.825   1.807   2.965 -0.4103 -0.2237 -0.0419
  295SOL    HW1  884   1.803   1.779   3.058  0.6634  2.8961 -0.3032
  295SOL    HW2  885   1.822   1.915   2.959  0.3489  1.4838  4.8438
  296SOL     OW  886   1.800   0.486   2.019 -0.1994  0.9840  0.1000
  296SOL    HW1  887   1.712   0.515   2.065  1.4670 -0.8083  1.6682
  296SOL    HW2  888   1.845   0.566   1.983 -2.5803 -0.5696  1.3264
  297SOL     OW  889   3.013   0.787   1.820 -0.1903 -0.3542  0.2011
  297SOL    HW1  890   2.924   0.829   1.853 -0.9551 -0.1675  2.7290
  297SOL    HW2  891   3.070   0.848   1.764 -1.9398  1.3425  1.0512
  298SOL     OW  892   1.173   2.104   2.108 -0.2950  0.2150 -0.1255
  298SOL    HW1  893   1.225   2.054   2.037  0.0449  0.5891 -1.4874
  298SOL    HW2  894   1.240   2.155   2.169  0.1608  0.2258 -1.2154
  299SOL     OW  895   1.269   0.104   2.734  0.7449  0.8727 -0.3448
  299SOL    HW1  896   1.340   0.157   2.688 -7.2406 -2.9838  1.4977
  299SOL    HW2  897   1.212   0.047   2.666  2.1656 -0.0902 -2.2134
  300SOL     OW  898   0.088   1.190   3.023  0.1285 -0.2953 -0.4687
  300SOL    HW1  899   0.098   1.126   3.101 -1.0452  0.3945 -0.9175
  300SOL    HW2  900   0.180   1.205   2.978  3.4733 -1.0190  0.1554
  301SOL     OW  901   1.948   0.855   2.402 -0.3589  0.4920  0.1212
  301SOL    HW1  902   1.938   0.767   2.349  1.7789 -1.0110 -3.3200
  301SOL    HW2  903   1.863   0.909   2.407  0.9585  1.6974 -1.8453
  302SOL     OW  904   2.561   1.705   2.639  0.3852 -0.4337  0.2931
  302SOL    HW1  905   2.555   1.604   2.640  1.0240  0.4255  0.0994
  302SOL    HW2  906   2.467   1.740   2.645  1.1321  0.6863  0.0158
  303SOL     OW  907   0.420   2.287   2.700  0.1135 -0.1011  0.0613
  303SOL    HW1  908   0.417   2.386   2.671 -2.7463  1.0871  1.0141
  303SOL    HW2  909   0.438   2.227   2.621 -1.6164  1.1618  0.8799
  304SOL     OW  910   2.937   0.982   1.302  0.1416 -0.4643 -0.0433
  304SOL    HW1  911   3.024   1.029   1.272  0.2502 -1.9476  0.4054
  304SOL    HW2  912   2.886   0.937   1.226 -0.3252  1.5287 -1.3715
  305SOL     OW  913   2.555   0.762   1.801 -0.2844 -0.2877  0.1927
  305SOL    HW1  914   2.622   0.706   1.856  0.5268  0.5631  1.1176
  305SOL    HW2  915   2.469   0.791   1.852 -1.3954  3.8323  1.3435
  306SOL     OW  916   2.263   1.137   1.772  0.4215  0.4531  0.4673
  306SOL    HW1  917   2.238   1.184   1.687  0.5650  0.0259  0.3821
  306SOL    HW2  918   2.348   1.192   1.808  2.8065 -2.3828  1.3695
  307SOL     OW  919   2.928   0.061   1.016 -0.0628 -0.3653 -0.1237
  307SOL    HW1  920   2.829   0.039   1.009  2.3539  1.3901  1.9862
  307SOL    HW2  921   2.987   3.087   1.031  0.4163 -0.0440 -0.3884
  308SOL     OW  922   0.093   1.887   1.797 -0.1439 -0.0719  0.1057
  308SOL    HW1  923   0.121   1.883   1.899 -0.6377  2.7794  1.4211
  308SOL    HW2  924   0.074   1.792   1.764  1.8157 -0.3880  2.5866
  309SOL     OW  925   2.527   2.341   1.458 -0.2492 -0.1251  0.1074
  309SOL    HW1  926   2.587   2.355   1.536  0.1064 -0.6834 -0.4868
  309SOL    HW2  927   2.428   2.358   1.477  3.0377  1.5713  0.5909
  310SOL     OW  928   2.094   1.516   2.809 -0.4841 -0.5101  0.1122
  310SOL    HW1  929   2.002   1.547   2.793 -1.7279  0.3912  3.2358
  310SOL    HW2  930   2.102   1.451   2.888  1.2397  1.9657 -1.5510
  311SOL     OW  931   1.739   1.218   3.053  0.2687  0.0755 -0.1156
  311SOL    HW1  932   1.635   1.195   3.037 -3.4311 -0.8359  1.0563
  311SOL    HW2  933   1.791   1.180   2.979 -0.6566  0.8532  3.5859
  312SOL     OW  934   1.295   2.269   2.261 -0.3208  0.0262 -0.2717
  312SOL    HW1  935   1.336   2.194   2.319 -0.1507  0.9515 -1.3993
  312SOL    HW2  936   1.225   2.319   2.322  1.2011  2.5515  2.2381
  313SOL     OW  937   0.334   0.386   0.958 -1.0299 -0.3050 -0.1979
  313SOL    HW1  938   0.259   0.444   0.924 -0.7796  0.2329  0.5629
  313SOL    HW2  939   0.292   0.313   1.015 -3.2496  1.1885  1.3198
  314SOL     OW  940   0.458   1.880   1.195  0.0623 -0.1445 -0.1756
  314SOL    HW1  941   0.399   1.953   1.157 -0.4712 -1.9542  1.0125
  314SOL    HW2  942   0.413   1.789   1.191  1.7836  3.4407  0.7950
  315SOL     OW  943   0.463   2.036   2.006 -0.5591 -0.0911  0.6786
  315SOL    HW1  944   0.454   2.098   2.089  1.3519 -0.8127 -0.2953
  315SOL    HW2  945   0.384   1.972   2.006 -0.1700 -2.6604 -0.6373
  316SOL     OW  946   0.350   2.306   0.778  0.1457  0.8393 -0.2182
  316SOL    HW1  947   0.367   2.205   0.784 -1.8844  0.3142  0.8287
  316SOL    HW2  948   0.284   2.326   0.701 -1.4131  0.5161 -0.7805
  317SOL     OW  949   1.841   0.187   1.010  0.2096  0.2152  0.0681
  317SOL    HW1  950   1.764   0.151   0.954  2.4880  0.2489  1.9178
  317SOL    HW2  951   1.867   0.285   0.983 -0.0768 -1.2170 -1.1466
  318SOL     OW  952   2.277   2.206   0.209  0.7609  0.4990  0.2220
  318SOL    HW1  953   2.253   2.182   0.113 -0.9825  2.9671 -1.5267
  318SOL    HW2  954   2.346   2.146   0.248  0.1331  2.1635 -0.7542
  319SOL     OW  955   1.294   1.696   3.038 -0.1701 -0.0140 -0.4069
  319SOL    HW1  956   1.228   1.770   3.016  0.2485  0.1135  1.8788
  319SOL    HW2  957   1.382   1.728   2.999  0.3979 -2.4293  1.4070
  320SOL     OW  958   0.452   2.670   2.378  0.4658  0.4596 -0.6249
  320SOL    HW1  959   0.517   2.600   2.347  0.5678 -2.3119  3.4810
  320SOL    HW2  960   0.400   2.710   2.303  0.7836  2.3306  0.8957
  321SOL     OW  961   1.110   2.653   2.588 -0.3493 -0.3944 -0.7516
  321SOL    HW1  962   1.196   2.616   2.632 -5.1126 -1.0171  1.6923
  321SOL    HW2  963   1.121   2.676   2.490  0.4449 -3.2355 -2.0243
  322SOL     OW  964   2.614   0.333   2.422  0.0785  0.2145 -0.2149
  322SOL    HW1  965   2.548   0.351   2.493  2.9134 -0.7588 -2.1455
  322SOL    HW2  966   2.691   0.402   2.415 -3.4033  0.3289 -2.6770
  323SOL     OW  967   2.956   1.160   0.811 -0.5794  0.0781 -0.2744
  323SOL    HW1  968   2.875   1.105   0.835 -0.1007  0.5113 -1.0769
  323SOL    HW2  969   3.044   1.111   0.822  1.7465  0.4128 -1.4055
  324SOL     OW  970   0.400   0.907   1.933 -0.9714 -0.3596  0.1363
  324SOL    HW1  971   0.457   0.877   2.016  1.0208  0.6476  4.1216
  324SOL    HW2  972   0.326   0.842   1.902  3.7622 -0.4595 -3.5030
  325SOL     OW  973   0.374   0.325   2.343  0.0175  0.5313 -0.2983
  325SOL    HW1  974   0.427   0.387   2.281 -0.2391 -0.3639  0.2838
  325SOL    HW2  975   0.280   0.314   2.312 -3.6030 -0.9406  1.4948
  326SOL     OW  976   2.108   2.404   0.233  0.1761 -0.1175  0.0394
  326SOL    HW1  977   2.117   2.467   0.315  1.1175  3.3282  0.3206
  326SOL    HW2  978   2.173   2.327   0.229  0.1658 -0.2447 -3.9547
  327SOL     OW  979   2.298   1.394   0.793 -0.0533  0.8389 -0.1830
  327SOL    HW1  980   2.398   1.414   0.780  2.9358 -0.1154 -1.6467
  327SOL    HW2  981   2.273   1.321   0.722 -2.1868 -1.1063 -2.8073
  328SOL     OW  982   2.979   1.809   2.247 -0.0572 -0.5524 -0.3270
  328SOL    HW1  983   2.916   1.794   2.326  0.8985 -2.2242  2.3499
  328SOL    HW2  984   3.047   1.882   2.259 -0.2863 -0.3671 -0.8408
  329SOL     OW  985   0.438   1.920   1.490  0.8447  0.2108 -0.8333
  329SOL    HW1  986   0.414   1.933   1.393  1.4722  1.0513  5.1101
  329SOL    HW2  987   0.368   1.966   1.543  3.2075  1.3543 -1.4114
  330SOL     OW  988   2.142   1.412   2.565  0.3779  0.3911  0.0541
  330SOL    HW1  989   2.136   1.442   2.665  0.8224 -0.6389 -0.1832
  330SOL    HW2  990   2.153   1.310   2.559 -0.3432 -1.3801  3.6455
  331SOL     OW  991   2.134   2.724   0.888  0.2929  0.6068 -0.1050
  331SOL    HW1  992   2.034   2.731   0.923 -1.7257  1.9933  0.0261
  331SOL    HW2  993   2.146   2.656   0.811  1.2621  0.8393  2.1359
  332SOL     OW  994   0.460   3.067   0.826 -0.2528 -0.0577  0.0058
  332SOL    HW1  995   0.366   3.046   0.790  1.5427  0.3262 -0.8511
  332SOL    HW2  996   0.517   2.985   0.823  0.7491  1.5816  0.1298
  333SOL     OW  997   2.109   2.247   2.357  0.5384 -0.2057  0.3180
  333SOL    HW1  998   2.196   2.283   2.312 -0.5152  1.0073  3.1312
  333SOL    HW2  999   2.034   2.304   2.322  2.2437  0.1234  0.5632
  334SOL     OW 1000   0.702   1.218   0.450  0.0848 -0.3781 -0.0942
  334SOL    HW1 1001   0.741   1.154   0.522 -0.3067 -3.3256  3.2141
  334SOL    HW2 1002   0.722   1.316   0.477  1.6360 -0.1425  0.8864
  335SOL     OW 1003   2.829   1.948   2.039 -0.4896  0.1811 -0.1281
  335SOL    HW1 1004   2.892   1.933   2.122  1.9358 -0.8847 -0.5138
  335SOL    HW2 1005   2.785   1.855   2.024 -0.4194  0.7909  0.0990
  336SOL     OW 1006   2.647   2.600   2.172  0.4435  0.4690  0.0166
  336SOL    HW1 1007   2.603   2.691   2.186  0.1910  0.3531 -1.2015
  336SOL    HW2 1008   2.620   2.535   2.246 -0.4194 -0.5206  0.8935
  337SOL     OW 1009   0.806   1.064   0.901 -0.0828 -0.0695  0.6638
  337SOL    HW1 1010   0.903   1.067   0.933 -1.8337 -0.5376 -2.6626
  337SOL    HW2 1011   0.765   1.155   0.906  0.4766  1.8712 -0.8423
  338SOL     OW 1012   1.029   1.720   1.079 -0.2072 -0.2663  0.2367
  338SOL    HW1 1013   1.092   1.650   1.111 -2.0207  1.6408 -3.1110
  338SOL    HW2 1014   0.936   1.690   1.091  0.0689 -1.0724  0.1407
  339SOL     OW 1015   0.103   1.635   1.708  0.2223  0.1383 -0.5176
  339SOL    HW1 1016   0.201   1.613   1.702  0.6762  1.7551 -1.5249
  339SOL    HW2 1017   0.044   1.554   1.717  1.2388  2.1096 -1.8188
  340SOL     OW 1018   1.082   2.934   1.635 -0.4081 -0.1775 -0.1769
  340SOL    HW1 1019   1.163   2.989   1.664  1.8299  0.4243  0.8550
  340SOL    HW2 1020   1.026   2.921   1.717 -0.6611  0.4104 -1.2193
  341SOL     OW 1021   1.612   1.740   1.136 -0.3088 -0.2218 -0.0515
  341SOL    HW1 1022   1.629   1.748   1.037 -0.8147  2.0471  0.8445
  341SOL    HW2 1023   1.668   1.816   1.179  0.3388  3.0735  2.9445
  342SOL     OW 1024   2.559   1.392   1.123  0.1124 -0.2202 -0.0023
  342SOL    HW1 1025   2.592   1.314   1.181 -0.4780  0.1596  0.3025
  342SOL    HW2 1026   2.604   1.481   1.143 -3.6373 -0.2380 -1.3728
  343SOL     OW 1027   2.563   0.552   1.410  0.2923 -0.2712 -0.3620
  343SOL    HW1 1028   2.531   0.623   1.476  0.6058  2.7793  0.7920
  343SOL    HW2 1029   2.510   0.552   1.326 -0.8955  3.1727  2.3842
  344SOL     OW 1030   1.844   3.014   0.728  0.1449 -0.1086 -0.4241
  344SOL    HW1 1031   1.763   3.064   0.767 -0.4499  0.0798 -1.1164
  344SOL    HW2 1032   1.924   3.073   0.739 -0.2868 -0.6694 -3.6359
  345SOL     OW 1033   0.755   2.989   2.303  0.0112 -0.0046 -0.0743
  345SOL    HW1 1034   0.734   3.032   2.393 -1.5574 -1.1107  0.2777
  345SOL    HW2 1035   0.684   3.011   2.230 -1.0337 -0.6650  1.5354
  346SOL     OW 1036   2.777   2.140   0.747  0.4357 -0.7115 -0.5890
  346SOL    HW1 1037   2.729   2.228   0.777 -0.0722  1.6505 -0.2848
  346SOL    HW2 1038   2.716   2.077   0.705  3.2547  2.1514  0.0509
  347SOL     OW 1039   2.013   0.052   1.594  0.0890  0.3042 -0.0900
  347SOL    HW1 1040   2.074   0.072   1.671 -0.8481  1.4507  1.6748
  347SOL    HW2 1041   1.945   3.085   1.618 -2.9084 -2.1419  1.8748
  348SOL     OW 1042   0.936   1.193   1.554 -0.2408 -0.0064 -0.2569
  348SOL    HW1 1043   0.915   1.123   1.621  0.1727 -0.0547  1.0402
  348SOL    HW2 1044   0.911   1.288   1.583  1.0879 -0.2572 -1.8781
  349SOL     OW 1045   2.493   0.418   1.764  0.1136  0.0211 -0.0410
  349SOL    HW1 1046   2.541   0.504   1.792  1.5734 -2.4101 -2.3628
  349SOL    HW2 1047   2.524   0.388   1.672  0.3937  0.5295 -0.4709
  350SOL     OW 1048   2.166   2.158   0.451  0.1798  0.5878 -0.4572
  350SOL    HW1 1049   2.072   2.194   0.440 -0.0602  0.7587 -0.3320
  350SOL    HW2 1050   2.208   2.154   0.355  1.2059  1.9954 -1.3655
  351SOL     OW 1051   1.006   0.487   2.393 -0.1477 -0.2019 -0.5393
  351SOL    HW1 1052   0.914   0.520   2.424 -0.8283 -0.5086  1.3293
  351SOL    HW2 1053   1.015   0.384   2.393  3.0860  1.7929  1.5221
  352SOL     OW 1054   2.302   2.544   1.814  0.1597  0.0983  0.1744
  352SOL    HW1 1055   2.271   2.490   1.897 -2.5644  1.8482  1.3010
  352SOL    HW2 1056   2.300   2.492   1.727 -1.0104  0.6025  1.3080
  353SOL     OW 1057   0.619   0.969   2.532  0.0403 -0.0100  0.4800
  353SOL    HW1 1058   0.546   0.897   2.525 -0.1919  0.2574  1.4079
  353SOL    HW2 1059   0.708   0.925   2.541 -2.3030  0.6551 -2.5367
  354SOL     OW 1060   0.403   2.568   2.641  0.0864 -0.0755 -0.0132
  354SOL    HW1 1061   0.441   2.633   2.579 -0.2053 -0.6675  1.6531
  354SOL    HW2 1062   0.328   2.611   2.689  2.9503 -1.7060 -0.9344
  355SOL     OW 1063   1.892   2.774   1.011  0.0217  0.4581 -0.2197
  355SOL    HW1 1064   1.918   2.821   1.096 -0.0283  0.2591  0.6577
  355SOL    HW2 1065   1.814   2.713   1.028 -0.0851  0.9616 -1.8893
  356SOL     OW 1066   2.629   0.763   0.350  0.2255  0.2796  0.2477
  356SOL    HW1 1067   2.625   0.853   0.303  0.3180 -2.5013  0.0189
  356SOL    HW2 1068   2.568   0.759   0.432  2.1082  0.0523  0.0256
  357SOL     OW 1069   0.117   0.111   1.767  0.2306  0.2487 -0.3228
  357SOL    HW1 1070   0.139   0.176   1.842  0.6745 -1.2394  1.2397
  357SOL    HW2 1071   0.057   0.043   1.806 -0.0241  2.6501  0.8530
  358SOL     OW 1072   0.032   1.695   0.931 -0.0781 -0.4752 -0.0507
  358SOL    HW1 1073   0.012   1.602   0.888 -0.3375  1.5759  0.2273
  358SOL    HW2 1074   3.063   1.757   0.913  1.4364 -1.3156  0.0851
  359SOL     OW 1075   2.712   0.221   0.115 -0.1461  0.1497 -0.9151
  359SOL    HW1 1076   2.787   0.168   0.065 -1.0082 -0.2754  1.3506
  359SOL    HW2 1077   2.752   0.281   0.183 -0.9707 -1.5238  1.5316
  360SOL     OW 1078   1.258   0.955   1.036 -0.2860  0.2829  0.1906
  360SOL    HW1 1079   1.359   0.989   1.033 -0.7226 -0.9998  0.8436
  360SOL    HW2 1080   1.231   0.909   1.122  0.6699 -0.7210  0.0203
  361SOL     OW 1081   2.690   2.751   1.335  0.2435 -0.3050 -0.0113
  361SOL    HW1 1082   2.790   2.727   1.316  0.6356 -1.4293  0.9357
  361SOL    HW2 1083   2.633   2.671   1.321 -0.6851  0.4625  2.8751
  362SOL     OW 1084   1.228   0.244   1.042  0.0487  0.2690  0.1121
  362SOL    HW1 1085   1.319   0.288   1.045  3.8838  1.6093  0.5692
  362SOL    HW2 1086   1.222   0.185   0.956  0.3866 -2.3520 -1.9868
  363SOL     OW 1087   2.030   1.465   0.702  0.0393  0.5236  0.0306
  363SOL    HW1 1088   2.123   1.485   0.727 -3.4979 -1.7130  1.4386
  363SOL    HW2 1089   2.001   1.369   0.729 -2.4420 -1.4837  0.4051
  364SOL     OW 1090   0.854   0.716   1.711 -0.0980  0.7729  0.4445
  364SOL    HW1 1091   0.941   0.675   1.684 -0.3157  2.3923  2.2349
  364SOL    HW2 1092   0.790   0.703   1.634 -0.6326  0.6138  0.8570
  365SOL     OW 1093   0.223   0.195   1.167 -0.3022  0.1378 -0.0203
  365SOL    HW1 1094   0.305   0.150   1.213  0.5695  0.2741 -1.0160
  365SOL    HW2 1095   0.145   0.175   1.224 -2.0579  2.0568 -3.1213
  366SOL     OW 1096   2.932   1.046   0.418  0.0478  0.3610  0.3443
  366SOL    HW1 1097   2.889   1.021   0.505 -0.5200  1.5280 -0.8590
  366SOL    HW2 1098   2.878   1.119   0.379  0.6362 -0.8826  0.9556
  367SOL     OW 1099   2.250   1.795   2.249 -0.5040 -0.1140 -0.1848
  367SOL    HW1 1100   2.221   1.779   2.346  0.3459  0.6071  1.7864
  367SOL    HW2 1101   2.295   1.884   2.235 -0.1857  0.8571  0.4805
  368SOL     OW 1102   2.550   1.840   0.952  0.0525  0.4426 -0.6077
  368SOL    HW1 1103   2.593   1.814   1.043 -0.3000 -0.6445  1.6690
  368SOL    HW2 1104   2.486   1.770   0.918  0.9780  1.6459  2.5428
  369SOL     OW 1105   2.187   0.401   2.947  0.0974  0.2959  0.2704
  369SOL    HW1 1106   2.127   0.428   3.022 -0.9464 -0.9121  2.6063
  369SOL    HW2 1107   2.222   0.304   2.963 -0.7826 -2.9066  2.3736
  370SOL     OW 1108   0.775   0.446   1.102  0.5466 -0.3049 -0.6547
  370SOL    HW1 1109   0.846   0.387   1.058  1.1852  1.2502 -0.6015
  370SOL    HW2 1110   0.789   0.535   1.055  0.0190  0.6733  1.1724
  371SOL     OW 1111   0.066   1.722   3.036 -0.0204  0.0384 -0.0466
  371SOL    HW1 1112   0.022   1.798   3.092 -1.2457 -0.1099 -2.0189
  371SOL    HW2 1113   0.154   1.753   3.000 -2.0626 -0.6598  2.2343
  372SOL     OW 1114   0.691   0.757   2.301  0.1859  0.0819 -0.3330
  372SOL    HW1 1115   0.718   0.695   2.380 -0.9868 -0.7357 -0.6781
  372SOL    HW2 1116   0.587   0.776   2.300 -1.8509  1.7760  0.1035
  373SOL     OW 1117   1.016   2.887   2.933 -0.1677 -0.0688  0.3557
  373SOL    HW1 1118   0.967   2.917   3.016  0.9673 -1.6512  1.2907
  373SOL    HW2 1119   1.009   2.953   2.852 -0.4902  0.2096  0.2868
  374SOL     OW 1120   1.100   1.900   0.235  0.0298  0.0648 -0.5268
  374SOL    HW1 1121   1.044   1.948   0.312 -0.3494  1.7236  1.2269
  374SOL    HW2 1122   1.123   1.800   0.250  2.3325 -0.8364  0.1527
  375SOL     OW 1123   1.029   0.672   2.099 -0.8636  0.0461 -0.1755
  375SOL    HW1 1124   0.992   0.767   2.091 -0.3923 -1.3832  1.6375
  375SOL    HW2 1125   1.117   0.673   2.147 -1.9549 -2.2992 -1.1762
  376SOL     OW 1126   3.081   2.675   1.934 -0.8148 -0.3741  0.8674
  376SOL    HW1 1127   3.007   2.661   2.001  0.2456 -1.6225 -0.8812
  376SOL    HW2 1128   0.046   2.733   1.969 -1.6412 -2.5052 -1.1237
  377SOL     OW 1129   2.625   1.675   2.915 -0.6513  0.1801 -0.4683
  377SOL    HW1 1130   2.599   1.694   2.822  0.3778 -0.6691  3.3499
  377SOL    HW2 1131   2.562   1.611   2.966  0.5032 -4.3711 -2.7525
  378SOL     OW 1132   2.245   0.142   2.972 -0.2845  0.4266 -0.0171
  378SOL    HW1 1133   2.187   0.059   2.956  1.2036 -2.0151 -0.2757
  378SOL    HW2 1134   2.286   0.140   3.066  0.4284  0.4761  0.9295
  379SOL     OW 1135   1.809   0.698   0.655 -0.1612  0.0348  0.7084
  379SOL    HW1 1136   1.775   0.711   0.750  0.0302 -1.1722 -0.2648
  379SOL    HW2 1137   1.871   0.620   0.647 -1.2910  1.0882  0.7966
  380SOL     OW 1138   2.467   2.108   1.793  0.6625  0.0561  0.0991
  380SOL    HW1 1139   2.373   2.117   1.837 -1.2217  1.4127  0.8469
  380SOL    HW2 1140   2.538   2.119   1.869  1.4922  1.9279  3.1341
  381SOL     OW 1141   2.438   1.369   2.543  0.3036  0.8209 -0.2319
  381SOL    HW1 1142   2.481   1.358   2.450  1.2538 -0.6278 -0.6524
  381SOL    HW2 1143   2.344   1.399   2.533 -0.0583  1.5233 -0.8467
  382SOL     OW 1144   2.932   2.681   2.663 -0.1867  0.4020  0.5283
  382SOL    HW1 1145   2.930   2.746   2.581  1.1192 -0.8681  0.8821
  382SOL    HW2 1146   2.845   2.628   2.673  0.6624 -0.4666 -0.7986
  383SOL     OW 1147   1.077   1.444   2.881  0.2730 -0.0150 -0.2922
  383SOL    HW1 1148   1.021   1.521   2.916  1.7398 -2.3442 -0.4159
  383SOL    HW2 1149   1.162   1.473   2.834 -0.1277 -0.9223 -0.9926
  384SOL     OW 1150   1.599   2.075   1.911  0.7295 -0.0694 -0.1639
  384SOL    HW1 1151   1.614   1.986   1.947 -0.4969  0.6041  0.9610
  384SOL    HW2 1152   1.682   2.135   1.930 -1.4714  1.1503  2.0841
  385SOL     OW 1153   1.770   2.600   0.581 -0.1750  0.1125 -0.0484
  385SOL    HW1 1154   1.716   2.663   0.645 -0.8961  0.9634  0.1192
  385SOL    HW2 1155   1.771   2.629   0.483 -0.0298 -1.5472  2.2554
  386SOL     OW 1156   2.042   1.295   0.456 -0.0946 -0.0277 -0.0882
  386SOL    HW1 1157   2.085   1.346   0.376  2.2651  2.3513 -0.2806
  386SOL    HW2 1158   2.015   1.359   0.528 -0.0342  0.4270 -1.0439
  387SOL     OW 1159   2.954   2.203   1.519  0.3125  0.0861  0.1685
  387SOL    HW1 1160   2.932   2.191   1.615 -2.1034  1.4827 -0.8811
  387SOL    HW2 1161   2.901   2.277   1.475  1.5961  1.1177  0.2992
  388SOL     OW 1162   0.066   0.944   1.638 -0.2624 -0.0346  0.0059
  388SOL    HW1 1163   0.084   1.015   1.569 -0.1263  0.8141  2.4926
  388SOL    HW2 1164   0.106   0.858   1.611 -0.7293  1.6677 -1.5061
  389SOL     OW 1165   1.817   0.359   3.027 -0.0931  0.6257 -0.3127
  389SOL    HW1 1166   1.837   0.268   3.065 -1.6087  1.8884 -0.6999
  389SOL    HW2 1167   1.875   0.433   3.075  1.3751  1.4810  2.3655
  390SOL     OW 1168   0.934   1.689   2.928 -0.6337  0.2261 -0.0991
  390SOL    HW1 1169   0.831   1.699   2.906 -1.8792 -1.6133 -0.4281
  390SOL    HW2 1170   0.970   1.757   2.992  0.3909  0.0320 -0.7113
  391SOL     OW 1171   1.112   2.198   3.005 -0.0714 -0.1323  0.0876
  391SOL    HW1 1172   1.132   2.180   3.103  0.2914 -0.6023 -0.9742
  391SOL    HW2 1173   1.077   2.295   2.992 -0.5872  0.5592  0.4036
  392SOL     OW 1174   0.086   2.492   2.217  0.4385 -0.4418 -0.5193
  392SOL    HW1 1175   0.119   2.581   2.182 -2.0104 -0.2913  0.8001
  392SOL    HW2 1176   0.097   2.497   2.322 -0.4968  3.1492  1.8291
  393SOL     OW 1177   1.538   2.195   0.313 -0.2754 -0.0463 -0.0213
  393SOL    HW1 1178   1.604   2.131   0.363 -1.2061  1.1951 -1.6376
  393SOL    HW2 1179   1.480   2.147   0.242  0.7152  2.7791 -0.8545
  394SOL     OW 1180   0.518   0.363   2.560 -0.0267  0.3398 -0.8243
  394SOL    HW1 1181   0.458   0.361   2.473 -2.8360 -0.7983 -2.4255
  394SOL    HW2 1182   0.514   0.451   2.609  0.0967 -0.6937 -2.1432
  395SOL     OW 1183   0.570   1.188   1.333  0.2464 -0.1709  0.2084
  395SOL    HW1 1184   0.602   1.272   1.382  0.6250  3.3106 -2.7039
  395SOL    HW2 1185   0.509   1.212   1.253  1.3764  3.0415  0.6853
  396SOL     OW 1186   1.845   1.172   2.561 -0.6122  0.1128  0.2601
  396SOL    HW1 1187   1.938   1.181   2.522  1.5257 -1.2337  1.6142
  396SOL    HW2 1188   1.852   1.174   2.665 -0.0862  0.5812  1.9653
  397SOL     OW 1189   0.541   0.399   0.126 -0.6338 -1.0931 -0.3176
  397SOL    HW1 1190   0.514   0.485   0.079 -1.1400 -2.6221 -1.7274
  397SOL    HW2 1191   0.530   0.415   0.226 -0.8631 -1.1111  3.1288
  398SOL     OW 1192   1.016   2.459   3.031 -0.2220 -0.0938  0.3749
  398SOL    HW1 1193   1.024   2.506   2.942 -1.9128 -1.4993 -2.0452
  398SOL    HW2 1194   1.090   2.494   3.095 -1.4344 -2.3122 -0.2274
  399SOL     OW 1195   1.829   2.233   1.975 -0.5010  0.0932  0.4486
  399SOL    HW1 1196   1.906   2.163   1.972 -2.5375 -0.3454 -0.3017
  399SOL    HW2 1197   1.829   2.291   1.887  0.4746  1.9416 -0.4590
  400SOL     OW 1198   1.967   1.120   1.472  0.1550  0.1268  0.3261
  400SOL    HW1 1199   1.895   1.192   1.462 -0.8723  0.6000  1.7887
  400SOL    HW2 1200   2.054   1.169   1.490  1.7145  2.2305  1.0465
  401SOL     OW 1201   1.431   1.141   0.818 -0.2266 -0.2948  0.6003
  401SOL    HW1 1202   1.396   1.237   0.824 -2.1391 -1.3323  0.0261
  401SOL    HW2 1203   1.479   1.101   0.899  1.3931  0.8849  1.4543
  402SOL     OW 1204   3.072   2.928   2.519  0.3024 -0.2125  0.1089
  402SOL    HW1 1205   3.084   2.921   2.623  2.0070  2.1067  4.1881
  402SOL    HW2 1206   0.028   2.997   2.477  0.3581  2.3372 -1.8947
  403SOL     OW 1207   2.483   1.969   1.561 -0.3267 -0.3613 -0.0631
  403SOL    HW1 1208   2.472   2.021   1.650 -0.9456  0.8029  0.2271
  403SOL    HW2 1209   2.487   2.034   1.488 -1.8869 -1.3070  0.5745
  404SOL     OW 1210   2.063   1.855   1.505 -0.0775  0.0486 -0.0502
  404SOL    HW1 1211   2.121   1.839   1.424  0.8921  0.4035  1.1605
  404SOL    HW2 1212   1.970   1.818   1.491  3.7651  1.7708  0.5653
  405SOL     OW 1213   2.622   0.360   2.890  0.3977 -0.4727 -0.1589
  405SOL    HW1 1214   2.638   0.321   2.981  1.8820 -2.6588 -0.4455
  405SOL    HW2 1215   2.696   0.421   2.859  0.7575  1.6654  0.5541
  406SOL     OW 1216   0.797   1.529   2.432  0.3442 -0.0528 -0.4728
  406SOL    HW1 1217   0.794   1.624   2.464  1.0397 -0.3246  2.2720
  406SOL    HW2 1218   0.797   1.458   2.508 -2.7224  0.3160 -0.2515
  407SOL     OW 1219   1.910   2.285   0.465 -0.2429 -0.0243 -0.2184
  407SOL    HW1 1220   1.901   2.318   0.563  1.3496 -0.6308 -1.1932
  407SOL    HW2 1221   1.860   2.350   0.406 -2.7338  0.6998  0.0063
  408SOL     OW 1222   0.218   3.028   0.736  0.1087 -0.2059  0.6627
  408SOL    HW1 1223   0.167   0.006   0.698 -2.1782  2.3484 -1.5164
  408SOL    HW2 1224   0.150   2.976   0.799  1.3721 -1.9200 -0.3180
  409SOL     OW 1225   2.357   1.665   0.919  0.2101 -0.6808 -0.6231
  409SOL    HW1 1226   2.289   1.729   0.878 -0.5538 -0.7574 -0.5558
  409SOL    HW2 1227   2.342   1.567   0.896 -0.0779  1.8899 -1.0683
  410SOL     OW 1228   2.269   2.206   2.850  0.2868  0.5293  0.0201
  410SOL    HW1 1229   2.329   2.277   2.891  2.6403  0.1109 -0.9270
  410SOL    HW2 1230   2.293   2.186   2.752 -0.5546  1.1220 -2.0393
  411SOL     OW 1231   0.287   2.880   0.496 -0.1909  0.3782 -0.1297
  411SOL    HW1 1232   0.368   2.912   0.444  0.2070 -2.0014  2.2999
  411SOL    HW2 1233   0.299   2.902   0.596  2.2022  1.3966  2.2816
  412SOL     OW 1234   1.360   2.645   0.358 -0.0248  0.2992  0.4834
  412SOL    HW1 1235   1.397   2.730   0.312 -2.5070  1.9296 -1.7608
  412SOL    HW2 1236   1.424   2.597   0.420 -3.1520 -3.0834  2.3573
  413SOL     OW 1237   2.146   0.525   2.318  0.2485  0.2111  0.3012
  413SOL    HW1 1238   2.065   0.565   2.270 -0.9126 -0.7714 -1.4304
  413SOL    HW2 1239   2.115   0.487   2.411 -1.9824 -2.2129 -0.8006
  414SOL     OW 1240   0.135   0.715   0.526  0.1566  0.6085 -0.1960
  414SOL    HW1 1241   0.145   0.682   0.430 -2.6547 -0.1661 -0.4048
  414SOL    HW2 1242   0.219   0.694   0.584  2.9816  1.3181  1.4590
  415SOL     OW 1243   0.072   1.195   1.482  0.0159  0.2813 -0.1330
  415SOL    HW1 1244   0.066   1.164   1.385  2.1840 -0.4904 -0.6588
  415SOL    HW2 1245   0.162   1.237   1.504 -0.1924 -0.7761  0.9644
  416SOL     OW 1246   0.291   3.049   0.174  0.3559  0.3562  0.2356
  416SOL    HW1 1247   0.324   0.037   0.162  0.3784 -0.6860 -0.8793
  416SOL    HW2 1248   0.361   3.007   0.233  0.7592  1.1996 -1.4699
  417SOL     OW 1249   1.911   0.334   0.700 -0.3186  0.0361 -0.1041
  417SOL    HW1 1250   1.983   0.262   0.707  0.2716 -0.4776  1.1597
  417SOL    HW2 1251   1.891   0.374   0.792 -0.9456 -0.9685  2.0330
  418SOL     OW 1252   0.481   0.605   2.678 -0.2130  0.3210  0.4584
  418SOL    HW1 1253   0.564   0.610   2.735 -1.3989  1.0053 -0.9530
  418SOL    HW2 1254   0.402   0.662   2.710 -2.1865  1.2737 -0.2838
  419SOL     OW 1255   0.424   1.154   0.743  0.1018 -0.4630 -0.2349
  419SOL    HW1 1256   0.463   1.061   0.715  2.4184 -3.9159 -0.0838
  419SOL    HW2 1257   0.443   1.177   0.839  0.3582 -0.8026  1.4277
  420SOL     OW 1258   2.193   1.855   0.835 -0.5238  0.6151 -0.0696
  420SOL    HW1 1259   2.181   1.880   0.735 -1.2787 -2.7977 -1.7126
  420SOL    HW2 1260   2.115   1.801   0.866  1.5369  0.4779 -1.1883
  421SOL     OW 1261   1.808   2.162   2.684  0.3220  0.3304 -0.5055
  421SOL    HW1 1262   1.829   2.146   2.781  1.0185  0.6818 -0.9549
  421SOL    HW2 1263   1.709   2.147   2.663  1.2287 -0.7446  0.0918
  422SOL     OW 1264   2.979   0.511   0.071  0.1823  0.1207 -0.0460
  422SOL    HW1 1265   2.901   0.571   0.036  4.0399 -0.1121  1.6100
  422SOL    HW2 1266   2.935   0.442   0.136 -0.2982 -2.0053  0.9595
  423SOL     OW 1267   1.848   1.888   0.715  0.5375  0.1191  0.3903
  423SOL    HW1 1268   1.877   1.810   0.773 -0.0418 -0.7947  4.0535
  423SOL    HW2 1269   1.915   1.908   0.639 -1.1413  0.0562  0.0373
  424SOL     OW 1270   0.279   1.279   1.637  0.1757 -0.0653 -0.4749
  424SOL    HW1 1271   0.314   1.372   1.668 -2.7517 -0.7668  2.4039
  424SOL    HW2 1272   0.223   1.230   1.709  0.5268 -0.3489 -1.2220
  425SOL     OW 1273   2.632   2.779   1.835  0.5016 -0.0309  0.0917
  425SOL    HW1 1274   2.613   2.679   1.852  0.4895 -0.3923 -1.1039
  425SOL    HW2 1275   2.598   2.835   1.917  0.7181 -0.7891 -2.9114
  426SOL     OW 1276   1.783   2.657   0.314  0.1056  0.2568  0.2705
  426SOL    HW1 1277   1.853   2.701   0.259  0.3573 -0.2753 -1.6307
  426SOL    HW2 1278   1.783   2.557   0.293 -1.4726 -2.4043 -1.8710
  427SOL     OW 1279   0.232   0.754   2.797  0.3112  0.1304 -0.0209
  427SOL    HW1 1280   0.278   0.811   2.867  1.3498 -0.3920  1.0075
  427SOL    HW2 1281   0.199   0.667   2.840 -0.2779 -2.1127  0.8721
  428SOL     OW 1282   1.992   0.826   3.052 -0.1147 -0.6740  0.2162
  428SOL    HW1 1283   1.911   0.885   3.065 -1.9366 -0.2725  1.4932
  428SOL    HW2 1284   2.052   0.864   2.980 -0.7777 -0.1800  0.9122
  429SOL     OW 1285   2.864   0.270   0.544  0.4116  0.5653  0.2665
  429SOL    HW1 1286   2.905   0.177   0.540  0.8839  0.4626  0.2292
  429SOL    HW2 1287   2.890   0.311   0.634 -0.0238 -0.5580 -0.1508
  430SOL     OW 1288   1.110   2.930   2.081  0.3492  0.2045  0.0908
  430SOL    HW1 1289   1.029   2.929   2.018 -1.0429 -0.0923 -0.4825
  430SOL    HW2 1290   1.173   2.857   2.054 -2.2015  2.5831  0.1147
  431SOL     OW 1291   0.112   1.860   1.284 -0.2394 -0.2182 -0.3248
  431SOL    HW1 1292   0.044   1.905   1.346 -0.0967  0.5923 -0.2122
  431SOL    HW2 1293   0.121   1.763   1.309  0.3337  0.9928  1.8144
  432SOL     OW 1294   2.172   2.912   1.585  0.1834  0.4029  0.0287
  432SOL    HW1 1295   2.204   2.998   1.535 -1.0939  0.1904 -0.9087
  432SOL    HW2 1296   2.082   2.881   1.551 -0.3832 -1.0154 -0.7427
  433SOL     OW 1297   1.182   2.201   0.158 -0.4285  0.2267  0.4092
  433SOL    HW1 1298   1.235   2.119   0.185 -2.0810  0.6268  1.2777
  433SOL    HW2 1299   1.197   2.280   0.221 -0.3521 -0.2580 -1.3902
  434SOL     OW 1300   2.895   2.461   2.409  0.2644  0.5796 -0.4135
  434SOL    HW1 1301   2.964   2.461   2.486  0.4186  2.6526  3.3871
  434SOL    HW2 1302   2.799   2.471   2.438  0.9724 -2.9232 -3.1656
  435SOL     OW 1303   0.510   0.888   0.665  0.1000  0.5909  0.3476
  435SOL    HW1 1304   0.463   0.806   0.695 -1.2620  1.6804  1.8813
  435SOL    HW2 1305   0.612   0.862   0.654  2.5722 -0.1116  0.0892
  436SOL     OW 1306   0.397   2.474   1.852  0.8150  0.8957 -0.0179
  436SOL    HW1 1307   0.335   2.433   1.779 -1.6663  1.0067 -2.1536
  436SOL    HW2 1308   0.493   2.458   1.827 -3.8855 -1.7832  1.3839
  437SOL     OW 1309   1.121   2.018   1.478  0.0980  0.1588 -0.0530
  437SOL    HW1 1310   1.092   2.112   1.498  2.0063 -2.3159 -2.9065
  437SOL    HW2 1311   1.188   1.986   1.547  0.1581 -1.8921  1.8395
  438SOL     OW 1312   0.020   2.142   0.351  0.4281 -0.5912  0.1471
  438SOL    HW1 1313   0.042   2.057   0.301  0.3358 -0.3937  3.3198
  438SOL    HW2 1314   3.088   2.120   0.445 -0.0570  0.1572  1.8503
  439SOL     OW 1315   0.423   0.082   1.279 -0.0607  0.1800  0.4720
  439SOL    HW1 1316   0.495   0.093   1.213 -0.5085  1.0690  1.1835
  439SOL    HW2 1317   0.458   0.055   1.371  1.7189 -0.1187 -0.9500
  440SOL     OW 1318   2.920   2.646   2.150 -0.3177  0.2685 -0.4174
  440SOL    HW1 1319   2.979   2.563   2.179  4.3369 -1.7607  0.6864
  440SOL    HW2 1320   2.823   2.624   2.137  0.3221  0.5380  0.4494
  441SOL     OW 1321   2.971   0.630   1.601  0.2780 -0.2680 -0.0256
  441SOL    HW1 1322   2.918   0.549   1.627  0.7678  2.0468  0.5732
  441SOL    HW2 1323   2.966   0.696   1.678 -0.6732  1.5038 -0.6061
  442SOL     OW 1324   1.880   2.364   0.041  0.0461  0.4651  0.1545
  442SOL    HW1 1325   1.960   2.429   0.031  0.6315  0.3089  0.3536
  442SOL    HW2 1326   1.818   2.381   3.070  0.1341 -0.2372 -2.0997
  443SOL     OW 1327   0.416   1.138   0.024 -0.0341 -0.0764 -0.4924
  443SOL    HW1 1328   0.393   1.154   0.125 -2.4564 -0.3008  0.7023
  443SOL    HW2 1329   0.373   1.209   3.075  3.3827  0.6683  3.2240
  444SOL     OW 1330   1.459   1.547   2.231  0.7758 -0.8183  0.0137
  444SOL    HW1 1331   1.558   1.558   2.207  0.9191  1.1054  0.7531
  444SOL    HW2 1332   1.403   1.506   2.157 -1.4667  0.4456  3.1267
  445SOL     OW 1333   0.279   2.434   1.013 -0.0579  0.0784 -0.2913
  445SOL    HW1 1334   0.313   2.524   1.028 -0.1346 -1.4321  0.9387
  445SOL    HW2 1335   0.316   2.383   0.935  0.3855 -0.4734  0.2388
  446SOL     OW 1336   2.319   1.434   1.368  0.4659  0.7351  0.3809
  446SOL    HW1 1337   2.322   1.337   1.336  1.0524  2.1531  0.0374
  446SOL    HW2 1338   2.322   1.505   1.299 -1.9169  2.1144 -0.6159
  447SOL     OW 1339   0.175   0.773   0.068  0.5091 -0.3053  0.3456
  447SOL    HW1 1340   0.154   0.872   0.062  0.7856  1.8494  0.5320
  447SOL    HW2 1341   0.113   0.710   0.011  0.4658  0.7050 -1.1944
  448SOL     OW 1342   1.442   2.288   1.843 -0.6269  0.1494 -0.3181
  448SOL    HW1 1343   1.436   2.282   1.744  0.3182 -0.7245  0.2758
  448SOL    HW2 1344   1.492   2.208   1.879  1.6317 -1.6514 -1.6083
  449SOL     OW 1345   1.117   1.264   0.285  0.3477 -0.2264 -0.1521
  449SOL    HW1 1346   1.056   1.201   0.232 -1.2750 -2.2244 -3.0521
  449SOL    HW2 1347   1.143   1.349   0.232 -1.3318 -0.1475 -1.1553
  450SOL     OW 1348   2.988   2.036   1.813  0.2817 -0.0238  0.1795
  450SOL    HW1 1349   3.081   2.004   1.810  0.8985 -0.5768 -1.2874
  450SOL    HW2 1350   2.934   1.988   1.884  1.7120 -1.2185 -0.9103
  451SOL     OW 1351   2.825   1.274   2.794  0.4068 -0.0736 -0.4743
  451SOL    HW1 1352   2.861   1.372   2.808  2.5705  0.3052  0.3352
  451SOL    HW2 1353   2.871   1.221   2.874  1.1598  1.4884 -2.3244
  452SOL     OW 1354   1.527   0.704   1.120  0.5869 -0.0446  0.6633
  452SOL    HW1 1355   1.434   0.661   1.100  0.5317 -2.5462 -0.3616
  452SOL    HW2 1356   1.543   0.700   1.221  1.7160 -0.4605 -2.4100
  453SOL     OW 1357   1.511   1.045   1.420  0.3685  0.6022  0.3979
  453SOL    HW1 1358   1.428   0.985   1.440 -2.3026 -0.5808  1.0906
  453SOL    HW2 1359   1.540   1.095   1.507 -0.1728  3.5149 -1.0820
  454SOL     OW 1360   0.083   0.973   0.521  0.6704  0.4405  0.1627
  454SOL    HW1 1361   0.117   0.877   0.510  0.7476 -1.9563  0.6615
  454SOL    HW2 1362   3.095   0.986   0.495  1.5034 -1.5357 -0.6181
  455SOL     OW 1363   2.349   2.706   1.042  0.1382 -0.2738  0.4587
  455SOL    HW1 1364   2.437   2.684   0.999 -2.5171  1.6757  2.3934
  455SOL    HW2 1365   2.280   2.710   0.969  1.4309 -1.6789 -1.8239
  456SOL     OW 1366   0.384   2.692   1.060 -0.6116  0.0539  0.1277
  456SOL    HW1 1367   0.398   2.674   1.160  0.9484 -0.0049 -0.3705
  456SOL    HW2 1368   0.343   2.785   1.042 -1.7844  1.3906 -0.5812
  457SOL     OW 1369   1.534   2.974   0.662  0.4925  0.1132 -0.3397
  457SOL    HW1 1370   1.433   2.982   0.646 -1.0642  2.1269  1.6838
  457SOL    HW2 1371   1.585   2.954   0.574  1.0649 -0.7316 -1.0840
  458SOL     OW 1372   2.721   0.269   1.162  0.0807  0.0859 -0.0166
  458SOL    HW1 1373   2.769   0.190   1.128 -2.4874 -0.2147  2.6446
  458SOL    HW2 1374   2.776   0.314   1.231 -0.7861  1.2997 -1.0937
  459SOL     OW 1375   2.217   0.686   2.890 -0.1740  0.3854  0.7814
  459SOL    HW1 1376   2.144   0.729   2.833 -0.4548  1.9939  0.1819
  459SOL    HW2 1377   2.181   0.598   2.926 -0.2480 -0.2167 -0.9201
  460SOL     OW 1378   2.692   2.587   2.747 -0.0328  0.2161  0.3374
  460SOL    HW1 1379   2.600   2.608   2.709  0.8629  1.0064 -0.7603
  460SOL    HW2 1380   2.706   2.631   2.834  0.9581  0.0051 -2.7115
  461SOL     OW 1381   0.503   1.932   0.354 -0.2690 -0.7243  0.6654
  461SOL    HW1 1382   0.583   1.975   0.402  1.1791  0.2510  1.0347
  461SOL    HW2 1383   0.468   1.848   0.404 -0.8504  2.2365  1.2325
  462SOL     OW 1384   2.359   2.367   0.845 -0.2601  0.1828 -0.3133
  462SOL    HW1 1385   2.295   2.307   0.895  1.6029 -1.3707 -1.7299
  462SOL    HW2 1386   2.306   2.446   0.811 -0.8159 -1.9862 -0.6462
  463SOL     OW 1387   3.003   0.632   0.642 -0.0829  0.3423  0.1533
  463SOL    HW1 1388   3.013   0.572   0.724  0.1169 -0.2017  0.2406
  463SOL    HW2 1389   3.097   0.656   0.605  0.4536 -0.6060 -0.6144
  464SOL     OW 1390   1.060   2.880   0.555 -0.1965  0.4597 -0.5601
  464SOL    HW1 1391   0.972   2.876   0.504  1.6459 -0.7429  2.8956
  464SOL    HW2 1392   1.109   2.792   0.538 -0.8709 -0.6710  0.9204
  465SOL     OW 1393   2.218   1.163   0.635  0.3068 -0.4037 -0.0124
  465SOL    HW1 1394   2.164   1.095   0.686  1.9887  3.1600 -0.0818
  465SOL    HW2 1395   2.158   1.204   0.561 -0.4149  0.0358 -1.3109
  466SOL     OW 1396   2.552   3.004   2.975 -0.2980  0.0635  0.5553
  466SOL    HW1 1397   2.506   3.056   2.902 -0.3426 -0.2522  0.9012
  466SOL    HW2 1398   2.480   2.987   3.049 -0.5627 -2.8915  3.4610
  467SOL     OW 1399   1.064   1.134   1.315 -0.1248  0.3846 -0.6070
  467SOL    HW1 1400   1.027   1.145   1.410 -0.8654 -2.0370 -1.5632
  467SOL    HW2 1401   1.101   1.042   1.293  0.8928 -0.7704 -0.4418
  468SOL     OW 1402   0.408   0.813   2.354 -0.1112 -0.7269 -0.0478
  468SOL    HW1 1403   0.361   0.759   2.279  0.6799 -1.8192  1.1642
  468SOL    HW2 1404   0.337   0.827   2.429  0.9504  0.3627  1.2678
  469SOL     OW 1405   0.612   2.868   2.960 -0.2491  0.4783 -0.4218
  469SOL    HW1 1406   0.629   2.779   2.912 -0.5767 -0.7611  0.6341
  469SOL    HW2 1407   0.637   2.864   3.059  4.0858  3.0458 -0.9136
  470SOL     OW 1408   2.254   1.195   2.789  0.1102 -0.3860  0.1514
  470SOL    HW1 1409   2.350   1.211   2.789  0.1284  0.9210  2.7098
  470SOL    HW2 1410   2.205   1.251   2.853  2.9759 -1.6629 -1.7029
  471SOL     OW 1411   2.774   1.095   2.588  0.0361 -0.6309  0.4414
  471SOL    HW1 1412   2.833   1.061   2.510 -1.5408  2.4348 -1.6195
  471SOL    HW2 1413   2.824   1.154   2.658  0.0847 -1.1898  0.8453
  472SOL     OW 1414   0.497   2.345   0.192  0.3369 -0.3110 -0.3417
  472SOL    HW1 1415   0.424   2.415   0.175 -1.9142 -1.1609  0.0262
  472SOL    HW2 1416   0.545   2.376   0.277 -0.1539  2.4893  1.6802
  473SOL     OW 1417   0.630   0.209   3.023 -0.1006  0.0954  0.1443
  473SOL    HW1 1418   0.529   0.217   2.998  0.0127 -0.2793 -1.1040
  473SOL    HW2 1419   0.646   0.281   3.094 -2.1057  2.7072  0.4561
  474SOL     OW 1420   1.676   0.569   2.365  0.0220 -0.8590  0.3426
  474SOL    HW1 1421   1.609   0.614   2.307  1.2497  0.3136  0.5693
  474SOL    HW2 1422   1.654   0.467   2.369 -0.6887  2.3544  0.9926
  475SOL     OW 1423   0.796   2.447   0.106  0.3517  0.3809  0.3033
  475SOL    HW1 1424   0.798   2.354   0.153 -0.9604  0.2616 -0.1030
  475SOL    HW2 1425   0.866   2.445   0.032 -2.1147  2.6698 -0.2902
  476SOL     OW 1426   0.412   1.025   1.015 -0.3112 -0.5930 -0.1059
  476SOL    HW1 1427   0.506   0.982   1.030  1.7994  0.1839  0.3302
  476SOL    HW2 1428   0.400   1.102   1.079  0.2348 -2.9398  0.5138
  477SOL     OW 1429   1.687   2.157   1.313 -0.7124  0.1494 -0.1321
  477SOL    HW1 1430   1.598   2.214   1.308 -0.8459  0.2280  0.3961
  477SOL    HW2 1431   1.710   2.138   1.409  0.9911 -0.5043  0.0641
  478SOL     OW 1432   0.812   1.479   2.170 -0.0313 -0.4249 -0.0829
  478SOL    HW1 1433   0.816   1.376   2.167  1.0185  0.2175  0.6665
  478SOL    HW2 1434   0.808   1.499   2.270 -0.2845 -2.2547  0.8366
  479SOL     OW 1435   0.263   2.948   1.068  0.1707 -0.0919  0.0836
  479SOL    HW1 1436   0.254   2.947   1.167  0.5641 -1.3030 -2.8382
  479SOL    HW2 1437   0.320   3.026   1.033 -0.8620  0.2409 -0.0183
  480SOL     OW 1438   2.747   2.783   0.205  0.3560 -1.0495 -0.5044
  480SOL    HW1 1439   2.681   2.823   0.269  2.3119 -0.4858 -2.1715
  480SOL    HW2 1440   2.744   2.832   0.119  1.5757 -1.0881  0.9970
  481SOL     OW 1441   3.084   2.964   1.079 -0.1834 -0.3400  0.6909
  481SOL    HW1 1442   0.078   2.948   1.065  0.7201  0.6209 -0.0566
  481SOL    HW2 1443   3.066   2.953   1.180  1.7849 -1.4880  0.7690
  482SOL     OW 1444   1.765   2.577   1.923 -0.1216 -0.1077 -0.1511
  482SOL    HW1 1445   1.839   2.567   1.852  0.8032 -0.7736 -0.0118
  482SOL    HW2 1446   1.677   2.587   1.872 -0.5037 -0.1259 -0.8102
  483SOL     OW 1447   0.648   1.449   2.805 -0.1360  0.0668  0.2814
  483SOL    HW1 1448   0.731   1.416   2.748  0.8343  0.6081 -1.5234
  483SOL    HW2 1449   0.652   1.550   2.826  0.6471  0.9044 -0.5885
  484SOL     OW 1450   1.087   1.581   2.358 -0.2804 -0.1141 -0.5179
  484SOL    HW1 1451   1.140   1.494   2.367 -2.2794 -0.0248  0.6121
  484SOL    HW2 1452   0.997   1.569   2.404 -0.9008 -2.4096 -1.4561
  485SOL     OW 1453   2.729   0.040   0.370 -0.0766  0.1606  0.0100
  485SOL    HW1 1454   2.798   0.064   0.439 -0.3736  0.3312 -3.8233
  485SOL    HW2 1455   2.741   0.107   0.293 -1.5719 -0.9141  1.2772
  486SOL     OW 1456   1.679   2.755   0.766 -0.0317 -0.3981  0.0115
  486SOL    HW1 1457   1.747   2.771   0.842  4.7758  1.8496  1.8713
  486SOL    HW2 1458   1.642   2.845   0.743  0.0119 -2.8684  0.2755
  487SOL     OW 1459   1.058   2.443   0.936  0.6945 -0.0619 -0.0543
  487SOL    HW1 1460   1.026   2.363   0.878  0.4537 -0.3155  0.4343
  487SOL    HW2 1461   1.062   2.530   0.882  1.5313 -2.5759  0.8666
  488SOL     OW 1462   2.196   1.199   0.199 -0.7723 -0.7210  0.0914
  488SOL    HW1 1463   2.193   1.298   0.222  1.5818 -0.8502 -1.1748
  488SOL    HW2 1464   2.107   1.160   0.166 -2.0414  0.6978  0.9526
  489SOL     OW 1465   1.385   2.786   1.070  0.8873 -0.3518  0.2589
  489SOL    HW1 1466   1.357   2.762   1.166  1.7612  2.4253  1.2663
  489SOL    HW2 1467   1.435   2.874   1.070 -1.6974  0.3204 -1.1513
  490SOL     OW 1468   0.832   1.185   0.207 -0.8941 -0.7989 -0.6665
  490SOL    HW1 1469   0.769   1.219   0.136  3.0655 -1.5434 -1.6213
  490SOL    HW2 1470   0.785   1.197   0.297 -0.5641  0.9061  0.7320
  491SOL     OW 1471   0.903   3.017   0.816 -0.4139  0.1658 -0.5864
  491SOL    HW1 1472   0.998   2.999   0.786  0.1291 -0.1690 -1.4427
  491SOL    HW2 1473   0.880   2.943   0.886  2.6539 -0.3039  2.0676
  492SOL     OW 1474   1.255   1.375   2.076  0.1123  0.2298 -0.0238
  492SOL    HW1 1475   1.162   1.375   2.032 -0.3701 -0.6362 -1.1503
  492SOL    HW2 1476   1.324   1.397   1.999  3.8817 -0.0495 -1.4116
  493SOL     OW 1477   0.257   2.500   0.214 -0.2171  0.0312  0.0186
  493SOL    HW1 1478   0.167   2.445   0.211 -1.9933  0.3118  1.9051
  493SOL    HW2 1479   0.248   2.544   0.302 -1.1246 -2.9876 -2.6234
  494SOL     OW 1480   2.229   1.667   0.203  0.0427  0.2797 -0.1995
  494SOL    HW1 1481   2.308   1.721   0.240 -0.2048 -0.2603 -0.4647
  494SOL    HW2 1482   2.211   1.695   0.107 -1.6391  0.6518  1.8374
  495SOL     OW 1483   2.942   1.131   3.020 -0.4654 -0.3520 -0.8810
  495SOL    HW1 1484   3.037   1.165   3.036 -0.8170  0.7129 -0.7432
  495SOL    HW2 1485   2.922   1.042   3.064 -0.2348 -1.0561 -1.0214
  496SOL     OW 1486   2.604   0.067   1.827  0.5420  0.1045 -0.0599
  496SOL    HW1 1487   2.523   0.035   1.883 -1.6282  1.4548  0.4893
  496SOL    HW2 1488   2.564   0.078   1.732 -0.1890  2.7315  3.2613
  497SOL     OW 1489   2.755   0.947   0.597  0.0508  0.2671 -0.3774
  497SOL    HW1 1490   2.737   0.856   0.640  0.2829 -2.0988 -0.5934
  497SOL    HW2 1491   2.682   1.014   0.616 -0.6808  0.7242  3.0380
  498SOL     OW 1492   3.034   2.156   2.572 -0.0185  0.4390 -0.7273
  498SOL    HW1 1493   2.979   2.133   2.657 -1.2099  1.7219 -0.0325
  498SOL    HW2 1494   3.067   2.253   2.575 -2.5049 -1.5866 -1.6548
  499SOL     OW 1495   0.746   2.103   0.447 -0.1525  0.3646  0.5409
  499SOL    HW1 1496   0.842   2.070   0.457  2.3843 -1.7843 -0.1326
  499SOL    HW2 1497   0.745   2.178   0.375 -3.8245 -0.1956  0.5702
  500SOL     OW 1498   0.882   0.190   2.578  0.0117  0.3760 -0.3605
  500SOL    HW1 1499   0.887   0.228   2.676 -0.0445 -2.6782  3.4974
  500SOL    HW2 1500   0.795   0.135   2.556 -2.0895 -2.3487 -1.8181
  501SOL     OW 1501   1.317   3.103   1.662  0.4116 -0.3439 -0.7725
  501SOL    HW1 1502   1.419   0.008   1.664 -0.5980  0.8694 -0.5894
  501SOL    HW2 1503   1.268   0.080   1.684 -1.8908 -1.1856  1.0053
  502SOL     OW 1504   0.033   0.349   2.052 -0.0203 -0.1079 -0.1712
  502SOL    HW1 1505   0.111   0.324   1.994 -1.9903  1.8632  0.4033
  502SOL    HW2 1506   0.068   0.333   2.149 -3.2031 -1.6282 -2.4738
  503SOL     OW 1507   2.428   1.571   2.119  0.3177  0.4007 -0.1508
  503SOL    HW1 1508   2.495   1.624   2.068  3.0634  2.8861 -0.5258
  503SOL    HW2 1509   2.390   1.634   2.186  4.3301 -2.2876 -1.2145
  504SOL     OW 1510   1.560   0.653   1.794 -0.0448  0.8471  0.4304
  504SOL    HW1 1511   1.517   0.558   1.793 -2.1546 -0.4244 -0.4433
  504SOL    HW2 1512   1.614   0.676   1.705  1.6986 -0.9825 -1.6820
  505SOL     OW 1513   2.892   1.041   1.551  0.5767  0.4579  0.2642
  505SOL    HW1 1514   2.989   1.058   1.578 -0.3941 -1.8880  0.2480
  505SOL    HW2 1515   2.888   1.011   1.454  1.2838 -0.7653 -0.8543
  506SOL     OW 1516   0.400   1.373   2.376  0.0097  0.2776 -0.1663
  506SOL    HW1 1517   0.313   1.324   2.351 -3.0943 -0.8988  0.2613
  506SOL    HW2 1518   0.436   1.447   2.316  1.1276  2.0638  0.6638
  507SOL     OW 1519   0.201   2.992   2.398 -0.2015 -0.2420  0.4407
  507SOL    HW1 1520   0.264   3.067   2.359  1.4486  1.1652 -0.9851
  507SOL    HW2 1521   0.192   2.917   2.334 -0.3836  0.2450  4.8850
  508SOL     OW 1522   1.153   0.870   1.283 -0.3033  0.0006 -0.0303
  508SOL    HW1 1523   1.219   0.870   1.362 -2.0093 -1.0475  1.8554
  508SOL    HW2 1524   1.121   0.777   1.269  0.0832  1.2339 -0.8782
  509SOL     OW 1525   0.831   1.664   1.357 -0.2065 -0.4816  0.3321
  509SOL    HW1 1526   0.737   1.683   1.388  1.3841 -3.6432 -2.4449
  509SOL    HW2 1527   0.884   1.749   1.339 -0.9922  1.8674 -1.8944
  510SOL     OW 1528   2.573   0.944   2.725 -0.1277  0.0450 -0.1341
  510SOL    HW1 1529   2.520   0.968   2.809 -1.2826  0.2769 -2.6772
  510SOL    HW2 1530   2.631   1.026   2.699  1.8475  1.1854  0.9811
  511SOL     OW 1531   0.376   1.615   1.213  0.4606  0.2450  0.4860
  511SOL    HW1 1532   0.278   1.599   1.194  0.8819  1.8455  1.1649
  511SOL    HW2 1533   0.400   1.577   1.307 -1.0335  1.6543  1.8193
  512SOL     OW 1534   2.635   2.387   0.799  0.1120  0.0910  0.0037
  512SOL    HW1 1535   2.654   2.435   0.709  1.6088  1.8680 -2.7865
  512SOL    HW2 1536   2.536   2.366   0.819 -0.0263 -0.2129 -2.9930
  513SOL     OW 1537   3.080   1.463   3.052 -0.3315  0.6331 -0.3465
  513SOL    HW1 1538   0.054   1.398   3.041 -0.0592 -1.1608 -1.6615
  513SOL    HW2 1539   0.009   1.559   3.042  0.5221 -0.3644 -0.1062
  514SOL     OW 1540   0.383   2.155   2.939 -0.5371 -0.1432  0.2213
  514SOL    HW1 1541   0.402   2.203   2.849  1.8829  1.6336 -1.7251
  514SOL    HW2 1542   0.463   2.180   3.002  2.7922 -1.5767  0.4914
  515SOL     OW 1543   1.727   1.463   2.016  0.6986  0.0261 -0.4204
  515SOL    HW1 1544   1.750   1.367   2.001  1.0896  0.3438  1.9787
  515SOL    HW2 1545   1.747   1.483   2.112 -3.8327  2.2597 -1.0081
  516SOL     OW 1546   2.224   2.077   3.067  0.2021  0.0934 -0.5882
  516SOL    HW1 1547   2.219   2.122   2.977  1.0698  0.1375 -0.4113
  516SOL    HW2 1548   2.292   2.002   3.051  0.6778 -3.3475 -1.3036
  517SOL     OW 1549   1.545   1.124   0.374  0.1373  0.8480  0.3225
  517SOL    HW1 1550   1.609   1.075   0.441  0.4356 -1.9836 -1.0028
  517SOL    HW2 1551   1.526   1.070   0.287 -1.1201 -2.5088 -0.8872
  518SOL     OW 1552   2.293   2.836   1.851  0.1707  0.0782  0.1517
  518SOL    HW1 1553   2.289   2.738   1.831 -1.3431 -1.5100  0.7476
  518SOL    HW2 1554   2.280   2.885   1.760  0.5585  3.3465 -2.0151
  519SOL     OW 1555   1.651   2.434   1.552 -0.2001 -0.2336 -0.3057
  519SOL    HW1 1556   1.585   2.437   1.474 -1.6212  0.0738  1.0293
  519SOL    HW2 1557   1.616   2.496   1.627 -0.5286  1.7093  0.7320
  520SOL     OW 1558   2.453   2.640   2.640 -0.0767 -0.1101  0.3105
  520SOL    HW1 1559   2.412   2.733   2.659 -0.6186  0.5744  2.1858
  520SOL    HW2 1560   2.379   2.568   2.621 -2.1181 -2.4374 -3.7393
  521SOL     OW 1561   0.046   1.201   2.084 -0.7246  0.3285  0.2000
  521SOL    HW1 1562   3.073   1.249   2.121  0.5468  3.7244  0.7354
  521SOL    HW2 1563   0.124   1.210   2.150 -1.3455 -4.3938  1.4027
  522SOL     OW 1564   0.878   0.180   1.800 -0.5304 -0.4776 -0.2357
  522SOL    HW1 1565   0.939   0.229   1.862 -0.6810  0.7709  2.3457
  522SOL    HW2 1566   0.812   0.252   1.766  0.0442  0.6316  0.1453
  523SOL     OW 1567   0.620   2.360   0.885  0.8859 -0.1940  0.5915
  523SOL    HW1 1568   0.665   2.305   0.813 -0.9769  0.9504  0.8231
  523SOL    HW2 1569   0.519   2.353   0.866 -1.8973  0.8957 -1.8592
  524SOL     OW 1570   1.511   2.438   0.497  0.7409  0.0084  0.0509
  524SOL    HW1 1571   1.613   2.449   0.483 -1.4311  0.0084  0.0242
  524SOL    HW2 1572   1.490   2.374   0.575 -0.2112 -1.7065  0.7360
  525SOL     OW 1573   2.299   0.804   1.334  0.0894 -0.5962  0.6970
  525SOL    HW1 1574   2.373   0.809   1.401 -2.1523 -0.8122 -2.2589
  525SOL    HW2 1575   2.292   0.888   1.279  1.3086 -1.0351 -1.0188
  526SOL     OW 1576   1.044   2.639   0.780  0.0068 -0.1503  0.7430
  526SOL    HW1 1577   0.946   2.651   0.750 -3.2957 -1.0941 -1.5896
  526SOL    HW2 1578   1.103   2.621   0.699 -3.1677  0.4640 -0.4956
  527SOL     OW 1579   2.360   2.161   0.647 -0.1449  0.2027  0.0789
  527SOL    HW1 1580   2.376   2.246   0.701 -0.3593  1.4982  2.8412
  527SOL    HW2 1581   2.287   2.172   0.570 -0.4844  0.4528 -2.2245
  528SOL     OW 1582   2.194   0.627   0.412 -0.4944 -0.4930 -0.4785
  528SOL    HW1 1583   2.170   0.707   0.353 -1.0545 -0.5893 -1.5485
  528SOL    HW2 1584   2.119   0.594   0.472  1.6602 -2.3717  0.7104
  529SOL     OW 1585   1.199   1.336   2.330 -0.3308  0.3119  0.5763
  529SOL    HW1 1586   1.270   1.355   2.400 -0.5018 -0.5544 -1.3432
  529SOL    HW2 1587   1.229   1.361   2.233 -0.5099 -2.4159  0.8286
  530SOL     OW 1588   2.567   0.579   0.167  0.5604  0.5550 -0.4457
  530SOL    HW1 1589   2.644   0.596   0.104 -1.7798 -2.0126  0.4401
  530SOL    HW2 1590   2.579   0.640   0.247  2.0819 -1.4485  0.6127
  531SOL     OW 1591   0.964   0.942   0.224  0.8329  0.3469  0.1026
  531SOL    HW1 1592   0.908   1.031   0.216  2.8589  1.1880 -1.1989
  531SOL    HW2 1593   1.013   0.926   0.133  2.5966  1.0635 -2.4151
  532SOL     OW 1594   1.714   0.227   0.552 -0.5033  0.4832  0.0539
  532SOL    HW1 1595   1.804   0.262   0.591  1.2557 -0.5720 -0.7589
  532SOL    HW2 1596   1.636   0.293   0.566 -0.2244 -1.3375 -0.2418
  533SOL     OW 1597   1.368   1.080   2.073 -0.3236  0.2017  0.0169
  533SOL    HW1 1598   1.303   1.148   2.105  0.0440 -4.5714  1.0319
  533SOL    HW2 1599   1.333   1.023   1.998  1.4469 -0.4718  2.0498
  534SOL     OW 1600   2.187   0.165   2.561  0.3641 -0.3040 -0.2690
  534SOL    HW1 1601   2.173   0.262   2.580  1.4492 -1.0528  1.6585
  534SOL    HW2 1602   2.254   0.124   2.626  1.7091  0.0561 -0.7160
  535SOL     OW 1603   0.513   2.988   0.336 -0.3523  0.6027  0.3720
  535SOL    HW1 1604   0.572   3.047   0.389  0.7584  0.6815  0.0846
  535SOL    HW2 1605   0.557   2.959   0.249 -2.2818  3.2918 -1.9858
  536SOL     OW 1606   0.826   2.824   0.993  0.6343 -0.5014  0.3403
  536SOL    HW1 1607   0.762   2.753   0.949  0.2238 -0.9164  0.1511
  536SOL    HW2 1608   0.869   2.780   1.075  0.0083  0.5158  0.1493
  537SOL     OW 1609   1.509   1.011   1.141  0.4699  0.7126 -0.0927
  537SOL    HW1 1610   1.569   0.930   1.133  0.5889 -1.1155 -0.9270
  537SOL    HW2 1611   1.499   1.026   1.244  0.8604  2.1777 -1.6260
  538SOL     OW 1612   2.651   2.291   0.348  0.0111  0.4833 -0.0788
  538SOL    HW1 1613   2.743   2.256   0.328 -0.6279  0.3649 -1.7030
  538SOL    HW2 1614   2.644   2.381   0.304 -0.2376  0.6073 -2.5066
  539SOL     OW 1615   2.656   2.188   0.067  0.1112 -0.2828 -0.1723
  539SOL    HW1 1616   2.598   2.102   0.066 -0.9637 -1.4152  0.0123
  539SOL    HW2 1617   2.687   2.209   0.158 -0.6542  0.5387  2.3286
  540SOL     OW 1618   0.243   2.735   1.498 -0.2469 -0.9001  0.3726
  540SOL    HW1 1619   0.170   2.667   1.480 -0.6177 -0.1615 -0.6861
  540SOL    HW2 1620   0.224   2.813   1.437 -1.5769 -1.0384  0.6322
  541SOL     OW 1621   2.458   2.829   2.078  0.0529  0.5941  0.2685
  541SOL    HW1 1622   2.455   2.925   2.119  0.3725  0.7998 -1.2037
  541SOL    HW2 1623   2.390   2.819   2.003 -2.5149  2.4193 -0.8861
  542SOL     OW 1624   2.818   0.500   2.358 -0.6126  0.5117 -0.1999
  542SOL    HW1 1625   2.798   0.585   2.404 -1.6204 -2.0772  0.0802
  542SOL    HW2 1626   2.874   0.515   2.269  2.2554  3.6387  2.8114
  543SOL     OW 1627   1.030   0.311   0.711  0.2486  0.0749 -0.0310
  543SOL    HW1 1628   1.078   0.390   0.662 -1.2441  0.9996 -1.3796
  543SOL    HW2 1629   0.986   0.254   0.640  0.1400  1.9532  2.2860
  544SOL     OW 1630   3.007   2.601   0.920 -0.1946  0.0993 -0.2164
  544SOL    HW1 1631   3.055   2.524   0.873 -1.5481  0.4113 -0.8037
  544SOL    HW2 1632   2.922   2.571   0.970  0.0865  1.0499 -0.1234
  545SOL     OW 1633   1.037   2.029   0.900 -0.3257 -0.6359 -0.1224
  545SOL    HW1 1634   0.965   1.985   0.845 -1.1957  3.3991  2.4065
  545SOL    HW2 1635   1.129   1.988   0.877  3.3732  0.3595 -0.1279
  546SOL     OW 1636   2.150   0.167   1.804  0.1205  0.4719 -0.2816
  546SOL    HW1 1637   2.081   0.245   1.819  2.1537 -1.1900  0.0637
  546SOL    HW2 1638   2.234   0.176   1.855  1.7043 -0.4828 -0.9959
  547SOL     OW 1639   0.112   0.325   2.312 -0.1879  0.0492  0.6096
  547SOL    HW1 1640   0.104   0.423   2.353  0.9226  0.9300  2.8569
  547SOL    HW2 1641   0.106   0.257   2.387 -1.4207 -0.8534  0.6573
  548SOL     OW 1642   2.141   1.830   2.516  0.4029 -0.3016  0.1836
  548SOL    HW1 1643   2.065   1.762   2.504 -0.0379  0.1310 -0.6603
  548SOL    HW2 1644   2.107   1.924   2.503 -1.7417 -4.3811 -0.1355
  549SOL     OW 1645   0.025   0.761   0.961  0.5607 -0.6919  0.3057
  549SOL    HW1 1646   0.018   0.847   0.902 -0.4481 -0.9233  0.9428
  549SOL    HW2 1647   3.049   0.741   1.022 -2.2875  0.7450  0.0446
  550SOL     OW 1648   1.651   1.301   0.647  0.0057  0.1631 -1.0881
  550SOL    HW1 1649   1.617   1.206   0.648  1.2852  1.4928  2.1857
  550SOL    HW2 1650   1.668   1.329   0.549  1.4334  1.2338 -0.2702
  551SOL     OW 1651   1.147   0.132   1.280  0.3266 -0.3106 -0.1580
  551SOL    HW1 1652   1.106   0.042   1.301  1.6306 -1.8902  2.6082
  551SOL    HW2 1653   1.148   0.166   1.181 -2.0697  0.1417 -0.7515
  552SOL     OW 1654   2.584   2.547   1.921  0.3696  0.6318 -0.1123
  552SOL    HW1 1655   2.493   2.502   1.909  0.0651 -4.3328  0.9868
  552SOL    HW2 1656   2.611   2.562   2.021  1.8539  0.9113 -1.2877
  553SOL     OW 1657   3.017   0.067   2.863  0.0292 -0.1241  0.1421
  553SOL    HW1 1658   3.012   3.074   2.867 -0.1087  1.7838  0.5867
  553SOL    HW2 1659   0.003   0.098   2.839  0.0066  0.3082 -0.5560
  554SOL     OW 1660   1.083   2.757   1.439  0.5008  1.3131  0.7148
  554SOL    HW1 1661   1.037   2.675   1.482 -0.3402  2.3370  1.6899
  554SOL    HW2 1662   1.092   2.828   1.513  2.3957 -1.4530  1.9246
  555SOL     OW 1663   2.609   2.906   1.577  0.2954  0.0441 -0.1107
  555SOL    HW1 1664   2.584   2.855   1.664 -0.0317 -0.6756  0.4300
  555SOL    HW2 1665   2.664   2.843   1.516  0.6773 -1.5154 -1.7929
  556SOL     OW 1666   1.051   0.217   2.912 -0.6166 -0.5490  0.0534
  556SOL    HW1 1667   1.116   0.177   2.847 -2.9258  0.2048  1.9487
  556SOL    HW2 1668   1.077   0.176   3.001 -2.3972  0.8163  0.1147
  557SOL     OW 1669   0.275   1.828   2.476 -0.1996 -0.2128  0.2544
  557SOL    HW1 1670   0.304   1.765   2.399  1.7443 -0.5040 -2.5228
  557SOL    HW2 1671   0.219   1.906   2.433 -1.9164 -3.0235 -0.3733
  558SOL     OW 1672   2.111   1.170   2.487 -0.0166 -0.0545  0.4166
  558SOL    HW1 1673   2.152   1.180   2.390  3.0187 -2.3144 -2.8161
  558SOL    HW2 1674   2.137   1.079   2.518 -1.7495  1.0233 -4.1093
  559SOL     OW 1675   2.416   1.998   2.126  0.3948  0.3702  0.4170
  559SOL    HW1 1676   2.493   2.063   2.138  0.5307  3.1131  1.0220
  559SOL    HW2 1677   2.344   2.040   2.070  1.8818 -0.3002 -1.0518
  560SOL     OW 1678   0.037   0.594   2.306  0.1113  0.1657  0.7248
  560SOL    HW1 1679   3.094   0.652   2.372  1.1231 -0.7886 -0.1711
  560SOL    HW2 1680   3.086   0.569   2.226 -3.5570 -0.3247 -1.2482
  561SOL     OW 1681   0.580   0.319   0.419 -0.4367 -0.5078  0.1412
  561SOL    HW1 1682   0.540   0.266   0.495  2.1668 -0.2992  1.5178
  561SOL    HW2 1683   0.548   0.417   0.420 -0.0014  1.0153 -1.4770
  562SOL     OW 1684   0.864   1.428   1.666  0.0489  0.7147  0.4862
  562SOL    HW1 1685   0.777   1.440   1.611 -0.8699 -2.1275 -0.2789
  562SOL    HW2 1686   0.855   1.457   1.759  0.4445  1.3820  0.7846
  563SOL     OW 1687   1.502   2.774   0.043 -0.2533 -0.0760 -0.5978
  563SOL    HW1 1688   1.467   2.791   0.136  0.2564  0.7369  0.4257
  563SOL    HW2 1689   1.431   2.776   3.083  1.0815  0.2501  0.8229
  564SOL     OW 1690   0.036   1.946   0.680  0.4137  0.8173 -0.0041
  564SOL    HW1 1691   0.099   1.965   0.597  0.8677  3.7204  0.4022
  564SOL    HW2 1692   0.069   2.000   0.760 -0.1514 -1.5799 -2.9632
  565SOL     OW 1693   0.464   2.212   2.261 -0.6175 -0.2045  0.2696
  565SOL    HW1 1694   0.398   2.261   2.204 -0.1233 -0.6960 -1.9210
  565SOL    HW2 1695   0.550   2.268   2.272  1.8493  1.8277  0.9267
  566SOL     OW 1696   1.385   2.707   2.199  0.5259 -0.4795 -0.1081
  566SOL    HW1 1697   1.463   2.635   2.201  1.7910 -3.4976  1.6881
  566SOL    HW2 1698   1.353   2.732   2.102 -2.8812  1.5194  0.5996
  567SOL     OW 1699   2.193   2.235   1.015  0.3878 -0.4246 -0.1062
  567SOL    HW1 1700   2.123   2.207   0.946 -0.9213 -3.3837  2.8336
  567SOL    HW2 1701   2.191   2.183   1.101  0.1598 -2.4488 -0.4890
  568SOL     OW 1702   2.105   0.840   0.276 -0.0384  0.2623 -0.8357
  568SOL    HW1 1703   2.096   0.906   0.199 -0.6762  2.1210  0.5327
  568SOL    HW2 1704   2.051   0.875   0.356  0.3919  2.4253  0.9833
  569SOL     OW 1705   0.014   1.146   2.750  0.0688 -0.1244 -0.6984
  569SOL    HW1 1706   3.069   1.224   2.711 -0.7584 -0.5188  1.7958
  569SOL    HW2 1707   0.077   1.181   2.819 -1.2855  2.3049  0.2229
  570SOL     OW 1708   3.027   2.958   1.352 -0.4845 -0.2535  0.8526
  570SOL    HW1 1709   2.969   3.037   1.376 -0.1053 -2.1580 -1.8894
  570SOL    HW2 1710   2.977   2.870   1.375 -1.1120  0.8909 -1.0116
  571SOL     OW 1711   0.221   0.430   1.719  0.1732  0.4102  0.1638
  571SOL    HW1 1712   0.230   0.341   1.672  0.0959  1.3423  2.0009
  571SOL    HW2 1713   0.189   0.508   1.662  1.2298  0.4155 -0.2101
  572SOL     OW 1714   3.085   2.395   0.764 -0.2625 -0.4285 -0.2433
  572SOL    HW1 1715   0.062   2.410   0.711 -1.6686  1.0638  0.4637
  572SOL    HW2 1716   3.094   2.307   0.816  0.4823  0.8624  0.8129
  573SOL     OW 1717   0.671   0.722   0.126 -0.0155 -0.5140 -0.3335
  573SOL    HW1 1718   0.617   0.669   0.058 -0.8188  0.3711 -1.0372
  573SOL    HW2 1719   0.607   0.765   0.196 -1.8058  2.3287 -0.3997
  574SOL     OW 1720   2.727   2.709   3.005  0.0526  0.5947  0.5268
  574SOL    HW1 1721   2.750   2.805   3.015 -1.4282 -0.8585 -0.4780
  574SOL    HW2 1722   2.801   2.651   3.044 -1.6886  1.4580 -2.4219
  575SOL     OW 1723   1.007   1.839   1.319 -0.5381  0.3656 -0.2995
  575SOL    HW1 1724   1.055   1.806   1.235 -1.8646  0.7464 -2.5371
  575SOL    HW2 1725   1.066   1.903   1.378 -0.8775 -0.9421 -0.7376
  576SOL     OW 1726   0.188   2.971   1.343  0.4481  0.7355  0.0609
  576SOL    HW1 1727   0.219   3.049   1.397 -2.5625 -1.5206 -0.1868
  576SOL    HW2 1728   0.085   2.970   1.341 -1.1826 -1.2679 -0.4741
  577SOL     OW 1729   1.931   1.533   1.371  0.4437 -0.6690  0.0358
  577SOL    HW1 1730   1.905   1.617   1.417 -1.4806 -3.4621  0.8131
  577SOL    HW2 1731   1.868   1.456   1.407 -1.5407 -1.3256 -0.6320
  578SOL     OW 1732   1.311   0.014   0.176 -0.0537  0.4272  0.0470
  578SOL    HW1 1733   1.231   0.033   0.115  0.5386 -0.1403 -1.7778
  578SOL    HW2 1734   1.393   0.067   0.154  1.7316 -2.7181 -0.4056
  579SOL     OW 1735   2.783   1.352   2.446  0.2757  0.3163 -0.4357
  579SOL    HW1 1736   2.755   1.268   2.494  0.0912  0.0860 -4.4265
  579SOL    HW2 1737   2.708   1.388   2.388  2.3564 -0.6677  3.2529
  580SOL     OW 1738   1.330   0.831   1.480 -0.1464  0.0300  0.4015
  580SOL    HW1 1739   1.318   0.811   1.578  0.1018  1.7821  1.1592
  580SOL    HW2 1740   1.384   0.760   1.430  1.0298 -0.5916 -1.2005
  581SOL     OW 1741   0.663   1.428   1.469 -0.3199  0.2816 -0.0503
  581SOL    HW1 1742   0.745   1.445   1.410  1.2810  2.0550 -0.5287
  581SOL    HW2 1743   0.608   1.515   1.474  1.1422  0.7237 -2.3984
  582SOL     OW 1744   3.064   3.029   1.919  0.7415  0.0235  0.2932
  582SOL    HW1 1745   3.046   3.077   2.004  1.7223 -0.8965 -1.6963
  582SOL    HW2 1746   2.975   3.005   1.872 -2.4518  2.2516 -0.0861
  583SOL     OW 1747   2.122   0.792   1.818 -0.4664  0.0814 -0.4039
  583SOL    HW1 1748   2.149   0.693   1.812  0.4910 -0.2851  0.0484
  583SOL    HW2 1749   2.176   0.835   1.894 -0.3049 -0.2397  2.2227
  584SOL     OW 1750   1.505   2.176   2.959 -0.0074 -0.5163  0.3748
  584SOL    HW1 1751   1.441   2.099   2.934 -0.5421 -1.0282 -0.0682
  584SOL    HW2 1752   1.454   2.266   2.951 -0.9400  0.1437 -0.1345
  585SOL     OW 1753   0.619   2.713   0.145  0.2383 -0.6750  0.7575
  585SOL    HW1 1754   0.527   2.694   0.106  1.7605 -0.0745  0.2710
  585SOL    HW2 1755   0.681   2.645   0.103  2.5849 -2.6186 -0.9392
  586SOL     OW 1756   1.897   2.552   2.506  0.0742 -0.5067  0.6860
  586SOL    HW1 1757   1.893   2.505   2.592  1.2107  1.6509 -0.3960
  586SOL    HW2 1758   1.908   2.484   2.430 -0.5811 -2.7355  3.0218
  587SOL     OW 1759   2.750   1.752   0.573  0.5792 -0.1296 -0.5411
  587SOL    HW1 1760   2.718   1.741   0.476 -0.7472  1.0378 -0.2484
  587SOL    HW2 1761   2.691   1.820   0.627 -0.2482 -0.8693  1.2594
  588SOL     OW 1762   2.240   0.307   0.986  0.2190  0.1116 -0.1134
  588SOL    HW1 1763   2.160   0.322   1.050 -0.7400 -1.7844  1.6428
  588SOL    HW2 1764   2.326   0.305   1.036  0.3894  1.2606 -0.5639
  589SOL     OW 1765   0.967   0.703   0.559 -0.0032  0.0490  0.0109
  589SOL    HW1 1766   1.052   0.675   0.605 -1.5319  2.8460 -1.6902
  589SOL    HW2 1767   0.945   0.659   0.468  0.1667  2.5781  1.7869
  590SOL     OW 1768   2.427   1.854   0.266  0.0558 -0.0155 -0.3126
  590SOL    HW1 1769   2.451   1.882   0.172 -1.3810  1.5108 -0.7334
  590SOL    HW2 1770   2.409   1.932   0.331 -1.6116 -1.1614  1.0824
  591SOL     OW 1771   0.068   2.533   1.445 -0.3351 -0.4848 -0.0145
  591SOL    HW1 1772   0.095   2.491   1.358  0.2217 -0.4988 -0.1585
  591SOL    HW2 1773   0.086   2.470   1.523  1.3537 -0.2138 -0.5934
  592SOL     OW 1774   0.789   1.005   1.298 -0.4140 -0.3418 -0.1504
  592SOL    HW1 1775   0.724   1.068   1.341 -0.8331 -2.0994  0.0111
  592SOL    HW2 1776   0.873   1.059   1.285 -2.9830 -0.5407  0.3695
  593SOL     OW 1777   0.797   1.426   1.142 -0.7716 -0.2184 -0.2693
  593SOL    HW1 1778   0.898   1.407   1.136  1.3046 -2.1860  1.8065
  593SOL    HW2 1779   0.777   1.524   1.125  0.0943 -1.8181  1.6328
  594SOL     OW 1780   0.760   1.966   0.024 -0.4433  0.0205  0.3175
  594SOL    HW1 1781   0.680   2.024   0.018  2.7198 -0.8825  4.1014
  594SOL    HW2 1782   0.747   1.890   0.082 -0.7699  1.6375  1.0883
  595SOL     OW 1783   1.433   0.083   1.260  0.2237 -0.0735 -0.6253
  595SOL    HW1 1784   1.335   0.096   1.252 -0.2497 -3.5945 -0.3625
  595SOL    HW2 1785   1.467   0.158   1.319 -2.0937 -2.3705 -4.0951
  596SOL     OW 1786   3.106   1.477   0.778 -0.3186  0.0086  0.3060
  596SOL    HW1 1787   3.094   1.550   0.709  2.5994  1.1804 -2.1833
  596SOL    HW2 1788   3.053   1.395   0.755  0.3115  0.7826 -0.8503
  597SOL     OW 1789   0.215   2.714   2.791  0.2801 -0.4620 -0.0199
  597SOL    HW1 1790   0.133   2.651   2.784  0.0281  1.2743 -1.7910
  597SOL    HW2 1791   0.216   2.765   2.877  0.4573 -0.1084 -1.2790
  598SOL     OW 1792   2.692   2.184   1.981 -0.1151  0.4274 -0.6376
  598SOL    HW1 1793   2.749   2.252   1.934 -0.3360 -0.6647  0.6067
  598SOL    HW2 1794   2.747   2.096   2.001  1.4529 -2.2889  2.6268
  599SOL     OW 1795   0.882   0.364   0.152 -0.5958 -0.5285 -0.0553
  599SOL    HW1 1796   0.800   0.408   0.179  4.7280 -0.4711 -2.5680
  599SOL    HW2 1797   0.960   0.426   0.171  0.1412 -0.0110 -0.7500
  600SOL     OW 1798   0.580   2.663   0.418 -0.3953  0.2684 -0.6252
  600SOL    HW1 1799   0.596   2.694   0.324  0.0922  0.2470  3.4583
  600SOL    HW2 1800   0.561   2.565   0.431 -2.3110 -0.1220  3.9614
  601SOL     OW 1801   0.437   0.710   1.200 -0.7975 -0.4721 -0.1402
  601SOL    HW1 1802   0.512   0.774   1.170  1.4943  0.0344  3.5878
  601SOL    HW2 1803   0.466   0.616   1.170 -0.3767 -0.4348 -1.4084
  602SOL     OW 1804   0.616   2.668   0.890 -0.1727  0.6082  0.3642
  602SOL    HW1 1805   0.625   2.571   0.867 -1.2540  1.2464 -3.0497
  602SOL    HW2 1806   0.549   2.678   0.961  0.3533  1.4107 -2.1807
  603SOL     OW 1807   1.054   3.043   2.306 -0.0355 -0.3141  0.7379
  603SOL    HW1 1808   0.952   3.024   2.296  0.0545 -0.2207 -2.9406
  603SOL    HW2 1809   1.100   3.008   2.221  0.7571  0.2028  0.3625
  604SOL     OW 1810   0.737   2.682   1.973 -0.1939 -0.0126  0.0084
  604SOL    HW1 1811   0.765   2.583   1.966 -1.1409  2.6157  1.7906
  604SOL    HW2 1812   0.667   2.705   1.901 -1.7858 -1.3083 -1.0900
  605SOL     OW 1813   1.908   0.642   2.243  0.0636 -0.1025  0.5784
  605SOL    HW1 1814   1.895   0.650   2.141 -1.6567 -0.0529 -0.2163
  605SOL    HW2 1815   1.826   0.604   2.288 -0.3956  0.3570  0.7572
  606SOL     OW 1816   2.396   0.037   2.760  0.0236 -0.1859  0.2536
  606SOL    HW1 1817   2.343   0.085   2.831  0.5958  1.7753  3.3660
  606SOL    HW2 1818   2.441   0.110   2.703  1.2513  1.1349  3.2867
  607SOL     OW 1819   0.843   0.531   1.360 -0.2807 -0.1411  0.5762
  607SOL    HW1 1820   0.794   0.499   1.273 -1.3065 -4.3171 -1.9978
  607SOL    HW2 1821   0.791   0.601   1.409 -3.0675 -0.6173  2.1654
  608SOL     OW 1822   0.085   1.999   2.392 -0.0974  0.0999  0.0279
  608SOL    HW1 1823   0.100   2.057   2.315  3.3340 -1.0893  1.3248
  608SOL    HW2 1824   0.019   2.042   2.459  1.7974  2.1160  1.9713
  609SOL     OW 1825   1.738   0.739   0.191 -0.0781 -0.4455  0.4862
  609SOL    HW1 1826   1.738   0.683   0.280 -1.6727 -0.3216  2.0303
  609SOL    HW2 1827   1.692   0.827   0.201  1.4843 -0.4953  0.0690
  610SOL     OW 1828   0.727   0.222   1.448 -0.0682 -0.0458 -0.0352
  610SOL    HW1 1829   0.793   0.155   1.478 -0.4750  1.1587 -0.2110
  610SOL    HW2 1830   0.764   0.281   1.379  1.7973 -2.4635 -1.2117
  611SOL     OW 1831   1.538   0.425   0.563 -0.3288  0.3650  0.7705
  611SOL    HW1 1832   1.516   0.454   0.658  1.0176  1.4135  2.8668
  611SOL    HW2 1833   1.449   0.405   0.517 -1.7428  1.1283 -2.1953
  612SOL     OW 1834   1.587   0.533   0.078  0.2969 -0.3263 -0.6545
  612SOL    HW1 1835   1.634   0.442   0.097  0.7161  0.4089 -1.3637
  612SOL    HW2 1836   1.648   0.607   0.111  0.4816  0.4607  0.1146
  613SOL     OW 1837   2.434   0.657   0.530  0.3377  0.1135 -0.4218
  613SOL    HW1 1838   2.344   0.639   0.489  0.6883  1.0147  1.6399
  613SOL    HW2 1839   2.477   0.568   0.550 -1.6423  0.6304  3.3306
  614SOL     OW 1840   2.720   0.291   1.969 -0.2774 -0.1531 -0.5389
  614SOL    HW1 1841   2.676   0.237   1.895 -2.3615 -0.0809 -1.0463
  614SOL    HW2 1842   2.809   0.249   1.998  1.9823  0.8333  0.0548
  615SOL     OW 1843   0.726   1.939   1.181 -0.1542  0.2475 -0.6362
  615SOL    HW1 1844   0.769   1.975   1.263 -2.4718 -0.5836  0.0862
  615SOL    HW2 1845   0.627   1.913   1.202  1.5488  1.6817  0.9811
  616SOL     OW 1846   1.627   1.565   2.646 -0.1660  0.0264 -0.6815
  616SOL    HW1 1847   1.596   1.651   2.601 -2.6464 -2.1615  0.8418
  616SOL    HW2 1848   1.631   1.494   2.574 -0.0261 -1.1590 -1.6382
  617SOL     OW 1849   1.613   0.093   3.000  0.3898 -0.2208  0.0362
  617SOL    HW1 1850   1.686   0.019   2.995  2.0987  1.3317  0.8989
  617SOL    HW2 1851   1.522   0.058   2.972 -1.8567 -0.4423 -0.2182
  618SOL     OW 1852   1.520   2.162   2.617  0.0001 -1.1930  0.5345
  618SOL    HW1 1853   1.464   2.162   2.530  1.5822 -0.7134 -1.2679
  618SOL    HW2 1854   1.476   2.104   2.689  2.3061  0.4438  0.4328
  619SOL     OW 1855   2.558   1.375   0.825  0.0537  0.4559  0.5885
  619SOL    HW1 1856   2.631   1.421   0.777 -4.3221  0.9854 -1.9015
  619SOL    HW2 1857   2.576   1.369   0.928  1.6095 -0.2569  1.0384
  620SOL     OW 1858   2.130   2.782   2.219 -0.6780 -0.0856  0.3836
  620SOL    HW1 1859   2.064   2.789   2.297  1.5833 -0.0111 -0.0723
  620SOL    HW2 1860   2.205   2.722   2.246 -1.7036 -2.1320  0.1515
  621SOL     OW 1861   2.890   1.289   0.600  0.0305 -0.1247 -0.1039
  621SOL    HW1 1862   2.904   1.242   0.693  1.8719  1.7428 -1.2500
  621SOL    HW2 1863   2.976   1.291   0.552  1.1675  1.5619  1.7884
  622SOL     OW 1864   1.388   2.048   2.370  0.1116 -0.0124  0.6892
  622SOL    HW1 1865   1.326   1.971   2.393  2.8840  1.9090 -1.9904
  622SOL    HW2 1866   1.473   2.016   2.324  0.2645 -2.9495 -0.2166
  623SOL     OW 1867   0.720   2.669   2.329  0.4077  0.4483  0.0358
  623SOL    HW1 1868   0.708   2.767   2.310 -2.7436 -1.4058 -2.3128
  623SOL    HW2 1869   0.761   2.657   2.423  1.3705 -1.1138  0.6742
  624SOL     OW 1870   0.993   2.632   2.814  0.0406  0.2874  0.2024
  624SOL    HW1 1871   1.055   2.651   2.732  1.7630  0.4783 -0.2363
  624SOL    HW2 1872   0.976   2.713   2.875  0.6679 -0.7658  0.2442
  625SOL     OW 1873   0.447   2.061   2.538  0.5879 -0.2320 -0.6302
  625SOL    HW1 1874   0.473   2.070   2.440  1.6668  1.2197 -0.0492
  625SOL    HW2 1875   0.369   1.995   2.547  3.2800  2.7658  0.7162
  626SOL     OW 1876   0.207   0.345   0.070 -0.0280  0.5164 -0.3273
  626SOL    HW1 1877   0.132   0.338   0.141 -0.2326  0.6320  0.5718
  626SOL    HW2 1878   0.200   0.433   0.019  1.9533 -2.4026 -0.9797
  627SOL     OW 1879   2.122   1.749   3.068  0.2694 -0.1430  0.0981
  627SOL    HW1 1880   2.197   1.764   3.002 -0.5895  0.1155  1.8166
  627SOL    HW2 1881   2.039   1.801   3.039 -4.5951 -4.7836  0.9206
  628SOL     OW 1882   1.519   1.521   2.877 -0.3109 -0.2136  0.5195
  628SOL    HW1 1883   1.479   1.428   2.874  1.4310  0.9647 -0.9636
  628SOL    HW2 1884   1.565   1.537   2.786  0.2316  0.1316  1.7624
  629SOL     OW 1885   0.245   0.232   1.955 -0.8715  0.4364 -0.3346
  629SOL    HW1 1886   0.281   0.141   1.982 -0.2936  0.6523  3.0089
  629SOL    HW2 1887   0.313   0.270   1.891  2.3332  0.2080 -3.2401
  630SOL     OW 1888   2.371   0.914   1.945 -0.2604 -0.1418  0.0452
  630SOL    HW1 1889   2.384   1.014   1.939  2.0699  0.5604  1.6645
  630SOL    HW2 1890   2.374   0.878   2.042 -1.3289 -3.5483  2.4850
  631SOL     OW 1891   1.620   0.090   0.793  0.2926 -0.1789  0.1059
  631SOL    HW1 1892   1.667   0.143   0.716  0.3096 -0.7426 -0.0324
  631SOL    HW2 1893   1.581   0.007   0.750  1.9217  0.2271 -2.7655
  632SOL     OW 1894   2.805   0.995   1.801  0.3211  0.1098 -0.0634
  632SOL    HW1 1895   2.822   1.009   1.698 -0.1562  0.8672 -2.3934
  632SOL    HW2 1896   2.746   0.913   1.816 -0.6671 -1.6121 -1.7378
  633SOL     OW 1897   0.737   0.593   2.783  0.4051 -0.0014  0.6112
  633SOL    HW1 1898   0.765   0.496   2.794  0.5529 -1.0914 -0.4259
  633SOL    HW2 1899   0.821   0.648   2.802  0.4164  0.2592 -2.6140
  634SOL     OW 1900   0.606   2.623   2.810  0.2296  0.2352  0.0457
  634SOL    HW1 1901   0.628   2.553   2.876  0.8549  1.1453  1.2744
  634SOL    HW2 1902   0.524   2.601   2.756  2.8042 -0.5615  0.5896
  635SOL     OW 1903   0.064   1.122   1.221  0.1137 -0.0468 -0.3400
  635SOL    HW1 1904   0.072   1.191   1.144  1.3617 -0.6440 -0.7941
  635SOL    HW2 1905   0.106   1.033   1.190  0.6304 -1.1460 -1.9292
  636SOL     OW 1906   2.873   1.263   0.158  0.2476  0.5740 -0.0215
  636SOL    HW1 1907   2.814   1.343   0.167 -0.1097 -1.6204 -0.9399
  636SOL    HW2 1908   2.877   1.230   0.065 -2.2937 -1.9589  1.7963
  637SOL     OW 1909   0.380   2.695   0.021  0.5915  0.5702  0.3216
  637SOL    HW1 1910   0.329   2.725   3.047 -0.6348 -0.7208 -0.4983
  637SOL    HW2 1911   0.325   2.637   0.087 -0.8671 -1.0973 -0.0124
  638SOL     OW 1912   2.925   2.488   0.556  0.1762 -0.3483  0.2891
  638SOL    HW1 1913   2.958   2.431   0.632 -0.9275  2.8511 -1.4487
  638SOL    HW2 1914   2.823   2.486   0.558  0.3145  0.0190 -0.2324
  639SOL     OW 1915   1.445   0.981   0.184  0.1201  0.1455 -0.8029
  639SOL    HW1 1916   1.395   0.982   0.096 -0.7078  1.5515  2.8113
  639SOL    HW2 1917   1.416   0.907   0.249 -1.6793  1.5983  0.6662
  640SOL     OW 1918   1.883   2.524   1.444  0.2369  0.2294 -0.3710
  640SOL    HW1 1919   1.788   2.497   1.473  0.5913  2.5879 -2.7959
  640SOL    HW2 1920   1.911   2.488   1.353 -1.6990 -2.2922 -1.7624
  641SOL     OW 1921   0.058   0.121   0.706 -0.4424  0.2405 -0.3164
  641SOL    HW1 1922   0.112   0.171   0.634 -1.9545 -2.3839 -0.2099
  641SOL    HW2 1923   0.067   0.161   0.797 -0.2490 -1.8669 -0.0629
  642SOL     OW 1924   1.305   0.793   1.751 -0.3685 -0.9426 -0.2191
  642SOL    HW1 1925   1.399   0.774   1.783  2.3555  1.6756  2.6162
  642SOL    HW2 1926   1.268   0.877   1.801  2.5035 -0.0762  0.7385
  643SOL     OW 1927   0.848   2.373   2.482  0.5569 -1.0879  0.2434
  643SOL    HW1 1928   0.848   2.470   2.519 -0.8300 -0.0679 -1.1438
  643SOL    HW2 1929   0.797   2.372   2.393 -1.2402 -1.8464 -0.5813
  644SOL     OW 1930   1.344   2.395   2.931 -0.1572 -0.4351  0.2115
  644SOL    HW1 1931   1.304   2.461   3.000  0.3139 -3.0968 -1.5257
  644SOL    HW2 1932   1.331   2.428   2.835 -0.6652 -2.4472 -0.5631
  645SOL     OW 1933   1.472   1.484   1.920 -0.1741 -0.4538  0.3060
  645SOL    HW1 1934   1.565   1.464   1.949 -2.7611 -2.0819 -3.2019
  645SOL    HW2 1935   1.449   1.435   1.833  0.2436 -2.9148  1.0370
  646SOL     OW 1936   0.680   3.080   0.071  0.2097  0.9121  0.9200
  646SOL    HW1 1937   0.685   0.012   0.167  2.5337 -2.1334  1.0886
  646SOL    HW2 1938   0.647   0.046   0.008  0.1992 -0.6127  0.2278
  647SOL     OW 1939   0.774   0.016   0.582 -0.6677 -0.1788  0.0971
  647SOL    HW1 1940   0.767   3.049   0.509  0.8395  0.0237  0.1900
  647SOL    HW2 1941   0.802   3.095   0.678 -0.2476 -1.1143  3.0354
  648SOL     OW 1942   2.688   2.824   0.895  0.4361  0.2653 -0.0629
  648SOL    HW1 1943   2.633   2.805   0.809 -2.1506  0.1063 -0.4667
  648SOL    HW2 1944   2.785   2.789   0.888  0.1821 -0.4054 -0.9632
  649SOL     OW 1945   0.823   2.087   2.882  0.6929 -0.2466 -0.1847
  649SOL    HW1 1946   0.745   2.045   2.834 -0.8707  0.1957  0.2978
  649SOL    HW2 1947   0.836   2.035   2.967 -0.2034  2.0999  1.2627
  650SOL     OW 1948   2.052   1.686   2.108 -0.1239 -0.5308 -0.0128
  650SOL    HW1 1949   2.043   1.597   2.152  1.2288  2.5391 -0.7342
  650SOL    HW2 1950   2.135   1.730   2.151  2.7714 -0.7161  0.5179
  651SOL     OW 1951   2.848   2.802   2.357  0.3184 -0.2551  0.0533
  651SOL    HW1 1952   2.920   2.839   2.417  0.9073  0.6031 -1.5051
  651SOL    HW2 1953   2.895   2.751   2.280  1.5692  0.3660  1.2570
  652SOL     OW 1954   3.007   1.731   0.637 -0.6926  0.1803  0.0803
  652SOL    HW1 1955   3.051   1.816   0.660  0.0172 -0.7012 -0.1909
  652SOL    HW2 1956   2.908   1.747   0.610 -0.9278  0.5053  2.9863
  653SOL     OW 1957   2.398   0.611   0.910 -0.1506  0.5028  0.1031
  653SOL    HW1 1958   2.406   0.523   0.856  0.4800 -2.6150 -1.0888
  653SOL    HW2 1959   2.387   0.694   0.852 -2.8630  0.4931 -0.4001
  654SOL     OW 1960   0.813   0.311   2.823 -0.2764 -0.1875  0.1542
  654SOL    HW1 1961   0.904   0.283   2.860  2.8927  0.9961 -1.8696
  654SOL    HW2 1962   0.737   0.261   2.870  0.8452  0.0709 -1.6741
  655SOL     OW 1963   0.897   0.020   1.495  0.0261  0.4481 -0.2406
  655SOL    HW1 1964   0.967   3.101   1.565  1.1524 -0.7058  2.1951
  655SOL    HW2 1965   0.933   3.090   1.407 -0.9862 -0.2775  0.2696
  656SOL     OW 1966   0.248   2.712   2.173 -0.5822 -0.1581  0.1842
  656SOL    HW1 1967   0.331   2.655   2.150  2.1389 -2.0780  1.3134
  656SOL    HW2 1968   0.223   2.773   2.093 -0.5398  0.3427 -1.8301
  657SOL     OW 1969   2.323   0.462   0.239  0.1400 -0.0623  0.2831
  657SOL    HW1 1970   2.279   0.527   0.309 -0.4556  1.5582  1.2732
  657SOL    HW2 1971   2.409   0.507   0.205 -2.4899  2.2108  2.3452
  658SOL     OW 1972   1.961   1.709   1.169  0.1431  0.3807  0.1143
  658SOL    HW1 1973   2.042   1.757   1.209  0.1309  0.1183  0.0266
  658SOL    HW2 1974   1.944   1.622   1.218 -0.7535  2.9258  1.3587
  659SOL     OW 1975   2.698   2.316   2.751  1.0328  0.1943 -0.0985
  659SOL    HW1 1976   2.681   2.416   2.757  1.2617 -0.7938 -0.6977
  659SOL    HW2 1977   2.744   2.286   2.834 -2.9539  0.3707 -2.0168
  660SOL     OW 1978   1.063   0.175   0.070  0.3690  0.3405  0.5228
  660SOL    HW1 1979   1.138   0.241   0.093  1.6571 -0.3903 -1.2368
  660SOL    HW2 1980   0.975   0.230   0.088 -2.6784 -0.9875 -0.5880
  661SOL     OW 1981   2.138   0.135   0.448  0.7552  0.5668 -0.6283
  661SOL    HW1 1982   2.105   0.142   0.351 -2.1018 -0.6897  0.4438
  661SOL    HW2 1983   2.229   0.182   0.461  0.4273 -0.8520  1.6047
  662SOL     OW 1984   0.568   0.094   1.053 -0.0429 -0.0106 -0.4363
  662SOL    HW1 1985   0.658   0.131   1.017  0.5536  0.8448 -1.4820
  662SOL    HW2 1986   0.508   0.078   0.977  1.6251  0.3288 -0.7014
  663SOL     OW 1987   1.492   0.037   2.435  0.1088  0.8377 -0.2570
  663SOL    HW1 1988   1.445   3.061   2.476  0.7832 -1.3021 -1.5622
  663SOL    HW2 1989   1.520   0.022   2.336 -1.0668  1.4271 -1.1729
  664SOL     OW 1990   0.766   2.529   1.567 -0.1430  0.5713 -0.5788
  664SOL    HW1 1991   0.728   2.470   1.494 -1.3034  0.2331  0.3715
  664SOL    HW2 1992   0.749   2.630   1.556 -0.6537  1.4623 -0.2987
  665SOL     OW 1993   0.753   2.416   1.981  0.3965 -0.0011  0.0758
  665SOL    HW1 1994   0.700   2.392   1.896  0.3521  1.2750 -0.1685
  665SOL    HW2 1995   0.851   2.394   1.973 -1.4666 -0.2630  1.3062
  666SOL     OW 1996   0.289   2.958   2.656 -0.0194 -0.2993  0.3179
  666SOL    HW1 1997   0.255   2.969   2.562 -0.7966  0.8833  1.6471
  666SOL    HW2 1998   0.276   2.859   2.682 -0.5545 -0.1508 -0.0086
  667SOL     OW 1999   1.556   1.526   1.461  0.0325  0.5231 -0.0839
  667SOL    HW1 2000   1.456   1.552   1.448 -1.2526 -2.1875  0.5489
  667SOL    HW2 2001   1.600   1.540   1.373 -1.0321 -1.6576 -1.9176
  668SOL     OW 2002   1.389   0.440   1.797 -0.2677 -0.3506  0.3183
  668SOL    HW1 2003   1.411   0.349   1.838  3.0033 -0.9996  2.2800
  668SOL    HW2 2004   1.295   0.473   1.827 -0.4671  1.9197  1.1256
  669SOL     OW 2005   2.542   2.540   1.290 -0.1734  0.5044  0.7882
  669SOL    HW1 2006   2.518   2.487   1.204 -1.8540 -0.7889  0.4457
  669SOL    HW2 2007   2.537   2.469   1.363  0.2299 -1.4587 -0.3038
  670SOL     OW 2008   1.663   2.483   2.885  0.0820  0.6189  0.2570
  670SOL    HW1 2009   1.601   2.463   2.802  0.2032  1.9173 -1.3610
  670SOL    HW2 2010   1.610   2.485   2.971  2.6607  1.7278 -0.6135
  671SOL     OW 2011   1.254   0.974   0.691 -0.8203  0.5091 -0.4206
  671SOL    HW1 2012   1.289   1.054   0.749  0.6343 -1.2756  2.1439
  671SOL    HW2 2013   1.259   0.985   0.591  0.2402  0.4736  2.3928
  672SOL     OW 2014   0.183   1.083   2.535  0.0883  0.2088  0.3468
  672SOL    HW1 2015   0.175   1.104   2.636 -2.1283 -1.5794 -0.9473
  672SOL    HW2 2016   0.180   0.982   2.522  0.6241 -0.6677  2.1074
  673SOL     OW 2017   3.000   1.960   1.416 -0.5150  0.6503 -0.6934
  673SOL    HW1 2018   2.983   2.051   1.461  0.3426 -1.4673  0.5884
  673SOL    HW2 2019   2.984   1.884   1.488 -2.7310 -2.9900  2.9671
  674SOL     OW 2020   0.485   2.622   2.079 -0.3788 -0.0802 -0.3185
  674SOL    HW1 2021   0.576   2.675   2.072  2.4779  2.2227  0.2792
  674SOL    HW2 2022   0.457   2.579   1.989  1.4463  1.4298 -2.7934
  675SOL     OW 2023   0.887   0.990   1.746 -0.4487 -0.4611 -0.7372
  675SOL    HW1 2024   0.903   0.892   1.721  0.9788 -1.3131  2.1125
  675SOL    HW2 2025   0.789   1.008   1.758 -1.8791 -0.7913  0.8407
  676SOL     OW 2026   2.467   0.317   1.141  0.0306 -1.0721  0.0131
  676SOL    HW1 2027   2.447   0.412   1.170 -1.9271 -1.4379 -0.9435
  676SOL    HW2 2028   2.564   0.298   1.156 -0.5768 -1.2154  1.5486
  677SOL     OW 2029   2.534   1.414   3.029  0.5881 -0.2534 -0.1403
  677SOL    HW1 2030   2.470   1.351   3.080  1.0812 -2.1800  1.5116
  677SOL    HW2 2031   2.543   1.370   2.937  1.6622  0.1945 -2.5654
  678SOL     OW 2032   2.670   0.929   1.220  0.0033 -0.1105  0.0878
  678SOL    HW1 2033   2.671   0.879   1.128 -0.4455 -0.9651 -1.0245
  678SOL    HW2 2034   2.699   0.870   1.297 -2.8100  2.2942  0.1159
  679SOL     OW 2035   2.383   0.252   0.480  0.7887  0.0345 -0.6997
  679SOL    HW1 2036   2.387   0.293   0.574  1.0998  1.1293 -0.1907
  679SOL    HW2 2037   2.443   0.304   0.421  1.9491 -0.5535  0.2307
  680SOL     OW 2038   0.193   1.914   2.059 -0.2659 -0.1608  0.6554
  680SOL    HW1 2039   0.222   1.845   2.127 -0.7919 -1.5417 -2.8142
  680SOL    HW2 2040   0.137   1.995   2.093 -1.6380  1.2579 -1.1776
  681SOL     OW 2041   2.454   2.062   1.061 -0.2127  0.3268 -0.0894
  681SOL    HW1 2042   2.373   2.091   1.006  1.0615 -0.0041 -0.5302
  681SOL    HW2 2043   2.487   1.975   1.020 -1.1139 -1.2992 -0.2083
  682SOL     OW 2044   2.976   1.783   2.747 -0.1495 -0.1328 -0.2793
  682SOL    HW1 2045   2.951   1.691   2.782 -1.6179 -1.1065  2.3976
  682SOL    HW2 2046   3.079   1.795   2.735  1.0467 -0.6126  3.5134
  683SOL     OW 2047   0.132   2.210   1.468 -0.4546  0.3322  0.2670
  683SOL    HW1 2048   0.141   2.242   1.371  2.1005 -1.3600 -1.5617
  683SOL    HW2 2049   0.034   2.189   1.487  1.4613  0.9812  0.9827
  684SOL     OW 2050   2.995   1.070   2.417 -0.6069 -0.3327  0.1338
  684SOL    HW1 2051   3.054   0.987   2.420 -2.0384  1.5354 -1.0188
  684SOL    HW2 2052   3.036   1.154   2.457 -1.4381  0.0264 -1.7870
  685SOL     OW 2053   1.569   1.022   0.629 -0.0487  0.4541  0.0460
  685SOL    HW1 2054   1.497   1.057   0.692 -1.8102  0.5168 -4.0040
  685SOL    HW2 2055   1.556   0.921   0.607  1.3422  0.4089  0.6411
  686SOL     OW 2056   0.552   0.412   0.742  0.0514 -0.2808 -0.5544
  686SOL    HW1 2057   0.474   0.412   0.802 -1.2556 -0.9649  1.6478
  686SOL    HW2 2058   0.575   0.315   0.714  1.8374 -3.3806  0.5096
  687SOL     OW 2059   1.380   1.985   2.767  0.9315 -0.1148 -0.4085
  687SOL    HW1 2060   1.282   2.015   2.758 -1.1925 -1.6764  0.3315
  687SOL    HW2 2061   1.406   1.925   2.690 -2.1035  0.9678 -0.6850
  688SOL     OW 2062   1.448   1.363   1.671 -0.6792 -0.2057  0.1582
  688SOL    HW1 2063   1.474   1.412   1.584  0.9998  0.8465  1.4110
  688SOL    HW2 2064   1.346   1.358   1.678 -2.2286 -0.2738 -2.0179
  689SOL     OW 2065   2.052   0.104   0.696  0.5028  0.4721  0.0441
  689SOL    HW1 2066   2.087   0.102   0.603 -1.8632 -0.8622  0.5898
  689SOL    HW2 2067   2.094   0.033   0.757  2.2730 -0.3695  0.5100
  690SOL     OW 2068   0.103   1.317   1.034  0.0172 -0.7005  0.0134
  690SOL    HW1 2069   0.072   1.353   0.944  2.7099 -1.6355 -0.9970
  690SOL    HW2 2070   0.120   1.392   1.105 -1.0308  1.9909 -0.5134
  691SOL     OW 2071   0.229   2.050   1.139  0.0687 -0.3464  0.2838
  691SOL    HW1 2072   0.186   1.974   1.188  3.2969  3.1596 -2.4887
  691SOL    HW2 2073   0.200   2.142   1.176 -0.2390  1.7882  1.3157
  692SOL     OW 2074   2.030   0.693   1.363  0.2467  0.3773 -0.1962
  692SOL    HW1 2075   2.005   0.737   1.449 -1.2555 -1.5603  0.8745
  692SOL    HW2 2076   2.124   0.716   1.331  0.4136  1.8934 -1.0861
  693SOL     OW 2077   0.619   1.829   2.270 -0.4563  0.3541 -0.2849
  693SOL    HW1 2078   0.647   1.876   2.182  0.4672  0.8521 -1.7784
  693SOL    HW2 2079   0.661   1.863   2.356 -1.1220  0.6247 -1.9122
  694SOL     OW 2080   1.673   1.486   1.223  0.1097  0.0865 -0.2086
  694SOL    HW1 2081   1.663   1.583   1.191  0.0926 -3.0685 -0.1454
  694SOL    HW2 2082   1.657   1.422   1.141 -3.1529 -2.6383 -0.0506
  695SOL     OW 2083   1.306   1.188   0.476 -0.4779 -0.1755 -0.3328
  695SOL    HW1 2084   1.245   1.222   0.403  0.6096 -1.0256  1.4297
  695SOL    HW2 2085   1.386   1.148   0.434 -3.2474 -0.4411  1.6752
  696SOL     OW 2086   0.933   2.643   0.293 -0.0253 -0.0818  0.3900
  696SOL    HW1 2087   0.898   2.584   0.219 -0.7119 -2.2697  1.5801
  696SOL    HW2 2088   1.004   2.705   0.252 -0.5168  0.6189 -0.1968
  697SOL     OW 2089   1.523   0.676   1.394  0.2261 -0.1651 -0.3849
  697SOL    HW1 2090   1.595   0.732   1.441 -0.9582 -0.5604 -0.6818
  697SOL    HW2 2091   1.497   0.597   1.456 -2.5662  2.7724  1.8083
  698SOL     OW 2092   1.621   1.829   2.017 -0.3066 -0.2574  0.2510
  698SOL    HW1 2093   1.527   1.790   2.036  1.8080 -0.1071 -0.5292
  698SOL    HW2 2094   1.671   1.761   1.959 -0.6442 -0.5949  1.7010
  699SOL     OW 2095   2.697   0.574   1.957  0.2621  0.5764 -0.0545
  699SOL    HW1 2096   2.660   0.628   2.036 -2.2094 -0.4625 -2.1628
  699SOL    HW2 2097   2.696   0.474   1.986 -0.5161 -0.2090 -1.3280
  700SOL     OW 2098   1.270   2.163   0.454 -0.2242  0.0142 -0.5395
  700SOL    HW1 2099   1.336   2.194   0.527 -0.6987  0.8441  0.9207
  700SOL    HW2 2100   1.321   2.134   0.373  0.4553  0.2573  1.7671
  701SOL     OW 2101   2.327   2.355   2.273  0.0462 -0.4964  0.0010
  701SOL    HW1 2102   2.415   2.305   2.264  1.0500  1.5681  0.5932
  701SOL    HW2 2103   2.347   2.450   2.309 -2.1082  0.3088  1.6585
  702SOL     OW 2104   0.794   2.879   0.418 -0.2781  0.1182 -0.1445
  702SOL    HW1 2105   0.728   2.810   0.453 -1.1510  1.3163  1.8181
  702SOL    HW2 2106   0.815   2.857   0.322 -1.6980  0.2124  2.9608
  703SOL     OW 2107   2.158   2.981   2.021 -0.3499 -0.5676 -0.5849
  703SOL    HW1 2108   2.207   2.937   1.939  1.3058 -0.0067 -2.4765
  703SOL    HW2 2109   2.171   2.924   2.104 -0.8278 -1.0872 -2.5051
  704SOL     OW 2110   2.454   2.120   0.399 -0.4878 -0.0283 -0.4829
  704SOL    HW1 2111   2.424   2.136   0.494 -1.7082  2.6577 -0.2656
  704SOL    HW2 2112   2.542   2.175   0.388 -0.6451 -0.3693  1.3146
  705SOL     OW 2113   2.569   2.232   2.229 -0.2955  0.3359 -1.1792
  705SOL    HW1 2114   2.627   2.239   2.311  2.0757 -3.3569 -0.9038
  705SOL    HW2 2115   2.618   2.225   2.141 -1.3454  0.0875  0.4660
  706SOL     OW 2116   2.662   0.224   0.826  0.1830 -0.6214 -0.1226
  706SOL    HW1 2117   2.657   0.144   0.763  0.0959  1.0188 -1.4845
  706SOL    HW2 2118   2.741   0.224   0.885 -2.8432  2.6776 -2.8946
  707SOL     OW 2119   0.747   0.553   2.507 -0.2794  0.1994  0.6080
  707SOL    HW1 2120   0.739   0.577   2.603  2.0658 -2.5219 -0.2011
  707SOL    HW2 2121   0.691   0.472   2.489 -3.1819  1.9669 -1.4379
  708SOL     OW 2122   0.243   2.038   1.622 -0.6494  0.6041  0.5784
  708SOL    HW1 2123   0.187   2.107   1.573 -0.1958 -1.0300  1.6025
  708SOL    HW2 2124   0.183   1.975   1.678 -1.2382 -0.7891  1.6711
  709SOL     OW 2125   1.468   0.208   1.908  0.9894  0.1067  0.7153
  709SOL    HW1 2126   1.516   0.151   1.834  1.6830 -3.2393  1.3214
  709SOL    HW2 2127   1.429   0.148   1.982 -2.0368 -0.6629 -1.2484
  710SOL     OW 2128   1.627   2.792   2.586  0.4639 -0.3583 -0.0294
  710SOL    HW1 2129   1.619   2.699   2.541  0.1646  1.6137  0.2170
  710SOL    HW2 2130   1.718   2.824   2.619 -1.3280  0.1726  0.4818
  711SOL     OW 2131   0.909   2.156   2.633  0.3832  0.0977  0.2032
  711SOL    HW1 2132   0.882   2.151   2.731 -0.1514 -3.1624 -1.3277
  711SOL    HW2 2133   0.893   2.247   2.588  0.8726  1.0715  0.0567
  712SOL     OW 2134   1.131   2.060   2.766  0.3853  0.3768 -0.4716
  712SOL    HW1 2135   1.062   2.077   2.696  0.1630 -1.0431  3.2438
  712SOL    HW2 2136   1.118   2.122   2.848  1.5917  0.3197  2.5473
  713SOL     OW 2137   2.053   1.109   1.929  0.0609 -0.4690  0.0319
  713SOL    HW1 2138   2.141   1.115   1.878 -0.0806  0.8360 -0.6008
  713SOL    HW2 2139   2.054   1.043   2.008  1.9941 -2.2318  0.0572
  714SOL     OW 2140   0.802   1.220   2.053  0.4610 -0.0957  0.7110
  714SOL    HW1 2141   0.699   1.222   2.039 -1.2983 -2.7531  0.7006
  714SOL    HW2 2142   0.826   1.125   2.071 -0.3745  0.8545 -0.6591
  715SOL     OW 2143   2.883   0.388   0.310 -0.1459  0.4233 -0.1996
  715SOL    HW1 2144   2.876   0.333   0.397 -1.4991 -0.4132 -0.2027
  715SOL    HW2 2145   2.874   0.490   0.335  0.4206  2.2511  3.2978
  716SOL     OW 2146   2.960   2.696   1.399 -0.0442  0.7632 -1.1815
  716SOL    HW1 2147   2.914   2.701   1.493 -1.7742  0.5005 -0.3682
  716SOL    HW2 2148   3.044   2.639   1.392  0.5454  0.4586 -3.0250
  717SOL     OW 2149   2.344   0.816   0.737 -0.5975 -0.4615 -0.4624
  717SOL    HW1 2150   2.259   0.864   0.710  0.9813 -1.5440 -0.1315
  717SOL    HW2 2151   2.380   0.759   0.660 -1.0180 -0.3851 -1.8790
  718SOL     OW 2152   1.291   1.615   1.406 -0.5981 -0.5141  0.4730
  718SOL    HW1 2153   1.204   1.627   1.448  1.4349 -1.9138  0.8059
  718SOL    HW2 2154   1.324   1.705   1.367 -0.0673 -2.7718 -1.4125
  719SOL     OW 2155   2.756   2.947   2.718  0.0062  0.2873  0.1553
  719SOL    HW1 2156   2.848   2.906   2.716 -0.1909 -0.6750  2.1792
  719SOL    HW2 2157   2.710   2.926   2.805 -1.3773 -0.5544 -2.0593
  720SOL     OW 2158   0.990   0.342   0.968  0.0474 -0.3978 -0.0202
  720SOL    HW1 2159   1.005   0.331   0.867 -0.7861  0.9021  3.6293
  720SOL    HW2 2160   1.078   0.302   1.005  2.9952  1.1579  1.0174
  721SOL     OW 2161   2.737   0.658   0.673  0.0235 -0.1096  0.1451
  721SOL    HW1 2162   2.837   0.659   0.674 -0.3645  0.2892 -0.1031
  721SOL    HW2 2163   2.709   0.586   0.603 -1.1059 -0.3697 -3.4311
  722SOL     OW 2164   0.909   2.127   2.212  0.6610 -0.1938 -0.1195
  722SOL    HW1 2165   0.875   2.219   2.237  0.8360 -1.7348 -2.0241
  722SOL    HW2 2166   1.012   2.120   2.187  0.2238  1.6011  1.0416
  723SOL     OW 2167   1.558   2.989   1.401  0.1500 -0.4871  0.0202
  723SOL    HW1 2168   1.498   3.063   1.364  0.3188 -3.2224  0.9732
  723SOL    HW2 2169   1.597   2.934   1.322  2.9554 -3.6399 -0.2521
  724SOL     OW 2170   1.722   2.094   1.582 -0.7045  0.0672 -0.1919
  724SOL    HW1 2171   1.644   2.158   1.588  1.7944 -0.7611  0.3568
  724SOL    HW2 2172   1.693   2.015   1.640  0.7068  1.0799 -0.8341
  725SOL     OW 2173   1.201   2.350   1.208 -0.1440 -0.2321  0.2643
  725SOL    HW1 2174   1.214   2.439   1.168 -0.2660 -1.4138 -1.1912
  725SOL    HW2 2175   1.137   2.288   1.162 -0.1282 -2.5224  0.0206
  726SOL     OW 2176   1.939   3.044   0.075  0.0723  0.6876 -0.2278
  726SOL    HW1 2177   2.004   3.039   0.000  3.7345  0.5975  0.7188
  726SOL    HW2 2178   1.853   2.990   0.049 -0.6241  0.1685 -0.7940
  727SOL     OW 2179   1.574   1.673   0.554  0.8059  0.6221 -0.1704
  727SOL    HW1 2180   1.667   1.701   0.571  0.0945  0.3410 -0.8898
  727SOL    HW2 2181   1.581   1.580   0.509  2.4004 -1.5332 -0.3177
  728SOL     OW 2182   1.941   2.645   1.714 -0.2232 -0.3813  0.0277
  728SOL    HW1 2183   1.947   2.684   1.621 -1.3054 -0.5051 -0.4387
  728SOL    HW2 2184   1.968   2.719   1.776  2.4355 -2.4089 -2.1298
  729SOL     OW 2185   1.969   2.421   1.204 -0.3219 -0.4584  0.3287
  729SOL    HW1 2186   1.967   2.320   1.182 -1.2344 -0.6200  0.6772
  729SOL    HW2 2187   2.068   2.446   1.220  0.1108 -0.3517 -1.3962
  730SOL     OW 2188   1.550   0.916   2.577  0.5974 -0.3338  0.4778
  730SOL    HW1 2189   1.457   0.929   2.551  2.2749 -1.7862 -2.2392
  730SOL    HW2 2190   1.561   0.914   2.679  0.8926  0.6768 -0.2449
  731SOL     OW 2191   1.014   3.003   1.281  0.1996  0.0318 -0.2681
  731SOL    HW1 2192   0.945   3.005   1.206 -0.5163  0.7197 -1.3992
  731SOL    HW2 2193   1.059   2.909   1.299  1.1357 -2.8684  1.1294
  732SOL     OW 2194   1.165   2.869   0.922  0.2099  0.3078  0.0157
  732SOL    HW1 2195   1.112   2.795   0.877  0.7758  1.7937 -1.0163
  732SOL    HW2 2196   1.234   2.840   0.994 -0.0629  2.7357  3.0434
  733SOL     OW 2197   1.074   1.110   0.912 -0.2748 -0.2959  0.1459
  733SOL    HW1 2198   1.099   1.142   0.819  0.4545 -2.0027 -1.3302
  733SOL    HW2 2199   1.152   1.046   0.947  1.2793 -2.0404  0.9511
  734SOL     OW 2200   2.525   2.065   2.790 -0.7194 -0.4589  0.0703
  734SOL    HW1 2201   2.576   2.153   2.799  1.6117 -1.9870 -3.2181
  734SOL    HW2 2202   2.580   2.013   2.728  1.6419 -0.1864  0.7730
  735SOL     OW 2203   0.813   0.133   0.948  0.5836 -0.2591 -0.8520
  735SOL    HW1 2204   0.867   0.069   0.895 -0.6795  2.1715  1.5602
  735SOL    HW2 2205   0.858   0.226   0.952  1.0652  2.2915  0.1230
  736SOL     OW 2206   1.887   2.408   2.732 -0.3415  0.1613  0.8888
  736SOL    HW1 2207   1.878   2.313   2.692 -1.5120  1.4232 -0.4641
  736SOL    HW2 2208   1.804   2.432   2.781  2.4001  2.2626 -1.4118
  737SOL     OW 2209   0.948   2.690   1.200 -0.2391  0.4425 -0.2015
  737SOL    HW1 2210   0.904   2.604   1.176 -1.6844 -0.6810  0.5704
  737SOL    HW2 2211   0.986   2.695   1.295 -1.8718  0.9983  3.1581
  738SOL     OW 2212   1.869   3.021   2.326  0.0527 -0.3377 -0.0254
  738SOL    HW1 2213   1.941   3.066   2.267 -3.3066 -1.8556 -1.0091
  738SOL    HW2 2214   1.894   2.923   2.344  3.0735 -0.2039 -0.4324
  739SOL     OW 2215   1.280   2.422   2.018 -0.3449  0.2710  0.1902
  739SOL    HW1 2216   1.290   2.396   2.118  0.9067  0.1217 -1.9845
  739SOL    HW2 2217   1.356   2.381   1.959 -0.3813 -0.7497 -0.7464
  740SOL     OW 2218   1.439   2.316   1.347 -0.1181 -0.4550  0.0008
  740SOL    HW1 2219   1.342   2.327   1.303  0.5306 -1.9752 -1.2423
  740SOL    HW2 2220   1.483   2.407   1.342 -1.4516 -0.4722  2.5848
  741SOL     OW 2221   2.627   1.033   0.272  0.3178  0.1985  0.1598
  741SOL    HW1 2222   2.641   1.122   0.326 -0.6397 -0.3461 -1.4263
  741SOL    HW2 2223   2.525   1.021   0.257 -1.4174 -0.1427 -4.5121
  742SOL     OW 2224   0.668   1.759   2.799 -0.7535  0.2779 -0.3916
  742SOL    HW1 2225   0.614   1.842   2.784  1.5481  1.5441  3.4911
  742SOL    HW2 2226   0.727   1.749   2.715  1.4355  0.4362 -2.4230
  743SOL     OW 2227   0.214   0.830   2.536 -0.4415  0.3081  0.1854
  743SOL    HW1 2228   0.215   0.799   2.633  1.1754  1.7608  0.0718
  743SOL    HW2 2229   0.162   0.767   2.475 -1.4747 -0.7470 -2.0507
  744SOL     OW 2230   2.472   2.351   1.103  0.1604 -0.2441  0.5845
  744SOL    HW1 2231   2.429   2.360   1.010  0.0114 -1.7639 -0.0654
  744SOL    HW2 2232   2.402   2.319   1.169  2.2132  0.1886 -1.4274
  745SOL     OW 2233   2.221   1.822   1.275  0.2011 -0.4526  0.5778
  745SOL    HW1 2234   2.297   1.767   1.243 -1.9392  2.3120 -0.1917
  745SOL    HW2 2235   2.216   1.912   1.226  0.9591  0.0611  2.0233
  746SOL     OW 2236   2.102   0.920   0.727 -0.4866  0.0666 -0.3292
  746SOL    HW1 2237   2.044   0.903   0.642 -0.0743  1.9709  0.3817
  746SOL    HW2 2238   2.040   0.937   0.803 -1.8575 -4.4298  0.7993
  747SOL     OW 2239   1.556   1.985   0.633  0.0845  0.4697 -0.3192
  747SOL    HW1 2240   1.649   1.955   0.608 -1.5444  0.5993 -1.9199
  747SOL    HW2 2241   1.486   1.917   0.599 -0.4771 -2.0788 -0.3172
  748SOL     OW 2242   0.834   1.925   0.756  0.9733  0.1553 -0.1823
  748SOL    HW1 2243   0.797   1.885   0.671 -0.9759 -2.3123  1.0882
  748SOL    HW2 2244   0.763   1.932   0.831 -0.8740  1.2337  1.2175
  749SOL     OW 2245   2.926   0.151   2.068 -0.0917 -0.1846 -0.0821
  749SOL    HW1 2246   3.016   0.199   2.051  1.2841 -0.9220  1.2281
  749SOL    HW2 2247   2.904   0.150   2.170 -0.4566 -0.4228 -0.2100
  750SOL     OW 2248   1.611   0.233   1.490 -1.0741  0.1628  0.6926
  750SOL    HW1 2249   1.707   0.241   1.519  1.0552 -1.3197 -2.3623
  750SOL    HW2 2250   1.564   0.320   1.521  2.2549 -0.0442  3.9041
  751SOL     OW 2251   1.724   2.925   3.052 -0.2331 -0.5742  0.5060
  751SOL    HW1 2252   1.638   2.904   3.104  1.0398  3.2778 -0.4677
  751SOL    HW2 2253   1.768   2.841   3.009  0.7311  0.4775 -1.4714
  752SOL     OW 2254   1.945   1.864   0.192 -0.0042 -0.7321 -0.0557
  752SOL    HW1 2255   1.856   1.818   0.175  0.5447 -1.6915  2.3241
  752SOL    HW2 2256   1.948   1.952   0.143 -2.1753  1.4322 -0.5220
  753SOL     OW 2257   1.722   1.008   2.396 -0.4794  0.7690  0.0610
  753SOL    HW1 2258   1.654   0.958   2.453 -0.3987  1.0446 -0.7448
  753SOL    HW2 2259   1.781   1.058   2.459 -0.1700 -3.1493 -1.4581
  754SOL     OW 2260   0.159   2.644   0.444  0.3983  0.2679  0.5855
  754SOL    HW1 2261   0.073   2.673   0.482  1.8324  1.5985 -2.4144
  754SOL    HW2 2262   0.226   2.723   0.448 -5.6119  3.8033  0.1590
  755SOL     OW 2263   1.877   0.441   0.936  0.1250 -0.8733 -0.0983
  755SOL    HW1 2264   1.961   0.497   0.924  1.8047 -1.1599  3.0557
  755SOL    HW2 2265   1.803   0.490   0.985  3.4819  1.5360  0.5050
  756SOL     OW 2266   1.277   1.574   2.727 -0.0352  0.0258  0.2564
  756SOL    HW1 2267   1.221   1.656   2.711 -1.2946 -0.8415  0.7724
  756SOL    HW2 2268   1.359   1.590   2.783 -0.2610  1.3565  0.3683
  757SOL     OW 2269   2.248   2.956   1.104  0.1182  0.6568 -0.2070
  757SOL    HW1 2270   2.299   2.871   1.106 -0.5262  0.6729 -1.0429
  757SOL    HW2 2271   2.308   3.034   1.135  2.2502  0.9173 -0.5760
  758SOL     OW 2272   0.768   2.821   1.583  0.2624  0.0833  0.0929
  758SOL    HW1 2273   0.722   2.856   1.498  1.7060 -0.2493  0.8185
  758SOL    HW2 2274   0.864   2.859   1.584  2.3113  0.5497  0.5176
  759SOL     OW 2275   2.050   1.290   1.209 -0.1673  0.3829  0.1773
  759SOL    HW1 2276   2.126   1.313   1.143 -0.8846 -0.0012 -0.7072
  759SOL    HW2 2277   2.021   1.375   1.262 -1.0333 -0.0511 -2.7338
  760SOL     OW 2278   1.965   0.876   1.612 -0.9066  0.6006  0.1245
  760SOL    HW1 2279   1.983   0.969   1.577 -2.2500 -1.9602  1.9954
  760SOL    HW2 2280   2.036   0.841   1.678 -0.8845 -0.2356 -1.7972
  761SOL     OW 2281   1.948   0.140   0.243 -0.0276 -0.2990 -0.1817
  761SOL    HW1 2282   1.895   0.096   0.318 -1.9867  2.3968 -1.1173
  761SOL    HW2 2283   1.960   0.075   0.167 -1.0369 -0.4798  0.5435
  762SOL     OW 2284   1.960   2.107   0.058 -0.4738 -0.0053  0.0953
  762SOL    HW1 2285   2.046   2.098   0.007 -0.1276  0.7184  0.3752
  762SOL    HW2 2286   1.941   2.207   0.065  0.2504 -0.4130 -0.9440
  763SOL     OW 2287   0.667   0.922   1.089  0.0155  0.0801 -0.4332
  763SOL    HW1 2288   0.714   0.977   1.023 -3.2750 -0.5401  0.5780
  763SOL    HW2 2289   0.714   0.936   1.184  2.2424 -1.8450 -1.1867
  764SOL     OW 2290   2.471   2.350   2.974 -0.0538  0.3154  0.1767
  764SOL    HW1 2291   2.462   2.450   2.983 -0.2387 -0.2693 -1.6073
  764SOL    HW2 2292   2.549   2.314   3.026  1.0561  0.4399 -0.6330
  765SOL     OW 2293   0.763   0.288   2.086  0.1782  0.0717 -0.8924
  765SOL    HW1 2294   0.851   0.252   2.124  0.3089 -0.7466  2.5555
  765SOL    HW2 2295   0.745   0.385   2.111 -0.4938  0.4872 -0.1050
  766SOL     OW 2296   0.172   1.246   2.326 -0.0737 -0.3857 -0.0539
  766SOL    HW1 2297   0.187   1.184   2.407 -2.3934 -0.6754  0.9414
  766SOL    HW2 2298   0.086   1.301   2.345 -2.0283 -1.6701  1.5533
  767SOL     OW 2299   2.854   1.741   1.806 -0.5860  0.2031  0.1075
  767SOL    HW1 2300   2.756   1.726   1.778  0.0745 -1.7023  1.2309
  767SOL    HW2 2301   2.922   1.741   1.729  2.5031  1.9312 -1.7367
  768SOL     OW 2302   1.071   0.928   3.060 -0.5319  0.2733  0.1966
  768SOL    HW1 2303   0.981   0.882   3.027  0.8044 -1.3006 -2.2739
  768SOL    HW2 2304   1.078   1.027   3.033 -1.6899  0.4165 -3.0591
  769SOL     OW 2305   2.015   2.817   0.210  0.0627 -0.3593  0.6679
  769SOL    HW1 2306   2.043   2.747   0.142  0.0262 -0.9913  1.0258
  769SOL    HW2 2307   1.991   2.903   0.160  2.1866  0.6306 -1.8020
  770SOL     OW 2308   2.987   0.440   2.628 -0.2200  0.1693  0.5199
  770SOL    HW1 2309   2.981   0.457   2.525  3.3972 -1.5104 -0.3042
  770SOL    HW2 2310   2.956   0.342   2.644  0.9908 -2.7793  0.1712
  771SOL     OW 2311   1.165   2.193   1.743 -0.0281 -0.8879  0.5006
  771SOL    HW1 2312   1.207   2.140   1.818 -0.6211  2.2204  1.1388
  771SOL    HW2 2313   1.236   2.232   1.687 -0.1573  0.7056  0.2176
  772SOL     OW 2314   0.441   0.642   3.090 -0.2014  0.3910 -0.5108
  772SOL    HW1 2315   0.455   0.707   3.012 -1.4915 -1.8479  0.7172
  772SOL    HW2 2316   0.352   0.664   0.027  0.2806 -1.2873 -0.9015
  773SOL     OW 2317   2.656   1.325   1.545 -0.0216 -0.5971 -0.3420
  773SOL    HW1 2318   2.568   1.275   1.545  1.8753 -1.3679 -2.2889
  773SOL    HW2 2319   2.723   1.275   1.602  0.0551 -2.0051 -2.2703
  774SOL     OW 2320   1.418   0.798   0.381  0.1775 -0.4322 -0.2441
  774SOL    HW1 2321   1.476   0.789   0.466  1.6275  1.1776  0.3332
  774SOL    HW2 2322   1.322   0.824   0.410  1.0769  1.4155  2.7120
  775SOL     OW 2323   2.216   2.774   3.083  0.2754 -0.2291  0.2458
  775SOL    HW1 2324   2.249   2.858   0.016 -1.0154  0.6302  1.4098
  775SOL    HW2 2325   2.171   2.778   2.994  0.1935  0.6488 -1.3333
  776SOL     OW 2326   2.592   0.715   2.153 -0.1605 -0.6030  0.0520
  776SOL    HW1 2327   2.616   0.781   2.226 -2.7522 -1.0663 -0.5464
  776SOL    HW2 2328   2.521   0.653   2.188  3.5581  3.1228  2.3328
  777SOL     OW 2329   0.428   1.385   2.657 -0.2476  0.1054 -0.5454
  777SOL    HW1 2330   0.518   1.393   2.701  1.6050 -0.0964 -0.0379
  777SOL    HW2 2331   0.431   1.396   2.554  0.7085 -0.3650  1.3959
  778SOL     OW 2332   0.907   0.213   0.481  0.3213 -0.0528 -0.0752
  778SOL    HW1 2333   0.848   0.294   0.482  0.2034 -1.4945 -1.9430
  778SOL    HW2 2334   0.868   0.134   0.527  3.9136  3.2963 -1.3778
  779SOL     OW 2335   0.507   1.027   2.767  0.1946 -0.4738 -0.3398
  779SOL    HW1 2336   0.519   1.126   2.793  1.5800 -0.3225 -3.5011
  779SOL    HW2 2337   0.555   1.003   2.681 -2.5256  1.2233  2.4590
  780SOL     OW 2338   2.173   0.925   2.536  0.7873  0.6999 -0.0365
  780SOL    HW1 2339   2.257   0.869   2.523 -1.7686 -2.2330  0.1257
  780SOL    HW2 2340   2.098   0.884   2.486  3.5044 -0.9563  0.1316
  781SOL     OW 2341   2.452   1.348   1.827  1.0553  0.3545 -0.1221
  781SOL    HW1 2342   2.538   1.308   1.853 -1.8238  3.9557 -1.0770
  781SOL    HW2 2343   2.462   1.416   1.751  1.1472  1.8182 -2.4753
  782SOL     OW 2344   1.313   1.761   2.365 -0.3176  0.3528  0.3430
  782SOL    HW1 2345   1.363   1.725   2.286 -2.0013  1.3530 -0.9938
  782SOL    HW2 2346   1.220   1.723   2.375 -4.4723  1.6511  0.4988
  783SOL     OW 2347   0.489   2.664   1.351  0.1435 -0.6123  0.0962
  783SOL    HW1 2348   0.533   2.751   1.383 -0.0834 -1.8828 -2.0707
  783SOL    HW2 2349   0.402   2.643   1.404 -0.6616  1.2334  2.2997
  784SOL     OW 2350   1.382   0.498   3.013 -0.8433 -0.0168  0.4783
  784SOL    HW1 2351   1.416   0.458   2.926 -1.8625  1.0064 -0.4056
  784SOL    HW2 2352   1.461   0.520   3.074 -1.9262 -1.2305  0.6108
  785SOL     OW 2353   1.287   0.308   0.087  0.0100 -0.1711 -0.0791
  785SOL    HW1 2354   1.325   0.385   0.032  0.8139  1.5380  1.7511
  785SOL    HW2 2355   1.363   0.256   0.133  1.8355  0.5443  0.3340
  786SOL     OW 2356   0.364   1.746   0.500 -0.1112 -0.0838  0.1976
  786SOL    HW1 2357   0.420   1.663   0.529  2.2166 -0.2924  0.0162
  786SOL    HW2 2358   0.286   1.719   0.442  2.5328  2.2544  0.1812
  787SOL     OW 2359   1.720   1.382   0.406 -0.1610  0.5280 -0.4947
  787SOL    HW1 2360   1.780   1.454   0.444 -1.5520  0.1647  0.8734
  787SOL    HW2 2361   1.682   1.405   0.313  0.8245 -1.4350 -1.2035
  788SOL     OW 2362   1.818   1.743   1.461  0.1514 -0.0383 -0.2108
  788SOL    HW1 2363   1.733   1.729   1.518 -0.1016 -0.9293 -1.2093
  788SOL    HW2 2364   1.792   1.803   1.380  0.4747  2.6374  0.9471
  789SOL     OW 2365   2.852   1.425   1.840  0.2308  0.0244 -0.7117
  789SOL    HW1 2366   2.873   1.500   1.899 -0.9922 -3.7944 -3.1618
  789SOL    HW2 2367   2.932   1.414   1.780 -1.2718 -1.9748 -0.3412
  790SOL     OW 2368   0.396   3.023   3.011  0.3869 -0.0045  0.5769
  790SOL    HW1 2369   0.377   3.045   0.000  2.3863  0.6814 -2.3509
  790SOL    HW2 2370   0.483   2.975   2.988  1.8384 -0.5010  0.4473
  791SOL     OW 2371   0.650   0.101   2.510  0.3732 -0.1084  0.1446
  791SOL    HW1 2372   0.590   0.185   2.507  1.9868 -1.7290  0.5918
  791SOL    HW2 2373   0.630   0.037   2.585  1.7496 -1.7373 -1.3535
  792SOL     OW 2374   2.120   0.423   2.591 -0.1244 -0.1579  0.1430
  792SOL    HW1 2375   2.043   0.442   2.654  2.4550 -0.5131 -0.6186
  792SOL    HW2 2376   2.207   0.463   2.622 -2.9579 -0.4550  0.0548
  793SOL     OW 2377   3.079   0.438   1.164  1.0749 -0.1092  0.2456
  793SOL    HW1 2378   3.102   0.367   1.094  0.8277 -0.2970 -0.5135
  793SOL    HW2 2379   0.046   0.482   1.212 -0.7011  0.8050 -0.9667
  794SOL     OW 2380   0.494   0.503   2.169 -0.6728 -1.1760 -0.1878
  794SOL    HW1 2381   0.535   0.516   2.076  1.9279  0.8023 -2.1827
  794SOL    HW2 2382   0.416   0.567   2.172 -1.9823  1.8056 -1.5966
  795SOL     OW 2383   0.028   1.267   0.251 -0.1153 -0.3555  0.3136
  795SOL    HW1 2384   3.040   1.258   0.223 -1.2792 -0.5144  0.2459
  795SOL    HW2 2385   0.032   1.284   0.351  3.4233 -2.1389 -0.4716
  796SOL     OW 2386   0.033   2.946   0.425 -0.1849  0.7014 -0.3348
  796SOL    HW1 2387   3.089   2.869   0.475 -0.0904  2.4834 -0.1799
  796SOL    HW2 2388   0.130   2.937   0.449 -0.7185  0.9474 -1.3914
  797SOL     OW 2389   1.978   2.590   2.104  0.2758  0.0091  0.5290
  797SOL    HW1 2390   1.894   2.605   2.047 -0.8603 -2.0769  0.2805
  797SOL    HW2 2391   2.029   2.679   2.114 -0.3739  0.5092 -2.4814
  798SOL     OW 2392   0.072   0.987   0.804 -0.3391  0.2510  0.0555
  798SOL    HW1 2393   0.048   1.008   0.707 -0.7862 -0.4878  0.2001
  798SOL    HW2 2394   0.168   1.015   0.823  1.3562  0.0999  3.7817
  799SOL     OW 2395   2.817   0.534   2.818  0.3719  0.1736 -0.4087
  799SOL    HW1 2396   2.890   0.497   2.762 -0.3413 -1.5327  0.8174
  799SOL    HW2 2397   2.788   0.631   2.786  2.1110  1.5350 -1.3528
  800SOL     OW 2398   2.847   2.126   0.299  0.0823 -0.2302  0.4808
  800SOL    HW1 2399   2.883   2.121   0.395  1.7821  1.1133 -0.9176
  800SOL    HW2 2400   2.856   2.035   0.258 -0.2609  1.5877  3.6892
  801SOL     OW 2401   1.284   1.481   0.865 -0.2887  0.0987 -0.6503
  801SOL    HW1 2402   1.380   1.452   0.886  3.8827 -0.4303  1.2131
  801SOL    HW2 2403   1.239   1.497   0.955 -0.3511 -0.7369  0.6255
  802SOL     OW 2404   1.036   1.912   1.979  0.2460 -0.6427  0.1235
  802SOL    HW1 2405   1.068   1.998   2.032 -0.0891 -2.0952  0.1955
  802SOL    HW2 2406   0.933   1.911   1.971 -2.6826  0.3194  0.4526
  803SOL     OW 2407   0.280   1.771   0.799  0.5705  0.2779  0.0386
  803SOL    HW1 2408   0.191   1.730   0.840 -2.0483 -0.0801 -2.0198
  803SOL    HW2 2409   0.275   1.772   0.699  0.7377 -1.0992  4.1148
  804SOL     OW 2410   1.050   2.276   1.422  0.3922  0.0820  0.5614
  804SOL    HW1 2411   1.118   2.281   1.352 -2.9355 -0.9205  1.8978
  804SOL    HW2 2412   0.959   2.257   1.383 -0.7882 -0.6515 -0.2449
  805SOL     OW 2413   1.977   1.505   0.034  0.4229  0.1650  0.4960
  805SOL    HW1 2414   2.018   1.599   0.021  0.0451  0.2954  2.4260
  805SOL    HW2 2415   1.885   1.503   3.106 -0.7235 -1.1911  0.1464
  806SOL     OW 2416   1.750   2.536   1.085  0.1015 -0.3098 -0.4560
  806SOL    HW1 2417   1.841   2.501   1.111 -0.2154  0.6290 -1.2048
  806SOL    HW2 2418   1.723   2.483   0.998  0.2199 -2.4463 -0.8875
  807SOL     OW 2419   2.746   0.663   3.076 -0.0498  0.0275 -0.0969
  807SOL    HW1 2420   2.750   0.764   3.096  0.6636  0.8833 -0.0008
  807SOL    HW2 2421   2.767   0.639   2.979  2.9068 -0.2249 -1.4050
  808SOL     OW 2422   0.321   1.304   0.555 -0.0560  0.1791  0.2963
  808SOL    HW1 2423   0.379   1.270   0.633  1.8236 -0.0461 -1.5300
  808SOL    HW2 2424   0.320   1.236   0.476 -1.9689 -1.0409 -1.2137
  809SOL     OW 2425   2.634   0.918   2.337  0.3175  0.1660  0.3075
  809SOL    HW1 2426   2.554   0.983   2.354  3.1880 -0.1521 -1.1729
  809SOL    HW2 2427   2.702   0.958   2.269  1.2948 -2.3270 -1.5845
  810SOL     OW 2428   1.438   0.454   1.526  0.0901  0.3584 -0.0174
  810SOL    HW1 2429   1.425   0.466   1.630 -2.0771  0.5171  3.8341
  810SOL    HW2 2430   1.363   0.395   1.488 -1.1471 -2.5558 -1.3488
  811SOL     OW 2431   1.965   2.802   1.463 -0.4057 -0.0479 -0.2885
  811SOL    HW1 2432   1.930   2.705   1.444 -0.2283 -0.5589 -0.2338
  811SOL    HW2 2433   1.993   2.842   1.371 -1.9751  0.6837 -1.8933
  812SOL     OW 2434   1.850   2.692   2.966  0.0659 -0.5185 -0.1906
  812SOL    HW1 2435   1.770   2.629   2.953  1.5491 -0.8514 -0.0673
  812SOL    HW2 2436   1.927   2.636   2.999 -0.0642 -0.9458  0.9958
  813SOL     OW 2437   1.570   0.928   2.155  0.2096 -0.2537  0.1453
  813SOL    HW1 2438   1.489   0.993   2.140 -2.6825  0.1824  6.0199
  813SOL    HW2 2439   1.610   0.955   2.244  1.1856 -0.6903  3.1305
  814SOL     OW 2440   1.135   0.442   1.944 -0.1029 -0.2969  0.7648
  814SOL    HW1 2441   1.175   0.385   2.018  1.9297  1.2911  1.1430
  814SOL    HW2 2442   1.077   0.512   1.991  1.1942 -2.3624  0.8125
  815SOL     OW 2443   0.516   0.823   0.314  0.2870 -0.7267 -0.5685
  815SOL    HW1 2444   0.598   0.855   0.362 -1.1713  0.9498 -0.6665
  815SOL    HW2 2445   0.428   0.860   0.363 -4.3286 -2.9671  1.2098
  816SOL     OW 2446   2.262   1.709   2.723 -0.0489 -0.7081 -0.3609
  816SOL    HW1 2447   2.231   1.746   2.635 -0.4233  1.4353 -1.6377
  816SOL    HW2 2448   2.187   1.648   2.757  1.1148  1.6544 -2.9381
  817SOL     OW 2449   0.599   2.373   0.425 -0.1853 -0.2518 -0.3750
  817SOL    HW1 2450   0.690   2.416   0.441 -1.5935 -0.0126  1.0534
  817SOL    HW2 2451   0.552   2.339   0.508  1.4875  1.4007  1.6195
  818SOL     OW 2452   2.068   3.029   2.942 -0.3985 -0.6341  0.2370
  818SOL    HW1 2453   2.032   3.089   2.868 -1.2764  0.1288  1.7451
  818SOL    HW2 2454   2.102   2.945   2.901  1.0609 -0.1631  2.1721
  819SOL     OW 2455   1.537   0.169   0.136  0.3033  0.0310  0.3503
  819SOL    HW1 2456   1.553   0.138   0.041  1.9349 -1.3880 -1.6351
  819SOL    HW2 2457   1.601   0.250   0.158  0.9451  1.0526  3.4963
  820SOL     OW 2458   1.720   0.537   0.404  0.2388  0.2443  0.3084
  820SOL    HW1 2459   1.655   0.491   0.464  3.1456  2.5750 -2.7179
  820SOL    HW2 2460   1.810   0.557   0.452 -0.0519 -1.3693  0.9400
  821SOL     OW 2461   2.582   2.931   0.391 -0.4801  0.5236  0.4164
  821SOL    HW1 2462   2.494   2.952   0.357  2.3659 -0.2918 -3.2045
  821SOL    HW2 2463   2.643   3.012   0.377  1.2504  0.5814 -2.4268
  822SOL     OW 2464   0.167   2.867   1.952 -0.5699 -0.1202  0.2221
  822SOL    HW1 2465   0.093   2.931   1.925  1.1782 -2.8905 -1.8340
  822SOL    HW2 2466   0.207   2.830   1.865  0.4584 -0.6739 -0.6671
  823SOL     OW 2467   2.546   1.716   1.450  0.0932 -0.2871 -0.2767
  823SOL    HW1 2468   2.474   1.679   1.383 -1.0573  0.8321  0.6974
  823SOL    HW2 2469   2.522   1.813   1.472  0.4608  2.3390  3.0825
  824SOL     OW 2470   1.416   2.867   2.423  0.1107  0.4655 -0.1084
  824SOL    HW1 2471   1.419   2.798   2.345 -1.5464 -0.3885 -1.3524
  824SOL    HW2 2472   1.487   2.857   2.494  0.2173 -0.8182  2.0834
  825SOL     OW 2473   1.909   1.230   0.751 -0.2628 -0.2595  0.0943
  825SOL    HW1 2474   1.905   1.141   0.799  1.2377 -0.1688 -0.2080
  825SOL    HW2 2475   1.821   1.250   0.701 -0.9715  2.4333 -3.3320
  826SOL     OW 2476   1.991   0.556   0.004 -0.3367  0.0092 -0.0809
  826SOL    HW1 2477   2.002   0.659   0.001  1.8503  1.4505  0.6200
  826SOL    HW2 2478   1.993   0.517   0.100 -0.4703  0.1685  1.3777
  827SOL     OW 2479   0.456   1.083   1.539 -0.4149  0.0377  0.0903
  827SOL    HW1 2480   0.398   1.151   1.590 -0.9461  1.9215 -0.0585
  827SOL    HW2 2481   0.476   1.118   1.446 -1.5993  0.4079  0.4706
  828SOL     OW 2482   1.975   1.446   1.774 -0.2175  0.0478 -0.5900
  828SOL    HW1 2483   1.992   1.444   1.874 -2.0696 -1.9461 -0.1818
  828SOL    HW2 2484   1.963   1.535   1.738  0.4352 -3.5371  0.8305
  829SOL     OW 2485   2.856   1.849   0.158  0.0313  0.2500  0.6060
  829SOL    HW1 2486   2.844   1.770   0.098 -2.0441  1.0679 -0.8374
  829SOL    HW2 2487   2.946   1.849   0.205 -0.2525  1.2531  1.8492
  830SOL     OW 2488   1.552   0.763   0.615 -0.1799  0.0848  0.4521
  830SOL    HW1 2489   1.649   0.735   0.631 -0.1545 -0.2054  0.0444
  830SOL    HW2 2490   1.492   0.716   0.686 -0.9060 -2.9089  1.8663
  831SOL     OW 2491   2.669   1.442   0.197 -0.2420  0.2455  0.1832
  831SOL    HW1 2492   2.637   1.451   0.100  0.4636  2.0685  0.0798
  831SOL    HW2 2493   2.681   1.530   0.244 -3.3174  0.4538 -0.2310
  832SOL     OW 2494   0.965   3.035   0.098 -0.2424 -0.5559  0.4903
  832SOL    HW1 2495   0.866   3.054   0.112  1.0016 -3.4034  0.9132
  832SOL    HW2 2496   1.020   0.012   0.087 -1.1674  1.0860 -1.9411
  833SOL     OW 2497   1.272   0.690   2.214  0.0275 -0.0377  0.4238
  833SOL    HW1 2498   1.322   0.599   2.234  3.9795 -0.8109 -0.0431
  833SOL    HW2 2499   1.344   0.760   2.193  0.0091  1.2968  0.5890
  834SOL     OW 2500   0.205   0.587   1.304 -0.4916  0.3612 -0.5501
  834SOL    HW1 2501   0.278   0.644   1.260  1.3614  2.4309  2.8388
  834SOL    HW2 2502   0.247   0.493   1.326 -0.3002 -0.0050 -4.2897
  835SOL     OW 2503   3.063   0.153   1.326 -0.1802 -0.9688  0.6363
  835SOL    HW1 2504   2.977   0.191   1.282 -1.0728  0.4995  2.9760
  835SOL    HW2 2505   3.064   0.171   1.425  1.6619 -0.0681  0.7658
  836SOL     OW 2506   0.342   2.132   0.303  0.2498  0.5845  0.0775
  836SOL    HW1 2507   0.416   2.064   0.321  2.5908 -1.6524  0.8312
  836SOL    HW2 2508   0.370   2.217   0.258 -0.7858  1.0752  2.2679
  837SOL     OW 2509   1.758   1.866   2.470  0.5822  0.2098 -0.0807
  837SOL    HW1 2510   1.816   1.950   2.467  3.0110 -0.9796 -1.1957
  837SOL    HW2 2511   1.809   1.777   2.460  0.3019  1.8980  0.2470
  838SOL     OW 2512   0.159   1.146   1.831  0.2126 -0.4427  0.1079
  838SOL    HW1 2513   0.116   1.170   1.920  1.2151  0.0124 -1.5319
  838SOL    HW2 2514   0.117   1.060   1.792 -0.9526 -1.0180  0.2557
  839SOL     OW 2515   0.363   0.663   0.718  0.1369  0.2057  0.0466
  839SOL    HW1 2516   0.287   0.604   0.752  0.0903 -0.5895 -0.5446
  839SOL    HW2 2517   0.449   0.607   0.728  0.5151 -1.5831  1.5259
  840SOL     OW 2518   2.867   0.181   2.633 -0.2455  0.1690  0.6749
  840SOL    HW1 2519   2.890   0.117   2.714  0.7580 -1.9889  0.9631
  840SOL    HW2 2520   2.786   0.138   2.584  2.0880  1.0206  1.8846
  841SOL     OW 2521   0.771   2.366   2.931  0.4109  0.2874 -0.0330
  841SOL    HW1 2522   0.855   2.403   2.977  3.0850  0.4610 -1.5960
  841SOL    HW2 2523   0.788   2.270   2.901  1.7619 -0.1124 -0.0764
  842SOL     OW 2524   0.756   3.009   1.173 -0.0891  0.1259 -0.1173
  842SOL    HW1 2525   0.720   3.090   1.128 -0.8311 -0.7608  2.0658
  842SOL    HW2 2526   0.783   2.938   1.101  0.5557 -1.3194 -1.0610
  843SOL     OW 2527   0.112   1.038   0.134 -0.1684  0.2277  0.0719
  843SOL    HW1 2528   0.055   0.965   0.179 -0.6458  0.2017 -0.5954
  843SOL    HW2 2529   0.114   1.117   0.187  0.0364  1.4673 -4.1348
  844SOL     OW 2530   1.530   2.422   2.659  0.2918 -0.1091 -0.2774
  844SOL    HW1 2531   1.516   2.324   2.661  0.8397  2.5356  0.3261
  844SOL    HW2 2532   1.568   2.449   2.567  1.9975  3.5410  0.5157
  845SOL     OW 2533   2.312   2.878   2.669  0.1884 -0.1999 -0.3096
  845SOL    HW1 2534   2.362   2.964   2.689 -0.1951 -0.3724  0.3096
  845SOL    HW2 2535   2.296   2.867   2.570  1.3361  0.4103  0.6630
  846SOL     OW 2536   1.940   1.668   2.467  0.0473  0.0073  0.1824
  846SOL    HW1 2537   1.973   1.592   2.409  1.8939 -0.7780  1.4147
  846SOL    HW2 2538   1.922   1.636   2.565  0.8742  0.2038  2.2501
  847SOL     OW 2539   2.787   2.968   3.077 -0.1839 -0.4688  0.3438
  847SOL    HW1 2540   2.698   3.002   3.036  1.7512 -1.0356 -1.0298
  847SOL    HW2 2541   2.844   3.046   3.096 -1.2170  3.3821  1.1872
  848SOL     OW 2542   0.442   0.551   0.318  0.2639  0.3776 -0.0616
  848SOL    HW1 2543   0.342   0.551   0.289 -1.7182 -1.3441 -3.5750
  848SOL    HW2 2544   0.473   0.648   0.325 -1.1114  2.4230  0.0575
  849SOL     OW 2545   1.666   3.104   2.190 -0.0850 -0.1119  0.9103
  849SOL    HW1 2546   1.743   3.066   2.244 -0.1266 -1.4660 -0.6372
  849SOL    HW2 2547   1.685   0.095   2.167  2.4672  1.5811  0.1757
  850SOL     OW 2548   0.830   1.035   0.625 -0.0254  0.7459  0.5624
  850SOL    HW1 2549   0.899   1.109   0.610 -0.3557  1.1879 -0.5324
  850SOL    HW2 2550   0.826   1.022   0.725  3.0965  1.2936 -0.6184
  851SOL     OW 2551   0.298   1.375   0.197 -0.8140 -0.2958  0.2165
  851SOL    HW1 2552   0.367   1.313   0.232 -0.7441  1.2522 -2.8013
  851SOL    HW2 2553   0.204   1.347   0.218 -1.0394  0.4941 -1.2216
  852SOL     OW 2554   1.207   0.267   2.159 -0.0201 -0.0706  0.1868
  852SOL    HW1 2555   1.267   0.183   2.137  1.3476 -2.1274 -0.7377
  852SOL    HW2 2556   1.145   0.243   2.238 -3.0049 -0.3080 -1.2668
  853SOL     OW 2557   2.656   1.265   0.408 -0.5393  0.2679  0.1703
  853SOL    HW1 2558   2.731   1.289   0.474  1.7349 -0.2924  0.5279
  853SOL    HW2 2559   2.646   1.338   0.339  1.4568  1.3499  1.5833
  854SOL     OW 2560   1.138   1.015   2.253 -0.6025 -0.0109 -0.4883
  854SOL    HW1 2561   1.055   0.970   2.215  0.1563 -0.8270  1.7190
  854SOL    HW2 2562   1.133   1.118   2.245  0.5946  2.2138 -0.7273
  855SOL     OW 2563   0.157   2.884   3.020  0.1072 -0.2520  0.5035
  855SOL    HW1 2564   0.241   2.938   3.038  0.3818 -1.1235 -1.8202
  855SOL    HW2 2565   0.118   2.851   3.107  1.8630 -1.3653  0.4461
  856SOL     OW 2566   1.297   0.942   2.477  0.1672 -0.2130  0.1676
  856SOL    HW1 2567   1.245   0.982   2.396  0.8160  1.0367  0.0880
  856SOL    HW2 2568   1.241   0.873   2.530 -0.9162  0.2891  2.5910
  857SOL     OW 2569   1.184   0.773   2.668  0.4143  0.0997 -0.7929
  857SOL    HW1 2570   1.200   0.689   2.619 -1.1312  4.3702  3.2162
  857SOL    HW2 2571   1.101   0.766   2.730 -0.9225 -1.4688  2.0453
  858SOL     OW 2572   2.981   1.381   2.196 -0.1383  0.2361 -0.7756
  858SOL    HW1 2573   2.927   1.379   2.279 -0.8633  1.3976  1.9292
  858SOL    HW2 2574   2.971   1.469   2.145  1.9285  2.9632  0.5220
  859SOL     OW 2575   2.406   0.333   0.773 -0.5363 -0.3433  0.0043
  859SOL    HW1 2576   2.326   0.307   0.832  1.8262 -0.9197  0.8580
  859SOL    HW2 2577   2.489   0.276   0.804 -0.9413 -0.0537  0.3331
  860SOL     OW 2578   1.669   2.905   0.435 -0.2148 -0.1406 -0.1323
  860SOL    HW1 2579   1.716   2.993   0.402  1.1663 -2.1200  1.4169
  860SOL    HW2 2580   1.714   2.819   0.395  1.0485 -1.4093 -2.4538
  861SOL     OW 2581   1.114   0.572   1.303 -0.0411 -0.7547 -0.6809
  861SOL    HW1 2582   1.173   0.497   1.331  0.5307  1.4449  0.3917
  861SOL    HW2 2583   1.014   0.550   1.323 -0.8764 -1.2405  0.4454
  862SOL     OW 2584   1.532   0.193   2.674 -0.3038  0.4311  0.0536
  862SOL    HW1 2585   1.626   0.219   2.706 -1.8448 -4.8302 -0.7864
  862SOL    HW2 2586   1.537   0.106   2.617  0.6736  0.0087 -2.6920
  863SOL     OW 2587   2.659   2.541   0.551 -0.4056  0.0781 -0.0236
  863SOL    HW1 2588   2.611   2.620   0.592 -1.4038  0.5810 -0.5368
  863SOL    HW2 2589   2.627   2.517   0.458  2.3006 -1.1302  0.3118
  864SOL     OW 2590   2.524   0.269   2.186 -0.1362 -0.0753 -0.2886
  864SOL    HW1 2591   2.563   0.272   2.282  1.5103 -2.0169  2.2732
  864SOL    HW2 2592   2.597   0.274   2.114  0.7809  0.8084 -1.0271
  865SOL     OW 2593   1.170   1.021   1.868  0.4332  0.3648 -0.2556
  865SOL    HW1 2594   1.072   1.019   1.853 -0.5114  1.0795  1.3380
  865SOL    HW2 2595   1.219   1.104   1.828  0.3590 -0.0171  1.0302
  866SOL     OW 2596   1.671   2.381   0.846  0.4680  0.4867  0.1050
  866SOL    HW1 2597   1.644   2.291   0.889  0.0129 -2.3417  0.8297
  866SOL    HW2 2598   1.594   2.451   0.847  1.4856 -3.1100  1.0494
  867SOL     OW 2599   2.315   3.008   0.378 -0.6010  0.6495 -0.0003
  867SOL    HW1 2600   2.298   2.940   0.450  0.4386  1.2190 -0.4984
  867SOL    HW2 2601   2.258   3.090   0.387 -0.6199 -1.0733  0.5452
  868SOL     OW 2602   0.300   2.344   2.093  0.0618 -0.5081  0.0272
  868SOL    HW1 2603   0.331   2.386   2.010  0.6868  0.0201  1.9490
  868SOL    HW2 2604   0.251   2.405   2.155 -0.1747  0.3810 -1.1406
  869SOL     OW 2605   2.197   2.405   2.024 -0.1660 -0.0795  0.2006
  869SOL    HW1 2606   2.116   2.462   2.031 -3.4065 -1.6108 -0.5101
  869SOL    HW2 2607   2.230   2.391   2.119 -1.1249  0.3678  0.3777
  870SOL     OW 2608   1.545   1.408   0.862 -0.5056 -0.4643 -0.3619
  870SOL    HW1 2609   1.589   1.366   0.780  1.5878  0.3098 -1.1359
  870SOL    HW2 2610   1.575   1.353   0.943  2.2998  2.4277 -2.4959
  871SOL     OW 2611   3.001   1.729   1.561  0.2496  0.4313  0.2880
  871SOL    HW1 2612   3.093   1.688   1.579  0.1583  0.9853  2.5911
  871SOL    HW2 2613   2.927   1.665   1.532  1.9425  1.0259 -4.5267
  872SOL     OW 2614   0.846   1.765   2.584  0.1122 -0.2327 -0.7035
  872SOL    HW1 2615   0.934   1.758   2.637 -1.0675 -0.4630 -0.1817
  872SOL    HW2 2616   0.834   1.852   2.532  0.0120 -3.4489  1.8502
  873SOL     OW 2617   0.762   1.688   1.975 -0.1681 -0.7421  0.5939
  873SOL    HW1 2618   0.756   1.786   2.011  1.3198  0.8171 -0.9568
  873SOL    HW2 2619   0.807   1.626   2.035 -3.9838  1.1998  1.4009
  874SOL     OW 2620   1.591   0.666   2.083  0.4104  0.1389 -0.0095
  874SOL    HW1 2621   1.594   0.678   1.983 -0.4257  1.7102  0.2353
  874SOL    HW2 2622   1.611   0.752   2.130 -0.3315 -0.2262  0.3655
  875SOL     OW 2623   0.045   0.028   0.229  0.1571  0.1856  0.5946
  875SOL    HW1 2624   0.143   0.013   0.207  0.9731 -1.4072  1.4169
  875SOL    HW2 2625   0.025   3.071   0.306  1.1865  1.5986  2.4183
  876SOL     OW 2626   0.909   1.440   0.461 -0.4931 -0.5002 -0.0039
  876SOL    HW1 2627   0.950   1.369   0.398 -0.4068  0.2628 -1.0540
  876SOL    HW2 2628   0.976   1.463   0.536  0.5336  1.0880  2.0854
  877SOL     OW 2629   2.387   3.012   0.727 -0.0809 -0.0762 -0.1725
  877SOL    HW1 2630   2.444   3.084   0.757 -2.2669  0.5547 -0.4935
  877SOL    HW2 2631   2.290   3.021   0.758  2.3269 -0.7247  0.0596
  878SOL     OW 2632   1.866   1.588   0.529 -0.2009 -0.6674  0.1309
  878SOL    HW1 2633   1.936   1.638   0.479 -1.4511 -1.5337  0.6878
  878SOL    HW2 2634   1.904   1.550   0.616 -0.3798 -0.7624  4.3324
  879SOL     OW 2635   2.439   1.662   1.208  0.4023 -0.2657  0.3454
  879SOL    HW1 2636   2.410   1.667   1.112  1.0215  1.2523 -0.5564
  879SOL    HW2 2637   2.540   1.671   1.221  2.1290 -0.1459  1.8376
  880SOL     OW 2638   0.641   2.024   0.911  0.1237 -0.1352  0.0077
  880SOL    HW1 2639   0.667   2.037   1.010 -0.9785 -0.4915 -2.4121
  880SOL    HW2 2640   0.541   2.027   0.899 -0.4064  0.0012 -1.8961
  881SOL     OW 2641   0.796   0.717   0.985 -0.1212 -0.0436  0.0599
  881SOL    HW1 2642   0.739   0.793   1.026 -0.3698  1.9779  0.1208
  881SOL    HW2 2643   0.777   0.719   0.885 -1.7260 -2.7697 -1.1141
  882SOL     OW 2644   2.463   1.005   0.878 -0.7165  0.2897 -0.3273
  882SOL    HW1 2645   2.467   1.084   0.814  1.8846 -2.6765  1.2238
  882SOL    HW2 2646   2.426   0.920   0.835 -3.2971 -0.0377  1.6961
  883SOL     OW 2647   1.962   0.371   1.836  0.0579 -0.3919  0.2007
  883SOL    HW1 2648   1.918   0.366   1.745  1.9201  0.1975  1.9353
  883SOL    HW2 2649   1.900   0.397   1.917  1.1233  0.3593  0.0374
  884SOL     OW 2650   2.960   0.263   1.606 -0.3413 -0.1673 -0.0836
  884SOL    HW1 2651   3.016   0.233   1.687  2.7394 -2.0824  1.7058
  884SOL    HW2 2652   2.890   0.324   1.638  1.1299 -0.8702 -2.1478
  885SOL     OW 2653   1.417   1.260   2.691  0.1541  0.3521 -0.2861
  885SOL    HW1 2654   1.327   1.225   2.696  0.2223 -1.2827 -3.7381
  885SOL    HW2 2655   1.423   1.328   2.617  2.0528  2.0162 -1.0086
  886SOL     OW 2656   1.876   0.492   2.746 -0.1110  0.0958 -0.4489
  886SOL    HW1 2657   1.855   0.478   2.848 -0.2107 -3.3474  0.0081
  886SOL    HW2 2658   1.805   0.544   2.695  2.2214  0.1603 -2.5614
  887SOL     OW 2659   1.610   0.069   1.703  0.3111  0.0656 -0.4654
  887SOL    HW1 2660   1.601   0.127   1.618 -0.6516  1.4575 -1.7398
  887SOL    HW2 2661   1.684   3.107   1.698  2.3546  0.0759 -2.0469
  888SOL     OW 2662   2.019   1.714   1.844 -0.1644 -0.5963  0.2564
  888SOL    HW1 2663   2.108   1.737   1.802  1.1364 -1.6416 -0.4463
  888SOL    HW2 2664   2.039   1.687   1.943  1.1636 -1.5749  0.0993
  889SOL     OW 2665   1.766   2.053   0.412 -0.1091  0.5186 -1.1946
  889SOL    HW1 2666   1.815   2.132   0.449  1.1973 -0.4766  1.3967
  889SOL    HW2 2667   1.816   2.010   0.334 -0.4114  2.3387  3.0312
  890SOL     OW 2668   1.007   2.016   0.482 -0.3611 -0.2512 -0.4372
  890SOL    HW1 2669   1.030   1.924   0.520  3.2196  0.7979  1.4161
  890SOL    HW2 2670   1.093   2.067   0.466  0.5890  2.0623  2.3490
  891SOL     OW 2671   2.784   0.933   0.092 -0.4144  0.0736 -0.6161
  891SOL    HW1 2672   2.876   0.917   0.133 -1.0024 -1.2380  0.0007
  891SOL    HW2 2673   2.727   0.984   0.162  2.3019 -0.8006 -0.8032
  892SOL     OW 2674   1.644   0.633   2.669  0.3955 -0.5894  0.3462
  892SOL    HW1 2675   1.556   0.590   2.695 -0.1812  3.5410  3.6884
  892SOL    HW2 2676   1.636   0.663   2.572 -2.6744  0.5453 -0.5983
  893SOL     OW 2677   1.509   2.789   1.591  0.2022  0.3924  0.3891
  893SOL    HW1 2678   1.532   2.863   1.523  1.7395  1.1042 -1.7295
  893SOL    HW2 2679   1.506   2.833   1.683 -0.4897 -0.4959 -1.6624
  894SOL     OW 2680   2.986   0.025   0.544 -1.2867 -0.1822  0.0934
  894SOL    HW1 2681   3.035   3.060   0.493  1.7472  2.2751 -0.7370
  894SOL    HW2 2682   3.046   0.056   0.624  0.1322 -1.7077 -2.1451
  895SOL     OW 2683   2.073   2.556   0.032 -0.6537 -0.5106  0.5808
  895SOL    HW1 2684   2.147   2.623   0.002  4.0559  1.6648  1.1606
  895SOL    HW2 2685   2.102   2.492   0.107  0.4027  0.2257  1.5320
  896SOL     OW 2686   2.381   3.098   2.161  0.0409  0.3730  0.0412
  896SOL    HW1 2687   2.299   3.078   2.102 -1.6790  2.1346  0.5331
  896SOL    HW2 2688   2.375   0.080   2.205 -1.8652 -2.6080 -2.2951
  897SOL     OW 2689   0.355   1.550   1.680 -0.0975  0.2590 -0.0830
  897SOL    HW1 2690   0.396   1.566   1.769 -0.0645 -0.2122 -2.4134
  897SOL    HW2 2691   0.417   1.597   1.613 -0.4462 -1.5480  0.4186
  898SOL     OW 2692   2.242   1.788   1.691  0.0488  0.4070 -0.0742
  898SOL    HW1 2693   2.167   1.829   1.635 -2.0709 -0.2782 -1.2653
  898SOL    HW2 2694   2.322   1.846   1.709 -2.3823 -0.1884  0.1310
  899SOL     OW 2695   1.514   2.182   0.977  0.2960  0.1961  0.2889
  899SOL    HW1 2696   1.431   2.242   0.949  1.1801  0.0953 -0.1309
  899SOL    HW2 2697   1.519   2.167   1.074 -1.2743 -1.7857 -3.2053
  900SOL     OW 2698   1.076   0.552   0.131  0.0746  0.1805 -0.5217
  900SOL    HW1 2699   1.161   0.608   0.140 -1.0823 -1.4314 -2.4082
  900SOL    HW2 2700   1.069   0.524   0.036 -0.9174 -0.0461  2.5119
  901SOL     OW 2701   1.494   1.821   2.568 -0.7923  0.0018 -0.9093
  901SOL    HW1 2702   1.570   1.851   2.503  0.0292 -0.0470 -0.7032
  901SOL    HW2 2703   1.412   1.800   2.513  1.5990  1.7749 -0.2698
  902SOL     OW 2704   2.937   2.593   0.004 -0.3209  0.2687 -0.5001
  902SOL    HW1 2705   2.989   2.632   0.083  3.4089  0.4672 -0.9498
  902SOL    HW2 2706   2.971   2.501   3.087 -0.8801  0.2181  0.0638
  903SOL     OW 2707   2.323   0.856   2.205 -0.3553 -0.5266 -0.9044
  903SOL    HW1 2708   2.358   0.764   2.221 -0.8472  2.3346 -1.3282
  903SOL    HW2 2709   2.369   0.925   2.268 -3.3199 -1.7639 -1.0974
  904SOL     OW 2710   1.380   0.416   2.743  0.5875  0.1540 -0.2838
  904SOL    HW1 2711   1.334   0.438   2.657 -0.7273 -1.1542 -0.8853
  904SOL    HW2 2712   1.446   0.341   2.719  0.8449 -1.1031 -1.2988
  905SOL     OW 2713   2.208   2.518   1.219  0.1669 -0.6594 -0.2116
  905SOL    HW1 2714   2.243   2.575   1.294  0.6691 -1.2673  1.0795
  905SOL    HW2 2715   2.261   2.549   1.133  0.8345  2.7979 -3.8740
  906SOL     OW 2716   1.434   2.036   0.129 -0.2442 -0.0522  0.6794
  906SOL    HW1 2717   1.435   1.931   0.136  4.6889 -2.6813  0.5832
  906SOL    HW2 2718   1.453   2.061   0.035 -0.3111 -1.0823  0.0742
  907SOL     OW 2719   0.531   2.797   0.659  0.5437 -0.3388 -0.0071
  907SOL    HW1 2720   0.551   2.737   0.739 -0.3510 -1.9878 -0.6252
  907SOL    HW2 2721   0.534   2.743   0.573 -2.9410  1.2073 -0.0672
  908SOL     OW 2722   1.328   2.762   1.950 -0.2131  0.5388 -0.0136
  908SOL    HW1 2723   1.316   2.681   1.884 -0.6958  0.2829  0.4273
  908SOL    HW2 2724   1.381   2.839   1.910  0.4869  2.6595 -1.3721
  909SOL     OW 2725   2.023   0.415   1.410  0.1022  0.3609 -0.3480
  909SOL    HW1 2726   2.009   0.515   1.386 -3.0683 -3.0727 -0.9010
  909SOL    HW2 2727   2.114   0.396   1.443 -4.2237  1.0928 -1.3961
  910SOL     OW 2728   1.346   0.971   3.045 -0.6942 -0.4879 -0.2436
  910SOL    HW1 2729   1.247   0.954   3.056  1.5456  0.1005  0.4378
  910SOL    HW2 2730   1.388   0.897   2.986  1.5133 -0.3252  2.4664
  911SOL     OW 2731   2.997   0.870   0.227 -0.3852 -0.4406 -0.2069
  911SOL    HW1 2732   2.945   0.783   0.246 -0.6574  0.4547 -0.5854
  911SOL    HW2 2733   2.982   0.938   0.302 -2.8251 -0.7894  0.3457
  912SOL     OW 2734   3.086   2.374   3.032 -0.4649 -0.0273  0.3542
  912SOL    HW1 2735   0.017   2.285   3.002  2.2054  3.0222  1.4773
  912SOL    HW2 2736   3.100   2.371   0.023 -1.5651 -0.1003 -2.2453
  913SOL     OW 2737   2.564   2.223   2.526 -0.3989 -0.4303 -0.5415
  913SOL    HW1 2738   2.616   2.263   2.608 -3.0835  0.2185  1.4908
  913SOL    HW2 2739   2.606   2.136   2.498 -2.4391  1.7319  1.0860
  914SOL     OW 2740   1.383   1.906   1.567  0.9930  0.1187  0.0631
  914SOL    HW1 2741   1.415   1.873   1.477 -1.5522  0.8848  0.8152
  914SOL    HW2 2742   1.406   1.838   1.641 -0.1475 -0.4192  1.5335
  915SOL     OW 2743   0.575   2.757   1.781 -0.2786  0.0913  0.0573
  915SOL    HW1 2744   0.630   2.787   1.696  1.6534 -0.3506 -2.1256
  915SOL    HW2 2745   0.488   2.705   1.762 -2.0813 -1.5199  0.7072
  916SOL     OW 2746   0.601   1.023   1.770 -0.0318  0.1741 -0.0526
  916SOL    HW1 2747   0.520   0.998   1.832 -2.3912  0.0508  2.9371
  916SOL    HW2 2748   0.561   1.053   1.685  1.7218  2.2327  1.6223
  917SOL     OW 2749   2.615   0.416   0.582 -0.3182  0.0316  0.0563
  917SOL    HW1 2750   2.557   0.376   0.652  0.8426 -1.1090 -2.4981
  917SOL    HW2 2751   2.697   0.356   0.569  0.0998  0.6245 -2.1591
  918SOL     OW 2752   1.701   2.895   2.035 -0.1415  0.9069 -0.4168
  918SOL    HW1 2753   1.697   2.806   2.087 -1.6358  0.3765 -0.1046
  918SOL    HW2 2754   1.697   2.976   2.098 -1.3348 -0.9536  1.2624
  919SOL     OW 2755   1.531   2.561   1.748 -0.2332  0.5499  0.1495
  919SOL    HW1 2756   1.544   2.652   1.705  1.0015 -1.7151  1.0182
  919SOL    HW2 2757   1.434   2.537   1.766 -0.3779  1.5874  1.0339
  920SOL     OW 2758   0.806   0.847   3.022 -0.2431  0.3023 -0.0808
  920SOL    HW1 2759   0.743   0.920   2.999  1.8894 -0.6740  2.3000
  920SOL    HW2 2760   0.774   0.812   0.001 -1.6868  1.9529 -2.0926
  921SOL     OW 2761   0.121   0.472   2.789  0.8714  0.0567  0.3564
  921SOL    HW1 2762   0.029   0.450   2.748 -1.0827 -0.7343  0.4954
  921SOL    HW2 2763   0.196   0.403   2.764  0.7280 -2.0927  1.0445
  922SOL     OW 2764   0.763   1.702   1.042 -0.3060  0.2270  0.3193
  922SOL    HW1 2765   0.666   1.682   1.009 -0.5010 -0.7425 -2.7048
  922SOL    HW2 2766   0.771   1.794   1.084 -1.7080 -0.9974  0.0109
  923SOL     OW 2767   0.529   1.222   2.025  0.2818  0.3519 -0.0133
  923SOL    HW1 2768   0.493   1.212   1.929 -0.4457  1.8382 -0.2999
  923SOL    HW2 2769   0.480   1.164   2.094  1.4268  1.6533  0.5417
  924SOL     OW 2770   1.369   3.091   2.960 -0.4125 -0.9141 -0.0791
  924SOL    HW1 2771   1.355   2.991   2.959  0.2656  2.0518  3.1214
  924SOL    HW2 2772   1.340   0.024   2.870  1.2925  0.0052  0.9939
  925SOL     OW 2773   2.696   1.211   1.262  0.1084 -0.7679 -0.0966
  925SOL    HW1 2774   2.685   1.116   1.244  1.9506  1.8651  0.1129
  925SOL    HW2 2775   2.713   1.222   1.362 -0.3880 -1.5958 -0.6280
  926SOL     OW 2776   1.707   0.792   1.596 -0.1936  0.5630 -0.1127
  926SOL    HW1 2777   1.806   0.791   1.617  1.4817 -1.8815  1.2839
  926SOL    HW2 2778   1.673   0.881   1.633  0.2541 -0.3852 -0.9694
  927SOL     OW 2779   2.003   2.920   1.232 -0.3445 -0.2332 -0.3591
  927SOL    HW1 2780   2.088   2.924   1.176 -1.9423  0.6976  0.5414
  927SOL    HW2 2781   1.963   3.014   1.245 -1.1618  2.6143  0.2394
  928SOL     OW 2782   0.402   1.096   2.228  0.1729  0.0541  0.1839
  928SOL    HW1 2783   0.336   1.148   2.286  0.3046 -0.8050 -1.0245
  928SOL    HW2 2784   0.429   1.012   2.283 -2.8021 -2.0321 -0.7550
  929SOL     OW 2785   2.774   0.486   0.926 -0.1663  0.0193 -0.4429
  929SOL    HW1 2786   2.702   0.423   0.966 -1.7752  1.9752  0.4420
  929SOL    HW2 2787   2.741   0.518   0.840 -1.0146 -1.4406  2.0569
  930SOL     OW 2788   2.860   2.732   1.664  0.5843 -0.3319 -0.1505
  930SOL    HW1 2789   2.774   2.715   1.717 -1.1822  0.0784  1.1466
  930SOL    HW2 2790   2.948   2.751   1.714 -0.8133  1.0322  0.2588
  931SOL     OW 2791   1.713   0.755   0.894 -0.8275  0.4634  0.0342
  931SOL    HW1 2792   1.622   0.723   0.928 -1.6749  1.2186 -1.0457
  931SOL    HW2 2793   1.791   0.737   0.954  2.2645  0.9659 -0.5036
  932SOL     OW 2794   2.680   1.230   1.858 -0.0921  0.4020 -0.6605
  932SOL    HW1 2795   2.737   1.146   1.849  0.9294  1.5632  1.0797
  932SOL    HW2 2796   2.745   1.308   1.864 -1.0306 -1.1530  0.5313
  933SOL     OW 2797   2.846   2.421   1.429 -0.2970 -0.2314 -0.4804
  933SOL    HW1 2798   2.786   2.435   1.513 -0.1861  0.5170  1.2440
  933SOL    HW2 2799   2.853   2.505   1.373 -0.2653 -1.1889 -1.3041
  934SOL     OW 2800   0.702   1.967   1.470 -0.3356 -0.3662  0.6367
  934SOL    HW1 2801   0.771   1.907   1.520  0.8271  2.4039  1.5718
  934SOL    HW2 2802   0.605   1.956   1.499  1.2826 -0.4393  0.7197
  935SOL     OW 2803   2.594   1.706   1.735 -0.7316 -0.4552  0.7629
  935SOL    HW1 2804   2.567   1.605   1.725  1.2968 -1.5564 -1.7810
  935SOL    HW2 2805   2.577   1.745   1.642 -0.4253 -0.2675 -0.4705
  936SOL     OW 2806   2.381   1.531   1.646 -0.2642  0.1383 -0.4130
  936SOL    HW1 2807   2.372   1.488   1.555 -0.8728 -3.0242  0.9280
  936SOL    HW2 2808   2.344   1.626   1.643 -0.1302 -3.6436 -0.6798
  937SOL     OW 2809   1.744   0.961   1.955  0.0998 -0.2154  0.0044
  937SOL    HW1 2810   1.688   0.966   2.042  1.5873  1.4741  0.9375
  937SOL    HW2 2811   1.763   1.050   1.920 -1.0163  0.8886  0.9800
  938SOL     OW 2812   0.801   2.634   2.572 -0.3417  0.0109  0.1369
  938SOL    HW1 2813   0.746   2.616   2.655  1.9874 -0.5183 -1.0746
  938SOL    HW2 2814   0.884   2.693   2.595  1.6980  0.6549  2.1871
  939SOL     OW 2815   2.391   1.209   0.009  0.0629  0.0925  0.7772
  939SOL    HW1 2816   2.330   1.205   0.093  0.3943 -0.4594  0.5320
  939SOL    HW2 2817   2.458   1.130   0.001  0.0446 -0.2031  0.1045
  940SOL     OW 2818   1.360   1.826   0.442 -0.8125  0.3039 -0.1019
  940SOL    HW1 2819   1.447   1.776   0.464  1.0471  0.1309  2.0987
  940SOL    HW2 2820   1.327   1.813   0.349 -3.5189  2.2231  0.9290
  941SOL     OW 2821   1.883   2.877   2.658 -0.3390  1.1091  0.1631
  941SOL    HW1 2822   1.933   2.830   2.730 -1.1726  0.0830  0.6703
  941SOL    HW2 2823   1.884   2.978   2.665 -1.6588 -1.3172 -3.0230
  942SOL     OW 2824   0.842   2.456   0.466 -0.3952  0.2777  0.4004
  942SOL    HW1 2825   0.919   2.395   0.495  0.1404  0.8918 -0.5771
  942SOL    HW2 2826   0.881   2.530   0.407  0.1688 -0.4466  0.5598
  943SOL     OW 2827   2.220   0.535   1.799  0.3204 -0.2254 -0.6485
  943SOL    HW1 2828   2.143   0.467   1.819 -3.7330  1.2290  1.9971
  943SOL    HW2 2829   2.311   0.492   1.794  0.9722  0.5762 -1.1247
  944SOL     OW 2830   1.085   1.192   2.933 -0.3194 -0.2774  0.4723
  944SOL    HW1 2831   1.088   1.290   2.921  0.9999 -0.8759 -1.7457
  944SOL    HW2 2832   1.139   1.146   2.863 -1.4252 -0.3072  3.1327
  945SOL     OW 2833   3.014   2.336   1.074 -0.2009  0.2055  0.6668
  945SOL    HW1 2834   2.949   2.415   1.086  0.9651 -1.4236 -1.7086
  945SOL    HW2 2835   2.963   2.256   1.036 -2.2936  0.6197 -1.3885
  946SOL     OW 2836   0.649   1.281   0.008  0.1565 -0.4365  0.1312
  946SOL    HW1 2837   0.583   1.205   0.004 -3.3873  0.0466  3.9633
  946SOL    HW2 2838   0.624   1.351   3.046  0.1341 -0.5655 -2.5142
  947SOL     OW 2839   2.362   0.250   1.944  0.4112  0.2932 -0.0521
  947SOL    HW1 2840   2.400   0.254   2.038  1.7597 -0.1942  0.2074
  947SOL    HW2 2841   2.424   0.298   1.878 -1.0180  1.2495  0.6102
  948SOL     OW 2842   0.049   2.133   0.886  0.4637  0.5945 -0.3936
  948SOL    HW1 2843   0.102   2.174   0.960 -2.2328 -2.0271  0.0737
  948SOL    HW2 2844   3.067   2.094   0.923 -1.3670 -2.6441 -3.0649
  949SOL     OW 2845   1.190   1.321   1.704  0.1184  0.3044  0.7753
  949SOL    HW1 2846   1.139   1.255   1.644 -1.5775 -1.0572 -2.2076
  949SOL    HW2 2847   1.135   1.333   1.788  2.5765 -3.2046 -0.5620
  950SOL     OW 2848   0.192   0.902   1.121  0.2335 -0.3577 -0.2034
  950SOL    HW1 2849   0.130   0.831   1.076 -0.5401  1.9311 -1.0788
  950SOL    HW2 2850   0.280   0.915   1.073  3.6657 -0.6360 -1.5464
  951SOL     OW 2851   0.343   1.722   2.220  0.1466  0.4434  0.1404
  951SOL    HW1 2852   0.331   1.637   2.164 -2.3538 -2.3198 -1.8128
  951SOL    HW2 2853   0.437   1.754   2.227 -1.1630 -0.0983 -1.2330
  952SOL     OW 2854   1.414   1.769   0.156 -0.3471  0.5149  0.0604
  952SOL    HW1 2855   1.441   1.681   0.205 -2.5557  1.0512  0.4879
  952SOL    HW2 2856   1.369   1.742   0.070  0.6480  0.8960  0.2241
  953SOL     OW 2857   0.887   0.616   0.310  0.0361 -0.1484 -0.3666
  953SOL    HW1 2858   0.962   0.619   0.239  3.2669  0.7624 -1.0705
  953SOL    HW2 2859   0.794   0.640   0.272  0.2589  3.2076 -0.8345
  954SOL     OW 2860   1.856   1.141   0.372 -0.0508 -0.2350  0.3495
  954SOL    HW1 2861   1.944   1.179   0.413  0.5638 -1.7309  1.6081
  954SOL    HW2 2862   1.773   1.206   0.386  0.1721 -0.1635  3.7439
  955SOL     OW 2863   2.547   1.889   0.021 -0.1145 -0.6643 -0.3949
  955SOL    HW1 2864   2.627   1.838   3.103 -0.3664 -1.5995 -0.8107
  955SOL    HW2 2865   2.475   1.884   3.056 -0.5791  0.1506  1.3635
  956SOL     OW 2866   1.114   0.585   1.723 -0.2257  0.7195 -0.5796
  956SOL    HW1 2867   1.191   0.648   1.703  3.4049 -0.5763 -0.3889
  956SOL    HW2 2868   1.129   0.535   1.809 -1.9994  0.8756  1.7616
  957SOL     OW 2869   1.609   1.157   1.632 -0.0307 -0.6526 -0.8566
  957SOL    HW1 2870   1.689   1.159   1.695  0.3625 -1.2941 -0.6641
  957SOL    HW2 2871   1.541   1.236   1.642 -0.8109  0.8029 -1.9968
  958SOL     OW 2872   0.225   1.990   0.507  0.2365  0.1046 -0.8397
  958SOL    HW1 2873   0.266   1.893   0.512  0.3087 -4.5472  3.3899
  958SOL    HW2 2874   0.273   2.043   0.433 -1.2424 -1.3066 -0.8145
  959SOL     OW 2875   1.767   1.330   1.436 -0.1948  0.1462 -0.7120
  959SOL    HW1 2876   1.698   1.328   1.509 -0.9751  1.2371  1.6379
  959SOL    HW2 2877   1.731   1.377   1.351  0.0298 -0.3616  2.7803
  960SOL     OW 2878   2.999   1.499   2.795 -0.0999 -0.0733 -0.7649
  960SOL    HW1 2879   3.028   1.477   2.890  0.1613  2.0977 -0.2159
  960SOL    HW2 2880   3.076   1.520   2.739 -0.8111 -1.7296 -0.3925
  961SOL     OW 2881   1.057   1.464   0.702  0.0648  0.4521  0.1107
  961SOL    HW1 2882   0.994   1.534   0.738 -0.2415  0.7510  1.5630
  961SOL    HW2 2883   1.150   1.471   0.747  2.2988 -0.2164  3.8291
  962SOL     OW 2884   0.759   0.901   0.402  0.6066 -0.0508 -0.2711
  962SOL    HW1 2885   0.832   0.886   0.332 -0.4777  1.0416 -1.5863
  962SOL    HW2 2886   0.800   0.937   0.486 -0.7914 -1.4856 -1.2906
  963SOL     OW 2887   1.317   2.009   1.891  0.2595  0.6165 -0.3371
  963SOL    HW1 2888   1.417   2.018   1.911 -0.6182 -1.2975  1.4666
  963SOL    HW2 2889   1.300   1.917   1.853  1.8150 -1.8939  0.0557
  964SOL     OW 2890   3.050   2.887   2.841  0.2052 -0.5651  0.2620
  964SOL    HW1 2891   0.002   2.893   2.922  1.3798 -0.0500 -3.9933
  964SOL    HW2 2892   3.054   2.791   2.806 -2.1888 -0.6398  1.8750
  965SOL     OW 2893   0.885   2.185   0.169 -0.7690 -0.5667 -0.4828
  965SOL    HW1 2894   0.862   2.116   0.100 -2.5787 -0.7693 -3.1838
  965SOL    HW2 2895   0.982   2.183   0.198  0.8997  0.6473 -0.9604
  966SOL     OW 2896   2.842   1.615   3.072  0.1116  0.0930  0.0126
  966SOL    HW1 2897   2.776   1.643   2.998 -1.4087  0.9441 -0.0512
  966SOL    HW2 2898   2.918   1.570   3.027 -4.7379  0.3203  0.4425
  967SOL     OW 2899   2.128   2.793   2.827  0.3823 -0.3221  0.0208
  967SOL    HW1 2900   2.193   2.835   2.755  0.6607 -0.4721 -2.3503
  967SOL    HW2 2901   2.119   2.694   2.806  0.4199 -2.4603 -0.5059
  968SOL     OW 2902   2.091   2.674   0.425 -0.1497 -0.0314 -0.1982
  968SOL    HW1 2903   2.063   2.711   0.338  0.6292 -0.7555  0.6098
  968SOL    HW2 2904   2.050   2.720   0.506 -0.3252 -1.1675 -1.0174
  969SOL     OW 2905   0.686   1.187   2.381 -0.3381  0.0453  0.0702
  969SOL    HW1 2906   0.618   1.234   2.322 -0.7421  1.3154  1.6656
  969SOL    HW2 2907   0.644   1.106   2.426 -2.3096 -1.9102  0.4514
  970SOL     OW 2908   1.631   1.254   1.070 -0.4810 -0.3240 -0.0751
  970SOL    HW1 2909   1.564   1.190   1.114 -0.4267 -0.2142 -2.3420
  970SOL    HW2 2910   1.728   1.213   1.085  1.3880 -1.0851  0.4356
  971SOL     OW 2911   2.423   0.051   1.218 -0.5281  0.4280  0.2458
  971SOL    HW1 2912   2.433   0.148   1.201 -2.9372 -1.4926 -2.1670
  971SOL    HW2 2913   2.508   3.104   1.233  0.1775 -0.9345 -1.7837
  972SOL     OW 2914   2.848   0.016   1.522 -0.2324  0.5607  0.7495
  972SOL    HW1 2915   2.848   3.074   1.612 -0.1719 -2.9951 -0.7228
  972SOL    HW2 2916   2.872   0.113   1.534 -1.1500 -1.7939  2.2937
  973SOL     OW 2917   0.172   0.191   2.532  0.6145 -0.3180 -0.3403
  973SOL    HW1 2918   0.243   0.262   2.550 -2.1741  0.7300 -1.7127
  973SOL    HW2 2919   0.139   0.142   2.616 -1.5701  2.7883 -0.8358
  974SOL     OW 2920   2.236   1.214   2.244  0.2689  0.0010  0.1064
  974SOL    HW1 2921   2.153   1.159   2.218 -0.9990 -1.4116 -1.9587
  974SOL    HW2 2922   2.271   1.267   2.163 -0.7317  1.8306  0.7665
  975SOL     OW 2923   0.732   0.371   1.675  0.4038 -0.3137  0.3657
  975SOL    HW1 2924   0.735   0.326   1.583 -4.6723  0.3653 -0.0191
  975SOL    HW2 2925   0.692   0.467   1.666 -2.0732  0.4378 -2.7872
  976SOL     OW 2926   0.760   1.943   2.068 -0.6069 -0.1971  0.1305
  976SOL    HW1 2927   0.706   1.988   1.994 -1.2454  1.1950  0.5274
  976SOL    HW2 2928   0.803   2.023   2.123  0.7239  4.2478  2.3711
  977SOL     OW 2929   0.697   0.099   0.307 -0.2707  0.1351  0.0241
  977SOL    HW1 2930   0.790   0.109   0.338 -1.9759  1.3918 -0.8488
  977SOL    HW2 2931   0.652   0.186   0.338  2.0325  0.0196 -0.5200
  978SOL     OW 2932   2.704   1.250   2.127 -0.0547 -0.4535 -0.1883
  978SOL    HW1 2933   2.775   1.188   2.163 -1.2712  2.8209 -2.8237
  978SOL    HW2 2934   2.698   1.239   2.023 -0.0305 -0.7730  0.5848
  979SOL     OW 2935   1.784   0.239   2.162  0.3183  0.6195  0.9096
  979SOL    HW1 2936   1.799   0.319   2.098  0.8126  0.8719 -0.6416
  979SOL    HW2 2937   1.863   0.172   2.161 -0.1738 -0.2108  0.2114
  980SOL     OW 2938   1.590   1.735   1.650 -0.4011  0.5314  0.4722
  980SOL    HW1 2939   1.652   1.713   1.727  2.6676 -1.3128  0.6479
  980SOL    HW2 2940   1.553   1.651   1.602 -1.1000 -3.7078 -1.0641
  981SOL     OW 2941   2.482   1.108   1.540 -0.1476 -0.1389 -0.3781
  981SOL    HW1 2942   2.417   1.117   1.461 -1.3965 -2.7432 -1.0653
  981SOL    HW2 2943   2.438   1.060   1.618  0.0190 -0.1702  0.5522
  982SOL     OW 2944   0.590   3.064   2.734 -0.5714 -0.0866 -0.1235
  982SOL    HW1 2945   0.490   3.048   2.727  0.9811  0.0564  0.7853
  982SOL    HW2 2946   0.637   3.011   2.809 -0.1247  1.2693  3.3759
  983SOL     OW 2947   2.801   0.786   2.729 -0.1285 -0.2108  0.5338
  983SOL    HW1 2948   2.880   0.848   2.716 -1.1374  2.5733 -1.0721
  983SOL    HW2 2949   2.711   0.839   2.740 -2.6116  3.6592  1.9185
  984SOL     OW 2950   1.384   0.032   2.100 -0.4060 -0.0271 -0.2149
  984SOL    HW1 2951   1.474   3.091   2.126 -0.2437 -3.2474 -0.6136
  984SOL    HW2 2952   1.321   3.068   2.067 -0.7914  1.0757 -1.9455
  985SOL     OW 2953   2.005   2.000   1.946 -0.3631 -0.4178 -0.9064
  985SOL    HW1 2954   2.009   2.005   1.844 -0.1250 -2.7701  1.2542
  985SOL    HW2 2955   2.019   1.906   1.980 -0.0100 -0.5728 -1.7470
  986SOL     OW 2956   2.383   0.562   1.186  0.1021 -0.2698 -0.3384
  986SOL    HW1 2957   2.337   0.642   1.232 -0.3066 -1.2264  0.3257
  986SOL    HW2 2958   2.397   0.575   1.087 -0.2678 -0.2953  1.9339
  987SOL     OW 2959   2.418   1.011   1.137  0.1405 -0.3487 -0.3247
  987SOL    HW1 2960   2.437   1.028   1.038  0.5564 -0.3829  2.7458
  987SOL    HW2 2961   2.505   0.986   1.187  2.1340 -1.7921  1.2866
  988SOL     OW 2962   2.132   1.303   1.571  0.2978  0.2998 -0.0260
  988SOL    HW1 2963   2.060   1.331   1.633  0.5618  0.2949 -1.5532
  988SOL    HW2 2964   2.193   1.380   1.559  2.3019  0.1377 -1.7639
  989SOL     OW 2965   1.224   2.554   0.058 -0.2898  0.6494  0.1289
  989SOL    HW1 2966   1.205   2.650   0.085 -0.5023  0.3579  1.4346
  989SOL    HW2 2967   1.270   2.499   0.133 -2.1551 -1.3176  2.4998
  990SOL     OW 2968   1.655   0.859   2.824 -0.7344 -0.1392  0.0819
  990SOL    HW1 2969   1.683   0.776   2.767  0.3547 -0.5658 -1.7419
  990SOL    HW2 2970   1.564   0.851   2.862  3.2014  3.2319 -0.5241
  991SOL     OW 2971   1.176   0.502   0.621  0.2889  0.7982  0.1953
  991SOL    HW1 2972   1.235   0.569   0.669  0.0886  2.3972 -2.4793
  991SOL    HW2 2973   1.221   0.452   0.544  2.9462  0.0680 -1.4743
  992SOL     OW 2974   2.968   1.516   1.272  0.2460  0.2116 -0.1730
  992SOL    HW1 2975   2.939   1.434   1.219 -1.6792  1.2577  0.7913
  992SOL    HW2 2976   2.893   1.559   1.331 -1.5874  2.0538  2.7301
  993SOL     OW 2977   2.780   0.723   1.383 -0.6610  0.1931  0.3643
  993SOL    HW1 2978   2.853   0.694   1.445 -3.0487 -0.8250  0.7650
  993SOL    HW2 2979   2.712   0.648   1.368  0.9815  1.3459  3.2078
  994SOL     OW 2980   0.051   2.411   2.568  0.2204  0.4629  0.1868
  994SOL    HW1 2981   0.140   2.406   2.524  0.8187  2.4238 -0.8972
  994SOL    HW2 2982   0.054   2.455   2.663 -1.2507  0.8883  0.2702
  995SOL     OW 2983   1.864   1.073   2.848  0.2409  0.5722 -0.0680
  995SOL    HW1 2984   1.961   1.039   2.834 -1.1165 -2.4517  2.1812
  995SOL    HW2 2985   1.792   1.005   2.826 -1.3864  2.0286 -1.7840
  996SOL     OW 2986   2.755   1.516   0.717  0.6878 -0.6275  0.0953
  996SOL    HW1 2987   2.748   1.600   0.661 -0.8678 -2.0270  2.8253
  996SOL    HW2 2988   2.803   1.442   0.664 -2.4260 -1.4107 -1.3525
  997SOL     OW 2989   2.087   0.958   2.150 -0.7763  0.5325 -0.0359
  997SOL    HW1 2990   2.185   0.920   2.149  5.7352  0.3185 -1.6262
  997SOL    HW2 2991   2.022   0.889   2.184  1.9193  1.0989 -0.7054
  998SOL     OW 2992   2.504   1.109   0.606 -0.3364  0.0055  0.1143
  998SOL    HW1 2993   2.409   1.115   0.580 -1.0300 -2.3929  0.4422
  998SOL    HW2 2994   2.560   1.174   0.553 -2.1142 -2.6530  1.4984
  999SOL     OW 2995   0.017   2.380   0.239  1.2456 -0.1286  0.3102
  999SOL    HW1 2996   0.005   2.291   0.294 -3.0309  0.7676 -0.8475
  999SOL    HW2 2997   3.051   2.441   0.266  4.0005 -1.2284  1.1079
 1000SOL     OW 2998   0.876   0.878   2.574  0.0016 -0.4149 -0.0766
 1000SOL    HW1 2999   0.904   0.844   2.669 -1.7609 -0.8126  2.9078
 1000SOL    HW2 3000   0.946   0.843   2.504 -0.0835  0.1250 -1.2674
   3.10816   3.10816   3.10816
