1000 SPC/Fw water molecules t= 412.00000 step= 412000
 3000
    1SOL     OW    1   0.102   3.017   1.445 -0.4035  0.1162 -0.3861
    1SOL    HW1    2   0.037   3.078   1.495  2.3268  0.0540 -0.0173
    1SOL    HW2    3   0.086   3.009   1.344 -1.4651 -0.5443 -0.1911
    2SOL     OW    4   2.611   2.991   0.335 -0.1190 -0.2680 -0.9744
    2SOL    HW1    5   2.571   2.896   0.323  0.4981 -0.9130 -0.0475
    2SOL    HW2    6   2.671   2.994   0.418  2.0042  3.1713  1.2108
    3SOL     OW    7   1.399   2.480   2.981  0.0068  0.3166 -0.0980
    3SOL    HW1    8   1.478   2.538   2.953 -0.6897  1.3828 -1.2840
    3SOL    HW2    9   1.335   2.540   3.039 -1.7758 -0.1001  0.5574
    4SOL     OW   10   0.917   3.054   2.254 -0.0427  0.1561  0.4050
    4SOL    HW1   11   0.816   3.035   2.258 -0.6346  1.9302  0.3952
    4SOL    HW2   12   0.972   2.975   2.214  1.6305 -1.3026 -0.2247
    5SOL     OW   13   2.245   0.011   1.695  0.1191  0.5458  0.0731
    5SOL    HW1   14   2.235   3.090   1.596 -1.4536 -2.7188  3.0404
    5SOL    HW2   15   2.336   3.077   1.727 -0.6113 -0.8065 -0.4984
    6SOL     OW   16   2.363   1.841   1.066 -0.0879 -0.0165 -0.4911
    6SOL    HW1   17   2.432   1.891   1.006  1.2136  0.5581 -2.0825
    6SOL    HW2   18   2.273   1.861   1.028  2.8406 -3.3528 -0.0525
    7SOL     OW   19   2.279   1.256   0.872 -0.3979  0.0303  0.3689
    7SOL    HW1   20   2.232   1.301   0.950  1.3589  1.4703 -1.0089
    7SOL    HW2   21   2.342   1.324   0.821  2.4689 -1.3301 -3.9948
    8SOL     OW   22   0.630   1.408   1.015  0.2466 -0.2519 -0.8160
    8SOL    HW1   23   0.606   1.473   1.092  0.8676 -0.0793  1.5916
    8SOL    HW2   24   0.726   1.375   1.019 -0.5459 -0.3382 -1.7443
    9SOL     OW   25   0.103   2.763   1.530 -0.2799 -0.5102  0.1173
    9SOL    HW1   26   0.095   2.859   1.489 -1.1567  0.5289  0.5416
    9SOL    HW2   27   0.037   2.698   1.485  1.4671  0.1305 -2.3042
   10SOL     OW   28   1.145   2.410   0.601 -0.1735 -0.1282  0.1815
   10SOL    HW1   29   1.178   2.460   0.682 -2.3732  0.0951  2.9858
   10SOL    HW2   30   1.133   2.485   0.530 -0.8572  0.0249 -0.6183
   11SOL     OW   31   1.611   1.851   1.060  0.4019  0.5715  0.5773
   11SOL    HW1   32   1.630   1.862   0.960 -1.4755  2.6814 -2.8730
   11SOL    HW2   33   1.663   1.913   1.121 -0.7797 -0.9012  0.4281
   12SOL     OW   34   2.758   0.690   2.389 -0.5610 -0.0715  0.1684
   12SOL    HW1   35   2.816   0.611   2.357 -0.0770 -1.2370 -0.2092
   12SOL    HW2   36   2.683   0.647   2.440 -1.5222 -0.5991  0.1810
   13SOL     OW   37   2.648   2.695   0.305  0.2385 -0.5857 -0.5450
   13SOL    HW1   38   2.604   2.691   0.210  0.3158 -0.1415 -1.1535
   13SOL    HW2   39   2.662   2.605   0.350 -0.9703 -1.2551  0.8706
   14SOL     OW   40   1.619   1.613   3.022  0.2722  0.2090  0.5321
   14SOL    HW1   41   1.608   1.519   3.047  1.2050  4.1976  0.5113
   14SOL    HW2   42   1.648   1.672   0.001 -0.4524 -3.8288 -0.5947
   15SOL     OW   43   2.693   2.663   1.741 -0.0479 -0.3982 -0.2748
   15SOL    HW1   44   2.720   2.566   1.746  1.4311 -1.1338 -0.4770
   15SOL    HW2   45   2.753   2.726   1.797 -1.4205  4.5529  0.3401
   16SOL     OW   46   2.960   0.217   0.915  0.9943  0.5915  0.0677
   16SOL    HW1   47   2.982   0.311   0.923  0.5345 -1.8909  0.7706
   16SOL    HW2   48   2.963   0.183   0.818 -0.7359 -1.9421  0.0083
   17SOL     OW   49   1.429   0.271   0.661  0.1815 -0.2332  0.0261
   17SOL    HW1   50   1.387   0.228   0.580  0.6011 -2.8298  1.7893
   17SOL    HW2   51   1.397   0.215   0.744  0.3093 -0.9155  1.0214
   18SOL     OW   52   1.371   0.154   0.909 -0.3915 -0.1882  0.0068
   18SOL    HW1   53   1.432   0.190   0.981  1.6256  0.0574  2.5902
   18SOL    HW2   54   1.299   0.103   0.954  0.7197  0.7467  0.8452
   19SOL     OW   55   2.439   1.078   0.538  0.5460 -0.1003 -0.2145
   19SOL    HW1   56   2.532   1.112   0.553 -1.4525 -2.2980 -1.3264
   19SOL    HW2   57   2.415   1.063   0.438  1.0714 -1.1557 -3.1961
   20SOL     OW   58   2.510   1.584   2.770 -0.2550 -0.1773 -0.1644
   20SOL    HW1   59   2.555   1.608   2.682 -2.4751  2.0325  0.6649
   20SOL    HW2   60   2.431   1.643   2.783 -1.4391  0.3089 -0.4327
   21SOL     OW   61   1.496   3.088   0.100 -0.4622 -0.3399  0.4369
   21SOL    HW1   62   1.483   0.055   0.178  1.2039  0.2431 -0.5651
   21SOL    HW2   63   1.451   0.028   0.015  1.7429  1.6385 -2.1799
   22SOL     OW   64   3.044   1.211   0.799 -0.8777  0.0066 -0.3105
   22SOL    HW1   65   0.001   1.175   0.881  2.4992 -0.3645 -0.7243
   22SOL    HW2   66   2.955   1.170   0.798  3.3440  1.1820 -0.6731
   23SOL     OW   67   0.509   0.007   1.922  0.6315  0.0100 -0.0311
   23SOL    HW1   68   0.601   3.086   1.958 -0.6341  0.4049 -1.0709
   23SOL    HW2   69   0.475   0.101   1.908 -1.1609 -0.9352 -0.2188
   24SOL     OW   70   2.434   2.280   0.848 -0.2112 -0.4334 -0.2693
   24SOL    HW1   71   2.429   2.383   0.854  2.1490 -0.8268  1.8462
   24SOL    HW2   72   2.411   2.238   0.939 -0.3378 -0.6246  0.3878
   25SOL     OW   73   1.862   0.054   2.567 -0.3577  0.0721  1.0837
   25SOL    HW1   74   1.881   0.138   2.614  0.7550 -1.0527  0.6230
   25SOL    HW2   75   1.801   3.089   2.621  0.9736  1.3443 -0.5632
   26SOL     OW   76   1.407   2.288   0.064 -0.0999  0.2516 -0.3581
   26SOL    HW1   77   1.459   2.293   0.153 -2.3601 -1.8165 -1.0488
   26SOL    HW2   78   1.431   2.363   0.001 -0.7894 -1.8148  0.9105
   27SOL     OW   79   1.644   0.529   1.358  0.1508 -0.2214  0.2207
   27SOL    HW1   80   1.577   0.486   1.289 -0.0468 -2.4918 -1.8428
   27SOL    HW2   81   1.640   0.630   1.349  0.3533  0.3849 -0.3842
   28SOL     OW   82   1.190   1.435   0.525  0.3298 -0.2157 -0.4447
   28SOL    HW1   83   1.110   1.376   0.519 -0.1048 -1.2211  0.3712
   28SOL    HW2   84   1.270   1.370   0.526  2.5517  0.5249  1.5454
   29SOL     OW   85   2.451   0.326   1.557 -0.1333  0.1961 -0.5246
   29SOL    HW1   86   2.449   0.246   1.495 -0.6564 -1.6767 -0.4139
   29SOL    HW2   87   2.379   0.393   1.530 -0.8493 -0.4194  1.0739
   30SOL     OW   88   1.297   2.480   1.489 -0.8232  0.1798  0.3699
   30SOL    HW1   89   1.260   2.573   1.511  1.1824  0.3812 -1.5756
   30SOL    HW2   90   1.343   2.473   1.398 -1.3770  1.4831 -0.1977
   31SOL     OW   91   1.861   2.736   1.287 -0.1794 -0.3480 -0.0466
   31SOL    HW1   92   1.923   2.700   1.361  0.4276  1.9397  0.5980
   31SOL    HW2   93   1.908   2.778   1.208 -0.3373 -0.7214 -1.3983
   32SOL     OW   94   1.870   1.417   2.638  0.1866 -0.5364 -0.1619
   32SOL    HW1   95   1.798   1.456   2.581 -0.5434 -1.0116  0.1123
   32SOL    HW2   96   1.955   1.463   2.613 -3.0800  1.0887  2.3501
   33SOL     OW   97   2.412   0.660   2.683 -0.7421  0.0410 -0.3635
   33SOL    HW1   98   2.438   0.639   2.783 -0.7470  0.1978  0.3766
   33SOL    HW2   99   2.311   0.656   2.682 -1.0821 -1.3659 -0.0080
   34SOL     OW  100   1.885   0.327   0.246 -0.4364 -0.1859 -0.2275
   34SOL    HW1  101   1.829   0.336   0.327  0.4837 -0.6026 -1.0962
   34SOL    HW2  102   1.928   0.235   0.248 -1.1275 -0.7592 -0.8298
   35SOL     OW  103   2.950   2.176   1.818  0.5576 -0.3771 -0.1461
   35SOL    HW1  104   2.967   2.158   1.718  0.3134  1.2279 -0.3412
   35SOL    HW2  105   2.958   2.081   1.861  0.4197  0.6793 -0.5237
   36SOL     OW  106   2.372   1.869   3.001  0.4986  0.0053  0.1950
   36SOL    HW1  107   2.366   1.878   2.902  0.2181  4.0062  3.3412
   36SOL    HW2  108   2.385   1.960   3.044  2.9798 -0.8309  0.8137
   37SOL     OW  109   1.649   0.055   1.846 -0.4505 -0.1547  0.1191
   37SOL    HW1  110   1.744   0.081   1.817  0.9911  1.1900  0.8965
   37SOL    HW2  111   1.652   0.067   1.949  1.0294 -1.1609  1.0360
   38SOL     OW  112   0.223   0.527   2.322 -0.3704  0.0989 -0.1995
   38SOL    HW1  113   0.201   0.621   2.300  0.0988 -3.2567  1.1424
   38SOL    HW2  114   0.321   0.510   2.317 -2.6336 -0.5074  0.3380
   39SOL     OW  115   2.119   0.696   1.345  0.2448 -0.1356 -0.0088
   39SOL    HW1  116   2.066   0.692   1.433  1.5386  0.6742 -0.2358
   39SOL    HW2  117   2.071   0.753   1.272 -0.1224  1.0257  0.4521
   40SOL     OW  118   1.315   2.249   0.840 -0.6143  0.6474  0.1367
   40SOL    HW1  119   1.231   2.189   0.839 -0.7395 -0.2150  0.6886
   40SOL    HW2  120   1.392   2.199   0.799 -3.7831 -2.8960 -0.0336
   41SOL     OW  121   1.848   2.174   0.926 -0.3539  0.0575  0.4125
   41SOL    HW1  122   1.815   2.087   0.884 -1.3062 -0.3198  0.6142
   41SOL    HW2  123   1.771   2.216   0.980  1.9173 -3.4268 -0.4174
   42SOL     OW  124   2.739   0.528   0.883  0.0507 -0.1949 -0.2301
   42SOL    HW1  125   2.808   0.592   0.914 -1.0021  0.2001 -1.0073
   42SOL    HW2  126   2.678   0.566   0.807 -2.0616  2.5806 -2.9309
   43SOL     OW  127   0.617   1.303   2.414  0.2561  0.1746  0.2980
   43SOL    HW1  128   0.720   1.294   2.410  2.3771 -1.7988  1.8785
   43SOL    HW2  129   0.592   1.397   2.397  0.3274 -0.9124 -0.0777
   44SOL     OW  130   1.597   2.777   1.247  0.2181  0.3465  0.1885
   44SOL    HW1  131   1.571   2.789   1.345  1.4653  0.4935 -0.7177
   44SOL    HW2  132   1.695   2.768   1.241 -1.2369  0.7664 -0.2068
   45SOL     OW  133   0.828   2.952   2.715  0.3319 -0.0798  0.4821
   45SOL    HW1  134   0.874   2.984   2.629  4.6660 -1.5574 -0.6943
   45SOL    HW2  135   0.735   2.990   2.721 -0.0200 -3.2584 -2.1206
   46SOL     OW  136   0.651   2.578   2.020  0.8883  0.4176 -0.0960
   46SOL    HW1  137   0.668   2.479   2.022  2.2786 -2.5493 -1.0690
   46SOL    HW2  138   0.700   2.633   2.091  0.9975 -1.4263 -1.2290
   47SOL     OW  139   1.094   2.059   0.854  0.3722  0.6194 -0.3012
   47SOL    HW1  140   1.035   2.138   0.822 -1.0007  2.2855 -4.0468
   47SOL    HW2  141   1.056   1.968   0.833  1.4777  1.4229  1.3612
   48SOL     OW  142   0.745   2.451   1.341 -0.1815 -0.4886  0.2395
   48SOL    HW1  143   0.720   2.423   1.246 -0.5259 -0.2305 -0.7787
   48SOL    HW2  144   0.845   2.471   1.345 -1.9480 -1.0747 -1.2430
   49SOL     OW  145   2.555   0.018   2.945  0.0471  0.0761  0.5731
   49SOL    HW1  146   2.602   0.107   2.931 -0.6980  0.1526 -0.5133
   49SOL    HW2  147   2.615   3.048   2.999  1.6339  2.6463 -0.4222
   50SOL     OW  148   1.767   0.978   0.495  0.0466 -0.5054  0.6048
   50SOL    HW1  149   1.837   0.906   0.483 -2.3700  0.8933  1.0772
   50SOL    HW2  150   1.676   0.939   0.469  1.9821 -1.2797  1.9111
   51SOL     OW  151   2.228   0.372   0.761 -0.6606 -0.2812  0.2509
   51SOL    HW1  152   2.250   0.470   0.737 -2.9599  0.9081  1.5240
   51SOL    HW2  153   2.168   0.331   0.694  2.1743  0.5512  1.9172
   52SOL     OW  154   0.949   1.563   0.163  0.5416  0.1910 -0.3951
   52SOL    HW1  155   0.925   1.482   0.110 -0.2216 -2.0163 -0.7107
   52SOL    HW2  156   0.868   1.624   0.168 -1.2149 -0.8283  0.6666
   53SOL     OW  157   0.424   1.190   3.051 -0.0534  0.0719  0.0137
   53SOL    HW1  158   0.375   1.106   3.021  2.3298 -0.9684  0.5789
   53SOL    HW2  159   0.459   1.169   0.049  2.5703 -2.4681 -0.9261
   54SOL     OW  160   2.058   1.582   2.587 -0.0491 -0.5738  0.0132
   54SOL    HW1  161   2.103   1.629   2.505  2.3507  0.1401 -1.7612
   54SOL    HW2  162   2.021   1.656   2.650  0.7680  3.0143  2.5388
   55SOL     OW  163   2.314   2.225   1.101  0.3481  0.2048 -0.8743
   55SOL    HW1  164   2.358   2.176   1.181  2.8118  1.2414  1.9669
   55SOL    HW2  165   2.220   2.193   1.085  0.8462  2.7117  0.8799
   56SOL     OW  166   1.947   0.024   1.230  0.4477  0.0239 -0.2448
   56SOL    HW1  167   2.001   3.044   1.187 -4.1044 -2.5472  3.1679
   56SOL    HW2  168   1.854   0.031   1.189 -0.7825  0.5607 -0.7074
   57SOL     OW  169   1.685   1.297   0.728 -0.0498  0.1662 -0.2208
   57SOL    HW1  170   1.693   1.392   0.693  2.3940 -1.9738  1.5526
   57SOL    HW2  171   1.772   1.246   0.713 -1.2395 -0.1305  1.8294
   58SOL     OW  172   2.298   3.076   1.386  0.0533 -0.6305  0.0344
   58SOL    HW1  173   2.378   0.040   1.400 -0.7429 -2.1126  0.6352
   58SOL    HW2  174   2.245   0.014   1.302 -2.3722 -2.5366 -2.6027
   59SOL     OW  175   0.965   3.046   2.511 -0.5729 -0.2940 -0.4707
   59SOL    HW1  176   1.042   2.982   2.539 -0.9863 -0.3310  2.9938
   59SOL    HW2  177   0.943   3.035   2.416  2.3148  1.2649  1.2982
   60SOL     OW  178   0.099   2.818   2.868 -0.1063  0.0864 -0.0196
   60SOL    HW1  179   0.090   2.786   2.965 -1.0408 -1.7344  0.9721
   60SOL    HW2  180   0.007   2.818   2.815 -0.3999  0.1969 -0.3523
   61SOL     OW  181   0.771   2.368   0.754  0.7190 -0.5303 -0.1586
   61SOL    HW1  182   0.828   2.302   0.701 -1.3129 -0.4903  0.3296
   61SOL    HW2  183   0.686   2.326   0.796 -1.5078 -1.0118  0.5699
   62SOL     OW  184   1.395   1.843   1.959  0.4361  0.4753  0.1508
   62SOL    HW1  185   1.463   1.825   2.035 -0.6854 -0.5588  1.9191
   62SOL    HW2  186   1.439   1.841   1.868  1.2359 -0.2451 -2.1964
   63SOL     OW  187   1.755   1.709   0.395  0.0957 -0.3900  0.0974
   63SOL    HW1  188   1.853   1.723   0.403 -0.0872  0.3368 -1.2177
   63SOL    HW2  189   1.724   1.647   0.469 -0.0140  3.2241 -2.7521
   64SOL     OW  190   1.889   1.453   0.442 -0.3133  0.4151  0.3394
   64SOL    HW1  191   1.839   1.450   0.352 -1.6834  3.4996 -0.2894
   64SOL    HW2  192   1.872   1.368   0.501 -0.4731  1.2560  1.1199
   65SOL     OW  193   1.528   2.348   2.375  0.3005 -0.6617 -0.3565
   65SOL    HW1  194   1.538   2.294   2.292 -1.4097  2.2979  2.2908
   65SOL    HW2  195   1.485   2.285   2.443 -4.2762  1.2187  1.6598
   66SOL     OW  196   0.353   1.005   1.361 -0.1605  1.1396 -0.2153
   66SOL    HW1  197   0.387   0.906   1.368 -2.7770 -3.7812  1.4051
   66SOL    HW2  198   0.441   1.064   1.371  1.1643  1.3776  0.7266
   67SOL     OW  199   2.152   2.620   0.272  0.5385  0.1904 -0.8967
   67SOL    HW1  200   2.180   2.719   0.279 -0.8144  2.2634  0.5640
   67SOL    HW2  201   2.228   2.566   0.307  0.5067 -2.1672 -0.9265
   68SOL     OW  202   2.065   2.373   1.211 -0.2257  0.5112  0.4873
   68SOL    HW1  203   2.159   2.401   1.241  0.9025  0.6199  1.7124
   68SOL    HW2  204   2.046   2.280   1.245 -0.1952  1.0660 -2.5744
   69SOL     OW  205   2.485   2.135   0.011 -0.1873  0.4405  0.1412
   69SOL    HW1  206   2.505   2.213   3.044  2.5798 -1.2365  1.2120
   69SOL    HW2  207   2.568   2.120   0.072 -0.4956  1.1949  2.1102
   70SOL     OW  208   0.286   0.989   2.457 -0.3405  0.6170  0.2184
   70SOL    HW1  209   0.217   1.042   2.512  2.0246 -1.3454 -0.8300
   70SOL    HW2  210   0.279   0.886   2.475  1.4300 -4.3879  2.5648
   71SOL     OW  211   0.749   1.094   2.238 -0.2012  0.2071 -0.1349
   71SOL    HW1  212   0.818   1.169   2.250 -0.2329 -2.3907 -1.0179
   71SOL    HW2  213   0.756   1.019   2.307 -0.2721 -1.3095 -2.1811
   72SOL     OW  214   2.397   1.488   1.855 -0.0335  0.4353  0.1780
   72SOL    HW1  215   2.402   1.419   1.780 -1.0928 -0.3497 -1.9882
   72SOL    HW2  216   2.452   1.574   1.836  2.0810  1.4306  0.0550
   73SOL     OW  217   1.077   1.857   2.849  0.4672 -0.7076 -0.1875
   73SOL    HW1  218   1.017   1.932   2.817 -0.0734 -1.5718 -1.4083
   73SOL    HW2  219   1.177   1.864   2.828 -2.3019 -0.1785 -0.7515
   74SOL     OW  220   2.012   3.067   2.370  0.0197 -0.1808 -0.3579
   74SOL    HW1  221   1.967   3.093   2.460  1.9922 -0.7299  0.6209
   74SOL    HW2  222   2.007   0.044   2.298 -1.4776  0.2609 -1.7802
   75SOL     OW  223   1.392   2.938   0.652  0.4631  0.8417  0.5236
   75SOL    HW1  224   1.369   3.003   0.575  2.4327  2.0294 -0.8315
   75SOL    HW2  225   1.487   2.899   0.642  0.9720 -0.9348  0.9884
   76SOL     OW  226   2.810   1.872   2.938 -0.4489  0.3851 -0.1315
   76SOL    HW1  227   2.752   1.789   2.950 -2.1929 -0.2034 -0.9705
   76SOL    HW2  228   2.847   1.913   3.025 -0.6477  0.0586 -1.5943
   77SOL     OW  229   3.091   2.565   1.335  0.0098 -0.1516 -0.1073
   77SOL    HW1  230   0.013   2.539   1.238 -1.2521  0.4250 -3.4127
   77SOL    HW2  231   3.093   2.483   1.391  0.5783  0.1378 -1.8577
   78SOL     OW  232   2.663   1.021   0.114  0.4612  0.5599  0.6110
   78SOL    HW1  233   2.756   1.060   0.099  1.4046 -1.7023  1.4536
   78SOL    HW2  234   2.625   0.992   0.020 -1.7487  2.9778  0.8798
   79SOL     OW  235   0.113   1.713   2.631 -0.0214  0.2026 -0.1976
   79SOL    HW1  236   0.143   1.645   2.698 -2.5168  1.5538 -3.4937
   79SOL    HW2  237   0.029   1.766   2.666  0.0694  0.9945 -0.3974
   80SOL     OW  238   1.735   1.395   1.729 -0.1982 -0.5919  0.1226
   80SOL    HW1  239   1.801   1.367   1.801  0.8676  2.3264 -2.4900
   80SOL    HW2  240   1.754   1.494   1.695  4.0450  1.8961 -1.6013
   81SOL     OW  241   2.042   1.321   2.433 -0.6657  0.3223  1.1537
   81SOL    HW1  242   1.954   1.299   2.471  3.5714 -0.3046 -3.1960
   81SOL    HW2  243   2.112   1.333   2.505 -0.0634 -2.0407  2.2047
   82SOL     OW  244   1.274   1.353   1.798 -0.1764  0.5150  0.4408
   82SOL    HW1  245   1.355   1.407   1.834 -1.7094  1.5229  2.3884
   82SOL    HW2  246   1.300   1.251   1.810  2.5036 -2.1735  0.5998
   83SOL     OW  247   0.019   0.200   0.031  0.2145 -0.3557 -0.3847
   83SOL    HW1  248   3.039   0.241   0.086 -1.7091 -0.6424 -3.5382
   83SOL    HW2  249   0.020   0.245   3.031  0.1224  0.4654 -3.6681
   84SOL     OW  250   3.078   1.057   0.378  0.1472 -0.3485  0.6768
   84SOL    HW1  251   0.055   1.031   0.309  0.9576 -3.1069 -2.5259
   84SOL    HW2  252   3.047   1.153   0.355  0.2450  1.2741  0.9184
   85SOL     OW  253   2.182   1.455   2.021  0.4120  0.1393  0.4598
   85SOL    HW1  254   2.269   1.471   1.966  0.6792  0.3598 -1.2098
   85SOL    HW2  255   2.198   1.406   2.112 -0.2999  0.1406  0.9748
   86SOL     OW  256   0.756   0.728   1.190 -0.3774 -0.3844  0.7764
   86SOL    HW1  257   0.776   0.818   1.148 -2.2044  1.1637 -0.7841
   86SOL    HW2  258   0.693   0.675   1.136  1.8776 -1.3065  2.2100
   87SOL     OW  259   2.722   2.026   2.108  0.7405 -0.4438  0.1854
   87SOL    HW1  260   2.678   2.119   2.093 -1.0905  1.0498  2.8265
   87SOL    HW2  261   2.756   2.016   2.201  2.3908  0.0555 -0.3019
   88SOL     OW  262   0.590   1.952   0.005 -0.2348 -0.3660  0.1181
   88SOL    HW1  263   0.486   1.956   0.030 -0.0232  1.3561  1.9004
   88SOL    HW2  264   0.592   1.923   3.007  3.0727  1.7558  1.6686
   89SOL     OW  265   1.623   0.658   0.278 -0.2895 -0.4184  0.2719
   89SOL    HW1  266   1.539   0.670   0.219  1.3406  0.0057  2.9616
   89SOL    HW2  267   1.694   0.710   0.229 -2.1729 -0.4722 -0.2733
   90SOL     OW  268   2.952   1.557   2.364  0.0402  0.2106 -0.5229
   90SOL    HW1  269   2.858   1.579   2.334 -0.1031  1.2462  0.2174
   90SOL    HW2  270   3.023   1.617   2.325  1.1003 -0.0564 -1.2859
   91SOL     OW  271   2.366   3.038   1.040 -0.1857 -0.2832  0.0371
   91SOL    HW1  272   2.324   3.066   1.125  0.3096 -2.0305 -0.5512
   91SOL    HW2  273   2.343   0.003   0.960 -0.6644  0.4823 -0.8910
   92SOL     OW  274   2.280   1.118   1.265 -0.0885 -0.2469  0.1214
   92SOL    HW1  275   2.257   1.175   1.185 -1.4625 -2.9963  2.4490
   92SOL    HW2  276   2.282   1.171   1.356  0.4084 -1.2110 -2.1343
   93SOL     OW  277   2.989   1.287   0.258 -0.0767  0.2251  0.1053
   93SOL    HW1  278   2.915   1.343   0.293  3.6341  1.9241 -1.5299
   93SOL    HW2  279   3.063   1.350   0.230 -3.1005 -0.9550 -0.4409
   94SOL     OW  280   1.152   2.383   1.935  0.1087 -0.2159  0.6772
   94SOL    HW1  281   1.207   2.297   1.946  0.3251 -0.8906 -1.4144
   94SOL    HW2  282   1.216   2.460   1.917 -0.5399  1.7427 -0.0960
   95SOL     OW  283   3.043   0.560   1.149  0.3101 -0.5571 -0.0598
   95SOL    HW1  284   3.090   0.640   1.190 -1.5687 -0.0258 -3.3430
   95SOL    HW2  285   3.053   0.478   1.206 -0.9002 -0.5775 -0.6205
   96SOL     OW  286   2.945   2.802   1.770  0.1250  0.0340 -0.1722
   96SOL    HW1  287   2.993   2.892   1.765  0.0053 -0.4627 -0.1274
   96SOL    HW2  288   3.010   2.723   1.752  0.3154 -0.2273 -0.1695
   97SOL     OW  289   2.231   0.495   1.498  0.0647  0.0498 -0.1289
   97SOL    HW1  290   2.208   0.566   1.430 -1.4596 -1.3342  2.3317
   97SOL    HW2  291   2.153   0.486   1.566  1.9488  0.6744 -1.1840
   98SOL     OW  292   2.350   2.426   1.267 -0.0575 -0.2828  0.0709
   98SOL    HW1  293   2.441   2.448   1.305  0.2725  1.0165 -2.2788
   98SOL    HW2  294   2.361   2.347   1.205 -2.1056 -1.2267  3.5683
   99SOL     OW  295   0.225   0.204   1.720 -0.4034  0.9474  0.1798
   99SOL    HW1  296   0.149   0.275   1.724 -3.1393  3.3234 -0.7198
   99SOL    HW2  297   0.297   0.223   1.650  1.2519  0.0972  3.1447
  100SOL     OW  298   2.129   0.251   2.354 -0.0344  0.2558  0.0582
  100SOL    HW1  299   2.081   0.293   2.272 -1.0382  0.6265 -0.8086
  100SOL    HW2  300   2.082   0.272   2.445  2.1499  0.8286  0.5171
  101SOL     OW  301   0.099   0.194   2.419  0.1017  0.1718  0.2057
  101SOL    HW1  302   0.187   0.173   2.366  1.4019  1.2578 -0.0240
  101SOL    HW2  303   0.035   0.236   2.356  0.2139 -0.1412  0.6796
  102SOL     OW  304   0.561   0.318   1.796  0.0137 -0.2677  0.6607
  102SOL    HW1  305   0.505   0.293   1.712 -0.6715 -0.1410  0.6739
  102SOL    HW2  306   0.538   0.415   1.819 -1.1827  0.2937 -0.1808
  103SOL     OW  307   0.906   0.771   2.679  0.4485 -0.2347 -0.7872
  103SOL    HW1  308   0.918   0.799   2.771 -0.3208 -0.8036 -2.0755
  103SOL    HW2  309   0.997   0.737   2.643 -0.5484  2.1649 -0.2824
  104SOL     OW  310   0.144   0.587   1.922  0.3417 -0.3881  0.2345
  104SOL    HW1  311   0.132   0.690   1.922  1.9991 -0.9415  0.3064
  104SOL    HW2  312   0.237   0.559   1.956 -1.5941 -1.1851 -0.4576
  105SOL     OW  313   2.434   1.869   1.489 -0.8434 -0.3096 -0.2795
  105SOL    HW1  314   2.395   1.927   1.564 -1.0124 -0.6204 -2.5632
  105SOL    HW2  315   2.406   1.775   1.497 -0.7786  1.0129 -0.9258
  106SOL     OW  316   1.571   0.218   0.271  0.4631 -0.1939  0.3450
  106SOL    HW1  317   1.623   0.297   0.310  0.6306  0.9088  1.4828
  106SOL    HW2  318   1.528   0.238   0.179  2.7281 -2.2757 -0.5774
  107SOL     OW  319   2.068   2.076   1.052 -0.1893 -0.3236 -0.1571
  107SOL    HW1  320   1.984   2.119   1.017  0.0852  4.7674  2.6643
  107SOL    HW2  321   2.132   2.053   0.976 -1.6346 -0.3799  1.3380
  108SOL     OW  322   0.030   2.467   1.071 -0.2483  0.2814 -0.4248
  108SOL    HW1  323   3.079   2.476   0.981  2.3611  1.4414  1.1842
  108SOL    HW2  324   0.002   2.378   1.107  0.7918  3.6364 -1.9320
  109SOL     OW  325   1.579   2.677   0.852  0.1943  0.1135 -0.0941
  109SOL    HW1  326   1.513   2.612   0.802 -0.3376 -0.4851  0.2822
  109SOL    HW2  327   1.533   2.738   0.921  2.2915 -1.8808  0.9741
  110SOL     OW  328   1.865   1.526   1.354 -0.2608  0.1591  0.4739
  110SOL    HW1  329   1.951   1.580   1.339 -2.5495  3.3201 -0.9613
  110SOL    HW2  330   1.880   1.427   1.339 -0.6824  0.6951  0.6122
  111SOL     OW  331   1.584   2.245   1.889  0.0374  0.2198  0.2443
  111SOL    HW1  332   1.614   2.207   1.798  1.8479 -1.6781 -3.2931
  111SOL    HW2  333   1.641   2.331   1.903  1.8596  3.5986 -0.7260
  112SOL     OW  334   2.051   2.130   3.004  0.3555  0.3289 -0.3249
  112SOL    HW1  335   2.008   2.044   3.025  2.1248  3.1236 -1.1977
  112SOL    HW2  336   2.133   2.119   2.937  0.5342 -1.5728 -1.6797
  113SOL     OW  337   2.037   1.676   1.951 -0.6719  0.0151  0.4809
  113SOL    HW1  338   2.069   1.772   1.979  0.5264  0.6129  1.7381
  113SOL    HW2  339   2.090   1.597   1.987 -1.5828 -0.6896 -1.1500
  114SOL     OW  340   3.046   1.323   1.663  0.3358 -0.4518 -0.5375
  114SOL    HW1  341   2.972   1.359   1.727  0.9624  2.3279  1.4219
  114SOL    HW2  342   3.028   1.228   1.639  1.4468  1.8226  2.1367
  115SOL     OW  343   0.180   1.019   0.184 -0.3517 -0.6842 -0.2602
  115SOL    HW1  344   0.197   0.928   0.144 -0.2543  0.8902 -0.7597
  115SOL    HW2  345   0.247   1.044   0.257 -0.0889  2.6745 -0.2234
  116SOL     OW  346   2.554   0.892   2.990  0.4800  0.0120  0.1863
  116SOL    HW1  347   2.465   0.930   2.955  2.5934  2.4778 -0.0021
  116SOL    HW2  348   2.555   0.791   2.973 -0.0144  1.9613 -2.2875
  117SOL     OW  349   2.699   2.445   0.122 -0.0735 -0.3974 -0.0800
  117SOL    HW1  350   2.700   2.344   0.096 -1.2166 -2.5753 -0.2851
  117SOL    HW2  351   2.648   2.509   0.058 -3.2046  0.1938 -1.2685
  118SOL     OW  352   0.746   2.225   2.884  0.0949  0.6179  0.2711
  118SOL    HW1  353   0.826   2.230   2.826 -3.0378  1.5188  0.9759
  118SOL    HW2  354   0.757   2.160   2.962 -2.5264  2.8370 -2.6603
  119SOL     OW  355   0.616   2.717   0.515  0.1979 -0.3314  0.1809
  119SOL    HW1  356   0.637   2.794   0.577  0.9217 -3.2091 -1.0084
  119SOL    HW2  357   0.550   2.656   0.555 -0.4450  1.7028 -0.5763
  120SOL     OW  358   1.276   0.820   0.397 -0.3850 -0.2721  0.3250
  120SOL    HW1  359   1.207   0.756   0.365  0.3787  5.1823 -3.1442
  120SOL    HW2  360   1.243   0.917   0.411  1.3185  0.4728  0.7842
  121SOL     OW  361   1.318   2.837   0.917 -0.0101  0.2996 -0.2550
  121SOL    HW1  362   1.290   2.921   0.972 -1.6353 -0.0406  1.6660
  121SOL    HW2  363   1.346   2.867   0.823  0.1388  0.0315  2.8363
  122SOL     OW  364   2.626   1.575   2.466  0.1140 -0.0381 -0.2143
  122SOL    HW1  365   2.640   1.583   2.366 -1.7773 -1.4340  0.2769
  122SOL    HW2  366   2.692   1.512   2.514  0.5529 -2.4994  2.4908
  123SOL     OW  367   1.412   1.442   1.039  0.0205 -0.1564 -0.1148
  123SOL    HW1  368   1.487   1.471   1.099  0.8212 -0.6320  2.2733
  123SOL    HW2  369   1.323   1.426   1.087  0.9408 -0.6271  0.0928
  124SOL     OW  370   0.344   0.558   3.067 -0.2629  0.7140 -0.2802
  124SOL    HW1  371   0.296   0.491   0.033  2.1314 -1.2281 -0.3948
  124SOL    HW2  372   0.438   0.522   3.065  0.4461  0.2066  1.1930
  125SOL     OW  373   0.600   0.461   0.250 -0.4315  0.3156  0.2712
  125SOL    HW1  374   0.587   0.473   0.148 -0.6060  0.0527 -1.1208
  125SOL    HW2  375   0.526   0.407   0.292  1.4635 -0.6981 -2.7486
  126SOL     OW  376   0.264   1.703   0.464  0.1952 -0.0106 -0.3588
  126SOL    HW1  377   0.351   1.693   0.416 -0.2310 -1.5039  1.2984
  126SOL    HW2  378   0.266   1.661   0.557 -1.4987  0.7832  0.8137
  127SOL     OW  379   0.990   2.625   1.661 -0.3358 -0.0926 -0.5128
  127SOL    HW1  380   0.900   2.651   1.623  2.0584 -0.1901 -0.4888
  127SOL    HW2  381   1.021   2.696   1.729  1.9785  0.5293  2.4797
  128SOL     OW  382   1.305   1.543   0.127  0.1680 -0.1254 -0.6260
  128SOL    HW1  383   1.240   1.568   0.204  0.1906  1.6141  0.3053
  128SOL    HW2  384   1.263   1.504   0.042 -0.0237  0.1115 -1.8758
  129SOL     OW  385   1.794   1.605   2.072  0.1607  0.7650 -0.0821
  129SOL    HW1  386   1.773   1.509   2.057  0.1425  0.1356 -0.4160
  129SOL    HW2  387   1.857   1.644   2.001  0.9927 -1.3380  0.0111
  130SOL     OW  388   1.716   2.170   1.643 -0.3078 -0.0906  0.6106
  130SOL    HW1  389   1.740   2.072   1.637 -0.3129 -0.6273  2.2080
  130SOL    HW2  390   1.688   2.207   1.552 -1.3917 -1.6680  0.0493
  131SOL     OW  391   3.061   2.350   1.992 -0.4872 -0.6182  0.0019
  131SOL    HW1  392   3.014   2.277   1.941 -1.0353  2.2554  1.1188
  131SOL    HW2  393   2.991   2.410   2.035 -0.3710 -2.9358 -1.5167
  132SOL     OW  394   2.911   1.882   0.986 -0.1467  0.0893 -0.0121
  132SOL    HW1  395   2.980   1.950   0.955  0.2019  0.5029  0.0594
  132SOL    HW2  396   2.876   1.895   1.082 -0.7802 -0.7558  1.9654
  133SOL     OW  397   0.330   0.724   1.647  0.1108 -0.4635  0.5917
  133SOL    HW1  398   0.400   0.757   1.577  4.9267  1.8485 -3.5873
  133SOL    HW2  399   0.375   0.667   1.718  0.0255 -0.1331 -0.1957
  134SOL     OW  400   2.490   1.800   0.158  0.3361  0.4166  0.4581
  134SOL    HW1  401   2.407   1.767   0.213  1.0063 -1.9407  1.2727
  134SOL    HW2  402   2.465   1.817   0.063  0.9755  0.8890  2.4736
  135SOL     OW  403   1.705   1.015   2.626  0.5278  0.0712  0.2296
  135SOL    HW1  404   1.799   0.979   2.635 -3.5825 -0.5283  1.2352
  135SOL    HW2  405   1.645   0.933   2.605 -1.4808 -2.6984  1.2421
  136SOL     OW  406   2.562   1.720   1.244  0.3002  0.0068  0.1105
  136SOL    HW1  407   2.498   1.755   1.172  1.6205  2.6566 -1.1478
  136SOL    HW2  408   2.512   1.710   1.335  0.8341  0.0634  2.1004
  137SOL     OW  409   2.344   1.877   0.557  0.0882  0.6853 -0.1870
  137SOL    HW1  410   2.406   1.807   0.603  1.2083 -3.1702 -2.9484
  137SOL    HW2  411   2.389   1.965   0.568  0.3739 -0.1283 -0.3397
  138SOL     OW  412   2.864   0.785   0.690  0.3464 -0.3238  0.0688
  138SOL    HW1  413   2.875   0.753   0.785 -2.1274  2.4197 -2.0928
  138SOL    HW2  414   2.781   0.742   0.647  0.4268  0.8776  2.2580
  139SOL     OW  415   2.910   2.734   0.193 -0.4440  0.0524 -0.2545
  139SOL    HW1  416   2.816   2.723   0.227  3.4697  0.9432  2.8561
  139SOL    HW2  417   2.923   2.831   0.162 -0.5716 -1.2352 -2.4432
  140SOL     OW  418   1.019   1.290   1.321  0.8730  0.1929 -0.3873
  140SOL    HW1  419   1.033   1.198   1.358  2.0620  2.1991  1.0357
  140SOL    HW2  420   0.986   1.350   1.395 -0.5414 -2.4081 -0.1199
  141SOL     OW  421   1.457   1.582   0.804  0.0976 -0.1708 -0.5584
  141SOL    HW1  422   1.413   1.670   0.815 -0.0026 -0.6950 -1.0208
  141SOL    HW2  423   1.430   1.516   0.881  0.6232 -0.5243 -0.7109
  142SOL     OW  424   0.974   0.476   0.952 -0.4712 -0.1214  0.4075
  142SOL    HW1  425   0.923   0.401   0.988 -1.3295 -0.5614 -2.2262
  142SOL    HW2  426   1.025   0.519   1.028 -1.5160 -1.4365 -1.3290
  143SOL     OW  427   0.437   1.168   2.244 -0.6473  0.4275 -0.3786
  143SOL    HW1  428   0.380   1.124   2.308  3.3413 -1.0764 -5.2553
  143SOL    HW2  429   0.527   1.183   2.290 -1.0170 -1.7829  0.5204
  144SOL     OW  430   2.315   3.028   0.465 -0.3015  0.0138 -0.7949
  144SOL    HW1  431   2.320   2.981   0.558  0.4432 -2.7774  0.1673
  144SOL    HW2  432   2.386   0.005   0.454 -1.3055 -3.3004 -0.4309
  145SOL     OW  433   2.167   0.102   2.660  0.3887 -0.2603 -0.3413
  145SOL    HW1  434   2.226   0.144   2.732  0.2804 -1.5075 -0.0838
  145SOL    HW2  435   2.098   0.173   2.623 -0.8486  1.3163  0.0734
  146SOL     OW  436   2.995   2.898   0.445  0.2157  0.0092 -0.0433
  146SOL    HW1  437   3.028   2.820   0.388 -0.6660  0.0907 -0.0445
  146SOL    HW2  438   3.050   2.915   0.529  0.2726  0.6688 -1.4859
  147SOL     OW  439   0.971   1.074   2.578 -0.0027 -0.1226  0.1851
  147SOL    HW1  440   0.898   1.005   2.561  1.6570  0.9515 -0.6064
  147SOL    HW2  441   1.047   1.065   2.509 -0.0410 -0.6618 -1.2921
  148SOL     OW  442   1.487   2.976   2.825 -0.3583  0.0661  0.1450
  148SOL    HW1  443   1.574   2.987   2.773 -0.0515 -0.5460 -0.1715
  148SOL    HW2  444   1.444   3.063   2.866 -2.5542  0.0120  2.1674
  149SOL     OW  445   1.182   0.124   1.950  0.0055  0.2357  0.5322
  149SOL    HW1  446   1.187   0.171   2.039 -0.3577 -1.2936  0.1321
  149SOL    HW2  447   1.240   0.168   1.879 -0.8722  1.7950 -1.9223
  150SOL     OW  448   2.346   2.742   3.013 -0.2817 -0.2471  0.4193
  150SOL    HW1  449   2.357   2.772   2.920 -2.9851 -1.4923  3.3115
  150SOL    HW2  450   2.303   2.649   3.025 -1.3586  0.3764  0.1956
  151SOL     OW  451   0.641   1.609   2.852  0.0038 -0.1359  0.3312
  151SOL    HW1  452   0.565   1.542   2.844  2.0546  0.4701 -2.2835
  151SOL    HW2  453   0.727   1.564   2.886 -1.1886  0.0499 -1.1835
  152SOL     OW  454   0.363   0.037   1.458  0.0585  0.4433  0.3381
  152SOL    HW1  455   0.260   0.048   1.481 -4.1810  2.9103  1.2580
  152SOL    HW2  456   0.410   3.071   1.524  2.8269 -0.1598  1.4904
  153SOL     OW  457   2.406   2.733   1.658  0.4742 -0.4437 -0.7446
  153SOL    HW1  458   2.504   2.729   1.689  1.3505 -0.2356 -0.2522
  153SOL    HW2  459   2.344   2.749   1.739  2.3770  0.9430  0.4097
  154SOL     OW  460   2.527   2.996   2.489  0.1275  0.0268 -0.4088
  154SOL    HW1  461   2.441   3.051   2.483 -0.6653  3.1295 -0.0368
  154SOL    HW2  462   2.605   3.055   2.492 -3.9812 -0.4482  0.9547
  155SOL     OW  463   0.151   1.337   0.538  0.0119  0.0502  0.0006
  155SOL    HW1  464   0.084   1.390   0.594 -1.0061 -2.5019  0.1349
  155SOL    HW2  465   0.192   1.401   0.468  0.1282 -1.2541 -0.6006
  156SOL     OW  466   2.694   1.731   0.906 -0.3070 -0.0640 -0.1601
  156SOL    HW1  467   2.777   1.786   0.929  1.0303  0.5889 -1.1899
  156SOL    HW2  468   2.716   1.706   0.809 -1.3468  2.6020  0.9993
  157SOL     OW  469   0.666   0.375   0.666  0.4744 -0.5397  0.2072
  157SOL    HW1  470   0.656   0.285   0.617  0.7934 -2.1718 -0.9795
  157SOL    HW2  471   0.620   0.372   0.758  0.5912 -0.4752  1.2998
  158SOL     OW  472   1.840   1.074   1.133  0.2947  0.1660  0.2697
  158SOL    HW1  473   1.823   1.008   1.059  1.6307 -1.1271 -1.1546
  158SOL    HW2  474   1.862   1.164   1.097 -1.1568 -2.9953  1.0096
  159SOL     OW  475   0.076   0.626   0.202 -0.1955 -0.4292  0.0399
  159SOL    HW1  476   0.123   0.656   0.291 -1.6643  1.3129 -0.9166
  159SOL    HW2  477   0.107   0.538   0.169 -1.2292 -0.5906 -1.7558
  160SOL     OW  478   2.146   1.944   1.916 -0.5188 -0.5865  0.0951
  160SOL    HW1  479   2.161   1.971   2.013  0.5086  0.2931  1.1803
  160SOL    HW2  480   2.098   2.017   1.865  2.1849 -1.7577  2.2253
  161SOL     OW  481   0.373   0.945   2.937  0.1455  0.3078 -0.4998
  161SOL    HW1  482   0.408   0.861   2.885 -0.0385 -1.6302 -1.3153
  161SOL    HW2  483   0.274   0.947   2.919 -1.8680 -0.8834 -1.9611
  162SOL     OW  484   0.761   0.281   2.006  0.6548  0.5551  0.1007
  162SOL    HW1  485   0.775   0.185   2.028  3.0359  0.6699  0.5620
  162SOL    HW2  486   0.695   0.291   1.932  3.1949 -0.8319  0.3933
  163SOL     OW  487   2.942   3.005   2.512 -0.2414 -0.2773 -0.0725
  163SOL    HW1  488   2.863   3.070   2.495 -1.5832  0.2596 -0.0005
  163SOL    HW2  489   2.956   2.943   2.434 -0.8856 -0.5450  1.6849
  164SOL     OW  490   2.116   2.114   0.459  0.3653 -0.0793 -0.4579
  164SOL    HW1  491   2.187   2.132   0.383  1.9467  1.5448 -0.2325
  164SOL    HW2  492   2.141   2.170   0.544 -0.1240  0.0341  0.7822
  165SOL     OW  493   0.498   0.088   1.212  0.1199  0.0538  0.3722
  165SOL    HW1  494   0.456   0.030   1.130 -0.0642  1.2492 -3.0465
  165SOL    HW2  495   0.480   0.035   1.294  0.8746  0.2651 -1.9392
  166SOL     OW  496   2.618   0.396   0.505  0.2343  0.5020  0.2007
  166SOL    HW1  497   2.702   0.416   0.449 -0.8758 -1.0056 -0.2108
  166SOL    HW2  498   2.540   0.450   0.470 -1.4046 -1.1932 -0.4870
  167SOL     OW  499   2.389   1.024   0.288  0.5553  0.7323  0.2498
  167SOL    HW1  500   2.434   0.935   0.265  3.4715  0.1359  0.0905
  167SOL    HW2  501   2.342   1.057   0.204  0.3236 -0.4476 -1.5274
  168SOL     OW  502   1.415   2.993   2.511 -0.1211  0.3955  0.0673
  168SOL    HW1  503   1.333   2.933   2.509 -1.0760  1.1417  0.7094
  168SOL    HW2  504   1.482   2.956   2.579 -0.2571  0.0493 -2.7186
  169SOL     OW  505   0.732   1.805   0.663  0.1538 -0.2376  0.2857
  169SOL    HW1  506   0.635   1.829   0.680 -1.6689 -0.5614  2.2269
  169SOL    HW2  507   0.788   1.834   0.743 -0.0579 -1.4058 -1.9802
  170SOL     OW  508   2.997   1.084   1.278 -0.3615  0.3585  0.3346
  170SOL    HW1  509   3.065   1.091   1.359 -1.6919 -1.9135  1.6240
  170SOL    HW2  510   2.950   0.993   1.287  0.0171  0.6208  4.0094
  171SOL     OW  511   2.825   1.437   2.560 -0.3461 -0.2637  0.5381
  171SOL    HW1  512   2.840   1.340   2.568  0.9310 -0.4591  0.1749
  171SOL    HW2  513   2.875   1.477   2.479 -0.8614 -3.6799  3.0506
  172SOL     OW  514   1.074   1.665   1.260 -0.9297  0.5446 -0.3397
  172SOL    HW1  515   0.982   1.644   1.239  2.4867  1.9133  0.3247
  172SOL    HW2  516   1.142   1.595   1.223  0.2933 -1.7742 -2.3001
  173SOL     OW  517   1.943   1.839   3.019 -0.0664 -0.0030 -0.4330
  173SOL    HW1  518   1.863   1.884   3.068 -1.7934 -0.0804 -0.6257
  173SOL    HW2  519   2.015   1.820   3.088 -1.5655  0.6629 -0.6027
  174SOL     OW  520   1.884   0.843   2.748  0.0047  0.1399 -0.3963
  174SOL    HW1  521   1.882   0.738   2.753 -2.3500  0.4046 -2.6762
  174SOL    HW2  522   1.812   0.878   2.813  0.4696  1.2266 -1.3489
  175SOL     OW  523   1.227   1.426   1.220  0.3308  0.1110  0.4739
  175SOL    HW1  524   1.152   1.363   1.258 -0.7906 -0.8667  0.0244
  175SOL    HW2  525   1.300   1.452   1.289  0.0256  3.6636  1.3910
  176SOL     OW  526   1.136   0.106   0.049 -0.1469  0.0578  0.6138
  176SOL    HW1  527   1.080   0.192   0.051  1.0141  1.8300 -2.9097
  176SOL    HW2  528   1.202   0.109   3.067  1.1689  2.4265  1.0156
  177SOL     OW  529   0.131   1.413   0.166  0.3174 -0.0603  0.7000
  177SOL    HW1  530   0.205   1.396   0.230 -0.8076 -1.1652 -0.8959
  177SOL    HW2  531   0.123   1.336   0.096 -1.3760 -0.4211 -2.1200
  178SOL     OW  532   2.981   2.467   2.580  0.1460 -0.1081  0.9454
  178SOL    HW1  533   2.992   2.432   2.674  1.2925  1.6753 -5.9442
  178SOL    HW2  534   3.070   2.497   2.536 -0.1705  1.1021  1.3031
  179SOL     OW  535   2.703   2.559   2.605 -0.3649 -0.9785 -0.5531
  179SOL    HW1  536   2.680   2.625   2.531 -0.5236  1.9073 -0.2320
  179SOL    HW2  537   2.740   2.468   2.574 -1.2647 -0.3409  0.9283
  180SOL     OW  538   2.498   0.489   1.049 -0.0565 -0.6008 -0.0923
  180SOL    HW1  539   2.450   0.579   1.051 -0.8133 -2.6106  3.0476
  180SOL    HW2  540   2.584   0.485   0.991 -0.0213  1.1233  2.8461
  181SOL     OW  541   2.336   0.349   2.565 -0.1704  0.2614 -0.1005
  181SOL    HW1  542   2.355   0.317   2.660 -1.1759 -2.4556 -0.2485
  181SOL    HW2  543   2.301   0.277   2.502  0.4224 -0.0795 -0.5093
  182SOL     OW  544   2.542   2.426   2.423  0.1657  0.1882  0.1026
  182SOL    HW1  545   2.451   2.419   2.471  1.1145  1.5058  1.1256
  182SOL    HW2  546   2.565   2.517   2.394  0.5839 -3.2796 -0.4140
  183SOL     OW  547   2.229   0.753   2.015  0.1827 -0.4055  0.3906
  183SOL    HW1  548   2.322   0.761   1.976 -2.9867 -0.2322  1.7343
  183SOL    HW2  549   2.169   0.702   1.950 -1.0464 -1.6671  0.5603
  184SOL     OW  550   0.406   1.378   0.843  0.2393  0.4688  0.0772
  184SOL    HW1  551   0.486   1.404   0.893 -3.4026  1.1926 -0.8929
  184SOL    HW2  552   0.334   1.341   0.904  0.7412 -0.2471 -0.3665
  185SOL     OW  553   2.908   0.128   0.663 -0.2450  0.1941 -0.6387
  185SOL    HW1  554   2.836   0.195   0.696 -0.1965 -0.8490 -0.3851
  185SOL    HW2  555   2.912   0.128   0.564  0.6622  1.2075  1.4622
  186SOL     OW  556   2.283   2.432   2.533  0.1988 -0.2307  0.1424
  186SOL    HW1  557   2.214   2.364   2.577 -2.1894 -3.5293  2.9421
  186SOL    HW2  558   2.285   2.523   2.585  0.9319  2.1769 -2.0365
  187SOL     OW  559   0.890   1.589   0.628 -0.2676  0.6708 -0.5201
  187SOL    HW1  560   0.988   1.602   0.657  0.3494  0.1889 -0.0626
  187SOL    HW2  561   0.836   1.676   0.643  1.2717  3.1284  0.8672
  188SOL     OW  562   2.202   1.600   0.783 -0.3362 -0.2363  0.4794
  188SOL    HW1  563   2.289   1.625   0.743  0.2234 -0.5988 -0.6079
  188SOL    HW2  564   2.123   1.615   0.722  0.7655 -1.4411 -0.0895
  189SOL     OW  565   0.073   1.498   2.831 -0.3226 -0.3031 -0.2874
  189SOL    HW1  566   0.097   1.556   2.913 -2.7101 -0.4624  1.2194
  189SOL    HW2  567   0.146   1.431   2.807 -0.3539 -1.5472 -0.3630
  190SOL     OW  568   2.447   0.504   2.195 -0.4270 -0.3322  0.5543
  190SOL    HW1  569   2.388   0.533   2.273 -1.0677  1.6024  0.7637
  190SOL    HW2  570   2.450   0.406   2.181 -0.2173  2.5002  0.5159
  191SOL     OW  571   0.996   0.424   2.331  0.3808  0.1015  0.4221
  191SOL    HW1  572   1.028   0.335   2.292 -1.2137 -1.5279  1.0555
  191SOL    HW2  573   0.961   0.410   2.425 -0.9351 -2.5971  1.0361
  192SOL     OW  574   1.052   1.497   1.790  0.6608 -0.3080  0.1292
  192SOL    HW1  575   1.143   1.454   1.786  0.9120  4.6676 -0.5309
  192SOL    HW2  576   1.037   1.540   1.702  0.5027 -1.9776 -1.7714
  193SOL     OW  577   1.127   2.934   0.673 -0.6835 -0.2183 -0.2773
  193SOL    HW1  578   1.226   2.916   0.665 -3.2990 -0.0808  0.3088
  193SOL    HW2  579   1.075   2.847   0.690 -1.0911 -0.3577  0.1241
  194SOL     OW  580   0.529   1.950   1.954 -0.4820  0.3128 -0.6766
  194SOL    HW1  581   0.487   2.038   1.995 -0.3467 -0.2897 -0.9140
  194SOL    HW2  582   0.593   1.976   1.877 -0.0288  2.3424  1.1422
  195SOL     OW  583   2.315   0.460   0.458 -0.4489  0.2109  0.6352
  195SOL    HW1  584   2.256   0.480   0.378  0.3524 -0.3990  2.3005
  195SOL    HW2  585   2.307   0.533   0.531 -0.0636  0.5013 -1.9170
  196SOL     OW  586   1.143   1.345   2.064 -0.2714  0.2085  0.5763
  196SOL    HW1  587   1.245   1.357   2.066 -2.1199  1.2020 -2.1371
  196SOL    HW2  588   1.111   1.396   1.981  2.5234 -0.5850 -0.7490
  197SOL     OW  589   0.021   0.373   1.781 -0.6036  0.0495 -0.6710
  197SOL    HW1  590   3.063   0.322   1.853 -2.8336  0.3579 -2.5199
  197SOL    HW2  591   0.053   0.460   1.821  0.9866 -2.2323  1.1810
  198SOL     OW  592   0.613   1.074   1.153 -0.0521  0.0894 -0.4319
  198SOL    HW1  593   0.701   1.040   1.125  0.5074 -0.8414  1.3722
  198SOL    HW2  594   0.534   1.016   1.126  1.3202 -0.8654 -3.4269
  199SOL     OW  595   0.306   2.435   1.030  0.1621 -0.1414  0.6046
  199SOL    HW1  596   0.349   2.522   0.998  0.5095  2.5130  1.1992
  199SOL    HW2  597   0.205   2.442   1.049  0.2546 -2.7660  1.4348
  200SOL     OW  598   1.581   1.494   2.720 -0.0495 -0.0232 -0.2986
  200SOL    HW1  599   1.512   1.420   2.728  0.6232  1.3484  0.3141
  200SOL    HW2  600   1.586   1.551   2.805  0.3349  1.3767 -1.0075
  201SOL     OW  601   0.459   2.519   1.689 -0.0084 -0.4527 -0.2542
  201SOL    HW1  602   0.476   2.537   1.591 -2.6968 -1.7473  0.6122
  201SOL    HW2  603   0.449   2.423   1.712 -1.4798 -0.1257 -0.5845
  202SOL     OW  604   1.318   0.102   2.917 -0.1098  0.0612  0.4316
  202SOL    HW1  605   1.239   0.077   2.854 -0.1034 -1.4031  0.0743
  202SOL    HW2  606   1.357   0.195   2.899  0.0604  0.9162 -0.8489
  203SOL     OW  607   1.504   0.385   2.341  0.2687 -0.6605  0.3769
  203SOL    HW1  608   1.497   0.346   2.245 -0.1081  1.2195  1.7459
  203SOL    HW2  609   1.585   0.352   2.389  0.9792 -1.3644  2.3299
  204SOL     OW  610   0.761   0.982   1.395  0.2046  0.1898 -0.1806
  204SOL    HW1  611   0.735   1.019   1.488 -0.9608  1.7528 -0.3804
  204SOL    HW2  612   0.727   1.045   1.325  0.8851 -2.6274 -0.1647
  205SOL     OW  613   2.102   0.995   2.733 -0.2432 -0.6562  0.0479
  205SOL    HW1  614   2.028   0.928   2.741  2.9105  1.1094  1.0971
  205SOL    HW2  615   2.151   0.994   2.644 -2.4896 -0.2356 -0.6950
  206SOL     OW  616   0.574   1.876   2.848  0.4036 -0.0456 -0.2301
  206SOL    HW1  617   0.616   1.783   2.844 -1.4499 -0.4783  0.0053
  206SOL    HW2  618   0.558   1.910   2.754  0.5070  1.3284 -0.3420
  207SOL     OW  619   0.294   0.267   2.001 -0.4011  0.0559  0.0690
  207SOL    HW1  620   0.327   0.361   2.018  1.5080 -1.6161  1.7902
  207SOL    HW2  621   0.248   0.259   1.913  1.1579 -1.9460  1.4898
  208SOL     OW  622   0.524   2.594   1.443 -0.3166 -0.4977 -0.5012
  208SOL    HW1  623   0.441   2.619   1.392  0.3523  0.2967  1.7176
  208SOL    HW2  624   0.585   2.538   1.386 -0.8772  3.5122 -0.5244
  209SOL     OW  625   1.211   2.605   0.036 -0.4050 -0.0514 -0.7101
  209SOL    HW1  626   1.142   2.532   0.070 -2.6077  0.6075 -1.1717
  209SOL    HW2  627   1.169   2.697   0.009 -0.6386  3.3785 -1.0230
  210SOL     OW  628   2.835   1.424   1.823 -0.8111  0.0583  0.2308
  210SOL    HW1  629   2.870   1.495   1.892  1.9032  0.6291  1.0771
  210SOL    HW2  630   2.776   1.470   1.758  2.8165 -0.9420 -1.1385
  211SOL     OW  631   0.953   0.171   1.824  0.7431 -0.1951 -0.9066
  211SOL    HW1  632   0.967   0.269   1.790  1.6906  1.6572 -2.3313
  211SOL    HW2  633   1.040   0.141   1.865 -3.3895 -0.0719  1.4885
  212SOL     OW  634   0.997   2.189   1.613 -0.2498 -0.0920  0.6179
  212SOL    HW1  635   0.947   2.270   1.641  1.7227 -1.1271  1.0092
  212SOL    HW2  636   1.097   2.200   1.609  0.1709 -1.5366  1.4076
  213SOL     OW  637   2.318   0.484   1.941 -0.5389 -0.0590 -0.1054
  213SOL    HW1  638   2.291   0.553   1.871 -2.9861 -0.7981  0.8176
  213SOL    HW2  639   2.338   0.529   2.031  1.6211 -2.2493 -1.2026
  214SOL     OW  640   0.699   1.976   1.729  0.3883  0.3767 -0.3747
  214SOL    HW1  641   0.795   1.963   1.703 -0.8879 -0.3307  0.3441
  214SOL    HW2  642   0.674   2.074   1.722  2.7197  1.6470 -2.4774
  215SOL     OW  643   2.806   1.862   1.265 -0.3585  0.0102 -0.2217
  215SOL    HW1  644   2.735   1.793   1.243  3.2199  0.7996 -0.7832
  215SOL    HW2  645   2.769   1.952   1.293 -1.1574  4.7158  2.4241
  216SOL     OW  646   0.039   0.782   1.272 -0.2501 -0.3649 -0.0474
  216SOL    HW1  647   0.107   0.834   1.215 -1.5528 -0.1582  1.4331
  216SOL    HW2  648   0.084   0.736   1.357  1.7042 -0.3679 -2.0708
  217SOL     OW  649   2.476   0.190   1.315  0.1919  0.5740 -0.4574
  217SOL    HW1  650   2.452   0.160   1.217  0.6423 -1.4575 -0.0352
  217SOL    HW2  651   2.540   0.268   1.315  1.8864  2.3675  1.2874
  218SOL     OW  652   1.388   2.152   1.099 -0.2899 -0.2615  0.2722
  218SOL    HW1  653   1.484   2.138   1.121  1.0494  2.7906 -1.1420
  218SOL    HW2  654   1.374   2.170   0.998  0.8756 -2.5694 -1.8901
  219SOL     OW  655   1.600   2.295   0.278  0.2632 -0.3812 -0.4239
  219SOL    HW1  656   1.624   2.205   0.328  4.5188  1.1150 -0.4402
  219SOL    HW2  657   1.686   2.334   0.241 -1.5539  0.2341 -0.4702
  220SOL     OW  658   1.804   2.488   0.114 -0.3517  0.0125  0.4207
  220SOL    HW1  659   1.741   2.566   0.143  1.9586  2.9725  0.8361
  220SOL    HW2  660   1.889   2.528   0.060 -0.0853 -0.2503 -0.9901
  221SOL     OW  661   0.097   2.016   1.185 -0.1165  0.5901  0.0155
  221SOL    HW1  662   0.193   2.037   1.162 -1.1674 -0.2708 -0.8984
  221SOL    HW2  663   0.091   1.914   1.169 -0.0546  0.7841 -0.5240
  222SOL     OW  664   1.612   2.409   0.908  0.5782  0.1750 -0.0120
  222SOL    HW1  665   1.643   2.509   0.921  1.5674 -0.3969  1.1262
  222SOL    HW2  666   1.601   2.387   0.810  0.1741 -0.4392  0.6524
  223SOL     OW  667   0.718   2.735   2.510 -0.3134  0.2592 -0.3192
  223SOL    HW1  668   0.711   2.818   2.451  0.0379 -0.9126  0.2912
  223SOL    HW2  669   0.793   2.677   2.477  0.2392 -0.7156  2.9743
  224SOL     OW  670   0.111   1.749   1.221 -0.0525  0.3353  0.5003
  224SOL    HW1  671   0.026   1.714   1.264  0.4948  2.0703  2.8991
  224SOL    HW2  672   0.183   1.760   1.286 -0.7424  0.5713  0.7066
  225SOL     OW  673   2.236   1.554   1.057 -0.1061  0.3222 -0.3341
  225SOL    HW1  674   2.335   1.566   1.068 -3.6137 -2.2547  0.0565
  225SOL    HW2  675   2.207   1.570   0.958  0.2765  2.2580 -1.8602
  226SOL     OW  676   1.302   0.009   0.427 -0.4924 -0.5297 -0.2864
  226SOL    HW1  677   1.273   0.109   0.423  2.5964 -2.0373  0.1675
  226SOL    HW2  678   1.280   3.060   0.337  0.0765  1.2830 -0.8635
  227SOL     OW  679   1.524   0.966   1.518  0.0461 -0.0837  0.0333
  227SOL    HW1  680   1.533   0.962   1.416  1.0106 -0.6947 -1.3456
  227SOL    HW2  681   1.560   1.062   1.546 -0.1529  1.6277 -2.0500
  228SOL     OW  682   1.392   0.569   2.057 -0.2373  0.5304 -0.2869
  228SOL    HW1  683   1.450   0.650   2.089  0.9845  1.6997  3.9115
  228SOL    HW2  684   1.368   0.589   1.963  1.2089 -0.7346 -1.5709
  229SOL     OW  685   2.900   0.697   2.769  0.5834 -0.4020  0.2912
  229SOL    HW1  686   2.976   0.703   2.837  0.4510  2.0196 -2.1636
  229SOL    HW2  687   2.838   0.777   2.785 -0.4359 -3.0314  1.9319
  230SOL     OW  688   1.089   1.033   0.842  0.2270 -0.5311 -0.0119
  230SOL    HW1  689   1.093   0.933   0.867 -0.7328  1.6409  2.4529
  230SOL    HW2  690   1.114   1.096   0.919  1.0165 -0.4159  0.1488
  231SOL     OW  691   2.388   2.978   2.005  0.2020 -0.0158 -0.2842
  231SOL    HW1  692   2.445   3.021   1.930 -0.7947  0.9525 -2.7445
  231SOL    HW2  693   2.442   2.926   2.072 -1.5333 -1.4368 -3.3980
  232SOL     OW  694   0.534   2.015   0.372 -0.0057  0.6246 -0.1421
  232SOL    HW1  695   0.606   1.942   0.368  1.7750 -0.0232  1.6464
  232SOL    HW2  696   0.579   2.096   0.423  1.3901  1.6381  3.3947
  233SOL     OW  697   1.114   2.212   2.539  0.6445  0.0833 -0.1489
  233SOL    HW1  698   1.209   2.180   2.547 -0.1362  4.1815  0.6339
  233SOL    HW2  699   1.108   2.311   2.566 -1.1087  0.9127 -1.4131
  234SOL     OW  700   0.951   1.218   1.697 -0.1205 -0.1689 -0.3473
  234SOL    HW1  701   0.925   1.249   1.793 -0.4205  0.1967 -0.2847
  234SOL    HW2  702   0.966   1.305   1.648 -2.4753  1.5590 -0.7183
  235SOL     OW  703   0.568   1.699   1.758  0.1842 -0.3936  0.2553
  235SOL    HW1  704   0.601   1.657   1.843 -0.4565 -1.1563 -0.4719
  235SOL    HW2  705   0.609   1.791   1.739  1.7545  1.3405 -1.0312
  236SOL     OW  706   1.705   2.828   2.427  0.6238  0.1804 -0.2383
  236SOL    HW1  707   1.624   2.765   2.413 -1.8258 -0.3939  0.6504
  236SOL    HW2  708   1.753   2.837   2.339  1.0431 -1.1979  0.5853
  237SOL     OW  709   1.197   0.248   0.457  0.4481 -0.3909 -0.2959
  237SOL    HW1  710   1.226   0.327   0.404  1.3111 -1.2120 -0.8040
  237SOL    HW2  711   1.110   0.271   0.501  3.0116 -1.1331 -0.2752
  238SOL     OW  712   1.423   0.664   2.773  0.3202 -0.0909  0.3343
  238SOL    HW1  713   1.447   0.569   2.741  0.1343  0.3187  0.7556
  238SOL    HW2  714   1.461   0.684   2.870  0.4114  1.4163 -0.3087
  239SOL     OW  715   0.388   0.526   2.014  0.0741 -0.3270 -0.0222
  239SOL    HW1  716   0.439   0.587   1.951  1.1728  0.5726  1.2426
  239SOL    HW2  717   0.451   0.497   2.093  0.9125  1.1596  1.6968
  240SOL     OW  718   2.304   2.635   0.635  0.7414  0.5592  0.5541
  240SOL    HW1  719   2.331   2.732   0.624  0.1538  0.2933  0.7021
  240SOL    HW2  720   2.204   2.624   0.641 -0.0894  1.4901  0.8024
  241SOL     OW  721   1.350   1.319   1.512 -0.5762  0.2080  0.3744
  241SOL    HW1  722   1.274   1.254   1.510  2.8019  0.5304 -0.6969
  241SOL    HW2  723   1.370   1.351   1.609  1.2453  1.3433  1.2780
  242SOL     OW  724   0.136   0.627   0.743 -0.4579  0.2581 -0.0142
  242SOL    HW1  725   0.084   0.712   0.751 -0.2756 -1.1290  1.6459
  242SOL    HW2  726   0.237   0.652   0.724  0.3273 -0.0600 -2.2536
  243SOL     OW  727   0.455   0.498   1.377  0.0035 -0.1054  0.0821
  243SOL    HW1  728   0.361   0.464   1.359 -0.4390 -0.2633 -0.0985
  243SOL    HW2  729   0.527   0.446   1.334 -2.4558 -0.5152  1.5291
  244SOL     OW  730   1.210   0.486   0.045  0.3704  0.0031  0.3416
  244SOL    HW1  731   1.187   0.584   0.053 -1.3174 -0.0889 -1.8309
  244SOL    HW2  732   1.129   0.427   0.074  0.7629  1.8698  0.9963
  245SOL     OW  733   1.909   1.081   3.033  0.6451 -0.4169  0.3708
  245SOL    HW1  734   1.911   1.121   2.938 -0.9114  0.2192  1.7645
  245SOL    HW2  735   1.916   1.151   0.004  0.8445 -3.4050  0.9270
  246SOL     OW  736   3.052   0.968   2.135  0.1792 -0.1202  0.0747
  246SOL    HW1  737   2.955   0.958   2.107  0.2510 -1.1721 -0.9529
  246SOL    HW2  738   3.083   1.065   2.134  1.4182 -0.5560 -0.3154
  247SOL     OW  739   0.423   2.997   2.176  0.1942 -0.5584 -0.4226
  247SOL    HW1  740   0.399   2.894   2.187 -1.8920  0.7744 -0.1107
  247SOL    HW2  741   0.424   3.016   2.080 -1.1660 -0.5554  1.4616
  248SOL     OW  742   0.504   1.542   2.321  0.3552 -0.4759 -0.8062
  248SOL    HW1  743   0.523   1.637   2.315 -2.0751 -4.6934 -1.6675
  248SOL    HW2  744   0.503   1.498   2.228  0.7891  0.5425 -1.7906
  249SOL     OW  745   0.440   0.321   2.748 -0.0635 -0.5663  0.2079
  249SOL    HW1  746   0.357   0.263   2.713 -4.6089 -1.9896 -3.8474
  249SOL    HW2  747   0.475   0.280   2.837  0.0034 -0.8390  2.2650
  250SOL     OW  748   0.303   2.999   2.903 -0.5196 -0.3779 -0.3401
  250SOL    HW1  749   0.235   2.924   2.920  0.1103 -0.6023 -1.4205
  250SOL    HW2  750   0.276   3.057   2.823 -0.5119  1.4781  3.7772
  251SOL     OW  751   0.315   1.610   0.715 -0.1734  0.1242  0.2646
  251SOL    HW1  752   0.265   1.659   0.789  1.0465 -0.5462 -1.6001
  251SOL    HW2  753   0.353   1.520   0.747 -0.3840 -0.7259 -1.3046
  252SOL     OW  754   1.550   2.605   2.091  0.2674  0.4791  0.3669
  252SOL    HW1  755   1.637   2.660   2.072  0.2506 -0.7831  0.3122
  252SOL    HW2  756   1.519   2.617   2.189  1.6953  2.4520 -2.1492
  253SOL     OW  757   1.714   1.934   2.723  0.5734  0.2693 -0.3987
  253SOL    HW1  758   1.729   1.841   2.688  1.5590  1.8980  1.0505
  253SOL    HW2  759   1.671   1.927   2.816 -0.5171  4.0836  0.3796
  254SOL     OW  760   0.326   1.622   1.689  0.4354  0.5474  0.0445
  254SOL    HW1  761   0.327   1.517   1.673  0.5703 -0.9803 -1.8625
  254SOL    HW2  762   0.420   1.661   1.711  0.8829 -1.1880  0.5509
  255SOL     OW  763   0.856   0.069   1.572  0.8387  0.3376  0.1232
  255SOL    HW1  764   0.876   0.054   1.677 -0.0474 -0.0343  2.8108
  255SOL    HW2  765   0.826   0.166   1.561 -0.5670 -3.3411  0.8711
  256SOL     OW  766   3.033   2.221   1.190 -0.1806  0.2737 -0.1678
  256SOL    HW1  767   2.950   2.197   1.244  3.2358 -0.1926 -2.3259
  256SOL    HW2  768   0.017   2.158   1.207  3.1131 -2.4103  0.3635
  257SOL     OW  769   0.159   2.655   3.091  0.5749 -0.2754  0.6405
  257SOL    HW1  770   0.170   2.711   0.080  0.8379  1.2113  0.3096
  257SOL    HW2  771   0.059   2.623   3.083 -1.2735 -0.7333  0.5529
  258SOL     OW  772   0.954   2.175   2.043 -0.1030  0.1033  0.6387
  258SOL    HW1  773   0.982   2.077   2.024  2.5964 -1.6598  0.0921
  258SOL    HW2  774   1.016   2.244   2.005  0.1201  0.0923  1.6731
  259SOL     OW  775   0.991   1.734   2.445  0.1091  0.0449  0.4580
  259SOL    HW1  776   1.028   1.822   2.412 -2.7576 -1.3853 -1.5114
  259SOL    HW2  777   0.922   1.741   2.520 -2.9033 -1.5054  2.3356
  260SOL     OW  778   2.346   0.804   2.301  0.6223  0.0591  0.3896
  260SOL    HW1  779   2.316   0.716   2.338 -0.4489  1.2744  0.2505
  260SOL    HW2  780   2.333   0.814   2.205 -1.2090  0.4350  4.0730
  261SOL     OW  781   1.434   0.765   1.124  0.0033  0.6466 -0.1295
  261SOL    HW1  782   1.420   0.672   1.079  3.0681 -0.0469 -0.4604
  261SOL    HW2  783   1.380   0.833   1.078  1.3820 -0.1315  0.1050
  262SOL     OW  784   2.090   2.296   2.702 -0.0134 -0.5449  0.0946
  262SOL    HW1  785   2.138   2.219   2.747  0.0420  0.9358  0.2141
  262SOL    HW2  786   2.053   2.250   2.617 -0.1450 -0.3799 -0.2145
  263SOL     OW  787   0.438   2.302   0.614 -0.3939 -0.0280  0.3911
  263SOL    HW1  788   0.435   2.397   0.642 -0.2000 -0.2851  0.5677
  263SOL    HW2  789   0.499   2.297   0.531 -0.4855 -0.4688 -0.2096
  264SOL     OW  790   3.045   2.158   0.549 -0.2166  0.4067 -0.3067
  264SOL    HW1  791   0.006   2.073   0.552  0.9677  2.0270  0.1227
  264SOL    HW2  792   3.006   2.171   0.457 -1.7205  1.1042 -0.9311
  265SOL     OW  793   0.500   1.200   0.239  0.1452 -0.7044  0.4286
  265SOL    HW1  794   0.481   1.136   0.316  0.9545  1.4682 -2.1705
  265SOL    HW2  795   0.592   1.235   0.257  1.0370 -1.5355 -0.1548
  266SOL     OW  796   0.743   2.010   2.329  0.6946 -0.7865  0.1658
  266SOL    HW1  797   0.726   2.116   2.319  1.3931  1.2239 -2.4182
  266SOL    HW2  798   0.842   2.001   2.343 -0.1057  1.7912 -0.9387
  267SOL     OW  799   1.724   0.666   2.513 -0.1541 -0.5155  0.4398
  267SOL    HW1  800   1.635   0.718   2.522 -0.4508  2.5545  0.3622
  267SOL    HW2  801   1.801   0.728   2.495  2.3269 -1.1179 -1.2762
  268SOL     OW  802   0.793   1.013   0.202 -0.4465 -0.4810  0.0037
  268SOL    HW1  803   0.782   1.117   0.217  1.9932  3.1541  0.4508
  268SOL    HW2  804   0.704   0.965   0.184  2.1564  4.1510  0.2777
  269SOL     OW  805   2.427   2.013   2.315 -0.4271  0.6174  0.0237
  269SOL    HW1  806   2.496   1.976   2.378 -1.3770 -1.1648 -1.1978
  269SOL    HW2  807   2.469   2.089   2.264 -0.1498  2.2449 -2.0324
  270SOL     OW  808   1.573   1.883   2.948 -0.5378 -0.4870 -0.3141
  270SOL    HW1  809   1.562   1.946   3.028 -1.2709  2.1291  3.2323
  270SOL    HW2  810   1.584   1.782   2.966 -1.1670  0.9789 -2.2114
  271SOL     OW  811   0.189   0.387   0.132 -0.0478 -0.1903 -0.1189
  271SOL    HW1  812   0.260   0.322   0.168 -1.1233  0.3453  0.3996
  271SOL    HW2  813   0.128   0.352   0.059 -0.0383  1.2729  1.3466
  272SOL     OW  814   2.872   0.439   0.393  0.2549 -0.2067 -0.1100
  272SOL    HW1  815   2.957   0.434   0.456  4.3480  0.9419  0.9860
  272SOL    HW2  816   2.830   0.530   0.408 -0.0547  1.7176 -0.5158
  273SOL     OW  817   0.488   2.959   1.671 -0.0806  0.0122 -0.7106
  273SOL    HW1  818   0.477   3.018   1.754  0.2345  1.0808  0.8559
  273SOL    HW2  819   0.447   2.867   1.693  1.1298 -1.3687  0.0909
  274SOL     OW  820   2.625   0.729   1.352 -0.0197  0.0220 -0.6037
  274SOL    HW1  821   2.610   0.774   1.443 -0.0831 -0.6474  0.9738
  274SOL    HW2  822   2.595   0.632   1.346  0.7635 -0.7178 -0.8141
  275SOL     OW  823   1.138   1.622   0.754 -0.5016  0.4941 -0.1139
  275SOL    HW1  824   1.164   1.560   0.678  0.2371 -2.4941 -2.0493
  275SOL    HW2  825   1.208   1.697   0.770 -0.5602 -0.4342  0.9741
  276SOL     OW  826   0.583   0.764   2.055 -1.0429  0.0800  0.0107
  276SOL    HW1  827   0.539   0.855   2.053 -1.1011  0.5072 -0.9086
  276SOL    HW2  828   0.631   0.735   2.140 -2.2288  0.1130 -0.1594
  277SOL     OW  829   0.985   2.587   1.976  0.2124  0.8822 -0.0510
  277SOL    HW1  830   0.917   2.594   1.902 -1.5208 -0.1678  0.6693
  277SOL    HW2  831   1.062   2.513   1.967  1.8107 -1.0423  0.9376
  278SOL     OW  832   1.953   2.857   1.985  0.3079  0.1639 -0.4867
  278SOL    HW1  833   1.917   2.832   1.892  0.6879  1.9986  0.0349
  278SOL    HW2  834   2.039   2.918   1.984  1.8616 -0.0702 -0.5474
  279SOL     OW  835   1.528   1.541   0.276  0.3826 -0.1774 -0.0889
  279SOL    HW1  836   1.449   1.546   0.211 -2.3648  1.9153 -0.8163
  279SOL    HW2  837   1.593   1.469   0.244  2.9531 -0.7067 -3.8052
  280SOL     OW  838   1.424   1.122   0.280  0.3062 -0.3931  0.8719
  280SOL    HW1  839   1.337   1.075   0.296  0.7879 -0.7110 -0.8263
  280SOL    HW2  840   1.441   1.188   0.361 -0.0996 -0.1220  1.5745
  281SOL     OW  841   0.421   0.284   1.553  0.4281  0.2373 -0.1671
  281SOL    HW1  842   0.451   0.356   1.492 -0.2612 -1.9545 -0.3588
  281SOL    HW2  843   0.447   0.190   1.515  0.6106  0.6386  0.6503
  282SOL     OW  844   0.110   2.545   0.609  0.1215  0.5403 -0.1123
  282SOL    HW1  845   0.064   2.565   0.524 -1.3108 -1.5909  1.7866
  282SOL    HW2  846   0.085   2.456   0.655  1.2221  0.0921  0.1658
  283SOL     OW  847   1.324   2.177   1.967 -0.7121 -0.3246  0.4925
  283SOL    HW1  848   1.321   2.073   1.949 -0.3390 -2.7613 -1.6911
  283SOL    HW2  849   1.423   2.201   1.958  2.4151  0.2070 -0.8744
  284SOL     OW  850   2.864   2.873   0.973  0.5445 -0.9092 -0.0259
  284SOL    HW1  851   2.770   2.918   0.975 -1.2135  0.2372  0.7620
  284SOL    HW2  852   2.902   2.845   1.064 -2.0807 -0.9999  1.8501
  285SOL     OW  853   0.323   1.982   2.944 -0.5812  0.6410 -0.1100
  285SOL    HW1  854   0.335   2.083   2.948 -1.0309  0.5408  1.3477
  285SOL    HW2  855   0.410   1.942   2.904 -1.1653  1.6530  0.5790
  286SOL     OW  856   0.185   2.781   1.081  0.5239 -0.0813 -0.4095
  286SOL    HW1  857   0.138   2.861   1.127 -0.2458 -1.0918  1.9358
  286SOL    HW2  858   0.116   2.717   1.041 -1.5736 -0.2210  0.2364
  287SOL     OW  859   0.626   1.076   0.620 -0.0693  1.0087  0.4543
  287SOL    HW1  860   0.698   1.069   0.693 -0.9299 -0.6111  0.8076
  287SOL    HW2  861   0.593   1.172   0.618 -0.0547 -0.9044  1.7278
  288SOL     OW  862   2.004   1.818   2.726 -0.1666 -0.1282 -0.1108
  288SOL    HW1  863   1.964   1.841   2.818  1.8605 -1.8690  0.9328
  288SOL    HW2  864   1.986   1.898   2.664 -0.6382  1.7104 -0.5461
  289SOL     OW  865   0.085   1.917   3.059 -1.0650  0.5492  0.2081
  289SOL    HW1  866   0.183   1.941   3.028  1.5381  0.0469 -0.7278
  289SOL    HW2  867   0.081   1.815   3.066  0.8745  3.0618 -0.4327
  290SOL     OW  868   1.426   1.627   1.357  0.1117  0.2150  0.5717
  290SOL    HW1  869   1.399   1.716   1.322  3.0973 -2.8180 -2.4788
  290SOL    HW2  870   1.512   1.608   1.305  0.8194 -0.9754  2.9920
  291SOL     OW  871   1.271   1.160   2.912 -0.0294 -0.7810 -0.2867
  291SOL    HW1  872   1.194   1.094   2.900 -0.0784  4.9576 -2.2656
  291SOL    HW2  873   1.341   1.124   2.976 -2.4770 -0.8021  1.1166
  292SOL     OW  874   1.142   1.630   0.328  0.1317  0.3806  0.0244
  292SOL    HW1  875   1.167   1.574   0.408 -0.6884  1.2121  0.6358
  292SOL    HW2  876   1.049   1.595   0.292 -2.5147 -0.4503 -0.7346
  293SOL     OW  877   1.588   0.042   0.770  0.4587  0.0569  0.2660
  293SOL    HW1  878   1.514   0.073   0.833  0.9806  1.1032  0.3186
  293SOL    HW2  879   1.567   0.072   0.679  0.5885 -2.6564  2.1439
  294SOL     OW  880   1.776   1.181   2.426 -0.3510  0.1499 -0.0525
  294SOL    HW1  881   1.747   1.134   2.516 -0.9279  1.1863  2.6734
  294SOL    HW2  882   1.734   1.273   2.414  3.3382 -1.1802 -1.6145
  295SOL     OW  883   1.808   1.991   0.099  0.2197 -0.2323  0.4478
  295SOL    HW1  884   1.718   2.039   0.108 -1.3917 -0.4352  2.2564
  295SOL    HW2  885   1.874   2.033   0.164 -0.2024 -1.5681 -1.3566
  296SOL     OW  886   1.335   0.633   1.798  0.9858  0.6969 -0.2156
  296SOL    HW1  887   1.398   0.643   1.720  0.7347  0.7722  0.1348
  296SOL    HW2  888   1.271   0.708   1.799  2.6990  1.1977 -0.7162
  297SOL     OW  889   2.963   0.823   1.816 -0.0632  0.3501  0.0319
  297SOL    HW1  890   2.896   0.887   1.852  0.8661 -2.0802 -1.7771
  297SOL    HW2  891   3.055   0.841   1.853  1.9182  2.0939  1.7926
  298SOL     OW  892   1.021   1.646   1.545 -0.5609  0.6026 -0.4844
  298SOL    HW1  893   1.007   1.738   1.585  1.6661  0.0646  0.1485
  298SOL    HW2  894   1.055   1.657   1.448  1.6907 -0.3833  3.7837
  299SOL     OW  895   1.130   0.034   2.739  0.0544 -0.2010 -0.3938
  299SOL    HW1  896   1.168   0.046   2.645  1.9489 -1.6417 -1.8187
  299SOL    HW2  897   1.049   3.074   2.733 -0.7857  0.4644 -2.1195
  300SOL     OW  898   3.030   1.119   2.910 -0.3950  0.7168 -0.2056
  300SOL    HW1  899   3.059   1.035   2.865 -0.5111 -1.4937  3.2150
  300SOL    HW2  900   0.014   1.160   2.961 -1.6250 -1.0351 -1.9027
  301SOL     OW  901   1.930   0.797   2.426  0.1295  0.8072  0.7491
  301SOL    HW1  902   1.962   0.741   2.345 -1.1935 -1.0016  1.7973
  301SOL    HW2  903   1.991   0.870   2.454  0.8186 -2.6194  1.5307
  302SOL     OW  904   2.436   1.893   2.731  0.2272 -0.0730  0.1486
  302SOL    HW1  905   2.367   1.935   2.668  1.5319  0.2039 -1.3711
  302SOL    HW2  906   2.528   1.934   2.716 -1.5242  0.7425 -3.4459
  303SOL     OW  907   0.251   2.275   2.766  0.2946 -0.0233  0.0605
  303SOL    HW1  908   0.351   2.261   2.788  2.1751  1.1399  2.0350
  303SOL    HW2  909   0.191   2.261   2.849  1.8177 -0.1289 -2.8741
  304SOL     OW  910   0.501   1.876   1.307  0.2542  0.3976  0.3244
  304SOL    HW1  911   0.449   1.810   1.367  1.0696  1.4137  0.2291
  304SOL    HW2  912   0.599   1.873   1.336  0.0000  1.9272  0.1443
  305SOL     OW  913   2.472   0.741   1.891  0.0472 -0.0300 -0.0483
  305SOL    HW1  914   2.552   0.694   1.934  3.0173  0.0050  0.0709
  305SOL    HW2  915   2.480   0.743   1.789 -0.3456  1.6467  0.1246
  306SOL     OW  916   1.961   1.286   1.290  0.0585 -0.3985 -0.1292
  306SOL    HW1  917   1.883   1.264   1.230  0.0271  1.0219 -1.3899
  306SOL    HW2  918   1.983   1.209   1.349 -0.1975 -0.7012 -1.2348
  307SOL     OW  919   3.080   0.467   0.911 -0.2084  0.6898 -0.5766
  307SOL    HW1  920   0.035   0.537   0.856  3.2001 -0.1682 -2.2038
  307SOL    HW2  921   3.066   0.500   1.006 -2.3668  0.1363  0.5367
  308SOL     OW  922   0.012   1.594   1.687 -0.0826 -0.1341  0.1929
  308SOL    HW1  923   0.108   1.617   1.662 -2.9184 -2.3768  0.6726
  308SOL    HW2  924   3.094   1.491   1.678 -1.0563  1.4336 -0.9006
  309SOL     OW  925   2.307   2.289   1.781  0.0647 -0.1259 -0.3060
  309SOL    HW1  926   2.313   2.355   1.703  0.8051  0.2483  1.7634
  309SOL    HW2  927   2.310   2.345   1.867 -2.3335 -2.5811  0.0342
  310SOL     OW  928   2.267   1.345   2.605  0.2227 -0.2747 -0.0804
  310SOL    HW1  929   2.265   1.380   2.700  2.4716  2.1446  1.4272
  310SOL    HW2  930   2.296   1.247   2.607 -0.5271  2.1362 -3.5317
  311SOL     OW  931   1.549   1.344   3.066 -0.3424  0.0107 -0.0861
  311SOL    HW1  932   1.450   1.337   3.083 -0.5587 -3.2171 -1.8494
  311SOL    HW2  933   1.573   1.289   2.980  0.1729 -1.6618 -0.7819
  312SOL     OW  934   1.004   2.021   2.375 -0.0129 -1.0501  0.5177
  312SOL    HW1  935   1.053   2.047   2.290  1.2559  0.9837  1.3167
  312SOL    HW2  936   1.036   2.078   2.456 -0.4030  0.2533  1.4687
  313SOL     OW  937   0.241   0.346   0.966  0.4587  0.2866 -0.0987
  313SOL    HW1  938   0.153   0.389   0.930 -4.1184  1.6018 -2.2935
  313SOL    HW2  939   0.232   0.265   1.031  0.1305 -3.4748  0.6740
  314SOL     OW  940   0.756   1.866   1.041  0.0160 -0.4401 -0.1606
  314SOL    HW1  941   0.740   1.953   1.095 -1.5396  1.7378  0.3618
  314SOL    HW2  942   0.763   1.783   1.104 -0.4642 -0.3672  0.5857
  315SOL     OW  943   0.449   2.160   2.102  0.6056 -0.3786  0.1245
  315SOL    HW1  944   0.371   2.229   2.092  1.4117  0.5677 -1.0070
  315SOL    HW2  945   0.422   2.078   2.158 -2.5765 -0.9190 -1.2358
  316SOL     OW  946   0.408   2.568   0.680  0.5950 -0.5653  0.5999
  316SOL    HW1  947   0.311   2.565   0.651 -0.2510  1.4695 -2.1270
  316SOL    HW2  948   0.411   2.619   0.768  2.7372 -1.0574 -0.8510
  317SOL     OW  949   2.764   3.024   1.452  0.6263 -0.0080  0.2226
  317SOL    HW1  950   2.726   3.074   1.368 -0.2034  2.4475 -4.3372
  317SOL    HW2  951   2.751   2.922   1.444  0.0346 -1.7143 -0.0603
  318SOL     OW  952   2.004   2.597   3.081 -0.1133 -0.1482  0.2219
  318SOL    HW1  953   2.056   2.624   3.000  0.3000  0.3518  0.2341
  318SOL    HW2  954   2.067   2.613   0.064 -1.1545  0.7191  0.5068
  319SOL     OW  955   1.435   1.094   2.495 -0.1393  0.5017 -0.2523
  319SOL    HW1  956   1.431   1.167   2.563 -0.1592 -0.7665 -3.4361
  319SOL    HW2  957   1.502   1.019   2.521 -0.5115 -2.0147 -1.4642
  320SOL     OW  958   0.147   2.324   2.357  0.1234  0.4619 -0.4179
  320SOL    HW1  959   0.196   2.324   2.266  0.3270 -0.7006 -2.1180
  320SOL    HW2  960   0.048   2.309   2.342  1.6710 -0.0578  0.5660
  321SOL     OW  961   0.726   2.338   0.211 -0.0816  0.5516  0.2691
  321SOL    HW1  962   0.793   2.410   0.187 -0.8744  1.5213 -1.9263
  321SOL    HW2  963   0.631   2.369   0.199 -1.4354  0.6883  1.3420
  322SOL     OW  964   2.571   0.521   2.537 -0.7194 -0.5644  0.0853
  322SOL    HW1  965   2.498   0.578   2.594 -2.9814  3.0661 -1.8684
  322SOL    HW2  966   2.528   0.441   2.497 -0.6574  1.0081  0.7730
  323SOL     OW  967   2.684   1.331   0.880 -0.3058  0.0774  0.7928
  323SOL    HW1  968   2.762   1.376   0.935 -1.5905  3.8031  2.2158
  323SOL    HW2  969   2.698   1.232   0.893  0.8847  1.6058 -0.3399
  324SOL     OW  970   0.180   0.412   1.356  0.0180 -0.0551  0.9563
  324SOL    HW1  971   0.158   0.485   1.420  0.4412 -0.4839 -1.6421
  324SOL    HW2  972   0.088   0.366   1.332 -4.3104 -0.6166 -1.8193
  325SOL     OW  973   3.066   3.044   1.801 -0.6746 -0.5977  0.3023
  325SOL    HW1  974   3.060   3.094   1.714  1.1209  0.1039  2.4591
  325SOL    HW2  975   0.072   3.039   1.832  2.4130 -3.0273 -0.0490
  326SOL     OW  976   1.957   2.982   0.277  0.0051  0.1644  0.0253
  326SOL    HW1  977   2.048   2.950   0.245  0.6987  1.9208  1.2341
  326SOL    HW2  978   1.886   2.957   0.207  0.2818  1.1290 -0.6024
  327SOL     OW  979   2.013   1.653   0.591 -0.3149  0.1764  0.4022
  327SOL    HW1  980   2.002   1.746   0.551  0.7582  0.8120  0.3227
  327SOL    HW2  981   1.969   1.586   0.531 -0.8950  0.6194 -2.7275
  328SOL     OW  982   3.063   1.962   2.516  0.1625  0.0933 -0.2423
  328SOL    HW1  983   3.037   1.928   2.602  2.4009  1.0600 -1.5017
  328SOL    HW2  984   0.036   2.033   2.526  0.4239  0.0650 -0.2012
  329SOL     OW  985   0.253   2.278   1.479  0.6446 -0.3235 -0.2183
  329SOL    HW1  986   0.304   2.306   1.393  0.1911 -0.2983 -2.2814
  329SOL    HW2  987   0.310   2.274   1.561 -4.0072 -0.6654 -1.7373
  330SOL     OW  988   2.408   1.126   2.688  0.3902  0.6704  0.3155
  330SOL    HW1  989   2.427   1.050   2.623  1.2796 -0.2533 -1.1281
  330SOL    HW2  990   2.400   1.103   2.788 -1.6153 -1.6739  2.6083
  331SOL     OW  991   2.738   2.176   1.085 -0.4272 -0.6002 -0.6511
  331SOL    HW1  992   2.782   2.181   1.181  0.0689 -2.5668  2.2507
  331SOL    HW2  993   2.694   2.264   1.054 -2.1229 -0.6409 -0.2668
  332SOL     OW  994   0.665   2.885   0.736  0.0905  0.2992 -0.1470
  332SOL    HW1  995   0.571   2.874   0.780  1.2629 -1.1907 -2.9798
  332SOL    HW2  996   0.744   2.838   0.794  1.0213 -2.2807  3.4173
  333SOL     OW  997   2.263   2.037   2.564  0.2408  0.2448  0.0006
  333SOL    HW1  998   2.192   2.101   2.539 -0.3539 -1.6501  0.2688
  333SOL    HW2  999   2.299   1.992   2.481 -0.8774 -0.7965  1.2102
  334SOL     OW 1000   0.767   1.346   0.659  0.1177  0.0038  0.0077
  334SOL    HW1 1001   0.673   1.359   0.626  0.1407 -1.9836 -1.7674
  334SOL    HW2 1002   0.814   1.436   0.669 -1.4044  0.0631 -0.8373
  335SOL     OW 1003   2.832   2.003   2.355 -0.5033  0.2923 -0.3499
  335SOL    HW1 1004   2.926   1.959   2.352  0.5832 -2.7929  1.9218
  335SOL    HW2 1005   2.769   1.941   2.407  0.3108 -1.0270  1.6471
  336SOL     OW 1006   2.456   2.880   2.248  0.3169  0.4371 -0.5755
  336SOL    HW1 1007   2.488   2.931   2.329 -1.2807  1.0280  0.9551
  336SOL    HW2 1008   2.353   2.873   2.252 -1.4735 -0.2190  0.8621
  337SOL     OW 1009   0.737   0.772   0.779  0.3585 -0.2417 -0.5798
  337SOL    HW1 1010   0.799   0.760   0.703 -1.2300  0.1998  5.3786
  337SOL    HW2 1011   0.753   0.848   0.840 -1.3363 -3.4781 -1.7001
  338SOL     OW 1012   1.299   1.818   0.850  0.5435  0.0146 -0.6139
  338SOL    HW1 1013   1.255   1.851   0.933 -1.9820  1.4360  0.4903
  338SOL    HW2 1014   1.310   1.898   0.780  0.3368  1.0704 -2.1852
  339SOL     OW 1015   0.275   1.761   1.450 -0.2131  0.1642 -0.1485
  339SOL    HW1 1016   0.218   1.841   1.473  1.3521  0.2528 -0.4554
  339SOL    HW2 1017   0.303   1.707   1.531  1.1666  1.0911  0.8576
  340SOL     OW 1018   1.174   2.796   1.790 -0.0158 -0.0629 -0.1867
  340SOL    HW1 1019   1.148   2.853   1.871  0.4253  0.8530 -1.2372
  340SOL    HW2 1020   1.249   2.736   1.820 -2.2472  4.6568  1.7610
  341SOL     OW 1021   1.630   1.575   1.195  0.1593 -0.0428 -0.0701
  341SOL    HW1 1022   1.627   1.657   1.131  0.4905  0.4505 -0.1241
  341SOL    HW2 1023   1.722   1.570   1.240  1.2241 -2.3129 -0.2040
  342SOL     OW 1024   2.536   1.497   1.028 -0.3145 -0.1606 -0.1266
  342SOL    HW1 1025   2.594   1.571   1.071  1.9218 -1.1631  1.3767
  342SOL    HW2 1026   2.582   1.446   0.957  0.1582  2.0603  1.5792
  343SOL     OW 1027   2.249   0.380   1.046  0.5765  0.6058 -0.1317
  343SOL    HW1 1028   2.301   0.454   1.089 -0.9422  0.0978 -0.5102
  343SOL    HW2 1029   2.235   0.390   0.947  2.4558  0.6434  3.5225
  344SOL     OW 1030   2.430   0.194   0.460 -0.2207  0.2760  0.3336
  344SOL    HW1 1031   2.410   0.295   0.480  2.2316  1.2576  0.2941
  344SOL    HW2 1032   2.481   0.143   0.539  1.3816 -3.3061 -1.9508
  345SOL     OW 1033   0.776   2.839   1.843 -0.5176 -0.3100 -0.2816
  345SOL    HW1 1034   0.711   2.778   1.893 -0.0183 -0.8886  0.3946
  345SOL    HW2 1035   0.780   2.824   1.745 -0.6964 -2.9394  0.6744
  346SOL     OW 1036   2.511   2.095   0.648 -0.6906 -0.1441 -0.0875
  346SOL    HW1 1037   2.605   2.058   0.665  0.0067  1.1268 -0.1984
  346SOL    HW2 1038   2.491   2.178   0.705  0.1019 -1.2350  0.6960
  347SOL     OW 1039   2.530   2.772   1.203 -0.2279 -0.0265 -0.3814
  347SOL    HW1 1040   2.431   2.759   1.192  2.6069 -1.4074 -2.0259
  347SOL    HW2 1041   2.560   2.859   1.156 -0.6258 -0.9955 -0.1274
  348SOL     OW 1042   1.266   0.897   1.385 -0.0162  0.0333  0.1524
  348SOL    HW1 1043   1.319   0.963   1.329 -0.8741  0.4446 -1.0557
  348SOL    HW2 1044   1.311   0.804   1.377  0.1143 -1.7308 -0.3480
  349SOL     OW 1045   2.268   0.539   2.381 -0.1206 -0.2328  0.3875
  349SOL    HW1 1046   2.275   0.492   2.472  0.4949 -1.2390 -0.2994
  349SOL    HW2 1047   2.177   0.521   2.342 -0.0947  0.4876  2.8738
  350SOL     OW 1048   2.039   2.634   0.544 -0.5648 -0.0615 -0.0545
  350SOL    HW1 1049   2.025   2.735   0.545  0.5135  0.1631  2.2860
  350SOL    HW2 1050   2.052   2.606   0.449 -1.0670 -2.2232  1.0483
  351SOL     OW 1051   1.416   0.310   0.041  0.1170  0.4875 -0.1751
  351SOL    HW1 1052   1.480   0.365   3.082  3.1237 -2.0197 -2.3159
  351SOL    HW2 1053   1.329   0.354   0.066  0.3323  0.0773  0.4516
  352SOL     OW 1054   2.025   2.622   2.288  0.4946 -0.6634  0.6802
  352SOL    HW1 1055   1.978   2.608   2.376 -1.5433 -1.1522 -0.1709
  352SOL    HW2 1056   1.963   2.609   2.208  2.1032 -0.9198  0.6920
  353SOL     OW 1057   0.524   1.075   2.570  0.0415  0.4642 -0.9753
  353SOL    HW1 1058   0.432   1.047   2.532  0.7051  1.0150  1.2830
  353SOL    HW2 1059   0.559   1.155   2.517  0.1394 -0.0932  2.9805
  354SOL     OW 1060   0.460   2.777   2.630  0.8734 -0.3478  0.0717
  354SOL    HW1 1061   0.544   2.772   2.575  1.3475  0.9217  2.7624
  354SOL    HW2 1062   0.478   2.820   2.717 -0.5419 -1.6485 -3.5382
  355SOL     OW 1063   2.265   2.728   1.195  0.6374  0.3485 -0.2484
  355SOL    HW1 1064   2.241   2.765   1.290  0.4364 -0.1446  1.7905
  355SOL    HW2 1065   2.233   2.633   1.180  0.9002 -1.1795 -0.1037
  356SOL     OW 1066   2.761   0.695   0.388 -0.4015  0.2167  0.9366
  356SOL    HW1 1067   2.810   0.771   0.437 -0.9975 -1.5932 -0.7921
  356SOL    HW2 1068   2.682   0.732   0.336 -3.7895  0.2732  0.1906
  357SOL     OW 1069   2.988   0.053   1.538  0.2409 -0.2126 -0.4030
  357SOL    HW1 1070   2.974   0.153   1.544 -3.0928 -1.2521 -0.2282
  357SOL    HW2 1071   2.900   0.006   1.516  0.2334  0.7763 -0.3703
  358SOL     OW 1072   2.992   1.658   1.342 -0.3215  0.1919  0.1183
  358SOL    HW1 1073   2.952   1.583   1.398 -1.3516 -0.7774 -1.5506
  358SOL    HW2 1074   2.926   1.731   1.328  2.0383 -0.2575 -0.3290
  359SOL     OW 1075   2.445   2.949   2.778 -0.3634 -0.3845  0.2816
  359SOL    HW1 1076   2.495   2.967   2.690  1.3016 -0.5904 -1.6555
  359SOL    HW2 1077   2.490   3.009   2.850  1.5157  0.7646  2.2690
  360SOL     OW 1078   1.314   0.593   1.384 -0.1224  0.1313 -0.5044
  360SOL    HW1 1079   1.243   0.531   1.426  1.1486 -1.2314  0.6572
  360SOL    HW2 1080   1.381   0.618   1.463 -0.6744  2.2122  2.8008
  361SOL     OW 1081   2.597   2.425   1.382 -0.1158 -0.2047  0.3857
  361SOL    HW1 1082   2.679   2.444   1.440  0.0066 -1.5916 -1.1404
  361SOL    HW2 1083   2.609   2.335   1.331 -0.1164 -0.5362  0.5776
  362SOL     OW 1084   1.574   0.496   0.677  0.5405  0.1033 -0.1261
  362SOL    HW1 1085   1.492   0.555   0.674  0.4549  1.2368 -1.2892
  362SOL    HW2 1086   1.543   0.396   0.668 -1.8621  0.9623 -0.7596
  363SOL     OW 1087   1.881   1.290   0.982  0.4064  0.3049 -0.2605
  363SOL    HW1 1088   1.937   1.217   0.946  1.2904  1.0783 -1.3889
  363SOL    HW2 1089   1.894   1.372   0.925  1.7437 -3.4548  1.7364
  364SOL     OW 1090   0.203   0.953   1.719  0.3940 -0.5192 -0.2636
  364SOL    HW1 1091   0.235   0.861   1.692 -1.1595  1.8649  0.2499
  364SOL    HW2 1092   0.147   1.001   1.648  2.0037 -1.1598 -2.1234
  365SOL     OW 1093   2.916   0.737   0.974 -0.2693 -0.5170  0.2778
  365SOL    HW1 1094   2.940   0.650   1.024  2.6048  0.3594 -1.1264
  365SOL    HW2 1095   2.895   0.809   1.046 -1.5339  0.1171  1.8921
  366SOL     OW 1096   2.783   1.393   0.556 -0.6167 -0.3431 -0.1968
  366SOL    HW1 1097   2.783   1.428   0.463 -0.6237  0.8035  0.7648
  366SOL    HW2 1098   2.849   1.439   0.621 -0.1762  0.7297  2.5141
  367SOL     OW 1099   2.187   1.932   2.224  0.2521  0.0618  0.4480
  367SOL    HW1 1100   2.130   2.017   2.219  1.1582 -0.4767 -0.7552
  367SOL    HW2 1101   2.286   1.945   2.257  2.4782  0.2752  1.1221
  368SOL     OW 1102   2.329   2.010   1.271  0.8259  0.5565  0.3223
  368SOL    HW1 1103   2.333   1.982   1.367  1.8831  1.1588 -1.6502
  368SOL    HW2 1104   2.350   1.934   1.210 -1.1077  0.7584  0.6572
  369SOL     OW 1105   2.173   2.919   2.801 -0.5109 -0.1421  0.4427
  369SOL    HW1 1106   2.127   3.007   2.799  0.2122  1.1861  0.2059
  369SOL    HW2 1107   2.278   2.935   2.788  5.0340  0.5648  3.0552
  370SOL     OW 1108   0.772   0.295   1.007  0.9345 -0.2474 -0.3099
  370SOL    HW1 1109   0.671   0.322   1.001 -2.6244  0.5231 -0.5987
  370SOL    HW2 1110   0.791   0.201   0.986 -0.2770 -0.1723  0.7520
  371SOL     OW 1111   0.497   1.653   0.262  0.7063 -0.0191  0.0756
  371SOL    HW1 1112   0.431   1.653   0.183  2.6423  1.8172 -1.8211
  371SOL    HW2 1113   0.592   1.670   0.229  2.8787 -0.0636 -0.4728
  372SOL     OW 1114   0.544   0.788   2.787  0.4013 -0.4018 -0.4297
  372SOL    HW1 1115   0.501   0.717   2.726 -0.7041 -0.9784 -0.0090
  372SOL    HW2 1116   0.548   0.882   2.745 -1.7169  3.0826  2.2526
  373SOL     OW 1117   1.150   2.844   2.974 -0.0575 -0.2174  0.7253
  373SOL    HW1 1118   1.060   2.884   2.960 -0.2927 -2.0182  1.3114
  373SOL    HW2 1119   1.218   2.864   2.900 -2.3802 -0.8739  0.5485
  374SOL     OW 1120   1.181   1.860   0.456  0.3801  0.3473 -0.4769
  374SOL    HW1 1121   1.255   1.835   0.524 -0.1550  0.1131 -0.1788
  374SOL    HW2 1122   1.144   1.781   0.403 -1.9090 -1.0041  1.5173
  375SOL     OW 1123   0.546   0.634   1.815 -0.4914  0.6898 -0.3259
  375SOL    HW1 1124   0.586   0.681   1.895 -1.9534 -1.4695 -1.5357
  375SOL    HW2 1125   0.608   0.613   1.733 -0.8372 -0.9944  0.5997
  376SOL     OW 1126   0.027   2.425   1.570 -0.4950  0.2326  0.4179
  376SOL    HW1 1127   0.104   2.359   1.539  2.8878 -1.3574  1.2623
  376SOL    HW2 1128   0.061   2.484   1.647 -1.7201 -1.3597  0.9682
  377SOL     OW 1129   2.726   1.627   2.959 -0.1352  0.0861 -0.4038
  377SOL    HW1 1130   2.639   1.601   2.916  0.9035 -1.9587  2.2595
  377SOL    HW2 1131   2.796   1.589   2.898 -1.3868 -1.0238  1.3099
  378SOL     OW 1132   1.854   2.999   2.969 -0.3063  0.2514 -0.5651
  378SOL    HW1 1133   1.791   2.968   3.045 -0.3304 -2.5345  2.1585
  378SOL    HW2 1134   1.882   2.921   2.915 -1.1992 -0.2132  1.6498
  379SOL     OW 1135   1.939   0.541   0.601  0.8337  0.0985  0.5111
  379SOL    HW1 1136   1.975   0.443   0.593  1.1397 -3.2979 -2.8680
  379SOL    HW2 1137   1.889   0.559   0.689 -2.7964 -0.7378  0.4639
  380SOL     OW 1138   2.701   2.001   1.748  0.4017  0.2974 -0.0745
  380SOL    HW1 1139   2.803   1.991   1.749 -3.4899 -2.2440 -1.6396
  380SOL    HW2 1140   2.655   1.914   1.739  2.7547  1.6052  0.1292
  381SOL     OW 1141   2.246   1.414   2.290 -0.2653 -0.3239  0.5863
  381SOL    HW1 1142   2.336   1.372   2.306  0.1710  1.0078 -2.2073
  381SOL    HW2 1143   2.176   1.388   2.359 -1.0689  2.0297  0.7167
  382SOL     OW 1144   2.948   2.844   2.791  0.0388 -0.0648 -0.4895
  382SOL    HW1 1145   2.891   2.763   2.813 -1.2138 -0.6717 -0.3921
  382SOL    HW2 1146   2.942   2.872   2.695  0.8303 -0.9176  1.3984
  383SOL     OW 1147   0.862   1.338   0.015 -0.0724 -0.1231  0.0252
  383SOL    HW1 1148   0.845   1.239   0.004  0.2905  1.6780  2.8461
  383SOL    HW2 1149   0.878   1.392   3.022 -2.0009  0.3603 -0.4334
  384SOL     OW 1150   1.390   1.982   1.481 -0.1486 -0.7033 -0.1213
  384SOL    HW1 1151   1.350   2.072   1.508 -1.8805  0.2244  0.2388
  384SOL    HW2 1152   1.370   1.948   1.386  1.2951 -1.9458 -3.8530
  385SOL     OW 1153   1.896   2.668   0.819 -0.4343 -0.8371  0.3393
  385SOL    HW1 1154   1.955   2.748   0.827 -1.5176 -1.6472 -0.6600
  385SOL    HW2 1155   1.800   2.694   0.831 -0.0487  1.0888 -0.1223
  386SOL     OW 1156   1.909   1.527   0.857  0.1448  0.2164  0.4000
  386SOL    HW1 1157   1.907   1.618   0.906  1.9172 -0.2701 -0.4046
  386SOL    HW2 1158   1.963   1.528   0.771 -1.0422 -0.4482 -2.6476
  387SOL     OW 1159   2.802   2.210   1.344 -0.0159  0.0071 -0.0080
  387SOL    HW1 1160   2.819   2.301   1.392  0.6070  0.8435  2.8234
  387SOL    HW2 1161   2.740   2.151   1.403 -0.8252 -0.1510  0.4276
  388SOL     OW 1162   2.934   0.969   1.565  0.1384  0.0183  0.2423
  388SOL    HW1 1163   3.023   1.000   1.532 -4.3982 -2.6882 -1.4964
  388SOL    HW2 1164   2.938   0.893   1.631 -1.8462  1.7204  1.0126
  389SOL     OW 1165   2.235   0.612   0.055  0.6217 -0.6596 -0.7103
  389SOL    HW1 1166   2.168   0.574   0.125 -1.7384 -1.4178 -0.5002
  389SOL    HW2 1167   2.327   0.621   0.102 -0.7648 -3.4257  1.2884
  390SOL     OW 1168   1.123   1.591   2.796 -0.3841 -0.3146  0.2623
  390SOL    HW1 1169   1.104   1.691   2.812  0.1501  3.6931  1.0323
  390SOL    HW2 1170   1.172   1.571   2.709  0.6228  1.6594 -2.0461
  391SOL     OW 1171   1.282   2.077   2.964 -0.0649  0.1787  0.0396
  391SOL    HW1 1172   1.308   1.984   2.930 -2.7212 -0.1203  0.1919
  391SOL    HW2 1173   1.201   2.071   3.025 -2.9115  0.2548 -0.9538
  392SOL     OW 1174   0.055   2.541   1.832 -0.6429 -0.5426 -0.2425
  392SOL    HW1 1175   0.120   2.600   1.888  1.2965  4.6801  1.9816
  392SOL    HW2 1176   0.027   2.457   1.879  1.6218  1.9686  0.6631
  393SOL     OW 1177   1.145   2.260   0.187  0.3642  0.2273  0.2603
  393SOL    HW1 1178   1.101   2.180   0.147 -2.1823  1.7627 -0.7237
  393SOL    HW2 1179   1.236   2.274   0.142 -0.0255 -1.2229  0.1879
  394SOL     OW 1180   0.442   0.581   2.656 -0.2450  0.3885 -0.6967
  394SOL    HW1 1181   0.535   0.572   2.606  0.2969 -2.6625 -1.0804
  394SOL    HW2 1182   0.438   0.508   2.725 -0.3662 -0.6313 -2.3237
  395SOL     OW 1183   0.425   1.271   1.223  0.1382 -0.1024 -0.2091
  395SOL    HW1 1184   0.502   1.207   1.214  0.8671  1.2556  0.5296
  395SOL    HW2 1185   0.358   1.260   1.145  2.7234  3.5159 -0.3085
  396SOL     OW 1186   1.675   1.023   2.228 -0.1577  0.2182  0.1993
  396SOL    HW1 1187   1.586   1.064   2.220  2.0489 -2.3523  0.3767
  396SOL    HW2 1188   1.723   1.055   2.316  0.6879 -3.1225 -0.6057
  397SOL     OW 1189   0.904   0.446   0.309 -1.0301 -0.2535  0.5403
  397SOL    HW1 1190   0.804   0.452   0.300  2.7464  3.4805 -0.3654
  397SOL    HW2 1191   0.934   0.386   0.389  0.2584 -1.2131 -0.9631
  398SOL     OW 1192   1.078   2.312   2.898 -0.0765 -0.3208  0.1692
  398SOL    HW1 1193   1.095   2.413   2.897 -0.1503 -0.4040  2.1336
  398SOL    HW2 1194   1.133   2.267   2.972  1.1126 -0.9866 -2.3397
  399SOL     OW 1195   1.464   1.919   2.488  0.1584 -0.1355 -0.1484
  399SOL    HW1 1196   1.411   1.831   2.508  1.0312 -2.5653 -1.1029
  399SOL    HW2 1197   1.564   1.905   2.506 -1.6281  1.9667  0.4530
  400SOL     OW 1198   2.146   1.523   1.529 -0.2804  0.5884  0.3026
  400SOL    HW1 1199   2.120   1.563   1.441 -0.9895 -1.0919  0.9254
  400SOL    HW2 1200   2.141   1.416   1.531 -0.3582 -4.7022 -0.4071
  401SOL     OW 1201   1.389   0.966   0.962  0.6692  0.5433  0.3634
  401SOL    HW1 1202   1.430   1.052   0.922  0.9988 -0.4299 -2.7048
  401SOL    HW2 1203   1.285   0.965   0.948 -1.1882  0.6771  1.3149
  402SOL     OW 1204   2.963   2.794   2.055 -0.1838 -0.6487 -0.2334
  402SOL    HW1 1205   2.927   2.830   1.964 -0.3268  4.1721  2.6307
  402SOL    HW2 1206   3.040   2.852   2.099  2.5612  0.2931  1.9814
  403SOL     OW 1207   2.888   1.746   1.662  0.0682  0.2570 -0.3463
  403SOL    HW1 1208   2.914   1.843   1.669 -2.9550  0.8047  0.4501
  403SOL    HW2 1209   2.965   1.676   1.665  2.6031  0.2681  0.4760
  404SOL     OW 1210   2.001   1.869   1.204 -0.4081  0.4683 -0.1596
  404SOL    HW1 1211   1.919   1.913   1.247 -1.3491  0.8726  0.4326
  404SOL    HW2 1212   2.043   1.942   1.143 -1.7667  1.9015 -1.4281
  405SOL     OW 1213   2.659   0.256   2.896  0.0442  0.3251  0.6606
  405SOL    HW1 1214   2.701   0.271   2.988  2.9438 -0.8393  1.3894
  405SOL    HW2 1215   2.678   0.339   2.832  0.0444 -1.1992  1.4475
  406SOL     OW 1216   0.993   1.473   2.510 -0.2013 -0.1218  0.1597
  406SOL    HW1 1217   1.002   1.576   2.506 -1.9222 -2.3245 -0.9014
  406SOL    HW2 1218   0.910   1.445   2.562  0.5966  0.1905 -1.1065
  407SOL     OW 1219   1.731   2.906   0.114 -0.2049 -0.1377  0.1245
  407SOL    HW1 1220   1.704   2.827   0.169 -0.2724  0.5936 -3.2122
  407SOL    HW2 1221   1.650   2.962   0.094  1.9713  1.4315  2.3734
  408SOL     OW 1222   0.328   2.964   0.749  0.6081 -0.3551  0.2613
  408SOL    HW1 1223   0.374   2.985   0.661  0.4849  0.2604 -2.4180
  408SOL    HW2 1224   0.247   2.897   0.729 -0.2175 -0.7698 -3.4667
  409SOL     OW 1225   2.253   2.015   0.878 -0.1451 -0.3792 -0.2865
  409SOL    HW1 1226   2.201   1.998   0.792 -1.3388 -2.8175 -0.3731
  409SOL    HW2 1227   2.350   2.046   0.860  3.6626 -0.2695  2.3829
  410SOL     OW 1228   2.275   2.141   2.845  0.1333  0.2470 -0.2929
  410SOL    HW1 1229   2.344   2.213   2.869  0.3940 -0.6227 -0.4958
  410SOL    HW2 1230   2.315   2.074   2.781  0.9070 -1.4901 -1.6420
  411SOL     OW 1231   0.362   0.369   0.627 -0.0646  0.1437  0.2738
  411SOL    HW1 1232   0.319   0.453   0.667 -0.2717  0.8031  0.1807
  411SOL    HW2 1233   0.392   0.307   0.699  1.5562  2.1772  1.8992
  412SOL     OW 1234   1.663   2.680   0.275  0.0050  0.7262 -0.3198
  412SOL    HW1 1235   1.673   2.602   0.340 -0.5415 -1.1797  1.7258
  412SOL    HW2 1236   1.563   2.696   0.253  0.3570 -2.1486 -1.2844
  413SOL     OW 1237   2.003   0.396   2.139  0.2759 -0.4368 -0.1580
  413SOL    HW1 1238   1.938   0.442   2.075  1.1987  0.4833  1.2129
  413SOL    HW2 1239   2.002   0.294   2.138 -0.6932  1.7243  0.7592
  414SOL     OW 1240   0.110   0.201   0.495 -0.9657  0.1884 -0.2969
  414SOL    HW1 1241   0.085   0.302   0.506 -1.5714  1.7516 -0.7611
  414SOL    HW2 1242   0.119   0.158   0.590  0.1623  1.2091  4.1542
  415SOL     OW 1243   0.775   1.659   1.230 -0.0182  0.1756 -0.0178
  415SOL    HW1 1244   0.793   1.727   1.306  2.7092  2.6700  1.1034
  415SOL    HW2 1245   0.682   1.623   1.249  0.8880  3.2605 -0.4006
  416SOL     OW 1246   0.155   2.864   0.185  0.1963  0.1618 -0.3987
  416SOL    HW1 1247   0.214   2.940   0.148  1.7134  1.0934 -2.2332
  416SOL    HW2 1248   0.186   2.841   0.278  1.5256  2.4212 -1.3815
  417SOL     OW 1249   2.629   2.962   1.039  0.5121 -0.2818  0.2891
  417SOL    HW1 1250   2.531   2.995   1.031 -1.9419  1.6325  0.2833
  417SOL    HW2 1251   2.688   3.036   1.075 -0.8430  3.5764 -1.2899
  418SOL     OW 1252   0.582   0.022   2.731 -0.4735  0.2419 -0.2146
  418SOL    HW1 1253   0.547   3.064   2.809  2.3682  0.2938  0.5837
  418SOL    HW2 1254   0.507   0.077   2.679 -0.9255  2.8206 -1.9680
  419SOL     OW 1255   0.482   1.333   0.587  0.1147 -0.0247  0.6335
  419SOL    HW1 1256   0.423   1.384   0.521  2.0847  1.8623  4.1855
  419SOL    HW2 1257   0.434   1.328   0.677  2.0302 -0.7389  0.7989
  420SOL     OW 1258   1.756   1.936   0.837  0.0794  0.3574 -0.4253
  420SOL    HW1 1259   1.774   1.958   0.739  0.0556 -1.9875  0.2982
  420SOL    HW2 1260   1.831   1.874   0.868  0.5295  2.2807 -4.2943
  421SOL     OW 1261   1.667   2.064   2.240 -0.3833  0.0895 -0.4642
  421SOL    HW1 1262   1.658   1.985   2.176  1.0014  0.3948  0.7766
  421SOL    HW2 1263   1.612   2.053   2.324 -1.0887  1.6159 -2.1582
  422SOL     OW 1264   3.091   0.667   2.946 -0.1213  0.3529 -0.0394
  422SOL    HW1 1265   0.061   0.587   2.926  0.6515 -2.0179 -0.6071
  422SOL    HW2 1266   3.065   0.674   3.043 -0.8651 -0.2999 -0.1854
  423SOL     OW 1267   1.496   2.066   0.741  0.2031 -0.3556 -0.0495
  423SOL    HW1 1268   1.501   2.065   0.639  0.8289  2.7236  1.1076
  423SOL    HW2 1269   1.585   2.035   0.776  0.0041 -1.3447  0.3174
  424SOL     OW 1270   0.609   1.527   1.543  0.0826  0.2324 -0.3787
  424SOL    HW1 1271   0.522   1.481   1.564 -0.2613 -0.0006  0.9555
  424SOL    HW2 1272   0.612   1.603   1.608 -0.9281 -1.3463 -1.2397
  425SOL     OW 1273   2.614   2.506   2.081  0.2568 -0.2651  0.1477
  425SOL    HW1 1274   2.595   2.580   2.154 -1.0711  3.1893  0.6020
  425SOL    HW2 1275   2.710   2.486   2.062 -0.8045 -0.5588  0.5587
  426SOL     OW 1276   1.963   2.883   0.534  0.2209  0.0466  0.3191
  426SOL    HW1 1277   1.955   2.928   0.441 -1.8650  1.7256 -2.9390
  426SOL    HW2 1278   1.998   2.946   0.606 -0.1120 -2.4092 -0.4034
  427SOL     OW 1279   0.648   0.765   3.032  0.5352  0.6213 -0.0728
  427SOL    HW1 1280   0.597   0.785   2.945 -0.9065  0.4930 -0.1762
  427SOL    HW2 1281   0.601   0.814   0.015  0.0058  1.9090  0.5496
  428SOL     OW 1282   2.028   1.237   0.145  0.1522  0.2199 -0.8227
  428SOL    HW1 1283   1.950   1.209   0.208 -0.2705 -1.4558 -0.1775
  428SOL    HW2 1284   2.018   1.321   0.086  2.1061 -0.6068  1.2986
  429SOL     OW 1285   3.015   0.057   0.328 -0.2061 -0.4562  0.0567
  429SOL    HW1 1286   3.079   0.123   0.372  1.4420  0.0445 -0.0029
  429SOL    HW2 1287   3.013   3.060   0.368  1.4953  1.6744  1.3779
  430SOL     OW 1288   0.646   3.036   2.342 -0.3420  0.0372  0.0805
  430SOL    HW1 1289   0.676   0.027   2.393  3.3456  3.0150  0.6868
  430SOL    HW2 1290   0.556   3.058   2.297 -0.6163 -1.7407 -0.4489
  431SOL     OW 1291   2.963   1.365   1.238  0.5057  0.1656  0.4081
  431SOL    HW1 1292   2.886   1.406   1.288  1.9674 -0.4008  0.5615
  431SOL    HW2 1293   2.970   1.264   1.235 -0.0831  1.0724  0.3785
  432SOL     OW 1294   1.911   2.433   1.858  0.5630  0.2928 -0.8734
  432SOL    HW1 1295   1.955   2.425   1.764 -3.1394 -2.3048 -2.4700
  432SOL    HW2 1296   1.942   2.367   1.926  0.6317 -1.5311 -3.5914
  433SOL     OW 1297   1.083   1.779   0.015  0.2942  0.1375 -0.0968
  433SOL    HW1 1298   1.028   1.696   0.044  0.1331 -3.7136 -1.0623
  433SOL    HW2 1299   1.084   1.791   3.009 -0.0690 -0.0293  1.4974
  434SOL     OW 1300   0.141   2.140   2.555  0.1046 -0.2591  0.4652
  434SOL    HW1 1301   0.145   2.204   2.471  1.5496  0.0436  0.3767
  434SOL    HW2 1302   0.151   2.184   2.646 -0.1124  0.1701  1.1491
  435SOL     OW 1303   0.392   0.672   0.630  0.1786 -0.6001  0.5590
  435SOL    HW1 1304   0.455   0.601   0.599 -0.7378  1.5501 -2.0712
  435SOL    HW2 1305   0.439   0.755   0.652  1.1643 -2.7554 -3.3780
  436SOL     OW 1306   0.323   2.773   1.738  0.2411 -0.0917 -0.1782
  436SOL    HW1 1307   0.380   2.692   1.754  1.8056 -0.5392 -1.2592
  436SOL    HW2 1308   0.259   2.757   1.659 -0.6626  0.6799  2.2215
  437SOL     OW 1309   0.916   2.114   1.352 -0.8389 -1.0797  0.3614
  437SOL    HW1 1310   0.938   2.146   1.450  3.2943 -0.7642 -0.3196
  437SOL    HW2 1311   0.962   2.175   1.284  0.5060  2.7011 -1.9973
  438SOL     OW 1312   0.014   2.019   0.872 -0.7646  0.2092  0.0707
  438SOL    HW1 1313   0.084   2.085   0.897 -0.9160 -1.7420  0.9730
  438SOL    HW2 1314   0.020   1.998   0.773  0.7192 -0.3222  0.3098
  439SOL     OW 1315   0.243   0.195   1.212  0.7189 -0.3928  0.2314
  439SOL    HW1 1316   0.234   0.272   1.273  0.0276 -1.1688 -0.3215
  439SOL    HW2 1317   0.342   0.167   1.209  2.4369 -0.5868  0.4409
  440SOL     OW 1318   2.823   2.857   2.292 -0.1813  0.1184 -0.3685
  440SOL    HW1 1319   2.780   2.949   2.285  2.9106 -1.2433 -1.6866
  440SOL    HW2 1320   2.877   2.836   2.211 -2.2528 -2.3682  1.1526
  441SOL     OW 1321   2.952   0.653   1.582 -0.0053 -0.1098 -0.0731
  441SOL    HW1 1322   2.967   0.671   1.682 -0.3574  0.8336 -2.2616
  441SOL    HW2 1323   2.867   0.597   1.572  0.6040 -0.8308 -1.1637
  442SOL     OW 1324   1.844   2.348   2.979 -0.1602  0.2799  0.5076
  442SOL    HW1 1325   1.914   2.272   2.982  2.9034 -0.8613  1.6908
  442SOL    HW2 1326   1.807   2.370   3.072  2.3646  0.0553 -0.3858
  443SOL     OW 1327   0.549   0.887   0.172  0.2931 -0.1430 -0.3456
  443SOL    HW1 1328   0.458   0.857   0.140  0.0465 -0.0766  1.4868
  443SOL    HW2 1329   0.554   0.887   0.268 -0.1133  0.2079 -2.5552
  444SOL     OW 1330   1.365   1.538   2.040 -0.2387  0.1324 -0.3635
  444SOL    HW1 1331   1.401   1.568   1.953 -1.0462 -0.3562  1.2043
  444SOL    HW2 1332   1.284   1.596   2.067  1.0351 -0.5495  0.5537
  445SOL     OW 1333   0.035   2.959   1.191 -0.5298 -0.4193 -0.0160
  445SOL    HW1 1334   0.011   3.052   1.153 -1.5341 -1.4183  0.1264
  445SOL    HW2 1335   3.044   2.903   1.200 -3.7487 -0.7654 -0.4006
  446SOL     OW 1336   2.342   0.711   1.099 -0.6330 -0.7425  0.2219
  446SOL    HW1 1337   2.384   0.803   1.115 -1.9533 -2.4302 -1.8490
  446SOL    HW2 1338   2.297   0.679   1.183  2.5045  2.6470  0.3954
  447SOL     OW 1339   0.303   0.784   0.117  0.2488  0.3857  0.1530
  447SOL    HW1 1340   0.257   0.743   0.196  2.6920  0.8815 -0.2598
  447SOL    HW2 1341   0.332   0.707   0.048 -1.1493 -0.7965  0.5638
  448SOL     OW 1342   1.299   2.211   1.610  0.2078 -0.2200 -0.5607
  448SOL    HW1 1343   1.326   2.172   1.701  1.8248  1.0380 -2.6149
  448SOL    HW2 1344   1.339   2.304   1.600 -1.7627  1.4469 -0.3384
  449SOL     OW 1345   1.254   1.167   0.668  0.2586 -0.3874  0.1841
  449SOL    HW1 1346   1.338   1.169   0.723  0.1840 -0.7148 -0.8833
  449SOL    HW2 1347   1.174   1.127   0.719 -2.6868 -0.6979 -2.2112
  450SOL     OW 1348   2.495   1.724   1.764 -0.0260  0.3570 -0.0658
  450SOL    HW1 1349   2.563   1.753   1.832  1.8725  0.8153  0.0250
  450SOL    HW2 1350   2.424   1.800   1.754 -1.1920  0.7513  0.2448
  451SOL     OW 1351   2.772   1.181   2.783  0.2982  0.0567 -0.0525
  451SOL    HW1 1352   2.691   1.248   2.794  0.1815  1.6738 -0.0894
  451SOL    HW2 1353   2.850   1.210   2.844  0.3430  0.6765 -0.5521
  452SOL     OW 1354   1.632   0.808   1.293  0.2059  0.1553  0.0646
  452SOL    HW1 1355   1.551   0.802   1.234  2.1970 -0.7180 -0.0141
  452SOL    HW2 1356   1.709   0.850   1.239  0.3795  1.0912 -0.0014
  453SOL     OW 1357   2.107   0.912   1.145 -0.0877  0.2405  0.3215
  453SOL    HW1 1358   2.164   0.969   1.206  1.1317 -1.0804 -2.3466
  453SOL    HW2 1359   2.075   0.964   1.065  4.5160 -0.1054 -0.0553
  454SOL     OW 1360   2.804   1.006   0.361 -0.2230 -0.4685 -0.2642
  454SOL    HW1 1361   2.903   1.020   0.339  0.1932 -0.0794  0.2449
  454SOL    HW2 1362   2.755   1.024   0.276  0.3728 -1.1387  3.3320
  455SOL     OW 1363   2.549   1.974   0.938 -0.4772 -0.3318  0.0262
  455SOL    HW1 1364   2.596   1.887   0.912  0.1380  2.8189  0.3627
  455SOL    HW2 1365   2.618   2.039   0.968 -0.3573  1.9223  0.8593
  456SOL     OW 1366   0.863   3.085   1.244 -0.8285 -0.3667  0.1668
  456SOL    HW1 1367   0.778   0.011   1.289  1.1864 -0.3934 -1.6394
  456SOL    HW2 1368   0.940   0.033   1.293  0.4365 -1.7837 -0.8081
  457SOL     OW 1369   1.759   2.944   0.902 -0.0416  0.6679  0.2875
  457SOL    HW1 1370   1.734   2.953   0.804  0.7734  3.2521  0.7941
  457SOL    HW2 1371   1.720   3.018   0.960  0.9023 -1.8147  0.9337
  458SOL     OW 1372   2.722   0.299   0.723  0.6310  0.5742 -0.2826
  458SOL    HW1 1373   2.716   0.341   0.816  1.5597 -2.3843  2.3770
  458SOL    HW2 1374   2.665   0.342   0.648  0.2100  2.4685 -1.7476
  459SOL     OW 1375   2.024   0.819   3.076  0.0075 -0.5087 -1.2822
  459SOL    HW1 1376   1.989   0.916   3.071 -3.8186 -0.0779  1.6768
  459SOL    HW2 1377   2.124   0.804   3.080  2.3872 -2.2928 -2.2158
  460SOL     OW 1378   2.985   2.372   2.895  0.1976 -0.4929 -0.2598
  460SOL    HW1 1379   2.991   2.456   2.956  0.5354  0.9094  0.4322
  460SOL    HW2 1380   3.063   2.313   2.915 -0.8244 -0.6599  0.7220
  461SOL     OW 1381   0.727   1.754   0.151  0.6964  0.0208 -0.3756
  461SOL    HW1 1382   0.739   1.795   0.246 -0.8111  1.7876  0.0895
  461SOL    HW2 1383   0.667   1.820   0.100 -1.0261  5.8048 -1.7655
  462SOL     OW 1384   2.488   2.564   0.825  0.4799 -0.7381  0.2087
  462SOL    HW1 1385   2.566   2.630   0.812  0.2902 -0.5478 -0.3380
  462SOL    HW2 1386   2.413   2.588   0.759  2.4707  1.1366  2.2278
  463SOL     OW 1387   0.005   0.478   0.530  0.5118 -0.1698  0.0820
  463SOL    HW1 1388   0.045   0.490   0.621 -1.0170 -0.9828 -3.6238
  463SOL    HW2 1389   0.032   0.558   0.472  1.8953  1.5850  1.5996
  464SOL     OW 1390   1.072   2.605   0.430 -0.3330  0.1963 -0.1132
  464SOL    HW1 1391   0.973   2.597   0.458  1.7945 -0.9026  0.0656
  464SOL    HW2 1392   1.091   2.705   0.423 -0.5213  0.0463 -1.7364
  465SOL     OW 1393   2.418   0.853   0.681 -0.5638 -0.0811 -0.4521
  465SOL    HW1 1394   2.392   0.891   0.775  2.8619  0.9527 -0.2828
  465SOL    HW2 1395   2.422   0.927   0.613  0.4725  0.7619  0.1150
  466SOL     OW 1396   2.343   2.989   0.027 -0.1391 -0.5589 -0.2480
  466SOL    HW1 1397   2.398   3.049   3.061 -2.2133 -0.7555 -0.1447
  466SOL    HW2 1398   2.348   2.895   3.091  1.6644  1.7753 -0.6546
  467SOL     OW 1399   1.116   0.446   1.752 -0.2425  0.1460  0.0456
  467SOL    HW1 1400   1.046   0.472   1.822  1.5166  1.7793 -0.6165
  467SOL    HW2 1401   1.200   0.496   1.773  1.1972 -0.9593  0.1421
  468SOL     OW 1402   0.048   0.439   2.142 -0.0576 -0.1909 -0.2750
  468SOL    HW1 1403   0.134   0.438   2.198  1.1706 -0.0238 -0.3359
  468SOL    HW2 1404   0.066   0.485   2.051  0.3518 -0.1090 -3.0502
  469SOL     OW 1405   0.872   2.917   2.966 -0.5848  0.3075  0.8392
  469SOL    HW1 1406   0.811   2.848   3.017 -1.1572  0.3877  3.0450
  469SOL    HW2 1407   0.854   2.913   2.864 -0.8615  0.8495 -2.6967
  470SOL     OW 1408   1.707   1.445   2.416  0.6088 -0.4080 -0.2176
  470SOL    HW1 1409   1.611   1.458   2.387  1.0580 -1.4321  0.7418
  470SOL    HW2 1410   1.763   1.521   2.378  0.6361 -0.2365 -1.2516
  471SOL     OW 1411   2.745   0.908   2.804 -0.3898 -0.4962 -0.1590
  471SOL    HW1 1412   2.745   1.008   2.791 -0.2621 -0.1751  0.6601
  471SOL    HW2 1413   2.664   0.886   2.864  1.1152  0.0922  1.5381
  472SOL     OW 1414   0.302   2.593   0.270 -0.0247 -0.3273  0.5376
  472SOL    HW1 1415   0.307   2.656   0.347  1.7294  1.1006  0.8975
  472SOL    HW2 1416   0.204   2.576   0.245 -0.4563  0.3386  1.8867
  473SOL     OW 1417   0.728   0.065   3.025 -0.0452  0.3519 -0.0216
  473SOL    HW1 1418   0.770   3.077   2.978  2.0817  1.6483  0.0861
  473SOL    HW2 1419   0.645   0.047   3.077  0.9883  0.1105 -0.2514
  474SOL     OW 1420   1.712   0.139   2.097 -0.0071 -0.0688 -0.3070
  474SOL    HW1 1421   1.655   0.219   2.069 -1.9971  1.7780 -0.8305
  474SOL    HW2 1422   1.677   0.090   2.184  0.7077  0.5486  0.9043
  475SOL     OW 1423   0.632   2.780   0.238  0.2241 -0.1072 -0.2729
  475SOL    HW1 1424   0.677   2.872   0.231  0.3842  0.5355  1.3687
  475SOL    HW2 1425   0.625   2.748   0.335  0.1504 -0.2096 -2.4562
  476SOL     OW 1426   0.453   0.830   1.005 -0.5479 -0.1059  0.2505
  476SOL    HW1 1427   0.464   0.877   0.913  1.3114  2.5201 -0.6092
  476SOL    HW2 1428   0.501   0.742   1.007 -0.4286  1.1067  0.1672
  477SOL     OW 1429   1.752   2.003   1.244 -0.8241  0.0957  0.0746
  477SOL    HW1 1430   1.717   1.990   1.338  0.1772  0.8910  1.1482
  477SOL    HW2 1431   1.752   2.099   1.213 -2.8399 -2.0439 -0.6472
  478SOL     OW 1432   0.437   1.392   2.090 -0.1769  0.0017  0.3800
  478SOL    HW1 1433   0.438   1.307   2.144 -1.7026  0.9373 -0.5054
  478SOL    HW2 1434   0.346   1.391   2.037 -0.1144 -2.1938  2.0028
  479SOL     OW 1435   0.485   2.957   0.998  0.1348  0.4056  0.4659
  479SOL    HW1 1436   0.414   2.949   0.926  0.6219  1.8565 -1.1015
  479SOL    HW2 1437   0.470   2.908   1.088  0.4111  0.1187 -0.9266
  480SOL     OW 1438   2.277   2.502   3.024 -0.0403  0.2645  0.1732
  480SOL    HW1 1439   2.231   2.444   3.095  3.2639  1.7124  1.8648
  480SOL    HW2 1440   2.295   2.449   2.938 -0.6928  1.3445 -2.1522
  481SOL     OW 1441   2.689   0.389   1.272 -0.0889  0.0802  0.6176
  481SOL    HW1 1442   2.671   0.421   1.180  1.6754 -0.2716  1.7396
  481SOL    HW2 1443   2.789   0.396   1.289 -2.0085 -0.6146  3.8678
  482SOL     OW 1444   1.381   2.594   1.855  0.1627 -0.5601  0.2285
  482SOL    HW1 1445   1.446   2.557   1.790 -3.1084  1.5349  1.0284
  482SOL    HW2 1446   1.436   2.602   1.942  0.8266 -3.9059 -2.1200
  483SOL     OW 1447   0.242   1.313   2.712 -0.0427  0.2134 -0.5733
  483SOL    HW1 1448   0.289   1.345   2.630 -0.2066 -0.5384  1.1451
  483SOL    HW2 1449   0.180   1.236   2.686 -1.5747 -1.6617  0.2346
  484SOL     OW 1450   0.930   1.659   1.987 -0.5103  0.5106 -0.3660
  484SOL    HW1 1451   0.981   1.605   1.915 -2.4988  1.2510 -0.8747
  484SOL    HW2 1452   0.832   1.631   1.975 -0.6675 -1.4080 -2.2859
  485SOL     OW 1453   3.058   0.312   2.874 -0.0045 -0.0842 -0.5716
  485SOL    HW1 1454   0.037   0.369   2.840 -0.6569 -0.7257  2.1985
  485SOL    HW2 1455   3.058   0.234   2.809 -1.0821 -1.1444  3.0268
  486SOL     OW 1456   1.578   0.009   0.486 -0.5108 -1.1109 -0.3116
  486SOL    HW1 1457   1.602   0.093   0.427  1.3585 -0.8751  1.8978
  486SOL    HW2 1458   1.480   3.073   0.475 -2.6619  1.4383  0.1555
  487SOL     OW 1459   1.282   2.621   1.085  0.4747 -0.5330 -0.0719
  487SOL    HW1 1460   1.310   2.704   1.028 -1.8121  0.7013 -0.0526
  487SOL    HW2 1461   1.210   2.651   1.154  0.1462  0.9060 -2.9729
  488SOL     OW 1462   2.207   1.233   0.604  0.1402  0.5534  0.6565
  488SOL    HW1 1463   2.286   1.171   0.582  1.0161 -1.7831  0.5027
  488SOL    HW2 1464   2.215   1.291   0.686  0.5665 -0.1908 -1.2932
  489SOL     OW 1465   1.089   2.695   1.279  0.2535 -0.1351 -0.4379
  489SOL    HW1 1466   1.037   2.614   1.312  1.2843  3.4923  2.1700
  489SOL    HW2 1467   1.140   2.732   1.359 -1.7752 -1.5683  1.3208
  490SOL     OW 1468   0.918   0.998   0.460 -0.3460  0.1708 -0.0706
  490SOL    HW1 1469   0.923   0.905   0.502 -0.3838  0.9417 -1.1115
  490SOL    HW2 1470   0.865   0.995   0.374 -0.8467  0.0802 -0.9556
  491SOL     OW 1471   1.392   2.768   0.210  0.1581 -0.2500  0.1569
  491SOL    HW1 1472   1.389   2.867   0.183  3.4824  2.2318 -0.1948
  491SOL    HW2 1473   1.317   2.711   0.171  1.7270  2.3964  1.4781
  492SOL     OW 1474   1.171   1.073   2.091 -0.3367 -0.4425  0.0247
  492SOL    HW1 1475   1.120   1.160   2.070  0.7324 -1.9164 -1.5283
  492SOL    HW2 1476   1.111   0.995   2.122  0.6833 -0.9810 -1.4236
  493SOL     OW 1477   0.170   1.829   0.244  0.2802  1.1013  0.2706
  493SOL    HW1 1478   0.083   1.788   0.205 -1.2839 -0.7911  2.3163
  493SOL    HW2 1479   0.190   1.776   0.328  0.5400 -0.6336 -0.2983
  494SOL     OW 1480   2.165   1.383   0.325 -0.5463  0.4733 -0.3783
  494SOL    HW1 1481   2.097   1.389   0.401 -1.5279 -2.2160  2.0804
  494SOL    HW2 1482   2.134   1.328   0.243  0.5303 -0.8687  0.0515
  495SOL     OW 1483   0.106   0.876   2.809  0.0494 -0.1103 -0.9529
  495SOL    HW1 1484   0.135   0.829   2.720  0.2118 -0.0455 -0.3705
  495SOL    HW2 1485   0.093   0.811   2.887 -0.7494  1.6179  1.4852
  496SOL     OW 1486   2.725   3.093   2.207  0.0398  0.1532 -0.0691
  496SOL    HW1 1487   2.769   0.018   2.116  0.2339 -1.0417 -1.0909
  496SOL    HW2 1488   2.666   0.074   2.238 -0.4064 -0.5914 -0.1345
  497SOL     OW 1489   2.791   1.031   0.795 -0.6474 -0.0246 -0.0188
  497SOL    HW1 1490   2.840   0.945   0.774 -1.5591 -1.4034 -0.0002
  497SOL    HW2 1491   2.748   1.080   0.716 -1.6562 -0.3353  1.6006
  498SOL     OW 1492   0.279   2.246   0.094 -0.0108 -0.1387 -0.2126
  498SOL    HW1 1493   0.290   2.154   0.134 -0.0708 -1.4487 -1.0115
  498SOL    HW2 1494   0.365   2.290   0.088  0.1375 -1.8599 -0.6576
  499SOL     OW 1495   1.214   2.508   0.856 -0.0905  0.4806  0.1818
  499SOL    HW1 1496   1.255   2.548   0.942 -0.1720 -1.3894 -0.3818
  499SOL    HW2 1497   1.262   2.415   0.842  1.9523 -1.6420  0.1467
  500SOL     OW 1498   0.836   0.371   2.564 -0.0996 -0.0227 -0.0399
  500SOL    HW1 1499   0.789   0.279   2.560  2.1251 -1.3988 -2.2170
  500SOL    HW2 1500   0.890   0.383   2.648 -1.0725 -3.3115 -2.6264
  501SOL     OW 1501   1.063   0.100   1.401  0.3220 -0.1447 -0.3109
  501SOL    HW1 1502   1.152   0.053   1.424  0.8195  1.1842 -1.0128
  501SOL    HW2 1503   0.986   0.069   1.464 -1.1539 -0.3689  0.0836
  502SOL     OW 1504   2.992   0.282   1.982 -0.0304  0.1603 -0.6826
  502SOL    HW1 1505   2.991   0.180   1.997  1.7880  3.5033  1.6163
  502SOL    HW2 1506   3.045   0.320   2.062  0.2823 -1.2643  1.7830
  503SOL     OW 1507   1.847   2.196   2.069 -0.3923  0.0229 -0.3500
  503SOL    HW1 1508   1.822   2.182   1.975 -0.5784  0.3753  0.1479
  503SOL    HW2 1509   1.771   2.168   2.128  1.6695 -0.8140 -0.5460
  504SOL     OW 1510   1.888   0.156   1.751 -0.1699 -0.1596  0.1704
  504SOL    HW1 1511   1.965   0.196   1.807 -1.1013  1.5650  0.8416
  504SOL    HW2 1512   1.920   0.109   1.666 -0.3564  0.7289  2.8295
  505SOL     OW 1513   2.672   1.011   1.679 -0.1909  0.3413 -0.1748
  505SOL    HW1 1514   2.758   0.997   1.631 -0.5269 -3.4310  0.7525
  505SOL    HW2 1515   2.607   1.070   1.626  0.6933 -2.9206 -1.0996
  506SOL     OW 1516   0.329   1.357   2.469 -1.3727 -0.0219  0.0672
  506SOL    HW1 1517   0.261   1.319   2.401 -2.0665  2.9644  0.9478
  506SOL    HW2 1518   0.401   1.423   2.433 -0.3467 -1.1338  0.6088
  507SOL     OW 1519   0.234   3.015   1.909  0.6052  0.2835  0.0736
  507SOL    HW1 1520   0.295   3.089   1.883  0.0035 -1.7110 -1.7720
  507SOL    HW2 1521   0.257   2.928   1.861  2.6655 -1.3388 -1.5262
  508SOL     OW 1522   1.481   0.704   1.559 -0.0440 -0.3086  0.0118
  508SOL    HW1 1523   1.486   0.805   1.542  0.6834 -0.1532  0.9984
  508SOL    HW2 1524   1.566   0.679   1.609 -1.6423  3.2262  0.6083
  509SOL     OW 1525   1.144   1.899   1.105  0.5240 -0.0427 -0.2432
  509SOL    HW1 1526   1.096   1.985   1.080  2.4483  0.8032  0.6175
  509SOL    HW2 1527   1.084   1.823   1.141 -2.2314 -2.7825 -1.6134
  510SOL     OW 1528   2.444   0.895   2.544 -0.0361  0.2440 -0.1904
  510SOL    HW1 1529   2.428   0.841   2.460  0.3432 -2.9846  2.7422
  510SOL    HW2 1530   2.442   0.826   2.622 -2.2487 -2.4435 -1.1507
  511SOL     OW 1531   0.544   1.531   1.274  0.0413  0.3188 -0.7978
  511SOL    HW1 1532   0.560   1.519   1.377 -1.2793  0.3393  0.4662
  511SOL    HW2 1533   0.465   1.476   1.241  1.0277 -0.0881 -0.7498
  512SOL     OW 1534   2.721   2.386   0.698 -0.0823 -0.0057 -0.1622
  512SOL    HW1 1535   2.793   2.349   0.765 -1.5327  1.1468  0.7229
  512SOL    HW2 1536   2.627   2.394   0.738 -0.2318  0.1282  2.2704
  513SOL     OW 1537   0.435   1.400   2.890  0.8356  0.4999 -0.2927
  513SOL    HW1 1538   0.456   1.330   2.958  0.2425  1.9454 -2.4257
  513SOL    HW2 1539   0.359   1.372   2.829  3.2602  0.6237 -0.1468
  514SOL     OW 1540   0.385   2.486   2.960 -0.2605 -0.1829  1.0071
  514SOL    HW1 1541   0.355   2.510   2.867  0.5678  1.4054 -0.4015
  514SOL    HW2 1542   0.306   2.512   3.019  2.6191  1.1071  1.3690
  515SOL     OW 1543   1.420   1.137   2.220  0.3132  0.3589 -0.1100
  515SOL    HW1 1544   1.337   1.114   2.159 -0.9830 -3.2585 -1.6699
  515SOL    HW2 1545   1.401   1.119   2.321  1.2321 -0.9037  1.6980
  516SOL     OW 1546   2.203   2.253   0.675 -0.3437 -0.0105  0.2725
  516SOL    HW1 1547   2.188   2.347   0.699  1.9198 -1.5457  1.1748
  516SOL    HW2 1548   2.303   2.232   0.682 -0.9110  0.6469  0.4973
  517SOL     OW 1549   1.487   1.330   0.468 -0.8826 -0.0291  0.3801
  517SOL    HW1 1550   1.503   1.311   0.566  0.9691 -0.2415 -2.3987
  517SOL    HW2 1551   1.499   1.430   0.442  0.9597  1.0527  0.1610
  518SOL     OW 1552   2.235   2.438   2.263 -0.9281  0.0448 -0.0038
  518SOL    HW1 1553   2.158   2.506   2.270  1.9645  0.4904 -0.7770
  518SOL    HW2 1554   2.265   2.412   2.357 -1.4282  1.4161 -1.7726
  519SOL     OW 1555   1.678   2.270   1.121 -0.0980 -0.1941 -0.0175
  519SOL    HW1 1556   1.710   2.333   1.194  0.4122 -1.2701 -0.9746
  519SOL    HW2 1557   1.640   2.325   1.045 -0.8062 -0.1424  1.1229
  520SOL     OW 1558   2.711   2.232   2.527  0.4812  0.2278 -0.3338
  520SOL    HW1 1559   2.740   2.152   2.476  0.6007  0.6510 -0.8091
  520SOL    HW2 1560   2.638   2.283   2.480  3.7654  0.6554  2.1474
  521SOL     OW 1561   0.188   1.358   1.978 -0.0399 -0.1803 -0.0431
  521SOL    HW1 1562   0.149   1.445   1.947 -1.4142 -2.6231 -0.7190
  521SOL    HW2 1563   0.130   1.312   2.049  1.4530  1.8054  0.3385
  522SOL     OW 1564   0.745   0.444   2.214 -0.2744 -0.5859 -0.1129
  522SOL    HW1 1565   0.750   0.384   2.132 -1.4872 -1.8555 -0.4616
  522SOL    HW2 1566   0.839   0.454   2.255  0.0045  0.3644 -1.6114
  523SOL     OW 1567   0.535   2.244   0.860 -0.3054  0.0694 -0.0061
  523SOL    HW1 1568   0.529   2.148   0.885 -1.6657  0.3297 -0.0277
  523SOL    HW2 1569   0.503   2.250   0.764  3.3627  1.5850  0.9766
  524SOL     OW 1570   1.676   2.875   0.577 -0.1309  0.2870 -0.1969
  524SOL    HW1 1571   1.780   2.875   0.547 -0.3417 -0.2799  0.8347
  524SOL    HW2 1572   1.623   2.956   0.537 -1.4489  1.9726  0.8034
  525SOL     OW 1573   2.320   0.900   1.469 -0.0890 -0.3150 -0.3006
  525SOL    HW1 1574   2.260   0.842   1.409 -1.8506 -2.0502  0.6035
  525SOL    HW2 1575   2.272   0.916   1.557  0.7673 -0.1748 -1.1254
  526SOL     OW 1576   1.019   2.674   0.744 -0.6909 -0.5771 -0.2954
  526SOL    HW1 1577   1.080   2.613   0.795  0.9352  0.7571  2.6468
  526SOL    HW2 1578   0.949   2.627   0.684 -0.4348 -0.7528  0.4851
  527SOL     OW 1579   2.653   2.418   0.404  0.2823  0.2941 -0.5904
  527SOL    HW1 1580   2.664   2.327   0.447 -0.6765 -0.9694 -0.8172
  527SOL    HW2 1581   2.656   2.413   0.303  0.6521  0.0850 -0.8656
  528SOL     OW 1582   2.391   0.302   0.193 -0.2801 -0.5413 -0.2166
  528SOL    HW1 1583   2.359   0.275   0.288 -0.5836 -1.8741  1.5082
  528SOL    HW2 1584   2.479   0.255   0.170  1.5494  0.5695  0.1185
  529SOL     OW 1585   1.437   1.488   2.315 -0.4685 -0.3835  0.1789
  529SOL    HW1 1586   1.363   1.431   2.349 -0.7418 -1.1883 -2.9189
  529SOL    HW2 1587   1.411   1.536   2.227  3.1090 -1.5784  0.8528
  530SOL     OW 1588   2.525   0.601   2.941 -0.3426  0.9861 -0.3154
  530SOL    HW1 1589   2.514   0.570   3.037  0.5895 -0.3405  4.3357
  530SOL    HW2 1590   2.594   0.536   2.896  2.6829 -2.5165 -0.7850
  531SOL     OW 1591   1.416   1.033   0.008 -0.1792 -0.0295 -0.3949
  531SOL    HW1 1592   1.409   1.091   0.093  1.1354  1.3343 -0.7510
  531SOL    HW2 1593   1.510   0.990   0.009 -1.8432 -1.4267 -0.8293
  532SOL     OW 1594   1.794   0.578   0.832 -0.1840 -0.3347  0.0911
  532SOL    HW1 1595   1.753   0.655   0.882 -1.9228  1.4711 -2.2928
  532SOL    HW2 1596   1.720   0.544   0.765 -3.9157 -1.3595 -0.4981
  533SOL     OW 1597   0.951   0.786   1.966  0.0628 -0.1076  0.0982
  533SOL    HW1 1598   0.990   0.826   2.055 -1.1462  2.3484  2.6180
  533SOL    HW2 1599   0.973   0.852   1.890  2.6642 -0.3926  0.4281
  534SOL     OW 1600   1.532   0.392   2.721 -0.1752  0.0880 -0.2596
  534SOL    HW1 1601   1.564   0.363   2.816 -0.3375 -2.4072 -0.8978
  534SOL    HW2 1602   1.610   0.377   2.655  0.3865  3.4676 -0.0105
  535SOL     OW 1603   0.418   0.293   0.366  0.0653  0.1886 -0.3583
  535SOL    HW1 1604   0.387   0.195   0.365  0.9290 -0.0019  1.0268
  535SOL    HW2 1605   0.379   0.343   0.451  1.6723  2.8908  1.3719
  536SOL     OW 1606   0.940   0.316   0.535 -0.3169 -0.4187  0.3507
  536SOL    HW1 1607   0.849   0.271   0.538  0.8171  1.5010  0.6333
  536SOL    HW2 1608   0.981   0.327   0.629 -0.7185 -1.2950 -0.0118
  537SOL     OW 1609   2.071   1.038   0.863  0.5211  0.3013 -0.3990
  537SOL    HW1 1610   2.058   1.048   0.766  0.6300 -0.3470  2.9063
  537SOL    HW2 1611   2.153   1.091   0.894  0.8147 -1.1528  3.1383
  538SOL     OW 1612   2.926   1.935   0.074  0.1321  0.8585 -0.1847
  538SOL    HW1 1613   2.946   1.853   0.133 -2.2309 -1.6739 -0.6415
  538SOL    HW2 1614   3.016   1.972   0.037  0.8514 -1.2089  3.0006
  539SOL     OW 1615   2.135   1.761   0.109 -0.4686 -0.3842  0.2229
  539SOL    HW1 1616   2.199   1.695   0.061 -1.1841 -0.1065 -2.5206
  539SOL    HW2 1617   2.168   1.773   0.204 -0.2154 -1.1461 -0.5206
  540SOL     OW 1618   0.304   2.669   1.306 -0.1646 -0.4795  0.3413
  540SOL    HW1 1619   0.273   2.728   1.227  1.0237  0.7985  0.2775
  540SOL    HW2 1620   0.221   2.644   1.360  0.0644  2.4277  1.5626
  541SOL     OW 1621   1.983   0.113   2.136 -0.9216 -0.1789 -0.1897
  541SOL    HW1 1622   2.027   0.048   2.072 -0.8372  0.2112  0.6540
  541SOL    HW2 1623   1.885   0.094   2.147  1.8943 -0.9096  2.3188
  542SOL     OW 1624   2.714   0.489   2.764 -0.4802  0.1015  0.0894
  542SOL    HW1 1625   2.794   0.553   2.777  0.8261  0.5848  2.7722
  542SOL    HW2 1626   2.675   0.503   2.674  0.2141 -1.7992  0.9574
  543SOL     OW 1627   0.233   1.098   0.736 -0.5678  0.0629  0.5015
  543SOL    HW1 1628   0.221   1.198   0.734 -0.6486 -0.5790 -3.8835
  543SOL    HW2 1629   0.140   1.065   0.715  1.5257  2.9293  0.2877
  544SOL     OW 1630   2.767   0.090   1.116 -0.2525 -0.3451 -0.6710
  544SOL    HW1 1631   2.670   0.126   1.101 -0.6478  2.4166  1.6622
  544SOL    HW2 1632   2.830   0.119   1.044  0.9046 -2.1920 -1.8247
  545SOL     OW 1633   1.531   2.394   0.611  0.1002  0.7551 -0.0836
  545SOL    HW1 1634   1.580   2.479   0.584  0.9477 -0.6057 -1.3329
  545SOL    HW2 1635   1.497   2.347   0.526  1.8537 -0.3714  1.8982
  546SOL     OW 1636   2.053   2.654   1.509  0.1836  0.1740 -0.5890
  546SOL    HW1 1637   2.073   2.553   1.515  0.4584  0.8311  2.4514
  546SOL    HW2 1638   2.134   2.710   1.511 -0.3614  0.5630  3.6892
  547SOL     OW 1639   0.307   0.160   2.247 -0.3795  0.1716  0.4795
  547SOL    HW1 1640   0.343   0.065   2.241  1.5992 -2.3318 -3.5158
  547SOL    HW2 1641   0.276   0.197   2.158  1.6319 -1.2132 -0.6817
  548SOL     OW 1642   1.879   1.548   2.874  0.3648  0.1661  0.2665
  548SOL    HW1 1643   1.793   1.591   2.909 -1.5341  0.7373 -0.2588
  548SOL    HW2 1644   1.861   1.483   2.794  1.8446 -2.8515 -2.6089
  549SOL     OW 1645   0.006   0.909   0.614  0.2975 -0.1901 -0.1107
  549SOL    HW1 1646   3.009   0.873   0.644  1.2571 -1.1672  1.9437
  549SOL    HW2 1647   3.096   0.965   0.530  0.7274  1.2805  0.6953
  550SOL     OW 1648   1.771   2.010   0.569  0.2935  0.2548 -0.3541
  550SOL    HW1 1649   1.713   1.982   0.490  1.3812  1.9627 -2.0741
  550SOL    HW2 1650   1.781   2.109   0.571  2.7163 -1.1369 -0.3664
  551SOL     OW 1651   1.480   0.509   0.967 -0.5666  0.0027  0.2515
  551SOL    HW1 1652   1.416   0.534   0.892  0.3010  1.6377 -1.3740
  551SOL    HW2 1653   1.557   0.452   0.933 -0.4961 -0.8724  0.2737
  552SOL     OW 1654   2.628   2.675   2.306 -0.0017 -0.0499 -0.0398
  552SOL    HW1 1655   2.709   2.734   2.294  2.5858  1.6937 -1.3866
  552SOL    HW2 1656   2.544   2.732   2.305  1.3049  0.7079  0.8249
  553SOL     OW 1657   3.083   0.145   2.673 -0.0197  0.1868 -0.1946
  553SOL    HW1 1658   0.017   0.163   2.577 -0.8189 -2.7662 -0.7371
  553SOL    HW2 1659   3.040   0.052   2.674 -1.2632  0.5668 -0.4982
  554SOL     OW 1660   1.004   2.895   1.114 -0.3218 -0.1731  0.5805
  554SOL    HW1 1661   0.945   2.959   1.171  0.9454  3.9540 -0.0698
  554SOL    HW2 1662   1.038   2.821   1.177  1.1902  2.8941 -2.3814
  555SOL     OW 1663   2.357   2.402   2.018 -0.4033 -0.3486  0.7476
  555SOL    HW1 1664   2.452   2.447   2.018  0.6602 -1.0438 -0.9160
  555SOL    HW2 1665   2.318   2.414   2.110  1.8517  0.3216  2.5675
  556SOL     OW 1666   0.999   0.286   2.807 -0.2699  0.1362 -0.1602
  556SOL    HW1 1667   1.081   0.347   2.823 -1.5328  0.9143  1.1154
  556SOL    HW2 1668   1.032   0.186   2.801 -0.5562 -0.7697  1.5905
  557SOL     OW 1669   0.053   1.756   2.359  0.0190 -0.3359  0.1052
  557SOL    HW1 1670   0.034   1.852   2.383  2.4103 -0.7980 -0.9118
  557SOL    HW2 1671   0.089   1.708   2.439 -0.7892  0.4834 -1.0147
  558SOL     OW 1672   2.167   0.994   2.461 -0.0259  0.2612  0.1380
  558SOL    HW1 1673   2.243   0.925   2.442  1.0638 -3.0843  1.8545
  558SOL    HW2 1674   2.166   1.055   2.379 -3.2018  1.3289  0.5275
  559SOL     OW 1675   2.528   2.226   2.180  0.5442 -0.1371  0.3136
  559SOL    HW1 1676   2.513   2.305   2.241 -0.6431 -4.1103 -0.4108
  559SOL    HW2 1677   2.519   2.260   2.085  2.1800 -2.3708  0.6308
  560SOL     OW 1678   2.566   0.991   2.174  0.1467  0.2443 -0.1956
  560SOL    HW1 1679   2.573   0.891   2.161  0.9482  0.0895 -1.2086
  560SOL    HW2 1680   2.468   1.023   2.171 -2.4638  2.4362 -1.6293
  561SOL     OW 1681   0.634   0.601   0.498  0.0723  0.3997 -0.0123
  561SOL    HW1 1682   0.643   0.530   0.568  0.4227 -1.0330 -0.4675
  561SOL    HW2 1683   0.637   0.566   0.402  1.1954 -1.9082  0.4127
  562SOL     OW 1684   1.141   1.124   1.505 -0.1950  0.6482  0.1561
  562SOL    HW1 1685   1.073   1.112   1.579 -2.3866 -0.3093 -1.6476
  562SOL    HW2 1686   1.180   1.035   1.471  1.2844 -2.4464  1.8603
  563SOL     OW 1687   1.730   2.943   2.668  0.2050  0.0940 -0.5380
  563SOL    HW1 1688   1.724   2.921   2.569  0.8511  1.8616  0.2455
  563SOL    HW2 1689   1.806   2.890   2.712 -1.2911  3.9368  0.6318
  564SOL     OW 1690   0.223   2.198   0.946  0.2509  0.1830  0.2992
  564SOL    HW1 1691   0.267   2.285   0.969  0.8653 -1.8143 -1.1706
  564SOL    HW2 1692   0.285   2.125   0.980  0.2899  1.1030 -0.5615
  565SOL     OW 1693   0.693   2.280   2.313  0.0463  0.0210 -0.0688
  565SOL    HW1 1694   0.677   2.294   2.210 -0.4315 -2.3388 -3.4108
  565SOL    HW2 1695   0.623   2.331   2.367  1.2522  0.7544 -0.9922
  566SOL     OW 1696   1.203   2.620   2.384  0.2436  0.7704 -0.0164
  566SOL    HW1 1697   1.215   2.559   2.464 -3.8206 -1.0715 -1.1751
  566SOL    HW2 1698   1.105   2.621   2.355 -1.4374  1.5528  0.1333
  567SOL     OW 1699   2.165   2.466   0.936 -0.7045 -0.6523  0.5092
  567SOL    HW1 1700   2.097   2.444   0.868 -0.9597  3.6030  2.0073
  567SOL    HW2 1701   2.145   2.422   1.024 -0.4966 -2.5131  0.3296
  568SOL     OW 1702   1.952   0.757   0.424 -0.0275 -0.1170 -0.0189
  568SOL    HW1 1703   2.012   0.825   0.462 -4.5678  1.2536  0.2704
  568SOL    HW2 1704   1.947   0.677   0.490 -2.1754 -0.0579 -1.5537
  569SOL     OW 1705   2.914   1.567   2.780  0.5205  0.7161  0.4195
  569SOL    HW1 1706   2.869   1.506   2.706 -1.2058 -2.3062 -0.6546
  569SOL    HW2 1707   3.007   1.526   2.805  0.5151 -2.3605  0.0659
  570SOL     OW 1708   0.000   0.102   1.127  0.2049 -0.0073  0.2566
  570SOL    HW1 1709   0.090   0.140   1.161  0.5526 -0.0053 -1.0957
  570SOL    HW2 1710   3.057   0.163   1.056  1.4087 -2.5773 -1.4449
  571SOL     OW 1711   2.721   0.458   1.647 -0.2826  0.2790 -0.5651
  571SOL    HW1 1712   2.709   0.522   1.728  2.2514  4.6818  0.7616
  571SOL    HW2 1713   2.634   0.420   1.607 -1.1890  1.0380  1.1795
  572SOL     OW 1714   2.921   2.324   0.857 -0.6459 -0.6811 -0.0864
  572SOL    HW1 1715   2.905   2.296   0.955 -1.8080  0.4394  0.2350
  572SOL    HW2 1716   3.017   2.323   0.820 -0.9001  1.0595 -1.2432
  573SOL     OW 1717   0.922   0.800   0.084 -0.7454  0.3776 -0.0609
  573SOL    HW1 1718   0.848   0.780   0.016 -0.8350 -1.6343 -2.5449
  573SOL    HW2 1719   0.891   0.865   0.155  1.5757  0.3235 -0.1097
  574SOL     OW 1720   2.977   2.619   3.046  0.2049 -0.2044  0.0524
  574SOL    HW1 1721   2.895   2.622   2.987  2.5165 -1.8163 -0.8031
  574SOL    HW2 1722   2.961   2.665   0.039 -0.9212  0.0778 -3.7392
  575SOL     OW 1723   1.125   2.251   1.164  0.3307 -0.1366  0.3865
  575SOL    HW1 1724   1.103   2.301   1.077  2.5280 -0.6845 -0.7696
  575SOL    HW2 1725   1.210   2.200   1.153 -2.4862  0.4659  0.9468
  576SOL     OW 1726   0.621   2.682   1.074 -0.3351 -0.4314  0.1145
  576SOL    HW1 1727   0.611   2.723   1.163 -1.0829  1.5035 -0.5075
  576SOL    HW2 1728   0.695   2.727   1.021  2.3821  1.3496 -0.6238
  577SOL     OW 1729   2.101   1.651   1.290 -0.5105  0.0171  0.5822
  577SOL    HW1 1730   2.065   1.738   1.250 -1.1890 -1.1432  2.0934
  577SOL    HW2 1731   2.148   1.596   1.218  1.2465 -0.3993 -1.0636
  578SOL     OW 1732   1.662   0.444   0.427  0.4667 -0.3153  0.3840
  578SOL    HW1 1733   1.649   0.532   0.372  0.8404 -2.5033  0.0503
  578SOL    HW2 1734   1.660   0.463   0.528 -0.0147 -1.2120 -0.5785
  579SOL     OW 1735   2.552   1.326   2.783  0.0978  0.5287 -0.3007
  579SOL    HW1 1736   2.537   1.426   2.772  0.2080  1.3746 -0.8800
  579SOL    HW2 1737   2.498   1.272   2.719  1.3612  1.2809  1.0598
  580SOL     OW 1738   1.695   0.657   1.710  0.0336 -0.3670  0.2896
  580SOL    HW1 1739   1.661   0.719   1.782  0.4640  1.1597 -0.0758
  580SOL    HW2 1740   1.694   0.562   1.747  1.7700 -0.5245  1.3111
  581SOL     OW 1741   1.025   1.015   1.272 -0.2508 -0.5746 -0.4772
  581SOL    HW1 1742   0.944   1.008   1.331  3.1971  1.5954 -0.6752
  581SOL    HW2 1743   1.081   0.929   1.282 -0.1834 -4.1840  0.4562
  582SOL     OW 1744   2.629   0.242   2.254 -0.5401  0.0174 -0.6246
  582SOL    HW1 1745   2.532   0.217   2.240 -0.3067  1.1529  2.6259
  582SOL    HW2 1746   2.668   0.263   2.165 -0.5936 -0.6017  2.4721
  583SOL     OW 1747   2.609   0.727   2.149 -0.3791  0.0352  0.7410
  583SOL    HW1 1748   2.546   0.649   2.178 -1.9355 -1.6044  3.8609
  583SOL    HW2 1749   2.682   0.741   2.220 -0.4484 -0.3168  0.3796
  584SOL     OW 1750   1.346   1.865   2.791 -0.2428  0.4303 -0.1044
  584SOL    HW1 1751   1.435   1.888   2.838  0.1709  1.1679  0.4830
  584SOL    HW2 1752   1.361   1.811   2.703  1.2095 -2.5995 -1.2577
  585SOL     OW 1753   0.298   0.062   0.347  0.4156 -0.2228 -0.6850
  585SOL    HW1 1754   0.278   0.054   0.246  1.1984  1.0627 -1.0081
  585SOL    HW2 1755   0.218   0.105   0.392  0.7919  3.7373 -0.5173
  586SOL     OW 1756   1.784   2.190   2.613  0.5531 -0.6570 -0.0253
  586SOL    HW1 1757   1.749   2.281   2.647 -1.0699  0.7303 -2.4848
  586SOL    HW2 1758   1.746   2.109   2.651  2.6594  1.3471  0.0689
  587SOL     OW 1759   2.377   2.485   0.406 -0.2229  0.0275  0.1636
  587SOL    HW1 1760   2.346   2.541   0.485  0.5524  0.5530 -1.6828
  587SOL    HW2 1761   2.477   2.464   0.414 -0.3909  1.2489 -0.4677
  588SOL     OW 1762   2.537   0.207   1.033 -0.0554  0.2071  0.4404
  588SOL    HW1 1763   2.482   0.157   0.963 -0.9322 -0.9409  2.8885
  588SOL    HW2 1764   2.497   0.299   1.049  2.4679  2.2838  1.3534
  589SOL     OW 1765   0.615   0.586   0.994 -0.4270 -0.2623  0.1398
  589SOL    HW1 1766   0.703   0.612   0.946 -0.7854  1.4353  1.6923
  589SOL    HW2 1767   0.571   0.509   0.946  1.0513 -0.5761 -0.2800
  590SOL     OW 1768   2.096   1.928   0.686 -0.0991 -0.3258  0.6968
  590SOL    HW1 1769   2.171   1.907   0.619  0.3612 -2.8024 -0.6541
  590SOL    HW2 1770   2.007   1.928   0.636  2.9201  2.2971 -0.0631
  591SOL     OW 1771   0.659   2.383   1.087  0.2234  0.1412 -0.2092
  591SOL    HW1 1772   0.635   2.337   0.996 -2.2736  0.2240 -0.6904
  591SOL    HW2 1773   0.646   2.485   1.082 -0.7856  2.9690  2.1496
  592SOL     OW 1774   1.168   0.572   1.150  0.3506  0.2067  0.0147
  592SOL    HW1 1775   1.235   0.612   1.211 -1.7177 -0.4798 -1.0894
  592SOL    HW2 1776   1.091   0.534   1.207 -1.5697 -0.6199  0.6747
  593SOL     OW 1777   1.129   1.176   1.053  0.5438  0.5947 -0.3569
  593SOL    HW1 1778   1.094   1.269   1.041 -1.1858 -0.3311  1.5221
  593SOL    HW2 1779   1.107   1.145   1.149 -1.7283 -0.0162 -3.2110
  594SOL     OW 1780   0.991   2.037   0.389 -0.1647  0.1322 -0.1420
  594SOL    HW1 1781   1.027   2.077   0.302 -1.5959  1.2313  1.0394
  594SOL    HW2 1782   1.049   1.957   0.423 -2.6741 -2.0974  1.8334
  595SOL     OW 1783   1.573   0.233   1.097 -0.0383  0.0959 -0.8034
  595SOL    HW1 1784   1.643   0.296   1.061 -1.0457  0.6683  0.3279
  595SOL    HW2 1785   1.543   0.273   1.184  1.4012  0.6293 -0.6205
  596SOL     OW 1786   0.164   1.787   0.937  0.2885  0.4123  0.2205
  596SOL    HW1 1787   0.176   1.781   1.037 -3.0151  0.3341  0.5593
  596SOL    HW2 1788   0.129   1.878   0.918  0.7128 -0.7745  0.7562
  597SOL     OW 1789   0.150   2.524   2.507 -0.4071 -0.3796  0.3465
  597SOL    HW1 1790   0.163   2.458   2.431 -0.6857  2.0757 -0.0534
  597SOL    HW2 1791   0.216   2.505   2.586  1.5232 -0.6975  2.3656
  598SOL     OW 1792   2.806   2.410   1.801 -0.1898 -0.4411 -0.0544
  598SOL    HW1 1793   2.876   2.338   1.819  0.2360  0.2883  2.3204
  598SOL    HW2 1794   2.720   2.375   1.839  2.1277  0.2350  0.2229
  599SOL     OW 1795   1.000   0.356   0.085  0.4169  0.6566  0.2401
  599SOL    HW1 1796   0.961   0.388   0.175  1.3737 -1.4462 -0.5752
  599SOL    HW2 1797   0.924   0.339   0.021  0.0220 -1.7014 -0.9520
  600SOL     OW 1798   0.489   2.435   0.124 -0.2993 -0.4946 -0.4611
  600SOL    HW1 1799   0.437   2.505   0.174 -0.2356  0.6220 -3.1793
  600SOL    HW2 1800   0.486   2.449   0.024 -3.2867 -0.6360  0.5324
  601SOL     OW 1801   0.521   0.762   1.456  0.4890 -0.0462 -0.1624
  601SOL    HW1 1802   0.609   0.779   1.406 -0.6440  1.7512 -1.6901
  601SOL    HW2 1803   0.483   0.670   1.424  0.9736 -1.7629  0.2763
  602SOL     OW 1804   0.816   2.769   0.918 -1.0176 -0.5300  0.0714
  602SOL    HW1 1805   0.890   2.736   0.861  1.4394 -1.8468  0.7620
  602SOL    HW2 1806   0.862   2.832   0.989  1.6073 -1.9596  1.0826
  603SOL     OW 1807   0.471   0.405   2.255 -0.8789  0.2962 -0.1297
  603SOL    HW1 1808   0.570   0.400   2.248 -1.9767  0.6692 -2.0057
  603SOL    HW2 1809   0.422   0.317   2.254  0.2131  0.3799 -0.0719
  604SOL     OW 1810   0.751   2.722   1.571 -0.0069  0.2360  0.2452
  604SOL    HW1 1811   0.746   2.819   1.542 -0.7951 -0.7742  1.6051
  604SOL    HW2 1812   0.669   2.679   1.531 -0.6442  1.0450 -0.2671
  605SOL     OW 1813   1.624   0.839   1.913 -0.5460 -0.4047  0.0203
  605SOL    HW1 1814   1.595   0.927   1.874  1.3049  1.4307  3.7244
  605SOL    HW2 1815   1.594   0.837   2.011  1.3863  0.4105 -1.8033
  606SOL     OW 1816   2.572   2.694   0.045 -0.7064 -0.3559  0.1741
  606SOL    HW1 1817   2.475   2.713   0.015 -3.1636 -0.5652 -0.2802
  606SOL    HW2 1818   2.639   2.758   0.005  1.7248 -2.1894 -1.5518
  607SOL     OW 1819   0.918   0.509   1.275 -0.1960 -0.1769 -0.2184
  607SOL    HW1 1820   0.847   0.581   1.264 -0.7461  0.9820 -0.9445
  607SOL    HW2 1821   0.938   0.512   1.375 -0.1059 -4.6580 -1.4856
  608SOL     OW 1822   0.315   1.904   2.525 -0.2905 -0.4973 -0.3729
  608SOL    HW1 1823   0.252   1.981   2.538  2.2648 -3.3948  3.0328
  608SOL    HW2 1824   0.280   1.830   2.585 -0.6920  0.0895 -0.0241
  609SOL     OW 1825   1.172   1.051   0.439 -0.6221  0.6176 -0.2195
  609SOL    HW1 1826   1.221   1.088   0.519  1.8055 -0.3490  1.7724
  609SOL    HW2 1827   1.073   1.047   0.463  0.6917  0.1597 -0.8622
  610SOL     OW 1828   0.652   0.307   1.269  0.0785  0.2599  0.1000
  610SOL    HW1 1829   0.598   0.215   1.268 -1.9345 -1.1776  1.7363
  610SOL    HW2 1830   0.713   0.322   1.185 -2.3744 -1.2769 -0.7396
  611SOL     OW 1831   1.831   0.899   0.931  0.4816  0.4619 -0.3416
  611SOL    HW1 1832   1.764   0.878   0.857  2.9793  0.3080 -2.0839
  611SOL    HW2 1833   1.916   0.927   0.883 -1.7153 -1.4588  0.9129
  612SOL     OW 1834   1.817   1.161   0.313  0.3215 -0.3307 -0.1729
  612SOL    HW1 1835   1.799   1.083   0.375  1.6129 -1.0190 -2.2265
  612SOL    HW2 1836   1.736   1.219   0.315  2.1957  1.9545 -1.0455
  613SOL     OW 1837   2.110   0.497   0.277  0.1928  0.3128  0.0196
  613SOL    HW1 1838   2.039   0.421   0.273  1.3385 -0.5912  1.5539
  613SOL    HW2 1839   2.074   0.576   0.325  2.7017 -1.6082 -0.3421
  614SOL     OW 1840   2.711   0.132   2.499 -0.0305 -0.2812 -0.1922
  614SOL    HW1 1841   2.694   0.182   2.410 -2.8630 -0.0632 -2.6850
  614SOL    HW2 1842   2.770   0.184   2.566  1.7601  0.1633 -1.2296
  615SOL     OW 1843   0.944   1.831   0.831  0.3156 -0.1300 -0.1277
  615SOL    HW1 1844   0.999   1.750   0.843  2.3208  1.4834 -1.0959
  615SOL    HW2 1845   0.894   1.853   0.919  1.0493 -1.6355 -1.0881
  616SOL     OW 1846   1.391   1.289   2.693 -0.1596  0.3342 -0.1568
  616SOL    HW1 1847   1.327   1.339   2.633  1.5684 -0.4785  0.3328
  616SOL    HW2 1848   1.350   1.238   2.774 -1.7929 -1.6621  0.7286
  617SOL     OW 1849   1.604   0.452   2.992  0.0561  0.2820 -0.6654
  617SOL    HW1 1850   1.593   0.553   2.994 -0.3803  0.7312 -2.6831
  617SOL    HW2 1851   1.696   0.419   3.022  1.4105 -0.8955  0.5502
  618SOL     OW 1852   1.385   2.183   2.551  0.1868  0.0298  0.1603
  618SOL    HW1 1853   1.421   2.086   2.534  2.3549 -3.1057  0.3768
  618SOL    HW2 1854   1.394   2.204   2.647 -0.9995 -0.2976 -3.5535
  619SOL     OW 1855   2.491   1.671   0.718 -0.0963  0.2557  0.0320
  619SOL    HW1 1856   2.526   1.703   0.809  2.5583  0.5221 -4.6909
  619SOL    HW2 1857   2.484   1.568   0.709 -2.2248 -0.3726  0.1969
  620SOL     OW 1858   2.202   2.815   2.286 -0.0466 -0.2857 -0.2372
  620SOL    HW1 1859   2.183   2.894   2.353  2.8185  1.8683  2.0038
  620SOL    HW2 1860   2.137   2.742   2.285 -0.0716  2.0125 -0.7296
  621SOL     OW 1861   3.041   1.447   0.694  0.1560 -0.4411 -0.3708
  621SOL    HW1 1862   3.031   1.350   0.727 -1.0987 -0.4569  0.7297
  621SOL    HW2 1863   3.028   1.516   0.766  3.1604 -1.0988 -0.9797
  622SOL     OW 1864   1.340   1.681   2.562 -0.1661 -0.5824  0.2400
  622SOL    HW1 1865   1.253   1.663   2.508 -0.2065 -0.9013 -0.2060
  622SOL    HW2 1866   1.408   1.606   2.538  1.9029 -1.4455 -0.6638
  623SOL     OW 1867   0.116   2.731   2.323 -0.1459  0.5840  0.1561
  623SOL    HW1 1868   0.133   2.649   2.387 -1.2319 -1.4889 -0.9208
  623SOL    HW2 1869   0.040   2.782   2.358  3.0111 -0.6991  0.7198
  624SOL     OW 1870   0.712   2.731   3.074  0.2158 -0.2136  0.7485
  624SOL    HW1 1871   0.719   2.635   3.037 -0.7477 -1.4218 -0.5176
  624SOL    HW2 1872   0.715   2.728   0.080  0.5272 -0.7508 -1.3225
  625SOL     OW 1873   0.237   2.334   2.087 -0.0687 -0.3085 -0.1891
  625SOL    HW1 1874   0.292   2.402   2.025 -3.1937  0.2758  1.0920
  625SOL    HW2 1875   0.140   2.337   2.065  0.8500 -2.9509 -1.9825
  626SOL     OW 1876   0.224   0.016   0.084 -0.0302  0.1808  0.3449
  626SOL    HW1 1877   0.150   0.082   0.069  1.9890 -0.9131 -0.2310
  626SOL    HW2 1878   0.260   3.076   3.087  1.4742 -3.5527 -2.4267
  627SOL     OW 1879   1.936   1.489   0.052 -0.1051  0.1351 -0.3197
  627SOL    HW1 1880   1.959   1.578   0.096 -0.9579 -0.3810  0.3953
  627SOL    HW2 1881   1.909   1.503   3.052  0.4910 -0.5640  1.4521
  628SOL     OW 1882   1.348   1.823   0.094 -0.3914 -0.2007  0.4412
  628SOL    HW1 1883   1.362   1.718   0.088 -2.5635 -2.8168  0.1740
  628SOL    HW2 1884   1.249   1.832   0.086  0.1462 -1.0460 -0.8711
  629SOL     OW 1885   2.982   0.327   1.553  0.2891  0.4964  0.9916
  629SOL    HW1 1886   3.051   0.336   1.627 -1.0203  0.5706  3.7512
  629SOL    HW2 1887   2.900   0.386   1.571  0.1652  0.3131 -0.5955
  630SOL     OW 1888   1.862   0.906   1.862  0.5895 -0.0476  0.2807
  630SOL    HW1 1889   1.771   0.865   1.893 -2.7432  1.2529 -0.7952
  630SOL    HW2 1890   1.930   0.840   1.830 -2.8430 -0.5883 -0.5443
  631SOL     OW 1891   1.858   0.128   0.764  0.0639  0.0959 -0.6650
  631SOL    HW1 1892   1.762   0.096   0.757  1.3009  0.7527 -0.3017
  631SOL    HW2 1893   1.864   0.197   0.839  2.4181  0.5686 -1.4586
  632SOL     OW 1894   2.767   0.951   1.949 -0.4471  0.3450 -0.0916
  632SOL    HW1 1895   2.732   1.008   1.872  0.7220  0.1413  0.0959
  632SOL    HW2 1896   2.689   0.916   1.998  1.4230  0.2116  1.0870
  633SOL     OW 1897   0.699   0.600   2.582  0.1469 -0.6310 -0.2692
  633SOL    HW1 1898   0.753   0.653   2.651 -0.9772 -1.6637  0.6868
  633SOL    HW2 1899   0.738   0.508   2.562 -0.1273 -4.3626 -0.1282
  634SOL     OW 1900   0.542   2.868   2.891  0.2916 -0.0596 -0.0232
  634SOL    HW1 1901   0.593   2.806   2.964 -0.9849 -3.4092  1.8171
  634SOL    HW2 1902   0.456   2.892   2.931  2.1865 -0.0861 -1.6181
  635SOL     OW 1903   0.125   1.469   1.187 -0.2490  0.6075 -0.0727
  635SOL    HW1 1904   0.136   1.571   1.192 -0.4796 -0.5724  2.6638
  635SOL    HW2 1905   0.025   1.441   1.194 -1.7907  0.4046 -1.5781
  636SOL     OW 1906   0.161   1.634   3.072 -0.0315 -0.5605 -0.9776
  636SOL    HW1 1907   0.102   1.577   0.037  2.4530 -0.2002  1.7983
  636SOL    HW2 1908   0.249   1.660   0.023  0.9673 -1.6469  1.6760
  637SOL     OW 1909   0.088   2.368   0.231 -0.1095  0.3921 -0.0281
  637SOL    HW1 1910   0.154   2.319   0.169  2.9467 -0.7631  1.1588
  637SOL    HW2 1911   0.001   2.316   0.228 -3.7001  0.4678  1.4638
  638SOL     OW 1912   2.895   2.586   0.614 -0.4827  0.4645  0.3816
  638SOL    HW1 1913   2.954   2.574   0.533 -1.4629  0.5956  1.7767
  638SOL    HW2 1914   2.839   2.503   0.636 -1.0649 -0.5487 -0.6439
  639SOL     OW 1915   1.394   0.749   0.172 -0.1526  0.4165 -0.0569
  639SOL    HW1 1916   1.329   0.757   0.094  0.7447  0.5858  2.0680
  639SOL    HW2 1917   1.355   0.783   0.257  1.5785  0.9713 -0.8588
  640SOL     OW 1918   1.977   2.114   1.766  0.4969 -0.5314  0.3907
  640SOL    HW1 1919   1.993   2.042   1.697  0.4483  1.9395  2.2285
  640SOL    HW2 1920   1.909   2.182   1.729  1.1018 -0.9036  1.7561
  641SOL     OW 1921   3.010   2.977   0.744  0.1168  0.0627 -0.3131
  641SOL    HW1 1922   2.943   2.931   0.807  0.2430 -1.0597 -0.7177
  641SOL    HW2 1923   2.970   3.070   0.725 -0.7848 -0.3836 -0.2691
  642SOL     OW 1924   1.230   0.884   1.682 -0.3790  0.8261 -0.1256
  642SOL    HW1 1925   1.249   0.970   1.730  2.3048 -1.6290 -1.8225
  642SOL    HW2 1926   1.252   0.876   1.584 -2.3042 -4.5983 -0.0583
  643SOL     OW 1927   0.786   1.758   2.633  0.1665  0.1689 -0.2659
  643SOL    HW1 1928   0.762   1.695   2.713 -1.1629 -1.1880  0.7482
  643SOL    HW2 1929   0.719   1.836   2.622 -0.2866  0.5198 -0.5161
  644SOL     OW 1930   1.198   2.463   2.627  0.4267  0.1819  0.0878
  644SOL    HW1 1931   1.295   2.445   2.635 -0.0016  0.8653 -0.0841
  644SOL    HW2 1932   1.167   2.517   2.707  0.9472 -1.1390  0.4607
  645SOL     OW 1933   1.590   1.095   1.843  0.0100 -0.3019 -0.1283
  645SOL    HW1 1934   1.586   1.180   1.902  0.1843  0.6723  1.7955
  645SOL    HW2 1935   1.622   1.105   1.748 -1.7153  2.1497  1.2972
  646SOL     OW 1936   1.105   2.609   2.834 -0.1960  0.7299 -0.1395
  646SOL    HW1 1937   1.004   2.614   2.818  1.1863 -0.1665 -1.2952
  646SOL    HW2 1938   1.144   2.688   2.884 -0.8483  1.7593  0.6092
  647SOL     OW 1939   1.010   0.029   0.525  0.1440 -0.3802  0.2224
  647SOL    HW1 1940   1.035   3.063   0.607 -0.0223 -2.4531 -1.2301
  647SOL    HW2 1941   1.093   0.077   0.491  3.3745  1.4831 -1.6497
  648SOL     OW 1942   2.675   2.757   1.452 -0.0391  0.9321  0.0527
  648SOL    HW1 1943   2.616   2.731   1.373  0.1185  4.9752 -0.9683
  648SOL    HW2 1944   2.634   2.724   1.538  1.5515 -1.6604  0.3221
  649SOL     OW 1945   0.668   2.476   2.950 -0.0450 -0.4542 -0.7455
  649SOL    HW1 1946   0.706   2.387   2.918  1.3126  0.4941  0.3116
  649SOL    HW2 1947   0.567   2.481   2.940 -3.2942  0.0664 -0.2509
  650SOL     OW 1948   2.626   1.788   1.987  0.7695  0.6419 -0.2877
  650SOL    HW1 1949   2.639   1.715   2.053  0.4129  0.1129 -2.1781
  650SOL    HW2 1950   2.633   1.881   2.022  0.0406 -2.2944 -1.8905
  651SOL     OW 1951   2.903   2.517   2.107  0.0103  0.7597  0.3604
  651SOL    HW1 1952   2.920   2.612   2.078  0.5514 -1.0517 -1.1299
  651SOL    HW2 1953   2.878   2.504   2.206 -2.5039 -0.7556  1.0920
  652SOL     OW 1954   2.579   2.109   0.359  0.3437  0.1475 -0.3296
  652SOL    HW1 1955   2.573   2.084   0.458  0.6819  0.3431  4.4115
  652SOL    HW2 1956   2.491   2.132   0.319  2.9649  1.3654 -0.2047
  653SOL     OW 1957   2.726   1.003   1.080  0.1778 -0.1855 -0.2745
  653SOL    HW1 1958   2.708   0.984   0.983  2.1787 -2.1903  0.7163
  653SOL    HW2 1959   2.775   0.928   1.136  1.5452 -0.6994  2.0649
  654SOL     OW 1960   0.799   0.326   2.977  0.5588  0.0820  0.0494
  654SOL    HW1 1961   0.873   0.332   2.907  0.6353 -1.7943 -0.8985
  654SOL    HW2 1962   0.771   0.229   2.997 -0.5476  1.6946 -0.8495
  655SOL     OW 1963   1.185   0.212   1.192 -0.2353  0.1722 -0.0181
  655SOL    HW1 1964   1.116   0.177   1.259 -0.6485 -0.1122 -1.3126
  655SOL    HW2 1965   1.279   0.222   1.236  1.8563  0.4428 -0.6898
  656SOL     OW 1966   0.380   2.523   1.944 -0.0341  0.3165 -0.2207
  656SOL    HW1 1967   0.381   2.515   1.839 -1.7914 -1.1792 -1.7044
  656SOL    HW2 1968   0.470   2.553   1.983 -0.4701  0.5068  2.0262
  657SOL     OW 1969   2.549   0.781   0.260 -0.3863 -0.1784  0.1200
  657SOL    HW1 1970   2.509   0.695   0.228  1.0306  1.2902 -0.5581
  657SOL    HW2 1971   2.572   0.843   0.181 -0.2303 -0.6345  1.6503
  658SOL     OW 1972   1.966   1.801   0.902  0.3859 -0.0635 -0.2028
  658SOL    HW1 1973   2.003   1.814   0.999  0.4360  2.1207  2.0379
  658SOL    HW2 1974   2.031   1.826   0.831 -2.2549  0.0513  3.6732
  659SOL     OW 1975   2.755   2.266   2.802  0.2890  0.3273 -0.2107
  659SOL    HW1 1976   2.750   2.269   2.699  0.1716 -0.2713  2.0775
  659SOL    HW2 1977   2.851   2.294   2.827 -0.5007  1.2560 -1.6783
  660SOL     OW 1978   1.332   0.488   0.384  0.3553 -0.2262  0.1775
  660SOL    HW1 1979   1.308   0.527   0.294  0.3725  0.8509 -2.7850
  660SOL    HW2 1980   1.431   0.491   0.400 -5.2523  1.6599  0.5993
  661SOL     OW 1981   2.206   0.151   0.042  0.0253 -0.1208 -0.5252
  661SOL    HW1 1982   2.274   0.206   0.092 -0.6669 -0.0698 -3.3065
  661SOL    HW2 1983   2.223   0.053   0.068  0.8169 -1.6893 -1.8547
  662SOL     OW 1984   0.502   0.119   0.761  0.3166  0.2186 -0.3780
  662SOL    HW1 1985   0.508   0.074   0.669  3.4695  0.5676  0.2429
  662SOL    HW2 1986   0.481   0.049   0.833 -1.1677 -1.3908  0.7125
  663SOL     OW 1987   1.315   0.416   2.529  0.1505 -0.3489 -0.4757
  663SOL    HW1 1988   1.355   0.400   2.437 -1.6097 -2.1556 -1.3863
  663SOL    HW2 1989   1.386   0.389   2.596  0.6567 -0.9934 -1.3168
  664SOL     OW 1990   0.519   2.860   1.273 -0.3818 -0.4592 -0.0476
  664SOL    HW1 1991   0.566   2.910   1.349  2.8616  0.1741  0.9159
  664SOL    HW2 1992   0.452   2.789   1.305 -0.3177 -1.1516 -1.8794
  665SOL     OW 1993   0.829   2.397   1.619  0.6337 -0.3862  0.0917
  665SOL    HW1 1994   0.812   2.396   1.517 -1.3766  1.0982 -1.5438
  665SOL    HW2 1995   0.897   2.464   1.643 -1.2055 -0.9938 -2.5519
  666SOL     OW 1996   0.266   0.090   2.688  0.1768 -0.8726 -0.1537
  666SOL    HW1 1997   0.269   0.029   2.611 -1.7157  0.7105  3.1647
  666SOL    HW2 1998   0.169   0.122   2.706 -0.8482  0.2457 -0.2733
  667SOL     OW 1999   1.774   1.648   1.599  0.1991  0.0913 -0.5009
  667SOL    HW1 2000   1.807   1.606   1.513 -2.0251  0.3344 -2.1497
  667SOL    HW2 2001   1.861   1.678   1.649 -2.1406 -0.6565 -0.1965
  668SOL     OW 2002   1.411   0.211   1.833 -0.1110 -0.0896 -0.1601
  668SOL    HW1 2003   1.496   0.152   1.821  2.1496 -0.1435  1.6239
  668SOL    HW2 2004   1.418   0.297   1.779 -2.1442 -0.4472  0.0191
  669SOL     OW 2005   2.620   2.475   1.046 -0.0427  0.4732  0.1152
  669SOL    HW1 2006   2.564   2.487   0.965  1.0083  2.9142  2.6528
  669SOL    HW2 2007   2.613   2.557   1.111 -0.7831  3.2458  3.5792
  670SOL     OW 2008   1.420   2.257   2.822  0.1907 -0.1060  0.5749
  670SOL    HW1 2009   1.380   2.179   2.874  1.2619 -0.7904 -1.0889
  670SOL    HW2 2010   1.406   2.342   2.873  1.1922 -2.4308 -0.5092
  671SOL     OW 2011   0.932   1.276   0.464 -0.2165  0.1295  0.5283
  671SOL    HW1 2012   0.868   1.310   0.534  0.0203  0.2823  0.4212
  671SOL    HW2 2013   0.932   1.176   0.478 -0.0694 -0.1859 -1.0626
  672SOL     OW 2014   2.844   1.160   2.527 -0.2600  0.6412  0.7685
  672SOL    HW1 2015   2.817   1.150   2.621  0.5668 -3.3171 -0.3773
  672SOL    HW2 2016   2.905   1.084   2.494 -0.4872  1.7303 -2.5156
  673SOL     OW 2017   2.635   2.053   1.496 -0.3738  0.4720 -0.0100
  673SOL    HW1 2018   2.652   2.035   1.597 -0.1837 -0.7527 -0.1513
  673SOL    HW2 2019   2.550   2.004   1.472 -0.8157  0.3838 -2.0360
  674SOL     OW 2020   0.510   2.518   2.419 -0.5648 -0.3908  0.3049
  674SOL    HW1 2021   0.518   2.604   2.359 -0.8273  0.1531 -0.6415
  674SOL    HW2 2022   0.520   2.541   2.518 -1.0909 -0.1652 -1.4029
  675SOL     OW 2023   0.885   0.796   1.574 -0.4498  0.0594 -0.2180
  675SOL    HW1 2024   0.918   0.832   1.664 -0.1924 -0.5627 -0.5589
  675SOL    HW2 2025   0.840   0.860   1.511  0.0915  1.7487  2.2537
  676SOL     OW 2026   2.199   0.114   1.168  0.6056  0.2306 -0.2329
  676SOL    HW1 2027   2.107   0.116   1.212 -0.4926  2.5324  1.7831
  676SOL    HW2 2028   2.220   0.205   1.120 -0.4161 -2.0517  2.4149
  677SOL     OW 2029   2.333   1.591   3.035  0.1930  0.6020 -0.4280
  677SOL    HW1 2030   2.349   1.693   3.032  0.8541  1.0115  1.3057
  677SOL    HW2 2031   2.263   1.564   2.967 -2.3966 -0.6880  1.2666
  678SOL     OW 2032   2.880   1.441   0.982  0.4677 -0.4859 -0.1561
  678SOL    HW1 2033   2.934   1.404   1.058  0.2590  0.4225  1.7150
  678SOL    HW2 2034   2.928   1.516   0.932  1.4996  0.8945 -0.3059
  679SOL     OW 2035   2.779   0.528   0.070 -0.1560 -0.6453 -1.0564
  679SOL    HW1 2036   2.840   0.448   0.068 -0.1271  1.1231 -1.9795
  679SOL    HW2 2037   2.840   0.609   0.083  3.1900 -2.0091  0.4574
  680SOL     OW 2038   0.218   2.117   1.839  0.0170  0.5318  0.5349
  680SOL    HW1 2039   0.157   2.167   1.901  0.9107  0.5860  0.0803
  680SOL    HW2 2040   0.242   2.024   1.871 -2.0962  1.5895 -2.3189
  681SOL     OW 2041   1.937   1.939   1.567 -0.2649  0.0837 -0.3383
  681SOL    HW1 2042   1.982   1.856   1.606 -0.1089 -0.2817 -0.0418
  681SOL    HW2 2043   1.838   1.922   1.550 -0.8821  0.3952 -0.8921
  682SOL     OW 2044   0.437   1.648   3.084  0.1690  0.2547 -0.0915
  682SOL    HW1 2045   0.489   1.705   3.020 -2.1580 -2.5924 -0.1318
  682SOL    HW2 2046   0.408   1.559   3.042 -1.9952  0.4430  3.0240
  683SOL     OW 2047   0.138   2.008   1.453 -0.5369  0.4702  0.6414
  683SOL    HW1 2048   0.172   2.104   1.474 -0.0959  2.6363 -1.1915
  683SOL    HW2 2049   0.125   2.001   1.352  0.8664  0.2982 -1.1673
  684SOL     OW 2050   2.844   1.271   2.074 -0.6895  0.7003 -0.1747
  684SOL    HW1 2051   2.823   1.313   1.984  1.5541  0.6028  0.0411
  684SOL    HW2 2052   2.764   1.265   2.135  1.4934 -1.0611 -0.7210
  685SOL     OW 2053   1.604   0.843   0.759 -0.3607 -0.2357 -0.5208
  685SOL    HW1 2054   1.531   0.896   0.804  3.6782 -0.1418 -1.5216
  685SOL    HW2 2055   1.582   0.822   0.658 -0.5180  0.1828 -3.7233
  686SOL     OW 2056   0.519   0.314   0.943 -0.5675 -0.6036  0.3350
  686SOL    HW1 2057   0.422   0.352   0.953 -0.3669 -0.3893 -1.1633
  686SOL    HW2 2058   0.521   0.241   0.871  1.3537 -0.5361 -0.7649
  687SOL     OW 2059   0.996   2.108   2.750 -0.5714  0.2672  0.8136
  687SOL    HW1 2060   1.032   2.181   2.811 -0.8430  2.6378 -1.1550
  687SOL    HW2 2061   1.030   2.125   2.655  0.5057  1.5380  2.3150
  688SOL     OW 2062   1.827   0.752   1.471  0.0002 -0.1375 -0.5480
  688SOL    HW1 2063   1.749   0.784   1.416 -1.1157  0.2836 -1.6137
  688SOL    HW2 2064   1.797   0.716   1.561 -0.0929 -4.2872  2.6346
  689SOL     OW 2065   1.827   0.345   0.979  0.0258 -0.3280 -0.0115
  689SOL    HW1 2066   1.890   0.367   1.055  0.4310 -1.9298  0.8063
  689SOL    HW2 2067   1.829   0.418   0.908  0.9597  0.1520  0.6938
  690SOL     OW 2068   3.019   1.654   0.891  1.1876  0.0862 -0.3548
  690SOL    HW1 2069   0.020   1.664   0.898 -2.7027 -1.5575  0.0160
  690SOL    HW2 2070   2.973   1.736   0.938 -0.8029 -1.2272 -1.9775
  691SOL     OW 2071   0.392   2.303   1.249  0.1451 -0.3465 -0.0455
  691SOL    HW1 2072   0.420   2.207   1.244  1.1449  4.0780 -1.7247
  691SOL    HW2 2073   0.374   2.342   1.159  1.1448 -1.3504  1.5083
  692SOL     OW 2074   1.702   2.961   1.622  0.1214 -0.2890  0.5449
  692SOL    HW1 2075   1.669   3.016   1.698 -2.7873  1.5640 -1.6611
  692SOL    HW2 2076   1.769   3.013   1.567  1.9098  0.0654 -0.0882
  693SOL     OW 2077   0.577   1.786   2.156 -0.5310 -0.8227 -0.4735
  693SOL    HW1 2078   0.561   1.832   2.064 -1.0283  1.8989 -1.9930
  693SOL    HW2 2079   0.657   1.820   2.207 -1.3660 -3.1565 -1.0504
  694SOL     OW 2080   2.166   1.311   1.113  0.5884  0.1537  0.3172
  694SOL    HW1 2081   2.197   1.405   1.098  0.3257 -1.8084  4.0800
  694SOL    HW2 2082   2.080   1.320   1.167 -0.7556 -1.0236  0.4704
  695SOL     OW 2083   1.164   0.792   0.974  0.5492 -0.0474 -0.1164
  695SOL    HW1 2084   1.133   0.743   0.896 -3.0857  4.0186  0.8480
  695SOL    HW2 2085   1.154   0.735   1.058 -0.9786  2.2941 -0.9399
  696SOL     OW 2086   0.456   3.008   0.494 -0.3225 -0.3623 -0.9085
  696SOL    HW1 2087   0.399   3.063   0.426 -1.4734 -0.7520 -2.0184
  696SOL    HW2 2088   0.554   3.002   0.468  1.6300  1.5139  0.2689
  697SOL     OW 2089   2.122   0.683   0.928 -0.2280 -0.3422  0.0718
  697SOL    HW1 2090   2.206   0.713   0.976 -2.0218  0.4752 -0.6591
  697SOL    HW2 2091   2.040   0.696   0.991 -2.3964 -1.2092  1.9941
  698SOL     OW 2092   1.521   1.276   2.024 -0.1480 -0.2359  1.0538
  698SOL    HW1 2093   1.517   1.231   2.115  0.8450 -0.7728  1.1605
  698SOL    HW2 2094   1.510   1.378   2.027  1.3560 -0.3698  0.3043
  699SOL     OW 2095   2.706   0.575   1.920 -0.1068  0.6928 -0.1051
  699SOL    HW1 2096   2.783   0.634   1.944 -1.3800  0.4475 -1.6402
  699SOL    HW2 2097   2.692   0.496   1.983 -1.8781  0.0014  0.8990
  700SOL     OW 2098   1.717   2.595   0.576  0.0479  0.5101  0.0866
  700SOL    HW1 2099   1.681   2.685   0.601  1.7209  0.6343  0.4205
  700SOL    HW2 2100   1.816   2.594   0.574  0.3051  1.5442  0.8996
  701SOL     OW 2101   2.618   1.851   2.461  0.0678 -0.0064  0.1419
  701SOL    HW1 2102   2.590   1.752   2.460  1.6540 -0.5548  0.1281
  701SOL    HW2 2103   2.630   1.883   2.559 -0.5016  0.0590 -0.3283
  702SOL     OW 2104   0.736   3.032   0.533 -0.2831  0.5020  0.5484
  702SOL    HW1 2105   0.727   2.968   0.616  1.1530 -1.6064  0.0207
  702SOL    HW2 2106   0.820   3.092   0.538 -1.7190  1.5480 -2.2886
  703SOL     OW 2107   1.822   2.938   2.211 -1.0951  0.1923 -0.1088
  703SOL    HW1 2108   1.910   2.962   2.257 -0.6072 -1.8287 -1.2612
  703SOL    HW2 2109   1.853   2.887   2.130  4.0446  1.2020  0.8312
  704SOL     OW 2110   2.728   2.150   0.147  0.1892 -0.2046  0.5628
  704SOL    HW1 2111   2.796   2.072   0.127  0.8360  0.0343  0.2111
  704SOL    HW2 2112   2.675   2.136   0.232 -0.1338  2.3212 -0.9134
  705SOL     OW 2113   2.965   2.301   2.341  0.3221 -0.0089  1.0194
  705SOL    HW1 2114   2.897   2.226   2.330 -0.2222 -1.5152 -1.5826
  705SOL    HW2 2115   2.971   2.336   2.438  0.1932  0.7938 -0.0694
  706SOL     OW 2116   2.607   0.143   0.238  0.8648 -0.2295 -0.1730
  706SOL    HW1 2117   2.602   0.042   0.235  1.3077  1.9887 -1.5040
  706SOL    HW2 2118   2.563   0.179   0.323 -0.0276  1.0576  0.8699
  707SOL     OW 2119   1.220   0.426   2.872  0.4756  0.6746  0.4149
  707SOL    HW1 2120   1.213   0.455   2.973 -0.2684 -0.5823 -1.3416
  707SOL    HW2 2121   1.257   0.503   2.822  0.2422 -3.4274 -0.2695
  708SOL     OW 2122   0.400   2.261   1.699 -0.5767  0.1666 -0.3306
  708SOL    HW1 2123   0.345   2.200   1.759  0.0756  2.8687 -2.8202
  708SOL    HW2 2124   0.502   2.249   1.726  0.7267  0.6440 -0.5492
  709SOL     OW 2125   1.246   2.953   1.994  0.1650 -0.2958  0.7185
  709SOL    HW1 2126   1.214   3.051   1.988  1.9469  0.7326  0.2789
  709SOL    HW2 2127   1.344   2.947   1.970  0.9884  0.8080  1.1873
  710SOL     OW 2128   1.490   2.557   2.668  0.4240  0.3204 -0.3687
  710SOL    HW1 2129   1.529   2.581   2.579 -0.8995 -0.6479  0.7633
  710SOL    HW2 2130   1.562   2.491   2.707  1.0470 -0.1105 -0.6022
  711SOL     OW 2131   0.854   2.622   2.737 -0.0548  0.5372 -0.0460
  711SOL    HW1 2132   0.821   2.671   2.656  0.1008  0.1306  2.3450
  711SOL    HW2 2133   0.783   2.562   2.778 -2.6751  2.4645  0.8433
  712SOL     OW 2134   1.061   2.053   0.043  0.3881 -0.6647 -0.2205
  712SOL    HW1 2135   1.053   1.956   0.012  0.0504  0.9986 -0.7555
  712SOL    HW2 2136   0.965   2.083   0.069  0.5226 -2.4772 -0.1439
  713SOL     OW 2137   1.959   1.068   1.628 -0.3662 -0.7732 -0.3813
  713SOL    HW1 2138   1.924   1.055   1.531 -1.8883 -1.3919 -1.6259
  713SOL    HW2 2139   1.883   1.042   1.696  1.8181  1.3370  0.6984
  714SOL     OW 2140   0.687   1.020   1.979 -0.0906  0.3092 -0.2168
  714SOL    HW1 2141   0.704   1.023   2.083  1.4537 -1.4759  1.6204
  714SOL    HW2 2142   0.711   0.929   1.935  0.9005 -0.5443 -1.8140
  715SOL     OW 2143   2.885   0.297   0.178  0.4317 -0.1256  0.5305
  715SOL    HW1 2144   2.828   0.223   0.219  1.9986 -1.4602 -1.9863
  715SOL    HW2 2145   2.905   0.368   0.251 -0.4266  2.6533  0.4746
  716SOL     OW 2146   0.403   2.674   0.939  0.1202 -0.6281  0.1445
  716SOL    HW1 2147   0.490   2.672   0.988  0.2633  0.8028 -1.5783
  716SOL    HW2 2148   0.333   2.722   0.998 -1.1246 -1.1662 -1.2925
  717SOL     OW 2149   2.613   0.651   0.691  0.0592 -0.0982 -0.0561
  717SOL    HW1 2150   2.623   0.592   0.612  0.3360 -0.9472  0.7081
  717SOL    HW2 2151   2.566   0.740   0.671  2.8669 -0.4270  0.5523
  718SOL     OW 2152   1.644   1.196   1.578  0.1859 -0.1271 -0.0171
  718SOL    HW1 2153   1.672   1.271   1.641  1.1882 -1.8182 -2.5708
  718SOL    HW2 2154   1.633   1.232   1.482  1.7532  1.3681 -0.9253
  719SOL     OW 2155   2.748   2.650   2.857  0.7451  0.6274 -0.0974
  719SOL    HW1 2156   2.670   2.631   2.922 -2.1470  1.5490  1.7374
  719SOL    HW2 2157   2.739   2.607   2.760 -1.1689 -0.9261 -0.0663
  720SOL     OW 2158   1.115   0.319   0.766  0.1316 -0.6402 -0.2629
  720SOL    HW1 2159   1.062   0.366   0.840  0.6405 -0.4053  1.2366
  720SOL    HW2 2160   1.099   0.223   0.770 -0.1016  0.7685 -1.2865
  721SOL     OW 2161   1.988   0.462   1.171  0.0272  0.2037  0.2812
  721SOL    HW1 2162   2.085   0.439   1.160 -0.6272  1.8377  1.6416
  721SOL    HW2 2163   1.969   0.560   1.168  1.3077  0.2858 -0.6604
  722SOL     OW 2164   0.654   2.245   1.771 -0.9186  0.0890  0.2460
  722SOL    HW1 2165   0.667   2.252   1.872  1.4309 -0.4340  1.1851
  722SOL    HW2 2166   0.719   2.307   1.715  1.4180 -1.4284  0.0910
  723SOL     OW 2167   1.297   3.070   1.459 -0.5265  0.4079  0.1409
  723SOL    HW1 2168   1.339   3.062   1.554 -0.0074 -3.1777  2.0524
  723SOL    HW2 2169   1.364   3.047   1.383 -0.8461  0.4157  1.9495
  724SOL     OW 2170   1.673   1.914   1.512  0.5943 -0.0009 -0.4970
  724SOL    HW1 2171   1.570   1.924   1.509 -1.0705 -0.9889 -0.3755
  724SOL    HW2 2172   1.693   1.817   1.539  0.8502  3.3286  0.2187
  725SOL     OW 2173   1.426   2.426   1.267  0.1445  0.1030  0.2513
  725SOL    HW1 2174   1.386   2.346   1.219 -0.0657  1.3771 -1.0660
  725SOL    HW2 2175   1.434   2.510   1.210 -4.2322 -3.6007 -2.1005
  726SOL     OW 2176   1.868   0.381   3.072  0.3653 -0.3555  0.5891
  726SOL    HW1 2177   1.885   0.365   0.071  0.4380 -1.0749 -3.0308
  726SOL    HW2 2178   1.920   0.307   3.026  0.6090  0.3124  0.6487
  727SOL     OW 2179   1.473   1.821   0.329  0.0937  0.1650 -0.4570
  727SOL    HW1 2180   1.378   1.825   0.294 -1.3514 -1.9064  0.8974
  727SOL    HW2 2181   1.512   1.727   0.319 -2.1589 -1.4874  1.6926
  728SOL     OW 2182   1.843   2.606   2.052 -0.3163  0.2113  0.6785
  728SOL    HW1 2183   1.854   2.538   1.976  1.6034 -2.2460 -0.6419
  728SOL    HW2 2184   1.902   2.686   2.034  0.6018 -0.8967 -0.5545
  729SOL     OW 2185   2.108   2.353   1.537 -0.1003 -0.7839 -0.1385
  729SOL    HW1 2186   2.104   2.268   1.477 -1.9946 -1.5920 -2.1995
  729SOL    HW2 2187   2.206   2.386   1.545  1.4035  1.7770  0.8330
  730SOL     OW 2188   1.507   0.846   2.572  0.0432  0.1323 -0.2432
  730SOL    HW1 2189   1.478   0.818   2.669  1.3466 -0.1430  1.9889
  730SOL    HW2 2190   1.456   0.803   2.502  1.4888 -0.0990 -1.1211
  731SOL     OW 2191   0.820   0.011   0.963 -0.4125 -0.0171  0.1567
  731SOL    HW1 2192   0.735   3.049   0.951 -1.4003  0.4282  0.3276
  731SOL    HW2 2193   0.848   0.022   1.062  0.3911  2.1271 -0.2419
  732SOL     OW 2194   1.436   2.998   1.226 -0.2571  0.2778 -0.1095
  732SOL    HW1 2195   1.479   2.909   1.207 -0.2062  0.2814  2.0634
  732SOL    HW2 2196   1.363   3.024   1.159 -0.9625  1.8937  0.1168
  733SOL     OW 2197   1.432   1.045   1.243 -0.2563  0.0188  0.2201
  733SOL    HW1 2198   1.441   1.022   1.145 -0.5187  2.4180  1.4093
  733SOL    HW2 2199   1.477   1.131   1.275 -2.8194  3.5992  0.3772
  734SOL     OW 2200   2.320   2.235   0.299 -0.6709 -0.4183  0.6068
  734SOL    HW1 2201   2.282   2.249   0.210  0.4860  2.4858  3.0832
  734SOL    HW2 2202   2.330   2.327   0.341 -0.0451  1.6167  0.6896
  735SOL     OW 2203   0.694   0.198   0.425  0.0789  0.1288  0.2554
  735SOL    HW1 2204   0.737   0.146   0.349  1.7424 -2.5458 -0.8067
  735SOL    HW2 2205   0.610   0.253   0.397 -1.7964  1.5372  0.2263
  736SOL     OW 2206   2.023   2.176   2.471  0.2073  0.3809 -0.0748
  736SOL    HW1 2207   1.928   2.148   2.495  0.9076 -2.8144 -0.8617
  736SOL    HW2 2208   2.046   2.165   2.376  0.2841  3.4232  2.8656
  737SOL     OW 2209   1.007   2.378   0.955 -0.1450 -0.1426  0.1198
  737SOL    HW1 2210   1.068   2.454   0.917  2.3007  1.7922  0.9541
  737SOL    HW2 2211   0.921   2.367   0.900 -3.9032 -2.2910 -0.8479
  738SOL     OW 2212   1.626   0.006   2.313 -0.2515  0.3280 -0.4671
  738SOL    HW1 2213   1.552   3.072   2.379 -2.9283  1.3367  1.7306
  738SOL    HW2 2214   1.683   3.021   2.291 -3.1340 -0.2901 -0.8823
  739SOL     OW 2215   0.679   2.280   2.038 -0.3633  0.5738  0.0793
  739SOL    HW1 2216   0.767   2.226   2.046  0.6463  0.8045 -1.9208
  739SOL    HW2 2217   0.595   2.224   2.064 -0.1179 -2.0569  2.4240
  740SOL     OW 2218   1.643   2.360   1.472  0.0208  0.3173 -0.0021
  740SOL    HW1 2219   1.728   2.392   1.422  1.4782  1.1573 -1.9043
  740SOL    HW2 2220   1.562   2.397   1.418  0.6417  1.2168  0.6704
  741SOL     OW 2221   2.447   1.334   3.027 -0.2691  0.1400 -0.6862
  741SOL    HW1 2222   2.484   1.319   2.930  0.2586  1.0943 -1.1526
  741SOL    HW2 2223   2.421   1.431   3.043  0.0319 -2.0134  1.9429
  742SOL     OW 2224   0.645   1.560   2.005  0.5649 -0.0492  0.0696
  742SOL    HW1 2225   0.623   1.643   2.066  0.6110  1.6132  3.2100
  742SOL    HW2 2226   0.583   1.479   2.018 -1.0366 -0.6143  0.0594
  743SOL     OW 2227   3.002   0.949   2.453 -0.3254 -0.6945  0.4669
  743SOL    HW1 2228   3.019   0.936   2.352  0.3013 -0.9983  1.7749
  743SOL    HW2 2229   2.959   0.866   2.492 -0.2107  0.3177  1.9690
  744SOL     OW 2230   2.083   2.128   1.370  0.4856  0.1736  0.1650
  744SOL    HW1 2231   2.158   2.076   1.320  0.5731  1.4713 -1.2924
  744SOL    HW2 2232   2.013   2.066   1.415  0.2451 -0.7554 -0.4173
  745SOL     OW 2233   2.430   1.602   1.461 -0.1221 -0.2381  0.5677
  745SOL    HW1 2234   2.358   1.575   1.522 -0.7593  0.4813  0.0447
  745SOL    HW2 2235   2.445   1.533   1.387  0.3688 -4.4922 -0.1999
  746SOL     OW 2236   2.680   1.145   0.579 -0.6542 -0.2310 -0.2557
  746SOL    HW1 2237   2.742   1.097   0.516  1.4032  1.1902  0.2272
  746SOL    HW2 2238   2.715   1.241   0.590  2.0100  0.7063  1.4486
  747SOL     OW 2239   1.796   2.269   0.595 -0.1543 -0.1173  0.4991
  747SOL    HW1 2240   1.863   2.321   0.654  0.6845 -0.3979 -1.3998
  747SOL    HW2 2241   1.700   2.306   0.606 -1.8299 -0.2191 -0.5707
  748SOL     OW 2242   0.943   2.205   0.603 -0.4005 -0.3540 -0.5502
  748SOL    HW1 2243   0.945   2.148   0.516 -0.6163  0.6910  2.4922
  748SOL    HW2 2244   1.026   2.264   0.618  0.6399  1.5540  1.7862
  749SOL     OW 2245   2.928   0.484   2.373 -0.0042  0.9369  0.2195
  749SOL    HW1 2246   2.909   0.419   2.449  1.8910  2.6956 -0.4386
  749SOL    HW2 2247   2.983   0.442   2.303 -2.1576  1.2947  1.7088
  750SOL     OW 2248   1.572   0.111   1.376  0.7263 -0.0203 -0.2546
  750SOL    HW1 2249   1.662   0.068   1.385 -1.3007 -2.0212  0.9472
  750SOL    HW2 2250   1.508   0.049   1.324 -1.5362  2.9095 -3.4306
  751SOL     OW 2251   1.657   2.367   2.775 -0.2193 -0.2066 -0.0147
  751SOL    HW1 2252   1.589   2.299   2.803  1.0206 -1.3328 -0.1106
  751SOL    HW2 2253   1.727   2.384   2.848  3.3260  1.1738  2.5352
  752SOL     OW 2254   1.872   2.198   0.332 -0.2199 -0.2607 -0.1788
  752SOL    HW1 2255   1.833   2.234   0.414  3.1223 -1.1677 -0.0475
  752SOL    HW2 2256   1.965   2.157   0.349 -2.3904  0.4050  0.2679
  753SOL     OW 2257   1.540   0.801   2.178 -0.0937  0.3514 -0.3949
  753SOL    HW1 2258   1.498   0.760   2.263  2.5013 -1.7936 -0.3997
  753SOL    HW2 2259   1.605   0.885   2.195  2.9933  4.5197  1.1641
  754SOL     OW 2260   0.133   2.791   0.716  0.2461 -0.1089  0.6096
  754SOL    HW1 2261   0.154   2.695   0.683  2.9148 -1.4102 -2.5409
  754SOL    HW2 2262   0.051   2.795   0.777 -0.5994  0.0876  1.7947
  755SOL     OW 2263   1.821   0.071   1.468 -0.1413  0.7681  0.2816
  755SOL    HW1 2264   1.825   0.172   1.453 -1.6857 -2.4038  1.0809
  755SOL    HW2 2265   1.883   0.025   1.398  1.0543  0.8626  1.0291
  756SOL     OW 2266   1.181   1.091   2.428 -0.2901  0.4387 -0.7196
  756SOL    HW1 2267   1.277   1.067   2.458 -0.5580 -0.1982  0.9598
  756SOL    HW2 2268   1.168   1.059   2.331 -0.3450  0.3290 -2.1138
  757SOL     OW 2269   2.938   2.774   1.222  0.0986 -0.2614  0.2047
  757SOL    HW1 2270   3.008   2.719   1.268  2.6093  3.2524  0.6487
  757SOL    HW2 2271   2.851   2.762   1.271  0.4453 -0.4551  0.4306
  758SOL     OW 2272   0.662   2.972   1.479  0.1158 -0.0336 -0.6703
  758SOL    HW1 2273   0.600   2.986   1.558 -1.3217 -0.5586 -0.1974
  758SOL    HW2 2274   0.749   3.018   1.493 -3.3571 -2.0604 -2.8122
  759SOL     OW 2275   2.465   1.397   0.720  0.0953 -0.2816 -0.6326
  759SOL    HW1 2276   2.440   1.351   0.634  0.5687  0.6564  0.9198
  759SOL    HW2 2277   2.565   1.393   0.743  0.1432 -1.2570  1.0258
  760SOL     OW 2278   2.001   0.465   1.638 -0.3705 -0.2898  0.5924
  760SOL    HW1 2279   1.934   0.444   1.563  0.1600  1.3718  0.7914
  760SOL    HW2 2280   2.026   0.389   1.696 -0.3000  3.3334  1.5128
  761SOL     OW 2281   2.107   0.097   0.384  0.3238 -0.7053  0.2087
  761SOL    HW1 2282   2.178   0.038   0.418 -2.2770  0.7105 -0.9334
  761SOL    HW2 2283   2.057   0.049   0.313  0.5810  2.1752  0.8580
  762SOL     OW 2284   2.146   2.316   0.067  0.0215 -0.4450 -0.0438
  762SOL    HW1 2285   2.118   2.240   0.015 -2.8722  3.2311  1.4185
  762SOL    HW2 2286   2.057   2.353   0.104 -1.5073 -1.3890 -0.1552
  763SOL     OW 2287   0.848   0.969   1.073 -0.0132  0.1894  0.3013
  763SOL    HW1 2288   0.846   1.037   1.002 -0.2875 -0.1438  1.2268
  763SOL    HW2 2289   0.918   0.987   1.141 -0.3823 -0.4732 -0.3834
  764SOL     OW 2290   2.501   2.320   2.896  0.0034  0.7321 -0.6413
  764SOL    HW1 2291   2.595   2.299   2.865 -1.2568  1.0603  1.9544
  764SOL    HW2 2292   2.473   2.419   2.876  1.8391  3.9194  0.0859
  765SOL     OW 2293   0.650   0.680   2.334 -0.5692 -0.4068  0.2057
  765SOL    HW1 2294   0.629   0.679   2.432  0.5273  2.6382  1.2736
  765SOL    HW2 2295   0.655   0.579   2.301  1.9382 -2.9377  0.7575
  766SOL     OW 2296   0.022   1.337   2.386 -0.9152  0.2149  0.2479
  766SOL    HW1 2297   0.032   1.322   2.483  1.9520  1.9077 -1.8228
  766SOL    HW2 2298   3.060   1.417   2.370  0.0824 -1.7949 -2.4810
  767SOL     OW 2299   0.046   1.807   2.090  1.0245  0.6396 -0.1430
  767SOL    HW1 2300   0.136   1.810   2.044 -0.1352 -0.9093  2.2814
  767SOL    HW2 2301   0.057   1.772   2.186 -0.4755 -0.1974 -1.5149
  768SOL     OW 2302   1.067   0.995   2.832  0.2905  0.0323 -0.4989
  768SOL    HW1 2303   0.990   1.032   2.894  1.4883  0.6956 -0.6133
  768SOL    HW2 2304   1.039   1.009   2.736 -0.1109 -3.0421  0.4491
  769SOL     OW 2305   1.601   2.668   2.918  0.0076  0.3217 -0.5616
  769SOL    HW1 2306   1.552   2.664   2.828 -0.6183 -0.4094 -0.2902
  769SOL    HW2 2307   1.654   2.748   2.931 -0.2691  1.2747  1.8227
  770SOL     OW 2308   3.074   0.690   2.552 -0.4026  0.0710  0.5215
  770SOL    HW1 2309   3.032   0.622   2.490 -1.2054 -0.5074  0.2053
  770SOL    HW2 2310   3.016   0.705   2.635  1.2240  2.7331  0.3303
  771SOL     OW 2311   0.720   2.108   1.173  0.5514 -0.2672 -1.0796
  771SOL    HW1 2312   0.782   2.134   1.249  0.0670  0.2409  1.1322
  771SOL    HW2 2313   0.691   2.190   1.119 -1.4654  2.2939  2.5831
  772SOL     OW 2314   0.624   0.495   3.076 -0.4162  0.0299  0.4925
  772SOL    HW1 2315   0.701   0.433   3.041 -0.0846 -0.2228  2.3387
  772SOL    HW2 2316   0.637   0.593   3.051  1.9424  0.4788 -0.9257
  773SOL     OW 2317   2.179   0.919   1.692 -0.2128  0.0931 -0.0053
  773SOL    HW1 2318   2.232   0.951   1.775  2.2838  1.3479  0.4775
  773SOL    HW2 2319   2.095   0.976   1.677  1.6785  2.1653  0.7422
  774SOL     OW 2320   0.924   0.755   0.568 -0.5234 -0.4915  0.2146
  774SOL    HW1 2321   0.975   0.728   0.657  1.8425  0.4150  1.7628
  774SOL    HW2 2322   0.968   0.714   0.486 -0.7500 -0.6935 -1.4120
  775SOL     OW 2323   1.937   2.806   2.783 -0.1930 -0.7430 -0.7796
  775SOL    HW1 2324   2.035   2.834   2.779 -0.1417  1.5344 -1.2091
  775SOL    HW2 2325   1.931   2.705   2.789  0.5943  0.0173  0.4670
  776SOL     OW 2326   2.130   3.065   1.967  0.3983  0.0256  0.1819
  776SOL    HW1 2327   2.123   3.079   1.863  2.9152  0.9885 -1.4752
  776SOL    HW2 2328   2.228   3.067   2.003  3.4756 -0.2648 -0.7849
  777SOL     OW 2329   0.643   1.125   2.844 -0.0156 -0.5917 -0.5276
  777SOL    HW1 2330   0.609   1.114   2.750 -0.7592 -0.8125  0.6033
  777SOL    HW2 2331   0.567   1.163   2.899 -1.0353  0.4313  3.1934
  778SOL     OW 2332   0.710   3.038   0.262 -0.8270  0.1484 -0.1901
  778SOL    HW1 2333   0.804   3.017   0.223 -0.4579 -1.2191  2.7558
  778SOL    HW2 2334   0.720   3.023   0.364 -1.4359  0.9495  1.7686
  779SOL     OW 2335   0.134   1.200   0.004  0.2998  0.4744  0.3602
  779SOL    HW1 2336   0.150   1.129   0.075 -1.1747  1.2267  0.8512
  779SOL    HW2 2337   0.223   1.240   3.069  0.4802  0.7089 -1.7896
  780SOL     OW 2338   2.014   0.317   2.582 -0.1808 -0.1715 -0.3908
  780SOL    HW1 2339   2.057   0.400   2.618 -1.3239  0.6457  1.2953
  780SOL    HW2 2340   1.921   0.338   2.550 -1.1166 -1.0200  2.0877
  781SOL     OW 2341   2.079   1.144   2.231  0.1672 -0.1404 -0.3559
  781SOL    HW1 2342   2.047   1.211   2.302 -0.2222 -0.5071  0.9485
  781SOL    HW2 2343   2.003   1.104   2.173 -2.1777 -1.4573 -1.5310
  782SOL     OW 2344   1.124   1.641   2.179 -0.7918 -0.3919  0.1846
  782SOL    HW1 2345   1.054   1.658   2.109  1.6495 -1.2761 -0.7541
  782SOL    HW2 2346   1.086   1.655   2.271 -2.2475  1.0171 -0.5173
  783SOL     OW 2347   1.219   3.050   1.074 -0.0609 -0.5232  0.2119
  783SOL    HW1 2348   1.192   0.045   1.101 -0.3640  0.7407 -1.5790
  783SOL    HW2 2349   1.139   2.994   1.066 -1.6836  1.2873 -1.1616
  784SOL     OW 2350   1.556   0.754   3.011  0.2588 -0.2306 -0.0827
  784SOL    HW1 2351   1.618   0.823   2.963 -0.0337  3.4215 -0.0103
  784SOL    HW2 2352   1.509   0.794   3.092  0.4898 -1.8773 -2.2477
  785SOL     OW 2353   1.889   0.594   2.902 -0.0045  0.0008  0.6672
  785SOL    HW1 2354   1.919   0.677   2.949 -0.0577 -1.6020  1.6769
  785SOL    HW2 2355   1.862   0.519   2.964  2.0908 -0.4269  0.1964
  786SOL     OW 2356   2.982   1.710   0.492 -0.4580  0.3515 -0.0228
  786SOL    HW1 2357   2.891   1.742   0.536 -1.0861 -1.4506 -0.9426
  786SOL    HW2 2358   3.035   1.638   0.548 -0.3669 -0.2969 -0.4078
  787SOL     OW 2359   1.724   1.707   0.139 -0.3917  1.2214 -0.0246
  787SOL    HW1 2360   1.737   1.807   0.141 -0.6999  0.4768  2.0600
  787SOL    HW2 2361   1.717   1.675   0.236 -3.3641 -1.8611 -1.8017
  788SOL     OW 2362   1.375   1.856   1.244 -0.0969 -0.4153  0.2544
  788SOL    HW1 2363   1.455   1.833   1.192 -0.6243  0.7403  3.0779
  788SOL    HW2 2364   1.297   1.874   1.179  0.1320 -1.8936 -1.3103
  789SOL     OW 2365   0.006   1.220   2.131  0.8092 -0.4458  0.0584
  789SOL    HW1 2366   0.013   1.273   2.218  1.0479  0.4587  0.7045
  789SOL    HW2 2367   3.008   1.224   2.097  0.1894  0.0163  1.2855
  790SOL     OW 2368   0.520   0.007   0.094  0.5464 -0.5089 -0.2066
  790SOL    HW1 2369   0.454   3.027   0.074  0.3870  0.2546 -0.5530
  790SOL    HW2 2370   0.583   3.089   0.171 -0.1919  0.4934  0.8894
  791SOL     OW 2371   0.760   0.121   2.516  0.4776 -0.0276  0.0645
  791SOL    HW1 2372   0.717   0.105   2.605  0.4255 -0.4045  0.2836
  791SOL    HW2 2373   0.854   0.083   2.509 -0.0251  2.0424  0.9749
  792SOL     OW 2374   1.844   0.458   2.395  0.3489  0.2381  0.0389
  792SOL    HW1 2375   1.790   0.537   2.427 -1.0549 -2.7914 -0.7567
  792SOL    HW2 2376   1.877   0.456   2.301  0.5351 -1.6682  0.9951
  793SOL     OW 2377   2.862   0.837   1.252  0.1604 -0.5602 -0.1421
  793SOL    HW1 2378   2.788   0.797   1.309 -1.2114 -0.4179 -0.3774
  793SOL    HW2 2379   2.955   0.798   1.281  1.6209  1.5539 -0.4368
  794SOL     OW 2380   0.116   0.649   1.494 -0.2799  0.1044 -0.6580
  794SOL    HW1 2381   0.019   0.645   1.526  3.1313 -1.1085  0.9263
  794SOL    HW2 2382   0.180   0.665   1.575  5.5403 -1.6929  0.0067
  795SOL     OW 2383   2.741   1.429   0.283  0.0257  0.0892  0.1773
  795SOL    HW1 2384   2.733   1.515   0.227  0.7437 -0.7020 -1.6543
  795SOL    HW2 2385   2.670   1.363   0.256  2.8951  0.0730  0.3937
  796SOL     OW 2386   3.074   2.584   0.362  0.3498  0.2757  0.3011
  796SOL    HW1 2387   3.008   2.617   0.297 -1.0871 -0.0547 -0.1787
  796SOL    HW2 2388   0.033   2.508   0.320 -0.4389 -0.7293  0.2684
  797SOL     OW 2389   1.917   2.620   2.525  0.4155 -0.3026 -0.2781
  797SOL    HW1 2390   1.920   2.579   2.618  0.0471  1.4196 -0.8628
  797SOL    HW2 2391   1.840   2.687   2.513  0.4943  1.0149  2.6412
  798SOL     OW 2392   0.240   1.292   1.026  0.2261 -0.5572  0.5603
  798SOL    HW1 2393   0.173   1.217   1.014  1.1369  0.3497 -2.0794
  798SOL    HW2 2394   0.195   1.370   1.078 -1.1095  0.5662  0.4926
  799SOL     OW 2395   0.174   0.473   2.846 -0.8081 -0.5198  0.2091
  799SOL    HW1 2396   0.200   0.470   2.746  0.1502  1.8790 -1.6209
  799SOL    HW2 2397   0.252   0.477   2.914 -0.7604 -2.3673  0.5151
  800SOL     OW 2398   2.757   1.787   0.624 -0.7539  0.5787  0.1335
  800SOL    HW1 2399   2.758   1.889   0.623  0.9156  1.5646  0.2884
  800SOL    HW2 2400   2.688   1.754   0.554 -2.7173  0.5301 -2.7063
  801SOL     OW 2401   1.538   1.284   1.316 -0.0339  0.3585  0.4149
  801SOL    HW1 2402   1.559   1.378   1.284  1.0775  0.6835  0.2166
  801SOL    HW2 2403   1.467   1.293   1.387  1.4763  0.0428 -2.7739
  802SOL     OW 2404   0.971   1.918   1.684 -0.4538 -0.5334 -0.4594
  802SOL    HW1 2405   1.015   1.917   1.777  0.5314 -1.4446  2.7670
  802SOL    HW2 2406   0.979   2.015   1.652  2.5380 -3.2200 -2.5466
  803SOL     OW 2407   0.465   1.847   0.690 -0.1969 -0.4272  0.3399
  803SOL    HW1 2408   0.416   1.759   0.705 -1.6310  2.0583 -2.2114
  803SOL    HW2 2409   0.414   1.904   0.620 -2.0140  2.8457 -2.1768
  804SOL     OW 2410   1.032   2.432   1.347  0.6995 -0.1958 -0.1416
  804SOL    HW1 2411   1.067   2.381   1.267  0.4919 -1.8542 -1.2172
  804SOL    HW2 2412   1.107   2.446   1.418  0.9345 -0.9522  1.5158
  805SOL     OW 2413   1.716   1.367   0.179 -0.0606  0.2378  0.2586
  805SOL    HW1 2414   1.642   1.366   0.106 -1.8971 -0.4258 -0.5995
  805SOL    HW2 2415   1.805   1.410   0.145  0.1073 -0.1191 -1.8703
  806SOL     OW 2416   1.710   0.011   1.106 -0.1979  0.5010 -0.4574
  806SOL    HW1 2417   1.655   0.095   1.087  3.9897 -1.0297 -1.2119
  806SOL    HW2 2418   1.644   3.040   1.141  1.2734  2.5612 -1.2163
  807SOL     OW 2419   2.380   0.191   2.798  0.6184  0.4776  1.5184
  807SOL    HW1 2420   2.381   0.264   2.866 -0.7412 -0.8525  0.3885
  807SOL    HW2 2421   2.463   0.130   2.803 -0.0583 -0.4904  0.0035
  808SOL     OW 2422   0.265   1.088   0.423 -0.1702  0.4287  0.0210
  808SOL    HW1 2423   0.289   1.045   0.516  2.1570  0.4118 -0.9369
  808SOL    HW2 2424   0.214   1.172   0.441  1.0373 -0.6554 -2.4049
  809SOL     OW 2425   2.680   1.195   2.302  0.4346  0.4366 -0.0964
  809SOL    HW1 2426   2.649   1.108   2.249  0.1012 -1.9119 -0.8246
  809SOL    HW2 2427   2.754   1.166   2.371  1.1651 -2.6457  1.4528
  810SOL     OW 2428   1.683   0.410   1.803  0.3040 -0.7055  0.1615
  810SOL    HW1 2429   1.760   0.351   1.789 -3.4268  0.8881 -0.1092
  810SOL    HW2 2430   1.608   0.386   1.735  0.9260  0.1707  1.6501
  811SOL     OW 2431   2.281   2.724   1.919 -0.0974  0.2887  0.4445
  811SOL    HW1 2432   2.291   2.813   1.969  2.2829  1.3716  1.1721
  811SOL    HW2 2433   2.241   2.651   1.977 -0.3152 -0.4185  0.1497
  812SOL     OW 2434   1.980   0.151   2.981  0.2291 -0.0245 -0.1030
  812SOL    HW1 2435   2.067   0.143   3.032  0.4003 -0.0756  0.3723
  812SOL    HW2 2436   1.934   0.060   2.968 -0.8591 -1.2703  1.5282
  813SOL     OW 2437   1.861   0.538   1.970 -0.0057  0.0011  0.2562
  813SOL    HW1 2438   1.776   0.512   1.922 -2.5096 -1.7884 -1.6053
  813SOL    HW2 2439   1.889   0.633   1.942  1.8982  1.1615  1.1708
  814SOL     OW 2440   1.869   1.113   2.062  0.3192  0.3033  0.1191
  814SOL    HW1 2441   1.780   1.093   2.119 -1.1795  1.4780  1.2099
  814SOL    HW2 2442   1.885   1.037   1.995 -0.7187 -2.4059  0.3600
  815SOL     OW 2443   0.573   0.901   0.435 -0.4793  0.8577 -0.1280
  815SOL    HW1 2444   0.603   0.981   0.491 -1.5975 -2.6780 -0.0342
  815SOL    HW2 2445   0.634   0.822   0.461  0.9594  0.1881 -2.0809
  816SOL     OW 2446   2.161   1.495   2.842 -0.5724  0.6305  0.1313
  816SOL    HW1 2447   2.072   1.507   2.889 -1.5247  1.5007  1.4242
  816SOL    HW2 2448   2.146   1.532   2.751 -0.3407 -0.2685 -1.4913
  817SOL     OW 2449   0.257   2.815   0.466  0.0054 -0.4453  0.3076
  817SOL    HW1 2450   0.336   2.882   0.457  2.2381 -1.5628 -0.7617
  817SOL    HW2 2451   0.197   2.829   0.544 -0.0025 -0.7171 -1.4478
  818SOL     OW 2452   1.701   0.282   2.537  0.4971  0.0143  0.3205
  818SOL    HW1 2453   1.750   0.342   2.472  2.1104 -3.3721  3.1212
  818SOL    HW2 2454   1.728   0.186   2.516  0.4176 -2.0042 -1.6334
  819SOL     OW 2455   1.535   0.806   0.488  0.2415  0.2846 -0.0693
  819SOL    HW1 2456   1.435   0.807   0.472 -0.1958 -2.3929 -0.7706
  819SOL    HW2 2457   1.573   0.751   0.415 -1.8505  0.3367  1.8740
  820SOL     OW 2458   2.253   0.632   0.690  0.1400  0.0563  0.7676
  820SOL    HW1 2459   2.316   0.712   0.697 -2.2605 -1.2132 -0.6840
  820SOL    HW2 2460   2.185   0.635   0.772  1.8891 -1.5936  2.7867
  821SOL     OW 2461   2.227   2.876   0.251  0.2666  0.1601  0.0075
  821SOL    HW1 2462   2.261   2.939   0.323 -2.6619 -0.1924 -0.2165
  821SOL    HW2 2463   2.262   2.924   0.165 -1.3134  2.7344 -3.4335
  822SOL     OW 2464   2.954   0.009   2.036  0.7467 -0.6732  0.2443
  822SOL    HW1 2465   3.010   3.060   2.109  1.5837  0.4090 -2.1610
  822SOL    HW2 2466   2.991   3.083   1.943 -0.2216 -0.5247  0.6182
  823SOL     OW 2467   2.601   2.225   1.881 -0.2122  0.3600  0.6170
  823SOL    HW1 2468   2.506   2.244   1.854  2.4853  0.5316  0.2309
  823SOL    HW2 2469   2.632   2.131   1.843 -1.9969  0.3777 -1.1673
  824SOL     OW 2470   0.747   2.761   2.191  0.0599 -0.0861 -0.5076
  824SOL    HW1 2471   0.837   2.759   2.150 -0.8482 -0.0820  0.0402
  824SOL    HW2 2472   0.702   2.852   2.205 -0.6134 -0.5449 -1.0785
  825SOL     OW 2473   1.691   1.603   0.691  0.5765  0.4445  0.4361
  825SOL    HW1 2474   1.767   1.585   0.758  1.4124  1.4759  1.2681
  825SOL    HW2 2475   1.597   1.590   0.729 -1.0509 -0.7539  0.8431
  826SOL     OW 2476   1.845   0.766   0.188 -0.3597  0.0540  0.0513
  826SOL    HW1 2477   1.883   0.765   0.280 -1.9574  2.3041  1.4139
  826SOL    HW2 2478   1.919   0.752   0.118  0.7518 -0.2300 -1.4002
  827SOL     OW 2479   0.245   1.329   1.422  0.0315 -0.2951 -0.1812
  827SOL    HW1 2480   0.170   1.383   1.375 -1.9140 -0.3883 -0.6613
  827SOL    HW2 2481   0.314   1.299   1.356 -1.4250 -2.4823  0.4827
  828SOL     OW 2482   2.163   1.248   1.522 -0.1930 -0.2038 -0.7063
  828SOL    HW1 2483   2.081   1.200   1.565 -4.4304 -3.2058  1.5359
  828SOL    HW2 2484   2.234   1.274   1.594  0.6922 -0.1245  1.0636
  829SOL     OW 2485   0.367   1.980   0.142 -0.1502  0.1297 -0.1668
  829SOL    HW1 2486   0.284   1.928   0.182 -0.7949 -1.5998 -0.8771
  829SOL    HW2 2487   0.442   1.995   0.212  1.2904  1.9764 -1.1139
  830SOL     OW 2488   1.089   0.658   0.754  0.0399 -0.0886 -0.0300
  830SOL    HW1 2489   1.176   0.615   0.714 -0.4957 -0.6119  1.4365
  830SOL    HW2 2490   1.022   0.584   0.769 -0.1284  0.2774 -1.9653
  831SOL     OW 2491   2.727   1.643   0.132 -0.0351 -0.2477  0.6169
  831SOL    HW1 2492   2.737   1.647   0.030 -0.9760 -1.5303 -0.3939
  831SOL    HW2 2493   2.653   1.712   0.146  0.9006  1.2850 -2.6340
  832SOL     OW 2494   1.016   2.868   0.343  0.3181 -0.4413 -0.0744
  832SOL    HW1 2495   0.973   2.906   0.257 -1.0712 -1.0757 -2.0997
  832SOL    HW2 2496   1.023   2.940   0.417 -1.2117 -0.6599  2.1568
  833SOL     OW 2497   0.903   0.518   1.902  0.2480 -0.0129  0.2159
  833SOL    HW1 2498   0.837   0.457   1.947 -3.2629  0.7381 -1.9347
  833SOL    HW2 2499   0.903   0.612   1.945  0.5315  0.2771 -2.9436
  834SOL     OW 2500   0.235   0.917   1.148 -0.5352 -0.0904 -0.1225
  834SOL    HW1 2501   0.307   0.903   1.075  0.2723 -2.5178  1.7199
  834SOL    HW2 2502   0.276   0.943   1.238 -1.8850  1.5412 -0.0889
  835SOL     OW 2503   2.482   0.297   1.826  0.2256  0.1814 -0.1418
  835SOL    HW1 2504   2.446   0.379   1.873 -0.8559  0.3303 -0.0659
  835SOL    HW2 2505   2.470   0.309   1.727  1.0359  0.8858 -0.5510
  836SOL     OW 2506   0.319   2.048   0.542  0.0869 -0.0088 -0.0458
  836SOL    HW1 2507   0.339   2.148   0.552  1.9860 -3.9189 -1.3127
  836SOL    HW2 2508   0.371   2.015   0.459  0.8951  2.1083 -4.3083
  837SOL     OW 2509   2.145   1.655   2.359  0.0737 -0.0960  0.5871
  837SOL    HW1 2510   2.178   1.562   2.329  1.2682 -1.8902 -0.8107
  837SOL    HW2 2511   2.162   1.722   2.287  0.4916 -1.5828  0.2448
  838SOL     OW 2512   0.111   1.089   1.464 -0.1875 -0.6201 -0.3024
  838SOL    HW1 2513   0.198   1.047   1.439 -3.2127  2.7010 -1.0612
  838SOL    HW2 2514   0.126   1.191   1.455 -1.9177  0.2003 -0.1458
  839SOL     OW 2515   0.132   0.050   0.721  0.0382  0.0353 -0.2145
  839SOL    HW1 2516   0.223   0.010   0.743  0.7158  0.4343  0.3805
  839SOL    HW2 2517   0.054   3.084   0.744 -3.2357  0.2379 -1.1067
  840SOL     OW 2518   2.880   0.328   2.592 -0.2959 -0.2777 -0.2648
  840SOL    HW1 2519   2.962   0.286   2.635 -1.1599  1.2881 -0.5539
  840SOL    HW2 2520   2.835   0.387   2.657  1.2601  0.1501  0.2043
  841SOL     OW 2521   0.404   2.828   0.091  0.5459  0.1651  0.5745
  841SOL    HW1 2522   0.357   2.753   0.039  1.8280 -0.7070 -0.2285
  841SOL    HW2 2523   0.494   2.795   0.135  0.1458 -1.0052 -1.2865
  842SOL     OW 2524   1.045   0.061   0.820  0.0054  0.1632 -0.1472
  842SOL    HW1 2525   0.958   0.039   0.865  0.2822  1.3150 -0.7398
  842SOL    HW2 2526   1.080   3.073   0.768  0.9285 -1.6823  0.9181
  843SOL     OW 2527   0.094   1.078   2.620  0.4910  0.1658 -0.3561
  843SOL    HW1 2528   0.084   1.001   2.692 -1.0731 -1.4651  3.8781
  843SOL    HW2 2529   0.034   1.062   2.545  0.7938  0.6702  0.6811
  844SOL     OW 2530   0.895   2.514   2.444  0.3679  0.2651  0.4133
  844SOL    HW1 2531   0.981   2.492   2.493  0.3149 -1.0457  0.7757
  844SOL    HW2 2532   0.857   2.435   2.390 -2.6458  1.2345  0.2765
  845SOL     OW 2533   2.242   2.700   2.625 -1.0307 -0.3321 -0.5893
  845SOL    HW1 2534   2.228   2.775   2.693 -4.5570  1.3208  1.1342
  845SOL    HW2 2535   2.165   2.697   2.559  3.2623  0.9263  1.7766
  846SOL     OW 2536   1.671   1.719   2.540  0.0264 -0.1004  0.0538
  846SOL    HW1 2537   1.643   1.633   2.587 -3.5928 -0.2297  0.1088
  846SOL    HW2 2538   1.751   1.697   2.484 -4.8388 -0.2864  0.4591
  847SOL     OW 2539   2.755   2.894   3.040 -0.0523 -0.0839  0.6646
  847SOL    HW1 2540   2.790   2.873   2.944 -0.1271  1.1402 -2.5366
  847SOL    HW2 2541   2.826   2.931   0.008 -1.6047  1.0121  0.6467
  848SOL     OW 2542   0.211   0.749   0.427  0.7985 -0.5709  0.1046
  848SOL    HW1 2543   0.154   0.825   0.462 -0.4111 -0.8561 -1.0063
  848SOL    HW2 2544   0.287   0.727   0.492 -0.3049 -1.6484 -0.9561
  849SOL     OW 2545   1.083   0.179   2.223  0.0247  0.3111 -0.4335
  849SOL    HW1 2546   1.018   0.101   2.222 -0.6632  4.3600 -3.8259
  849SOL    HW2 2547   1.155   0.155   2.293 -2.5799 -0.0616 -2.3338
  850SOL     OW 2548   0.446   0.944   0.765  0.1366 -0.0710  0.5288
  850SOL    HW1 2549   0.513   0.995   0.713 -2.2739 -0.7067  1.4290
  850SOL    HW2 2550   0.356   0.990   0.764 -1.0105  0.0763 -0.8674
  851SOL     OW 2551   0.355   1.424   0.336  0.5885  0.5086  0.2379
  851SOL    HW1 2552   0.420   1.500   0.314 -1.3354 -2.0376  0.0335
  851SOL    HW2 2553   0.391   1.347   0.279  0.4977  0.8918 -1.0347
  852SOL     OW 2554   1.314   1.066   1.851  0.0212  0.2957 -0.1230
  852SOL    HW1 2555   1.411   1.068   1.855  0.1363  0.0366  0.1174
  852SOL    HW2 2556   1.273   1.053   1.941  0.2316 -1.6491 -0.3391
  853SOL     OW 2557   2.600   1.724   0.421 -0.2572  0.1234 -0.2509
  853SOL    HW1 2558   2.612   1.633   0.376  1.3075 -1.0888 -1.4853
  853SOL    HW2 2559   2.578   1.795   0.352  0.1191 -1.0326 -0.2882
  854SOL     OW 2560   1.025   0.884   2.214  0.2501  0.2952  0.1518
  854SOL    HW1 2561   0.951   0.886   2.283  0.1329  2.4061  0.0890
  854SOL    HW2 2562   1.075   0.797   2.216  0.3558  0.7519 -0.8776
  855SOL     OW 2563   0.269   2.638   2.749  0.5659  0.2634 -0.4058
  855SOL    HW1 2564   0.332   2.684   2.686 -0.2227  1.1875  2.3885
  855SOL    HW2 2565   0.202   2.705   2.787 -0.7493  1.3939 -1.0058
  856SOL     OW 2566   1.154   0.635   2.239 -0.2910  0.0269  0.1979
  856SOL    HW1 2567   1.239   0.603   2.190  1.8486  0.8566  1.1884
  856SOL    HW2 2568   1.094   0.555   2.244 -0.7279  0.6948  0.7281
  857SOL     OW 2569   1.426   0.674   2.383 -0.0675 -0.1518 -0.0902
  857SOL    HW1 2570   1.454   0.575   2.385 -2.4210 -0.1779  0.4809
  857SOL    HW2 2571   1.328   0.667   2.365 -0.4227 -0.1517 -0.3758
  858SOL     OW 2572   0.111   0.856   1.951 -0.0279  0.1270 -0.0991
  858SOL    HW1 2573   0.062   0.898   2.029 -0.4623 -2.3134  2.8429
  858SOL    HW2 2574   0.138   0.923   1.882  0.9712 -0.8134  2.6076
  859SOL     OW 2575   2.567   0.074   0.664 -0.0662  0.3531  0.6137
  859SOL    HW1 2576   2.616   0.150   0.705 -1.7272  0.1386 -0.7604
  859SOL    HW2 2577   2.622   3.090   0.643  0.9110 -0.3175 -0.5527
  860SOL     OW 2578   2.036   0.277   0.587  0.6172 -0.3490  0.0304
  860SOL    HW1 2579   1.956   0.232   0.633 -1.8932  1.3057 -1.0621
  860SOL    HW2 2580   2.075   0.216   0.516  0.1298  1.8169 -2.3468
  861SOL     OW 2581   1.441   0.425   1.217 -0.4426  0.0852 -0.0779
  861SOL    HW1 2582   1.398   0.497   1.274  2.9094 -1.6461  0.2025
  861SOL    HW2 2583   1.438   0.449   1.116 -0.3750 -0.7815  0.6406
  862SOL     OW 2584   1.273   0.107   2.431 -0.0120  0.3325 -0.1533
  862SOL    HW1 2585   1.326   0.031   2.465 -0.4257 -0.1075 -1.3477
  862SOL    HW2 2586   1.307   0.206   2.446 -1.0942  2.1233  1.1941
  863SOL     OW 2587   3.016   2.661   0.860 -0.1239 -0.0221 -0.3319
  863SOL    HW1 2588   2.947   2.697   0.925  0.3487 -1.5365 -0.8677
  863SOL    HW2 2589   2.974   2.615   0.778 -1.5480 -2.0815  1.9587
  864SOL     OW 2590   2.375   0.162   2.229 -0.4104 -0.3425 -0.3692
  864SOL    HW1 2591   2.286   0.192   2.268 -0.1883  0.5792 -0.7697
  864SOL    HW2 2592   2.383   0.062   2.223  1.1955 -0.3442 -1.5350
  865SOL     OW 2593   0.853   1.239   1.947 -0.3651 -0.2680 -0.0036
  865SOL    HW1 2594   0.793   1.157   1.965 -0.3218  2.0154  2.1004
  865SOL    HW2 2595   0.816   1.309   2.011  2.5208  0.4599  0.3117
  866SOL     OW 2596   1.960   2.898   1.067 -0.0748  0.2680 -0.6417
  866SOL    HW1 2597   1.874   2.906   1.007 -2.2761 -0.4545 -1.7458
  866SOL    HW2 2598   2.038   2.839   1.031  2.7826 -3.0254  0.0738
  867SOL     OW 2599   2.065   3.042   0.744 -0.5091  0.4396  0.1895
  867SOL    HW1 2600   2.081   2.993   0.832 -0.6657  1.3142  0.7882
  867SOL    HW2 2601   1.990   0.012   0.758  0.7385  0.1102  2.0393
  868SOL     OW 2602   2.968   1.997   1.599  0.3652 -0.4529  0.6568
  868SOL    HW1 2603   3.069   1.998   1.591 -0.4631  1.9889  0.8454
  868SOL    HW2 2604   2.920   1.961   1.518  1.6511 -1.0435 -0.4794
  869SOL     OW 2605   2.099   2.178   2.202  0.1562  0.3468  0.0596
  869SOL    HW1 2606   2.022   2.215   2.148  1.7573  1.4310  0.5920
  869SOL    HW2 2607   2.159   2.255   2.233 -0.7742  0.5780  2.8402
  870SOL     OW 2608   1.468   1.214   0.887  0.0671  0.0064  0.5097
  870SOL    HW1 2609   1.545   1.242   0.824  0.3857  2.0829  1.2018
  870SOL    HW2 2610   1.451   1.295   0.947 -2.0732 -0.2796  0.1452
  871SOL     OW 2611   2.927   1.947   1.933  0.1988  0.2519 -0.6020
  871SOL    HW1 2612   2.863   1.995   1.992  2.1277  0.1413 -1.9771
  871SOL    HW2 2613   2.992   1.888   1.993  0.5817 -1.8934  0.7676
  872SOL     OW 2614   1.233   1.355   2.468 -0.5113 -0.6046  0.7488
  872SOL    HW1 2615   1.142   1.407   2.481  0.4242 -2.2149  1.2250
  872SOL    HW2 2616   1.225   1.258   2.462 -0.1745 -1.6180  2.4344
  873SOL     OW 2617   0.707   1.097   1.629  0.3122 -0.9526 -0.2574
  873SOL    HW1 2618   0.784   1.165   1.643  2.5987 -0.1117  0.8512
  873SOL    HW2 2619   0.666   1.084   1.724  0.8911 -0.2694  0.0793
  874SOL     OW 2620   1.914   0.988   1.379 -0.0626 -0.0627 -0.0572
  874SOL    HW1 2621   1.906   1.016   1.284  1.9333  1.5052  3.2312
  874SOL    HW2 2622   1.887   0.888   1.390  1.9041 -0.8642 -0.6973
  875SOL     OW 2623   2.954   2.986   0.091 -0.4080  0.0600  0.0444
  875SOL    HW1 2624   2.909   3.037   0.168 -1.8378 -1.6392 -0.0625
  875SOL    HW2 2625   3.023   3.047   0.047 -2.0843  1.6444  0.0100
  876SOL     OW 2626   0.759   1.271   0.261 -0.3267  0.2217 -0.0662
  876SOL    HW1 2627   0.828   1.271   0.338 -0.7435 -2.3667  0.5803
  876SOL    HW2 2628   0.793   1.317   0.177 -1.4128  1.0719  0.5677
  877SOL     OW 2629   2.714   2.731   0.774 -0.4967 -0.3451  0.0921
  877SOL    HW1 2630   2.761   2.784   0.843 -0.1425 -3.0010 -3.1419
  877SOL    HW2 2631   2.774   2.672   0.715 -0.7506  0.4401 -1.8353
  878SOL     OW 2632   2.001   1.881   0.406  0.1743 -0.1743 -0.3973
  878SOL    HW1 2633   2.060   1.965   0.411  0.1244 -0.7447  0.2723
  878SOL    HW2 2634   1.905   1.902   0.373 -1.4172  0.9397 -3.1626
  879SOL     OW 2635   2.874   1.636   1.996  0.2348 -0.6564  0.5000
  879SOL    HW1 2636   2.859   1.692   1.913  0.1163 -2.2279  0.6326
  879SOL    HW2 2637   2.963   1.665   2.038 -0.4819  0.2170 -1.1145
  880SOL     OW 2638   0.523   1.996   0.926 -0.0498  0.2722  0.2412
  880SOL    HW1 2639   0.608   1.956   0.957 -1.5022 -1.1838 -2.9946
  880SOL    HW2 2640   0.481   1.936   0.853  0.3616 -0.0737  0.9120
  881SOL     OW 2641   0.765   0.316   1.515  0.0029  0.3042  0.3802
  881SOL    HW1 2642   0.745   0.329   1.414  2.7597  0.3798 -1.4428
  881SOL    HW2 2643   0.766   0.404   1.566 -0.8311 -1.0723  2.9391
  882SOL     OW 2644   2.461   0.932   1.153 -0.0680  0.1300  0.4802
  882SOL    HW1 2645   2.556   0.953   1.144 -1.1913 -1.6014  0.7032
  882SOL    HW2 2646   2.409   1.008   1.205  1.6500  2.5640 -0.4545
  883SOL     OW 2647   1.530   0.317   1.591  0.6188 -0.0879 -0.5419
  883SOL    HW1 2648   1.517   0.238   1.529  0.7793  0.2671 -0.6412
  883SOL    HW2 2649   1.521   0.405   1.538  0.2456  1.2801 -2.4128
  884SOL     OW 2650   2.716   0.286   1.988 -0.0302  0.1826 -0.2153
  884SOL    HW1 2651   2.650   0.296   1.907 -0.7211  0.5557 -0.5098
  884SOL    HW2 2652   2.814   0.266   1.965  2.3167 -0.5739 -0.5673
  885SOL     OW 2653   1.214   1.452   3.004  0.1509  0.2379  0.7564
  885SOL    HW1 2654   1.186   1.507   2.920 -1.1226 -0.5586  1.0667
  885SOL    HW2 2655   1.215   1.351   2.994  1.6894  0.3561  0.6140
  886SOL     OW 2656   2.240   0.402   2.940  0.1512 -0.2901  0.2000
  886SOL    HW1 2657   2.201   0.314   2.971  0.5261 -0.3183 -1.4277
  886SOL    HW2 2658   2.238   0.470   3.022 -0.1013  1.9532  0.2330
  887SOL     OW 2659   1.241   2.761   1.496 -0.3612 -0.2347  0.3533
  887SOL    HW1 2660   1.344   2.762   1.499 -3.2028 -1.4179 -2.0150
  887SOL    HW2 2661   1.203   2.785   1.584  1.7009 -1.5440  1.0848
  888SOL     OW 2662   1.864   1.644   2.330 -0.0407 -0.1245  0.2207
  888SOL    HW1 2663   1.835   1.647   2.231 -0.7377 -3.8063 -0.2979
  888SOL    HW2 2664   1.965   1.648   2.342 -0.8815  1.6057  1.8128
  889SOL     OW 2665   1.942   2.400   0.772  0.0200 -0.8304  0.2039
  889SOL    HW1 2666   1.935   2.338   0.853  1.8835  3.2940  0.1501
  889SOL    HW2 2667   1.923   2.502   0.794 -0.7847  1.0666 -0.7142
  890SOL     OW 2668   1.532   2.062   0.430  0.0398 -0.2178 -0.1505
  890SOL    HW1 2669   1.445   2.117   0.422 -0.8623 -0.1214  1.2918
  890SOL    HW2 2670   1.525   1.970   0.382  1.0582  1.1242 -2.0784
  891SOL     OW 2671   2.924   1.073   0.071  0.3721  0.1281 -0.3524
  891SOL    HW1 2672   2.949   1.077   3.068 -0.3446  1.1938 -1.0147
  891SOL    HW2 2673   2.942   1.163   0.115 -0.5317  1.3313  2.2516
  892SOL     OW 2674   2.266   1.132   0.050 -0.4256 -0.4993  0.4169
  892SOL    HW1 2675   2.168   1.156   0.080  1.4113  1.0371 -1.7442
  892SOL    HW2 2676   2.310   1.213   0.012  0.8792  1.7982  1.8904
  893SOL     OW 2677   1.814   2.447   1.253  0.4622 -0.2585 -0.3293
  893SOL    HW1 2678   1.830   2.545   1.243  0.0921 -0.9477 -0.4238
  893SOL    HW2 2679   1.900   2.398   1.234  1.3462  0.0330  0.7656
  894SOL     OW 2680   2.721   2.948   0.580  0.3236 -0.3369  0.3136
  894SOL    HW1 2681   2.813   2.931   0.548  3.0177  1.3689  0.3280
  894SOL    HW2 2682   2.686   2.867   0.626  0.0714  3.4797 -0.6909
  895SOL     OW 2683   2.470   2.578   2.758 -0.3287  0.0788  0.1541
  895SOL    HW1 2684   2.541   2.564   2.687 -0.2712 -0.0871  0.1742
  895SOL    HW2 2685   2.406   2.656   2.744  1.9737  1.1745 -2.7860
  896SOL     OW 2686   2.275   3.077   2.443  0.0318 -0.0967 -1.1501
  896SOL    HW1 2687   2.243   0.026   2.529 -1.7887 -1.3624 -1.5804
  896SOL    HW2 2688   2.196   3.091   2.381 -0.5353  1.3399 -0.2497
  897SOL     OW 2689   0.276   1.820   1.903 -0.0762  0.0202 -0.9171
  897SOL    HW1 2690   0.268   1.775   1.815 -0.2230  0.8953  1.0227
  897SOL    HW2 2691   0.372   1.856   1.914  0.1191 -1.1688 -1.2641
  898SOL     OW 2692   2.691   1.557   1.648 -0.3374  0.4830  0.6700
  898SOL    HW1 2693   2.610   1.605   1.686  0.1078  2.5632  1.9849
  898SOL    HW2 2694   2.768   1.624   1.642 -0.6768  0.7348 -2.1192
  899SOL     OW 2695   1.516   2.766   1.542 -0.2572 -1.1381  0.1762
  899SOL    HW1 2696   1.520   2.672   1.575  0.1062  1.0921  0.3629
  899SOL    HW2 2697   1.589   2.827   1.577 -1.8050 -1.6562 -2.6133
  900SOL     OW 2698   1.184   0.768   0.009  0.5027 -0.3540 -0.1655
  900SOL    HW1 2699   1.207   0.849   3.048  2.1603 -1.7284  1.3228
  900SOL    HW2 2700   1.087   0.758   0.026 -1.1279 -1.4366  0.9594
  901SOL     OW 2701   0.900   1.326   2.293  0.0828 -0.5386  0.0236
  901SOL    HW1 2702   0.970   1.362   2.228 -0.9461  0.4820 -1.0969
  901SOL    HW2 2703   0.931   1.346   2.390 -0.8270 -1.8595  2.2123
  902SOL     OW 2704   2.899   2.254   0.331  0.4473  0.1209  0.0667
  902SOL    HW1 2705   2.836   2.208   0.261  3.1328 -0.9568  1.5503
  902SOL    HW2 2706   2.893   2.358   0.336 -0.8011 -2.7303  1.6509
  903SOL     OW 2707   2.389   1.021   1.894 -0.0542  0.1394 -0.7325
  903SOL    HW1 2708   2.446   0.942   1.911 -0.6457  3.2029 -0.4148
  903SOL    HW2 2709   2.393   1.088   1.974 -1.2658  4.5879 -0.9074
  904SOL     OW 2710   1.697   0.948   2.909  0.4499 -0.1322  0.3483
  904SOL    HW1 2711   1.634   1.017   2.862 -1.3185  0.7457 -0.5630
  904SOL    HW2 2712   1.781   0.989   2.953  4.6007 -1.7037 -0.9422
  905SOL     OW 2713   2.155   2.756   0.937  0.3515  0.4613 -0.5714
  905SOL    HW1 2714   2.232   2.770   1.004 -0.0586  1.2458  0.3301
  905SOL    HW2 2715   2.147   2.654   0.925 -0.7769 -2.8764 -1.4674
  906SOL     OW 2716   1.528   2.033   0.080 -0.9789  0.5219  0.8192
  906SOL    HW1 2717   1.480   2.119   0.059  1.4448  2.6673 -0.9401
  906SOL    HW2 2718   1.469   1.960   0.118  0.1658  0.3677 -0.4738
  907SOL     OW 2719   0.843   2.560   0.579  0.1002 -0.0332  0.0147
  907SOL    HW1 2720   0.767   2.613   0.536  1.2228 -0.7156  0.6753
  907SOL    HW2 2721   0.804   2.502   0.651  1.8222  2.6104  1.7890
  908SOL     OW 2722   1.026   2.836   2.113  0.4680  0.6734 -0.0816
  908SOL    HW1 2723   1.034   2.740   2.078 -0.9991 -2.5805 -0.3967
  908SOL    HW2 2724   1.098   2.897   2.072  0.9183  1.0596  0.0231
  909SOL     OW 2725   1.845   0.344   1.426 -0.7269 -0.7815  0.1249
  909SOL    HW1 2726   1.905   0.339   1.345 -0.0515 -1.9181 -1.1036
  909SOL    HW2 2727   1.771   0.414   1.411  1.2229 -0.2074 -0.1999
  910SOL     OW 2728   1.167   0.620   2.641 -0.2052 -0.2034 -0.2655
  910SOL    HW1 2729   1.197   0.544   2.578 -2.0301 -0.0999 -0.0329
  910SOL    HW2 2730   1.255   0.667   2.683  4.1214  0.6797  0.0159
  911SOL     OW 2731   2.931   0.748   0.142 -0.3389 -0.2204  0.3990
  911SOL    HW1 2732   2.929   0.846   0.108 -1.3029 -0.1528 -0.1466
  911SOL    HW2 2733   3.022   0.714   0.185  1.0838 -1.6660 -0.9983
  912SOL     OW 2734   0.106   2.204   2.973  0.6597 -0.1087 -0.1383
  912SOL    HW1 2735   0.089   2.106   2.980  2.4453  2.7640 -0.4339
  912SOL    HW2 2736   0.159   2.245   3.052 -1.6904  2.0776  1.5243
  913SOL     OW 2737   2.685   1.970   2.691  0.1247 -0.1345 -0.9989
  913SOL    HW1 2738   2.703   2.067   2.680  1.4652  0.2765 -0.2566
  913SOL    HW2 2739   2.733   1.938   2.778 -0.1728 -1.9382  0.4289
  914SOL     OW 2740   1.414   1.726   1.620 -0.0427 -0.4007 -0.1541
  914SOL    HW1 2741   1.427   1.669   1.540  0.7972  1.7890 -0.3665
  914SOL    HW2 2742   1.372   1.817   1.593 -0.4878  1.7287 -1.1442
  915SOL     OW 2743   0.355   2.722   2.174  0.5908  1.0120  0.1589
  915SOL    HW1 2744   0.266   2.687   2.214 -1.6615 -1.4265  3.0273
  915SOL    HW2 2745   0.395   2.647   2.117  1.1001  3.2130 -2.7216
  916SOL     OW 2746   0.402   1.359   1.631  0.5624  0.6402  0.0694
  916SOL    HW1 2747   0.425   1.276   1.687 -1.0069 -0.1000  2.6454
  916SOL    HW2 2748   0.328   1.342   1.561  1.1702 -1.6924  1.3993
  917SOL     OW 2749   2.514   0.530   0.118 -0.1496  0.3161  0.1036
  917SOL    HW1 2750   2.472   0.449   0.156 -0.7453  2.0564 -1.0102
  917SOL    HW2 2751   2.617   0.529   0.103  0.4819 -0.5916  1.4777
  918SOL     OW 2752   1.482   2.607   2.357  0.5337 -0.1451  0.0299
  918SOL    HW1 2753   1.492   2.508   2.364 -2.7551  1.7377  2.2014
  918SOL    HW2 2754   1.379   2.634   2.351 -1.3076  1.3269  4.1740
  919SOL     OW 2755   1.667   2.516   1.741  0.3819 -0.6569 -0.0999
  919SOL    HW1 2756   1.680   2.455   1.666  0.8899  0.2419  2.3671
  919SOL    HW2 2757   1.752   2.548   1.786  2.0874  1.5637  2.2509
  920SOL     OW 2758   0.857   1.063   3.017  0.2031 -0.3247 -0.4929
  920SOL    HW1 2759   0.771   1.074   2.952 -2.6116 -1.5539  0.0602
  920SOL    HW2 2760   0.833   1.009   0.006  0.0573  1.4901 -1.9629
  921SOL     OW 2761   0.241   0.738   2.595 -0.4390 -0.3487 -0.0146
  921SOL    HW1 2762   0.151   0.709   2.557 -0.0021  2.0566 -1.2335
  921SOL    HW2 2763   0.308   0.661   2.610 -0.1661 -0.8614  1.2295
  922SOL     OW 2764   0.768   1.860   0.393 -0.6277 -0.3685  0.5173
  922SOL    HW1 2765   0.851   1.917   0.396 -2.9696  2.3521  0.1092
  922SOL    HW2 2766   0.744   1.813   0.482 -2.7635 -1.3555  2.6455
  923SOL     OW 2767   0.330   1.160   1.822 -0.2491 -0.3348 -0.1701
  923SOL    HW1 2768   0.282   1.097   1.762  2.0823  1.8637  2.2631
  923SOL    HW2 2769   0.263   1.219   1.879  0.2327  0.7132  0.4026
  924SOL     OW 2770   1.317   2.777   2.737 -0.8244 -0.2590  0.3157
  924SOL    HW1 2771   1.362   2.683   2.748  2.9216 -2.7604  0.2144
  924SOL    HW2 2772   1.380   2.849   2.782 -1.4517 -0.7224  1.0018
  925SOL     OW 2773   2.754   1.466   1.367  0.1827 -0.1814  0.2532
  925SOL    HW1 2774   2.728   1.496   1.460  0.7516 -0.2433  0.1210
  925SOL    HW2 2775   2.701   1.535   1.305  0.2361  1.7001  0.4811
  926SOL     OW 2776   2.038   0.703   1.789 -0.3523 -0.5433 -0.3015
  926SOL    HW1 2777   2.099   0.766   1.739 -1.1122 -2.7053 -1.0165
  926SOL    HW2 2778   2.012   0.623   1.733  0.1742  3.9165 -0.1330
  927SOL     OW 2779   2.345   2.480   1.580 -0.0616 -0.2752 -0.0578
  927SOL    HW1 2780   2.366   2.570   1.624  1.0931  0.6216 -0.1006
  927SOL    HW2 2781   2.421   2.456   1.517  2.0275  0.9228  2.5339
  928SOL     OW 2782   0.199   0.792   2.224 -0.1638 -0.5044  0.3827
  928SOL    HW1 2783   0.111   0.845   2.232 -3.5479  0.9750  1.4193
  928SOL    HW2 2784   0.266   0.825   2.150 -0.5882  0.0284  0.5196
  929SOL     OW 2785   2.349   0.137   0.843 -0.2003  0.0829  0.3612
  929SOL    HW1 2786   2.406   0.114   0.763  1.7576 -0.6798  1.5396
  929SOL    HW2 2787   2.284   0.208   0.818  0.2671 -0.6258  0.1922
  930SOL     OW 2788   2.740   3.005   1.718  0.5160  0.3570 -0.5737
  930SOL    HW1 2789   2.798   2.920   1.720  0.4606 -0.6305 -3.3892
  930SOL    HW2 2790   2.752   3.047   1.627 -0.8220 -0.5036  0.8485
  931SOL     OW 2791   2.126   0.927   0.526  0.9891 -0.1751 -0.5307
  931SOL    HW1 2792   2.196   0.892   0.584 -1.9651  1.9698 -3.7056
  931SOL    HW2 2793   2.166   0.998   0.460  1.5055  1.8049 -2.7087
  932SOL     OW 2794   2.362   1.246   1.710  0.3763  0.2373 -0.3070
  932SOL    HW1 2795   2.369   1.181   1.789 -3.8197 -2.5279  1.8572
  932SOL    HW2 2796   2.383   1.188   1.628 -0.9380  0.6246  0.1127
  933SOL     OW 2797   2.845   2.423   1.516  0.4243 -0.0924  0.1844
  933SOL    HW1 2798   2.816   2.429   1.615  0.1531  1.7487 -0.1956
  933SOL    HW2 2799   2.944   2.438   1.523 -1.6102  1.1824  3.0789
  934SOL     OW 2800   0.804   1.862   1.400  0.2030  0.2512 -0.2291
  934SOL    HW1 2801   0.810   1.949   1.356  2.4207 -1.3924  2.2743
  934SOL    HW2 2802   0.855   1.870   1.489  0.5678  0.2316 -1.1505
  935SOL     OW 2803   2.708   1.606   2.199 -0.3416  0.7521  0.2365
  935SOL    HW1 2804   2.774   1.607   2.123  1.2465 -1.0817  2.4397
  935SOL    HW2 2805   2.633   1.543   2.171  1.9249  1.0982  1.2803
  936SOL     OW 2806   2.520   1.425   2.116 -0.2477  0.1028  0.1884
  936SOL    HW1 2807   2.465   1.362   2.172 -0.0445 -2.2455 -1.8406
  936SOL    HW2 2808   2.486   1.441   2.020 -1.6174  2.5472 -0.1421
  937SOL     OW 2809   1.933   1.333   1.924 -0.7813  0.1041 -0.0212
  937SOL    HW1 2810   1.917   1.241   1.972 -1.3893 -1.3589 -0.5813
  937SOL    HW2 2811   2.014   1.386   1.961 -0.4878 -0.6591  1.5542
  938SOL     OW 2812   0.500   2.168   2.806  0.1339  0.3528 -0.1209
  938SOL    HW1 2813   0.595   2.195   2.832 -0.0722 -1.1017 -2.2401
  938SOL    HW2 2814   0.507   2.132   2.712 -0.0552 -2.1344 -2.8374
  939SOL     OW 2815   2.298   0.989   2.918  0.1812 -0.2054 -0.0240
  939SOL    HW1 2816   2.215   0.991   2.859 -0.9989 -0.8457  1.5848
  939SOL    HW2 2817   2.285   1.054   3.000 -0.3453  1.6653  4.6274
  940SOL     OW 2818   1.397   1.774   0.577 -0.0881 -0.2141 -0.1364
  940SOL    HW1 2819   1.409   1.803   0.479  0.0508 -1.3906 -0.2621
  940SOL    HW2 2820   1.488   1.757   0.619  0.6092 -1.2091  0.4052
  941SOL     OW 2821   1.180   2.865   2.515 -0.0627  0.5675  0.2863
  941SOL    HW1 2822   1.202   2.821   2.604 -0.7781  2.9414 -1.3929
  941SOL    HW2 2823   1.202   2.805   2.435 -2.7426  2.7326  2.2103
  942SOL     OW 2824   0.660   2.241   0.451  0.2430 -0.5019  0.0102
  942SOL    HW1 2825   0.702   2.282   0.364  0.7945 -1.0153  2.9111
  942SOL    HW2 2826   0.732   2.233   0.521  2.0476  0.4758 -0.7629
  943SOL     OW 2827   1.845   2.783   1.761  0.1877  0.1411 -0.3721
  943SOL    HW1 2828   1.908   2.730   1.701  3.6516 -1.8513 -0.7952
  943SOL    HW2 2829   1.804   2.866   1.702 -1.9208  2.9745 -1.4259
  944SOL     OW 2830   0.874   1.477   2.855  0.1340 -0.5839  0.6386
  944SOL    HW1 2831   0.967   1.519   2.850 -0.8079 -2.9059 -0.3475
  944SOL    HW2 2832   0.855   1.423   2.770 -2.7384 -3.9119 -1.9735
  945SOL     OW 2833   0.066   2.312   0.743 -0.1657  0.1096  0.0696
  945SOL    HW1 2834   0.146   2.268   0.792  0.9152  2.0529 -0.5293
  945SOL    HW2 2835   0.044   2.252   0.666  0.2094  1.3956  3.1596
  946SOL     OW 2836   0.838   1.295   2.671  0.1786 -0.0922 -0.1615
  946SOL    HW1 2837   0.773   1.248   2.731  1.7838 -0.7199 -0.7730
  946SOL    HW2 2838   0.908   1.233   2.631 -1.7467  2.3432 -1.0733
  947SOL     OW 2839   2.504   0.008   1.792 -0.0395  0.0470 -0.1097
  947SOL    HW1 2840   2.595   3.056   1.787 -0.1099  0.8404  2.6608
  947SOL    HW2 2841   2.520   0.101   1.828 -0.0553 -0.5731 -1.2951
  948SOL     OW 2842   0.368   2.030   1.132  0.1657 -0.6009  0.1785
  948SOL    HW1 2843   0.435   2.024   1.053  2.7877  0.2171  3.6476
  948SOL    HW2 2844   0.407   1.971   1.205  0.0054  0.9851 -0.0426
  949SOL     OW 2845   0.989   0.960   1.773  0.1685 -0.2696 -0.6157
  949SOL    HW1 2846   1.080   0.926   1.744 -0.1376  1.2562  0.7283
  949SOL    HW2 2847   0.972   1.057   1.748  0.4351 -2.6787 -1.2294
  950SOL     OW 2848   0.050   1.097   1.040 -0.2756  0.4745 -0.3813
  950SOL    HW1 2849   0.128   1.030   1.031  2.8370 -0.6455  1.6754
  950SOL    HW2 2850   3.089   1.076   1.122 -0.2753 -3.0606 -1.6989
  951SOL     OW 2851   0.375   1.939   2.261  0.0911 -0.0427  0.0261
  951SOL    HW1 2852   0.464   1.893   2.242  0.4360  0.5756  3.0073
  951SOL    HW2 2853   0.328   1.893   2.339 -0.9160  0.5406 -1.5452
  952SOL     OW 2854   1.302   2.191   0.416  0.4663  0.4339 -0.1300
  952SOL    HW1 2855   1.237   2.217   0.485 -0.6637 -0.1963  0.0108
  952SOL    HW2 2856   1.252   2.189   0.326  1.9450 -2.5879 -0.6045
  953SOL     OW 2857   1.058   0.683   0.291  0.2667 -0.3355 -0.3685
  953SOL    HW1 2858   1.027   0.583   0.295 -0.6292 -1.2678 -2.1187
  953SOL    HW2 2859   1.013   0.733   0.212 -2.0856  0.4787 -1.6004
  954SOL     OW 2860   2.390   0.983   0.902  0.1585  0.3877 -0.0888
  954SOL    HW1 2861   2.405   0.957   1.003 -1.8894  0.6742  1.6392
  954SOL    HW2 2862   2.376   1.081   0.889  2.9131 -1.9614 -0.4023
  955SOL     OW 2863   2.438   1.424   0.404  0.3673  0.8524  0.2391
  955SOL    HW1 2864   2.343   1.396   0.374 -0.9692 -0.4348 -2.2058
  955SOL    HW2 2865   2.506   1.354   0.387 -2.4336  1.8215  4.6925
  956SOL     OW 2866   0.769   0.561   1.656  0.7668 -0.7076  0.0455
  956SOL    HW1 2867   0.848   0.546   1.719  0.5392 -1.5981  1.5447
  956SOL    HW2 2868   0.784   0.649   1.602  2.4632  0.2644 -2.8628
  957SOL     OW 2869   1.882   0.722   1.151  0.3823  0.2498  0.2732
  957SOL    HW1 2870   1.816   0.705   1.229  0.5104 -0.2133  1.6308
  957SOL    HW2 2871   1.846   0.786   1.080  0.3856  0.7312  0.7878
  958SOL     OW 2872   0.068   1.922   0.618  0.0256 -0.4228  0.0787
  958SOL    HW1 2873   0.041   1.851   0.553 -0.3071 -1.5856  0.3457
  958SOL    HW2 2874   0.161   1.960   0.591 -1.0226  1.4856  1.2917
  959SOL     OW 2875   2.023   1.706   1.682 -0.1179  0.0740 -0.7228
  959SOL    HW1 2876   2.046   1.701   1.781 -0.7522  0.4510 -3.6979
  959SOL    HW2 2877   2.054   1.624   1.636  1.0296  3.2893 -3.5763
  960SOL     OW 2878   2.982   1.816   2.755 -0.0886 -0.5850 -0.6253
  960SOL    HW1 2879   2.926   1.867   2.827  0.3552  1.6287 -1.4370
  960SOL    HW2 2880   2.962   1.715   2.751 -0.9266  0.7005  3.1333
  961SOL     OW 2881   1.030   1.469   1.002  0.1517  0.0235  0.4282
  961SOL    HW1 2882   1.075   1.492   0.914 -0.5722 -1.1854 -0.7316
  961SOL    HW2 2883   1.088   1.471   1.083 -0.8770 -1.3726  1.8027
  962SOL     OW 2884   0.838   1.096   0.805 -0.3401  0.8140 -0.6650
  962SOL    HW1 2885   0.828   1.183   0.757 -2.4553 -1.0288  4.2003
  962SOL    HW2 2886   0.940   1.074   0.807  3.6727  1.7579 -0.1633
  963SOL     OW 2887   1.061   1.906   1.973  0.4944  0.0900 -0.2542
  963SOL    HW1 2888   0.996   1.831   1.988 -1.4706 -1.8522 -0.8640
  963SOL    HW2 2889   1.153   1.866   1.968 -1.6974 -1.6665  1.5511
  964SOL     OW 2890   0.100   2.937   2.120 -0.4905  0.2755 -0.2679
  964SOL    HW1 2891   0.179   2.982   2.068 -1.8853 -0.2534  1.1765
  964SOL    HW2 2892   0.142   2.869   2.185  2.5993 -1.2368  1.8449
  965SOL     OW 2893   0.789   2.088   0.099 -1.0022 -0.1389  0.1213
  965SOL    HW1 2894   0.752   2.171   0.152 -1.5629  0.9073 -0.3371
  965SOL    HW2 2895   0.710   2.039   0.051 -0.6791 -1.8704  0.5467
  966SOL     OW 2896   2.994   1.726   0.233 -0.0406  0.4604  0.4157
  966SOL    HW1 2897   2.987   1.733   0.333  0.1155  0.5796  0.2845
  966SOL    HW2 2898   2.923   1.666   0.191 -0.4998  3.3694 -3.6138
  967SOL     OW 2899   1.944   2.517   2.768 -0.1285  0.3921  0.4935
  967SOL    HW1 2900   1.988   2.439   2.724 -1.3023  3.2626  1.0927
  967SOL    HW2 2901   1.924   2.502   2.865 -1.6585  1.4612  0.0595
  968SOL     OW 2902   2.430   2.893   0.713 -0.2571  0.5151 -0.0934
  968SOL    HW1 2903   2.495   2.970   0.733 -0.4030  1.9914 -0.3109
  968SOL    HW2 2904   2.392   2.859   0.800 -0.0471 -1.4009 -0.9159
  969SOL     OW 2905   0.405   0.992   2.045  0.0414  0.2205 -0.1747
  969SOL    HW1 2906   0.407   1.051   2.126 -0.1630  0.2911 -4.3396
  969SOL    HW2 2907   0.418   1.039   1.959  1.0189  0.9685  3.1403
  970SOL     OW 2908   1.926   1.209   0.644  0.1970  0.8050 -0.1618
  970SOL    HW1 2909   2.026   1.211   0.618  1.2664  0.1782  0.0448
  970SOL    HW2 2910   1.874   1.137   0.596 -3.4450 -1.8099 -2.1523
  971SOL     OW 2911   2.259   2.835   1.451  0.0908  0.2499  0.3775
  971SOL    HW1 2912   2.322   2.797   1.523  0.3615  0.2973  0.4588
  971SOL    HW2 2913   2.288   2.924   1.410  1.9639  0.8283  0.3408
  972SOL     OW 2914   3.011   0.331   1.297 -0.3362 -0.3089 -0.6480
  972SOL    HW1 2915   2.978   0.245   1.257  0.3280 -0.4537 -0.2606
  972SOL    HW2 2916   3.006   0.329   1.402 -0.0329 -0.8894  2.6280
  973SOL     OW 2917   0.185   0.422   2.568 -0.1861 -0.1868 -0.4344
  973SOL    HW1 2918   0.162   0.328   2.540 -2.0227 -0.6471  1.1375
  973SOL    HW2 2919   0.200   0.479   2.484  0.7267  0.3546  2.2962
  974SOL     OW 2920   2.333   1.134   2.150  0.0906  0.4876  0.1104
  974SOL    HW1 2921   2.236   1.121   2.181 -0.7241 -0.7867 -0.2133
  974SOL    HW2 2922   2.395   1.163   2.228  1.5946 -1.1530 -0.3549
  975SOL     OW 2923   1.124   0.404   1.489 -0.6599  0.8337  0.3456
  975SOL    HW1 2924   1.102   0.307   1.472  2.0621 -2.9723 -0.7752
  975SOL    HW2 2925   1.121   0.425   1.590 -0.1880 -0.7362  1.5801
  976SOL     OW 2926   0.884   1.420   1.507 -0.3482  0.3684  0.4722
  976SOL    HW1 2927   0.935   1.508   1.518 -0.1114 -2.8961  1.1331
  976SOL    HW2 2928   0.783   1.442   1.517 -3.1448  2.0756 -1.0560
  977SOL     OW 2929   0.940   3.044   0.132 -0.0559  0.0381  0.5411
  977SOL    HW1 2930   0.905   2.997   0.048  0.1152  0.2685 -1.4041
  977SOL    HW2 2931   1.017   0.015   0.114 -0.8418  0.6492 -1.4894
  978SOL     OW 2932   2.442   1.242   2.399  0.1359 -0.2740 -0.5939
  978SOL    HW1 2933   2.434   1.310   2.478 -0.9011  1.6302  2.7673
  978SOL    HW2 2934   2.535   1.203   2.397  0.3420 -0.8780  0.1075
  979SOL     OW 2935   1.504   0.329   2.076  0.3622  0.1153  0.0214
  979SOL    HW1 2936   1.465   0.424   2.088  1.1617 -0.4608 -2.3781
  979SOL    HW2 2937   1.450   0.282   2.005  1.0144 -0.3152  1.5460
  980SOL     OW 2938   1.475   1.539   1.782 -0.1340 -0.1953  0.0572
  980SOL    HW1 2939   1.445   1.617   1.725 -2.3810 -2.8566 -0.5611
  980SOL    HW2 2940   1.569   1.505   1.762  0.2055 -0.0045 -0.2801
  981SOL     OW 2941   2.495   1.099   1.497  0.4940 -0.5602  0.5855
  981SOL    HW1 2942   2.533   1.161   1.424 -0.6409  0.0886 -2.5477
  981SOL    HW2 2943   2.440   1.021   1.463  0.7387  0.7503 -0.4918
  982SOL     OW 2944   0.451   0.265   0.014 -0.7943 -0.4786  0.0670
  982SOL    HW1 2945   0.542   0.310   0.010  1.0596  0.1525  4.4775
  982SOL    HW2 2946   0.470   0.168   0.042 -0.5714  0.2047 -2.1816
  983SOL     OW 2947   2.127   0.528   2.721  0.3418  0.0389  0.0032
  983SOL    HW1 2948   2.181   0.496   2.804  1.7465 -0.5514 -0.7376
  983SOL    HW2 2949   2.037   0.564   2.754 -2.5908  0.9707 -0.3304
  984SOL     OW 2950   0.783   3.084   1.949  0.0224  1.0286  0.0182
  984SOL    HW1 2951   0.844   0.057   1.917 -1.3673 -4.7147 -0.3237
  984SOL    HW2 2952   0.800   2.987   1.909  3.4415 -1.7745  2.7776
  985SOL     OW 2953   1.592   1.783   2.152 -0.2888  0.1251  0.9600
  985SOL    HW1 2954   1.677   1.741   2.114  3.5514  1.8106 -0.9625
  985SOL    HW2 2955   1.566   1.756   2.248  1.6938  3.0506 -0.1849
  986SOL     OW 2956   2.130   0.263   1.780  0.2545 -0.2726  0.6069
  986SOL    HW1 2957   2.174   0.292   1.866  0.8743  1.8208  3.5138
  986SOL    HW2 2958   2.191   0.200   1.735  0.8274 -0.6132  0.9505
  987SOL     OW 2959   2.417   1.431   1.250  0.3294 -0.1461 -0.2282
  987SOL    HW1 2960   2.449   1.434   1.155 -0.1910 -0.2462  2.3339
  987SOL    HW2 2961   2.437   1.339   1.280  2.7350  4.4771 -1.9864
  988SOL     OW 2962   2.352   1.961   1.733 -0.2637  0.5668  0.1587
  988SOL    HW1 2963   2.358   2.064   1.735  0.0337 -1.0743  0.0273
  988SOL    HW2 2964   2.278   1.928   1.794  1.3055 -0.2630 -0.1980
  989SOL     OW 2965   0.982   2.484   0.169  0.0650  0.2306  0.4515
  989SOL    HW1 2966   1.006   2.541   0.251  2.3058  1.0882  3.7678
  989SOL    HW2 2967   1.042   2.398   0.174  1.0335 -1.8511  0.9862
  990SOL     OW 2968   1.605   1.199   2.828  0.4134 -0.0553 -0.1017
  990SOL    HW1 2969   1.693   1.164   2.800 -4.2267  1.4177  2.6171
  990SOL    HW2 2970   1.549   1.241   2.753  1.6515 -0.0064  0.2713
  991SOL     OW 2971   1.292   0.519   0.679 -0.2368  0.3889  0.4851
  991SOL    HW1 2972   1.256   0.432   0.718 -0.0301 -0.6768 -1.5542
  991SOL    HW2 2973   1.319   0.500   0.581  1.8381 -0.6477 -1.9018
  992SOL     OW 2974   2.597   1.228   1.269  0.4555  0.5189 -0.9067
  992SOL    HW1 2975   2.645   1.157   1.219  1.1800  0.8204  1.2876
  992SOL    HW2 2976   2.649   1.315   1.269 -0.8784 -0.4980 -0.8741
  993SOL     OW 2977   2.529   0.780   1.626  0.4173  0.4407 -0.3571
  993SOL    HW1 2978   2.452   0.797   1.555 -1.9563  1.2539 -1.5486
  993SOL    HW2 2979   2.587   0.862   1.639  1.2813 -0.7283 -0.1414
  994SOL     OW 2980   0.574   1.964   2.571 -0.0878  0.5610  0.1369
  994SOL    HW1 2981   0.625   2.000   2.493 -0.0329 -1.8816 -0.6747
  994SOL    HW2 2982   0.476   1.948   2.549 -0.3384 -0.3804  0.7900
  995SOL     OW 2983   1.915   1.191   2.796 -0.2543 -0.2717 -0.1184
  995SOL    HW1 2984   1.893   1.268   2.734 -0.8995 -1.5450  1.3877
  995SOL    HW2 2985   1.984   1.124   2.758  2.4121 -0.6071  0.2719
  996SOL     OW 2986   2.300   1.707   0.338 -0.6259  0.0049 -0.2568
  996SOL    HW1 2987   2.326   1.608   0.358 -0.2042  2.2558 -1.6893
  996SOL    HW2 2988   2.309   1.768   0.417 -0.9164  0.3572  2.0392
  997SOL     OW 2989   2.052   0.656   2.214 -0.2563 -0.6420  0.2007
  997SOL    HW1 2990   2.091   0.706   2.135 -1.7855 -2.0428 -1.3620
  997SOL    HW2 2991   2.037   0.561   2.188  0.2690  3.0468  0.5334
  998SOL     OW 2992   2.551   1.266   0.185  0.4456  0.3341  0.1563
  998SOL    HW1 2993   2.553   1.161   0.176  0.0233 -2.8718  0.9757
  998SOL    HW2 2994   2.515   1.302   0.094  0.8447 -0.8441 -1.5745
  999SOL     OW 2995   2.783   2.049   0.670 -0.2743  0.2683  0.8054
  999SOL    HW1 2996   2.823   2.042   0.764  1.0277 -2.9738  2.2053
  999SOL    HW2 2997   2.835   2.111   0.605  2.2015  0.6552 -0.7222
 1000SOL     OW 2998   0.824   0.869   2.436  0.1849  0.8425  0.0106
 1000SOL    HW1 2999   0.818   0.824   2.533 -0.9904 -0.8399  2.1202
 1000SOL    HW2 3000   0.771   0.809   2.373  1.1056  1.3243 -0.0907
   3.09578   3.09578   3.09578
