1000 SPC/Fw water molecules t= 467.00000 step= 467000
 3000
    1SOL     OW    1   2.711   2.919   1.738  0.1129 -0.4365  0.2372
    1SOL    HW1    2   2.752   2.971   1.662  1.0628 -0.9323  0.3870
    1SOL    HW2    3   2.642   2.976   1.778  2.8562  0.2595 -0.0440
    2SOL     OW    4   2.717   2.983   3.001  0.2872 -0.0802 -0.4919
    2SOL    HW1    5   2.753   3.014   3.090  0.2532  0.0253 -1.8082
    2SOL    HW2    6   2.785   2.927   2.950 -0.9477  0.8054 -0.6183
    3SOL     OW    7   1.305   2.463   0.156 -0.2331 -0.0679 -0.1032
    3SOL    HW1    8   1.279   2.364   0.150 -1.1410  1.6240 -1.0650
    3SOL    HW2    9   1.323   2.485   0.255 -1.1608  1.0904  0.6609
    4SOL     OW   10   1.383   2.756   2.505 -0.3714 -0.2575 -0.6813
    4SOL    HW1   11   1.412   2.853   2.504 -0.9206  0.1396  2.0195
    4SOL    HW2   12   1.413   2.710   2.589  2.4422  0.8315 -1.1685
    5SOL     OW   13   2.111   0.340   2.207 -0.4230 -0.0693  0.0847
    5SOL    HW1   14   2.156   0.368   2.122  0.5421  1.9190  1.5427
    5SOL    HW2   15   2.010   0.357   2.209 -1.3451 -3.4452 -0.4223
    6SOL     OW   16   3.028   1.614   1.131 -0.6630  0.5455 -0.5898
    6SOL    HW1   17   3.060   1.700   1.091  2.1209 -1.9612  0.7623
    6SOL    HW2   18   2.937   1.617   1.171  1.3119 -0.7588 -1.2379
    7SOL     OW   19   1.220   2.073   0.405 -0.2792  0.0830  0.0333
    7SOL    HW1   20   1.196   2.043   0.501 -0.6628  2.8453 -1.9174
    7SOL    HW2   21   1.187   2.006   0.336  1.6184  1.5666  1.1853
    8SOL     OW   22   0.259   0.736   0.536  0.4261 -0.0371 -0.3137
    8SOL    HW1   23   0.345   0.742   0.477  0.8801 -1.2666 -1.8008
    8SOL    HW2   24   0.173   0.724   0.480 -1.7710 -1.5114  3.3028
    9SOL     OW   25   0.195   2.938   1.630 -0.1253 -0.6761  0.1714
    9SOL    HW1   26   0.207   2.903   1.532 -0.2402 -0.8707 -1.7102
    9SOL    HW2   27   0.127   2.885   1.684 -1.3041  0.6335 -1.2597
   10SOL     OW   28   1.079   2.291   0.530  0.2435  0.2553 -0.3011
   10SOL    HW1   29   1.148   2.223   0.499  2.9067 -0.1232  1.5080
   10SOL    HW2   30   1.123   2.369   0.571  2.3306 -1.9115 -2.7970
   11SOL     OW   31   2.099   0.685   1.406  0.1412 -0.3129 -0.3723
   11SOL    HW1   32   2.176   0.619   1.426 -2.9687  2.9954 -0.5618
   11SOL    HW2   33   2.009   0.651   1.440 -1.8790  0.0811  1.8534
   12SOL     OW   34   0.203   0.761   2.222  0.4854 -0.5675  0.4134
   12SOL    HW1   35   0.222   0.863   2.213 -0.3833 -0.5499 -1.3530
   12SOL    HW2   36   0.261   0.720   2.291 -1.3907  0.9298  1.7496
   13SOL     OW   37   1.927   3.034   0.454 -0.1025 -0.0560 -0.2388
   13SOL    HW1   38   2.005   3.048   0.514 -0.5965  1.5363 -1.6788
   13SOL    HW2   39   1.907   0.009   0.394 -1.4159 -1.6018  2.8531
   14SOL     OW   40   2.083   1.995   0.236  0.0176 -0.4391  0.3695
   14SOL    HW1   41   2.172   2.025   0.200 -2.6826 -0.8719 -1.7071
   14SOL    HW2   42   2.087   1.932   0.317  0.0508  0.8223 -0.1077
   15SOL     OW   43   0.044   3.083   2.856  0.2444 -0.4313  0.1861
   15SOL    HW1   44   0.110   0.052   2.873  2.3930  0.4917  0.3107
   15SOL    HW2   45   0.050   3.010   2.926 -2.4301 -1.4937  0.7706
   16SOL     OW   46   2.992   0.636   1.112 -0.1728  0.3525 -0.3829
   16SOL    HW1   47   3.009   0.557   1.052  0.3990  0.9023 -3.4218
   16SOL    HW2   48   2.935   0.603   1.193  0.8844 -0.3850  0.5771
   17SOL     OW   49   0.616   0.302   1.051 -0.3009  0.1875  0.1685
   17SOL    HW1   50   0.582   0.209   1.025  0.5709 -0.1267 -1.6573
   17SOL    HW2   51   0.550   0.357   1.102  2.8052 -1.8924 -1.4671
   18SOL     OW   52   2.885   0.050   0.563  0.1563  0.5181  0.5232
   18SOL    HW1   53   2.825   0.124   0.598 -0.7456  0.8799 -1.5608
   18SOL    HW2   54   2.982   0.056   0.593 -2.0584 -1.3387 -2.6659
   19SOL     OW   55   1.776   1.329   1.290  0.4034  0.1445  0.1298
   19SOL    HW1   56   1.778   1.318   1.188  0.0674  1.0789  3.3165
   19SOL    HW2   57   1.828   1.409   1.322 -1.3309  1.9417  0.9909
   20SOL     OW   58   2.213   1.886   2.373  0.5262 -0.0336 -0.3601
   20SOL    HW1   59   2.190   1.839   2.460  0.9980 -0.5879 -1.1891
   20SOL    HW2   60   2.312   1.866   2.352  4.2084  1.0196  0.1694
   21SOL     OW   61   1.463   2.828   0.396  0.1476  0.0832 -0.2915
   21SOL    HW1   62   1.505   2.738   0.394  2.4574  0.8338 -2.1852
   21SOL    HW2   63   1.398   2.849   0.318  0.5943  1.7941 -0.2037
   22SOL     OW   64   2.416   0.834   0.312 -0.0341 -0.6127 -0.8266
   22SOL    HW1   65   2.473   0.909   0.352 -0.0365 -1.2963 -1.1050
   22SOL    HW2   66   2.462   0.747   0.326 -3.3070  3.3538  2.9420
   23SOL     OW   67   0.950   0.641   1.963 -0.1747  0.1350 -0.3978
   23SOL    HW1   68   0.925   0.542   1.980  1.8348 -4.3716  0.6716
   23SOL    HW2   69   1.014   0.662   2.041 -0.6353 -0.1730 -0.6126
   24SOL     OW   70   2.038   2.159   0.935  0.5765 -0.3959  0.0234
   24SOL    HW1   71   2.131   2.186   0.971  2.6772  0.0473  0.0796
   24SOL    HW2   72   2.001   2.231   0.875 -2.6091 -3.6621  0.9925
   25SOL     OW   73   1.580   2.967   3.094  0.2613 -0.3656 -0.4570
   25SOL    HW1   74   1.540   3.017   3.015 -2.9310 -0.2973  0.0236
   25SOL    HW2   75   1.684   2.977   3.103  4.4360 -0.1570 -0.1194
   26SOL     OW   76   1.204   2.912   2.741  0.1696  0.4697 -0.0001
   26SOL    HW1   77   1.308   2.932   2.749  1.5690 -3.2820 -2.7715
   26SOL    HW2   78   1.194   2.820   2.709 -1.3069  0.7709 -1.9902
   27SOL     OW   79   1.084   0.500   1.156 -0.1618  0.0642  0.2564
   27SOL    HW1   80   1.034   0.468   1.075  0.5217  1.7351  0.8054
   27SOL    HW2   81   1.026   0.536   1.227  2.3583 -0.3548 -2.6008
   28SOL     OW   82   0.355   2.058   0.908 -0.4319  0.7688 -0.0574
   28SOL    HW1   83   0.415   2.101   0.835  0.1431 -3.4791 -0.3948
   28SOL    HW2   84   0.388   2.075   0.998  0.6031  0.2545 -0.5989
   29SOL     OW   85   2.451   1.051   1.330  0.2471  0.1397 -0.6734
   29SOL    HW1   86   2.469   1.130   1.387 -3.2373  1.1791  1.4243
   29SOL    HW2   87   2.408   0.977   1.385 -1.0492 -1.6118 -1.7079
   30SOL     OW   88   1.717   3.078   1.362  0.1789  0.2218 -0.5030
   30SOL    HW1   89   1.730   2.989   1.311  1.0832 -0.2993 -1.5591
   30SOL    HW2   90   1.621   0.003   1.352  1.0858  0.7849  2.0915
   31SOL     OW   91   1.193   3.083   1.238  0.5104 -0.5506  0.3799
   31SOL    HW1   92   1.193   0.047   1.161 -3.0454 -0.6067  1.3875
   31SOL    HW2   93   1.229   2.991   1.203  1.7025  0.2749 -1.2390
   32SOL     OW   94   2.295   1.360   1.933 -0.3348  0.0714 -0.0520
   32SOL    HW1   95   2.332   1.345   1.836  1.5885 -2.4392 -3.4427
   32SOL    HW2   96   2.201   1.399   1.919  1.6936 -0.8330 -0.6352
   33SOL     OW   97   2.265   2.957   2.727  0.1538 -0.3749  0.3916
   33SOL    HW1   98   2.197   2.979   2.799 -1.6756  0.8233 -0.0918
   33SOL    HW2   99   2.264   3.035   2.660  0.5724  0.5882  2.3835
   34SOL     OW  100   2.046   0.989   0.068 -0.2242 -0.2587 -0.1432
   34SOL    HW1  101   2.116   0.998   0.140 -2.3732  0.0824 -2.6329
   34SOL    HW2  102   2.072   0.904   0.017 -1.5536 -0.1543 -2.0021
   35SOL     OW  103   2.866   1.512   1.670 -0.5831 -0.8129 -0.0442
   35SOL    HW1  104   2.939   1.517   1.737 -2.7572 -2.6646  1.4360
   35SOL    HW2  105   2.796   1.444   1.689  2.6994  1.4075 -0.7136
   36SOL     OW  106   2.645   2.488   2.930 -0.8042  0.3084  0.0978
   36SOL    HW1  107   2.588   2.572   2.944 -0.1230  0.8729 -0.5208
   36SOL    HW2  108   2.719   2.504   2.862 -0.7793  0.8552  0.2668
   37SOL     OW  109   1.705   2.887   1.872 -0.2550  0.0770  0.4289
   37SOL    HW1  110   1.782   2.901   1.937  0.0557  1.1538  2.3155
   37SOL    HW2  111   1.722   2.801   1.816 -0.3222 -1.5767 -1.1999
   38SOL     OW  112   0.790   1.267   2.404 -0.0967 -0.6776  0.2433
   38SOL    HW1  113   0.834   1.209   2.476  2.2394 -2.5273 -2.1054
   38SOL    HW2  114   0.706   1.221   2.356 -3.7919  0.8270 -0.8550
   39SOL     OW  115   1.728   0.486   1.769 -0.8331 -0.0398 -0.3668
   39SOL    HW1  116   1.692   0.545   1.843 -1.4638 -0.4120  0.8465
   39SOL    HW2  117   1.702   0.389   1.786 -1.0890  1.1364  0.1064
   40SOL     OW  118   0.786   2.407   0.702  0.6076 -0.7084  0.0409
   40SOL    HW1  119   0.749   2.328   0.643 -1.8700 -2.5942  1.2076
   40SOL    HW2  120   0.825   2.378   0.791  0.0224  0.6663 -0.9357
   41SOL     OW  121   2.285   1.981   1.000 -0.0851 -0.0007  0.1573
   41SOL    HW1  122   2.284   2.082   1.016 -1.6877  0.5483  1.2989
   41SOL    HW2  123   2.381   1.942   1.012  3.1100 -1.2665 -0.5962
   42SOL     OW  124   2.196   0.356   0.484  0.1873  0.5481 -0.1049
   42SOL    HW1  125   2.133   0.381   0.409 -1.9895 -0.2167 -0.0835
   42SOL    HW2  126   2.267   0.288   0.454 -1.5576  3.1943 -0.0201
   43SOL     OW  127   0.712   1.471   2.564 -0.7583  0.2030 -0.5398
   43SOL    HW1  128   0.651   1.531   2.504  0.7345 -2.3299 -1.9946
   43SOL    HW2  129   0.750   1.401   2.495 -0.2299 -0.1232  0.4799
   44SOL     OW  130   1.794   2.866   1.198 -0.0974  0.4971  0.5859
   44SOL    HW1  131   1.734   2.808   1.139  3.5555 -0.2740  0.3727
   44SOL    HW2  132   1.887   2.884   1.154  0.9150  0.5840 -0.4794
   45SOL     OW  133   0.653   2.292   2.729  0.2010  0.3439 -0.0911
   45SOL    HW1  134   0.573   2.286   2.789  1.2436  1.5981  0.0503
   45SOL    HW2  135   0.688   2.383   2.708 -3.2737 -2.2038 -0.2055
   46SOL     OW  136   0.631   2.698   2.253 -0.6197  0.2324  0.4888
   46SOL    HW1  137   0.695   2.667   2.175  3.2103  2.3388 -4.3293
   46SOL    HW2  138   0.682   2.696   2.345  1.5402 -0.3595  1.5293
   47SOL     OW  139   0.609   1.680   0.810 -0.0270 -0.3097 -0.6128
   47SOL    HW1  140   0.636   1.635   0.723 -0.1949  0.1300 -0.3218
   47SOL    HW2  141   0.670   1.764   0.829  2.4254  2.3201 -1.0005
   48SOL     OW  142   0.799   2.627   1.452 -0.0057  0.1316 -0.2363
   48SOL    HW1  143   0.863   2.552   1.416 -1.2781 -1.7488 -0.9520
   48SOL    HW2  144   0.843   2.719   1.442  0.8125 -1.2810 -1.4580
   49SOL     OW  145   0.155   2.925   3.048  0.3202  0.4346  0.1308
   49SOL    HW1  146   0.146   2.857   0.019  1.5094  1.0459  1.5871
   49SOL    HW2  147   0.211   2.891   2.972 -2.5250  1.4942  1.8698
   50SOL     OW  148   1.549   0.660   0.466  0.1569  0.3352 -0.3105
   50SOL    HW1  149   1.470   0.708   0.422  2.0273 -0.4692 -0.0367
   50SOL    HW2  150   1.588   0.710   0.548 -0.6656 -0.1542  0.5217
   51SOL     OW  151   1.874   3.007   0.871  0.5401  0.7427 -0.2831
   51SOL    HW1  152   1.825   2.964   0.787 -1.3285 -3.3306 -1.8169
   51SOL    HW2  153   1.935   3.083   0.841 -0.1291 -1.0704 -0.9291
   52SOL     OW  154   0.304   1.682   1.206 -0.6824 -1.3367  0.0109
   52SOL    HW1  155   0.379   1.636   1.259  2.3363  0.3893 -0.6651
   52SOL    HW2  156   0.325   1.702   1.109  0.4384  1.1072 -3.2878
   53SOL     OW  157   0.158   1.061   2.893  0.2577 -0.1682  0.3332
   53SOL    HW1  158   0.173   1.129   2.971  0.2947 -2.0730  0.6438
   53SOL    HW2  159   0.133   1.110   2.808 -0.8649  0.5398  0.5825
   54SOL     OW  160   2.872   2.234   2.713 -0.1666 -0.2274  0.3674
   54SOL    HW1  161   2.788   2.236   2.766  2.2691  1.1642 -3.4464
   54SOL    HW2  162   2.884   2.318   2.649  0.7704  2.7043 -2.4043
   55SOL     OW  163   2.507   2.138   1.287  0.6328  0.3314 -0.5555
   55SOL    HW1  164   2.500   2.236   1.263  0.9237 -1.4123  1.4767
   55SOL    HW2  165   2.422   2.106   1.340 -3.8561 -0.3729  0.2100
   56SOL     OW  166   1.450   0.665   1.265  0.0866  0.0929  0.2859
   56SOL    HW1  167   1.415   0.764   1.270 -1.0010  4.3490  0.8510
   56SOL    HW2  168   1.465   0.639   1.167  0.1210  1.3232  1.6491
   57SOL     OW  169   1.873   1.642   0.984 -0.5520  0.0244 -0.3890
   57SOL    HW1  170   1.955   1.699   0.965  1.7094  1.2886  0.0779
   57SOL    HW2  171   1.912   1.554   1.017  2.1217  1.9165  1.5885
   58SOL     OW  172   2.460   0.173   2.208  0.0160 -0.2203 -0.2124
   58SOL    HW1  173   2.474   0.268   2.246  2.5527 -0.5826  2.6372
   58SOL    HW2  174   2.380   0.170   2.142  0.3675 -3.7753  0.1415
   59SOL     OW  175   1.641   2.798   2.164  0.6178 -0.2648  0.3582
   59SOL    HW1  176   1.579   2.775   2.088 -3.1398  1.5700 -0.8689
   59SOL    HW2  177   1.742   2.795   2.145 -2.1261  0.2591 -2.4658
   60SOL     OW  178   1.186   2.069   2.881  0.2332  0.3580 -0.1816
   60SOL    HW1  179   1.173   2.162   2.921 -1.2230  2.5535  1.0620
   60SOL    HW2  180   1.113   2.044   2.814  1.4671 -1.5627  1.1752
   61SOL     OW  181   0.702   2.155   0.264 -0.1724  0.5580 -0.2055
   61SOL    HW1  182   0.741   2.070   0.304 -0.7303  0.8297 -2.2556
   61SOL    HW2  183   0.770   2.233   0.260 -0.9234  0.4374  2.0377
   62SOL     OW  184   1.472   1.927   1.582 -0.3115 -0.1043  0.7585
   62SOL    HW1  185   1.405   1.881   1.642  0.4136 -0.8108  2.0139
   62SOL    HW2  186   1.568   1.897   1.596 -0.0375  1.6281 -3.1631
   63SOL     OW  187   1.115   1.986   0.637  0.3863 -0.7322  0.5991
   63SOL    HW1  188   1.016   2.019   0.643 -0.9030  0.5745 -0.0337
   63SOL    HW2  189   1.128   1.884   0.653  1.7185 -1.9782  1.4793
   64SOL     OW  190   1.741   1.660   2.527  0.2337 -0.2467  0.7679
   64SOL    HW1  191   1.724   1.567   2.496  0.6798  1.9614 -1.0779
   64SOL    HW2  192   1.792   1.658   2.614 -1.9985  0.0061 -0.2794
   65SOL     OW  193   1.729   1.845   1.651 -0.2719  0.3468 -0.3908
   65SOL    HW1  194   1.774   1.905   1.585  0.1872  1.7460  1.3885
   65SOL    HW2  195   1.783   1.846   1.741  2.3178  0.7481  0.7048
   66SOL     OW  196   3.019   0.985   0.930 -0.3367 -0.5514 -0.2260
   66SOL    HW1  197   0.013   0.957   0.926  0.9019  0.6588  1.0651
   66SOL    HW2  198   2.950   0.912   0.924 -0.9353 -0.3520 -2.0718
   67SOL     OW  199   2.301   2.248   1.012  0.2859  0.6028 -0.7504
   67SOL    HW1  200   2.362   2.289   1.084 -0.3791 -0.4806  2.8161
   67SOL    HW2  201   2.302   2.311   0.932 -1.0703 -0.2798  2.0768
   68SOL     OW  202   2.414   2.758   1.607 -0.2446  0.5580 -0.8768
   68SOL    HW1  203   2.352   2.721   1.532 -0.1909  1.0183 -0.8591
   68SOL    HW2  204   2.373   2.735   1.699 -0.0976 -2.6675  0.0933
   69SOL     OW  205   2.546   2.763   2.958 -0.0368  0.8164 -0.8149
   69SOL    HW1  206   2.502   2.763   2.867  1.1934  1.8547  2.5537
   69SOL    HW2  207   2.602   2.850   2.960  2.3626 -0.1846  1.2182
   70SOL     OW  208   0.933   1.673   2.624  0.4778  0.0832 -0.1738
   70SOL    HW1  209   1.010   1.692   2.561 -3.8909  3.1886  0.6882
   70SOL    HW2  210   0.874   1.596   2.589 -1.8097 -2.3228  2.3375
   71SOL     OW  211   0.705   1.622   1.794 -0.5538 -0.3390  0.6542
   71SOL    HW1  212   0.750   1.549   1.740 -1.6609  0.3694  1.1592
   71SOL    HW2  213   0.725   1.720   1.763  1.0899  3.0501 -0.9792
   72SOL     OW  214   2.967   1.171   1.587 -0.2454  0.4137  0.2137
   72SOL    HW1  215   2.933   1.244   1.650 -2.9098 -1.6385 -0.1518
   72SOL    HW2  216   2.976   1.208   1.490 -1.6168 -0.1088 -0.9359
   73SOL     OW  217   0.872   2.233   2.352 -0.3480 -0.0200  0.1075
   73SOL    HW1  218   0.913   2.268   2.268 -0.7668 -1.6891 -0.1161
   73SOL    HW2  219   0.938   2.228   2.432  0.4188  0.1231  0.2447
   74SOL     OW  220   1.212   0.232   1.952 -0.1046 -0.5734  0.1488
   74SOL    HW1  221   1.127   0.291   1.960  0.1484 -1.4662 -0.4493
   74SOL    HW2  222   1.294   0.272   1.996 -1.1365  2.6754 -1.1903
   75SOL     OW  223   1.072   3.016   0.641  0.0022 -0.3812 -0.0899
   75SOL    HW1  224   1.060   2.958   0.558  1.3590 -2.2287  2.4991
   75SOL    HW2  225   1.158   2.985   0.686 -1.9177  0.6282  0.8305
   76SOL     OW  226   0.408   1.701   2.611 -0.4158  0.2099 -0.2544
   76SOL    HW1  227   0.487   1.649   2.656 -2.1352 -0.3165  1.4473
   76SOL    HW2  228   0.439   1.727   2.514  0.5868  0.3390 -0.9132
   77SOL     OW  229   0.357   2.416   0.794 -0.1329  0.0962 -0.0678
   77SOL    HW1  230   0.430   2.490   0.794  1.7904  1.6123  0.7522
   77SOL    HW2  231   0.271   2.456   0.834  0.8552 -1.5273  0.7905
   78SOL     OW  232   2.596   1.481   0.211 -0.1298  0.0518 -0.1050
   78SOL    HW1  233   2.506   1.503   0.163 -0.2230  0.8590 -2.4857
   78SOL    HW2  234   2.609   1.521   0.302 -1.9271 -0.3108 -2.8505
   79SOL     OW  235   0.611   1.595   2.770  0.0652 -1.0339 -0.0761
   79SOL    HW1  236   0.660   1.540   2.702 -2.3786 -1.5976  1.5059
   79SOL    HW2  237   0.670   1.596   2.858  0.6746  1.0235  1.9186
   80SOL     OW  238   2.108   1.249   1.527 -0.0740 -0.1121  0.1336
   80SOL    HW1  239   2.032   1.220   1.589  2.0308 -1.6408 -0.8915
   80SOL    HW2  240   2.080   1.247   1.430  2.6247  4.1909  3.0868
   81SOL     OW  241   1.861   0.669   2.456 -0.2459 -0.1160  0.3898
   81SOL    HW1  242   1.853   0.737   2.534 -0.2148 -1.1429 -0.4195
   81SOL    HW2  243   1.829   0.715   2.367 -2.2071 -0.0312 -0.6089
   82SOL     OW  244   2.125   1.831   1.428  0.3463  0.7197 -0.0353
   82SOL    HW1  245   2.097   1.899   1.363 -1.1893 -1.8078  4.9803
   82SOL    HW2  246   2.145   1.746   1.372 -1.2420  0.9119  0.0116
   83SOL     OW  247   2.276   2.793   0.001  0.5824 -0.3974 -0.5096
   83SOL    HW1  248   2.363   2.776   3.059 -1.2011 -1.5839  0.2387
   83SOL    HW2  249   2.277   2.886   0.039  2.8060  0.2370  1.0877
   84SOL     OW  250   0.784   0.519   0.493 -0.0401  0.5613 -0.5543
   84SOL    HW1  251   0.726   0.493   0.570  0.1149  1.2211  0.3519
   84SOL    HW2  252   0.853   0.594   0.522 -0.0028 -1.0025 -0.1349
   85SOL     OW  253   2.160   1.614   1.276  0.2998  0.6330 -0.1510
   85SOL    HW1  254   2.082   1.563   1.231 -1.8775 -0.5138  1.9803
   85SOL    HW2  255   2.239   1.618   1.207  0.0510  2.2462 -1.8544
   86SOL     OW  256   0.677   0.775   1.267 -0.0011 -0.7788  0.5425
   86SOL    HW1  257   0.652   0.760   1.366 -0.9162 -0.8098  2.0324
   86SOL    HW2  258   0.632   0.862   1.236 -1.0517  1.0938  2.7201
   87SOL     OW  259   3.090   2.333   2.255 -0.4574 -0.1773 -0.5202
   87SOL    HW1  260   3.063   2.264   2.178 -0.8234  0.1128  2.1769
   87SOL    HW2  261   3.046   2.421   2.240  1.7569 -2.2811  1.2142
   88SOL     OW  262   0.289   2.950   0.269 -0.1358 -0.1032 -0.6602
   88SOL    HW1  263   0.207   3.009   0.274 -0.2039  1.3352 -0.2286
   88SOL    HW2  264   0.338   2.954   0.357  0.9108  2.5006 -0.8833
   89SOL     OW  265   1.221   0.145   0.996  0.1422  0.4162 -0.2549
   89SOL    HW1  266   1.277   0.074   0.942  0.0990 -3.8798 -3.1232
   89SOL    HW2  267   1.278   0.215   1.044  0.4152 -0.4470  1.7009
   90SOL     OW  268   2.899   0.860   2.226  0.0153  0.2315  0.3388
   90SOL    HW1  269   2.824   0.795   2.251 -0.5692 -0.6516  0.4902
   90SOL    HW2  270   2.966   0.820   2.159  0.2745 -0.4243  1.4058
   91SOL     OW  271   2.004   2.665   0.657  0.4176  0.0307 -0.2148
   91SOL    HW1  272   2.019   2.591   0.590 -1.6178 -1.3201 -1.0335
   91SOL    HW2  273   1.952   2.642   0.741 -1.8703  2.0635 -0.6482
   92SOL     OW  274   1.709   1.713   0.782 -0.3061  0.0822  0.2120
   92SOL    HW1  275   1.754   1.677   0.867  0.1136 -0.0153  0.9805
   92SOL    HW2  276   1.746   1.665   0.703  0.2097 -1.5635  1.3387
   93SOL     OW  277   0.564   1.369   0.496 -0.5307  0.3122  0.3233
   93SOL    HW1  278   0.647   1.313   0.480 -0.2583  0.5955  0.9200
   93SOL    HW2  279   0.584   1.471   0.516 -2.0900  0.4769  1.9112
   94SOL     OW  280   0.757   2.491   1.156  0.8389 -0.5007 -0.0149
   94SOL    HW1  281   0.844   2.485   1.207 -1.5728 -2.1589 -1.0409
   94SOL    HW2  282   0.710   2.403   1.165  1.2636 -0.1065  1.8788
   95SOL     OW  283   0.183   0.973   0.579  0.0241  0.4415 -0.2105
   95SOL    HW1  284   0.239   1.055   0.592 -0.7894 -1.0867 -1.2958
   95SOL    HW2  285   0.240   0.883   0.590  3.9273 -0.1471  1.0258
   96SOL     OW  286   0.831   2.685   2.055 -0.3111  0.7853  0.3091
   96SOL    HW1  287   0.904   2.752   2.034 -1.0613 -1.0831  1.6323
   96SOL    HW2  288   0.835   2.602   1.991 -3.0059 -2.3891 -2.9660
   97SOL     OW  289   2.622   0.859   0.994 -0.3344  0.6039  0.5788
   97SOL    HW1  290   2.572   0.791   1.051  0.5013 -0.5107 -1.4246
   97SOL    HW2  291   2.589   0.956   1.018 -0.6537 -1.3891  0.3731
   98SOL     OW  292   0.359   1.905   2.041 -0.5211 -0.1204 -0.4885
   98SOL    HW1  293   0.349   1.839   1.965 -0.7078 -1.1515  1.0167
   98SOL    HW2  294   0.276   1.962   2.051  0.5968 -0.5171 -0.2337
   99SOL     OW  295   2.900   0.413   1.588 -0.0870 -0.3521  0.4778
   99SOL    HW1  296   2.999   0.393   1.576  1.4639 -0.2241 -2.8357
   99SOL    HW2  297   2.887   0.425   1.688  1.2061  2.8235  1.2451
  100SOL     OW  298   1.977   0.201   2.593  0.1657  0.4336  0.1472
  100SOL    HW1  299   2.057   0.178   2.653 -0.5721 -0.8752  1.7107
  100SOL    HW2  300   1.991   0.155   2.501  0.0112  1.2294  0.8248
  101SOL     OW  301   1.030   0.018   2.105  0.2802  0.3959 -0.1040
  101SOL    HW1  302   1.031   0.110   2.139 -0.1563 -1.1089 -2.6701
  101SOL    HW2  303   0.936   3.075   2.114 -1.9747 -2.2010 -1.0421
  102SOL     OW  304   0.636   0.661   1.771 -0.0443  0.7484 -0.6104
  102SOL    HW1  305   0.596   0.733   1.835 -1.1577  1.1292  3.6422
  102SOL    HW2  306   0.739   0.674   1.749  4.5915 -0.4319  0.9508
  103SOL     OW  307   0.601   1.022   2.992 -0.2009  0.2887  0.1617
  103SOL    HW1  308   0.619   0.959   2.912  1.0818  1.4367  3.0763
  103SOL    HW2  309   0.596   1.121   2.969 -1.2273 -2.3960  0.5620
  104SOL     OW  310   0.723   0.176   1.948  0.2619 -0.4616 -0.5513
  104SOL    HW1  311   0.722   0.093   1.889  2.3541  1.8532  0.9136
  104SOL    HW2  312   0.715   0.145   2.044 -0.2498  0.9096  0.6132
  105SOL     OW  313   2.583   2.569   1.903  0.2179  0.2164 -0.0422
  105SOL    HW1  314   2.609   2.599   1.807 -0.9999  0.2010 -0.6115
  105SOL    HW2  315   2.487   2.539   1.910 -0.6481  0.3369  0.6206
  106SOL     OW  316   0.618   3.040   0.764 -0.4269 -0.6062 -0.3814
  106SOL    HW1  317   0.707   3.086   0.781 -0.8278  0.1193  1.3883
  106SOL    HW2  318   0.623   2.960   0.703  1.0107  0.1427 -1.5179
  107SOL     OW  319   2.827   2.020   1.047 -0.1102  0.6987 -0.5242
  107SOL    HW1  320   2.833   2.120   1.027  0.3786  0.0957 -0.3048
  107SOL    HW2  321   2.729   1.990   1.060 -0.8640  0.0522 -0.0018
  108SOL     OW  322   0.064   2.545   0.596 -0.2442 -0.8276 -0.5407
  108SOL    HW1  323   3.085   2.540   0.657 -1.6437  0.6098  1.5957
  108SOL    HW2  324   0.104   2.451   0.593  0.1456 -0.1648  0.5530
  109SOL     OW  325   1.583   2.746   0.734  0.1773 -0.0954  0.2907
  109SOL    HW1  326   1.553   2.779   0.829  0.2059  0.4061  1.5997
  109SOL    HW2  327   1.626   2.816   0.674  1.3934 -1.9378  1.1576
  110SOL     OW  328   1.734   1.985   0.770  0.0001 -0.0123  0.0018
  110SOL    HW1  329   1.722   1.884   0.768 -1.4216 -2.4162  1.1663
  110SOL    HW2  330   1.747   2.023   0.864 -0.3349 -1.0732 -0.6796
  111SOL     OW  331   1.857   2.657   1.853 -0.6147  0.1711  0.3113
  111SOL    HW1  332   1.951   2.648   1.812 -0.5846 -0.6798  2.7039
  111SOL    HW2  333   1.874   2.671   1.956  0.6687  1.3929  0.8090
  112SOL     OW  334   1.706   2.380   2.522 -0.4175  0.1767  0.6827
  112SOL    HW1  335   1.634   2.424   2.467  0.1367 -1.4144 -1.1152
  112SOL    HW2  336   1.786   2.440   2.542  0.1347 -0.9907 -0.5019
  113SOL     OW  337   2.358   2.143   2.029  0.1649 -0.2030  0.2128
  113SOL    HW1  338   2.297   2.062   2.006  1.2995 -1.4104  0.7005
  113SOL    HW2  339   2.434   2.155   1.959 -0.1089 -2.7613 -0.1025
  114SOL     OW  340   0.116   1.034   1.315  0.3488 -0.0684  0.9069
  114SOL    HW1  341   0.035   1.047   1.368  1.3907  3.0905  0.9597
  114SOL    HW2  342   0.125   0.943   1.274  0.4348  0.1717  0.2000
  115SOL     OW  343   2.502   0.564   2.792 -0.1225  0.5204  0.2457
  115SOL    HW1  344   2.519   0.660   2.831  1.5396  1.0481  0.4537
  115SOL    HW2  345   2.543   0.494   2.853 -4.4743  0.6555 -1.3028
  116SOL     OW  346   2.782   0.348   2.894  0.4386  0.4327  0.2878
  116SOL    HW1  347   2.681   0.335   2.892  0.7519  3.7769 -1.9825
  116SOL    HW2  348   2.833   0.268   2.859 -0.3765  1.6306 -1.4855
  117SOL     OW  349   2.470   2.685   0.777 -0.4386 -0.1510 -0.1888
  117SOL    HW1  350   2.420   2.774   0.803  1.8008  0.5416  1.5486
  117SOL    HW2  351   2.530   2.652   0.857  0.1938  0.3650  3.4417
  118SOL     OW  352   1.059   1.936   2.374 -0.0116  0.0729  0.3853
  118SOL    HW1  353   1.089   1.855   2.319 -0.7263  4.1066  2.0165
  118SOL    HW2  354   1.081   2.025   2.330 -2.2426 -0.5996  0.7685
  119SOL     OW  355   0.723   2.775   0.449 -0.3457  0.6946 -0.2468
  119SOL    HW1  356   0.789   2.855   0.444  0.6825  2.6424 -1.9093
  119SOL    HW2  357   0.756   2.697   0.391 -2.6346  0.1359 -0.0954
  120SOL     OW  358   1.453   0.928   0.632  0.4749 -1.1705 -0.4784
  120SOL    HW1  359   1.470   1.004   0.566 -0.7334 -1.6905  1.8126
  120SOL    HW2  360   1.539   0.875   0.656  1.5113 -2.7705 -0.2872
  121SOL     OW  361   1.808   0.709   1.002 -0.1350  0.0936  0.1486
  121SOL    HW1  362   1.907   0.681   1.023 -0.3945 -1.8667 -1.2102
  121SOL    HW2  363   1.767   0.744   1.088 -0.8334  1.4120  2.0440
  122SOL     OW  364   1.961   1.581   2.234  0.0906 -0.0502 -0.8782
  122SOL    HW1  365   1.990   1.671   2.189  0.3845  0.0843  0.6347
  122SOL    HW2  366   1.887   1.535   2.185  1.3600  2.4988  1.2194
  123SOL     OW  367   0.728   0.816   0.780  0.2785 -0.0603 -0.1226
  123SOL    HW1  368   0.748   0.885   0.853 -1.4896  1.0296  0.5492
  123SOL    HW2  369   0.645   0.758   0.810 -0.1155 -1.8173  0.0276
  124SOL     OW  370   0.742   0.331   2.723  0.1481 -0.0566  0.0180
  124SOL    HW1  371   0.727   0.286   2.810 -0.0521 -0.0829 -2.6203
  124SOL    HW2  372   0.845   0.325   2.712  1.8642 -0.5396  0.8448
  125SOL     OW  373   0.807   0.054   2.899  0.1070  0.6538  0.2395
  125SOL    HW1  374   0.867   0.022   2.974  0.2694  0.8192  0.8156
  125SOL    HW2  375   0.821   0.017   2.805  2.4789  1.1830 -4.5848
  126SOL     OW  376   0.770   1.319   0.158 -0.0758 -0.3035  0.0840
  126SOL    HW1  377   0.801   1.337   0.060 -1.2441  0.6538 -0.6720
  126SOL    HW2  378   0.796   1.401   0.212 -0.0386  3.0985  3.6533
  127SOL     OW  379   1.058   2.545   1.042 -0.3118 -0.2493  0.3266
  127SOL    HW1  380   1.022   2.628   1.089 -1.9931  1.2137  1.7734
  127SOL    HW2  381   1.152   2.567   0.997  2.4040  0.1057 -2.4190
  128SOL     OW  382   1.398   2.004   0.157 -0.1089 -0.0933  0.2461
  128SOL    HW1  383   1.432   1.929   0.102 -1.2658 -0.5284 -0.7332
  128SOL    HW2  384   1.472   2.073   0.172 -0.0839  1.1429 -1.4024
  129SOL     OW  385   1.881   1.458   1.751  0.1761 -0.3164 -0.5096
  129SOL    HW1  386   1.879   1.361   1.718 -0.2157  1.0781 -0.1166
  129SOL    HW2  387   1.801   1.512   1.725 -0.2583  0.9114  1.4640
  130SOL     OW  388   2.143   1.575   1.726 -0.2813 -0.1992 -0.1539
  130SOL    HW1  389   2.047   1.557   1.713  1.2625  0.0776  1.7565
  130SOL    HW2  390   2.200   1.571   1.641  1.5777 -1.1657  1.6025
  131SOL     OW  391   0.944   2.285   2.055  0.6940  0.8460  0.1586
  131SOL    HW1  392   1.016   2.350   2.022  0.5441  1.1359 -2.0482
  131SOL    HW2  393   0.859   2.316   2.007 -0.1418 -0.4950 -2.0663
  132SOL     OW  394   2.604   1.597   0.697 -0.1980  0.3332  0.2845
  132SOL    HW1  395   2.682   1.615   0.758 -0.5610 -2.6022  0.5673
  132SOL    HW2  396   2.536   1.672   0.717 -0.3712  0.9565  1.3764
  133SOL     OW  397   0.797   1.883   1.786  0.3054  0.1932  0.2907
  133SOL    HW1  398   0.710   1.918   1.745 -0.6774 -1.8487 -1.7054
  133SOL    HW2  399   0.830   1.945   1.861  1.3147  1.3480 -0.3369
  134SOL     OW  400   2.979   1.853   0.769  0.2060  0.0266  0.3089
  134SOL    HW1  401   3.059   1.804   0.732 -1.5114  1.1415  1.1257
  134SOL    HW2  402   3.006   1.889   0.860  0.1188  2.1773 -0.5671
  135SOL     OW  403   1.886   1.355   2.715 -0.2026 -0.3920  0.5008
  135SOL    HW1  404   1.951   1.436   2.728  1.5787  0.1420  0.3436
  135SOL    HW2  405   1.914   1.304   2.629  3.8578 -0.6039 -1.4840
  136SOL     OW  406   0.100   1.415   1.268 -0.7432  0.6749 -0.2620
  136SOL    HW1  407   0.183   1.404   1.215 -0.4923 -1.7118  2.7850
  136SOL    HW2  408   0.050   1.497   1.232 -0.0800 -1.3825  1.5608
  137SOL     OW  409   2.356   1.430   3.010  0.5922  0.1622  0.0804
  137SOL    HW1  410   2.337   1.330   3.001 -2.9987 -0.1118 -0.4371
  137SOL    HW2  411   2.413   1.464   2.933 -2.8851  0.5893 -1.5882
  138SOL     OW  412   2.571   0.499   0.772  0.5493  0.1104  0.3059
  138SOL    HW1  413   2.498   0.498   0.701  1.6472  1.1330  0.9092
  138SOL    HW2  414   2.595   0.593   0.798 -1.5546 -3.9348 -0.2547
  139SOL     OW  415   2.315   2.509   2.737  0.2338 -0.5606  0.1733
  139SOL    HW1  416   2.381   2.588   2.750  0.7104  0.0250 -0.9996
  139SOL    HW2  417   2.375   2.432   2.703  1.1371  1.8621  1.9802
  140SOL     OW  418   0.622   1.487   0.995 -0.3599  0.2285 -0.7408
  140SOL    HW1  419   0.604   1.564   0.932 -1.2802 -0.2550 -0.2923
  140SOL    HW2  420   0.590   1.401   0.951  0.5008  1.2621  0.3376
  141SOL     OW  421   1.057   1.297   0.867  0.9981 -0.3343  0.0868
  141SOL    HW1  422   1.116   1.293   0.949 -0.3719  3.1359 -1.3548
  141SOL    HW2  423   1.115   1.319   0.785 -0.8723 -1.2118  1.3865
  142SOL     OW  424   1.213   0.728   1.042 -0.5815  0.1960  0.0203
  142SOL    HW1  425   1.152   0.656   1.072  3.5968  0.8029 -0.9901
  142SOL    HW2  426   1.309   0.698   1.056  1.1807  0.8372  1.4126
  143SOL     OW  427   0.326   0.461   2.963 -0.1825  0.4769 -0.0154
  143SOL    HW1  428   0.243   0.515   2.935 -0.5926  1.6971 -0.5558
  143SOL    HW2  429   0.401   0.461   2.894 -2.0681 -2.1386 -0.0911
  144SOL     OW  430   2.392   0.172   0.426  0.1178  0.2495 -0.2477
  144SOL    HW1  431   2.412   0.072   0.437 -0.7202 -0.5567 -0.2542
  144SOL    HW2  432   2.459   0.214   0.356  3.3690  1.0966 -0.7393
  145SOL     OW  433   2.323   0.011   2.488 -0.4364 -0.4973  0.2350
  145SOL    HW1  434   2.352   0.102   2.527 -1.7994  1.3874 -0.7595
  145SOL    HW2  435   2.226   0.019   2.461  2.1139  1.2549  2.5002
  146SOL     OW  436   3.040   2.789   0.358  0.1400 -0.0645  0.2909
  146SOL    HW1  437   0.005   2.714   0.355  1.0586  1.9984 -0.0892
  146SOL    HW2  438   2.980   2.779   0.271 -0.4040 -1.0810 -4.4008
  147SOL     OW  439   1.505   0.840   2.984  0.0313 -0.5295 -0.0083
  147SOL    HW1  440   1.417   0.791   2.991 -0.7609  1.9384  2.3075
  147SOL    HW2  441   1.583   0.787   3.023  1.2002  1.2510  0.0170
  148SOL     OW  442   1.162   0.054   0.200  0.1354 -0.2133 -0.2495
  148SOL    HW1  443   1.099   0.105   0.258  1.0646 -0.4543  0.1557
  148SOL    HW2  444   1.234   0.114   0.159 -2.2072 -0.7407 -2.3694
  149SOL     OW  445   1.457   1.154   2.725 -0.0734  0.1443 -0.8228
  149SOL    HW1  446   1.512   1.076   2.758  0.3642  0.6033 -0.0060
  149SOL    HW2  447   1.454   1.160   2.623 -0.5122  2.9800 -0.6911
  150SOL     OW  448   1.347   2.819   0.005  0.1117  0.1207 -0.3426
  150SOL    HW1  449   1.382   2.717   0.005  2.0811 -2.7990 -0.3813
  150SOL    HW2  450   1.425   2.881   0.026  0.5948  0.9091 -1.4711
  151SOL     OW  451   0.167   1.285   3.056  0.7781 -0.2178  0.7819
  151SOL    HW1  452   0.076   1.301   3.099 -0.5504  2.5622  0.1376
  151SOL    HW2  453   0.237   1.275   0.027  2.8170 -1.7794 -0.3188
  152SOL     OW  454   0.712   0.323   1.478  0.8090  0.4739  0.4939
  152SOL    HW1  455   0.751   0.259   1.547  0.1942 -1.4761 -0.1619
  152SOL    HW2  456   0.642   0.382   1.527  0.0362  2.0435  0.5112
  153SOL     OW  457   2.503   3.089   1.849 -0.3963 -0.1104  0.2902
  153SOL    HW1  458   2.432   3.082   1.920  0.4419 -1.4583 -1.7273
  153SOL    HW2  459   2.580   0.046   1.872  1.5669 -0.0500 -1.2982
  154SOL     OW  460   2.362   3.006   2.081  0.2409 -0.3937 -0.3333
  154SOL    HW1  461   2.440   2.937   2.071 -0.7882  0.0450  0.7996
  154SOL    HW2  462   2.370   3.068   2.161  3.0340  1.5832  0.4555
  155SOL     OW  463   0.139   1.296   0.409  0.2016  0.3609 -0.2482
  155SOL    HW1  464   0.176   1.203   0.396 -2.6606  0.6344  0.8861
  155SOL    HW2  465   0.119   1.313   0.510 -0.1768  2.9575  0.1286
  156SOL     OW  466   1.851   1.082   0.235  0.5154  0.1447 -0.3747
  156SOL    HW1  467   1.800   1.006   0.278  0.6371 -2.4058 -0.3432
  156SOL    HW2  468   1.932   1.049   0.179 -0.5712 -0.3114 -0.2259
  157SOL     OW  469   1.062   2.603   0.061 -0.1804  0.3031  0.1688
  157SOL    HW1  470   1.149   2.553   0.063 -0.8763  1.0596  2.8407
  157SOL    HW2  471   0.979   2.555   0.031  0.6651 -1.4064 -0.6658
  158SOL     OW  472   1.790   0.884   1.570 -0.1849 -0.0337 -0.4587
  158SOL    HW1  473   1.861   0.901   1.642 -0.4334 -0.4684 -2.6389
  158SOL    HW2  474   1.805   0.931   1.481  3.6283 -2.1381 -0.2799
  159SOL     OW  475   3.076   0.047   0.089  0.4255 -0.4878 -0.2873
  159SOL    HW1  476   0.014   0.002   0.010  0.8973  0.4650  0.8702
  159SOL    HW2  477   0.044   0.107   0.137  1.0602  1.7166  1.8328
  160SOL     OW  478   2.428   1.993   1.661  0.0621 -0.3622  0.4431
  160SOL    HW1  479   2.476   1.986   1.568 -1.8992  0.9170  2.2566
  160SOL    HW2  480   2.348   1.930   1.662 -0.0278  2.3572  0.2057
  161SOL     OW  481   0.146   0.165   0.246 -0.6224 -0.1865  0.1958
  161SOL    HW1  482   0.226   0.169   0.184 -0.5126 -2.2180  0.4893
  161SOL    HW2  483   0.151   0.245   0.308 -0.5153  0.0584  0.1890
  162SOL     OW  484   0.452   0.814   1.931 -0.2061  0.0301  0.8329
  162SOL    HW1  485   0.388   0.738   1.939 -1.6121 -0.0043 -2.0382
  162SOL    HW2  486   0.483   0.847   2.022 -4.8432  1.0401 -1.6095
  163SOL     OW  487   2.750   2.979   2.537  0.7905  0.2497 -0.3243
  163SOL    HW1  488   2.689   3.019   2.462  0.5220  1.1760 -2.1000
  163SOL    HW2  489   2.844   2.971   2.516 -1.4428 -1.4004 -0.2414
  164SOL     OW  490   2.321   1.595   0.136  0.0037 -0.7998  0.5713
  164SOL    HW1  491   2.227   1.632   0.116 -2.1144  0.9883  0.7164
  164SOL    HW2  492   2.342   1.526   0.063  0.6007  1.2696 -1.2100
  165SOL     OW  493   0.206   0.045   1.044 -0.1064  0.3372 -0.4124
  165SOL    HW1  494   0.254   3.068   1.000  2.3967  1.0687 -1.6900
  165SOL    HW2  495   0.277   0.104   1.082  0.8966 -2.0205  0.8459
  166SOL     OW  496   2.934   0.340   0.065 -0.2837  0.2785 -0.6282
  166SOL    HW1  497   2.886   0.318   3.083  0.9254 -2.7685  0.7399
  166SOL    HW2  498   2.979   0.260   0.110  0.7713 -2.1616  1.8754
  167SOL     OW  499   2.105   0.683   0.574  0.2797 -0.1262 -0.0584
  167SOL    HW1  500   2.180   0.736   0.621  0.4790  3.5616  1.6238
  167SOL    HW2  501   2.066   0.607   0.627 -1.9807  0.1191 -0.4934
  168SOL     OW  502   0.973   0.568   2.320  0.2889 -0.5683 -0.0939
  168SOL    HW1  503   1.006   0.568   2.419  1.6538 -0.5533  0.4427
  168SOL    HW2  504   1.039   0.594   2.247  1.3851  2.2550 -1.3811
  169SOL     OW  505   0.575   1.807   1.120 -0.1174 -0.3673 -0.3554
  169SOL    HW1  506   0.513   1.886   1.124 -0.3358  0.7885  1.8914
  169SOL    HW2  507   0.624   1.797   1.033  0.1049 -1.8018  1.7267
  170SOL     OW  508   0.014   0.036   1.569 -0.2505  0.1584  0.2565
  170SOL    HW1  509   0.096   3.098   1.611 -3.8633  0.4961 -0.6350
  170SOL    HW2  510   0.001   3.104   1.476  1.5437  2.2254  2.6567
  171SOL     OW  511   2.426   1.319   2.175  0.1035 -0.2205 -0.6306
  171SOL    HW1  512   2.488   1.398   2.188  0.9940  2.7095 -2.7984
  171SOL    HW2  513   2.379   1.319   2.082 -0.2944 -1.8516  1.8321
  172SOL     OW  514   1.311   2.038   1.027  0.4500 -0.0316 -0.3086
  172SOL    HW1  515   1.222   2.054   1.082 -1.3110 -0.4369 -2.4813
  172SOL    HW2  516   1.353   1.952   1.046  1.1669  0.6512 -0.4665
  173SOL     OW  517   2.218   2.096   3.047 -0.1545 -0.1499  0.0955
  173SOL    HW1  518   2.133   2.126   2.996  1.1914  1.3751  2.1203
  173SOL    HW2  519   2.282   2.174   3.058 -0.0803 -0.2635  0.9425
  174SOL     OW  520   1.752   0.726   0.275 -0.4530  0.2275 -0.4867
  174SOL    HW1  521   1.697   0.655   0.320  0.4699 -0.3938  0.1293
  174SOL    HW2  522   1.851   0.726   0.301  0.8700  1.1754 -2.2261
  175SOL     OW  523   0.678   1.842   1.394  0.7941  0.1053 -0.5372
  175SOL    HW1  524   0.633   1.857   1.304  0.7105  1.5063  0.6244
  175SOL    HW2  525   0.710   1.746   1.413  1.3034  0.7660 -1.0695
  176SOL     OW  526   0.269   0.095   0.537 -0.1860 -0.1357  0.2115
  176SOL    HW1  527   0.343   0.021   0.515  2.1559 -2.4561 -2.4274
  176SOL    HW2  528   0.175   0.066   0.508  4.3881 -1.7775  1.4896
  177SOL     OW  529   3.042   1.311   0.098 -0.2980 -0.3929 -0.3910
  177SOL    HW1  530   2.948   1.311   0.135  0.0182 -1.0372  1.7309
  177SOL    HW2  531   3.101   1.378   0.153 -2.5713  0.1291 -1.3812
  178SOL     OW  532   2.847   2.404   2.008 -0.3581 -0.0581 -0.1742
  178SOL    HW1  533   2.757   2.445   2.002  0.9332  0.1633  0.7453
  178SOL    HW2  534   2.900   2.461   2.073  1.0364 -3.3740  0.2700
  179SOL     OW  535   2.215   3.095   0.020 -0.4076 -0.0670  0.1448
  179SOL    HW1  536   2.244   0.082   3.085 -0.3925  2.4647 -1.2970
  179SOL    HW2  537   2.113   3.087   0.047 -2.1006  0.0811  3.4484
  180SOL     OW  538   2.380   0.522   0.586  0.7772 -0.4746  0.1935
  180SOL    HW1  539   2.311   0.449   0.568  0.1278 -2.5319  0.9147
  180SOL    HW2  540   2.329   0.601   0.627 -1.7990  2.3410  0.1241
  181SOL     OW  541   0.098   3.070   2.581 -0.0246  0.0832 -0.6956
  181SOL    HW1  542   0.057   3.099   2.671  1.9995 -0.3614  1.9997
  181SOL    HW2  543   0.024   3.032   2.519 -2.7045 -0.6532 -0.2752
  182SOL     OW  544   2.636   2.140   2.435 -0.1734 -0.0823  0.5446
  182SOL    HW1  545   2.666   2.224   2.482 -0.5913 -0.4931  2.2755
  182SOL    HW2  546   2.552   2.147   2.380 -2.5880  1.7459  2.0709
  183SOL     OW  547   2.763   0.857   1.480 -0.3805  0.1672 -0.4709
  183SOL    HW1  548   2.818   0.867   1.398 -1.0524  0.5102  1.6732
  183SOL    HW2  549   2.818   0.890   1.560  0.7462  0.6090 -0.3980
  184SOL     OW  550   2.980   1.456   0.925 -0.2434  0.5246 -0.5096
  184SOL    HW1  551   2.997   1.511   1.012  0.8629  0.6366  1.4238
  184SOL    HW2  552   3.036   1.370   0.920 -0.1182  0.3989 -0.5365
  185SOL     OW  553   0.037   0.280   1.243  0.7502 -0.3498  0.2452
  185SOL    HW1  554   0.023   0.176   1.255  2.1223  0.8506 -1.3693
  185SOL    HW2  555   3.090   0.307   1.157  0.2931  1.1567  0.4298
  186SOL     OW  556   2.382   2.500   2.333  0.1338 -0.7111  0.0097
  186SOL    HW1  557   2.325   2.497   2.418  1.8302 -0.1030 -2.2850
  186SOL    HW2  558   2.459   2.568   2.343  0.8399 -1.6242  2.3152
  187SOL     OW  559   0.389   1.227   0.660  0.3125 -0.3252 -0.0538
  187SOL    HW1  560   0.451   1.260   0.583 -0.2863 -2.7431 -0.9653
  187SOL    HW2  561   0.308   1.284   0.673  0.9344 -1.7805  2.6771
  188SOL     OW  562   1.691   1.854   3.070  0.0453  0.0309 -0.6614
  188SOL    HW1  563   1.768   1.916   3.091 -1.6299  0.3263 -0.2535
  188SOL    HW2  564   1.696   1.775   0.026  0.0796 -2.3104 -1.9153
  189SOL     OW  565   0.002   1.719   2.960 -0.2787 -0.2345  0.3680
  189SOL    HW1  566   3.084   1.620   2.966 -2.9791 -0.9966 -0.0602
  189SOL    HW2  567   0.085   1.740   2.900 -2.4050 -0.4481 -0.6977
  190SOL     OW  568   2.240   0.476   2.749 -0.2255  0.1278 -0.0706
  190SOL    HW1  569   2.201   0.539   2.683 -0.6837 -1.1662  1.8679
  190SOL    HW2  570   2.334   0.507   2.770 -1.1734 -0.7256  0.1911
  191SOL     OW  571   0.875   1.369   2.152  0.0899 -0.2465 -0.3522
  191SOL    HW1  572   0.794   1.341   2.101 -2.6839  0.3385 -1.3153
  191SOL    HW2  573   0.863   1.338   2.247  1.2898  1.1713  0.8645
  192SOL     OW  574   1.565   1.252   2.001  0.1960 -0.1454  0.1327
  192SOL    HW1  575   1.493   1.286   1.936  0.1125  0.4244  1.4479
  192SOL    HW2  576   1.632   1.192   1.955  1.5923  0.0668  3.3633
  193SOL     OW  577   0.876   0.033   0.778  0.3903 -0.0306  0.3429
  193SOL    HW1  578   0.944   3.079   0.724  0.2529 -2.9353 -1.8356
  193SOL    HW2  579   0.901   0.039   0.877  0.1928  0.5349  1.1969
  194SOL     OW  580   1.390   1.544   1.605  0.2669 -0.3511  0.1696
  194SOL    HW1  581   1.371   1.531   1.507  2.5888  0.9047  1.4717
  194SOL    HW2  582   1.338   1.623   1.643 -3.8266  0.6484 -0.7480
  195SOL     OW  583   1.554   0.150   0.877 -0.1171  0.0921 -0.0917
  195SOL    HW1  584   1.550   0.228   0.813 -1.1674 -2.9868  0.5665
  195SOL    HW2  585   1.622   0.165   0.951 -1.3467  1.0206 -1.0741
  196SOL     OW  586   0.984   1.697   1.977  0.2101 -0.1275 -0.2610
  196SOL    HW1  587   0.924   1.745   1.908 -2.8835  1.0000 -0.9363
  196SOL    HW2  588   1.039   1.624   1.940 -2.5968  3.2969  2.1800
  197SOL     OW  589   0.623   0.257   2.442 -0.4061  0.6264 -0.3536
  197SOL    HW1  590   0.662   0.300   2.524 -1.8807 -2.7514 -3.4056
  197SOL    HW2  591   0.593   0.159   2.462 -2.5694 -1.9712  0.0463
  198SOL     OW  592   2.924   1.103   1.158 -0.7987 -0.4703  0.0578
  198SOL    HW1  593   2.842   1.152   1.127  3.1901 -0.7627 -2.0169
  198SOL    HW2  594   2.973   1.048   1.084  1.3652 -1.4290 -2.6585
  199SOL     OW  595   0.594   2.275   1.181  0.0588  0.6160  0.2018
  199SOL    HW1  596   0.649   2.238   1.100 -0.2235 -1.5992 -0.7454
  199SOL    HW2  597   0.513   2.330   1.152 -0.6451  0.3472  0.4662
  200SOL     OW  598   2.931   1.918   2.656  0.0267 -0.2440  0.1265
  200SOL    HW1  599   2.958   2.014   2.677 -2.0606  1.0743  0.5307
  200SOL    HW2  600   2.928   1.863   2.742  0.8450  2.4088  0.3063
  201SOL     OW  601   0.944   2.433   1.357 -0.4170  0.1573 -0.0456
  201SOL    HW1  602   1.037   2.427   1.327 -4.0556 -1.4772  0.2616
  201SOL    HW2  603   0.913   2.342   1.391  1.2491 -1.0922 -2.1771
  202SOL     OW  604   0.851   2.592   0.302  0.6587  0.5521 -0.0331
  202SOL    HW1  605   0.878   2.496   0.294  1.1356  1.3202  1.6060
  202SOL    HW2  606   0.845   2.634   0.212  2.1827 -1.9303  2.6792
  203SOL     OW  607   2.069   0.017   2.391  0.1823  0.1328 -0.6657
  203SOL    HW1  608   2.062   3.102   2.292 -0.2107 -0.0496 -0.5049
  203SOL    HW2  609   2.024   3.043   2.445 -0.9647 -0.5973 -0.1518
  204SOL     OW  610   0.220   1.355   1.515  0.1788  0.0711  0.2283
  204SOL    HW1  611   0.152   1.350   1.441  1.2614  1.1794  1.8858
  204SOL    HW2  612   0.311   1.339   1.480 -1.0840  1.1807 -0.9133
  205SOL     OW  613   2.341   1.287   2.426  0.2681  0.2774  0.2866
  205SOL    HW1  614   2.355   1.290   2.327  0.6949 -0.0744  0.0934
  205SOL    HW2  615   2.255   1.336   2.453  1.9489 -1.5991  1.7376
  206SOL     OW  616   0.136   2.269   2.471 -0.4037 -0.4056 -0.8384
  206SOL    HW1  617   0.097   2.297   2.382  1.3686  0.7447 -1.3140
  206SOL    HW2  618   0.236   2.277   2.469  1.3631 -0.8509  0.2719
  207SOL     OW  619   0.641   2.774   1.780  0.1085  0.0050  0.3049
  207SOL    HW1  620   0.574   2.755   1.857 -3.3923 -2.5641 -1.8326
  207SOL    HW2  621   0.654   2.688   1.723  0.1773 -1.9831 -0.6691
  208SOL     OW  622   0.005   2.658   1.354  0.5980  0.0572  0.0466
  208SOL    HW1  623   0.008   2.709   1.444  1.4358 -1.4445  0.4362
  208SOL    HW2  624   0.083   2.678   1.296 -0.7012 -2.3687  1.3092
  209SOL     OW  625   1.190   2.681   2.348  0.2623  0.0859  0.3426
  209SOL    HW1  626   1.130   2.608   2.388  1.9867  1.0163 -2.7812
  209SOL    HW2  627   1.270   2.701   2.408 -2.4822 -1.5258 -1.1503
  210SOL     OW  628   2.749   1.086   2.110  0.2905 -0.5604 -0.1435
  210SOL    HW1  629   2.807   1.013   2.157  0.9519 -0.3572 -1.0275
  210SOL    HW2  630   2.670   1.113   2.172  0.6470  1.7591  0.0357
  211SOL     OW  631   1.350   0.034   2.141  0.1657 -0.0429 -0.4652
  211SOL    HW1  632   1.404   3.071   2.089 -4.3467  0.8842  1.3287
  211SOL    HW2  633   1.252   0.043   2.104  0.8356  1.4900  0.2252
  212SOL     OW  634   1.492   2.808   1.471 -0.7590 -0.2003  0.3342
  212SOL    HW1  635   1.465   2.900   1.509 -1.4183  2.2569  1.2235
  212SOL    HW2  636   1.592   2.786   1.466  0.4233 -0.6890  0.0489
  213SOL     OW  637   2.341   0.628   1.679  0.2058  0.1000  0.2454
  213SOL    HW1  638   2.322   0.590   1.584 -0.4547 -0.1605  1.0717
  213SOL    HW2  639   2.439   0.613   1.711  1.3674  1.5494 -2.7150
  214SOL     OW  640   0.706   2.167   0.956  0.2783 -0.3081  0.6432
  214SOL    HW1  641   0.796   2.217   0.949 -0.8661 -0.4890 -0.4623
  214SOL    HW2  642   0.648   2.190   0.871 -2.4892 -1.2747 -2.0547
  215SOL     OW  643   2.350   1.837   0.644 -0.1135  0.4679 -0.3174
  215SOL    HW1  644   2.448   1.863   0.620  2.3423 -0.9253 -0.0137
  215SOL    HW2  645   2.283   1.917   0.636 -2.8285  3.0733  0.5272
  216SOL     OW  646   2.818   0.703   1.861 -0.1388 -0.2485 -0.3053
  216SOL    HW1  647   2.829   0.805   1.851  0.0421 -1.2614 -0.2087
  216SOL    HW2  648   2.737   0.670   1.809 -1.1254 -0.2209 -2.9617
  217SOL     OW  649   2.186   0.333   1.315  0.1380  0.2842  0.1799
  217SOL    HW1  650   2.240   0.321   1.232 -1.9046  0.0980  2.4631
  217SOL    HW2  651   2.084   0.327   1.292  0.3980 -0.2292  1.0016
  218SOL     OW  652   1.924   2.286   1.198 -0.4242 -0.1681 -0.4282
  218SOL    HW1  653   1.908   2.325   1.108 -0.4052 -1.3018  0.3355
  218SOL    HW2  654   1.879   2.343   1.271 -3.0058  4.0833  1.3524
  219SOL     OW  655   1.826   2.259   3.088 -0.1560 -0.0232 -0.0801
  219SOL    HW1  656   1.824   2.280   2.989  2.3410 -0.1812 -1.9516
  219SOL    HW2  657   1.847   2.339   0.033 -0.7362  0.1185 -0.4258
  220SOL     OW  658   1.733   2.655   0.191 -0.2266  0.7249  0.2304
  220SOL    HW1  659   1.671   2.627   0.268 -2.3630 -2.2506  1.8100
  220SOL    HW2  660   1.808   2.585   0.179  0.0199 -1.0875  1.8500
  221SOL     OW  661   0.111   2.559   1.801 -0.6889 -0.1987 -0.3199
  221SOL    HW1  662   0.108   2.460   1.775  0.0810 -0.6137  1.1473
  221SOL    HW2  663   0.095   2.569   1.903 -0.3256  0.1441  1.5890
  222SOL     OW  664   1.891   2.473   1.004  0.2925  0.6734 -0.2104
  222SOL    HW1  665   1.940   2.560   1.023  0.8654 -1.3262  1.3220
  222SOL    HW2  666   1.902   2.441   0.908 -1.7063  3.2139  2.3160
  223SOL     OW  667   1.326   2.414   1.724  0.0610 -0.0270 -0.1257
  223SOL    HW1  668   1.408   2.471   1.721  1.2605  1.5081 -1.1918
  223SOL    HW2  669   1.342   2.316   1.738 -1.0224  0.2670 -1.5668
  224SOL     OW  670   2.656   2.384   1.330 -0.0560  0.1051  0.6330
  224SOL    HW1  671   2.733   2.357   1.271 -2.5986 -0.2088  0.1272
  224SOL    HW2  672   2.688   2.404   1.428  0.6424 -0.2332 -0.7669
  225SOL     OW  673   2.171   2.047   0.692 -0.4009 -0.2556  0.1244
  225SOL    HW1  674   2.077   2.066   0.657 -0.7049 -0.1768 -1.1376
  225SOL    HW2  675   2.172   2.053   0.797  0.1902  1.6798  1.6737
  226SOL     OW  676   1.370   2.503   0.416  0.0590  0.1079 -0.1862
  226SOL    HW1  677   1.405   2.405   0.419  2.2676  0.9807 -1.5229
  226SOL    HW2  678   1.303   2.517   0.492  1.2201 -0.4606 -2.3353
  227SOL     OW  679   2.170   1.010   0.828 -0.3150  0.0379  0.1297
  227SOL    HW1  680   2.101   0.992   0.902  3.7150  0.9915  0.3734
  227SOL    HW2  681   2.117   1.008   0.739 -0.2046 -1.5864 -2.5928
  228SOL     OW  682   1.643   0.398   0.033  0.7992  0.0769  0.0596
  228SOL    HW1  683   1.603   0.327   3.078 -0.9713 -1.6603 -1.5317
  228SOL    HW2  684   1.566   0.461   0.058  0.4957 -2.4789 -1.2644
  229SOL     OW  685   2.687   1.006   2.435  0.2685 -0.5461  0.6473
  229SOL    HW1  686   2.660   0.946   2.513  1.0873 -0.2541 -1.7718
  229SOL    HW2  687   2.789   1.003   2.416  1.3657 -2.5577  0.3085
  230SOL     OW  688   0.320   1.306   0.992  0.0050  0.8387 -0.4863
  230SOL    HW1  689   0.321   1.257   1.081  3.4035  0.4595 -1.5932
  230SOL    HW2  690   0.399   1.279   0.931 -0.5739 -0.3195 -0.0245
  231SOL     OW  691   2.466   0.251   2.550 -0.5260 -0.9203 -0.1552
  231SOL    HW1  692   2.404   0.306   2.488 -1.9058 -2.1972 -1.1401
  231SOL    HW2  693   2.560   0.250   2.514  3.0664  0.7610 -0.0983
  232SOL     OW  694   2.892   2.211   0.373 -0.2997  0.1829  0.2725
  232SOL    HW1  695   2.884   2.138   0.446 -3.9734 -2.1427  1.5638
  232SOL    HW2  696   2.863   2.299   0.411  1.3014 -1.3158 -0.5180
  233SOL     OW  697   1.518   2.518   2.341 -0.2364  0.4101  0.1031
  233SOL    HW1  698   1.498   2.615   2.349 -3.0290 -0.1861 -1.4339
  233SOL    HW2  699   1.566   2.497   2.253  0.2520 -0.6240  0.3752
  234SOL     OW  700   1.324   1.781   1.385  0.5401 -0.4402 -0.2684
  234SOL    HW1  701   1.378   1.833   1.454 -1.2760  2.1032 -0.2090
  234SOL    HW2  702   1.374   1.767   1.300  0.1853 -0.0548  0.5566
  235SOL     OW  703   1.022   1.802   1.627  0.1109 -0.3024 -0.1627
  235SOL    HW1  704   0.944   1.846   1.675 -0.1333  1.3274  1.9855
  235SOL    HW2  705   1.030   1.702   1.652  1.6788 -1.0245 -0.7179
  236SOL     OW  706   1.062   2.826   2.980 -0.3508  0.4683 -0.0282
  236SOL    HW1  707   1.067   2.749   3.048  0.0106 -3.4504  1.4333
  236SOL    HW2  708   1.153   2.845   2.931  1.0550 -0.7129  2.0260
  237SOL     OW  709   0.878   0.157   1.625  0.6386  0.2163 -0.0967
  237SOL    HW1  710   0.927   0.107   1.550 -1.1366  1.3972 -0.4835
  237SOL    HW2  711   0.829   0.091   1.688 -3.7590  0.1547 -0.0621
  238SOL     OW  712   1.365   0.811   0.288 -0.1253  0.1716  0.2479
  238SOL    HW1  713   1.275   0.816   0.334 -0.4593  0.1885 -2.1065
  238SOL    HW2  714   1.383   0.897   0.232  0.4874  1.0606 -2.1856
  239SOL     OW  715   2.518   0.840   2.928 -0.5417  0.0882  0.2388
  239SOL    HW1  716   2.423   0.801   2.951 -0.5674 -2.1868 -0.7769
  239SOL    HW2  717   2.545   0.926   2.967 -1.5459 -0.8876 -0.6393
  240SOL     OW  718   2.540   2.121   0.825  0.3304  0.0613 -0.1805
  240SOL    HW1  719   2.556   2.094   0.922 -0.9652 -0.9702  1.7792
  240SOL    HW2  720   2.527   2.040   0.760 -3.1484 -0.6801  0.1320
  241SOL     OW  721   0.889   1.489   0.985 -0.0318 -0.0619  0.1973
  241SOL    HW1  722   0.949   1.426   0.931  1.5090  2.1221 -0.6295
  241SOL    HW2  723   0.791   1.457   0.994 -1.4670  1.5813  1.0860
  242SOL     OW  724   0.877   0.392   0.958  0.7334 -0.3342 -0.3700
  242SOL    HW1  725   0.919   0.375   0.868  3.3351 -1.5251  0.3816
  242SOL    HW2  726   0.789   0.341   0.967  2.4617  0.0945  0.0486
  243SOL     OW  727   0.443   0.429   1.214  0.0098  0.1048 -0.0433
  243SOL    HW1  728   0.344   0.426   1.199  1.6414  1.3576 -1.6477
  243SOL    HW2  729   0.467   0.529   1.232 -0.6709  3.6142  0.5608
  244SOL     OW  730   1.166   0.120   0.496  0.0871 -0.3315 -0.0763
  244SOL    HW1  731   1.134   0.047   0.562 -0.5325 -1.7661  2.1999
  244SOL    HW2  732   1.083   0.161   0.452 -1.3019  0.0951  0.3663
  245SOL     OW  733   2.042   0.721   0.305 -0.4685 -0.0710 -0.4058
  245SOL    HW1  734   2.060   0.708   0.409  0.0559 -0.9693 -0.0005
  245SOL    HW2  735   2.130   0.756   0.257  3.0215 -0.8086 -0.7893
  246SOL     OW  736   0.513   0.308   1.869 -0.6364  0.7381 -0.1745
  246SOL    HW1  737   0.601   0.256   1.874  3.1711 -1.6477  0.8248
  246SOL    HW2  738   0.520   0.391   1.812  1.1870 -2.8822  2.0311
  247SOL     OW  739   1.032   3.019   1.743 -0.0082 -0.3480  0.0162
  247SOL    HW1  740   1.087   0.001   1.745  0.9579 -2.7673 -0.0657
  247SOL    HW2  741   1.052   2.952   1.669  1.9264  2.0739 -0.5785
  248SOL     OW  742   0.565   1.626   2.013 -0.4046 -0.1623 -0.0527
  248SOL    HW1  743   0.630   1.612   1.935 -1.2495 -1.1423  0.4769
  248SOL    HW2  744   0.617   1.662   2.093  0.1803 -0.4302  0.6439
  249SOL     OW  745   0.352   2.457   0.179 -0.1711  0.3018 -0.5608
  249SOL    HW1  746   0.290   2.537   0.173  0.7937 -0.5548  0.9101
  249SOL    HW2  747   0.375   2.435   0.277  2.4690  1.8158 -0.5989
  250SOL     OW  748   0.976   0.352   1.928 -0.2245 -0.2192 -0.8593
  250SOL    HW1  749   0.900   0.294   1.965 -0.9195  0.3603  0.3060
  250SOL    HW2  750   0.973   0.367   1.826  1.4918 -1.1672  0.1389
  251SOL     OW  751   2.741   2.042   1.443 -0.0548  0.6328  0.3983
  251SOL    HW1  752   2.701   1.951   1.466 -2.2571 -0.8878 -1.6563
  251SOL    HW2  753   2.691   2.082   1.362  0.6375 -0.9275 -0.1770
  252SOL     OW  754   1.601   0.211   1.803  0.0086  0.2325  0.1945
  252SOL    HW1  755   1.529   0.226   1.875  0.6099  0.8647  1.3548
  252SOL    HW2  756   1.609   0.113   1.772 -0.4390  2.2437 -1.1711
  253SOL     OW  757   2.105   1.802   2.126 -0.2813  0.4955  0.4517
  253SOL    HW1  758   2.113   1.883   2.057 -3.9371 -0.7778  0.2101
  253SOL    HW2  759   2.140   1.829   2.223  0.1782 -0.0818  0.8079
  254SOL     OW  760   0.561   1.522   1.259 -0.4431 -0.7093  0.3932
  254SOL    HW1  761   0.631   1.570   1.316 -0.4834 -2.8404 -1.2564
  254SOL    HW2  762   0.594   1.516   1.162  1.4034 -1.8850 -3.1835
  255SOL     OW  763   0.455   3.013   1.665  0.4225 -0.1459 -0.2134
  255SOL    HW1  764   0.521   2.940   1.688 -0.3768  2.6968 -2.6766
  255SOL    HW2  765   0.357   2.982   1.646 -0.5941  0.7919 -0.7108
  256SOL     OW  766   0.221   2.797   0.612 -0.6013 -0.5050 -0.1136
  256SOL    HW1  767   0.155   2.722   0.609  1.9532  2.1381  0.1953
  256SOL    HW2  768   0.309   2.774   0.569  0.0953  1.5758  1.0479
  257SOL     OW  769   1.045   2.492   2.470  0.1602  0.0307 -0.5980
  257SOL    HW1  770   1.039   2.396   2.509  0.5157 -1.9341  1.2040
  257SOL    HW2  771   0.952   2.525   2.447  0.1837  2.5938 -1.4019
  258SOL     OW  772   1.503   2.126   1.986  1.2842 -0.3097 -0.1453
  258SOL    HW1  773   1.479   2.041   2.038 -1.7295 -0.6444 -0.8956
  258SOL    HW2  774   1.439   2.125   1.902 -4.6526  1.8444 -2.2966
  259SOL     OW  775   0.895   1.014   2.243 -0.3258 -0.4236 -0.0151
  259SOL    HW1  776   0.881   0.956   2.161 -0.4021 -0.0767 -1.1786
  259SOL    HW2  777   0.808   1.033   2.287 -0.8803 -3.8894 -1.1176
  260SOL     OW  778   2.597   0.575   2.513  0.1073 -0.1967  0.3191
  260SOL    HW1  779   2.548   0.560   2.595 -0.2692  0.9164 -4.5537
  260SOL    HW2  780   2.611   0.486   2.463 -0.1479 -1.8267 -0.2205
  261SOL     OW  781   0.818   1.201   0.777 -0.2305  0.5190 -0.3028
  261SOL    HW1  782   0.913   1.228   0.811 -1.1179  1.5561  1.1707
  261SOL    HW2  783   0.806   1.236   0.682  2.3273  1.3602 -1.7522
  262SOL     OW  784   2.294   2.050   2.684 -0.3663 -0.3258  0.1094
  262SOL    HW1  785   2.236   1.964   2.681  1.7291 -1.3240 -0.2411
  262SOL    HW2  786   2.386   2.032   2.724 -1.1907  0.8146 -2.3212
  263SOL     OW  787   0.642   2.732   1.000  0.7977  0.1105 -0.1330
  263SOL    HW1  788   0.721   2.794   0.991 -0.7830 -2.7305 -1.3999
  263SOL    HW2  789   0.661   2.656   1.064 -1.7429 -1.0041 -0.6541
  264SOL     OW  790   2.878   2.241   0.101 -0.2329  0.4276  0.3562
  264SOL    HW1  791   2.872   2.211   0.198 -1.5652 -0.3320  2.1977
  264SOL    HW2  792   2.876   2.158   0.041 -2.3594 -1.7325  1.2615
  265SOL     OW  793   2.078   1.012   2.610  0.1970 -0.0025 -0.1101
  265SOL    HW1  794   2.031   1.078   2.545 -0.3088 -1.1565 -1.3094
  265SOL    HW2  795   2.180   1.023   2.597  0.2802 -0.4417 -3.8708
  266SOL     OW  796   1.350   1.920   2.108  0.7464 -0.4227 -0.5157
  266SOL    HW1  797   1.320   1.887   2.199  1.6706 -2.2315  0.2670
  266SOL    HW2  798   1.268   1.958   2.057  1.0033  0.1956  3.4504
  267SOL     OW  799   2.332   0.789   2.471 -0.2618  0.2397 -0.3190
  267SOL    HW1  800   2.422   0.759   2.429  1.5912  0.5173  1.6196
  267SOL    HW2  801   2.333   0.891   2.488  0.7564  0.9570 -0.4557
  268SOL     OW  802   1.061   1.161   2.966  0.2614 -0.4243  0.5184
  268SOL    HW1  803   0.992   1.233   2.992  0.6199  0.5427 -0.4853
  268SOL    HW2  804   1.142   1.193   2.907  0.2791 -0.2794 -0.3394
  269SOL     OW  805   3.000   1.841   1.788 -0.4283 -0.2166 -0.3831
  269SOL    HW1  806   3.009   1.848   1.687 -0.0234 -0.3806  1.3360
  269SOL    HW2  807   2.907   1.821   1.811  3.0220 -0.1677 -0.2421
  270SOL     OW  808   0.171   1.871   0.051 -0.1488  0.6320  0.1604
  270SOL    HW1  809   0.141   1.856   0.148 -2.3995  0.2832  0.6652
  270SOL    HW2  810   0.094   1.844   3.091 -0.5682 -0.0218  2.5290
  271SOL     OW  811   0.122   0.430   0.400  0.2383  0.0817  0.1253
  271SOL    HW1  812   0.198   0.461   0.463 -0.7585 -1.6444  0.3697
  271SOL    HW2  813   0.087   0.512   0.353  0.4714  0.1869 -1.2526
  272SOL     OW  814   0.054   3.041   0.388  0.5100 -0.1746  0.4068
  272SOL    HW1  815   0.040   3.093   0.303  1.7842 -0.0804 -0.4825
  272SOL    HW2  816   0.000   2.954   0.391  2.0826  0.9340 -0.4919
  273SOL     OW  817   0.333   2.998   2.005 -0.1857  0.8736  0.3424
  273SOL    HW1  818   0.248   3.012   2.062 -1.6792  0.6457  1.1386
  273SOL    HW2  819   0.329   3.051   1.916 -1.5681 -0.1730 -1.7131
  274SOL     OW  820   0.200   0.487   1.301  0.7389  0.2556  0.2879
  274SOL    HW1  821   0.134   0.406   1.280 -0.0499  0.1470  1.7145
  274SOL    HW2  822   0.191   0.513   1.397  2.2960  0.2995  0.7574
  275SOL     OW  823   1.049   1.624   1.141  0.1452 -0.1284  0.4471
  275SOL    HW1  824   1.034   1.607   1.240 -0.9178  0.4246 -0.5678
  275SOL    HW2  825   0.987   1.572   1.072 -0.3237 -0.7374  0.2002
  276SOL     OW  826   0.426   1.378   1.958 -0.0659  0.0270 -0.0355
  276SOL    HW1  827   0.456   1.468   2.000 -1.2613 -0.6893  1.1448
  276SOL    HW2  828   0.348   1.338   2.014 -2.8867  1.1923  0.4076
  277SOL     OW  829   1.157   1.993   1.924 -0.2583  0.0743  0.3606
  277SOL    HW1  830   1.057   1.981   1.943 -0.1337 -0.6732  1.5897
  277SOL    HW2  831   1.182   2.081   1.879  0.7122 -1.7486 -0.7806
  278SOL     OW  832   2.283   2.685   2.125 -0.2682 -0.2105 -0.7427
  278SOL    HW1  833   2.232   2.746   2.183 -0.3024 -1.2330 -1.8133
  278SOL    HW2  834   2.302   2.600   2.179 -2.3656 -3.0599 -0.2852
  279SOL     OW  835   1.530   1.652   2.818 -0.1549  0.5693 -0.1550
  279SOL    HW1  836   1.582   1.576   2.775  0.6726  1.2190 -0.6484
  279SOL    HW2  837   1.596   1.703   2.878 -0.3440  0.2257 -0.9361
  280SOL     OW  838   1.592   0.399   0.477  0.1729 -0.1165 -0.0715
  280SOL    HW1  839   1.596   0.363   0.572 -0.8729  0.0964  1.6147
  280SOL    HW2  840   1.576   0.500   0.470 -0.2444  1.7322 -1.6540
  281SOL     OW  841   0.536   0.463   1.614 -0.0965 -0.2684 -0.3085
  281SOL    HW1  842   0.447   0.483   1.573  1.2536 -1.5744 -0.6107
  281SOL    HW2  843   0.578   0.548   1.658  2.7206 -0.4858 -0.3029
  282SOL     OW  844   0.042   3.005   0.667  0.8294 -0.5903  0.4071
  282SOL    HW1  845   0.020   3.018   0.568  3.2376  1.5553  0.4406
  282SOL    HW2  846   0.114   2.935   0.673 -0.8001 -0.3213  2.7484
  283SOL     OW  847   1.440   2.145   1.416 -0.0035 -0.7987 -0.5977
  283SOL    HW1  848   1.356   2.163   1.363  0.9838  1.0899 -0.6657
  283SOL    HW2  849   1.423   2.083   1.494  1.2526  3.2287  1.5783
  284SOL     OW  850   2.424   2.766   1.193  0.3461  0.4225 -0.2585
  284SOL    HW1  851   2.517   2.729   1.219  1.4801 -0.5982 -0.6004
  284SOL    HW2  852   2.382   2.720   1.112 -2.2718 -0.8611 -0.7062
  285SOL     OW  853   0.543   2.215   0.736 -0.4893  0.0630  0.4730
  285SOL    HW1  854   0.496   2.300   0.775  2.3886  1.8705 -1.2259
  285SOL    HW2  855   0.519   2.194   0.639 -1.0535  4.1233 -0.2495
  286SOL     OW  856   3.103   2.725   1.622  0.0693  0.0339  0.1483
  286SOL    HW1  857   3.037   2.781   1.675  1.2006  2.1520  4.4471
  286SOL    HW2  858   0.038   2.658   1.684 -0.0541  1.4193 -0.0111
  287SOL     OW  859   0.564   1.276   0.863  0.1577 -0.3392  0.4326
  287SOL    HW1  860   0.659   1.245   0.853 -0.4729  2.9962 -0.0255
  287SOL    HW2  861   0.506   1.248   0.787 -1.1799 -1.2834  2.5390
  288SOL     OW  862   1.229   1.826   2.564  0.3230  0.0912 -0.3038
  288SOL    HW1  863   1.331   1.805   2.564  1.5311 -0.6126  0.9676
  288SOL    HW2  864   1.195   1.873   2.483  2.3343  1.1969 -0.0735
  289SOL     OW  865   2.518   1.553   2.826 -0.0736 -0.2236 -0.6827
  289SOL    HW1  866   2.544   1.622   2.896  0.0298 -1.4976 -2.3716
  289SOL    HW2  867   2.451   1.590   2.755 -2.3363 -1.3853  0.0025
  290SOL     OW  868   1.270   1.282   1.056 -0.2868  0.1093  0.1247
  290SOL    HW1  869   1.277   1.250   1.151  2.9470  1.0897 -1.2260
  290SOL    HW2  870   1.310   1.375   1.049 -1.7639 -3.4722 -3.4282
  291SOL     OW  871   1.393   0.996   0.078  0.4500 -0.1438 -0.0284
  291SOL    HW1  872   1.450   0.986   3.097  1.2815  0.3647 -2.0769
  291SOL    HW2  873   1.295   0.985   0.066  0.9380  0.4665  2.2151
  292SOL     OW  874   1.731   1.644   0.183  0.0851 -0.3645  0.1105
  292SOL    HW1  875   1.793   1.566   0.165  0.8670 -3.0316  2.3807
  292SOL    HW2  876   1.654   1.615   0.242 -0.4727  0.3853 -1.1544
  293SOL     OW  877   1.561   3.030   1.055 -0.1654  0.1854  0.4015
  293SOL    HW1  878   1.516   3.057   1.140  0.2975 -1.0188 -1.4483
  293SOL    HW2  879   1.556   0.000   0.983 -0.0598 -3.7883 -0.4239
  294SOL     OW  880   2.205   1.014   0.296 -0.0565 -0.1088 -0.3663
  294SOL    HW1  881   2.288   0.966   0.334 -0.3495 -1.4958  1.1302
  294SOL    HW2  882   2.214   1.119   0.300 -0.5985  2.0539  3.0578
  295SOL     OW  883   1.911   1.988   2.724 -0.1288  0.0197  0.4782
  295SOL    HW1  884   1.822   2.008   2.770 -1.1553 -0.6758 -1.6594
  295SOL    HW2  885   1.885   1.971   2.627 -0.1719 -0.4349 -2.8537
  296SOL     OW  886   1.357   1.410   1.354 -0.1103 -0.2081  0.1314
  296SOL    HW1  887   1.360   1.457   1.262  0.8846  1.7898 -2.4063
  296SOL    HW2  888   1.274   1.351   1.358 -0.9979 -0.6636  0.1677
  297SOL     OW  889   0.162   0.810   2.588  0.6604 -0.4736 -0.1846
  297SOL    HW1  890   0.248   0.762   2.604 -0.4663  0.2611 -1.1813
  297SOL    HW2  891   0.091   0.794   2.655 -0.8427 -2.7541 -2.8349
  298SOL     OW  892   1.597   2.311   1.279 -0.0021 -0.3305 -0.2303
  298SOL    HW1  893   1.576   2.224   1.331  1.8980 -0.9307 -0.6883
  298SOL    HW2  894   1.642   2.382   1.345  0.1737  1.0006 -1.6603
  299SOL     OW  895   1.129   0.545   2.535  0.5718 -0.0362 -0.2814
  299SOL    HW1  896   1.183   0.613   2.591  0.3818  1.5765  0.4466
  299SOL    HW2  897   1.120   0.450   2.579 -0.9463 -0.4741 -0.6336
  300SOL     OW  898   2.383   1.490   0.439 -0.3274  0.1244  0.2077
  300SOL    HW1  899   2.472   1.537   0.427  2.9571  0.0545 -0.5759
  300SOL    HW2  900   2.298   1.549   0.431 -2.7239 -3.3753  1.0972
  301SOL     OW  901   2.178   0.207   2.795 -0.1388 -0.2522  0.0138
  301SOL    HW1  902   2.176   0.300   2.752 -1.5503  0.3427  0.3945
  301SOL    HW2  903   2.221   0.214   2.890  1.5490  0.4357  0.4290
  302SOL     OW  904   2.661   1.916   2.607  0.0694 -0.4786 -0.2841
  302SOL    HW1  905   2.764   1.899   2.608  2.5711  0.8957  3.1140
  302SOL    HW2  906   2.646   1.994   2.542  0.1336 -0.5483 -0.2607
  303SOL     OW  907   0.414   2.551   2.185  0.0367  0.2822  0.2036
  303SOL    HW1  908   0.504   2.585   2.219 -2.6966  0.2436 -0.4221
  303SOL    HW2  909   0.414   2.452   2.163  0.5021 -0.1668  2.8861
  304SOL     OW  910   2.692   1.313   1.316  0.2697 -0.0739 -0.1968
  304SOL    HW1  911   2.751   1.249   1.369 -1.9548 -0.8565  2.0509
  304SOL    HW2  912   2.718   1.311   1.214 -0.6176 -1.5104 -1.6720
  305SOL     OW  913   0.383   0.383   2.095 -0.2294 -0.1358  0.1456
  305SOL    HW1  914   0.421   0.356   2.006  0.5119 -1.6183  4.1971
  305SOL    HW2  915   0.360   0.290   2.132 -0.9721 -1.3126  0.1978
  306SOL     OW  916   1.277   1.545   0.726  0.3659  0.2198  0.3435
  306SOL    HW1  917   1.259   1.452   0.685 -0.3522 -1.3871 -2.9125
  306SOL    HW2  918   1.317   1.610   0.658  0.2039  0.6000  0.1110
  307SOL     OW  919   2.823   0.037   0.988  0.3266 -0.3642 -0.5844
  307SOL    HW1  920   2.749   0.038   0.918  0.5273 -1.2384 -0.2095
  307SOL    HW2  921   2.912   0.010   0.946 -1.7650 -1.1949  0.1358
  308SOL     OW  922   2.917   1.339   2.712 -0.0947 -0.1356  0.4541
  308SOL    HW1  923   2.839   1.398   2.687  0.0988  1.7032 -3.9927
  308SOL    HW2  924   2.908   1.253   2.651 -0.8616 -2.6546 -2.3505
  309SOL     OW  925   2.956   1.855   2.408 -0.7113 -0.1171 -0.5917
  309SOL    HW1  926   3.011   1.771   2.416  1.1889  0.9297  2.0983
  309SOL    HW2  927   2.947   1.906   2.498  1.0900 -0.5506 -0.5950
  310SOL     OW  928   2.277   0.416   0.126 -0.3166  0.0377 -0.7771
  310SOL    HW1  929   2.318   0.509   0.121  1.2811 -1.9496  0.0545
  310SOL    HW2  930   2.191   0.414   0.187 -0.6093 -1.5063 -0.4674
  311SOL     OW  931   2.128   1.011   2.878  0.0809 -0.3405  0.9838
  311SOL    HW1  932   2.114   1.041   2.777  0.8214 -0.1630 -2.6993
  311SOL    HW2  933   2.046   0.979   2.929 -0.6778  0.2687  0.9424
  312SOL     OW  934   1.191   1.517   1.929 -0.5069 -0.2704  0.1805
  312SOL    HW1  935   1.279   1.567   1.948 -1.2934 -1.9379 -0.0271
  312SOL    HW2  936   1.188   1.427   1.981  3.1233  0.5415  0.8164
  313SOL     OW  937   0.100   0.685   0.272  0.1156  0.0443 -0.0979
  313SOL    HW1  938   0.178   0.686   0.205  4.2592 -3.2089 -2.9034
  313SOL    HW2  939   0.010   0.661   0.226 -0.4761 -0.7490 -4.6713
  314SOL     OW  940   0.298   1.978   1.388  0.1121 -0.0499  0.0948
  314SOL    HW1  941   0.339   2.017   1.464 -1.4578  0.0742  0.0147
  314SOL    HW2  942   0.253   1.888   1.403  3.3089 -0.1045  1.2999
  315SOL     OW  943   1.068   1.616   1.405 -0.0010 -0.3642  0.2727
  315SOL    HW1  944   1.108   1.546   1.473 -0.7021 -0.9841  0.6001
  315SOL    HW2  945   1.117   1.705   1.420 -1.4428  1.6835  1.2856
  316SOL     OW  946   0.180   2.300   0.561 -0.5731 -0.4954  0.1686
  316SOL    HW1  947   0.140   2.265   0.473  2.5309 -0.0008 -1.7615
  316SOL    HW2  948   0.269   2.344   0.536 -0.6596 -0.8777 -2.6725
  317SOL     OW  949   2.611   0.075   1.336 -0.3432  0.7771  0.0317
  317SOL    HW1  950   2.644   0.140   1.408 -1.1257 -1.3582  1.6345
  317SOL    HW2  951   2.685   0.010   1.303 -1.6506  1.1734 -0.4084
  318SOL     OW  952   1.213   2.896   0.235 -0.1291  0.7814 -0.0813
  318SOL    HW1  953   1.248   2.867   0.146 -2.0805  0.9525  0.2676
  318SOL    HW2  954   1.182   2.993   0.231  1.7073  0.3456 -0.3527
  319SOL     OW  955   1.747   0.270   2.795 -0.3902 -0.6370 -0.9901
  319SOL    HW1  956   1.710   0.329   2.719 -1.1081  1.9521 -1.1219
  319SOL    HW2  957   1.846   0.256   2.786  1.1444  0.0530 -0.1516
  320SOL     OW  958   2.816   2.098   1.708  0.1143 -0.0712  0.4524
  320SOL    HW1  959   2.820   2.009   1.762 -0.5911 -2.5097  0.3792
  320SOL    HW2  960   2.772   2.082   1.614 -2.3855 -2.7031 -2.4526
  321SOL     OW  961   0.315   2.490   2.918 -0.0555  0.1905  0.0818
  321SOL    HW1  962   0.232   2.477   2.976 -1.2005  0.6070  1.3358
  321SOL    HW2  963   0.372   2.406   2.907  0.9048 -1.9462 -0.9173
  322SOL     OW  964   2.711   0.657   2.266 -0.4004 -0.0672 -0.3180
  322SOL    HW1  965   2.635   0.650   2.190 -1.4071  0.2938 -0.5910
  322SOL    HW2  966   2.667   0.654   2.359 -0.9457  0.4608 -1.2683
  323SOL     OW  967   1.965   1.290   0.442  0.2707  0.2647  0.1753
  323SOL    HW1  968   1.893   1.242   0.388 -0.3581  0.0705 -0.5396
  323SOL    HW2  969   1.936   1.316   0.534  2.5078  0.8453 -0.7824
  324SOL     OW  970   0.023   0.300   1.518 -0.3680  0.5393 -0.7433
  324SOL    HW1  971   0.063   0.211   1.543  3.0128  1.7165  1.7256
  324SOL    HW2  972   3.091   0.306   1.425  1.0017  2.1488  1.8910
  325SOL     OW  973   2.788   0.002   1.547  0.0700  0.2136  0.5948
  325SOL    HW1  974   2.890   0.020   1.532  1.1045  0.6360  1.3140
  325SOL    HW2  975   2.741   0.092   1.531  0.2810  0.0551 -1.3440
  326SOL     OW  976   1.631   2.617   0.434  0.0735 -0.0405  0.4083
  326SOL    HW1  977   1.549   2.558   0.433 -0.8798  0.6232  0.7671
  326SOL    HW2  978   1.698   2.585   0.503 -1.8872 -0.5440 -0.0279
  327SOL     OW  979   1.935   2.192   0.332  0.1955  1.1305  0.4592
  327SOL    HW1  980   1.906   2.160   0.424  0.0976  1.3064  2.2104
  327SOL    HW2  981   1.986   2.116   0.287 -0.5261  0.5445  1.4541
  328SOL     OW  982   2.907   2.341   1.765  0.0921  0.5816  0.3904
  328SOL    HW1  983   2.875   2.244   1.754  0.0048  0.1263  0.3753
  328SOL    HW2  984   2.877   2.376   1.857 -0.3345  1.8609 -0.9480
  329SOL     OW  985   0.185   2.333   1.220  0.4601  0.0250  0.0680
  329SOL    HW1  986   0.179   2.366   1.317  0.2474  0.7899  1.0955
  329SOL    HW2  987   0.146   2.241   1.212 -0.2746 -0.2378 -0.0349
  330SOL     OW  988   2.125   0.639   2.546 -0.7375 -0.0059 -0.2407
  330SOL    HW1  989   2.033   0.662   2.501  1.3318 -0.3234 -1.0127
  330SOL    HW2  990   2.195   0.706   2.523 -2.2278 -4.8245 -0.2542
  331SOL     OW  991   2.489   1.350   0.652  0.3046 -0.2176 -0.4981
  331SOL    HW1  992   2.441   1.383   0.569  0.0680  0.7290 -0.1623
  331SOL    HW2  993   2.556   1.423   0.679  0.4196 -0.1184 -0.1971
  332SOL     OW  994   0.196   2.744   1.175 -0.0778  0.7834  0.0293
  332SOL    HW1  995   0.204   2.786   1.082 -0.4967 -0.4676 -0.6155
  332SOL    HW2  996   0.276   2.784   1.225  1.6658 -2.0224 -2.7630
  333SOL     OW  997   0.181   1.633   2.123 -0.2779 -0.5375 -0.2080
  333SOL    HW1  998   0.230   1.663   2.042  0.7308 -1.2625  0.3944
  333SOL    HW2  999   0.096   1.581   2.102  0.6418  2.0605 -1.4626
  334SOL     OW 1000   0.134   0.772   1.217  0.5201  0.2764 -0.0665
  334SOL    HW1 1001   0.051   0.755   1.166  0.4400  4.4535  0.6717
  334SOL    HW2 1002   0.195   0.690   1.208 -2.3248  1.0474 -0.4543
  335SOL     OW 1003   3.094   1.579   1.814 -0.3280 -0.1251 -0.0403
  335SOL    HW1 1004   3.066   1.673   1.824  0.3280  1.2328  3.0009
  335SOL    HW2 1005   3.097   1.541   1.908  3.2682  0.7322  0.6491
  336SOL     OW 1006   2.176   2.746   2.396 -0.1226  0.5446  0.4797
  336SOL    HW1 1007   2.186   2.668   2.460  0.7000  5.4173  0.3584
  336SOL    HW2 1008   2.113   2.812   2.443 -0.8635  0.9986  0.6741
  337SOL     OW 1009   0.940   0.868   1.332 -0.0172 -0.6978  0.0723
  337SOL    HW1 1010   0.841   0.839   1.317 -0.1653 -0.7438 -0.4768
  337SOL    HW2 1011   0.972   0.931   1.258  1.1152 -0.0259  0.5082
  338SOL     OW 1012   1.548   2.185   1.052 -0.3729 -0.7504  0.3497
  338SOL    HW1 1013   1.572   2.227   1.141  0.5708  0.7159  0.1268
  338SOL    HW2 1014   1.466   2.131   1.069  0.3446  0.2163  0.9986
  339SOL     OW 1015   0.100   2.054   1.203  0.0520 -0.1099 -0.3965
  339SOL    HW1 1016   0.180   2.049   1.265  0.7298  0.2240 -0.6006
  339SOL    HW2 1017   0.018   2.044   1.263 -1.9916 -0.4258 -0.7935
  340SOL     OW 1018   0.759   0.170   2.228 -0.1016 -0.5370  0.2826
  340SOL    HW1 1019   0.764   0.067   2.248  0.3369 -2.8927 -2.6111
  340SOL    HW2 1020   0.690   0.219   2.287  0.6019  4.7000  0.8490
  341SOL     OW 1021   1.817   1.563   0.556 -0.6649 -0.5412  0.0336
  341SOL    HW1 1022   1.901   1.590   0.511 -1.1968  2.5082  0.6813
  341SOL    HW2 1023   1.828   1.490   0.626  1.3365  0.4533  1.2713
  342SOL     OW 1024   1.615   1.510   0.393 -0.1507 -0.0710 -0.0507
  342SOL    HW1 1025   1.637   1.428   0.333 -0.1999  0.2821  0.6146
  342SOL    HW2 1026   1.690   1.520   0.462  0.1507 -0.9517  0.1906
  343SOL     OW 1027   1.764   0.186   1.065  0.8365 -0.4157 -0.4243
  343SOL    HW1 1028   1.781   0.246   1.143  1.4909  0.0128 -1.1744
  343SOL    HW2 1029   1.773   0.087   1.098  1.6967 -2.4592 -0.3795
  344SOL     OW 1030   2.932   0.151   2.791 -0.2633 -0.1932  0.1676
  344SOL    HW1 1031   3.005   0.093   2.829 -0.4399  1.0553 -0.5482
  344SOL    HW2 1032   2.862   0.089   2.751 -0.2075  3.0088  0.2250
  345SOL     OW 1033   1.313   2.676   1.341 -0.0270  0.2812  0.0310
  345SOL    HW1 1034   1.400   2.724   1.374  0.0296 -1.6726 -1.1839
  345SOL    HW2 1035   1.256   2.636   1.415  1.1327 -2.2717 -0.0503
  346SOL     OW 1036   2.256   2.073   1.371 -0.0400  0.3176 -0.2425
  346SOL    HW1 1037   2.176   2.085   1.306 -0.4744  1.1192 -1.2318
  346SOL    HW2 1038   2.221   2.065   1.467 -4.1741  1.4808  0.4169
  347SOL     OW 1039   2.030   2.940   1.085  0.0494  0.2521 -0.1072
  347SOL    HW1 1040   1.978   2.970   1.004 -2.9196  1.0813 -1.4131
  347SOL    HW2 1041   2.130   2.959   1.080 -1.6731 -0.7902  2.0160
  348SOL     OW 1042   0.668   1.010   1.429 -0.0609 -0.2745  0.5910
  348SOL    HW1 1043   0.615   1.044   1.346 -1.1098 -1.3989 -0.4534
  348SOL    HW2 1044   0.625   0.925   1.466  2.5577  1.4121 -0.9445
  349SOL     OW 1045   2.307   0.229   3.035 -0.2373 -0.3574 -0.5713
  349SOL    HW1 1046   2.301   0.300   0.006  1.1519  1.1787 -0.6382
  349SOL    HW2 1047   2.391   0.235   2.978 -2.0854 -0.1088 -3.7120
  350SOL     OW 1048   2.336   1.858   3.003  0.1023  0.4816  0.7035
  350SOL    HW1 1049   2.396   1.845   3.081 -1.3801 -0.3218 -0.9568
  350SOL    HW2 1050   2.278   1.946   3.012 -1.0035 -0.8492 -2.9371
  351SOL     OW 1051   1.212   0.384   0.596 -0.3496 -0.0597 -0.0812
  351SOL    HW1 1052   1.196   0.286   0.600  0.2577  1.3191 -2.0003
  351SOL    HW2 1053   1.206   0.416   0.497 -1.3447 -0.8790  0.5705
  352SOL     OW 1054   1.850   2.099   2.476 -0.3985 -0.3773 -0.3222
  352SOL    HW1 1055   1.808   2.187   2.499  0.9711  0.2989  0.1483
  352SOL    HW2 1056   1.950   2.115   2.449  0.4933  0.2780  2.2906
  353SOL     OW 1057   0.308   0.663   0.055 -0.6825  0.2457  0.1129
  353SOL    HW1 1058   0.341   0.581   0.006  0.9805  3.2911  2.6871
  353SOL    HW2 1059   0.313   0.743   3.098  2.4519 -0.8344 -0.4047
  354SOL     OW 1060   1.237   2.209   0.126 -0.2637 -0.5469  0.4859
  354SOL    HW1 1061   1.140   2.179   0.116  1.9308 -0.5397  0.1306
  354SOL    HW2 1062   1.295   2.124   0.139  2.5157 -1.6262 -3.1360
  355SOL     OW 1063   2.670   2.670   1.615  0.2061  0.4040  0.3189
  355SOL    HW1 1064   2.717   2.755   1.639 -1.5508  2.1312  1.9573
  355SOL    HW2 1065   2.576   2.697   1.595  0.0709  1.3413  1.5243
  356SOL     OW 1066   2.824   1.270   0.776  0.1960  0.3419 -0.1574
  356SOL    HW1 1067   2.861   1.178   0.803  1.7252 -1.0483 -1.7903
  356SOL    HW2 1068   2.881   1.348   0.806 -0.5439  0.8171 -0.3981
  357SOL     OW 1069   2.787   0.237   1.174  0.1351 -0.1783 -0.4152
  357SOL    HW1 1070   2.707   0.206   1.231  1.0255  0.0602  2.4106
  357SOL    HW2 1071   2.816   0.162   1.108  2.3617 -1.8225 -3.1886
  358SOL     OW 1072   1.184   2.378   1.211  0.9700  0.6871  0.0206
  358SOL    HW1 1073   1.127   2.424   1.136  0.9059 -0.6123  0.8519
  358SOL    HW2 1074   1.282   2.405   1.202  0.3473 -0.3609 -0.6627
  359SOL     OW 1075   0.079   2.806   2.715 -0.2364 -0.1780  0.1513
  359SOL    HW1 1076   0.161   2.773   2.762  0.1366  0.1606  1.0964
  359SOL    HW2 1077   0.105   2.877   2.647 -0.2721  1.5540 -0.5759
  360SOL     OW 1078   0.707   1.035   1.798  0.0164 -0.2789  0.4326
  360SOL    HW1 1079   0.775   1.061   1.726  1.9065  2.0055 -0.1553
  360SOL    HW2 1080   0.617   1.019   1.759  0.7978 -2.5000  1.6692
  361SOL     OW 1081   2.312   0.187   0.698  0.0084  0.1291 -0.2166
  361SOL    HW1 1082   2.395   0.205   0.754  0.7977  0.4184 -2.6163
  361SOL    HW2 1083   2.339   0.180   0.598 -0.6580  0.0586  1.5580
  362SOL     OW 1084   3.068   3.076   0.905 -0.0999  0.1589  0.3723
  362SOL    HW1 1085   3.091   3.041   0.809 -1.3124 -1.1910 -3.3362
  362SOL    HW2 1086   0.034   0.045   0.935  0.6382  0.2030  0.6678
  363SOL     OW 1087   0.843   1.266   0.520  0.0145  0.1223  0.4297
  363SOL    HW1 1088   0.860   1.170   0.495  0.2544  0.0138  2.7687
  363SOL    HW2 1089   0.866   1.331   0.445  1.6972  0.1837 -0.9672
  364SOL     OW 1090   0.515   1.266   1.710  0.1383 -0.4078 -0.0314
  364SOL    HW1 1091   0.485   1.170   1.712  0.4499  0.9080  0.4627
  364SOL    HW2 1092   0.474   1.316   1.789  0.9377 -0.9867  0.0782
  365SOL     OW 1093   2.784   1.283   0.210  0.7649 -0.2997 -0.3707
  365SOL    HW1 1094   2.822   1.276   0.306 -1.5251  0.0620  1.7227
  365SOL    HW2 1095   2.708   1.350   0.207 -0.1647  1.6221 -0.2546
  366SOL     OW 1096   2.638   1.681   1.068 -0.0112 -0.4521 -0.0648
  366SOL    HW1 1097   2.702   1.688   0.987  1.6044  1.0913 -0.3629
  366SOL    HW2 1098   2.696   1.636   1.141  3.4586 -1.9994  0.9624
  367SOL     OW 1099   2.158   1.993   1.945 -0.2474  0.2953 -0.2120
  367SOL    HW1 1100   2.079   2.051   1.956  2.3937 -3.3895 -1.4275
  367SOL    HW2 1101   2.150   1.946   1.857  0.9027 -1.6991  0.0194
  368SOL     OW 1102   2.812   1.664   0.862  0.4607  0.1898  0.3522
  368SOL    HW1 1103   2.862   1.740   0.820  1.1147 -1.6117 -0.3535
  368SOL    HW2 1104   2.880   1.592   0.879 -0.5263 -0.5418 -0.2411
  369SOL     OW 1105   2.394   2.302   0.098 -0.1060 -0.0301 -0.4991
  369SOL    HW1 1106   2.348   2.362   0.167 -0.7406  1.4350 -2.5979
  369SOL    HW2 1107   2.493   2.328   0.081 -0.2243 -2.2713 -1.0340
  370SOL     OW 1108   3.086   3.027   1.316  0.0695  0.5424  0.0110
  370SOL    HW1 1109   2.999   2.987   1.280  1.3384 -0.8106  0.3850
  370SOL    HW2 1110   0.061   2.997   1.262  0.2484 -0.4322 -0.8320
  371SOL     OW 1111   0.738   1.652   3.016  0.6168  0.0799 -0.1425
  371SOL    HW1 1112   0.833   1.637   3.046  0.9384  0.3713 -2.0684
  371SOL    HW2 1113   0.723   1.744   2.978 -0.5954 -0.6781 -1.2809
  372SOL     OW 1114   1.017   1.191   0.228 -0.1376 -0.1251 -0.2993
  372SOL    HW1 1115   0.946   1.244   0.176 -0.3534  0.9062  2.0477
  372SOL    HW2 1116   1.062   1.127   0.160  0.3139  0.7015  0.1686
  373SOL     OW 1117   1.554   2.597   2.698  0.3852 -0.4072  0.0673
  373SOL    HW1 1118   1.624   2.616   2.769 -1.1914  1.2887  1.1399
  373SOL    HW2 1119   1.470   2.559   2.745  2.1184  2.2810 -2.7638
  374SOL     OW 1120   0.182   2.156   0.107 -0.2739 -0.6726  0.3324
  374SOL    HW1 1121   0.271   2.197   0.084 -2.5585 -1.4984  1.0716
  374SOL    HW2 1122   0.169   2.077   0.050  0.7925  0.3073  1.9424
  375SOL     OW 1123   0.760   1.388   1.599 -0.6680 -0.1456 -0.0781
  375SOL    HW1 1124   0.687   1.319   1.612 -0.3192  2.0328  0.6085
  375SOL    HW2 1125   0.846   1.349   1.640  1.2105  1.6101 -0.0834
  376SOL     OW 1126   0.744   2.407   1.913 -0.2552  0.5210 -0.3566
  376SOL    HW1 1127   0.739   2.464   1.824  1.1313  2.0229 -1.1576
  376SOL    HW2 1128   0.658   2.354   1.934 -0.4847  1.4732  0.2251
  377SOL     OW 1129   2.667   1.458   2.148 -0.0977  0.6113  0.2906
  377SOL    HW1 1130   2.700   1.550   2.122 -0.2801 -1.4900  2.0479
  377SOL    HW2 1131   2.718   1.422   2.230  0.7464 -2.8152  2.5929
  378SOL     OW 1132   0.992   3.070   3.092  0.8892 -0.2136 -0.4023
  378SOL    HW1 1133   1.042   2.985   3.055  2.7427 -1.3751 -1.3392
  378SOL    HW2 1134   1.031   3.101   0.078 -0.8266  2.5767  0.7090
  379SOL     OW 1135   2.049   0.427   0.707 -0.3396 -0.3441  0.6545
  379SOL    HW1 1136   2.109   0.401   0.630  1.0492 -1.5777  0.8652
  379SOL    HW2 1137   2.042   0.351   0.774 -2.2841 -0.1992 -0.7845
  380SOL     OW 1138   2.998   2.117   1.400 -0.5361  0.0708 -0.1890
  380SOL    HW1 1139   2.905   2.084   1.420  2.7887  2.6524 -0.4896
  380SOL    HW2 1140   3.000   2.211   1.352 -0.3228  3.3172  0.5097
  381SOL     OW 1141   1.911   1.805   1.880 -0.6665 -0.1963  0.3193
  381SOL    HW1 1142   1.953   1.889   1.845 -0.6622 -0.3481 -2.1370
  381SOL    HW2 1143   1.980   1.741   1.922 -1.6319 -1.4844  0.9266
  382SOL     OW 1144   3.093   0.377   2.766  0.3766  0.4465 -0.0405
  382SOL    HW1 1145   0.024   0.399   2.674  1.5483 -1.6384  1.1211
  382SOL    HW2 1146   3.021   0.306   2.765 -1.1529 -0.0967  1.0164
  383SOL     OW 1147   1.675   1.403   2.424 -0.0380  1.0475 -0.5492
  383SOL    HW1 1148   1.613   1.335   2.469  0.4215 -4.1176  3.1374
  383SOL    HW2 1149   1.764   1.362   2.397 -2.2581  1.8983  2.2911
  384SOL     OW 1150   1.086   2.089   1.183 -0.2449  0.0844  0.2485
  384SOL    HW1 1151   1.085   2.192   1.176  0.6223  2.6989  1.6429
  384SOL    HW2 1152   1.055   2.057   1.274  5.1525  1.5325 -0.1912
  385SOL     OW 1153   1.886   2.376   0.769 -0.1421  0.2063  0.2263
  385SOL    HW1 1154   1.790   2.392   0.744  6.0230  1.7949  1.3827
  385SOL    HW2 1155   1.939   2.361   0.681  0.8921 -1.2095 -1.7362
  386SOL     OW 1156   2.070   1.821   0.927 -0.7515  0.0545  0.3732
  386SOL    HW1 1157   2.042   1.898   0.866  0.8095 -1.0310 -1.9860
  386SOL    HW2 1158   2.148   1.850   0.989 -0.0508  2.0946  1.2588
  387SOL     OW 1159   0.393   2.362   1.553 -0.1092 -0.2806 -0.2243
  387SOL    HW1 1160   0.311   2.410   1.515 -0.3488  1.7394 -0.2898
  387SOL    HW2 1161   0.364   2.291   1.624  1.5367 -0.0750 -0.8929
  388SOL     OW 1162   2.821   0.429   1.842  0.2805  0.5415  0.1947
  388SOL    HW1 1163   2.882   0.505   1.865 -1.8044 -1.9577  0.6254
  388SOL    HW2 1164   2.773   0.400   1.927  0.9593  3.4805  2.2364
  389SOL     OW 1165   1.886   1.369   0.724  0.4125  0.4608  0.3965
  389SOL    HW1 1166   1.956   1.328   0.789  1.2656 -1.8077  4.5297
  389SOL    HW2 1167   1.798   1.322   0.728  1.7871 -0.4354  1.1413
  390SOL     OW 1168   1.041   2.245   2.565  0.8123 -0.3486 -0.5009
  390SOL    HW1 1169   1.004   2.168   2.622 -0.4433 -0.7210 -1.4729
  390SOL    HW2 1170   1.131   2.269   2.600 -0.8169  0.5112 -0.7554
  391SOL     OW 1171   0.760   2.220   2.999 -0.3731  0.2706 -0.0551
  391SOL    HW1 1172   0.739   2.205   2.901 -1.0379  0.1565  2.0082
  391SOL    HW2 1173   0.681   2.194   3.055  0.1695  1.4436  0.6203
  392SOL     OW 1174   2.982   2.877   1.837 -0.4697 -0.0717 -0.4015
  392SOL    HW1 1175   2.883   2.872   1.816  0.9117 -3.2662  1.4001
  392SOL    HW2 1176   3.003   2.954   1.907 -0.8049 -1.7432  0.9482
  393SOL     OW 1177   1.937   2.453   0.196  0.1030  0.3267 -0.1287
  393SOL    HW1 1178   1.957   2.364   0.240  1.5791 -0.7576  1.1561
  393SOL    HW2 1179   2.012   2.523   0.202  0.7572  0.4274 -1.3363
  394SOL     OW 1180   0.726   0.677   2.362  0.1014 -0.1325 -0.0243
  394SOL    HW1 1181   0.647   0.612   2.362  1.3086  0.9310  2.2583
  394SOL    HW2 1182   0.813   0.638   2.326 -1.5839 -0.1128  2.0020
  395SOL     OW 1183   0.340   1.186   1.250  0.2117 -0.5004 -0.4030
  395SOL    HW1 1184   0.260   1.135   1.284  2.2530  0.2329 -1.0402
  395SOL    HW2 1185   0.382   1.241   1.323 -2.0194  0.7319 -3.4191
  396SOL     OW 1186   1.738   1.442   2.109 -0.2760 -0.0903 -0.2592
  396SOL    HW1 1187   1.704   1.362   2.058  2.5409 -2.1547 -0.4040
  396SOL    HW2 1188   1.678   1.455   2.187  1.7616  0.5590 -1.2882
  397SOL     OW 1189   0.874   0.462   3.100  0.0635  0.4531 -0.2956
  397SOL    HW1 1190   0.863   0.454   0.099 -2.3928 -2.3495 -0.5068
  397SOL    HW2 1191   0.790   0.420   3.057 -2.2842 -1.5342  0.2005
  398SOL     OW 1192   0.743   1.855   2.726 -0.4787 -0.4662  0.3962
  398SOL    HW1 1193   0.731   1.929   2.662 -0.3984 -3.1026 -0.9193
  398SOL    HW2 1194   0.780   1.779   2.668 -0.9418 -1.2396 -3.2923
  399SOL     OW 1195   2.805   1.690   2.167  0.1954  0.3173 -0.1904
  399SOL    HW1 1196   2.807   1.786   2.199 -0.4540 -2.2367  1.2676
  399SOL    HW2 1197   2.868   1.630   2.221  0.7664  0.9052 -0.8246
  400SOL     OW 1198   2.443   0.842   1.889 -0.1137 -0.2205  0.2061
  400SOL    HW1 1199   2.369   0.872   1.825 -1.7333 -2.0770  2.3541
  400SOL    HW2 1200   2.465   0.741   1.879 -0.5371  1.1868 -0.2768
  401SOL     OW 1201   1.117   1.749   0.777 -0.3910 -0.0964 -0.2055
  401SOL    HW1 1202   1.056   1.763   0.859 -0.6175  1.4010  0.7790
  401SOL    HW2 1203   1.181   1.667   0.787  0.0623 -0.6393  2.9942
  402SOL     OW 1204   0.047   2.722   2.018 -0.0351 -0.3181 -0.5075
  402SOL    HW1 1205   3.096   2.778   1.951 -0.8364  2.5204  1.3576
  402SOL    HW2 1206   0.121   2.777   2.050 -0.6388 -1.8959  2.1614
  403SOL     OW 1207   0.543   1.548   2.373  0.2363 -0.4793  0.3445
  403SOL    HW1 1208   0.479   1.627   2.362 -3.3985 -0.3283 -1.4320
  403SOL    HW2 1209   0.489   1.459   2.365 -0.2382 -1.6358  1.9085
  404SOL     OW 1210   1.871   2.161   1.480 -0.3352  0.0402  0.0667
  404SOL    HW1 1211   1.818   2.085   1.442  1.2461  0.5929  2.2272
  404SOL    HW2 1212   1.829   2.248   1.461  3.1088 -3.9322 -0.5532
  405SOL     OW 1213   2.941   2.837   2.874 -0.0882  0.0837 -0.6194
  405SOL    HW1 1214   2.972   2.782   2.957 -0.2309 -0.5596  0.0372
  405SOL    HW2 1215   3.023   2.845   2.808  1.1845 -1.2958 -3.2088
  406SOL     OW 1216   0.592   1.093   0.144  0.0438  0.1516  0.0051
  406SOL    HW1 1217   0.610   1.045   0.054 -1.9147  1.3367  1.1827
  406SOL    HW2 1218   0.659   1.171   0.152  2.7810  2.4606 -1.0689
  407SOL     OW 1219   2.071   2.471   2.847  0.2217 -0.1154  0.1387
  407SOL    HW1 1220   2.051   2.372   2.841 -1.8286  2.2994 -1.4301
  407SOL    HW2 1221   2.165   2.491   2.818 -0.7859 -1.5181  1.1621
  408SOL     OW 1222   2.837   3.031   0.143 -0.5457 -0.4526 -0.0891
  408SOL    HW1 1223   2.851   2.929   0.144  2.1934 -2.4568  0.3244
  408SOL    HW2 1224   2.928   3.076   0.127  0.8713  0.4358 -0.0214
  409SOL     OW 1225   2.269   1.432   0.942 -0.4375 -0.4904  0.3241
  409SOL    HW1 1226   2.275   1.504   0.869 -2.0990 -1.0525 -0.2513
  409SOL    HW2 1227   2.297   1.339   0.905  0.3570 -0.7005 -0.1802
  410SOL     OW 1228   2.631   2.124   0.394  0.1674  0.4092 -0.4548
  410SOL    HW1 1229   2.538   2.162   0.406 -0.1345  0.7043  1.2280
  410SOL    HW2 1230   2.706   2.187   0.391  0.1874 -0.8374  0.0469
  411SOL     OW 1231   0.203   1.513   0.865  0.1687  0.4783  0.1820
  411SOL    HW1 1232   0.241   1.605   0.890  0.8582 -0.4706 -0.1602
  411SOL    HW2 1233   0.243   1.441   0.928 -1.3858  0.1080 -1.6850
  412SOL     OW 1234   2.327   2.395   0.538  0.2662 -0.3641 -0.4242
  412SOL    HW1 1235   2.346   2.439   0.444  0.7927  2.3031 -1.5945
  412SOL    HW2 1236   2.321   2.295   0.526  0.1370  0.3032 -2.4502
  413SOL     OW 1237   1.798   0.819   2.232  0.1307  0.0180 -0.5441
  413SOL    HW1 1238   1.698   0.802   2.215  0.8493  0.8656 -0.9553
  413SOL    HW2 1239   1.860   0.753   2.186 -1.1184 -0.7140  2.7115
  414SOL     OW 1240   2.652   0.055   0.286  0.0324 -0.0804 -0.0257
  414SOL    HW1 1241   2.733   0.013   0.241 -0.3745 -2.0330  1.1703
  414SOL    HW2 1242   2.626   3.103   0.370  2.3004  0.1047 -1.8643
  415SOL     OW 1243   0.972   1.956   1.400  0.5161 -0.6650 -0.5074
  415SOL    HW1 1244   0.899   1.912   1.345 -1.1198  0.2997  0.6894
  415SOL    HW2 1245   1.002   1.891   1.472 -0.0604  0.0230 -5.0858
  416SOL     OW 1246   0.604   2.821   2.770 -0.2128  0.0655 -0.3600
  416SOL    HW1 1247   0.570   2.817   2.669 -1.3441  0.0587  1.3030
  416SOL    HW2 1248   0.699   2.846   2.791 -0.1843  1.2598  1.1068
  417SOL     OW 1249   2.682   0.447   1.050 -0.7655  0.3539 -0.2634
  417SOL    HW1 1250   2.652   0.394   0.967 -0.8070  0.1792  0.5928
  417SOL    HW2 1251   2.718   0.392   1.124 -0.8015  1.0526 -2.0850
  418SOL     OW 1252   0.095   0.608   2.858  0.4893  0.9597  0.0451
  418SOL    HW1 1253   0.019   0.666   2.898  1.2653  2.5128 -0.2850
  418SOL    HW2 1254   0.054   0.521   2.818  2.3541  1.1978 -0.1343
  419SOL     OW 1255   0.193   1.138   1.735 -0.0150  0.0668  0.3828
  419SOL    HW1 1256   0.287   1.104   1.756  1.2171  0.7052  1.4901
  419SOL    HW2 1257   0.195   1.216   1.668 -0.5384 -0.8270  1.6762
  420SOL     OW 1258   0.667   1.629   0.532 -0.0891  0.5987 -1.0866
  420SOL    HW1 1259   0.625   1.702   0.472  0.8358  2.0925 -0.1185
  420SOL    HW2 1260   0.771   1.630   0.527  1.2243 -0.6191 -1.7096
  421SOL     OW 1261   2.461   2.325   2.631 -0.0517  0.3890 -0.1710
  421SOL    HW1 1262   2.441   2.230   2.599 -0.3596  0.7542 -2.9262
  421SOL    HW2 1263   2.542   2.357   2.575 -0.0062  0.0488 -0.7430
  422SOL     OW 1264   2.831   0.604   2.860 -0.1763 -0.1729 -0.0779
  422SOL    HW1 1265   2.841   0.646   2.770  1.1256 -0.7719  1.0401
  422SOL    HW2 1266   2.812   0.505   2.862 -0.0327 -1.3005 -0.7391
  423SOL     OW 1267   1.403   2.299   0.827 -0.3270  0.0771  0.0208
  423SOL    HW1 1268   1.451   2.254   0.901  0.1594  2.1565 -1.2578
  423SOL    HW2 1269   1.302   2.285   0.828  0.7369 -0.1068 -1.8127
  424SOL     OW 1270   0.606   2.007   1.604 -0.1973 -0.2611 -0.1953
  424SOL    HW1 1271   0.595   2.103   1.565 -1.0398  0.5746 -1.7076
  424SOL    HW2 1272   0.633   1.935   1.539 -4.5623  0.0997 -0.1349
  425SOL     OW 1273   0.235   2.730   2.333 -0.3760  0.2782  0.7580
  425SOL    HW1 1274   0.269   2.652   2.282 -0.3304  1.0139  0.7051
  425SOL    HW2 1275   0.183   2.696   2.408 -0.6432 -0.2707  0.5419
  426SOL     OW 1276   1.705   0.755   0.676  0.0078 -0.0396 -0.0090
  426SOL    HW1 1277   1.733   0.673   0.733  0.7226 -0.4767  1.2247
  426SOL    HW2 1278   1.748   0.838   0.718  0.4388 -1.9321  2.2434
  427SOL     OW 1279   0.360   1.209   0.140 -0.1012  0.0744 -0.5886
  427SOL    HW1 1280   0.303   1.171   0.215 -0.3168  0.3538  1.9249
  427SOL    HW2 1281   0.450   1.156   0.133  4.4145  0.4450 -0.4869
  428SOL     OW 1282   1.440   1.258   0.155  0.0389  0.8318  0.1523
  428SOL    HW1 1283   1.432   1.161   0.115  1.5311  0.4080 -0.5828
  428SOL    HW2 1284   1.430   1.319   0.075 -1.0589  0.7125 -1.8980
  429SOL     OW 1285   2.863   2.699   0.546 -1.1544 -0.4764  0.1992
  429SOL    HW1 1286   2.830   2.778   0.603  2.1255 -0.8104  0.3973
  429SOL    HW2 1287   2.916   2.732   0.463 -1.0250  0.5162 -1.1647
  430SOL     OW 1288   0.790   2.599   2.466  0.1524  0.1925  0.2210
  430SOL    HW1 1289   0.760   2.598   2.565  1.5642  2.3750  0.9777
  430SOL    HW2 1290   0.740   2.530   2.408  2.3052 -0.1232  0.3889
  431SOL     OW 1291   2.883   1.285   0.476 -0.7089  0.3015 -0.2628
  431SOL    HW1 1292   2.835   1.295   0.567 -2.7828  1.4230  0.8903
  431SOL    HW2 1293   2.965   1.224   0.477  0.8000 -2.1193 -0.9876
  432SOL     OW 1294   2.137   2.323   2.109  0.4651 -0.2221  0.1724
  432SOL    HW1 1295   2.227   2.280   2.100 -1.0160 -0.5675  0.4260
  432SOL    HW2 1296   2.068   2.247   2.105 -0.2651  1.0166  0.2701
  433SOL     OW 1297   1.337   2.566   0.890 -0.1319  0.3394 -0.2894
  433SOL    HW1 1298   1.388   2.478   0.873  0.1513 -2.1547 -0.3816
  433SOL    HW2 1299   1.404   2.642   0.906 -4.2693 -1.0361  0.5109
  434SOL     OW 1300   0.872   2.017   1.993  0.4260 -0.1752 -0.3503
  434SOL    HW1 1301   0.886   2.118   2.017  0.5258  1.6732  0.2302
  434SOL    HW2 1302   0.826   1.965   2.069 -0.6480 -0.7649  0.7330
  435SOL     OW 1303   2.906   0.951   3.065 -0.0546 -0.3919 -0.1766
  435SOL    HW1 1304   2.961   1.011   0.020 -2.5813 -1.1206  0.5129
  435SOL    HW2 1305   2.938   0.855   3.053 -0.6307  3.7595 -0.3111
  436SOL     OW 1306   0.441   2.764   1.985 -0.0604  0.2399 -0.2253
  436SOL    HW1 1307   0.393   2.851   2.003 -0.8378 -3.0439  1.6598
  436SOL    HW2 1308   0.411   2.687   2.048  2.1531 -1.6666 -1.4277
  437SOL     OW 1309   2.038   2.704   1.552 -0.1718  0.1931  0.6545
  437SOL    HW1 1310   2.123   2.729   1.502  0.1269 -1.0233  0.6507
  437SOL    HW2 1311   2.036   2.604   1.572 -1.1685  1.4612 -1.2169
  438SOL     OW 1312   0.152   1.909   0.561  0.3513  0.0588 -0.1346
  438SOL    HW1 1313   0.132   1.815   0.607 -0.2320 -1.6372  1.9925
  438SOL    HW2 1314   0.116   1.975   0.624  0.7523 -0.0506  2.4212
  439SOL     OW 1315   0.153   0.381   0.849 -0.1610  0.2521 -0.2799
  439SOL    HW1 1316   0.215   0.464   0.855 -0.0122  0.8843 -0.7199
  439SOL    HW2 1317   0.214   0.298   0.848  0.7307 -1.4556 -1.4221
  440SOL     OW 1318   0.465   2.768   2.546  0.0045  0.3490  0.0907
  440SOL    HW1 1319   0.407   2.683   2.546  0.5769  0.1073 -0.2261
  440SOL    HW2 1320   0.423   2.842   2.489  0.9817 -0.5313  0.1274
  441SOL     OW 1321   3.021   0.975   0.590  0.1465 -0.2719  0.7200
  441SOL    HW1 1322   0.019   0.973   0.603  0.8510  2.6115  1.8697
  441SOL    HW2 1323   2.978   0.885   0.614  0.3133  2.3528  1.2706
  442SOL     OW 1324   1.295   2.327   2.620  0.2397  0.4336  0.3312
  442SOL    HW1 1325   1.285   2.352   2.523 -0.0567  0.8214 -0.8247
  442SOL    HW2 1326   1.305   2.410   2.681  0.1307  2.5290 -1.1214
  443SOL     OW 1327   0.668   0.054   0.462 -0.0701 -0.3642  0.4069
  443SOL    HW1 1328   0.750   0.007   0.422  1.5185  0.3348  0.0252
  443SOL    HW2 1329   0.699   0.132   0.521 -1.7468 -1.4160 -1.0093
  444SOL     OW 1330   1.561   1.622   2.247  0.8225  0.0885  0.0845
  444SOL    HW1 1331   1.575   1.720   2.271 -0.4114 -3.1011 -0.0163
  444SOL    HW2 1332   1.559   1.568   2.335 -2.2343 -1.8509  2.6003
  445SOL     OW 1333   2.845   0.490   0.525 -0.3572  0.2814  0.0184
  445SOL    HW1 1334   2.946   0.462   0.515  3.6539 -2.2809 -1.7843
  445SOL    HW2 1335   2.789   0.436   0.459 -1.8126 -0.9774  2.7905
  446SOL     OW 1336   1.999   0.937   1.007  0.0405 -0.0526  0.0068
  446SOL    HW1 1337   1.914   0.905   0.968 -0.9084  0.0233 -0.4229
  446SOL    HW2 1338   2.035   0.870   1.074  2.4379 -1.3119 -0.1902
  447SOL     OW 1339   3.050   0.927   0.333  0.2584 -0.2291  0.3607
  447SOL    HW1 1340   3.099   0.838   0.311 -0.6543 -2.7195 -0.1382
  447SOL    HW2 1341   3.038   0.946   0.431  0.0248  0.9701 -1.1854
  448SOL     OW 1342   1.800   1.907   1.374  0.1433 -0.2838 -0.0181
  448SOL    HW1 1343   1.751   1.890   1.288 -0.6678 -0.8571 -1.4659
  448SOL    HW2 1344   1.863   1.827   1.390 -0.2579  0.3662  0.0008
  449SOL     OW 1345   0.958   1.479   0.335 -0.8463 -0.5752 -0.5922
  449SOL    HW1 1346   1.044   1.501   0.290 -0.0906  0.1623 -0.1621
  449SOL    HW2 1347   0.959   1.518   0.430  4.0295 -1.6567  1.0438
  450SOL     OW 1348   2.838   2.775   2.273  0.4252  0.2855  0.1593
  450SOL    HW1 1349   2.746   2.733   2.289  1.3173  0.3812 -0.9630
  450SOL    HW2 1350   2.828   2.845   2.197  3.0203  0.9607  0.1378
  451SOL     OW 1351   2.220   0.761   2.808  0.2239 -0.2596 -0.1989
  451SOL    HW1 1352   2.204   0.863   2.826  3.4950  1.2367 -0.5936
  451SOL    HW2 1353   2.162   0.717   2.733 -0.7715 -0.0455 -1.4404
  452SOL     OW 1354   1.583   1.004   1.044  0.2950 -0.5017 -0.0595
  452SOL    HW1 1355   1.486   1.014   1.082  1.2033  0.7623 -1.0644
  452SOL    HW2 1356   1.634   0.939   1.107  2.2428 -1.7230 -1.4800
  453SOL     OW 1357   1.852   0.619   1.539  0.3157  0.5407  0.0613
  453SOL    HW1 1358   1.829   0.554   1.614  1.1173 -0.8029  0.1391
  453SOL    HW2 1359   1.836   0.714   1.560 -0.8051 -0.6190  0.1231
  454SOL     OW 1360   2.671   1.158   2.809  0.1818  0.4973  0.0846
  454SOL    HW1 1361   2.671   1.065   2.767  2.2081 -2.0208  1.2652
  454SOL    HW2 1362   2.663   1.154   2.912  1.1578 -0.2428  1.1503
  455SOL     OW 1363   2.783   1.572   1.275 -0.1521 -0.3956  0.2838
  455SOL    HW1 1364   2.759   1.481   1.309 -1.6631  0.4554  0.5153
  455SOL    HW2 1365   2.815   1.630   1.348 -0.7470 -0.3203 -1.9902
  456SOL     OW 1366   1.398   3.049   1.594  0.3653 -0.2106  0.4678
  456SOL    HW1 1367   1.319   0.000   1.629 -2.8777 -0.5461  0.2152
  456SOL    HW2 1368   1.486   3.068   1.651  0.7109 -1.3447  0.8843
  457SOL     OW 1369   1.496   2.771   0.987  0.5881 -0.3879 -0.5641
  457SOL    HW1 1370   1.567   2.712   1.030  0.4198 -0.4372 -0.2794
  457SOL    HW2 1371   1.517   2.868   1.013 -0.4053  1.6812 -2.2587
  458SOL     OW 1372   2.826   2.917   0.714 -0.4006  0.9165  0.2691
  458SOL    HW1 1373   2.851   2.979   0.636  0.4177  1.1847 -0.6269
  458SOL    HW2 1374   2.764   2.973   0.769 -3.0744 -0.0531 -0.1542
  459SOL     OW 1375   1.606   0.989   0.307 -0.2250 -0.2427  0.3210
  459SOL    HW1 1376   1.622   1.015   0.210 -0.8429  2.7827  0.0425
  459SOL    HW2 1377   1.609   0.889   0.323 -1.0580  0.3723  0.0170
  460SOL     OW 1378   0.338   2.527   2.626  0.0134  0.4277  0.3730
  460SOL    HW1 1379   0.322   2.508   2.728 -0.6631 -2.6980  0.0899
  460SOL    HW2 1380   0.367   2.440   2.584  0.5321  0.1295  1.8488
  461SOL     OW 1381   0.423   1.458   0.223  0.6114  0.4663  0.4468
  461SOL    HW1 1382   0.434   1.441   0.322 -1.0468 -1.4129  2.3071
  461SOL    HW2 1383   0.425   1.373   0.171  0.6987 -1.3132  0.5639
  462SOL     OW 1384   1.873   2.035   0.554 -0.2795  0.0790 -0.8595
  462SOL    HW1 1385   1.835   2.022   0.650  1.7697 -1.6833  1.1593
  462SOL    HW2 1386   1.824   1.984   0.481 -1.8761  1.9822 -1.2335
  463SOL     OW 1387   2.701   0.302   0.358 -0.1645 -0.6501  0.2105
  463SOL    HW1 1388   2.652   0.345   0.277 -1.3871 -2.2552 -0.6998
  463SOL    HW2 1389   2.698   0.198   0.344 -0.6592 -3.0085  1.4445
  464SOL     OW 1390   0.863   2.129   0.587  0.0361 -0.3805 -0.1258
  464SOL    HW1 1391   0.925   2.206   0.573 -2.0388 -1.1111  2.1879
  464SOL    HW2 1392   0.834   2.082   0.504  1.1391  4.6935  1.2544
  465SOL     OW 1393   2.301   0.347   1.041  0.8361 -0.2079 -0.1382
  465SOL    HW1 1394   2.213   0.310   1.003 -0.7626 -0.9050 -0.3056
  465SOL    HW2 1395   2.316   0.443   1.002 -2.1088 -0.8970 -1.7976
  466SOL     OW 1396   2.085   0.042   0.755  0.0680 -0.1477  0.3112
  466SOL    HW1 1397   2.166   0.104   0.728  0.9369 -0.5038  0.6809
  466SOL    HW2 1398   2.103   3.054   0.717 -1.6685 -0.0863  2.4124
  467SOL     OW 1399   1.198   0.650   2.144  0.5349 -0.2936 -0.1550
  467SOL    HW1 1400   1.231   0.748   2.128  0.8975 -0.9759  0.7571
  467SOL    HW2 1401   1.271   0.585   2.113 -0.7726  0.6469  0.7358
  468SOL     OW 1402   2.763   0.326   2.091  0.0932  0.0206  0.2845
  468SOL    HW1 1403   2.683   0.378   2.137  1.2239 -1.2415 -0.0617
  468SOL    HW2 1404   2.848   0.377   2.111 -0.9117 -0.5935 -0.4584
  469SOL     OW 1405   1.155   2.448   1.947 -0.3828  0.5251  0.2475
  469SOL    HW1 1406   1.207   2.406   1.877 -2.3889 -4.8309  2.1533
  469SOL    HW2 1407   1.182   2.543   1.970 -0.3742  1.3856  1.4493
  470SOL     OW 1408   2.100   1.075   1.958  0.0119 -0.3633  0.2875
  470SOL    HW1 1409   2.159   1.042   2.030  0.0371  1.7086  1.7649
  470SOL    HW2 1410   2.102   1.172   1.967 -0.2921  0.8284 -2.0290
  471SOL     OW 1411   2.990   1.467   2.940  0.2118 -0.3085  0.3756
  471SOL    HW1 1412   2.940   1.447   2.852  0.5821  1.9877 -3.5959
  471SOL    HW2 1413   3.012   1.376   2.984  0.2387  1.1958 -0.2678
  472SOL     OW 1414   0.511   2.167   0.473 -0.3327 -0.0561 -0.5353
  472SOL    HW1 1415   0.438   2.100   0.441 -0.4199 -0.4481 -1.5667
  472SOL    HW2 1416   0.597   2.155   0.416 -0.0211 -2.0842 -0.2826
  473SOL     OW 1417   1.151   2.166   2.258 -0.0425  0.5126 -0.3387
  473SOL    HW1 1418   1.112   2.212   2.179 -2.2935  0.6015  0.2825
  473SOL    HW2 1419   1.237   2.216   2.290  2.5471  1.8134  0.7725
  474SOL     OW 1420   1.079   3.044   2.533  0.7460 -0.4006  0.2770
  474SOL    HW1 1421   1.015   2.971   2.500  1.4481 -1.1151  0.4052
  474SOL    HW2 1422   1.127   3.009   2.620 -1.1479 -0.5506  1.9746
  475SOL     OW 1423   0.921   2.318   0.297 -0.2925 -0.2820  0.5417
  475SOL    HW1 1424   0.975   2.309   0.387 -1.2499  3.2547  0.0182
  475SOL    HW2 1425   0.966   2.261   0.222  0.4964 -0.1355 -1.2465
  476SOL     OW 1426   0.726   0.628   1.038  0.4085  0.1285 -0.0015
  476SOL    HW1 1427   0.721   0.664   1.133 -0.8569  0.5350  0.2690
  476SOL    HW2 1428   0.797   0.556   1.027  0.6903 -0.2183  0.4529
  477SOL     OW 1429   2.068   2.055   1.201 -0.3366  0.2166  0.5221
  477SOL    HW1 1430   2.068   2.022   1.106 -0.9635 -1.7951  2.0003
  477SOL    HW2 1431   2.010   2.137   1.214  1.3012 -2.8726  0.3564
  478SOL     OW 1432   3.006   0.713   3.029  0.1279  0.0717  0.2332
  478SOL    HW1 1433   3.015   0.668   0.016 -0.1982  1.6034 -0.9007
  478SOL    HW2 1434   2.944   0.659   2.971  0.5692  2.6461  1.9860
  479SOL     OW 1435   0.563   3.018   1.181  0.3308 -0.5405  0.2796
  479SOL    HW1 1436   0.551   3.074   1.268 -0.1328  3.0498 -0.5070
  479SOL    HW2 1437   0.659   3.013   1.147 -0.1882  0.8517 -0.3126
  480SOL     OW 1438   2.662   2.598   0.286  0.5956  0.3405 -0.0559
  480SOL    HW1 1439   2.654   2.531   0.206 -0.0260 -2.3925 -0.0967
  480SOL    HW2 1440   2.690   2.549   0.373  0.6392 -1.2489  0.5649
  481SOL     OW 1441   2.820   0.493   1.341  0.0102  0.2375  0.1364
  481SOL    HW1 1442   2.823   0.397   1.310  0.2802  2.0564 -0.2361
  481SOL    HW2 1443   2.854   0.486   1.435  0.5812  0.3817 -1.1400
  482SOL     OW 1444   0.801   2.967   1.072  0.5410  0.0093 -0.0883
  482SOL    HW1 1445   0.861   3.048   1.061 -2.7645 -1.5280  0.5663
  482SOL    HW2 1446   0.858   2.894   1.118  0.9626 -1.9553 -0.2458
  483SOL     OW 1447   0.107   1.322   2.728 -0.3719  0.6013  0.1893
  483SOL    HW1 1448   0.152   1.373   2.805  1.0259 -0.9548  0.4890
  483SOL    HW2 1449   0.005   1.306   2.738 -1.2444  1.5866 -0.8387
  484SOL     OW 1450   1.698   1.665   1.978  0.0699  0.2926  0.3809
  484SOL    HW1 1451   1.791   1.692   1.944 -1.2501 -2.0685  1.6456
  484SOL    HW2 1452   1.713   1.572   2.025  2.4944 -2.0956 -0.9175
  485SOL     OW 1453   0.333   0.110   2.540  0.2464  0.3506 -0.2707
  485SOL    HW1 1454   0.339   0.206   2.577  2.8001  1.6813 -2.3662
  485SOL    HW2 1455   0.250   0.059   2.573 -1.2773  2.0392  0.8945
  486SOL     OW 1456   1.351   2.875   0.661 -0.5399 -0.3951 -0.3018
  486SOL    HW1 1457   1.420   2.813   0.701  3.3384  0.1711  0.7739
  486SOL    HW2 1458   1.357   2.885   0.560 -1.3047  1.8703 -1.3941
  487SOL     OW 1459   1.356   3.070   0.851 -0.3272  0.1405 -0.7716
  487SOL    HW1 1460   1.366   2.994   0.780  0.4203  1.9904  0.1315
  487SOL    HW2 1461   1.428   0.039   0.843  4.4570 -1.3094  1.7974
  488SOL     OW 1462   2.325   0.754   0.744  0.4473  0.5787  0.3325
  488SOL    HW1 1463   2.421   0.771   0.715  0.2261 -1.1547  0.8578
  488SOL    HW2 1464   2.285   0.842   0.777 -1.3498 -1.4138  0.0447
  489SOL     OW 1465   0.999   0.046   1.419 -0.1410  0.1395  0.1303
  489SOL    HW1 1466   1.073   0.013   1.359  1.0243  2.7510 -3.5050
  489SOL    HW2 1467   0.941   0.108   1.359 -0.0681 -1.5910 -1.3779
  490SOL     OW 1468   1.033   0.710   0.317  0.4285 -0.5452 -0.6118
  490SOL    HW1 1469   0.941   0.673   0.346 -1.6476 -0.5210  0.6400
  490SOL    HW2 1470   1.046   0.805   0.356 -5.0302  0.1746 -0.0979
  491SOL     OW 1471   1.043   2.856   0.435 -0.1273  0.5270 -0.2230
  491SOL    HW1 1472   1.113   2.849   0.361 -1.0334 -1.2879 -1.6771
  491SOL    HW2 1473   1.012   2.762   0.467  0.4963  0.6758  0.8208
  492SOL     OW 1474   1.068   1.554   1.697 -0.0573  0.1635 -0.3416
  492SOL    HW1 1475   1.119   1.543   1.784 -0.5412 -1.1209  0.2962
  492SOL    HW2 1476   1.046   1.459   1.668  1.5301 -1.4423 -0.6850
  493SOL     OW 1477   0.574   1.827   0.327 -0.2583  0.5248 -0.2772
  493SOL    HW1 1478   0.486   1.867   0.359  0.5437 -0.2296  1.2025
  493SOL    HW2 1479   0.562   1.756   0.251  1.5796 -1.2754  0.7304
  494SOL     OW 1480   2.084   1.838   0.452  0.1745  0.1279 -0.2657
  494SOL    HW1 1481   2.084   1.738   0.471 -0.9311  1.6969  0.7764
  494SOL    HW2 1482   2.005   1.890   0.486 -2.0983  0.6579 -2.4758
  495SOL     OW 1483   0.276   1.139   2.572  0.1160  0.0626  0.0836
  495SOL    HW1 1484   0.228   1.221   2.610 -0.7548  2.5750  0.3521
  495SOL    HW2 1485   0.202   1.083   2.524 -1.6209  0.2465 -2.0459
  496SOL     OW 1486   0.589   3.086   2.483 -0.3752 -0.3430 -0.2844
  496SOL    HW1 1487   0.495   0.006   2.503  2.8814 -2.7994  0.9229
  496SOL    HW2 1488   0.597   3.013   2.411 -1.3247 -0.0995  1.5628
  497SOL     OW 1489   1.648   1.233   0.689  0.4210 -0.2829  0.8763
  497SOL    HW1 1490   1.594   1.219   0.603  2.0369  0.2185  3.0083
  497SOL    HW2 1491   1.595   1.288   0.759 -0.6061 -0.2589  3.7567
  498SOL     OW 1492   2.860   2.762   0.166 -0.6698  0.5724  0.0200
  498SOL    HW1 1493   2.893   2.713   0.086 -1.1743 -1.0275  1.5596
  498SOL    HW2 1494   2.772   2.722   0.208 -2.0181 -0.4746  4.8192
  499SOL     OW 1495   2.042   2.415   0.529  0.4078 -0.4905  0.5841
  499SOL    HW1 1496   2.013   2.371   0.441  1.5697 -1.5855  0.2876
  499SOL    HW2 1497   2.136   2.417   0.540 -2.6705 -0.3451 -0.8588
  500SOL     OW 1498   0.518   0.493   2.758 -0.1815 -0.2048  0.3880
  500SOL    HW1 1499   0.535   0.593   2.749 -2.4075 -0.0438 -1.5793
  500SOL    HW2 1500   0.606   0.442   2.759  1.9379 -0.3183 -0.0969
  501SOL     OW 1501   1.647   3.081   1.697  0.3227 -0.3509 -0.1217
  501SOL    HW1 1502   1.660   3.002   1.762 -1.8763 -0.0640  1.4261
  501SOL    HW2 1503   1.742   3.087   1.652  2.9487 -0.7144  0.2418
  502SOL     OW 1504   0.293   0.144   2.239 -0.1451  0.5783 -0.5393
  502SOL    HW1 1505   0.329   0.164   2.332  1.2765  0.8991 -0.4639
  502SOL    HW2 1506   0.251   0.056   2.229 -3.7292 -0.3678 -0.2363
  503SOL     OW 1507   1.743   2.439   2.165  0.0679  0.3668  0.1013
  503SOL    HW1 1508   1.844   2.453   2.197 -0.2879  2.9880 -0.4268
  503SOL    HW2 1509   1.705   2.354   2.213 -1.1346  0.4435 -0.4720
  504SOL     OW 1510   1.882   0.211   1.715  0.0039  0.3357 -0.0168
  504SOL    HW1 1511   1.883   0.138   1.641 -0.3530 -0.7988  1.3812
  504SOL    HW2 1512   1.779   0.229   1.737  0.0742  1.3850  3.2006
  505SOL     OW 1513   2.582   1.816   1.500 -0.6210 -0.5935  0.0552
  505SOL    HW1 1514   2.662   1.750   1.510  1.5687 -2.3456  1.2499
  505SOL    HW2 1515   2.537   1.808   1.405  1.2837 -0.4875  0.3274
  506SOL     OW 1516   3.102   1.447   2.055  0.3995 -0.3713  0.2932
  506SOL    HW1 1517   3.030   1.464   2.129  0.8078  0.1762 -0.7191
  506SOL    HW2 1518   3.072   1.367   1.995  1.7432  1.9237 -2.0598
  507SOL     OW 1519   0.349   2.851   1.404  0.3423  0.5007  0.0117
  507SOL    HW1 1520   0.396   2.937   1.391 -0.1443 -2.6904  1.6997
  507SOL    HW2 1521   0.417   2.782   1.380  0.7916 -0.5499 -2.9711
  508SOL     OW 1522   1.045   0.847   1.576  0.9583  0.2192  0.3504
  508SOL    HW1 1523   0.996   0.781   1.635 -1.6896 -1.2643  1.4087
  508SOL    HW2 1524   1.010   0.842   1.477  0.1430 -0.9252 -0.9255
  509SOL     OW 1525   1.525   2.596   1.692 -0.6902  0.4685  0.4766
  509SOL    HW1 1526   1.485   2.641   1.608 -2.6433 -0.4374 -1.3758
  509SOL    HW2 1527   1.511   2.654   1.772 -1.6818 -0.4645 -3.1113
  510SOL     OW 1528   2.319   1.166   3.002  0.0784  0.0776 -0.3211
  510SOL    HW1 1529   2.254   1.102   2.958 -0.9541  2.1377 -3.7042
  510SOL    HW2 1530   2.404   1.117   3.033  1.7979 -1.1391  2.1667
  511SOL     OW 1531   0.461   1.325   1.430  0.1434  0.3688  0.3612
  511SOL    HW1 1532   0.503   1.401   1.374 -1.6479 -0.0177  2.2509
  511SOL    HW2 1533   0.513   1.309   1.518 -0.7306  0.4890  3.4875
  512SOL     OW 1534   2.655   1.868   0.311  0.1563 -0.7031  0.1483
  512SOL    HW1 1535   2.660   1.971   0.327  0.5406  4.1089  0.9961
  512SOL    HW2 1536   2.744   1.824   0.285  2.0877 -3.7649 -1.8463
  513SOL     OW 1537   0.805   1.886   2.217 -0.0729  0.2009  0.1463
  513SOL    HW1 1538   0.894   1.906   2.261 -2.4158 -0.9458  0.5710
  513SOL    HW2 1539   0.784   1.781   2.216  0.1190 -1.3585  0.0653
  514SOL     OW 1540   0.060   2.302   1.725  0.0494  0.1879 -0.1049
  514SOL    HW1 1541   0.086   2.211   1.768  1.3586  0.2517 -2.0136
  514SOL    HW2 1542   3.064   2.319   1.732  0.1092  1.1693  1.5347
  515SOL     OW 1543   1.891   1.192   1.697 -0.7649 -0.0441  0.2688
  515SOL    HW1 1544   1.874   1.136   1.779  1.0158  0.9635  0.9378
  515SOL    HW2 1545   1.804   1.224   1.656 -1.1918  0.5971  0.6808
  516SOL     OW 1546   2.287   2.943   0.425 -0.0787  0.4271 -0.0810
  516SOL    HW1 1547   2.322   2.994   0.342  1.9363 -0.3313 -0.7844
  516SOL    HW2 1548   2.344   2.860   0.437  0.1070 -0.5470  0.4629
  517SOL     OW 1549   0.997   1.595   3.101 -0.6578  0.0798 -0.5534
  517SOL    HW1 1550   1.033   1.669   3.036 -2.0622  3.0264 -0.6265
  517SOL    HW2 1551   1.072   1.542   0.043  0.2027 -1.5518  0.6910
  518SOL     OW 1552   1.775   2.755   1.444 -0.4231 -0.0098  0.8814
  518SOL    HW1 1553   1.780   2.796   1.350 -0.2346  2.3712 -0.3569
  518SOL    HW2 1554   1.871   2.755   1.481 -1.0973  2.6845 -1.3801
  519SOL     OW 1555   2.034   2.697   0.989  0.2006  0.2899  0.0552
  519SOL    HW1 1556   2.023   2.791   1.025  2.7823 -0.2562 -2.1237
  519SOL    HW2 1557   2.128   2.668   1.018 -0.8673 -0.1934  0.7771
  520SOL     OW 1558   2.993   2.154   2.047  0.6961  0.2832 -0.1284
  520SOL    HW1 1559   2.940   2.091   2.113 -0.1079 -2.6749 -2.1813
  520SOL    HW2 1560   2.922   2.212   2.002  0.0771 -2.8539 -0.2193
  521SOL     OW 1561   2.637   0.891   2.693  0.0008 -0.5910  0.0907
  521SOL    HW1 1562   2.597   0.880   2.785 -0.2948  0.1644 -1.5531
  521SOL    HW2 1563   2.718   0.835   2.684 -0.6378  2.7881 -0.4190
  522SOL     OW 1564   0.758   0.943   2.469 -0.2656 -0.7947 -0.4456
  522SOL    HW1 1565   0.850   0.962   2.504 -1.4307 -2.7087  1.6580
  522SOL    HW2 1566   0.747   0.843   2.443 -0.2237  1.9612 -0.5556
  523SOL     OW 1567   0.131   2.118   0.746 -0.4470 -0.3413 -0.6195
  523SOL    HW1 1568   0.188   2.080   0.822  0.9477  1.0567 -0.4273
  523SOL    HW2 1569   0.176   2.182   0.682 -0.5983  1.5758  0.9289
  524SOL     OW 1570   2.033   2.706   2.990  0.7577  0.0370 -0.0099
  524SOL    HW1 1571   2.020   2.613   2.954  0.7866  1.7221  1.7929
  524SOL    HW2 1572   2.126   2.726   3.025 -0.9265 -0.1778 -0.7325
  525SOL     OW 1573   2.334   0.529   1.430  0.0593 -0.1107  0.2056
  525SOL    HW1 1574   2.436   0.548   1.424  3.5378 -0.5740 -0.1543
  525SOL    HW2 1575   2.313   0.444   1.381 -0.3100 -0.5622  0.7707
  526SOL     OW 1576   0.965   2.576   0.545 -0.6909 -0.2275  0.4002
  526SOL    HW1 1577   0.898   2.530   0.605  1.1985  0.2758 -0.5901
  526SOL    HW2 1578   0.943   2.574   0.446  1.1682 -0.7225 -1.6665
  527SOL     OW 1579   2.159   2.904   0.670  0.0360 -0.0473  0.0728
  527SOL    HW1 1580   2.121   2.811   0.680  4.4558  1.6662  0.5373
  527SOL    HW2 1581   2.206   2.918   0.582  0.4774 -2.5842  1.6346
  528SOL     OW 1582   1.720   0.715   0.002  0.7188 -0.4996 -0.4009
  528SOL    HW1 1583   1.730   0.723   0.101  0.7509 -1.8430  2.8195
  528SOL    HW2 1584   1.695   0.617   3.079  0.8516 -2.6080 -1.6195
  529SOL     OW 1585   1.321   1.484   2.258 -0.3260  0.0382  0.2849
  529SOL    HW1 1586   1.403   1.541   2.231 -0.1487  0.9902 -3.4547
  529SOL    HW2 1587   1.298   1.490   2.357  2.4755 -1.0407  0.0509
  530SOL     OW 1588   2.397   3.050   0.197 -0.1394  0.3959  0.0478
  530SOL    HW1 1589   2.327   3.056   0.125 -0.0290 -1.1754  3.0558
  530SOL    HW2 1590   2.459   0.025   0.209  2.5459  0.5858  1.5378
  531SOL     OW 1591   1.786   1.043   3.035 -0.0842  0.0607  0.0934
  531SOL    HW1 1592   1.859   1.043   3.101 -1.9779  3.4810 -1.3489
  531SOL    HW2 1593   1.742   0.951   3.043  0.4581  1.1162 -2.0558
  532SOL     OW 1594   1.586   0.400   0.763 -0.1053 -0.5373 -0.0077
  532SOL    HW1 1595   1.502   0.460   0.754  1.3570  1.3681  0.3819
  532SOL    HW2 1596   1.678   0.447   0.778 -0.6482  0.4369 -0.6420
  533SOL     OW 1597   0.528   0.784   2.723 -0.2589  0.0313  0.1345
  533SOL    HW1 1598   0.564   0.876   2.697 -0.7421 -2.6591 -0.5508
  533SOL    HW2 1599   0.440   0.785   2.773  2.5702 -1.6451 -1.9013
  534SOL     OW 1600   1.404   0.190   0.158 -0.1253  0.3744  0.2846
  534SOL    HW1 1601   1.442   0.168   0.250 -0.3887  3.1376 -1.0882
  534SOL    HW2 1602   1.451   0.148   0.079  1.9267 -1.0848 -0.8045
  535SOL     OW 1603   0.846   2.466   3.077 -0.5762 -0.3058  0.1909
  535SOL    HW1 1604   0.766   2.531   3.092 -1.6505  0.6874  0.9219
  535SOL    HW2 1605   0.813   2.379   3.038  2.1636  2.2102  0.4850
  536SOL     OW 1606   0.455   2.995   0.488  0.0480 -0.2474 -0.0297
  536SOL    HW1 1607   0.538   3.053   0.496  0.1593 -2.0007 -0.1803
  536SOL    HW2 1608   0.470   2.907   0.536  0.5714 -0.5368  0.5941
  537SOL     OW 1609   1.796   0.365   0.274  0.2109 -0.0369 -0.1969
  537SOL    HW1 1610   1.755   0.398   0.182 -1.9709  1.7765  1.4541
  537SOL    HW2 1611   1.739   0.376   0.354  5.1552  3.2167 -1.6453
  538SOL     OW 1612   2.674   2.230   2.917 -0.2063  0.3731  0.4924
  538SOL    HW1 1613   2.651   2.330   2.922 -1.7977  1.0809 -1.5597
  538SOL    HW2 1614   2.598   2.185   2.872 -0.4353  1.9061  0.2446
  539SOL     OW 1615   2.650   1.759   3.027 -0.3235 -0.6430  0.4203
  539SOL    HW1 1616   2.599   1.817   3.090  1.3283  2.3435  2.2067
  539SOL    HW2 1617   2.707   1.691   3.075 -2.2920  3.4278 -2.1337
  540SOL     OW 1618   0.998   2.893   1.974 -0.2928 -0.1901  0.1610
  540SOL    HW1 1619   1.019   2.975   2.038 -0.9169  2.5040  1.8615
  540SOL    HW2 1620   1.009   2.927   1.877 -0.7644 -1.4367 -1.5293
  541SOL     OW 1621   2.653   0.009   2.311  0.6423 -0.3129  0.7645
  541SOL    HW1 1622   2.573   0.062   2.284  0.1307  0.8123  1.1918
  541SOL    HW2 1623   2.681   3.042   2.237 -0.2442 -0.2480  1.5732
  542SOL     OW 1624   0.309   0.827   2.886 -0.0461  0.5751 -0.5731
  542SOL    HW1 1625   0.259   0.914   2.898 -0.1076 -3.0833 -0.7910
  542SOL    HW2 1626   0.244   0.746   2.876 -0.1906 -1.5232 -1.8361
  543SOL     OW 1627   0.147   0.837   0.939 -0.0857 -0.2555  0.3585
  543SOL    HW1 1628   0.212   0.860   1.014 -0.0373 -0.5219  0.2113
  543SOL    HW2 1629   0.184   0.761   0.877 -0.4936 -3.9794 -1.2501
  544SOL     OW 1630   2.597   0.629   1.437  0.1811 -0.2181  0.4218
  544SOL    HW1 1631   2.678   0.586   1.394  0.4731 -0.3746  2.2241
  544SOL    HW2 1632   2.622   0.728   1.461 -0.5227 -0.7458  0.1589
  545SOL     OW 1633   1.498   1.919   0.433  0.5506 -0.0592  0.2986
  545SOL    HW1 1634   1.463   1.981   0.508 -1.4284 -2.6619 -1.1185
  545SOL    HW2 1635   1.454   1.952   0.345  0.4078 -0.3053  2.7547
  546SOL     OW 1636   2.260   2.683   1.407  0.0932  0.0530  0.5682
  546SOL    HW1 1637   2.207   2.597   1.389  2.0059  1.6010  0.9810
  546SOL    HW2 1638   2.307   2.704   1.316 -0.8562  1.4032 -4.1737
  547SOL     OW 1639   0.665   2.397   2.318  0.5385  0.1655 -0.0823
  547SOL    HW1 1640   0.581   2.374   2.256 -1.1241 -0.7681 -0.1241
  547SOL    HW2 1641   0.729   2.319   2.330 -2.0037 -0.3420 -0.1082
  548SOL     OW 1642   1.273   0.683   2.702 -0.3672 -0.7616 -0.0036
  548SOL    HW1 1643   1.295   0.676   2.804  2.2726 -0.2754  3.3664
  548SOL    HW2 1644   1.347   0.734   2.649  0.0560 -0.6797 -0.4339
  549SOL     OW 1645   2.769   0.735   0.234  0.0492 -0.4090  0.7752
  549SOL    HW1 1646   2.691   0.690   0.278 -0.7176  0.5423 -0.0081
  549SOL    HW2 1647   2.770   0.833   0.248 -1.9930 -2.7762 -0.8675
  550SOL     OW 1648   2.222   1.294   0.307  0.3320 -0.0020 -0.5284
  550SOL    HW1 1649   2.293   1.359   0.346  2.6065 -0.1810  2.1794
  550SOL    HW2 1650   2.129   1.308   0.346 -0.4116 -0.8457  3.4548
  551SOL     OW 1651   1.315   0.360   1.129  0.3167 -0.1526  0.0167
  551SOL    HW1 1652   1.233   0.406   1.162  1.9611  1.1031 -0.1363
  551SOL    HW2 1653   1.409   0.403   1.148  4.0145  1.9990  2.1228
  552SOL     OW 1654   2.416   2.902   2.386  0.1419 -0.2539 -0.2102
  552SOL    HW1 1655   2.327   2.858   2.405  2.4699 -5.9142  1.6669
  552SOL    HW2 1656   2.413   2.995   2.428  0.3208  0.7653  1.2747
  553SOL     OW 1657   0.540   2.952   2.222 -0.2266 -0.0086  0.0562
  553SOL    HW1 1658   0.563   2.854   2.214 -0.4151  1.9773  2.8098
  553SOL    HW2 1659   0.465   2.978   2.158 -1.1715  2.2001  0.1504
  554SOL     OW 1660   0.469   0.020   1.410  0.6468 -0.1695  0.5256
  554SOL    HW1 1661   0.438   0.117   1.428 -1.9407 -1.7209  1.7195
  554SOL    HW2 1662   0.498   3.084   1.496  0.5450  2.3990 -0.5880
  555SOL     OW 1663   2.482   1.856   2.211 -0.4972 -0.5211 -0.1176
  555SOL    HW1 1664   2.445   1.785   2.152 -1.8644  3.6786  1.1879
  555SOL    HW2 1665   2.505   1.937   2.160  0.7745 -2.1050  0.7653
  556SOL     OW 1666   1.112   0.432   2.986  0.3870 -0.0943  0.3645
  556SOL    HW1 1667   1.107   0.334   2.947  0.3855 -1.5604  1.4889
  556SOL    HW2 1668   1.021   0.453   3.027  0.1581 -0.5749 -1.1695
  557SOL     OW 1669   0.401   1.762   2.315  0.3553  0.2867  0.0787
  557SOL    HW1 1670   0.320   1.753   2.250  0.5321 -0.1379  0.9645
  557SOL    HW2 1671   0.452   1.855   2.307 -0.2456  2.5494 -1.0908
  558SOL     OW 1672   2.026   0.509   2.941 -0.6676 -0.0367  0.2534
  558SOL    HW1 1673   2.109   0.486   2.885  0.5895  0.5918 -0.0666
  558SOL    HW2 1674   1.994   0.425   2.992 -1.7725 -0.0538  1.6913
  559SOL     OW 1675   2.170   1.837   1.698  0.0367  0.3473 -0.5909
  559SOL    HW1 1676   2.164   1.746   1.738  0.2930  0.9439 -1.7719
  559SOL    HW2 1677   2.164   1.833   1.595 -1.9077  0.0410 -1.5428
  560SOL     OW 1678   2.028   0.720   2.129 -0.0617 -0.3966 -0.6570
  560SOL    HW1 1679   2.043   0.643   2.058  0.8642 -2.8512 -3.1236
  560SOL    HW2 1680   2.069   0.811   2.109 -1.8068 -0.8695 -1.6467
  561SOL     OW 1681   0.185   0.243   2.884  0.2933 -0.0338 -0.4484
  561SOL    HW1 1682   0.104   0.289   2.846 -0.8080 -2.8196 -1.0172
  561SOL    HW2 1683   0.233   0.293   2.956 -0.0441 -2.0208  0.5715
  562SOL     OW 1684   0.796   1.592   1.421 -0.4231 -0.4749  0.4072
  562SOL    HW1 1685   0.898   1.613   1.413 -0.5147  1.6503  0.4301
  562SOL    HW2 1686   0.781   1.529   1.505 -0.5416 -2.2406  1.1582
  563SOL     OW 1687   1.169   0.169   2.921  0.2179 -0.3793  0.1686
  563SOL    HW1 1688   1.124   0.109   2.989  2.2966 -0.9057 -1.0995
  563SOL    HW2 1689   1.265   0.139   2.902  1.2279  1.4527  0.3822
  564SOL     OW 1690   3.000   2.265   0.755 -0.2525 -0.1609 -0.3943
  564SOL    HW1 1691   3.090   2.216   0.740 -0.2967  0.2469  2.4768
  564SOL    HW2 1692   3.018   2.362   0.782 -1.5702  1.2779 -0.9503
  565SOL     OW 1693   0.440   2.039   1.173  0.2919 -0.3463 -0.4023
  565SOL    HW1 1694   0.387   1.992   1.252  0.0397 -2.2226  2.7552
  565SOL    HW2 1695   0.519   2.093   1.216  1.7781 -0.7081  1.9754
  566SOL     OW 1696   1.649   2.941   2.376  0.4362  0.3452  0.3972
  566SOL    HW1 1697   1.626   3.041   2.375 -1.3105  1.3291  1.4520
  566SOL    HW2 1698   1.631   2.901   2.284  1.8641  0.3712  1.0470
  567SOL     OW 1699   2.339   2.912   0.867 -0.0237  0.0149 -0.6173
  567SOL    HW1 1700   2.310   2.968   0.945 -1.7462  0.4496  2.2320
  567SOL    HW2 1701   2.277   2.922   0.785 -0.7142 -0.4637 -0.2974
  568SOL     OW 1702   1.463   1.370   0.876 -0.2122  0.1338 -0.6585
  568SOL    HW1 1703   1.405   1.288   0.887  1.0695  1.5992  1.0078
  568SOL    HW2 1704   1.429   1.434   0.805  0.5571 -0.5840  0.7854
  569SOL     OW 1705   2.638   1.376   2.665  0.1752 -0.2831  0.3058
  569SOL    HW1 1706   2.608   1.456   2.723  2.4484  1.3042 -1.1510
  569SOL    HW2 1707   2.674   1.302   2.728 -2.7979  0.2567 -2.1092
  570SOL     OW 1708   2.945   0.144   1.741  0.8603 -0.4765  0.1565
  570SOL    HW1 1709   2.980   0.234   1.772  0.4945 -1.1268 -0.7132
  570SOL    HW2 1710   3.013   0.087   1.698  1.0342  1.6423  1.3123
  571SOL     OW 1711   0.335   0.096   1.815 -0.5120  0.0623 -0.1226
  571SOL    HW1 1712   0.410   0.162   1.836 -0.5132  0.6144 -0.2665
  571SOL    HW2 1713   0.368   0.034   1.739 -0.3733  3.1455  1.4865
  572SOL     OW 1714   2.911   2.325   1.217  0.5840  0.2081  0.1091
  572SOL    HW1 1715   2.878   2.317   1.124  1.0870 -0.1309 -0.6598
  572SOL    HW2 1716   2.960   2.417   1.234 -0.6633 -0.1981  1.9183
  573SOL     OW 1717   1.276   0.680   2.986  0.0959  0.4385 -0.3113
  573SOL    HW1 1718   1.207   0.726   3.044  1.0152 -1.8821 -1.0675
  573SOL    HW2 1719   1.260   0.577   2.981  0.3390 -0.8628  0.0336
  574SOL     OW 1720   2.434   2.734   2.714  0.8609  0.1178 -0.1094
  574SOL    HW1 1721   2.513   2.744   2.656 -2.1297  0.8124  0.1579
  574SOL    HW2 1722   2.377   2.821   2.713 -0.4083  1.0995  2.5431
  575SOL     OW 1723   1.264   2.843   1.128  0.3231  0.4657 -0.0600
  575SOL    HW1 1724   1.279   2.777   1.208  1.2122 -0.2737 -0.0137
  575SOL    HW2 1725   1.317   2.816   1.048 -2.2780 -4.4198  2.8090
  576SOL     OW 1726   0.960   0.087   1.033 -0.4037  0.2442 -0.0857
  576SOL    HW1 1727   1.059   0.111   0.997  0.6905  0.1644 -1.7012
  576SOL    HW2 1728   0.930   0.138   1.118 -2.2346  0.2689  0.0295
  577SOL     OW 1729   2.372   1.208   0.851  0.1334  0.2294 -0.5654
  577SOL    HW1 1730   2.426   1.240   0.772 -1.3746 -3.5443 -0.7174
  577SOL    HW2 1731   2.324   1.122   0.831 -0.7592  0.1096  1.1049
  578SOL     OW 1732   1.818   0.534   0.778 -0.3955  0.4058 -0.0344
  578SOL    HW1 1733   1.900   0.482   0.743  0.0938 -1.3652 -0.4350
  578SOL    HW2 1734   1.828   0.585   0.866  0.4691 -1.0432 -2.8504
  579SOL     OW 1735   1.855   0.714   2.873 -0.3055 -0.1398 -1.0124
  579SOL    HW1 1736   1.914   0.632   2.873  1.6441  2.5737  0.9089
  579SOL    HW2 1737   1.800   0.724   2.960 -1.7449  1.8352 -0.7711
  580SOL     OW 1738   1.529   0.711   2.219 -0.2564 -0.4525  0.4550
  580SOL    HW1 1739   1.489   0.695   2.314 -0.0632 -0.3542  0.6230
  580SOL    HW2 1740   1.467   0.771   2.162  0.2974 -2.4160 -1.6671
  581SOL     OW 1741   0.272   0.642   0.794 -0.3641  0.2177 -0.1713
  581SOL    HW1 1742   0.370   0.632   0.825  2.5246  1.9783  2.6041
  581SOL    HW2 1743   0.267   0.675   0.693 -1.0315  1.5525 -0.4197
  582SOL     OW 1744   2.729   0.122   1.910  0.4739  0.3265  0.0613
  582SOL    HW1 1745   2.800   0.116   1.838 -4.6112  0.1195  0.3835
  582SOL    HW2 1746   2.759   0.178   1.986 -0.8682 -1.0208 -1.8532
  583SOL     OW 1747   0.396   0.699   2.438 -0.6863 -0.4856 -0.5197
  583SOL    HW1 1748   0.428   0.719   2.532  0.5695  0.0855  2.3263
  583SOL    HW2 1749   0.428   0.604   2.406  1.2342  0.8355 -0.3653
  584SOL     OW 1750   1.897   2.017   0.031  0.3028 -0.4313  0.1015
  584SOL    HW1 1751   1.986   2.007   0.082  0.0183 -2.6732  0.9664
  584SOL    HW2 1752   1.881   2.120   0.029 -0.4258  1.0744 -0.5604
  585SOL     OW 1753   0.430   2.244   2.910  0.1062 -0.3805  0.5291
  585SOL    HW1 1754   0.367   2.162   2.884 -2.7438 -1.6346 -1.6931
  585SOL    HW2 1755   0.445   2.245   3.013 -1.6460  0.3943  0.3488
  586SOL     OW 1756   2.142   1.800   2.622 -0.2069  0.4037  0.1245
  586SOL    HW1 1757   2.125   1.698   2.631 -1.3315 -0.4508  0.0747
  586SOL    HW2 1758   2.066   1.846   2.661  0.2456  0.7066  1.7365
  587SOL     OW 1759   2.523   2.008   2.837 -0.3703 -0.1532 -0.2744
  587SOL    HW1 1760   2.465   1.958   2.903  1.3927  0.5407 -0.9522
  587SOL    HW2 1761   2.590   1.944   2.787 -0.8871  0.7372 -2.7901
  588SOL     OW 1762   3.005   0.366   1.005  0.0812  0.7919 -0.2105
  588SOL    HW1 1763   2.924   0.324   0.960 -2.9477 -3.3515 -1.2930
  588SOL    HW2 1764   3.091   0.346   0.950  0.1295 -1.3861 -1.0758
  589SOL     OW 1765   0.967   0.246   0.376  0.3231  0.4484  0.6575
  589SOL    HW1 1766   1.038   0.323   0.381 -0.1927 -0.7714 -0.3714
  589SOL    HW2 1767   0.871   0.284   0.341 -1.3309  0.1141 -0.5959
  590SOL     OW 1768   2.336   2.138   0.473 -0.3766  0.6777 -0.1288
  590SOL    HW1 1769   2.281   2.078   0.541 -2.1204 -1.1241  0.0070
  590SOL    HW2 1770   2.336   2.094   0.380 -1.6590 -0.6085 -0.8348
  591SOL     OW 1771   0.422   2.489   1.160  0.3910  0.1454  0.4617
  591SOL    HW1 1772   0.335   2.436   1.183  0.6255 -0.4456 -0.8859
  591SOL    HW2 1773   0.414   2.549   1.075 -3.5265  0.8264  2.4606
  592SOL     OW 1774   1.405   0.923   1.277 -0.3094  0.0985 -0.0832
  592SOL    HW1 1775   1.353   0.924   1.366  1.2524 -0.1091  0.6365
  592SOL    HW2 1776   1.453   1.011   1.258  0.1674 -0.2034 -2.1316
  593SOL     OW 1777   0.891   2.194   1.480 -0.0439 -0.1401  0.6098
  593SOL    HW1 1778   0.925   2.095   1.476  2.5607 -1.4454 -0.7137
  593SOL    HW2 1779   0.788   2.200   1.478 -2.4018  2.4405  0.6104
  594SOL     OW 1780   1.206   1.592   0.300 -0.4942 -0.0826  0.0228
  594SOL    HW1 1781   1.272   1.624   0.373  0.4414  0.9727 -0.0360
  594SOL    HW2 1782   1.261   1.567   0.217  2.5373 -1.2378 -1.2404
  595SOL     OW 1783   1.542   0.999   1.591 -0.0758 -0.3017  0.0480
  595SOL    HW1 1784   1.636   0.963   1.592 -2.0334 -0.1275 -0.2741
  595SOL    HW2 1785   1.550   1.099   1.569  0.6660 -2.0360 -0.9352
  596SOL     OW 1786   3.045   0.637   1.750 -0.0201 -0.3750  0.0174
  596SOL    HW1 1787   2.965   0.668   1.807  1.9914  2.6354  1.1368
  596SOL    HW2 1788   3.045   0.694   1.664 -0.5303 -0.9739  0.5252
  597SOL     OW 1789   1.208   2.694   2.061 -0.0684  0.1467  0.7349
  597SOL    HW1 1790   1.146   2.766   2.022  0.9210  2.6496  1.9135
  597SOL    HW2 1791   1.194   2.684   2.159 -2.0181 -0.3193 -0.2632
  598SOL     OW 1792   2.332   1.292   1.656  0.7645 -0.0784  0.2324
  598SOL    HW1 1793   2.246   1.280   1.599  1.8711  0.3366  0.3240
  598SOL    HW2 1794   2.400   1.361   1.614  0.6253 -1.1919 -2.1604
  599SOL     OW 1795   0.761   2.894   0.148 -0.0777  0.2163 -0.2777
  599SOL    HW1 1796   0.678   2.950   0.163  2.4964  0.8147  0.9395
  599SOL    HW2 1797   0.819   2.920   0.070 -0.9260  1.2197  0.2931
  600SOL     OW 1798   0.133   2.399   3.098  0.0384 -0.4290 -0.1825
  600SOL    HW1 1799   0.179   2.414   0.084  1.4450  0.5599  0.5510
  600SOL    HW2 1800   0.066   2.328   0.004  1.8113  0.2534 -0.4628
  601SOL     OW 1801   0.544   0.802   1.541 -0.1198  0.1927 -0.3621
  601SOL    HW1 1802   0.447   0.816   1.550  3.4997 -2.8960  0.0512
  601SOL    HW2 1803   0.574   0.738   1.616  2.1190 -3.2912 -0.0441
  602SOL     OW 1804   0.488   0.075   0.961 -0.3266  0.4689  0.6288
  602SOL    HW1 1805   0.503   0.033   1.050 -1.5796 -0.2843  1.4173
  602SOL    HW2 1806   0.524   0.020   0.883  0.6012 -1.2441  1.7718
  603SOL     OW 1807   0.326   0.335   2.672  0.2520  0.5896 -0.3874
  603SOL    HW1 1808   0.286   0.292   2.755  0.6823  0.4157  0.1338
  603SOL    HW2 1809   0.407   0.391   2.694 -0.3931  2.3032  0.8531
  604SOL     OW 1810   1.138   2.534   1.587  1.0488  0.2441  0.0116
  604SOL    HW1 1811   1.218   2.473   1.613 -1.1435  0.2299  3.8554
  604SOL    HW2 1812   1.061   2.502   1.645 -1.9029  0.0724 -0.5913
  605SOL     OW 1813   1.418   1.351   1.813  0.3058 -0.4788  0.0895
  605SOL    HW1 1814   1.393   1.437   1.762 -0.6816  0.0879  3.1839
  605SOL    HW2 1815   1.336   1.294   1.829  3.6900  0.4412 -0.1599
  606SOL     OW 1816   2.006   2.931   2.832  0.3381  0.2839  0.5883
  606SOL    HW1 1817   2.030   2.850   2.889  0.3426 -0.2461  3.4184
  606SOL    HW2 1818   1.998   3.007   2.896  0.9793 -2.0754 -1.1370
  607SOL     OW 1819   0.992   0.385   1.624 -0.1312  0.0755  0.1569
  607SOL    HW1 1820   1.080   0.360   1.585 -0.6311 -0.6107  3.6657
  607SOL    HW2 1821   0.941   0.296   1.629  0.2410 -0.4048  1.1858
  608SOL     OW 1822   0.438   2.258   2.502 -0.1393 -0.5327  0.3752
  608SOL    HW1 1823   0.472   2.166   2.528  0.2232  1.7279 -1.5328
  608SOL    HW2 1824   0.518   2.318   2.474  0.3777  2.6637  0.0263
  609SOL     OW 1825   1.248   1.238   0.376 -0.0447  0.3456  0.2152
  609SOL    HW1 1826   1.154   1.216   0.348  0.1914  0.0789  1.7019
  609SOL    HW2 1827   1.301   1.261   0.291 -1.3717  1.5414 -1.4948
  610SOL     OW 1828   0.316   0.200   0.774 -0.5464  0.0434 -0.3951
  610SOL    HW1 1829   0.313   0.141   0.692 -0.9922 -1.9279 -2.0909
  610SOL    HW2 1830   0.349   0.147   0.856  2.7799 -2.5414 -2.0083
  611SOL     OW 1831   1.200   1.288   0.634  0.3789  0.9974 -0.2677
  611SOL    HW1 1832   1.213   1.273   0.534  1.1862 -1.5424 -2.3699
  611SOL    HW2 1833   1.247   1.206   0.679  0.2943 -2.4934 -1.1964
  612SOL     OW 1834   2.063   1.693   0.088 -0.2908 -0.2570 -0.3440
  612SOL    HW1 1835   1.987   1.753   0.118 -0.9940  0.9488 -1.0856
  612SOL    HW2 1836   2.026   1.599   0.066 -0.1653 -0.6221  0.3277
  613SOL     OW 1837   1.684   1.297   0.233  0.1862  0.5296 -0.7060
  613SOL    HW1 1838   1.752   1.224   0.213  2.2484  1.5688 -0.4794
  613SOL    HW2 1839   1.596   1.281   0.186 -0.0468  1.5921 -0.2103
  614SOL     OW 1840   2.727   0.347   2.414 -0.2868 -0.4219  0.1883
  614SOL    HW1 1841   2.709   0.263   2.362  0.1535  0.5907 -0.8639
  614SOL    HW2 1842   2.827   0.351   2.428 -0.5229 -0.7387  0.2534
  615SOL     OW 1843   0.959   1.662   0.537 -0.6756  0.0844  0.0633
  615SOL    HW1 1844   1.002   1.651   0.629 -1.1446 -1.5360 -1.8349
  615SOL    HW2 1845   1.008   1.734   0.482 -0.0240 -1.5155 -2.1117
  616SOL     OW 1846   1.598   0.906   2.706  0.0754 -0.0293  0.3474
  616SOL    HW1 1847   1.695   0.892   2.670 -0.5655  0.6330  2.2172
  616SOL    HW2 1848   1.598   0.873   2.801  2.8371 -1.9123  2.3492
  617SOL     OW 1849   1.454   0.131   0.444 -0.3429  0.8836  0.4801
  617SOL    HW1 1850   1.486   0.224   0.474  0.4111  0.6727  1.0257
  617SOL    HW2 1851   1.352   0.117   0.447  1.3813  1.2625 -0.2653
  618SOL     OW 1852   2.845   2.026   2.228 -0.1105 -0.3094 -0.3338
  618SOL    HW1 1853   2.775   2.070   2.287  0.8872  0.1964  2.0372
  618SOL    HW2 1854   2.896   1.952   2.284  0.8104 -0.7833 -2.2321
  619SOL     OW 1855   2.239   1.641   0.760  0.5951 -0.0521 -0.2831
  619SOL    HW1 1856   2.193   1.674   0.850 -1.2975 -2.7767 -0.4732
  619SOL    HW2 1857   2.279   1.723   0.709 -0.5849  0.5537 -2.6355
  620SOL     OW 1858   2.332   3.085   1.603  0.5550 -0.2774 -0.0323
  620SOL    HW1 1859   2.359   3.036   1.517  1.3784 -0.7913 -0.8528
  620SOL    HW2 1860   2.364   3.036   1.685 -0.1716  0.4930 -1.1198
  621SOL     OW 1861   2.880   2.065   0.605 -0.4459  0.2952 -0.4733
  621SOL    HW1 1862   2.926   1.983   0.651 -0.3975 -3.3390  0.1729
  621SOL    HW2 1863   2.898   2.149   0.650 -1.6758 -0.8638 -1.4514
  622SOL     OW 1864   0.770   1.626   2.237  0.1806 -0.4479  0.3253
  622SOL    HW1 1865   0.697   1.586   2.290  2.6294  1.3972 -0.3015
  622SOL    HW2 1866   0.826   1.549   2.194  1.2624 -1.6954 -3.4702
  623SOL     OW 1867   2.695   2.714   2.637 -0.0627  0.1021  0.1703
  623SOL    HW1 1868   2.739   2.812   2.629  1.3967  4.4538 -0.2435
  623SOL    HW2 1869   2.759   2.640   2.667 -0.3812  1.0286  0.6566
  624SOL     OW 1870   1.048   1.809   0.269 -0.1857 -0.2889  0.5378
  624SOL    HW1 1871   1.093   1.724   0.293 -0.6488  0.1654 -0.6888
  624SOL    HW2 1872   0.995   1.813   0.182  0.6317 -0.5604 -0.3453
  625SOL     OW 1873   0.544   2.000   2.216  0.1093  0.3884  0.3674
  625SOL    HW1 1874   0.643   1.965   2.218  0.8167  0.6592  0.3531
  625SOL    HW2 1875   0.492   1.958   2.143  1.1325  0.3964  1.8808
  626SOL     OW 1876   0.088   2.560   0.326 -0.1960  0.7676 -0.4773
  626SOL    HW1 1877   0.096   2.567   0.426 -2.1820  0.3428 -1.4414
  626SOL    HW2 1878   0.043   2.471   0.302 -0.3244 -1.8590 -0.2511
  627SOL     OW 1879   1.072   1.734   2.891 -0.1150 -0.2448 -0.3313
  627SOL    HW1 1880   1.017   1.723   2.803  2.7159  0.9674  3.0221
  627SOL    HW2 1881   1.131   1.817   2.893  0.5729 -0.5586 -0.7630
  628SOL     OW 1882   1.475   2.060   0.675 -0.5141  0.0404  0.4284
  628SOL    HW1 1883   1.565   2.052   0.718  2.6376 -0.0230 -0.8245
  628SOL    HW2 1884   1.442   2.156   0.686  0.4667 -0.6497  1.9600
  629SOL     OW 1885   0.886   0.646   1.705  0.3332  0.4560 -0.6220
  629SOL    HW1 1886   0.945   0.645   1.790 -0.5714 -0.4315  0.1054
  629SOL    HW2 1887   0.870   0.550   1.671  1.6165 -2.1222  1.8108
  630SOL     OW 1888   2.553   0.342   1.846 -0.1460  0.2386 -0.1478
  630SOL    HW1 1889   2.504   0.316   1.762  0.6011  1.5287 -0.1619
  630SOL    HW2 1890   2.617   0.268   1.869 -0.3537  3.1677 -0.2776
  631SOL     OW 1891   1.342   0.571   0.751  0.2386 -0.0191  0.0056
  631SOL    HW1 1892   1.292   0.628   0.818 -0.0621  0.0640 -0.2040
  631SOL    HW2 1893   1.277   0.511   0.697 -0.8861 -1.1843 -2.0035
  632SOL     OW 1894   2.526   0.495   2.083  0.7395  0.2627  0.3183
  632SOL    HW1 1895   2.437   0.511   2.135 -0.6486 -0.3954  0.9988
  632SOL    HW2 1896   2.505   0.458   1.987 -1.7140  0.6535 -0.2091
  633SOL     OW 1897   1.235   1.269   2.813  0.4045 -0.3428 -0.3471
  633SOL    HW1 1898   1.239   1.371   2.837  1.2964  2.3092  2.7014
  633SOL    HW2 1899   1.325   1.240   2.775 -1.3741  0.7355  0.2031
  634SOL     OW 1900   0.474   2.234   0.085 -0.2902 -0.4999  0.5816
  634SOL    HW1 1901   0.428   2.323   0.109  1.0923 -0.7484 -0.2178
  634SOL    HW2 1902   0.538   2.202   0.152 -2.0920 -0.3811 -1.5499
  635SOL     OW 1903   2.591   1.481   1.879  0.1364 -0.0999  0.1661
  635SOL    HW1 1904   2.567   1.579   1.867  0.6009  1.3318 -3.2120
  635SOL    HW2 1905   2.617   1.464   1.977  1.7203 -0.9962  0.0058
  636SOL     OW 1906   0.398   1.826   3.031 -0.2414 -0.3466  0.2373
  636SOL    HW1 1907   0.446   1.769   3.098 -1.4552  1.4158 -0.3385
  636SOL    HW2 1908   0.314   1.857   3.073  0.4123 -2.6217 -3.3281
  637SOL     OW 1909   0.034   2.296   0.307  0.2744  0.4578 -0.0468
  637SOL    HW1 1910   0.097   2.242   0.248 -0.2581 -0.1357  1.0721
  637SOL    HW2 1911   3.046   2.251   0.304 -1.3712 -0.9134 -0.8898
  638SOL     OW 1912   2.508   2.780   0.515 -0.1187 -0.4281  0.3040
  638SOL    HW1 1913   2.520   2.757   0.611  3.2659  1.0758 -1.1430
  638SOL    HW2 1914   2.554   2.714   0.451 -1.1215 -0.7728 -3.2169
  639SOL     OW 1915   1.142   0.461   0.345 -0.2035  0.3650  0.1309
  639SOL    HW1 1916   1.111   0.556   0.333  2.5564  0.4698  0.9191
  639SOL    HW2 1917   1.182   0.429   0.260  2.3353  0.8634  2.1361
  640SOL     OW 1918   2.228   2.284   1.664  0.3673  0.3379 -0.3680
  640SOL    HW1 1919   2.279   2.196   1.651 -1.5035 -2.0541 -1.2395
  640SOL    HW2 1920   2.248   2.335   1.748  3.5080 -0.9947 -0.2499
  641SOL     OW 1921   2.814   3.000   1.241 -0.1752 -0.8703  0.2252
  641SOL    HW1 1922   2.817   3.040   1.145  0.0421 -1.4920  0.6704
  641SOL    HW2 1923   2.831   2.903   1.231 -3.6542  3.0840  0.7151
  642SOL     OW 1924   1.391   0.900   1.795 -0.5355 -0.1127  0.5995
  642SOL    HW1 1925   1.437   0.953   1.719 -0.9805  1.9572 -2.3415
  642SOL    HW2 1926   1.343   0.820   1.749  2.4235  1.9280  1.5394
  643SOL     OW 1927   1.125   1.718   2.234  0.4014 -0.3420  0.4395
  643SOL    HW1 1928   1.187   1.643   2.197  0.4151 -0.5274 -1.0149
  643SOL    HW2 1929   1.052   1.731   2.163 -0.8273 -2.4524  1.2243
  644SOL     OW 1930   1.484   0.255   2.044  0.8784  0.6023 -0.5197
  644SOL    HW1 1931   1.442   0.169   2.078 -2.0835 -1.8020 -2.9429
  644SOL    HW2 1932   1.544   0.292   2.116 -0.4770  0.6724  1.8035
  645SOL     OW 1933   1.633   1.294   1.666 -0.0115  0.4181 -0.2872
  645SOL    HW1 1934   1.604   1.315   1.573 -1.1237 -0.2270 -1.9881
  645SOL    HW2 1935   1.554   1.306   1.730  2.0100  2.7089  1.4464
  646SOL     OW 1936   1.501   2.292   3.019  0.2763  0.1546  0.2375
  646SOL    HW1 1937   1.543   2.303   2.926  2.2037  2.5250  0.1458
  646SOL    HW2 1938   1.501   2.382   3.065  3.4405 -2.9198  0.8293
  647SOL     OW 1939   1.674   2.616   1.124 -0.1156  0.5451 -0.4591
  647SOL    HW1 1940   1.737   2.547   1.084 -0.1322 -1.2529  1.1406
  647SOL    HW2 1941   1.591   2.567   1.156 -0.8825  0.2195  1.0659
  648SOL     OW 1942   0.103   2.413   1.468 -0.2889 -0.1477  0.1252
  648SOL    HW1 1943   0.060   2.507   1.461  2.4604  2.8361  0.1684
  648SOL    HW2 1944   0.064   2.362   1.547 -1.0877  1.0500 -3.8922
  649SOL     OW 1945   1.310   2.543   2.801 -0.3236  0.0667 -0.2354
  649SOL    HW1 1946   1.274   2.499   2.882 -0.8790  3.5246 -2.3402
  649SOL    HW2 1947   1.230   2.590   2.754  1.1931  0.2982 -0.4338
  650SOL     OW 1948   2.839   2.052   3.025 -0.3660  0.2389 -0.5307
  650SOL    HW1 1949   2.785   2.112   2.966 -2.0356 -1.3031  0.7486
  650SOL    HW2 1950   2.851   1.957   2.981 -0.8053 -1.2342 -1.2222
  651SOL     OW 1951   2.396   2.236   2.280  0.1769 -0.0430  0.1184
  651SOL    HW1 1952   2.391   2.200   2.185 -1.8884  1.0008  2.5928
  651SOL    HW2 1953   2.393   2.337   2.286 -0.8677 -0.2687  0.0238
  652SOL     OW 1954   2.336   2.459   0.819  0.2380  0.1087 -0.2458
  652SOL    HW1 1955   2.375   2.552   0.798 -0.0303  0.9551 -3.3012
  652SOL    HW2 1956   2.323   2.408   0.731 -2.2121  0.8071 -0.0106
  653SOL     OW 1957   2.840   1.712   1.515  0.1116  0.1010  0.2054
  653SOL    HW1 1958   2.849   1.629   1.573 -1.9162  1.8698  0.9947
  653SOL    HW2 1959   2.922   1.770   1.514  0.8595  0.5089 -2.8476
  654SOL     OW 1960   1.124   0.976   0.046  0.1671 -0.2494  0.4149
  654SOL    HW1 1961   1.095   1.034   3.066  1.2543  1.4360 -1.1170
  654SOL    HW2 1962   1.086   0.877   0.040  1.1431 -1.0543 -0.2413
  655SOL     OW 1963   1.032   1.071   1.154 -0.5703 -0.6727 -0.3037
  655SOL    HW1 1964   0.955   1.138   1.155  1.8135 -2.4793 -0.7371
  655SOL    HW2 1965   1.069   1.067   1.059  2.9735 -0.4491  0.4821
  656SOL     OW 1966   1.457   2.675   1.953  0.0990  0.0290  0.0907
  656SOL    HW1 1967   1.503   2.585   1.954 -1.5294  1.7817 -2.1192
  656SOL    HW2 1968   1.362   2.657   1.991 -0.6159  0.2336 -0.0922
  657SOL     OW 1969   1.963   1.454   0.054  0.4836  0.8063 -0.3040
  657SOL    HW1 1970   2.045   1.389   0.049 -1.6165  1.0225 -0.7957
  657SOL    HW2 1971   1.897   1.426   3.082 -3.4877  3.3291 -1.1526
  658SOL     OW 1972   1.774   2.475   1.429  0.2990  0.4293  0.7232
  658SOL    HW1 1973   1.810   2.439   1.516 -1.2714 -2.2375 -1.1879
  658SOL    HW2 1974   1.766   2.575   1.445  2.8587 -0.9601  0.0685
  659SOL     OW 1975   2.890   1.763   0.243  0.0947  0.4909  0.0957
  659SOL    HW1 1976   2.873   1.693   0.165  3.3463 -1.8607 -3.5984
  659SOL    HW2 1977   2.991   1.773   0.256  3.5103 -0.6446 -3.5335
  660SOL     OW 1978   0.821   0.245   0.617  0.4050 -0.1348 -0.1507
  660SOL    HW1 1979   0.899   0.267   0.559 -3.3005  2.0684 -0.5107
  660SOL    HW2 1980   0.843   0.167   0.678  1.3644  2.3068  2.2105
  661SOL     OW 1981   1.967   0.279   3.094 -0.4179  0.4934 -0.3875
  661SOL    HW1 1982   2.013   0.314   0.074 -1.4416  1.3951 -0.0560
  661SOL    HW2 1983   1.975   0.178   3.097 -1.9875 -1.8909  1.0817
  662SOL     OW 1984   0.374   0.376   0.517 -0.4912  0.0751  0.1397
  662SOL    HW1 1985   0.339   0.279   0.518  0.3255 -2.3593 -0.4500
  662SOL    HW2 1986   0.459   0.386   0.574  3.0495 -0.7023  0.9816
  663SOL     OW 1987   1.758   2.754   2.553 -0.3641  0.3227  0.1529
  663SOL    HW1 1988   1.703   2.793   2.474 -3.2555  0.6016 -1.5026
  663SOL    HW2 1989   1.690   2.713   2.620 -0.9069  0.3701 -0.3388
  664SOL     OW 1990   0.634   2.497   1.664 -0.0380 -0.4248  0.0904
  664SOL    HW1 1991   0.547   2.456   1.639  1.4724 -2.4277 -0.0695
  664SOL    HW2 1992   0.677   2.538   1.583 -4.1428 -3.2019  1.0797
  665SOL     OW 1993   1.428   2.489   1.177  0.1514  0.0194 -0.0080
  665SOL    HW1 1994   1.382   2.564   1.232  2.2152  1.1002  0.4497
  665SOL    HW2 1995   1.487   2.426   1.229  0.3267  0.7402  0.2962
  666SOL     OW 1996   0.926   2.835   2.402  0.0920  0.6494  0.3093
  666SOL    HW1 1997   1.018   2.801   2.376 -0.0963 -0.6487 -1.7543
  666SOL    HW2 1998   0.865   2.757   2.440 -2.1591  0.2479  0.8159
  667SOL     OW 1999   2.605   0.594   1.711 -0.2837 -0.0830 -0.1259
  667SOL    HW1 2000   2.618   0.586   1.613 -0.3276  0.7985  2.4939
  667SOL    HW2 2001   2.626   0.502   1.757 -1.4299 -2.1336 -0.6201
  668SOL     OW 2002   1.244   0.327   1.540 -0.0865 -0.2032 -0.0577
  668SOL    HW1 2003   1.346   0.296   1.554  0.2227 -0.4402  1.8288
  668SOL    HW2 2004   1.244   0.413   1.484 -0.3331  0.4741 -2.0442
  669SOL     OW 2005   2.405   2.409   1.240  0.0800 -0.4418  0.0684
  669SOL    HW1 2006   2.315   2.413   1.293 -1.0811  1.3329  2.5504
  669SOL    HW2 2007   2.491   2.407   1.295 -1.0249  0.2715 -2.3473
  670SOL     OW 2008   1.632   2.330   2.807 -0.3543 -0.1274 -0.7569
  670SOL    HW1 2009   1.671   2.370   2.722 -0.0356  0.0281 -2.2471
  670SOL    HW2 2010   1.643   2.230   2.803  3.1424 -0.5047 -1.1125
  671SOL     OW 2011   0.522   0.955   0.397 -0.9485 -0.1010  0.3217
  671SOL    HW1 2012   0.561   0.999   0.312 -0.6446  0.5850 -0.1196
  671SOL    HW2 2013   0.474   0.866   0.378 -0.0888 -2.1706  0.2845
  672SOL     OW 2014   2.625   1.068   3.075  0.0634  0.4768  0.5846
  672SOL    HW1 2015   2.718   1.025   3.089 -0.3422 -0.5971 -1.6746
  672SOL    HW2 2016   2.597   1.111   0.055  1.1752 -1.5218 -1.2004
  673SOL     OW 2017   3.065   1.874   1.534 -0.5684  0.6830 -0.1725
  673SOL    HW1 2018   3.069   1.964   1.493 -1.4437  1.9275  2.5506
  673SOL    HW2 2019   0.039   1.817   1.494 -0.2985  0.2222  0.1304
  674SOL     OW 2020   1.377   2.140   1.743  0.0766 -0.6355  0.2734
  674SOL    HW1 2021   1.278   2.134   1.720 -3.0647 -0.1242 -0.4732
  674SOL    HW2 2022   1.421   2.069   1.685 -0.9862  1.7407 -1.6279
  675SOL     OW 2023   0.844   1.282   1.182  0.6299  0.0612 -0.0766
  675SOL    HW1 2024   0.880   1.373   1.151  0.4324  0.7039  1.1234
  675SOL    HW2 2025   0.832   1.279   1.285  0.5117 -1.4074  2.3010
  676SOL     OW 2026   2.305   0.605   0.987 -0.6413 -0.1593  0.0376
  676SOL    HW1 2027   2.303   0.650   0.895 -0.0197  0.4540  3.2390
  676SOL    HW2 2028   2.387   0.633   1.043 -0.2997 -2.1699 -1.2836
  677SOL     OW 2029   2.560   0.408   0.155 -0.0674  0.2393 -0.1906
  677SOL    HW1 2030   2.466   0.376   0.138 -0.1109 -0.2090  2.7738
  677SOL    HW2 2031   2.602   0.455   0.072 -3.2418 -1.1123  0.3621
  678SOL     OW 2032   2.722   1.245   1.054  0.1695 -0.5695  0.1541
  678SOL    HW1 2033   2.725   1.328   0.991 -0.0887  1.2152 -0.9496
  678SOL    HW2 2034   2.638   1.188   1.031 -1.7374 -3.9229 -0.4918
  679SOL     OW 2035   2.642   0.594   3.073  0.1457 -0.0822 -0.4955
  679SOL    HW1 2036   2.628   0.688   0.006 -1.2364 -0.2882 -1.2090
  679SOL    HW2 2037   2.712   0.591   3.005 -0.5851  3.0704  1.8780
  680SOL     OW 2038   0.395   1.311   2.334  0.2918 -0.1191 -0.4567
  680SOL    HW1 2039   0.443   1.238   2.283 -0.5719  1.8729  2.8720
  680SOL    HW2 2040   0.377   1.267   2.428 -0.9296 -2.4623  0.1452
  681SOL     OW 2041   2.542   2.213   1.814  0.2737 -0.1642 -0.3658
  681SOL    HW1 2042   2.616   2.259   1.762 -0.2483  0.9203 -0.7319
  681SOL    HW2 2043   2.503   2.125   1.773 -2.1297 -2.7507 -1.5291
  682SOL     OW 2044   0.656   1.922   2.961 -0.6277 -0.1695  0.2510
  682SOL    HW1 2045   0.682   1.898   2.863 -1.2718 -2.6199 -0.1189
  682SOL    HW2 2046   0.557   1.901   2.975  1.9130 -1.3546  0.3797
  683SOL     OW 2047   2.559   1.977   1.064 -0.5191  0.3752  0.6537
  683SOL    HW1 2048   2.571   1.880   1.099 -0.6572  0.0352  0.1303
  683SOL    HW2 2049   2.514   2.028   1.143 -0.4785 -0.9437 -0.3569
  684SOL     OW 2050   2.700   0.972   1.872 -0.4167 -0.3079 -0.9696
  684SOL    HW1 2051   2.610   0.920   1.863 -1.7426  0.4759 -1.5536
  684SOL    HW2 2052   2.706   1.000   1.973 -0.5497  1.2661  0.3070
  685SOL     OW 2053   1.170   0.981   0.938  0.2350 -0.8547  0.1801
  685SOL    HW1 2054   1.172   0.908   1.009 -0.1518  0.2380 -2.7526
  685SOL    HW2 2055   1.146   0.945   0.845 -1.6796  1.3670  1.1425
  686SOL     OW 2056   0.693   0.274   2.997  0.1695  0.0424 -0.8522
  686SOL    HW1 2057   0.748   0.194   2.970  1.8178  3.0506  2.0720
  686SOL    HW2 2058   0.604   0.244   3.039 -2.2301 -1.2350 -0.6259
  687SOL     OW 2059   0.500   2.275   2.153  0.0605  0.8835  0.2037
  687SOL    HW1 2060   0.446   2.283   2.064  1.9168  3.6829  0.6085
  687SOL    HW2 2061   0.528   2.177   2.166 -1.4809  0.2122 -0.4137
  688SOL     OW 2062   2.144   0.337   1.642 -0.4960 -0.6077  0.2671
  688SOL    HW1 2063   2.049   0.309   1.644 -1.1440 -1.5920  1.1091
  688SOL    HW2 2064   2.186   0.342   1.549  1.1888 -1.2464  2.4151
  689SOL     OW 2065   2.049   0.995   0.567  0.5413  0.4834  0.2049
  689SOL    HW1 2066   1.989   0.910   0.565  1.5572 -0.9720  2.2412
  689SOL    HW2 2067   2.051   1.045   0.477  1.1842  0.2733 -2.3410
  690SOL     OW 2068   3.060   0.796   1.536 -0.7152 -0.1869 -0.0740
  690SOL    HW1 2069   3.009   0.862   1.596 -1.4803 -1.2178  0.7763
  690SOL    HW2 2070   3.042   0.818   1.438 -0.4526  1.7698  0.9992
  691SOL     OW 2071   0.036   1.024   1.915  0.2878  0.1544  0.1125
  691SOL    HW1 2072   0.087   1.054   1.832 -1.8626  1.1853 -0.6376
  691SOL    HW2 2073   3.052   1.063   1.923  1.6601 -1.8347 -1.8233
  692SOL     OW 2074   0.809   0.884   2.009  0.0342  0.1588  0.3044
  692SOL    HW1 2075   0.844   0.793   1.984 -0.5462 -0.0541  0.9667
  692SOL    HW2 2076   0.772   0.932   1.926  0.1510  0.7316 -4.6581
  693SOL     OW 2077   0.215   1.285   2.126 -0.0530 -0.1003  0.0885
  693SOL    HW1 2078   0.146   1.352   2.099 -1.3301  0.8556 -1.5193
  693SOL    HW2 2079   0.260   1.309   2.216  0.0737  3.4615  1.2354
  694SOL     OW 2080   1.414   1.675   0.506  0.2589 -0.4796 -0.7729
  694SOL    HW1 2081   1.480   1.610   0.467 -1.3409 -2.2383 -1.2775
  694SOL    HW2 2082   1.441   1.772   0.481  0.3983  1.4134 -0.2979
  695SOL     OW 2083   0.548   1.022   1.173 -0.0293  0.0834  0.2306
  695SOL    HW1 2084   0.579   1.014   1.073 -0.7440 -0.1549  0.2807
  695SOL    HW2 2085   0.472   1.084   1.192 -0.2760 -0.4668  2.4807
  696SOL     OW 2086   0.394   2.428   0.456  0.2976  0.3234 -0.0605
  696SOL    HW1 2087   0.441   2.516   0.479  0.9623  1.8948  1.0026
  696SOL    HW2 2088   0.451   2.346   0.481  2.4534 -3.8616  1.7957
  697SOL     OW 2089   1.240   0.579   1.424 -0.3068 -0.0498  0.1091
  697SOL    HW1 2090   1.316   0.610   1.368  0.2289 -1.4838  0.0176
  697SOL    HW2 2091   1.153   0.584   1.369  1.0135  0.8334 -1.7560
  698SOL     OW 2092   1.657   1.594   1.576 -0.1022  0.1977  0.1924
  698SOL    HW1 2093   1.562   1.566   1.608 -0.4849  0.6407  2.7195
  698SOL    HW2 2094   1.681   1.688   1.603 -0.8563 -1.1912 -1.4869
  699SOL     OW 2095   3.010   0.621   2.423  0.2098  0.1529  0.1049
  699SOL    HW1 2096   2.965   0.571   2.344 -0.9573  2.1188 -0.5836
  699SOL    HW2 2097   3.062   0.705   2.397  1.8830  2.3487 -1.0379
  700SOL     OW 2098   1.624   2.460   0.695 -0.8842 -0.0806  0.0982
  700SOL    HW1 2099   1.595   2.553   0.702  0.2204 -4.6497 -0.8779
  700SOL    HW2 2100   1.546   2.403   0.720  1.1142  3.2591 -1.1431
  701SOL     OW 2101   0.181   1.510   2.558  0.6445 -0.5049 -0.0317
  701SOL    HW1 2102   0.165   1.425   2.614 -2.1008  2.1855  1.1917
  701SOL    HW2 2103   0.268   1.563   2.579 -1.8001  0.8173 -1.0495
  702SOL     OW 2104   0.332   0.264   0.052  0.6328  0.4067 -0.0337
  702SOL    HW1 2105   0.334   0.167   0.013  2.7383 -1.6082 -2.0245
  702SOL    HW2 2106   0.360   0.329   3.081  1.9639 -2.3195  0.0594
  703SOL     OW 2107   1.698   3.031   2.683 -0.4906  0.1067  0.4036
  703SOL    HW1 2108   1.726   0.021   2.705  0.8494  1.1061  1.5631
  703SOL    HW2 2109   1.747   2.984   2.607  1.9326  0.6718 -0.6550
  704SOL     OW 2110   2.616   1.930   0.630  0.4504  0.2239  0.0338
  704SOL    HW1 2111   2.602   1.990   0.548  1.0599 -0.1619  1.4326
  704SOL    HW2 2112   2.707   1.946   0.673  0.3537 -1.8580  0.2903
  705SOL     OW 2113   2.743   1.822   1.859  0.1598 -0.5852 -0.2471
  705SOL    HW1 2114   2.666   1.788   1.806 -1.6531 -0.4086  0.0346
  705SOL    HW2 2115   2.713   1.850   1.954  1.2582  2.7558 -1.1286
  706SOL     OW 2116   2.976   2.769   0.895  0.0903 -0.3691 -0.1449
  706SOL    HW1 2117   2.926   2.805   0.812  1.5091 -0.4506 -2.2013
  706SOL    HW2 2118   3.044   2.838   0.923  1.6139  1.3235 -0.4842
  707SOL     OW 2119   0.863   3.037   0.357 -0.1400 -0.0384 -0.1814
  707SOL    HW1 2120   0.953   2.985   0.365 -0.1056  1.7582  1.7519
  707SOL    HW2 2121   0.815   3.010   0.270  0.1510  1.4604 -0.9082
  708SOL     OW 2122   0.613   2.227   1.447 -0.0009 -0.7043 -0.6415
  708SOL    HW1 2123   0.620   2.254   1.350 -1.4768 -0.6441 -0.1714
  708SOL    HW2 2124   0.531   2.275   1.484  1.0332 -0.9798 -0.0799
  709SOL     OW 2125   1.533   0.103   2.373  0.1301 -0.6759  0.1586
  709SOL    HW1 2126   1.502   0.148   2.461 -0.3166 -1.2974 -0.3151
  709SOL    HW2 2127   1.456   0.067   2.322  3.2563  2.0161 -1.5752
  710SOL     OW 2128   1.491   2.893   2.748 -0.2429 -0.0342 -0.2696
  710SOL    HW1 2129   1.516   2.829   2.825 -0.7246  0.5484 -0.7095
  710SOL    HW2 2130   1.574   2.944   2.708  2.6084 -0.2610 -0.0561
  711SOL     OW 2131   1.416   2.105   2.732 -0.1041 -0.3138 -0.1025
  711SOL    HW1 2132   1.337   2.060   2.775  0.9386  1.3657 -1.5578
  711SOL    HW2 2133   1.371   2.191   2.703  0.4139 -1.4198  1.4075
  712SOL     OW 2134   1.035   1.987   2.667  0.2216 -0.0331  0.3836
  712SOL    HW1 2135   1.123   1.961   2.620  2.2470 -1.3551 -1.4670
  712SOL    HW2 2136   0.957   1.933   2.627 -1.9806 -0.9475 -0.3684
  713SOL     OW 2137   1.105   0.978   1.849 -0.2062 -0.5265  0.4936
  713SOL    HW1 2138   1.034   0.913   1.880 -1.0366 -0.8399 -2.3824
  713SOL    HW2 2139   1.137   0.959   1.758 -1.8937 -0.7955  3.3609
  714SOL     OW 2140   1.304   1.542   1.118  0.0700  0.1807 -0.3943
  714SOL    HW1 2141   1.375   1.611   1.092 -2.7081 -2.2082 -0.0970
  714SOL    HW2 2142   1.207   1.584   1.120 -1.2173  0.6335 -1.4253
  715SOL     OW 2143   2.506   0.239   0.891  0.1732  0.6114 -0.2076
  715SOL    HW1 2144   2.551   0.306   0.831 -0.9140 -1.1878  0.2217
  715SOL    HW2 2145   2.450   0.283   0.962  1.0733 -2.1498 -1.9787
  716SOL     OW 2146   0.495   2.692   0.557  0.4080 -0.0356  0.4462
  716SOL    HW1 2147   0.502   2.656   0.651  0.2165 -0.8374 -5.2171
  716SOL    HW2 2148   0.586   2.714   0.517 -1.5096 -0.3321 -2.0525
  717SOL     OW 2149   2.975   0.587   0.161  0.2392 -0.1368 -0.0045
  717SOL    HW1 2150   2.963   0.491   0.128 -2.4165  4.2832  1.1509
  717SOL    HW2 2151   2.883   0.626   0.182 -0.6271 -0.6735  2.5910
  718SOL     OW 2152   1.697   1.828   1.113  0.4627  0.0554  0.0545
  718SOL    HW1 2153   1.736   1.738   1.089 -2.3969 -0.1856  0.6537
  718SOL    HW2 2154   1.747   1.907   1.065  0.9010  2.4301 -0.4678
  719SOL     OW 2155   2.802   2.291   0.953  0.0942  0.2752 -0.3560
  719SOL    HW1 2156   2.715   2.265   0.906  0.3562 -0.5451  3.3583
  719SOL    HW2 2157   2.873   2.300   0.877  3.7853 -1.1416 -2.3181
  720SOL     OW 2158   0.736   1.014   0.952 -0.1921  0.1714 -0.1538
  720SOL    HW1 2159   0.788   1.037   1.034 -0.3253 -0.6654  0.0343
  720SOL    HW2 2160   0.744   1.082   0.875  2.5072 -1.2718 -0.1810
  721SOL     OW 2161   1.475   0.606   1.005  0.1859  0.0995 -0.0153
  721SOL    HW1 2162   1.436   0.549   0.931 -1.0832  1.4276  1.8358
  721SOL    HW2 2163   1.566   0.628   0.982 -2.5847 -2.9807  0.2107
  722SOL     OW 2164   1.151   1.320   2.135 -0.1364  0.1819 -0.2166
  722SOL    HW1 2165   1.222   1.385   2.171  4.1196  0.5732 -2.6122
  722SOL    HW2 2166   1.056   1.356   2.134 -0.1120 -0.1732 -1.0252
  723SOL     OW 2167   0.911   2.879   1.423  0.4880 -0.5810  0.2831
  723SOL    HW1 2168   0.894   2.980   1.424  0.6485  2.7482  0.1257
  723SOL    HW2 2169   1.001   2.860   1.468 -0.3326 -0.8963 -1.7768
  724SOL     OW 2170   1.908   2.058   1.761 -0.1836  0.1662 -0.2525
  724SOL    HW1 2171   1.857   2.116   1.826  1.7521 -0.7256 -1.2792
  724SOL    HW2 2172   1.924   2.104   1.674 -0.3986 -0.6547 -1.0557
  725SOL     OW 2173   0.996   2.781   1.180  0.0677 -0.0701 -0.4896
  725SOL    HW1 2174   0.960   2.819   1.270  0.5890 -0.7641  1.5414
  725SOL    HW2 2175   1.096   2.803   1.172 -0.4129  2.0501 -1.0838
  726SOL     OW 2176   1.837   2.822   0.020 -0.1191 -0.3947  1.3441
  726SOL    HW1 2177   1.785   2.762   0.081 -1.6952 -1.7559  0.0458
  726SOL    HW2 2178   1.916   2.764   3.089  0.3860 -1.9729  2.0061
  727SOL     OW 2179   1.442   1.775   0.815  0.0130  0.0133  0.3995
  727SOL    HW1 2180   1.427   1.856   0.756 -0.6056  1.3485  1.9491
  727SOL    HW2 2181   1.525   1.726   0.782  0.1014  0.2802 -0.8340
  728SOL     OW 2182   2.098   3.056   2.127  0.5727 -0.3847 -0.0226
  728SOL    HW1 2183   2.057   0.003   2.049 -0.4512  0.7118  1.9979
  728SOL    HW2 2184   2.192   3.030   2.096  0.9837 -1.7510  0.0277
  729SOL     OW 2185   2.434   1.842   1.274  0.1221 -0.4040  0.2234
  729SOL    HW1 2186   2.364   1.904   1.318  2.1657 -0.6246 -0.3226
  729SOL    HW2 2187   2.395   1.778   1.205 -0.6055 -1.2809 -1.4120
  730SOL     OW 2188   1.798   0.427   2.547 -0.6761 -0.0417  0.0468
  730SOL    HW1 2189   1.881   0.368   2.564 -1.2817 -1.1060  1.1315
  730SOL    HW2 2190   1.832   0.514   2.512  0.7233 -2.4749 -0.4286
  731SOL     OW 2191   0.368   0.295   1.445 -0.0945 -0.0064  0.2741
  731SOL    HW1 2192   0.297   0.363   1.464 -1.4701 -1.0157 -1.1366
  731SOL    HW2 2193   0.433   0.324   1.372 -1.8706 -0.8649 -0.6073
  732SOL     OW 2194   1.779   0.304   1.307 -0.4964 -0.1969  0.1485
  732SOL    HW1 2195   1.719   0.384   1.334 -3.7811  1.8091 -1.3523
  732SOL    HW2 2196   1.747   0.218   1.346 -0.1469  0.1397 -1.6068
  733SOL     OW 2197   0.880   1.080   1.578 -0.6308 -0.1654 -0.3569
  733SOL    HW1 2198   0.806   1.072   1.509 -0.9980  0.2169  2.9159
  733SOL    HW2 2199   0.940   0.995   1.574 -1.3786 -0.8146 -1.5194
  734SOL     OW 2200   2.453   1.828   0.134 -0.2987  0.4351  0.0339
  734SOL    HW1 2201   2.407   1.739   0.149  4.6047  0.9229  0.8550
  734SOL    HW2 2202   2.514   1.841   0.212 -1.1772  0.2345  3.0555
  735SOL     OW 2203   0.426   0.707   0.326  0.4066  0.3988 -0.1195
  735SOL    HW1 2204   0.418   0.714   0.225  1.7953  2.4448 -1.0006
  735SOL    HW2 2205   0.469   0.615   0.354 -1.4289 -0.5726  0.2221
  736SOL     OW 2206   1.907   2.521   2.623 -0.8213 -0.3128 -0.4722
  736SOL    HW1 2207   1.935   2.508   2.722 -1.6022 -0.5654  1.7905
  736SOL    HW2 2208   1.870   2.615   2.620  0.3530 -2.2010  2.0586
  737SOL     OW 2209   0.975   1.861   1.026 -0.6394 -0.3796  0.2264
  737SOL    HW1 2210   1.002   1.774   1.072  0.1917  1.3752 -2.4515
  737SOL    HW2 2211   1.013   1.944   1.071 -1.0409  1.4738 -0.7480
  738SOL     OW 2212   1.924   2.755   2.111 -0.1030 -0.1398  0.3138
  738SOL    HW1 2213   1.990   2.836   2.112  1.7274  2.2744  2.6236
  738SOL    HW2 2214   1.947   2.681   2.177 -1.2457  1.1157 -1.7052
  739SOL     OW 2215   1.346   2.316   2.361 -0.3126 -0.0230  0.5729
  739SOL    HW1 2216   1.416   2.265   2.416  1.9714 -1.6346 -0.5312
  739SOL    HW2 2217   1.387   2.408   2.342 -2.6095 -0.6673 -1.5143
  740SOL     OW 2218   1.765   2.416   1.739 -0.1602 -0.2042 -0.1215
  740SOL    HW1 2219   1.790   2.500   1.792  0.5226 -0.7296  1.0288
  740SOL    HW2 2220   1.665   2.407   1.735  0.0493  1.3163 -4.2921
  741SOL     OW 2221   2.379   1.584   2.583 -0.4620  0.9540 -0.6834
  741SOL    HW1 2222   2.452   1.513   2.574 -2.1581 -0.6068 -0.2384
  741SOL    HW2 2223   2.409   1.665   2.525  4.4387  1.9754 -0.0107
  742SOL     OW 2224   0.859   1.340   2.978  0.3126  0.0049  0.4414
  742SOL    HW1 2225   0.890   1.436   2.955  0.5015  0.2604 -1.3523
  742SOL    HW2 2226   0.791   1.308   2.908  0.2079  3.1687 -0.4855
  743SOL     OW 2227   1.944   1.210   2.483 -0.0812  0.0154  0.3729
  743SOL    HW1 2228   1.899   1.163   2.403  0.6959  0.6012  0.8427
  743SOL    HW2 2229   2.010   1.282   2.450  1.8065  2.3915 -1.0987
  744SOL     OW 2230   2.109   3.000   1.394  0.1538  0.4181 -0.6532
  744SOL    HW1 2231   2.202   3.019   1.363  0.2977  2.9908  1.4710
  744SOL    HW2 2232   2.040   2.987   1.318 -1.6472  2.0149 -0.8919
  745SOL     OW 2233   2.500   1.089   1.065  0.4208  0.2874  0.1785
  745SOL    HW1 2234   2.469   1.096   1.158 -0.6380  1.9415  0.4217
  745SOL    HW2 2235   2.432   1.134   0.998 -2.0696 -2.0100  0.0664
  746SOL     OW 2236   2.370   1.631   1.108  0.6081  0.3848 -0.1716
  746SOL    HW1 2237   2.329   1.545   1.069  3.9208 -0.9341 -1.5939
  746SOL    HW2 2238   2.471   1.637   1.091  2.0751 -1.6780 -0.8377
  747SOL     OW 2239   2.128   2.650   0.208  0.5733 -0.4973  0.0090
  747SOL    HW1 2240   2.064   2.691   0.277 -2.0440 -1.5686 -0.9630
  747SOL    HW2 2241   2.171   2.722   0.144  1.8870  2.7298 -5.8111
  748SOL     OW 2242   0.964   2.157   0.080  0.0510 -0.2263 -0.0913
  748SOL    HW1 2243   0.917   2.068   0.114 -2.0591 -1.6989 -2.5952
  748SOL    HW2 2244   0.914   2.198   0.002  0.4976  2.9860  0.9360
  749SOL     OW 2245   3.014   0.307   2.322  0.0472 -0.3265  0.4333
  749SOL    HW1 2246   3.090   0.300   2.387 -0.5238 -1.4778 -1.3075
  749SOL    HW2 2247   3.027   0.375   2.248  0.8064  1.4702  1.3945
  750SOL     OW 2248   1.259   0.663   1.733  0.5128  0.0666  0.0499
  750SOL    HW1 2249   1.240   0.608   1.818  1.1631  1.0931  1.8488
  750SOL    HW2 2250   1.266   0.612   1.646  3.0950  2.7678 -0.9020
  751SOL     OW 2251   2.527   2.790   2.066 -0.7552 -0.9216 -0.0487
  751SOL    HW1 2252   2.556   2.713   2.006 -2.3039  0.0085  2.5073
  751SOL    HW2 2253   2.437   2.761   2.103 -0.1062  0.5523  1.8334
  752SOL     OW 2254   2.056   1.446   1.092 -0.9609 -0.9425  0.4961
  752SOL    HW1 2255   2.000   1.363   1.071  0.0926  0.0009  0.1461
  752SOL    HW2 2256   2.139   1.448   1.030 -0.6360 -0.9907  1.1431
  753SOL     OW 2257   1.538   1.102   2.226 -0.2768  0.4322  0.0540
  753SOL    HW1 2258   1.539   1.175   2.151  1.4621  1.3562 -0.6893
  753SOL    HW2 2259   1.494   1.018   2.190  1.7510 -0.7179  1.9975
  754SOL     OW 2260   0.154   2.500   1.009 -0.2025  0.4830 -0.3812
  754SOL    HW1 2261   0.156   2.600   1.029  1.1996 -1.2182  0.8448
  754SOL    HW2 2262   0.156   2.446   1.097 -2.4219  0.7446 -1.3811
  755SOL     OW 2263   2.367   3.025   1.317 -0.0492  0.1022  0.8717
  755SOL    HW1 2264   2.455   3.077   1.324  0.2390 -1.5832 -1.7750
  755SOL    HW2 2265   2.389   2.930   1.282 -1.3441 -0.7797  0.0680
  756SOL     OW 2266   1.724   1.936   2.111 -0.0126 -0.5471 -0.0828
  756SOL    HW1 2267   1.724   1.857   2.048  1.5876 -1.6097 -0.8212
  756SOL    HW2 2268   1.726   1.913   2.206  3.3408 -0.6508 -1.1407
  757SOL     OW 2269   3.046   3.072   2.008 -0.4913 -0.0474  0.0903
  757SOL    HW1 2270   2.981   3.089   2.086  0.2224  1.0108  0.0068
  757SOL    HW2 2271   0.005   0.045   2.001 -1.0790 -0.4792  1.1619
  758SOL     OW 2272   0.542   2.666   1.342  0.1023  0.4380 -0.1679
  758SOL    HW1 2273   0.639   2.653   1.377 -3.1711 -1.3323 -0.2990
  758SOL    HW2 2274   0.514   2.590   1.284  0.8666  3.2490 -0.3216
  759SOL     OW 2275   2.119   0.940   1.305 -0.0840 -0.1562  0.0193
  759SOL    HW1 2276   2.213   0.969   1.323  0.0418 -0.6410 -2.9682
  759SOL    HW2 2277   2.106   0.843   1.345  2.6058 -0.4351  0.2693
  760SOL     OW 2278   1.515   0.276   1.554 -0.1858  0.5696  0.0532
  760SOL    HW1 2279   1.557   0.265   1.647  2.0905  1.6251  3.2727
  760SOL    HW2 2280   1.548   0.359   1.502  0.7609  0.4397 -1.4379
  761SOL     OW 2281   2.018   0.249   0.930 -0.7743  0.0281  0.0497
  761SOL    HW1 2282   1.928   0.244   0.978  2.4431  0.0582 -2.1498
  761SOL    HW2 2283   2.048   0.158   0.889  2.7871 -2.0192 -1.7346
  762SOL     OW 2284   1.940   2.787   0.366  0.2528 -0.5727  0.2012
  762SOL    HW1 2285   1.932   2.887   0.386  0.3555 -1.3851  2.2557
  762SOL    HW2 2286   1.845   2.753   0.356 -1.5977 -0.9716 -0.2578
  763SOL     OW 2287   0.949   0.569   1.363 -0.3968  0.0958  0.1000
  763SOL    HW1 2288   0.987   0.523   1.444  0.5877 -0.2728 -2.6852
  763SOL    HW2 2289   0.852   0.537   1.349 -1.0591  0.4069  0.3444
  764SOL     OW 2290   2.658   2.428   2.475 -0.4032  0.6424  0.2757
  764SOL    HW1 2291   2.760   2.421   2.464  0.0766  2.5336 -0.7897
  764SOL    HW2 2292   2.621   2.496   2.410 -0.2733  1.1775 -0.0273
  765SOL     OW 2293   2.948   1.102   2.553 -0.3054  0.2866  0.2942
  765SOL    HW1 2294   3.020   1.077   2.486 -1.7277 -2.9357  1.7920
  765SOL    HW2 2295   2.959   1.044   2.637  1.3064  0.3471  0.0957
  766SOL     OW 2296   2.767   1.310   2.422  0.6166  0.2985 -0.3027
  766SOL    HW1 2297   2.710   1.344   2.500 -0.6623  0.6800  1.4713
  766SOL    HW2 2298   2.786   1.211   2.431 -0.4360 -1.8019 -1.2068
  767SOL     OW 2299   0.326   2.099   1.692 -0.2916  0.0712  0.3118
  767SOL    HW1 2300   0.398   2.028   1.682 -0.5268  2.3045  1.7798
  767SOL    HW2 2301   0.253   2.068   1.756 -0.7785 -0.1248  0.9783
  768SOL     OW 2302   1.046   0.717   0.041 -0.2959  0.1123 -0.1901
  768SOL    HW1 2303   1.002   0.636   0.006 -1.7053 -0.7044 -0.6572
  768SOL    HW2 2304   1.039   0.715   0.138  0.6418 -1.9822 -2.6819
  769SOL     OW 2305   1.515   2.558   0.008 -0.4457 -0.9328  0.2172
  769SOL    HW1 2306   1.436   2.523   0.060 -0.1202  0.8069  0.9467
  769SOL    HW2 2307   1.585   2.595   0.072 -0.2717 -0.7390 -0.3786
  770SOL     OW 2308   1.153   0.184   2.479  0.0090  0.2904  0.3258
  770SOL    HW1 2309   1.128   0.231   2.390  2.5842  2.6515  0.8973
  770SOL    HW2 2310   1.133   0.082   2.480 -0.4149 -0.3902 -1.8098
  771SOL     OW 2311   0.563   2.590   0.780 -0.4450  0.5592 -0.5622
  771SOL    HW1 2312   0.643   2.548   0.737 -1.8890  1.4127 -0.8694
  771SOL    HW2 2313   0.588   2.631   0.872  2.2397 -1.7240 -1.1027
  772SOL     OW 2314   2.802   0.998   0.291 -0.1257  0.1064 -0.2473
  772SOL    HW1 2315   2.779   1.094   0.271  1.2428 -2.2017  2.3002
  772SOL    HW2 2316   2.903   0.979   0.286  2.5296 -1.0307 -1.2677
  773SOL     OW 2317   1.672   0.858   1.816  0.4297 -0.1002 -0.4128
  773SOL    HW1 2318   1.730   0.841   1.734 -3.5414  2.4584 -0.0273
  773SOL    HW2 2319   1.581   0.901   1.790 -0.4578 -0.4783 -1.9924
  774SOL     OW 2320   0.552   0.324   0.716 -0.3096  0.3436 -0.2706
  774SOL    HW1 2321   0.629   0.257   0.712 -1.2407 -0.6732 -1.9597
  774SOL    HW2 2322   0.462   0.280   0.749 -0.8241 -0.1177 -0.8901
  775SOL     OW 2323   1.627   3.071   0.341  0.1880  0.2316 -0.1519
  775SOL    HW1 2324   1.606   2.974   0.356  0.7641 -1.1223 -0.8000
  775SOL    HW2 2325   1.558   0.027   0.390 -0.1180  2.3788  3.2269
  776SOL     OW 2326   2.338   0.397   2.376 -0.1247  0.5947 -0.0170
  776SOL    HW1 2327   2.341   0.495   2.356  2.2311 -2.1814 -0.1334
  776SOL    HW2 2328   2.254   0.359   2.337  1.7803  1.9461  0.6251
  777SOL     OW 2329   1.557   1.449   3.032  0.0103 -0.1250  0.5498
  777SOL    HW1 2330   1.643   1.399   3.040  0.0080  1.2290 -0.4414
  777SOL    HW2 2331   1.527   1.454   2.932  2.5279 -2.3987  1.5862
  778SOL     OW 2332   0.167   2.729   0.136  0.6480 -0.9514  0.3110
  778SOL    HW1 2333   0.113   2.661   0.186  1.6997  2.1131 -1.2712
  778SOL    HW2 2334   0.218   2.793   0.197  2.4494 -1.4869 -0.1359
  779SOL     OW 2335   0.137   1.492   0.225  0.0284 -0.0912 -0.2037
  779SOL    HW1 2336   0.123   1.437   0.311 -1.9791 -1.8551  1.3159
  779SOL    HW2 2337   0.234   1.490   0.199 -3.3351 -0.4719  2.1417
  780SOL     OW 2338   2.040   0.036   1.878  0.1290  0.4591  0.7872
  780SOL    HW1 2339   2.057   3.052   1.829  0.6563 -0.6025  1.4502
  780SOL    HW2 2340   1.969   0.097   1.832  1.2399  0.0282 -0.1266
  781SOL     OW 2341   1.557   1.235   1.423 -0.1927 -0.1715  0.3210
  781SOL    HW1 2342   1.463   1.265   1.394 -1.7156 -7.0127  0.3688
  781SOL    HW2 2343   1.626   1.285   1.369 -1.1582  0.3563 -2.4878
  782SOL     OW 2344   1.950   2.144   2.085 -0.1952  0.0022 -0.6724
  782SOL    HW1 2345   1.871   2.165   2.023  0.2359  0.4002 -0.0313
  782SOL    HW2 2346   1.914   2.093   2.169  3.2499 -2.9452  1.3038
  783SOL     OW 2347   1.363   0.506   1.976  0.1614 -0.8610  0.3342
  783SOL    HW1 2348   1.430   0.580   1.953  1.1033  1.7611 -1.0125
  783SOL    HW2 2349   1.410   0.415   1.983  0.8356  0.1380 -0.5350
  784SOL     OW 2350   1.809   1.093   2.275  0.5396 -0.2091  0.5824
  784SOL    HW1 2351   1.713   1.122   2.269 -1.4123  1.6823 -1.5591
  784SOL    HW2 2352   1.816   0.991   2.255  0.0130 -0.4309 -1.5080
  785SOL     OW 2353   2.046   0.444   0.251  0.1013 -0.1381 -0.1572
  785SOL    HW1 2354   2.045   0.546   0.261 -1.7864  2.6705 -1.7512
  785SOL    HW2 2355   1.948   0.412   0.258 -0.2913 -3.3876 -0.9588
  786SOL     OW 2356   0.071   1.684   0.681  0.5218 -0.0045  0.2194
  786SOL    HW1 2357   0.007   1.635   0.616 -0.0949 -0.7031  2.2315
  786SOL    HW2 2358   0.113   1.620   0.744 -2.5815  3.9799 -1.0894
  787SOL     OW 2359   1.759   1.865   0.376 -0.1196 -0.1925  0.1163
  787SOL    HW1 2360   1.672   1.866   0.428  1.5818  0.3972  0.7960
  787SOL    HW2 2361   1.757   1.799   0.293 -0.5382 -0.0200  1.6840
  788SOL     OW 2362   2.292   1.593   1.507  0.5872 -0.3259  0.2044
  788SOL    HW1 2363   2.238   1.581   1.417 -1.1782 -2.6337 -0.7990
  788SOL    HW2 2364   2.395   1.597   1.489  1.8126 -3.5160  1.2579
  789SOL     OW 2365   2.942   1.467   2.293 -0.0483  0.2160  0.0077
  789SOL    HW1 2366   3.008   1.513   2.356 -1.4868 -0.2461  0.5720
  789SOL    HW2 2367   2.880   1.405   2.347  0.9797 -3.8594  0.4776
  790SOL     OW 2368   0.808   3.090   2.622  0.4436  0.2975  0.0929
  790SOL    HW1 2369   0.882   3.087   2.551  0.0359 -0.2476  3.0403
  790SOL    HW2 2370   0.718   3.093   2.567  1.2381  1.5178 -1.6487
  791SOL     OW 2371   0.877   2.837   2.776 -0.1831 -0.1522 -0.1701
  791SOL    HW1 2372   0.931   2.833   2.860  2.4149 -0.7108  1.1587
  791SOL    HW2 2373   0.899   2.916   2.716 -0.8224  1.2421  0.3324
  792SOL     OW 2374   1.624   0.353   2.260  0.3355  0.1817  0.2332
  792SOL    HW1 2375   1.639   0.256   2.284 -0.8698  0.3458  0.5335
  792SOL    HW2 2376   1.549   0.394   2.320 -0.7149 -0.1144  1.3194
  793SOL     OW 2377   2.916   0.063   2.231  0.2076  0.0299 -0.2281
  793SOL    HW1 2378   2.956   0.157   2.248  0.0521  1.8883 -0.6339
  793SOL    HW2 2379   2.816   0.057   2.256 -2.8043  0.1558  0.8775
  794SOL     OW 2380   0.432   1.007   1.745  0.1788 -0.6116 -0.3039
  794SOL    HW1 2381   0.430   0.943   1.821  1.0704 -1.0397 -0.7857
  794SOL    HW2 2382   0.384   0.969   1.665 -0.0313  1.6225  1.4253
  795SOL     OW 2383   2.953   1.548   0.523  0.0445 -0.1031 -0.4177
  795SOL    HW1 2384   2.961   1.459   0.474 -0.1517  2.2733  1.7289
  795SOL    HW2 2385   2.882   1.600   0.471  0.7908 -0.5080 -2.6918
  796SOL     OW 2386   2.873   2.502   2.789  0.4513  1.1545  0.0877
  796SOL    HW1 2387   2.903   2.452   2.873  1.0805 -2.1825 -1.1672
  796SOL    HW2 2388   2.950   2.550   2.737 -1.9812  2.5616  1.2628
  797SOL     OW 2389   2.677   2.408   0.092 -0.5998  0.2256 -0.3295
  797SOL    HW1 2390   2.759   2.341   0.098  1.6829  3.2084  3.6301
  797SOL    HW2 2391   2.657   2.435   3.100  0.5415 -0.0466 -1.3700
  798SOL     OW 2392   0.295   0.867   1.548  0.3244  0.5404  0.2782
  798SOL    HW1 2393   0.225   0.814   1.602  2.3305  1.6698  1.4494
  798SOL    HW2 2394   0.245   0.923   1.477 -0.1781  0.5743  1.0582
  799SOL     OW 2395   2.947   0.521   2.155 -0.0620  0.1328  0.5771
  799SOL    HW1 2396   2.856   0.561   2.167  2.1251  0.2199 -0.6236
  799SOL    HW2 2397   2.995   0.574   2.084 -0.1964 -0.9164  0.1733
  800SOL     OW 2398   2.781   2.437   0.492 -0.0022  0.9196 -0.2422
  800SOL    HW1 2399   2.703   2.398   0.545  0.3448 -0.8339  0.8336
  800SOL    HW2 2400   2.815   2.526   0.531 -1.5306  1.4148 -0.8784
  801SOL     OW 2401   1.356   1.132   0.762 -0.1675 -0.2848  0.3148
  801SOL    HW1 2402   1.397   1.041   0.724  3.2017 -1.3982 -1.5645
  801SOL    HW2 2403   1.287   1.109   0.833 -0.1673 -0.7833  0.5159
  802SOL     OW 2404   1.432   1.801   1.083 -0.1906 -0.0818 -0.1291
  802SOL    HW1 2405   1.524   1.832   1.099 -1.8265  1.2332 -2.1645
  802SOL    HW2 2406   1.412   1.792   0.981 -1.2318  0.9805  2.3305
  803SOL     OW 2407   0.082   1.743   0.315  0.1338 -0.1547 -0.4176
  803SOL    HW1 2408   0.098   1.646   0.296 -1.7307  1.9501  4.0626
  803SOL    HW2 2409   0.112   1.776   0.408 -0.5880  1.2176  3.0920
  804SOL     OW 2410   1.221   2.526   0.644 -0.2815  0.6759 -0.2555
  804SOL    HW1 2411   1.122   2.547   0.624 -2.8338 -0.5748  0.6341
  804SOL    HW2 2412   1.259   2.565   0.732  1.0030 -1.4770 -0.5433
  805SOL     OW 2413   1.526   2.175   2.510 -0.0383 -0.4202 -0.4425
  805SOL    HW1 2414   1.492   2.137   2.599 -1.3825 -2.2462 -1.6219
  805SOL    HW2 2415   1.603   2.239   2.515 -0.3739 -2.3515 -1.5219
  806SOL     OW 2416   1.450   0.013   1.313 -0.9399  0.1479 -0.1434
  806SOL    HW1 2417   1.449   0.014   1.417  0.4363  2.4332  4.6264
  806SOL    HW2 2418   1.355   0.004   1.282  1.8085 -1.5676 -1.4211
  807SOL     OW 2419   1.998   2.897   2.529  0.0941 -0.2628 -0.5149
  807SOL    HW1 2420   1.916   2.861   2.488  1.7493  1.0771 -0.2301
  807SOL    HW2 2421   1.996   2.888   2.633 -2.1191 -0.8958  1.8708
  808SOL     OW 2422   0.563   1.662   0.100  0.2180  0.0401 -0.2157
  808SOL    HW1 2423   0.512   1.577   0.138 -2.8470 -0.4329  1.0830
  808SOL    HW2 2424   0.621   1.641   0.018 -0.6136 -0.7440 -3.0817
  809SOL     OW 2425   2.830   0.698   2.594 -0.4307  0.0083 -0.0006
  809SOL    HW1 2426   2.907   0.677   2.532  1.0175  2.9914 -0.9280
  809SOL    HW2 2427   2.746   0.647   2.562  2.8530  0.8932  1.2220
  810SOL     OW 2428   0.102   0.418   2.527 -0.1639  0.5148  0.1901
  810SOL    HW1 2429   0.081   0.507   2.495  0.5722 -2.9209  0.5367
  810SOL    HW2 2430   0.200   0.391   2.536 -0.2949 -3.6016  0.1797
  811SOL     OW 2431   2.003   2.443   1.616 -0.3061  0.5483 -0.0849
  811SOL    HW1 2432   1.931   2.436   1.687 -0.1394 -2.8676  1.1423
  811SOL    HW2 2433   2.081   2.383   1.648  1.0572  0.2377 -0.7752
  812SOL     OW 2434   1.457   0.595   0.138  0.1033 -0.3841  0.0978
  812SOL    HW1 2435   1.439   0.681   0.186 -1.4701  1.3187 -0.5944
  812SOL    HW2 2436   1.375   0.540   0.122 -0.7779  0.2040  0.1947
  813SOL     OW 2437   1.871   0.465   2.204 -0.4129  0.0553  0.3015
  813SOL    HW1 2438   1.789   0.420   2.249 -2.5485 -0.1062  0.2287
  813SOL    HW2 2439   1.900   0.545   2.258  1.5860  2.8390 -0.6996
  814SOL     OW 2440   1.869   1.047   1.338 -0.3468 -0.1446  0.6575
  814SOL    HW1 2441   1.965   1.018   1.317  4.2181 -1.1152 -2.6527
  814SOL    HW2 2442   1.858   1.146   1.310  1.1013 -0.3384  2.0605
  815SOL     OW 2443   0.774   0.950   0.523  0.5099  0.6430 -0.5010
  815SOL    HW1 2444   0.787   0.922   0.625  2.2543  1.8063  3.1471
  815SOL    HW2 2445   0.676   0.942   0.495  0.9903  1.3738  1.2323
  816SOL     OW 2446   2.072   2.203   2.799  0.3406 -0.3255 -0.3935
  816SOL    HW1 2447   2.165   2.175   2.761  1.8915 -1.0916  0.6410
  816SOL    HW2 2448   2.000   2.138   2.764  0.2820  0.5976 -0.5386
  817SOL     OW 2449   2.911   2.751   1.150 -0.9961 -0.0719  0.8775
  817SOL    HW1 2450   2.930   2.737   1.046  0.0216  1.7648 -1.3885
  817SOL    HW2 2451   2.993   2.727   1.207  3.0007 -0.0740  3.3722
  818SOL     OW 2452   1.267   0.409   0.112 -0.8009  0.3491  0.0005
  818SOL    HW1 2453   1.213   0.401   0.026 -1.5251  0.5112  0.1966
  818SOL    HW2 2454   1.335   0.338   0.126  2.2951  0.2925  2.4005
  819SOL     OW 2455   0.534   0.580   0.835 -0.8692  0.3004  0.4496
  819SOL    HW1 2456   0.600   0.578   0.912 -0.2187 -2.7711 -0.8598
  819SOL    HW2 2457   0.543   0.497   0.783  1.2077  0.5669  3.7739
  820SOL     OW 2458   2.056   0.645   1.116 -0.2831 -0.5880  0.4051
  820SOL    HW1 2459   2.134   0.585   1.084  0.3153 -0.1670  0.9796
  820SOL    HW2 2460   2.060   0.646   1.217  1.1290 -0.1695  0.2271
  821SOL     OW 2461   2.557   3.060   0.536 -0.5603  0.1267  0.1460
  821SOL    HW1 2462   2.577   3.080   0.632 -0.7313  0.7634  0.5839
  821SOL    HW2 2463   2.536   2.961   0.523  3.6086  0.1508 -0.5180
  822SOL     OW 2464   1.084   2.657   2.704 -0.6467  0.0619 -0.5552
  822SOL    HW1 2465   1.050   2.605   2.620  1.3571  1.5159  0.4162
  822SOL    HW2 2466   1.009   2.705   2.753  1.3529  2.4096 -0.6605
  823SOL     OW 2467   2.707   1.266   1.769  0.2635 -0.0015  0.2299
  823SOL    HW1 2468   2.651   1.341   1.810  2.8750  0.5380  0.4209
  823SOL    HW2 2469   2.681   1.179   1.814 -0.7898  0.2711 -0.5370
  824SOL     OW 2470   0.809   3.014   2.225  0.4295 -0.7027  0.1712
  824SOL    HW1 2471   0.870   2.954   2.274  3.2657 -0.2265 -0.2202
  824SOL    HW2 2472   0.714   2.979   2.211  0.5756 -0.0211 -2.2094
  825SOL     OW 2473   1.333   1.861   2.991 -0.2160  0.1370 -0.1440
  825SOL    HW1 2474   1.288   1.946   2.953 -1.4166  0.4445 -0.6994
  825SOL    HW2 2475   1.429   1.852   2.959 -0.9262  0.7022 -1.9691
  826SOL     OW 2476   1.243   2.320   2.961  0.1197 -0.6326 -0.3970
  826SOL    HW1 2477   1.345   2.305   2.958  0.9784 -1.3788  0.9867
  826SOL    HW2 2478   1.210   2.310   3.057 -0.8780 -2.1332 -0.2483
  827SOL     OW 2479   0.349   1.698   1.865 -0.0646 -0.3508 -0.0130
  827SOL    HW1 2480   0.315   1.649   1.778 -2.0582 -0.9292 -1.1443
  827SOL    HW2 2481   0.436   1.662   1.900  3.6445 -0.4892 -0.2258
  828SOL     OW 2482   3.054   1.890   1.044  0.3243 -0.1128  0.0021
  828SOL    HW1 2483   0.014   1.948   1.095  0.8888 -0.1195  0.2830
  828SOL    HW2 2484   2.959   1.929   1.041  1.7135 -1.4260  2.8683
  829SOL     OW 2485   3.035   2.663   3.068 -0.4317 -0.6851  0.1678
  829SOL    HW1 2486   0.026   2.671   0.004 -0.5395 -1.1060 -0.4805
  829SOL    HW2 2487   3.017   2.565   3.043  1.5504 -0.0973  1.8724
  830SOL     OW 2488   1.121   0.915   0.650  0.3900  0.0071 -0.1319
  830SOL    HW1 2489   1.223   0.899   0.652  0.4868  0.9203 -0.0739
  830SOL    HW2 2490   1.091   0.949   0.561  2.4085  1.3033 -1.6339
  831SOL     OW 2491   2.977   2.380   2.994  0.0900 -0.3789  0.0988
  831SOL    HW1 2492   3.019   2.302   2.942 -0.3160  0.1170  2.5924
  831SOL    HW2 2493   2.919   2.340   3.063  2.4315  1.1854 -0.0085
  832SOL     OW 2494   1.462   2.242   0.390  0.6220 -0.0441  0.1951
  832SOL    HW1 2495   1.539   2.229   0.332 -1.7311  0.4471 -0.2928
  832SOL    HW2 2496   1.383   2.182   0.366  1.4116 -0.6992  0.9743
  833SOL     OW 2497   0.572   1.082   2.640 -0.0210  0.9741  0.1543
  833SOL    HW1 2498   0.628   1.024   2.577 -2.6083 -2.4132  0.5457
  833SOL    HW2 2499   0.479   1.106   2.601 -0.3899  1.1768  0.5956
  834SOL     OW 2500   2.875   0.772   0.906  0.1787  0.1180  0.3370
  834SOL    HW1 2501   2.933   0.730   0.983  0.2963  0.4027 -1.0231
  834SOL    HW2 2502   2.772   0.777   0.929 -2.7681  2.1249 -0.5091
  835SOL     OW 2503   2.299   0.621   2.184  1.0515 -0.3917 -0.0063
  835SOL    HW1 2504   2.317   0.718   2.182 -1.2156 -2.7934  1.9374
  835SOL    HW2 2505   2.197   0.623   2.181 -0.1789 -0.0130  3.2820
  836SOL     OW 2506   0.821   1.934   0.389  0.3151 -0.1879  0.2825
  836SOL    HW1 2507   0.727   1.894   0.386  0.5465 -1.1383  1.4839
  836SOL    HW2 2508   0.894   1.870   0.357  0.9032 -2.2633  0.9626
  837SOL     OW 2509   2.318   1.692   1.982 -0.1275 -0.7845 -0.3547
  837SOL    HW1 2510   2.229   1.704   2.025 -0.6180 -1.4357 -2.0875
  837SOL    HW2 2511   2.319   1.595   1.955 -1.6814 -0.2727 -1.1166
  838SOL     OW 2512   0.061   0.991   2.409 -0.3476 -0.3261  0.5304
  838SOL    HW1 2513   0.099   0.916   2.469 -0.1063  1.0895 -1.4781
  838SOL    HW2 2514   0.098   0.998   2.317  1.4760 -2.1205  1.9803
  839SOL     OW 2515   0.549   3.049   2.936 -0.0658 -0.0147 -0.1541
  839SOL    HW1 2516   0.534   2.971   2.871 -1.2261  0.7349  1.2819
  839SOL    HW2 2517   0.640   3.096   2.921 -1.2867 -1.8757 -1.8012
  840SOL     OW 2518   2.989   0.963   2.783  0.0544  0.0307  0.3221
  840SOL    HW1 2519   3.069   0.954   2.845 -1.5564  0.6197 -1.0557
  840SOL    HW2 2520   2.908   1.001   2.836  1.2149 -1.9635  2.7406
  841SOL     OW 2521   0.737   2.086   2.563 -0.6416 -0.4586  0.3021
  841SOL    HW1 2522   0.726   2.164   2.619 -0.0705 -2.5321 -1.6628
  841SOL    HW2 2523   0.763   2.116   2.469  0.9811  1.4527 -0.5138
  842SOL     OW 2524   0.809   0.200   1.242  0.1734 -0.6319  0.0198
  842SOL    HW1 2525   0.750   0.230   1.169  0.8192  0.5104  2.9902
  842SOL    HW2 2526   0.770   0.242   1.328  1.3834 -0.6055 -0.4632
  843SOL     OW 2527   0.033   1.649   2.380  0.1408  0.5486  0.6693
  843SOL    HW1 2528   0.091   1.666   2.295  1.3868 -1.5276 -3.6026
  843SOL    HW2 2529   0.086   1.596   2.446  0.3198 -2.5093  0.4821
  844SOL     OW 2530   1.613   2.220   2.229 -0.1789  0.0447  0.1015
  844SOL    HW1 2531   1.599   2.153   2.157  1.2586 -0.6952  1.5891
  844SOL    HW2 2532   1.557   2.200   2.312  0.3981 -0.7443 -2.0422
  845SOL     OW 2533   2.585   2.689   2.358 -0.1882 -0.1263 -0.2963
  845SOL    HW1 2534   2.615   2.701   2.457  0.7949  1.3839  0.2664
  845SOL    HW2 2535   2.530   2.772   2.342  1.0612  0.6592 -2.4502
  846SOL     OW 2536   2.133   1.703   2.930  0.2270 -0.0363 -0.0260
  846SOL    HW1 2537   2.223   1.752   2.938  1.7630  2.1396 -0.7802
  846SOL    HW2 2538   2.088   1.699   3.018  0.6180 -0.3563 -1.2386
  847SOL     OW 2539   2.510   0.227   2.844  0.2505 -0.1089 -0.0081
  847SOL    HW1 2540   2.483   0.250   2.751  0.9043  0.4317 -0.3651
  847SOL    HW2 2541   2.553   0.137   2.853 -0.1541  2.1259  1.1997
  848SOL     OW 2542   2.545   0.600   0.353 -0.2160  0.0285 -0.3249
  848SOL    HW1 2543   2.542   0.536   0.275  0.5513 -0.0227  1.9387
  848SOL    HW2 2544   2.494   0.562   0.430  1.9941 -1.1398  1.1658
  849SOL     OW 2545   1.424   0.126   2.870 -0.2665  0.6920 -0.1071
  849SOL    HW1 2546   1.422   0.133   2.769  0.5561 -1.1699 -0.6944
  849SOL    HW2 2547   1.518   0.137   2.904  1.0332  0.4887 -0.3094
  850SOL     OW 2548   2.699   0.949   0.523  0.5729 -0.1326 -0.2180
  850SOL    HW1 2549   2.737   0.990   0.437  0.8675 -0.6171 -6.1440
  850SOL    HW2 2550   2.763   0.868   0.552  0.8206  1.2737  0.2206
  851SOL     OW 2551   0.026   1.224   0.880  0.5179 -0.4373  0.1019
  851SOL    HW1 2552   0.111   1.210   0.936  0.1909  0.1236 -0.3797
  851SOL    HW2 2553   3.069   1.141   0.889 -1.2379 -0.1203  0.5406
  852SOL     OW 2554   1.274   0.910   2.440  0.8393  0.0888 -0.0010
  852SOL    HW1 2555   1.211   0.945   2.511  1.9961 -0.2794  1.9423
  852SOL    HW2 2556   1.233   0.933   2.349  4.0663 -0.4031 -0.1430
  853SOL     OW 2557   1.793   1.309   2.961  0.3233  0.6275 -0.0897
  853SOL    HW1 2558   1.827   1.334   2.865  1.5800  0.5541  2.3666
  853SOL    HW2 2559   1.790   1.206   2.974  0.7525  1.5430 -0.2200
  854SOL     OW 2560   1.189   1.227   1.892  0.4808  0.0359 -0.3957
  854SOL    HW1 2561   1.172   1.126   1.883  1.8274 -1.2865  1.0829
  854SOL    HW2 2562   1.180   1.249   1.991 -0.0147  2.4128 -0.3901
  855SOL     OW 2563   0.444   2.262   1.892  0.0925  0.8023  0.8864
  855SOL    HW1 2564   0.442   2.364   1.875 -1.2544  3.1217  2.3280
  855SOL    HW2 2565   0.405   2.205   1.816 -0.7195 -0.4805 -2.8535
  856SOL     OW 2566   1.143   1.038   2.157 -0.5086  0.3805  0.4073
  856SOL    HW1 2567   1.149   1.139   2.155 -0.4201  0.7367  0.6056
  856SOL    HW2 2568   1.060   1.014   2.211  0.1047 -0.9186 -3.0300
  857SOL     OW 2569   0.969   1.121   2.652  0.7959 -0.4674  0.5611
  857SOL    HW1 2570   0.978   1.174   2.741  0.7261 -0.5309  0.8950
  857SOL    HW2 2571   1.017   1.031   2.658  1.0302 -0.7465  0.3103
  858SOL     OW 2572   0.197   0.687   1.758  0.0241  0.3587 -0.6149
  858SOL    HW1 2573   0.097   0.681   1.754  0.6564  0.1868 -0.6176
  858SOL    HW2 2574   0.221   0.679   1.856 -6.0640  1.1889  3.6009
  859SOL     OW 2575   2.278   0.015   1.067  0.4550  0.1414  0.4297
  859SOL    HW1 2576   2.282   0.009   1.170 -0.3178  0.6577 -0.5464
  859SOL    HW2 2577   2.316   0.106   1.036 -0.2027  0.5088  2.0764
  860SOL     OW 2578   1.272   0.954   1.498 -0.7311 -0.4536 -0.4833
  860SOL    HW1 2579   1.191   0.911   1.543  0.7104 -0.6477 -1.3801
  860SOL    HW2 2580   1.359   0.942   1.552  0.6917 -1.9949 -2.7481
  861SOL     OW 2581   1.711   0.841   1.226  0.2868 -0.0473  0.5467
  861SOL    HW1 2582   1.647   0.781   1.278  0.7891  0.5748 -0.6422
  861SOL    HW2 2583   1.771   0.899   1.281 -1.1333 -5.0039  1.4118
  862SOL     OW 2584   1.006   0.275   2.274 -0.3194  0.4447 -0.2685
  862SOL    HW1 2585   0.914   0.239   2.245 -1.8370 -1.5303  1.0079
  862SOL    HW2 2586   1.001   0.368   2.302 -1.0741 -0.8676  3.3893
  863SOL     OW 2587   2.644   0.249   1.529  0.8448  0.2346  0.4247
  863SOL    HW1 2588   2.545   0.245   1.566  1.4433  1.8983 -1.2638
  863SOL    HW2 2589   2.716   0.291   1.586  0.4539 -1.4385 -2.8003
  864SOL     OW 2590   3.002   2.973   2.397  0.4655  0.5199 -0.3604
  864SOL    HW1 2591   2.943   2.896   2.363 -1.2280 -3.1217 -0.5119
  864SOL    HW2 2592   2.996   3.055   2.335 -1.3343  1.4235 -1.3961
  865SOL     OW 2593   1.200   1.234   2.476 -0.1419  0.2568  0.2955
  865SOL    HW1 2594   1.138   1.191   2.543  1.1661 -1.9587 -0.8769
  865SOL    HW2 2595   1.203   1.337   2.493 -2.2698  1.8222 -2.5886
  866SOL     OW 2596   2.656   2.595   0.963  0.4137 -0.2462 -0.7970
  866SOL    HW1 2597   2.748   2.562   0.937 -0.7351  1.0755  0.1792
  866SOL    HW2 2598   2.653   2.593   1.064 -0.5964 -2.1761 -0.0734
  867SOL     OW 2599   2.676   2.649   1.247  0.4737 -0.2579  0.2347
  867SOL    HW1 2600   2.766   2.689   1.257  1.1638 -0.6424  0.0991
  867SOL    HW2 2601   2.652   2.564   1.299 -1.5507 -0.8155 -0.4994
  868SOL     OW 2602   2.993   1.267   1.349 -0.2251  0.0738 -0.7855
  868SOL    HW1 2603   2.953   1.203   1.283  0.8011  0.5533  0.6132
  868SOL    HW2 2604   3.070   1.327   1.322 -1.6484 -2.8223  1.9884
  869SOL     OW 2605   2.119   2.162   2.405 -0.0985  0.8130 -0.1756
  869SOL    HW1 2606   2.188   2.236   2.396 -1.7336  1.6968 -1.5403
  869SOL    HW2 2607   2.161   2.068   2.385 -0.1959 -3.7682  0.1230
  870SOL     OW 2608   1.764   1.002   0.820 -0.1143  0.0977  0.7120
  870SOL    HW1 2609   1.697   1.007   0.895  1.8596  0.1699 -2.2499
  870SOL    HW2 2610   1.740   1.068   0.750 -2.2417 -2.1546  2.1498
  871SOL     OW 2611   2.501   1.755   1.773  0.3217 -0.2691  0.0831
  871SOL    HW1 2612   2.413   1.753   1.824  0.4307 -0.1814 -0.3367
  871SOL    HW2 2613   2.501   1.764   1.671  1.4018 -1.5967  3.5719
  872SOL     OW 2614   1.267   1.539   2.843  0.2483  0.1167 -0.4275
  872SOL    HW1 2615   1.206   1.609   2.893 -1.4728  1.0197 -0.2409
  872SOL    HW2 2616   1.359   1.584   2.832 -0.0858 -0.7953  0.4149
  873SOL     OW 2617   1.046   1.291   1.665 -0.0276 -0.3948 -0.5200
  873SOL    HW1 2618   0.999   1.209   1.625  1.1259  0.8884  0.6912
  873SOL    HW2 2619   1.094   1.270   1.751 -0.4692  2.9879  0.2456
  874SOL     OW 2620   1.233   1.173   1.303 -0.2547  0.8949 -0.0014
  874SOL    HW1 2621   1.258   1.103   1.372  1.7369 -0.2069 -0.7734
  874SOL    HW2 2622   1.152   1.138   1.253  0.7469 -2.1093 -1.1793
  875SOL     OW 2623   2.699   0.023   2.780  0.0338  0.4753 -0.1715
  875SOL    HW1 2624   2.695   3.057   2.706  1.0421 -1.1701 -0.6135
  875SOL    HW2 2625   2.688   3.080   2.871 -1.0105  0.9104 -0.5401
  876SOL     OW 2626   1.002   0.958   0.389 -0.0813 -0.5157 -0.5117
  876SOL    HW1 2627   0.921   0.969   0.453  0.1029  0.9655 -0.0633
  876SOL    HW2 2628   1.015   1.027   0.316 -1.6831 -0.3859 -0.5491
  877SOL     OW 2629   1.812   2.886   0.639 -0.2738  0.3956  0.8839
  877SOL    HW1 2630   1.844   2.963   0.581  0.9010  0.2755  0.2891
  877SOL    HW2 2631   1.873   2.810   0.615 -2.6623 -0.7019 -0.7431
  878SOL     OW 2632   2.352   2.056   0.202  0.6450 -0.0819 -0.1045
  878SOL    HW1 2633   2.406   1.970   0.189  2.8209 -0.3603 -0.5814
  878SOL    HW2 2634   2.382   2.138   0.147  1.0164 -0.0105  0.5446
  879SOL     OW 2635   0.394   2.512   1.840 -0.4375  0.1757  0.2554
  879SOL    HW1 2636   0.414   2.605   1.876  0.3406 -2.5431  0.6485
  879SOL    HW2 2637   0.301   2.520   1.799  0.8105  1.3488 -1.4248
  880SOL     OW 2638   0.337   1.748   0.940 -0.3383  0.1066 -0.8516
  880SOL    HW1 2639   0.319   1.847   0.944  0.6689  0.3519 -0.8984
  880SOL    HW2 2640   0.431   1.728   0.909  0.0240 -2.1169 -0.8360
  881SOL     OW 2641   1.418   0.219   2.592 -0.2890 -0.1636  0.0247
  881SOL    HW1 2642   1.320   0.234   2.569 -0.3151  0.2874 -0.4888
  881SOL    HW2 2643   1.455   0.313   2.580  1.2883 -0.4813  1.2536
  882SOL     OW 2644   2.486   1.130   0.471  1.0347  0.1515  0.1891
  882SOL    HW1 2645   2.481   1.198   0.545 -0.3327 -0.2616  0.2112
  882SOL    HW2 2646   2.572   1.077   0.472 -1.4467  0.8328 -1.5670
  883SOL     OW 2647   1.463   0.749   2.527 -0.0252 -0.5478 -0.3923
  883SOL    HW1 2648   1.533   0.817   2.563  3.6219  1.0451 -0.3078
  883SOL    HW2 2649   1.393   0.800   2.476  2.6987  0.7490 -0.1410
  884SOL     OW 2650   0.116   0.174   1.969  0.2246  0.2188 -0.2803
  884SOL    HW1 2651   0.162   0.240   2.029 -0.6666 -1.9628  0.6214
  884SOL    HW2 2652   0.185   0.139   1.898  1.8026 -1.0033 -2.1732
  885SOL     OW 2653   2.077   1.438   2.416 -0.2792  0.0429 -0.4503
  885SOL    HW1 2654   2.037   1.499   2.343  1.3233 -1.1726 -0.1080
  885SOL    HW2 2655   2.121   1.501   2.484  0.5742  2.5913  0.0475
  886SOL     OW 2656   1.662   0.145   3.030 -0.6111 -0.1432 -0.0221
  886SOL    HW1 2657   1.731   0.148   3.104  0.2819 -0.5504 -1.1935
  886SOL    HW2 2658   1.688   0.207   2.948 -0.2795  1.0666 -0.9185
  887SOL     OW 2659   1.123   2.820   1.571  0.3712 -0.1673  0.8188
  887SOL    HW1 2660   1.201   2.868   1.530  1.0015 -0.9362  1.1747
  887SOL    HW2 2661   1.129   2.719   1.579 -3.8574 -0.2259 -0.2817
  888SOL     OW 2662   2.355   0.870   1.509  0.5260  0.2166 -0.3274
  888SOL    HW1 2663   2.296   0.935   1.555 -0.4305  2.2278 -2.2730
  888SOL    HW2 2664   2.349   0.776   1.556  1.3159 -1.3190 -0.1447
  889SOL     OW 2665   2.130   2.439   1.348 -0.0017 -0.6148 -0.1343
  889SOL    HW1 2666   2.069   2.389   1.282 -2.0082  0.5548 -0.7360
  889SOL    HW2 2667   2.090   2.436   1.442  0.8946  0.1266 -0.6594
  890SOL     OW 2668   0.926   2.334   0.924 -0.1690 -0.3395  0.3473
  890SOL    HW1 2669   1.008   2.277   0.893  0.2006  0.8982  0.0581
  890SOL    HW2 2670   0.959   2.430   0.957  0.7477  6.4176  1.6225
  891SOL     OW 2671   2.809   1.564   0.044 -0.2032 -0.2262  0.0307
  891SOL    HW1 2672   2.728   1.525   0.093 -0.7799 -1.6865  0.4858
  891SOL    HW2 2673   2.854   1.498   3.082  0.7284  0.5674  2.4754
  892SOL     OW 2674   2.486   1.787   2.464 -0.4453 -0.2087  0.0418
  892SOL    HW1 2675   2.555   1.823   2.534 -1.2057  2.0109 -1.7126
  892SOL    HW2 2676   2.505   1.821   2.366  0.2941  2.5234 -0.7727
  893SOL     OW 2677   2.283   2.585   1.062 -0.8947  0.4898 -0.4581
  893SOL    HW1 2678   2.297   2.540   0.970  0.8153 -3.1489  1.5721
  893SOL    HW2 2679   2.330   2.535   1.136  0.4305 -0.9514 -0.1684
  894SOL     OW 2680   2.889   0.742   0.624  0.1034  0.1827  0.3502
  894SOL    HW1 2681   2.887   0.738   0.726  0.9082 -1.8415 -0.9361
  894SOL    HW2 2682   2.866   0.652   0.582  2.3488  0.1643  0.0601
  895SOL     OW 2683   2.925   2.415   2.496  0.0295 -0.2299  0.2015
  895SOL    HW1 2684   2.994   2.355   2.448 -0.4754 -2.2582 -1.8182
  895SOL    HW2 2685   2.968   2.496   2.542  0.2618  2.7464  0.3336
  896SOL     OW 2686   2.173   2.499   2.516 -0.5068  0.1863  0.2819
  896SOL    HW1 2687   2.237   2.497   2.592  2.5852  1.2226 -2.9469
  896SOL    HW2 2688   2.074   2.493   2.541  1.4091  2.9316 -2.5778
  897SOL     OW 2689   0.224   1.580   1.652  0.1492  0.1222  0.7592
  897SOL    HW1 2690   0.219   1.490   1.601 -0.1651  0.2444  0.3973
  897SOL    HW2 2691   0.136   1.591   1.705 -1.0741 -0.6065  0.0178
  898SOL     OW 2692   0.103   2.046   1.880  0.0523  0.2260 -0.5358
  898SOL    HW1 2693   0.040   1.980   1.835  2.0827 -0.0078 -1.7757
  898SOL    HW2 2694   0.061   2.084   1.970 -0.3085 -0.9186  4.6922
  899SOL     OW 2695   1.899   0.005   1.553 -0.4112  0.5155 -0.2486
  899SOL    HW1 2696   1.839   0.002   1.471 -0.7004  1.2408  0.6757
  899SOL    HW2 2697   1.996   3.080   1.527  1.7458 -3.4053  0.1226
  900SOL     OW 2698   1.490   1.151   0.487  0.0730 -0.0476  0.2162
  900SOL    HW1 2699   1.539   1.089   0.419  0.9283 -2.6985  1.4772
  900SOL    HW2 2700   1.404   1.186   0.439 -0.0460 -0.4639 -2.0421
  901SOL     OW 2701   1.472   1.213   2.449  0.3161 -0.2998  0.1208
  901SOL    HW1 2702   1.507   1.161   2.368 -0.2039  1.8313  1.6793
  901SOL    HW2 2703   1.373   1.233   2.439 -0.6597 -0.0138  1.7911
  902SOL     OW 2704   3.024   2.505   0.850 -1.2533  0.0978  0.1843
  902SOL    HW1 2705   2.998   2.603   0.863  0.8773 -0.6369  0.2728
  902SOL    HW2 2706   3.098   2.491   0.919 -1.0917  0.4892 -2.2384
  903SOL     OW 2707   2.929   1.268   1.965 -0.1354  0.4489 -0.1491
  903SOL    HW1 2708   2.869   1.229   2.041  0.6547 -0.9262 -1.8986
  903SOL    HW2 2709   2.882   1.247   1.880  1.7664 -0.2408  0.5655
  904SOL     OW 2710   1.318   1.582   0.060  0.2987 -0.3423  0.0871
  904SOL    HW1 2711   1.391   1.560   3.097  2.8999  1.4008  0.2748
  904SOL    HW2 2712   1.284   1.674   0.061  0.5232 -0.3891  0.9609
  905SOL     OW 2713   2.109   2.532   1.871 -0.4251 -0.1391 -0.0496
  905SOL    HW1 2714   2.080   2.475   1.952 -0.8350  0.2492  0.8428
  905SOL    HW2 2715   2.200   2.580   1.876 -1.0184 -1.2699  2.4926
  906SOL     OW 2716   1.704   2.653   2.919 -0.3818 -0.2083 -0.5419
  906SOL    HW1 2717   1.649   2.598   2.985 -2.6089 -0.3885 -1.5622
  906SOL    HW2 2718   1.752   2.735   2.964 -0.3036  4.4432  0.4440
  907SOL     OW 2719   0.214   2.797   0.880  0.2994  0.2770  0.1606
  907SOL    HW1 2720   0.300   2.819   0.932 -1.2417  0.7322 -0.6758
  907SOL    HW2 2721   0.232   2.791   0.779 -0.0687 -0.1108  1.0917
  908SOL     OW 2722   0.767   3.052   1.786  0.7583  0.8431  0.3759
  908SOL    HW1 2723   0.867   3.034   1.775  0.3146  1.7087 -0.5921
  908SOL    HW2 2724   0.725   2.963   1.785 -0.0315  1.1486  1.2609
  909SOL     OW 2725   1.595   0.489   1.421  0.1265 -0.7025  0.1607
  909SOL    HW1 2726   1.677   0.549   1.445 -2.6799  0.1826  2.1067
  909SOL    HW2 2727   1.537   0.541   1.353 -2.2726  2.0140 -0.8324
  910SOL     OW 2728   0.769   0.400   0.248  0.2860  0.2569  0.4864
  910SOL    HW1 2729   0.776   0.447   0.339 -0.9633 -3.3083  3.2930
  910SOL    HW2 2730   0.671   0.402   0.214 -3.2041 -2.3406 -1.5438
  911SOL     OW 2731   0.346   0.020   3.082  0.1416  0.0354  0.2485
  911SOL    HW1 2732   0.276   3.051   3.083 -0.5020 -0.2195  0.9432
  911SOL    HW2 2733   0.430   3.096   3.034  1.7485 -0.5002  1.2081
  912SOL     OW 2734   0.004   2.533   2.669  0.0767 -0.0159 -0.4747
  912SOL    HW1 2735   0.046   2.626   2.672  0.8215 -0.1467 -1.5870
  912SOL    HW2 2736   0.075   2.468   2.633 -1.2072  0.7863 -0.2666
  913SOL     OW 2737   2.357   2.523   0.268 -0.4430  0.0339  0.5599
  913SOL    HW1 2738   2.278   2.580   0.240  0.5897  0.9155  0.6479
  913SOL    HW2 2739   2.444   2.577   0.266  1.5266  0.7764  0.7379
  914SOL     OW 2740   1.417   1.665   1.981  0.0811  0.7162 -0.3796
  914SOL    HW1 2741   1.512   1.635   2.001 -2.2124  2.4166 -0.8666
  914SOL    HW2 2742   1.407   1.763   2.010  1.8803 -1.8590  1.2237
  915SOL     OW 2743   2.991   2.577   2.174 -0.4976 -0.6590 -0.0398
  915SOL    HW1 2744   3.069   2.612   2.114  4.2367  0.9851  1.7941
  915SOL    HW2 2745   2.944   2.659   2.214 -3.5866  1.7769 -0.8297
  916SOL     OW 2746   3.096   0.765   2.067  0.0481 -0.8734  0.1556
  916SOL    HW1 2747   0.013   0.843   2.007 -0.8411 -1.9804 -1.2050
  916SOL    HW2 2748   0.072   0.748   2.129  0.1151  4.2971 -0.6415
  917SOL     OW 2749   1.967   3.077   0.038  0.9882  0.2555  0.3818
  917SOL    HW1 2750   1.913   0.026   0.108  2.1992  1.3278  0.6348
  917SOL    HW2 2751   1.922   2.979   0.028 -3.8050 -3.8582  0.9411
  918SOL     OW 2752   2.015   2.527   2.235  0.0172  0.8786 -0.0021
  918SOL    HW1 2753   2.032   2.521   2.335  1.3533 -1.2673  2.2850
  918SOL    HW2 2754   2.067   2.449   2.192 -1.5806  2.5059 -0.2435
  919SOL     OW 2755   1.745   2.208   1.928 -0.0914  0.1862  0.2760
  919SOL    HW1 2756   1.713   2.292   1.886  0.6171 -1.5628 -0.1566
  919SOL    HW2 2757   1.658   2.163   1.964 -2.0091  1.1053  0.4037
  920SOL     OW 2758   0.202   1.033   0.321 -0.3508  0.3425  0.3951
  920SOL    HW1 2759   0.119   1.018   0.267 -2.0591  0.7924  0.4935
  920SOL    HW2 2760   0.193   0.995   0.417  1.4682 -1.7413  2.9107
  921SOL     OW 2761   2.354   1.044   2.554  0.1401 -0.0709 -0.0951
  921SOL    HW1 2762   2.351   1.120   2.486 -2.2862  0.5984 -0.4241
  921SOL    HW2 2763   2.433   1.063   2.620  3.7196  0.7820  2.2893
  922SOL     OW 2764   0.817   1.890   0.088  1.1094  0.0243  0.2832
  922SOL    HW1 2765   0.824   1.906   3.092  0.6150  2.5570 -1.0027
  922SOL    HW2 2766   0.719   1.877   0.108  0.0528 -0.4347  0.4226
  923SOL     OW 2767   0.600   1.136   2.260  0.1690  0.0641  0.1640
  923SOL    HW1 2768   0.618   1.149   2.163 -1.0602 -1.8485  3.3120
  923SOL    HW2 2769   0.590   1.038   2.279 -0.1327  1.6287  1.0707
  924SOL     OW 2770   0.754   2.568   2.739 -0.2968 -0.1822 -0.3018
  924SOL    HW1 2771   0.817   2.552   2.813 -2.0449  0.2739 -0.6948
  924SOL    HW2 2772   0.689   2.649   2.756 -1.8094  3.9405 -0.2493
  925SOL     OW 2773   1.662   1.270   1.035 -0.5905 -0.3311  0.1139
  925SOL    HW1 2774   1.620   1.179   1.059  1.6361  0.3619  4.1009
  925SOL    HW2 2775   1.607   1.328   0.967  0.6994  1.2929 -1.9747
  926SOL     OW 2776   1.522   0.459   2.493 -0.3745 -0.2435  0.3308
  926SOL    HW1 2777   1.500   0.557   2.521 -2.0176  1.2664  0.9868
  926SOL    HW2 2778   1.622   0.448   2.489  0.0632  2.1639 -0.4415
  927SOL     OW 2779   2.719   2.965   2.091 -0.4664  0.0213  0.3710
  927SOL    HW1 2780   2.649   2.898   2.061 -0.2930 -1.8726  0.0267
  927SOL    HW2 2781   2.725   3.039   2.022 -1.0074 -0.0868 -0.9479
  928SOL     OW 2782   0.298   1.477   2.875  0.8327 -0.5132 -0.1690
  928SOL    HW1 2783   0.281   1.434   2.966 -0.5912 -0.1513  0.5875
  928SOL    HW2 2784   0.277   1.578   2.878  2.4288  1.2856 -0.0266
  929SOL     OW 2785   3.063   0.308   0.641  0.4291  0.0921 -0.1691
  929SOL    HW1 2786   0.043   0.321   0.701  0.5055  0.5691  0.1904
  929SOL    HW2 2787   3.078   0.292   0.542 -1.6851  0.0229  2.0842
  930SOL     OW 2788   2.295   0.231   1.985  0.2232 -0.0667 -0.2059
  930SOL    HW1 2789   2.218   0.175   1.943  0.0236  0.5081 -1.0209
  930SOL    HW2 2790   2.337   0.294   1.917  0.4508  0.8452 -0.5710
  931SOL     OW 2791   2.498   1.138   0.197  0.0261 -0.2079 -0.0217
  931SOL    HW1 2792   2.415   1.195   0.172  0.2921 -1.7548  0.1325
  931SOL    HW2 2793   2.504   1.132   0.302 -0.1256 -0.1821  2.3108
  932SOL     OW 2794   2.526   1.428   1.502 -0.4730  0.2271  0.0410
  932SOL    HW1 2795   2.571   1.454   1.586 -1.1669 -2.3737  1.4297
  932SOL    HW2 2796   2.588   1.397   1.425  1.3660  1.9277  0.5424
  933SOL     OW 2797   2.699   2.414   1.599 -0.9162 -0.0295 -0.2682
  933SOL    HW1 2798   2.789   2.387   1.649  0.9654  0.1255  1.0354
  933SOL    HW2 2799   2.680   2.514   1.599 -0.9673 -0.5240  0.6503
  934SOL     OW 2800   0.428   2.884   1.003  0.0049  0.2147  0.8201
  934SOL    HW1 2801   0.501   2.816   0.967  1.2804 -1.5217 -1.5672
  934SOL    HW2 2802   0.461   2.940   1.081 -2.9012 -0.9800 -0.3060
  935SOL     OW 2803   2.489   1.087   2.267  0.4415 -0.1366 -0.6786
  935SOL    HW1 2804   2.534   1.088   2.358 -1.1176  1.0982 -0.0132
  935SOL    HW2 2805   2.471   1.183   2.235 -1.3749 -1.1712  1.3305
  936SOL     OW 2806   2.329   0.906   2.123 -0.1385  0.7150 -0.2734
  936SOL    HW1 2807   2.382   0.874   2.043 -0.7198 -1.4237  2.0530
  936SOL    HW2 2808   2.374   0.984   2.174  0.9352  0.0460 -0.7574
  937SOL     OW 2809   1.761   1.080   1.937  0.0394  0.4385  0.3455
  937SOL    HW1 2810   1.752   0.983   1.899  0.1556  1.1311 -2.0194
  937SOL    HW2 2811   1.803   1.069   2.029 -2.1275  2.4871 -1.4911
  938SOL     OW 2812   0.663   2.648   0.040  0.3365  0.5659 -0.0598
  938SOL    HW1 2813   0.564   2.629   0.019 -1.4919  0.1068 -3.4883
  938SOL    HW2 2814   0.675   2.714   0.115 -0.2229 -2.2275 -0.0045
  939SOL     OW 2815   2.342   0.665   0.119  0.1358  0.0860  0.2533
  939SOL    HW1 2816   2.273   0.698   0.053  0.7581  0.8539 -2.1795
  939SOL    HW2 2817   2.365   0.737   0.184 -1.0092 -0.6223 -1.7200
  940SOL     OW 2818   1.141   2.195   0.856 -0.3570 -0.0500  0.2735
  940SOL    HW1 2819   1.195   2.136   0.921  0.2712 -0.8501  2.7235
  940SOL    HW2 2820   1.129   2.135   0.775 -2.1099 -0.2794  0.3107
  941SOL     OW 2821   1.127   2.095   1.625 -0.3320 -0.1034  0.3071
  941SOL    HW1 2822   1.060   2.164   1.587  0.5426  1.4624  2.2754
  941SOL    HW2 2823   1.095   1.998   1.631 -0.6851  1.6296  1.6793
  942SOL     OW 2824   0.219   2.062   2.896 -0.9147  0.6306  0.2686
  942SOL    HW1 2825   0.226   1.961   2.906 -2.8374  1.4567 -0.2652
  942SOL    HW2 2826   0.154   2.092   2.823  2.8361  3.7793 -1.7007
  943SOL     OW 2827   2.134   2.941   1.712 -0.5202 -0.2802 -0.1672
  943SOL    HW1 2828   2.078   2.881   1.653  0.6368  2.1591 -0.3286
  943SOL    HW2 2829   2.192   3.008   1.661 -0.0234  0.0111 -2.2554
  944SOL     OW 2830   1.657   2.009   2.813 -0.0455  0.2206 -0.0405
  944SOL    HW1 2831   1.644   1.970   2.903 -0.2382  3.2324 -0.1288
  944SOL    HW2 2832   1.571   2.018   2.760 -0.2458 -0.4316 -1.3638
  945SOL     OW 2833   2.571   2.325   0.630  0.0601 -0.2059  0.4455
  945SOL    HW1 2834   2.559   2.250   0.700  0.1071 -2.5828 -0.7128
  945SOL    HW2 2835   2.485   2.374   0.618  0.5171  0.6093 -1.3515
  946SOL     OW 2836   1.213   1.539   2.547  0.1614  0.5323 -0.7603
  946SOL    HW1 2837   1.240   1.636   2.531  0.0468  0.6055  0.8225
  946SOL    HW2 2838   1.247   1.508   2.639  0.5203  1.1786  1.6612
  947SOL     OW 2839   0.291   0.622   1.988  0.0901 -0.0064  0.2097
  947SOL    HW1 2840   0.250   0.662   2.074  0.0916 -1.0058  1.6538
  947SOL    HW2 2841   0.333   0.532   2.020 -0.9975 -0.1512 -0.3395
  948SOL     OW 2842   0.128   1.358   0.677 -0.1470  0.2771 -0.1430
  948SOL    HW1 2843   0.177   1.422   0.742  1.4688 -0.0478  1.8453
  948SOL    HW2 2844   0.085   1.286   0.730  2.4796  4.0018  0.3609
  949SOL     OW 2845   0.606   0.873   2.177 -0.4510  0.0801  0.5536
  949SOL    HW1 2846   0.642   0.826   2.257 -0.0602  3.7003  0.8196
  949SOL    HW2 2847   0.683   0.881   2.105 -0.6191  2.1678 -1.4553
  950SOL     OW 2848   0.221   0.494   1.568 -0.2249 -0.1200  0.2378
  950SOL    HW1 2849   0.153   0.419   1.585 -2.2440  1.9799  1.6516
  950SOL    HW2 2850   0.206   0.561   1.643  0.4791  0.3905  0.0237
  951SOL     OW 2851   0.668   1.277   2.814 -1.0839 -0.1280  0.0514
  951SOL    HW1 2852   0.619   1.353   2.773  1.4597 -1.0885 -0.2183
  951SOL    HW2 2853   0.640   1.194   2.766  0.0891  2.3564 -0.0383
  952SOL     OW 2854   1.822   2.050   1.022 -0.4011 -0.4359  0.6223
  952SOL    HW1 2855   1.775   2.119   1.076  0.1543  0.3492  2.1999
  952SOL    HW2 2856   1.906   2.090   0.982 -2.4837 -0.4982 -2.3710
  953SOL     OW 2857   0.586   0.005   0.205  0.1051 -0.4140  0.1114
  953SOL    HW1 2858   0.606   0.060   0.286 -0.1986 -2.9701 -0.4285
  953SOL    HW2 2859   0.487   3.089   0.200 -1.6672  1.9989  1.3268
  954SOL     OW 2860   2.537   0.649   1.139  0.2943 -0.1804 -0.2758
  954SOL    HW1 2861   2.550   0.656   1.242  0.6248  0.1297 -0.5778
  954SOL    HW2 2862   2.598   0.575   1.101  0.2399  0.7819  0.2550
  955SOL     OW 2863   1.604   1.416   2.722  0.5618  0.5159  0.1246
  955SOL    HW1 2864   1.703   1.421   2.699 -1.1521 -0.0803  0.3768
  955SOL    HW2 2865   1.566   1.320   2.720 -0.7759 -2.3433  3.3374
  956SOL     OW 2866   1.021   0.837   2.617 -0.3648  0.1160 -0.0750
  956SOL    HW1 2867   0.961   0.758   2.605  1.2961 -0.2731 -3.1175
  956SOL    HW2 2868   1.109   0.819   2.663  0.1167  0.9857 -0.1708
  957SOL     OW 2869   1.218   0.121   1.718  0.0760  0.0820 -0.3047
  957SOL    HW1 2870   1.213   0.167   1.814 -1.4505  0.2874  1.2135
  957SOL    HW2 2871   1.224   0.185   1.640  1.7399  0.4616  0.1639
  958SOL     OW 2872   0.353   1.950   0.395 -0.2546  0.5296  0.3200
  958SOL    HW1 2873   0.281   1.915   0.460 -1.5278  0.1238 -0.2249
  958SOL    HW2 2874   0.297   1.957   0.311  1.7053 -1.6926  0.9766
  959SOL     OW 2875   1.940   0.897   1.780 -0.5706 -0.0590  0.3806
  959SOL    HW1 2876   1.994   0.975   1.816  1.4222  0.8676  1.6725
  959SOL    HW2 2877   2.005   0.811   1.788  0.2756  1.8181 -1.0797
  960SOL     OW 2878   0.237   1.754   2.821  0.3601 -0.2836 -0.9451
  960SOL    HW1 2879   0.263   1.726   2.726  2.0513  0.1374 -0.5491
  960SOL    HW2 2880   0.322   1.767   2.880 -1.1785  2.1689  0.5438
  961SOL     OW 2881   0.739   1.890   0.896  0.0929 -0.3055  0.1503
  961SOL    HW1 2882   0.706   1.986   0.893 -2.4952 -0.9343  1.3914
  961SOL    HW2 2883   0.822   1.879   0.952 -1.3522  1.6465 -0.4852
  962SOL     OW 2884   0.153   1.729   1.430  0.0931  0.1370 -0.0056
  962SOL    HW1 2885   0.184   1.697   1.337  0.3265  0.1025  1.2232
  962SOL    HW2 2886   0.193   1.667   1.499 -2.1398  0.5527 -1.7260
  963SOL     OW 2887   1.482   1.761   2.547  0.2998 -0.1690 -0.2240
  963SOL    HW1 2888   1.553   1.717   2.488 -0.7301  0.4274  1.9980
  963SOL    HW2 2889   1.514   1.766   2.643 -0.9425  0.6899 -2.6869
  964SOL     OW 2890   0.172   2.968   2.221  0.0290  0.1815 -0.6269
  964SOL    HW1 2891   0.192   2.881   2.270 -2.5093 -0.4447  1.3561
  964SOL    HW2 2892   0.070   2.986   2.225 -2.3999  0.4877  1.1512
  965SOL     OW 2893   0.031   2.190   2.734  0.3263  0.3424 -0.1740
  965SOL    HW1 2894   3.035   2.203   2.727 -3.6915 -1.3772 -0.7875
  965SOL    HW2 2895   0.069   2.210   2.640 -1.4290 -0.8131 -0.5771
  966SOL     OW 2896   2.877   1.811   2.894 -0.1449 -0.1661  0.0369
  966SOL    HW1 2897   2.798   1.770   2.944 -0.8320  1.8886  1.2078
  966SOL    HW2 2898   2.958   1.753   2.907 -2.8757 -0.9735  0.5379
  967SOL     OW 2899   1.827   0.101   0.234  0.2857  0.3774  0.0827
  967SOL    HW1 2900   1.819   0.196   0.273  1.4860 -0.8357  0.9968
  967SOL    HW2 2901   1.750   0.041   0.263  1.1756 -2.5691  0.4907
  968SOL     OW 2902   2.581   3.068   0.816 -0.7554 -0.4878 -0.2627
  968SOL    HW1 2903   2.519   2.998   0.855  1.3624  0.6455 -0.3983
  968SOL    HW2 2904   2.549   0.058   0.847  0.1517  0.9384  1.0835
  969SOL     OW 2905   0.164   1.018   2.152 -0.3668 -0.8188 -0.5154
  969SOL    HW1 2906   0.106   1.010   2.069  1.4705  1.9697  0.6341
  969SOL    HW2 2907   0.199   1.116   2.159  2.5524 -1.1759 -0.8726
  970SOL     OW 2908   1.876   1.728   2.779  0.5358 -0.0541  0.1093
  970SOL    HW1 2909   1.953   1.735   2.841  0.3790  2.5174  0.8074
  970SOL    HW2 2910   1.838   1.821   2.763 -0.7474  2.2610 -0.4370
  971SOL     OW 2911   2.390   0.240   1.644  0.2258 -0.7551  0.3612
  971SOL    HW1 2912   2.311   0.303   1.661 -0.4913 -2.0298  0.9988
  971SOL    HW2 2913   2.354   0.146   1.632 -0.8609  0.8523  1.1249
  972SOL     OW 2914   2.776   0.320   0.735 -0.3365  0.1585 -0.3125
  972SOL    HW1 2915   2.713   0.400   0.745 -3.2707  1.1391 -0.0227
  972SOL    HW2 2916   2.862   0.342   0.677  0.0724  0.1318  1.2356
  973SOL     OW 2917   0.487   0.474   2.350  0.0604  0.1510  0.8643
  973SOL    HW1 2918   0.450   0.445   2.255  0.0128 -2.6662 -2.5825
  973SOL    HW2 2919   0.543   0.395   2.384  4.5256 -2.4383  0.1961
  974SOL     OW 2920   2.914   0.956   1.720  0.2716  0.0700 -0.4237
  974SOL    HW1 2921   2.825   0.958   1.773 -1.6241  1.2357  0.5821
  974SOL    HW2 2922   2.920   1.043   1.665  1.4688  0.3461 -0.8411
  975SOL     OW 2923   1.462   2.948   1.995  0.2434 -0.0949  0.1462
  975SOL    HW1 2924   1.553   2.928   1.952 -1.8408  1.2135  1.3006
  975SOL    HW2 2925   1.404   2.864   2.000 -3.2492  1.5256  0.1231
  976SOL     OW 2926   1.875   1.572   1.382  0.0891 -0.3390 -0.1112
  976SOL    HW1 2927   1.960   1.579   1.439  0.1704 -0.3761  0.7511
  976SOL    HW2 2928   1.792   1.567   1.443 -2.0026 -0.5872 -2.0763
  977SOL     OW 2929   0.315   2.764   2.848  0.0101 -0.0121  0.4795
  977SOL    HW1 2930   0.418   2.771   2.840  1.0671 -1.7146  2.4803
  977SOL    HW2 2931   0.288   2.670   2.878  0.0153 -0.7315  0.2941
  978SOL     OW 2932   2.028   1.389   1.974  0.1685 -0.2615 -0.4218
  978SOL    HW1 2933   1.964   1.400   1.894 -1.3618  1.5008 -0.7632
  978SOL    HW2 2934   1.979   1.378   2.065 -1.1994 -0.7822 -0.0121
  979SOL     OW 2935   1.388   0.923   2.079 -0.4590  0.0295 -0.1134
  979SOL    HW1 2936   1.292   0.961   2.103 -1.0921  2.6995  0.2046
  979SOL    HW2 2937   1.400   0.916   1.978  1.4347 -0.8585  0.3031
  980SOL     OW 2938   1.718   1.873   2.366 -1.1451 -0.0653 -0.0346
  980SOL    HW1 2939   1.759   1.966   2.400  0.2915  3.0763  0.9713
  980SOL    HW2 2940   1.734   1.799   2.440 -0.9255  1.9769  0.4696
  981SOL     OW 2941   1.619   0.621   1.968 -0.0204  0.4023  0.0590
  981SOL    HW1 2942   1.653   0.704   1.916  1.0022  0.8629 -0.0880
  981SOL    HW2 2943   1.611   0.634   2.069  1.3301 -1.7737  3.2399
  982SOL     OW 2944   0.488   0.423   0.265 -0.1861 -0.3111 -0.3807
  982SOL    HW1 2945   0.449   0.425   0.360  0.8236  0.5020  1.3710
  982SOL    HW2 2946   0.418   0.410   0.195 -0.0046  0.8435 -0.1544
  983SOL     OW 2947   2.115   0.761   3.069  0.6913  0.1917  0.1704
  983SOL    HW1 2948   2.173   0.775   2.987 -0.4525  0.9415  0.0643
  983SOL    HW2 2949   2.038   0.695   3.050 -2.4186 -0.4241 -1.0266
  984SOL     OW 2950   0.996   0.283   2.705  0.2979 -0.1569 -0.1075
  984SOL    HW1 2951   1.020   0.232   2.619  0.5452  0.1421 -0.1692
  984SOL    HW2 2952   1.048   0.236   2.781 -0.6868  2.8327 -0.3001
  985SOL     OW 2953   1.555   2.418   1.971  0.3251 -0.7220  0.0290
  985SOL    HW1 2954   1.522   2.322   1.986 -0.1604 -0.7097  1.5409
  985SOL    HW2 2955   1.638   2.437   2.029  0.9348  2.5586  1.4932
  986SOL     OW 2956   2.280   2.738   1.859  0.5082  0.9304  0.0325
  986SOL    HW1 2957   2.229   2.812   1.810  3.5090  0.4170 -1.7504
  986SOL    HW2 2958   2.291   2.759   1.957 -1.5015  0.9455  0.1058
  987SOL     OW 2959   1.913   1.215   1.005 -0.3653 -0.2124  0.1040
  987SOL    HW1 2960   1.939   1.118   1.004  0.2725  0.2468 -1.5990
  987SOL    HW2 2961   1.815   1.237   0.989  2.7113  1.9085  2.4375
  988SOL     OW 2962   2.270   1.026   1.744 -0.6089 -0.4837  0.6445
  988SOL    HW1 2963   2.201   1.045   1.818  0.0966 -0.0871  0.7557
  988SOL    HW2 2964   2.305   1.113   1.710 -2.9447 -1.8156 -0.0206
  989SOL     OW 2965   1.627   2.171   0.172  0.2085 -0.0450  0.0149
  989SOL    HW1 2966   1.630   2.216   0.079  1.5827 -0.6557 -1.3673
  989SOL    HW2 2967   1.721   2.143   0.199  0.8586 -0.7982 -0.3621
  990SOL     OW 2968   1.859   0.849   2.659 -0.5978  0.0248 -0.6047
  990SOL    HW1 2969   1.948   0.898   2.660  1.5086  2.2158 -0.0065
  990SOL    HW2 2970   1.857   0.797   2.746  0.8083 -2.1368 -2.1881
  991SOL     OW 2971   0.938   0.696   0.642  0.1294 -0.5648  0.2008
  991SOL    HW1 2972   0.862   0.727   0.704  2.3612  1.4817 -0.9271
  991SOL    HW2 2973   1.016   0.763   0.646 -0.0598 -0.8641  1.1758
  992SOL     OW 2974   2.925   0.863   1.282  0.4039 -0.2149  0.3852
  992SOL    HW1 2975   2.924   0.954   1.233 -2.8131 -0.0274  0.0361
  992SOL    HW2 2976   2.933   0.789   1.217 -0.2859 -0.3233  1.4619
  993SOL     OW 2977   2.096   0.687   1.809 -0.0663 -0.4278 -0.4114
  993SOL    HW1 2978   2.064   0.603   1.861 -0.9367  1.5034 -0.4450
  993SOL    HW2 2979   2.181   0.667   1.768 -3.5591  0.4116  0.1437
  994SOL     OW 2980   1.312   1.760   1.732  0.3073  0.0548  0.2324
  994SOL    HW1 2981   1.379   1.756   1.808  0.7632  0.0360  3.1364
  994SOL    HW2 2982   1.218   1.783   1.760  0.1423 -0.9221  0.5989
  995SOL     OW 2983   2.157   1.536   2.712  0.0852 -0.3552 -0.0307
  995SOL    HW1 2984   2.244   1.532   2.658 -0.7196 -2.9932 -0.7151
  995SOL    HW2 2985   2.146   1.604   2.791 -1.5905  4.6143 -0.4130
  996SOL     OW 2986   2.102   1.573   0.504  0.3279 -0.4104 -0.8687
  996SOL    HW1 2987   2.144   1.588   0.599  2.3076  0.9595  0.3332
  996SOL    HW2 2988   2.092   1.475   0.482  2.6133  0.4077 -2.1619
  997SOL     OW 2989   1.985   0.476   1.950 -1.2042  0.3171 -0.1977
  997SOL    HW1 2990   1.939   0.473   2.041  2.4324 -0.4344 -0.6595
  997SOL    HW2 2991   1.923   0.424   1.889 -0.7577 -0.4792  2.1879
  998SOL     OW 2992   2.580   0.811   0.709  0.1595  0.3020 -0.6707
  998SOL    HW1 2993   2.594   0.853   0.804  0.3347 -0.1824  0.2037
  998SOL    HW2 2994   2.613   0.869   0.632  0.3953  2.3105  0.8021
  999SOL     OW 2995   2.650   1.627   0.436  0.6028 -0.4940 -0.5200
  999SOL    HW1 2996   2.646   1.727   0.409  0.2206  1.4647  1.6131
  999SOL    HW2 2997   2.647   1.610   0.539 -0.7683 -0.1558  2.3610
 1000SOL     OW 2998   0.668   1.273   1.988  0.3930  0.0144  0.0172
 1000SOL    HW1 2999   0.579   1.322   1.970 -0.6844 -0.2580  0.2351
 1000SOL    HW2 3000   0.697   1.202   1.919  2.0861 -0.4749  1.4768
   3.10421   3.10421   3.10421
