1000 SPC/Fw water molecules t= 366.00000 step= 366000
 3000
    1SOL     OW    1   2.565   2.780   1.673  0.0261  0.2182 -0.0681
    1SOL    HW1    2   2.556   2.803   1.772  0.1859 -1.1160  2.8556
    1SOL    HW2    3   2.552   2.864   1.620 -0.9615 -2.9808  2.6122
    2SOL     OW    4   2.449   2.443   0.661 -0.4681  0.4657 -0.4991
    2SOL    HW1    5   2.447   2.479   0.758 -1.4361  1.0156  2.7721
    2SOL    HW2    6   2.455   2.514   0.589 -0.4131  0.9534  1.1366
    3SOL     OW    7   1.177   0.056   0.107  0.2176  0.1799 -0.1742
    3SOL    HW1    8   1.229   0.139   0.080  0.7772 -0.0190  0.0995
    3SOL    HW2    9   1.131   0.012   0.029  0.1043 -1.0528 -0.2889
    4SOL     OW   10   1.356   2.835   2.171  0.3252  0.0761  0.4749
    4SOL    HW1   11   1.364   2.786   2.257 -1.6436 -1.9449  0.8172
    4SOL    HW2   12   1.275   2.808   2.116  1.8291  0.9355 -2.8755
    5SOL     OW   13   2.211   0.559   1.777 -0.0699  0.2237 -0.0488
    5SOL    HW1   14   2.262   0.617   1.842  0.2268  1.5961 -1.4059
    5SOL    HW2   15   2.142   0.504   1.827  3.0181 -1.0550 -0.4813
    6SOL     OW   16   2.231   2.330   0.478 -0.5193 -0.1977 -0.4863
    6SOL    HW1   17   2.157   2.401   0.504 -3.5240  0.9649  2.2535
    6SOL    HW2   18   2.322   2.374   0.457  0.6096 -0.1193  0.0572
    7SOL     OW   19   1.774   1.077   1.062 -0.2577 -0.1171 -0.2341
    7SOL    HW1   20   1.702   1.065   0.986 -0.5350 -3.3862  0.3432
    7SOL    HW2   21   1.741   1.085   1.156 -1.4331  1.0377 -0.6317
    8SOL     OW   22   1.002   1.508   1.281 -0.2922  0.5203 -0.2084
    8SOL    HW1   23   0.923   1.469   1.224 -2.2660 -1.2034 -1.2192
    8SOL    HW2   24   1.065   1.557   1.213 -1.2312 -1.1956 -0.6083
    9SOL     OW   25   1.031   2.570   1.874 -0.3577 -0.4075 -0.0519
    9SOL    HW1   26   0.973   2.616   1.805  0.3963 -1.9967  1.1351
    9SOL    HW2   27   1.019   2.468   1.868  0.8896 -0.7461 -0.1644
   10SOL     OW   28   1.071   2.383   0.804  0.1117 -0.4431 -0.7245
   10SOL    HW1   29   1.154   2.329   0.784  0.3075 -0.0367  0.3647
   10SOL    HW2   30   1.006   2.395   0.728  0.1169  3.8716 -1.6143
   11SOL     OW   31   1.600   1.822   1.326  0.0216  0.2192 -0.4943
   11SOL    HW1   32   1.539   1.898   1.361 -0.5464 -0.3396  0.4672
   11SOL    HW2   33   1.684   1.855   1.277  0.4659  1.9291 -2.4914
   12SOL     OW   34   2.688   0.406   2.377 -0.5476  0.1392  0.1009
   12SOL    HW1   35   2.623   0.404   2.295  0.9610  0.2816 -1.4709
   12SOL    HW2   36   2.788   0.404   2.344  1.5039  0.1355 -0.7358
   13SOL     OW   37   2.660   3.072   0.634 -0.0770 -0.1795 -0.0079
   13SOL    HW1   38   2.707   3.089   0.723  2.0395  0.2255 -0.3849
   13SOL    HW2   39   2.724   3.031   0.572 -0.4118 -0.7033  1.3827
   14SOL     OW   40   1.721   1.681   2.804 -0.1347  0.0588 -0.2742
   14SOL    HW1   41   1.797   1.614   2.805 -1.0066 -0.8744 -4.3073
   14SOL    HW2   42   1.711   1.728   2.898 -2.4840  1.0231  1.0257
   15SOL     OW   43   2.386   2.556   1.577 -0.0817  0.5099 -0.2419
   15SOL    HW1   44   2.429   2.474   1.621  0.8904 -0.4765 -0.4554
   15SOL    HW2   45   2.393   2.638   1.640  0.5282 -3.8442 -1.1920
   16SOL     OW   46   2.221   2.775   0.520  0.3808 -0.5473  0.3336
   16SOL    HW1   47   2.140   2.795   0.583 -0.1180 -0.5130  1.5802
   16SOL    HW2   48   2.307   2.826   0.552  0.0303 -1.2453 -0.8359
   17SOL     OW   49   0.742   0.326   1.341 -0.1260  0.0681 -0.2066
   17SOL    HW1   50   0.665   0.372   1.296 -0.0835  1.0765 -2.0383
   17SOL    HW2   51   0.786   0.266   1.273 -1.8176 -0.0213  1.3873
   18SOL     OW   52   2.039   0.349   0.412 -0.8590 -1.0423 -0.7796
   18SOL    HW1   53   1.964   0.317   0.474 -0.2515  3.9200 -0.8579
   18SOL    HW2   54   2.043   0.291   0.327 -2.7010 -2.1202  1.9526
   19SOL     OW   55   2.214   1.450   0.122 -0.3588 -0.2566  0.1283
   19SOL    HW1   56   2.251   1.515   0.054  2.4494 -1.5685 -1.2247
   19SOL    HW2   57   2.131   1.474   0.172 -0.0135 -1.1259  0.6620
   20SOL     OW   58   2.500   1.649   2.311 -0.3519  0.0733  0.0958
   20SOL    HW1   59   2.454   1.717   2.252  0.5499 -1.4769 -1.4603
   20SOL    HW2   60   2.522   1.564   2.253  3.7453 -0.2584 -0.2856
   21SOL     OW   61   1.439   0.169   0.590 -0.1427  0.1395 -0.0684
   21SOL    HW1   62   1.412   0.217   0.679  1.8663  0.4918  0.1547
   21SOL    HW2   63   1.421   0.222   0.508 -1.1516  0.1576  0.5494
   22SOL     OW   64   2.710   0.534   1.579 -0.2774  0.4249  0.1506
   22SOL    HW1   65   2.705   0.628   1.540 -1.6120 -0.5107  4.2565
   22SOL    HW2   66   2.624   0.498   1.620  1.5925  0.4218  0.0664
   23SOL     OW   67   0.279   0.353   1.865  0.6189 -0.1142  0.3703
   23SOL    HW1   68   0.307   0.351   1.764  2.8126  3.3484 -2.6045
   23SOL    HW2   69   0.250   0.446   1.892  0.3684 -0.2097 -1.9812
   24SOL     OW   70   2.594   2.736   0.242  0.0881  0.0286  0.0590
   24SOL    HW1   71   2.685   2.775   0.218 -1.7407  2.4946 -0.7668
   24SOL    HW2   72   2.543   2.798   0.315 -2.9289 -0.3355  3.0487
   25SOL     OW   73   0.995   2.838   2.662 -0.5655 -0.2296 -0.3153
   25SOL    HW1   74   0.925   2.774   2.619 -0.4328 -1.5768  0.5286
   25SOL    HW2   75   1.092   2.815   2.639  1.7296 -1.7724  1.3624
   26SOL     OW   76   1.389   2.466   0.356  0.5431  0.2981  0.0815
   26SOL    HW1   77   1.299   2.426   0.390 -2.5054 -2.4597 -0.9246
   26SOL    HW2   78   1.419   2.538   0.422  0.4786  0.8484 -2.3078
   27SOL     OW   79   2.155   0.824   0.921 -0.0455 -0.1533 -0.0698
   27SOL    HW1   80   2.107   0.864   1.004  2.3030  1.8660  1.0406
   27SOL    HW2   81   2.254   0.815   0.945  1.7660 -1.8016 -1.9279
   28SOL     OW   82   1.036   1.340   0.931  0.1880  0.0188 -0.1325
   28SOL    HW1   83   1.049   1.354   0.831  0.4323 -2.8448 -0.1276
   28SOL    HW2   84   1.056   1.246   0.958 -0.5773  0.6607  0.3511
   29SOL     OW   85   3.107   0.173   1.932  0.2867 -0.1815  0.5668
   29SOL    HW1   86   3.108   0.261   1.880  1.0089 -1.4793  1.0153
   29SOL    HW2   87   3.033   0.109   1.905 -0.9165  0.9668  0.4843
   30SOL     OW   88   1.215   0.065   1.256 -0.2266 -0.0066  0.2286
   30SOL    HW1   89   1.131   0.015   1.229  1.4411  0.2204  0.9268
   30SOL    HW2   90   1.210   0.099   1.355 -1.1310 -1.7692  4.2285
   31SOL     OW   91   1.842   2.747   1.999  0.4473 -0.4423  0.7771
   31SOL    HW1   92   1.791   2.820   2.049  2.3711 -1.3260  1.2087
   31SOL    HW2   93   1.937   2.764   2.006 -3.6478 -2.2957 -1.0712
   32SOL     OW   94   0.807   1.401   3.056 -0.1568  0.0834  0.2767
   32SOL    HW1   95   0.879   1.429   2.993  2.1984  0.8076  0.3205
   32SOL    HW2   96   0.839   1.427   0.035 -0.7803 -2.4555 -0.0128
   33SOL     OW   97   0.043   0.986   2.413  0.2413  0.3900  0.0820
   33SOL    HW1   98   3.071   0.939   2.401 -0.5893  1.9383 -1.6294
   33SOL    HW2   99   0.120   0.923   2.421 -2.9972  1.1679 -0.0667
   34SOL     OW  100   2.092   0.031   0.566  0.3454  0.3567  0.3217
   34SOL    HW1  101   2.032   0.106   0.600  0.6505  2.8664 -2.4588
   34SOL    HW2  102   2.111   3.083   0.641  0.9038  1.7716 -0.9289
   35SOL     OW  103   2.644   2.370   1.881 -0.0492  0.3007 -0.3543
   35SOL    HW1  104   2.679   2.358   1.978  1.7803  2.6372 -0.2905
   35SOL    HW2  105   2.698   2.444   1.835 -1.1209  1.4709  1.5994
   36SOL     OW  106   2.440   2.217   2.984  0.4368 -0.4249 -0.5818
   36SOL    HW1  107   2.402   2.314   2.993 -0.9403  0.3772  1.6315
   36SOL    HW2  108   2.536   2.221   3.008 -0.3417 -1.4335 -1.1103
   37SOL     OW  109   1.991   0.421   1.859  0.0591 -0.4206 -0.4703
   37SOL    HW1  110   1.992   0.365   1.778 -2.7840  4.5788  0.4357
   37SOL    HW2  111   1.905   0.477   1.862  3.2858 -0.2850 -2.2270
   38SOL     OW  112   3.033   0.391   2.867 -0.2890 -0.4542  0.4071
   38SOL    HW1  113   2.969   0.397   2.789  2.6631 -0.6962  0.5456
   38SOL    HW2  114   3.010   0.312   2.930  1.4220 -0.7700  2.0606
   39SOL     OW  115   1.897   1.273   1.846  0.3425 -0.5748  0.5888
   39SOL    HW1  116   1.884   1.231   1.935 -1.4614  3.4104 -3.6992
   39SOL    HW2  117   1.923   1.373   1.849  0.1527 -2.1781 -0.8025
   40SOL     OW  118   1.145   2.068   0.588 -0.8070 -0.0153  0.0592
   40SOL    HW1  119   1.131   2.053   0.689  0.7791 -1.2824  0.0914
   40SOL    HW2  120   1.061   2.063   0.532 -0.2388  1.0366 -2.9876
   41SOL     OW  121   1.926   1.765   0.972  0.5420  0.7792 -0.1936
   41SOL    HW1  122   2.025   1.780   0.987 -0.3076 -0.4997 -0.3208
   41SOL    HW2  123   1.902   1.759   0.870 -1.3466  1.4238 -3.8657
   42SOL     OW  124   0.470   0.407   1.249 -0.1002  0.4711  0.8821
   42SOL    HW1  125   0.367   0.425   1.249  0.6890 -1.6303  0.5992
   42SOL    HW2  126   0.517   0.485   1.292  1.0355 -3.3150  1.6948
   43SOL     OW  127   0.017   1.667   2.513 -0.0236 -0.7456 -0.5160
   43SOL    HW1  128   3.089   1.685   2.604 -0.0440  1.2959  0.9217
   43SOL    HW2  129   0.003   1.569   2.484  2.1499 -2.4793  1.8664
   44SOL     OW  130   2.100   2.854   1.460  0.3963  0.2267 -0.5948
   44SOL    HW1  131   2.050   2.779   1.408 -1.2927 -1.5716 -0.1978
   44SOL    HW2  132   2.090   2.845   1.564  0.2630  1.9110  1.3419
   45SOL     OW  133   1.203   0.024   2.601 -0.1642  0.5085  0.8684
   45SOL    HW1  134   1.247   0.030   2.691  0.5013  2.1036  0.0319
   45SOL    HW2  135   1.148   3.053   2.582  0.6909  1.0001 -0.7609
   46SOL     OW  136   0.849   2.668   2.480 -0.2365 -0.1901 -0.2651
   46SOL    HW1  137   0.779   2.709   2.426 -0.0243  1.8125  0.3889
   46SOL    HW2  138   0.814   2.578   2.524  1.2913  0.3474  2.5654
   47SOL     OW  139   0.791   2.257   0.868 -0.5747  0.4640  0.4782
   47SOL    HW1  140   0.875   2.302   0.826  3.5490  0.2186 -1.0269
   47SOL    HW2  141   0.712   2.269   0.809  2.1076 -0.3729 -0.4650
   48SOL     OW  142   1.239   2.648   1.135 -0.3597  0.2170 -0.6312
   48SOL    HW1  143   1.258   2.546   1.137  0.3640 -4.2774 -2.0642
   48SOL    HW2  144   1.304   2.698   1.196 -0.2053  0.3448  0.1808
   49SOL     OW  145   2.250   0.056   3.083  0.0679  0.2429 -0.6850
   49SOL    HW1  146   2.285   0.012   0.058  0.3314 -0.1660  1.2891
   49SOL    HW2  147   2.325   0.071   3.018 -0.9653 -0.9340  0.1170
   50SOL     OW  148   1.655   0.140   0.215  0.4119  0.3856 -0.0834
   50SOL    HW1  149   1.725   0.128   0.146 -1.2738  1.9416 -1.8621
   50SOL    HW2  150   1.584   0.209   0.186  0.2987  0.2278 -0.9433
   51SOL     OW  151   2.296   0.684   1.225 -0.0618  0.4326 -0.0205
   51SOL    HW1  152   2.222   0.747   1.261 -0.1598  0.7485  0.0048
   51SOL    HW2  153   2.369   0.677   1.297 -1.0126 -1.4321 -0.9560
   52SOL     OW  154   0.546   1.591   0.319 -0.4761 -0.1722 -0.8116
   52SOL    HW1  155   0.486   1.631   0.248  0.1331 -1.0677  0.2529
   52SOL    HW2  156   0.630   1.642   0.326  0.0388 -2.0943  1.5442
   53SOL     OW  157   0.290   1.540   2.711 -0.0269 -0.2885 -0.2210
   53SOL    HW1  158   0.211   1.484   2.683 -1.2436  1.6840  1.6467
   53SOL    HW2  159   0.308   1.536   2.811 -1.8431 -0.2523 -1.0955
   54SOL     OW  160   2.685   1.193   1.829 -0.2490  0.2307  0.4010
   54SOL    HW1  161   2.618   1.116   1.862 -0.2899  0.4644  1.8804
   54SOL    HW2  162   2.782   1.159   1.839  1.1746  1.0445  0.8531
   55SOL     OW  163   2.323   1.873   0.268  0.2589 -0.0048  0.0209
   55SOL    HW1  164   2.416   1.901   0.301  1.1079  2.1727 -2.4602
   55SOL    HW2  165   2.291   1.792   0.323  0.7782 -2.3025  0.1786
   56SOL     OW  166   1.839   0.032   1.527  0.2548 -0.5621  0.2641
   56SOL    HW1  167   1.761   3.084   1.508 -0.8567 -2.9661  0.7884
   56SOL    HW2  168   1.919   3.105   1.477  2.6751 -3.6652 -3.7233
   57SOL     OW  169   1.702   1.194   2.926  0.0391  0.1296 -0.6944
   57SOL    HW1  170   1.760   1.116   2.912 -0.1315  3.2284  1.3699
   57SOL    HW2  171   1.638   1.220   2.852  2.8086  1.4986 -2.7474
   58SOL     OW  172   0.210   0.471   1.262  0.1042  0.5303  0.3565
   58SOL    HW1  173   0.192   0.477   1.362 -0.3452  2.1612  2.4077
   58SOL    HW2  174   0.143   0.414   1.210  0.2701  0.4010  2.2225
   59SOL     OW  175   1.380   2.640   0.141  0.8050  0.0109 -0.2868
   59SOL    HW1  176   1.357   2.598   0.233  0.6822 -3.5140  3.0821
   59SOL    HW2  177   1.326   2.590   0.070 -0.0466 -1.1733 -0.6693
   60SOL     OW  178   0.063   2.108   2.953 -0.3755 -0.3695 -0.2249
   60SOL    HW1  179   0.162   2.096   2.985  0.9387 -3.2353 -1.3268
   60SOL    HW2  180   0.054   2.188   2.891  1.3723  0.3142  0.5949
   61SOL     OW  181   0.646   2.505   1.111  0.0122  0.0733  0.1160
   61SOL    HW1  182   0.741   2.536   1.136  3.3219  0.0524  4.5234
   61SOL    HW2  183   0.613   2.555   1.028 -1.4447 -0.0577 -1.7479
   62SOL     OW  184   1.764   1.894   2.662 -0.3243 -0.2193 -0.2277
   62SOL    HW1  185   1.741   1.818   2.729 -0.1523 -0.0887 -0.8386
   62SOL    HW2  186   1.823   1.958   2.717  2.6406 -0.9318 -0.9928
   63SOL     OW  187   1.935   1.785   0.205  0.4912  0.2456  0.5992
   63SOL    HW1  188   1.870   1.864   0.194  0.8956  0.0287 -0.1683
   63SOL    HW2  189   2.012   1.797   0.142 -1.4086 -1.8705  1.0746
   64SOL     OW  190   2.142   1.175   0.191 -0.1177  0.0630  0.0279
   64SOL    HW1  191   2.203   1.245   0.149  1.3716 -0.3468 -2.3811
   64SOL    HW2  192   2.196   1.098   0.234  1.1016 -0.1649 -0.3130
   65SOL     OW  193   2.087   1.876   2.074  0.1029 -0.6569  0.9536
   65SOL    HW1  194   2.050   1.920   2.158 -1.8900  0.6429 -3.3748
   65SOL    HW2  195   2.182   1.844   2.101  0.7668 -1.8750  1.6657
   66SOL     OW  196   0.380   0.976   1.308 -0.0384 -0.2521 -0.4521
   66SOL    HW1  197   0.393   0.973   1.407 -1.9800  2.8039 -1.1933
   66SOL    HW2  198   0.442   1.042   1.268 -0.5531 -0.8333  1.6107
   67SOL     OW  199   2.054   0.034   2.835  0.5105 -0.6594 -0.6105
   67SOL    HW1  200   1.996   0.118   2.835  0.2722 -1.3520 -1.2551
   67SOL    HW2  201   2.141   0.057   2.791 -1.9021  0.5304  1.5191
   68SOL     OW  202   1.482   2.049   1.439  0.1181  0.3854  0.0233
   68SOL    HW1  203   1.411   2.063   1.366 -0.1054  0.4703 -1.6032
   68SOL    HW2  204   1.510   2.134   1.472  1.8610 -3.1126 -3.1947
   69SOL     OW  205   0.349   2.623   0.090 -0.3120  0.0217 -0.1658
   69SOL    HW1  206   0.268   2.690   0.076 -2.6152  2.8185  0.0440
   69SOL    HW2  207   0.331   2.524   0.068 -0.3354 -1.6722 -0.8372
   70SOL     OW  208   0.283   0.677   2.197 -0.5626  0.1867 -0.0972
   70SOL    HW1  209   0.189   0.686   2.170  1.4140 -1.0926  2.2454
   70SOL    HW2  210   0.337   0.742   2.144 -1.4043 -0.8186  1.4776
   71SOL     OW  211   0.962   1.220   2.696 -0.3615 -0.1466 -0.0361
   71SOL    HW1  212   0.982   1.312   2.730 -0.1194 -0.1683 -1.2237
   71SOL    HW2  213   1.047   1.161   2.706  2.0728 -2.8628 -0.5102
   72SOL     OW  214   2.901   1.785   2.050 -0.1835  0.0918 -0.0439
   72SOL    HW1  215   2.868   1.863   2.111 -2.5460  0.2721  0.3723
   72SOL    HW2  216   2.879   1.805   1.952 -0.0932  0.3285  1.6318
   73SOL     OW  217   1.498   1.703   0.108 -0.0939  0.2203  0.0898
   73SOL    HW1  218   1.583   1.732   0.059 -0.3774  2.8518  2.6767
   73SOL    HW2  219   1.418   1.746   0.069  1.2053 -1.3291  1.0402
   74SOL     OW  220   2.348   3.083   2.721 -0.2602  0.0598  0.4946
   74SOL    HW1  221   2.411   0.027   2.780  1.0030  1.1069  1.6976
   74SOL    HW2  222   2.369   3.092   2.619 -1.6626  0.5918 -0.4598
   75SOL     OW  223   1.800   1.923   1.154 -0.8770 -0.4376  0.1249
   75SOL    HW1  224   1.739   1.989   1.104  1.7281  0.8951  0.2625
   75SOL    HW2  225   1.839   1.858   1.094 -1.8822  1.9044  2.8252
   76SOL     OW  226   2.887   2.131   1.652 -0.5026 -0.6098  0.0056
   76SOL    HW1  227   2.820   2.078   1.601  2.2688  0.9685  1.6601
   76SOL    HW2  228   2.983   2.116   1.614  2.9481  0.6422 -3.0638
   77SOL     OW  229   0.390   2.943   1.834 -0.0164  0.1297 -0.2543
   77SOL    HW1  230   0.443   2.974   1.756 -1.1489 -1.8606  3.0995
   77SOL    HW2  231   0.351   3.025   1.882  1.2916  1.0052  0.3362
   78SOL     OW  232   2.409   0.928   0.193  0.4279  0.7229 -0.1157
   78SOL    HW1  233   2.411   0.989   0.111 -0.1586 -0.5142 -0.6217
   78SOL    HW2  234   2.496   0.929   0.244 -1.4185 -1.2267 -5.0888
   79SOL     OW  235   3.008   1.421   2.373 -0.3399  0.0060  0.1889
   79SOL    HW1  236   2.929   1.425   2.434  0.9325  0.1308  0.4009
   79SOL    HW2  237   3.082   1.358   2.402  0.1528 -0.0011  0.0003
   80SOL     OW  238   1.752   1.462   1.622 -0.4424 -0.0329  0.3628
   80SOL    HW1  239   1.812   1.456   1.703 -0.2932 -1.3037  3.4262
   80SOL    HW2  240   1.734   1.561   1.586 -1.6712 -0.8001 -2.1086
   81SOL     OW  241   2.194   1.183   1.993 -0.6852  0.4374  0.0492
   81SOL    HW1  242   2.094   1.176   1.987 -1.8008 -2.7277 -1.1103
   81SOL    HW2  243   2.220   1.248   1.917 -3.6150 -0.6438  0.4977
   82SOL     OW  244   1.616   1.528   1.905 -0.1623  0.3571 -0.3252
   82SOL    HW1  245   1.629   1.623   1.872 -0.5244 -0.8142  1.1883
   82SOL    HW2  246   1.532   1.481   1.864 -2.0423  1.9083  0.9128
   83SOL     OW  247   0.348   0.339   0.269  0.0731  0.5553 -0.5459
   83SOL    HW1  248   0.443   0.319   0.300  1.1395  1.0425 -0.9233
   83SOL    HW2  249   0.278   0.319   0.337 -0.3729  1.1822 -2.4696
   84SOL     OW  250   3.103   0.787   0.022 -0.6066 -0.0225  0.1151
   84SOL    HW1  251   3.041   0.765   0.101  2.1268 -3.1198 -0.5087
   84SOL    HW2  252   0.069   0.837   0.061  4.9006 -1.3282  0.6547
   85SOL     OW  253   2.411   2.530   0.978  0.1633 -0.3998 -0.0380
   85SOL    HW1  254   2.369   2.439   0.949  0.6754 -0.8057 -0.0663
   85SOL    HW2  255   2.512   2.520   0.995 -1.1289 -0.4697  0.8013
   86SOL     OW  256   0.465   2.972   1.430  0.4286 -0.1941  0.2069
   86SOL    HW1  257   0.531   2.907   1.389 -2.9952 -0.4288 -2.9827
   86SOL    HW2  258   0.461   3.064   1.388 -2.3351 -2.0322 -3.5062
   87SOL     OW  259   0.400   2.517   1.967  0.0967 -0.1675  0.0212
   87SOL    HW1  260   0.473   2.460   2.003 -3.1228  0.8285  3.2091
   87SOL    HW2  261   0.310   2.472   1.995  0.4523  4.0375 -0.3692
   88SOL     OW  262   0.339   2.116   3.018 -0.1089 -0.2379 -0.3131
   88SOL    HW1  263   0.319   2.089   0.005 -0.8112  0.6905 -0.8541
   88SOL    HW2  264   0.355   2.028   2.967  0.4966 -1.2093  1.2114
   89SOL     OW  265   0.937   0.947   0.678 -0.0026  0.3631 -0.1564
   89SOL    HW1  266   0.871   1.013   0.630  1.3773  2.7126 -2.0475
   89SOL    HW2  267   1.002   0.900   0.615  0.2481  1.5635  0.5830
   90SOL     OW  268   0.274   1.355   2.120 -0.1095  0.0327 -0.2720
   90SOL    HW1  269   0.326   1.444   2.128  0.8577  2.0524  1.7876
   90SOL    HW2  270   0.179   1.360   2.071 -1.2694 -0.8277 -0.4839
   91SOL     OW  271   1.747   0.973   0.718 -0.0733 -0.3307 -0.2159
   91SOL    HW1  272   1.715   0.994   0.626  0.9967 -2.5593  2.6580
   91SOL    HW2  273   1.680   0.997   0.793 -0.0249  1.0510  0.4766
   92SOL     OW  274   2.090   1.252   0.732 -0.3746 -0.1946  0.4550
   92SOL    HW1  275   2.017   1.322   0.750 -0.2964 -0.0600  1.2564
   92SOL    HW2  276   2.053   1.164   0.708 -1.6064  3.0358  0.9378
   93SOL     OW  277   2.807   0.945   2.538 -0.2473  0.6391  0.6248
   93SOL    HW1  278   2.780   0.879   2.609  0.5056 -1.9335  0.7553
   93SOL    HW2  279   2.858   0.892   2.467  0.5554  0.4569 -2.8611
   94SOL     OW  280   2.159   2.172   2.762  0.6933 -0.2858 -0.0711
   94SOL    HW1  281   2.143   2.259   2.713 -1.7400 -0.7666  1.8698
   94SOL    HW2  282   2.242   2.176   2.818  0.2261 -0.8669  0.5533
   95SOL     OW  283   3.088   0.091   1.032  0.8974  0.1385 -0.1249
   95SOL    HW1  284   3.011   0.151   0.999  0.4421  0.7013  1.0027
   95SOL    HW2  285   0.060   0.142   1.045 -0.6557 -2.2764  0.6837
   96SOL     OW  286   2.941   2.759   1.422 -0.1784  0.3265  0.5075
   96SOL    HW1  287   2.886   2.825   1.467 -0.5161 -1.3306 -2.9644
   96SOL    HW2  288   2.933   2.662   1.451 -0.8165 -0.0867  0.9418
   97SOL     OW  289   2.670   0.998   1.560  0.8437 -0.0181  0.4589
   97SOL    HW1  290   2.747   0.986   1.628 -1.9715  0.7405  1.5638
   97SOL    HW2  291   2.589   1.046   1.602 -1.4362  1.7937 -0.4472
   98SOL     OW  292   1.740   2.519   1.765 -0.5958  0.0418 -0.8413
   98SOL    HW1  293   1.677   2.482   1.837 -0.3777  1.5810  3.1610
   98SOL    HW2  294   1.689   2.581   1.705  1.6315  0.3599  1.4521
   99SOL     OW  295   0.306   2.776   1.531  0.2775 -0.1524  0.4662
   99SOL    HW1  296   0.369   2.720   1.590 -2.6875 -1.3741 -3.8523
   99SOL    HW2  297   0.361   2.844   1.486 -3.6537 -4.2670  1.1392
  100SOL     OW  298   1.707   0.571   2.609  1.0864  0.1951 -0.6565
  100SOL    HW1  299   1.758   0.661   2.607  4.9526  0.1267  0.3523
  100SOL    HW2  300   1.751   0.507   2.674  0.4680  2.3956  1.0519
  101SOL     OW  301   2.402   0.330   2.714 -0.1039 -0.1326 -0.1536
  101SOL    HW1  302   2.325   0.288   2.655 -1.8358  1.7350 -0.5794
  101SOL    HW2  303   2.457   0.392   2.655  1.4367  1.4523 -1.1501
  102SOL     OW  304   0.379   0.674   1.200 -0.1907  0.3089 -0.6760
  102SOL    HW1  305   0.313   0.596   1.221 -0.7154 -1.2600 -0.2398
  102SOL    HW2  306   0.341   0.759   1.249 -0.6587  1.8130  1.4762
  103SOL     OW  307   0.987   0.813   2.561  0.2554 -0.3493 -0.1151
  103SOL    HW1  308   0.955   0.720   2.528  0.9017 -2.2086 -0.1448
  103SOL    HW2  309   1.048   0.804   2.646  1.7715 -1.2898  1.2813
  104SOL     OW  310   0.270   0.841   2.425 -0.1181 -0.6721  0.0844
  104SOL    HW1  311   0.308   0.801   2.510  1.4267  0.5445 -1.5770
  104SOL    HW2  312   0.287   0.781   2.346 -2.9146  0.2828  1.5622
  105SOL     OW  313   2.345   1.931   1.471 -0.4745 -0.6416  0.6359
  105SOL    HW1  314   2.331   2.021   1.427 -2.2226  0.2693 -1.0831
  105SOL    HW2  315   2.253   1.892   1.488 -0.1132  0.6333 -1.3344
  106SOL     OW  316   1.778   2.965   0.548  0.6453  0.1059  0.4031
  106SOL    HW1  317   1.746   3.048   0.499 -0.7996 -2.4134 -0.3380
  106SOL    HW2  318   1.756   2.893   0.480  0.4476 -1.9027  1.1410
  107SOL     OW  319   1.996   2.356   1.091  0.3752  0.2092 -0.5637
  107SOL    HW1  320   1.939   2.384   1.173 -0.7180  0.3850 -0.5632
  107SOL    HW2  321   2.092   2.371   1.105 -1.8909 -0.2403 -2.6311
  108SOL     OW  322   2.985   2.409   1.309 -0.0777  0.2864 -0.2037
  108SOL    HW1  323   2.971   2.472   1.226  0.1372  1.6913 -0.2002
  108SOL    HW2  324   2.899   2.406   1.364 -1.6645 -2.1801  0.1335
  109SOL     OW  325   2.111   2.153   0.953  0.5200  0.0869  0.0218
  109SOL    HW1  326   2.184   2.213   0.910 -0.1686  0.8006 -4.9373
  109SOL    HW2  327   2.049   2.206   1.020 -0.3193 -0.5951  1.9129
  110SOL     OW  328   1.154   1.716   2.106 -0.7644 -0.5447 -0.4261
  110SOL    HW1  329   1.183   1.638   2.049 -3.0513  1.0045  0.5333
  110SOL    HW2  330   1.101   1.777   2.046  0.7154 -2.5744 -2.3562
  111SOL     OW  331   1.596   2.363   2.063  0.2698  0.1684 -0.2023
  111SOL    HW1  332   1.579   2.293   1.986 -0.8610  0.9123 -2.8785
  111SOL    HW2  333   1.534   2.442   2.051 -0.2587 -1.4704 -1.1881
  112SOL     OW  334   1.509   1.930   2.603  0.0826  0.3724  0.1251
  112SOL    HW1  335   1.501   1.985   2.516 -0.0102 -1.3587  2.3949
  112SOL    HW2  336   1.607   1.918   2.626 -0.9951  0.2948 -1.0187
  113SOL     OW  337   1.786   2.084   1.797  0.0252  0.4148 -0.0456
  113SOL    HW1  338   1.706   2.145   1.811  3.0602 -1.0855  2.0993
  113SOL    HW2  339   1.772   2.005   1.859  0.3442  0.2357  2.0573
  114SOL     OW  340   3.045   1.213   1.358 -0.0107  0.2854  0.4474
  114SOL    HW1  341   3.099   1.195   1.276 -1.5732 -0.8229 -0.7720
  114SOL    HW2  342   2.952   1.175   1.347  1.2143  0.5619  1.0984
  115SOL     OW  343   0.809   0.641   0.221 -0.3142 -0.1441 -0.4801
  115SOL    HW1  344   0.774   0.558   0.176 -0.3403  2.7796 -0.6785
  115SOL    HW2  345   0.811   0.721   0.154  0.4462  1.6704 -3.2650
  116SOL     OW  346   2.822   2.075   2.344  0.1641 -0.3177  0.1521
  116SOL    HW1  347   2.798   2.094   2.246  1.5653  0.1506 -0.0111
  116SOL    HW2  348   2.743   2.048   2.403 -0.1614 -1.6840  0.6360
  117SOL     OW  349   3.031   2.598   0.646  0.2483 -0.3135  0.1807
  117SOL    HW1  350   3.105   2.591   0.577 -0.7875  0.1210 -0.6022
  117SOL    HW2  351   3.056   2.578   0.743 -0.8256  0.2747  1.1579
  118SOL     OW  352   0.724   1.806   2.868  0.0058 -0.1196  0.0796
  118SOL    HW1  353   0.694   1.844   2.958  0.5786 -0.0073  0.0459
  118SOL    HW2  354   0.677   1.852   2.787 -0.9824  1.1303  2.0657
  119SOL     OW  355   0.511   2.076   0.604  0.1971  0.6108  0.6792
  119SOL    HW1  356   0.481   2.077   0.700  2.3629  1.4919 -1.4403
  119SOL    HW2  357   0.487   2.162   0.556 -0.4860 -3.3596 -1.5489
  120SOL     OW  358   1.295   0.674   0.141 -0.4590 -0.2835  0.0943
  120SOL    HW1  359   1.329   0.695   0.235 -0.8055  0.0569  0.5466
  120SOL    HW2  360   1.243   0.588   0.140 -0.1246  1.2679 -1.1603
  121SOL     OW  361   1.295   2.296   0.647 -0.1618 -0.0996  0.5867
  121SOL    HW1  362   1.385   2.267   0.602 -0.3129  0.5505 -2.6710
  121SOL    HW2  363   1.231   2.219   0.628  0.6274 -1.0652  0.4054
  122SOL     OW  364   3.014   2.496   1.950  0.6904 -0.0740  0.4662
  122SOL    HW1  365   3.011   2.391   1.943  2.3075 -1.7923 -0.9887
  122SOL    HW2  366   3.075   2.530   1.874 -1.5628  2.8675 -0.6207
  123SOL     OW  367   0.760   1.851   0.886 -0.3901  0.1961 -0.0128
  123SOL    HW1  368   0.805   1.872   0.975 -1.3660 -0.9910 -3.0357
  123SOL    HW2  369   0.692   1.780   0.898  0.5480  0.2527 -1.5240
  124SOL     OW  370   3.012   0.914   0.417  0.1145 -0.1221 -0.1585
  124SOL    HW1  371   2.995   0.837   0.352  0.9103  0.0090 -3.7065
  124SOL    HW2  372   3.029   1.003   0.367  3.3291 -0.1234  0.4511
  125SOL     OW  373   0.084   0.596   2.974 -0.0839 -0.5731 -0.2026
  125SOL    HW1  374   0.040   0.669   3.030 -0.8138  0.7934  0.9960
  125SOL    HW2  375   0.009   0.529   2.937 -4.2817 -0.5200 -0.0866
  126SOL     OW  376   0.186   1.838   0.689  0.0015  0.3720  0.2417
  126SOL    HW1  377   0.142   1.900   0.622  2.7108 -4.0864 -0.4322
  126SOL    HW2  378   0.143   1.845   0.782 -2.2588 -0.3165 -0.3873
  127SOL     OW  379   1.306   2.509   1.786 -0.3372 -0.2041 -0.5491
  127SOL    HW1  380   1.211   2.530   1.822  0.8084 -2.6347  1.1480
  127SOL    HW2  381   1.374   2.510   1.865  0.9667 -1.3937  0.7206
  128SOL     OW  382   1.322   1.298   0.169  0.4828 -0.6953  0.7484
  128SOL    HW1  383   1.307   1.387   0.122 -0.7110 -3.0605  0.4162
  128SOL    HW2  384   1.390   1.245   0.118 -0.5664  3.7296 -0.9222
  129SOL     OW  385   1.873   1.933   1.577  0.3747  0.1181 -0.0111
  129SOL    HW1  386   1.909   1.983   1.495 -2.4644  0.1880 -1.9053
  129SOL    HW2  387   1.817   1.995   1.631  1.2259 -2.4498 -0.2984
  130SOL     OW  388   2.013   1.780   1.774 -0.0894 -0.0019  0.4685
  130SOL    HW1  389   2.044   1.824   1.859  0.2289 -0.6726  1.6355
  130SOL    HW2  390   1.962   1.843   1.710  0.3797 -1.5999  1.2911
  131SOL     OW  391   2.730   2.806   2.951  0.1276  0.0252  0.2038
  131SOL    HW1  392   2.722   2.876   2.878  0.0100  0.3388  2.4223
  131SOL    HW2  393   2.791   2.729   2.922 -0.5058  0.1256 -5.2860
  132SOL     OW  394   2.499   2.206   0.517  0.2290 -0.2251  0.3794
  132SOL    HW1  395   2.415   2.148   0.543 -0.3548  0.4250  1.3969
  132SOL    HW2  396   2.496   2.288   0.574  0.2144 -0.1620 -1.9901
  133SOL     OW  397   0.689   0.102   2.394 -0.2224 -0.3060  0.6457
  133SOL    HW1  398   0.620   0.133   2.465  0.5419 -0.2236 -0.7536
  133SOL    HW2  399   0.631   0.068   2.315 -0.8030  1.2752 -1.6992
  134SOL     OW  400   2.746   2.144   0.164  0.0485  0.3627 -0.0035
  134SOL    HW1  401   2.664   2.196   0.194 -0.0624  1.7610 -1.0831
  134SOL    HW2  402   2.824   2.167   0.223  2.0850 -2.7904 -0.2185
  135SOL     OW  403   1.521   0.839   2.309  0.2905  0.2022 -0.3031
  135SOL    HW1  404   1.482   0.919   2.369 -1.3637  1.8374  1.5484
  135SOL    HW2  405   1.557   0.879   2.226  3.9447 -0.3851 -1.1611
  136SOL     OW  406   2.443   1.657   0.666 -0.3783 -0.2254 -0.2319
  136SOL    HW1  407   2.538   1.658   0.709  1.5589  2.8158  0.2712
  136SOL    HW2  408   2.400   1.572   0.702  1.9544 -0.1779  1.1724
  137SOL     OW  409   2.676   1.638   0.788 -0.2996 -0.1323 -0.0523
  137SOL    HW1  410   2.644   1.560   0.839  2.5290  3.0455 -0.0105
  137SOL    HW2  411   2.774   1.666   0.807 -1.6227  0.0128 -1.6937
  138SOL     OW  412   2.839   0.537   1.143 -0.6718  0.3940 -0.3450
  138SOL    HW1  413   2.873   0.623   1.183 -1.5846  1.6415 -1.4234
  138SOL    HW2  414   2.827   0.544   1.040 -0.6522 -0.3248 -1.1085
  139SOL     OW  415   0.043   2.546   3.013 -0.2846 -0.4843 -0.1789
  139SOL    HW1  416   0.081   2.465   3.063  1.2445 -0.3092  1.3189
  139SOL    HW2  417   0.125   2.585   2.963 -2.2820 -1.4396  1.7578
  140SOL     OW  418   0.747   1.801   1.493 -0.8606  0.3320 -0.6356
  140SOL    HW1  419   0.779   1.702   1.507 -1.5326 -3.1764 -0.5859
  140SOL    HW2  420   0.827   1.869   1.492  1.3451  0.4310  1.8359
  141SOL     OW  421   1.091   2.037   0.866  0.2440 -0.0389  0.0455
  141SOL    HW1  422   1.027   1.964   0.892  0.3239 -1.2787  0.6710
  141SOL    HW2  423   1.070   2.120   0.922  0.3627  2.0486  2.4487
  142SOL     OW  424   1.005   0.588   0.912  0.1469  0.0764 -0.0461
  142SOL    HW1  425   0.948   0.637   0.844  1.4588 -1.7012 -0.2574
  142SOL    HW2  426   1.034   0.646   0.990  1.5316 -0.1558 -1.3831
  143SOL     OW  427   0.734   0.978   2.746 -0.2896  0.0185  0.1201
  143SOL    HW1  428   0.743   1.032   2.834  0.7953  0.4081  1.5258
  143SOL    HW2  429   0.820   1.007   2.692  1.6940 -1.1345 -1.5599
  144SOL     OW  430   1.996   2.534   0.872 -0.2913 -0.2375  0.4952
  144SOL    HW1  431   1.969   2.508   0.780 -1.6055 -0.3369 -0.5636
  144SOL    HW2  432   1.973   2.458   0.933 -0.0083  1.6383  0.3714
  145SOL     OW  433   2.175   0.808   2.776 -0.6158 -0.0908  0.5894
  145SOL    HW1  434   2.269   0.788   2.743 -0.4638  2.4993 -2.3254
  145SOL    HW2  435   2.140   0.737   2.840  0.2911 -1.1275 -2.5989
  146SOL     OW  436   2.900   2.815   0.728  0.1602 -0.2555  0.3777
  146SOL    HW1  437   2.902   2.838   0.826  1.1122  0.3951  2.2057
  146SOL    HW2  438   2.960   2.739   0.701  0.5564  1.4428 -0.7744
  147SOL     OW  439   1.204   1.106   2.086 -0.0266  0.1982  0.3769
  147SOL    HW1  440   1.172   1.154   2.171 -0.0812  2.3042 -0.1204
  147SOL    HW2  441   1.305   1.118   2.082 -1.7453 -0.8862  0.0345
  148SOL     OW  442   1.322   0.607   2.111  0.2365 -0.1570 -0.3534
  148SOL    HW1  443   1.424   0.602   2.130  0.6704 -0.3832 -0.5262
  148SOL    HW2  444   1.265   0.589   2.195 -0.7739 -1.0745  2.2913
  149SOL     OW  445   1.747   2.940   2.168  0.0239 -0.7270 -0.4839
  149SOL    HW1  446   1.832   2.989   2.179 -1.7862 -1.4338  0.1472
  149SOL    HW2  447   1.672   3.008   2.166  0.7738 -3.0909  1.5433
  150SOL     OW  448   2.663   3.037   0.283  0.3915 -0.5248 -1.4881
  150SOL    HW1  449   2.722   3.001   0.212 -0.3346 -1.2563 -1.2385
  150SOL    HW2  450   2.681   0.022   0.289 -0.3134  0.0148 -1.0116
  151SOL     OW  451   0.346   1.539   2.962 -0.1440 -0.6565  0.2600
  151SOL    HW1  452   0.288   1.478   3.015  1.1376 -0.6136 -0.6673
  151SOL    HW2  453   0.428   1.484   2.932 -1.7410  0.6480 -1.4255
  152SOL     OW  454   3.104   0.177   0.713  0.2637  0.3401 -0.2791
  152SOL    HW1  455   0.006   0.078   0.695 -0.0947 -0.2029  1.5628
  152SOL    HW2  456   0.074   0.220   0.748  1.5053 -0.0936 -2.3498
  153SOL     OW  457   2.438   0.501   1.645  0.0797  0.0542 -0.7406
  153SOL    HW1  458   2.446   0.402   1.668 -0.3477 -1.8893  0.5908
  153SOL    HW2  459   2.350   0.534   1.685 -0.0964 -0.2155  0.7888
  154SOL     OW  460   1.687   0.224   2.117 -0.4555 -0.2383 -0.2421
  154SOL    HW1  461   1.746   0.306   2.115 -0.4552 -1.4588  1.8280
  154SOL    HW2  462   1.597   0.249   2.083  2.8890 -1.2689  0.0470
  155SOL     OW  463   3.101   1.770   0.280  0.1004 -0.1432 -0.1827
  155SOL    HW1  464   3.096   1.735   0.184 -2.2192 -3.1637  0.2871
  155SOL    HW2  465   0.084   1.778   0.311 -0.7184  1.2706 -0.8633
  156SOL     OW  466   2.853   1.691   2.954  0.4700 -0.1440 -0.7863
  156SOL    HW1  467   2.900   1.776   2.983  1.1252  2.4267  3.8257
  156SOL    HW2  468   2.798   1.660   3.034  0.0225 -1.4442  1.4567
  157SOL     OW  469   0.787   0.275   0.720  0.1703 -0.0788 -0.4591
  157SOL    HW1  470   0.707   0.220   0.758 -0.4316 -1.1883 -0.9316
  157SOL    HW2  471   0.781   0.283   0.617  0.6152  0.0010 -0.9795
  158SOL     OW  472   2.390   0.818   1.688  0.4219 -0.5646  0.6380
  158SOL    HW1  473   2.418   0.753   1.762  1.0249 -0.0522  1.1965
  158SOL    HW2  474   2.405   0.778   1.595 -0.9078 -2.9368 -1.1375
  159SOL     OW  475   3.097   0.483   0.351  0.0066 -0.2657  0.6099
  159SOL    HW1  476   3.054   0.422   0.417  0.1755 -0.7721 -0.9781
  159SOL    HW2  477   3.072   0.446   0.259 -1.1215 -0.9968 -0.1843
  160SOL     OW  478   2.014   2.232   1.782  0.3748  0.4868  0.1116
  160SOL    HW1  479   2.013   2.302   1.858  0.7964  0.0468 -0.3194
  160SOL    HW2  480   1.924   2.185   1.761 -2.0552  1.0712  1.3893
  161SOL     OW  481   3.113   0.589   2.522  0.8442  0.3573  0.3633
  161SOL    HW1  482   0.024   0.643   2.606  0.2549  0.3192  0.0205
  161SOL    HW2  483   0.014   0.491   2.543  0.3306 -2.7857  0.7266
  162SOL     OW  484   1.058   2.469   1.433 -0.9311  0.1103  0.3543
  162SOL    HW1  485   1.067   2.371   1.412  2.8744  1.1210  0.0403
  162SOL    HW2  486   1.139   2.493   1.494  3.0430 -2.9689 -0.3076
  163SOL     OW  487   2.600   0.142   2.407  0.1872  0.1057 -0.0740
  163SOL    HW1  488   2.653   0.062   2.367  1.4929 -0.6938 -2.2323
  163SOL    HW2  489   2.660   0.226   2.427  2.2420  0.4774  1.0120
  164SOL     OW  490   2.147   1.840   0.036 -0.0903 -0.7949  0.2266
  164SOL    HW1  491   2.201   1.867   0.118  0.4102 -0.7621  1.4224
  164SOL    HW2  492   2.198   1.763   3.098  0.6582 -0.6785 -2.0414
  165SOL     OW  493   3.097   0.374   1.144 -0.0429  0.3106  0.0311
  165SOL    HW1  494   3.072   0.378   1.044  3.2419  1.1738 -0.7475
  165SOL    HW2  495   3.016   0.401   1.199 -0.5886  1.3848  1.9817
  166SOL     OW  496   2.287   0.738   0.545 -0.8547  0.0216 -0.1134
  166SOL    HW1  497   2.388   0.731   0.519  0.0186 -0.0761 -1.4167
  166SOL    HW2  498   2.260   0.833   0.563 -1.1531 -1.4777 -0.5595
  167SOL     OW  499   2.773   1.001   2.997 -0.2382 -0.0632 -0.1385
  167SOL    HW1  500   2.695   0.938   2.989  0.5207  2.0985  1.3608
  167SOL    HW2  501   2.804   1.024   3.089  1.7533  1.1979 -2.1679
  168SOL     OW  502   1.504   0.188   2.938 -0.2814  0.2028 -0.5498
  168SOL    HW1  503   1.597   0.161   2.966  0.6077 -0.7047  0.5773
  168SOL    HW2  504   1.491   0.160   2.839 -1.3515  0.0658  0.0273
  169SOL     OW  505   0.371   1.472   0.966  0.5194  0.4554  0.3289
  169SOL    HW1  506   0.320   1.534   0.900 -0.0107  0.4990  3.5526
  169SOL    HW2  507   0.388   1.378   0.923  1.4458  1.4237  0.1558
  170SOL     OW  508   2.960   0.781   1.275  0.9238  0.2931 -0.2710
  170SOL    HW1  509   3.045   0.736   1.234 -1.7319  0.0228  0.9068
  170SOL    HW2  510   2.913   0.850   1.212 -2.5774  1.7550  1.8589
  171SOL     OW  511   2.406   2.132   2.038 -0.7804  0.9983 -0.3591
  171SOL    HW1  512   2.484   2.157   1.982 -0.0535 -0.2268  0.2692
  171SOL    HW2  513   2.335   2.084   1.984  0.3009  1.5477  1.6357
  172SOL     OW  514   0.364   2.236   1.393  0.1294  0.1442  0.2081
  172SOL    HW1  515   0.290   2.185   1.348  1.0947  2.1459  0.9134
  172SOL    HW2  516   0.391   2.316   1.337  0.2339 -1.1389  0.7931
  173SOL     OW  517   1.791   1.373   3.097 -0.2178 -0.5177  0.3837
  173SOL    HW1  518   1.763   1.293   3.044  0.3741 -1.1587  2.5920
  173SOL    HW2  519   1.845   1.437   3.035  1.0996  0.9464  1.4001
  174SOL     OW  520   1.332   0.583   2.800 -0.1126 -0.2683  0.3081
  174SOL    HW1  521   1.356   0.645   2.720  1.5291  3.6531 -0.2090
  174SOL    HW2  522   1.390   0.599   2.885  0.6969  1.0898 -2.7143
  175SOL     OW  523   1.370   1.406   1.162  0.4612  0.6472 -0.3062
  175SOL    HW1  524   1.382   1.451   1.252  0.0861 -3.0994 -3.0301
  175SOL    HW2  525   1.279   1.426   1.122  0.1154 -1.4094 -1.4299
  176SOL     OW  526   1.430   3.082   0.264  0.3746  0.5607  0.2934
  176SOL    HW1  527   1.340   0.013   0.245 -0.3043  1.1182 -0.8987
  176SOL    HW2  528   1.504   0.017   0.222  0.3686  1.6338 -0.8387
  177SOL     OW  529   0.284   1.134   0.029  0.0826  0.1449 -0.2590
  177SOL    HW1  530   0.242   1.059   0.083  1.3481 -0.7208 -4.3695
  177SOL    HW2  531   0.381   1.117   0.020 -2.2317 -0.9236  0.0663
  178SOL     OW  532   2.271   2.534   2.151  0.3578  0.3713 -0.2559
  178SOL    HW1  533   2.269   2.561   2.247  1.6445 -1.0023 -3.8157
  178SOL    HW2  534   2.357   2.567   2.100 -1.4837  1.6727 -1.3832
  179SOL     OW  535   2.907   0.086   2.597  0.1765  0.7819 -0.5127
  179SOL    HW1  536   2.822   0.082   2.656 -0.6003  0.9610 -0.0784
  179SOL    HW2  537   2.902   0.016   2.524  1.5478 -3.5378 -2.3925
  180SOL     OW  538   2.095   0.530   0.848 -0.2709 -0.1975 -0.0767
  180SOL    HW1  539   2.189   0.494   0.824 -0.6177 -1.5563 -0.6269
  180SOL    HW2  540   2.110   0.631   0.865  0.8987 -1.1587 -1.2410
  181SOL     OW  541   2.143   1.077   2.401  0.1226 -0.2911  0.4140
  181SOL    HW1  542   2.229   1.021   2.412  0.9100 -1.1957  1.3256
  181SOL    HW2  543   2.082   1.076   2.481  0.8101 -0.3257 -1.5500
  182SOL     OW  544   2.783   2.353   2.112  0.0700  0.4776 -0.6037
  182SOL    HW1  545   2.794   2.387   2.210  0.2912  0.2390  3.9189
  182SOL    HW2  546   2.865   2.359   2.058 -5.0690 -3.2505  0.7219
  183SOL     OW  547   2.138   0.892   1.766 -0.0120 -0.1958  0.1091
  183SOL    HW1  548   2.238   0.893   1.741 -0.6832  1.3040 -0.6392
  183SOL    HW2  549   2.117   0.818   1.833 -0.2089 -0.8889 -3.7340
  184SOL     OW  550   0.099   1.633   1.179 -0.1190 -0.9892  0.0889
  184SOL    HW1  551   0.056   1.539   1.170 -0.8336 -0.0720 -1.4658
  184SOL    HW2  552   0.184   1.618   1.238  2.3388 -3.3037  0.5488
  185SOL     OW  553   2.497   0.012   0.985 -0.0570  0.2394 -0.6845
  185SOL    HW1  554   2.410   0.045   0.941 -0.9261 -1.3752 -1.8121
  185SOL    HW2  555   2.580   0.028   0.926 -1.0926  1.1039  1.1998
  186SOL     OW  556   2.898   2.603   2.881 -0.3532 -0.4353 -0.0875
  186SOL    HW1  557   2.827   2.526   2.890  0.6576 -2.1224  0.4676
  186SOL    HW2  558   2.984   2.569   2.922  0.3857 -0.2947 -1.6660
  187SOL     OW  559   0.245   1.726   0.390  0.1268  0.0829  0.0357
  187SOL    HW1  560   0.186   1.716   0.470  0.1180 -2.1616 -2.6744
  187SOL    HW2  561   0.278   1.635   0.367 -2.0066 -2.0012  0.5078
  188SOL     OW  562   2.384   1.174   1.202  0.0640 -0.2553 -0.1180
  188SOL    HW1  563   2.322   1.192   1.121 -1.0063 -1.9538 -0.1464
  188SOL    HW2  564   2.328   1.149   1.284 -1.2938  0.2920  0.5618
  189SOL     OW  565   3.056   0.313   2.527 -0.5565 -0.1205 -0.1657
  189SOL    HW1  566   2.996   0.228   2.537 -2.0076 -0.7032  1.0948
  189SOL    HW2  567   0.039   0.288   2.516 -0.9190  1.5672 -0.8878
  190SOL     OW  568   1.782   0.898   1.839  0.4100  0.2466  0.3234
  190SOL    HW1  569   1.730   0.918   1.754  1.8263  1.4941 -1.6997
  190SOL    HW2  570   1.861   0.959   1.851 -0.6923 -0.7565  0.0059
  191SOL     OW  571   0.879   0.302   2.161  0.5492  0.4311  0.0336
  191SOL    HW1  572   0.926   0.212   2.140 -0.5430 -0.9340  0.1453
  191SOL    HW2  573   0.948   0.371   2.192  0.7452 -1.1031 -1.4843
  192SOL     OW  574   1.382   2.057   1.899 -0.1566 -0.1304 -0.2014
  192SOL    HW1  575   1.373   2.025   1.999  1.3953  1.3307 -0.3231
  192SOL    HW2  576   1.405   1.979   1.840  0.3496  1.7536 -4.0075
  193SOL     OW  577   1.383   0.243   0.838  0.5177 -0.4438  0.6924
  193SOL    HW1  578   1.312   0.298   0.885  0.1817  0.4683  1.5490
  193SOL    HW2  579   1.419   0.168   0.898  1.5387  0.5571 -0.0054
  194SOL     OW  580   0.874   2.068   1.522  0.1026 -0.1712  0.1476
  194SOL    HW1  581   0.956   2.117   1.488  2.1714  2.6969 -0.3790
  194SOL    HW2  582   0.863   2.068   1.623  1.8599  1.0090 -2.2659
  195SOL     OW  583   1.536   0.511   0.350  0.2320 -0.0275  0.6542
  195SOL    HW1  584   1.579   0.601   0.322  0.9688  0.5125 -0.9967
  195SOL    HW2  585   1.531   0.449   0.266 -0.4115 -1.5743 -2.2393
  196SOL     OW  586   0.799   1.533   1.927  0.3889 -0.0039 -0.7632
  196SOL    HW1  587   0.869   1.468   1.963 -2.1404 -0.7818 -0.4749
  196SOL    HW2  588   0.787   1.519   1.827 -0.3076 -1.7679 -0.4829
  197SOL     OW  589   0.953   0.401   1.531  0.3809  0.0828 -0.5503
  197SOL    HW1  590   0.864   0.382   1.484  0.0533 -3.1389 -1.6957
  197SOL    HW2  591   1.026   0.417   1.465 -2.9725 -1.8846  5.0079
  198SOL     OW  592   0.803   1.179   1.005 -0.6493 -0.1517 -0.6606
  198SOL    HW1  593   0.884   1.121   0.986  2.6550 -1.1086  0.3788
  198SOL    HW2  594   0.787   1.180   1.106 -2.0073 -0.1699  2.3931
  199SOL     OW  595   0.235   2.455   1.539  1.0048  0.2990  0.5020
  199SOL    HW1  596   0.266   2.386   1.470 -0.7861  1.7715 -2.1545
  199SOL    HW2  597   0.314   2.519   1.555  0.6560 -0.4066 -1.8024
  200SOL     OW  598   1.493   1.195   2.025  0.0511  0.3386 -0.2525
  200SOL    HW1  599   1.453   1.286   2.027  0.3124 -0.1675 -1.7294
  200SOL    HW2  600   1.543   1.191   1.938  1.2223 -0.1701  1.2845
  201SOL     OW  601   0.518   2.013   1.985  0.4920  0.0252 -0.0082
  201SOL    HW1  602   0.520   2.110   1.953 -0.6020  1.7974  0.9656
  201SOL    HW2  603   0.590   1.957   1.932  0.7562 -2.5554 -1.6248
  202SOL     OW  604   1.122   3.067   0.380 -0.1376 -0.0983  0.3140
  202SOL    HW1  605   1.133   3.095   0.283  2.7384  0.6419 -1.2520
  202SOL    HW2  606   1.152   2.967   0.389 -1.9909 -0.7035 -1.1041
  203SOL     OW  607   1.553   0.045   2.458  0.4210  0.2987 -0.0874
  203SOL    HW1  608   1.515   3.106   2.538  0.4174 -1.1924 -1.1978
  203SOL    HW2  609   1.653   0.069   2.463 -1.2982  1.5005  1.3995
  204SOL     OW  610   0.684   1.837   1.865 -0.6240  0.1930 -0.5437
  204SOL    HW1  611   0.758   1.811   1.931 -0.3417  2.1970 -1.1912
  204SOL    HW2  612   0.646   1.754   1.819  0.3136 -1.6674 -0.3084
  205SOL     OW  613   1.791   1.512   2.377 -0.3876 -0.2906 -0.2383
  205SOL    HW1  614   1.895   1.499   2.364  3.7354  0.7897  0.1418
  205SOL    HW2  615   1.774   1.611   2.405 -0.4377 -0.8001 -0.2678
  206SOL     OW  616   0.263   1.739   2.332  0.0654 -0.2968 -0.4882
  206SOL    HW1  617   0.345   1.745   2.396  0.8442 -1.8127  0.6603
  206SOL    HW2  618   0.182   1.717   2.394 -0.8656 -0.3911  3.5638
  207SOL     OW  619   1.354   3.028   1.559 -0.3021  0.6656  0.1323
  207SOL    HW1  620   1.353   3.025   1.662  3.2086  0.7984  0.6806
  207SOL    HW2  621   1.291   3.092   1.511 -1.0116 -0.0616 -1.9008
  208SOL     OW  622   0.465   2.589   1.661 -0.9443  0.5038  0.6447
  208SOL    HW1  623   0.464   2.575   1.762 -1.5133  0.1780 -1.2969
  208SOL    HW2  624   0.553   2.551   1.623  0.1023  1.7653  1.1171
  209SOL     OW  625   1.514   2.640   0.499  0.3855 -0.0008 -0.4593
  209SOL    HW1  626   1.525   2.604   0.592  2.2331  1.2339 -1.8050
  209SOL    HW2  627   1.498   2.744   0.496 -0.0598  3.2498  0.9575
  210SOL     OW  628   2.964   1.241   0.841  0.1113  0.1164  0.1820
  210SOL    HW1  629   2.902   1.244   0.761 -0.7688  0.2748 -0.1872
  210SOL    HW2  630   3.041   1.308   0.830  3.8881  2.7031  2.5269
  211SOL     OW  631   0.471   0.212   1.996  0.2570 -0.0903  0.2505
  211SOL    HW1  632   0.520   0.218   1.906 -0.9995 -0.1473 -4.8002
  211SOL    HW2  633   0.374   0.235   1.975 -1.4932 -0.2584  0.2126
  212SOL     OW  634   1.257   2.214   1.676  0.0263  0.1911 -0.4237
  212SOL    HW1  635   1.290   2.309   1.698 -1.5839  4.1243  0.7479
  212SOL    HW2  636   1.272   2.147   1.749 -0.9207  2.4411  0.7382
  213SOL     OW  637   2.968   0.472   1.549  0.7283 -0.0557  0.0711
  213SOL    HW1  638   2.965   0.373   1.515  1.0836 -1.4596 -1.6797
  213SOL    HW2  639   2.877   0.498   1.571  0.4393 -0.7870  0.0794
  214SOL     OW  640   0.875   2.703   1.700  0.1782 -0.2101  0.7006
  214SOL    HW1  641   0.823   2.630   1.653  0.8525 -3.4310  0.7554
  214SOL    HW2  642   0.811   2.767   1.748  2.9908 -0.6988 -3.4858
  215SOL     OW  643   2.518   1.710   1.444  0.4797 -0.0168 -0.2963
  215SOL    HW1  644   2.451   1.786   1.463 -0.5995 -0.8584 -1.9686
  215SOL    HW2  645   2.476   1.626   1.462  0.4278  3.0529 -1.6510
  216SOL     OW  646   0.468   0.863   2.061  0.1929  0.1730 -0.1969
  216SOL    HW1  647   0.441   0.960   2.043 -1.5008 -1.2417  0.2688
  216SOL    HW2  648   0.535   0.823   1.998  0.6768  0.0432 -2.8254
  217SOL     OW  649   2.658   0.186   1.533  0.1486 -0.5953 -0.7062
  217SOL    HW1  650   2.600   0.205   1.453 -1.3285 -1.5887 -0.7775
  217SOL    HW2  651   2.746   0.232   1.506  0.3616  1.4113  1.0123
  218SOL     OW  652   1.479   2.165   1.055  0.4316  0.3512 -0.0284
  218SOL    HW1  653   1.433   2.103   0.992 -3.8337  0.6737 -2.3679
  218SOL    HW2  654   1.580   2.155   1.049  1.1960 -2.4591  0.6972
  219SOL     OW  655   1.776   2.726   0.372  0.1018 -0.0045  0.2244
  219SOL    HW1  656   1.679   2.691   0.387 -0.8625  0.7511  0.9918
  219SOL    HW2  657   1.780   2.781   0.288  1.2182  0.7603  1.1467
  220SOL     OW  658   1.596   2.440   0.128  0.3588 -0.0700 -0.1819
  220SOL    HW1  659   1.522   2.443   0.198  2.5664 -0.6419 -0.1653
  220SOL    HW2  660   1.618   2.540   0.105  0.7889  2.1710 -2.3972
  221SOL     OW  661   2.531   2.072   0.805 -0.5331  0.3006 -0.3085
  221SOL    HW1  662   2.622   2.030   0.790 -0.0969 -3.1386  0.7012
  221SOL    HW2  663   2.467   2.008   0.755  0.3272  1.2020 -1.5867
  222SOL     OW  664   1.057   2.255   1.084 -0.0271 -0.0259  0.1651
  222SOL    HW1  665   1.028   2.315   1.007  1.4261  0.3503 -1.1965
  222SOL    HW2  666   0.976   2.221   1.134  1.5303 -1.4530 -0.6376
  223SOL     OW  667   0.837   2.834   2.923 -0.5618 -0.4264 -0.1967
  223SOL    HW1  668   0.761   2.782   2.882  1.6274  0.7787 -0.5373
  223SOL    HW2  669   0.901   2.778   2.982  1.3804  2.3187 -2.5727
  224SOL     OW  670   3.060   1.013   0.952  0.5412  0.3063 -0.4981
  224SOL    HW1  671   3.016   1.101   0.925 -0.4600  1.3332  0.3241
  224SOL    HW2  672   2.990   0.945   0.983  1.3476  1.8231  0.5798
  225SOL     OW  673   2.924   1.722   0.838 -0.1436  0.7527 -0.5386
  225SOL    HW1  674   2.949   1.821   0.846  2.5025  1.3366 -2.1613
  225SOL    HW2  675   3.005   1.671   0.809  0.3070 -0.7316  1.1839
  226SOL     OW  676   1.023   2.711   0.997 -0.2034  0.5449  0.1830
  226SOL    HW1  677   1.041   2.718   0.898 -2.9634  1.4269 -2.6870
  226SOL    HW2  678   1.107   2.677   1.047  0.5750 -1.2098  0.6815
  227SOL     OW  679   1.056   1.238   1.308  0.3627  0.2348  0.1527
  227SOL    HW1  680   0.972   1.182   1.322 -0.2225 -1.0307 -0.3231
  227SOL    HW2  681   1.039   1.335   1.314  1.6167 -1.6303 -1.0691
  228SOL     OW  682   1.430   0.200   2.053 -0.4422 -0.1733 -0.0632
  228SOL    HW1  683   1.449   0.104   2.081  1.4901 -2.4482 -0.1787
  228SOL    HW2  684   1.370   0.247   2.122  1.6909 -0.8597 -2.5963
  229SOL     OW  685   2.965   0.789   2.371 -0.2836  0.1871  0.1173
  229SOL    HW1  686   2.978   0.759   2.276 -1.4865 -0.5817  0.3794
  229SOL    HW2  687   3.002   0.719   2.432  1.0803  2.0570 -2.2173
  230SOL     OW  688   0.185   1.000   0.837  0.3149  0.2737 -0.2947
  230SOL    HW1  689   0.172   1.043   0.747  0.3094 -0.1676 -1.0622
  230SOL    HW2  690   0.093   0.982   0.875 -0.1421  3.0816  0.5935
  231SOL     OW  691   1.818   0.135   2.350 -0.2537  0.1472  0.5505
  231SOL    HW1  692   1.741   0.159   2.289 -0.4002  0.0911 -0.0500
  231SOL    HW2  693   1.876   0.062   2.305  0.6289 -0.5762 -0.7305
  232SOL     OW  694   0.409   1.679   0.105  0.0581 -0.3000 -0.0192
  232SOL    HW1  695   0.479   1.756   0.091 -1.7458  0.1806  1.8880
  232SOL    HW2  696   0.397   1.617   0.029  1.2235  3.1780  3.2843
  233SOL     OW  697   1.214   2.501   3.066  0.0960  0.4990 -0.7959
  233SOL    HW1  698   1.286   2.433   3.043  0.7290 -0.1801  2.9553
  233SOL    HW2  699   1.186   2.565   2.990  2.4242  0.0156 -0.0273
  234SOL     OW  700   1.304   1.560   1.950  0.1806  0.1023 -0.5546
  234SOL    HW1  701   1.344   1.495   2.016  0.3986  1.2406 -0.4739
  234SOL    HW2  702   1.302   1.511   1.863 -1.7994  0.4710  2.8956
  235SOL     OW  703   0.092   2.051   1.833 -0.4304  0.4310  0.6892
  235SOL    HW1  704   0.129   1.985   1.901  0.4936  1.4989 -0.0890
  235SOL    HW2  705   0.163   2.124   1.821  0.8740 -0.5161 -1.4347
  236SOL     OW  706   1.738   2.241   2.810 -0.0550 -0.5611  0.3317
  236SOL    HW1  707   1.644   2.257   2.856 -2.3181  1.7824  0.5727
  236SOL    HW2  708   1.803   2.317   2.840  2.4228  2.8569 -0.5718
  237SOL     OW  709   1.566   0.471   0.845  0.2541 -0.0042 -0.1175
  237SOL    HW1  710   1.650   0.506   0.795  1.7542 -1.6981  0.8075
  237SOL    HW2  711   1.517   0.393   0.805  0.7403  0.3217  1.6007
  238SOL     OW  712   0.959   0.195   2.497  0.0854 -0.2801 -0.1210
  238SOL    HW1  713   0.869   0.169   2.453  0.4921 -1.1987  0.3991
  238SOL    HW2  714   1.039   0.140   2.469  0.6166  1.7632  1.3200
  239SOL     OW  715   1.067   3.054   1.757  0.2799  0.2749  0.0657
  239SOL    HW1  716   1.043   2.988   1.691 -1.7080  0.0182  1.7124
  239SOL    HW2  717   0.993   0.015   1.769 -2.1745  2.5595  1.1470
  240SOL     OW  718   2.341   2.724   0.832 -0.5966  0.3971  0.6959
  240SOL    HW1  719   2.396   2.723   0.746 -4.7298  0.9813 -0.7053
  240SOL    HW2  720   2.376   2.656   0.896  0.8500 -0.5812 -3.0759
  241SOL     OW  721   1.389   1.374   1.757 -0.3124  0.0123  0.2926
  241SOL    HW1  722   1.480   1.328   1.744  1.7047  0.0551 -0.5810
  241SOL    HW2  723   1.305   1.311   1.756  1.4573  2.4878  1.3149
  242SOL     OW  724   2.662   0.600   0.282 -0.1664  0.0764  0.3614
  242SOL    HW1  725   2.720   0.542   0.220 -2.4880  1.1806 -0.6533
  242SOL    HW2  726   2.561   0.589   0.262 -2.3593 -1.2096  0.3068
  243SOL     OW  727   0.793   0.885   1.154  0.1048 -0.0919 -0.5786
  243SOL    HW1  728   0.828   0.802   1.205 -0.0079 -4.9708  1.8277
  243SOL    HW2  729   0.850   0.908   1.072 -1.9713 -1.2729  3.7076
  244SOL     OW  730   1.286   0.284   3.096  0.2587  0.1960 -0.1709
  244SOL    HW1  731   1.220   0.361   3.079 -2.0930  2.8995  0.2765
  244SOL    HW2  732   1.336   0.261   3.011 -2.0764  0.4489 -0.7384
  245SOL     OW  733   1.780   0.187   3.007 -0.5303 -0.5702  0.0484
  245SOL    HW1  734   1.808   0.252   3.078 -0.2003 -0.5696 -1.0622
  245SOL    HW2  735   1.816   0.092   3.017  0.5576 -0.5195 -1.5335
  246SOL     OW  736   0.884   0.673   1.328  0.1467 -0.0849 -0.3354
  246SOL    HW1  737   0.915   0.661   1.421 -1.4417  0.1441 -0.5851
  246SOL    HW2  738   0.964   0.685   1.269 -0.3369 -2.6767 -0.1995
  247SOL     OW  739   0.538   0.020   2.167 -0.1317 -0.3107 -0.2468
  247SOL    HW1  740   0.458   0.029   2.231 -2.2305 -0.4216 -1.3153
  247SOL    HW2  741   0.539   0.103   2.110 -3.0803  1.3622  3.0219
  248SOL     OW  742   0.167   1.628   1.673  0.1582 -0.1957 -0.3019
  248SOL    HW1  743   0.096   1.635   1.600 -0.5518  0.3620  1.5397
  248SOL    HW2  744   0.206   1.720   1.697 -1.2805  4.3560  0.6173
  249SOL     OW  745   3.003   0.144   2.985 -0.0106 -0.4572 -0.3472
  249SOL    HW1  746   3.064   0.105   2.916 -2.5701  2.8144  0.8458
  249SOL    HW2  747   3.027   0.118   3.081 -1.4558  1.1666 -0.2154
  250SOL     OW  748   3.018   0.061   0.369  0.3652  0.2748  0.1387
  250SOL    HW1  749   0.006   0.073   0.362  1.4754  3.5232  1.8506
  250SOL    HW2  750   2.993   3.076   0.383 -3.2606  0.1381  1.5956
  251SOL     OW  751   0.765   1.468   1.128  0.0764  0.0158  0.0794
  251SOL    HW1  752   0.769   1.459   1.029  1.5963  1.3604  1.6164
  251SOL    HW2  753   0.668   1.437   1.151  1.6649 -3.1018 -0.9661
  252SOL     OW  754   1.638   2.964   1.514 -0.8855 -0.8735 -0.0627
  252SOL    HW1  755   1.632   2.930   1.420 -0.7451 -0.6920  2.0526
  252SOL    HW2  756   1.556   3.023   1.539 -0.8568  1.4837  2.9550
  253SOL     OW  757   2.443   1.886   2.905 -0.3113 -0.3755  0.0745
  253SOL    HW1  758   2.484   1.953   2.971  0.6546 -0.4701  2.1373
  253SOL    HW2  759   2.519   1.833   2.858 -0.2272 -0.2582 -1.0728
  254SOL     OW  760   0.304   1.846   1.909  0.4370 -0.1063 -0.5225
  254SOL    HW1  761   0.387   1.893   1.954  4.3686  1.2730 -1.7694
  254SOL    HW2  762   0.299   1.753   1.954  2.0720  0.7544  2.2918
  255SOL     OW  763   0.896   0.064   1.516  0.3085 -0.1060 -0.2191
  255SOL    HW1  764   0.825   0.136   1.498 -0.4814 -4.6957 -0.1919
  255SOL    HW2  765   0.876   3.096   1.454 -2.2909 -1.3301  1.3282
  256SOL     OW  766   2.341   2.194   1.298 -0.1060 -0.4056 -0.3706
  256SOL    HW1  767   2.336   2.128   1.217  0.4234 -0.5665  1.9107
  256SOL    HW2  768   2.316   2.287   1.270 -0.7822  1.5973 -1.5883
  257SOL     OW  769   0.512   2.391   2.842 -0.2100 -0.6572  0.0971
  257SOL    HW1  770   0.449   2.309   2.848 -0.1476  1.9238  0.8792
  257SOL    HW2  771   0.561   2.415   2.930 -0.1874 -0.5629  1.5849
  258SOL     OW  772   0.825   1.571   2.736  0.1996  0.5692 -0.4105
  258SOL    HW1  773   0.775   1.641   2.795  2.3138 -0.3394  3.0364
  258SOL    HW2  774   0.835   1.612   2.643  1.0161  1.9167 -2.4198
  259SOL     OW  775   0.698   1.636   2.496 -0.3806  0.1169  0.3320
  259SOL    HW1  776   0.748   1.654   2.411  0.8051  2.5306 -1.2543
  259SOL    HW2  777   0.660   1.542   2.496  0.0304 -0.2973  0.9846
  260SOL     OW  778   2.311   1.334   1.736 -0.0528 -0.4712  0.2950
  260SOL    HW1  779   2.394   1.399   1.737 -0.0090  2.9885  0.0538
  260SOL    HW2  780   2.238   1.378   1.683  2.8234  1.0705 -0.5223
  261SOL     OW  781   1.443   0.739   0.876 -0.4610 -0.1122  0.4897
  261SOL    HW1  782   1.479   0.644   0.870 -2.0995 -0.7133  2.4460
  261SOL    HW2  783   1.390   0.748   0.959  1.4276  1.6025 -1.2073
  262SOL     OW  784   1.748   2.326   2.545  0.3531 -0.0543  0.6056
  262SOL    HW1  785   1.836   2.299   2.492  3.6739 -1.9039 -1.5745
  262SOL    HW2  786   1.739   2.278   2.634 -2.3013  0.8532 -1.6160
  263SOL     OW  787   0.106   1.723   0.025 -0.4908  0.2101  0.4941
  263SOL    HW1  788   0.073   1.628   3.110  0.0878 -0.7398 -1.0226
  263SOL    HW2  789   0.189   1.753   3.090  3.5961  1.8357  0.5387
  264SOL     OW  790   0.478   1.910   1.217 -0.1348 -0.2185  0.0969
  264SOL    HW1  791   0.537   1.986   1.254 -1.7728  2.4901  0.1140
  264SOL    HW2  792   0.519   1.814   1.216  2.0092 -3.7818  0.2659
  265SOL     OW  793   0.712   1.025   0.248 -0.4290 -0.6992  0.3308
  265SOL    HW1  794   0.811   1.048   0.252 -0.6976  0.6808  2.9202
  265SOL    HW2  795   0.659   1.108   0.273 -2.0234 -3.4102 -2.6448
  266SOL     OW  796   1.203   1.788   3.080  0.2339  0.5952  0.0101
  266SOL    HW1  797   1.188   1.695   0.012 -1.4918  1.0317  0.5789
  266SOL    HW2  798   1.124   1.811   3.018  1.1306  0.8541 -2.3134
  267SOL     OW  799   0.886   0.694   2.114 -0.0108 -0.3382 -0.0197
  267SOL    HW1  800   0.855   0.648   2.027 -0.8720 -1.5723 -1.3352
  267SOL    HW2  801   0.808   0.732   2.167  0.0488  2.7296 -0.9840
  268SOL     OW  802   0.369   0.733   2.716 -0.2166  0.4814 -0.1482
  268SOL    HW1  803   0.432   0.671   2.666  1.9528  0.9253  0.5417
  268SOL    HW2  804   0.358   0.709   2.815 -1.2735 -0.1926  0.7813
  269SOL     OW  805   1.821   2.852   2.653 -0.1268  0.0256  0.3997
  269SOL    HW1  806   1.816   2.843   2.552  0.2341 -1.2918  0.8223
  269SOL    HW2  807   1.800   2.760   2.697 -0.2524 -4.8337 -1.2568
  270SOL     OW  808   0.957   1.438   2.391 -0.7784 -0.4459 -0.4364
  270SOL    HW1  809   0.882   1.379   2.424 -2.3007 -1.3751 -0.3800
  270SOL    HW2  810   0.963   1.525   2.441  2.1165 -0.8128 -3.7336
  271SOL     OW  811   0.102   0.005   0.003 -0.3923 -0.0991  0.1620
  271SOL    HW1  812   0.123   0.101   0.024  0.2616 -0.1214 -1.0799
  271SOL    HW2  813   0.166   3.083   3.046  2.7579  0.0689  0.7519
  272SOL     OW  814   2.220   0.738   0.274  0.4998 -0.1313 -0.1511
  272SOL    HW1  815   2.212   0.733   0.374  2.6060  0.5054 -0.6184
  272SOL    HW2  816   2.296   0.801   0.242  0.3832  0.2522  0.4776
  273SOL     OW  817   0.221   0.026   2.021 -0.6497 -0.1037  0.0313
  273SOL    HW1  818   0.141   0.082   1.994  1.8664  2.4680  1.4745
  273SOL    HW2  819   0.276   0.065   2.099  1.3949 -0.5767  2.3135
  274SOL     OW  820   3.068   0.437   1.805  0.4134 -0.1013  0.2846
  274SOL    HW1  821   0.048   0.473   1.830  2.5898 -0.1105 -1.4648
  274SOL    HW2  822   3.043   0.453   1.708  2.3100 -0.6649 -0.7878
  275SOL     OW  823   1.366   1.688   0.565  0.0806 -0.8886  0.2575
  275SOL    HW1  824   1.269   1.654   0.579 -0.2737  0.7531 -0.7648
  275SOL    HW2  825   1.438   1.648   0.626  0.8023  0.8478 -1.4477
  276SOL     OW  826   0.681   0.839   2.237  0.4630 -0.1725  0.3405
  276SOL    HW1  827   0.711   0.919   2.298  1.8139 -0.9260 -0.5742
  276SOL    HW2  828   0.603   0.860   2.177  2.4134  2.4783  0.3136
  277SOL     OW  829   1.840   2.508   2.161 -0.2901  0.1960 -0.1233
  277SOL    HW1  830   1.749   2.468   2.129 -0.7531 -0.5973  0.1204
  277SOL    HW2  831   1.849   2.602   2.126 -0.6210 -1.3355  0.0122
  278SOL     OW  832   1.817   2.770   2.388  0.3067  0.8003  0.0187
  278SOL    HW1  833   1.901   2.726   2.358 -0.6953  1.5376  1.0559
  278SOL    HW2  834   1.771   2.816   2.308 -0.3926  0.3149  0.6737
  279SOL     OW  835   1.966   1.109   0.001 -0.2500 -0.3611  0.5163
  279SOL    HW1  836   1.913   1.191   0.012  2.8741 -1.4777 -1.8581
  279SOL    HW2  837   2.050   1.108   0.064 -1.1073  0.6093  2.1146
  280SOL     OW  838   0.791   1.138   2.963 -0.2552 -0.2554 -0.0070
  280SOL    HW1  839   0.764   1.236   2.984  2.2809  2.7960  2.8508
  280SOL    HW2  840   0.887   1.115   2.988  0.9554 -1.8696 -1.8206
  281SOL     OW  841   2.979   0.215   1.473 -0.3497  0.3368  0.3091
  281SOL    HW1  842   3.072   0.185   1.500  0.7584  0.0363  0.2711
  281SOL    HW2  843   2.956   0.165   1.388  0.4138  1.9658 -0.6924
  282SOL     OW  844   2.830   2.233   0.780  0.2905  0.4965  0.3135
  282SOL    HW1  845   2.898   2.303   0.814 -1.4994  3.0856 -2.3080
  282SOL    HW2  846   2.750   2.225   0.839 -3.3259 -1.5909 -1.9907
  283SOL     OW  847   1.354   1.956   2.133  0.2661 -0.3259  0.6532
  283SOL    HW1  848   1.412   1.878   2.113 -0.2970  1.1042  0.2347
  283SOL    HW2  849   1.269   1.921   2.169  3.5719  2.8006  1.0536
  284SOL     OW  850   1.679   0.120   0.487  0.1945  0.7224 -0.3645
  284SOL    HW1  851   1.666   0.125   0.388 -0.2038  1.9738  2.7298
  284SOL    HW2  852   1.594   0.139   0.542  0.7100 -0.5096 -1.4150
  285SOL     OW  853   2.967   2.846   2.754  0.1404  0.3179  0.2521
  285SOL    HW1  854   2.882   2.889   2.729  5.1852  0.0785 -1.5697
  285SOL    HW2  855   2.945   2.758   2.800 -2.6105  0.8204  0.7803
  286SOL     OW  856   2.540   2.663   1.356  0.2714  0.1059  0.4027
  286SOL    HW1  857   2.469   2.628   1.419  1.0873 -0.5733 -0.5202
  286SOL    HW2  858   2.591   2.577   1.322  3.0479  2.1903  5.0647
  287SOL     OW  859   0.561   1.291   0.681 -0.2803  0.5569 -0.6413
  287SOL    HW1  860   0.491   1.246   0.740 -1.1004  0.7000 -0.9241
  287SOL    HW2  861   0.535   1.387   0.658 -2.6819  2.4874 -0.5193
  288SOL     OW  862   2.232   1.745   2.733  0.5429 -0.5751  0.1976
  288SOL    HW1  863   2.136   1.751   2.773  0.7594  0.6869  0.7961
  288SOL    HW2  864   2.297   1.785   2.807  3.9032 -3.5724  1.0993
  289SOL     OW  865   0.151   1.757   2.852 -0.8010  0.1247 -0.1529
  289SOL    HW1  866   0.048   1.762   2.843  2.0880  0.0493  0.3768
  289SOL    HW2  867   0.198   1.682   2.796  1.5917 -1.9661  2.3659
  290SOL     OW  868   1.129   1.867   1.149  0.0354 -0.5594 -0.5087
  290SOL    HW1  869   1.153   1.787   1.094 -0.5888 -0.5191  0.1455
  290SOL    HW2  870   1.033   1.897   1.126  0.1093 -1.6585 -1.1267
  291SOL     OW  871   1.978   1.010   2.860  0.1758  0.4617 -0.3465
  291SOL    HW1  872   2.051   0.939   2.855  0.8609  0.8322 -0.9859
  291SOL    HW2  873   1.985   1.056   2.955 -3.1253  1.8406  0.3641
  292SOL     OW  874   1.116   1.543   0.563 -0.1107 -0.0130 -0.1782
  292SOL    HW1  875   1.059   1.555   0.645 -3.2027 -2.6195  0.0151
  292SOL    HW2  876   1.191   1.476   0.571 -0.3463  0.9624  2.2844
  293SOL     OW  877   1.679   2.664   1.116  0.2583  0.4820  0.3768
  293SOL    HW1  878   1.769   2.714   1.115  2.9506  3.0189  1.9942
  293SOL    HW2  879   1.658   2.636   1.020  0.2287  1.3738 -1.4116
  294SOL     OW  880   2.608   1.270   2.922 -0.0995  0.3238 -0.9319
  294SOL    HW1  881   2.551   1.268   2.839  2.3395  0.0218 -0.4803
  294SOL    HW2  882   2.686   1.210   2.918 -2.8274  2.7862 -1.1314
  295SOL     OW  883   1.685   2.217   2.274  0.1089  0.2398 -0.2026
  295SOL    HW1  884   1.713   2.268   2.356  0.5199 -1.6230 -0.9026
  295SOL    HW2  885   1.649   2.273   2.199  0.0643 -0.2462  1.3229
  296SOL     OW  886   1.807   0.613   1.912 -0.0571  0.0484  0.2885
  296SOL    HW1  887   1.821   0.712   1.890 -2.2425  0.4039  1.9252
  296SOL    HW2  888   1.792   0.599   2.016  1.8012 -0.9799  2.4632
  297SOL     OW  889   0.055   0.769   2.101 -0.2584 -0.4153  0.6685
  297SOL    HW1  890   3.084   0.718   2.118  3.5613  0.2867 -1.2880
  297SOL    HW2  891   0.044   0.865   2.062  4.1729  4.1804 -0.8622
  298SOL     OW  892   1.135   2.745   2.067 -0.7134 -0.7419  0.4158
  298SOL    HW1  893   1.123   2.686   1.986  0.2004  0.1672  2.1657
  298SOL    HW2  894   1.090   2.705   2.146  1.2375 -0.0833 -1.1906
  299SOL     OW  895   1.187   2.634   2.832  0.3261  0.1724  0.0955
  299SOL    HW1  896   1.231   2.726   2.847  0.1925 -1.0200  2.4866
  299SOL    HW2  897   1.222   2.596   2.744 -0.6317 -2.7972  1.4138
  300SOL     OW  898   2.891   1.105   2.770 -0.4566  0.1790  0.1625
  300SOL    HW1  899   2.864   1.058   2.856  0.9798  1.7062  2.2954
  300SOL    HW2  900   2.864   1.051   2.689  0.6047 -1.2231  4.3500
  301SOL     OW  901   2.034   1.121   1.655 -0.5473 -0.2528  0.0986
  301SOL    HW1  902   2.065   1.034   1.705 -0.5710 -1.4540  1.2729
  301SOL    HW2  903   1.984   1.178   1.724 -1.1720  3.7058 -0.3634
  302SOL     OW  904   2.671   1.973   2.550  0.9791  0.3078  0.0711
  302SOL    HW1  905   2.663   1.877   2.511 -2.2900 -1.1109 -1.2694
  302SOL    HW2  906   2.580   2.016   2.540  1.4514 -3.0428  1.7982
  303SOL     OW  907   0.294   2.743   2.302  0.1876 -0.1415 -0.0963
  303SOL    HW1  908   0.266   2.794   2.384  2.2574 -0.7535  0.5052
  303SOL    HW2  909   0.273   2.803   2.218 -0.2944  1.0266 -2.3228
  304SOL     OW  910   0.063   0.681   1.159  0.0131  0.1783 -0.0497
  304SOL    HW1  911   0.125   0.718   1.086  0.1104  1.8778 -1.9483
  304SOL    HW2  912   0.106   0.621   1.223 -1.9497  0.9654 -0.3275
  305SOL     OW  913   2.831   0.483   1.940  0.0022  0.1813  0.1358
  305SOL    HW1  914   2.908   0.440   1.890 -0.3171  0.7198  0.8269
  305SOL    HW2  915   2.770   0.413   1.980 -1.2641  1.9763  3.3516
  306SOL     OW  916   2.257   1.110   1.443 -0.6969  0.0684  0.5637
  306SOL    HW1  917   2.343   1.099   1.496  1.6942  0.9215 -0.2490
  306SOL    HW2  918   2.175   1.121   1.504 -2.2281 -1.5020  1.0692
  307SOL     OW  919   2.772   0.016   0.879 -0.7860  0.2814  0.6080
  307SOL    HW1  920   2.818   0.100   0.911 -1.5610 -0.2510  0.6769
  307SOL    HW2  921   2.819   3.050   0.919  0.7039 -1.6647 -3.6395
  308SOL     OW  922   2.808   1.784   1.303 -0.0506  0.0821  0.4852
  308SOL    HW1  923   2.804   1.731   1.212 -0.3739  3.1423 -3.7660
  308SOL    HW2  924   2.797   1.717   1.380  0.0983 -0.3343  0.6936
  309SOL     OW  925   2.269   2.243   1.644  0.2763  0.2009 -0.0171
  309SOL    HW1  926   2.226   2.269   1.558  1.7955 -0.2905  2.8285
  309SOL    HW2  927   2.201   2.258   1.719 -1.1723  0.2325  0.2485
  310SOL     OW  928   2.212   1.349   2.619 -0.0085 -0.0366 -0.0106
  310SOL    HW1  929   2.259   1.413   2.553 -1.1849  1.1598 -0.1044
  310SOL    HW2  930   2.114   1.350   2.600  1.5947 -2.9827  1.2660
  311SOL     OW  931   2.273   1.166   2.993 -0.0994 -0.0464  0.2238
  311SOL    HW1  932   2.284   1.068   2.965  0.9926  2.3581  3.5118
  311SOL    HW2  933   2.341   1.192   3.064 -2.9436 -0.8884 -1.4054
  312SOL     OW  934   1.250   2.516   2.248  0.4450  0.9724  0.6153
  312SOL    HW1  935   1.278   2.451   2.321  0.4810 -0.3002  0.5690
  312SOL    HW2  936   1.185   2.586   2.287  0.0499  0.8462  2.8871
  313SOL     OW  937   0.574   0.140   0.797 -0.4489  0.2848  0.0681
  313SOL    HW1  938   0.512   0.156   0.875  2.0373 -0.0401 -2.0184
  313SOL    HW2  939   0.574   0.041   0.776 -0.0622 -0.4670  3.3629
  314SOL     OW  940   0.670   1.709   1.230  0.1483  0.1992  0.0353
  314SOL    HW1  941   0.663   1.736   1.325  0.9428  0.4106 -4.0584
  314SOL    HW2  942   0.713   1.616   1.215  2.0888 -1.1636 -1.1845
  315SOL     OW  943   0.838   2.531   2.045 -0.1719 -0.2206  0.1065
  315SOL    HW1  944   0.914   2.554   1.979 -0.0472 -0.3024 -0.9553
  315SOL    HW2  945   0.805   2.621   2.085  0.1273  0.6747  0.4397
  316SOL     OW  946   0.056   2.145   1.004  0.3336 -0.0204 -0.0994
  316SOL    HW1  947   3.083   2.174   1.051  0.0333 -1.1791  0.1914
  316SOL    HW2  948   0.111   2.073   1.054  0.9066 -1.3037 -2.2999
  317SOL     OW  949   1.920   0.619   0.465  0.2129  0.0877 -1.1726
  317SOL    HW1  950   1.883   0.611   0.564 -4.2432 -1.7366  0.1567
  317SOL    HW2  951   1.949   0.532   0.426  1.2347 -0.9927  0.6683
  318SOL     OW  952   2.494   2.730   3.093  0.1188 -0.5132  0.3960
  318SOL    HW1  953   2.582   2.734   3.043 -1.0679  1.3479  0.7203
  318SOL    HW2  954   2.509   2.749   0.074 -0.0296 -1.0575 -1.7831
  319SOL     OW  955   1.443   1.917   2.967  0.5793  0.0052  0.1079
  319SOL    HW1  956   1.416   1.959   2.882  1.3259 -3.1915 -1.1510
  319SOL    HW2  957   1.362   1.870   3.012  1.6623 -1.8641  1.2948
  320SOL     OW  958   0.705   2.439   2.644 -0.1562 -0.4086  0.1305
  320SOL    HW1  959   0.630   2.397   2.697  0.1093  0.8953  1.7948
  320SOL    HW2  960   0.794   2.440   2.694 -0.3954  0.8576 -1.6306
  321SOL     OW  961   0.941   2.682   3.092 -0.0426  0.0351 -0.3642
  321SOL    HW1  962   0.940   2.587   0.021  1.1331 -2.7913 -1.0509
  321SOL    HW2  963   0.949   2.749   0.053 -2.2799  3.0070 -2.7029
  322SOL     OW  964   1.984   0.366   2.355 -0.6092 -0.4242  0.2647
  322SOL    HW1  965   1.922   0.429   2.305  0.0662 -0.0414 -0.4958
  322SOL    HW2  966   1.938   0.278   2.374  1.8359  0.6360  1.9953
  323SOL     OW  967   2.957   0.848   0.681  0.8656 -0.0130 -0.0587
  323SOL    HW1  968   3.018   0.780   0.729  0.6556 -0.3653  1.3247
  323SOL    HW2  969   2.974   0.864   0.582  0.4632 -1.7277  0.0316
  324SOL     OW  970   0.391   0.461   2.294 -0.4135 -0.3218  0.6543
  324SOL    HW1  971   0.343   0.541   2.255  2.9103 -2.6934 -0.2830
  324SOL    HW2  972   0.456   0.425   2.225  0.2003 -2.1009 -1.5094
  325SOL     OW  973   0.333   0.063   2.320  0.2295  0.5739  0.0425
  325SOL    HW1  974   0.304   0.147   2.359 -2.5203 -5.8069 -1.9408
  325SOL    HW2  975   0.312   3.097   2.379  0.2590 -0.0491 -1.5990
  326SOL     OW  976   2.501   2.240   0.232 -0.0116  0.7995  0.2766
  326SOL    HW1  977   2.422   2.297   0.204  1.0109  0.0828  1.2782
  326SOL    HW2  978   2.498   2.228   0.333  2.4463 -0.4913  0.4635
  327SOL     OW  979   2.514   1.239   0.690 -0.2974  0.1456  0.1525
  327SOL    HW1  980   2.499   1.152   0.748 -1.0518 -3.8913  3.1919
  327SOL    HW2  981   2.447   1.242   0.611  0.2859 -0.6032 -2.0537
  328SOL     OW  982   0.078   1.875   2.167 -0.2449  0.0986  0.8500
  328SOL    HW1  983   0.148   1.813   2.206 -2.5222 -0.1497 -1.5605
  328SOL    HW2  984   3.102   1.825   2.157 -1.5697  1.5038  0.4687
  329SOL     OW  985   2.821   2.403   1.562 -0.0844  0.5887  0.6157
  329SOL    HW1  986   2.836   2.459   1.648 -0.9971  0.0275 -1.2633
  329SOL    HW2  987   2.867   2.312   1.572 -1.1583  0.9574  0.4276
  330SOL     OW  988   2.540   1.372   2.242  0.1699  0.1300 -0.3556
  330SOL    HW1  989   2.446   1.338   2.217  0.1247 -1.2218 -3.7096
  330SOL    HW2  990   2.598   1.382   2.159 -0.8169 -0.3847 -1.4050
  331SOL     OW  991   2.656   2.205   1.031 -0.0997  0.0518  0.1463
  331SOL    HW1  992   2.683   2.141   1.104 -0.2286  0.0631 -3.7192
  331SOL    HW2  993   2.580   2.165   0.972  0.1559  0.5109 -1.3818
  332SOL     OW  994   0.530   2.659   0.926  0.2703  0.1977  0.3097
  332SOL    HW1  995   0.527   2.703   0.834 -0.2548  1.4463 -0.3597
  332SOL    HW2  996   0.526   2.734   0.997 -2.2270 -0.0580  0.5390
  333SOL     OW  997   2.001   3.078   2.261  0.4585 -0.4407  0.6107
  333SOL    HW1  998   2.041   3.099   2.170 -0.4675 -3.2087  1.0152
  333SOL    HW2  999   2.071   3.043   2.323 -0.4158 -0.3158  1.2590
  334SOL     OW 1000   0.977   1.012   0.335  0.0864 -0.3613 -0.2292
  334SOL    HW1 1001   1.049   1.084   0.343 -3.3102  0.3498  0.0562
  334SOL    HW2 1002   0.989   0.937   0.401 -0.4521  2.2313  0.2106
  335SOL     OW 1003   0.235   2.332   2.082 -0.1578  0.2061  0.7603
  335SOL    HW1 1004   0.263   2.237   2.109  0.7955  3.8198 -1.9189
  335SOL    HW2 1005   0.177   2.379   2.148 -0.9849 -3.7142  0.7760
  336SOL     OW 1006   2.727   2.939   2.714 -0.1540 -0.2865  0.0294
  336SOL    HW1 1007   2.678   3.022   2.744  0.8241 -0.7112  0.1643
  336SOL    HW2 1008   2.682   2.894   2.638 -0.5976  1.7488 -0.8351
  337SOL     OW 1009   1.174   1.076   0.960  0.6269 -0.4752  0.5706
  337SOL    HW1 1010   1.244   1.112   1.018 -1.1696 -0.3161 -2.4886
  337SOL    HW2 1011   1.206   1.081   0.861 -1.2771  0.6788  0.2308
  338SOL     OW 1012   0.862   1.912   1.127 -0.2823 -0.7211  0.0111
  338SOL    HW1 1013   0.848   2.015   1.143 -1.7748  0.5472  2.2457
  338SOL    HW2 1014   0.808   1.852   1.192  1.4523 -2.2601 -0.0101
  339SOL     OW 1015   0.037   1.191   1.600  0.1798  0.4204 -0.1826
  339SOL    HW1 1016   0.018   1.201   1.502 -0.5583  1.6486 -0.2894
  339SOL    HW2 1017   3.105   1.271   1.648 -1.5610 -0.0066  1.2917
  340SOL     OW 1018   1.496   3.073   2.205 -0.0208  0.0778  0.4674
  340SOL    HW1 1019   1.492   3.100   2.306  1.8170 -0.5385 -1.7960
  340SOL    HW2 1020   1.466   2.974   2.191 -0.8989 -1.1226 -1.3545
  341SOL     OW 1021   1.604   1.476   1.013 -0.1695  0.1686 -0.1008
  341SOL    HW1 1022   1.534   1.457   1.088 -0.6688  1.5190 -0.2933
  341SOL    HW2 1023   1.692   1.518   1.052  1.4502  1.3626 -0.1144
  342SOL     OW 1024   0.015   1.470   0.794  0.0883 -0.0339 -0.0090
  342SOL    HW1 1025   0.098   1.498   0.742 -1.5106  3.5934  0.4876
  342SOL    HW2 1026   0.030   1.471   0.895  1.0536  0.6486  1.9104
  343SOL     OW 1027   3.029   0.953   1.501  0.0540 -0.0677  0.5168
  343SOL    HW1 1028   3.113   1.008   1.523  1.5085  1.8628  1.6229
  343SOL    HW2 1029   3.034   0.893   1.418 -1.8105 -1.2004  0.1675
  344SOL     OW 1030   1.754   0.247   1.040 -0.0391  0.1273 -0.5619
  344SOL    HW1 1031   1.838   0.304   1.025  0.3860  0.4790 -0.2827
  344SOL    HW2 1032   1.673   0.303   1.065 -1.5638  0.0381 -2.4682
  345SOL     OW 1033   0.566   2.818   2.551 -0.0260  0.3512  0.0603
  345SOL    HW1 1034   0.536   2.761   2.472  0.2846 -1.1360  2.9461
  345SOL    HW2 1035   0.655   2.866   2.531  1.1490 -0.1731  1.6665
  346SOL     OW 1036   2.562   1.658   0.346 -0.4070  0.0725 -0.3055
  346SOL    HW1 1037   2.562   1.759   0.323  1.1374 -0.5706 -0.3095
  346SOL    HW2 1038   2.642   1.636   0.414  3.1304 -2.0219  1.5556
  347SOL     OW 1039   2.342   0.131   1.906 -0.3169  0.7947 -0.1335
  347SOL    HW1 1040   2.436   0.162   1.918 -1.0356 -0.1963 -0.4152
  347SOL    HW2 1041   2.321   0.110   1.807 -1.7657 -2.1187 -0.5530
  348SOL     OW 1042   1.305   1.182   1.441  0.0416  0.1754 -0.2904
  348SOL    HW1 1043   1.225   1.216   1.383 -1.6953  1.1595 -1.0838
  348SOL    HW2 1044   1.390   1.236   1.431  0.7263 -1.2373  1.6274
  349SOL     OW 1045   2.706   0.728   1.876  0.2416 -0.1963 -0.0045
  349SOL    HW1 1046   2.753   0.637   1.869  2.3078  1.2335 -0.8405
  349SOL    HW2 1047   2.767   0.797   1.833  0.1905 -0.4582 -0.1921
  350SOL     OW 1048   2.182   2.175   3.085 -0.5562 -0.2736  0.3281
  350SOL    HW1 1049   2.285   2.168   3.089 -0.0407 -0.3577 -2.3738
  350SOL    HW2 1050   2.143   2.078   3.090 -1.0099  0.9786  1.1167
  351SOL     OW 1051   0.868   0.107   1.860 -0.3960  0.3369  1.0446
  351SOL    HW1 1052   0.932   0.174   1.818  0.9124  0.2088 -0.1952
  351SOL    HW2 1053   0.769   0.130   1.842 -2.1196  0.1811  1.0209
  352SOL     OW 1054   2.008   2.553   1.771  0.1841 -0.1782  0.4316
  352SOL    HW1 1055   2.040   2.517   1.862 -1.8384 -0.3491  1.2726
  352SOL    HW2 1056   1.904   2.541   1.757  1.1619 -1.3732 -3.7318
  353SOL     OW 1057   0.764   1.044   2.381  0.2908  0.2354  0.1259
  353SOL    HW1 1058   0.866   1.030   2.385  1.3494  0.1940 -1.5103
  353SOL    HW2 1059   0.728   1.127   2.432 -0.4232  2.3722  1.0557
  354SOL     OW 1060   0.981   1.904   2.914 -0.5948  0.1454  0.5683
  354SOL    HW1 1061   1.038   1.924   2.830  1.5409 -1.1635  1.2217
  354SOL    HW2 1062   0.887   1.868   2.896  1.6836  0.0325 -2.5975
  355SOL     OW 1063   1.904   2.801   1.116 -0.3452  0.9933 -0.5818
  355SOL    HW1 1064   1.989   2.810   1.066 -1.5556  2.5512  0.1923
  355SOL    HW2 1065   1.872   2.897   1.141 -0.3333 -1.8159  0.2608
  356SOL     OW 1066   2.465   1.186   0.060 -0.7066 -0.0504  0.1669
  356SOL    HW1 1067   2.523   1.198   3.091 -0.6561 -0.1809 -0.8254
  356SOL    HW2 1068   2.455   1.272   0.112  1.6130  0.7591 -0.7412
  357SOL     OW 1069   2.989   0.169   2.171 -0.8221 -0.1555  0.3334
  357SOL    HW1 1070   2.979   0.071   2.197 -0.7903 -0.4700  1.2772
  357SOL    HW2 1071   3.029   0.178   2.076 -0.7948 -0.3359  0.3127
  358SOL     OW 1072   0.268   1.574   0.734  0.1982  0.0836  0.4728
  358SOL    HW1 1073   0.334   1.553   0.658  2.1891 -0.2590  0.1892
  358SOL    HW2 1074   0.254   1.679   0.738 -0.5176  3.0289 -1.7983
  359SOL     OW 1075   2.456   0.132   2.910  0.7279 -1.2333  0.0759
  359SOL    HW1 1076   2.425   0.220   2.860 -1.0908 -1.9567  0.0936
  359SOL    HW2 1077   2.554   0.134   2.930  0.4139 -1.2514 -1.8156
  360SOL     OW 1078   1.432   0.797   1.371 -0.1909  0.7521  0.0054
  360SOL    HW1 1079   1.530   0.770   1.382  0.8778  0.6124  0.2574
  360SOL    HW2 1080   1.413   0.884   1.417  1.2814  0.1734 -2.2427
  361SOL     OW 1081   2.673   2.495   1.034 -0.0845 -0.0705 -0.1789
  361SOL    HW1 1082   2.682   2.396   1.053  1.5019  2.6082 -1.5957
  361SOL    HW2 1083   2.741   2.541   1.097  2.3204 -0.2710  1.6434
  362SOL     OW 1084   1.159   0.363   0.917 -0.1867  0.7286 -0.1120
  362SOL    HW1 1085   1.099   0.296   0.866 -0.9049  0.2314  1.9437
  362SOL    HW2 1086   1.113   0.448   0.917  0.2588 -3.4088  1.8706
  363SOL     OW 1087   1.804   1.788   0.446  0.4514  0.0757  0.2543
  363SOL    HW1 1088   1.867   1.782   0.366 -1.7561 -1.0498 -0.0555
  363SOL    HW2 1089   1.723   1.841   0.410 -0.7705 -1.3431 -1.4105
  364SOL     OW 1090   0.610   0.635   1.362  0.2779 -0.1952 -0.0200
  364SOL    HW1 1091   0.560   0.697   1.299  0.9075  0.7838 -0.4239
  364SOL    HW2 1092   0.712   0.637   1.345  0.3436  0.8757 -0.2557
  365SOL     OW 1093   0.117   2.972   0.973  0.3185  0.0632  0.3962
  365SOL    HW1 1094   0.052   3.049   0.982  2.5935 -0.1999  0.0508
  365SOL    HW2 1095   0.157   2.939   1.061 -0.4637  1.9535 -0.4894
  366SOL     OW 1096   2.877   1.487   0.163  0.4381  0.0336 -0.5956
  366SOL    HW1 1097   2.938   1.462   0.081  2.2295 -2.4356 -4.6388
  366SOL    HW2 1098   2.788   1.519   0.130 -1.1232 -0.5832  1.5978
  367SOL     OW 1099   2.355   2.550   2.436 -0.2808  0.0759  0.0118
  367SOL    HW1 1100   2.309   2.564   2.530 -0.5847  1.4435  2.3087
  367SOL    HW2 1101   2.435   2.488   2.436  1.7819 -1.9382 -0.4746
  368SOL     OW 1102   2.265   1.691   0.458  0.3243  0.1405  0.6091
  368SOL    HW1 1103   2.323   1.660   0.533  0.6456  1.3672  3.0516
  368SOL    HW2 1104   2.188   1.622   0.459 -1.8504  0.8321  1.7805
  369SOL     OW 1105   1.798   0.752   2.927 -0.5409  0.3213  0.3062
  369SOL    HW1 1106   1.882   0.741   2.867  0.9791 -2.1101 -0.4361
  369SOL    HW2 1107   1.728   0.796   2.870  0.1052  0.9840  1.6601
  370SOL     OW 1108   0.448   0.188   1.031 -0.3136  0.0471 -0.5310
  370SOL    HW1 1109   0.456   0.272   1.090 -0.3362  1.6628  1.1033
  370SOL    HW2 1110   0.510   0.117   1.066 -2.8381  0.8770 -1.4055
  371SOL     OW 1111   2.841   1.523   2.641 -0.1161 -0.3465  0.2920
  371SOL    HW1 1112   2.889   1.611   2.653 -0.2528 -3.0536 -3.7841
  371SOL    HW2 1113   2.855   1.462   2.719 -0.3505  2.1399  1.1640
  372SOL     OW 1114   0.678   0.587   2.355  0.1401 -0.0292 -0.3642
  372SOL    HW1 1115   0.638   0.505   2.308 -1.5038  1.7186  1.1516
  372SOL    HW2 1116   0.666   0.675   2.306  0.6391 -1.1409 -1.2680
  373SOL     OW 1117   0.504   0.048   2.903 -0.0180  0.0984  0.4311
  373SOL    HW1 1118   0.527   0.044   2.805 -1.1984 -2.8898  0.0470
  373SOL    HW2 1119   0.578   0.004   2.959 -1.9223 -0.3669  0.9479
  374SOL     OW 1120   1.035   1.440   2.848 -0.1252 -0.0999 -0.8300
  374SOL    HW1 1121   1.123   1.464   2.796 -0.5368  0.0094  1.0862
  374SOL    HW2 1122   0.959   1.500   2.813  2.0969  1.3706 -0.7921
  375SOL     OW 1123   0.818   0.471   1.907 -0.7552  0.5287 -0.6939
  375SOL    HW1 1124   0.899   0.432   1.859 -0.3639  0.7089  0.1167
  375SOL    HW2 1125   0.813   0.429   1.997 -0.2552  0.8067  0.6375
  376SOL     OW 1126   0.253   2.740   1.879  0.8219 -0.6345  0.3215
  376SOL    HW1 1127   0.310   2.815   1.839 -0.3080 -0.3206 -3.4874
  376SOL    HW2 1128   0.306   2.664   1.919 -1.1710  0.2494  0.9612
  377SOL     OW 1129   2.712   2.426   2.977 -0.4810  0.1230 -0.1224
  377SOL    HW1 1130   2.611   2.434   2.961  1.8844 -1.3607  0.0867
  377SOL    HW2 1131   2.742   2.330   2.983  1.6855 -0.0245  2.0677
  378SOL     OW 1132   2.018   0.140   0.154  0.1256 -0.8410 -0.1724
  378SOL    HW1 1133   2.028   0.069   0.225  0.1605 -2.0721  1.3419
  378SOL    HW2 1134   2.034   0.102   0.063  1.5312 -0.3001  0.4944
  379SOL     OW 1135   1.714   0.717   0.262  0.4075  0.2548 -0.2346
  379SOL    HW1 1136   1.792   0.679   0.318 -1.0271  1.5022  1.1554
  379SOL    HW2 1137   1.746   0.766   0.183 -2.6927 -3.5710  1.8221
  380SOL     OW 1138   2.616   2.050   1.850  0.7338  0.5410  0.0757
  380SOL    HW1 1139   2.656   2.123   1.787  2.6049  2.0131 -2.2622
  380SOL    HW2 1140   2.535   2.002   1.802 -0.9507 -1.1961  1.9998
  381SOL     OW 1141   2.700   1.407   2.015  0.6887  0.1919  0.2401
  381SOL    HW1 1142   2.793   1.411   2.056  0.1701  0.4003  0.0736
  381SOL    HW2 1143   2.690   1.334   1.941  1.1314 -0.7317 -1.1749
  382SOL     OW 1144   2.907   2.334   2.726  0.5226  0.2892 -0.5645
  382SOL    HW1 1145   2.857   2.242   2.747  0.7203 -1.3484 -2.1055
  382SOL    HW2 1146   3.010   2.325   2.732 -0.8512 -0.7560  0.0039
  383SOL     OW 1147   1.157   1.041   2.774  0.3214 -0.1805 -0.2490
  383SOL    HW1 1148   1.136   0.941   2.773  1.7287 -3.7670  1.4900
  383SOL    HW2 1149   1.141   1.081   2.865  0.0022  1.0137  1.5033
  384SOL     OW 1150   1.839   1.995   2.236 -0.4010  0.1360 -0.7703
  384SOL    HW1 1151   1.783   2.076   2.227  0.6517 -0.7020 -0.1661
  384SOL    HW2 1152   1.938   2.028   2.260  3.0019 -0.0962 -3.1449
  385SOL     OW 1153   2.168   2.591   0.346  0.1215  0.3613  0.2280
  385SOL    HW1 1154   2.069   2.571   0.335  2.7829  2.0496  2.2027
  385SOL    HW2 1155   2.184   2.659   0.424 -0.3010  2.8522  1.9394
  386SOL     OW 1156   1.744   1.262   0.578 -0.1483 -0.5252  0.6112
  386SOL    HW1 1157   1.817   1.229   0.509 -0.7138 -1.3637 -2.1042
  386SOL    HW2 1158   1.668   1.305   0.524  0.1836  1.3196 -0.0765
  387SOL     OW 1159   2.510   1.756   1.183 -0.8572  0.2218  0.2372
  387SOL    HW1 1160   2.523   1.742   1.286  0.8802  0.3873  1.2197
  387SOL    HW2 1161   2.590   1.724   1.130  1.1867  0.5054  0.3443
  388SOL     OW 1162   0.432   1.263   1.674 -0.1862  0.1221  0.1919
  388SOL    HW1 1163   0.517   1.245   1.728  1.3438  1.1293  0.0955
  388SOL    HW2 1164   0.382   1.336   1.724 -1.2813 -1.4913 -1.1159
  389SOL     OW 1165   2.364   0.984   2.799  0.1274  0.6025  0.1355
  389SOL    HW1 1166   2.271   0.959   2.754 -3.0057  0.6201  1.0345
  389SOL    HW2 1167   2.392   1.082   2.770  2.0186  3.5435  2.2519
  390SOL     OW 1168   0.581   1.425   2.887  1.0032 -0.0899  0.2331
  390SOL    HW1 1169   0.620   1.438   2.795  0.6637 -0.2119 -0.3231
  390SOL    HW2 1170   0.653   1.446   2.959 -1.4395  0.5725 -2.4655
  391SOL     OW 1171   0.798   2.024   0.235  0.1720  0.3613  0.6077
  391SOL    HW1 1172   0.861   2.032   0.154  0.8018  0.6284  1.3099
  391SOL    HW2 1173   0.705   2.058   0.216 -1.6501  1.7948 -1.0540
  392SOL     OW 1174   2.795   2.578   2.334 -0.2472 -0.1528  0.2807
  392SOL    HW1 1175   2.801   2.492   2.390  0.2694 -1.0543  1.4680
  392SOL    HW2 1176   2.868   2.586   2.259  1.1656  0.7660 -4.3956
  393SOL     OW 1177   1.312   2.166   0.262  0.2557  0.5776 -0.1609
  393SOL    HW1 1178   1.362   2.145   0.345 -3.0689 -1.2285 -0.6530
  393SOL    HW2 1179   1.253   2.084   0.234  0.6711  2.8046 -1.5345
  394SOL     OW 1180   0.529   0.215   2.609  0.1882  0.0702 -1.0675
  394SOL    HW1 1181   0.555   0.290   2.671 -1.0772  1.2349  0.6931
  394SOL    HW2 1182   0.434   0.228   2.573  0.6317 -0.8582 -0.2683
  395SOL     OW 1183   0.504   1.428   1.208  0.0599  0.0647  0.6677
  395SOL    HW1 1184   0.449   1.453   1.124 -3.7594  0.6237  0.2907
  395SOL    HW2 1185   0.453   1.464   1.284  0.5518 -1.1226 -2.8763
  396SOL     OW 1186   2.177   1.388   2.892  0.3986 -0.3796  0.1437
  396SOL    HW1 1187   2.190   1.300   2.940 -2.3272  1.1503 -0.7634
  396SOL    HW2 1188   2.201   1.383   2.791 -0.4754 -0.8623 -0.2351
  397SOL     OW 1189   0.344   0.620   2.979 -0.3639  0.2040  0.3685
  397SOL    HW1 1190   0.246   0.597   2.993 -0.4197  1.2308  2.5102
  397SOL    HW2 1191   0.386   0.608   3.074 -2.7701  0.6565  0.9452
  398SOL     OW 1192   1.041   2.594   0.534  0.3979 -0.0459 -0.7114
  398SOL    HW1 1193   1.065   2.496   0.526  2.1377  1.9760 -1.2432
  398SOL    HW2 1194   0.953   2.607   0.592 -2.7547  1.2035  1.7566
  399SOL     OW 1195   1.968   2.353   2.370 -0.1402  0.3839  0.2992
  399SOL    HW1 1196   1.932   2.425   2.314  0.1105 -2.9996  1.6913
  399SOL    HW2 1197   2.022   2.283   2.316 -1.9748 -1.2412 -1.0814
  400SOL     OW 1198   2.422   1.422   1.411 -0.3842 -0.0104  0.6653
  400SOL    HW1 1199   2.326   1.395   1.427  1.5619  1.3023  0.4945
  400SOL    HW2 1200   2.488   1.380   1.479  1.9953 -0.9118  0.4840
  401SOL     OW 1201   1.563   0.992   0.909 -0.0621  0.4325 -0.2314
  401SOL    HW1 1202   1.512   0.903   0.915 -2.5096  0.3466  1.6778
  401SOL    HW2 1203   1.513   1.062   0.967 -2.3122 -0.9167 -1.4192
  402SOL     OW 1204   0.307   2.980   2.525  0.0238 -0.0402 -1.2366
  402SOL    HW1 1205   0.403   2.955   2.546 -2.0861 -1.1797  3.7779
  402SOL    HW2 1206   0.272   3.046   2.594 -3.5204  1.5203 -0.4024
  403SOL     OW 1207   2.769   1.636   1.551 -0.8596 -0.1871 -0.1854
  403SOL    HW1 1208   2.764   1.530   1.551  1.2180 -0.7262 -1.3741
  403SOL    HW2 1209   2.679   1.676   1.529  1.1767 -1.3469 -1.9398
  404SOL     OW 1210   2.398   1.944   1.731 -0.3846  0.1528 -0.0589
  404SOL    HW1 1211   2.314   1.979   1.774 -0.8975  3.2983 -0.9119
  404SOL    HW2 1212   2.393   1.933   1.625 -3.0263 -2.6983 -2.6991
  405SOL     OW 1213   2.182   0.271   2.533  0.9167 -0.1353  0.0292
  405SOL    HW1 1214   2.133   0.309   2.454  0.3343  0.7933  3.2456
  405SOL    HW2 1215   2.148   0.313   2.625 -0.3033 -0.4513 -0.7506
  406SOL     OW 1216   0.759   1.281   2.516 -0.4970 -0.3435 -0.1809
  406SOL    HW1 1217   0.829   1.253   2.581 -2.8342  0.2575 -2.3433
  406SOL    HW2 1218   0.698   1.356   2.548  1.5884 -0.1478 -0.9987
  407SOL     OW 1219   1.764   2.144   0.723 -0.1045  0.2101 -0.3411
  407SOL    HW1 1220   1.703   2.181   0.657  0.1313 -0.5520 -1.0346
  407SOL    HW2 1221   1.846   2.102   0.681 -0.0875  1.4764  0.1749
  408SOL     OW 1222   0.198   3.048   0.664 -0.9289 -0.4213 -0.6183
  408SOL    HW1 1223   0.191   3.025   0.765 -0.2578 -0.8354  1.7113
  408SOL    HW2 1224   0.170   2.970   0.604 -0.0894 -0.5574 -0.2802
  409SOL     OW 1225   1.864   1.431   0.741 -0.1950 -0.0098 -0.8268
  409SOL    HW1 1226   1.863   1.384   0.836  0.4711 -1.0370 -1.6712
  409SOL    HW2 1227   1.817   1.375   0.667 -3.2820 -0.8970  2.7074
  410SOL     OW 1228   2.041   2.386   3.113  0.2624  0.1798  0.3035
  410SOL    HW1 1229   2.113   2.315   3.091 -1.1136  2.0919 -1.9921
  410SOL    HW2 1230   1.984   2.360   0.079 -2.1499 -0.5810  4.3289
  411SOL     OW 1231   0.081   2.878   0.488  0.0712 -0.6704  0.6773
  411SOL    HW1 1232   0.102   2.914   0.396  1.1496 -0.1404 -1.0658
  411SOL    HW2 1233   3.096   2.855   0.493 -0.1565  1.1695 -2.6495
  412SOL     OW 1234   1.649   2.642   0.838 -0.2558 -0.6198  0.0813
  412SOL    HW1 1235   1.548   2.621   0.822 -0.9240  4.0514 -1.9249
  412SOL    HW2 1236   1.665   2.738   0.806 -0.3130  0.6840 -0.4118
  413SOL     OW 1237   1.786   0.156   2.646 -0.4569  0.1947  0.2131
  413SOL    HW1 1238   1.849   0.128   2.575  0.9730  0.3192 -1.2594
  413SOL    HW2 1239   1.751   0.077   2.700 -0.7244  0.0219 -1.9779
  414SOL     OW 1240   0.343   0.739   0.426 -0.1326 -0.6014  0.8467
  414SOL    HW1 1241   0.296   0.829   0.416 -0.7707  1.1196 -2.7050
  414SOL    HW2 1242   0.447   0.751   0.412  2.4092  0.2673 -0.5414
  415SOL     OW 1243   0.102   1.133   1.148 -0.4885  0.3569 -0.4202
  415SOL    HW1 1244   0.200   1.098   1.173  2.1003  0.7618  1.5996
  415SOL    HW2 1245   0.057   1.071   1.081  0.6993 -0.4716  1.1288
  416SOL     OW 1246   0.168   0.267   0.062  0.0927 -0.5502  0.3024
  416SOL    HW1 1247   0.215   0.286   0.150 -0.2188  2.3519 -0.7917
  416SOL    HW2 1248   0.235   0.285   3.103 -1.1547  1.9169  1.1478
  417SOL     OW 1249   2.297   0.186   0.858 -0.5526 -0.3918  0.3313
  417SOL    HW1 1250   2.344   0.150   0.775  0.5620 -1.7556 -0.4638
  417SOL    HW2 1251   2.307   0.289   0.863  0.1132 -0.6569 -3.4381
  418SOL     OW 1252   0.509   0.546   2.594  0.1753 -0.2247 -0.7592
  418SOL    HW1 1253   0.586   0.607   2.625 -0.0178  1.2419 -0.1228
  418SOL    HW2 1254   0.528   0.525   2.497  1.3613  1.1823 -1.3976
  419SOL     OW 1255   0.562   0.877   0.588  0.2333 -0.0719  0.1465
  419SOL    HW1 1256   0.611   0.837   0.509 -2.2882 -1.8582 -0.6460
  419SOL    HW2 1257   0.516   0.801   0.641  0.1983 -2.6723 -1.9499
  420SOL     OW 1258   2.079   1.572   1.269 -0.6276  0.4355  0.2031
  420SOL    HW1 1259   2.069   1.667   1.302 -1.2178 -1.8469 -2.9324
  420SOL    HW2 1260   2.168   1.568   1.215  0.3623  2.4513 -2.2776
  421SOL     OW 1261   1.092   1.930   2.666  0.3740  0.1784 -0.0415
  421SOL    HW1 1262   1.079   1.835   2.643 -0.0288  0.5721  0.2195
  421SOL    HW2 1263   1.086   1.980   2.582  1.0247 -1.1250  3.3486
  422SOL     OW 1264   2.574   0.528   3.105  0.4070  0.0059 -0.1471
  422SOL    HW1 1265   2.505   0.519   0.071 -0.9216 -0.1595  3.3095
  422SOL    HW2 1266   2.673   0.551   0.021  0.9248 -1.1188 -2.2093
  423SOL     OW 1267   1.936   1.510   0.255 -0.4846 -0.4455  0.5879
  423SOL    HW1 1268   1.934   1.610   0.234  2.4172  1.2491 -1.2777
  423SOL    HW2 1269   1.841   1.475   0.231 -1.4933 -0.4130 -0.1334
  424SOL     OW 1270   0.648   1.407   1.586  0.0849 -0.2377  0.0940
  424SOL    HW1 1271   0.622   1.472   1.661  0.0014 -0.1432  0.7876
  424SOL    HW2 1272   0.565   1.369   1.548  1.2826  1.7258  0.7157
  425SOL     OW 1273   2.684   2.824   2.422  0.7787  0.2399 -0.3798
  425SOL    HW1 1274   2.584   2.832   2.406 -2.5727 -1.3753  0.1255
  425SOL    HW2 1275   2.705   2.726   2.406 -0.5963  0.4117  0.4557
  426SOL     OW 1276   1.895   2.484   0.412 -0.0766 -0.0185  0.6270
  426SOL    HW1 1277   1.881   2.581   0.413  0.9264 -2.5555 -0.7514
  426SOL    HW2 1278   1.862   2.444   0.501  0.8171  1.4109  0.3751
  427SOL     OW 1279   0.494   0.450   2.842 -1.0912  0.3681  0.2247
  427SOL    HW1 1280   0.497   0.478   2.741 -1.6207  3.2794 -4.3674
  427SOL    HW2 1281   0.433   0.507   2.894  1.4993 -0.5535 -2.7595
  428SOL     OW 1282   2.445   1.225   2.680  0.5816 -0.2495  0.9401
  428SOL    HW1 1283   2.527   1.270   2.638 -0.0917 -0.0203  1.5564
  428SOL    HW2 1284   2.360   1.266   2.637 -1.2021  1.5134 -3.7971
  429SOL     OW 1285   2.967   0.285   0.502  0.2207  0.1977  0.1738
  429SOL    HW1 1286   2.981   0.198   0.445 -1.5961  0.1240 -0.7034
  429SOL    HW2 1287   3.014   0.263   0.591 -1.6676  0.2298 -0.7545
  430SOL     OW 1288   1.169   3.029   1.997 -0.5081 -0.0048 -0.1237
  430SOL    HW1 1289   1.160   2.938   2.044  0.0425 -1.5196  0.3958
  430SOL    HW2 1290   1.127   3.023   1.903 -1.6288 -0.7283  0.0275
  431SOL     OW 1291   0.005   1.857   1.269  0.3080 -0.0711 -0.0628
  431SOL    HW1 1292   0.027   1.762   1.231 -0.0976 -1.1615  2.1441
  431SOL    HW2 1293   3.025   1.879   1.245  0.2300  1.2143  0.6207
  432SOL     OW 1294   2.495   2.570   2.021 -0.0829 -0.6323 -0.6328
  432SOL    HW1 1295   2.541   2.496   1.965  0.5818 -0.8808 -0.6437
  432SOL    HW2 1296   2.483   2.650   1.966 -1.5674 -2.7518  0.2197
  433SOL     OW 1297   1.151   1.954   0.211  0.3875  0.3529 -0.1728
  433SOL    HW1 1298   1.177   1.880   0.141 -0.7566 -3.0320 -2.8750
  433SOL    HW2 1299   1.084   1.898   0.270 -1.0469 -0.1686  1.0079
  434SOL     OW 1300   0.077   2.321   2.766  0.8006 -0.0849  0.2917
  434SOL    HW1 1301   0.094   2.285   2.671  0.2112 -0.1993  0.3464
  434SOL    HW2 1302   0.153   2.382   2.797 -0.7726  0.6088  0.9226
  435SOL     OW 1303   0.053   1.100   0.598 -0.4336 -0.0868 -0.4170
  435SOL    HW1 1304   3.096   1.026   0.596 -1.0943 -0.7115 -0.2883
  435SOL    HW2 1305   0.010   1.190   0.577 -1.0898 -0.6620  0.4181
  436SOL     OW 1306   0.685   2.835   1.814  0.0811 -0.0353  0.0441
  436SOL    HW1 1307   0.721   2.895   1.890 -3.0281  2.7473  0.4474
  436SOL    HW2 1308   0.588   2.824   1.823  0.4435  0.9752 -2.3909
  437SOL     OW 1309   1.300   2.348   1.135  0.0040 -0.0681 -0.3684
  437SOL    HW1 1310   1.374   2.299   1.082 -0.2058 -0.0129 -1.9070
  437SOL    HW2 1311   1.204   2.307   1.120 -1.7551  0.2561  0.4843
  438SOL     OW 1312   0.188   2.324   0.811 -0.0042 -0.1726  0.1598
  438SOL    HW1 1313   0.197   2.285   0.717 -1.8535  1.7525  0.1464
  438SOL    HW2 1314   0.150   2.255   0.875  1.3310 -1.1746  1.5725
  439SOL     OW 1315   1.077   2.815   1.531  0.2156 -0.4383 -0.4496
  439SOL    HW1 1316   1.135   2.743   1.494 -0.4615  1.1077  1.1412
  439SOL    HW2 1317   0.996   2.776   1.572  1.9869  2.0355 -0.2993
  440SOL     OW 1318   2.067   2.740   2.298 -0.4512  0.1355  0.1527
  440SOL    HW1 1319   2.102   2.758   2.199  1.6173 -0.8276 -1.3970
  440SOL    HW2 1320   2.084   2.816   2.361  0.4411 -1.8207 -2.3408
  441SOL     OW 1321   0.173   0.602   1.900  0.3096 -0.1561 -0.0800
  441SOL    HW1 1322   0.184   0.663   1.823  1.4583  0.8412  3.5557
  441SOL    HW2 1323   0.129   0.659   1.974 -0.2260  3.0873 -0.6097
  442SOL     OW 1324   1.834   2.342   0.196 -0.4712  0.3209  0.5618
  442SOL    HW1 1325   1.875   2.396   0.273  2.4592 -1.1606  1.5525
  442SOL    HW2 1326   1.742   2.377   0.168 -2.4003  0.5805  1.9052
  443SOL     OW 1327   0.057   0.748   2.731 -0.1494  0.5845  0.4010
  443SOL    HW1 1328   0.109   0.717   2.810 -1.3965 -1.3032  1.6084
  443SOL    HW2 1329   0.035   0.846   2.727 -0.4007  2.4558 -0.4298
  444SOL     OW 1330   1.622   1.161   2.291 -0.3206 -0.2036 -0.0424
  444SOL    HW1 1331   1.634   1.082   2.228  0.0855  1.1416  0.3388
  444SOL    HW2 1332   1.581   1.234   2.237 -0.2988  0.9436  0.6584
  445SOL     OW 1333   0.194   2.617   1.309  0.3408  0.6269  0.5806
  445SOL    HW1 1334   0.125   2.543   1.323  0.8863 -2.1073 -0.6404
  445SOL    HW2 1335   0.212   2.665   1.400  1.2367  0.1453  1.4648
  446SOL     OW 1336   2.813   1.646   1.071 -0.1650 -0.9003 -0.6952
  446SOL    HW1 1337   2.828   1.546   1.075  1.3058  0.1799 -1.4897
  446SOL    HW2 1338   2.864   1.693   0.995  0.0878  1.3277  0.8458
  447SOL     OW 1339   0.240   0.980   0.425 -0.5308 -0.3583 -0.8258
  447SOL    HW1 1340   0.307   1.057   0.424  0.8722 -0.7368  0.1018
  447SOL    HW2 1341   0.167   1.003   0.492 -1.2016  0.1624  0.6323
  448SOL     OW 1342   1.120   2.285   2.108  0.3235  0.0906  0.0531
  448SOL    HW1 1343   1.132   2.320   2.010  1.9988 -0.4069 -1.8511
  448SOL    HW2 1344   1.193   2.320   2.168  1.1860 -2.6164 -0.4197
  449SOL     OW 1345   1.166   1.550   0.128  0.0494  0.5225 -0.6323
  449SOL    HW1 1346   1.153   1.608   0.209  0.1744 -0.3878 -1.1141
  449SOL    HW2 1347   1.077   1.504   0.096 -1.0660  0.2210  0.3161
  450SOL     OW 1348   2.851   2.825   1.953  0.4239 -0.7990  0.0315
  450SOL    HW1 1349   2.906   2.854   2.037  0.8925  1.5554  0.8685
  450SOL    HW2 1350   2.791   2.903   1.927 -0.8394  3.0108  2.6280
  451SOL     OW 1351   2.207   0.615   2.516  0.3810 -0.0714 -0.0499
  451SOL    HW1 1352   2.294   0.652   2.545 -0.7884  0.1523  1.4512
  451SOL    HW2 1353   2.145   0.587   2.592 -0.3985  0.4030  2.7441
  452SOL     OW 1354   1.807   0.506   0.723 -0.0866  0.3732 -0.3447
  452SOL    HW1 1355   1.851   0.420   0.692  1.2072  0.0479 -0.6632
  452SOL    HW2 1356   1.849   0.538   0.809  1.0626 -1.6166  0.7878
  453SOL     OW 1357   1.955   0.778   1.535 -0.4132 -0.6428 -0.2801
  453SOL    HW1 1358   2.004   0.784   1.625 -0.1910  2.5808 -0.6977
  453SOL    HW2 1359   2.011   0.813   1.455  1.6576  1.7729 -3.8839
  454SOL     OW 1360   0.003   1.422   0.310  0.1441  0.0825 -0.3228
  454SOL    HW1 1361   3.073   1.425   0.403 -3.2390 -1.4329 -1.4632
  454SOL    HW2 1362   3.052   1.453   0.237  1.1319 -0.3067 -1.8141
  455SOL     OW 1363   2.542   3.028   1.566 -0.2103  0.0077  0.0972
  455SOL    HW1 1364   2.544   0.016   1.568  0.6148 -0.9023  0.8647
  455SOL    HW2 1365   2.488   2.992   1.486 -2.2304 -1.3779  0.0830
  456SOL     OW 1366   0.139   2.996   1.669  0.8818  0.1954  1.1626
  456SOL    HW1 1367   0.217   2.938   1.638  0.2193  2.2721 -1.2236
  456SOL    HW2 1368   0.058   2.944   1.693  2.4685  1.0477  1.5962
  457SOL     OW 1369   1.438   2.897   0.477  0.5879 -0.1023  0.0697
  457SOL    HW1 1370   1.438   2.967   0.400 -1.6535  0.3439  1.4065
  457SOL    HW2 1371   1.418   2.931   0.569 -2.2470 -0.3372 -0.5969
  458SOL     OW 1372   2.553   2.854   0.966 -0.0477 -0.0890 -0.6206
  458SOL    HW1 1373   2.479   2.802   0.925  0.3375  1.8646 -0.7887
  458SOL    HW2 1374   2.537   2.958   0.965  1.1441  4.0034 -1.5519
  459SOL     OW 1375   2.422   0.562   2.889 -0.1139  0.0456 -0.4972
  459SOL    HW1 1376   2.481   0.541   2.968 -2.8077  1.4961 -1.9372
  459SOL    HW2 1377   2.431   0.485   2.821  3.6486 -1.7867 -0.1440
  460SOL     OW 1378   2.292   2.783   2.902  0.2252  0.3502  1.0834
  460SOL    HW1 1379   2.245   2.860   2.849 -0.7559  2.5473 -2.3089
  460SOL    HW2 1380   2.370   2.816   2.953 -2.9236  3.1144 -0.6523
  461SOL     OW 1381   0.762   1.785   0.349  0.0533 -0.2605 -0.1088
  461SOL    HW1 1382   0.748   1.802   0.450 -1.2558 -2.8434 -1.3173
  461SOL    HW2 1383   0.786   1.873   0.296 -1.8455  2.0218 -1.4157
  462SOL     OW 1384   2.181   1.896   0.927  0.6021  0.2766 -0.2607
  462SOL    HW1 1385   2.259   1.891   0.862 -1.8830  0.3565 -0.0922
  462SOL    HW2 1386   2.144   1.988   0.946  1.3033 -3.4620 -0.3512
  463SOL     OW 1387   2.702   0.928   0.599 -0.1868 -0.5089 -0.2431
  463SOL    HW1 1388   2.802   0.927   0.625  0.1665  0.0027 -0.7696
  463SOL    HW2 1389   2.639   0.946   0.680 -0.2559  0.1672 -0.4302
  464SOL     OW 1390   0.868   2.932   1.065  0.0789  0.4458  0.6570
  464SOL    HW1 1391   0.914   3.025   1.054 -0.9052  1.3020  1.0986
  464SOL    HW2 1392   0.921   2.852   1.025 -0.1401 -1.6881  1.5791
  465SOL     OW 1393   2.455   1.409   0.249 -0.4177  0.2833 -0.4126
  465SOL    HW1 1394   2.495   1.484   0.301  0.2155  1.3692 -0.9785
  465SOL    HW2 1395   2.358   1.434   0.220 -1.4790 -2.0531 -1.7117
  466SOL     OW 1396   1.877   0.361   2.781  0.4623 -0.3644  0.5415
  466SOL    HW1 1397   1.824   0.344   2.866 -2.4558 -1.0467 -0.2108
  466SOL    HW2 1398   1.835   0.308   2.702 -0.7633 -0.0505 -2.0191
  467SOL     OW 1399   0.594   0.786   1.639  0.1237 -0.6020 -0.6015
  467SOL    HW1 1400   0.618   0.742   1.553 -2.8229  0.2411  2.4215
  467SOL    HW2 1401   0.627   0.729   1.716 -0.8495 -0.3685 -2.1830
  468SOL     OW 1402   0.216   1.152   2.865  0.3376 -0.3962  0.6498
  468SOL    HW1 1403   0.220   1.181   2.962 -1.5128  0.1217 -0.0510
  468SOL    HW2 1404   0.303   1.108   2.834 -0.1126  1.8569  2.7606
  469SOL     OW 1405   0.442   2.292   0.457 -0.2816 -0.1706  0.0686
  469SOL    HW1 1406   0.473   2.326   0.366 -2.1721 -0.0807  0.2235
  469SOL    HW2 1407   0.455   2.362   0.527 -0.5439  0.3338 -1.3321
  470SOL     OW 1408   2.676   1.698   2.505 -0.0951 -0.6108  0.0150
  470SOL    HW1 1409   2.721   1.621   2.561  1.9512  0.2101 -0.7102
  470SOL    HW2 1410   2.604   1.662   2.442 -2.1699  0.4834  0.1838
  471SOL     OW 1411   2.727   1.092   2.165  0.0755  0.4956 -0.3992
  471SOL    HW1 1412   2.720   1.090   2.272  0.7339  2.2600 -0.6304
  471SOL    HW2 1413   2.657   1.037   2.114  1.5907 -1.1061 -0.3218
  472SOL     OW 1414   0.558   2.790   0.672  0.9367 -0.0032 -0.1167
  472SOL    HW1 1415   0.484   2.771   0.601 -1.0594 -3.4548 -2.0057
  472SOL    HW2 1416   0.578   2.889   0.662 -1.0103  0.4318 -1.7875
  473SOL     OW 1417   0.786   3.070   0.269 -0.3171 -0.1025  0.1371
  473SOL    HW1 1418   0.756   0.028   0.333  1.7221 -1.3465  1.6441
  473SOL    HW2 1419   0.707   3.036   0.221 -3.0969  1.3772 -2.0325
  474SOL     OW 1420   1.863   0.088   1.909  0.2497 -0.0243 -0.9465
  474SOL    HW1 1421   1.841   3.099   1.902  0.4861 -1.3142 -2.1996
  474SOL    HW2 1422   1.784   0.135   1.958  0.5855  0.2933 -1.5198
  475SOL     OW 1423   1.115   2.364   0.352 -0.5649  0.1468 -0.2842
  475SOL    HW1 1424   1.092   2.426   0.276 -0.3099  0.0402  4.5773
  475SOL    HW2 1425   1.160   2.274   0.321  1.2729 -0.7872 -1.6712
  476SOL     OW 1426   0.758   1.106   0.595 -0.2171  0.2196 -0.0653
  476SOL    HW1 1427   0.684   1.034   0.580  0.1248 -0.8203  0.9214
  476SOL    HW2 1428   0.720   1.183   0.652  4.3839  0.6653 -0.6297
  477SOL     OW 1429   1.645   2.509   1.350 -0.5874 -0.2499  0.2452
  477SOL    HW1 1430   1.564   2.446   1.345  1.6789 -0.0648 -0.0614
  477SOL    HW2 1431   1.658   2.571   1.271  0.2766 -1.9756 -1.0713
  478SOL     OW 1432   0.451   1.723   2.525  0.1639 -0.1368  0.2311
  478SOL    HW1 1433   0.554   1.708   2.536 -0.8803  0.7237  0.3986
  478SOL    HW2 1434   0.402   1.656   2.581  2.0545  1.3076 -3.2459
  479SOL     OW 1435   2.984   0.029   1.278  0.0410 -0.1998 -0.3272
  479SOL    HW1 1436   3.020   0.046   1.188 -1.4971  0.8575  2.3981
  479SOL    HW2 1437   3.047   3.076   1.326  0.3724  1.4928  1.1173
  480SOL     OW 1438   2.914   2.940   0.487  0.4906  0.6276  0.3141
  480SOL    HW1 1439   2.876   2.903   0.575  0.1998 -0.3968  0.5619
  480SOL    HW2 1440   2.886   2.876   0.415  0.1099  0.5771  1.3853
  481SOL     OW 1441   2.724   2.774   1.170  0.0857  0.7541  0.3300
  481SOL    HW1 1442   2.653   2.810   1.106 -0.2576 -3.2259 -1.8331
  481SOL    HW2 1443   2.675   2.732   1.245  0.6178  0.1970 -0.6786
  482SOL     OW 1444   1.314   2.294   2.450  0.3480 -0.5113  0.5522
  482SOL    HW1 1445   1.366   2.209   2.423 -1.4159  0.4563  1.3561
  482SOL    HW2 1446   1.328   2.322   2.550  0.2987 -0.9318 -0.3447
  483SOL     OW 1447   0.393   1.980   2.622 -0.2800  0.1804  0.3761
  483SOL    HW1 1448   0.403   1.881   2.598  1.1007 -1.3511  0.6756
  483SOL    HW2 1449   0.360   2.045   2.550 -0.2947  1.4853  1.7533
  484SOL     OW 1450   0.984   1.353   2.005  0.0414  0.1760  0.1171
  484SOL    HW1 1451   1.060   1.325   1.940  1.4206 -0.4233  1.8140
  484SOL    HW2 1452   1.009   1.343   2.103 -2.6229 -1.2401  3.4870
  485SOL     OW 1453   2.499   0.320   0.535 -0.5857  0.0818  0.4769
  485SOL    HW1 1454   2.466   0.244   0.595  1.0932  2.1621 -1.6082
  485SOL    HW2 1455   2.419   0.367   0.501 -0.3385 -0.8892 -0.5152
  486SOL     OW 1456   1.658   2.924   0.782 -0.3434 -0.3900  0.5247
  486SOL    HW1 1457   1.688   2.990   0.852 -1.9280  2.4774  0.9187
  486SOL    HW2 1458   1.698   2.954   0.690  1.3299  2.6124 -1.8029
  487SOL     OW 1459   0.517   2.086   0.863  0.1590 -0.3964  0.1490
  487SOL    HW1 1460   0.597   2.033   0.898 -1.8203 -2.3564 -0.9208
  487SOL    HW2 1461   0.536   2.183   0.873  1.3599 -2.0664 -1.1582
  488SOL     OW 1462   2.717   1.298   0.297 -0.5031 -0.1991  0.4472
  488SOL    HW1 1463   2.766   1.385   0.278  1.0034 -1.0011 -2.4758
  488SOL    HW2 1464   2.620   1.314   0.298 -0.2219 -0.8695  1.9302
  489SOL     OW 1465   1.486   0.027   1.246 -1.0071 -0.2547 -0.1621
  489SOL    HW1 1466   1.513   0.098   1.318 -0.4644  0.9384  2.3698
  489SOL    HW2 1467   1.385   0.018   1.238  1.6750 -0.5695 -0.9159
  490SOL     OW 1468   1.146   0.928   0.071  0.5812 -0.0723  0.4408
  490SOL    HW1 1469   1.211   0.853   0.098  0.7555  1.6497 -1.1418
  490SOL    HW2 1470   1.119   0.973   0.157  0.1638  0.3325  0.3077
  491SOL     OW 1471   0.533   2.447   0.655 -0.0177 -0.2664  0.2772
  491SOL    HW1 1472   0.547   2.428   0.750 -2.0074 -1.8636 -2.7095
  491SOL    HW2 1473   0.608   2.502   0.616 -1.4736 -2.1033 -2.3070
  492SOL     OW 1474   1.379   1.409   2.155  0.1875  0.1740  0.0454
  492SOL    HW1 1475   1.421   1.488   2.212 -1.0498  1.1514  0.8004
  492SOL    HW2 1476   1.295   1.372   2.204 -1.2809  1.4977 -1.8474
  493SOL     OW 1477   2.988   2.418   0.913  0.3667 -0.5213 -0.5559
  493SOL    HW1 1478   3.086   2.397   0.916 -0.4284  1.5934 -1.1115
  493SOL    HW2 1479   2.954   2.478   0.986 -0.1161 -0.5478  1.0368
  494SOL     OW 1480   2.724   2.161   3.002  0.1810  0.3971 -0.0828
  494SOL    HW1 1481   2.793   2.111   2.951 -0.0642  1.9828  0.1772
  494SOL    HW2 1482   2.732   2.135   3.101 -0.1453 -1.1324  2.9544
  495SOL     OW 1483   2.637   1.764   2.790  0.6041  0.2629 -0.2343
  495SOL    HW1 1484   2.715   1.764   2.854 -1.2541 -0.9676  2.4042
  495SOL    HW2 1485   2.667   1.792   2.698  2.5254  1.1248  0.4458
  496SOL     OW 1486   2.563   0.252   1.797  0.0833 -0.4452 -0.3263
  496SOL    HW1 1487   2.630   0.277   1.875  0.5807 -0.0712  1.9220
  496SOL    HW2 1488   2.609   0.210   1.716 -0.6673 -1.3011 -2.8155
  497SOL     OW 1489   2.640   0.894   0.325  0.0384  0.0294  0.1867
  497SOL    HW1 1490   2.664   0.927   0.417 -1.0982 -0.4054 -4.1936
  497SOL    HW2 1491   2.652   0.795   0.317 -0.2848  1.6353  2.6813
  498SOL     OW 1492   0.074   2.287   2.480  0.2698  0.2477  0.3580
  498SOL    HW1 1493   0.061   2.374   2.426 -1.1480 -1.2500 -1.4370
  498SOL    HW2 1494   0.046   2.214   2.420 -1.0853  2.3102  0.9927
  499SOL     OW 1495   0.879   2.085   0.494 -0.7183  0.4819  0.2633
  499SOL    HW1 1496   0.806   2.030   0.536  1.4415  0.9051 -0.6363
  499SOL    HW2 1497   0.861   2.091   0.394  0.9744 -0.1291 -1.0048
  500SOL     OW 1498   1.074   3.018   2.929 -0.3041 -0.0818  0.0914
  500SOL    HW1 1499   1.036   3.107   2.915  1.4731 -1.3861 -0.2674
  500SOL    HW2 1500   1.007   2.939   2.911 -0.5375 -0.9602 -1.2742
  501SOL     OW 1501   1.590   0.190   1.429  0.1603  0.2493  0.0869
  501SOL    HW1 1502   1.559   0.171   1.524  2.8581 -0.4844 -0.7646
  501SOL    HW2 1503   1.692   0.183   1.425 -2.6987 -1.3626 -0.2971
  502SOL     OW 1504   2.937   0.403   2.284  0.1508  0.1816 -0.0029
  502SOL    HW1 1505   2.993   0.392   2.369 -1.9167  1.8515 -1.1420
  502SOL    HW2 1506   2.948   0.320   2.221  0.3865 -0.5457 -1.1657
  503SOL     OW 1507   2.457   2.134   2.448  0.1438  0.1673  0.1884
  503SOL    HW1 1508   2.437   2.164   2.351 -1.6910  1.0598  3.6190
  503SOL    HW2 1509   2.367   2.098   2.487 -0.9158  2.1378 -1.0941
  504SOL     OW 1510   1.355   0.503   1.547 -0.8452  0.0838  0.3936
  504SOL    HW1 1511   1.453   0.490   1.518  1.2268  2.0563 -1.5624
  504SOL    HW2 1512   1.345   0.491   1.646  1.6357  1.1788 -2.9492
  505SOL     OW 1513   0.179   0.826   1.684  0.1381  0.3671  0.5802
  505SOL    HW1 1514   0.138   0.907   1.737 -2.1800  0.7102 -2.2179
  505SOL    HW2 1515   0.271   0.847   1.643 -0.8279  3.0817 -0.4690
  506SOL     OW 1516   0.374   1.066   2.482  0.4618  0.1315 -0.0624
  506SOL    HW1 1517   0.398   1.050   2.581  0.8382  1.2101 -1.4634
  506SOL    HW2 1518   0.330   0.981   2.446 -1.9046  1.6058  1.4587
  507SOL     OW 1519   0.159   2.777   2.747  0.6892 -0.0405 -0.0509
  507SOL    HW1 1520   0.166   2.865   2.790  1.5203  0.3617 -2.1735
  507SOL    HW2 1521   0.062   2.757   2.722 -1.1635 -0.9995  0.2194
  508SOL     OW 1522   1.709   0.779   1.442  0.0464  0.2188  0.1805
  508SOL    HW1 1523   1.719   0.713   1.366 -2.1714  0.5259  0.1253
  508SOL    HW2 1524   1.800   0.801   1.485  0.4434  3.2979  1.1040
  509SOL     OW 1525   1.080   1.881   1.661  1.0737  0.1696  0.0294
  509SOL    HW1 1526   1.163   1.935   1.680 -3.7947 -3.6978 -1.4205
  509SOL    HW2 1527   1.083   1.848   1.568 -3.8362 -1.2120  0.7357
  510SOL     OW 1528   2.255   1.283   2.250  0.5207  0.2179  0.3382
  510SOL    HW1 1529   2.202   1.228   2.314  0.2027  1.2261 -3.2737
  510SOL    HW2 1530   2.247   1.240   2.158  1.9079  3.2446  0.8250
  511SOL     OW 1531   0.527   1.721   0.938  0.4272  0.1556  0.1588
  511SOL    HW1 1532   0.508   1.618   0.946 -0.2578 -2.9652 -0.8447
  511SOL    HW2 1533   0.517   1.772   1.026 -1.1926  2.1350  1.3861
  512SOL     OW 1534   2.189   2.049   0.441 -0.3023 -0.3671 -0.3881
  512SOL    HW1 1535   2.190   2.152   0.438 -2.2245 -3.0596  0.9267
  512SOL    HW2 1536   2.233   2.006   0.359  0.2032 -1.7529 -3.4006
  513SOL     OW 1537   2.995   1.955   2.552  0.3769 -0.9067 -0.5440
  513SOL    HW1 1538   3.080   1.909   2.522  0.1530 -1.8561 -0.8675
  513SOL    HW2 1539   2.962   2.023   2.479 -0.2474  0.4643 -2.2187
  514SOL     OW 1540   0.265   2.517   2.859 -0.2961 -0.5106  0.2445
  514SOL    HW1 1541   0.365   2.491   2.848 -1.2796 -0.4027  2.7303
  514SOL    HW2 1542   0.237   2.590   2.792 -1.3303  2.2844 -0.6445
  515SOL     OW 1543   1.921   1.537   1.854  0.6105  0.1757  0.2456
  515SOL    HW1 1544   1.916   1.532   1.955 -1.7292  1.8621 -1.4140
  515SOL    HW2 1545   1.947   1.627   1.820 -0.0913 -1.3225 -0.5752
  516SOL     OW 1546   2.415   2.495   3.012 -0.2267  0.2601 -0.1735
  516SOL    HW1 1547   2.460   2.574   3.058 -0.8280 -1.7551  0.6237
  516SOL    HW2 1548   2.419   2.504   2.906  0.4155  0.6064 -2.3386
  517SOL     OW 1549   1.507   1.152   0.030 -0.5697 -0.2364  0.0720
  517SOL    HW1 1550   1.550   1.192   3.062 -0.7530  0.4513 -0.3517
  517SOL    HW2 1551   1.482   1.057   0.017 -0.6854  0.6619  0.9210
  518SOL     OW 1552   2.752   3.064   2.302 -0.2581  0.0596  0.5622
  518SOL    HW1 1553   2.725   3.078   2.205  0.5124  0.4682 -0.0634
  518SOL    HW2 1554   2.756   2.964   2.333  1.0227 -3.1078 -1.1145
  519SOL     OW 1555   1.740   1.873   2.001  0.7255 -0.0779  0.1874
  519SOL    HW1 1556   1.650   1.825   2.008 -1.1924  1.2078 -2.6686
  519SOL    HW2 1557   1.776   1.903   2.087 -0.7468  0.8098  0.7707
  520SOL     OW 1558   2.639   0.104   2.676 -0.1834 -0.1398 -0.2854
  520SOL    HW1 1559   2.585   0.169   2.731  0.3492  0.0037 -2.1329
  520SOL    HW2 1560   2.611   0.109   2.579  2.6105  1.7696 -0.3255
  521SOL     OW 1561   0.602   1.531   2.112 -0.0468  0.1174 -0.5165
  521SOL    HW1 1562   0.676   1.545   2.045 -0.2270  1.1999  0.4066
  521SOL    HW2 1563   0.603   1.438   2.163 -0.4061 -0.8917 -0.9411
  522SOL     OW 1564   1.160   0.110   1.520  0.0579 -0.0456 -0.4904
  522SOL    HW1 1565   1.183   0.134   1.617  1.7869  1.1320  0.8907
  522SOL    HW2 1566   1.059   0.095   1.509 -0.9408 -0.8099 -0.1143
  523SOL     OW 1567   0.248   2.566   0.908  0.0871 -0.5502  1.0805
  523SOL    HW1 1568   0.345   2.583   0.888 -0.0592 -0.8833  0.6579
  523SOL    HW2 1569   0.215   2.482   0.857  0.9675 -0.1652 -0.5496
  524SOL     OW 1570   1.801   2.418   0.704  0.5535 -1.1219  0.4239
  524SOL    HW1 1571   1.780   2.328   0.745  0.9210 -0.9696 -0.4961
  524SOL    HW2 1572   1.746   2.492   0.752  2.6871  0.6339  1.9322
  525SOL     OW 1573   2.592   0.972   1.091  0.5538  0.5403 -0.7298
  525SOL    HW1 1574   2.545   1.029   1.160 -0.6530 -0.4657 -0.7261
  525SOL    HW2 1575   2.525   0.905   1.048 -0.1565  0.0696 -0.1426
  526SOL     OW 1576   1.156   2.758   0.729  0.3400 -0.0769  0.2694
  526SOL    HW1 1577   1.122   2.701   0.651  0.2880 -0.3440 -2.8630
  526SOL    HW2 1578   1.192   2.847   0.695 -1.7173  0.2173  1.0327
  527SOL     OW 1579   2.382   1.926   0.648  0.3019 -0.1653  0.0865
  527SOL    HW1 1580   2.316   1.948   0.572 -1.2962  2.0394 -0.5707
  527SOL    HW2 1581   2.408   1.827   0.651  0.5482  0.0566 -1.1732
  528SOL     OW 1582   2.250   0.485   0.544 -0.1341 -0.0915 -0.3449
  528SOL    HW1 1583   2.270   0.587   0.548 -1.1892  1.4335 -0.5966
  528SOL    HW2 1584   2.170   0.447   0.488 -3.2310 -0.6441  0.6354
  529SOL     OW 1585   1.133   1.259   2.297 -0.2516 -0.7231  0.2763
  529SOL    HW1 1586   1.078   1.337   2.337  0.0234 -0.2209 -1.0115
  529SOL    HW2 1587   1.098   1.179   2.348 -0.4972  0.7990 -0.7354
  530SOL     OW 1588   2.536   0.844   2.952 -0.6663 -0.2271 -0.3317
  530SOL    HW1 1589   2.490   0.758   2.980 -0.2147  1.4816 -0.6135
  530SOL    HW2 1590   2.471   0.909   2.901 -0.9445  1.7762 -0.6226
  531SOL     OW 1591   1.504   0.890   0.008  0.1113  0.2499 -0.3076
  531SOL    HW1 1592   1.471   0.800   3.080 -2.1782  0.4113  0.2658
  531SOL    HW2 1593   1.549   0.876   0.101  2.5174 -0.4393  1.6874
  532SOL     OW 1594   2.018   0.157   0.866  0.0292  0.0799  0.3660
  532SOL    HW1 1595   1.999   0.211   0.951 -0.8285 -0.9952 -0.1024
  532SOL    HW2 1596   2.117   0.141   0.858 -0.1601  0.9488 -0.7761
  533SOL     OW 1597   0.976   0.881   1.773  0.0364  0.1450  0.3538
  533SOL    HW1 1598   1.033   0.926   1.702 -1.8599 -0.8891  2.1878
  533SOL    HW2 1599   1.035   0.810   1.816 -0.7397  0.6755 -3.7496
  534SOL     OW 1600   1.714   3.054   2.785 -0.0659  0.3931 -0.3063
  534SOL    HW1 1601   1.757   2.973   2.733  1.4685  1.5622 -0.4618
  534SOL    HW2 1602   1.714   3.031   2.885  2.6745 -0.7721  1.0451
  535SOL     OW 1603   0.563   0.135   0.159  0.1200  0.2176  0.3606
  535SOL    HW1 1604   0.543   0.199   0.080  2.3668 -0.6017 -0.6834
  535SOL    HW2 1605   0.558   0.037   0.128 -0.9570 -3.1827 -0.2457
  536SOL     OW 1606   0.878   2.578   1.227 -0.5316 -0.2708 -0.2057
  536SOL    HW1 1607   0.947   2.535   1.289 -2.4103 -2.5354 -1.7348
  536SOL    HW2 1608   0.928   2.642   1.169 -0.9008 -1.0654 -0.3394
  537SOL     OW 1609   1.980   0.267   1.614 -0.4303  0.3951  0.3260
  537SOL    HW1 1610   1.969   0.319   1.528 -2.1372 -0.8143 -0.7989
  537SOL    HW2 1611   1.933   0.176   1.611 -0.4874  0.6029 -0.0043
  538SOL     OW 1612   2.876   2.719   0.315 -0.3344 -0.0315 -0.1192
  538SOL    HW1 1613   2.911   2.687   0.223  0.7624  0.3179 -0.2523
  538SOL    HW2 1614   2.815   2.651   0.361  1.4526  0.9967 -0.6988
  539SOL     OW 1615   2.763   2.084   2.083  0.2402 -0.0244  0.0046
  539SOL    HW1 1616   2.699   2.065   2.005  0.5590 -1.5397  0.6524
  539SOL    HW2 1617   2.778   2.187   2.096  0.9199  2.8443 -1.7773
  540SOL     OW 1618   3.047   2.828   1.750 -0.2456  0.5131 -0.0236
  540SOL    HW1 1619   3.095   2.742   1.766  0.7091  0.5417 -0.6501
  540SOL    HW2 1620   2.970   2.837   1.818 -1.4707 -0.2978 -0.3530
  541SOL     OW 1621   2.683   3.061   1.832 -0.0772  0.5526 -0.2515
  541SOL    HW1 1622   2.629   3.029   1.755  0.8546  1.0325  1.3054
  541SOL    HW2 1623   2.762   0.000   1.797  0.8122 -0.4904 -0.3513
  542SOL     OW 1624   2.954   0.631   2.152 -0.3813  1.0281 -0.3615
  542SOL    HW1 1625   2.918   0.614   2.056  0.5672 -1.6311  0.5996
  542SOL    HW2 1626   2.938   0.546   2.209  1.5489 -0.0678  2.6371
  543SOL     OW 1627   0.824   0.678   0.715  0.4397 -0.3264 -0.3549
  543SOL    HW1 1628   0.841   0.775   0.731 -2.3816 -0.5374 -0.0410
  543SOL    HW2 1629   0.733   0.651   0.748 -0.2137 -1.3868  1.0283
  544SOL     OW 1630   2.325   1.967   1.153  0.3174 -0.1260 -0.0559
  544SOL    HW1 1631   2.271   1.976   1.067 -1.0297  0.3636 -1.7488
  544SOL    HW2 1632   2.390   1.887   1.147 -2.0801  1.2684 -0.6180
  545SOL     OW 1633   1.036   1.761   0.374  0.0807 -0.2587  0.2712
  545SOL    HW1 1634   0.933   1.749   0.383 -1.2369 -0.4336 -1.3480
  545SOL    HW2 1635   1.097   1.711   0.440  0.0288  0.9338  0.3259
  546SOL     OW 1636   2.490   0.420   2.186  0.6931 -0.5324 -0.2850
  546SOL    HW1 1637   2.473   0.521   2.199  1.1472 -1.2504  1.4463
  546SOL    HW2 1638   2.412   0.356   2.187 -1.5671  0.8782  1.4020
  547SOL     OW 1639   0.224   0.311   2.466  0.6176 -0.0954 -0.3222
  547SOL    HW1 1640   0.219   0.360   2.558 -1.5234 -2.0597  0.8884
  547SOL    HW2 1641   0.283   0.362   2.399  1.7998  0.4506  1.9799
  548SOL     OW 1642   2.115   2.037   2.285 -0.2762  0.1339  0.4197
  548SOL    HW1 1643   2.186   2.110   2.266 -0.5199 -0.9226 -0.0660
  548SOL    HW2 1644   2.121   2.010   2.382  0.0260 -2.7142  2.0892
  549SOL     OW 1645   2.565   0.659   0.798  0.5627  0.1199  0.0595
  549SOL    HW1 1646   2.563   0.664   0.695  0.5179  2.7015 -0.7350
  549SOL    HW2 1647   2.656   0.638   0.837  0.2703 -0.9142  0.3676
  550SOL     OW 1648   1.533   1.452   0.439 -0.2836 -0.3337 -0.0262
  550SOL    HW1 1649   1.564   1.451   0.342  1.8717  0.9901 -0.2752
  550SOL    HW2 1650   1.549   1.543   0.478  0.1510 -1.9881  1.2292
  551SOL     OW 1651   1.292   0.320   1.160  0.0275  0.1689  0.1029
  551SOL    HW1 1652   1.229   0.326   1.078 -1.9396 -3.3551 -1.9280
  551SOL    HW2 1653   1.290   0.228   1.207  0.9249 -0.0792  0.9996
  552SOL     OW 1654   2.056   2.410   2.019 -0.2027 -0.3398 -0.0060
  552SOL    HW1 1655   1.973   2.442   2.068 -4.0898 -0.6136  0.0098
  552SOL    HW2 1656   2.142   2.451   2.056 -0.3614  0.5311  0.4532
  553SOL     OW 1657   0.563   2.989   0.141 -0.0675 -0.1324 -0.1060
  553SOL    HW1 1658   0.537   2.912   0.201  2.2843  2.3669 -0.4061
  553SOL    HW2 1659   0.544   2.968   0.045 -0.4826  1.5420  0.5067
  554SOL     OW 1660   1.626   2.799   1.847 -0.1870  0.0304 -0.2937
  554SOL    HW1 1661   1.647   2.756   1.757 -2.6070  0.6055  0.5649
  554SOL    HW2 1662   1.691   2.772   1.918 -0.3645  2.4342 -1.4125
  555SOL     OW 1663   2.422   2.814   1.928  0.2028 -0.7383 -1.1152
  555SOL    HW1 1664   2.379   2.867   1.852 -0.9017 -0.3052  1.3578
  555SOL    HW2 1665   2.424   2.872   2.014 -0.9163  0.3790  0.5150
  556SOL     OW 1666   0.951   2.876   0.209 -0.4886  0.2870  0.4530
  556SOL    HW1 1667   1.009   2.840   0.286  0.1540  3.7625  4.1741
  556SOL    HW2 1668   0.897   2.950   0.255 -0.3538  0.1727 -2.8238
  557SOL     OW 1669   0.821   2.355   2.256 -0.1302 -0.0948 -0.2317
  557SOL    HW1 1670   0.852   2.421   2.185  2.3841  1.0605  2.6250
  557SOL    HW2 1671   0.729   2.376   2.289  1.8840 -0.4111 -1.3674
  558SOL     OW 1672   2.621   1.060   2.401  0.2434  0.3262 -0.1073
  558SOL    HW1 1673   2.690   1.007   2.454  1.8144 -1.3893  2.1722
  558SOL    HW2 1674   2.601   1.151   2.447  0.3421  2.1395  3.0307
  559SOL     OW 1675   2.301   2.280   2.254 -0.7813  0.1097 -0.0947
  559SOL    HW1 1676   2.305   2.382   2.255  4.1588  3.4813 -2.0528
  559SOL    HW2 1677   2.331   2.242   2.165 -0.5185  1.7397 -0.0845
  560SOL     OW 1678   0.602   0.381   2.142 -0.3581 -0.4440  1.1772
  560SOL    HW1 1679   0.686   0.324   2.162  1.6133 -0.9781 -1.9199
  560SOL    HW2 1680   0.546   0.316   2.082 -0.1040 -1.4892  0.5188
  561SOL     OW 1681   1.120   0.468   0.250 -0.1061 -0.0617  0.1820
  561SOL    HW1 1682   1.076   0.480   0.340  0.8492  1.4773 -3.4857
  561SOL    HW2 1683   1.074   0.392   0.200 -3.3864  0.9036 -1.5653
  562SOL     OW 1684   0.868   1.564   1.516  0.4403 -0.3882 -0.6088
  562SOL    HW1 1685   0.795   1.494   1.549 -0.5963  0.3218  1.6838
  562SOL    HW2 1686   0.907   1.521   1.429  0.8926  0.3819 -1.7442
  563SOL     OW 1687   1.703   2.693   0.102  0.3440  0.0057 -0.0374
  563SOL    HW1 1688   1.753   2.714   0.015 -2.4699 -0.8821  3.4368
  563SOL    HW2 1689   1.611   2.728   0.094  0.6867 -0.3169  0.1621
  564SOL     OW 1690   3.083   1.940   0.559 -0.0036 -0.2225  0.1071
  564SOL    HW1 1691   3.023   1.865   0.518 -0.3668 -0.6510  0.2700
  564SOL    HW2 1692   3.043   1.974   0.647 -1.2285 -1.2503 -3.3293
  565SOL     OW 1693   0.540   2.656   2.324  0.3145  0.2643 -0.0785
  565SOL    HW1 1694   0.442   2.685   2.316 -0.9718 -0.7662 -1.8314
  565SOL    HW2 1695   0.550   2.557   2.324  1.9515  1.1051  3.3061
  566SOL     OW 1696   1.552   2.509   2.587  0.1126  0.3158 -0.2099
  566SOL    HW1 1697   1.528   2.516   2.687 -1.9645 -0.5298  2.7454
  566SOL    HW2 1698   1.647   2.473   2.568  0.0555 -0.4166  1.4815
  567SOL     OW 1699   1.912   2.087   1.345 -0.6603  0.1337  0.2508
  567SOL    HW1 1700   1.906   2.185   1.330  2.0319  0.2580  1.1885
  567SOL    HW2 1701   1.873   2.036   1.266 -1.1669  0.1888 -1.4418
  568SOL     OW 1702   2.164   0.599   2.973 -0.1387 -0.0169 -0.0936
  568SOL    HW1 1703   2.141   0.596   3.073  0.2165  0.5837  1.9671
  568SOL    HW2 1704   2.264   0.577   2.955  1.1642  0.3778 -1.7487
  569SOL     OW 1705   2.958   1.512   2.121 -0.1490 -0.7618 -0.2755
  569SOL    HW1 1706   2.935   1.600   2.076  1.2860 -1.7366 -2.4305
  569SOL    HW2 1707   2.962   1.513   2.219  0.7694 -2.4636 -0.9989
  570SOL     OW 1708   2.770   2.583   1.778 -0.1077  0.0613  0.1122
  570SOL    HW1 1709   2.691   2.637   1.737  0.1442  0.4097 -1.7797
  570SOL    HW2 1710   2.807   2.642   1.851  0.8111 -1.0354 -1.4656
  571SOL     OW 1711   0.296   0.390   1.600 -0.2276  0.0857  0.3387
  571SOL    HW1 1712   0.386   0.381   1.563 -2.1284 -2.9155  0.6145
  571SOL    HW2 1713   0.249   0.485   1.590 -0.7064  1.6049  1.1773
  572SOL     OW 1714   2.983   2.005   0.814  0.1826 -0.0274  0.1841
  572SOL    HW1 1715   2.926   2.085   0.786  1.5596 -1.6886  0.7931
  572SOL    HW2 1716   3.043   2.029   0.892 -0.2934 -0.0205  0.1325
  573SOL     OW 1717   1.024   0.744   3.020 -0.0503  0.1136  0.1118
  573SOL    HW1 1718   1.074   0.813   3.079  0.8881 -1.4272  1.3818
  573SOL    HW2 1719   0.923   0.761   3.034  1.4152  0.6727  3.0591
  574SOL     OW 1720   0.146   2.981   0.225  0.5649 -0.9333 -0.3555
  574SOL    HW1 1721   0.128   3.044   0.149  0.3694 -3.0409  3.9840
  574SOL    HW2 1722   0.155   2.888   0.189  1.0980 -3.0886 -4.2482
  575SOL     OW 1723   1.302   2.052   1.250 -0.1072 -0.2762  0.7421
  575SOL    HW1 1724   1.249   1.972   1.220 -1.7352 -0.6908 -2.3029
  575SOL    HW2 1725   1.347   2.098   1.170 -1.5046  1.8890  0.2062
  576SOL     OW 1726   0.020   2.948   1.396  0.0359  0.1607  0.6800
  576SOL    HW1 1727   3.068   2.870   1.407 -0.4235 -0.3724 -0.2305
  576SOL    HW2 1728   0.057   2.974   1.487  1.1937 -1.4119 -0.2504
  577SOL     OW 1729   2.221   1.647   1.635  0.0552  0.1375  0.2559
  577SOL    HW1 1730   2.160   1.708   1.688  0.7564 -0.8490  1.7102
  577SOL    HW2 1731   2.170   1.579   1.582  1.0150  0.1598  0.1703
  578SOL     OW 1732   0.968   0.155   2.963  0.3878  0.0563  0.6146
  578SOL    HW1 1733   0.979   0.212   3.042 -2.2640 -0.6980 -0.0980
  578SOL    HW2 1734   0.987   0.207   2.882 -2.9896 -1.7683  1.8577
  579SOL     OW 1735   2.367   1.814   2.075 -0.4888 -0.4842 -0.1728
  579SOL    HW1 1736   2.447   1.757   2.047  0.8497  0.3604 -1.5223
  579SOL    HW2 1737   2.382   1.909   2.038  1.1823 -2.0936  0.7907
  580SOL     OW 1738   1.608   0.481   1.757  0.0656 -0.4570  0.1758
  580SOL    HW1 1739   1.636   0.486   1.659 -1.5597  1.1678  0.3814
  580SOL    HW2 1740   1.676   0.534   1.813  0.8605 -0.5739 -0.8203
  581SOL     OW 1741   1.069   1.490   1.697 -0.1087 -0.0182  0.0223
  581SOL    HW1 1742   1.053   1.388   1.685 -0.3223 -1.0676 -0.4061
  581SOL    HW2 1743   0.993   1.535   1.648 -2.7177  2.5817  1.7713
  582SOL     OW 1744   3.032   2.890   2.191  0.0600 -0.2860  0.5116
  582SOL    HW1 1745   0.015   2.871   2.168  0.6413 -0.0769 -0.5236
  582SOL    HW2 1746   3.013   2.916   2.287 -2.0353  0.4969  0.2377
  583SOL     OW 1747   1.875   1.239   1.447  0.1357  0.0256 -0.0301
  583SOL    HW1 1748   1.832   1.318   1.489 -1.2545 -0.7400  1.0239
  583SOL    HW2 1749   1.930   1.181   1.507 -1.9655  0.5303 -2.7094
  584SOL     OW 1750   1.318   2.040   2.736 -0.7841  0.0894 -0.4715
  584SOL    HW1 1751   1.394   2.009   2.672  0.0663  0.1302 -2.0782
  584SOL    HW2 1752   1.229   1.994   2.716 -0.6307  0.8303  1.5164
  585SOL     OW 1753   0.129   2.522   0.486  0.0331  0.9262  1.0608
  585SOL    HW1 1754   0.172   2.437   0.521 -0.6113  2.3912  1.5084
  585SOL    HW2 1755   0.056   2.498   0.419  2.2152 -3.4461  2.2345
  586SOL     OW 1756   1.925   2.431   2.851  0.1389  0.3693  0.6861
  586SOL    HW1 1757   1.963   2.420   2.946  0.1826  1.6419 -1.2667
  586SOL    HW2 1758   1.993   2.413   2.775 -0.0870  0.9866 -0.0969
  587SOL     OW 1759   2.656   1.921   0.299 -0.0968 -0.2740  0.4703
  587SOL    HW1 1760   2.680   2.000   0.238  0.5483 -1.5988 -2.4314
  587SOL    HW2 1761   2.740   1.891   0.347  0.7446 -0.4757  0.0508
  588SOL     OW 1762   2.260   0.394   1.166 -0.0767  0.0870  0.1194
  588SOL    HW1 1763   2.355   0.351   1.158  0.3498 -1.4096 -0.6947
  588SOL    HW2 1764   2.271   0.492   1.182 -1.0426 -1.4796  1.6351
  589SOL     OW 1765   1.078   0.772   0.477  0.0302 -0.4627 -0.1684
  589SOL    HW1 1766   1.025   0.687   0.491  2.5643  0.9157 -0.1781
  589SOL    HW2 1767   1.167   0.756   0.441 -2.7539  4.4964  1.4593
  590SOL     OW 1768   2.315   2.440   0.159  0.1129  0.2372  0.1474
  590SOL    HW1 1769   2.247   2.503   0.206 -1.4025  2.1150 -1.2219
  590SOL    HW2 1770   2.329   2.461   0.059  0.9907 -3.0004  0.6049
  591SOL     OW 1771   0.072   2.587   1.762  0.9887 -0.2242 -0.2669
  591SOL    HW1 1772   0.085   2.554   1.665 -0.3679  0.1828 -0.6562
  591SOL    HW2 1773   0.145   2.650   1.796 -1.1802 -0.1661 -1.5824
  592SOL     OW 1774   0.791   1.086   1.306 -0.2901  0.1511  0.3136
  592SOL    HW1 1775   0.693   1.119   1.288 -1.7502  1.2986 -0.1982
  592SOL    HW2 1776   0.805   1.000   1.249 -0.7829 -1.7736 -0.9979
  593SOL     OW 1777   1.053   1.786   1.410 -0.5125  0.2288  0.6574
  593SOL    HW1 1778   1.093   1.799   1.318 -0.1690 -1.5202  0.2225
  593SOL    HW2 1779   0.997   1.698   1.418 -2.7196 -2.8642  0.1624
  594SOL     OW 1780   0.379   1.893   2.890 -0.2079 -0.1022  0.4726
  594SOL    HW1 1781   0.291   1.844   2.894  0.9283 -3.0510  0.9518
  594SOL    HW2 1782   0.385   1.930   2.794 -1.6107 -1.3901  0.0560
  595SOL     OW 1783   1.547   0.414   1.113  0.1071 -0.3362  0.2531
  595SOL    HW1 1784   1.542   0.443   1.016  1.7614  0.0026  1.9376
  595SOL    HW2 1785   1.452   0.390   1.149  0.6611 -3.6468  0.4735
  596SOL     OW 1786   0.261   1.456   0.349 -0.0225 -0.8385  0.0887
  596SOL    HW1 1787   0.160   1.459   0.342  2.0916  0.6948  1.3631
  596SOL    HW2 1788   0.293   1.364   0.384 -1.8432  0.7449  1.6616
  597SOL     OW 1789   0.010   2.245   0.093  0.1363  0.5975 -0.1771
  597SOL    HW1 1790   0.012   2.163   0.032 -0.8957  0.7178  1.0530
  597SOL    HW2 1791   3.042   2.243   0.152  0.2982  1.2842  1.4429
  598SOL     OW 1792   2.233   2.004   2.563  0.4469  0.1404  0.2922
  598SOL    HW1 1793   2.295   1.939   2.610 -1.8528 -0.0619 -0.5485
  598SOL    HW2 1794   2.188   2.063   2.634 -1.0908  2.9909 -2.3581
  599SOL     OW 1795   1.335   0.316   0.370 -0.0206 -0.2815  0.5169
  599SOL    HW1 1796   1.275   0.363   0.306  0.3885  1.4862 -1.7184
  599SOL    HW2 1797   1.419   0.374   0.380  2.1118 -0.3799 -1.8896
  600SOL     OW 1798   0.755   2.721   0.313 -0.3144  0.1868 -0.4744
  600SOL    HW1 1799   0.811   2.786   0.250  3.1012  2.8151 -0.1636
  600SOL    HW2 1800   0.656   2.720   0.293  1.2003 -0.8909 -0.1842
  601SOL     OW 1801   0.572   0.740   1.042 -0.0295  0.0610  0.4297
  601SOL    HW1 1802   0.486   0.714   1.090  0.3778  1.3695  0.2174
  601SOL    HW2 1803   0.625   0.800   1.099  0.4254 -1.4878 -1.5012
  602SOL     OW 1804   0.227   2.875   1.201 -0.0273  0.2719 -0.3572
  602SOL    HW1 1805   0.164   2.912   1.277  0.4537  0.2096 -0.7896
  602SOL    HW2 1806   0.218   2.772   1.196 -0.6098  1.0261  1.1342
  603SOL     OW 1807   1.239   2.813   2.536  0.6293 -0.1475 -0.1298
  603SOL    HW1 1808   1.341   2.816   2.532  2.0616 -0.2477  1.2972
  603SOL    HW2 1809   1.196   2.893   2.489  2.0830 -0.1085 -1.9158
  604SOL     OW 1810   0.609   2.691   2.798 -0.4950  0.3482 -0.3252
  604SOL    HW1 1811   0.629   2.593   2.782 -0.6733 -0.0820  0.9281
  604SOL    HW2 1812   0.593   2.744   2.712 -1.2920  0.9215 -0.8627
  605SOL     OW 1813   1.138   0.703   1.909  0.1798  0.2166  0.0627
  605SOL    HW1 1814   1.154   0.608   1.875 -0.3956 -1.0268  0.6221
  605SOL    HW2 1815   1.184   0.714   1.999  0.8593 -0.0667  0.8982
  606SOL     OW 1816   2.103   0.498   2.743 -0.6812  0.6066 -0.0334
  606SOL    HW1 1817   2.137   0.522   2.835  0.9484 -0.7003  0.3724
  606SOL    HW2 1818   2.008   0.448   2.751 -0.7995 -0.8667  3.4184
  607SOL     OW 1819   0.553   1.036   0.962  0.4940  0.2060 -0.0838
  607SOL    HW1 1820   0.642   1.069   0.930  0.3446  1.7992  0.6668
  607SOL    HW2 1821   0.543   0.936   0.965  1.9077  1.7219  2.1102
  608SOL     OW 1822   0.098   2.527   2.323 -0.4327  0.0277 -0.4893
  608SOL    HW1 1823   0.168   2.600   2.318 -1.4115 -2.6613 -0.8706
  608SOL    HW2 1824   0.010   2.559   2.280  2.3199  3.8812 -0.8102
  609SOL     OW 1825   1.449   0.636   3.029  0.6890 -0.1298  0.1544
  609SOL    HW1 1826   1.536   0.588   3.053 -0.1110  2.3392  0.5418
  609SOL    HW2 1827   1.386   0.638   3.111 -3.0061  2.6467  0.4263
  610SOL     OW 1828   0.632   2.790   1.300  0.7676 -0.0673  0.2399
  610SOL    HW1 1829   0.696   2.715   1.298 -4.1510  0.5552  1.3694
  610SOL    HW2 1830   0.578   2.799   1.215  3.8855  1.8036  0.7613
  611SOL     OW 1831   1.605   0.898   0.433  0.3739  0.5243  0.5016
  611SOL    HW1 1832   1.603   0.993   0.405 -0.4006  0.0275  2.5455
  611SOL    HW2 1833   1.641   0.834   0.359  4.1246 -0.3069 -1.9238
  612SOL     OW 1834   1.580   0.905   2.819  0.0019  0.4935  0.0424
  612SOL    HW1 1835   1.527   0.861   2.743 -1.3626  0.1255  2.1225
  612SOL    HW2 1836   1.532   0.900   2.907  0.7981 -0.5701  2.5494
  613SOL     OW 1837   2.472   0.993   0.791  0.0812 -0.2007 -0.6117
  613SOL    HW1 1838   2.389   0.975   0.734 -0.8259 -0.6897  0.6962
  613SOL    HW2 1839   2.487   0.914   0.854  1.0331 -1.1622  0.1022
  614SOL     OW 1840   2.240   0.243   2.157 -0.0463 -0.1750 -0.0829
  614SOL    HW1 1841   2.178   0.180   2.204 -0.9220  0.1971 -0.0181
  614SOL    HW2 1842   2.258   0.221   2.059 -0.2152 -1.5727 -0.4817
  615SOL     OW 1843   0.819   2.181   1.142  0.1107  0.1076 -0.2792
  615SOL    HW1 1844   0.755   2.185   1.219  2.6016 -1.2644 -2.2924
  615SOL    HW2 1845   0.784   2.211   1.051  0.9246 -0.7329 -1.8584
  616SOL     OW 1846   1.755   1.269   2.503 -0.0331 -0.5349 -0.3808
  616SOL    HW1 1847   1.697   1.220   2.438 -0.7502  1.6421  1.6536
  616SOL    HW2 1848   1.786   1.353   2.458 -1.4429 -1.0483  0.3562
  617SOL     OW 1849   1.436   2.874   0.041  0.3569 -0.1937  0.2211
  617SOL    HW1 1850   1.422   2.940   0.122  0.0379  0.5068  4.2079
  617SOL    HW2 1851   1.415   2.779   0.064  0.0759  0.7578 -2.3200
  618SOL     OW 1852   1.539   1.571   2.294  0.5508  0.1955  0.6725
  618SOL    HW1 1853   1.505   1.626   2.377  1.1991 -0.6430  0.1208
  618SOL    HW2 1854   1.627   1.530   2.320  0.2894  0.5385 -0.5946
  619SOL     OW 1855   2.583   1.422   0.916  0.3643 -0.5147  0.1299
  619SOL    HW1 1856   2.508   1.393   0.861  2.2379  3.7781  0.0101
  619SOL    HW2 1857   2.602   1.364   1.001  0.8390  0.4660  2.0481
  620SOL     OW 1858   2.235   2.658   2.669 -0.8002 -0.4511 -0.1112
  620SOL    HW1 1859   2.290   2.695   2.748  0.5577 -0.9226  1.5931
  620SOL    HW2 1860   2.155   2.720   2.655  0.1739  0.5100  2.4289
  621SOL     OW 1861   2.767   1.297   0.553 -0.2084 -0.0445  1.0138
  621SOL    HW1 1862   2.745   1.265   0.457 -1.9648 -0.6035 -3.6897
  621SOL    HW2 1863   2.682   1.272   0.610  1.4774 -1.0702  1.1281
  622SOL     OW 1864   1.261   2.539   2.599 -0.9137  0.5615  0.3056
  622SOL    HW1 1865   1.351   2.517   2.560 -2.3594  0.2071 -2.8781
  622SOL    HW2 1866   1.230   2.632   2.569 -0.0041 -0.1125  0.3209
  623SOL     OW 1867   0.248   2.372   0.022 -0.0576  0.2316 -0.2237
  623SOL    HW1 1868   0.283   2.307   3.068 -4.5607  1.4809  1.2706
  623SOL    HW2 1869   0.159   2.336   0.062 -1.6689  1.8488 -1.4150
  624SOL     OW 1870   0.273   2.970   2.921 -0.0620 -0.8246  0.0108
  624SOL    HW1 1871   0.289   3.050   2.862  0.0040 -0.9855 -0.1864
  624SOL    HW2 1872   0.359   2.937   2.957 -0.2688  1.4743 -0.6707
  625SOL     OW 1873   0.894   2.281   3.012 -0.2256  0.2721 -0.3118
  625SOL    HW1 1874   0.930   2.310   2.924  0.6001  0.2849 -1.7387
  625SOL    HW2 1875   0.927   2.191   3.047  0.0153  1.8330  2.3365
  626SOL     OW 1876   2.963   0.702   0.252 -0.4920 -0.4026 -0.3135
  626SOL    HW1 1877   2.911   0.664   0.173 -1.1759 -1.6079  0.7645
  626SOL    HW2 1878   2.998   0.629   0.311 -0.0904 -0.4746  1.0922
  627SOL     OW 1879   1.940   1.534   2.862 -0.2970  0.1218 -0.1865
  627SOL    HW1 1880   2.022   1.479   2.837 -0.2609 -1.9791  0.7115
  627SOL    HW2 1881   1.962   1.632   2.883 -0.7646  0.7805  0.9110
  628SOL     OW 1882   1.299   1.237   2.615  0.1952 -0.3952 -0.2055
  628SOL    HW1 1883   1.269   1.159   2.671 -0.4386 -2.3259  0.6204
  628SOL    HW2 1884   1.395   1.271   2.633  1.3879 -0.6996 -1.1711
  629SOL     OW 1885   0.555   3.085   1.662  0.4005 -0.4130 -0.6055
  629SOL    HW1 1886   0.657   3.062   1.670  2.0027 -0.6985 -0.0011
  629SOL    HW2 1887   0.523   3.052   1.569  0.0388  1.9477 -0.4972
  630SOL     OW 1888   2.295   0.937   2.070 -0.4301 -0.5595  0.7609
  630SOL    HW1 1889   2.255   1.028   2.042 -1.0733  2.8273 -2.0527
  630SOL    HW2 1890   2.232   0.859   2.045  1.7730  1.6538 -2.2302
  631SOL     OW 1891   1.899   0.238   0.608 -0.1081 -0.3863 -0.2801
  631SOL    HW1 1892   1.929   0.214   0.701  1.5756  0.1983  0.8496
  631SOL    HW2 1893   1.803   0.203   0.582  0.1098  3.9498 -0.5313
  632SOL     OW 1894   0.120   0.595   1.518  0.5008  0.9893 -0.5717
  632SOL    HW1 1895   0.022   0.565   1.519  0.2131 -0.1146 -0.1869
  632SOL    HW2 1896   0.120   0.692   1.541  1.0133  0.7340 -1.8758
  633SOL     OW 1897   0.744   0.414   0.102  0.1921  0.0234  0.3763
  633SOL    HW1 1898   0.706   0.390   0.011 -0.0117 -0.9474 -3.4399
  633SOL    HW2 1899   0.769   0.327   0.149 -0.6233  0.4669 -0.2236
  634SOL     OW 1900   0.676   2.447   3.048 -0.2997  0.2594  0.0002
  634SOL    HW1 1901   0.715   2.541   3.052  1.5718 -1.3298 -1.9773
  634SOL    HW2 1902   0.749   2.373   3.046 -1.1075  0.6929  1.1134
  635SOL     OW 1903   0.135   0.613   0.545  0.5026 -0.3016 -0.2541
  635SOL    HW1 1904   0.081   0.573   0.471  0.5899  0.8113 -0.0252
  635SOL    HW2 1905   0.214   0.663   0.507  0.2068  0.3532  1.4282
  636SOL     OW 1906   0.539   1.325   0.236 -0.3825  0.4127 -0.1919
  636SOL    HW1 1907   0.547   1.299   0.137 -0.0641  1.4310 -1.0260
  636SOL    HW2 1908   0.548   1.426   0.257 -2.6230  2.4255 -2.1512
  637SOL     OW 1909   0.325   2.729   0.520  0.1274 -0.6226 -0.2716
  637SOL    HW1 1910   0.310   2.627   0.527 -0.5442 -0.3253 -2.6457
  637SOL    HW2 1911   0.233   2.769   0.513  1.6631  0.4536 -1.3156
  638SOL     OW 1912   2.775   2.571   0.584  0.4120  0.3584  0.4337
  638SOL    HW1 1913   2.746   2.474   0.556  0.1491 -1.4919  0.5236
  638SOL    HW2 1914   2.879   2.580   0.590  1.7538  2.2858  2.2076
  639SOL     OW 1915   1.861   0.850   0.058  0.3912 -0.3608 -0.1170
  639SOL    HW1 1916   1.822   0.812   3.087  1.3214  1.7062 -1.4679
  639SOL    HW2 1917   1.889   0.947   0.047 -0.1774 -1.1523  0.1526
  640SOL     OW 1918   1.612   2.271   1.561  0.1461  0.6410  0.7377
  640SOL    HW1 1919   1.554   2.334   1.506  0.6265  0.1928 -2.1640
  640SOL    HW2 1920   1.685   2.227   1.503  2.9703 -1.4067 -0.5240
  641SOL     OW 1921   0.030   2.716   0.948  0.6284  0.4683 -1.2608
  641SOL    HW1 1922   0.072   2.807   0.944 -0.3969 -3.6766  0.4302
  641SOL    HW2 1923   0.106   2.647   0.938 -1.6746 -2.8911  0.0158
  642SOL     OW 1924   1.049   0.355   1.777  0.3248  0.3008  0.2608
  642SOL    HW1 1925   1.017   0.357   1.677 -1.0271  1.7190  0.0153
  642SOL    HW2 1926   1.138   0.312   1.793  1.9849 -1.0154  1.1098
  643SOL     OW 1927   0.947   2.412   2.761 -0.0461  0.0791 -0.1830
  643SOL    HW1 1928   0.979   2.382   2.667 -1.7918  1.1641  0.7869
  643SOL    HW2 1929   1.016   2.465   2.813 -2.2531  0.0692  0.4651
  644SOL     OW 1930   1.392   2.572   0.753  0.7766 -1.2933  0.2830
  644SOL    HW1 1931   1.373   2.479   0.713  0.2681 -1.1474 -0.5960
  644SOL    HW2 1932   1.309   2.620   0.786  0.9379  0.8352  1.3753
  645SOL     OW 1933   1.616   1.213   1.789 -0.1355  0.1975  0.1197
  645SOL    HW1 1934   1.700   1.274   1.804  2.8850 -1.1265  0.1187
  645SOL    HW2 1935   1.623   1.138   1.723 -0.7125  0.2657  1.8690
  646SOL     OW 1936   0.425   0.576   0.105  0.2534  0.6422 -0.3417
  646SOL    HW1 1937   0.404   0.477   0.123 -1.2324  1.4125 -1.3655
  646SOL    HW2 1938   0.411   0.623   0.195  0.8796 -0.8472  0.4558
  647SOL     OW 1939   1.090   0.203   0.472 -0.4681 -0.6016  0.2308
  647SOL    HW1 1940   1.173   0.251   0.443 -0.5820  3.0987  2.7835
  647SOL    HW2 1941   1.092   0.103   0.453  0.5507 -3.5665  1.1941
  648SOL     OW 1942   2.407   2.901   1.373 -1.0643 -0.3852  0.4318
  648SOL    HW1 1943   2.464   2.835   1.320  1.7800 -1.7381 -0.3755
  648SOL    HW2 1944   2.314   2.860   1.394 -1.7448  0.2754 -0.0248
  649SOL     OW 1945   0.561   1.874   3.089 -0.1502  0.9434  0.1343
  649SOL    HW1 1946   0.492   1.874   3.011 -3.7634 -0.4813 -1.7999
  649SOL    HW2 1947   0.538   1.951   0.035  1.1022 -1.6250 -1.3674
  650SOL     OW 1948   2.177   2.041   1.865  0.7945 -0.0190  0.0680
  650SOL    HW1 1949   2.108   2.105   1.831  1.2276 -1.3469 -0.0747
  650SOL    HW2 1950   2.142   1.993   1.950  1.4793 -0.7520  3.1108
  651SOL     OW 1951   3.079   3.092   2.780 -0.6868  0.4846 -0.0151
  651SOL    HW1 1952   3.051   2.995   2.798 -2.9871 -0.2415  1.5444
  651SOL    HW2 1953   3.029   0.014   2.699 -2.0353 -0.9695 -0.1325
  652SOL     OW 1954   2.778   1.568   0.534  0.2471 -0.1387  0.4022
  652SOL    HW1 1955   2.765   1.601   0.632  1.5592  1.5370  3.1605
  652SOL    HW2 1956   2.778   1.466   0.535  1.2791  0.1569  0.9197
  653SOL     OW 1957   0.229   0.293   0.906 -0.0828 -0.1505 -0.1193
  653SOL    HW1 1958   0.253   0.391   0.888 -0.8732 -3.0036  2.4001
  653SOL    HW2 1959   0.298   0.254   0.969 -1.9632  2.5784 -0.2710
  654SOL     OW 1960   0.946   0.187   0.152  0.5816 -0.5143  0.1074
  654SOL    HW1 1961   1.040   0.158   0.123  1.2852 -1.8522  1.2637
  654SOL    HW2 1962   0.891   0.107   0.187 -0.7900 -0.3850  0.4766
  655SOL     OW 1963   0.466   2.876   1.089 -0.6875  0.0583  0.2910
  655SOL    HW1 1964   0.513   2.966   1.069  1.0703 -0.1509 -4.5166
  655SOL    HW2 1965   0.374   2.881   1.123  2.1569 -2.2037  1.4018
  656SOL     OW 1966   0.177   2.880   2.098  0.0168  0.5978  0.3174
  656SOL    HW1 1967   0.179   2.978   2.074 -0.7159  1.1564  3.1532
  656SOL    HW2 1968   0.205   2.821   2.015 -0.9610 -0.0553 -3.1832
  657SOL     OW 1969   1.944   0.665   2.382 -0.1167  0.1052  0.1018
  657SOL    HW1 1970   1.919   0.712   2.467  2.2556 -0.4578 -1.4876
  657SOL    HW2 1971   2.039   0.624   2.389 -1.1184  1.4162  0.4827
  658SOL     OW 1972   1.866   1.548   1.119 -0.5366 -0.5929  0.4487
  658SOL    HW1 1973   1.899   1.633   1.075  1.5643 -0.3844 -1.5331
  658SOL    HW2 1974   1.936   1.521   1.190  0.7876  0.7780 -2.5481
  659SOL     OW 1975   2.524   2.545   2.757  0.3896 -0.2010 -0.4088
  659SOL    HW1 1976   2.624   2.568   2.765  0.2197  0.2819  2.6627
  659SOL    HW2 1977   2.500   2.486   2.677 -2.3665  0.1139 -0.4627
  660SOL     OW 1978   1.368   0.724   0.405 -0.4035  0.2396  0.4216
  660SOL    HW1 1979   1.370   0.779   0.488 -1.8983 -0.3698 -0.8736
  660SOL    HW2 1980   1.424   0.642   0.418 -2.9666  3.9851  1.4500
  661SOL     OW 1981   2.487   2.907   0.456 -0.2265 -0.6462 -0.3503
  661SOL    HW1 1982   2.528   2.864   0.535  0.3332  0.9201 -0.3999
  661SOL    HW2 1983   2.558   2.965   0.408  0.3177 -2.1757  1.9694
  662SOL     OW 1984   0.797   0.179   1.095  0.1530 -0.0658  0.6982
  662SOL    HW1 1985   0.778   0.269   1.056  0.8061 -0.5350  1.4776
  662SOL    HW2 1986   0.890   0.139   1.069 -2.0615 -1.9879 -0.3729
  663SOL     OW 1987   1.483   2.759   2.503  0.3637  0.1097 -0.4198
  663SOL    HW1 1988   1.564   2.819   2.485 -1.0433 -0.8124 -0.8844
  663SOL    HW2 1989   1.504   2.665   2.533 -3.2786  0.6747  0.8471
  664SOL     OW 1990   0.678   2.261   1.740 -0.3534  0.2562 -0.3034
  664SOL    HW1 1991   0.736   2.182   1.773  0.6778 -0.6116  1.0560
  664SOL    HW2 1992   0.583   2.234   1.704  0.1755  0.0480  0.9704
  665SOL     OW 1993   1.005   2.304   1.815  0.2436  0.0735  0.2935
  665SOL    HW1 1994   0.932   2.233   1.819  0.3272  1.8278  0.0348
  665SOL    HW2 1995   1.058   2.283   1.730 -1.8629 -1.0049 -1.6848
  666SOL     OW 1996   0.164   2.801   0.023  0.1059  0.0980 -0.1699
  666SOL    HW1 1997   0.198   2.878   3.081  1.1789 -0.5235  0.3053
  666SOL    HW2 1998   0.069   2.772   3.109  1.8907  0.9773 -0.2963
  667SOL     OW 1999   1.437   1.585   1.355 -0.1409  0.5005 -0.2391
  667SOL    HW1 2000   1.385   1.615   1.441 -2.4126 -0.7354  0.9625
  667SOL    HW2 2001   1.465   1.661   1.295 -1.7081  1.1048  1.6797
  668SOL     OW 2002   1.227   0.289   2.289  0.1117 -0.2769  0.0918
  668SOL    HW1 2003   1.297   0.307   2.359 -2.0547  0.6447 -0.5828
  668SOL    HW2 2004   1.181   0.377   2.265 -0.4835  0.5901 -0.8072
  669SOL     OW 2005   2.525   2.316   1.649  0.0144 -0.1158 -0.3174
  669SOL    HW1 2006   2.425   2.307   1.641 -3.1012  1.4475 -2.6342
  669SOL    HW2 2007   2.569   2.324   1.742  0.1321  1.7391  0.9689
  670SOL     OW 2008   1.743   1.988   0.152 -0.1825 -0.1146 -0.0435
  670SOL    HW1 2009   1.665   1.954   0.206  0.8411  2.6669 -1.9606
  670SOL    HW2 2010   1.748   2.090   0.164  0.2334  2.3568  0.3848
  671SOL     OW 2011   1.341   0.806   1.114 -0.2119  0.5537 -0.3559
  671SOL    HW1 2012   1.371   0.774   1.208 -1.6618 -2.0305 -0.2342
  671SOL    HW2 2013   1.356   0.910   1.105  2.5752  2.4306 -1.2523
  672SOL     OW 2014   2.636   1.334   2.512  0.3882  0.1957  0.0995
  672SOL    HW1 2015   2.607   1.371   2.422  1.7769  1.8188  0.0534
  672SOL    HW2 2016   2.716   1.382   2.549 -1.3547 -0.5250  0.4105
  673SOL     OW 2017   3.054   1.683   1.499 -0.2337  0.4556 -0.0183
  673SOL    HW1 2018   2.955   1.678   1.521  1.4606 -0.1441  0.8992
  673SOL    HW2 2019   3.077   1.747   1.423  0.0400  0.1928 -0.7401
  674SOL     OW 2020   1.062   2.691   2.335  0.3567  0.6803  0.4063
  674SOL    HW1 2021   1.121   2.748   2.394  0.9787 -1.0683  1.3553
  674SOL    HW2 2022   0.967   2.688   2.378 -0.6993  1.1601  0.9086
  675SOL     OW 2023   0.888   1.255   1.632 -0.1974  0.1423  0.0596
  675SOL    HW1 2024   0.904   1.170   1.574  0.1589 -1.4397  0.4824
  675SOL    HW2 2025   0.788   1.280   1.636  1.2888  3.7967 -0.1483
  676SOL     OW 2026   2.354   0.446   0.795 -0.4117  0.5763 -0.3697
  676SOL    HW1 2027   2.335   0.475   0.702 -0.0925  0.8893  5.7349
  676SOL    HW2 2028   2.444   0.489   0.823  0.3599  1.1519 -0.8501
  677SOL     OW 2029   2.541   1.561   2.976  0.1427 -0.5287 -0.2386
  677SOL    HW1 2030   2.572   1.470   2.946  0.3922  0.4689 -0.5021
  677SOL    HW2 2031   2.561   1.633   2.908 -1.5050 -2.8930  2.6337
  678SOL     OW 2032   0.185   0.128   1.310 -0.0583 -0.0100  0.1202
  678SOL    HW1 2033   0.116   0.073   1.259 -0.5966 -1.4696 -2.9893
  678SOL    HW2 2034   0.160   0.124   1.414 -1.5507 -2.9594  1.0626
  679SOL     OW 2035   2.305   0.249   0.176 -0.0796 -0.2120 -0.1048
  679SOL    HW1 2036   2.253   0.197   0.104 -1.1562 -1.1871  1.6543
  679SOL    HW2 2037   2.296   0.195   0.264  1.2335  0.6124  1.6444
  680SOL     OW 2038   0.211   2.291   1.784  0.3085 -0.5023  0.5846
  680SOL    HW1 2039   0.211   2.374   1.726  0.4486 -0.1924  1.6285
  680SOL    HW2 2040   0.183   2.313   1.881 -1.4165  1.8337  2.4032
  681SOL     OW 2041   2.112   1.839   1.316  0.1818  0.4917  0.2999
  681SOL    HW1 2042   2.046   1.915   1.311  0.2244 -2.5951  1.0699
  681SOL    HW2 2043   2.196   1.861   1.262  0.4076 -1.9971 -0.8763
  682SOL     OW 2044   2.990   2.218   1.911 -0.2083 -0.7698  0.4137
  682SOL    HW1 2045   2.929   2.211   1.830 -4.0060  0.9911 -0.7440
  682SOL    HW2 2046   3.063   2.146   1.905  0.5433 -0.9441 -0.0497
  683SOL     OW 2047   2.946   2.207   1.126  0.3665 -0.4108  0.3306
  683SOL    HW1 2048   2.971   2.260   1.207 -0.1239 -2.0356 -3.0585
  683SOL    HW2 2049   2.850   2.169   1.135 -2.3943 -0.8309  0.1775
  684SOL     OW 2050   2.442   0.748   2.573  1.1747  0.2827 -0.4453
  684SOL    HW1 2051   2.432   0.826   2.511  0.3213  1.1022 -1.5057
  684SOL    HW2 2052   2.514   0.764   2.642 -0.6033  1.3612 -1.4117
  685SOL     OW 2053   1.305   1.349   0.579  0.4144  0.3838  0.1810
  685SOL    HW1 2054   1.320   1.271   0.646  2.4182 -1.0574  3.4066
  685SOL    HW2 2055   1.390   1.381   0.536 -0.5091 -1.0672 -0.8825
  686SOL     OW 2056   0.178   0.091   0.376 -0.6375  0.3305  0.2452
  686SOL    HW1 2057   0.204   0.011   0.316  0.4887  1.8788 -1.9823
  686SOL    HW2 2058   0.235   0.095   0.459 -0.7900 -3.7674 -3.4027
  687SOL     OW 2059   1.572   1.312   2.728 -0.3135 -0.0860  0.3883
  687SOL    HW1 2060   1.539   1.408   2.729  0.3336  1.5824  0.3747
  687SOL    HW2 2061   1.624   1.283   2.646  0.2405 -1.3521 -1.0867
  688SOL     OW 2062   1.517   1.359   1.518 -0.0271  0.4957  0.0575
  688SOL    HW1 2063   1.607   1.372   1.559 -0.6133 -3.3184 -0.3523
  688SOL    HW2 2064   1.491   1.436   1.461 -1.2451 -1.1412  0.5871
  689SOL     OW 2065   2.328   0.217   1.449  0.3483  0.4057  0.3771
  689SOL    HW1 2066   2.299   0.309   1.406  0.0666  3.3628 -1.7598
  689SOL    HW2 2067   2.341   0.147   1.373  0.1144  0.2670 -3.0299
  690SOL     OW 2068   0.024   1.392   1.072  0.4549 -0.6147  0.1865
  690SOL    HW1 2069   3.033   1.370   1.076  1.0509  0.0851  0.7998
  690SOL    HW2 2070   0.077   1.320   1.115  0.7541  1.2916  0.5084
  691SOL     OW 2071   0.439   2.473   1.286 -0.0336 -0.1921 -0.0380
  691SOL    HW1 2072   0.519   2.490   1.225 -2.3152 -1.5662 -0.3304
  691SOL    HW2 2073   0.361   2.538   1.273 -1.0313  1.4355 -2.2741
  692SOL     OW 2074   2.449   0.650   1.908 -0.2580 -0.1553  0.4604
  692SOL    HW1 2075   2.552   0.668   1.892 -0.1649 -2.8465  1.1101
  692SOL    HW2 2076   2.433   0.579   1.982  2.3128  0.0958  0.7617
  693SOL     OW 2077   0.323   1.630   2.083 -0.3995 -0.2641  0.1868
  693SOL    HW1 2078   0.422   1.616   2.102  1.0627 -0.2408 -1.2165
  693SOL    HW2 2079   0.272   1.661   2.168 -1.4624  1.4658  1.4532
  694SOL     OW 2080   1.673   1.135   1.302 -0.2275  0.4736 -0.4967
  694SOL    HW1 2081   1.770   1.174   1.334  2.4668 -0.7853  1.8305
  694SOL    HW2 2082   1.622   1.098   1.383 -2.8092  2.7569 -1.8106
  695SOL     OW 2083   0.757   1.404   0.863 -0.2716  0.0829  0.1380
  695SOL    HW1 2084   0.783   1.323   0.912 -1.1481  1.0477 -2.3771
  695SOL    HW2 2085   0.704   1.380   0.779 -0.8916 -0.4322 -2.8049
  696SOL     OW 2086   1.169   2.798   0.392 -0.6780  0.4170 -0.5515
  696SOL    HW1 2087   1.121   2.729   0.441  0.9839  0.1154 -0.1594
  696SOL    HW2 2088   1.270   2.786   0.408 -0.7069 -0.1237  0.7812
  697SOL     OW 2089   1.336   0.480   1.828  0.2990 -0.3576 -0.0841
  697SOL    HW1 2090   1.429   0.485   1.793 -0.4465  0.6959 -2.5189
  697SOL    HW2 2091   1.339   0.488   1.930 -2.2226 -1.4805  1.8544
  698SOL     OW 2092   1.781   1.399   2.085 -0.2386 -0.0253 -0.0900
  698SOL    HW1 2093   1.847   1.466   2.127  1.5351 -1.2519 -0.6513
  698SOL    HW2 2094   1.724   1.441   2.008 -2.0207  2.5187 -0.7853
  699SOL     OW 2095   2.677   0.297   2.046  0.4450 -0.7249 -0.2415
  699SOL    HW1 2096   2.617   0.355   2.108  1.7525 -0.0816 -1.3548
  699SOL    HW2 2097   2.659   0.199   2.061 -0.1304 -1.4031  0.7038
  700SOL     OW 2098   0.869   2.368   0.626 -0.4174  0.3578 -0.0106
  700SOL    HW1 2099   0.845   2.456   0.580  0.8783 -1.6818  1.0346
  700SOL    HW2 2100   0.854   2.292   0.560 -0.4313  1.4886 -1.4784
  701SOL     OW 2101   2.080   2.906   2.706  0.1253 -0.1516 -0.1484
  701SOL    HW1 2102   1.981   2.886   2.704  1.3311  1.1409 -2.1793
  701SOL    HW2 2103   2.101   2.980   2.773  0.0370  0.9153 -0.7987
  702SOL     OW 2104   1.014   0.058   0.992 -0.2479  0.0409 -0.1430
  702SOL    HW1 2105   1.106   0.017   1.015  1.4532  0.3884 -2.5180
  702SOL    HW2 2106   1.011   0.073   0.890  0.3735 -0.0525 -2.5719
  703SOL     OW 2107   2.371   2.956   2.147  0.0295 -0.5595 -0.5990
  703SOL    HW1 2108   2.324   3.043   2.182 -0.4038 -0.8702  2.0677
  703SOL    HW2 2109   2.392   2.895   2.223 -1.2991  0.8815  0.3191
  704SOL     OW 2110   2.757   2.313   0.515 -0.1610 -0.5447  0.0219
  704SOL    HW1 2111   2.780   2.283   0.611 -1.2201  0.2529  0.6104
  704SOL    HW2 2112   2.674   2.269   0.478 -0.2398  3.1359  1.5523
  705SOL     OW 2113   2.405   2.827   2.387  0.5217 -0.9134  0.4826
  705SOL    HW1 2114   2.314   2.866   2.426 -0.7018  2.0695  2.2420
  705SOL    HW2 2115   2.422   2.734   2.409  2.1587  2.6571 -0.7699
  706SOL     OW 2116   2.344   0.019   1.270  0.0993 -0.2183 -0.1632
  706SOL    HW1 2117   2.362   0.006   1.166 -0.1480 -0.3315 -0.9677
  706SOL    HW2 2118   2.371   3.049   1.319  0.1345  0.7174 -0.8192
  707SOL     OW 2119   1.060   2.965   2.408  0.7830 -0.2051 -0.2123
  707SOL    HW1 2120   1.083   3.037   2.337  0.4616  1.3420 -2.0084
  707SOL    HW2 2121   0.962   2.934   2.409  2.4006 -1.3410 -2.2812
  708SOL     OW 2122   3.101   2.090   1.485  0.8240 -0.2325 -0.0165
  708SOL    HW1 2123   0.080   2.098   1.439  0.0704 -0.7608  0.5192
  708SOL    HW2 2124   3.080   1.990   1.484  4.1169  0.5544  1.6992
  709SOL     OW 2125   1.607   0.440   1.482 -0.2136  0.1980 -0.2124
  709SOL    HW1 2126   1.648   0.492   1.402  0.5126  3.7429 -2.0730
  709SOL    HW2 2127   1.596   0.340   1.461  0.9098 -0.6908 -0.6235
  710SOL     OW 2128   0.785   2.959   2.489 -0.0167  0.0998 -0.0408
  710SOL    HW1 2129   0.852   2.970   2.565 -1.8898  0.7874  0.7853
  710SOL    HW2 2130   0.761   3.045   2.438  1.1028  2.4499 -0.3687
  711SOL     OW 2131   1.016   2.030   2.417  0.2567 -0.2964  0.0496
  711SOL    HW1 2132   1.015   2.132   2.443  0.1360 -0.4807 -0.3828
  711SOL    HW2 2133   0.942   2.013   2.351  1.7630  0.1012  1.2842
  712SOL     OW 2134   0.981   2.063   0.015  0.3346  0.6378 -0.5828
  712SOL    HW1 2135   1.001   2.015   3.042  2.6416 -1.1437  0.9217
  712SOL    HW2 2136   1.060   2.047   0.080 -0.7948 -1.0407  3.2922
  713SOL     OW 2137   1.920   1.137   2.062  0.3346 -0.2012 -0.0545
  713SOL    HW1 2138   1.865   1.201   2.116 -1.6661 -0.5650  1.0807
  713SOL    HW2 2139   1.931   1.048   2.114 -2.3695  0.1372 -0.1674
  714SOL     OW 2140   0.968   1.787   1.894  0.1424 -0.1813  0.1120
  714SOL    HW1 2141   1.003   1.828   1.806  0.3947  1.3692 -1.3655
  714SOL    HW2 2142   0.984   1.686   1.889 -3.4294 -2.0136  0.9300
  715SOL     OW 2143   2.399   0.529   0.193  0.2838 -0.4377  0.9839
  715SOL    HW1 2144   2.355   0.435   0.171 -0.4367  1.3105 -0.9490
  715SOL    HW2 2145   2.328   0.582   0.247 -0.5954  2.1514 -2.2840
  716SOL     OW 2146   2.683   2.451   1.319 -0.9674 -0.5505  0.0570
  716SOL    HW1 2147   2.721   2.465   1.410 -0.3987 -1.4732 -1.9894
  716SOL    HW2 2148   2.633   2.361   1.318 -4.7344  0.7442 -0.3512
  717SOL     OW 2149   2.634   1.286   1.152 -0.7117  0.1649  0.3734
  717SOL    HW1 2150   2.538   1.279   1.187 -3.1512  0.9963 -1.2782
  717SOL    HW2 2151   2.660   1.202   1.103 -1.6186 -0.9871  1.6825
  718SOL     OW 2152   1.317   1.607   1.618  0.2385 -0.6006 -0.0686
  718SOL    HW1 2153   1.375   1.529   1.652  2.1681  0.3105  3.1160
  718SOL    HW2 2154   1.223   1.581   1.646  1.3442 -1.9598 -1.0416
  719SOL     OW 2155   2.847   0.563   0.050 -0.4117 -0.3451 -0.4251
  719SOL    HW1 2156   2.860   0.607   3.076 -1.5525  0.6636  3.4208
  719SOL    HW2 2157   2.915   0.487   0.054 -3.0124 -0.8014 -1.7962
  720SOL     OW 2158   1.047   0.193   0.744  0.7089  1.0350  0.4038
  720SOL    HW1 2159   1.091   0.191   0.649  0.5668  1.4018  1.4341
  720SOL    HW2 2160   0.956   0.241   0.728 -0.0110  0.0026  0.3662
  721SOL     OW 2161   2.566   0.697   0.531 -0.2061  0.6244 -0.0620
  721SOL    HW1 2162   2.627   0.638   0.474  0.1312 -0.1169 -0.2861
  721SOL    HW2 2163   2.616   0.777   0.564 -1.1410 -0.7026 -0.8743
  722SOL     OW 2164   0.575   2.384   2.393 -0.2618 -0.4436 -0.0740
  722SOL    HW1 2165   0.620   2.386   2.485 -1.0521 -1.2083 -2.0726
  722SOL    HW2 2166   0.507   2.310   2.398 -0.2682  2.0511 -0.6203
  723SOL     OW 2167   1.837   3.071   1.164 -0.0829  0.1645  0.2250
  723SOL    HW1 2168   1.794   0.032   1.113 -0.4644  0.4992 -0.8590
  723SOL    HW2 2169   1.925   3.103   1.204 -1.9261 -0.0224  0.0304
  724SOL     OW 2170   1.179   1.782   2.375 -0.6625  0.0169 -0.1502
  724SOL    HW1 2171   1.155   1.735   2.290  5.0570 -0.5865  0.1323
  724SOL    HW2 2172   1.130   1.867   2.385  0.5193 -0.8962 -1.5207
  725SOL     OW 2173   1.379   2.815   1.367 -0.0902  0.0584  0.2798
  725SOL    HW1 2174   1.365   2.886   1.439 -2.0598 -2.0015  1.7588
  725SOL    HW2 2175   1.471   2.821   1.324 -0.1496  0.5971  0.0473
  726SOL     OW 2176   2.227   2.830   0.208 -0.4307 -0.3421 -0.0467
  726SOL    HW1 2177   2.166   2.804   0.130  0.2143  0.6809  1.1598
  726SOL    HW2 2178   2.240   2.754   0.273  0.4994  0.3506 -2.2978
  727SOL     OW 2179   1.316   1.703   0.902  0.8445 -0.4748 -0.2121
  727SOL    HW1 2180   1.320   1.806   0.892  2.5450 -0.1322 -1.3257
  727SOL    HW2 2181   1.407   1.659   0.884  2.2375 -1.2087 -0.1502
  728SOL     OW 2182   2.136   2.802   2.046 -0.2198  0.6228  0.2329
  728SOL    HW1 2183   2.170   2.902   2.040  0.1554  2.5062  0.4678
  728SOL    HW2 2184   2.213   2.747   2.007 -0.4422  0.3327  0.1765
  729SOL     OW 2185   1.884   2.383   1.348  0.1487 -0.1708 -0.2170
  729SOL    HW1 2186   1.795   2.434   1.354  0.2147  0.6297  0.1142
  729SOL    HW2 2187   1.956   2.406   1.415 -0.6885  2.9209 -1.0296
  730SOL     OW 2188   1.808   0.827   2.588  0.1487  0.1433 -0.2258
  730SOL    HW1 2189   1.724   0.863   2.541  0.1903  0.1631  0.5162
  730SOL    HW2 2190   1.870   0.898   2.625  0.7583  0.4102  0.9689
  731SOL     OW 2191   0.918   2.973   1.342 -0.2769 -0.4257 -0.3823
  731SOL    HW1 2192   0.985   2.917   1.395 -0.0957 -0.0396 -0.8084
  731SOL    HW2 2193   0.878   2.924   1.260  0.8132 -0.2643  0.2447
  732SOL     OW 2194   1.328   2.997   0.712 -0.6782  0.1673 -0.1466
  732SOL    HW1 2195   1.331   3.091   0.666  1.8359 -0.0179 -3.2203
  732SOL    HW2 2196   1.413   2.992   0.770  1.0190  1.2413 -0.0819
  733SOL     OW 2197   1.344   1.133   0.746  0.0371  0.0641  0.3345
  733SOL    HW1 2198   1.433   1.186   0.766  1.2225 -0.0253 -1.1558
  733SOL    HW2 2199   1.365   1.042   0.711  0.2113 -0.9285  0.1105
  734SOL     OW 2200   2.544   2.373   2.537 -0.2090  0.0378  0.2329
  734SOL    HW1 2201   2.640   2.367   2.502  0.6813 -1.1401 -0.6904
  734SOL    HW2 2202   2.502   2.278   2.530 -0.6571 -3.4385  3.4093
  735SOL     OW 2203   0.637   3.084   1.050  0.5898 -0.4905 -0.1014
  735SOL    HW1 2204   0.704   3.009   1.071  0.3162  1.9378  1.5332
  735SOL    HW2 2205   0.684   0.058   1.074  0.3984 -0.2356  2.0169
  736SOL     OW 2206   1.442   2.282   2.839 -0.1937 -0.8472 -0.0506
  736SOL    HW1 2207   1.413   2.276   2.936  0.8974  0.0116  0.5244
  736SOL    HW2 2208   1.400   2.204   2.785 -0.5569 -0.7101 -0.2546
  737SOL     OW 2209   0.642   2.097   1.350 -0.7103  0.2226 -0.0048
  737SOL    HW1 2210   0.561   2.140   1.389  0.9562 -0.6129 -1.4765
  737SOL    HW2 2211   0.713   2.079   1.424  1.2475  1.9839 -1.2923
  738SOL     OW 2212   1.304   2.871   2.916  0.2114  0.0769  0.2477
  738SOL    HW1 2213   1.219   2.926   2.908 -0.8552  0.0416 -0.8558
  738SOL    HW2 2214   1.348   2.872   3.009 -0.7857  0.8526  1.2309
  739SOL     OW 2215   0.894   2.146   2.064  0.0463 -0.0440 -0.1249
  739SOL    HW1 2216   0.988   2.195   2.072  0.2256 -1.4149 -0.1275
  739SOL    HW2 2217   0.822   2.196   2.120  1.0650 -2.4779 -2.2487
  740SOL     OW 2218   1.414   2.372   1.386 -0.6587 -0.0593  0.0802
  740SOL    HW1 2219   1.368   2.334   1.305  1.0896 -0.3423 -0.5519
  740SOL    HW2 2220   1.364   2.446   1.427  0.9608 -0.1786 -2.6252
  741SOL     OW 2221   2.802   1.080   0.161  0.5833 -0.0092 -0.5521
  741SOL    HW1 2222   2.742   1.010   0.205 -0.6864 -0.1395 -0.2894
  741SOL    HW2 2223   2.774   1.170   0.205  0.9025  0.3015 -0.1229
  742SOL     OW 2224   0.810   1.665   2.250  0.3482  0.5698  0.1293
  742SOL    HW1 2225   0.793   1.760   2.231  1.2219 -1.6156 -2.2694
  742SOL    HW2 2226   0.750   1.599   2.201  2.5508  0.6732  1.3039
  743SOL     OW 2227   0.448   1.003   2.732  0.1329  0.6576 -0.4595
  743SOL    HW1 2228   0.547   0.990   2.757  2.0456 -3.4080 -0.2296
  743SOL    HW2 2229   0.401   0.910   2.725 -0.7544  0.7527 -0.0757
  744SOL     OW 2230   2.243   2.437   1.205 -0.3060 -0.0025 -0.5015
  744SOL    HW1 2231   2.304   2.488   1.137 -2.1578  1.0222 -1.1289
  744SOL    HW2 2232   2.236   2.478   1.296 -0.2869 -0.3259 -1.0000
  745SOL     OW 2233   2.136   1.410   1.470 -0.2115  0.7730  0.6970
  745SOL    HW1 2234   2.070   1.340   1.458 -0.7072 -1.5816 -0.2137
  745SOL    HW2 2235   2.123   1.479   1.400  0.9841 -0.4050  1.6204
  746SOL     OW 2236   2.043   1.003   1.104 -0.0074 -0.5144 -0.7724
  746SOL    HW1 2237   2.113   1.061   1.061  1.4555 -1.1910  3.3446
  746SOL    HW2 2238   1.948   1.036   1.087 -1.2813  1.0851  0.8942
  747SOL     OW 2239   1.817   1.694   0.719  0.8450  0.5335  0.4034
  747SOL    HW1 2240   1.808   1.719   0.616  1.5488 -1.2535 -5.4906
  747SOL    HW2 2241   1.830   1.588   0.729  1.5326 -2.3956 -0.5287
  748SOL     OW 2242   0.496   1.532   0.570  0.2506  0.2148 -0.2879
  748SOL    HW1 2243   0.525   1.616   0.615  0.7536 -1.9315  1.3777
  748SOL    HW2 2244   0.497   1.545   0.468 -0.2128  0.2802 -3.3141
  749SOL     OW 2245   2.960   2.885   2.468 -0.3067 -0.1501 -0.1658
  749SOL    HW1 2246   2.864   2.855   2.455  2.7959 -1.0769 -1.8151
  749SOL    HW2 2247   3.009   2.836   2.540  0.2933  0.9712 -2.1934
  750SOL     OW 2248   2.022   0.370   1.056  0.0684  0.4710 -0.2932
  750SOL    HW1 2249   2.041   0.438   0.982 -2.6147  1.5944  1.5729
  750SOL    HW2 2250   2.102   0.350   1.115  0.5576 -3.5880 -0.0821
  751SOL     OW 2251   2.272   0.099   0.385  0.5094  0.1959 -0.2132
  751SOL    HW1 2252   2.301   0.020   0.324  2.2040 -1.2851 -2.0695
  751SOL    HW2 2253   2.183   0.079   0.441 -1.0390 -1.7039 -0.9857
  752SOL     OW 2254   1.930   2.043   0.519 -0.1485  0.0751 -0.0107
  752SOL    HW1 2255   2.029   2.048   0.498 -1.2992  0.4723 -1.2795
  752SOL    HW2 2256   1.895   1.951   0.497  0.4781  0.8334  0.5938
  753SOL     OW 2257   1.780   1.767   2.409 -0.3995 -0.4310  0.0722
  753SOL    HW1 2258   1.783   1.838   2.335 -2.3540 -0.0722 -1.2504
  753SOL    HW2 2259   1.776   1.810   2.504  0.8416 -1.5122 -1.4495
  754SOL     OW 2260   2.589   2.197   1.405  0.3459 -0.7781 -0.2391
  754SOL    HW1 2261   2.588   2.248   1.491  2.7271  1.0524 -2.6572
  754SOL    HW2 2262   2.490   2.180   1.376 -2.0604  2.0841  1.5173
  755SOL     OW 2263   2.428   0.792   0.992 -0.0624 -0.1182  0.4945
  755SOL    HW1 2264   2.401   0.749   1.080 -0.4758  0.1865 -3.6406
  755SOL    HW2 2265   2.470   0.721   0.936  1.4836 -2.0211  3.0594
  756SOL     OW 2266   1.263   1.472   2.722  0.2338 -0.6414  0.0482
  756SOL    HW1 2267   1.356   1.510   2.709 -0.0342 -1.0897 -1.3476
  756SOL    HW2 2268   1.256   1.378   2.682  0.0922  1.2019 -2.0549
  757SOL     OW 2269   1.996   2.641   1.316 -0.0885 -0.0506 -0.2042
  757SOL    HW1 2270   2.040   2.560   1.266  0.5999  0.3722 -0.3822
  757SOL    HW2 2271   1.962   2.713   1.251 -0.8405 -2.0185 -0.3552
  758SOL     OW 2272   1.120   2.179   1.451 -0.1345 -0.0255  0.0888
  758SOL    HW1 2273   1.173   2.153   1.371  0.8167 -0.3493  2.5682
  758SOL    HW2 2274   1.180   2.169   1.532 -1.6373 -0.3430 -1.1005
  759SOL     OW 2275   2.224   1.150   0.967 -0.3983  0.0983 -0.3290
  759SOL    HW1 2276   2.175   1.203   0.893 -0.4663 -0.1316  1.1708
  759SOL    HW2 2277   2.261   1.059   0.930  1.9969 -1.7629 -1.0247
  760SOL     OW 2278   2.125   0.880   1.333  0.0435  0.0966 -0.1491
  760SOL    HW1 2279   2.193   0.954   1.354 -0.4522  1.9729  1.6913
  760SOL    HW2 2280   2.064   0.905   1.257 -4.8270  1.6454 -1.2463
  761SOL     OW 2281   2.027   3.032   0.304 -0.8402 -0.0513 -0.0115
  761SOL    HW1 2282   2.062   3.072   0.397  2.1400 -0.0481  7.2872
  761SOL    HW2 2283   2.070   2.947   0.273 -4.0772  1.2540  0.1924
  762SOL     OW 2284   2.014   1.797   2.906  0.0144 -0.0210  0.0940
  762SOL    HW1 2285   1.955   1.874   2.878 -3.0450  3.5865 -1.3986
  762SOL    HW2 2286   2.054   1.814   2.999 -0.9860  2.8034  1.8063
  763SOL     OW 2287   0.555   1.162   1.194  0.4304  0.1097  0.2147
  763SOL    HW1 2288   0.524   1.264   1.203  0.2280  1.9891  1.1537
  763SOL    HW2 2289   0.557   1.135   1.096 -3.7053  2.1410  0.8651
  764SOL     OW 2290   2.722   2.500   0.116  0.0416 -0.0652  0.1292
  764SOL    HW1 2291   2.632   2.492   0.151 -1.1118 -0.6821  2.7770
  764SOL    HW2 2292   2.727   2.472   0.018 -1.1319  0.3758 -1.7445
  765SOL     OW 2293   0.723   2.974   2.035  0.8389 -0.1525 -0.2070
  765SOL    HW1 2294   0.802   3.035   2.035  0.8042 -2.2049 -0.2820
  765SOL    HW2 2295   0.647   3.028   2.075 -2.2735 -0.3371 -0.5629
  766SOL     OW 2296   3.103   2.115   2.297 -0.8261 -0.4813  0.3072
  766SOL    HW1 2297   3.002   2.115   2.279 -0.1838 -0.7081  1.0342
  766SOL    HW2 2298   0.028   2.027   2.265 -1.6185 -0.3377  0.3513
  767SOL     OW 2299   3.091   1.406   1.765 -0.3455 -0.0498  0.5959
  767SOL    HW1 2300   3.097   1.367   1.859 -0.4763 -0.1671 -0.7243
  767SOL    HW2 2301   0.019   1.498   1.763  0.5225  0.5330 -0.0129
  768SOL     OW 2302   1.123   0.780   2.771  0.3526 -0.1668 -0.3885
  768SOL    HW1 2303   1.073   0.763   2.858  0.9842 -0.4308  0.3383
  768SOL    HW2 2304   1.205   0.719   2.774  0.0143  0.2814 -1.5872
  769SOL     OW 2305   1.738   2.156   0.377 -0.4575  0.7638 -0.1240
  769SOL    HW1 2306   1.821   2.113   0.423 -1.2742 -2.2820 -0.0798
  769SOL    HW2 2307   1.762   2.220   0.303 -1.4741  1.3537  2.4567
  770SOL     OW 2308   2.832   0.186   0.177  0.2299 -0.1210  0.1763
  770SOL    HW1 2309   2.728   0.200   0.190 -3.0873 -1.7783 -0.7526
  770SOL    HW2 2310   2.878   0.158   0.259  0.1408  1.2102 -3.2323
  771SOL     OW 2311   1.559   2.252   1.824 -0.3763  0.1505 -0.0178
  771SOL    HW1 2312   1.566   2.240   1.723  0.0458 -0.9009  1.4791
  771SOL    HW2 2313   1.485   2.192   1.859  0.8774 -0.5120  0.4210
  772SOL     OW 2314   0.744   0.365   2.945 -0.0369 -0.2717 -0.1507
  772SOL    HW1 2315   0.663   0.408   2.906 -0.9960 -1.2371  0.4668
  772SOL    HW2 2316   0.821   0.364   2.874  0.7173 -0.8267 -0.2664
  773SOL     OW 2317   2.858   0.955   1.749  0.5121  0.1010 -0.0423
  773SOL    HW1 2318   2.918   0.933   1.669 -0.4036 -0.5489 -0.5396
  773SOL    HW2 2319   2.915   0.968   1.834  1.0214  0.1510  1.3519
  774SOL     OW 2320   1.630   1.095   0.272 -0.1833 -0.4814  0.0942
  774SOL    HW1 2321   1.583   1.149   0.199  0.4277 -0.5324 -2.7522
  774SOL    HW2 2322   1.721   1.130   0.291 -0.7197  1.6435  0.7657
  775SOL     OW 2323   2.419   3.041   0.172 -0.2685  0.2095 -0.6655
  775SOL    HW1 2324   2.508   3.046   0.220 -1.1363 -0.5914 -2.0928
  775SOL    HW2 2325   2.369   2.952   0.179 -0.9133 -1.3479  0.3558
  776SOL     OW 2326   2.387   0.940   2.374 -0.0517 -0.2891 -0.0425
  776SOL    HW1 2327   2.473   0.994   2.386  0.9163  1.2277  0.4844
  776SOL    HW2 2328   2.353   0.926   2.281 -0.6387  0.3847  1.4140
  777SOL     OW 2329   0.111   1.327   2.685 -0.2488  0.3626 -0.2407
  777SOL    HW1 2330   0.148   1.252   2.741 -0.4257  2.7294 -1.2969
  777SOL    HW2 2331   0.110   1.296   2.589 -1.7917 -2.0970  1.5144
  778SOL     OW 2332   0.617   0.142   0.425 -0.5093 -0.1891  0.3383
  778SOL    HW1 2333   0.697   0.208   0.423 -1.0462  0.6543  1.7615
  778SOL    HW2 2334   0.587   0.124   0.325 -2.1370  1.7358  0.6129
  779SOL     OW 2335   0.695   0.708   2.703  0.8254  0.0335 -0.2179
  779SOL    HW1 2336   0.708   0.808   2.698 -1.2365  1.5339  1.1150
  779SOL    HW2 2337   0.783   0.665   2.691 -5.2702 -0.7776  0.3976
  780SOL     OW 2338   1.990   0.882   2.197  0.4285 -0.1166 -0.4959
  780SOL    HW1 2339   2.042   0.937   2.263  0.4364 -0.7484  1.8482
  780SOL    HW2 2340   1.932   0.805   2.242 -1.5572 -3.5421  0.8595
  781SOL     OW 2341   3.017   0.993   1.957 -0.0854 -0.0055  0.1543
  781SOL    HW1 2342   3.108   1.030   1.926  0.8633 -0.9471 -0.0962
  781SOL    HW2 2343   2.993   1.040   2.043  3.4114  0.7205  1.6760
  782SOL     OW 2344   0.789   1.938   2.203 -0.6405  0.6201 -0.0700
  782SOL    HW1 2345   0.852   1.958   2.129  0.3480 -1.8604  0.4614
  782SOL    HW2 2346   0.691   1.968   2.185 -1.8952  0.5029 -0.1712
  783SOL     OW 2347   0.736   2.484   1.607 -0.1709 -0.2771 -0.4775
  783SOL    HW1 2348   0.723   2.396   1.654 -1.3037  1.4526 -0.8336
  783SOL    HW2 2349   0.778   2.470   1.511  0.3174  2.2211 -0.8072
  784SOL     OW 2350   1.267   0.320   2.796  0.2360  0.3329  0.4920
  784SOL    HW1 2351   1.282   0.297   2.698 -0.5454  1.1549 -0.1586
  784SOL    HW2 2352   1.295   0.413   2.814  0.3235  0.5817  1.9435
  785SOL     OW 2353   0.976   0.318   2.745 -0.3609  0.1980  0.2363
  785SOL    HW1 2354   1.080   0.311   2.755  1.1776  1.6360 -2.8077
  785SOL    HW2 2355   0.956   0.264   2.664  0.7024  3.4839  1.2842
  786SOL     OW 2356   0.411   1.965   0.367  0.3444 -0.2216  0.1625
  786SOL    HW1 2357   0.360   1.878   0.383  0.5270  2.2840 -0.6497
  786SOL    HW2 2358   0.466   1.989   0.447 -2.5847 -0.5527  0.6251
  787SOL     OW 2359   1.915   1.152   0.380 -0.3945 -0.7782  0.2666
  787SOL    HW1 2360   2.003   1.172   0.329  0.7677  2.1276 -2.0643
  787SOL    HW2 2361   1.906   1.051   0.400 -0.2014  0.5345  1.0856
  788SOL     OW 2362   1.737   1.718   1.530  0.0740 -0.3937 -0.5626
  788SOL    HW1 2363   1.688   1.744   1.444 -0.3953  2.0045 -2.0301
  788SOL    HW2 2364   1.798   1.799   1.554 -1.3343  3.6778 -0.0696
  789SOL     OW 2365   0.340   1.485   1.831 -0.7162  0.4981 -0.2361
  789SOL    HW1 2366   0.272   1.538   1.775  2.1944 -2.1962  3.2309
  789SOL    HW2 2367   0.340   1.513   1.928  0.1870 -2.1355 -0.7913
  790SOL     OW 2368   0.488   2.784   0.289  0.5403  0.1183  0.1438
  790SOL    HW1 2369   0.448   2.721   0.217  1.6463 -0.9083 -1.7592
  790SOL    HW2 2370   0.452   2.753   0.379  2.5882 -1.1323  0.7348
  791SOL     OW 2371   0.436   0.264   3.040 -0.4501 -0.0477  0.1005
  791SOL    HW1 2372   0.467   0.331   2.974 -1.1471 -1.1057  2.5314
  791SOL    HW2 2373   0.454   0.171   3.007  0.3234  4.5830 -0.8867
  792SOL     OW 2374   1.800   0.546   2.191  0.0926  0.4283  0.0569
  792SOL    HW1 2375   1.856   0.595   2.256 -0.3833 -2.2002 -1.9929
  792SOL    HW2 2376   1.702   0.541   2.218 -2.8808  0.1376  1.3553
  793SOL     OW 2377   0.564   0.652   0.792  0.2015  0.0941  0.0002
  793SOL    HW1 2378   0.467   0.622   0.778 -1.2825  1.8458 -0.0694
  793SOL    HW2 2379   0.582   0.671   0.892  2.0884 -1.1693 -1.1199
  794SOL     OW 2380   0.592   0.220   1.761 -0.2646 -0.2455 -0.1064
  794SOL    HW1 2381   0.584   0.295   1.693 -1.8601 -0.0576 -2.3538
  794SOL    HW2 2382   0.548   0.138   1.720 -0.2593  2.3602 -0.2906
  795SOL     OW 2383   3.105   1.472   3.091  0.8015  0.0150 -0.2380
  795SOL    HW1 2384   0.082   1.433   0.009  0.6061 -0.0310  1.2485
  795SOL    HW2 2385   3.073   1.420   3.011  0.0286  0.2990  2.4096
  796SOL     OW 2386   3.018   0.361   0.114 -0.0480  0.5406 -0.5843
  796SOL    HW1 2387   3.104   0.325   0.075  3.0748 -0.4521 -2.5809
  796SOL    HW2 2388   2.953   0.282   0.136 -2.1159 -1.6429  0.0092
  797SOL     OW 2389   1.485   2.551   2.839 -0.2443 -0.2809  0.0319
  797SOL    HW1 2390   1.412   2.614   2.873  0.3412 -2.6437  0.7936
  797SOL    HW2 2391   1.461   2.451   2.843  2.0279  2.8765 -0.5673
  798SOL     OW 2392   2.833   0.536   0.841 -0.1531  0.3450 -0.0927
  798SOL    HW1 2393   2.802   0.486   0.755  0.2643 -1.8874  1.4511
  798SOL    HW2 2394   2.927   0.566   0.833 -1.2194  0.1279 -0.1786
  799SOL     OW 2395   2.492   0.702   2.173  0.1306 -0.3722  0.7884
  799SOL    HW1 2396   2.512   0.713   2.075 -0.1655  3.8782  3.4886
  799SOL    HW2 2397   2.527   0.774   2.234 -2.8155 -0.6290  1.7293
  800SOL     OW 2398   0.088   2.110   0.355 -0.4600  0.4562 -0.3734
  800SOL    HW1 2399   0.071   2.038   0.427  0.2940  2.5336  1.9185
  800SOL    HW2 2400   0.141   2.082   0.274  0.9479  1.0095 -1.3124
  801SOL     OW 2401   1.138   1.578   1.039 -0.2215 -0.1227 -0.2164
  801SOL    HW1 2402   1.215   1.612   0.978 -1.1573 -0.4071  1.0663
  801SOL    HW2 2403   1.084   1.503   0.996  1.2689 -0.4825  0.4910
  802SOL     OW 2404   1.069   1.648   2.589 -0.9857 -0.2684  0.4062
  802SOL    HW1 2405   1.122   1.679   2.509 -1.3614  0.5347  1.2242
  802SOL    HW2 2406   1.130   1.580   2.638  2.3299 -1.0285 -0.1849
  803SOL     OW 2407   0.225   1.997   1.302  0.6245  0.1681 -0.2636
  803SOL    HW1 2408   0.144   1.946   1.265 -0.0698  0.1806 -2.7917
  803SOL    HW2 2409   0.307   1.940   1.313  0.0736 -0.6958  0.6495
  804SOL     OW 2410   1.290   2.591   1.534  0.5677  0.1108  0.2876
  804SOL    HW1 2411   1.317   2.679   1.494 -1.7806  0.8821 -3.0625
  804SOL    HW2 2412   1.322   2.587   1.629  0.4924 -0.7389 -4.3148
  805SOL     OW 2413   2.271   1.620   3.024  0.1677 -0.2326  0.3049
  805SOL    HW1 2414   2.364   1.592   3.003 -1.3524  0.4701  1.0792
  805SOL    HW2 2415   2.199   1.571   2.973  1.9858  0.5964 -2.2026
  806SOL     OW 2416   2.087   2.793   0.922 -0.0903  0.2844  0.5296
  806SOL    HW1 2417   2.186   2.776   0.889  2.8583  0.9232 -3.7318
  806SOL    HW2 2418   2.022   2.717   0.893 -2.6190 -0.3029 -0.2333
  807SOL     OW 2419   2.852   0.553   2.668 -0.0729 -0.1826  0.3034
  807SOL    HW1 2420   2.771   0.497   2.639 -2.3710  2.3469 -0.8947
  807SOL    HW2 2421   2.931   0.556   2.604  1.0430  3.1301 -2.2945
  808SOL     OW 2422   0.385   1.213   0.432 -0.4887  0.3997  0.0184
  808SOL    HW1 2423   0.442   1.231   0.346 -0.0900  0.0913 -2.7969
  808SOL    HW2 2424   0.444   1.237   0.514  2.2398 -1.1217  0.5460
  809SOL     OW 2425   2.544   0.970   1.976  0.0041 -0.1417 -0.0730
  809SOL    HW1 2426   2.451   0.946   2.012  0.2370 -1.1739  1.5159
  809SOL    HW2 2427   2.571   0.898   1.909  1.5468 -1.8230 -0.0436
  810SOL     OW 2428   1.168   0.484   1.351  0.1004 -0.4040  0.0966
  810SOL    HW1 2429   1.212   0.437   1.272 -0.8775 -0.4986  0.3568
  810SOL    HW2 2430   1.229   0.502   1.426  0.6671 -0.6306  0.9392
  811SOL     OW 2431   2.278   2.955   1.763  0.2962 -0.1979 -0.1004
  811SOL    HW1 2432   2.243   3.039   1.715 -0.4449 -0.5061 -0.5251
  811SOL    HW2 2433   2.198   2.894   1.770 -0.4652 -0.2031 -2.3921
  812SOL     OW 2434   1.397   2.285   3.113  0.3167  0.3709 -0.2243
  812SOL    HW1 2435   1.371   2.215   0.065  3.5235  1.6328 -0.7548
  812SOL    HW2 2436   1.460   2.357   0.042  1.8200  0.1808  0.5872
  813SOL     OW 2437   1.608   0.945   1.632  0.1064  0.1349 -0.1473
  813SOL    HW1 2438   1.516   0.912   1.645  2.0940  0.4667 -2.1360
  813SOL    HW2 2439   1.651   0.884   1.560  0.7051  0.2556  0.6006
  814SOL     OW 2440   0.579   0.431   1.584 -0.4539 -0.2652 -0.6479
  814SOL    HW1 2441   0.624   0.453   1.493 -2.6152  0.1779 -1.0140
  814SOL    HW2 2442   0.611   0.499   1.654  1.6359 -0.9645 -0.0704
  815SOL     OW 2443   0.610   0.793   0.327 -0.3475  0.0672 -0.1378
  815SOL    HW1 2444   0.663   0.706   0.295  2.4966 -4.4760  0.5324
  815SOL    HW2 2445   0.658   0.876   0.287  2.6793 -0.3593 -0.2450
  816SOL     OW 2446   2.292   1.588   2.507 -0.1930 -0.6465 -0.7281
  816SOL    HW1 2447   2.261   1.639   2.590 -0.3064  0.1557  0.3466
  816SOL    HW2 2448   2.369   1.629   2.455  0.9917  0.2720 -0.5626
  817SOL     OW 2449   0.756   2.630   0.574 -0.5788 -0.2099  0.1015
  817SOL    HW1 2450   0.680   2.685   0.630 -1.7938  4.0293  0.4484
  817SOL    HW2 2451   0.748   2.659   0.473 -1.3282  0.5079 -1.8346
  818SOL     OW 2452   1.687   0.540   3.090 -0.0281 -0.4556  0.7027
  818SOL    HW1 2453   1.758   0.471   0.002  1.1683  1.2162  0.6513
  818SOL    HW2 2454   1.730   0.616   3.036  0.9028 -1.4203 -2.8884
  819SOL     OW 2455   1.513   0.360   0.123  0.5277 -0.6183  0.3537
  819SOL    HW1 2456   1.543   0.433   0.053  1.8524  0.7357  1.6122
  819SOL    HW2 2457   1.442   0.302   0.076 -1.7868 -0.0038 -0.7757
  820SOL     OW 2458   1.905   0.376   0.057 -0.2559  0.0170  0.2307
  820SOL    HW1 2459   1.946   0.310   0.118  1.4452  2.7340 -0.8415
  820SOL    HW2 2460   1.951   0.470   0.061  2.0779  0.2680  0.0483
  821SOL     OW 2461   2.411   0.093   0.641  0.1041  0.1158  0.4708
  821SOL    HW1 2462   2.364   0.079   0.549 -2.6314  3.0238 -0.3261
  821SOL    HW2 2463   2.501   0.047   0.636  0.2423  1.2207 -1.5365
  822SOL     OW 2464   0.621   2.344   1.988  0.4121 -0.1960  0.2682
  822SOL    HW1 2465   0.636   2.334   1.889 -1.3834  0.8352  1.8878
  822SOL    HW2 2466   0.702   2.390   2.032 -1.6898  0.2656 -1.4301
  823SOL     OW 2467   0.274   1.335   1.474  0.6857 -0.0183 -0.3728
  823SOL    HW1 2468   0.185   1.293   1.469  0.9926  1.6434  0.4444
  823SOL    HW2 2469   0.335   1.302   1.553  3.4054 -1.8025  0.5744
  824SOL     OW 2470   1.455   3.020   2.715  0.6702 -0.3479  0.3624
  824SOL    HW1 2471   1.540   3.019   2.771 -0.8962  2.4332  0.8207
  824SOL    HW2 2472   1.383   2.971   2.762  0.0172  0.7529 -0.6947
  825SOL     OW 2473   2.014   0.961   0.738  0.2237 -0.3063 -0.1969
  825SOL    HW1 2474   2.075   0.900   0.797  1.1323  1.5685 -0.6090
  825SOL    HW2 2475   1.915   0.935   0.753  0.8772 -2.3764 -0.7423
  826SOL     OW 2476   2.048   0.613   0.115  0.0287  0.0989  0.4321
  826SOL    HW1 2477   2.105   0.649   0.192  0.8807 -0.8184  2.6351
  826SOL    HW2 2478   1.991   0.691   0.087 -1.1056  0.8834 -0.5306
  827SOL     OW 2479   0.562   1.623   1.723 -0.2865 -0.1371 -0.3086
  827SOL    HW1 2480   0.552   1.676   1.637  1.7381 -1.4722  0.4476
  827SOL    HW2 2481   0.473   1.577   1.750 -2.9332  0.6283 -0.9689
  828SOL     OW 2482   2.460   1.573   1.734  0.1236  0.3256  0.4709
  828SOL    HW1 2483   2.490   1.624   1.818  1.2946  0.8001  3.3111
  828SOL    HW2 2484   2.372   1.617   1.705  2.6043  1.2872 -0.8482
  829SOL     OW 2485   0.252   1.971   0.144  0.1270  0.0165  0.1051
  829SOL    HW1 2486   0.319   1.966   0.217 -0.2075 -1.5419 -1.2093
  829SOL    HW2 2487   0.209   1.883   0.126 -1.5652 -0.8599 -0.8520
  830SOL     OW 2488   1.975   0.884   0.457 -0.0025 -0.0245  0.4245
  830SOL    HW1 2489   1.973   0.926   0.547  3.2267 -1.9793 -1.1122
  830SOL    HW2 2490   1.975   0.780   0.459 -0.1552  0.3856 -1.1224
  831SOL     OW 2491   3.030   1.881   2.998  0.0161  0.1025 -0.3557
  831SOL    HW1 2492   3.070   1.973   2.975  1.3596  1.4804  0.0184
  831SOL    HW2 2493   3.098   1.818   3.044  0.3249 -1.2009  0.3774
  832SOL     OW 2494   0.842   0.307   0.454 -0.2475  0.5023 -0.3494
  832SOL    HW1 2495   0.871   0.405   0.465 -1.6106  0.6509 -0.4548
  832SOL    HW2 2496   0.925   0.251   0.467 -1.1281  1.6966 -0.9502
  833SOL     OW 2497   0.585   0.585   1.883 -0.1858  0.6586 -0.5592
  833SOL    HW1 2498   0.534   0.520   1.944 -1.7654 -0.3889 -1.0648
  833SOL    HW2 2499   0.684   0.557   1.881  0.7365 -2.7044 -0.6116
  834SOL     OW 2500   0.324   0.510   0.744 -0.3032  0.2782  0.7187
  834SOL    HW1 2501   0.372   0.428   0.705  0.0250 -1.4016  0.5178
  834SOL    HW2 2502   0.255   0.540   0.674  1.7819  2.4199 -0.7710
  835SOL     OW 2503   2.963   2.620   1.122  0.0704 -0.3165  0.2378
  835SOL    HW1 2504   2.898   2.693   1.145 -2.0065  0.1429 -3.0808
  835SOL    HW2 2505   3.033   2.649   1.055 -3.1480  0.2554  1.7933
  836SOL     OW 2506   0.552   2.076   0.176  0.6964 -0.3690  0.6507
  836SOL    HW1 2507   0.538   2.178   0.161 -0.0015  0.3271 -2.3875
  836SOL    HW2 2508   0.506   2.050   0.266  3.3833 -0.8435  0.9855
  837SOL     OW 2509   1.505   1.570   2.675  0.2391 -0.0630  0.3161
  837SOL    HW1 2510   1.597   1.607   2.701  0.7987 -1.4205 -2.1619
  837SOL    HW2 2511   1.467   1.634   2.600  0.5807  2.3111  1.0524
  838SOL     OW 2512   0.398   1.129   2.020  0.2296 -0.8220  0.5717
  838SOL    HW1 2513   0.483   1.171   1.983 -0.3072 -1.9350 -1.3443
  838SOL    HW2 2514   0.341   1.198   2.067 -1.1776 -0.1496  1.6681
  839SOL     OW 2515   0.370   1.211   0.875 -0.1990 -0.1649  0.2070
  839SOL    HW1 2516   0.427   1.137   0.913  0.6555 -0.0779 -1.4735
  839SOL    HW2 2517   0.277   1.172   0.854 -3.3398  2.6099 -0.1449
  840SOL     OW 2518   2.351   0.070   2.450  0.1127  0.8051 -0.6734
  840SOL    HW1 2519   2.293   0.158   2.443 -1.3380 -1.0861 -0.1005
  840SOL    HW2 2520   2.448   0.089   2.414  2.0813  1.9136  0.7118
  841SOL     OW 2521   0.780   2.437   0.311 -0.0158 -0.4451 -0.5363
  841SOL    HW1 2522   0.768   2.536   0.286 -1.7053  2.0427 -0.6342
  841SOL    HW2 2523   0.878   2.413   0.296  2.4728 -0.3637 -0.7502
  842SOL     OW 2524   0.369   0.176   0.587  0.4513 -0.3633 -0.4726
  842SOL    HW1 2525   0.469   0.177   0.612 -1.4255  3.0935 -1.2746
  842SOL    HW2 2526   0.311   0.101   0.626 -0.7315 -0.3969  0.2098
  843SOL     OW 2527   0.166   0.939   0.182  0.1682 -0.3175  0.2079
  843SOL    HW1 2528   0.207   0.933   0.277 -1.2765  1.5336 -0.2728
  843SOL    HW2 2529   0.091   1.006   0.199 -0.1405 -2.6894 -1.2706
  844SOL     OW 2530   0.988   2.442   0.100 -0.1006  0.2393 -0.1373
  844SOL    HW1 2531   0.936   2.369   0.052 -1.7687 -0.7569  0.6519
  844SOL    HW2 2532   1.083   2.451   0.061  1.7894 -1.0504 -1.2134
  845SOL     OW 2533   2.178   2.958   2.450 -0.0702 -0.0698  0.1177
  845SOL    HW1 2534   2.245   3.030   2.472 -1.7821  1.9275  0.9290
  845SOL    HW2 2535   2.128   2.928   2.535 -2.2427 -0.2291  0.1158
  846SOL     OW 2536   1.917   2.046   2.841 -1.0598  0.2211 -0.3381
  846SOL    HW1 2537   1.848   2.120   2.863  3.3823  1.0674 -0.2576
  846SOL    HW2 2538   2.006   2.082   2.810 -0.5753  0.2099  1.5433
  847SOL     OW 2539   2.571   0.193   0.286  0.3862 -0.1616 -0.8432
  847SOL    HW1 2540   2.501   0.230   0.226  0.9264  0.3786 -0.7582
  847SOL    HW2 2541   2.559   0.239   0.379  1.0801  0.1341  1.2130
  848SOL     OW 2542   0.933   0.562   0.485  0.1060  0.3614  0.0716
  848SOL    HW1 2543   0.878   0.580   0.571  0.0813  1.4119  2.2280
  848SOL    HW2 2544   0.885   0.604   0.404 -1.9773  1.0577 -1.1841
  849SOL     OW 2545   1.398   2.966   1.822  0.0579  0.8233 -0.4717
  849SOL    HW1 2546   1.481   2.909   1.833 -0.1221  1.4098  2.0787
  849SOL    HW2 2547   1.347   2.980   1.909 -1.6874 -1.6534 -3.4792
  850SOL     OW 2548   0.922   1.323   0.427  0.8273 -0.0125 -0.5046
  850SOL    HW1 2549   0.864   1.246   0.459  1.1580 -2.7611  0.2996
  850SOL    HW2 2550   1.019   1.305   0.466  1.7226 -0.2264  2.6300
  851SOL     OW 2551   0.242   1.410   0.061 -0.0694 -0.0576 -0.1829
  851SOL    HW1 2552   0.268   1.313   0.048  0.5333  0.6337  0.3961
  851SOL    HW2 2553   0.266   1.441   0.159 -1.1439  0.8964  0.6147
  852SOL     OW 2554   1.268   0.162   1.805  0.3874  0.1058  0.2830
  852SOL    HW1 2555   1.240   0.067   1.820  2.6801  2.1826  1.8767
  852SOL    HW2 2556   1.315   0.196   1.889  1.1071 -0.7998  1.4211
  853SOL     OW 2557   2.684   1.636   0.071 -0.3334  0.1738  1.0905
  853SOL    HW1 2558   2.622   1.608   3.109 -0.1018  1.8085 -2.7731
  853SOL    HW2 2559   2.630   1.656   0.156  0.4673 -0.6716  1.6141
  854SOL     OW 2560   1.181   1.219   1.825  0.1535 -0.2327  0.5564
  854SOL    HW1 2561   1.170   1.158   1.740 -1.1514  1.0489 -1.5547
  854SOL    HW2 2562   1.193   1.154   1.903 -2.8534 -1.5055  0.2896
  855SOL     OW 2563   3.048   2.445   0.308  0.0330 -0.1427  0.0543
  855SOL    HW1 2564   2.983   2.365   0.324 -1.8070 -1.7711 -2.3433
  855SOL    HW2 2565   3.021   2.498   0.228 -0.0258  0.9457  4.1478
  856SOL     OW 2566   0.731   0.977   1.845 -0.1082 -0.2948 -0.3121
  856SOL    HW1 2567   0.830   0.960   1.838  0.4819 -0.3411  1.5460
  856SOL    HW2 2568   0.691   0.946   1.760  1.0525  2.2421  1.7920
  857SOL     OW 2569   1.320   0.971   2.467 -0.1150  0.3684 -0.1734
  857SOL    HW1 2570   1.229   0.972   2.419  1.7686 -0.2703  0.0628
  857SOL    HW2 2571   1.334   1.054   2.522  1.7646  0.5736  0.7530
  858SOL     OW 2572   0.391   1.298   2.359 -0.1190 -0.2679  0.0146
  858SOL    HW1 2573   0.323   1.299   2.278 -2.0605 -0.1340 -0.8302
  858SOL    HW2 2574   0.408   1.204   2.396  0.3909 -0.8129 -0.3054
  859SOL     OW 2575   2.511   0.287   1.156  0.2981 -0.5893 -0.1391
  859SOL    HW1 2576   2.521   0.250   1.064 -1.7988  2.3323  3.0263
  859SOL    HW2 2577   2.600   0.326   1.190  1.5646 -0.4609 -0.3427
  860SOL     OW 2578   1.760   2.993   0.248  0.7052 -0.2679  0.5753
  860SOL    HW1 2579   1.712   3.085   0.242 -2.2814 -0.5128  2.3067
  860SOL    HW2 2580   1.859   2.995   0.269 -2.8766 -2.0396  1.5813
  861SOL     OW 2581   0.785   0.416   0.957  0.1597 -0.1258 -0.6970
  861SOL    HW1 2582   0.761   0.371   0.866  1.5643 -0.7777  2.1297
  861SOL    HW2 2583   0.865   0.478   0.943  1.8771  0.6054  3.2155
  862SOL     OW 2584   1.356   0.241   2.540  0.4538  0.5391  0.5251
  862SOL    HW1 2585   1.308   0.153   2.525  1.3991 -1.3603  0.1291
  862SOL    HW2 2586   1.458   0.226   2.527  1.7683  0.5428  1.3337
  863SOL     OW 2587   2.340   2.278   0.876  0.0305  0.0494  0.2072
  863SOL    HW1 2588   2.348   2.318   0.782 -0.1623  0.0170 -1.9224
  863SOL    HW2 2589   2.388   2.187   0.876  0.9997  2.4149  0.2393
  864SOL     OW 2590   2.593   0.019   2.073 -0.2284  0.6536 -0.1711
  864SOL    HW1 2591   2.626   3.097   1.983 -0.1066  0.3287  2.5880
  864SOL    HW2 2592   2.504   3.092   2.091  0.1158  1.0427  0.6256
  865SOL     OW 2593   1.379   0.819   1.687  0.1691 -0.6645 -0.1139
  865SOL    HW1 2594   1.375   0.757   1.604 -0.5494 -4.1288  1.5367
  865SOL    HW2 2595   1.337   0.787   1.772 -0.9832  0.6404  1.8201
  866SOL     OW 2596   1.625   2.879   1.272  0.4257 -0.4840 -0.4298
  866SOL    HW1 2597   1.633   2.805   1.200  0.5738  0.4742 -0.2285
  866SOL    HW2 2598   1.615   2.972   1.228 -1.3395  2.1620 -1.0037
  867SOL     OW 2599   2.462   2.571   0.423 -0.0334 -0.1998 -0.4932
  867SOL    HW1 2600   2.517   2.616   0.351 -0.9452 -0.1191 -2.7574
  867SOL    HW2 2601   2.363   2.580   0.403  2.5674  1.7114 -0.5692
  868SOL     OW 2602   0.440   2.234   1.647 -0.4887 -0.1034  0.0247
  868SOL    HW1 2603   0.419   2.220   1.546 -1.2978 -0.4948 -3.4229
  868SOL    HW2 2604   0.355   2.253   1.692 -0.0102 -1.2435  1.4174
  869SOL     OW 2605   2.106   2.428   2.646 -0.1108  0.1648 -0.8850
  869SOL    HW1 2606   2.044   2.416   2.566 -0.5395 -1.7250  2.6495
  869SOL    HW2 2607   2.157   2.515   2.638  0.5683 -1.3424 -1.1729
  870SOL     OW 2608   1.569   1.583   0.746  0.1596 -0.4490 -0.4092
  870SOL    HW1 2609   1.651   1.642   0.750 -4.5103 -1.7162  0.7813
  870SOL    HW2 2610   1.573   1.511   0.820  1.4763 -2.7212  1.0210
  871SOL     OW 2611   0.293   1.594   1.363  0.3858 -0.6480 -0.1763
  871SOL    HW1 2612   0.345   1.664   1.416  1.5685 -1.8594 -1.1293
  871SOL    HW2 2613   0.283   1.503   1.413  0.9399  0.5490  1.3567
  872SOL     OW 2614   0.519   1.410   2.579 -0.3447 -0.5632 -0.6787
  872SOL    HW1 2615   0.464   1.378   2.497 -0.8689  0.4060  0.5914
  872SOL    HW2 2616   0.459   1.422   2.661  1.3801  1.0986 -1.4374
  873SOL     OW 2617   0.837   2.070   1.801 -0.0197  0.8582 -0.4860
  873SOL    HW1 2618   0.859   2.097   1.900  2.2178  1.1781  2.6649
  873SOL    HW2 2619   0.791   1.976   1.802 -2.7782 -1.3472  0.3958
  874SOL     OW 2620   0.873   0.661   1.624 -0.1622  0.3348  0.2457
  874SOL    HW1 2621   0.927   0.579   1.642  2.0132  0.6644 -0.2018
  874SOL    HW2 2622   0.883   0.731   1.697  0.5821  2.3356 -1.3424
  875SOL     OW 2623   2.593   2.728   0.689  0.0637 -0.7271  0.0818
  875SOL    HW1 2624   2.669   2.671   0.656  1.8316 -0.3379  0.2503
  875SOL    HW2 2625   2.622   2.757   0.781  0.1054  0.7275 -2.4499
  876SOL     OW 2626   0.899   1.455   0.194  0.0069  0.0437  0.0867
  876SOL    HW1 2627   0.920   1.391   0.277  1.3962 -2.5317 -2.0897
  876SOL    HW2 2628   0.842   1.534   0.231  0.7371 -0.6909  0.9521
  877SOL     OW 2629   2.914   0.258   0.897 -0.7687  0.0756 -0.3122
  877SOL    HW1 2630   2.849   0.331   0.868  0.6511  1.5196 -0.7265
  877SOL    HW2 2631   2.961   0.215   0.821 -1.4339 -0.2864  1.1975
  878SOL     OW 2632   2.070   1.491   0.495  0.0279 -0.1320  0.1994
  878SOL    HW1 2633   2.020   1.468   0.410 -1.8602  0.2939  1.3015
  878SOL    HW2 2634   2.004   1.542   0.548  1.2312 -1.5421 -1.5968
  879SOL     OW 2635   2.324   1.550   1.181 -0.2072  0.0094  0.0639
  879SOL    HW1 2636   2.368   1.478   1.237  0.0842 -0.6431 -0.8452
  879SOL    HW2 2637   2.391   1.623   1.159 -3.0807  0.9771  1.5965
  880SOL     OW 2638   0.468   2.345   0.902  0.0653  0.2455  0.4909
  880SOL    HW1 2639   0.370   2.320   0.887  0.6630  1.7527  1.2373
  880SOL    HW2 2640   0.481   2.416   0.975 -1.1474 -0.2909  0.6315
  881SOL     OW 2641   0.953   0.954   0.955 -0.2126  0.0233 -0.6443
  881SOL    HW1 2642   0.931   0.955   0.857  1.5402  1.2251  1.2976
  881SOL    HW2 2643   1.048   0.990   0.975  1.0181  2.7823  0.7073
  882SOL     OW 2644   2.251   0.991   0.611 -0.2008 -0.3844 -0.3929
  882SOL    HW1 2645   2.254   1.054   0.536 -3.9481 -1.0601 -1.0265
  882SOL    HW2 2646   2.154   0.989   0.648 -1.8870  1.0050  0.2890
  883SOL     OW 2647   1.543   0.216   1.705  0.0947 -0.1453  0.0030
  883SOL    HW1 2648   1.573   0.312   1.731 -2.0760  2.8173  1.4451
  883SOL    HW2 2649   1.473   0.185   1.768  1.6074 -1.3594 -0.0341
  884SOL     OW 2650   2.932   0.022   1.727 -0.0718 -0.0443 -0.6666
  884SOL    HW1 2651   2.946   0.096   1.664  2.0929 -2.9751  0.8344
  884SOL    HW2 2652   2.997   3.062   1.700  1.5008  2.2869  0.6648
  885SOL     OW 2653   1.112   0.866   2.151 -0.0689 -0.2231 -0.0076
  885SOL    HW1 2654   1.159   0.929   2.085 -2.2521  0.5202 -0.2043
  885SOL    HW2 2655   1.034   0.816   2.111  0.9541 -2.3532 -0.4840
  886SOL     OW 2656   1.556   0.575   2.262 -0.3103  0.1179  0.5572
  886SOL    HW1 2657   1.538   0.674   2.259  1.3487 -2.5757  1.5692
  886SOL    HW2 2658   1.535   0.540   2.356  0.3550  0.3474  1.9711
  887SOL     OW 2659   1.730   0.555   1.262  0.1438 -0.0539  0.0207
  887SOL    HW1 2660   1.664   0.515   1.196 -0.3992 -1.1370  0.3909
  887SOL    HW2 2661   1.810   0.499   1.277  0.8750  0.0546 -1.7624
  888SOL     OW 2662   2.581   1.679   1.970 -0.6315  0.1739  0.5754
  888SOL    HW1 2663   2.651   1.752   1.972  0.9863 -5.1284 -0.5780
  888SOL    HW2 2664   2.631   1.595   1.996 -1.7071  2.0580  2.1542
  889SOL     OW 2665   1.521   2.176   0.533  0.8675  0.7230  0.5262
  889SOL    HW1 2666   1.602   2.190   0.477 -1.9591  3.7149 -0.4961
  889SOL    HW2 2667   1.476   2.084   0.526 -0.3472 -2.1831  0.5384
  890SOL     OW 2668   0.730   1.889   0.623  0.0072  0.0261  0.2489
  890SOL    HW1 2669   0.747   1.882   0.723  0.5862  3.2266  0.2450
  890SOL    HW2 2670   0.631   1.913   0.611  0.6724 -0.5445 -2.5143
  891SOL     OW 2671   2.681   0.778   2.728 -0.0125  0.2125  0.1094
  891SOL    HW1 2672   2.705   0.682   2.706  0.2143  0.5726  1.6792
  891SOL    HW2 2673   2.645   0.791   2.819 -1.1692 -1.1869 -1.0901
  892SOL     OW 2674   0.890   0.527   2.557  0.1547 -0.5645  0.2690
  892SOL    HW1 2675   0.818   0.527   2.482  0.8859 -2.4542  2.1546
  892SOL    HW2 2676   0.918   0.434   2.579 -2.9124  4.4898  0.6372
  893SOL     OW 2677   1.549   0.069   0.978  0.2392  0.5614 -0.3446
  893SOL    HW1 2678   1.630   0.124   0.966 -0.6617  0.5126  1.1917
  893SOL    HW2 2679   1.520   0.070   1.075 -1.4259  3.5825  1.2634
  894SOL     OW 2680   2.886   2.913   0.993  0.2268 -0.1208 -0.2732
  894SOL    HW1 2681   2.982   2.928   1.017 -0.2398 -3.3765 -2.4134
  894SOL    HW2 2682   2.826   2.877   1.067 -2.0851  0.9297 -0.1212
  895SOL     OW 2683   1.850   2.785   2.997  0.3259  0.5088  0.5143
  895SOL    HW1 2684   1.810   2.721   2.923 -0.4062 -4.5040 -1.6902
  895SOL    HW2 2685   1.939   2.738   3.028  0.7332 -1.8269 -1.4133
  896SOL     OW 2686   2.097   3.112   2.009  0.0529  0.3265  0.0663
  896SOL    HW1 2687   2.165   0.033   1.938  0.1069  0.0816 -0.3605
  896SOL    HW2 2688   2.002   0.033   1.989 -0.0028 -0.6775 -2.7168
  897SOL     OW 2689   0.287   1.899   1.655  0.1986  0.3556 -0.6647
  897SOL    HW1 2690   0.296   1.892   1.758 -0.8122  1.0847  0.2188
  897SOL    HW2 2691   0.212   1.962   1.631 -0.5520 -1.0726 -1.8998
  898SOL     OW 2692   2.821   1.817   1.793  0.0258  0.1133 -0.3084
  898SOL    HW1 2693   2.762   1.894   1.763 -1.3140 -0.2316 -0.9294
  898SOL    HW2 2694   2.828   1.745   1.719  1.9520 -1.9730  0.4071
  899SOL     OW 2695   1.354   2.023   0.851 -0.5719 -0.0935  0.5036
  899SOL    HW1 2696   1.254   2.028   0.861 -1.1102 -2.1777  2.9041
  899SOL    HW2 2697   1.389   2.088   0.777 -0.5975  2.2896 -1.7588
  900SOL     OW 2698   0.743   3.086   3.009 -0.2804 -0.2603  0.3222
  900SOL    HW1 2699   0.787   2.995   2.980 -0.6342 -1.8933 -0.3103
  900SOL    HW2 2700   0.814   0.043   3.013  2.9822 -0.2449  0.2999
  901SOL     OW 2701   1.408   1.715   2.485 -0.7222  0.2428  0.4341
  901SOL    HW1 2702   1.321   1.748   2.440  0.9457  0.2343  2.9192
  901SOL    HW2 2703   1.455   1.794   2.532 -0.5821  1.0597 -1.3606
  902SOL     OW 2704   2.707   0.265   2.986  0.2485 -0.2522  0.0967
  902SOL    HW1 2705   2.701   0.339   3.050 -1.7042  0.1200 -2.2906
  902SOL    HW2 2706   2.789   0.206   3.001  1.6584  0.2570 -0.8536
  903SOL     OW 2707   2.113   0.741   1.992 -0.2749 -0.1299  0.2716
  903SOL    HW1 2708   2.062   0.781   2.073 -1.9265 -0.8537 -1.0093
  903SOL    HW2 2709   2.110   0.638   1.984  0.1887 -0.4261 -1.0455
  904SOL     OW 2710   1.486   0.488   2.514 -0.4627 -0.7412  0.1184
  904SOL    HW1 2711   1.579   0.518   2.545  0.9799  0.6969 -0.0160
  904SOL    HW2 2712   1.429   0.449   2.588  0.7658  2.2900  2.7863
  905SOL     OW 2713   2.149   2.480   1.528 -0.6102  0.0969  0.1320
  905SOL    HW1 2714   2.242   2.512   1.543 -1.9750 -3.3970 -0.2865
  905SOL    HW2 2715   2.092   2.500   1.605  4.5592 -2.2687 -4.0439
  906SOL     OW 2716   1.559   1.858   0.326  0.4676  0.2072 -0.0354
  906SOL    HW1 2717   1.508   1.782   0.275 -1.8113 -1.1906  1.3348
  906SOL    HW2 2718   1.505   1.869   0.407  0.1557 -0.5792 -2.5354
  907SOL     OW 2719   1.212   2.977   0.984 -0.1043 -0.1252 -0.7656
  907SOL    HW1 2720   1.272   2.971   0.902 -1.1560  0.1854  0.6400
  907SOL    HW2 2721   1.193   2.884   1.021 -0.1740 -0.1682 -0.8714
  908SOL     OW 2722   1.404   2.560   2.042 -0.0465  0.0564  0.4367
  908SOL    HW1 2723   1.412   2.665   2.045  1.1943  2.2269 -2.3900
  908SOL    HW2 2724   1.350   2.531   2.116  2.7905  0.1679 -1.8459
  909SOL     OW 2725   2.179   0.463   2.038 -0.1102 -0.0432  0.1307
  909SOL    HW1 2726   2.222   0.389   2.093  0.1650  2.7607 -2.1208
  909SOL    HW2 2727   2.101   0.428   1.978 -0.5559  0.6628 -2.3517
  910SOL     OW 2728   1.059   1.130   3.022  0.5556 -0.1159 -0.0622
  910SOL    HW1 2729   1.115   1.064   3.076 -1.5799  1.4879 -0.9233
  910SOL    HW2 2730   1.051   1.225   3.060 -0.1174  0.0724 -1.9899
  911SOL     OW 2731   3.076   1.151   0.242  0.5866  0.3500  0.1608
  911SOL    HW1 2732   3.080   1.245   0.279  3.9349 -0.6757 -0.6466
  911SOL    HW2 2733   2.991   1.140   0.181  1.0003  1.8559 -1.7537
  912SOL     OW 2734   0.195   2.237   0.566 -0.1125  1.0809 -0.5510
  912SOL    HW1 2735   0.139   2.205   0.489 -0.5855  0.6470  1.0774
  912SOL    HW2 2736   0.289   2.266   0.536 -2.0924 -0.9678 -0.9527
  913SOL     OW 2737   2.810   2.325   2.465 -0.4881 -0.0042  0.2680
  913SOL    HW1 2738   2.804   2.230   2.432  0.3153 -0.5744  0.7508
  913SOL    HW2 2739   2.848   2.326   2.558  0.6782 -0.4910  0.1628
  914SOL     OW 2740   1.377   1.875   1.698  0.2137  0.1239  0.2677
  914SOL    HW1 2741   1.440   1.876   1.616  2.6801 -0.1714 -1.7610
  914SOL    HW2 2742   1.342   1.776   1.698  0.3565 -4.0168 -0.6753
  915SOL     OW 2743   0.741   2.748   2.161  0.6767 -0.5266 -0.0778
  915SOL    HW1 2744   0.749   2.836   2.113  1.3808  0.5605 -0.0624
  915SOL    HW2 2745   0.654   2.737   2.217  0.4895 -1.2216  0.9381
  916SOL     OW 2746   0.413   0.994   1.580 -0.1216  0.2419  0.1873
  916SOL    HW1 2747   0.487   0.933   1.608 -3.3049  1.5583  1.1091
  916SOL    HW2 2748   0.410   1.084   1.631  0.7651 -1.0804  1.4132
  917SOL     OW 2749   2.753   0.364   0.639  0.3481  0.3866  0.0763
  917SOL    HW1 2750   2.821   0.329   0.575 -2.5289  2.1936  1.2367
  917SOL    HW2 2751   2.660   0.330   0.607 -1.3644 -0.0660  0.2528
  918SOL     OW 2752   1.730   2.631   2.822 -0.0992  0.1422  0.0164
  918SOL    HW1 2753   1.792   2.554   2.805  1.7194  0.5977  2.6012
  918SOL    HW2 2754   1.633   2.603   2.815  0.5525 -0.7041  2.6749
  919SOL     OW 2755   1.603   2.671   1.586 -0.1042 -0.2936  0.5345
  919SOL    HW1 2756   1.636   2.603   1.518  1.7776  3.2191  0.1552
  919SOL    HW2 2757   1.605   2.765   1.543  0.7774 -2.5501  2.0865
  920SOL     OW 2758   0.745   0.754   2.976 -0.0728  0.0545  0.3629
  920SOL    HW1 2759   0.741   0.767   2.878  2.7719 -2.7985  1.9685
  920SOL    HW2 2760   0.681   0.686   3.010 -0.5180  2.4618  0.5278
  921SOL     OW 2761   2.861   0.670   2.940  0.2853 -0.0737 -0.0214
  921SOL    HW1 2762   2.905   0.757   2.926 -1.1601  2.1447  0.6407
  921SOL    HW2 2763   2.845   0.615   2.859 -1.1028  0.0725  0.9790
  922SOL     OW 2764   0.293   1.970   1.001  0.4205 -0.2557  0.1531
  922SOL    HW1 2765   0.321   2.001   1.089 -1.3160  0.0981 -2.3459
  922SOL    HW2 2766   0.344   2.021   0.930  0.1974 -0.1131 -2.2863
  923SOL     OW 2767   0.632   1.225   1.889  0.0782  0.4755  0.1538
  923SOL    HW1 2768   0.694   1.144   1.865  1.6417 -0.1850 -1.6936
  923SOL    HW2 2769   0.666   1.271   1.972  0.1413  0.5876 -0.2986
  924SOL     OW 2770   1.629   3.064   3.074  0.1685 -0.2501 -0.3386
  924SOL    HW1 2771   1.565   2.991   3.099  4.4723  1.4942 -1.5605
  924SOL    HW2 2772   1.722   3.040   3.110 -0.7649  0.3208 -0.8063
  925SOL     OW 2773   2.889   1.391   1.139 -0.2834  0.4067 -0.0616
  925SOL    HW1 2774   2.790   1.356   1.133 -1.0620 -0.8548  0.5882
  925SOL    HW2 2775   2.912   1.441   1.226  3.5707  0.1503 -0.2513
  926SOL     OW 2776   2.468   0.667   1.405 -0.1363 -0.2417 -0.7702
  926SOL    HW1 2777   2.560   0.710   1.393 -0.7293  1.0195  0.4609
  926SOL    HW2 2778   2.479   0.588   1.468  1.9328  2.0560  1.0182
  927SOL     OW 2779   2.072   3.091   1.312  0.1273  0.2525 -0.2060
  927SOL    HW1 2780   2.077   3.003   1.362 -1.0885  0.5406 -1.5567
  927SOL    HW2 2781   2.167   0.017   1.307 -2.0153  1.2438  1.5088
  928SOL     OW 2782   0.107   1.243   2.425 -0.3153  0.5541 -0.0978
  928SOL    HW1 2783   0.209   1.248   2.430  2.6208 -0.6121 -2.4658
  928SOL    HW2 2784   0.079   1.142   2.420 -1.8602 -1.8780 -1.0213
  929SOL     OW 2785   2.853   0.946   1.105  0.0011  0.1614 -0.0367
  929SOL    HW1 2786   2.764   0.961   1.060 -0.2254 -3.2566  2.3319
  929SOL    HW2 2787   2.853   1.009   1.183  0.0472  1.4512 -0.7444
  930SOL     OW 2788   3.013   2.608   2.188  0.6110  0.5125  0.1407
  930SOL    HW1 2789   2.996   2.708   2.175  0.8680 -0.0486 -0.0582
  930SOL    HW2 2790   3.012   2.571   2.091  0.6437 -0.3183  0.7812
  931SOL     OW 2791   1.929   0.379   1.373  0.2151 -0.5146 -0.3836
  931SOL    HW1 2792   1.955   0.326   1.291 -2.3522  1.7186 -0.1348
  931SOL    HW2 2793   2.010   0.434   1.404  1.1901  0.8484  1.0006
  932SOL     OW 2794   0.134   1.074   1.835  0.0103  0.3162 -0.0674
  932SOL    HW1 2795   0.208   1.107   1.900  2.9432  1.8828  2.2132
  932SOL    HW2 2796   0.147   1.114   1.739 -0.8719  2.5633  0.0464
  933SOL     OW 2797   2.718   1.978   1.528  0.0430 -0.6972  0.0800
  933SOL    HW1 2798   2.649   2.051   1.520  1.7325 -1.3951 -1.4997
  933SOL    HW2 2799   2.733   1.940   1.437  1.2095  1.9769  0.6524
  934SOL     OW 2800   0.476   1.766   1.508 -0.3764  0.0130  0.3695
  934SOL    HW1 2801   0.562   1.827   1.494  0.0739  2.6558 -2.7768
  934SOL    HW2 2802   0.408   1.821   1.561 -1.2305 -2.0036  0.4405
  935SOL     OW 2803   2.977   1.482   1.369  0.4500 -0.3233 -0.2182
  935SOL    HW1 2804   3.019   1.547   1.436  1.3969  2.2672  1.9328
  935SOL    HW2 2805   3.026   1.395   1.377 -1.3403  2.0814 -0.3193
  936SOL     OW 2806   2.638   1.392   1.623 -0.8217  0.3777 -0.0502
  936SOL    HW1 2807   2.653   1.312   1.690  2.4722 -0.7542  2.0105
  936SOL    HW2 2808   2.585   1.463   1.667  2.1192 -3.6001 -0.0988
  937SOL     OW 2809   2.118   0.553   1.481  0.3838  0.3420 -0.6719
  937SOL    HW1 2810   2.161   0.539   1.572 -2.4436 -0.8537 -1.1633
  937SOL    HW2 2811   2.038   0.618   1.499 -1.5652  1.3891  1.3293
  938SOL     OW 2812   0.494   2.794   3.031 -0.1245 -0.3269  0.1257
  938SOL    HW1 2813   0.440   2.722   3.083 -2.3607 -2.6305 -0.9156
  938SOL    HW2 2814   0.540   2.748   2.951  0.3435 -2.6588  0.0774
  939SOL     OW 2815   2.830   2.070   2.729  0.3180 -0.1043 -0.4582
  939SOL    HW1 2816   2.918   2.029   2.694  1.8317  1.5999 -1.6311
  939SOL    HW2 2817   2.751   2.032   2.667 -1.1656 -3.0103 -4.3304
  940SOL     OW 2818   1.378   1.946   0.527 -0.4334  0.0573 -0.1786
  940SOL    HW1 2819   1.287   1.994   0.533 -2.3005  0.5442  1.0510
  940SOL    HW2 2820   1.370   1.844   0.526  0.1339  1.2874 -1.2967
  941SOL     OW 2821   2.087   2.670   3.050 -0.1275  0.1876  0.2331
  941SOL    HW1 2822   2.170   2.692   2.988  2.4175 -0.7680  0.9917
  941SOL    HW2 2823   2.079   2.579   3.090  0.3222  2.4218  0.1062
  942SOL     OW 2824   1.755   2.162   1.005 -0.0950  0.3003 -0.2895
  942SOL    HW1 2825   1.825   2.223   1.041 -0.7007 -3.7440 -1.3573
  942SOL    HW2 2826   1.747   2.164   0.905 -1.4074 -1.8397  1.0010
  943SOL     OW 2827   2.428   1.087   1.678 -0.1723 -0.2098 -0.0000
  943SOL    HW1 2828   2.379   1.162   1.714  3.6516 -1.2164 -1.2383
  943SOL    HW2 2829   2.399   0.998   1.716 -0.9377  0.5771 -1.3595
  944SOL     OW 2830   1.418   0.755   2.607 -0.4124  0.2903  0.1049
  944SOL    HW1 2831   1.441   0.686   2.542 -0.8245  0.5473  1.7392
  944SOL    HW2 2832   1.394   0.841   2.557  1.5505  3.5063 -0.6011
  945SOL     OW 2833   2.742   2.045   1.217 -0.0755 -0.3226 -0.5264
  945SOL    HW1 2834   2.798   1.960   1.242 -1.4985 -0.4151 -2.1758
  945SOL    HW2 2835   2.694   2.097   1.294 -1.6678  0.9971  3.7191
  946SOL     OW 2836   0.564   1.103   0.026  0.3549 -0.0270  0.4256
  946SOL    HW1 2837   0.618   1.053   0.092 -1.5761  1.0586  2.2210
  946SOL    HW2 2838   0.597   1.093   3.044 -2.1102 -4.0775  0.7823
  947SOL     OW 2839   2.056   2.817   1.746 -0.1270 -0.3765  0.2127
  947SOL    HW1 2840   1.980   2.876   1.766  0.9486  0.8020 -0.5180
  947SOL    HW2 2841   2.045   2.715   1.755 -0.3140 -0.7003 -2.8641
  948SOL     OW 2842   0.107   1.770   0.962  0.3763  0.1043 -0.1159
  948SOL    HW1 2843   0.171   1.842   0.987  0.0291 -1.3891 -3.8647
  948SOL    HW2 2844   0.111   1.694   1.029 -2.9086  1.4486 -2.8576
  949SOL     OW 2845   1.193   1.019   1.617  0.2865  0.2409  0.3296
  949SOL    HW1 2846   1.238   1.068   1.537  2.3489  0.4075  1.6604
  949SOL    HW2 2847   1.253   0.947   1.660  0.0922  0.5674  1.1383
  950SOL     OW 2848   0.232   0.745   0.931  0.0985  0.0736  0.0612
  950SOL    HW1 2849   0.227   0.831   0.876 -1.6726  0.3388 -1.4659
  950SOL    HW2 2850   0.328   0.723   0.958 -1.4865  1.1520 -0.2230
  951SOL     OW 2851   0.287   2.075   2.157 -0.7068 -0.2162 -0.1257
  951SOL    HW1 2852   0.216   2.008   2.154  2.3729  0.0413  2.2174
  951SOL    HW2 2853   0.372   2.034   2.115  1.0474 -1.5989  0.3663
  952SOL     OW 2854   1.639   1.477   0.193  0.3983  0.4024 -0.0082
  952SOL    HW1 2855   1.579   1.550   0.158  0.0813  0.5570  0.9876
  952SOL    HW2 2856   1.687   1.435   0.116 -0.4328  1.2991 -2.1315
  953SOL     OW 2857   1.019   0.464   3.079  0.1204  0.1747  0.2280
  953SOL    HW1 2858   0.918   0.457   3.088 -0.9264 -0.7468  1.9623
  953SOL    HW2 2859   1.048   0.554   3.039  2.9423  1.0628 -1.8398
  954SOL     OW 2860   2.323   1.261   0.466  0.5010 -0.0095 -0.1029
  954SOL    HW1 2861   2.246   1.322   0.494  0.4468  0.3911  0.6881
  954SOL    HW2 2862   2.390   1.299   0.393  3.1446  0.8383 -4.3435
  955SOL     OW 2863   2.806   2.903   0.088 -0.4571  0.5820 -0.4008
  955SOL    HW1 2864   2.747   2.875   0.008 -1.7698 -2.4506 -0.9726
  955SOL    HW2 2865   2.892   2.844   0.092 -0.1591 -2.3681  1.2824
  956SOL     OW 2866   1.097   0.688   1.174 -0.4637 -0.0091 -0.1317
  956SOL    HW1 2867   1.170   0.751   1.143  0.1561  0.0960  1.6772
  956SOL    HW2 2868   1.140   0.618   1.227 -0.5269 -0.7439 -0.7111
  957SOL     OW 2869   1.437   1.149   1.110  0.4130 -0.3854  0.1483
  957SOL    HW1 2870   1.384   1.235   1.126 -1.0700  1.0080  0.9152
  957SOL    HW2 2871   1.506   1.133   1.181  1.1171 -1.8721  1.1000
  958SOL     OW 2872   0.450   1.800   0.680  0.1211 -0.0465  0.3216
  958SOL    HW1 2873   0.490   1.792   0.772  0.2448  1.7008  0.1016
  958SOL    HW2 2874   0.350   1.829   0.679  1.6797  0.5466  0.2452
  959SOL     OW 2875   1.886   1.315   0.975 -0.2876 -0.2775  0.2998
  959SOL    HW1 2876   1.884   1.395   1.044 -0.0145 -1.2374 -0.4724
  959SOL    HW2 2877   1.854   1.229   1.015 -0.1579 -0.3235 -0.2102
  960SOL     OW 2878   2.983   1.336   2.830  0.0870  0.0418 -0.7489
  960SOL    HW1 2879   3.069   1.341   2.778 -2.1389  0.5766  1.7716
  960SOL    HW2 2880   2.930   1.249   2.819  4.0467 -0.2189 -1.3300
  961SOL     OW 2881   0.926   1.605   0.772 -1.0201  0.4240  0.1269
  961SOL    HW1 2882   0.858   1.551   0.824 -0.0962 -1.6677 -0.9073
  961SOL    HW2 2883   0.912   1.701   0.779  1.1873 -3.6963 -1.3294
  962SOL     OW 2884   1.164   1.209   0.384  0.1768  0.7125  0.3264
  962SOL    HW1 2885   1.214   1.232   0.469  1.4083 -0.7421  1.7889
  962SOL    HW2 2886   1.204   1.243   0.296  0.1657 -0.5477  0.1696
  963SOL     OW 2887   1.458   2.064   2.392 -0.6386 -0.0299  0.3379
  963SOL    HW1 2888   1.531   2.138   2.375 -0.5972  0.6697 -2.5287
  963SOL    HW2 2889   1.433   2.022   2.307  1.4509  2.0375 -1.7761
  964SOL     OW 2890   2.964   2.627   0.081 -0.0055  0.1545  0.6280
  964SOL    HW1 2891   2.885   2.565   0.065  1.5097  2.3511 -0.3413
  964SOL    HW2 2892   3.041   2.610   0.017  0.2251 -0.5779  1.4861
  965SOL     OW 2893   0.550   2.358   0.193  0.2904 -0.6916  0.2967
  965SOL    HW1 2894   0.635   2.382   0.244  1.8613  2.2986  2.6427
  965SOL    HW2 2895   0.540   2.401   0.098  0.4089  0.3956 -0.9479
  966SOL     OW 2896   2.999   1.736   2.738  0.4912 -0.4065  0.7093
  966SOL    HW1 2897   2.940   1.717   2.819  0.5600  1.6805  0.0741
  966SOL    HW2 2898   2.979   1.833   2.704  2.2014  5.2776 -1.0606
  967SOL     OW 2899   1.914   3.044   3.044 -0.2195 -0.4373  0.2719
  967SOL    HW1 2900   1.897   2.941   3.052 -0.7147 -0.1485 -0.7551
  967SOL    HW2 2901   1.979   3.070   2.964  1.6640 -0.4863  0.4189
  968SOL     OW 2902   2.017   2.873   0.650  0.2487  0.2845 -0.0316
  968SOL    HW1 2903   1.922   2.910   0.613 -4.3298  1.6273 -2.2669
  968SOL    HW2 2904   2.017   2.864   0.753 -1.1749 -0.5874  0.2997
  969SOL     OW 2905   0.635   1.287   2.204 -0.3683  0.4922 -0.7277
  969SOL    HW1 2906   0.697   1.208   2.218 -1.0370  0.9707  2.0479
  969SOL    HW2 2907   0.550   1.281   2.261 -2.0340 -1.2741 -1.1500
  970SOL     OW 2908   1.557   1.298   0.823 -0.3692 -0.1575  0.1007
  970SOL    HW1 2909   1.647   1.276   0.772 -1.2267 -1.0274 -0.1923
  970SOL    HW2 2910   1.570   1.367   0.895 -2.7100 -0.1578  0.2306
  971SOL     OW 2911   2.208   0.097   1.683 -0.0114  0.5197  0.0720
  971SOL    HW1 2912   2.117   0.142   1.682  1.6288 -1.9916  0.2625
  971SOL    HW2 2913   2.267   0.138   1.605  2.5189  1.2635 -0.7953
  972SOL     OW 2914   0.137   0.135   1.576  0.3595 -0.7163  0.3304
  972SOL    HW1 2915   0.212   0.192   1.611  0.2287 -0.6066 -0.9876
  972SOL    HW2 2916   0.144   0.041   1.616  1.4397  0.9805 -3.3866
  973SOL     OW 2917   0.163   0.435   2.715 -0.4697  0.3865  0.5682
  973SOL    HW1 2918   0.067   0.404   2.742  0.2544 -2.2848 -0.1279
  973SOL    HW2 2919   0.205   0.508   2.772 -0.3428  0.7033 -0.1204
  974SOL     OW 2920   2.073   1.482   2.329  0.1848 -0.0456 -0.0729
  974SOL    HW1 2921   2.128   1.523   2.400  0.8900  0.3140 -1.3335
  974SOL    HW2 2922   2.136   1.427   2.266 -0.3926 -0.8299 -2.7821
  975SOL     OW 2923   0.457   0.132   1.359 -0.2498  0.1191  1.0667
  975SOL    HW1 2924   0.497   0.215   1.324  1.3943 -2.6113 -0.3639
  975SOL    HW2 2925   0.358   0.140   1.345  0.1716 -1.4832 -1.7145
  976SOL     OW 2926   1.026   2.302   2.502  0.7387 -0.2528  0.1686
  976SOL    HW1 2927   1.126   2.311   2.481  1.2638 -1.4363 -0.1813
  976SOL    HW2 2928   0.962   2.339   2.429 -1.9270  0.0705 -0.3379
  977SOL     OW 2929   0.626   3.039   0.619 -0.1601 -0.5111  0.0001
  977SOL    HW1 2930   0.606   0.009   0.562 -0.1745 -0.5121  2.2210
  977SOL    HW2 2931   0.725   3.028   0.638 -0.1062 -3.1491 -1.1874
  978SOL     OW 2932   3.109   1.330   2.015 -0.4541  0.4387 -0.2942
  978SOL    HW1 2933   3.079   1.251   2.074 -2.2969 -3.3338  0.9542
  978SOL    HW2 2934   3.055   1.413   2.047  0.0262  1.7720 -1.6723
  979SOL     OW 2935   1.830   2.978   1.771  0.4267  0.2631 -0.3093
  979SOL    HW1 2936   1.811   3.040   1.692 -1.7012 -1.7509 -1.0287
  979SOL    HW2 2937   1.748   2.922   1.792  0.7203 -1.3454  2.0027
  980SOL     OW 2938   1.492   1.740   2.076 -0.2313 -0.0114  0.1445
  980SOL    HW1 2939   1.457   1.676   2.004  2.6809  0.9935 -1.2669
  980SOL    HW2 2940   1.521   1.674   2.154  1.3913 -3.0056  1.0407
  981SOL     OW 2941   2.719   0.761   1.427  0.3299 -0.2735 -0.8439
  981SOL    HW1 2942   2.710   0.855   1.474 -1.2036 -0.5758 -1.8246
  981SOL    HW2 2943   2.806   0.766   1.372  0.5866 -1.3382  0.5486
  982SOL     OW 2944   0.207   0.064   2.719  0.7325  0.0202  0.2026
  982SOL    HW1 2945   0.107   0.058   2.749 -0.2367  0.5906  2.7639
  982SOL    HW2 2946   0.247   0.160   2.722  2.4756  1.9374 -2.5345
  983SOL     OW 2947   2.588   0.529   2.583 -0.3714 -0.4866 -0.2841
  983SOL    HW1 2948   2.515   0.605   2.563  0.8767  1.1349 -2.6749
  983SOL    HW2 2949   2.612   0.475   2.504 -0.8792  3.7435  2.9044
  984SOL     OW 2950   1.101   0.054   2.242  0.7318  0.9772 -0.4395
  984SOL    HW1 2951   1.152   0.143   2.251 -0.6580 -1.0034  0.4810
  984SOL    HW2 2952   1.129   0.006   2.153  0.7377 -1.8870 -2.3260
  985SOL     OW 2953   1.979   1.599   2.117  0.1086 -0.3361  0.4032
  985SOL    HW1 2954   1.998   1.698   2.089 -0.3284  3.4602  0.2378
  985SOL    HW2 2955   2.024   1.573   2.205  0.8949  1.1253 -0.1923
  986SOL     OW 2956   2.704   0.394   1.335 -0.0134  0.7611  0.1721
  986SOL    HW1 2957   2.761   0.450   1.266 -2.8294  0.9265 -0.6160
  986SOL    HW2 2958   2.691   0.440   1.423  0.6199 -0.5305 -2.5311
  987SOL     OW 2959   2.801   1.094   1.321  0.4494  0.0527 -0.3162
  987SOL    HW1 2960   2.748   1.055   1.397  0.3078 -2.3436 -2.1657
  987SOL    HW2 2961   2.750   1.177   1.293  1.9490 -1.6410 -0.0965
  988SOL     OW 2962   2.992   1.156   2.182  0.1991  0.9347  0.0144
  988SOL    HW1 2963   3.041   1.164   2.270 -0.8664  3.4237 -1.8292
  988SOL    HW2 2964   2.890   1.138   2.193 -0.9979 -1.3933  0.5939
  989SOL     OW 2965   1.691   1.825   3.036  0.2279  0.2973 -0.3363
  989SOL    HW1 2966   1.734   1.890   3.107 -1.7871  1.1608  2.9563
  989SOL    HW2 2967   1.597   1.852   3.008 -0.9640 -1.7367 -2.2135
  990SOL     OW 2968   1.044   0.515   2.265 -0.1229 -0.1455 -0.6972
  990SOL    HW1 2969   1.002   0.583   2.202  0.0818 -0.4792 -1.1082
  990SOL    HW2 2970   1.017   0.541   2.360 -1.6593  0.5472 -1.2143
  991SOL     OW 2971   1.423   0.875   0.635 -0.1468  0.1204 -0.6149
  991SOL    HW1 2972   1.432   0.811   0.716  0.5047 -0.9791 -0.1686
  991SOL    HW2 2973   1.511   0.876   0.587  0.3734  1.8684  0.6703
  992SOL     OW 2974   2.286   1.445   0.751 -0.0676  0.2023  0.1608
  992SOL    HW1 2975   2.220   1.370   0.726  0.2995  0.3513 -0.1251
  992SOL    HW2 2976   2.231   1.520   0.800 -0.4414  3.2396 -0.9189
  993SOL     OW 2977   0.009   0.653   0.789  0.2968 -0.0887  0.5181
  993SOL    HW1 2978   0.076   0.642   0.864  1.2720 -1.8311 -0.5931
  993SOL    HW2 2979   0.049   0.644   0.693 -0.4582  0.3028  0.4507
  994SOL     OW 2980   0.328   2.191   2.433 -0.6525 -0.4667 -0.2196
  994SOL    HW1 2981   0.318   2.161   2.334  2.2992  2.9320 -0.0146
  994SOL    HW2 2982   0.245   2.249   2.456  0.0367 -1.0695  1.4850
  995SOL     OW 2983   1.967   1.136   2.589 -0.1477  0.4678  0.5576
  995SOL    HW1 2984   1.969   1.118   2.691  1.1312 -0.0242 -0.5795
  995SOL    HW2 2985   1.885   1.189   2.560  2.5285 -1.0636  1.1276
  996SOL     OW 2986   3.031   1.346   0.563  0.0312 -0.0670 -0.0135
  996SOL    HW1 2987   2.929   1.361   0.555  0.8603  1.6403 -2.3562
  996SOL    HW2 2988   3.062   1.394   0.647 -1.0116  1.4304  1.3459
  997SOL     OW 2989   1.608   0.965   2.090  0.2216  0.0517 -0.3917
  997SOL    HW1 2990   1.551   1.043   2.056  0.1700 -0.0096 -0.1195
  997SOL    HW2 2991   1.666   0.925   2.018  1.1282  1.6227 -1.3190
  998SOL     OW 2992   2.882   1.812   0.407  0.2403 -0.5542 -0.0955
  998SOL    HW1 2993   2.967   1.797   0.355 -0.6408 -1.1846  0.5226
  998SOL    HW2 2994   2.865   1.728   0.458  2.9056  2.2399 -1.3425
  999SOL     OW 2995   2.938   2.205   0.344 -0.1420  0.0469  0.8537
  999SOL    HW1 2996   3.025   2.153   0.366 -0.4133 -0.4028 -2.9889
  999SOL    HW2 2997   2.885   2.235   0.426  1.9236 -0.9516  0.0920
 1000SOL     OW 2998   1.038   0.995   2.391 -0.6648 -0.1915 -0.0861
 1000SOL    HW1 2999   1.025   0.923   2.463 -1.7406  4.1552 -2.2225
 1000SOL    HW2 3000   1.074   0.953   2.303  1.7008 -0.6379 -0.4258
   3.11346   3.11346   3.11346
