1000 SPC/Fw water molecules t= 404.00000 step= 404000
 3000
    1SOL     OW    1   0.150   2.987   1.581  0.2091 -0.0428  0.0474
    1SOL    HW1    2   0.115   3.061   1.641  2.0667  0.4894 -1.6088
    1SOL    HW2    3   0.230   3.010   1.528 -1.5823  0.6853  1.7757
    2SOL     OW    4   2.395   2.497   0.435 -0.9365  0.0656  0.8138
    2SOL    HW1    5   2.460   2.465   0.357  1.5925 -1.7805 -1.9374
    2SOL    HW2    6   2.410   2.598   0.440  1.9619 -0.9595 -4.5117
    3SOL     OW    7   1.483   2.658   0.227 -0.0208  0.1081  0.0473
    3SOL    HW1    8   1.491   2.743   0.287  0.0425  0.1218  2.7282
    3SOL    HW2    9   1.428   2.678   0.146  0.7300 -0.4378  4.4764
    4SOL     OW   10   1.107   3.077   2.229  0.8845  0.3755  0.3798
    4SOL    HW1   11   1.013   3.071   2.188  1.3587 -0.7493  0.2362
    4SOL    HW2   12   1.141   2.983   2.219  0.4453 -1.4547  0.5886
    5SOL     OW   13   2.148   0.010   1.807 -0.2951 -0.0064  0.2845
    5SOL    HW1   14   2.064   3.072   1.823  1.9140  1.3012 -1.9976
    5SOL    HW2   15   2.188   3.093   1.719 -0.0151 -3.3430  3.0655
    6SOL     OW   16   2.444   1.692   0.876 -0.0505  0.0224  0.4638
    6SOL    HW1   17   2.360   1.745   0.883  0.0730  0.2817  0.8391
    6SOL    HW2   18   2.488   1.687   0.781  1.7672 -2.6588 -3.6602
    7SOL     OW   19   2.196   1.199   0.691  0.4733 -0.1764 -0.2132
    7SOL    HW1   20   2.289   1.168   0.664  0.3561 -0.6908 -0.6467
    7SOL    HW2   21   2.161   1.274   0.629 -1.1229  0.7210  2.2876
    8SOL     OW   22   0.489   1.539   0.876  0.4467 -0.6304 -0.1243
    8SOL    HW1   23   0.525   1.542   0.970  3.3614  0.2787  1.0545
    8SOL    HW2   24   0.561   1.531   0.803 -1.7196  0.0568  1.5746
    9SOL     OW   25   0.241   2.710   1.694 -0.4581  0.4096  0.4123
    9SOL    HW1   26   0.233   2.801   1.652  0.9007 -1.9683  3.1209
    9SOL    HW2   27   0.294   2.634   1.641 -0.2596 -1.3385 -0.1479
   10SOL     OW   28   1.200   2.394   0.299  0.4115 -0.2156  0.9891
   10SOL    HW1   29   1.163   2.321   0.360 -0.0046  0.4802 -0.9028
   10SOL    HW2   30   1.262   2.461   0.346  1.4774  1.3688 -1.8025
   11SOL     OW   31   1.638   2.088   0.961 -0.7361 -0.0046  0.9053
   11SOL    HW1   32   1.723   2.057   0.910  0.7583  0.9731 -1.6209
   11SOL    HW2   33   1.639   2.068   1.060  0.3384  0.9120 -2.2172
   12SOL     OW   34   2.609   0.610   2.217  0.0898  0.2014 -0.2774
   12SOL    HW1   35   2.706   0.610   2.242 -0.4908 -1.2476  0.1311
   12SOL    HW2   36   2.574   0.516   2.241  1.4343 -0.1792  1.7241
   13SOL     OW   37   2.731   2.899   0.165 -0.2954 -0.0355 -0.2178
   13SOL    HW1   38   2.806   2.842   0.118 -0.8033 -1.5521  0.1266
   13SOL    HW2   39   2.641   2.859   0.151  3.2757  0.5469 -0.2259
   14SOL     OW   40   1.743   1.542   3.007 -0.4349 -0.4146 -0.3156
   14SOL    HW1   41   1.735   1.444   2.968  1.1613  1.7154  4.0142
   14SOL    HW2   42   1.706   1.553   3.102  0.3659  1.3685 -1.0370
   15SOL     OW   43   2.834   2.650   1.749 -0.0678  0.3211 -0.1494
   15SOL    HW1   44   2.812   2.551   1.730 -2.3680  0.0929  0.7667
   15SOL    HW2   45   2.934   2.671   1.736  0.5088  0.6249  2.6058
   16SOL     OW   46   3.049   3.030   0.946 -0.0318  0.4173  0.2322
   16SOL    HW1   47   3.022   0.009   0.912 -1.3470  0.0762 -0.1289
   16SOL    HW2   48   2.979   2.960   0.913 -1.7606 -0.0256  1.0307
   17SOL     OW   49   1.280   0.227   0.806 -0.6339 -0.2019  0.2032
   17SOL    HW1   50   1.322   0.284   0.731 -1.0936  0.5653 -0.3406
   17SOL    HW2   51   1.197   0.266   0.841  0.4392 -3.6455  1.3149
   18SOL     OW   52   1.523   0.107   0.923  0.1403  0.2432  0.1594
   18SOL    HW1   53   1.594   0.176   0.896 -0.6077  0.9408 -3.4928
   18SOL    HW2   54   1.432   0.134   0.886 -1.0918 -0.5735  0.5842
   19SOL     OW   55   2.281   1.233   0.269 -0.1780 -0.0582  0.3218
   19SOL    HW1   56   2.190   1.245   0.226 -2.8818  0.4292 -2.6598
   19SOL    HW2   57   2.342   1.306   0.248  1.0775 -0.7153  0.7025
   20SOL     OW   58   2.535   1.574   2.549  0.1090 -0.5366  0.0326
   20SOL    HW1   59   2.576   1.647   2.490  2.0968  1.6228 -0.3876
   20SOL    HW2   60   2.457   1.617   2.597  0.5878  1.5667 -0.5662
   21SOL     OW   61   1.583   2.897   0.302  0.2318 -0.3758 -0.4048
   21SOL    HW1   62   1.647   2.959   0.254 -0.7864 -2.4961 -0.6109
   21SOL    HW2   63   1.516   2.953   0.350  1.2205 -0.8307  0.4272
   22SOL     OW   64   2.933   0.902   0.814 -0.0205  0.1656 -0.0800
   22SOL    HW1   65   2.967   0.936   0.903  1.4808 -0.5862  0.2337
   22SOL    HW2   66   2.854   0.835   0.826  0.0287  1.5897  1.2146
   23SOL     OW   67   0.642   0.002   1.933  0.3075  0.3224 -0.0889
   23SOL    HW1   68   0.692   0.067   1.875 -0.2282  0.3376 -2.2363
   23SOL    HW2   69   0.557   3.085   1.891  0.5738  0.0905  2.1982
   24SOL     OW   70   2.306   2.521   0.870 -0.0612  0.0655 -0.3550
   24SOL    HW1   71   2.391   2.505   0.807 -1.5753 -3.2234 -1.0313
   24SOL    HW2   72   2.270   2.431   0.904 -0.7463  0.4819  0.0507
   25SOL     OW   73   1.847   0.031   2.796  0.8880  0.0033  0.6347
   25SOL    HW1   74   1.865   0.120   2.747  2.7883  0.5995 -1.0966
   25SOL    HW2   75   1.747   0.010   2.794 -0.0722 -0.1427  1.7040
   26SOL     OW   76   1.491   2.338   0.058  0.3519 -0.0540  0.4448
   26SOL    HW1   77   1.518   2.320   0.155  0.4724 -1.0625  0.2934
   26SOL    HW2   78   1.473   2.440   0.040 -0.3725 -0.0316 -1.1060
   27SOL     OW   79   1.545   0.536   1.048 -0.5839  0.2160  0.2295
   27SOL    HW1   80   1.451   0.495   1.051  1.7998  0.5916  1.5319
   27SOL    HW2   81   1.531   0.637   1.041 -2.2693 -1.7830 -1.1002
   28SOL     OW   82   1.049   1.383   0.450 -0.3169 -0.5905  0.1752
   28SOL    HW1   83   1.065   1.285   0.464 -3.0763  1.4809  2.2989
   28SOL    HW2   84   1.106   1.436   0.513 -1.7040 -2.9414  1.4350
   29SOL     OW   85   2.544   0.402   1.528 -0.0791  0.2780 -0.0251
   29SOL    HW1   86   2.536   0.350   1.616 -0.4459 -0.0129  1.0094
   29SOL    HW2   87   2.491   0.490   1.510  0.5356 -1.1734 -1.0183
   30SOL     OW   88   1.236   2.640   1.408  0.3056  0.2621  0.4113
   30SOL    HW1   89   1.287   2.659   1.494 -1.7878 -2.4025  1.3775
   30SOL    HW2   90   1.307   2.605   1.341 -0.2587 -3.6135 -0.9650
   31SOL     OW   91   1.796   2.892   1.506  0.0709 -0.4366 -0.1069
   31SOL    HW1   92   1.773   2.984   1.534  3.0932 -1.3580 -3.2610
   31SOL    HW2   93   1.892   2.876   1.534 -0.9773  3.0791 -0.0132
   32SOL     OW   94   1.833   1.522   2.565  0.6446  0.3281  0.2277
   32SOL    HW1   95   1.817   1.598   2.500  0.3719 -1.9735  3.8208
   32SOL    HW2   96   1.749   1.458   2.571  0.5063 -3.2228  3.9380
   33SOL     OW   97   2.451   0.808   2.483  0.4583 -0.4587  0.3584
   33SOL    HW1   98   2.446   0.763   2.576  1.5952 -0.5746  0.0035
   33SOL    HW2   99   2.382   0.768   2.415 -0.2229  0.2018 -0.7159
   34SOL     OW  100   1.666   0.507   0.331 -0.1244  0.0188 -0.1744
   34SOL    HW1  101   1.678   0.607   0.306 -1.6842  0.6484 -1.1953
   34SOL    HW2  102   1.746   0.470   0.378 -1.0794  1.3200 -1.3044
   35SOL     OW  103   0.027   2.151   2.117 -0.5210 -0.4952  0.1037
   35SOL    HW1  104   3.071   2.111   2.061 -1.7375 -2.0255 -0.5849
   35SOL    HW2  105   0.044   2.089   2.194  0.5555  0.1112 -3.0422
   36SOL     OW  106   2.550   1.751   3.008 -0.2580  0.1372 -0.3671
   36SOL    HW1  107   2.586   1.688   2.940 -1.6515 -0.6626  2.7083
   36SOL    HW2  108   2.616   1.830   3.017  1.9756  0.3696  0.1633
   37SOL     OW  109   1.938   0.168   1.618 -0.2742  0.2886 -0.0738
   37SOL    HW1  110   1.986   0.258   1.614  0.6682 -0.2214 -1.1213
   37SOL    HW2  111   1.986   0.116   1.690  3.5587  0.8750 -0.4159
   38SOL     OW  112   0.290   0.703   2.694  0.0864 -0.0286 -0.0328
   38SOL    HW1  113   0.312   0.634   2.626 -0.1683  1.9826  2.8594
   38SOL    HW2  114   0.368   0.708   2.757  1.2272  0.8164 -0.9140
   39SOL     OW  115   1.970   1.170   1.363 -0.0365  0.1598  0.1695
   39SOL    HW1  116   1.884   1.145   1.417  0.8882 -1.4404  0.6508
   39SOL    HW2  117   1.948   1.203   1.273  4.3555 -0.9972  1.9568
   40SOL     OW  118   1.038   2.120   0.827 -0.2742  0.1128 -0.1298
   40SOL    HW1  119   0.994   2.159   0.911  1.0946  1.6178  1.9635
   40SOL    HW2  120   1.087   2.032   0.849  0.3077  2.2856  1.2684
   41SOL     OW  121   1.936   2.225   0.998  0.1279  0.0748  0.4378
   41SOL    HW1  122   1.941   2.123   0.984  1.1461 -2.1951  2.1943
   41SOL    HW2  123   1.879   2.246   1.077 -3.5917 -4.5056 -0.3777
   42SOL     OW  124   2.637   0.733   1.231  0.1559  0.3961 -0.0469
   42SOL    HW1  125   2.725   0.677   1.250  3.3474 -1.7267  0.4688
   42SOL    HW2  126   2.647   0.819   1.281  1.7316  1.2600 -1.8232
   43SOL     OW  127   0.745   1.442   2.503  0.4854  0.3632 -0.3701
   43SOL    HW1  128   0.826   1.500   2.494 -1.5394 -3.0875 -0.7308
   43SOL    HW2  129   0.698   1.470   2.588  1.6789  2.3830 -1.3364
   44SOL     OW  130   1.565   2.464   1.458  0.0437  0.0903 -0.2190
   44SOL    HW1  131   1.633   2.539   1.478 -0.0194 -2.2762  0.5271
   44SOL    HW2  132   1.493   2.509   1.403  0.7972  0.3365  0.7433
   45SOL     OW  133   0.917   3.040   2.615 -0.1148  0.5130 -0.3810
   45SOL    HW1  134   0.970   0.009   2.612 -1.4002 -0.3474 -0.4835
   45SOL    HW2  135   0.950   2.975   2.542  0.9016 -0.4683  1.0973
   46SOL     OW  136   1.016   2.701   2.226  0.3662  0.6290 -0.0043
   46SOL    HW1  137   1.036   2.604   2.208 -1.1022  0.9848  2.2316
   46SOL    HW2  138   0.914   2.713   2.222  0.8601  1.5485 -1.7016
   47SOL     OW  139   0.914   2.197   1.076 -0.3137 -0.1923  0.1071
   47SOL    HW1  140   0.852   2.274   1.098 -2.0335 -2.6993 -0.7488
   47SOL    HW2  141   0.861   2.111   1.102  1.4440 -1.1982  0.3021
   48SOL     OW  142   0.790   2.455   1.425 -0.4334  1.0958 -0.3232
   48SOL    HW1  143   0.775   2.480   1.330  0.9841 -0.1483 -1.8932
   48SOL    HW2  144   0.888   2.479   1.451  0.9954  1.4479 -0.1475
   49SOL     OW  145   2.378   3.092   3.095  0.1077 -0.1356 -0.0950
   49SOL    HW1  146   2.439   0.052   0.009 -2.2956  0.3722 -0.1755
   49SOL    HW2  147   2.406   3.049   3.007  0.8937 -0.8469  2.4783
   50SOL     OW  148   1.645   0.774   0.269  0.0131 -0.5206  0.0123
   50SOL    HW1  149   1.735   0.804   0.238  0.6418  0.0819  0.7681
   50SOL    HW2  150   1.606   0.834   0.336  0.0119 -1.5992 -2.2413
   51SOL     OW  151   2.242   0.747   0.967  0.2286  0.3287 -0.1186
   51SOL    HW1  152   2.217   0.755   1.064  0.6836 -0.6629  0.2272
   51SOL    HW2  153   2.201   0.663   0.921  0.4820 -0.4426  1.3217
   52SOL     OW  154   0.655   1.515   0.303  0.1323  0.6154  0.1370
   52SOL    HW1  155   0.675   1.488   0.206  1.1840  0.9522  0.3890
   52SOL    HW2  156   0.600   1.439   0.347  1.0706 -1.8184  0.6404
   53SOL     OW  157   0.409   1.194   2.963 -0.1894  0.2382 -0.2383
   53SOL    HW1  158   0.347   1.134   2.907 -3.4929 -0.8261 -3.6376
   53SOL    HW2  159   0.441   1.142   3.048 -2.1187  0.1978 -0.2369
   54SOL     OW  160   2.096   1.413   2.209  0.0280 -0.0083  0.0592
   54SOL    HW1  161   2.170   1.457   2.254 -1.6193  1.1906 -2.0542
   54SOL    HW2  162   2.083   1.452   2.118  2.6395  1.0308 -1.7612
   55SOL     OW  163   2.600   2.215   0.812  0.5587  0.1967 -0.7273
   55SOL    HW1  164   2.553   2.299   0.781  0.1977 -1.7043  0.5895
   55SOL    HW2  165   2.538   2.154   0.866 -0.4583  1.1107 -1.0620
   56SOL     OW  166   1.952   2.862   1.241  0.3689  0.2608  0.0557
   56SOL    HW1  167   1.871   2.812   1.199  1.5133 -2.0218 -0.2979
   56SOL    HW2  168   1.926   2.904   1.332 -0.8151  1.8448 -1.3071
   57SOL     OW  169   1.825   1.267   0.471 -0.4397  0.4055  0.4139
   57SOL    HW1  170   1.794   1.202   0.545 -0.7751 -3.6497  1.3412
   57SOL    HW2  171   1.914   1.308   0.493 -0.5900 -2.6006 -1.0613
   58SOL     OW  172   2.322   0.127   1.351 -0.2069 -0.4038 -0.4274
   58SOL    HW1  173   2.304   0.065   1.270 -1.3238 -0.0455 -1.0839
   58SOL    HW2  174   2.417   0.166   1.347 -1.6010  0.3330 -0.1315
   59SOL     OW  175   1.098   2.730   2.685 -0.6797  0.1482  0.0470
   59SOL    HW1  176   1.186   2.679   2.699  0.1729  0.2009 -1.5006
   59SOL    HW2  177   1.103   2.821   2.729  0.4292  1.0975 -0.2947
   60SOL     OW  178   0.055   2.661   2.679  0.1585 -0.5691  0.0009
   60SOL    HW1  179   0.058   2.634   2.779  1.3561  1.0904 -1.0159
   60SOL    HW2  180   3.077   2.672   2.637 -0.3491  0.4073  0.8087
   61SOL     OW  181   0.736   2.392   1.146 -0.3174  0.0491  0.2039
   61SOL    HW1  182   0.763   2.472   1.088  0.1268 -1.7110 -1.0171
   61SOL    HW2  183   0.634   2.365   1.138 -0.4272 -0.6568  0.5754
   62SOL     OW  184   1.548   1.826   1.914 -0.2297 -0.5800 -0.4868
   62SOL    HW1  185   1.570   1.889   1.996  0.4667 -1.1689  1.3255
   62SOL    HW2  186   1.632   1.770   1.892 -0.0752 -0.9085  2.1367
   63SOL     OW  187   1.904   1.663   0.328  0.3119 -0.4770  0.1443
   63SOL    HW1  188   1.988   1.614   0.303  0.3027  0.7135 -1.7752
   63SOL    HW2  189   1.917   1.761   0.351  0.6615 -0.8953 -0.0660
   64SOL     OW  190   1.715   1.303   0.226 -0.6094 -0.0565  0.0690
   64SOL    HW1  191   1.751   1.275   0.319  0.3541 -0.7298  2.4744
   64SOL    HW2  192   1.655   1.232   0.182 -2.8951 -0.4506 -1.4060
   65SOL     OW  193   1.838   2.214   2.315  0.3170 -0.5446  0.2903
   65SOL    HW1  194   1.752   2.243   2.364  0.4257 -0.0302  1.4348
   65SOL    HW2  195   1.831   2.210   2.215  1.9795  0.8862 -0.7552
   66SOL     OW  196   0.343   1.029   1.466 -0.3290  0.4292  0.0165
   66SOL    HW1  197   0.384   0.954   1.409 -1.0988  0.4786 -1.1829
   66SOL    HW2  198   0.384   1.117   1.436 -0.0879 -0.8655  1.8630
   67SOL     OW  199   2.128   2.787   0.234  0.0464  0.2500  0.4929
   67SOL    HW1  200   2.189   2.837   0.294  0.4143  0.0597 -0.5420
   67SOL    HW2  201   2.085   2.856   0.174  0.7235 -1.6026  2.1880
   68SOL     OW  202   1.880   2.433   1.187 -0.1720  0.0937  0.6533
   68SOL    HW1  203   1.981   2.444   1.188 -1.7902 -1.9357  1.2358
   68SOL    HW2  204   1.828   2.524   1.177  0.4318  3.4242  0.4141
   69SOL     OW  205   2.692   1.977   3.042  0.5963  0.6113 -0.1524
   69SOL    HW1  206   2.714   2.039   2.964  0.7246  2.3564 -0.4025
   69SOL    HW2  207   2.748   2.006   0.008 -0.9731  3.0536  0.0037
   70SOL     OW  208   0.290   1.048   2.358  0.5266  0.1979 -0.1941
   70SOL    HW1  209   0.329   1.047   2.264  1.2261 -1.9009  1.9434
   70SOL    HW2  210   0.241   1.141   2.370 -1.0341  0.3236  0.2822
   71SOL     OW  211   0.909   1.024   2.547 -0.1633 -0.0083 -0.0380
   71SOL    HW1  212   0.819   1.063   2.512 -1.4478  1.8109 -0.2571
   71SOL    HW2  213   0.893   0.929   2.583  1.9966  0.0990  0.1922
   72SOL     OW  214   2.525   1.432   2.086  0.6020 -0.1342 -0.0765
   72SOL    HW1  215   2.427   1.443   2.061 -2.0846  1.5007  0.3505
   72SOL    HW2  216   2.569   1.349   2.041 -1.6974 -1.6755  0.4864
   73SOL     OW  217   1.181   2.113   2.833  0.1216 -0.0809  0.3193
   73SOL    HW1  218   1.199   2.125   2.937 -1.9698 -1.4885  0.2812
   73SOL    HW2  219   1.269   2.082   2.791  1.1448  0.6838  0.7756
   74SOL     OW  220   2.136   2.984   2.491 -0.2338 -0.3797 -0.4032
   74SOL    HW1  221   2.035   2.968   2.499  0.8262  0.7253 -0.2712
   74SOL    HW2  222   2.162   3.077   2.521  0.3901  0.4594 -2.2627
   75SOL     OW  223   1.532   2.463   0.835 -0.1405  0.1697 -0.2011
   75SOL    HW1  224   1.631   2.433   0.832  1.0356 -0.8703  0.4821
   75SOL    HW2  225   1.471   2.386   0.800 -4.0102 -2.3854  1.1535
   76SOL     OW  226   2.896   1.714   2.787 -0.1615 -0.2534 -0.4269
   76SOL    HW1  227   2.825   1.639   2.791  1.7148 -0.3717  2.9502
   76SOL    HW2  228   2.969   1.705   2.857  1.6510  1.4006  0.1339
   77SOL     OW  229   3.065   2.525   1.489 -0.4053  0.5606 -0.4489
   77SOL    HW1  230   2.971   2.548   1.467  0.5813  1.0688 -0.6953
   77SOL    HW2  231   3.082   2.553   1.585  0.0867 -0.1036 -1.0192
   78SOL     OW  232   2.593   0.716   2.991  0.1700 -0.2324 -0.1257
   78SOL    HW1  233   2.644   0.698   3.077  4.1078  0.1677 -1.7542
   78SOL    HW2  234   2.546   0.804   2.998 -0.4991 -0.0356  0.0837
   79SOL     OW  235   0.323   1.692   2.668 -0.2932  0.5242 -0.1377
   79SOL    HW1  236   0.404   1.627   2.678  1.0219  0.3687  1.2863
   79SOL    HW2  237   0.239   1.649   2.630  2.2159 -0.7329  1.6690
   80SOL     OW  238   1.703   1.424   2.000 -0.0670 -0.3265 -0.3042
   80SOL    HW1  239   1.614   1.480   1.993 -2.8218  1.4163  0.1259
   80SOL    HW2  240   1.682   1.325   1.990  0.8875  0.9591  0.3710
   81SOL     OW  241   2.287   1.180   2.208  0.2441  0.3502 -0.4687
   81SOL    HW1  242   2.219   1.194   2.132  0.5268  0.1303 -0.1920
   81SOL    HW2  243   2.315   1.264   2.253 -1.7306 -0.4421  0.8653
   82SOL     OW  244   1.471   1.523   1.922 -0.0094 -0.4132  0.2731
   82SOL    HW1  245   1.390   1.572   1.891  3.1033 -2.8434  0.8154
   82SOL    HW2  246   1.514   1.497   1.833 -0.7694  0.5356 -0.4512
   83SOL     OW  247   0.005   0.328   3.102 -0.0557  0.5136  0.0953
   83SOL    HW1  248   0.037   0.346   0.080 -0.9916  0.3913  0.8665
   83SOL    HW2  249   3.025   0.359   3.081 -1.8544  1.8766 -0.1392
   84SOL     OW  250   3.005   0.870   3.066  0.7214  1.3148 -0.6942
   84SOL    HW1  251   2.922   0.929   3.065  0.7508  0.4966  0.5687
   84SOL    HW2  252   3.060   0.884   0.035 -2.5203 -3.5984  0.0108
   85SOL     OW  253   2.240   2.061   1.996  0.0111  0.1025 -0.5394
   85SOL    HW1  254   2.320   2.068   2.059  0.4363  0.3835 -0.2428
   85SOL    HW2  255   2.201   2.148   1.964 -0.7503  0.3231 -0.2547
   86SOL     OW  256   0.425   0.477   1.124 -0.2901  0.0679 -0.0299
   86SOL    HW1  257   0.449   0.577   1.102 -0.4363  2.0267  1.7861
   86SOL    HW2  258   0.492   0.414   1.081 -0.2405 -1.1275  0.3916
   87SOL     OW  259   2.882   2.028   2.005  0.4145  0.3356  0.1557
   87SOL    HW1  260   2.883   2.119   1.956 -1.2986  2.2778  0.7518
   87SOL    HW2  261   2.869   2.046   2.102 -0.6332 -0.5555 -2.2769
   88SOL     OW  262   0.381   1.999   0.165 -0.2060 -0.0679 -0.3985
   88SOL    HW1  263   0.343   1.912   0.206 -2.5283  0.5163  0.4110
   88SOL    HW2  264   0.409   1.985   0.065  0.8137 -0.1559  0.1863
   89SOL     OW  265   1.497   0.835   0.030 -0.1952  0.6665  0.3644
   89SOL    HW1  266   1.473   0.934   0.013 -2.3367  3.2585  0.0395
   89SOL    HW2  267   1.534   0.825   0.123 -0.5974 -1.7964 -1.9124
   90SOL     OW  268   0.024   1.505   2.305 -0.4361  0.0273 -0.0638
   90SOL    HW1  269   3.038   1.488   2.321  1.1819 -1.4437 -0.3025
   90SOL    HW2  270   0.033   1.573   2.227 -2.2231  0.4693 -2.4487
   91SOL     OW  271   2.041   2.989   1.019  1.2161  0.2441 -0.5624
   91SOL    HW1  272   2.012   2.951   1.110  2.6621 -1.3906  2.1480
   91SOL    HW2  273   2.078   2.917   0.955  2.2687 -1.4346 -0.1264
   92SOL     OW  274   2.326   1.459   1.502 -0.0133  0.4105  0.0651
   92SOL    HW1  275   2.375   1.403   1.435 -0.5187  2.8689  0.9021
   92SOL    HW2  276   2.355   1.432   1.595  1.2816  1.1940 -3.2628
   93SOL     OW  277   2.966   1.201   0.126 -0.1790  0.0257 -0.1380
   93SOL    HW1  278   2.977   1.109   0.168  0.5397  1.0419  0.3780
   93SOL    HW2  279   3.056   1.240   0.104  0.7563 -0.2708  2.5861
   94SOL     OW  280   1.321   2.326   2.059 -0.5216  0.1040  0.4342
   94SOL    HW1  281   1.301   2.249   2.118  1.4660 -0.6383 -1.7493
   94SOL    HW2  282   1.419   2.355   2.070  0.3467  2.3084 -1.3829
   95SOL     OW  283   0.086   0.456   0.951  0.0944  0.6269 -0.1404
   95SOL    HW1  284   0.146   0.402   1.010  0.6368 -1.0300 -0.8642
   95SOL    HW2  285   0.114   0.462   0.854  1.6088 -0.3919 -1.0351
   96SOL     OW  286   3.017   2.900   1.575  0.1989  0.5636  0.5064
   96SOL    HW1  287   3.111   2.936   1.568  1.2069 -2.8587  3.5233
   96SOL    HW2  288   2.975   2.892   1.483 -2.2196 -1.5877  0.2536
   97SOL     OW  289   2.363   0.609   1.529 -0.4320 -0.1036 -0.3645
   97SOL    HW1  290   2.341   0.702   1.494  0.4742 -0.2652 -1.0602
   97SOL    HW2  291   2.357   0.599   1.630 -1.0309  0.9632 -1.0882
   98SOL     OW  292   2.268   2.439   1.420  0.7481 -0.1233  0.1174
   98SOL    HW1  293   2.312   2.351   1.416 -0.4761  1.8505 -2.5045
   98SOL    HW2  294   2.221   2.455   1.329 -1.6458  0.3513 -1.1164
   99SOL     OW  295   0.324   0.298   1.914 -0.1517 -0.3946  1.1040
   99SOL    HW1  296   0.322   0.396   1.937 -0.7977 -2.6037  2.7220
   99SOL    HW2  297   0.336   0.280   1.810 -1.2456  1.1402 -1.3872
  100SOL     OW  298   2.131   0.289   2.247  0.4094 -0.2202 -0.7498
  100SOL    HW1  299   2.151   0.217   2.176  0.7868 -0.6833 -1.0757
  100SOL    HW2  300   2.034   0.326   2.237 -2.8820 -0.5886  2.1304
  101SOL     OW  301   0.032   0.065   2.500 -0.0268  0.3596  0.6438
  101SOL    HW1  302   0.127   0.031   2.474  0.5292 -1.7949 -0.1638
  101SOL    HW2  303   0.033   0.129   2.583  0.3235  0.5733  1.8479
  102SOL     OW  304   0.629   0.435   1.848 -0.1935 -0.3461  0.5230
  102SOL    HW1  305   0.546   0.477   1.804 -0.8391 -0.2545  0.7188
  102SOL    HW2  306   0.721   0.470   1.819 -0.0288 -1.7180  2.4234
  103SOL     OW  307   0.995   0.711   2.798 -0.2578  0.1160  0.0588
  103SOL    HW1  308   1.032   0.631   2.849 -0.3349  2.2423 -0.4866
  103SOL    HW2  309   1.015   0.805   2.845 -0.0585 -4.6250  1.4769
  104SOL     OW  310   0.144   0.648   2.142 -0.1297 -0.3125  0.3128
  104SOL    HW1  311   0.184   0.694   2.224 -0.9004  1.3253 -3.7325
  104SOL    HW2  312   0.059   0.699   2.125 -0.5443  0.1949 -0.8400
  105SOL     OW  313   2.383   1.975   1.217  0.0011  0.3243 -0.2413
  105SOL    HW1  314   2.371   2.031   1.298  1.7266 -1.1986 -2.4460
  105SOL    HW2  315   2.414   1.884   1.245 -0.0598 -1.2410 -3.2416
  106SOL     OW  316   1.673   0.190   0.437 -0.5105 -0.3015  0.1269
  106SOL    HW1  317   1.754   0.243   0.407 -0.3229 -1.0293 -0.8302
  106SOL    HW2  318   1.581   0.211   0.392 -3.2171  0.8572 -0.2629
  107SOL     OW  319   2.164   2.122   0.689  0.4261 -0.5089  0.0775
  107SOL    HW1  320   2.170   2.184   0.609 -1.5593 -0.8676  0.9173
  107SOL    HW2  321   2.086   2.146   0.747  1.1050 -2.7611 -1.1199
  108SOL     OW  322   3.060   2.643   1.200  0.3063  0.5684  0.6807
  108SOL    HW1  323   3.039   2.556   1.154 -1.7735  3.3299 -1.2453
  108SOL    HW2  324   3.093   2.621   1.295  0.6891 -0.0040  0.1107
  109SOL     OW  325   1.819   2.417   0.841 -0.2902 -0.3826 -0.5641
  109SOL    HW1  326   1.848   2.509   0.858 -1.9815 -2.6326 -1.4990
  109SOL    HW2  327   1.870   2.350   0.902  1.9769  0.3312  1.0324
  110SOL     OW  328   1.753   1.554   1.452 -0.5561  0.6737  0.6836
  110SOL    HW1  329   1.837   1.494   1.446  1.2926 -0.7939 -1.5205
  110SOL    HW2  330   1.705   1.547   1.541 -0.5974  0.5624 -2.2317
  111SOL     OW  331   1.752   2.233   2.036  0.2182  0.0528 -0.2955
  111SOL    HW1  332   1.778   2.245   1.939 -1.0218 -2.8828  0.4298
  111SOL    HW2  333   1.695   2.311   2.065  0.5707 -2.0818 -1.7899
  112SOL     OW  334   1.806   2.080   2.819  0.2154 -0.5090 -0.5538
  112SOL    HW1  335   1.773   2.133   2.901 -1.3965  2.7381 -0.0408
  112SOL    HW2  336   1.737   2.014   2.801 -0.6867 -0.5530  0.7606
  113SOL     OW  337   2.006   1.898   1.853 -0.4092  0.0811  0.2972
  113SOL    HW1  338   2.058   1.933   1.933 -0.2632 -1.8186  1.5782
  113SOL    HW2  339   1.972   1.800   1.862  2.1984 -4.3989 -0.6729
  114SOL     OW  340   3.061   1.663   1.772 -0.2337  0.5495  0.4120
  114SOL    HW1  341   2.983   1.593   1.772 -1.8613 -0.7245 -1.7599
  114SOL    HW2  342   0.031   1.622   1.737  2.6954  0.3464 -0.9250
  115SOL     OW  343   0.051   0.912   0.161 -0.6402  0.1073 -0.0754
  115SOL    HW1  344   0.031   0.830   0.217  2.0762  0.5707  0.9238
  115SOL    HW2  345   0.126   0.975   0.201  2.6406  0.1270  0.9776
  116SOL     OW  346   2.774   1.048   2.782 -0.2137 -0.5449 -0.0015
  116SOL    HW1  347   2.678   1.085   2.763 -0.1702  1.2763  0.7772
  116SOL    HW2  348   2.764   0.951   2.798  0.5674  0.1794 -0.5987
  117SOL     OW  349   2.951   2.462   0.153  0.3130  0.4084  0.4098
  117SOL    HW1  350   2.872   2.398   0.186 -1.2230 -1.6773 -1.4865
  117SOL    HW2  351   2.923   2.499   0.063 -0.4001  2.7184  0.0145
  118SOL     OW  352   0.696   2.110   2.937 -0.1152 -0.2267  0.0320
  118SOL    HW1  353   0.775   2.164   2.975 -0.0504  1.2107 -1.1157
  118SOL    HW2  354   0.720   2.071   2.847  1.9151 -4.5693 -0.6645
  119SOL     OW  355   0.487   2.349   0.823 -0.4526  0.4269  0.2061
  119SOL    HW1  356   0.566   2.313   0.768 -2.2558  1.2778 -0.4757
  119SOL    HW2  357   0.520   2.391   0.906 -3.8717  1.3446 -3.4729
  120SOL     OW  358   1.295   0.341   0.083  0.1136 -0.4998  0.0691
  120SOL    HW1  359   1.365   0.381   0.018  3.0267 -1.1175 -0.4659
  120SOL    HW2  360   1.220   0.407   0.107 -0.6074  1.2216  0.4902
  121SOL     OW  361   1.490   2.663   1.016  0.3235  0.5545 -0.4423
  121SOL    HW1  362   1.434   2.740   0.973 -0.4552  2.1949  0.7054
  121SOL    HW2  363   1.484   2.572   0.965 -2.6185 -2.2647  2.4430
  122SOL     OW  364   2.561   1.733   2.332  0.2903  0.0675 -0.2547
  122SOL    HW1  365   2.623   1.684   2.267  2.3999 -2.0151 -0.5459
  122SOL    HW2  366   2.459   1.729   2.308 -3.0393  1.2267  0.5652
  123SOL     OW  367   0.919   1.477   0.968  0.0134 -0.0815  0.0530
  123SOL    HW1  368   0.918   1.488   1.070  3.6114  0.6017 -0.5327
  123SOL    HW2  369   0.923   1.568   0.916 -1.2160  1.9046 -0.2712
  124SOL     OW  370   0.202   0.452   2.957  0.0596 -0.1761  0.0471
  124SOL    HW1  371   0.128   0.399   3.000 -0.2258  0.1437  0.8197
  124SOL    HW2  372   0.186   0.461   2.854 -0.9702  1.7004  0.0252
  125SOL     OW  373   0.501   0.430   0.110 -0.1223  0.0584 -0.0122
  125SOL    HW1  374   0.433   0.505   0.083 -2.1497 -0.0162 -1.9709
  125SOL    HW2  375   0.445   0.342   0.104  0.3528 -2.1715  1.6302
  126SOL     OW  376   0.334   1.690   0.669  0.7797 -0.1983 -0.4152
  126SOL    HW1  377   0.355   1.652   0.580 -1.6625  0.8946  0.0611
  126SOL    HW2  378   0.347   1.626   0.745 -1.1749  1.5384 -1.6403
  127SOL     OW  379   1.029   2.550   1.703 -0.2523 -0.3025  0.3733
  127SOL    HW1  380   0.960   2.622   1.684  1.5344 -0.5418  0.1008
  127SOL    HW2  381   1.065   2.518   1.613 -1.7573  0.6122  0.2217
  128SOL     OW  382   1.266   1.516   0.090 -0.1836 -0.4124  0.0172
  128SOL    HW1  383   1.201   1.590   0.125  0.4652  2.0098  0.7381
  128SOL    HW2  384   1.323   1.549   0.015  2.0116  0.6135  0.6281
  129SOL     OW  385   1.784   2.017   1.749  0.3903 -0.4390  0.0760
  129SOL    HW1  386   1.696   1.974   1.775  1.3756  0.3477 -0.2916
  129SOL    HW2  387   1.866   1.968   1.780 -1.7311  1.0157 -0.6454
  130SOL     OW  388   1.749   2.292   1.723  0.6284 -0.0210 -0.4197
  130SOL    HW1  389   1.772   2.190   1.727  0.1783 -0.3108 -0.7631
  130SOL    HW2  390   1.652   2.314   1.688 -1.9795  1.9219  1.3572
  131SOL     OW  391   2.933   2.370   2.170 -0.1570 -0.0094 -0.1267
  131SOL    HW1  392   2.957   2.271   2.195  0.6556 -3.2428  1.6547
  131SOL    HW2  393   2.983   2.437   2.229 -0.2304  3.6198 -0.2690
  132SOL     OW  394   2.936   1.847   0.804 -0.0536 -0.4351  0.9284
  132SOL    HW1  395   3.029   1.812   0.783 -2.1241 -0.3996 -1.1100
  132SOL    HW2  396   2.937   1.914   0.881  2.3666 -1.4375  0.5725
  133SOL     OW  397   0.812   0.628   2.027  0.3976  0.1031 -0.6185
  133SOL    HW1  398   0.820   0.589   1.935 -1.5912 -1.9143  0.5781
  133SOL    HW2  399   0.893   0.683   2.048 -0.1490 -0.9044  0.9445
  134SOL     OW  400   2.825   1.723   0.038 -0.7406 -0.2523 -0.3516
  134SOL    HW1  401   2.852   1.762   0.130 -0.0580  1.5713 -0.8799
  134SOL    HW2  402   2.787   1.795   3.098  0.2595 -2.7617  1.2272
  135SOL     OW  403   1.747   0.956   2.512 -0.7234 -0.2636 -0.4678
  135SOL    HW1  404   1.832   0.967   2.573  1.7254  1.2080  1.3688
  135SOL    HW2  405   1.665   0.965   2.568  3.1510 -0.6682  0.6242
  136SOL     OW  406   2.610   1.599   1.106 -0.3123 -0.5157 -0.1733
  136SOL    HW1  407   2.605   1.665   1.025 -1.4329  2.1488 -1.0491
  136SOL    HW2  408   2.545   1.630   1.183 -0.3332  0.5698  3.1675
  137SOL     OW  409   2.794   1.635   0.684  0.2242  0.1132  0.0357
  137SOL    HW1  410   2.776   1.534   0.708 -2.1640  1.1062  0.4772
  137SOL    HW2  411   2.865   1.671   0.748  1.4094 -3.7907  2.5631
  138SOL     OW  412   2.858   0.565   0.766  0.1761 -0.9348  0.0288
  138SOL    HW1  413   2.918   0.533   0.842  0.8162  0.0918  1.8783
  138SOL    HW2  414   2.796   0.639   0.800  0.8171 -0.2667  1.6273
  139SOL     OW  415   2.977   2.823   0.034 -0.0476  0.5140 -0.0631
  139SOL    HW1  416   2.982   2.857   3.054  0.7500 -1.5576  0.8539
  139SOL    HW2  417   3.057   2.856   0.093  1.7668 -1.0735 -1.2939
  140SOL     OW  418   0.672   1.476   1.557 -0.0037  0.7694  0.4461
  140SOL    HW1  419   0.751   1.414   1.548  0.5373 -0.8542  1.2368
  140SOL    HW2  420   0.581   1.424   1.564 -2.5158  0.8280  1.5861
  141SOL     OW  421   1.241   1.867   0.876  0.2263  0.1714  0.0717
  141SOL    HW1  422   1.201   1.882   0.968  1.8100  2.3887  0.7446
  141SOL    HW2  423   1.343   1.853   0.880  2.5164  1.3953 -1.3457
  142SOL     OW  424   0.915   0.722   0.819 -0.0004 -0.3707 -0.3511
  142SOL    HW1  425   0.828   0.670   0.812  1.4648 -0.3669 -0.8144
  142SOL    HW2  426   0.984   0.650   0.799  0.4281 -0.9795  0.7687
  143SOL     OW  427   0.560   1.287   2.376  0.6284 -0.1728  0.0254
  143SOL    HW1  428   0.466   1.325   2.392  2.6819  0.5495 -0.8732
  143SOL    HW2  429   0.634   1.338   2.430 -0.4338  1.2479 -0.7191
  144SOL     OW  430   2.295   3.114   0.640  0.2728 -0.2579  0.5244
  144SOL    HW1  431   2.361   0.076   0.667  1.1354  1.0283  3.3804
  144SOL    HW2  432   2.305   3.031   0.694 -2.7816 -1.6941 -0.8071
  145SOL     OW  433   2.060   0.269   2.866  0.4816 -0.5356 -0.6426
  145SOL    HW1  434   2.108   0.178   2.876 -0.7747 -1.6206 -2.4321
  145SOL    HW2  435   2.119   0.348   2.839  1.0686  2.1877 -2.1078
  146SOL     OW  436   0.058   2.692   0.448 -0.5205  0.5193  0.4355
  146SOL    HW1  437   0.129   2.653   0.383  2.5535 -1.4737 -1.3232
  146SOL    HW2  438   0.104   2.757   0.509 -2.2225 -3.7794 -0.2211
  147SOL     OW  439   1.035   1.215   2.706 -0.2491  0.3244  0.3547
  147SOL    HW1  440   1.012   1.140   2.638  1.4054  0.3711  2.9279
  147SOL    HW2  441   1.094   1.283   2.660  0.6599 -2.0788  0.3261
  148SOL     OW  442   1.590   3.100   2.787 -0.0921 -0.0304  0.1888
  148SOL    HW1  443   1.534   0.056   2.831  0.7833 -1.6215  0.8435
  148SOL    HW2  444   1.543   3.013   2.757 -1.1936 -1.2244  1.6958
  149SOL     OW  445   1.551   0.138   1.812 -0.0156  0.6609  0.5693
  149SOL    HW1  446   1.448   0.127   1.818  1.2275 -0.5924 -0.3846
  149SOL    HW2  447   1.593   0.192   1.883  2.1796 -0.9472 -1.0750
  150SOL     OW  448   2.351   2.669   3.087  0.1290  0.1062 -0.3693
  150SOL    HW1  449   2.444   2.631   3.058  2.4762  1.7789 -1.1776
  150SOL    HW2  450   2.285   2.600   0.009  4.0550  4.4744  0.8885
  151SOL     OW  451   0.677   1.487   0.030  0.2573  0.0370  0.5737
  151SOL    HW1  452   0.588   1.476   3.094 -1.6875 -2.3102 -1.5096
  151SOL    HW2  453   0.759   1.496   3.086  0.9008  2.0007 -0.4465
  152SOL     OW  454   0.429   3.071   1.595  0.4469 -0.0641  0.1703
  152SOL    HW1  455   0.394   0.028   1.532  1.2724  0.3910 -2.4730
  152SOL    HW2  456   0.383   3.072   1.688 -1.7445 -0.2535  1.2610
  153SOL     OW  457   2.531   3.035   1.687 -0.2258  0.1120 -0.2101
  153SOL    HW1  458   2.604   3.080   1.627  2.3435  3.0144  1.5850
  153SOL    HW2  459   2.557   3.038   1.791 -2.3380  1.8405  3.0146
  154SOL     OW  460   2.437   0.065   2.642  0.2736  0.2751 -0.2072
  154SOL    HW1  461   2.353   0.097   2.591 -3.5817  0.4904 -0.2544
  154SOL    HW2  462   2.500   0.020   2.576 -0.5795 -0.0679 -0.4895
  155SOL     OW  463   2.950   1.135   0.468 -0.6362  0.0304  0.3324
  155SOL    HW1  464   3.024   1.196   0.434  0.8705  0.1072 -0.3723
  155SOL    HW2  465   2.947   1.144   0.570 -0.1624 -0.1876 -2.7722
  156SOL     OW  466   3.022   1.549   0.505 -0.0041 -0.1534  0.5653
  156SOL    HW1  467   2.962   1.608   0.563  0.0769 -0.9261 -0.4500
  156SOL    HW2  468   3.073   1.600   0.427  3.3050  0.8500 -0.9514
  157SOL     OW  469   0.791   0.472   0.351  0.2784 -0.3044  0.4443
  157SOL    HW1  470   0.800   0.377   0.306 -0.7612 -1.8427 -2.6011
  157SOL    HW2  471   0.885   0.512   0.365  2.2380  0.1713 -0.0269
  158SOL     OW  472   1.688   1.194   1.168  0.4633  0.3460 -0.2275
  158SOL    HW1  473   1.785   1.197   1.137 -2.1917  0.9489  1.2056
  158SOL    HW2  474   1.657   1.288   1.196 -1.1734  1.1217 -1.0421
  159SOL     OW  475   0.107   0.309   0.226 -0.6392  0.0140  0.5113
  159SOL    HW1  476   0.132   0.403   0.251 -0.9888 -1.7594  1.2174
  159SOL    HW2  477   0.190   0.250   0.216 -2.7849 -2.2544  0.0864
  160SOL     OW  478   2.125   2.305   1.948 -0.0690  0.0384  0.2757
  160SOL    HW1  479   2.138   2.338   2.049  1.2413  0.8743 -1.6873
  160SOL    HW2  480   2.034   2.333   1.919  0.0301  0.7900  0.5071
  161SOL     OW  481   0.306   0.840   3.004 -0.2105  0.8709  1.0951
  161SOL    HW1  482   0.220   0.870   2.957 -1.9329 -1.2984 -0.7069
  161SOL    HW2  483   0.287   0.765   3.066 -1.4375 -0.1017 -1.2112
  162SOL     OW  484   0.739   0.189   1.772  0.1649 -0.2921 -0.4027
  162SOL    HW1  485   0.833   0.222   1.777 -3.2754 -0.1744 -0.2445
  162SOL    HW2  486   0.677   0.268   1.798  0.5423 -1.4971  1.9929
  163SOL     OW  487   2.646   2.904   2.587  0.4829 -0.3245 -0.1319
  163SOL    HW1  488   2.622   2.955   2.503 -1.0695 -0.5854 -0.8522
  163SOL    HW2  489   2.638   2.808   2.561  0.7917  0.3653  1.3729
  164SOL     OW  490   2.316   1.739   0.472 -0.0565  0.6459 -0.4133
  164SOL    HW1  491   2.354   1.706   0.383 -0.1101 -3.8781 -3.3817
  164SOL    HW2  492   2.379   1.727   0.553 -0.2428  0.7943  0.7047
  165SOL     OW  493   0.307   0.117   1.410  0.8775 -0.0492  0.6497
  165SOL    HW1  494   0.207   0.130   1.405  0.2529  0.9006  0.3661
  165SOL    HW2  495   0.345   0.056   1.336  1.0038 -0.8248  0.1338
  166SOL     OW  496   2.260   0.558   0.587  0.1480  0.2678 -0.4618
  166SOL    HW1  497   2.161   0.568   0.584  2.3243  0.4302 -0.1247
  166SOL    HW2  498   2.288   0.499   0.667 -2.6142 -0.9687 -1.2300
  167SOL     OW  499   2.186   0.769   0.211 -0.2086  0.0070  0.4722
  167SOL    HW1  500   2.107   0.751   0.275 -2.0657 -0.6676 -0.8137
  167SOL    HW2  501   2.230   0.681   0.171  1.4469 -0.9965 -2.3524
  168SOL     OW  502   1.652   0.146   2.487  0.1195  0.0455 -0.0294
  168SOL    HW1  503   1.649   0.046   2.505  0.5954  0.2770  0.5528
  168SOL    HW2  504   1.722   0.187   2.552  0.6629 -2.0521 -3.4747
  169SOL     OW  505   0.736   1.908   0.864 -0.0958  0.0194  0.0161
  169SOL    HW1  506   0.647   1.909   0.820 -0.9412  0.5779 -1.1375
  169SOL    HW2  507   0.735   1.936   0.962  1.4961 -0.4766  0.2333
  170SOL     OW  508   3.090   0.863   1.379 -0.0373  0.3758  0.2767
  170SOL    HW1  509   0.036   0.885   1.297 -2.0816 -0.4910 -0.0153
  170SOL    HW2  510   0.020   0.910   1.458 -1.1018 -0.1704 -2.6670
  171SOL     OW  511   2.866   1.464   2.330 -0.2697 -0.2086 -0.7557
  171SOL    HW1  512   2.808   1.431   2.401  2.7600 -1.8936  0.0171
  171SOL    HW2  513   2.819   1.532   2.269 -0.5241 -1.1506  3.4597
  172SOL     OW  514   0.737   1.733   1.502 -0.5519  0.3085  0.0967
  172SOL    HW1  515   0.661   1.800   1.504  2.1488  1.0672 -1.1905
  172SOL    HW2  516   0.700   1.639   1.519 -0.7690  0.7252 -0.3806
  173SOL     OW  517   1.954   1.727   2.967  0.5565  0.3766 -0.1392
  173SOL    HW1  518   1.889   1.657   2.999 -0.8747  0.0634  1.8722
  173SOL    HW2  519   1.943   1.812   3.019  0.9902 -1.3620 -2.4463
  174SOL     OW  520   1.741   0.597   2.776  0.4176 -0.0857  0.0958
  174SOL    HW1  521   1.728   0.497   2.797  1.4461 -0.3716 -0.1233
  174SOL    HW2  522   1.718   0.652   2.859 -0.1876  0.9150 -0.2767
  175SOL     OW  523   0.857   1.561   1.277  0.2258 -0.2180  0.6198
  175SOL    HW1  524   0.898   1.651   1.292  1.0163 -1.9685  2.8571
  175SOL    HW2  525   0.899   1.490   1.332 -3.8503  0.4666 -1.8337
  176SOL     OW  526   1.262   0.104   0.269  0.4785  0.1014 -0.4832
  176SOL    HW1  527   1.296   0.026   0.324  0.1140 -2.8244  1.0069
  176SOL    HW2  528   1.330   0.181   0.264  0.4336 -0.2072  0.7857
  177SOL     OW  529   0.113   1.275   0.058  0.8349  0.0608 -0.3474
  177SOL    HW1  530   0.146   1.249   0.148  0.6768 -1.0418  0.9682
  177SOL    HW2  531   0.161   1.235   3.095 -0.8020 -1.4973 -0.1529
  178SOL     OW  532   3.037   2.369   2.709  0.7964  0.1472  0.1624
  178SOL    HW1  533   3.023   2.333   2.805 -1.2660 -0.0901  1.3068
  178SOL    HW2  534   0.015   2.380   2.676 -2.9008 -0.9031 -1.3199
  179SOL     OW  535   2.660   2.639   2.542 -0.2489 -0.2256 -0.5320
  179SOL    HW1  536   2.633   2.635   2.444  1.5931 -2.1275 -0.4403
  179SOL    HW2  537   2.687   2.549   2.577  2.5899  4.2768  1.5936
  180SOL     OW  538   2.170   0.711   1.232  0.5812 -0.3592 -0.5687
  180SOL    HW1  539   2.092   0.665   1.280  0.3759 -1.6636  2.1102
  180SOL    HW2  540   2.229   0.766   1.299  0.9324  0.5280  0.4581
  181SOL     OW  541   2.116   0.429   2.590  0.3470 -0.0404  0.2505
  181SOL    HW1  542   2.166   0.440   2.677 -0.5714  2.1963  1.8414
  181SOL    HW2  543   2.185   0.444   2.516 -0.3492 -0.6605  1.3803
  182SOL     OW  544   2.675   2.362   2.265 -0.1204 -0.3047  0.7653
  182SOL    HW1  545   2.649   2.457   2.289  2.4418  0.3572  0.7356
  182SOL    HW2  546   2.775   2.355   2.231  2.6938  0.0134 -3.0973
  183SOL     OW  547   2.092   0.833   1.807 -0.2142 -0.2309  0.1736
  183SOL    HW1  548   2.185   0.872   1.812  1.5404  1.1769  0.5509
  183SOL    HW2  549   2.082   0.791   1.714  1.6544  3.8007 -1.5856
  184SOL     OW  550   0.120   1.696   1.030  0.1200  0.0481  0.1587
  184SOL    HW1  551   0.157   1.609   1.000  0.6095  1.2124 -1.7808
  184SOL    HW2  552   0.106   1.757   0.953  0.2020 -1.4697  0.8404
  185SOL     OW  553   2.914   0.214   0.601  0.0355 -0.6725  0.3712
  185SOL    HW1  554   2.854   0.284   0.638  1.2651  0.2334 -0.7220
  185SOL    HW2  555   3.010   0.244   0.567  2.0081 -0.3293  0.7174
  186SOL     OW  556   2.248   2.473   2.442  0.3931  0.7088  0.0641
  186SOL    HW1  557   2.149   2.449   2.441  0.9515  0.9155  0.0367
  186SOL    HW2  558   2.263   2.573   2.454 -2.0213  0.3771  0.9806
  187SOL     OW  559   0.663   1.558   0.673  0.1076 -0.5275 -0.4793
  187SOL    HW1  560   0.664   1.464   0.634 -0.3504  0.0015 -0.6021
  187SOL    HW2  561   0.747   1.590   0.729  1.0181 -0.2882 -1.6144
  188SOL     OW  562   2.198   1.277   1.061  0.1992 -0.0409 -0.2344
  188SOL    HW1  563   2.232   1.189   1.029  1.3130  1.2191  3.4785
  188SOL    HW2  564   2.250   1.349   1.015 -0.0822  0.3223 -0.1623
  189SOL     OW  565   3.093   1.365   2.719  0.1326  0.0219 -0.4316
  189SOL    HW1  566   0.037   1.318   2.788  4.3957 -3.4444  0.2372
  189SOL    HW2  567   3.037   1.297   2.669  1.8832  1.7566 -0.7943
  190SOL     OW  568   2.302   0.440   2.409  0.8930  0.6989 -0.0018
  190SOL    HW1  569   2.244   0.390   2.341 -0.7227  0.1267  0.8165
  190SOL    HW2  570   2.399   0.410   2.395 -0.1999  0.4093 -2.1458
  191SOL     OW  571   1.204   0.226   2.186 -0.0356 -0.4630 -0.2170
  191SOL    HW1  572   1.174   0.292   2.117  2.5815 -2.2632  3.0801
  191SOL    HW2  573   1.134   0.153   2.190 -0.0163  0.1148  0.0805
  192SOL     OW  574   1.080   1.472   1.704 -0.7476  0.1156  0.1801
  192SOL    HW1  575   1.177   1.506   1.732 -1.2738  0.7957  1.5605
  192SOL    HW2  576   1.012   1.545   1.719  3.3749 -0.6852 -0.3491
  193SOL     OW  577   1.236   2.868   0.807 -0.1698 -0.7185  0.3956
  193SOL    HW1  578   1.216   2.894   0.904 -0.8713  2.7204 -0.1291
  193SOL    HW2  579   1.229   2.766   0.802 -0.3135 -2.4356  0.4752
  194SOL     OW  580   0.496   1.935   2.037 -0.2811 -0.2378  0.1480
  194SOL    HW1  581   0.468   2.033   2.063 -0.6710  1.6842 -0.6096
  194SOL    HW2  582   0.587   1.926   1.989  0.3371 -0.7393 -2.1284
  195SOL     OW  583   1.761   0.628   0.708 -0.2450  0.1367 -0.1682
  195SOL    HW1  584   1.694   0.646   0.638  1.7926 -0.1734  1.4372
  195SOL    HW2  585   1.766   0.708   0.771 -1.7299  1.6732 -0.7579
  196SOL     OW  586   1.129   1.408   2.163 -0.0764  0.1874  0.6176
  196SOL    HW1  587   1.150   1.367   2.073  0.1061  0.7101  1.8315
  196SOL    HW2  588   1.044   1.374   2.205  1.1241  0.9885 -1.2051
  197SOL     OW  589   3.024   0.495   1.988  0.0594  0.0157  0.4613
  197SOL    HW1  590   3.100   0.524   2.055  0.3657 -0.6811  3.1525
  197SOL    HW2  591   2.933   0.530   2.011  0.5354 -2.6447  3.4308
  198SOL     OW  592   0.521   0.717   1.068 -0.5560  0.4982  0.2165
  198SOL    HW1  593   0.520   0.716   0.967  1.7407  1.8087  0.7443
  198SOL    HW2  594   0.540   0.808   1.100  0.7180  0.6431 -0.6395
  199SOL     OW  595   0.204   2.550   1.429 -0.1850 -0.0906 -0.4060
  199SOL    HW1  596   0.206   2.649   1.417  1.1729 -1.3097 -0.8686
  199SOL    HW2  597   0.112   2.520   1.459 -0.2597 -2.2507  1.0963
  200SOL     OW  598   1.445   1.616   2.611  0.4930 -0.3557  0.7674
  200SOL    HW1  599   1.494   1.554   2.541 -0.5523 -0.8657 -1.3312
  200SOL    HW2  600   1.494   1.630   2.701 -0.9475 -0.9214  1.4515
  201SOL     OW  601   0.581   2.532   1.845  0.2553  0.9000 -0.3600
  201SOL    HW1  602   0.638   2.583   1.778  0.4439 -0.2429  1.4587
  201SOL    HW2  603   0.504   2.482   1.794 -1.0783 -0.5788 -1.1119
  202SOL     OW  604   1.361   2.928   3.003  0.1027  0.0558  0.2370
  202SOL    HW1  605   1.263   2.910   2.974  0.1439  0.5294  0.0301
  202SOL    HW2  606   1.365   3.021   3.041  2.0056  2.3787 -0.5409
  203SOL     OW  607   1.585   0.524   2.269 -0.3286 -0.4607  0.4159
  203SOL    HW1  608   1.491   0.491   2.288  1.8335  1.0666 -0.2624
  203SOL    HW2  609   1.649   0.491   2.342 -1.5976  2.9287  0.8514
  204SOL     OW  610   0.710   1.031   1.604  0.1147  0.3350 -0.3839
  204SOL    HW1  611   0.721   1.119   1.649 -1.0954 -1.7999 -0.2106
  204SOL    HW2  612   0.659   0.958   1.655 -1.4904 -0.6589  1.0190
  205SOL     OW  613   2.180   0.900   2.645 -0.5584  0.6956 -0.1671
  205SOL    HW1  614   2.127   0.831   2.590  1.4452 -0.5687 -2.3458
  205SOL    HW2  615   2.244   0.958   2.587  0.7748  0.8184 -1.8016
  206SOL     OW  616   0.478   1.940   3.031 -0.3965 -0.3912  0.2376
  206SOL    HW1  617   0.430   1.955   2.942 -1.7461  2.0766  0.1024
  206SOL    HW2  618   0.566   1.994   3.030  2.1279  0.9856 -4.8132
  207SOL     OW  619   0.485   0.177   2.093 -0.4196  0.0401  0.4185
  207SOL    HW1  620   0.554   0.119   2.047 -2.9068 -1.6872 -1.5281
  207SOL    HW2  621   0.429   0.217   2.023  2.6744  1.7170  2.4099
  208SOL     OW  622   0.661   2.637   1.592  0.2874  0.2614 -0.1073
  208SOL    HW1  623   0.575   2.688   1.558 -2.6592  1.6765 -0.5302
  208SOL    HW2  624   0.686   2.555   1.534 -0.7450 -2.7594 -1.1464
  209SOL     OW  625   1.266   2.727   0.079 -0.0100  0.3249  0.0034
  209SOL    HW1  626   1.239   2.785   0.158  0.0285  0.5186 -1.5602
  209SOL    HW2  627   1.301   2.781   3.117 -1.4545  2.1812  2.2086
  210SOL     OW  628   2.891   1.467   1.808 -0.1966  0.3989  0.2031
  210SOL    HW1  629   2.811   1.451   1.747  2.9954  0.9162 -0.5018
  210SOL    HW2  630   2.895   1.401   1.886  3.0291 -1.9318 -2.0198
  211SOL     OW  631   1.190   0.369   1.560  0.7994 -0.2367 -0.0785
  211SOL    HW1  632   1.216   0.464   1.555  0.2085 -0.6944  0.1630
  211SOL    HW2  633   1.279   0.317   1.551 -1.7323  0.7314  3.7788
  212SOL     OW  634   1.066   2.157   1.675 -0.0877  0.2266  0.2105
  212SOL    HW1  635   1.044   2.243   1.724 -0.1400 -2.7766 -0.4903
  212SOL    HW2  636   1.161   2.131   1.694 -0.6502 -0.4040  0.3638
  213SOL     OW  637   2.570   0.303   1.780 -0.1679 -0.4976 -0.3834
  213SOL    HW1  638   2.500   0.282   1.852 -1.6949 -1.8401  2.4559
  213SOL    HW2  639   2.656   0.252   1.803 -0.9123 -1.9825 -0.2114
  214SOL     OW  640   0.753   1.946   1.929 -0.3404  0.0238  0.2265
  214SOL    HW1  641   0.829   1.890   1.890  2.7492 -1.6583 -0.9075
  214SOL    HW2  642   0.796   2.031   1.969  1.8188  2.7940 -1.2007
  215SOL     OW  643   2.695   2.039   1.183  0.1385 -0.0028 -0.1542
  215SOL    HW1  644   2.600   2.035   1.149  2.3074 -0.9634 -0.2262
  215SOL    HW2  645   2.700   2.011   1.282 -0.3972 -2.4634 -1.1910
  216SOL     OW  646   0.135   0.931   1.611 -0.1477 -0.7938  0.5213
  216SOL    HW1  647   0.203   0.971   1.547  1.8288 -0.2988  0.1143
  216SOL    HW2  648   0.151   0.832   1.630  1.7983 -2.5105  0.1485
  217SOL     OW  649   2.580   0.226   1.343 -0.4103  0.2995 -0.6390
  217SOL    HW1  650   2.659   0.243   1.281 -1.6104  2.5282 -0.1476
  217SOL    HW2  651   2.563   0.300   1.409  0.8803 -4.6649 -0.0274
  218SOL     OW  652   1.376   2.298   1.103  0.2838  0.6041  0.0758
  218SOL    HW1  653   1.452   2.247   1.147 -1.4469 -1.4880 -2.5247
  218SOL    HW2  654   1.383   2.304   1.000 -0.2366 -0.0702 -2.1247
  219SOL     OW  655   1.606   2.260   0.277  0.5129 -0.0560  0.0740
  219SOL    HW1  656   1.700   2.257   0.243 -1.5705 -1.2171  3.1639
  219SOL    HW2  657   1.594   2.342   0.339 -0.2158  1.1112  0.1852
  220SOL     OW  658   1.862   2.267   0.161 -0.1080 -0.0940  0.0215
  220SOL    HW1  659   1.885   2.360   0.202 -0.4972  2.1768  0.7813
  220SOL    HW2  660   1.944   2.205   0.168 -0.2304  0.3931  0.2768
  221SOL     OW  661   2.920   2.056   0.995  0.5508 -0.6203 -0.2002
  221SOL    HW1  662   3.008   2.024   1.038  0.2361 -0.5853  1.4942
  221SOL    HW2  663   2.848   2.070   1.065  0.0153 -0.5245 -0.1169
  222SOL     OW  664   1.210   2.334   0.801  0.7232 -0.8014 -0.3730
  222SOL    HW1  665   1.296   2.283   0.801  0.1124  1.0711  0.4443
  222SOL    HW2  666   1.139   2.263   0.819 -1.5958  0.7875 -0.2904
  223SOL     OW  667   0.664   2.881   2.439  0.5905 -0.4918  0.0301
  223SOL    HW1  668   0.616   2.909   2.524 -1.3504 -0.8367  0.7855
  223SOL    HW2  669   0.760   2.843   2.448 -0.5125  3.2674 -0.1579
  224SOL     OW  670   2.910   1.251   1.024  0.0495  0.2428 -0.0280
  224SOL    HW1  671   2.813   1.280   1.047  3.9124  2.7251 -2.9412
  224SOL    HW2  672   2.970   1.307   1.086  1.0822 -1.4977  0.7468
  225SOL     OW  673   2.223   1.609   1.112 -0.1127  0.3501 -0.2604
  225SOL    HW1  674   2.294   1.654   1.171 -1.1585 -2.0934  2.5871
  225SOL    HW2  675   2.262   1.535   1.055  0.1197 -0.6956  1.0984
  226SOL     OW  676   1.280   2.607   0.515 -0.0626 -0.2337 -0.3240
  226SOL    HW1  677   1.380   2.625   0.526 -0.0239  0.8230  2.5317
  226SOL    HW2  678   1.242   2.598   0.611 -0.2294 -0.7421 -1.2575
  227SOL     OW  679   1.356   1.094   1.473 -0.3112 -0.0049 -0.4096
  227SOL    HW1  680   1.314   1.153   1.400  1.0639 -2.3803  0.5831
  227SOL    HW2  681   1.411   1.148   1.539 -0.2386 -3.4403  2.5208
  228SOL     OW  682   1.316   0.715   2.115 -0.0485 -0.0869  0.2215
  228SOL    HW1  683   1.345   0.808   2.089 -3.0643  2.5714 -2.2538
  228SOL    HW2  684   1.372   0.643   2.061 -0.1271 -0.6274  0.2441
  229SOL     OW  685   2.795   0.772   2.765  0.2786  0.3260  0.2378
  229SOL    HW1  686   2.896   0.747   2.777 -0.3007  0.6580  1.9382
  229SOL    HW2  687   2.742   0.748   2.849 -1.1885  0.9328  3.6131
  230SOL     OW  688   1.057   1.153   0.927 -0.1564 -0.7233  0.0846
  230SOL    HW1  689   1.086   1.055   0.935 -0.2520 -1.4362  0.4575
  230SOL    HW2  690   1.138   1.209   0.901  1.2518  1.4899 -0.1919
  231SOL     OW  691   2.599   2.983   1.964  0.1816 -0.3627 -0.4223
  231SOL    HW1  692   2.672   2.912   1.968 -0.9485  2.3855  2.9993
  231SOL    HW2  693   2.509   2.935   1.981  1.9644 -2.6280 -1.8830
  232SOL     OW  694   0.595   1.965   0.430  0.7740 -0.4044 -0.2258
  232SOL    HW1  695   0.648   1.973   0.514  0.8081  1.6567 -0.8245
  232SOL    HW2  696   0.645   2.013   0.355 -0.1189 -1.1463  0.7202
  233SOL     OW  697   1.306   2.415   2.487  0.3000 -0.2861  0.4323
  233SOL    HW1  698   1.352   2.364   2.558  1.9684  1.0517 -1.8791
  233SOL    HW2  699   1.204   2.390   2.487 -4.1303  0.3941  2.4405
  234SOL     OW  700   1.039   1.209   1.706 -0.2769  0.8934  0.8516
  234SOL    HW1  701   1.056   1.310   1.708 -1.0567 -1.2131  1.3402
  234SOL    HW2  702   0.943   1.201   1.743 -0.8836 -0.2348 -0.4178
  235SOL     OW  703   0.536   1.910   1.648 -0.0886  0.5553  0.1628
  235SOL    HW1  704   0.618   1.930   1.707 -0.9881  0.8760  0.9150
  235SOL    HW2  705   0.512   1.992   1.592  1.9134  0.3154  0.5936
  236SOL     OW  706   1.867   2.965   2.538  0.6747  0.2065 -0.3541
  236SOL    HW1  707   1.763   2.961   2.529 -3.5728  1.2731 -0.7423
  236SOL    HW2  708   1.882   2.981   2.638 -0.6227 -0.2851  1.9450
  237SOL     OW  709   1.348   3.076   0.697 -0.3679 -0.0097 -0.1979
  237SOL    HW1  710   1.291   2.996   0.728 -0.5162 -1.4957  1.6847
  237SOL    HW2  711   1.313   0.043   0.741  0.8498  1.2604  1.0660
  238SOL     OW  712   1.352   0.698   2.725  0.2253  0.2294  0.2078
  238SOL    HW1  713   1.412   0.720   2.639 -0.3990  2.6552 -1.1426
  238SOL    HW2  714   1.313   0.602   2.717  1.4445 -3.3661  0.7702
  239SOL     OW  715   0.677   0.437   2.144 -0.9589 -0.5773  0.1048
  239SOL    HW1  716   0.632   0.420   2.053 -3.3236  2.8844 -2.9372
  239SOL    HW2  717   0.747   0.517   2.138  2.7085  2.3236  2.5885
  240SOL     OW  718   2.159   2.739   0.825  0.2119  0.3314  0.5345
  240SOL    HW1  719   2.223   2.657   0.829  0.5929 -2.3245  0.1250
  240SOL    HW2  720   2.068   2.702   0.848  1.1414  1.2547  0.4511
  241SOL     OW  721   1.235   1.619   1.463 -0.0223  0.6332 -0.3153
  241SOL    HW1  722   1.156   1.561   1.429 -0.9480 -1.2559 -0.3989
  241SOL    HW2  723   1.278   1.670   1.384 -1.3210 -1.0636  1.8561
  242SOL     OW  724   0.192   0.616   0.735  0.4288  0.0760  0.5823
  242SOL    HW1  725   0.114   0.672   0.712  0.1690 -1.8906  0.1235
  242SOL    HW2  726   0.242   0.589   0.650 -3.0467  3.5680 -1.6098
  243SOL     OW  727   0.465   0.591   1.603 -0.2561 -0.0904 -0.1823
  243SOL    HW1  728   0.368   0.602   1.566 -3.6920  0.2557 -3.2446
  243SOL    HW2  729   0.511   0.530   1.537 -1.1557  1.1415 -1.3937
  244SOL     OW  730   1.149   0.507   2.940 -0.5933  0.6403  0.5123
  244SOL    HW1  731   1.096   0.462   3.011  2.3388  0.3320 -1.5660
  244SOL    HW2  732   1.229   0.560   2.982 -2.0463  1.1300  1.1691
  245SOL     OW  733   2.099   0.574   3.006 -0.0897 -0.1909 -0.2513
  245SOL    HW1  734   2.154   0.507   2.946  1.0000 -2.6254 -0.6516
  245SOL    HW2  735   2.117   0.671   2.981  0.6891  0.6982 -0.1152
  246SOL     OW  736   0.346   0.986   1.799  0.2050 -0.4288  0.1479
  246SOL    HW1  737   0.271   0.985   1.731 -1.0332  2.4471  0.6860
  246SOL    HW2  738   0.433   0.953   1.757 -1.5447  1.4164 -1.9834
  247SOL     OW  739   0.442   0.104   2.358 -0.4905 -0.1120 -0.5333
  247SOL    HW1  740   0.454   0.146   2.263  0.5414 -1.0254  1.7803
  247SOL    HW2  741   0.533   0.095   2.405 -2.4643  0.6653  1.8237
  248SOL     OW  742   0.409   1.572   2.175  0.4062 -0.2462 -0.1516
  248SOL    HW1  743   0.479   1.632   2.225  0.9484  0.0194 -0.4289
  248SOL    HW2  744   0.353   1.637   2.122 -1.1116 -1.0734  0.3861
  249SOL     OW  745   0.263   0.102   2.823  0.2324  0.4587 -0.2366
  249SOL    HW1  746   0.341   0.167   2.817  1.8022  0.2714 -1.7229
  249SOL    HW2  747   0.287   0.016   2.775  2.1577 -1.3264  0.4240
  250SOL     OW  748   3.001   2.884   2.887  0.2119  0.4452  0.8702
  250SOL    HW1  749   3.092   2.864   2.848  1.0823 -1.4213 -0.1655
  250SOL    HW2  750   2.931   2.897   2.816 -2.0776 -1.2210 -0.3322
  251SOL     OW  751   0.214   1.461   0.923  0.6231  0.0188  0.0096
  251SOL    HW1  752   0.164   1.390   0.874  2.8978  0.2849 -1.5875
  251SOL    HW2  753   0.315   1.445   0.915  1.2941  2.2198  0.5134
  252SOL     OW  754   1.509   2.802   2.282  0.1034  0.8440 -0.0431
  252SOL    HW1  755   1.426   2.845   2.240 -0.7274  2.0728 -0.1354
  252SOL    HW2  756   1.487   2.722   2.335  0.0804  1.6800 -0.3602
  253SOL     OW  757   2.034   1.967   2.713 -0.4255 -0.2965  0.0892
  253SOL    HW1  758   1.963   2.001   2.781 -2.0356  0.5229  0.7787
  253SOL    HW2  759   2.048   1.868   2.723 -2.5466 -1.1541  0.6770
  254SOL     OW  760   0.435   1.534   1.829 -0.7235  0.1909  0.0473
  254SOL    HW1  761   0.410   1.434   1.833  0.3052  0.9001  0.9143
  254SOL    HW2  762   0.531   1.549   1.861 -2.7868  0.5892  1.7377
  255SOL     OW  763   1.039   0.291   1.775 -0.6348  0.3130  0.7177
  255SOL    HW1  764   1.082   0.198   1.780  0.0291 -1.4655  0.9886
  255SOL    HW2  765   1.092   0.342   1.700  0.9808 -0.3473  0.6762
  256SOL     OW  766   2.988   2.381   1.244 -0.4402  0.0034 -0.0884
  256SOL    HW1  767   2.928   2.358   1.322 -0.6127 -1.2875  1.6218
  256SOL    HW2  768   2.932   2.370   1.162  1.0034  0.8075  1.8380
  257SOL     OW  769   0.531   2.799   0.430 -0.2714 -0.4070 -0.0204
  257SOL    HW1  770   0.595   2.855   0.484 -2.1744  0.5738 -1.1851
  257SOL    HW2  771   0.492   2.723   0.488  0.7429  0.9313  3.2007
  258SOL     OW  772   0.945   1.944   2.249 -0.3112 -0.0691  0.1404
  258SOL    HW1  773   0.957   1.873   2.178 -2.6038 -2.0405 -0.8123
  258SOL    HW2  774   0.935   2.035   2.208 -0.8829 -0.9637 -1.1807
  259SOL     OW  775   1.017   2.026   2.633  0.0729  0.2365  0.1023
  259SOL    HW1  776   0.920   2.027   2.655  1.6629  1.0432 -1.8604
  259SOL    HW2  777   1.069   2.067   2.709 -1.4268 -2.1209  0.8281
  260SOL     OW  778   2.302   0.688   2.283 -0.0396  0.6706  0.0228
  260SOL    HW1  779   2.249   0.661   2.198  0.8716  0.7725 -0.1131
  260SOL    HW2  780   2.338   0.609   2.341 -0.3828  0.3876 -0.4342
  261SOL     OW  781   1.112   0.877   0.944  0.3082  0.1288 -0.1762
  261SOL    HW1  782   1.050   0.815   0.897  1.6267  2.8355 -0.3310
  261SOL    HW2  783   1.079   0.889   1.039 -1.9849 -0.6047  0.5711
  262SOL     OW  784   1.981   2.421   2.463 -0.5129 -0.0437  0.4045
  262SOL    HW1  785   1.941   2.351   2.403  2.3319 -0.6719 -0.9302
  262SOL    HW2  786   1.953   2.400   2.559  2.6434  0.9919 -1.7116
  263SOL     OW  787   0.478   2.320   0.495 -0.3350  0.4440  0.1443
  263SOL    HW1  788   0.410   2.245   0.503 -0.1012  3.7250 -0.0567
  263SOL    HW2  789   0.559   2.290   0.551  2.7105  0.3608  1.0278
  264SOL     OW  790   0.225   2.248   0.787 -0.7059  0.5341 -0.1083
  264SOL    HW1  791   0.200   2.246   0.881 -0.5610  0.9553 -2.7068
  264SOL    HW2  792   0.321   2.277   0.785 -1.5464  0.4192  1.3571
  265SOL     OW  793   0.521   1.280   0.378  0.0007  0.2754 -0.2603
  265SOL    HW1  794   0.520   1.237   0.467  1.7668 -0.9829 -1.7883
  265SOL    HW2  795   0.611   1.255   0.341 -0.1386  1.8149  1.0720
  266SOL     OW  796   0.766   1.865   2.449 -0.0559 -0.1981 -0.0484
  266SOL    HW1  797   0.760   1.950   2.507 -1.0224  2.9536 -1.5243
  266SOL    HW2  798   0.833   1.885   2.370 -2.6574  0.1827 -1.1209
  267SOL     OW  799   1.742   0.588   2.501 -0.1854  0.7254  0.0623
  267SOL    HW1  800   1.746   0.609   2.601  2.1945 -2.6623 -2.4813
  267SOL    HW2  801   1.789   0.660   2.449 -2.2458 -1.3303 -1.1697
  268SOL     OW  802   0.579   1.054   0.065  0.5046 -0.0241 -0.0564
  268SOL    HW1  803   0.539   0.978   0.119 -1.5467  0.0768 -1.0081
  268SOL    HW2  804   0.626   1.127   0.122  0.8005 -1.7662  1.6008
  269SOL     OW  805   2.537   2.200   2.420 -0.0018  0.0094  0.4025
  269SOL    HW1  806   2.572   2.107   2.415  0.6338  0.6756 -0.2275
  269SOL    HW2  807   2.605   2.264   2.373  0.0953  1.3920 -2.2611
  270SOL     OW  808   1.606   1.671   2.808  0.8691 -0.2075  0.0304
  270SOL    HW1  809   1.638   1.751   2.753  0.2117 -1.4904  3.1231
  270SOL    HW2  810   1.676   1.633   2.873  1.9138  0.1066  0.1843
  271SOL     OW  811   0.337   0.201   0.129  0.8218  0.6855 -0.1585
  271SOL    HW1  812   0.424   0.151   0.118 -0.4910 -1.9232 -1.2558
  271SOL    HW2  813   0.262   0.160   0.076  2.7508  1.0197 -1.0023
  272SOL     OW  814   2.872   0.480   0.332  0.5665  0.6006 -0.0090
  272SOL    HW1  815   2.948   0.462   0.396 -1.8224  1.2826  0.0848
  272SOL    HW2  816   2.792   0.526   0.378 -2.5354  0.8179  0.5978
  273SOL     OW  817   0.397   3.030   1.882  0.7845  0.8956  0.7191
  273SOL    HW1  818   0.312   3.063   1.924  0.4821 -0.9762 -1.3847
  273SOL    HW2  819   0.408   2.933   1.912 -1.8464  2.3896 -2.3286
  274SOL     OW  820   3.016   0.596   1.636 -0.1816 -0.0933 -0.0186
  274SOL    HW1  821   2.943   0.650   1.684  0.3907  0.3892  0.4855
  274SOL    HW2  822   2.973   0.522   1.584  1.7476 -1.8078 -1.6142
  275SOL     OW  823   0.877   1.693   0.793  0.0485 -0.0580  0.3219
  275SOL    HW1  824   0.961   1.713   0.739  2.2391  0.7138  0.7069
  275SOL    HW2  825   0.830   1.778   0.826 -2.8801 -1.5757  3.2084
  276SOL     OW  826   0.481   0.816   2.237 -0.3305 -0.2989  0.2853
  276SOL    HW1  827   0.519   0.909   2.218 -0.4403 -2.9180  0.9290
  276SOL    HW2  828   0.530   0.774   2.314 -2.3603 -1.2470  1.2053
  277SOL     OW  829   1.250   2.562   1.892  0.0231  0.4560 -0.1918
  277SOL    HW1  830   1.156   2.553   1.847  0.9593  2.6219 -0.1115
  277SOL    HW2  831   1.267   2.480   1.951 -1.0358 -0.4624  0.4496
  278SOL     OW  832   1.701   2.827   2.081 -0.1495 -0.7555  0.3534
  278SOL    HW1  833   1.641   2.799   2.159  1.7597 -0.4449  0.4639
  278SOL    HW2  834   1.735   2.921   2.105 -0.3815 -0.0677 -1.5567
  279SOL     OW  835   1.438   1.500   0.382  0.3605 -0.7587 -0.2315
  279SOL    HW1  836   1.388   1.518   0.293 -1.2488 -0.7098 -0.3678
  279SOL    HW2  837   1.533   1.521   0.374 -1.4496  0.5593 -0.6323
  280SOL     OW  838   0.993   1.262   0.184 -0.3137 -0.0340 -0.0163
  280SOL    HW1  839   1.042   1.290   0.094  1.9019  0.5484  1.7753
  280SOL    HW2  840   1.005   1.340   0.247  0.7312  0.9566  1.1152
  281SOL     OW  841   0.233   0.289   1.639  0.4067  0.3432 -0.4000
  281SOL    HW1  842   0.198   0.360   1.579  0.2409 -2.8194  3.3781
  281SOL    HW2  843   0.265   0.218   1.571 -0.0205  1.9698  2.3774
  282SOL     OW  844   0.078   2.439   0.667 -0.0491 -0.0448 -0.2513
  282SOL    HW1  845   0.009   2.424   0.591 -2.8457  2.2466 -0.1751
  282SOL    HW2  846   0.134   2.360   0.693  2.5680  1.5738  0.2969
  283SOL     OW  847   1.241   2.079   2.174  0.0867  0.3249 -0.0600
  283SOL    HW1  848   1.230   2.017   2.093 -2.2280  0.1476  1.1667
  283SOL    HW2  849   1.333   2.069   2.217 -0.5618 -0.4316 -2.3320
  284SOL     OW  850   2.719   2.912   1.103 -0.1876 -0.4717  0.4345
  284SOL    HW1  851   2.629   2.949   1.068 -2.1809 -0.6919 -2.9855
  284SOL    HW2  852   2.794   2.932   1.038  1.2526 -1.7407 -1.2045
  285SOL     OW  853   0.443   2.153   2.394 -0.0661 -0.7649  0.6245
  285SOL    HW1  854   0.456   2.250   2.365 -1.0411 -2.0501  0.8423
  285SOL    HW2  855   0.476   2.134   2.487 -0.5503 -3.3112  3.3247
  286SOL     OW  856   0.088   2.908   0.668 -0.1178 -0.4730  0.3247
  286SOL    HW1  857   0.097   2.936   0.768  2.2816  1.5934  1.0771
  286SOL    HW2  858   0.006   2.946   0.622  3.2329  0.9246  1.4573
  287SOL     OW  859   0.775   1.025   0.646  0.2450 -0.2482 -0.0016
  287SOL    HW1  860   0.851   0.978   0.592 -3.1736  0.9899 -1.8103
  287SOL    HW2  861   0.732   1.105   0.596 -1.6059 -1.2696  1.7840
  288SOL     OW  862   2.281   2.111   2.799 -0.2168  0.4439 -0.6048
  288SOL    HW1  863   2.192   2.075   2.762  1.7609 -1.3761 -2.3702
  288SOL    HW2  864   2.297   2.198   2.753  1.5680 -0.7380  3.2137
  289SOL     OW  865   0.055   1.935   2.885  0.2156  0.7521  0.2317
  289SOL    HW1  866   0.035   1.867   2.956 -2.4510  1.9932 -0.3308
  289SOL    HW2  867   0.025   1.904   2.791  2.2362 -2.4104 -1.1699
  290SOL     OW  868   1.338   1.774   1.270  0.3778  0.0378  0.4567
  290SOL    HW1  869   1.355   1.771   1.173 -2.3605 -1.0567 -1.5851
  290SOL    HW2  870   1.399   1.843   1.319  0.8800  1.4405 -1.4304
  291SOL     OW  871   1.434   1.326   2.882  0.4530  0.5947 -0.2522
  291SOL    HW1  872   1.398   1.426   2.882  0.3179  2.3184  0.5070
  291SOL    HW2  873   1.372   1.264   2.935  0.4894 -2.1851  4.2920
  292SOL     OW  874   0.912   1.593   0.370 -0.0336 -0.2093 -0.1857
  292SOL    HW1  875   0.957   1.516   0.421  0.1905 -0.7538  2.5975
  292SOL    HW2  876   0.817   1.569   0.342  2.3654  0.6402  0.6201
  293SOL     OW  877   1.456   2.995   1.085  0.7173 -0.1952 -0.6312
  293SOL    HW1  878   1.355   2.975   1.073 -0.4902  1.0519  2.6466
  293SOL    HW2  879   1.481   3.079   1.030 -1.3422 -0.8044  0.7553
  294SOL     OW  880   2.021   1.318   2.539 -0.5220  0.0673 -0.1395
  294SOL    HW1  881   1.977   1.229   2.553 -0.6525  0.2441  2.2198
  294SOL    HW2  882   1.960   1.395   2.568 -2.7501 -0.0143 -1.5966
  295SOL     OW  883   1.829   1.868   0.050 -0.3424 -0.2341  0.3095
  295SOL    HW1  884   1.728   1.842   0.066 -1.3309  1.7097 -0.7173
  295SOL    HW2  885   1.871   1.888   0.136 -1.3483 -0.7755 -0.2799
  296SOL     OW  886   1.285   0.637   1.602 -0.3877 -0.1028  0.8340
  296SOL    HW1  887   1.375   0.625   1.636 -2.4578  0.1504 -0.9861
  296SOL    HW2  888   1.280   0.683   1.512  2.8887  0.7127  1.5372
  297SOL     OW  889   3.037   0.795   2.106 -0.5117 -0.3894  0.2533
  297SOL    HW1  890   2.957   0.826   2.051 -0.6114  0.8188 -2.0630
  297SOL    HW2  891   3.084   0.877   2.142 -2.3258 -2.1794 -0.6883
  298SOL     OW  892   0.897   1.650   1.752 -0.0795  0.1468  0.9751
  298SOL    HW1  893   0.919   1.745   1.769  1.1110 -1.5861 -0.8942
  298SOL    HW2  894   0.838   1.642   1.671  0.7536 -0.1239  0.5174
  299SOL     OW  895   1.168   0.100   2.477  0.3275  0.3383 -0.2104
  299SOL    HW1  896   1.262   0.141   2.468  0.7972 -2.4733 -0.4458
  299SOL    HW2  897   1.161   0.024   2.405  0.6814 -1.0183 -0.8484
  300SOL     OW  898   2.964   1.160   2.943 -0.1910  0.4682  0.4584
  300SOL    HW1  899   2.906   1.117   2.872 -0.9484 -1.7562  1.9012
  300SOL    HW2  900   2.921   1.153   3.030 -1.6308 -0.6314 -1.3768
  301SOL     OW  901   1.881   0.748   2.317  0.4151 -0.0339  0.4769
  301SOL    HW1  902   1.892   0.682   2.240 -0.5508  0.5269  1.5424
  301SOL    HW2  903   1.840   0.841   2.287 -1.3028  4.4852  1.4722
  302SOL     OW  904   2.419   1.916   2.663 -0.3705  0.1749  0.2962
  302SOL    HW1  905   2.375   2.000   2.699  0.5892  0.0815  0.0229
  302SOL    HW2  906   2.517   1.916   2.672 -0.1486 -1.9511 -4.1908
  303SOL     OW  907   0.371   2.489   2.998  0.4180  0.0718  0.2779
  303SOL    HW1  908   0.437   2.565   2.985  2.2978 -1.5080 -1.8206
  303SOL    HW2  909   0.386   2.437   3.082  0.4815 -3.5582 -0.3765
  304SOL     OW  910   0.168   1.750   1.456 -0.0119 -0.8575 -0.4953
  304SOL    HW1  911   0.119   1.832   1.494 -0.7041  1.1653 -3.7730
  304SOL    HW2  912   0.248   1.738   1.518  0.0444  1.2407  0.3193
  305SOL     OW  913   2.409   0.630   1.820  0.1850  0.3675  0.0552
  305SOL    HW1  914   2.344   0.562   1.853 -3.2870  1.5766  0.0352
  305SOL    HW2  915   2.508   0.601   1.844 -0.1398  0.4973  2.0373
  306SOL     OW  916   1.976   1.407   1.490 -0.3652  0.3538  0.2676
  306SOL    HW1  917   1.992   1.307   1.475  3.0079  0.8780 -0.3468
  306SOL    HW2  918   1.999   1.468   1.408 -1.5182  3.8896 -0.0748
  307SOL     OW  919   2.965   0.207   0.962 -0.6570  0.3011 -0.3561
  307SOL    HW1  920   2.952   0.244   0.869  1.1078 -4.9547 -1.2253
  307SOL    HW2  921   2.942   0.257   1.044  2.3995 -0.8697 -0.5783
  308SOL     OW  922   3.098   1.913   1.712 -0.1931  0.2978 -0.6885
  308SOL    HW1  923   0.046   1.959   1.776 -0.9702  1.5766 -2.8977
  308SOL    HW2  924   3.081   1.812   1.734  1.2940 -1.6395 -0.7013
  309SOL     OW  925   2.401   2.379   1.928 -0.1004 -0.2150  0.1646
  309SOL    HW1  926   2.414   2.474   1.897  0.2801  0.2643  1.4076
  309SOL    HW2  927   2.302   2.350   1.923  0.2436  1.0677 -2.1501
  310SOL     OW  928   2.216   1.397   2.711  0.2840 -0.4165 -0.4061
  310SOL    HW1  929   2.266   1.482   2.694  2.6064 -1.1530  0.8412
  310SOL    HW2  930   2.152   1.383   2.636  0.0558 -0.7343  0.3261
  311SOL     OW  931   1.719   1.301   2.920 -0.1422  0.3544 -0.1926
  311SOL    HW1  932   1.618   1.286   2.916 -1.1577 -1.2063  2.4714
  311SOL    HW2  933   1.768   1.218   2.958  0.3374  0.0541  0.6108
  312SOL     OW  934   1.083   2.220   2.357 -0.5074 -0.6354  0.0090
  312SOL    HW1  935   1.136   2.163   2.293 -1.0145 -0.7755 -0.7054
  312SOL    HW2  936   1.087   2.188   2.452  0.3960 -1.6103  1.4473
  313SOL     OW  937   0.140   0.140   1.003 -0.3537  0.1540  0.2869
  313SOL    HW1  938   0.043   0.159   0.978  1.4911  2.4551  1.5304
  313SOL    HW2  939   0.174   0.210   1.072  1.6212  1.0540 -0.6886
  314SOL     OW  940   0.527   1.928   1.283 -0.3222 -0.4035 -0.4688
  314SOL    HW1  941   0.517   1.982   1.369 -0.6527  0.4531  0.1636
  314SOL    HW2  942   0.454   1.864   1.258  3.1365 -2.1645  1.6912
  315SOL     OW  943   0.430   2.181   2.126  0.0099  0.0164 -0.1845
  315SOL    HW1  944   0.360   2.250   2.098  1.7862 -1.3279  0.4998
  315SOL    HW2  945   0.421   2.152   2.224 -2.2376  1.2568 -1.5744
  316SOL     OW  946   0.282   2.544   1.000  0.2487  0.4475 -0.0398
  316SOL    HW1  947   0.193   2.492   1.001  1.8646 -0.6770  1.2072
  316SOL    HW2  948   0.273   2.608   0.919 -1.1199  1.2716 -0.6197
  317SOL     OW  949   2.712   0.026   1.481  0.0279  0.1824 -0.3713
  317SOL    HW1  950   2.661   0.098   1.427  0.5629 -1.1575  4.1101
  317SOL    HW2  951   2.700   3.047   1.442  1.1529 -2.7448  0.0237
  318SOL     OW  952   2.335   2.282   0.184 -0.1966  0.1296  0.5777
  318SOL    HW1  953   2.350   2.219   0.103 -1.3100 -0.7286 -3.0054
  318SOL    HW2  954   2.413   2.340   0.197  0.0202  0.3351 -0.3532
  319SOL     OW  955   1.463   1.223   2.628  0.2018 -0.2621  0.1101
  319SOL    HW1  956   1.460   1.281   2.710  0.4942 -1.0320 -0.0358
  319SOL    HW2  957   1.504   1.133   2.656 -2.4788  0.4025  1.4474
  320SOL     OW  958   0.414   2.427   2.309 -0.1005 -0.4853  0.3841
  320SOL    HW1  959   0.315   2.437   2.289 -1.4725 -1.3216 -0.4931
  320SOL    HW2  960   0.471   2.487   2.250  1.7085  1.4272 -0.2271
  321SOL     OW  961   0.915   2.376   0.163 -0.3042 -0.1554 -0.0500
  321SOL    HW1  962   1.015   2.398   0.163 -1.2863  1.0344 -1.9073
  321SOL    HW2  963   0.863   2.467   0.165 -0.0179  3.1226  2.4126
  322SOL     OW  964   2.558   0.354   2.353  0.5075  0.1112 -0.1036
  322SOL    HW1  965   2.543   0.268   2.304  2.0826  2.5159  0.9165
  322SOL    HW2  966   2.624   0.350   2.432  0.6839  0.4896 -0.7762
  323SOL     OW  967   2.949   1.164   0.760 -0.2031  0.5115  0.1051
  323SOL    HW1  968   2.923   1.200   0.853  2.6102  2.6221  0.6469
  323SOL    HW2  969   2.936   1.063   0.757 -2.8111 -0.6447 -1.1657
  324SOL     OW  970   0.158   0.675   1.741  0.0910  0.0674 -0.1805
  324SOL    HW1  971   0.223   0.620   1.798 -2.1781  0.6955  1.9385
  324SOL    HW2  972   0.080   0.619   1.709 -0.3808 -1.8189 -0.6126
  325SOL     OW  973   0.165   0.002   2.001 -0.2408  0.4308 -0.0788
  325SOL    HW1  974   0.112   0.010   1.916 -1.0797  1.1891 -0.4452
  325SOL    HW2  975   0.182   0.094   2.033  1.1063 -0.2619 -0.9335
  326SOL     OW  976   2.168   2.478   0.091  1.0660  1.0849 -0.1173
  326SOL    HW1  977   2.128   2.526   0.172 -1.1032 -1.1143  1.6007
  326SOL    HW2  978   2.205   2.386   0.120 -3.0777 -0.0043 -0.4339
  327SOL     OW  979   2.079   1.400   0.528 -0.1101 -0.0609  0.4492
  327SOL    HW1  980   2.070   1.480   0.592 -1.7437 -0.6249  0.3315
  327SOL    HW2  981   2.118   1.427   0.439  0.4528  2.6717  1.8515
  328SOL     OW  982   3.112   2.038   2.453  0.2154  0.7340  0.5036
  328SOL    HW1  983   3.089   1.972   2.529  0.2958 -0.9305  2.1204
  328SOL    HW2  984   0.071   2.100   2.481  0.1068  0.4227 -1.9727
  329SOL     OW  985   0.353   2.431   1.712 -0.4388 -0.0766  0.3646
  329SOL    HW1  986   0.378   2.372   1.635 -0.9999 -1.7928  0.9647
  329SOL    HW2  987   0.274   2.394   1.758  0.8978  1.5596  1.3365
  330SOL     OW  988   2.539   1.116   2.708  0.0977 -0.2245 -0.0440
  330SOL    HW1  989   2.473   1.135   2.785  1.1712  0.7767 -1.6776
  330SOL    HW2  990   2.498   1.077   2.624  1.4136  1.5118  1.7826
  331SOL     OW  991   2.454   2.572   1.108 -0.0832 -0.6441 -0.2312
  331SOL    HW1  992   2.442   2.512   1.192 -0.6754 -0.8271  1.2840
  331SOL    HW2  993   2.377   2.568   1.039  1.7146 -0.0597  0.3074
  332SOL     OW  994   0.544   3.002   0.880  0.1905 -0.1228  0.1402
  332SOL    HW1  995   0.452   3.035   0.913  2.1971 -2.6849 -0.5059
  332SOL    HW2  996   0.577   2.937   0.952 -0.8749 -0.4148  1.4675
  333SOL     OW  997   2.386   2.317   2.623 -0.9452  0.5616 -0.8646
  333SOL    HW1  998   2.325   2.378   2.570 -2.2347  1.7027  0.6209
  333SOL    HW2  999   2.445   2.258   2.564  0.7424 -0.8449 -0.7770
  334SOL     OW 1000   0.639   1.294   0.650 -0.4595 -0.4828  0.3561
  334SOL    HW1 1001   0.545   1.255   0.661  0.2330  1.1353  0.5192
  334SOL    HW2 1002   0.688   1.293   0.739  2.2406  1.0716  2.0139
  335SOL     OW 1003   2.894   2.120   2.309  0.7362  0.2261  0.4135
  335SOL    HW1 1004   2.977   2.088   2.356 -0.9718  0.9584 -2.8748
  335SOL    HW2 1005   2.807   2.098   2.357  0.4087  0.0386  1.3134
  336SOL     OW 1006   2.379   2.839   2.040  0.4433 -0.8215 -0.0097
  336SOL    HW1 1007   2.365   2.765   2.109  0.3440 -3.0892  3.0041
  336SOL    HW2 1008   2.290   2.869   2.000 -1.3193  0.2434  2.2053
  337SOL     OW 1009   0.731   0.922   0.898  0.0707 -0.4143 -0.2076
  337SOL    HW1 1010   0.790   0.844   0.874  0.9814  1.8326 -2.7029
  337SOL    HW2 1011   0.740   0.989   0.819  0.5849  2.4413 -0.4386
  338SOL     OW 1012   1.108   1.893   1.111  0.1192  0.2552  0.3868
  338SOL    HW1 1013   1.070   1.816   1.172  0.4644  0.6433  1.0681
  338SOL    HW2 1014   1.069   1.983   1.133 -2.5663 -0.7980  0.3872
  339SOL     OW 1015   0.026   1.984   1.432 -0.6552 -0.7747 -0.1865
  339SOL    HW1 1016   0.080   2.068   1.417 -0.6630 -2.3496  1.6200
  339SOL    HW2 1017   0.005   1.966   1.528  0.1892 -1.8370 -1.3154
  340SOL     OW 1018   1.373   2.692   1.643  0.3410  0.2521  0.0822
  340SOL    HW1 1019   1.404   2.777   1.692  0.2320 -2.5412  0.0175
  340SOL    HW2 1020   1.332   2.630   1.711  4.9189  0.2000 -3.6500
  341SOL     OW 1021   1.595   1.613   1.081 -0.1772  0.0633 -0.2223
  341SOL    HW1 1022   1.542   1.631   0.997 -0.0484 -2.5134  0.4974
  341SOL    HW2 1023   1.637   1.702   1.106 -0.8646  1.1678 -0.1518
  342SOL     OW 1024   2.640   1.339   1.081  0.2588 -0.4845 -0.2756
  342SOL    HW1 1025   2.628   1.441   1.095  1.2960 -0.8769  3.4425
  342SOL    HW2 1026   2.566   1.313   1.015  1.0407  1.3392  0.0876
  343SOL     OW 1027   2.419   0.550   1.231  0.3371 -0.2474  0.2669
  343SOL    HW1 1028   2.490   0.616   1.258 -0.3521 -0.2923 -1.2410
  343SOL    HW2 1029   2.326   0.589   1.245  1.2567  1.5868 -2.4104
  344SOL     OW 1030   2.104   0.231   0.545 -0.1251 -0.9914  0.1307
  344SOL    HW1 1031   2.192   0.180   0.540 -2.1590 -0.1593 -1.6451
  344SOL    HW2 1032   2.055   0.218   0.630  0.6928  0.2723 -1.6567
  345SOL     OW 1033   1.016   2.914   1.844  0.0414 -0.4581  0.0144
  345SOL    HW1 1034   1.100   2.863   1.877  2.3777 -2.9409 -2.2104
  345SOL    HW2 1035   0.954   2.862   1.780  1.3932 -1.4241 -1.7485
  346SOL     OW 1036   2.875   2.182   0.756  0.0429 -0.0415 -0.0438
  346SOL    HW1 1037   2.877   2.123   0.840  1.8051 -0.6812  1.0911
  346SOL    HW2 1038   2.777   2.207   0.734 -0.0076 -1.8625 -1.3596
  347SOL     OW 1039   2.275   3.063   1.155  0.3339  0.0982  0.5666
  347SOL    HW1 1040   2.291   2.993   1.229  0.6209 -1.9566 -1.2570
  347SOL    HW2 1041   2.189   3.037   1.107 -1.2463  1.8898  0.7762
  348SOL     OW 1042   0.958   1.158   1.184  0.4046  0.3672 -0.1348
  348SOL    HW1 1043   0.980   1.195   1.087  0.1239  1.2308 -5.0984
  348SOL    HW2 1044   1.007   1.071   1.201  0.1222  1.1870 -0.3930
  349SOL     OW 1045   2.236   0.441   1.919  0.1569 -0.1802  0.3964
  349SOL    HW1 1046   2.198   0.497   1.992 -1.2673 -0.0902 -0.1494
  349SOL    HW2 1047   2.292   0.361   1.956  0.8072 -0.0069  2.7611
  350SOL     OW 1048   2.128   2.566   0.390  0.1861 -0.3752  0.3195
  350SOL    HW1 1049   2.225   2.544   0.407  0.2464  1.9124 -1.6039
  350SOL    HW2 1050   2.115   2.647   0.323 -0.9399 -0.4182 -0.5053
  351SOL     OW 1051   1.237   0.460   2.683  0.1545 -0.2113  0.2073
  351SOL    HW1 1052   1.298   0.380   2.669 -3.7254 -0.2010 -0.4833
  351SOL    HW2 1053   1.203   0.453   2.779 -0.8960 -1.7516 -1.3692
  352SOL     OW 1054   2.107   2.726   2.179 -0.4099 -0.2303  0.6994
  352SOL    HW1 1055   2.058   2.711   2.266 -1.3772  0.0290  0.6641
  352SOL    HW2 1056   2.042   2.710   2.104 -3.2500 -0.2008  1.4894
  353SOL     OW 1057   0.477   0.988   2.548 -0.0171  0.3847  0.0321
  353SOL    HW1 1058   0.420   1.007   2.468 -0.3634 -0.7439 -0.8128
  353SOL    HW2 1059   0.542   0.906   2.534 -0.5956 -0.0630 -1.5996
  354SOL     OW 1060   0.536   2.818   2.698 -0.5532  0.0407 -0.1899
  354SOL    HW1 1061   0.521   2.746   2.628  0.4558 -2.2075  0.4663
  354SOL    HW2 1062   0.515   2.780   2.792 -0.1867 -3.1308  1.7241
  355SOL     OW 1063   2.171   2.712   1.192 -0.2619  0.2794  0.1513
  355SOL    HW1 1064   2.249   2.760   1.236 -2.7683  2.1965  0.0322
  355SOL    HW2 1065   2.085   2.762   1.217  0.4757  1.5184  1.8666
  356SOL     OW 1066   2.659   0.593   0.440 -0.2814 -0.2631  0.0115
  356SOL    HW1 1067   2.633   0.689   0.467  0.2683  2.6069  1.4987
  356SOL    HW2 1068   2.576   0.531   0.441 -3.0330 -3.5428  1.6797
  357SOL     OW 1069   0.018   0.050   1.783  0.0959 -0.1947 -0.3223
  357SOL    HW1 1070   0.007   0.153   1.777  1.8963  1.0647 -0.2650
  357SOL    HW2 1071   3.045   0.003   1.778  2.1095 -1.2531  2.3169
  358SOL     OW 1072   3.050   1.381   1.205  0.0793 -0.3983  0.1928
  358SOL    HW1 1073   0.031   1.349   1.198  3.2046 -1.4835 -0.2347
  358SOL    HW2 1074   3.044   1.467   1.257 -0.8691 -2.7575  0.7453
  359SOL     OW 1075   2.502   3.009   2.861  0.3792 -0.7434 -0.4580
  359SOL    HW1 1076   2.482   3.083   2.788  0.4686  2.7550 -1.8616
  359SOL    HW2 1077   2.602   3.009   2.886  2.1730  0.8296  0.6991
  360SOL     OW 1078   1.200   0.636   1.254  0.4989  0.1586 -0.6969
  360SOL    HW1 1079   1.103   0.660   1.229 -0.7725  0.1948  0.7565
  360SOL    HW2 1080   1.239   0.714   1.313 -0.2303 -2.2285  2.1708
  361SOL     OW 1081   2.718   2.714   1.496  0.3188  0.5460 -0.4439
  361SOL    HW1 1082   2.756   2.715   1.592 -1.4337  2.4689 -0.7783
  361SOL    HW2 1083   2.645   2.642   1.490 -0.8709 -3.5598 -2.2656
  362SOL     OW 1084   1.436   0.450   0.668 -0.3603 -0.0094  0.5842
  362SOL    HW1 1085   1.473   0.527   0.609 -2.6030  5.3633  0.7173
  362SOL    HW2 1086   1.507   0.423   0.738 -0.1425 -1.0935 -2.7654
  363SOL     OW 1087   1.837   1.492   1.023 -0.0428 -0.0079 -0.5981
  363SOL    HW1 1088   1.843   1.480   0.922  0.0349  0.9665  3.0213
  363SOL    HW2 1089   1.744   1.521   1.056 -0.8147 -0.3438 -3.4836
  364SOL     OW 1090   0.587   0.826   1.720 -0.1879 -0.0511  0.0805
  364SOL    HW1 1091   0.578   0.806   1.819 -0.2412  0.5975 -0.7023
  364SOL    HW2 1092   0.559   0.746   1.662 -1.1961 -0.2976 -2.0020
  365SOL     OW 1093   2.935   0.511   1.039 -0.1591  0.2185 -0.0854
  365SOL    HW1 1094   3.034   0.502   1.012 -0.9356  0.6024 -0.3245
  365SOL    HW2 1095   2.922   0.579   1.113  0.8204  2.0647 -1.5604
  366SOL     OW 1096   2.802   0.961   0.358  0.2068  0.1033 -0.2125
  366SOL    HW1 1097   2.723   1.018   0.334 -2.7007 -0.8717  1.1177
  366SOL    HW2 1098   2.878   1.016   0.403  0.9544 -0.9471 -0.3958
  367SOL     OW 1099   2.299   2.123   2.304 -0.1453 -0.3186  0.7682
  367SOL    HW1 1100   2.235   2.108   2.378  3.3191  0.2869 -2.5925
  367SOL    HW2 1101   2.389   2.154   2.340 -2.9177  2.2353 -2.3849
  368SOL     OW 1102   2.419   2.054   0.946  0.1480 -0.0722 -0.1604
  368SOL    HW1 1103   2.407   2.031   1.043  1.5637 -0.0038 -3.9020
  368SOL    HW2 1104   2.367   1.991   0.885 -0.6497  0.7841 -0.1266
  369SOL     OW 1105   2.178   0.045   2.921 -0.7205  0.1626  0.1243
  369SOL    HW1 1106   2.133   3.070   2.913  0.0631  1.0377  1.0958
  369SOL    HW2 1107   2.264   0.045   2.973 -0.4019  0.9186  0.7526
  370SOL     OW 1108   0.860   0.468   1.063 -0.0576 -0.4786  0.5103
  370SOL    HW1 1109   0.789   0.468   0.989  2.4473  0.8239 -2.4113
  370SOL    HW2 1110   0.823   0.475   1.157  1.4671 -2.4302  0.4200
  371SOL     OW 1111   0.284   1.770   0.257  0.4254  0.7154  0.1871
  371SOL    HW1 1112   0.317   1.719   0.176  1.4596  0.3964  2.1153
  371SOL    HW2 1113   0.353   1.755   0.329 -0.4052  1.3520 -1.1119
  372SOL     OW 1114   0.596   0.749   2.476  0.0234  0.0093  0.0533
  372SOL    HW1 1115   0.593   0.655   2.434 -0.4991 -0.5116 -0.6166
  372SOL    HW2 1116   0.686   0.768   2.526 -0.3977  0.7444 -0.2212
  373SOL     OW 1117   1.105   2.940   2.881  0.7060  0.0881 -0.0084
  373SOL    HW1 1118   1.013   2.932   2.934 -3.4623  1.7447  1.0624
  373SOL    HW2 1119   1.122   3.037   2.842 -0.6889  2.3820 -1.2990
  374SOL     OW 1120   0.988   1.834   0.474 -0.2751  0.3941  0.3025
  374SOL    HW1 1121   1.045   1.811   0.555 -2.3165  0.0442 -1.9187
  374SOL    HW2 1122   0.960   1.754   0.421 -1.1710 -1.3915  1.7924
  375SOL     OW 1123   0.534   0.700   1.990 -0.0105  0.2518 -0.3494
  375SOL    HW1 1124   0.511   0.734   2.088  1.1807  1.3624  3.9404
  375SOL    HW2 1125   0.632   0.671   1.989  0.0294 -0.1019 -0.2987
  376SOL     OW 1126   0.017   2.578   1.750 -0.2270 -0.1757 -0.3971
  376SOL    HW1 1127   0.094   2.639   1.720  1.1119 -0.7946 -0.8982
  376SOL    HW2 1128   0.020   2.552   1.851  2.9769 -1.1632 -0.8868
  377SOL     OW 1129   2.648   1.568   2.808 -0.3067  0.0919  0.4525
  377SOL    HW1 1130   2.641   1.563   2.706  0.2187  0.9873  0.3366
  377SOL    HW2 1131   2.637   1.472   2.844 -0.5252 -1.9028 -0.0572
  378SOL     OW 1132   2.120   2.910   2.963  0.0218 -0.0064  0.1137
  378SOL    HW1 1133   2.193   2.865   3.013 -1.9110  1.2190 -0.3904
  378SOL    HW2 1134   2.047   2.926   3.032 -0.5195 -0.6301 -0.0720
  379SOL     OW 1135   2.007   0.518   0.698  0.4446 -0.0402  0.1547
  379SOL    HW1 1136   2.031   0.504   0.798 -0.4965 -0.7267  0.5869
  379SOL    HW2 1137   1.918   0.564   0.684  3.1146 -3.0162  2.2512
  380SOL     OW 1138   2.598   2.026   1.715 -0.0283  0.1384  0.4512
  380SOL    HW1 1139   2.588   1.977   1.802  1.0514 -0.2911  0.9530
  380SOL    HW2 1140   2.696   2.016   1.694  0.5863  0.9299  0.2188
  381SOL     OW 1141   2.387   1.406   2.334  0.1429 -0.5139  0.1765
  381SOL    HW1 1142   2.477   1.426   2.283  0.5822 -0.9115 -1.4339
  381SOL    HW2 1143   2.371   1.461   2.419 -1.9909 -0.5802  0.7255
  382SOL     OW 1144   2.947   2.735   2.544  0.0878  0.5439  0.0394
  382SOL    HW1 1145   2.855   2.708   2.519 -0.4959 -0.1158  0.3275
  382SOL    HW2 1146   2.963   2.835   2.541  1.5463 -0.3519 -1.8511
  383SOL     OW 1147   1.096   1.324   3.074 -0.3478  0.0064  0.3062
  383SOL    HW1 1148   1.026   1.378   3.021 -0.1278  1.2596 -0.3697
  383SOL    HW2 1149   1.157   1.394   0.002 -1.1285  2.5118  1.3981
  384SOL     OW 1150   1.440   1.932   1.685  0.0769  0.1172  0.0818
  384SOL    HW1 1151   1.394   2.016   1.727 -0.3935  1.0617 -1.9239
  384SOL    HW2 1152   1.487   1.880   1.764  0.3734  2.1390 -3.4315
  385SOL     OW 1153   1.759   2.857   0.731 -0.4224 -0.0577 -0.0578
  385SOL    HW1 1154   1.704   2.940   0.712 -0.1533  2.7779  1.0773
  385SOL    HW2 1155   1.847   2.863   0.683 -0.9497  1.3149 -1.3188
  386SOL     OW 1156   1.862   1.463   0.744  0.4292  0.4953 -0.2189
  386SOL    HW1 1157   1.896   1.535   0.682  1.3446  1.0570 -1.4719
  386SOL    HW2 1158   1.846   1.372   0.694  1.7986 -0.0879  2.5632
  387SOL     OW 1159   2.780   2.301   1.376 -0.1752  0.0484 -0.4224
  387SOL    HW1 1160   2.763   2.330   1.470 -1.5962 -1.2862  0.2237
  387SOL    HW2 1161   2.773   2.202   1.377  0.5671 -0.9070  1.7291
  388SOL     OW 1162   3.065   1.121   1.646  0.6120  0.1100 -0.1022
  388SOL    HW1 1163   3.110   1.209   1.664 -0.9785 -0.9755 -0.9807
  388SOL    HW2 1164   0.011   1.043   1.648 -3.2970 -1.1270  1.4217
  389SOL     OW 1165   2.117   0.319   0.186  0.0645  0.6227 -0.6409
  389SOL    HW1 1166   2.187   0.275   0.249  0.7379  0.4459  4.9091
  389SOL    HW2 1167   2.153   0.404   0.142  0.8938  1.2372 -0.5556
  390SOL     OW 1168   1.178   1.816   2.964  0.1118  0.2069  0.2525
  390SOL    HW1 1169   1.139   1.885   3.023 -3.8465 -0.6880  2.2177
  390SOL    HW2 1170   1.116   1.795   2.884  0.3955 -1.3835  0.5248
  391SOL     OW 1171   1.307   2.136   3.083 -0.1817 -0.0109 -0.2529
  391SOL    HW1 1172   1.341   2.224   0.005 -0.6985 -3.1681 -1.0825
  391SOL    HW2 1173   1.384   2.077   3.045  1.8912 -0.4991  1.6593
  392SOL     OW 1174   0.018   2.566   2.014  0.5474  0.0971 -0.1400
  392SOL    HW1 1175   0.085   2.640   2.024 -1.9119 -1.0962 -2.6369
  392SOL    HW2 1176   3.073   2.570   2.095  1.3972  0.8245 -1.0583
  393SOL     OW 1177   1.320   2.085   0.296  0.0880 -0.1745 -0.2980
  393SOL    HW1 1178   1.223   2.104   0.276  1.6352 -1.5710 -0.6852
  393SOL    HW2 1179   1.383   2.152   0.251  0.7347  0.7907 -2.7410
  394SOL     OW 1180   0.556   0.492   2.395  0.2440 -0.1073  0.3997
  394SOL    HW1 1181   0.578   0.465   2.300  0.4605 -0.3545 -1.1978
  394SOL    HW2 1182   0.572   0.417   2.463 -0.0070  1.0746 -0.7630
  395SOL     OW 1183   0.532   1.244   0.986 -0.0423  0.0121  0.6231
  395SOL    HW1 1184   0.520   1.330   1.039 -0.1731  2.5609 -0.0843
  395SOL    HW2 1185   0.629   1.244   0.945  3.9441 -0.1917 -0.8051
  396SOL     OW 1186   1.916   1.177   2.094  0.3010 -0.3034  0.2091
  396SOL    HW1 1187   1.865   1.120   2.162  0.4989  2.4030 -1.6064
  396SOL    HW2 1188   1.972   1.247   2.144 -1.4574  2.2011 -0.6415
  397SOL     OW 1189   0.733   0.567   3.084  0.0024 -0.3065 -0.2768
  397SOL    HW1 1190   0.690   0.546   2.995  0.1007 -0.5107 -0.0290
  397SOL    HW2 1191   0.679   0.525   0.036  2.6135  1.3555 -1.3630
  398SOL     OW 1192   1.069   2.432   2.921  0.0547 -0.0203  0.4351
  398SOL    HW1 1193   1.026   2.341   2.924  2.0361  0.0902 -2.1189
  398SOL    HW2 1194   1.124   2.463   3.002  1.0750  1.1185 -4.4091
  399SOL     OW 1195   1.490   2.068   2.302 -0.5493 -0.1890 -0.0439
  399SOL    HW1 1196   1.473   1.988   2.364 -1.0989  0.2417 -0.8572
  399SOL    HW2 1197   1.550   2.042   2.221  0.9170  0.1047 -2.9861
  400SOL     OW 1198   2.185   1.689   1.455 -0.1198 -0.6411  0.2507
  400SOL    HW1 1199   2.113   1.668   1.380 -1.1101 -1.3133 -1.2697
  400SOL    HW2 1200   2.217   1.599   1.495 -1.9278 -1.2660  0.5399
  401SOL     OW 1201   1.244   1.381   0.991 -0.7235 -0.4367  0.2157
  401SOL    HW1 1202   1.159   1.433   0.988  3.5312 -1.5071 -1.5388
  401SOL    HW2 1203   1.294   1.385   0.905  1.7906 -2.0106  2.0943
  402SOL     OW 1204   0.200   2.611   2.301  0.0245  0.6797  0.3076
  402SOL    HW1 1205   0.234   2.652   2.216 -1.4396 -1.3188 -0.1456
  402SOL    HW2 1206   0.230   2.669   2.375  0.6038 -1.1271  0.2193
  403SOL     OW 1207   2.874   2.067   1.644 -0.0186 -0.2044 -0.3887
  403SOL    HW1 1208   2.906   2.165   1.661  0.0546 -0.1950  0.6060
  403SOL    HW2 1209   2.954   2.005   1.665  2.1979  0.2389 -0.1354
  404SOL     OW 1210   2.103   1.997   1.168  0.2220  0.3459 -0.5227
  404SOL    HW1 1211   2.206   1.994   1.173  0.7282  1.7913  1.8926
  404SOL    HW2 1212   2.055   2.038   1.247 -0.5997 -3.2370 -1.9360
  405SOL     OW 1213   2.477   0.266   2.871 -0.3287 -0.1828 -0.9290
  405SOL    HW1 1214   2.546   0.261   2.940 -1.1573 -1.2395 -0.9198
  405SOL    HW2 1215   2.481   0.193   2.799  1.5573  1.0308 -0.9781
  406SOL     OW 1216   0.939   1.646   2.497 -0.3818  0.0359 -0.9198
  406SOL    HW1 1217   0.883   1.727   2.477 -1.0737 -0.0004  2.8107
  406SOL    HW2 1218   1.029   1.649   2.453  0.7336 -0.2603  1.6244
  407SOL     OW 1219   1.890   2.471   0.315  0.1586 -0.6382  0.1497
  407SOL    HW1 1220   1.972   2.507   0.359  1.1570  3.1744  0.5657
  407SOL    HW2 1221   1.807   2.483   0.370  2.1421 -1.8465 -1.4000
  408SOL     OW 1222   0.273   3.029   1.004 -0.1199 -0.6045 -0.5323
  408SOL    HW1 1223   0.218   3.113   0.991 -1.1526 -0.5617  0.7887
  408SOL    HW2 1224   0.217   2.944   1.018  0.6000 -3.0925  3.7605
  409SOL     OW 1225   2.258   1.892   0.767 -0.0938  0.2652  0.2891
  409SOL    HW1 1226   2.187   1.822   0.782 -0.2270 -1.0627  0.2337
  409SOL    HW2 1227   2.225   1.986   0.737 -0.7113  1.2773  3.1691
  410SOL     OW 1228   2.400   2.124   3.087  0.2610  0.0548  0.3944
  410SOL    HW1 1229   2.495   2.100   3.066 -1.0404  1.5819 -1.3707
  410SOL    HW2 1230   2.333   2.085   3.019 -0.1460  0.4515 -0.2193
  411SOL     OW 1231   0.088   3.065   0.382 -0.2492  0.2811 -0.3864
  411SOL    HW1 1232   0.181   3.038   0.417  2.2525  0.7805  0.5096
  411SOL    HW2 1233   0.023   3.066   0.459  0.4517 -0.1518  1.6111
  412SOL     OW 1234   1.607   2.495   0.410  0.3213  0.2478 -1.0377
  412SOL    HW1 1235   1.562   2.543   0.331 -0.1554 -1.4047  1.9694
  412SOL    HW2 1236   1.613   2.565   0.485 -0.5625  0.3810 -2.2818
  413SOL     OW 1237   1.890   0.544   2.094  0.4270 -0.0258 -0.2150
  413SOL    HW1 1238   1.835   0.498   2.021 -2.0655  0.9241 -1.5725
  413SOL    HW2 1239   1.865   0.503   2.181 -0.8931 -0.2291  0.7366
  414SOL     OW 1240   0.051   0.318   0.532  0.0769  0.1321  0.5553
  414SOL    HW1 1241   0.126   0.302   0.602  0.8616 -2.2844  0.8318
  414SOL    HW2 1242   0.064   0.271   0.444 -0.7030  0.6001 -0.4687
  415SOL     OW 1243   0.293   1.803   1.208  0.0829  0.1584  0.1116
  415SOL    HW1 1244   0.242   1.769   1.121 -1.5197 -1.7270 -2.3518
  415SOL    HW2 1245   0.221   1.809   1.279 -1.1582  1.3885 -2.1920
  416SOL     OW 1246   0.105   2.966   0.103  0.1215 -0.3367  0.3320
  416SOL    HW1 1247   0.112   3.060   0.066 -2.4855 -0.5202 -0.2104
  416SOL    HW2 1248   0.079   2.980   0.199  0.1217 -0.7181  1.8742
  417SOL     OW 1249   2.501   3.055   1.011  0.2199 -0.4014 -0.0887
  417SOL    HW1 1250   2.403   3.084   1.039 -1.9145  0.7819 -4.5833
  417SOL    HW2 1251   2.542   0.013   0.959 -2.8903 -0.2600 -0.7547
  418SOL     OW 1252   0.612   0.301   2.575  0.1040 -0.0425 -0.2166
  418SOL    HW1 1253   0.685   0.356   2.617  0.1353 -0.8648 -2.6192
  418SOL    HW2 1254   0.534   0.294   2.643  0.5487 -2.5961  2.4580
  419SOL     OW 1255   0.403   1.092   0.629 -0.3572  0.0133 -0.0311
  419SOL    HW1 1256   0.474   1.022   0.635  1.5819 -0.0076  0.9750
  419SOL    HW2 1257   0.321   1.069   0.686 -1.2486 -1.8298  0.1943
  420SOL     OW 1258   1.908   1.990   0.862  0.0934 -0.8128  0.1449
  420SOL    HW1 1259   1.887   1.958   0.767 -1.0659  0.7992  0.1986
  420SOL    HW2 1260   1.967   1.922   0.912 -1.8744  1.0366 -0.5638
  421SOL     OW 1261   1.681   1.891   2.636  0.3921 -0.0922  0.1555
  421SOL    HW1 1262   1.639   1.896   2.544 -1.0770  0.3374 -0.8022
  421SOL    HW2 1263   1.775   1.920   2.633 -2.5712 -1.3644  2.3232
  422SOL     OW 1264   2.862   0.449   3.047  0.0472  0.0484  0.0152
  422SOL    HW1 1265   2.902   0.519   2.980 -1.1600 -0.6617 -0.6491
  422SOL    HW2 1266   2.807   0.500   3.115  2.4737 -1.1489 -1.2594
  423SOL     OW 1267   1.510   1.809   0.889 -0.2635  0.4319 -0.0194
  423SOL    HW1 1268   1.550   1.902   0.890 -1.0545  0.2387 -3.1457
  423SOL    HW2 1269   1.533   1.748   0.808  0.4795 -1.2366  0.3597
  424SOL     OW 1270   0.402   1.685   1.594  0.0958  0.3625 -0.2609
  424SOL    HW1 1271   0.415   1.618   1.674  0.7859  1.5796  1.2797
  424SOL    HW2 1272   0.458   1.768   1.615  1.5077  2.0469  2.3555
  425SOL     OW 1273   2.797   2.826   1.942  0.7159  0.0419 -0.2112
  425SOL    HW1 1274   2.807   2.765   1.860  0.2142 -2.4900 -1.7308
  425SOL    HW2 1275   2.832   2.787   2.030 -1.4343  1.6731  1.0157
  426SOL     OW 1276   2.001   2.898   0.604  0.3355 -0.1049 -0.0830
  426SOL    HW1 1277   2.052   2.832   0.662  0.0599 -0.7763 -0.2157
  426SOL    HW2 1278   2.050   2.925   0.522  0.6319 -2.3848  1.7767
  427SOL     OW 1279   0.505   0.829   2.829  0.5377 -0.2343  0.2248
  427SOL    HW1 1280   0.520   0.912   2.773  1.0308 -0.7167 -0.8283
  427SOL    HW2 1281   0.428   0.844   2.897  0.1975 -0.0090 -0.8654
  428SOL     OW 1282   2.048   1.294   0.138  0.6059 -0.0818  0.1258
  428SOL    HW1 1283   1.953   1.322   0.154  0.1557 -1.8954 -0.1403
  428SOL    HW2 1284   2.060   1.291   0.033  1.1697  1.7523 -0.0634
  429SOL     OW 1285   3.024   0.106   0.218 -0.0377 -0.3522 -0.1666
  429SOL    HW1 1286   3.054   0.027   0.276  0.1031 -1.3313  0.1837
  429SOL    HW2 1287   3.100   0.180   0.208  1.5778 -0.0976 -1.6343
  430SOL     OW 1288   0.834   2.971   2.049  0.2880 -0.0676 -0.4696
  430SOL    HW1 1289   0.748   3.016   2.018 -0.2874  1.7003  0.6492
  430SOL    HW2 1290   0.911   2.970   1.976  2.8029 -0.0114 -3.3557
  431SOL     OW 1291   3.036   1.623   1.348  0.0019  0.3916  0.2766
  431SOL    HW1 1292   0.003   1.670   1.388  1.9784  2.3480  2.2529
  431SOL    HW2 1293   2.966   1.616   1.420  0.9556 -2.0514  0.4678
  432SOL     OW 1294   2.101   2.736   1.822  0.0399  0.2265  0.1844
  432SOL    HW1 1295   2.187   2.683   1.802  0.7422 -2.3569  1.2659
  432SOL    HW2 1296   2.042   2.693   1.893 -0.6844  0.6640 -0.7958
  433SOL     OW 1297   1.060   1.701   0.151  0.3992  0.4938 -0.2822
  433SOL    HW1 1298   0.992   1.656   0.216 -0.4605 -1.7350 -3.7314
  433SOL    HW2 1299   1.023   1.760   0.081  0.1483 -2.0074 -0.4730
  434SOL     OW 1300   0.192   2.174   2.529 -0.3404 -1.0398  0.5450
  434SOL    HW1 1301   0.285   2.144   2.512 -0.5468  0.7767  1.6420
  434SOL    HW2 1302   0.189   2.274   2.554  1.4017  0.3735  2.5872
  435SOL     OW 1303   0.320   0.585   0.495 -0.4360 -0.3522  0.0445
  435SOL    HW1 1304   0.396   0.523   0.459  1.8563  0.9551  1.4568
  435SOL    HW2 1305   0.361   0.675   0.523  0.6851 -0.8966  1.0259
  436SOL     OW 1306   0.415   2.761   1.885 -0.4676  0.1281 -0.2435
  436SOL    HW1 1307   0.475   2.680   1.901 -0.7372  0.0072 -1.1912
  436SOL    HW2 1308   0.333   2.727   1.831  1.8120 -0.9373 -2.5073
  437SOL     OW 1309   1.057   2.082   1.421 -0.5030  0.5235 -0.7678
  437SOL    HW1 1310   1.070   2.109   1.520  0.7200  1.7207 -0.2593
  437SOL    HW2 1311   1.077   2.158   1.360 -0.4023 -2.2710  0.4645
  438SOL     OW 1312   0.026   2.090   0.699 -0.0561  0.2970 -0.3942
  438SOL    HW1 1313   3.051   2.126   0.712  2.9890 -1.5246 -4.1129
  438SOL    HW2 1314   0.091   2.164   0.732 -2.0651 -0.8737  0.4606
  439SOL     OW 1315   0.197   0.317   1.196  0.2040  0.3174 -0.4453
  439SOL    HW1 1316   0.163   0.365   1.279 -2.1254  2.6803  0.1967
  439SOL    HW2 1317   0.290   0.354   1.167  0.8165  2.4976 -0.4285
  440SOL     OW 1318   2.852   2.726   2.183  0.3163 -0.0121 -0.3619
  440SOL    HW1 1319   2.872   2.818   2.221  2.2322 -1.2576 -0.8988
  440SOL    HW2 1320   2.924   2.660   2.209 -1.0759  3.5142 -1.1581
  441SOL     OW 1321   2.817   0.724   1.792 -0.1513  0.6278  0.3119
  441SOL    HW1 1322   2.761   0.647   1.831 -1.1305 -2.4444  1.4824
  441SOL    HW2 1323   2.834   0.797   1.861 -0.4370 -0.5903  0.2821
  442SOL     OW 1324   1.700   2.208   3.059  0.3406 -0.9214  0.2261
  442SOL    HW1 1325   1.772   2.223   0.013 -1.5282  1.2885 -0.5260
  442SOL    HW2 1326   1.614   2.255   3.091  0.7526 -0.4932 -0.7727
  443SOL     OW 1327   0.451   0.850   0.184  0.3945 -0.0481  0.0577
  443SOL    HW1 1328   0.407   0.805   0.102 -3.6895 -0.2951 -2.0623
  443SOL    HW2 1329   0.514   0.790   0.236 -3.3698 -1.6959 -0.0783
  444SOL     OW 1330   1.375   1.518   2.172  0.5279 -0.1985  0.3787
  444SOL    HW1 1331   1.423   1.511   2.082 -1.5800  1.7954  0.3425
  444SOL    HW2 1332   1.289   1.463   2.173 -1.9051  0.3182 -1.0582
  445SOL     OW 1333   0.087   2.813   1.025  0.0817  0.9472 -0.1859
  445SOL    HW1 1334   0.041   2.754   1.089 -2.7607  1.9439 -2.6631
  445SOL    HW2 1335   0.029   2.891   0.999  1.9947  1.0621  1.6182
  446SOL     OW 1336   2.220   1.089   1.450 -0.3348  0.2639  0.2680
  446SOL    HW1 1337   2.122   1.103   1.423 -0.7989  4.0890  1.1634
  446SOL    HW2 1338   2.271   1.165   1.401 -0.0699  1.2161 -0.1821
  447SOL     OW 1339   0.308   0.607   0.034 -0.0482  0.7199 -0.8990
  447SOL    HW1 1340   0.253   0.585   0.119 -0.4550 -0.9450  0.2695
  447SOL    HW2 1341   0.270   0.555   3.071  1.5918  2.2594  3.9028
  448SOL     OW 1342   1.325   2.158   1.795 -0.3712  0.3554 -0.4434
  448SOL    HW1 1343   1.370   2.245   1.766  0.3402  1.9762 -1.3115
  448SOL    HW2 1344   1.282   2.170   1.887  0.0167 -2.2047  0.5395
  449SOL     OW 1345   1.255   1.497   0.572  0.3228  0.0239 -0.4442
  449SOL    HW1 1346   1.290   1.438   0.641 -1.6107  0.4354 -3.7977
  449SOL    HW2 1347   1.323   1.509   0.496  0.0256  0.9362  0.9428
  450SOL     OW 1348   2.528   1.830   1.907  0.5361 -0.2834 -0.2746
  450SOL    HW1 1349   2.518   1.881   1.996 -1.4548  1.3334 -1.4100
  450SOL    HW2 1350   2.613   1.773   1.905 -1.7422 -1.4725  0.5330
  451SOL     OW 1351   2.894   1.404   2.886 -0.1019  0.1881  0.3925
  451SOL    HW1 1352   2.937   1.428   2.794 -0.6427  2.8864 -1.3874
  451SOL    HW2 1353   2.924   1.312   2.917  0.1453  1.0182  0.4563
  452SOL     OW 1354   1.473   1.080   1.041  0.1399 -0.0258 -0.5388
  452SOL    HW1 1355   1.392   1.093   1.104  1.2428 -0.9755 -1.3968
  452SOL    HW2 1356   1.556   1.134   1.081 -0.6005 -0.0567  0.3019
  453SOL     OW 1357   2.001   0.902   1.040 -0.2259 -0.2615  0.2783
  453SOL    HW1 1358   2.022   0.820   1.102  0.3797  0.2188 -0.6298
  453SOL    HW2 1359   2.017   0.989   1.086 -1.6010 -1.2086 -2.4585
  454SOL     OW 1360   3.051   0.731   0.371  0.2362  0.1770  0.0946
  454SOL    HW1 1361   3.041   0.658   0.436  0.2822  1.8352 -2.6900
  454SOL    HW2 1362   2.958   0.763   0.341  1.6313  1.7123 -0.9602
  455SOL     OW 1363   2.720   2.601   1.021 -0.5937 -0.1604 -0.1444
  455SOL    HW1 1364   2.742   2.701   1.034 -1.5182  1.1561 -0.3530
  455SOL    HW2 1365   2.623   2.579   1.031  2.6758  0.2216 -1.7461
  456SOL     OW 1366   0.748   3.002   1.183 -0.3384  0.1161  0.4556
  456SOL    HW1 1367   0.712   2.929   1.124 -1.0168 -2.6268  0.7692
  456SOL    HW2 1368   0.746   2.977   1.281 -1.2177  0.7310 -1.3709
  457SOL     OW 1369   1.884   0.082   1.149  0.1808 -0.2727  0.1263
  457SOL    HW1 1370   1.899   0.166   1.093 -0.5274  2.6378 -2.3040
  457SOL    HW2 1371   1.940   0.005   1.114  1.3617 -0.0566  2.3525
  458SOL     OW 1372   2.720   0.328   0.768 -0.1790  0.3539 -0.2097
  458SOL    HW1 1373   2.695   0.306   0.867 -0.4104  0.6420  1.2405
  458SOL    HW2 1374   2.722   0.428   0.747 -1.5405 -1.0924  2.3767
  459SOL     OW 1375   1.879   0.624   0.080 -0.4231  0.1440 -0.4389
  459SOL    HW1 1376   1.943   0.593   0.007 -0.8844 -0.4527  2.0011
  459SOL    HW2 1377   1.923   0.610   0.169  0.3397 -0.0812  0.9710
  460SOL     OW 1378   2.957   2.291   2.973  0.0869  0.2669 -0.4340
  460SOL    HW1 1379   2.941   2.380   3.025 -3.1232  3.0337 -0.4255
  460SOL    HW2 1380   3.027   2.230   3.013  0.7586 -2.3253 -2.1664
  461SOL     OW 1381   0.486   1.711   0.401 -0.2712  0.2607  0.0802
  461SOL    HW1 1382   0.527   1.804   0.412  0.1425 -0.8839  0.8899
  461SOL    HW2 1383   0.562   1.644   0.382  3.6180  2.2816 -0.1697
  462SOL     OW 1384   2.488   2.442   0.683  0.3565 -0.6326  0.1720
  462SOL    HW1 1385   2.586   2.471   0.662  2.7015 -1.3070  1.1628
  462SOL    HW2 1386   2.427   2.449   0.600  0.9499 -0.4810  1.2530
  463SOL     OW 1387   3.024   0.542   0.545 -0.2189 -0.6655 -0.0805
  463SOL    HW1 1388   2.954   0.560   0.618 -2.0781 -0.7366 -0.8381
  463SOL    HW2 1389   3.074   0.453   0.556  0.3653 -1.6897  2.3558
  464SOL     OW 1390   1.182   2.788   0.340 -0.1668  0.2153 -0.2901
  464SOL    HW1 1391   1.080   2.773   0.332 -1.9649 -1.2093 -0.2557
  464SOL    HW2 1392   1.215   2.726   0.414 -0.4507 -1.2362 -2.9461
  465SOL     OW 1393   2.424   0.770   0.507  0.5770  0.4022  0.4253
  465SOL    HW1 1394   2.373   0.689   0.546 -0.7016 -0.4928 -0.3887
  465SOL    HW2 1395   2.357   0.824   0.447 -2.3107 -0.2447  1.0931
  466SOL     OW 1396   2.447   2.858   0.153  0.4957 -0.6220 -0.0027
  466SOL    HW1 1397   2.414   2.944   0.113 -0.3676  0.2741 -0.3180
  466SOL    HW2 1398   2.393   2.780   0.115  0.2911  2.2863  1.6786
  467SOL     OW 1399   1.148   0.650   1.821 -0.1139  0.0931 -0.0555
  467SOL    HW1 1400   1.149   0.742   1.867 -0.3953  0.7052 -0.0561
  467SOL    HW2 1401   1.210   0.642   1.737  1.8773 -0.8354 -1.1210
  468SOL     OW 1402   0.304   0.529   2.485 -0.2367  0.2123  0.3268
  468SOL    HW1 1403   0.400   0.500   2.466  0.5631 -2.0989 -2.3083
  468SOL    HW2 1404   0.285   0.616   2.433 -0.2443  1.6048 -0.0202
  469SOL     OW 1405   0.707   3.010   2.779 -0.5161 -0.6872 -0.1448
  469SOL    HW1 1406   0.635   2.947   2.738 -0.9867 -2.2449 -1.7338
  469SOL    HW2 1407   0.791   3.019   2.722 -1.7382  1.9704  0.8590
  470SOL     OW 1408   1.792   1.364   2.297  0.6064  0.4420 -0.3118
  470SOL    HW1 1409   1.792   1.399   2.203 -1.9217  1.9634 -1.8152
  470SOL    HW2 1410   1.885   1.357   2.341  1.2688  3.1097 -0.7479
  471SOL     OW 1411   2.886   1.219   2.600  0.5531  0.1809 -0.1333
  471SOL    HW1 1412   2.806   1.282   2.589  0.4018  3.3613 -0.0405
  471SOL    HW2 1413   2.857   1.137   2.658  0.1628 -2.1633  1.6951
  472SOL     OW 1414   0.503   2.476   0.264  0.6923 -0.5578 -0.1514
  472SOL    HW1 1415   0.424   2.540   0.261  1.2613  0.0151  1.5681
  472SOL    HW2 1416   0.506   2.422   0.353  0.8487 -2.2700 -1.3217
  473SOL     OW 1417   0.669   0.106   2.946  0.4736 -0.0534 -0.0957
  473SOL    HW1 1418   0.682   0.020   2.885 -0.5770  1.1259 -1.1545
  473SOL    HW2 1419   0.634   0.085   3.043 -0.5350  1.0620  0.6751
  474SOL     OW 1420   1.630   0.307   2.023 -0.2037 -0.2084  0.5327
  474SOL    HW1 1421   1.664   0.272   2.113 -0.0498  2.5304  0.3795
  474SOL    HW2 1422   1.570   0.389   2.036 -0.0504  2.5379 -1.0971
  475SOL     OW 1423   0.916   2.809   0.317  0.2636 -0.6168 -0.2966
  475SOL    HW1 1424   0.880   2.860   0.395  1.9934 -0.1915 -0.4282
  475SOL    HW2 1425   0.938   2.883   0.246 -0.7016 -1.1969  1.0420
  476SOL     OW 1426   0.309   1.087   1.009  0.4284 -0.6336 -0.6669
  476SOL    HW1 1427   0.398   1.126   0.982  2.5984  0.0773  0.5311
  476SOL    HW2 1428   0.257   1.056   0.925 -1.4904  1.7826 -0.8403
  477SOL     OW 1429   1.541   2.138   1.228  0.1370  0.6056  0.2542
  477SOL    HW1 1430   1.626   2.179   1.261 -1.1387  0.5526 -0.8453
  477SOL    HW2 1431   1.514   2.055   1.285  0.7664 -2.6753 -1.8638
  478SOL     OW 1432   0.876   1.316   2.216  0.6754  0.3538 -0.0747
  478SOL    HW1 1433   0.833   1.265   2.138  1.5401 -3.7349 -1.1313
  478SOL    HW2 1434   0.864   1.273   2.311 -2.2857  1.5739  0.6071
  479SOL     OW 1435   0.568   0.228   1.061  0.2042 -0.2727 -0.6583
  479SOL    HW1 1436   0.632   0.200   1.136  0.9624  1.2267  2.3868
  479SOL    HW2 1437   0.604   0.202   0.970 -0.1090 -2.1025  0.3478
  480SOL     OW 1438   2.551   2.443   0.229  0.6558  0.4507  0.3141
  480SOL    HW1 1439   2.618   2.368   0.242  0.2676  2.2692 -2.5254
  480SOL    HW2 1440   2.578   2.491   0.144 -0.6999 -1.4259  0.2260
  481SOL     OW 1441   2.826   0.248   1.224 -0.2701 -0.4802 -0.1278
  481SOL    HW1 1442   2.875   0.336   1.245 -1.8146 -0.3807 -1.2492
  481SOL    HW2 1443   2.877   0.165   1.261  2.5044 -2.3488  1.6606
  482SOL     OW 1444   1.575   2.430   2.091  0.2992 -0.3750 -0.7878
  482SOL    HW1 1445   1.579   2.488   2.175  1.2973 -1.6466  0.4547
  482SOL    HW2 1446   1.597   2.484   2.009  2.5641 -0.8962  4.3196
  483SOL     OW 1447   0.500   1.474   2.673  0.3795  0.9070 -0.2903
  483SOL    HW1 1448   0.503   1.371   2.674  2.3141 -1.8383  1.9495
  483SOL    HW2 1449   0.456   1.498   2.582  0.4791  2.5227 -1.0343
  484SOL     OW 1450   1.035   1.694   2.108  0.8019  0.4509 -0.0566
  484SOL    HW1 1451   1.085   1.610   2.146  0.6202 -0.9133  3.0169
  484SOL    HW2 1452   0.943   1.662   2.071 -0.3084 -0.1873 -0.9101
  485SOL     OW 1453   2.782   0.201   2.988  0.6121 -0.0092  0.1591
  485SOL    HW1 1454   2.789   0.303   3.002 -1.9383  0.3499 -0.9071
  485SOL    HW2 1455   2.797   0.143   3.071 -0.7231  0.3344  2.5648
  486SOL     OW 1456   1.627   3.083   0.676  0.0389  0.6088  0.4138
  486SOL    HW1 1457   1.645   0.061   0.645 -0.6036  0.8357 -0.3529
  486SOL    HW2 1458   1.538   3.078   0.726 -1.3482  0.2266 -0.2699
  487SOL     OW 1459   1.179   2.605   0.793  0.6359 -0.7122  0.1603
  487SOL    HW1 1460   1.186   2.505   0.799 -0.1881  1.4441 -2.1629
  487SOL    HW2 1461   1.087   2.641   0.761  2.7163  2.2425 -1.3011
  488SOL     OW 1462   2.240   0.984   0.380 -0.1051  0.7057 -0.0851
  488SOL    HW1 1463   2.256   1.077   0.340  2.0012 -1.9854  0.9765
  488SOL    HW2 1464   2.240   0.919   0.295 -0.8056 -1.7725 -0.8127
  489SOL     OW 1465   1.153   2.878   1.322 -0.0568  0.4974 -0.0600
  489SOL    HW1 1466   1.194   2.796   1.366  0.8165  2.6685  1.1802
  489SOL    HW2 1467   1.150   2.952   1.390  2.5564 -2.0965  0.7850
  490SOL     OW 1468   0.803   0.867   0.268 -0.4723 -0.1244 -0.3480
  490SOL    HW1 1469   0.885   0.865   0.332  1.4495 -2.6393  0.3393
  490SOL    HW2 1470   0.831   0.825   0.180 -0.5805  0.2177 -0.2593
  491SOL     OW 1471   1.343   3.017   0.429 -0.0075 -0.7982 -0.0618
  491SOL    HW1 1472   1.362   3.022   0.530  0.1832 -0.4747 -0.6520
  491SOL    HW2 1473   1.293   2.931   0.406 -3.4943 -1.0553  0.0685
  492SOL     OW 1474   1.309   1.134   2.178  0.3489 -0.0591  0.2249
  492SOL    HW1 1475   1.262   1.171   2.092  0.7803  0.8740  0.0707
  492SOL    HW2 1476   1.244   1.107   2.252  0.4437  0.8255  0.8998
  493SOL     OW 1477   0.159   2.143   0.195  0.4441 -1.1300 -0.0949
  493SOL    HW1 1478   0.124   2.095   0.276  2.2390 -1.0274  0.0485
  493SOL    HW2 1479   0.255   2.111   0.188 -0.5374 -2.6833  2.3928
  494SOL     OW 1480   2.159   1.551   0.272  0.1378 -0.2221 -0.2054
  494SOL    HW1 1481   2.254   1.515   0.269 -0.4509  0.7217 -0.5010
  494SOL    HW2 1482   2.108   1.537   0.180 -3.7563 -1.2550 -0.5789
  495SOL     OW 1483   0.077   0.893   2.858  0.3136  0.6342  0.2852
  495SOL    HW1 1484   0.054   0.855   2.769  1.6301  0.1831 -0.0510
  495SOL    HW2 1485   0.005   0.879   2.928 -0.5320 -0.1713 -0.2964
  496SOL     OW 1486   2.930   2.947   2.282 -0.2126 -0.2260 -0.2355
  496SOL    HW1 1487   3.028   2.958   2.263  1.5697  1.3868  0.6474
  496SOL    HW2 1488   2.884   3.025   2.233 -0.7630 -0.3511  3.4995
  497SOL     OW 1489   2.679   0.762   0.814 -0.0480 -0.1886  0.3241
  497SOL    HW1 1490   2.622   0.786   0.896 -3.0547 -0.1923 -1.4082
  497SOL    HW2 1491   2.656   0.819   0.732 -0.5760  0.3238 -3.1031
  498SOL     OW 1492   0.460   2.303   0.079  0.4204 -0.1944  0.0088
  498SOL    HW1 1493   0.432   2.212   0.114 -1.6338  1.3814 -2.4448
  498SOL    HW2 1494   0.472   2.366   0.157  0.0448 -1.2695 -0.3725
  499SOL     OW 1495   0.682   2.246   0.648  0.0625 -0.3852 -1.0602
  499SOL    HW1 1496   0.742   2.310   0.598 -2.9686 -2.8615  0.0216
  499SOL    HW2 1497   0.724   2.154   0.650 -0.0463  2.8018  2.7402
  500SOL     OW 1498   0.995   0.294   2.431 -0.8845  0.5880 -0.8400
  500SOL    HW1 1499   1.058   0.213   2.443 -0.4919  0.1995 -0.6387
  500SOL    HW2 1500   0.933   0.285   2.353  1.0011 -0.8577  1.0266
  501SOL     OW 1501   1.093   0.086   1.326 -0.0291 -0.0448 -0.1245
  501SOL    HW1 1502   1.145   0.041   1.401 -1.1802  0.7015 -2.1932
  501SOL    HW2 1503   1.043   0.166   1.366 -1.1930  1.7073  0.2679
  502SOL     OW 1504   0.041   0.440   2.285  0.0506 -0.5652 -0.1472
  502SOL    HW1 1505   0.106   0.380   2.334 -0.0794  0.7496 -2.2212
  502SOL    HW2 1506   0.083   0.505   2.224  0.3062 -3.8911 -0.2370
  503SOL     OW 1507   2.041   2.052   2.435  0.2442 -0.1472  0.4675
  503SOL    HW1 1508   1.955   2.106   2.408  0.3686  1.2396 -3.4441
  503SOL    HW2 1509   2.035   2.017   2.530  0.1940  0.0837  0.2850
  504SOL     OW 1510   1.784   0.502   1.745  0.1742  0.5909  0.1972
  504SOL    HW1 1511   1.806   0.603   1.767  1.1912  2.3656 -1.4304
  504SOL    HW2 1512   1.862   0.441   1.767 -1.7665 -1.2483 -1.8543
  505SOL     OW 1513   2.826   1.105   1.797 -0.0511 -0.0115 -0.5298
  505SOL    HW1 1514   2.904   1.162   1.775 -0.0319 -0.1006 -0.8835
  505SOL    HW2 1515   2.834   1.031   1.729  0.3925  1.1279 -1.8829
  506SOL     OW 1516   0.337   1.425   2.400 -0.0282  0.5660 -0.2948
  506SOL    HW1 1517   0.263   1.358   2.389  0.1676  0.4194  1.8253
  506SOL    HW2 1518   0.344   1.485   2.317 -1.1364  0.0445  0.9371
  507SOL     OW 1519   0.264   3.034   2.406  0.9529 -0.0111 -0.4831
  507SOL    HW1 1520   0.336   3.099   2.376  1.5619 -6.2623  4.0225
  507SOL    HW2 1521   0.299   2.938   2.410 -1.8218 -1.3758 -0.2785
  508SOL     OW 1522   1.316   0.838   1.386 -0.2389  0.2209 -0.9325
  508SOL    HW1 1523   1.342   0.931   1.415  0.2224  1.0882  0.8111
  508SOL    HW2 1524   1.398   0.776   1.391 -1.2211 -0.8810  0.2784
  509SOL     OW 1525   0.938   1.842   1.325  0.0541  0.5191 -0.0578
  509SOL    HW1 1526   1.001   1.913   1.372  2.2917  4.0375  3.1764
  509SOL    HW2 1527   0.876   1.805   1.393  3.1489 -0.8734 -0.6627
  510SOL     OW 1528   2.743   0.814   2.486 -0.4581  0.1379 -0.4515
  510SOL    HW1 1529   2.775   0.799   2.583 -2.2509  1.8471  1.9063
  510SOL    HW2 1530   2.645   0.811   2.473 -0.5183  0.7581  2.9190
  511SOL     OW 1531   0.427   1.574   1.346  0.1431 -0.2195 -0.0544
  511SOL    HW1 1532   0.347   1.602   1.293  1.6483  0.0731 -1.5148
  511SOL    HW2 1533   0.429   1.622   1.436 -1.1593 -0.8140 -1.0671
  512SOL     OW 1534   2.888   2.402   0.977 -0.1454  0.1290 -0.1827
  512SOL    HW1 1535   2.856   2.305   0.963 -0.9818 -0.8157 -0.5690
  512SOL    HW2 1536   2.816   2.466   1.005  0.4199  0.1838 -0.1004
  513SOL     OW 1537   0.481   1.461   2.967 -0.0441  0.2817 -0.2188
  513SOL    HW1 1538   0.457   1.364   2.973  1.4466  0.5722  0.8269
  513SOL    HW2 1539   0.508   1.487   2.871 -3.3141 -1.2821 -1.6465
  514SOL     OW 1540   0.075   2.568   2.938  0.2972 -0.0495  0.1023
  514SOL    HW1 1541   0.003   2.575   3.010 -2.9642 -0.7538  0.5037
  514SOL    HW2 1542   0.141   2.496   2.960  0.0654  0.3670  1.1557
  515SOL     OW 1543   1.702   0.933   2.255 -0.0725 -0.0638  0.2737
  515SOL    HW1 1544   1.650   1.008   2.206 -0.5865  0.5484 -0.5429
  515SOL    HW2 1545   1.718   0.952   2.357  0.2557 -0.4927  0.8944
  516SOL     OW 1546   2.277   2.001   0.382 -0.0746  0.0858  0.2542
  516SOL    HW1 1547   2.256   1.944   0.465 -1.5275  0.5432  1.0976
  516SOL    HW2 1548   2.373   1.986   0.354 -1.1622 -2.5129  0.2425
  517SOL     OW 1549   1.466   1.000   0.350 -0.2226 -0.7366 -0.2441
  517SOL    HW1 1550   1.384   0.985   0.416 -1.7904 -1.5113  3.6060
  517SOL    HW2 1551   1.552   1.025   0.406  1.2621  1.0161  3.1755
  518SOL     OW 1552   2.355   2.603   2.179 -0.4008 -0.2354 -0.2534
  518SOL    HW1 1553   2.345   2.509   2.143  0.9405  1.9007 -0.7685
  518SOL    HW2 1554   2.263   2.650   2.197 -0.6261  2.4574  4.2329
  519SOL     OW 1555   1.772   2.264   1.355 -0.3901 -0.6309 -0.2844
  519SOL    HW1 1556   1.805   2.333   1.287 -1.5025  0.5938 -3.1766
  519SOL    HW2 1557   1.700   2.312   1.415  1.3431  0.8096  0.9095
  520SOL     OW 1558   2.563   2.387   2.828 -0.0984 -0.0818 -0.1065
  520SOL    HW1 1559   2.625   2.437   2.764  0.5043  2.1422 -2.6038
  520SOL    HW2 1560   2.477   2.365   2.780  0.5411  0.6212  1.7592
  521SOL     OW 1561   0.345   1.346   2.011 -0.0091 -0.2157 -0.1309
  521SOL    HW1 1562   0.410   1.419   2.041  0.6165  1.0980  0.4444
  521SOL    HW2 1563   0.250   1.386   1.993  1.3841  0.8953 -0.2541
  522SOL     OW 1564   1.163   0.422   1.969  0.3463 -0.2921 -0.3330
  522SOL    HW1 1565   1.150   0.521   1.952 -1.4440 -0.1311  1.0361
  522SOL    HW2 1566   1.113   0.367   1.893 -4.3982 -2.2133 -1.8921
  523SOL     OW 1567   0.469   2.343   1.120  0.3268  0.1460 -0.7075
  523SOL    HW1 1568   0.470   2.243   1.098 -0.2792 -1.7695 -0.6532
  523SOL    HW2 1569   0.400   2.399   1.070 -0.2198  3.7433  0.6920
  524SOL     OW 1570   1.569   2.652   0.636  0.1211 -0.0853 -0.1795
  524SOL    HW1 1571   1.616   2.742   0.643  0.9511  0.0117 -0.1391
  524SOL    HW2 1572   1.546   2.611   0.727  0.2285 -0.6615  1.2183
  525SOL     OW 1573   2.349   0.841   1.407  0.2903 -0.4193  0.5093
  525SOL    HW1 1574   2.292   0.927   1.418 -2.1640  1.0119 -1.2279
  525SOL    HW2 1575   2.446   0.856   1.423  0.0889  0.4179  0.4862
  526SOL     OW 1576   0.930   2.740   0.754  0.5305  0.1398  0.0389
  526SOL    HW1 1577   0.861   2.684   0.700 -3.8373 -1.7201 -1.1599
  526SOL    HW2 1578   0.951   2.824   0.699  0.6642 -0.5083 -1.9231
  527SOL     OW 1579   2.916   2.169   0.488  0.0587 -0.0354 -0.0318
  527SOL    HW1 1580   2.897   2.192   0.586 -3.4718  2.4431  1.3667
  527SOL    HW2 1581   2.911   2.071   0.468 -0.0624  2.0875  0.2460
  528SOL     OW 1582   1.915   0.335   0.369 -0.1619 -0.1500  0.0712
  528SOL    HW1 1583   1.941   0.307   0.274  1.3125 -0.9724  5.6973
  528SOL    HW2 1584   1.985   0.305   0.440  1.4819  1.5412 -0.5874
  529SOL     OW 1585   1.539   1.713   2.239 -0.0477 -0.6856 -0.1756
  529SOL    HW1 1586   1.496   1.752   2.324 -0.9610  0.5652 -1.9113
  529SOL    HW2 1587   1.480   1.640   2.200 -1.2663  0.0121 -2.4823
  530SOL     OW 1588   2.510   0.469   3.094  0.1163 -0.2686  0.1059
  530SOL    HW1 1589   2.453   0.412   3.029 -1.4291  1.1879  0.1600
  530SOL    HW2 1590   2.542   0.551   3.046 -0.2053 -2.5155 -0.3535
  531SOL     OW 1591   1.311   1.114   3.041  0.0491 -0.5872 -0.8646
  531SOL    HW1 1592   1.235   1.181   3.051  1.2910  1.1485 -0.6689
  531SOL    HW2 1593   1.277   1.026   3.010 -0.0865  2.9776  0.4848
  532SOL     OW 1594   1.640   0.412   0.834  0.4069  0.2952  0.2151
  532SOL    HW1 1595   1.615   0.459   0.922  0.9454 -2.3212  0.4692
  532SOL    HW2 1596   1.700   0.473   0.777  1.3921  0.4426 -1.7880
  533SOL     OW 1597   1.027   1.000   2.058 -0.3989  0.4029 -0.4893
  533SOL    HW1 1598   1.069   1.010   2.151 -0.5818 -1.7164 -0.2474
  533SOL    HW2 1599   1.092   0.993   1.982 -2.5067 -0.2676  1.6947
  534SOL     OW 1600   1.844   0.265   2.640  0.5815  0.2952  0.2604
  534SOL    HW1 1601   1.928   0.305   2.609 -0.6051 -0.8105  3.1853
  534SOL    HW2 1602   1.810   0.308   2.729 -0.2184  0.1671 -0.4950
  535SOL     OW 1603   0.512   0.416   0.377 -0.9141  0.2361  0.8581
  535SOL    HW1 1604   0.549   0.434   0.285 -1.7613 -0.6742  1.8238
  535SOL    HW2 1605   0.523   0.321   0.406  0.6538  0.0119 -1.7924
  536SOL     OW 1606   1.023   2.971   0.641 -0.1810 -0.0007  0.7776
  536SOL    HW1 1607   1.112   2.928   0.660 -0.3566  0.1143 -2.3646
  536SOL    HW2 1608   0.996   3.042   0.706 -0.6939 -1.7689 -0.4400
  537SOL     OW 1609   1.513   1.122   0.786 -0.2838  0.3779 -0.5066
  537SOL    HW1 1610   1.509   1.098   0.887  0.4207 -0.5660  2.0000
  537SOL    HW2 1611   1.614   1.130   0.762  3.1666  1.2613 -2.5629
  538SOL     OW 1612   2.861   2.035   0.108  0.8043  0.0278 -0.1735
  538SOL    HW1 1613   2.884   1.966   0.176  0.9935 -1.3335 -3.2935
  538SOL    HW2 1614   2.949   2.064   0.064 -2.0710  2.4009  1.4787
  539SOL     OW 1615   2.467   1.747   0.171  0.3115  0.4341  0.4397
  539SOL    HW1 1616   2.500   1.738   0.075 -2.2617  1.8469 -1.6935
  539SOL    HW2 1617   2.489   1.834   0.214 -0.4442 -0.5914  1.4305
  540SOL     OW 1618   0.503   2.819   1.480  0.1456  0.3492  0.5726
  540SOL    HW1 1619   0.434   2.820   1.408 -0.6987  2.2460  2.3057
  540SOL    HW2 1620   0.480   2.874   1.558 -0.5259 -2.6478 -4.1816
  541SOL     OW 1621   2.189   0.093   2.042  0.1190  0.5127  0.2256
  541SOL    HW1 1622   2.140   0.033   2.107  0.8644  1.4010 -0.3212
  541SOL    HW2 1623   2.189   0.054   1.946  1.2379 -2.4559  0.2927
  542SOL     OW 1624   2.768   0.231   2.495 -0.2963 -0.2585  0.4267
  542SOL    HW1 1625   2.797   0.212   2.595 -1.5559 -1.6578 -1.2884
  542SOL    HW2 1626   2.848   0.252   2.436 -0.2543  1.7405  0.3585
  543SOL     OW 1627   0.463   0.651   0.798 -0.1744  0.1276  0.7641
  543SOL    HW1 1628   0.364   0.643   0.811  0.9800  0.5398 -2.5754
  543SOL    HW2 1629   0.477   0.727   0.726 -3.8164  3.3212 -0.7637
  544SOL     OW 1630   3.113   3.084   1.228 -0.5985 -0.3337 -0.3080
  544SOL    HW1 1631   3.112   3.080   1.127  1.1457 -1.4866  2.7930
  544SOL    HW2 1632   3.043   3.023   1.264 -0.7475 -3.0779 -1.6803
  545SOL     OW 1633   1.438   2.194   0.821  0.2888 -0.5234  0.2751
  545SOL    HW1 1634   1.460   2.161   0.728 -2.5021 -0.2529  1.9550
  545SOL    HW2 1635   1.506   2.154   0.889  0.1328 -0.0255  1.8048
  546SOL     OW 1636   1.905   3.000   1.866  0.2552 -0.3335  0.3134
  546SOL    HW1 1637   1.823   3.010   1.804  0.4239 -0.3109  1.0098
  546SOL    HW2 1638   1.929   2.904   1.893  1.7130  2.6162  1.9843
  547SOL     OW 1639   0.223   0.286   2.434  0.1307 -0.2665 -0.4350
  547SOL    HW1 1640   0.300   0.229   2.400 -0.5258 -0.3311 -1.6513
  547SOL    HW2 1641   0.252   0.377   2.475 -0.7231  1.7173  0.8911
  548SOL     OW 1642   2.006   1.663   2.715  0.7513  0.0156  0.5972
  548SOL    HW1 1643   1.994   1.693   2.813  0.7830  0.6410  1.0887
  548SOL    HW2 1644   1.918   1.620   2.680 -1.9313 -0.2319 -2.4560
  549SOL     OW 1645   0.012   0.840   0.650  0.7338  0.7312  0.4077
  549SOL    HW1 1646   3.110   0.855   0.550 -0.3573 -1.3844  1.2822
  549SOL    HW2 1647   3.045   0.854   0.705  1.6071  0.6063 -1.7358
  550SOL     OW 1648   1.863   1.878   0.622  0.5578 -0.1228  0.3633
  550SOL    HW1 1649   1.787   1.837   0.573 -0.1355  1.8910 -1.0425
  550SOL    HW2 1650   1.888   1.973   0.582  0.6438  1.8365  0.1846
  551SOL     OW 1651   1.061   0.302   1.017 -0.7066  0.4863 -0.1314
  551SOL    HW1 1652   0.975   0.352   1.022 -0.3073 -1.8074 -1.8942
  551SOL    HW2 1653   1.033   0.207   1.035 -0.5992 -0.2520  1.1641
  552SOL     OW 1654   2.615   2.617   2.285  0.2289 -0.9675 -0.0743
  552SOL    HW1 1655   2.683   2.668   2.227  1.7556  2.4906 -1.7538
  552SOL    HW2 1656   2.523   2.609   2.242 -2.2207  1.3086 -4.9454
  553SOL     OW 1657   2.881   2.996   2.659 -0.5293 -0.3125  0.0859
  553SOL    HW1 1658   2.900   3.096   2.651 -0.8799  1.1545 -2.1014
  553SOL    HW2 1659   2.786   2.977   2.624 -0.1516  2.6911 -0.3001
  554SOL     OW 1660   0.917   2.740   1.245 -0.1444 -0.0271  0.7474
  554SOL    HW1 1661   0.872   2.805   1.307  1.9073 -0.2270  1.6497
  554SOL    HW2 1662   1.017   2.768   1.241  1.2150 -0.3615 -1.2245
  555SOL     OW 1663   2.357   2.626   1.825 -0.0384 -0.3227 -0.0350
  555SOL    HW1 1664   2.397   2.625   1.732 -1.2289  1.4899  0.8188
  555SOL    HW2 1665   2.397   2.696   1.881 -1.2169 -2.7104 -1.7891
  556SOL     OW 1666   1.174   0.111   2.761 -0.1008  0.4119  0.4041
  556SOL    HW1 1667   1.265   0.133   2.801 -1.7682 -2.1272  0.9331
  556SOL    HW2 1668   1.181   0.113   2.655 -1.0354  0.1379 -5.8705
  557SOL     OW 1669   0.106   1.903   2.249  0.2964  0.1158  0.2996
  557SOL    HW1 1670   0.044   1.933   2.321  1.3431 -4.9225  0.2779
  557SOL    HW2 1671   0.191   1.859   2.289 -1.6434 -3.2603 -1.1146
  558SOL     OW 1672   2.338   1.083   2.506 -0.8290 -0.7646 -0.4820
  558SOL    HW1 1673   2.341   1.064   2.410 -3.5921  1.9438  1.9382
  558SOL    HW2 1674   2.272   1.153   2.536  0.1911  1.1363  0.5088
  559SOL     OW 1675   2.551   2.223   2.079  0.4436  0.0763  0.5404
  559SOL    HW1 1676   2.576   2.277   2.161  0.7892 -0.0820 -1.1840
  559SOL    HW2 1677   2.494   2.278   2.012 -0.2337 -0.9410 -3.2359
  560SOL     OW 1678   2.863   0.662   2.296 -0.3413 -0.0361  0.3117
  560SOL    HW1 1679   2.820   0.721   2.367  0.2374  0.6762 -2.6059
  560SOL    HW2 1680   2.916   0.727   2.234  1.3109  1.1747 -2.0894
  561SOL     OW 1681   0.757   0.362   0.620 -0.9728  0.5263 -0.4072
  561SOL    HW1 1682   0.846   0.314   0.631 -0.1776  1.7099 -1.4267
  561SOL    HW2 1683   0.752   0.395   0.526 -1.6924 -2.7287  1.3557
  562SOL     OW 1684   1.038   1.403   1.433 -0.1228 -0.0355 -0.5507
  562SOL    HW1 1685   1.071   1.412   1.527  0.3429  0.4120 -2.2820
  562SOL    HW2 1686   0.982   1.318   1.436 -0.7370 -1.1755  0.2646
  563SOL     OW 1687   1.621   2.832   3.084 -0.4466  0.2702 -0.1809
  563SOL    HW1 1688   1.618   2.776   0.054 -1.5557  1.4063  2.6549
  563SOL    HW2 1689   1.527   2.843   3.049  1.8745 -1.8515  0.8462
  564SOL     OW 1690   0.170   2.116   1.064  0.1936  0.1731  0.4225
  564SOL    HW1 1691   0.118   2.044   1.109 -0.3466 -1.1127  0.0067
  564SOL    HW2 1692   0.270   2.095   1.071 -1.0488  0.9151 -1.5210
  565SOL     OW 1693   0.689   2.269   2.209  0.2198  0.2131  0.3954
  565SOL    HW1 1694   0.610   2.213   2.180  0.8808 -1.2993  0.7180
  565SOL    HW2 1695   0.679   2.368   2.185 -0.4023 -0.2031  2.7780
  566SOL     OW 1696   0.941   2.808   2.465 -0.4070 -0.5681  0.0130
  566SOL    HW1 1697   0.991   2.772   2.548  0.3216  1.7621  2.8033
  566SOL    HW2 1698   1.000   2.788   2.379  0.4858  0.2467 -1.9781
  567SOL     OW 1699   2.206   2.283   0.941  0.3916  0.1334  0.2797
  567SOL    HW1 1700   2.251   2.193   0.925 -0.4621  1.4707  1.6864
  567SOL    HW2 1701   2.109   2.270   0.972 -1.5944 -0.9470 -0.5499
  568SOL     OW 1702   1.989   0.634   0.346  0.8973  0.6655  0.1528
  568SOL    HW1 1703   2.007   0.688   0.429  1.8827  0.5061 -1.9860
  568SOL    HW2 1704   1.985   0.531   0.369 -0.8944 -4.0484 -2.9262
  569SOL     OW 1705   0.080   1.602   2.555  0.2422 -0.1575  0.9236
  569SOL    HW1 1706   0.080   1.571   2.456 -1.5188 -1.7073  1.0882
  569SOL    HW2 1707   0.047   1.525   2.616 -2.3382 -0.3302  1.6131
  570SOL     OW 1708   0.035   0.156   1.434  0.1617 -0.2858 -0.3302
  570SOL    HW1 1709   3.078   0.163   1.505 -0.4126  0.4238 -0.7598
  570SOL    HW2 1710   0.015   0.088   1.363  0.8474 -0.7227  0.7104
  571SOL     OW 1711   0.100   0.482   1.483 -0.1270 -0.3424 -0.0696
  571SOL    HW1 1712   0.130   0.552   1.414  1.0146  0.6336  1.1046
  571SOL    HW2 1713   0.024   0.520   1.539 -0.9358  1.7981  1.8417
  572SOL     OW 1714   3.010   2.591   0.818 -0.2273  0.2970  1.2767
  572SOL    HW1 1715   2.975   2.532   0.894  0.7011  1.1606 -0.6879
  572SOL    HW2 1716   3.084   2.539   0.776 -1.5127  0.3495  0.2330
  573SOL     OW 1717   0.855   0.800   0.004  0.5148  0.0806  0.2495
  573SOL    HW1 1718   0.812   0.705   3.107 -1.9522 -2.8489  0.4201
  573SOL    HW2 1719   0.792   0.871   3.088  0.2891 -2.0193  0.0106
  574SOL     OW 1720   2.918   2.571   3.037  0.2469  0.2055 -0.0686
  574SOL    HW1 1721   2.841   2.586   2.969 -2.5501  0.3233 -1.4736
  574SOL    HW2 1722   2.930   2.658   3.093 -0.8939 -0.0763  0.3278
  575SOL     OW 1723   1.132   2.279   1.252 -0.0583  0.0926 -0.0476
  575SOL    HW1 1724   1.050   2.257   1.194 -0.7427  0.2992 -0.4037
  575SOL    HW2 1725   1.217   2.270   1.204 -0.7514 -1.1319 -0.2238
  576SOL     OW 1726   0.441   3.084   1.240  0.0751  0.2072  0.2545
  576SOL    HW1 1727   0.538   0.001   1.227  1.9370  1.0297 -1.1867
  576SOL    HW2 1728   0.391   3.068   1.156  0.5834 -1.7943  6.1128
  577SOL     OW 1729   2.020   1.556   1.273  0.2160  0.4247  0.2377
  577SOL    HW1 1730   1.926   1.572   1.240  0.8817  0.2193 -0.1701
  577SOL    HW2 1731   2.082   1.547   1.197 -2.7466  2.3585  0.6817
  578SOL     OW 1732   1.458   0.312   0.288  0.0993  0.5181  0.1305
  578SOL    HW1 1733   1.397   0.332   0.207  1.1954  1.9252  0.3974
  578SOL    HW2 1734   1.520   0.387   0.309 -0.7487 -0.7686 -0.0485
  579SOL     OW 1735   2.651   1.355   2.517  0.0586 -0.6461 -0.1518
  579SOL    HW1 1736   2.600   1.441   2.522  1.1272 -2.5506 -1.1090
  579SOL    HW2 1737   2.604   1.285   2.574 -0.2782  1.0312 -2.5595
  580SOL     OW 1738   1.732   0.843   1.557 -0.2308  0.5487  1.0364
  580SOL    HW1 1739   1.815   0.787   1.571  0.4660 -2.2551 -2.1005
  580SOL    HW2 1740   1.663   0.790   1.503  2.5656 -0.8812  1.3141
  581SOL     OW 1741   0.834   1.217   1.427 -0.3285  0.1507  0.3120
  581SOL    HW1 1742   0.757   1.159   1.463 -0.3902  2.0649 -0.7329
  581SOL    HW2 1743   0.855   1.194   1.330 -0.9754  0.6488 -1.3116
  582SOL     OW 1744   2.817   3.109   2.126 -0.0440 -0.4346  0.3288
  582SOL    HW1 1745   2.760   3.091   2.045 -0.6761  1.4449 -2.6912
  582SOL    HW2 1746   2.853   0.089   2.116 -0.0400  1.5672 -2.8152
  583SOL     OW 1747   2.061   0.401   1.716 -0.5398  0.4135  0.4264
  583SOL    HW1 1748   2.113   0.407   1.803 -0.3307 -1.2858 -0.0833
  583SOL    HW2 1749   2.131   0.375   1.640 -0.5146  0.4740 -2.4583
  584SOL     OW 1750   1.440   2.019   2.758 -0.1839  0.0548 -0.2954
  584SOL    HW1 1751   1.451   1.992   2.855 -1.5625  2.2381 -2.7453
  584SOL    HW2 1752   1.507   1.962   2.704  0.8137 -0.5085  1.1681
  585SOL     OW 1753   0.342   2.988   0.405 -0.1133 -0.8223 -0.6793
  585SOL    HW1 1754   0.379   2.911   0.463 -0.5817  0.2028  1.2219
  585SOL    HW2 1755   0.390   2.992   0.317  0.1773  3.3862 -1.3196
  586SOL     OW 1756   1.605   2.259   2.435 -0.0280  0.0555  0.0187
  586SOL    HW1 1757   1.548   2.291   2.512 -2.0941  2.0502  2.8608
  586SOL    HW2 1758   1.551   2.192   2.378  0.2506  1.8615 -1.9845
  587SOL     OW 1759   2.604   2.067   0.537 -0.1249 -0.4986  0.2853
  587SOL    HW1 1760   2.507   2.038   0.529 -0.9321  1.1074  1.1481
  587SOL    HW2 1761   2.618   2.112   0.628 -1.1390 -1.6166  0.6033
  588SOL     OW 1762   2.655   0.213   1.000 -0.1929 -0.4272 -0.0694
  588SOL    HW1 1763   2.719   0.202   1.078 -1.2537  0.6598  1.5263
  588SOL    HW2 1764   2.581   0.277   1.023  2.5227 -0.5904 -1.1667
  589SOL     OW 1765   0.710   0.536   0.831  0.0525  0.0968  0.4441
  589SOL    HW1 1766   0.625   0.585   0.828  4.3611  0.4845 -0.9643
  589SOL    HW2 1767   0.714   0.455   0.763 -0.9622 -2.7551 -0.0218
  590SOL     OW 1768   2.371   1.447   0.940 -0.1963 -0.0414 -0.7079
  590SOL    HW1 1769   2.411   1.382   0.877 -3.2055 -0.7847  0.0133
  590SOL    HW2 1770   2.412   1.540   0.922 -2.3231  4.3365  1.3592
  591SOL     OW 1771   0.377   2.683   1.220 -0.6445 -0.1638 -0.3390
  591SOL    HW1 1772   0.409   2.622   1.295  0.9895 -1.2286 -0.7117
  591SOL    HW2 1773   0.331   2.635   1.142  1.6298 -1.1277 -1.6475
  592SOL     OW 1774   1.095   0.933   1.234  0.5348  0.0530 -0.2315
  592SOL    HW1 1775   1.186   0.905   1.266  1.5759 -0.7468  1.3867
  592SOL    HW2 1776   1.016   0.881   1.268  1.2594  0.9649  1.1594
  593SOL     OW 1777   0.592   1.496   1.132  0.0708 -0.2785 -0.0889
  593SOL    HW1 1778   0.688   1.523   1.155  1.3734  0.3602 -4.4901
  593SOL    HW2 1779   0.526   1.535   1.194  0.5265  0.2612  2.1324
  594SOL     OW 1780   1.028   2.064   0.319  0.0732 -0.0405 -0.2046
  594SOL    HW1 1781   0.931   2.077   0.298  1.5460  1.1271  0.6026
  594SOL    HW2 1782   1.040   1.976   0.370 -0.3636  1.1159 -0.2642
  595SOL     OW 1783   1.347   0.190   1.220 -0.2536 -0.2042 -0.7699
  595SOL    HW1 1784   1.246   0.178   1.227 -0.1453 -0.1166  0.7538
  595SOL    HW2 1785   1.366   0.280   1.185 -0.9237 -0.3868 -0.2759
  596SOL     OW 1786   2.966   1.569   0.875 -0.1248 -0.4241 -0.5212
  596SOL    HW1 1787   3.058   1.533   0.904  1.2750  0.7436 -1.2721
  596SOL    HW2 1788   2.919   1.612   0.951 -1.2612 -0.5842 -0.0807
  597SOL     OW 1789   0.182   2.434   2.640 -0.0341  0.1645  0.0364
  597SOL    HW1 1790   0.272   2.426   2.693  2.1029 -0.5071  0.3462
  597SOL    HW2 1791   0.141   2.530   2.653  1.4031  0.6343  0.7777
  598SOL     OW 1792   2.812   2.283   1.937 -0.3352  0.3740  0.4018
  598SOL    HW1 1793   2.881   2.347   1.981  2.3604  1.0141  0.7424
  598SOL    HW2 1794   2.726   2.273   1.991 -0.4919 -0.2347 -0.7507
  599SOL     OW 1795   0.962   0.404   3.099  0.0893 -0.5899 -0.0329
  599SOL    HW1 1796   0.886   0.463   0.000  2.9806 -2.7228 -0.2801
  599SOL    HW2 1797   0.936   0.348   3.016 -0.3505 -0.0791 -1.1865
  600SOL     OW 1798   0.767   2.604   0.173  0.1660 -0.1240 -0.1692
  600SOL    HW1 1799   0.800   2.689   0.220  2.5406  4.1318 -3.3498
  600SOL    HW2 1800   0.701   2.564   0.234  1.0402  0.8056 -0.4677
  601SOL     OW 1801   0.415   0.819   1.332 -1.2006  0.5740  0.2231
  601SOL    HW1 1802   0.506   0.782   1.304  0.9542  0.0475 -2.4792
  601SOL    HW2 1803   0.340   0.750   1.321 -0.7543 -3.3270 -0.3685
  602SOL     OW 1804   0.605   2.795   1.050 -0.8316 -0.0588  0.2220
  602SOL    HW1 1805   0.664   2.725   1.017  1.3814  1.3709  0.4853
  602SOL    HW2 1806   0.556   2.770   1.129 -1.2186 -0.6620 -0.4285
  603SOL     OW 1807   0.805   0.204   2.248 -0.2592  0.4718  0.8205
  603SOL    HW1 1808   0.749   0.169   2.323  0.8633  0.3494  0.2588
  603SOL    HW2 1809   0.750   0.261   2.188 -1.7107 -1.2230  1.3865
  604SOL     OW 1810   0.861   2.786   1.653 -0.1903 -0.2226 -0.0746
  604SOL    HW1 1811   0.871   2.835   1.567 -0.9020  0.0497 -0.7866
  604SOL    HW2 1812   0.771   2.729   1.641 -3.5274 -1.1414  0.4802
  605SOL     OW 1813   1.811   0.756   1.851 -0.1267 -0.6761 -0.3813
  605SOL    HW1 1814   1.886   0.825   1.832 -0.2193  2.5028 -0.8612
  605SOL    HW2 1815   1.788   0.740   1.946 -1.9232  2.3772 -2.9756
  606SOL     OW 1816   2.427   2.743   2.839 -0.3356  0.2034 -0.2549
  606SOL    HW1 1817   2.384   2.703   2.921  0.1792  0.4356 -0.4377
  606SOL    HW2 1818   2.449   2.840   2.852 -2.7128  0.8365 -2.2057
  607SOL     OW 1819   0.744   0.780   1.308 -0.1014  0.2643 -0.3741
  607SOL    HW1 1820   0.703   0.851   1.247 -1.0244  1.4094 -2.2033
  607SOL    HW2 1821   0.792   0.823   1.384 -0.0299 -0.2809 -2.7923
  608SOL     OW 1822   0.332   1.945   2.800 -0.0759 -0.2564  0.3151
  608SOL    HW1 1823   0.237   1.978   2.814 -0.9236 -0.0723 -0.1575
  608SOL    HW2 1824   0.335   1.845   2.770 -3.4113 -1.3918  2.1618
  609SOL     OW 1825   1.515   1.155   0.108  0.4250 -0.1849 -0.2648
  609SOL    HW1 1826   1.472   1.131   0.198  2.7314 -0.1063  2.3128
  609SOL    HW2 1827   1.446   1.177   0.032  0.8161  1.3990 -1.8713
  610SOL     OW 1828   0.519   0.412   1.407 -0.0792 -0.1580  0.2461
  610SOL    HW1 1829   0.478   0.321   1.440 -0.4804  0.0567  2.9766
  610SOL    HW2 1830   0.484   0.439   1.319  0.5603 -2.7302  0.5266
  611SOL     OW 1831   1.526   0.817   0.949 -0.2627 -0.4840  0.5517
  611SOL    HW1 1832   1.455   0.796   0.877  2.1270 -1.6880 -1.7622
  611SOL    HW2 1833   1.510   0.909   0.991  1.0079 -0.0799 -0.3563
  612SOL     OW 1834   1.770   1.092   3.112  0.0495 -0.1921  0.2513
  612SOL    HW1 1835   1.683   1.132   0.031  0.0006 -0.8215 -0.7738
  612SOL    HW2 1836   1.801   1.019   0.058 -0.0270  0.4714  2.9695
  613SOL     OW 1837   2.427   0.432   0.414 -0.0566  0.5513  0.4032
  613SOL    HW1 1838   2.374   0.460   0.498  1.3419  3.3532  1.9767
  613SOL    HW2 1839   2.413   0.331   0.407  0.2182  0.3051 -0.8190
  614SOL     OW 1840   2.666   3.110   2.401 -0.2267  0.1229  0.2460
  614SOL    HW1 1841   2.736   3.064   2.342 -1.8034 -2.0420  1.0605
  614SOL    HW2 1842   2.705   0.080   2.447 -0.8542  1.1794 -0.0524
  615SOL     OW 1843   0.766   1.949   1.136 -0.0189  0.1628 -0.7261
  615SOL    HW1 1844   0.836   1.892   1.183 -0.8813  0.4900 -0.2809
  615SOL    HW2 1845   0.677   1.948   1.191 -1.5129 -2.7931 -0.7644
  616SOL     OW 1846   1.554   1.436   2.453 -0.3529  0.5267  0.0108
  616SOL    HW1 1847   1.631   1.412   2.388  0.8277 -0.5387 -0.1894
  616SOL    HW2 1848   1.536   1.353   2.516  0.8061 -2.4219 -1.9365
  617SOL     OW 1849   1.406   0.174   2.883 -0.2399 -0.1545  0.0660
  617SOL    HW1 1850   1.431   0.264   2.927  0.4746  1.7186 -1.7217
  617SOL    HW2 1851   1.378   0.118   2.961  1.3366  0.1436 -3.2688
  618SOL     OW 1852   1.100   2.304   2.629 -0.2936  0.1003 -0.0299
  618SOL    HW1 1853   1.138   2.252   2.710  0.9065 -1.3937  2.0432
  618SOL    HW2 1854   1.013   2.354   2.657 -0.5725  0.8917  2.5513
  619SOL     OW 1855   2.552   1.315   0.804  0.7284  0.4014 -0.3875
  619SOL    HW1 1856   2.633   1.347   0.757 -1.5229  0.0319  1.0639
  619SOL    HW2 1857   2.514   1.235   0.750 -1.3266  1.3052  0.8178
  620SOL     OW 1858   2.057   3.012   2.214  0.3494 -0.2451  0.3245
  620SOL    HW1 1859   2.074   3.028   2.314  0.4825 -1.5833  0.3150
  620SOL    HW2 1860   2.081   2.914   2.195 -1.0222  2.1239 -0.1835
  621SOL     OW 1861   2.802   1.364   0.635 -0.2630  0.2805 -0.0887
  621SOL    HW1 1862   2.819   1.269   0.664 -2.0063  2.2901 -1.2981
  621SOL    HW2 1863   2.885   1.398   0.584  2.5407  0.0376  1.9738
  622SOL     OW 1864   1.420   1.828   2.455 -0.7273  1.0244 -0.1789
  622SOL    HW1 1865   1.324   1.859   2.458  1.9583  1.1382  1.6434
  622SOL    HW2 1866   1.424   1.748   2.517  0.0344  0.3211 -0.6780
  623SOL     OW 1867   0.505   2.610   2.508  0.4075  0.2227 -0.1270
  623SOL    HW1 1868   0.439   2.551   2.459  0.9440  2.7896  0.8086
  623SOL    HW2 1869   0.584   2.555   2.546 -0.5631 -0.3103 -0.0963
  624SOL     OW 1870   0.765   2.634   3.031 -0.0135  0.3793  0.3140
  624SOL    HW1 1871   0.745   2.537   3.011  0.3365  3.2280  0.5352
  624SOL    HW2 1872   0.792   2.636   0.009 -0.2571  1.0617 -1.9679
  625SOL     OW 1873   0.197   2.363   2.064 -0.2740  0.0334  0.1533
  625SOL    HW1 1874   0.149   2.452   2.040  2.6582 -0.2599 -0.2390
  625SOL    HW2 1875   0.136   2.295   2.105 -0.3527  2.2016 -0.8543
  626SOL     OW 1876   0.140   0.080   3.093 -0.3394  0.1628 -0.7076
  626SOL    HW1 1877   0.062   0.145   3.102 -0.7715 -0.8169  1.3776
  626SOL    HW2 1878   0.178   0.081   2.999 -0.5620 -3.3490  0.0694
  627SOL     OW 1879   2.188   1.609   3.099 -0.3344 -0.3533  0.1571
  627SOL    HW1 1880   2.277   1.651   0.010 -0.4978 -0.5213  1.0555
  627SOL    HW2 1881   2.130   1.663   3.036  0.1007 -1.0366 -0.2135
  628SOL     OW 1882   1.513   1.771   0.107  0.2266  0.5469 -0.7240
  628SOL    HW1 1883   1.550   1.677   0.110 -0.7373  1.2138  0.9801
  628SOL    HW2 1884   1.486   1.800   0.202 -1.1919 -3.1886  0.9200
  629SOL     OW 1885   3.090   0.312   1.771 -0.6360  0.0702  0.3121
  629SOL    HW1 1886   3.079   0.392   1.838  1.6137  0.8504  0.6887
  629SOL    HW2 1887   0.061   0.313   1.726 -0.5730 -2.0553 -0.1296
  630SOL     OW 1888   2.268   1.130   1.705 -0.2632  0.1806 -0.6088
  630SOL    HW1 1889   2.252   1.115   1.606 -0.2830 -0.8964  1.7784
  630SOL    HW2 1890   2.309   1.047   1.745 -3.4634  1.5222 -1.2058
  631SOL     OW 1891   2.005   0.155   0.779  0.2965  0.2383  0.1704
  631SOL    HW1 1892   1.983   0.057   0.769 -0.6352  1.5238  0.0564
  631SOL    HW2 1893   1.938   0.199   0.845 -0.2268  0.7332  4.7461
  632SOL     OW 1894   2.790   0.899   1.996 -0.6506 -0.5610 -0.3700
  632SOL    HW1 1895   2.759   0.970   1.926 -1.6350  0.5344 -2.2381
  632SOL    HW2 1896   2.714   0.871   2.060 -1.7005 -1.5605 -0.2214
  633SOL     OW 1897   0.852   0.410   2.669 -0.7973  0.3468  0.1256
  633SOL    HW1 1898   0.884   0.382   2.760  1.7926  2.6833 -0.7216
  633SOL    HW2 1899   0.917   0.389   2.591 -0.2346  0.8396 -1.1714
  634SOL     OW 1900   0.526   2.729   2.950  0.4353 -0.5992 -0.0794
  634SOL    HW1 1901   0.620   2.691   2.977 -0.0359  1.8510 -4.5056
  634SOL    HW2 1902   0.493   2.788   3.026 -0.7937 -1.8213  2.1297
  635SOL     OW 1903   0.196   1.299   1.136 -0.0746 -0.0061 -0.7397
  635SOL    HW1 1904   0.196   1.367   1.064 -4.5753 -2.1101  1.5430
  635SOL    HW2 1905   0.230   1.214   1.092 -0.8021  0.6850  2.6366
  636SOL     OW 1906   0.141   1.540   0.040  0.0331  0.2245 -0.0787
  636SOL    HW1 1907   0.149   1.442   0.015  2.5555 -0.2993 -1.9126
  636SOL    HW2 1908   0.228   1.594   0.027  2.0893 -0.2584 -0.7704
  637SOL     OW 1909   0.247   2.598   0.229 -0.3826 -0.1904  0.0594
  637SOL    HW1 1910   0.243   2.662   0.152 -2.3717 -2.3342  0.7144
  637SOL    HW2 1911   0.183   2.523   0.211  0.4228  0.6827 -1.6537
  638SOL     OW 1912   2.775   2.487   0.624 -0.1331 -0.0236 -0.0441
  638SOL    HW1 1913   2.816   2.488   0.528 -0.3845  0.5099  0.7503
  638SOL    HW2 1914   2.853   2.494   0.691  0.7271  0.3225  0.8953
  639SOL     OW 1915   1.128   1.033   0.223  0.2253 -0.4097 -0.1471
  639SOL    HW1 1916   1.080   1.105   0.177  0.2721  1.6507  3.4098
  639SOL    HW2 1917   1.123   0.942   0.171 -1.8214 -2.2233 -0.5282
  640SOL     OW 1918   1.932   2.465   1.796 -0.6304 -0.0336  0.2895
  640SOL    HW1 1919   1.869   2.389   1.779 -0.5232  0.3024 -0.5275
  640SOL    HW2 1920   1.983   2.479   1.707 -0.9204 -1.6457 -0.4501
  641SOL     OW 1921   2.979   3.058   0.550  0.3245 -0.3311  0.3482
  641SOL    HW1 1922   2.916   2.990   0.514 -0.0745 -0.8664 -0.7112
  641SOL    HW2 1923   2.934   0.029   0.579  2.2283  0.2424 -1.5794
  642SOL     OW 1924   1.216   0.935   1.859 -0.5351  0.2653  0.1508
  642SOL    HW1 1925   1.317   0.914   1.886  2.7120  0.1258 -0.7171
  642SOL    HW2 1926   1.212   0.933   1.758  0.1656 -1.7140  1.7955
  643SOL     OW 1927   0.735   2.074   2.632  1.1547  0.0371  0.0558
  643SOL    HW1 1928   0.778   2.153   2.583 -0.5574 -1.1211  0.3046
  643SOL    HW2 1929   0.635   2.092   2.660 -0.5897 -2.8135  0.5046
  644SOL     OW 1930   0.924   2.520   2.722 -0.3076  0.5151  0.3201
  644SOL    HW1 1931   0.980   2.493   2.806  0.8369 -1.6376  1.4484
  644SOL    HW2 1932   0.937   2.612   2.690 -1.2587 -1.0859  0.2320
  645SOL     OW 1933   1.618   1.451   1.708 -0.1604  0.4826  0.4552
  645SOL    HW1 1934   1.668   1.365   1.739 -0.9899 -2.1952 -1.7517
  645SOL    HW2 1935   1.534   1.435   1.657  0.5667 -2.4629  1.5446
  646SOL     OW 1936   0.865   2.926   2.993  0.3426 -0.1292 -0.5171
  646SOL    HW1 1937   0.824   2.835   3.023 -0.0478 -1.3339 -1.3602
  646SOL    HW2 1938   0.812   2.956   2.910 -0.6147  2.5899 -1.3743
  647SOL     OW 1939   0.839   3.043   0.466  0.1994  0.2787 -0.6226
  647SOL    HW1 1940   0.778   3.078   0.537 -0.2749 -1.4390  0.3360
  647SOL    HW2 1941   0.925   3.013   0.506 -1.5777  2.8333 -0.9873
  648SOL     OW 1942   2.611   2.920   1.374  0.3801  0.2636 -0.1252
  648SOL    HW1 1943   2.639   2.916   1.274 -1.1489 -3.3932 -1.6960
  648SOL    HW2 1944   2.638   2.835   1.420  1.4444 -1.7529  0.7663
  649SOL     OW 1945   0.661   2.380   3.021 -0.0806 -0.1936  0.2680
  649SOL    HW1 1946   0.667   2.292   2.967  0.2113  1.9082  0.5558
  649SOL    HW2 1947   0.584   2.371   3.090  3.4675 -0.5334  1.5170
  650SOL     OW 1948   2.540   1.965   2.141 -0.7360 -0.2252  0.3915
  650SOL    HW1 1949   2.509   1.953   2.239 -0.0022 -2.4561  4.1362
  650SOL    HW2 1950   2.573   2.061   2.130 -0.6218  3.0567 -2.3823
  651SOL     OW 1951   3.048   2.597   2.322 -0.6091  0.0579 -0.0254
  651SOL    HW1 1952   0.033   2.603   2.316 -1.2477  2.7279 -3.5381
  651SOL    HW2 1953   3.024   2.654   2.406 -0.7603  1.3534 -1.7705
  652SOL     OW 1954   2.844   1.902   0.541 -0.0725  0.1613 -0.6872
  652SOL    HW1 1955   2.854   1.877   0.641 -0.7888 -0.2905  1.1200
  652SOL    HW2 1956   2.746   1.924   0.523  1.9494  1.7476 -0.7856
  653SOL     OW 1957   2.344   1.068   0.988  0.2849 -0.0309 -0.4039
  653SOL    HW1 1958   2.419   1.008   1.020  0.9339 -0.2235 -0.3752
  653SOL    HW2 1959   2.284   1.013   0.927  1.2338 -2.1151  0.0647
  654SOL     OW 1960   0.924   0.236   2.905 -0.1021 -0.1311 -0.5544
  654SOL    HW1 1961   1.004   0.181   2.873 -0.1728  0.1575 -1.3591
  654SOL    HW2 1962   0.836   0.179   2.910  0.9793 -0.6094 -0.1482
  655SOL     OW 1963   0.992   0.322   1.396 -0.1454 -0.3254 -0.0460
  655SOL    HW1 1964   0.949   0.408   1.357 -0.3483  4.2444 -1.1975
  655SOL    HW2 1965   1.070   0.350   1.460  1.7034  1.1668  1.2454
  656SOL     OW 1966   0.207   2.757   2.072 -0.6011 -0.8507  0.1423
  656SOL    HW1 1967   0.291   2.789   2.021  1.6195  3.2322 -1.2675
  656SOL    HW2 1968   0.150   2.836   2.108 -2.9767  3.3363 -1.9803
  657SOL     OW 1969   2.325   0.541   0.181  0.4758 -0.3847 -0.1847
  657SOL    HW1 1970   2.348   0.534   0.280 -0.7934 -0.9934 -0.1159
  657SOL    HW2 1971   2.396   0.507   0.114  1.0752  0.4905 -0.7850
  658SOL     OW 1972   2.035   1.801   0.999 -0.0634  0.1365 -0.3988
  658SOL    HW1 1973   2.060   1.881   1.066  0.8568  2.6030  1.0276
  658SOL    HW2 1974   2.070   1.713   1.029  1.6847  1.5519  0.8621
  659SOL     OW 1975   2.735   2.174   2.868  0.4483 -0.0656 -0.4628
  659SOL    HW1 1976   2.664   2.250   2.860  1.7008  1.6425 -1.5992
  659SOL    HW2 1977   2.830   2.212   2.874 -0.5249 -0.4171 -0.6835
  660SOL     OW 1978   1.348   0.051   3.108 -0.2462  0.6415  0.5250
  660SOL    HW1 1979   1.281   0.073   0.067 -1.2990  1.7023 -0.5119
  660SOL    HW2 1980   1.444   0.067   0.026  0.0125  1.5311 -0.9500
  661SOL     OW 1981   2.207   0.012   0.169  0.0404  0.1155  0.1280
  661SOL    HW1 1982   2.119   3.077   0.149 -1.4276 -1.5624 -1.0894
  661SOL    HW2 1983   2.272   0.020   0.091  0.1682  2.4316 -0.5703
  662SOL     OW 1984   0.657   0.126   0.823 -0.1774  1.1958  0.6002
  662SOL    HW1 1985   0.593   0.189   0.772  1.1312 -0.4612  0.4677
  662SOL    HW2 1986   0.620   0.028   0.827 -0.2293 -1.9556 -1.6379
  663SOL     OW 1987   1.357   0.389   2.320  0.5756  0.2913 -0.1245
  663SOL    HW1 1988   1.310   0.320   2.249  0.1745  1.0591 -0.1924
  663SOL    HW2 1989   1.284   0.457   2.345  0.8440  1.1118  0.2063
  664SOL     OW 1990   0.754   2.923   1.431  0.1675  0.2295  0.2953
  664SOL    HW1 1991   0.669   2.868   1.436  2.7899  2.3711  1.0243
  664SOL    HW2 1992   0.751   3.014   1.475  2.2090 -0.6785  0.4317
  665SOL     OW 1993   1.021   2.341   1.892  0.4642 -0.4079 -0.2133
  665SOL    HW1 1994   1.014   2.416   1.822 -1.0790  1.0691 -2.6388
  665SOL    HW2 1995   1.037   2.380   1.987 -0.6267 -0.1713 -2.4488
  666SOL     OW 1996   0.323   2.977   2.698 -0.0718 -0.0115 -0.3854
  666SOL    HW1 1997   0.413   2.929   2.686 -1.2380  0.0175  2.6174
  666SOL    HW2 1998   0.292   3.011   2.608 -0.8998  1.3243 -0.7187
  667SOL     OW 1999   1.770   1.825   1.411  0.5384  0.6286  0.8130
  667SOL    HW1 2000   1.766   1.723   1.413  0.4410 -0.5289 -0.8023
  667SOL    HW2 2001   1.845   1.861   1.473  3.8205  0.3994  3.0537
  668SOL     OW 2002   1.542   0.519   1.666  0.1134 -0.3560  0.2082
  668SOL    HW1 2003   1.636   0.512   1.697 -1.3863 -0.6648 -0.1655
  668SOL    HW2 2004   1.514   0.432   1.628 -0.8652  0.8097  0.9267
  669SOL     OW 2005   2.503   2.558   1.568 -0.7552  0.0819 -0.1684
  669SOL    HW1 2006   2.550   2.479   1.613  1.9607  0.2267  1.6646
  669SOL    HW2 2007   2.433   2.519   1.504  1.9204 -2.9038  0.9402
  670SOL     OW 2008   1.458   2.283   2.686 -1.2399  0.0873 -0.3734
  670SOL    HW1 2009   1.469   2.178   2.696  0.1518 -2.6640  2.6244
  670SOL    HW2 2010   1.519   2.327   2.752 -0.1988 -1.8130 -2.4415
  671SOL     OW 2011   1.132   1.115   0.483 -0.6671 -0.4090 -0.2781
  671SOL    HW1 2012   1.217   1.117   0.536  1.4213 -0.4756  1.1360
  671SOL    HW2 2013   1.144   1.087   0.384 -0.4797  1.1525 -1.2016
  672SOL     OW 2014   3.072   1.067   2.463 -0.2191  0.0144 -0.3451
  672SOL    HW1 2015   2.998   1.126   2.498  1.6364 -2.7554 -1.6441
  672SOL    HW2 2016   3.117   0.999   2.529  1.6181 -0.9559  2.5401
  673SOL     OW 2017   2.697   2.005   1.445  0.2302 -0.1268 -0.0488
  673SOL    HW1 2018   2.775   2.012   1.506 -1.9252  1.2940 -4.5526
  673SOL    HW2 2019   2.615   2.036   1.493  0.2045 -0.7579 -1.7714
  674SOL     OW 2020   0.646   2.534   2.132 -0.5552 -0.0892 -0.0850
  674SOL    HW1 2021   0.647   2.532   2.033 -1.3621  1.9663  1.6138
  674SOL    HW2 2022   0.670   2.622   2.170  0.5364 -2.5183  0.1187
  675SOL     OW 2023   0.912   0.885   1.497  0.2338  0.0052  1.1098
  675SOL    HW1 2024   1.008   0.921   1.506  1.1825  0.1691 -0.3817
  675SOL    HW2 2025   0.848   0.931   1.563  0.6493 -1.1301 -0.0204
  676SOL     OW 2026   2.443   0.369   1.037 -0.1412  0.0320  0.2969
  676SOL    HW1 2027   2.374   0.311   1.085  0.6422 -1.7172  0.6063
  676SOL    HW2 2028   2.453   0.457   1.086 -0.9725 -1.6706 -1.6368
  677SOL     OW 2029   2.332   1.189   2.864  0.0868 -0.4550 -0.2027
  677SOL    HW1 2030   2.284   1.201   2.952  2.5846  0.4188  0.2223
  677SOL    HW2 2031   2.291   1.251   2.799  0.8027 -0.3019  0.8456
  678SOL     OW 2032   2.979   0.993   1.058  0.2511  0.8196 -0.5751
  678SOL    HW1 2033   2.938   0.949   1.141  1.2394  0.1571  0.1888
  678SOL    HW2 2034   2.944   1.088   1.034 -0.9667  1.9205  0.3320
  679SOL     OW 2035   2.541   0.195   0.078  0.5526 -0.5544  0.5760
  679SOL    HW1 2036   2.616   0.171   0.145  0.5250 -0.1254  1.6494
  679SOL    HW2 2037   2.522   0.298   0.082  1.6296  4.8477 -0.5441
  680SOL     OW 2038   0.162   1.969   1.931 -0.2961 -0.3708  0.0079
  680SOL    HW1 2039   0.187   2.013   2.018  0.0081  0.4403 -2.4437
  680SOL    HW2 2040   0.196   1.873   1.921  0.3265 -0.5266 -0.4983
  681SOL     OW 2041   1.998   2.114   1.383 -0.7412  0.0720  0.2878
  681SOL    HW1 2042   1.970   2.047   1.457  0.1103 -1.6925 -1.5155
  681SOL    HW2 2043   1.919   2.175   1.361  0.1507 -0.7861 -1.2198
  682SOL     OW 2044   0.389   1.681   3.116  0.1494 -0.5700  0.2009
  682SOL    HW1 2045   0.420   1.770   3.082 -0.7923  0.2845 -0.4895
  682SOL    HW2 2046   0.419   1.605   3.057 -0.8804 -0.1696  2.4053
  683SOL     OW 2047   0.119   2.226   1.332 -0.1425  0.0402 -0.1474
  683SOL    HW1 2048   0.205   2.282   1.321  0.6340  1.5803 -1.8737
  683SOL    HW2 2049   0.044   2.265   1.280 -1.1771 -1.6288 -0.1572
  684SOL     OW 2050   2.961   1.294   2.035 -0.6786  0.3241 -0.1314
  684SOL    HW1 2051   2.902   1.343   2.100  0.4635 -1.0442 -1.9229
  684SOL    HW2 2052   2.970   1.195   2.053 -0.9662  0.1056 -2.9131
  685SOL     OW 2053   1.363   1.004   0.604  0.1155  0.0603 -0.3921
  685SOL    HW1 2054   1.419   1.053   0.674 -0.2457  2.2929  0.3595
  685SOL    HW2 2055   1.320   0.921   0.649  2.5516  1.4439 -0.9642
  686SOL     OW 2056   0.498   0.313   0.673  0.3653  0.3976 -0.4472
  686SOL    HW1 2057   0.582   0.370   0.659  0.9694 -0.3192 -1.6840
  686SOL    HW2 2058   0.484   0.248   0.594  1.7526  2.0747 -0.5476
  687SOL     OW 2059   0.921   2.219   3.051 -0.2198 -0.0402  0.0238
  687SOL    HW1 2060   0.981   2.144   3.079  0.1722  3.1188 -0.6445
  687SOL    HW2 2061   0.919   2.288   0.003  0.1847  0.5318 -3.2760
  688SOL     OW 2062   1.732   1.124   1.485  0.0652  0.4816  0.2143
  688SOL    HW1 2063   1.668   1.133   1.406 -2.3564 -0.2700  0.8599
  688SOL    HW2 2064   1.744   1.023   1.509  0.5901  1.5447  1.1574
  689SOL     OW 2065   1.863   0.286   0.983 -0.1642 -0.3520  0.1031
  689SOL    HW1 2066   1.946   0.341   0.990 -1.8426 -3.7067  1.2781
  689SOL    HW2 2067   1.780   0.329   0.939 -0.4572  0.1532  0.4912
  690SOL     OW 2068   0.084   1.288   0.721 -0.0075 -0.2531 -0.1072
  690SOL    HW1 2069   3.116   1.256   0.761 -0.7069  1.4017  0.4386
  690SOL    HW2 2070   0.069   1.327   0.630 -2.1307 -0.5576  0.6248
  691SOL     OW 2071   0.400   2.378   1.385 -0.2117 -0.1817 -0.0192
  691SOL    HW1 2072   0.419   2.384   1.281 -0.2899  1.3023 -2.4224
  691SOL    HW2 2073   0.325   2.444   1.410  0.6471 -0.3659  1.6169
  692SOL     OW 2074   1.811   0.240   1.359  0.1222 -0.2148 -0.1861
  692SOL    HW1 2075   1.847   0.237   1.458  0.2379 -1.5948  0.7291
  692SOL    HW2 2076   1.853   0.169   1.295  1.8860  2.0619 -3.0328
  693SOL     OW 2077   0.594   1.730   2.263 -0.4512  0.5387 -0.0987
  693SOL    HW1 2078   0.558   1.814   2.217  1.5414  1.8429 -0.8085
  693SOL    HW2 2079   0.638   1.745   2.354 -2.1758  0.7445  2.1697
  694SOL     OW 2080   1.948   1.267   1.110 -0.2080 -0.0410 -0.4350
  694SOL    HW1 2081   1.909   1.350   1.064 -0.1212 -2.5883 -3.1934
  694SOL    HW2 2082   2.050   1.271   1.102  0.7544  0.5225 -1.7954
  695SOL     OW 2083   1.302   0.785   0.753  0.3127 -0.0864 -0.0567
  695SOL    HW1 2084   1.254   0.709   0.702 -1.6980 -2.9319 -0.9614
  695SOL    HW2 2085   1.242   0.817   0.826  3.2609 -1.8729 -1.2254
  696SOL     OW 2086   0.529   0.150   0.460  0.0254  0.1627  0.1649
  696SOL    HW1 2087   0.472   0.072   0.420 -3.2582 -3.4440  0.9793
  696SOL    HW2 2088   0.617   0.155   0.408  1.6676  3.5016 -0.6995
  697SOL     OW 2089   2.095   0.464   0.959  0.5601  0.5726  0.2989
  697SOL    HW1 2090   2.113   0.426   1.052  0.4433 -0.7299  0.5726
  697SOL    HW2 2091   2.154   0.427   0.884 -0.3179  1.3373  0.3561
  698SOL     OW 2092   1.566   1.168   2.169  0.3629 -0.0624  0.1688
  698SOL    HW1 2093   1.466   1.150   2.185  2.7273  0.5683  0.2622
  698SOL    HW2 2094   1.600   1.240   2.232 -0.5373 -1.5395  0.8334
  699SOL     OW 2095   2.661   0.556   1.954  0.2408 -0.5896 -0.0327
  699SOL    HW1 2096   2.656   0.586   2.054  1.3940 -0.7897  2.5107
  699SOL    HW2 2097   2.633   0.457   1.939  2.7987  0.7750 -0.1512
  700SOL     OW 2098   1.707   2.299   0.620 -0.1411  0.0807  0.8375
  700SOL    HW1 2099   1.744   2.339   0.704 -3.1893 -1.3777 -0.4918
  700SOL    HW2 2100   1.656   2.372   0.566  0.3487 -0.1566  0.1646
  701SOL     OW 2101   2.671   1.975   2.409 -0.3180 -0.5038 -0.1228
  701SOL    HW1 2102   2.655   1.888   2.359  1.9232 -1.2397 -1.2999
  701SOL    HW2 2103   2.693   1.953   2.507  0.8892  0.3270  1.7471
  702SOL     OW 2104   0.665   2.914   0.646  0.2692  0.1877  0.2017
  702SOL    HW1 2105   0.600   2.914   0.726 -1.8960  0.5979 -0.7715
  702SOL    HW2 2106   0.719   2.827   0.658 -1.2809  0.7040 -1.0767
  703SOL     OW 2107   1.812   3.055   2.132  0.1499  0.2344  0.3737
  703SOL    HW1 2108   1.836   3.083   2.037  2.2824  1.4141 -0.6603
  703SOL    HW2 2109   1.893   3.021   2.178  3.0303  1.4682 -1.1762
  704SOL     OW 2110   2.747   2.240   0.240  0.1676 -0.3605 -0.0004
  704SOL    HW1 2111   2.761   2.213   0.341 -1.0155  0.1950  0.1921
  704SOL    HW2 2112   2.800   2.169   0.185 -0.8707  1.9016  0.3167
  705SOL     OW 2113   2.761   2.405   2.662 -0.1343 -0.4245 -0.1093
  705SOL    HW1 2114   2.858   2.425   2.682 -0.0066  0.9313  0.1265
  705SOL    HW2 2115   2.751   2.310   2.624 -2.1609  1.3992 -2.3436
  706SOL     OW 2116   2.631   0.051   0.448  0.1898 -0.3394  0.3386
  706SOL    HW1 2117   2.683   0.124   0.395  2.5336 -0.2785  0.6558
  706SOL    HW2 2118   2.695   3.091   0.480  1.7123 -1.0499  0.0620
  707SOL     OW 2119   1.143   0.521   2.447  0.6229  0.1647  0.3687
  707SOL    HW1 2120   1.089   0.437   2.439  2.4462  0.5115  1.9477
  707SOL    HW2 2121   1.203   0.514   2.530 -0.0157  3.3417 -1.4330
  708SOL     OW 2122   0.160   2.214   1.812 -0.0082 -0.1325  0.1731
  708SOL    HW1 2123   0.159   2.115   1.838  0.5447 -2.4596 -0.6194
  708SOL    HW2 2124   0.177   2.272   1.892  0.7592 -0.8876  0.9582
  709SOL     OW 2125   1.471   2.929   1.755  0.0284 -0.4928  0.6264
  709SOL    HW1 2126   1.507   3.003   1.814 -2.4225  1.6723  1.5143
  709SOL    HW2 2127   1.475   2.950   1.655 -2.5866 -0.7008  2.2593
  710SOL     OW 2128   1.402   2.605   2.693  0.0749 -0.3622  0.7871
  710SOL    HW1 2129   1.379   2.548   2.614  1.1966  0.0012  0.9290
  710SOL    HW2 2130   1.465   2.552   2.750 -2.1151 -1.7314 -0.2435
  711SOL     OW 2131   0.687   2.406   2.668  0.6139  0.2308 -0.6944
  711SOL    HW1 2132   0.740   2.355   2.593  0.6423  0.2383 -0.2172
  711SOL    HW2 2133   0.756   2.466   2.709 -1.4579 -0.5986 -1.0541
  712SOL     OW 2134   1.073   2.015   0.035  0.1571 -0.2313 -0.0089
  712SOL    HW1 2135   1.049   2.013   0.134  1.3299  0.8929  0.9080
  712SOL    HW2 2136   1.169   2.057   0.025 -0.7868  3.8137 -0.0736
  713SOL     OW 2137   2.160   1.288   1.916  0.2794  0.4750  0.6383
  713SOL    HW1 2138   2.198   1.232   1.841  4.5339  1.1278  2.6638
  713SOL    HW2 2139   2.061   1.302   1.918 -0.7324  2.2632 -0.0914
  714SOL     OW 2140   0.789   1.122   2.016 -0.6700 -0.5299 -0.3440
  714SOL    HW1 2141   0.739   1.089   2.100  1.1413 -1.3755  2.1259
  714SOL    HW2 2142   0.876   1.072   2.006  0.2613  0.2940 -0.4440
  715SOL     OW 2143   2.776   0.230   0.292 -0.5170 -0.2012  0.3232
  715SOL    HW1 2144   2.870   0.197   0.284  0.8079  0.6472  0.5804
  715SOL    HW2 2145   2.784   0.332   0.298 -2.1408 -0.8547  0.6596
  716SOL     OW 2146   0.164   2.820   1.317  0.0381 -1.1372 -0.7076
  716SOL    HW1 2147   0.124   2.915   1.304 -0.8487  2.6037 -0.9677
  716SOL    HW2 2148   0.241   2.794   1.254  0.4424 -0.9168  0.4228
  717SOL     OW 2149   2.497   0.840   1.023 -0.2857 -0.2777 -0.1414
  717SOL    HW1 2150   2.409   0.794   0.994 -1.0504 -3.0164  1.0765
  717SOL    HW2 2151   2.544   0.782   1.094  1.1677 -1.2959 -0.9419
  718SOL     OW 2152   1.415   1.380   1.481 -0.6387 -0.3509 -0.1809
  718SOL    HW1 2153   1.336   1.448   1.477 -0.1507 -0.8607  0.9306
  718SOL    HW2 2154   1.477   1.386   1.399 -3.5185  0.8384 -1.0108
  719SOL     OW 2155   2.728   2.727   2.884 -0.1000 -0.0380  0.0378
  719SOL    HW1 2156   2.750   2.821   2.917  0.1996 -1.4249 -2.0649
  719SOL    HW2 2157   2.658   2.735   2.810 -2.0112 -2.8488 -0.8608
  720SOL     OW 2158   1.053   0.506   0.782  0.0367 -0.5906  0.0730
  720SOL    HW1 2159   1.016   0.437   0.718  0.5889 -1.7226  0.7629
  720SOL    HW2 2160   1.067   0.458   0.870 -2.0067 -2.1160 -1.3469
  721SOL     OW 2161   2.228   0.193   0.959 -0.2965 -0.1633 -0.2101
  721SOL    HW1 2162   2.157   0.142   0.907  0.8092 -1.2618  0.8603
  721SOL    HW2 2163   2.319   0.195   0.913  2.9021  0.8888  0.7513
  722SOL     OW 2164   0.888   2.152   2.062 -0.5918  0.5212 -0.2754
  722SOL    HW1 2165   0.818   2.205   2.115 -2.7648  1.5796 -1.0501
  722SOL    HW2 2166   0.936   2.206   1.992 -1.5411 -1.2990 -0.4229
  723SOL     OW 2167   1.232   3.057   1.505  0.5627 -0.1960 -0.2928
  723SOL    HW1 2168   1.332   3.031   1.482  1.1637 -0.1141 -0.1257
  723SOL    HW2 2169   1.227   3.093   1.599 -1.9071  0.0436  0.0097
  724SOL     OW 2170   1.492   1.929   1.418  0.0043 -0.2950 -0.2043
  724SOL    HW1 2171   1.456   1.938   1.513 -0.6341 -1.2638  0.2518
  724SOL    HW2 2172   1.591   1.896   1.424 -0.7764 -0.1643 -0.5042
  725SOL     OW 2173   1.412   2.551   1.240  0.2191 -0.2917 -0.3910
  725SOL    HW1 2174   1.409   2.450   1.218 -1.4591  1.9045 -3.7034
  725SOL    HW2 2175   1.428   2.603   1.157  0.3551 -4.3465  1.2725
  726SOL     OW 2176   1.708   0.349   0.063 -0.4867 -0.3539 -0.4869
  726SOL    HW1 2177   1.789   0.299   0.030 -1.2878  0.3131  0.1216
  726SOL    HW2 2178   1.729   0.411   0.141 -2.1322  0.5428  1.4907
  727SOL     OW 2179   1.666   1.666   0.464 -0.1384  0.7755 -0.4607
  727SOL    HW1 2180   1.604   1.716   0.401 -0.7169 -0.3078 -1.1760
  727SOL    HW2 2181   1.755   1.657   0.424  1.6467  1.5716  1.7923
  728SOL     OW 2182   1.913   2.658   1.992  0.2660 -0.4102  0.1700
  728SOL    HW1 2183   1.911   2.576   1.933 -2.3175 -1.7477 -0.2629
  728SOL    HW2 2184   1.820   2.696   2.012  1.7742  0.1181  0.0583
  729SOL     OW 2185   2.053   2.514   1.562  0.3737  0.0264  0.2086
  729SOL    HW1 2186   1.993   2.541   1.481  1.5817  0.9397 -0.4857
  729SOL    HW2 2187   2.143   2.478   1.524 -1.1190  0.7338 -1.1440
  730SOL     OW 2188   1.548   0.968   2.687 -0.1476  0.0492 -0.1334
  730SOL    HW1 2189   1.626   0.943   2.750  1.7010 -1.2261 -0.4123
  730SOL    HW2 2190   1.515   0.883   2.645  0.8596 -2.8086 -1.7527
  731SOL     OW 2191   0.724   0.187   1.288 -0.4631 -0.1641 -0.5452
  731SOL    HW1 2192   0.809   0.239   1.306 -0.3285  0.5662  1.3901
  731SOL    HW2 2193   0.702   0.122   1.364  2.7404  1.0503  1.9264
  732SOL     OW 2194   1.161   2.961   1.047  0.1501 -0.4434  0.2088
  732SOL    HW1 2195   1.164   2.922   1.140  0.3311 -3.6205 -2.0812
  732SOL    HW2 2196   1.090   3.033   1.041  0.2433 -2.3427  1.1176
  733SOL     OW 2197   1.238   1.224   1.250  0.2789 -0.1434 -0.3670
  733SOL    HW1 2198   1.250   1.305   1.190  1.3181  1.1036 -3.1260
  733SOL    HW2 2199   1.142   1.199   1.259  2.8750 -1.2458  0.1488
  734SOL     OW 2200   2.508   2.028   0.232  0.0625  0.3133 -0.3584
  734SOL    HW1 2201   2.448   2.077   0.169 -1.5557  0.0515  2.4015
  734SOL    HW2 2202   2.589   2.082   0.259 -1.8884  1.3503  1.0927
  735SOL     OW 2203   1.007   0.262   0.658 -0.5139 -0.0682 -0.4414
  735SOL    HW1 2204   1.024   0.171   0.698  0.2312  0.8039  1.1953
  735SOL    HW2 2205   1.086   0.270   0.596  1.4191 -1.7284  0.5442
  736SOL     OW 2206   1.940   2.330   2.726 -0.4174  0.0646 -0.5433
  736SOL    HW1 2207   2.008   2.374   2.790 -0.4670  1.1371 -1.2754
  736SOL    HW2 2208   1.906   2.241   2.769  1.9214 -1.5691  0.7261
  737SOL     OW 2209   0.870   2.600   1.002  0.9209  0.3203 -0.1437
  737SOL    HW1 2210   0.911   2.653   0.926 -1.9162  0.3256  1.7755
  737SOL    HW2 2211   0.914   2.633   1.086  0.6784  2.7163 -0.7312
  738SOL     OW 2212   1.746   0.174   2.227 -0.6074  0.0890  0.0765
  738SOL    HW1 2213   1.712   0.166   2.321 -0.1535 -2.3571 -0.9390
  738SOL    HW2 2214   1.747   0.080   2.186 -1.9948  1.8925  0.9678
  739SOL     OW 2215   1.063   2.424   2.157  0.0160  0.7041  0.3090
  739SOL    HW1 2216   1.165   2.409   2.145  1.5831 -1.2189  0.4163
  739SOL    HW2 2217   1.035   2.360   2.232 -1.0650  0.0814 -1.8870
  740SOL     OW 2218   1.479   2.387   1.721 -0.3353 -0.0329 -0.0389
  740SOL    HW1 2219   1.498   2.465   1.789 -1.2406 -0.9392 -0.1368
  740SOL    HW2 2220   1.495   2.417   1.624  0.9468  0.0725  0.0017
  741SOL     OW 2221   2.603   1.229   3.056  0.1832 -0.4913 -0.3375
  741SOL    HW1 2222   2.651   1.318   3.076  2.2864  0.8722 -0.5011
  741SOL    HW2 2223   2.520   1.237   2.998 -0.4160  1.8711  1.9436
  742SOL     OW 2224   0.778   1.579   2.133  0.5600  0.5211  0.0714
  742SOL    HW1 2225   0.701   1.633   2.171  3.9901 -0.2598  0.3765
  742SOL    HW2 2226   0.804   1.491   2.183  1.8605 -1.3937 -0.5624
  743SOL     OW 2227   0.041   0.825   2.589 -0.0088 -0.6645 -0.3067
  743SOL    HW1 2228   0.139   0.802   2.605  0.9094 -0.2490 -0.7458
  743SOL    HW2 2229   3.113   0.739   2.572  2.1349  1.7954  0.6153
  744SOL     OW 2230   2.270   2.150   1.450  0.4309  0.0871 -0.3769
  744SOL    HW1 2231   2.169   2.160   1.455  0.8393 -2.7958  2.1047
  744SOL    HW2 2232   2.301   2.111   1.542  1.4789 -2.1231 -1.5789
  745SOL     OW 2233   2.420   1.688   1.300  0.1562  0.3067  0.0806
  745SOL    HW1 2234   2.344   1.693   1.364 -1.3086  1.0765 -0.2554
  745SOL    HW2 2235   2.500   1.671   1.358 -2.1832  2.4240 -4.9888
  746SOL     OW 2236   2.631   0.921   0.599 -0.3914  0.0073  0.8274
  746SOL    HW1 2237   2.548   0.877   0.559  0.6629 -0.5945  0.4093
  746SOL    HW2 2238   2.716   0.899   0.546  0.7027 -1.5166 -1.2098
  747SOL     OW 2239   1.913   2.127   0.525 -0.1324  0.1407  0.0557
  747SOL    HW1 2240   1.990   2.188   0.496  0.7712 -1.2163 -1.5275
  747SOL    HW2 2241   1.838   2.185   0.557 -0.0299 -2.5025 -0.9583
  748SOL     OW 2242   1.047   2.228   0.554 -0.1113 -0.4607  0.1332
  748SOL    HW1 2243   1.037   2.151   0.486  0.1542 -0.9906 -0.6335
  748SOL    HW2 2244   1.047   2.193   0.651 -0.4104  1.7864  1.3712
  749SOL     OW 2245   2.991   0.248   2.337 -0.4448 -0.2081 -0.3490
  749SOL    HW1 2246   3.051   0.330   2.317 -0.1653  0.3395 -2.3529
  749SOL    HW2 2247   3.048   0.172   2.381 -0.3615  0.7450  0.9801
  750SOL     OW 2248   1.556   0.139   1.384 -0.0076 -0.1210  0.4197
  750SOL    HW1 2249   1.649   0.162   1.351  0.2930  1.5957  2.7991
  750SOL    HW2 2250   1.485   0.142   1.317  1.8589  1.4145  4.3691
  751SOL     OW 2251   1.678   2.369   2.828  0.5040 -0.0933  0.0212
  751SOL    HW1 2252   1.719   2.373   2.920 -0.2142 -2.4415  1.1009
  751SOL    HW2 2253   1.755   2.394   2.763  0.4520  0.2999  1.1983
  752SOL     OW 2254   1.926   1.950   0.292 -0.3849 -0.1583 -0.3385
  752SOL    HW1 2255   1.922   2.013   0.371 -0.6088 -0.3671 -1.2312
  752SOL    HW2 2256   2.008   1.975   0.235 -2.2904 -0.4321 -1.3595
  753SOL     OW 2257   1.651   0.743   2.093 -0.1524  0.0951  0.2871
  753SOL    HW1 2258   1.674   0.815   2.167  3.5239  4.9178 -0.1558
  753SOL    HW2 2259   1.624   0.662   2.142  0.2019  2.8648 -4.2967
  754SOL     OW 2260   0.224   2.670   0.757 -0.4452  0.0810  0.3382
  754SOL    HW1 2261   0.187   2.582   0.713 -1.0832 -2.3964  0.0653
  754SOL    HW2 2262   0.174   2.751   0.731 -0.5715  0.3013 -1.0133
  755SOL     OW 2263   2.142   0.328   1.186 -0.4635  0.1066 -0.3145
  755SOL    HW1 2264   2.158   0.293   1.283  0.9977  2.0585  1.5047
  755SOL    HW2 2265   2.160   0.261   1.113  0.9489 -2.1444 -1.7398
  756SOL     OW 2266   1.203   1.382   2.582  0.0151 -0.7013  0.0475
  756SOL    HW1 2267   1.289   1.330   2.566  1.4445  1.0943 -0.3167
  756SOL    HW2 2268   1.208   1.474   2.534 -2.8425  2.8864  0.1022
  757SOL     OW 2269   2.943   2.867   1.319 -0.3648  0.0260  0.6905
  757SOL    HW1 2270   2.997   2.800   1.259 -0.2419 -1.8852 -2.6203
  757SOL    HW2 2271   2.848   2.874   1.288  0.4244  0.1136 -2.6510
  758SOL     OW 2272   0.684   0.047   1.525  0.4349 -0.4221  0.0931
  758SOL    HW1 2273   0.609   3.114   1.572 -1.6322  4.2204 -0.3257
  758SOL    HW2 2274   0.719   0.119   1.585  0.3196 -1.4096  0.9829
  759SOL     OW 2275   2.494   1.160   0.600 -0.3113  0.1182  0.6302
  759SOL    HW1 2276   2.495   1.189   0.503 -1.5358 -3.6473 -1.3921
  759SOL    HW2 2277   2.557   1.083   0.613  1.9784 -0.0005 -3.4841
  760SOL     OW 2278   1.995   0.527   1.315 -0.1340  0.5638  0.2239
  760SOL    HW1 2279   1.898   0.523   1.293  1.4263  0.7507  0.6629
  760SOL    HW2 2280   2.042   0.443   1.291  0.1569  0.8897  2.0815
  761SOL     OW 2281   1.965   3.024   0.172  0.3142  0.1006  0.3215
  761SOL    HW1 2282   1.901   3.043   0.253 -1.2495  1.5907  1.1271
  761SOL    HW2 2283   1.921   3.038   0.083  1.8380 -0.7827  4.1613
  762SOL     OW 2284   2.104   2.104   0.142 -0.1775  0.6041  0.4613
  762SOL    HW1 2285   2.184   2.159   0.177  2.0866  0.5388  0.4996
  762SOL    HW2 2286   2.092   2.105   0.040 -0.8907 -0.2073 -0.5562
  763SOL     OW 2287   0.644   0.955   1.144  0.4088  0.6518  0.0442
  763SOL    HW1 2288   0.689   0.947   1.056  0.2018  1.1592  2.5552
  763SOL    HW2 2289   0.566   1.019   1.144 -0.0953 -0.9751 -3.0518
  764SOL     OW 2290   2.611   2.552   3.053  0.0292  0.3077  0.2608
  764SOL    HW1 2291   2.659   2.621   2.997  1.5098 -0.0207  0.6591
  764SOL    HW2 2292   2.579   2.474   2.997  0.1551  2.3080  3.8202
  765SOL     OW 2293   0.939   0.681   2.373  0.4124 -0.7751  0.2902
  765SOL    HW1 2294   1.013   0.614   2.386  1.1000 -1.2153  1.6119
  765SOL    HW2 2295   0.932   0.708   2.278 -1.1095 -0.6177  1.9682
  766SOL     OW 2296   0.124   1.261   2.363  0.3594 -0.0898  0.0596
  766SOL    HW1 2297   0.058   1.204   2.412  3.6958 -1.0774  1.5725
  766SOL    HW2 2298   0.084   1.347   2.324 -0.6105  0.1720  3.0848
  767SOL     OW 2299   0.093   1.671   2.086 -0.5202  0.4039 -0.0431
  767SOL    HW1 2300   0.182   1.687   2.043  0.6143  0.8924 -1.0363
  767SOL    HW2 2301   0.061   1.763   2.120 -0.1306  1.6850  2.0094
  768SOL     OW 2302   1.002   1.013   2.883  0.0994 -0.0705 -0.0141
  768SOL    HW1 2303   0.915   1.016   2.942 -2.4963 -0.4638  3.6106
  768SOL    HW2 2304   1.025   1.097   2.830  0.2020 -1.2807 -1.6087
  769SOL     OW 2305   1.805   3.042   3.052 -0.6172 -0.1876 -0.6433
  769SOL    HW1 2306   1.739   2.961   3.047 -0.4975 -1.6619 -0.8741
  769SOL    HW2 2307   1.816   3.080   2.957  1.9125  0.6832 -1.8188
  770SOL     OW 2308   3.030   0.593   2.518 -0.3530  0.1297 -0.0140
  770SOL    HW1 2309   2.938   0.615   2.550  0.3722  1.1991  0.4923
  770SOL    HW2 2310   3.030   0.559   2.420 -0.4653  1.9653  0.1974
  771SOL     OW 2311   0.789   2.155   1.420 -0.5097  0.0569 -0.3541
  771SOL    HW1 2312   0.875   2.100   1.415  0.5298 -1.0194 -1.5128
  771SOL    HW2 2313   0.807   2.255   1.433  0.4162  1.5454  0.4286
  772SOL     OW 2314   0.633   0.597   2.823 -0.4266 -0.2132  0.1569
  772SOL    HW1 2315   0.694   0.623   2.743 -1.0382  0.6314 -1.0316
  772SOL    HW2 2316   0.585   0.686   2.844  1.1920  2.6961 -1.6918
  773SOL     OW 2317   2.461   1.337   1.718  0.4513  0.2396 -0.6776
  773SOL    HW1 2318   2.508   1.321   1.804  0.7665  2.2278  0.6784
  773SOL    HW2 2319   2.393   1.261   1.719 -2.0419  1.3222  0.9213
  774SOL     OW 2320   1.046   0.626   0.381 -0.0439  0.2414  0.3048
  774SOL    HW1 2321   1.066   0.601   0.287 -1.6115  2.8308  2.3402
  774SOL    HW2 2322   1.126   0.613   0.445  2.2326 -1.2659 -0.3697
  775SOL     OW 2323   2.104   2.442   2.910  0.2060  0.0723  0.0543
  775SOL    HW1 2324   2.113   2.538   2.874 -1.1338  4.3713  0.1678
  775SOL    HW2 2325   2.122   2.445   3.013  0.3195 -1.5385  2.2585
  776SOL     OW 2326   2.409   0.260   1.997 -0.2350 -0.4918  0.4105
  776SOL    HW1 2327   2.354   0.178   1.986 -1.6525  1.7501  1.2905
  776SOL    HW2 2328   2.472   0.252   2.080 -2.1302 -2.8538  2.8976
  777SOL     OW 2329   0.539   1.209   2.710  0.0336 -0.3711 -0.5496
  777SOL    HW1 2330   0.525   1.155   2.630  0.0011  2.0264  0.4087
  777SOL    HW2 2331   0.478   1.184   2.789  1.2375  2.8239  1.2253
  778SOL     OW 2332   0.789   0.145   0.297  0.2577 -0.1742  0.7007
  778SOL    HW1 2333   0.868   0.160   0.233 -0.0380  0.8184 -0.8270
  778SOL    HW2 2334   0.815   0.076   0.372 -1.6328 -0.3063  1.5881
  779SOL     OW 2335   0.122   1.206   2.896 -0.1040  0.4634 -0.7821
  779SOL    HW1 2336   0.025   1.185   2.924 -2.2891  0.2393 -0.0035
  779SOL    HW2 2337   0.166   1.135   2.838  2.5992  1.6269 -1.1622
  780SOL     OW 2338   2.030   0.712   2.543 -0.0526  0.6441  0.0240
  780SOL    HW1 2339   2.064   0.616   2.541 -0.6334  1.9415 -1.2580
  780SOL    HW2 2340   1.983   0.733   2.452 -1.7528  1.5840 -3.2821
  781SOL     OW 2341   2.281   1.522   1.997  0.0311 -0.2577 -0.4993
  781SOL    HW1 2342   2.228   1.435   1.977  1.2633 -1.3814 -0.0039
  781SOL    HW2 2343   2.267   1.592   1.925  1.4788  1.2097 -2.6878
  782SOL     OW 2344   1.162   1.896   2.418 -0.7589  0.1297 -0.1642
  782SOL    HW1 2345   1.097   1.920   2.341 -2.8674 -0.3891  0.2976
  782SOL    HW2 2346   1.125   1.926   2.508  0.1640 -0.2693 -2.5086
  783SOL     OW 2347   0.944   0.053   1.101  0.2545 -0.6430 -0.0461
  783SOL    HW1 2348   0.998   0.049   1.186 -1.2465 -1.4264 -1.0418
  783SOL    HW2 2349   0.848   0.023   1.117 -1.5332  0.4396 -2.8151
  784SOL     OW 2350   1.389   0.638   3.009 -0.3903  0.3887 -0.3147
  784SOL    HW1 2351   1.381   0.672   2.911 -0.2494 -1.5117 -0.1902
  784SOL    HW2 2352   1.430   0.706   3.069  0.1467 -0.9747  1.4258
  785SOL     OW 2353   1.512   0.395   3.001 -0.0036  0.6339  0.5055
  785SOL    HW1 2354   1.491   0.495   2.983  2.2475  0.0032  0.6321
  785SOL    HW2 2355   1.587   0.388   3.068  0.9210  2.4729  0.0876
  786SOL     OW 2356   0.023   1.324   0.442 -0.0336  0.4580  0.1871
  786SOL    HW1 2357   0.107   1.354   0.390  0.6582  0.0532 -1.1083
  786SOL    HW2 2358   3.079   1.399   0.460  0.8373 -0.1218 -1.7434
  787SOL     OW 2359   1.685   1.559   0.169  0.3678  0.3896  0.0374
  787SOL    HW1 2360   1.775   1.593   0.213  3.0893  1.0122  0.5019
  787SOL    HW2 2361   1.684   1.458   0.190 -0.7057  0.9579  2.0328
  788SOL     OW 2362   1.769   1.805   1.138 -0.4896  0.4162 -0.5527
  788SOL    HW1 2363   1.775   1.849   1.230 -0.8472  0.1050 -0.0119
  788SOL    HW2 2364   1.858   1.814   1.086 -0.1069  2.3541  0.4298
  789SOL     OW 2365   0.085   1.435   1.957 -0.1045  0.8936  0.0857
  789SOL    HW1 2366   0.086   1.522   2.009 -0.6021 -1.7908  0.9032
  789SOL    HW2 2367   0.004   1.377   1.978 -1.2235  0.5765 -0.2918
  790SOL     OW 2368   0.568   0.063   0.112  0.0931  0.0967 -0.1333
  790SOL    HW1 2369   0.544   3.081   0.112 -1.3140 -1.6115 -0.1538
  790SOL    HW2 2370   0.627   0.094   0.193  0.3429  2.5164 -0.7572
  791SOL     OW 2371   0.697   0.076   2.466 -0.4075  0.6921  0.0333
  791SOL    HW1 2372   0.663   0.162   2.511  1.6671 -0.3985  0.2595
  791SOL    HW2 2373   0.763   0.030   2.524 -1.1638 -1.3320 -3.0413
  792SOL     OW 2374   1.872   0.400   2.328  0.2657  0.0147  0.7803
  792SOL    HW1 2375   1.858   0.429   2.419  0.2504 -1.7400 -3.4161
  792SOL    HW2 2376   1.852   0.300   2.317  0.3110 -1.5079  3.2596
  793SOL     OW 2377   2.899   0.646   1.292  0.6772 -0.4264 -0.6230
  793SOL    HW1 2378   2.868   0.569   1.355 -2.5713 -0.9511  1.3134
  793SOL    HW2 2379   2.966   0.713   1.336  1.1680 -1.0641 -0.8061
  794SOL     OW 2380   0.313   0.562   1.941  0.2429  0.2904 -0.2546
  794SOL    HW1 2381   0.255   0.598   2.013  0.9567 -3.0893  0.9464
  794SOL    HW2 2382   0.402   0.615   1.941 -0.6497  0.7575 -1.0033
  795SOL     OW 2383   2.757   1.323   0.242 -0.6306 -0.2023 -0.1857
  795SOL    HW1 2384   2.731   1.381   0.162 -0.2598  1.4802  1.3057
  795SOL    HW2 2385   2.842   1.271   0.217 -1.6820 -1.0765 -0.7116
  796SOL     OW 2386   2.973   2.520   0.418  0.3489  0.2623 -0.2636
  796SOL    HW1 2387   3.049   2.589   0.441  1.1153  1.4615  0.3907
  796SOL    HW2 2388   2.971   2.501   0.321 -1.7117  1.4511  2.0023
  797SOL     OW 2389   1.989   2.682   2.404 -0.3410  0.2926  0.4545
  797SOL    HW1 2390   1.981   2.582   2.431  1.9215 -1.6408 -0.4598
  797SOL    HW2 2391   2.008   2.743   2.484 -3.5135 -1.0432  0.4906
  798SOL     OW 2392   0.183   1.020   0.766 -0.1617  0.1366  0.3725
  798SOL    HW1 2393   0.124   0.955   0.714  0.2042 -1.4957 -1.9406
  798SOL    HW2 2394   0.152   1.113   0.747 -1.9622 -0.8592  0.1332
  799SOL     OW 2395   3.004   0.627   2.874 -0.5315  0.5377  0.0585
  799SOL    HW1 2396   3.084   0.581   2.832 -0.5091  0.8544  1.9991
  799SOL    HW2 2397   3.032   0.675   2.957  0.8781  2.4011  1.3020
  800SOL     OW 2398   2.928   1.831   0.272 -0.2687  0.0932  0.7236
  800SOL    HW1 2399   3.015   1.777   0.285 -0.8857 -1.4526 -1.4337
  800SOL    HW2 2400   2.876   1.842   0.360 -0.2928 -0.5656  1.5540
  801SOL     OW 2401   1.584   1.442   1.280  0.3193 -0.7108  0.1406
  801SOL    HW1 2402   1.636   1.491   1.357  0.6443  0.4583  1.4228
  801SOL    HW2 2403   1.585   1.502   1.200 -1.2955 -0.8770  3.1637
  802SOL     OW 2404   1.015   1.889   1.792  0.0834  0.0650  0.2361
  802SOL    HW1 2405   1.096   1.870   1.851 -0.3505 -0.3389  0.0612
  802SOL    HW2 2406   1.030   1.968   1.729 -3.5962  0.5907 -0.7737
  803SOL     OW 2407   0.097   1.831   0.774  0.0847  0.3316 -0.5528
  803SOL    HW1 2408   0.163   1.772   0.722  1.5220 -2.1931 -1.1622
  803SOL    HW2 2409   0.110   1.931   0.754 -0.7253  1.7819  0.3104
  804SOL     OW 2410   1.060   2.440   1.463  0.0227 -0.4889 -0.6303
  804SOL    HW1 2411   1.063   2.365   1.396 -0.0437 -0.8176 -0.7930
  804SOL    HW2 2412   1.131   2.509   1.430  0.6169  0.4996 -1.4105
  805SOL     OW 2413   2.141   1.370   2.989 -0.0494  0.1348  0.3722
  805SOL    HW1 2414   2.162   1.456   3.040 -2.2007  0.2559 -0.1061
  805SOL    HW2 2415   2.143   1.390   2.887 -1.1116 -0.5767  0.4550
  806SOL     OW 2416   1.675   2.928   1.212 -0.2540  0.0099  1.2741
  806SOL    HW1 2417   1.726   3.014   1.201  0.1597 -1.8399  0.8233
  806SOL    HW2 2418   1.586   2.944   1.162 -2.2484  1.5285  1.2668
  807SOL     OW 2419   2.292   0.466   2.826 -0.4298  0.2214 -0.4317
  807SOL    HW1 2420   2.341   0.544   2.789  0.1823  0.3765 -0.1412
  807SOL    HW2 2421   2.360   0.391   2.827  1.4483 -0.8532 -0.7508
  808SOL     OW 2422   0.264   1.003   0.298  0.1255  0.0620 -0.1428
  808SOL    HW1 2423   0.328   0.941   0.249 -0.2853 -0.0032 -1.4206
  808SOL    HW2 2424   0.302   1.046   0.379 -0.7713 -1.4760  0.6039
  809SOL     OW 2425   2.699   1.077   2.331 -0.2207 -0.4572 -0.3125
  809SOL    HW1 2426   2.710   1.165   2.375 -0.0345 -2.6530  1.3353
  809SOL    HW2 2427   2.765   1.008   2.367 -2.9265  0.1489  0.8249
  810SOL     OW 2428   1.576   0.673   1.440  0.5197 -0.2537  0.4304
  810SOL    HW1 2429   1.579   0.626   1.530  1.4455  1.0292 -2.5273
  810SOL    HW2 2430   1.629   0.625   1.373 -1.2907 -0.3971  2.5175
  811SOL     OW 2431   2.044   2.860   1.574  0.6524  0.0929 -0.8007
  811SOL    HW1 2432   2.052   2.788   1.648 -0.7714 -0.8921 -0.3942
  811SOL    HW2 2433   2.115   2.934   1.580  0.5762 -0.9681  2.0492
  812SOL     OW 2434   1.609   0.089   0.045 -0.2062 -0.2433 -0.4862
  812SOL    HW1 2435   1.651   0.184   0.051  0.5674  3.4659  0.9919
  812SOL    HW2 2436   1.673   0.029   3.113 -1.0602 -0.3064  0.5551
  813SOL     OW 2437   1.955   1.085   1.835  0.4412 -0.2060  0.3066
  813SOL    HW1 2438   1.949   1.087   1.938 -1.5508 -1.6230 -0.0073
  813SOL    HW2 2439   2.012   1.009   1.799  1.3323  2.2679 -1.0228
  814SOL     OW 2440   1.516   1.174   1.895  0.6218  0.1612 -0.5590
  814SOL    HW1 2441   1.604   1.170   1.848 -2.7412  1.6649  2.1299
  814SOL    HW2 2442   1.541   1.170   1.998  0.1037 -1.5835  0.9515
  815SOL     OW 2443   0.605   0.714   0.377  0.2278  0.2555 -0.4582
  815SOL    HW1 2444   0.683   0.770   0.343  0.7827  0.8753 -1.3247
  815SOL    HW2 2445   0.630   0.614   0.377  0.2150  0.3949 -1.3494
  816SOL     OW 2446   2.298   1.662   2.630 -0.2670  0.1773 -0.4264
  816SOL    HW1 2447   2.200   1.648   2.656 -2.9463  1.4574  2.3644
  816SOL    HW2 2448   2.323   1.756   2.644 -0.3397 -1.7959  0.8371
  817SOL     OW 2449   0.449   2.589   0.589  0.1745  0.2484  0.1658
  817SOL    HW1 2450   0.433   2.489   0.600 -3.7512  1.2173 -0.4975
  817SOL    HW2 2451   0.391   2.641   0.655 -0.1335 -0.3989  1.1629
  818SOL     OW 2452   1.764   0.343   2.879 -0.0438  0.8497  0.4563
  818SOL    HW1 2453   1.851   0.334   2.931  0.2981  0.2173 -0.8470
  818SOL    HW2 2454   1.682   0.304   2.925 -1.4083  0.0619  0.2061
  819SOL     OW 2455   1.501   0.685   0.565  0.4697  0.0488  0.1603
  819SOL    HW1 2456   1.454   0.743   0.633 -2.2555 -0.9281  0.2940
  819SOL    HW2 2457   1.459   0.692   0.473 -2.8192 -1.5649  1.0582
  820SOL     OW 2458   1.755   0.916   0.588 -0.3405 -0.1353  0.4814
  820SOL    HW1 2459   1.770   0.889   0.683 -0.0822 -2.4874  2.0400
  820SOL    HW2 2460   1.837   0.903   0.530 -0.2353  1.7054 -1.8328
  821SOL     OW 2461   2.385   2.760   0.442 -0.2475 -0.0907  0.2474
  821SOL    HW1 2462   2.386   2.812   0.530  0.0131  0.5281  0.4762
  821SOL    HW2 2463   2.403   2.818   0.360 -1.4949  0.7484  2.8097
  822SOL     OW 2464   0.075   2.960   2.221 -0.1996  0.3994 -0.3711
  822SOL    HW1 2465   0.124   3.001   2.300 -1.9917  0.2689  0.8874
  822SOL    HW2 2466   0.091   3.018   2.139 -0.3344  0.9386 -1.0874
  823SOL     OW 2467   2.531   2.281   1.685  0.3435  0.0967 -0.4688
  823SOL    HW1 2468   2.482   2.302   1.772  3.4881  2.7069  0.7853
  823SOL    HW2 2469   2.563   2.185   1.680 -0.0899  0.7587  1.5449
  824SOL     OW 2470   1.252   2.849   2.162 -0.9243  0.4752 -1.0520
  824SOL    HW1 2471   1.177   2.783   2.180  0.5941  2.5580 -2.2455
  824SOL    HW2 2472   1.260   2.850   2.060  1.9800 -0.5807  4.2197
  825SOL     OW 2473   1.622   1.608   0.713  0.0948  0.1273  0.4051
  825SOL    HW1 2474   1.705   1.559   0.744 -2.2590 -2.7128 -0.2425
  825SOL    HW2 2475   1.627   1.627   0.611  3.0953 -1.1714  2.2892
  826SOL     OW 2476   1.874   0.883   0.172  0.1721 -0.1638  0.0704
  826SOL    HW1 2477   1.946   0.929   0.232 -0.0228 -0.0520  1.2370
  826SOL    HW2 2478   1.899   0.796   0.131  0.1788 -0.3449  0.6523
  827SOL     OW 2479   0.348   1.301   1.354 -0.2446  0.2255  0.4542
  827SOL    HW1 2480   0.267   1.300   1.288 -3.7470  0.1944 -0.9031
  827SOL    HW2 2481   0.397   1.389   1.347  0.1505 -0.5124  0.1732
  828SOL     OW 2482   1.979   1.526   1.979 -0.4989 -0.7110  0.3118
  828SOL    HW1 2483   1.880   1.498   1.986 -1.2218 -0.9946 -0.8736
  828SOL    HW2 2484   2.006   1.556   1.881  3.5548  1.5167 -1.8902
  829SOL     OW 2485   0.043   1.650   0.291 -0.1524 -0.3591 -0.3939
  829SOL    HW1 2486   0.058   1.594   0.209 -0.3673  0.7101  0.5007
  829SOL    HW2 2487   0.118   1.715   0.302 -0.1623 -2.2886  0.7847
  830SOL     OW 2488   1.213   0.585   0.591  0.1518 -0.2769  0.1829
  830SOL    HW1 2489   1.291   0.521   0.610  0.6094 -0.8644  0.0981
  830SOL    HW2 2490   1.137   0.561   0.662 -0.1759  0.2098  2.1488
  831SOL     OW 2491   2.737   1.453   3.109 -0.1312  0.0982 -0.2746
  831SOL    HW1 2492   2.808   1.419   3.038  1.1228  1.0435 -1.7013
  831SOL    HW2 2493   2.755   1.556   0.014 -2.5270 -0.1480 -1.1915
  832SOL     OW 2494   0.938   3.007   0.129 -0.4329  0.6577 -0.2923
  832SOL    HW1 2495   0.913   2.982   0.032  3.9414 -0.4991 -0.7906
  832SOL    HW2 2496   0.963   3.104   0.132 -5.0445 -3.2029  2.1477
  833SOL     OW 2497   1.041   0.737   2.109 -0.1808  0.0475 -0.4577
  833SOL    HW1 2498   1.135   0.708   2.111  1.1427 -4.7162  1.0367
  833SOL    HW2 2499   1.029   0.838   2.081  0.5351  1.9866 -1.9920
  834SOL     OW 2500   0.213   0.658   1.244  0.6179  0.4677  0.1620
  834SOL    HW1 2501   0.155   0.737   1.206 -2.9816  1.1517  1.8577
  834SOL    HW2 2502   0.255   0.600   1.167 -0.5352  0.9151  0.1329
  835SOL     OW 2503   2.816   0.449   1.440  0.0940  0.0395  0.2828
  835SOL    HW1 2504   2.722   0.470   1.469 -0.1851  0.0546  0.4073
  835SOL    HW2 2505   2.842   0.360   1.485 -0.8780  0.3369  0.0710
  836SOL     OW 2506   0.346   2.089   0.509  0.0953 -0.1161  0.4618
  836SOL    HW1 2507   0.257   2.062   0.469  0.7698  0.6761 -1.3706
  836SOL    HW2 2508   0.421   2.038   0.461  1.4705  0.4144  1.8841
  837SOL     OW 2509   2.062   1.929   2.167 -0.2431 -0.3469  0.2499
  837SOL    HW1 2510   2.127   1.982   2.112  1.2056 -0.0322 -1.7844
  837SOL    HW2 2511   2.052   1.969   2.258  0.0931 -0.1606  1.2187
  838SOL     OW 2512   0.095   1.341   1.710 -0.3021 -0.1747 -0.0087
  838SOL    HW1 2513   0.195   1.336   1.691 -2.3250 -1.8561 -0.3268
  838SOL    HW2 2514   0.083   1.378   1.807 -1.3133 -0.2995  3.1692
  839SOL     OW 2515   0.220   0.258   0.742  0.4385  0.2844 -0.4327
  839SOL    HW1 2516   0.214   0.218   0.834 -0.1951  1.9332 -1.4081
  839SOL    HW2 2517   0.316   0.281   0.719 -1.7450 -1.4122  1.8531
  840SOL     OW 2518   2.858   0.161   2.729  0.4039 -0.9543 -0.4032
  840SOL    HW1 2519   2.953   0.200   2.721  2.5195  0.9788 -1.2083
  840SOL    HW2 2520   2.832   0.154   2.826 -1.0352  1.2618 -3.1458
  841SOL     OW 2521   0.471   2.899   0.185  0.2070 -0.0554 -0.1747
  841SOL    HW1 2522   0.389   2.864   0.136  2.0704  2.5655 -1.5403
  841SOL    HW2 2523   0.486   2.842   0.273  1.5485 -0.3333  1.2372
  842SOL     OW 2524   0.941   0.034   0.835  0.6647  0.3414  0.0721
  842SOL    HW1 2525   0.847   0.058   0.809 -0.3047 -3.8236 -3.4350
  842SOL    HW2 2526   0.937   0.033   0.937 -0.5456 -0.0780 -1.5922
  843SOL     OW 2527   0.272   1.041   2.756 -0.0855  0.0349 -0.5531
  843SOL    HW1 2528   0.204   0.972   2.791 -1.0986 -1.1499 -0.0167
  843SOL    HW2 2529   0.312   1.008   2.670 -0.5373 -1.2697 -0.7490
  844SOL     OW 2530   0.820   2.279   2.460  0.1806  0.0346  0.6853
  844SOL    HW1 2531   0.758   2.290   2.378 -2.4724 -1.1190 -1.7280
  844SOL    HW2 2532   0.917   2.273   2.426  1.8493  0.4477  0.9219
  845SOL     OW 2533   2.282   2.746   2.599 -0.3448  0.1450 -0.0417
  845SOL    HW1 2534   2.358   2.757   2.665  0.2249 -0.2425 -2.4158
  845SOL    HW2 2535   2.243   2.833   2.564  0.3691  1.9438  0.0872
  846SOL     OW 2536   1.780   1.719   2.368 -0.8024 -0.5238 -0.1621
  846SOL    HW1 2537   1.845   1.777   2.308 -1.0970 -0.5640 -2.2316
  846SOL    HW2 2538   1.694   1.690   2.317  5.0560  2.0378 -2.8201
  847SOL     OW 2539   2.760   3.020   2.933 -0.7320  0.5615  0.7020
  847SOL    HW1 2540   2.824   3.038   2.858 -1.9369 -4.1811  2.9787
  847SOL    HW2 2541   2.803   3.060   3.016  1.9647  0.5607 -0.0058
  848SOL     OW 2542   0.153   0.564   0.279 -0.3637 -0.1786  0.9046
  848SOL    HW1 2543   0.066   0.609   0.292  0.8119 -0.8970  1.1808
  848SOL    HW2 2544   0.219   0.584   0.350 -0.3174 -1.2334  1.5639
  849SOL     OW 2545   1.311   0.021   1.986 -0.0480 -0.5715 -0.1587
  849SOL    HW1 2546   1.312   3.050   2.029 -2.9761 -1.3677  2.8896
  849SOL    HW2 2547   1.281   0.091   2.053 -0.7396 -0.4282  1.4633
  850SOL     OW 2548   0.553   0.861   0.616 -0.0660 -0.1198 -0.5327
  850SOL    HW1 2549   0.564   0.836   0.518 -0.3680  2.2786  1.7691
  850SOL    HW2 2550   0.647   0.893   0.655  2.2888 -1.6389  3.5944
  851SOL     OW 2551   0.253   1.365   0.307  0.1575 -0.3076 -0.2898
  851SOL    HW1 2552   0.270   1.453   0.268  0.1028  0.1781 -2.0343
  851SOL    HW2 2553   0.334   1.317   0.346 -0.8094  0.3287 -0.2653
  852SOL     OW 2554   1.466   0.886   1.949 -0.4494  0.0838  0.2287
  852SOL    HW1 2555   1.497   0.976   1.913 -2.9052  0.1164  0.0936
  852SOL    HW2 2556   1.544   0.829   1.977 -3.0680  0.3462 -1.6467
  853SOL     OW 2557   2.657   1.472   0.431 -1.0236 -0.2363 -0.1304
  853SOL    HW1 2558   2.697   1.445   0.521  0.0732 -2.1666 -1.0638
  853SOL    HW2 2559   2.696   1.422   0.351  0.5789 -0.0585 -1.1022
  854SOL     OW 2560   1.110   1.023   2.332  0.0063 -0.0637  0.1288
  854SOL    HW1 2561   1.038   1.035   2.405  0.4637  0.9661 -0.6773
  854SOL    HW2 2562   1.164   0.938   2.349 -2.7724  2.1933 -0.9487
  855SOL     OW 2563   0.279   2.799   0.032 -0.0789  0.2158  0.1965
  855SOL    HW1 2564   0.212   2.875   0.050 -1.0011  0.6391 -1.2956
  855SOL    HW2 2565   0.251   2.753   3.059 -1.6824  1.1601 -1.9916
  856SOL     OW 2566   1.272   0.757   2.365  0.3824  0.0806 -0.0938
  856SOL    HW1 2567   1.302   0.730   2.273 -1.4789 -0.4426  2.0985
  856SOL    HW2 2568   1.205   0.692   2.404  3.2670  3.2270 -2.2877
  857SOL     OW 2569   1.507   0.753   2.519  0.4788 -0.1235  0.1466
  857SOL    HW1 2570   1.565   0.667   2.497  0.5747 -3.6606 -1.1503
  857SOL    HW2 2571   1.477   0.809   2.437  0.1206 -0.6948 -3.6235
  858SOL     OW 2572   0.005   1.033   2.200  0.1586  0.4518 -0.1469
  858SOL    HW1 2573   0.087   1.089   2.185 -1.7093 -0.1891  2.4980
  858SOL    HW2 2574   3.094   1.042   2.299 -1.5170 -0.7328 -1.8811
  859SOL     OW 2575   2.532   0.163   0.686  0.1866  0.6207  0.2726
  859SOL    HW1 2576   2.599   0.239   0.703 -1.2278  0.3501 -0.6553
  859SOL    HW2 2577   2.554   0.111   0.599  0.3466 -2.8183 -0.1118
  860SOL     OW 2578   1.821   3.058   0.384 -0.4146  0.0190 -0.1129
  860SOL    HW1 2579   1.753   0.007   0.412 -0.1869 -2.4376  0.0615
  860SOL    HW2 2580   1.837   2.985   0.454  0.8989 -3.3762  1.1699
  861SOL     OW 2581   1.306   0.427   1.106  0.1636  0.2473 -0.2517
  861SOL    HW1 2582   1.271   0.507   1.163 -2.1162  1.5074  1.5103
  861SOL    HW2 2583   1.233   0.377   1.054 -2.1702 -1.3795  0.5188
  862SOL     OW 2584   1.398   0.275   2.565  0.0058 -0.3744 -0.1910
  862SOL    HW1 2585   1.485   0.226   2.572  0.0817 -0.3029 -2.0352
  862SOL    HW2 2586   1.401   0.327   2.475  1.3436 -0.5017  0.2196
  863SOL     OW 2587   2.880   2.829   0.866  0.3555 -0.2558  0.1091
  863SOL    HW1 2588   2.795   2.797   0.817 -1.7378  0.1726  1.1422
  863SOL    HW2 2589   2.947   2.756   0.851 -5.5751 -0.3217  1.3848
  864SOL     OW 2590   2.518   0.128   2.211 -0.2773  0.5258 -0.1688
  864SOL    HW1 2591   2.530   0.075   2.123 -0.3161 -0.7641 -1.0318
  864SOL    HW2 2592   2.547   0.067   2.287 -0.7384  0.9705  2.5952
  865SOL     OW 2593   1.234   1.233   1.944  0.3234  0.2320  0.1137
  865SOL    HW1 2594   1.178   1.225   1.861  0.0014 -0.1869 -1.4216
  865SOL    HW2 2595   1.328   1.195   1.928 -0.6494 -1.2594 -2.3056
  866SOL     OW 2596   1.879   2.689   0.895 -0.1454 -0.9270  0.3663
  866SOL    HW1 2597   1.833   2.754   0.823 -0.8389  2.3220 -3.7090
  866SOL    HW2 2598   1.859   2.717   0.991  0.8874  1.5200  2.4992
  867SOL     OW 2599   2.208   2.998   0.405  0.0282  0.2476 -0.7339
  867SOL    HW1 2600   2.232   3.056   0.486  1.4363 -2.1586 -0.2571
  867SOL    HW2 2601   2.199   3.044   0.317 -0.9370  0.5637 -0.9911
  868SOL     OW 2602   3.048   2.276   1.660  0.0901 -0.3585 -0.1635
  868SOL    HW1 2603   3.071   2.342   1.584  0.8690 -0.0885  3.2012
  868SOL    HW2 2604   0.013   2.236   1.707 -0.0623  0.9815  1.0857
  869SOL     OW 2605   2.237   2.351   2.187 -0.4989 -0.0595  0.5382
  869SOL    HW1 2606   2.243   2.253   2.212  0.6050  3.8561  0.6575
  869SOL    HW2 2607   2.240   2.411   2.271 -0.3088  0.6424  0.6457
  870SOL     OW 2608   1.414   1.383   0.775  0.0187 -0.0722 -0.1048
  870SOL    HW1 2609   1.493   1.435   0.735 -0.7910 -1.6916  0.4016
  870SOL    HW2 2610   1.442   1.288   0.791  0.2105 -1.3721 -1.8936
  871SOL     OW 2611   2.841   1.751   1.957  0.9930 -0.2185  0.0110
  871SOL    HW1 2612   2.879   1.844   1.967  1.2013  0.1661 -0.4308
  871SOL    HW2 2613   2.886   1.700   1.888 -0.4519  2.2195 -1.0187
  872SOL     OW 2614   1.054   1.663   2.753  0.2985  0.0633  0.4086
  872SOL    HW1 2615   1.018   1.661   2.660 -2.2613 -0.7711  2.4895
  872SOL    HW2 2616   1.136   1.606   2.766 -0.3903 -1.6980 -2.3602
  873SOL     OW 2617   0.745   1.249   1.764 -0.5635 -0.0442 -0.2990
  873SOL    HW1 2618   0.725   1.348   1.766  0.5536 -2.6140 -1.1411
  873SOL    HW2 2619   0.736   1.205   1.852  1.7992  1.9730 -1.6173
  874SOL     OW 2620   1.740   1.221   1.728 -0.0983  0.3038 -0.0450
  874SOL    HW1 2621   1.721   1.180   1.638  1.9178  0.3932  2.9209
  874SOL    HW2 2622   1.831   1.187   1.763 -1.8527  0.1515 -1.3850
  875SOL     OW 2623   2.831   0.005   0.055  0.2904 -0.4879  0.0901
  875SOL    HW1 2624   2.790   3.047   0.108  0.0647  0.6452  0.3105
  875SOL    HW2 2625   2.902   0.048   0.113  0.8380  2.3487 -0.9225
  876SOL     OW 2626   0.750   1.172   0.267 -0.0498  0.2432 -0.3264
  876SOL    HW1 2627   0.752   1.073   0.265 -2.6954 -0.5071 -2.2326
  876SOL    HW2 2628   0.843   1.215   0.237  1.9711 -0.3436 -2.6195
  877SOL     OW 2629   2.705   2.744   0.667 -0.4487  0.3653 -0.0001
  877SOL    HW1 2630   2.608   2.772   0.694 -1.4795  0.1207  2.3283
  877SOL    HW2 2631   2.716   2.643   0.683  0.4999  0.0325 -1.5046
  878SOL     OW 2632   2.060   1.679   0.626  0.3451 -0.5355  0.2561
  878SOL    HW1 2633   2.143   1.688   0.565  0.9380 -2.3578  2.3326
  878SOL    HW2 2634   2.001   1.760   0.628 -0.8310 -3.1356  0.4125
  879SOL     OW 2635   2.613   1.681   1.497  0.0286  0.4603  0.0509
  879SOL    HW1 2636   2.659   1.593   1.523 -0.8762 -1.3201  0.9333
  879SOL    HW2 2637   2.614   1.751   1.570  2.7285 -0.2134  2.0475
  880SOL     OW 2638   0.447   2.061   1.035 -0.3445 -0.3522  0.6626
  880SOL    HW1 2639   0.523   2.027   1.090 -1.3806 -1.8252 -0.8539
  880SOL    HW2 2640   0.452   2.023   0.939 -0.2743 -2.0304 -2.2042
  881SOL     OW 2641   0.764   0.507   1.313  0.6068  0.3601  0.1721
  881SOL    HW1 2642   0.752   0.608   1.326  0.2188 -0.6707 -1.2047
  881SOL    HW2 2643   0.680   0.465   1.346  2.5110  4.3756 -0.2955
  882SOL     OW 2644   2.339   1.276   1.304 -0.7486 -0.7730 -0.1327
  882SOL    HW1 2645   2.278   1.269   1.222 -0.3176 -1.0802 -0.9370
  882SOL    HW2 2646   2.435   1.271   1.274 -0.4507 -0.5155  1.7211
  883SOL     OW 2647   1.447   0.270   1.606 -0.1247  0.2734 -0.5380
  883SOL    HW1 2648   1.498   0.219   1.675  1.9575  0.5970 -1.4476
  883SOL    HW2 2649   1.477   0.227   1.514 -0.7372 -3.5897 -1.5107
  884SOL     OW 2650   2.923   0.239   2.082  0.5471 -0.3828 -0.2778
  884SOL    HW1 2651   2.969   0.315   2.035 -3.0689 -1.7388  3.8656
  884SOL    HW2 2652   2.971   0.230   2.171 -3.2673  0.3129  0.1821
  885SOL     OW 2653   1.363   1.596   2.954 -0.4603 -0.4870 -0.2795
  885SOL    HW1 2654   1.299   1.675   2.955 -1.4473  1.1513 -0.1720
  885SOL    HW2 2655   1.461   1.630   2.945  1.7074 -2.1244 -0.6687
  886SOL     OW 2656   1.920   0.212   3.100 -0.3317 -0.0928  0.2983
  886SOL    HW1 2657   1.985   0.198   0.060  4.0796 -2.1282  0.3550
  886SOL    HW2 2658   1.970   0.202   3.010  0.9355  1.7995  1.1476
  887SOL     OW 2659   1.502   2.997   1.482  0.0022 -0.3119 -0.3327
  887SOL    HW1 2660   1.521   3.095   1.461  0.7035  0.3791 -0.6350
  887SOL    HW2 2661   1.555   2.933   1.423 -0.3478 -2.1455  1.2995
  888SOL     OW 2662   1.834   1.800   2.083 -0.2089 -0.2741 -0.2705
  888SOL    HW1 2663   1.848   1.705   2.049 -0.2667 -2.3766  0.4079
  888SOL    HW2 2664   1.917   1.845   2.114 -0.7544 -0.0759 -1.3421
  889SOL     OW 2665   2.131   2.275   0.457 -0.1434  0.2460  0.2492
  889SOL    HW1 2666   2.210   2.222   0.422  1.8044  1.1480 -0.7165
  889SOL    HW2 2667   2.136   2.371   0.421 -0.6736  2.5717  1.2325
  890SOL     OW 2668   1.509   2.105   0.559  0.3566 -0.3523 -0.1285
  890SOL    HW1 2669   1.501   2.060   0.467 -1.8987 -2.7691 -1.6755
  890SOL    HW2 2670   1.593   2.160   0.574 -0.5523  0.2739  0.2003
  891SOL     OW 2671   2.756   0.980   0.019 -0.0104  0.4520 -0.5953
  891SOL    HW1 2672   2.728   0.973   0.113 -0.3207 -0.5549 -0.1019
  891SOL    HW2 2673   2.727   1.069   3.101 -0.6160  2.5049  0.3780
  892SOL     OW 2674   2.130   0.845   2.911 -0.1472  0.2783 -0.5390
  892SOL    HW1 2675   2.036   0.878   2.931 -1.4611  2.5015 -0.4476
  892SOL    HW2 2676   2.142   0.834   2.807  2.3434  1.1276 -4.4692
  893SOL     OW 2677   1.774   2.633   1.499 -0.2552 -0.2497 -0.3663
  893SOL    HW1 2678   1.766   2.736   1.499  2.9289  2.7899  1.5246
  893SOL    HW2 2679   1.850   2.604   1.558 -0.8823 -0.1085 -0.7047
  894SOL     OW 2680   2.784   2.912   0.454  0.0088  0.5858 -0.5090
  894SOL    HW1 2681   2.772   2.892   0.351  0.1485 -1.5113 -0.3111
  894SOL    HW2 2682   2.757   2.834   0.515  0.6477 -0.7832  2.3667
  895SOL     OW 2683   2.103   2.162   2.982  0.2326  0.2592 -0.1266
  895SOL    HW1 2684   2.184   2.144   2.915  0.8897 -1.8517 -3.7802
  895SOL    HW2 2685   2.072   2.257   2.967  1.9327  0.3127  0.2493
  896SOL     OW 2686   2.170   0.152   2.512 -0.2938  0.1904 -0.0564
  896SOL    HW1 2687   2.118   0.199   2.587 -1.5742 -0.0658  0.1422
  896SOL    HW2 2688   2.153   0.210   2.425 -1.3793  0.2095 -1.4698
  897SOL     OW 2689   0.309   1.737   1.947 -0.6310 -0.4916 -0.0544
  897SOL    HW1 2690   0.337   1.663   1.883  1.2963 -1.2320 -0.6190
  897SOL    HW2 2691   0.377   1.810   1.944  0.6511  0.4639 -1.7015
  898SOL     OW 2692   2.285   1.729   1.821  0.2666 -1.2406  0.1127
  898SOL    HW1 2693   2.237   1.813   1.789 -0.4340 -0.2661 -2.0808
  898SOL    HW2 2694   2.370   1.751   1.871 -1.0454 -2.6444 -1.1390
  899SOL     OW 2695   1.719   2.646   1.165  0.2739 -0.4851  0.0093
  899SOL    HW1 2696   1.643   2.642   1.101 -1.3215  0.1243 -1.3287
  899SOL    HW2 2697   1.698   2.708   1.240  0.0643 -1.1915 -0.5478
  900SOL     OW 2698   1.132   0.800   0.028  0.0469 -0.1386 -0.1318
  900SOL    HW1 2699   1.190   0.814   3.062  1.7190  0.8166  1.7569
  900SOL    HW2 2700   1.030   0.817   0.007 -0.0177 -1.8851 -1.2420
  901SOL     OW 2701   1.225   1.614   2.375  0.6707  0.2165  0.1982
  901SOL    HW1 2702   1.287   1.578   2.305 -0.4364  0.7733 -1.0321
  901SOL    HW2 2703   1.201   1.712   2.376 -1.5452 -0.3689 -0.1483
  902SOL     OW 2704   0.091   2.411   0.133  0.4434 -0.0617  0.8554
  902SOL    HW1 2705   0.121   2.313   0.146  1.5962 -0.0615  0.9468
  902SOL    HW2 2706   3.112   2.425   0.154  1.0975 -1.7675 -0.7212
  903SOL     OW 2707   2.357   0.905   1.816 -0.8456 -0.0120  0.0676
  903SOL    HW1 2708   2.383   0.807   1.829  1.7187  2.1651 -1.1751
  903SOL    HW2 2709   2.410   0.963   1.879  0.9883 -1.1796 -1.4514
  904SOL     OW 2710   1.681   0.698   3.004 -0.1045  0.8506  0.1610
  904SOL    HW1 2711   1.608   0.760   3.033  0.1516 -0.0099 -2.9909
  904SOL    HW2 2712   1.741   0.659   3.077  0.0541 -0.2335 -0.8222
  905SOL     OW 2713   2.147   2.448   1.172 -0.4588 -0.1491  0.1717
  905SOL    HW1 2714   2.162   2.547   1.151  0.8919 -0.0762 -0.0383
  905SOL    HW2 2715   2.126   2.394   1.088  0.7120  2.2655  2.3632
  906SOL     OW 2716   1.530   1.977   3.030 -0.2136 -0.4543 -0.4266
  906SOL    HW1 2717   1.526   1.891   3.084  0.1795  0.9726 -0.6322
  906SOL    HW2 2718   1.609   2.036   3.051 -0.8165 -0.0341 -1.4191
  907SOL     OW 2719   0.724   2.607   0.597  0.0873  0.6377  0.2512
  907SOL    HW1 2720   0.626   2.589   0.581  1.9926 -0.9081  1.7898
  907SOL    HW2 2721   0.785   2.551   0.537  1.0297  0.2373  1.3957
  908SOL     OW 2722   1.269   2.846   1.919  0.1652  0.2358  0.0396
  908SOL    HW1 2723   1.274   2.748   1.894 -0.9594 -1.1420 -1.4871
  908SOL    HW2 2724   1.333   2.902   1.863 -0.7669  2.2044  1.6930
  909SOL     OW 2725   1.729   0.481   1.299 -0.2103 -0.1842  0.0051
  909SOL    HW1 2726   1.767   0.392   1.326 -0.9664  1.0190  1.9665
  909SOL    HW2 2727   1.675   0.479   1.210 -0.6878  0.0950 -3.0355
  910SOL     OW 2728   1.249   0.883   2.906 -0.2236 -0.1994  0.0730
  910SOL    HW1 2729   1.161   0.922   2.872 -1.5827  0.6370  2.3571
  910SOL    HW2 2730   1.309   0.847   2.835 -1.4649 -0.9273  1.7847
  911SOL     OW 2731   2.765   0.664   0.088  0.0286  0.5334 -0.1591
  911SOL    HW1 2732   2.817   0.750   0.089  1.3691  0.3956  0.8117
  911SOL    HW2 2733   2.793   0.602   0.164  0.5314 -0.2019  1.3111
  912SOL     OW 2734   3.103   2.077   3.100 -0.2989 -0.4699 -0.2513
  912SOL    HW1 2735   0.021   2.035   3.016 -1.4516  1.3375  0.9034
  912SOL    HW2 2736   0.059   2.106   0.049  1.3560  1.4162  1.5245
  913SOL     OW 2737   2.719   1.898   2.675 -0.1390 -0.4933  0.5511
  913SOL    HW1 2738   2.751   1.971   2.735 -1.2691 -0.3254 -3.0583
  913SOL    HW2 2739   2.719   1.812   2.729 -5.0276  1.5649 -0.8007
  914SOL     OW 2740   1.289   1.639   1.750  0.0026  0.2454 -0.3967
  914SOL    HW1 2741   1.304   1.642   1.647  3.5239 -2.5478 -2.4124
  914SOL    HW2 2742   1.275   1.730   1.799  0.8638 -1.4855  0.8470
  915SOL     OW 2743   0.717   2.777   2.186 -0.7656  0.8969  0.8627
  915SOL    HW1 2744   0.764   2.845   2.122 -1.1599  1.6011  0.7956
  915SOL    HW2 2745   0.677   2.827   2.265  2.7203  1.8972 -1.6297
  916SOL     OW 2746   0.362   1.300   1.695 -0.1181  0.1858 -0.5947
  916SOL    HW1 2747   0.380   1.219   1.750 -0.4341  1.1875 -0.2293
  916SOL    HW2 2748   0.381   1.283   1.596  0.3889  0.9231  0.1132
  917SOL     OW 2749   2.397   0.160   0.374  0.6562 -0.2240 -0.1976
  917SOL    HW1 2750   2.347   0.120   0.294 -0.3717 -1.6115 -2.1653
  917SOL    HW2 2751   2.490   0.115   0.390 -0.9007  0.7350 -1.8042
  918SOL     OW 2752   1.512   2.544   2.372  0.0994 -0.1899 -0.5857
  918SOL    HW1 2753   1.591   2.487   2.381  0.0002 -0.9361  2.1192
  918SOL    HW2 2754   1.429   2.491   2.412 -1.7900  0.3296  3.2717
  919SOL     OW 2755   1.624   2.654   1.876 -0.3193 -0.3657 -0.2989
  919SOL    HW1 2756   1.643   2.723   1.946  0.2931 -0.4157 -0.8375
  919SOL    HW2 2757   1.588   2.698   1.795  4.6906  0.5310  0.1101
  920SOL     OW 2758   0.739   1.060   2.980  0.0923 -0.0279  0.0063
  920SOL    HW1 2759   0.760   1.154   2.944 -0.8202  0.8916  2.0010
  920SOL    HW2 2760   0.654   1.062   3.039 -0.1567 -1.9732  0.5419
  921SOL     OW 2761   0.084   0.499   2.709  0.0967  0.4289 -0.1250
  921SOL    HW1 2762   0.035   0.484   2.621  0.6502 -1.0826 -0.7278
  921SOL    HW2 2763   0.160   0.567   2.697  2.5983  0.3815  0.2919
  922SOL     OW 2764   0.827   2.017   0.614  0.0325  0.9786  0.8234
  922SOL    HW1 2765   0.893   1.957   0.561  0.6778 -0.8889 -2.1760
  922SOL    HW2 2766   0.803   1.979   0.705 -0.0343  1.3067  0.0785
  923SOL     OW 2767   0.352   1.075   2.086 -0.0324  0.0702 -0.0368
  923SOL    HW1 2768   0.332   1.004   2.019  1.2865  0.7230  1.0050
  923SOL    HW2 2769   0.329   1.171   2.052 -1.5865  2.1253  0.8397
  924SOL     OW 2770   1.459   2.876   2.726  0.1698  0.1613 -0.3262
  924SOL    HW1 2771   1.454   2.778   2.702 -2.2760 -1.9525  0.6809
  924SOL    HW2 2772   1.426   2.892   2.820 -2.9179  0.2327 -0.5749
  925SOL     OW 2773   2.716   1.411   1.611  0.7965 -0.1394 -0.0965
  925SOL    HW1 2774   2.619   1.390   1.635  1.5700 -0.5044  1.2003
  925SOL    HW2 2775   2.767   1.328   1.577  1.0247 -0.4732 -1.4995
  926SOL     OW 2776   1.967   0.650   1.564 -0.3706 -0.5897  0.3318
  926SOL    HW1 2777   1.962   0.639   1.461  2.1761  2.8791 -1.1380
  926SOL    HW2 2778   2.004   0.570   1.605 -2.4887  1.0319  0.4476
  927SOL     OW 2779   2.326   2.902   1.362 -0.1036  0.5507  0.3748
  927SOL    HW1 2780   2.294   2.932   1.450 -0.5530  2.6671  0.3541
  927SOL    HW2 2781   2.428   2.905   1.359 -0.6914 -1.5427  0.9666
  928SOL     OW 2782   0.237   0.776   2.357  0.4618 -0.3379  0.0544
  928SOL    HW1 2783   0.203   0.862   2.402 -1.7384  2.2817 -0.7954
  928SOL    HW2 2784   0.324   0.794   2.311 -1.1004 -1.0734  2.2562
  929SOL     OW 2785   2.376   0.379   0.777 -1.1611  0.5978  0.6939
  929SOL    HW1 2786   2.428   0.308   0.731 -1.3400 -0.4958  3.1468
  929SOL    HW2 2787   2.406   0.398   0.875 -1.5319  3.4305 -0.1164
  930SOL     OW 2788   2.888   3.040   1.806 -0.0758  0.4261  0.3365
  930SOL    HW1 2789   2.840   2.983   1.874  0.9696 -0.3866 -1.0553
  930SOL    HW2 2790   2.911   2.976   1.729  1.9017 -2.3932 -0.7650
  931SOL     OW 2791   2.055   0.868   0.522  0.1854  0.0904 -0.6341
  931SOL    HW1 2792   2.052   0.909   0.616  1.6822  1.7058 -0.1576
  931SOL    HW2 2793   2.127   0.917   0.466  1.7741  1.3395 -1.0900
  932SOL     OW 2794   2.611   1.227   1.926 -0.6695 -0.2575  0.0887
  932SOL    HW1 2795   2.549   1.157   1.970 -1.0029 -2.1601  2.1773
  932SOL    HW2 2796   2.678   1.176   1.870 -1.9627  0.8446  2.1557
  933SOL     OW 2797   2.795   2.399   1.651  0.1602 -0.1818 -0.4843
  933SOL    HW1 2798   2.713   2.358   1.700 -1.8667  1.6251  0.6802
  933SOL    HW2 2799   2.879   2.349   1.676  0.6396 -0.9131  1.2306
  934SOL     OW 2800   0.534   2.156   1.487 -0.1678  0.4367 -0.3315
  934SOL    HW1 2801   0.636   2.156   1.470 -0.4707  0.0316  0.4915
  934SOL    HW2 2802   0.491   2.239   1.457  0.3110  0.6434 -1.5008
  935SOL     OW 2803   2.741   1.624   2.175  0.0483  0.6020  0.0813
  935SOL    HW1 2804   2.797   1.679   2.104  2.2333 -1.3889 -0.7711
  935SOL    HW2 2805   2.677   1.562   2.127  4.7021 -0.1944  2.1649
  936SOL     OW 2806   2.303   1.710   2.228  0.4027 -0.2608 -0.0940
  936SOL    HW1 2807   2.300   1.651   2.145 -1.4797 -1.6910 -1.1753
  936SOL    HW2 2808   2.230   1.779   2.231 -1.4805 -0.9429  0.2410
  937SOL     OW 2809   2.030   1.578   1.710 -0.1404 -0.9217 -0.5619
  937SOL    HW1 2810   2.017   1.504   1.647 -0.2236 -0.1866 -0.0823
  937SOL    HW2 2811   2.110   1.633   1.680  1.4616  1.8795  1.3403
  938SOL     OW 2812   0.421   2.394   2.742  0.5381 -0.6375  0.5766
  938SOL    HW1 2813   0.516   2.407   2.713 -3.2907 -1.1803 -1.5449
  938SOL    HW2 2814   0.418   2.424   2.840  4.8671 -1.8876 -1.3104
  939SOL     OW 2815   2.386   0.926   2.914  0.0488 -0.2336 -0.1010
  939SOL    HW1 2816   2.305   0.874   2.954 -0.1759 -0.4934  0.7189
  939SOL    HW2 2817   2.346   1.012   2.878  0.2300 -1.6711  0.5817
  940SOL     OW 2818   1.124   1.737   0.678  0.2757 -0.1162  0.6658
  940SOL    HW1 2819   1.160   1.651   0.636  0.7194 -0.2015 -0.5143
  940SOL    HW2 2820   1.186   1.779   0.747 -0.2719  1.9468 -1.2275
  941SOL     OW 2821   1.601   2.992   2.472  0.1489  0.3182 -0.0180
  941SOL    HW1 2822   1.561   2.936   2.543  3.1483 -0.5828 -2.2199
  941SOL    HW2 2823   1.604   2.933   2.390 -1.3017 -0.1388  1.3250
  942SOL     OW 2824   0.848   2.427   0.442  0.4122  0.0914 -0.2889
  942SOL    HW1 2825   0.835   2.400   0.344  2.5137  0.6810 -0.8065
  942SOL    HW2 2826   0.921   2.369   0.485  2.2006 -1.7930  0.7079
  943SOL     OW 2827   1.737   0.015   1.642 -0.3226 -0.1494  0.1021
  943SOL    HW1 2828   1.665   0.067   1.689  0.2164 -0.9257 -0.7585
  943SOL    HW2 2829   1.811   0.084   1.625 -1.2749 -0.3777 -1.6738
  944SOL     OW 2830   0.908   1.487   2.948 -0.0147 -0.0249  0.5835
  944SOL    HW1 2831   0.928   1.572   2.892  0.1411  1.4923  0.3651
  944SOL    HW2 2832   0.868   1.406   2.896  0.8650 -0.8763  0.7181
  945SOL     OW 2833   0.080   2.361   1.019  0.3105  0.3160  0.2200
  945SOL    HW1 2834   3.094   2.372   1.012 -2.9675 -1.1028 -1.3919
  945SOL    HW2 2835   0.102   2.267   1.047 -1.3892  0.4657 -0.1174
  946SOL     OW 2836   0.796   1.268   2.812 -0.0679 -0.0375  0.3573
  946SOL    HW1 2837   0.885   1.249   2.761 -2.0363  1.2318 -1.2863
  946SOL    HW2 2838   0.716   1.242   2.750  1.6994 -0.3508 -1.0503
  947SOL     OW 2839   2.774   0.142   1.862  0.2635 -0.3045 -0.0041
  947SOL    HW1 2840   2.842   0.187   1.919 -1.3103 -0.9673 -4.7873
  947SOL    HW2 2841   2.812   0.056   1.822 -3.1133 -0.2791  0.8228
  948SOL     OW 2842   0.018   1.918   1.165  0.1169  0.2112 -0.7698
  948SOL    HW1 2843   0.040   1.822   1.135  0.0748  2.2026  1.6521
  948SOL    HW2 2844   0.009   1.932   1.267  0.7839  0.1059 -1.2804
  949SOL     OW 2845   1.141   0.987   1.600 -0.5965 -0.2217  0.1477
  949SOL    HW1 2846   1.228   1.015   1.563 -2.6780 -0.9264 -0.1108
  949SOL    HW2 2847   1.090   1.069   1.635 -1.7801  0.9804 -0.7072
  950SOL     OW 2848   0.129   0.906   1.159  0.3165  0.0096  0.4264
  950SOL    HW1 2849   0.046   0.948   1.112 -1.4117 -1.4159 -0.1718
  950SOL    HW2 2850   0.207   0.964   1.128  2.7424  0.8280  0.5950
  951SOL     OW 2851   0.347   1.847   2.434 -0.2419  0.0918 -0.5637
  951SOL    HW1 2852   0.368   1.795   2.520 -0.5789 -0.7602  0.4096
  951SOL    HW2 2853   0.377   1.941   2.448 -1.8106 -0.6145 -0.7228
  952SOL     OW 2854   1.448   1.854   0.369  0.1759 -0.4450  0.1411
  952SOL    HW1 2855   1.404   1.939   0.338  0.9323 -0.6874 -0.0135
  952SOL    HW2 2856   1.400   1.811   0.449  1.4356 -2.6684  2.2663
  953SOL     OW 2857   1.112   0.558   0.137  0.0957 -0.8977 -0.0632
  953SOL    HW1 2858   1.044   0.494   0.092 -2.9468 -0.1141  0.5197
  953SOL    HW2 2859   1.116   0.649   0.090 -0.8523  1.0748 -0.5457
  954SOL     OW 2860   2.035   0.991   0.772  0.7135 -0.1099  0.4142
  954SOL    HW1 2861   2.106   1.061   0.761  0.1602 -2.7733  1.2864
  954SOL    HW2 2862   2.034   0.947   0.863  0.7865  0.4449  2.6555
  955SOL     OW 2863   2.443   1.501   0.273 -0.2141 -0.3068 -0.2441
  955SOL    HW1 2864   2.433   1.596   0.240 -0.4556 -1.7187  0.2079
  955SOL    HW2 2865   2.520   1.487   0.343  0.1879 -2.2923 -0.4237
  956SOL     OW 2866   0.862   0.541   1.777  0.2182  0.8982 -0.4579
  956SOL    HW1 2867   0.854   0.618   1.712 -0.8153 -2.3256  1.8714
  956SOL    HW2 2868   0.943   0.486   1.760 -1.6039  0.9540  0.3977
  957SOL     OW 2869   1.798   0.844   0.862  0.4842 -0.1795 -0.3215
  957SOL    HW1 2870   1.884   0.854   0.923 -1.8337 -2.7828  1.6409
  957SOL    HW2 2871   1.705   0.839   0.912  1.9738 -0.1009 -1.2911
  958SOL     OW 2872   0.443   1.973   0.778  0.1953  0.0598  0.0017
  958SOL    HW1 2873   0.440   1.873   0.760 -1.0613 -0.2246 -1.8108
  958SOL    HW2 2874   0.410   2.020   0.695 -0.2603 -0.1628  0.6573
  959SOL     OW 2875   1.978   1.874   1.567  0.4355  0.3661  0.2200
  959SOL    HW1 2876   1.992   1.898   1.670 -0.1845  1.0199  3.4956
  959SOL    HW2 2877   2.049   1.809   1.531  3.6064 -2.8902 -2.0669
  960SOL     OW 2878   3.073   1.845   2.627 -0.0260  0.0719 -0.3083
  960SOL    HW1 2879   2.979   1.811   2.639  1.1185  0.0508 -0.4445
  960SOL    HW2 2880   0.012   1.762   2.609  3.6000  0.5807  0.2019
  961SOL     OW 2881   0.787   1.272   0.873  0.0895  0.0823  0.0971
  961SOL    HW1 2882   0.835   1.355   0.916 -0.9386 -0.2803  1.2544
  961SOL    HW2 2883   0.855   1.197   0.872  3.3250  0.0072  0.5869
  962SOL     OW 2884   0.958   0.882   0.515  0.4631  0.4152  0.0897
  962SOL    HW1 2885   1.001   0.810   0.455 -1.2115 -1.6254 -1.1648
  962SOL    HW2 2886   1.022   0.961   0.522 -0.4802 -4.0022  0.8790
  963SOL     OW 2887   1.227   1.837   1.976 -0.5117 -0.2264  0.2969
  963SOL    HW1 2888   1.174   1.793   2.058 -1.8923 -1.1161  2.9034
  963SOL    HW2 2889   1.323   1.830   1.991 -4.7940  0.1421 -0.1494
  964SOL     OW 2890   0.302   2.770   2.502 -0.2454 -0.2182 -0.4134
  964SOL    HW1 2891   0.368   2.694   2.520  0.2683 -1.0381 -1.0466
  964SOL    HW2 2892   0.236   2.784   2.581  1.1478 -0.8535  1.6999
  965SOL     OW 2893   0.767   2.097   0.225 -0.1404 -0.9791 -0.3317
  965SOL    HW1 2894   0.792   2.197   0.217  1.0680 -0.6313  1.3029
  965SOL    HW2 2895   0.711   2.079   0.139 -0.4401 -0.6964  1.6206
  966SOL     OW 2896   3.087   1.725   3.027 -0.1082 -0.0258  0.0471
  966SOL    HW1 2897   2.992   1.735   3.056  0.7815 -0.2491  0.2464
  966SOL    HW2 2898   0.022   1.661   3.089  2.0467 -0.7517 -1.1810
  967SOL     OW 2899   2.107   2.673   2.786  0.0652 -0.3211 -0.2911
  967SOL    HW1 2900   2.166   2.688   2.706 -0.9643  2.1618  1.9739
  967SOL    HW2 2901   2.087   2.753   2.845 -0.3869 -2.5429 -0.1179
  968SOL     OW 2902   2.441   2.870   0.794  0.4930 -0.4520 -0.1783
  968SOL    HW1 2903   2.468   2.898   0.888  0.3369 -1.8832 -1.9002
  968SOL    HW2 2904   2.368   2.807   0.801  5.3861  3.7882  1.0256
  969SOL     OW 2905   0.605   1.077   2.200 -0.0440 -0.1037  0.0161
  969SOL    HW1 2906   0.599   1.142   2.281  1.1876  0.5085 -1.6288
  969SOL    HW2 2907   0.536   1.095   2.129  0.0257 -0.9027 -2.6185
  970SOL     OW 2908   1.828   1.182   0.745  0.6846  0.2252  0.0529
  970SOL    HW1 2909   1.908   1.225   0.791  0.6444 -0.1088 -0.4495
  970SOL    HW2 2910   1.848   1.082   0.736  0.5265 -0.0793  0.4026
  971SOL     OW 2911   2.269   3.031   1.587 -0.2527 -0.7280  0.0413
  971SOL    HW1 2912   2.365   3.028   1.625  1.8993  1.1166 -0.7286
  971SOL    HW2 2913   2.264   3.114   1.525 -1.6758  0.3198 -1.2012
  972SOL     OW 2914   2.885   0.212   1.556  0.2321  0.4202 -0.2643
  972SOL    HW1 2915   2.825   0.136   1.532 -1.5787  2.7143  0.5296
  972SOL    HW2 2916   2.892   0.226   1.655 -0.1205  0.2313  0.8245
  973SOL     OW 2917   0.026   0.209   2.721 -0.2101  0.4181  0.0255
  973SOL    HW1 2918   0.092   0.157   2.773  0.8305  2.7654  1.9976
  973SOL    HW2 2919   0.049   0.308   2.710  3.5502  1.0528 -0.9013
  974SOL     OW 2920   2.441   1.038   2.048  0.4085 -0.6933 -0.2986
  974SOL    HW1 2921   2.381   1.080   2.121  0.1870  0.5972 -1.0656
  974SOL    HW2 2922   2.485   0.962   2.093 -0.5812  1.4610  2.2195
  975SOL     OW 2923   0.956   0.698   1.172  0.0015 -0.1634  0.2587
  975SOL    HW1 2924   0.940   0.607   1.129  0.8054 -0.6967  1.6497
  975SOL    HW2 2925   0.870   0.729   1.216  1.1823 -0.3468 -1.8950
  976SOL     OW 2926   0.693   1.535   1.883  0.1986  0.0565 -0.3637
  976SOL    HW1 2927   0.719   1.527   1.980 -1.5219 -2.2409 -0.5739
  976SOL    HW2 2928   0.764   1.568   1.823 -0.4015  0.7921  2.7643
  977SOL     OW 2929   1.013   0.164   0.130  0.4410 -0.1271  0.3572
  977SOL    HW1 2930   0.977   0.216   0.051  0.7077 -2.0443 -2.1345
  977SOL    HW2 2931   1.106   0.196   0.151 -0.5618 -0.9047  0.3922
  978SOL     OW 2932   2.584   0.861   2.183 -0.5249 -0.0465  0.1882
  978SOL    HW1 2933   2.562   0.764   2.212  0.7334  0.7804  0.8496
  978SOL    HW2 2934   2.598   0.924   2.262 -1.4416  1.0208 -1.3659
  979SOL     OW 2935   1.413   0.520   1.974  0.4311 -0.0039 -0.1298
  979SOL    HW1 2936   1.331   0.461   1.985 -0.1357 -2.6802  2.1711
  979SOL    HW2 2937   1.455   0.488   1.884  0.4191 -1.6238 -0.5534
  980SOL     OW 2938   1.765   1.682   1.768  0.3348 -0.2720  0.1528
  980SOL    HW1 2939   1.704   1.599   1.776 -1.2348  1.4477 -2.0311
  980SOL    HW2 2940   1.817   1.675   1.683  0.4191  0.5526 -1.4756
  981SOL     OW 2941   2.613   0.928   1.447  0.0062 -0.1827 -0.2390
  981SOL    HW1 2942   2.605   1.027   1.427  1.3464 -0.3065  0.5092
  981SOL    HW2 2943   2.699   0.914   1.502 -0.4696 -2.0954  0.1595
  982SOL     OW 2944   0.497   0.292   2.846 -0.4674 -0.0208 -0.4415
  982SOL    HW1 2945   0.517   0.388   2.880  1.8990  0.0735 -0.4470
  982SOL    HW2 2946   0.574   0.229   2.876  2.0522  1.2460 -1.1041
  983SOL     OW 2947   2.398   0.714   2.729  0.0662 -0.8545  0.2882
  983SOL    HW1 2948   2.318   0.770   2.712  1.1456 -1.3262 -0.6812
  983SOL    HW2 2949   2.453   0.744   2.809  3.0451  0.1391 -0.8596
  984SOL     OW 2950   1.139   0.036   1.763  0.1808 -0.0694 -0.2835
  984SOL    HW1 2951   1.197   0.048   1.845 -0.4537  2.2617  0.6334
  984SOL    HW2 2952   1.080   3.073   1.782 -1.1333 -0.5397  0.2428
  985SOL     OW 2953   1.641   1.994   2.095  0.2768  0.1884 -0.2505
  985SOL    HW1 2954   1.703   1.914   2.096  0.4911 -0.3384  0.8467
  985SOL    HW2 2955   1.691   2.078   2.063 -0.5334 -0.6040 -2.5018
  986SOL     OW 2956   2.208   0.349   1.492 -0.2927 -0.1290  0.1792
  986SOL    HW1 2957   2.258   0.438   1.480 -0.9503  0.7230  1.7692
  986SOL    HW2 2958   2.256   0.277   1.439 -1.0024 -2.1164 -0.7800
  987SOL     OW 2959   2.634   1.164   1.338 -0.1389 -0.4818  0.5316
  987SOL    HW1 2960   2.634   1.206   1.246 -0.0899 -2.7277  0.9323
  987SOL    HW2 2961   2.725   1.174   1.385  2.0215 -0.8128 -0.4029
  988SOL     OW 2962   2.324   2.048   1.702  0.2373  0.4850  0.2113
  988SOL    HW1 2963   2.287   2.066   1.796  1.7540  0.7695 -0.8017
  988SOL    HW2 2964   2.421   2.030   1.698 -5.8434  0.9461  1.4352
  989SOL     OW 2965   1.184   2.477   0.037 -0.6855  0.0170  0.3131
  989SOL    HW1 2966   1.206   2.578   0.045 -2.4984  1.8862  0.6563
  989SOL    HW2 2967   1.199   2.427   0.121 -0.1642  2.1790 -0.8921
  990SOL     OW 2968   1.836   0.904   2.938 -0.5525 -0.2112  0.3221
  990SOL    HW1 2969   1.788   0.986   2.979 -1.6279  1.3034  1.6782
  990SOL    HW2 2970   1.781   0.822   2.959  0.2385  1.3083 -0.6676
  991SOL     OW 2971   1.220   0.249   0.508 -0.1421 -0.3497 -0.2952
  991SOL    HW1 2972   1.187   0.199   0.427  3.7034 -0.3848 -1.0114
  991SOL    HW2 2973   1.322   0.257   0.499  0.8640 -0.1460 -0.7716
  992SOL     OW 2974   2.865   1.215   1.491  0.4894  0.1769 -0.5167
  992SOL    HW1 2975   2.924   1.283   1.447 -1.7924 -0.4960  1.8776
  992SOL    HW2 2976   2.925   1.146   1.536  0.9556  0.2647  1.1900
  993SOL     OW 2977   2.838   0.898   1.570  0.3294 -0.0946 -0.2067
  993SOL    HW1 2978   2.844   0.824   1.639 -0.1933  0.0588 -0.0580
  993SOL    HW2 2979   2.920   0.902   1.514 -3.9823 -1.4302 -0.9654
  994SOL     OW 2980   0.480   2.135   2.668 -0.3095  0.2824 -0.2069
  994SOL    HW1 2981   0.448   2.222   2.720 -1.2833 -2.1879  1.3266
  994SOL    HW2 2982   0.434   2.056   2.709  1.6323 -0.1048  2.2093
  995SOL     OW 2983   1.934   1.012   2.697 -0.1965  0.4255  0.7027
  995SOL    HW1 2984   2.029   0.979   2.670  2.5346  0.2753  1.9654
  995SOL    HW2 2985   1.906   0.966   2.783  0.9235 -0.4047 -1.3027
  996SOL     OW 2986   2.555   1.691   0.587 -0.2000 -0.1750  0.1970
  996SOL    HW1 2987   2.646   1.696   0.637  0.6924  1.0991 -0.1004
  996SOL    HW2 2988   2.569   1.616   0.515 -2.4864  0.2969  0.1546
  997SOL     OW 2989   2.132   0.662   2.058 -0.2396  0.2812 -0.0993
  997SOL    HW1 2990   2.137   0.758   2.028 -1.5945  0.8544 -0.0457
  997SOL    HW2 2991   2.039   0.628   2.058  0.2867  0.4985  1.7592
  998SOL     OW 2992   2.582   1.098   0.251  0.6362 -0.3223 -0.3347
  998SOL    HW1 2993   2.498   1.098   0.196  2.1271  1.2368  0.5881
  998SOL    HW2 2994   2.629   1.191   0.244 -0.6932 -2.3035 -2.0008
  999SOL     OW 2995   0.083   2.027   0.442 -0.1260  0.1321 -0.3901
  999SOL    HW1 2996   0.061   1.925   0.437  0.2097 -0.6062  0.1218
  999SOL    HW2 2997   0.052   2.065   0.533  0.3779 -1.7246  0.1908
 1000SOL     OW 2998   0.823   0.759   2.602  0.0409  0.2327  0.4814
 1000SOL    HW1 2999   0.885   0.731   2.676  0.2449  0.4421 -1.3930
 1000SOL    HW2 3000   0.867   0.730   2.516  1.6781  0.3071 -2.1154
   3.11715   3.11715   3.11715
