1000 SPC/Fw water molecules t= 496.00000 step= 496000
 3000
    1SOL     OW    1   2.890   2.906   1.059 -0.8015  0.3940  0.7588
    1SOL    HW1    2   2.977   2.958   1.049 -1.1691 -1.8139 -1.8986
    1SOL    HW2    3   2.890   2.807   1.045  0.1389 -0.3653  3.2147
    2SOL     OW    4   2.877   2.522   2.883  0.2428  0.2734  0.0489
    2SOL    HW1    5   2.941   2.574   2.941 -0.8119 -1.0539 -1.4608
    2SOL    HW2    6   2.906   2.425   2.889 -0.3837 -0.2536  0.8285
    3SOL     OW    7   1.119   1.900   0.216  0.7831  0.6014  0.3783
    3SOL    HW1    8   1.102   1.838   0.296  2.2344  1.7631 -0.4673
    3SOL    HW2    9   1.150   1.987   0.258 -1.4393  1.0168  0.0353
    4SOL     OW   10   1.451   2.654   2.702 -0.1178 -0.1316  0.8432
    4SOL    HW1   11   1.473   2.723   2.629  3.3360 -2.1434  0.2055
    4SOL    HW2   12   1.536   2.622   2.746 -2.2874  0.0074 -0.1539
    5SOL     OW   13   1.880   0.114   3.048 -0.5787  0.1374 -0.6714
    5SOL    HW1   14   1.960   0.053   3.022  1.3901 -1.6459 -0.5154
    5SOL    HW2   15   1.905   0.168   0.021 -2.0832  0.4325 -4.6264
    6SOL     OW   16   3.083   1.468   0.894 -0.1639 -0.4695 -0.1539
    6SOL    HW1   17   3.090   1.382   0.951 -1.4842  0.2933  0.7327
    6SOL    HW2   18   0.034   1.467   0.811  0.7832  1.7329 -3.1193
    7SOL     OW   19   1.071   1.703   0.400 -0.4401  0.5379 -0.5003
    7SOL    HW1   20   1.067   1.639   0.325 -0.0505  2.2529  2.8437
    7SOL    HW2   21   1.138   1.673   0.473  3.3539 -1.7301 -0.6042
    8SOL     OW   22   0.217   0.636   0.252 -0.4267 -0.0790 -0.1880
    8SOL    HW1   23   0.200   0.553   0.305 -1.0058  2.0081  0.5078
    8SOL    HW2   24   0.192   0.715   0.310  2.8834 -0.6526 -2.0058
    9SOL     OW   25   0.149   2.729   1.659  0.0434 -0.1841  0.1366
    9SOL    HW1   26   0.137   2.809   1.723  2.0809 -0.3940 -0.1022
    9SOL    HW2   27   0.209   2.754   1.580  2.2599 -3.9155  1.0159
   10SOL     OW   28   1.457   1.737   0.280 -0.1005 -0.1946  0.3229
   10SOL    HW1   29   1.425   1.746   0.181  0.4659 -0.9571 -0.1307
   10SOL    HW2   30   1.435   1.816   0.342  0.3907  1.6813  0.8841
   11SOL     OW   31   1.988   0.316   1.646 -0.1629 -0.6833 -0.0573
   11SOL    HW1   32   2.032   0.379   1.578  2.2210 -1.4212  4.0846
   11SOL    HW2   33   1.891   0.338   1.654  1.2528 -0.3254 -0.6582
   12SOL     OW   34   0.222   0.758   2.268  0.8580 -0.0117  0.4543
   12SOL    HW1   35   0.196   0.721   2.359 -1.4698 -0.0058 -0.2768
   12SOL    HW2   36   0.234   0.680   2.203 -2.2071  0.2515 -0.7802
   13SOL     OW   37   2.118   0.396   0.328 -0.0113  0.0687 -0.8857
   13SOL    HW1   38   2.048   0.441   0.386 -2.1901  1.0777  0.9016
   13SOL    HW2   39   2.164   0.457   0.262 -2.6480  1.0416  3.3500
   14SOL     OW   40   2.249   2.438   3.030  0.3259  0.1013  0.1139
   14SOL    HW1   41   2.197   2.377   3.097  1.3344 -3.0415  1.1744
   14SOL    HW2   42   2.199   2.518   2.999  0.8989 -0.1891  0.4639
   15SOL     OW   43   2.675   3.064   0.093 -0.3687  0.5306 -0.3811
   15SOL    HW1   44   2.707   2.982   0.145 -1.3163  1.3552  1.0829
   15SOL    HW2   45   2.574   3.068   0.085  2.8617 -1.3523 -0.8887
   16SOL     OW   46   0.021   0.800   1.210  0.4875  0.0275 -0.4666
   16SOL    HW1   47   0.083   0.818   1.132 -3.1166 -1.6706  2.1480
   16SOL    HW2   48   0.070   0.756   1.291  1.2091 -1.5813  2.3459
   17SOL     OW   49   0.716   0.328   1.118 -0.0879 -0.6600 -0.3004
   17SOL    HW1   50   0.642   0.395   1.092  1.7754  4.1530  0.9111
   17SOL    HW2   51   0.780   0.305   1.041  1.0351 -1.0683  1.5950
   18SOL     OW   52   2.844   0.248   0.607  0.0810  0.0868  0.2898
   18SOL    HW1   53   2.858   0.151   0.634  1.8970  1.8885 -4.3547
   18SOL    HW2   54   2.918   0.286   0.543 -0.7596  1.3699 -0.4584
   19SOL     OW   55   2.099   1.926   0.969  0.1174 -0.0505 -0.1681
   19SOL    HW1   56   2.195   1.957   0.991 -3.9970 -1.8994  3.5070
   19SOL    HW2   57   2.074   1.835   1.009 -2.6917 -0.5614  2.0865
   20SOL     OW   58   2.126   1.606   2.250  0.0606  0.0016 -0.1768
   20SOL    HW1   59   2.171   1.653   2.333  0.5489  0.6982  2.6772
   20SOL    HW2   60   2.085   1.680   2.195 -0.7584  0.2998  1.1783
   21SOL     OW   61   1.055   0.304   0.308 -0.4652  0.2162 -0.6022
   21SOL    HW1   62   0.987   0.317   0.228 -2.1912  0.1234 -1.6007
   21SOL    HW2   63   1.152   0.343   0.288  0.9814 -0.9707 -1.6388
   22SOL     OW   64   2.121   0.990   0.000  0.4811 -0.0716 -0.1554
   22SOL    HW1   65   2.206   0.952   0.045  0.0460  1.2401  0.3117
   22SOL    HW2   66   2.068   0.932   3.041  0.2720  0.8106  0.1381
   23SOL     OW   67   0.146   0.228   2.213  0.0225 -0.2192  0.4610
   23SOL    HW1   68   0.172   0.128   2.232  4.2297  1.7700  3.8602
   23SOL    HW2   69   0.169   0.291   2.295 -0.1264  2.7640  4.6101
   24SOL     OW   70   2.239   2.411   0.995  0.4440 -0.1386 -0.0709
   24SOL    HW1   71   2.218   2.507   1.016 -1.0470 -1.7687  1.9786
   24SOL    HW2   72   2.169   2.352   1.039 -1.6049  0.6706 -4.1632
   25SOL     OW   73   1.538   0.297   0.128 -0.4809  0.2596  0.7965
   25SOL    HW1   74   1.577   0.203   0.151 -0.8346 -3.1530 -0.4108
   25SOL    HW2   75   1.615   0.364   0.108  0.0335  0.5729  1.0250
   26SOL     OW   76   1.276   2.721   2.892 -0.6063 -0.3659  0.1074
   26SOL    HW1   77   1.250   2.641   2.955 -0.9898 -1.3131 -0.0977
   26SOL    HW2   78   1.322   2.675   2.810 -2.7969 -2.8981 -1.8080
   27SOL     OW   79   0.839   0.743   1.343 -0.5242  0.4843  0.8849
   27SOL    HW1   80   0.831   0.641   1.329  1.2756 -0.1969  0.2413
   27SOL    HW2   81   0.799   0.783   1.424  0.0092 -2.0220  1.2341
   28SOL     OW   82   0.759   1.882   1.444 -0.0553 -0.0875  0.3142
   28SOL    HW1   83   0.810   1.867   1.356 -0.6404  3.3995 -0.9555
   28SOL    HW2   84   0.799   1.829   1.521 -0.9900  1.0914 -2.5399
   29SOL     OW   85   2.462   0.593   0.627  0.8141  0.1244 -0.2543
   29SOL    HW1   86   2.540   0.624   0.567  0.7097 -0.3267  1.7886
   29SOL    HW2   87   2.489   0.555   0.718  0.6527 -1.0667  0.0229
   30SOL     OW   88   1.539   0.149   1.688 -0.3083  0.4129 -0.0833
   30SOL    HW1   89   1.447   0.168   1.709  2.8495  0.5528 -1.3389
   30SOL    HW2   90   1.547   0.090   1.603  0.2671  0.8450 -0.7350
   31SOL     OW   91   1.034   0.277   1.223  0.2006 -0.2838 -0.1850
   31SOL    HW1   92   1.069   0.371   1.255  4.3661  2.6419  2.8038
   31SOL    HW2   93   0.950   0.252   1.276 -1.8903  0.3835  1.1207
   32SOL     OW   94   2.284   0.946   2.225 -0.1761 -0.2241  0.2486
   32SOL    HW1   95   2.359   1.005   2.250 -4.3863 -0.2703 -1.2359
   32SOL    HW2   96   2.307   0.857   2.189 -2.2989  3.0423  0.4656
   33SOL     OW   97   2.446   2.696   2.858 -0.2263  0.2752 -0.0972
   33SOL    HW1   98   2.494   2.637   2.925  0.2592 -1.1612 -1.0924
   33SOL    HW2   99   2.399   2.636   2.794 -1.6331  1.5048 -0.8564
   34SOL     OW  100   1.949   0.949   0.217  0.1624  0.4985  0.3345
   34SOL    HW1  101   1.994   1.002   0.292  2.9878  0.3140  0.9219
   34SOL    HW2  102   1.992   0.985   0.131  1.8288  0.0557 -0.8182
   35SOL     OW  103   2.811   0.974   1.123  0.5030 -0.2965 -0.2429
   35SOL    HW1  104   2.857   0.903   1.070  0.0494  2.0838  1.3469
   35SOL    HW2  105   2.855   1.071   1.120  0.4747  4.2413  0.3661
   36SOL     OW  106   2.085   2.387   2.592 -0.2241  0.0648 -0.1934
   36SOL    HW1  107   2.036   2.359   2.508  1.1602  1.2882  0.4837
   36SOL    HW2  108   2.184   2.371   2.582  1.3250 -1.2296  0.8456
   37SOL     OW  109   1.821   0.028   2.253 -0.3713 -0.4473  0.4536
   37SOL    HW1  110   1.819   3.071   2.177 -0.1796  0.9388  1.1009
   37SOL    HW2  111   1.917   0.064   2.264 -0.8618 -0.0347 -1.9817
   38SOL     OW  112   1.173   1.712   2.410  0.3198  0.0864 -0.4168
   38SOL    HW1  113   1.173   1.703   2.513 -1.0056 -1.6311  1.9591
   38SOL    HW2  114   1.203   1.800   2.374  0.7954 -1.6947 -0.3793
   39SOL     OW  115   1.740   0.376   1.665 -0.1786  0.3339 -0.1670
   39SOL    HW1  116   1.698   0.444   1.599 -2.7454 -1.8425 -1.3030
   39SOL    HW2  117   1.681   0.292   1.663  0.8529  0.8841 -1.7571
   40SOL     OW  118   0.764   2.058   0.493 -0.4601  0.4378  0.3511
   40SOL    HW1  119   0.683   2.074   0.430  1.2915 -0.6859  0.1700
   40SOL    HW2  120   0.748   2.106   0.581 -2.2975  0.4915  1.3258
   41SOL     OW  121   2.409   2.378   1.272 -0.4254 -0.2735 -0.0375
   41SOL    HW1  122   2.426   2.475   1.284 -3.2650 -2.8212  1.5415
   41SOL    HW2  123   2.478   2.353   1.201 -0.5179  0.0358  2.1396
   42SOL     OW  124   2.547   2.643   0.453  0.3250 -0.0517  0.3829
   42SOL    HW1  125   2.478   2.719   0.468 -3.0788  5.1286 -1.1408
   42SOL    HW2  126   2.509   2.558   0.417  2.2658  1.0222 -1.1945
   43SOL     OW  127   0.852   1.909   1.909  0.0870 -0.3106 -0.5530
   43SOL    HW1  128   0.893   1.999   1.930 -1.4285 -2.9127 -1.3563
   43SOL    HW2  129   0.919   1.839   1.950  0.7762 -1.0180 -0.8874
   44SOL     OW  130   1.779   2.962   1.267  0.0719 -0.4551 -0.0204
   44SOL    HW1  131   1.801   3.061   1.282 -2.0228 -0.7576  1.4812
   44SOL    HW2  132   1.679   2.940   1.274  1.0094  0.6866 -0.0392
   45SOL     OW  133   0.026   2.414   2.412 -0.0758  0.3656  0.1915
   45SOL    HW1  134   0.007   2.363   2.493  2.9388  0.5910 -3.1379
   45SOL    HW2  135   0.020   2.512   2.434  0.0621  1.1479  0.7556
   46SOL     OW  136   0.927   2.772   1.927 -0.4578  0.0715  0.1669
   46SOL    HW1  137   0.839   2.743   1.972 -1.7088 -0.9209  1.4765
   46SOL    HW2  138   0.915   2.801   1.832  0.4748 -4.2176 -0.2364
   47SOL     OW  139   0.359   2.101   0.809  0.0941  0.3895  0.0834
   47SOL    HW1  140   0.405   2.086   0.722  1.1985  2.4242  0.4212
   47SOL    HW2  141   0.260   2.092   0.791  0.3670 -0.7689 -0.0813
   48SOL     OW  142   0.819   2.843   1.688  0.0012  0.9487 -0.6955
   48SOL    HW1  143   0.737   2.808   1.735  1.2197  1.4000 -0.2733
   48SOL    HW2  144   0.823   2.946   1.692 -1.5287 -1.7660 -0.0533
   49SOL     OW  145   0.505   2.915   0.008  0.0641  0.0661  0.1076
   49SOL    HW1  146   0.438   2.974   3.064 -0.3430  3.7505  1.5155
   49SOL    HW2  147   0.579   2.879   3.058 -0.1566  0.7513 -0.9058
   50SOL     OW  148   1.563   1.073   0.768 -0.3992 -0.2904 -0.2767
   50SOL    HW1  149   1.470   1.028   0.773 -1.0322 -0.7410 -1.2651
   50SOL    HW2  150   1.629   1.017   0.820 -1.0825 -2.8800 -0.4244
   51SOL     OW  151   1.799   3.041   1.000  0.0769 -0.0802 -0.0703
   51SOL    HW1  152   1.724   3.021   0.936  0.9508  1.4580  0.0450
   51SOL    HW2  153   1.777   2.995   1.094 -1.3194 -0.3891 -0.7740
   52SOL     OW  154   0.740   1.516   1.188  0.3244  0.1508  0.1238
   52SOL    HW1  155   0.783   1.449   1.253 -2.7051  0.6720 -0.1169
   52SOL    HW2  156   0.681   1.470   1.119  1.1855  0.2881 -0.2213
   53SOL     OW  157   0.098   0.709   2.808  0.0515  0.3052 -0.3399
   53SOL    HW1  158   0.093   0.689   2.910 -0.0909  0.9329 -0.3792
   53SOL    HW2  159   3.109   0.703   2.776  2.0471  1.9958  1.2851
   54SOL     OW  160   2.138   2.027   2.795  0.5475  0.0268 -0.3148
   54SOL    HW1  161   2.111   2.045   2.892  0.8243  0.7688 -1.5154
   54SOL    HW2  162   2.237   2.040   2.780 -0.0517  1.4700  1.1855
   55SOL     OW  163   2.804   2.176   1.381 -0.0476  0.3962 -0.3319
   55SOL    HW1  164   2.760   2.269   1.373 -1.3100  3.0528 -0.7068
   55SOL    HW2  165   2.741   2.117   1.440  2.7953  0.6727  0.6263
   56SOL     OW  166   1.810   1.137   1.452  0.5903 -0.0452  0.2263
   56SOL    HW1  167   1.908   1.173   1.428  1.3652 -0.2490  1.0402
   56SOL    HW2  168   1.740   1.214   1.472 -1.1399  2.2293 -0.9872
   57SOL     OW  169   2.446   1.941   0.815  0.3925 -0.3492  0.6408
   57SOL    HW1  170   2.435   1.954   0.915 -1.7587  0.7855  1.6776
   57SOL    HW2  171   2.541   1.949   0.782  2.4097 -0.4414  0.1984
   58SOL     OW  172   2.050   0.168   2.260 -0.0521  0.2289 -0.2021
   58SOL    HW1  173   2.127   0.191   2.321  0.2935  0.4389  0.3206
   58SOL    HW2  174   2.080   0.108   2.186 -0.9997  3.3869  1.8307
   59SOL     OW  175   1.508   0.383   2.374  0.4298 -0.0052  0.0835
   59SOL    HW1  176   1.564   0.302   2.390 -0.0050  0.9204 -1.1073
   59SOL    HW2  177   1.558   0.460   2.330 -0.4180  0.3140 -1.5401
   60SOL     OW  178   1.893   1.905   3.071  0.2549  0.0574 -0.2814
   60SOL    HW1  179   1.883   1.812   3.030 -0.2447  0.5711 -0.7222
   60SOL    HW2  180   1.816   1.958   3.033 -1.1830  0.7080 -3.4247
   61SOL     OW  181   0.498   2.105   0.031 -0.0504 -0.2463 -0.3287
   61SOL    HW1  182   0.544   2.031   3.086  0.5839 -1.4858  1.7067
   61SOL    HW2  183   0.395   2.099   0.030 -0.5355  1.0497  1.1065
   62SOL     OW  184   1.551   2.596   1.213  0.4821 -0.0346  0.2771
   62SOL    HW1  185   1.524   2.495   1.210  2.2803 -0.2212 -1.1925
   62SOL    HW2  186   1.535   2.644   1.304  1.9379 -2.0957 -0.2017
   63SOL     OW  187   0.403   1.907   0.596  0.0939  0.0554 -0.6483
   63SOL    HW1  188   0.466   1.830   0.587  1.1573 -1.0148 -0.5829
   63SOL    HW2  189   0.419   1.988   0.536 -4.3488  1.4218  1.4809
   64SOL     OW  190   1.846   1.834   2.680 -0.1886  0.7709  0.0477
   64SOL    HW1  191   1.932   1.800   2.725  0.9540 -0.9945 -0.1407
   64SOL    HW2  192   1.857   1.822   2.581  1.2237  0.1849 -0.4349
   65SOL     OW  193   2.072   2.115   1.370  0.0188 -0.2241  0.2159
   65SOL    HW1  194   1.976   2.115   1.334 -2.2774  0.0203 -0.0175
   65SOL    HW2  195   2.107   2.019   1.385 -1.5950 -0.0079 -1.4002
   66SOL     OW  196   2.579   0.167   0.561 -0.6883 -0.6573  0.4372
   66SOL    HW1  197   2.673   0.201   0.578 -1.9433 -1.0726 -2.1908
   66SOL    HW2  198   2.518   0.194   0.635  1.1643  1.3320 -2.8632
   67SOL     OW  199   2.217   2.682   1.055 -0.1871 -0.6438  0.5474
   67SOL    HW1  200   2.131   2.700   1.110 -1.5540 -1.2936  0.7250
   67SOL    HW2  201   2.235   2.748   0.979  0.5037 -1.3371 -1.5134
   68SOL     OW  202   2.759   2.639   1.513 -0.6235  0.3490 -0.2159
   68SOL    HW1  203   2.661   2.653   1.557 -1.4439  1.1821  2.4839
   68SOL    HW2  204   2.777   2.711   1.440 -3.6132  0.8214 -1.4200
   69SOL     OW  205   2.655   2.573   3.026  0.2804  0.0458  0.4500
   69SOL    HW1  206   2.741   2.561   2.973  0.2063  0.6423  0.9374
   69SOL    HW2  207   2.677   2.565   0.011  2.0269 -3.8754 -2.4347
   70SOL     OW  208   1.262   1.951   2.281 -0.5912  0.3239  0.0487
   70SOL    HW1  209   1.212   2.037   2.304  0.5964 -3.2880  0.3363
   70SOL    HW2  210   1.358   1.962   2.318 -1.2877  0.0648  0.2610
   71SOL     OW  211   1.221   2.155   1.841 -0.8213 -0.2301  0.1416
   71SOL    HW1  212   1.125   2.177   1.873 -1.7266  0.7680 -0.2767
   71SOL    HW2  213   1.273   2.238   1.870 -2.0905 -2.8460  1.6004
   72SOL     OW  214   2.639   1.162   1.474  0.0483  0.3840  0.1726
   72SOL    HW1  215   2.740   1.161   1.498 -0.7471  0.0674  2.3829
   72SOL    HW2  216   2.580   1.108   1.543  0.3029 -3.3118 -0.5809
   73SOL     OW  217   0.523   2.123   2.329  0.4704 -0.1891 -0.8318
   73SOL    HW1  218   0.588   2.092   2.255 -1.8401  0.1763 -4.4715
   73SOL    HW2  219   0.432   2.153   2.294 -0.4383 -0.4410 -0.9223
   74SOL     OW  220   0.884   0.163   2.544 -0.3982  0.3534 -0.2076
   74SOL    HW1  221   0.935   0.077   2.554 -0.1451  1.8081 -4.0061
   74SOL    HW2  222   0.918   0.215   2.466 -1.1684 -0.2052  3.2298
   75SOL     OW  223   1.088   2.866   0.700 -0.1213  0.1019  0.0953
   75SOL    HW1  224   1.189   2.888   0.708  2.0212  0.5895 -1.3734
   75SOL    HW2  225   1.070   2.827   0.609 -1.2774  3.6683 -0.2017
   76SOL     OW  226   0.405   1.229   2.496  0.4566 -0.2528  0.2739
   76SOL    HW1  227   0.488   1.227   2.553 -1.7800 -0.4885 -1.5533
   76SOL    HW2  228   0.321   1.235   2.553 -0.9223  0.6938 -1.7976
   77SOL     OW  229   0.714   2.615   0.671 -0.3936  0.4534 -0.2650
   77SOL    HW1  230   0.704   2.584   0.768  1.8295  0.1978  2.2265
   77SOL    HW2  231   0.751   2.713   0.672 -0.0946  1.6330 -0.6778
   78SOL     OW  232   2.611   0.969   2.739 -0.1228  0.2641 -0.1119
   78SOL    HW1  233   2.602   0.887   2.802  1.7228 -1.6775 -0.5515
   78SOL    HW2  234   2.542   1.036   2.759 -0.0425 -2.5288  0.6798
   79SOL     OW  235   0.905   1.598   2.257  0.0539  0.2045 -0.1478
   79SOL    HW1  236   0.998   1.608   2.302 -2.2303 -1.1437  0.9198
   79SOL    HW2  237   0.899   1.652   2.169  1.7820  0.4541 -1.4498
   80SOL     OW  238   2.320   1.104   1.441 -0.2290 -0.1291  0.2788
   80SOL    HW1  239   2.320   1.050   1.354 -0.8566 -0.9542 -0.8005
   80SOL    HW2  240   2.381   1.056   1.511  1.6504 -1.9093 -1.7013
   81SOL     OW  241   2.177   1.088   2.629  0.0661 -0.0171 -0.1359
   81SOL    HW1  242   2.084   1.097   2.664  1.3297 -0.2696 -0.5592
   81SOL    HW2  243   2.194   0.996   2.586  1.2874 -0.0880 -1.2352
   82SOL     OW  244   2.434   1.908   1.444  0.0220 -0.1999 -0.7390
   82SOL    HW1  245   2.440   1.994   1.394  0.4746 -2.6086 -0.3314
   82SOL    HW2  246   2.346   1.872   1.439  3.4943  0.1909 -2.1688
   83SOL     OW  247   1.695   3.028   0.656 -0.1921 -0.4191  0.5663
   83SOL    HW1  248   1.634   3.082   0.713  1.1233 -0.7895 -3.4308
   83SOL    HW2  249   1.656   3.033   0.564  0.2845  0.3424  2.7536
   84SOL     OW  250   0.892   0.397   0.607 -0.1399 -0.4739 -0.7298
   84SOL    HW1  251   0.979   0.346   0.605  0.4177 -0.1217 -0.0691
   84SOL    HW2  252   0.867   0.424   0.701 -1.9722  2.4972  0.1937
   85SOL     OW  253   2.497   1.686   1.115  0.3707 -0.2906 -0.3150
   85SOL    HW1  254   2.588   1.725   1.105 -3.7310 -1.2461 -1.3576
   85SOL    HW2  255   2.494   1.596   1.160  0.1287  2.3808 -3.1380
   86SOL     OW  256   0.465   0.663   1.142  0.3616  0.3934  0.1330
   86SOL    HW1  257   0.473   0.681   1.240 -0.5736  1.9709 -1.4147
   86SOL    HW2  258   0.370   0.695   1.111 -0.7957 -2.0552 -1.5486
   87SOL     OW  259   0.053   1.893   2.515  0.0309 -0.4078  0.8640
   87SOL    HW1  260   0.115   1.880   2.434 -0.9465 -0.8925  3.1146
   87SOL    HW2  261   0.023   1.804   2.552 -0.7745  0.1773  3.5743
   88SOL     OW  262   0.373   3.036   2.923 -0.1499 -0.4048  0.4121
   88SOL    HW1  263   0.455   3.071   2.870  2.2015 -3.2789 -2.3322
   88SOL    HW2  264   0.295   3.016   2.862  1.3109 -0.4438 -0.1303
   89SOL     OW  265   1.471   0.681   1.177 -0.7903 -0.3528  0.3640
   89SOL    HW1  266   1.499   0.778   1.157 -0.1877 -1.1726 -1.5439
   89SOL    HW2  267   1.480   0.659   1.271  1.2119 -1.0760 -2.4410
   90SOL     OW  268   0.001   1.059   1.727  0.3652  0.3072 -0.3327
   90SOL    HW1  269   0.042   1.004   1.647  0.2071 -1.9301  0.8530
   90SOL    HW2  270   3.054   1.005   1.793  1.1921 -0.9955  3.0903
   91SOL     OW  271   1.940   2.517   0.684  0.4101  0.2940 -0.2137
   91SOL    HW1  272   2.004   2.452   0.636  2.0662 -0.1597 -2.2912
   91SOL    HW2  273   1.884   2.472   0.762 -0.3161  2.1298  0.2814
   92SOL     OW  274   1.863   2.133   0.613 -0.8007 -0.0891 -0.4824
   92SOL    HW1  275   1.933   2.204   0.580  0.5564  2.0080 -3.9183
   92SOL    HW2  276   1.774   2.177   0.627  0.2927 -0.9122 -0.4813
   93SOL     OW  277   0.298   1.314   0.164  0.5694  0.2629  0.1565
   93SOL    HW1  278   0.287   1.224   0.214  0.8482  0.6064  0.5996
   93SOL    HW2  279   0.290   1.390   0.230 -2.2839 -0.7940 -1.3042
   94SOL     OW  280   0.841   2.045   1.078 -0.1930  0.2427  0.1647
   94SOL    HW1  281   0.916   2.110   1.093 -2.0623  2.8872 -2.3333
   94SOL    HW2  282   0.757   2.088   1.121 -2.0363 -1.2624  2.2021
   95SOL     OW  283   0.444   0.961   0.171  0.1637  0.3993 -0.3024
   95SOL    HW1  284   0.531   0.968   0.119  0.3524  1.3845 -1.9366
   95SOL    HW2  285   0.440   0.871   0.222 -1.8115 -1.4443  1.2708
   96SOL     OW  286   1.313   2.563   2.335 -0.5534 -0.6969  0.7834
   96SOL    HW1  287   1.354   2.639   2.281  0.1706  3.2105 -0.5420
   96SOL    HW2  288   1.276   2.494   2.273  2.3547 -0.1781  0.6413
   97SOL     OW  289   2.561   0.982   0.409  0.0381 -0.6284  0.1528
   97SOL    HW1  290   2.478   1.021   0.366  0.3686 -0.9541 -2.2244
   97SOL    HW2  291   2.644   1.024   0.367 -0.0896  1.1779  0.7079
   98SOL     OW  292   0.283   1.945   1.872 -0.3266 -0.0567  0.3673
   98SOL    HW1  293   0.307   2.004   1.791  0.3876  2.0726 -4.0207
   98SOL    HW2  294   0.348   1.956   1.954  1.7938 -0.5469 -0.7253
   99SOL     OW  295   0.210   0.764   1.871 -0.4430  0.4230 -0.3791
   99SOL    HW1  296   0.278   0.715   1.930  1.0309  0.4963  1.8871
   99SOL    HW2  297   0.253   0.845   1.828 -1.2580 -0.4174 -0.3773
  100SOL     OW  298   1.927   0.743   2.460  0.2579 -0.4417  0.0310
  100SOL    HW1  299   1.919   0.722   2.363  1.2061 -1.9463  1.9015
  100SOL    HW2  300   1.845   0.792   2.488  4.7774  1.1441 -0.5230
  101SOL     OW  301   0.807   0.422   2.077 -0.4777 -0.0995  0.3586
  101SOL    HW1  302   0.892   0.452   2.128  0.4424  1.4474 -0.5582
  101SOL    HW2  303   0.736   0.383   2.139  0.1041  0.8496 -1.6326
  102SOL     OW  304   0.227   0.296   1.573  0.7931 -0.8305 -0.6332
  102SOL    HW1  305   0.309   0.278   1.627  0.9299  0.3833 -3.4601
  102SOL    HW2  306   0.143   0.312   1.629  0.1067  0.7920 -0.2419
  103SOL     OW  307   0.369   0.605   0.019  0.0959  0.1986 -0.2181
  103SOL    HW1  308   0.305   0.623   0.096  2.0181 -1.1587 -1.3479
  103SOL    HW2  309   0.430   0.679   3.108 -1.8009 -0.5816  0.1422
  104SOL     OW  310   0.600   2.782   1.801 -0.2835  0.6097  0.5990
  104SOL    HW1  311   0.534   2.720   1.756  2.1450 -0.9534  1.1828
  104SOL    HW2  312   0.629   2.743   1.891  0.9778 -0.5202  0.4871
  105SOL     OW  313   2.542   2.845   2.077  0.1704  0.1027  0.0428
  105SOL    HW1  314   2.640   2.835   2.096 -2.0223  0.7465 -1.2298
  105SOL    HW2  315   2.508   2.937   2.054  0.4087 -1.7544  1.5456
  106SOL     OW  316   0.497   3.019   0.771 -0.3366 -0.6453 -0.4580
  106SOL    HW1  317   0.537   3.100   0.825  0.9813 -2.5839 -2.8585
  106SOL    HW2  318   0.508   3.030   0.672 -1.6268  4.8243 -2.0711
  107SOL     OW  319   0.014   1.229   1.047  0.4158 -0.1870 -0.2033
  107SOL    HW1  320   3.034   1.241   1.100 -0.6646  0.1080 -1.1235
  107SOL    HW2  321   0.097   1.250   1.103 -1.6213  0.9102 -0.7712
  108SOL     OW  322   0.243   2.501   1.180  0.6574 -0.2020 -0.1297
  108SOL    HW1  323   0.202   2.471   1.094 -0.2257 -1.7618  3.3654
  108SOL    HW2  324   0.272   2.424   1.239 -0.3671  1.3915  1.7698
  109SOL     OW  325   1.210   2.899   0.157 -0.0396  0.2106  0.3007
  109SOL    HW1  326   1.276   2.899   0.079  1.6694  0.9878  0.8580
  109SOL    HW2  327   1.230   2.818   0.215 -0.1217  3.6571  2.4209
  110SOL     OW  328   1.366   1.914   0.488 -0.8711 -0.0659  0.4555
  110SOL    HW1  329   1.368   1.991   0.426  0.8586 -1.8300 -0.3399
  110SOL    HW2  330   1.295   1.931   0.559 -3.4091 -1.7798  2.8013
  111SOL     OW  331   1.856   2.840   2.068  0.2211  0.5318  0.5726
  111SOL    HW1  332   1.856   2.796   1.972 -0.8516 -2.7101 -2.8888
  111SOL    HW2  333   1.949   2.866   2.093 -1.0597 -1.2161 -1.1289
  112SOL     OW  334   1.983   2.607   2.683  0.2996 -0.0948  0.2707
  112SOL    HW1  335   2.030   2.518   2.659  1.9643  0.4838 -0.3844
  112SOL    HW2  336   1.924   2.643   2.608  0.1501 -0.1865 -1.0847
  113SOL     OW  337   2.599   1.996   2.099 -0.0062  0.1003 -0.1136
  113SOL    HW1  338   2.605   2.102   2.115 -0.9394  0.0475  1.2670
  113SOL    HW2  339   2.576   1.972   2.002 -0.1416  2.1278  1.2261
  114SOL     OW  340   0.100   1.321   1.720  0.6264 -0.1105  0.0898
  114SOL    HW1  341   0.067   1.224   1.742  1.4914 -0.5806 -0.8658
  114SOL    HW2  342   0.045   1.402   1.755  1.8306  1.2210 -1.0743
  115SOL     OW  343   0.084   0.689   3.068  0.8594  0.4229  0.1943
  115SOL    HW1  344   0.003   0.687   0.016  0.2539 -1.1578 -0.9947
  115SOL    HW2  345   0.152   0.758   3.101 -1.3811  2.3979  0.0864
  116SOL     OW  346   2.740   0.335   2.982 -0.1971 -0.3306 -0.3483
  116SOL    HW1  347   2.705   0.406   2.914  0.5711  2.1154 -0.0278
  116SOL    HW2  348   2.806   0.275   2.933  2.3114  0.8507 -0.8004
  117SOL     OW  349   3.000   2.660   0.633  0.0538  0.1555 -0.2764
  117SOL    HW1  350   3.058   2.589   0.593  1.3628  1.2520  0.4576
  117SOL    HW2  351   2.903   2.634   0.638  3.4101  2.5497 -0.9620
  118SOL     OW  352   1.214   2.373   2.148  0.8600 -0.6743 -0.2830
  118SOL    HW1  353   1.278   2.375   2.067  0.5176  0.0322  0.1255
  118SOL    HW2  354   1.118   2.372   2.108 -0.3452 -1.0823  0.2188
  119SOL     OW  355   0.573   2.668   2.946 -0.0660 -0.1596  0.6578
  119SOL    HW1  356   0.664   2.625   2.974  2.1676  0.4701 -3.1003
  119SOL    HW2  357   0.497   2.654   3.011  0.9010  2.8319 -0.7083
  120SOL     OW  358   1.320   0.965   3.075 -0.1295  0.3626  0.3040
  120SOL    HW1  359   1.304   0.885   0.028  1.3701  1.4140 -2.9921
  120SOL    HW2  360   1.239   1.026   3.072 -0.8052  3.7355  1.2089
  121SOL     OW  361   1.457   1.169   1.155 -0.3955 -0.1908  0.1826
  121SOL    HW1  362   1.458   1.195   1.253  0.6787  0.7225  0.1105
  121SOL    HW2  363   1.467   1.255   1.098  0.7648  2.7974  1.8642
  122SOL     OW  364   1.895   1.237   2.141  0.3245 -0.4080 -0.6447
  122SOL    HW1  365   1.814   1.206   2.083 -0.7293 -0.8750  2.1893
  122SOL    HW2  366   1.941   1.159   2.187  1.1315  1.9337  0.0179
  123SOL     OW  367   2.945   0.705   0.483 -0.2153 -0.0415 -0.0853
  123SOL    HW1  368   2.959   0.800   0.514  1.4131 -0.7937  1.0317
  123SOL    HW2  369   3.013   0.644   0.530  2.4508  3.2557 -2.4244
  124SOL     OW  370   0.741   0.610   2.905 -0.0406 -0.3875 -0.4650
  124SOL    HW1  371   0.660   0.599   2.970 -0.8886  0.7935  0.5316
  124SOL    HW2  372   0.718   0.567   2.816  0.7436 -0.7208  0.5922
  125SOL     OW  373   0.542   2.941   2.544  0.0302 -0.2371  0.0728
  125SOL    HW1  374   0.521   3.002   2.624  0.5042 -0.4633  0.8912
  125SOL    HW2  375   0.574   2.852   2.575  0.2634  2.3806  1.9215
  126SOL     OW  376   0.791   1.420   2.634 -0.1447  0.6579  0.3518
  126SOL    HW1  377   0.893   1.403   2.645  3.3945 -3.0891 -0.9618
  126SOL    HW2  378   0.782   1.512   2.588  2.1699 -2.1376  0.3498
  127SOL     OW  379   1.222   3.017   1.219 -0.4049  0.7731  0.2136
  127SOL    HW1  380   1.168   3.017   1.306 -1.0306 -2.3807  2.1394
  127SOL    HW2  381   1.166   3.012   1.135  1.3390  1.2728 -0.4111
  128SOL     OW  382   1.618   2.284   0.290  0.3934 -0.2049  0.4710
  128SOL    HW1  383   1.576   2.258   0.199  3.2573 -0.2796  0.4705
  128SOL    HW2  384   1.590   2.374   0.328  0.2088  0.2128 -1.2299
  129SOL     OW  385   1.912   1.666   1.207 -0.1894 -0.6555  0.6145
  129SOL    HW1  386   2.000   1.660   1.157  3.2101  0.9247  1.2119
  129SOL    HW2  387   1.833   1.641   1.141 -0.8450 -3.7860 -0.2091
  130SOL     OW  388   2.105   1.841   1.376  0.0086  0.3139 -0.0844
  130SOL    HW1  389   2.131   1.763   1.434 -1.3692  3.7047 -3.1171
  130SOL    HW2  390   2.028   1.809   1.315 -0.3586 -2.8308  0.2095
  131SOL     OW  391   1.230   2.925   2.168 -0.2631  0.1576  0.4156
  131SOL    HW1  392   1.310   2.863   2.155  0.0547  1.4721  0.1436
  131SOL    HW2  393   1.139   2.875   2.159 -3.2222  0.4401  1.5382
  132SOL     OW  394   2.700   1.668   0.702  0.1407 -0.3281 -0.2507
  132SOL    HW1  395   2.671   1.709   0.615 -0.3474  1.6442  1.0338
  132SOL    HW2  396   2.620   1.666   0.766 -0.0712 -0.5506 -0.3200
  133SOL     OW  397   0.694   1.534   1.699  0.1364 -0.0564 -0.1975
  133SOL    HW1  398   0.671   1.514   1.796  2.2880 -2.0456 -0.9601
  133SOL    HW2  399   0.655   1.621   1.663 -0.4060  3.0634 -0.0863
  134SOL     OW  400   2.980   0.949   0.607  0.1653  0.0161  0.0307
  134SOL    HW1  401   2.977   1.036   0.557 -0.1112 -0.0049  0.2704
  134SOL    HW2  402   2.965   0.958   0.704 -2.7206  1.6080 -5.1020
  135SOL     OW  403   2.150   1.905   0.001 -0.1548 -0.1508  0.1461
  135SOL    HW1  404   2.168   1.804   0.014  0.9287 -1.1469 -1.1293
  135SOL    HW2  405   2.049   1.914   3.096 -2.0318  0.5651  0.1980
  136SOL     OW  406   2.880   1.422   1.401  0.0121 -0.0823 -0.3172
  136SOL    HW1  407   2.902   1.350   1.469 -2.0204  0.1571 -2.3508
  136SOL    HW2  408   2.785   1.451   1.425  0.4762 -1.2231  1.6952
  137SOL     OW  409   2.401   1.153   2.770  0.0993  0.0736 -0.3199
  137SOL    HW1  410   2.322   1.117   2.713 -2.2110 -1.5560 -5.2002
  137SOL    HW2  411   2.362   1.169   2.863 -0.2224 -0.0485  0.7513
  138SOL     OW  412   0.092   0.525   0.982  0.0998 -0.6603 -0.3136
  138SOL    HW1  413   0.016   0.557   0.921  3.4556  0.0848 -1.2276
  138SOL    HW2  414   0.061   0.519   1.078 -0.0809 -0.7131  0.7013
  139SOL     OW  415   1.858   2.290   0.113 -0.0199 -0.3346 -0.7832
  139SOL    HW1  416   1.782   2.272   0.185 -0.2555  0.4381  1.6077
  139SOL    HW2  417   1.837   2.239   0.028  1.7061  1.6741  0.1344
  140SOL     OW  418   0.782   1.220   1.106 -0.0552 -0.2933 -0.2622
  140SOL    HW1  419   0.792   1.266   1.197 -2.2606 -0.4079  2.6537
  140SOL    HW2  420   0.722   1.271   1.041 -3.0351 -0.4081  2.8312
  141SOL     OW  421   1.424   1.724   0.840  0.2373  0.0585 -0.4292
  141SOL    HW1  422   1.414   1.622   0.822  0.1746  1.3196 -0.7425
  141SOL    HW2  423   1.493   1.764   0.774  1.4848 -0.1877  0.8466
  142SOL     OW  424   0.971   0.924   1.137 -0.0566 -0.1073  0.3617
  142SOL    HW1  425   0.903   0.916   1.059 -0.2289  1.9552  0.0059
  142SOL    HW2  426   0.937   0.863   1.214 -4.0317 -2.6529  0.8846
  143SOL     OW  427   0.345   0.237   2.568  0.1841  0.4533  0.4176
  143SOL    HW1  428   0.444   0.218   2.561  1.6845 -0.7079 -0.7334
  143SOL    HW2  429   0.315   0.287   2.650 -2.4048  1.2255 -0.2512
  144SOL     OW  430   2.208   0.145   0.415 -0.0036  0.1627 -0.1428
  144SOL    HW1  431   2.298   0.131   0.374 -2.3936  2.1427  0.8628
  144SOL    HW2  432   2.170   0.232   0.379  3.4442  1.0428 -1.0001
  145SOL     OW  433   2.085   3.039   2.952 -0.0756  0.1430  0.3648
  145SOL    HW1  434   2.077   3.056   2.849  0.1362  1.4641 -0.7718
  145SOL    HW2  435   2.142   2.956   2.969  1.1470  0.9817  2.0252
  146SOL     OW  436   0.045   2.972   0.327 -0.2557  0.2743  0.7286
  146SOL    HW1  437   0.144   2.984   0.316 -0.6640  0.5026  0.8994
  146SOL    HW2  438   3.102   2.920   0.251 -2.4953 -0.7469 -0.7608
  147SOL     OW  439   2.052   1.172   0.424 -0.2308  0.7096  0.0490
  147SOL    HW1  440   2.013   1.213   0.512  0.7417 -0.9695  2.3906
  147SOL    HW2  441   2.018   1.222   0.344  1.2572 -1.5893  0.5261
  148SOL     OW  442   1.031   2.775   0.457  0.0198  0.0876  0.3106
  148SOL    HW1  443   1.056   2.870   0.425  1.4536 -0.6188 -0.5121
  148SOL    HW2  444   0.954   2.729   0.406 -0.6364  2.0367 -0.7632
  149SOL     OW  445   1.307   0.735   2.420 -0.4756 -0.0723  0.6541
  149SOL    HW1  446   1.216   0.717   2.450  3.2936  0.7542 -0.9762
  149SOL    HW2  447   1.373   0.704   2.493 -0.0365 -0.5802  1.4838
  150SOL     OW  448   1.218   2.951   2.652 -0.5061 -0.5820 -0.2375
  150SOL    HW1  449   1.288   2.925   2.588 -1.4559  0.7921  2.9424
  150SOL    HW2  450   1.251   2.952   2.747 -2.4375 -0.6023 -0.5548
  151SOL     OW  451   0.346   1.003   2.903 -0.1182  0.8764  0.4961
  151SOL    HW1  452   0.418   0.934   2.862  0.9690 -1.3740 -2.4768
  151SOL    HW2  453   0.314   0.968   2.995  1.2150  3.1839  3.6382
  152SOL     OW  454   0.568   0.191   1.437 -0.6172  0.0819  0.3539
  152SOL    HW1  455   0.534   0.213   1.529  2.5264 -0.3403 -1.4599
  152SOL    HW2  456   0.496   0.142   1.380 -0.9920  0.0695 -1.0657
  153SOL     OW  457   2.796   3.051   1.524  0.3232 -0.1518 -0.0598
  153SOL    HW1  458   2.792   3.008   1.616 -1.8533 -3.0579  1.2974
  153SOL    HW2  459   2.875   0.002   1.523 -2.4576 -0.7882  0.9360
  154SOL     OW  460   2.420   0.261   2.069 -0.0722 -0.1828  0.5832
  154SOL    HW1  461   2.410   0.277   1.969 -1.0615 -0.5035 -1.1679
  154SOL    HW2  462   2.405   0.340   2.130 -0.4535  0.9800 -0.1958
  155SOL     OW  463   0.720   1.151   0.234 -0.1359  0.1490  0.3919
  155SOL    HW1  464   0.725   1.059   0.181  1.2873 -3.7911 -1.4027
  155SOL    HW2  465   0.703   1.224   0.165 -0.9457  0.1750 -1.2953
  156SOL     OW  466   2.011   1.620   0.442  0.2497 -0.1935  0.2357
  156SOL    HW1  467   2.068   1.562   0.502  0.5992  0.2833  0.9896
  156SOL    HW2  468   1.915   1.621   0.477 -1.7265 -0.2124  0.2474
  157SOL     OW  469   0.872   1.840   0.064 -0.5637  0.0016  0.0282
  157SOL    HW1  470   0.820   1.764   0.103  0.4846  2.8364  0.9395
  157SOL    HW2  471   0.972   1.838   0.093 -0.9016 -0.5650  2.2499
  158SOL     OW  472   1.927   0.915   1.962 -0.4630 -0.0070 -0.4927
  158SOL    HW1  473   1.948   0.820   1.930  0.9409  3.2256  1.9679
  158SOL    HW2  474   2.009   0.959   2.002 -1.1874  1.0447 -2.4508
  159SOL     OW  475   0.305   0.163   0.520 -0.1051  0.3221 -0.1673
  159SOL    HW1  476   0.289   0.061   0.534  5.6776 -3.3948 -1.1156
  159SOL    HW2  477   0.357   0.188   0.439 -4.1832  0.9478  2.5108
  160SOL     OW  478   2.390   1.366   1.483  0.0883 -0.0969  0.4190
  160SOL    HW1  479   2.344   1.277   1.482  4.2973  1.6617  0.3730
  160SOL    HW2  480   2.347   1.423   1.555 -2.6881 -2.5840  0.8470
  161SOL     OW  481   0.193   3.066   0.001  0.2812  0.1501 -0.1297
  161SOL    HW1  482   0.094   3.061   3.092  2.7856  2.3254  1.5536
  161SOL    HW2  483   0.249   3.061   3.023 -0.5776 -1.8579 -2.7807
  162SOL     OW  484   2.933   0.743   2.468  0.2859 -0.4365 -0.2049
  162SOL    HW1  485   2.861   0.818   2.470 -0.1315  2.8884  0.2855
  162SOL    HW2  486   2.890   0.656   2.446  0.5283 -0.9706  0.9120
  163SOL     OW  487   2.864   2.762   2.725 -0.5095  0.3854 -0.3491
  163SOL    HW1  488   2.886   2.667   2.764 -2.8330  0.1260  1.3374
  163SOL    HW2  489   2.762   2.773   2.726  0.1433 -1.5598  1.4988
  164SOL     OW  490   2.616   2.181   0.364  0.3353  0.1669  0.4881
  164SOL    HW1  491   2.518   2.185   0.379 -0.6961  1.5700  0.0411
  164SOL    HW2  492   2.665   2.258   0.413  0.7248 -1.4266  1.1740
  165SOL     OW  493   1.092   0.694   1.541 -0.1014  0.5987  0.8496
  165SOL    HW1  494   1.152   0.721   1.461 -1.9419 -1.2369 -0.0941
  165SOL    HW2  495   1.001   0.730   1.535  0.5614  2.5539  0.8822
  166SOL     OW  496   3.025   0.329   0.446 -0.0298  0.3487  0.2738
  166SOL    HW1  497   3.098   0.377   0.492 -3.0978 -2.6174  0.2832
  166SOL    HW2  498   3.053   0.246   0.387 -1.3150 -2.4498 -1.8728
  167SOL     OW  499   1.876   0.613   1.262 -0.5726  0.0656  0.1892
  167SOL    HW1  500   1.939   0.606   1.181 -1.7703  0.3623 -2.4891
  167SOL    HW2  501   1.914   0.680   1.330  1.1902  3.5960 -0.8514
  168SOL     OW  502   1.027   0.513   2.192 -0.3308  0.4192 -0.2681
  168SOL    HW1  503   1.123   0.541   2.161 -2.0404 -0.0734 -0.3055
  168SOL    HW2  504   0.990   0.571   2.267  3.7240 -1.3098  0.7210
  169SOL     OW  505   1.224   1.935   1.395  0.0823 -0.0057  0.4950
  169SOL    HW1  506   1.156   1.890   1.336  1.5523 -1.0223 -0.0661
  169SOL    HW2  507   1.192   1.947   1.489  1.3067 -3.4232  0.7044
  170SOL     OW  508   0.044   2.917   1.348  0.3844 -0.6801 -0.0228
  170SOL    HW1  509   0.127   2.949   1.400 -1.0113  0.2592 -0.0424
  170SOL    HW2  510   3.102   3.004   1.319 -1.2833 -0.8640 -0.8087
  171SOL     OW  511   2.544   0.648   2.364  0.2411  0.3236 -0.0690
  171SOL    HW1  512   2.602   0.611   2.438 -1.5960  1.2965  1.8119
  171SOL    HW2  513   2.495   0.571   2.316 -0.5843 -2.8672  0.0110
  172SOL     OW  514   1.156   3.036   1.693 -0.2533 -0.4528 -0.4017
  172SOL    HW1  515   1.159   3.089   1.778  1.0632  0.2288 -1.5076
  172SOL    HW2  516   1.083   3.074   1.637  2.6999  1.0582 -1.2074
  173SOL     OW  517   2.424   2.087   2.807 -0.2033  0.0572  0.1792
  173SOL    HW1  518   2.433   2.036   2.898 -4.0871  0.3263 -0.1664
  173SOL    HW2  519   2.440   2.188   2.827  1.0419 -1.3099  1.2659
  174SOL     OW  520   1.547   0.892   0.360  0.1477  0.1350 -0.0282
  174SOL    HW1  521   1.549   0.990   0.385  0.1761 -1.2241 -0.6321
  174SOL    HW2  522   1.466   0.876   0.297 -0.6359  1.3907 -0.9914
  175SOL     OW  523   1.086   1.321   1.581 -0.3437  0.0014  0.4966
  175SOL    HW1  524   1.152   1.288   1.654  2.2847  0.1343 -1.0289
  175SOL    HW2  525   1.095   1.422   1.574  0.0233  0.3854 -1.8020
  176SOL     OW  526   0.047   0.073   0.729 -0.0038  0.0765  0.5664
  176SOL    HW1  527   0.119   0.006   0.698  4.1816 -1.6465  2.8328
  176SOL    HW2  528   3.065   0.048   0.695  0.5947  0.5914  1.4121
  177SOL     OW  529   2.799   1.127   2.874  0.2835  0.1048  0.2416
  177SOL    HW1  530   2.886   1.087   2.895 -2.3516  2.7452  2.5353
  177SOL    HW2  531   2.740   1.071   2.814  1.1856  0.9440 -1.8886
  178SOL     OW  532   2.804   2.700   1.940  0.6058 -0.0858  0.4176
  178SOL    HW1  533   2.844   2.672   2.029 -1.0617  1.5959 -1.9012
  178SOL    HW2  534   2.866   2.687   1.860 -0.7768  0.2983 -0.5194
  179SOL     OW  535   2.190   2.993   0.460 -0.3266  0.0570 -0.1027
  179SOL    HW1  536   2.194   3.093   0.431  0.1392  1.3691 -1.6164
  179SOL    HW2  537   2.094   2.966   0.479  2.2225 -0.3874  2.1405
  180SOL     OW  538   1.870   0.719   0.786  0.4957  0.8326  0.0856
  180SOL    HW1  539   1.842   0.629   0.750  1.5188 -0.4933  0.3267
  180SOL    HW2  540   1.942   0.759   0.731  0.4601 -0.7412 -0.8669
  181SOL     OW  541   3.006   0.432   2.453 -0.0971 -0.1467 -0.1894
  181SOL    HW1  542   3.025   0.336   2.485  0.5280  0.1359 -0.7719
  181SOL    HW2  543   3.081   0.499   2.476  2.6750 -3.0751  1.2190
  182SOL     OW  544   2.850   2.007   2.259  0.1269  0.2243 -0.3674
  182SOL    HW1  545   2.882   1.949   2.341 -0.3491 -1.9021  2.2829
  182SOL    HW2  546   2.753   1.991   2.231  1.1813  0.9340  1.1908
  183SOL     OW  547   3.075   0.843   1.923 -0.1778 -0.4690 -0.3139
  183SOL    HW1  548   3.056   0.874   2.018 -0.2759  1.9193 -0.9483
  183SOL    HW2  549   0.056   0.801   1.906  2.1214 -1.2259 -0.6754
  184SOL     OW  550   0.244   1.245   1.217  0.4472 -0.2819 -0.0505
  184SOL    HW1  551   0.230   1.295   1.307  0.4796  1.4975 -2.3217
  184SOL    HW2  552   0.321   1.182   1.219 -0.0545  1.4755 -1.7091
  185SOL     OW  553   2.968   2.640   1.049 -0.1796  0.2282  0.0191
  185SOL    HW1  554   3.039   2.656   0.978  1.9759 -1.9159  0.9557
  185SOL    HW2  555   3.003   2.656   1.140  0.3538 -1.8954 -4.6323
  186SOL     OW  556   1.650   2.819   3.053 -0.4343 -0.1227  0.1371
  186SOL    HW1  557   1.623   2.725   3.077 -1.8398  0.1062  0.3743
  186SOL    HW2  558   1.579   2.886   3.056 -0.6883 -1.7334 -0.8190
  187SOL     OW  559   0.164   1.171   0.579 -0.1879  0.0494  0.2118
  187SOL    HW1  560   0.096   1.156   0.655  1.0022  1.4823  0.5167
  187SOL    HW2  561   0.228   1.244   0.611  0.4750  1.6575  1.1043
  188SOL     OW  562   1.795   1.857   0.227 -0.3936 -0.2949  0.2760
  188SOL    HW1  563   1.823   1.881   0.131  2.0368  1.7083  1.0274
  188SOL    HW2  564   1.763   1.941   0.274  0.0575 -1.3965 -1.9081
  189SOL     OW  565   0.206   1.640   0.005 -0.2812  0.7050 -0.5778
  189SOL    HW1  566   0.116   1.607   0.043 -1.9986  0.5268 -0.5281
  189SOL    HW2  567   0.247   1.563   3.064  0.0062 -1.3142  0.3938
  190SOL     OW  568   2.584   0.306   2.534  0.5198 -0.4077 -0.4202
  190SOL    HW1  569   2.577   0.256   2.623 -0.4773  0.2453  1.3428
  190SOL    HW2  570   2.574   0.243   2.453 -0.8170  1.8011  0.1523
  191SOL     OW  571   0.730   1.164   1.919 -0.5035  0.4438  0.4796
  191SOL    HW1  572   0.714   1.096   1.991 -0.6770  3.1145 -1.8468
  191SOL    HW2  573   0.818   1.145   1.866  4.0189  0.2162 -1.7841
  192SOL     OW  574   2.012   1.073   1.746  0.2377 -0.4158 -0.0636
  192SOL    HW1  575   1.972   1.036   1.834  0.8944 -0.5152  0.2077
  192SOL    HW2  576   2.101   1.024   1.727 -2.1844 -0.3730  1.8379
  193SOL     OW  577   1.099   2.999   0.984  0.3597  0.4426  0.4521
  193SOL    HW1  578   1.138   3.013   0.892  4.4028 -0.6857  2.3195
  193SOL    HW2  579   0.996   2.984   0.980 -0.6345  0.7683 -1.2506
  194SOL     OW  580   1.420   1.711   1.449  0.0635 -0.2187 -0.2480
  194SOL    HW1  581   1.397   1.651   1.370  0.5034  0.3405 -0.6121
  194SOL    HW2  582   1.364   1.794   1.446  1.3280 -1.7675  1.0973
  195SOL     OW  583   1.673   0.524   1.074  0.3825  0.0383  0.0367
  195SOL    HW1  584   1.586   0.560   1.091  1.9615  0.2565 -1.8369
  195SOL    HW2  585   1.742   0.562   1.141  1.6542 -1.8973  0.8138
  196SOL     OW  586   1.320   1.786   2.043  0.3183 -0.5745  0.0571
  196SOL    HW1  587   1.373   1.844   1.972 -1.8111  0.0071 -2.5684
  196SOL    HW2  588   1.264   1.845   2.106 -1.6496 -0.5428  1.4716
  197SOL     OW  589   2.724   0.005   2.906  0.5363  0.2358 -0.1391
  197SOL    HW1  590   2.674   3.044   2.854  1.7343  0.3371  1.3025
  197SOL    HW2  591   2.706   3.096   3.007  1.0698 -2.0899  4.7963
  198SOL     OW  592   2.995   0.558   0.821 -0.3107  0.2564 -0.1393
  198SOL    HW1  593   3.046   0.576   0.736 -1.7453 -1.6330  2.5206
  198SOL    HW2  594   2.902   0.521   0.797 -0.9123  0.2291  2.7000
  199SOL     OW  595   0.445   1.901   0.985 -0.0991 -0.1435 -0.2071
  199SOL    HW1  596   0.430   1.964   0.907  2.2225 -2.7904  0.9782
  199SOL    HW2  597   0.420   1.949   1.074 -1.6151 -0.1031  0.8148
  200SOL     OW  598   2.862   1.802   3.033 -0.1969  0.0991  0.4285
  200SOL    HW1  599   2.771   1.774   2.996  0.2711  2.2113 -0.6793
  200SOL    HW2  600   2.885   1.747   0.009  3.0781  1.8898  1.7941
  201SOL     OW  601   1.270   2.676   1.525 -0.0070  0.0753 -0.0865
  201SOL    HW1  602   1.357   2.681   1.472  1.1972 -1.6796 -0.0426
  201SOL    HW2  603   1.284   2.683   1.624 -0.4192 -1.8906 -1.7454
  202SOL     OW  604   1.009   2.790   2.922 -0.1435 -0.3167 -0.2749
  202SOL    HW1  605   0.999   2.856   3.000 -3.3892 -2.2423 -1.5471
  202SOL    HW2  606   1.104   2.783   2.888 -2.6922 -0.1921 -0.8824
  203SOL     OW  607   1.348   2.935   3.031 -0.5893  0.2995 -0.4036
  203SOL    HW1  608   1.384   3.014   2.979 -0.7471 -3.7123  1.1809
  203SOL    HW2  609   1.316   2.855   2.971 -0.6441 -3.9701 -1.1129
  204SOL     OW  610   0.453   1.628   1.324  0.2724 -0.2088  0.5460
  204SOL    HW1  611   0.417   1.603   1.232 -0.3646  0.5256 -0.7108
  204SOL    HW2  612   0.468   1.549   1.386  4.2912  2.8248  0.9102
  205SOL     OW  613   1.723   1.115   1.991 -0.0110  0.1809  0.1029
  205SOL    HW1  614   1.759   1.016   1.998  2.3664 -0.3189  0.2754
  205SOL    HW2  615   1.624   1.126   2.014 -0.4391 -0.6544 -1.8005
  206SOL     OW  616   0.106   1.844   2.967 -0.2611  0.6496 -0.1555
  206SOL    HW1  617   0.151   1.773   3.025 -0.2021  0.6136  0.1549
  206SOL    HW2  618   0.003   1.844   2.969 -1.9091 -3.9132  1.0958
  207SOL     OW  619   0.436   2.225   1.978  0.3393  0.1484 -0.2944
  207SOL    HW1  620   0.479   2.158   1.913 -0.0415 -1.5807  1.3072
  207SOL    HW2  621   0.346   2.261   1.946  2.2566 -2.6268  2.6088
  208SOL     OW  622   0.675   2.320   0.935  0.2873 -0.2678 -0.5468
  208SOL    HW1  623   0.584   2.351   0.893 -4.4126 -0.5190 -0.0266
  208SOL    HW2  624   0.661   2.283   1.035  0.4864 -1.9332  4.7254
  209SOL     OW  625   1.059   2.653   2.349  0.0870  0.4299 -0.1988
  209SOL    HW1  626   1.033   2.730   2.289  1.1660  2.1816 -0.3661
  209SOL    HW2  627   1.155   2.621   2.330  3.3937 -1.8744 -1.3916
  210SOL     OW  628   2.730   1.404   1.806  0.2122  0.5403 -0.3723
  210SOL    HW1  629   2.738   1.492   1.852  1.6299  0.0440 -0.2484
  210SOL    HW2  630   2.725   1.320   1.872  1.5948  0.8804  0.1046
  211SOL     OW  631   1.334   0.214   1.879  0.1267  0.8857 -0.3295
  211SOL    HW1  632   1.252   0.154   1.896 -0.0487 -0.6256 -1.2958
  211SOL    HW2  633   1.360   0.261   1.965  0.4838  0.8852 -1.0640
  212SOL     OW  634   1.871   2.725   1.818  0.9520  0.2032 -0.0365
  212SOL    HW1  635   1.828   2.636   1.786  4.2187  0.3328 -1.1682
  212SOL    HW2  636   1.847   2.801   1.754 -1.3842  0.6058  0.2578
  213SOL     OW  637   2.974   0.136   1.713 -0.0073  0.6699 -0.9953
  213SOL    HW1  638   2.898   0.161   1.648 -3.8139 -1.0262 -1.9648
  213SOL    HW2  639   3.037   0.206   1.735  0.2156  0.4595  0.7192
  214SOL     OW  640   1.038   2.215   1.087 -0.0506  0.1763  0.1149
  214SOL    HW1  641   1.092   2.211   1.177  2.1574  1.5884  1.2897
  214SOL    HW2  642   1.096   2.186   1.010 -0.5131 -1.0431 -2.0991
  215SOL     OW  643   2.667   2.308   0.761  0.2392 -0.9420  0.0605
  215SOL    HW1  644   2.701   2.323   0.667  0.9656  0.5640  4.9897
  215SOL    HW2  645   2.718   2.370   0.823 -0.9334 -0.0633  2.5504
  216SOL     OW  646   0.383   0.959   1.775  0.1947  0.3378  0.6212
  216SOL    HW1  647   0.406   1.048   1.825  0.7664  1.0305  2.9442
  216SOL    HW2  648   0.322   0.969   1.692  1.9157 -3.3210 -2.6289
  217SOL     OW  649   2.426   0.111   1.656  0.6986 -0.3561 -0.4395
  217SOL    HW1  650   2.402   0.086   1.562  2.4192  1.8215  1.5673
  217SOL    HW2  651   2.393   0.046   1.725  3.1545 -0.3280 -1.0225
  218SOL     OW  652   1.758   2.488   1.728 -0.9397  0.2551  0.4160
  218SOL    HW1  653   1.727   2.437   1.641 -1.3306 -0.6266 -0.4265
  218SOL    HW2  654   1.775   2.425   1.802 -1.3371  1.5307  1.9225
  219SOL     OW  655   1.820   2.482   3.024 -0.0801  0.4146  0.1436
  219SOL    HW1  656   1.907   2.522   2.992 -2.8217 -2.5388  3.4052
  219SOL    HW2  657   1.836   2.431   0.001 -0.4628 -0.2829  0.9131
  220SOL     OW  658   1.542   3.047   0.443  0.3909  0.2802 -0.7275
  220SOL    HW1  659   1.533   0.009   0.373 -0.5568 -1.5010 -0.7271
  220SOL    HW2  660   1.538   2.954   0.398 -2.1084 -0.3906 -2.1350
  221SOL     OW  661   0.251   2.293   1.375  0.7250  0.1421  0.1105
  221SOL    HW1  662   0.158   2.334   1.366 -1.0321  1.0396  1.2242
  221SOL    HW2  663   0.321   2.367   1.399 -0.5227 -2.9642 -0.8278
  222SOL     OW  664   1.979   2.754   1.224 -0.5947 -0.1783 -0.0491
  222SOL    HW1  665   1.909   2.827   1.218  1.2620 -1.3717  0.3452
  222SOL    HW2  666   2.033   2.769   1.313  0.6956 -1.0860  1.6089
  223SOL     OW  667   1.294   0.419   1.455 -0.4402  0.2094 -0.3724
  223SOL    HW1  668   1.295   0.455   1.551  1.3984 -0.8838 -0.3975
  223SOL    HW2  669   1.216   0.456   1.405  2.3729  0.8768  0.0865
  224SOL     OW  670   3.097   2.409   1.376 -0.1861 -0.0984  0.1931
  224SOL    HW1  671   3.093   2.500   1.330  0.8405  1.5655  0.6586
  224SOL    HW2  672   3.053   2.417   1.465  2.7214  0.7638 -2.5407
  225SOL     OW  673   2.687   2.076   1.051 -0.2979 -0.4993  0.7036
  225SOL    HW1  674   2.634   2.161   1.048  1.3009  0.8499  1.2701
  225SOL    HW2  675   2.678   2.024   0.964  0.2057  1.2021  1.9158
  226SOL     OW  676   1.526   2.210   0.040  0.0214  0.1181 -0.5349
  226SOL    HW1  677   1.441   2.155   0.024 -3.5014 -1.1461 -0.3236
  226SOL    HW2  678   1.604   2.199   3.087  0.8097  0.3213  1.4633
  227SOL     OW  679   1.722   1.436   0.739  0.6141  0.6564 -0.6007
  227SOL    HW1  680   1.747   1.516   0.793  2.2434 -1.5501 -0.2042
  227SOL    HW2  681   1.656   1.370   0.779  0.0591 -1.3479 -0.5013
  228SOL     OW  682   2.041   0.889   0.586 -0.0927 -0.5414  0.1729
  228SOL    HW1  683   2.128   0.839   0.558 -0.8770  0.0999 -1.1691
  228SOL    HW2  684   1.972   0.901   0.518  1.7283 -0.4029  1.1729
  229SOL     OW  685   2.733   1.163   1.939 -0.0116 -0.2609 -0.2222
  229SOL    HW1  686   2.659   1.144   2.010  1.0676 -0.2834  1.1821
  229SOL    HW2  687   2.774   1.076   1.906 -0.2444  0.6756  0.5683
  230SOL     OW  688   0.416   0.980   1.389 -0.5628 -0.1905  0.6489
  230SOL    HW1  689   0.474   1.002   1.306  2.2020 -0.3078  0.6032
  230SOL    HW2  690   0.431   0.885   1.419  3.8625  0.6770 -0.3884
  231SOL     OW  691   1.787   0.391   2.658  0.0160  0.1068 -0.0405
  231SOL    HW1  692   1.708   0.454   2.641 -0.5604 -0.5201 -3.2175
  231SOL    HW2  693   1.876   0.442   2.668  0.1526  1.1576  1.9368
  232SOL     OW  694   0.092   1.690   1.093 -0.2860 -0.0100 -0.6173
  232SOL    HW1  695   0.070   1.619   1.163  0.9201 -0.9920 -1.2732
  232SOL    HW2  696   0.050   1.661   1.004 -1.1949 -2.1842  0.0143
  233SOL     OW  697   1.711   2.853   2.735  0.0152  0.2721  0.3137
  233SOL    HW1  698   1.631   2.810   2.781  0.3737 -0.9741 -1.2359
  233SOL    HW2  699   1.716   2.949   2.775  0.3747  0.1072 -3.1595
  234SOL     OW  700   1.538   2.745   1.452  0.1957  0.1730  0.2238
  234SOL    HW1  701   1.511   2.837   1.494  1.1942  0.7327  2.4089
  234SOL    HW2  702   1.632   2.717   1.480 -1.4316  3.0696  1.3387
  235SOL     OW  703   0.833   1.297   1.652 -0.2427  0.0590 -0.2123
  235SOL    HW1  704   0.776   1.365   1.703 -1.0293  1.4540  1.2129
  235SOL    HW2  705   0.933   1.323   1.636  1.9991  0.6232 -0.6498
  236SOL     OW  706   0.583   2.681   2.673  0.0773  0.6807  0.5964
  236SOL    HW1  707   0.570   2.585   2.639 -2.1194  0.9702  2.9084
  236SOL    HW2  708   0.562   2.689   2.774  1.3068 -1.4595  0.9384
  237SOL     OW  709   0.511   0.140   1.952  0.8463 -0.5078 -0.3051
  237SOL    HW1  710   0.598   0.153   1.995 -1.4349 -2.7584 -1.0139
  237SOL    HW2  711   0.484   0.042   1.959  0.1923  2.3893  0.3716
  238SOL     OW  712   0.706   0.530   0.472 -0.1125 -0.2613 -0.4319
  238SOL    HW1  713   0.675   0.454   0.408 -1.9485  1.3698 -0.3798
  238SOL    HW2  714   0.783   0.500   0.534 -0.6743  0.4434  1.9451
  239SOL     OW  715   2.466   0.703   2.827  0.9248  0.0359  0.6754
  239SOL    HW1  716   2.426   0.722   2.732 -2.0512 -1.1663 -1.3256
  239SOL    HW2  717   2.394   0.674   2.890 -1.1685 -0.0006  1.7583
  240SOL     OW  718   2.888   2.272   1.087 -0.0318  0.4686 -0.2732
  240SOL    HW1  719   2.824   2.190   1.089 -0.2283  0.8750 -1.3647
  240SOL    HW2  720   2.971   2.242   1.144  0.0763  0.6830 -0.9255
  241SOL     OW  721   1.158   1.729   0.690 -0.0598  0.2951  0.0209
  241SOL    HW1  722   1.251   1.682   0.697  2.3715  0.6401  0.4431
  241SOL    HW2  723   1.163   1.822   0.726  0.4013 -3.4712 -2.3352
  242SOL     OW  724   0.708   0.181   0.549  0.0325 -0.3440  0.6506
  242SOL    HW1  725   0.767   0.261   0.569 -0.1937 -1.8228 -0.5677
  242SOL    HW2  726   0.630   0.179   0.617 -1.2865  0.4215 -1.1503
  243SOL     OW  727   0.293   0.390   1.262  0.2226 -0.1013  0.6899
  243SOL    HW1  728   0.203   0.437   1.266 -2.4717 -2.0553  1.0171
  243SOL    HW2  729   0.317   0.369   1.161 -0.0552  0.8161 -3.1499
  244SOL     OW  730   0.628   2.967   0.522 -0.1641  0.5698 -0.2096
  244SOL    HW1  731   0.678   2.923   0.602 -1.0832 -0.6846  4.1403
  244SOL    HW2  732   0.696   3.014   0.464 -0.5035  0.3178 -1.5135
  245SOL     OW  733   2.745   1.082   0.236 -0.5899  0.3504 -0.5171
  245SOL    HW1  734   2.745   0.995   0.186 -0.3412  0.4678  0.5964
  245SOL    HW2  735   2.750   1.156   0.170  2.4536  1.2876  2.2664
  246SOL     OW  736   0.343   2.750   1.465  0.1120  0.1039  0.1804
  246SOL    HW1  737   0.365   2.842   1.500 -0.5333 -3.8949 -1.6039
  246SOL    HW2  738   0.345   2.746   1.364  1.1812 -2.5166 -0.7148
  247SOL     OW  739   0.928   0.115   2.086 -0.1734  0.4393  0.1527
  247SOL    HW1  740   0.838   0.085   2.129 -0.0631 -1.1063  0.3551
  247SOL    HW2  741   0.910   0.170   2.003 -0.0558 -0.3472  1.8359
  248SOL     OW  742   0.431   1.881   2.093  0.0160  0.4552 -0.2269
  248SOL    HW1  743   0.507   1.944   2.117  0.4285  0.9275 -0.7117
  248SOL    HW2  744   0.463   1.783   2.085 -0.4242 -0.2874  0.4150
  249SOL     OW  745   1.020   2.152   0.529  0.0325 -0.6212  0.3463
  249SOL    HW1  746   0.924   2.114   0.525  0.7749  1.0576 -0.7683
  249SOL    HW2  747   1.031   2.254   0.539  1.3731  0.2420  2.7638
  250SOL     OW  748   0.650   0.018   2.168  0.4779  0.1195 -0.1518
  250SOL    HW1  749   0.633   3.030   2.174  0.8543  1.1402 -0.6246
  250SOL    HW2  750   0.652   0.054   2.263 -0.7513  1.9960  2.1066
  251SOL     OW  751   2.664   1.950   1.783  0.3656 -0.0120  0.0786
  251SOL    HW1  752   2.574   1.900   1.798 -2.1069  0.0295 -0.6723
  251SOL    HW2  753   2.730   1.871   1.766  1.0455 -0.7131 -1.4009
  252SOL     OW  754   1.283   0.438   1.745  0.0160 -0.0498 -0.0801
  252SOL    HW1  755   1.186   0.477   1.741 -2.0551 -0.2746  0.9375
  252SOL    HW2  756   1.283   0.366   1.823 -0.0295 -0.8713 -0.0156
  253SOL     OW  757   2.636   1.671   2.452 -0.5009 -0.1451 -0.3557
  253SOL    HW1  758   2.622   1.598   2.380 -3.0162  1.3470  1.8616
  253SOL    HW2  759   2.569   1.741   2.447 -0.6371  0.0691  0.9002
  254SOL     OW  760   0.497   1.094   0.886  0.0219 -0.6400 -0.4099
  254SOL    HW1  761   0.516   1.191   0.913 -2.3946  0.5621  0.4905
  254SOL    HW2  762   0.556   1.030   0.940 -2.6116  1.7081 -0.0009
  255SOL     OW  763   0.063   2.470   1.718  0.3864 -0.6158 -0.0708
  255SOL    HW1  764   3.076   2.450   1.701 -1.5978 -0.1537  0.9880
  255SOL    HW2  765   0.086   2.569   1.698  0.4748 -0.5067  0.4774
  256SOL     OW  766   0.307   3.004   0.262 -0.2153 -0.1896  0.4655
  256SOL    HW1  767   0.300   3.025   0.160  1.2324  0.6604 -2.0505
  256SOL    HW2  768   0.373   2.927   0.282  2.1233 -0.4643 -0.7353
  257SOL     OW  769   1.318   2.388   2.547 -0.1054  0.2665  0.4032
  257SOL    HW1  770   1.268   2.319   2.489  0.4709  2.2776  0.3619
  257SOL    HW2  771   1.310   2.483   2.515  0.4960  1.5670 -0.9734
  258SOL     OW  772   1.989   1.820   2.110  0.3642 -0.0536 -0.6038
  258SOL    HW1  773   1.891   1.839   2.122 -4.6698 -0.0433 -1.0389
  258SOL    HW2  774   2.020   1.852   2.016  1.5784  1.1777 -0.9148
  259SOL     OW  775   0.574   0.653   2.191 -0.3794 -0.0762  0.1162
  259SOL    HW1  776   0.560   0.733   2.130  0.2467 -0.9201 -1.4883
  259SOL    HW2  777   0.671   0.620   2.187  0.1899 -1.2424  1.0706
  260SOL     OW  778   2.527   1.034   3.068 -0.1436  0.0255 -0.2613
  260SOL    HW1  779   2.580   0.946   3.063  0.0904 -0.9749  3.1685
  260SOL    HW2  780   2.572   1.117   3.030 -0.1943 -2.1905  0.9491
  261SOL     OW  781   0.932   1.057   0.718  0.7488 -0.1518 -0.5379
  261SOL    HW1  782   1.014   1.047   0.658  4.0819 -1.3323 -0.3217
  261SOL    HW2  783   0.954   1.130   0.792 -0.0945  0.6871  0.2860
  262SOL     OW  784   1.978   2.272   2.371 -0.1526 -0.4137  0.5278
  262SOL    HW1  785   1.876   2.280   2.384  1.9463  0.3740  2.1293
  262SOL    HW2  786   2.009   2.279   2.273  3.0644 -0.8473  0.9452
  263SOL     OW  787   0.943   2.489   1.031 -0.1208 -0.0249  0.2169
  263SOL    HW1  788   1.005   2.541   1.097  1.5182 -0.2063 -0.2681
  263SOL    HW2  789   0.952   2.389   1.052  1.0846  0.4065  0.0996
  264SOL     OW  790   2.978   1.965   0.671 -0.2249 -0.6907 -0.6122
  264SOL    HW1  791   3.042   2.040   0.700  0.2788  3.6508 -2.2162
  264SOL    HW2  792   2.997   1.877   0.718  1.0070  1.5762  0.6444
  265SOL     OW  793   1.782   1.431   2.667  0.0679  0.5657  0.0127
  265SOL    HW1  794   1.847   1.464   2.601  0.4650  0.1062  1.4513
  265SOL    HW2  795   1.815   1.354   2.723  0.6935 -0.1600 -1.3394
  266SOL     OW  796   1.750   1.915   2.166  0.1704 -0.0857 -0.3230
  266SOL    HW1  797   1.686   1.837   2.174 -2.8600  0.0600  1.4619
  266SOL    HW2  798   1.713   1.998   2.211 -0.8436  0.7676  0.7849
  267SOL     OW  799   1.842   0.381   2.326  0.1156  0.1559 -0.2437
  267SOL    HW1  800   1.881   0.337   2.412 -0.4068 -2.7317  3.1129
  267SOL    HW2  801   1.786   0.465   2.346 -1.5801  1.3442 -0.0412
  268SOL     OW  802   0.844   0.852   2.913  0.1786 -0.8052 -0.7032
  268SOL    HW1  803   0.917   0.838   2.841  0.0723  0.0986 -2.4701
  268SOL    HW2  804   0.788   0.764   2.915 -2.8205 -5.0212 -0.0610
  269SOL     OW  805   2.972   2.159   2.068 -0.2338  0.7877  0.4494
  269SOL    HW1  806   3.041   2.102   2.014 -0.4020 -2.3112  0.4373
  269SOL    HW2  807   2.945   2.109   2.151  1.5735 -2.0540  1.3101
  270SOL     OW  808   3.052   1.548   0.111  0.4851  0.3094  0.3956
  270SOL    HW1  809   3.062   1.448   0.098 -0.4324  0.3742  0.1019
  270SOL    HW2  810   2.979   1.566   0.180  0.8278 -0.6486 -1.8067
  271SOL     OW  811   0.688   0.306   0.327  0.5308 -0.2339 -0.2481
  271SOL    HW1  812   0.700   0.233   0.398 -2.5634 -0.1183 -1.6581
  271SOL    HW2  813   0.749   0.277   0.247  1.1074 -2.5802 -0.5733
  272SOL     OW  814   3.096   0.123   0.282  0.1852 -0.3057 -0.6299
  272SOL    HW1  815   3.015   0.142   0.220  1.6320 -0.3414 -0.3246
  272SOL    HW2  816   0.002   0.026   0.301  0.5029 -1.2255  1.4960
  273SOL     OW  817   0.401   2.880   2.220  0.2920  0.2176 -0.1798
  273SOL    HW1  818   0.365   2.787   2.225  1.4108  0.4693 -0.9545
  273SOL    HW2  819   0.403   2.915   2.121  0.6392  0.3750 -1.8290
  274SOL     OW  820   0.046   0.276   1.361  0.1414 -0.3615 -0.2857
  274SOL    HW1  821   0.113   0.262   1.438 -2.5008  1.4856  2.3996
  274SOL    HW2  822   0.006   0.189   1.327 -1.9911 -3.2704 -0.0803
  275SOL     OW  823   1.135   1.744   1.198 -0.3051  0.1558  0.0036
  275SOL    HW1  824   1.037   1.725   1.199  1.6547 -0.8621 -0.1786
  275SOL    HW2  825   1.188   1.659   1.182 -0.0567  1.8179 -0.1125
  276SOL     OW  826   0.317   1.465   2.140  0.4926 -0.4685  0.3795
  276SOL    HW1  827   0.284   1.457   2.041  0.4243  0.0541 -1.7125
  276SOL    HW2  828   0.238   1.481   2.204 -2.3221 -0.1509  0.3977
  277SOL     OW  829   1.374   2.373   1.925  0.1087 -0.1599  0.0532
  277SOL    HW1  830   1.407   2.402   1.832 -1.8787 -0.7962 -0.6511
  277SOL    HW2  831   1.460   2.364   1.979  2.2872 -1.1165 -0.0450
  278SOL     OW  832   2.067   2.847   2.451 -0.4056 -0.4598  0.1018
  278SOL    HW1  833   1.977   2.824   2.487  1.6863  2.0582 -0.4041
  278SOL    HW2  834   2.066   2.879   2.354 -1.6999 -1.8728  1.5052
  279SOL     OW  835   1.396   1.448   3.007 -0.0581  0.3424  0.3445
  279SOL    HW1  836   1.422   1.362   3.056 -1.6455  1.2540 -1.0176
  279SOL    HW2  837   1.474   1.511   2.990 -1.4832 -0.1653  1.2518
  280SOL     OW  838   1.134   0.689   1.048 -0.1364 -0.2339 -0.5329
  280SOL    HW1  839   1.073   0.764   1.011 -1.0340  1.3098  0.9872
  280SOL    HW2  840   1.139   0.612   0.983  1.3495  0.7721  2.4064
  281SOL     OW  841   2.796   0.406   1.898 -0.4836 -0.0617 -0.1676
  281SOL    HW1  842   2.768   0.389   1.995  0.2356  1.1636  0.1710
  281SOL    HW2  843   2.745   0.351   1.827 -0.3636  0.2121 -1.3177
  282SOL     OW  844   0.241   3.023   0.632  0.5464  0.4519  0.1652
  282SOL    HW1  845   0.196   2.937   0.594 -0.7437 -2.7892 -0.4234
  282SOL    HW2  846   0.330   3.001   0.672  2.1052 -0.6119 -0.1361
  283SOL     OW  847   1.316   2.221   1.554  0.0420  0.0401  0.2055
  283SOL    HW1  848   1.283   2.145   1.610  0.9508  1.2858 -1.5968
  283SOL    HW2  849   1.406   2.196   1.507  2.2987  1.4231 -0.1423
  284SOL     OW  850   2.149   2.729   1.454  0.1891 -0.2645 -0.2943
  284SOL    HW1  851   2.113   2.634   1.464  1.4382 -1.8888 -1.6772
  284SOL    HW2  852   2.241   2.721   1.411  0.2638  2.2686  3.3070
  285SOL     OW  853   0.864   1.758   1.209  0.0053 -0.1956  0.0016
  285SOL    HW1  854   0.811   1.677   1.185  0.5239 -0.5896 -0.6256
  285SOL    HW2  855   0.851   1.834   1.142  2.2054 -0.5760 -3.1829
  286SOL     OW  856   0.173   2.818   1.917  0.4055  0.3539 -0.4311
  286SOL    HW1  857   0.115   2.869   1.990 -0.3207 -0.9696  0.1576
  286SOL    HW2  858   0.202   2.724   1.950  2.0578 -2.6931  0.4381
  287SOL     OW  859   0.636   1.041   0.651 -0.1440  0.1507 -0.3419
  287SOL    HW1  860   0.733   1.053   0.672 -1.5002 -0.9399 -0.0375
  287SOL    HW2  861   0.577   1.050   0.736  0.3728 -0.2354  2.4541
  288SOL     OW  862   1.175   2.193   2.762 -0.5207 -0.1474 -0.0825
  288SOL    HW1  863   1.268   2.229   2.770  0.5918 -0.8457  0.3414
  288SOL    HW2  864   1.124   2.178   2.851 -0.6710 -1.3438 -0.7383
  289SOL     OW  865   1.887   1.165   2.446 -0.2462  0.2957 -0.0813
  289SOL    HW1  866   1.913   1.254   2.412 -0.0146 -3.5461  0.7580
  289SOL    HW2  867   1.950   1.095   2.408 -0.7408 -0.3040 -0.5648
  290SOL     OW  868   2.018   1.916   0.608  0.2765  0.3362  0.0816
  290SOL    HW1  869   2.024   1.892   0.509  1.5527 -1.3104 -0.8148
  290SOL    HW2  870   1.953   1.986   0.623  1.8456 -0.9433 -0.8242
  291SOL     OW  871   1.379   0.740   2.919 -0.0008  0.3820  0.2705
  291SOL    HW1  872   1.340   0.826   2.961 -4.6889  0.6970 -0.6032
  291SOL    HW2  873   1.481   0.718   2.938  2.8746 -1.7184 -1.2702
  292SOL     OW  874   1.994   1.706   0.773  0.6519 -0.0747  0.3032
  292SOL    HW1  875   2.024   1.629   0.716 -3.2593 -0.5530  3.1667
  292SOL    HW2  876   2.018   1.795   0.734 -1.3616 -2.6635  1.9036
  293SOL     OW  877   1.798   0.115   1.332 -0.8262 -0.6269 -0.1194
  293SOL    HW1  878   1.863   0.188   1.295  1.4157 -2.4189 -1.3743
  293SOL    HW2  879   1.708   0.153   1.346  1.7656 -1.5432 -1.1689
  294SOL     OW  880   2.877   0.901   0.063  0.2296 -0.1546  0.1404
  294SOL    HW1  881   2.876   0.901   3.071  0.6475  1.4243 -0.0804
  294SOL    HW2  882   2.892   0.811   0.099 -1.1596 -1.1330 -3.3645
  295SOL     OW  883   2.212   1.756   2.455  0.6206 -0.0107 -0.5407
  295SOL    HW1  884   2.308   1.776   2.449 -4.4482 -0.7996  1.3077
  295SOL    HW2  885   2.164   1.843   2.475  1.3040  3.4800  0.7163
  296SOL     OW  886   1.291   1.896   1.039  0.2374  0.0383  0.0634
  296SOL    HW1  887   1.356   1.838   0.981  1.7568 -0.7207  0.9295
  296SOL    HW2  888   1.237   1.847   1.117 -2.0189 -2.1953  0.1139
  297SOL     OW  889   0.350   0.614   2.841 -0.5498 -0.3807  0.3919
  297SOL    HW1  890   0.265   0.662   2.822  2.2811 -0.1373  1.3429
  297SOL    HW2  891   0.351   0.586   2.940  0.4710 -3.0596  3.1395
  298SOL     OW  892   1.596   2.937   1.818  0.1632 -0.6491  0.1006
  298SOL    HW1  893   1.517   2.939   1.750 -2.0048  2.3173  1.1088
  298SOL    HW2  894   1.684   2.923   1.775 -0.9157  1.0444 -0.2183
  299SOL     OW  895   1.100   0.602   2.593  0.1714 -0.2496  0.4958
  299SOL    HW1  896   1.058   0.584   2.682  1.2320  0.8735 -1.4808
  299SOL    HW2  897   1.146   0.515   2.565 -3.9840  1.3497  2.4128
  300SOL     OW  898   1.942   1.556   0.103  0.5725 -0.8332  0.7367
  300SOL    HW1  899   1.956   1.597   0.196  0.1911 -0.8145  0.6851
  300SOL    HW2  900   1.891   1.467   0.107 -0.9426 -2.2334 -1.8664
  301SOL     OW  901   2.257   0.263   2.440 -0.2596 -0.5991  0.2705
  301SOL    HW1  902   2.256   0.169   2.476 -2.7845  1.3411 -4.1352
  301SOL    HW2  903   2.279   0.330   2.513  1.3662 -3.1957 -3.5402
  302SOL     OW  904   2.508   1.526   2.740  0.2904 -0.0944  0.0955
  302SOL    HW1  905   2.521   1.432   2.709  0.7544 -0.0762 -1.6929
  302SOL    HW2  906   2.512   1.586   2.660 -0.5252 -1.9437  5.4483
  303SOL     OW  907   0.187   2.390   2.198  0.1276 -0.0108 -0.6204
  303SOL    HW1  908   0.154   2.419   2.291  1.4522  2.1889 -1.9781
  303SOL    HW2  909   0.205   2.288   2.203 -0.8093 -1.6116  0.2756
  304SOL     OW  910   2.910   0.955   0.854 -0.1187 -0.1778 -0.4930
  304SOL    HW1  911   2.846   1.031   0.867 -1.2932 -2.5840 -0.4922
  304SOL    HW2  912   2.860   0.867   0.852  2.4775  3.1655  0.6353
  305SOL     OW  913   0.059   0.320   1.804  0.5906  0.2426 -0.3356
  305SOL    HW1  914   0.023   0.409   1.847 -1.8357 -0.4685 -0.9298
  305SOL    HW2  915   0.129   0.270   1.866 -0.8269 -1.6787 -1.0470
  306SOL     OW  916   1.640   2.028   0.806 -0.5597  0.3277  0.5022
  306SOL    HW1  917   1.629   1.943   0.747  1.1677  0.1396 -2.8554
  306SOL    HW2  918   1.624   2.118   0.760  1.0267  0.7284  2.6191
  307SOL     OW  919   3.052   0.043   1.271  0.1472  0.0380 -0.0806
  307SOL    HW1  920   2.953   0.044   1.252  2.3970 -0.4640  2.9876
  307SOL    HW2  921   3.109   0.025   1.189 -1.0307 -0.2487  0.2773
  308SOL     OW  922   3.079   1.671   2.639 -0.1111  0.3592  0.2007
  308SOL    HW1  923   3.104   1.585   2.679 -3.0625  1.4986 -0.2226
  308SOL    HW2  924   2.995   1.710   2.679  0.3122 -2.5481 -2.3947
  309SOL     OW  925   0.495   1.831   2.708 -0.0781 -0.0497  0.3546
  309SOL    HW1  926   0.518   1.732   2.723 -2.1491 -1.4338 -0.0468
  309SOL    HW2  927   0.393   1.848   2.716  1.4640  4.6294  0.5855
  310SOL     OW  928   2.248   0.675   2.992  0.0828  0.4553  0.0936
  310SOL    HW1  929   2.181   0.752   2.977 -1.9731 -0.8321 -3.3673
  310SOL    HW2  930   2.240   0.619   3.073 -0.8725 -0.0592 -0.9798
  311SOL     OW  931   1.727   1.087   0.000 -0.0819 -0.5441  0.2409
  311SOL    HW1  932   1.748   1.051   3.013 -0.1664 -1.0106 -0.8097
  311SOL    HW2  933   1.758   1.016   0.066 -0.0274  1.6786 -0.8559
  312SOL     OW  934   1.051   1.268   2.213 -0.4484  0.1161 -0.0480
  312SOL    HW1  935   0.961   1.317   2.211 -0.5072  0.2213  0.0166
  312SOL    HW2  936   1.034   1.171   2.180  3.0617  0.6884  0.3116
  313SOL     OW  937   0.811   0.004   0.365  0.5245 -0.1363 -0.9050
  313SOL    HW1  938   0.784   0.065   0.443 -0.1056 -0.7492  0.1524
  313SOL    HW2  939   0.914   3.104   0.371 -4.0613 -1.7803 -2.2214
  314SOL     OW  940   0.503   1.869   1.414  0.6704 -0.0613  0.3745
  314SOL    HW1  941   0.483   1.771   1.379 -0.1372 -2.0465  1.8213
  314SOL    HW2  942   0.603   1.876   1.424  2.3861 -1.8675 -0.8483
  315SOL     OW  943   1.546   2.084   1.451 -0.9262 -0.0892  0.5300
  315SOL    HW1  944   1.592   2.040   1.534 -1.4247 -0.8870 -0.3429
  315SOL    HW2  945   1.481   2.013   1.415 -2.8528 -1.8850 -0.6184
  316SOL     OW  946   0.446   2.527   0.400  0.1101  0.3455  0.0810
  316SOL    HW1  947   0.532   2.478   0.374 -0.7850  1.0172  0.6397
  316SOL    HW2  948   0.423   2.514   0.498  0.4314 -1.3174 -1.9924
  317SOL     OW  949   2.639   0.405   1.008 -0.3330  0.0586  0.5179
  317SOL    HW1  950   2.548   0.357   1.021 -2.6998  0.3270  0.3760
  317SOL    HW2  951   2.629   0.502   1.049 -2.3556 -0.8844  0.9305
  318SOL     OW  952   0.983   2.421   0.515 -0.5322  0.1314 -0.4149
  318SOL    HW1  953   0.975   2.449   0.608  2.6563 -0.5973 -4.5047
  318SOL    HW2  954   0.902   2.444   0.454  2.5055  0.3665  0.1580
  319SOL     OW  955   1.326   0.256   2.813 -0.5765 -0.0682 -0.1714
  319SOL    HW1  956   1.230   0.259   2.776  0.1730 -1.4672 -1.2960
  319SOL    HW2  957   1.329   0.307   2.898  1.6853 -5.1680 -0.6148
  320SOL     OW  958   2.247   1.548   1.743 -0.1495 -0.2363 -0.1491
  320SOL    HW1  959   2.219   1.455   1.770 -0.6925  2.0199 -2.9425
  320SOL    HW2  960   2.170   1.613   1.768 -3.0649  2.5864 -2.8137
  321SOL     OW  961   3.062   2.904   2.876  0.2122  0.2694 -0.2022
  321SOL    HW1  962   3.048   2.978   2.946  0.7452 -1.7156 -0.4778
  321SOL    HW2  963   2.977   2.870   2.841  2.0071  0.3222 -0.0139
  322SOL     OW  964   2.353   0.871   1.288 -0.5852  0.5024 -0.0940
  322SOL    HW1  965   2.312   0.844   1.198  0.4834  1.2229 -1.3460
  322SOL    HW2  966   2.446   0.912   1.281  1.6982  0.8926 -1.2543
  323SOL     OW  967   2.036   1.861   0.333 -0.5768 -0.3956 -0.5337
  323SOL    HW1  968   1.952   1.861   0.278  2.5003  0.4149  1.9356
  323SOL    HW2  969   2.043   1.769   0.382  1.4160 -3.3588 -1.8690
  324SOL     OW  970   2.857   0.434   1.284 -0.6052  0.0282 -0.6439
  324SOL    HW1  971   2.841   0.354   1.221 -3.0798 -3.6962 -1.4230
  324SOL    HW2  972   2.946   0.480   1.264  0.7681 -0.0379  0.1671
  325SOL     OW  973   2.741   2.589   0.651  0.0186  0.2228 -0.7115
  325SOL    HW1  974   2.725   2.624   0.748  3.1767  0.9382  0.0599
  325SOL    HW2  975   2.674   2.631   0.586 -0.3275  1.6812 -2.0664
  326SOL     OW  976   1.483   2.720   0.585 -0.3277 -0.2902  0.0355
  326SOL    HW1  977   1.453   2.754   0.494 -0.6326  2.5985 -1.0509
  326SOL    HW2  978   1.586   2.715   0.600 -0.9790 -0.4773 -1.2572
  327SOL     OW  979   2.112   2.461   0.325 -0.2113 -0.0376  0.1254
  327SOL    HW1  980   2.097   2.396   0.250  0.1915  1.7613  1.2165
  327SOL    HW2  981   2.060   2.543   0.315 -0.8195 -2.1111  2.3720
  328SOL     OW  982   2.400   2.456   1.837  0.0089 -0.0667  0.1309
  328SOL    HW1  983   2.499   2.437   1.848  0.7221 -0.2868 -0.5682
  328SOL    HW2  984   2.391   2.560   1.842  0.6592 -0.8234 -0.9277
  329SOL     OW  985   0.416   2.361   0.844  0.0106  1.1531 -0.1183
  329SOL    HW1  986   0.329   2.408   0.855  1.4713  0.5299 -1.2567
  329SOL    HW2  987   0.404   2.260   0.841  1.6473 -0.4912  2.6154
  330SOL     OW  988   2.227   0.913   1.694  0.4979 -0.0311 -0.5752
  330SOL    HW1  989   2.321   0.924   1.651  0.2724  0.7914  2.8939
  330SOL    HW2  990   2.225   0.836   1.754  1.4534 -0.0525 -1.6806
  331SOL     OW  991   2.463   1.659   0.847  0.1946  0.6924  0.3621
  331SOL    HW1  992   2.451   1.664   0.949 -2.7803  0.6212  1.3662
  331SOL    HW2  993   2.435   1.746   0.800  0.4764  1.6598  0.4601
  332SOL     OW  994   0.021   2.652   1.256 -0.2831  0.0284 -0.1295
  332SOL    HW1  995   0.104   2.615   1.217 -2.7406 -1.5040  1.3130
  332SOL    HW2  996   0.029   2.747   1.287  0.2417  0.0162  2.2962
  333SOL     OW  997   3.036   1.722   1.551  0.4942  0.1107 -0.1708
  333SOL    HW1  998   0.016   1.698   1.513  0.2836  1.6767 -1.3011
  333SOL    HW2  999   2.975   1.772   1.488  0.3668  2.1311  0.9714
  334SOL     OW 1000   0.509   0.454   1.426  0.5039  0.5867 -0.3003
  334SOL    HW1 1001   0.565   0.367   1.436  0.9862  0.1218  0.2399
  334SOL    HW2 1002   0.417   0.433   1.391 -1.7055 -0.8200  1.6490
  335SOL     OW 1003   2.706   1.646   1.911  0.2806 -0.1419 -0.3204
  335SOL    HW1 1004   2.777   1.709   1.874  0.1049 -0.6522 -3.8707
  335SOL    HW2 1005   2.617   1.678   1.870  0.0570  1.2326 -1.9600
  336SOL     OW 1006   1.889   3.027   0.270  0.2375 -0.0953  0.0002
  336SOL    HW1 1007   1.900   2.965   0.351 -0.9531 -1.6652 -0.5374
  336SOL    HW2 1008   1.893   2.970   0.180  0.4689 -0.8971 -2.2748
  337SOL     OW 1009   0.769   0.492   1.332 -0.5683 -0.0544  0.0105
  337SOL    HW1 1010   0.768   0.446   1.242 -0.2119 -3.3941 -1.8805
  337SOL    HW2 1011   0.675   0.500   1.376  0.9780  0.8256  1.3233
  338SOL     OW 1012   1.802   2.394   0.894  0.4934  0.0573  0.2271
  338SOL    HW1 1013   1.879   2.326   0.897  0.5204  2.6601  2.5555
  338SOL    HW2 1014   1.803   2.451   0.978  0.1189 -0.2521 -1.7704
  339SOL     OW 1015   0.355   1.649   1.064  0.4837 -0.5187  0.6342
  339SOL    HW1 1016   0.256   1.673   1.080  0.9306 -1.6109  1.6601
  339SOL    HW2 1017   0.408   1.734   1.033 -1.1681  0.0346  0.6750
  340SOL     OW 1018   0.208   3.072   2.281 -0.4025  0.4406 -0.3715
  340SOL    HW1 1019   0.284   3.011   2.255 -0.3672 -0.4096 -1.2857
  340SOL    HW2 1020   0.211   3.094   2.382 -0.3538 -0.2161 -1.0843
  341SOL     OW 1021   2.510   1.298   0.516  0.6510  0.0623  0.3365
  341SOL    HW1 1022   2.483   1.391   0.479  1.0465 -1.6135 -0.6441
  341SOL    HW2 1023   2.608   1.299   0.542 -0.8706 -1.8034  1.6921
  342SOL     OW 1024   1.776   2.083   0.362 -0.6242 -0.1393 -0.4241
  342SOL    HW1 1025   1.698   2.147   0.356  0.0655  0.1289 -0.6383
  342SOL    HW2 1026   1.832   2.111   0.440 -0.1724 -2.2025 -2.7077
  343SOL     OW 1027   1.811   0.429   0.790  0.4856  0.0845 -0.3688
  343SOL    HW1 1028   1.793   0.480   0.879  1.4598 -1.8380 -1.4458
  343SOL    HW2 1029   1.811   0.330   0.798  0.8367  3.6294 -1.8191
  344SOL     OW 1030   2.356   0.350   3.036  0.3521 -0.3421  0.0576
  344SOL    HW1 1031   2.445   0.304   3.065  1.3807 -4.0175  1.5073
  344SOL    HW2 1032   2.282   0.276   3.034  3.1746 -1.2681  1.2121
  345SOL     OW 1033   1.275   0.178   1.111  0.1009 -0.3185  0.4759
  345SOL    HW1 1034   1.280   0.078   1.133 -0.9596 -0.8419  1.2957
  345SOL    HW2 1035   1.181   0.207   1.129  1.3479  1.0240 -1.0766
  346SOL     OW 1036   2.134   2.456   1.412  0.0031 -0.2627  0.1454
  346SOL    HW1 1037   2.138   2.392   1.493 -0.3983  2.3287 -2.4693
  346SOL    HW2 1038   2.181   2.419   1.332 -0.4684  1.3466  1.4077
  347SOL     OW 1039   2.870   3.104   0.682 -0.6779  0.1092  0.1525
  347SOL    HW1 1040   2.905   3.039   0.610 -0.8702 -2.0055 -1.9056
  347SOL    HW2 1041   2.801   3.058   0.744 -1.3549 -1.4961  0.7128
  348SOL     OW 1042   0.575   1.058   1.182 -0.2067  0.3690  0.0060
  348SOL    HW1 1043   0.588   0.967   1.130 -0.1018 -3.5518  1.1007
  348SOL    HW2 1044   0.657   1.117   1.181  0.2707 -1.1672  1.4205
  349SOL     OW 1045   2.173   0.160   0.012 -0.1061  0.1729  0.0523
  349SOL    HW1 1046   2.142   0.086   3.065 -0.9957  2.3787 -0.9193
  349SOL    HW2 1047   2.096   0.216   0.050  2.4810  1.4342 -0.3072
  350SOL     OW 1048   2.575   2.012   0.131  0.2701 -0.1989  0.2091
  350SOL    HW1 1049   2.575   2.056   0.224  1.1472 -0.1780 -0.2962
  350SOL    HW2 1050   2.609   2.088   0.064  0.4493  2.3961 -2.2653
  351SOL     OW 1051   0.930   0.302   0.971  0.2363  0.5126 -0.2850
  351SOL    HW1 1052   0.974   0.229   0.916  2.5347 -0.2162 -1.0625
  351SOL    HW2 1053   0.990   0.310   1.054  2.3874 -0.0805  1.8728
  352SOL     OW 1054   1.918   2.215   2.795 -0.4007 -0.1749 -0.2106
  352SOL    HW1 1055   1.986   2.140   2.785 -0.1911  1.6331 -0.9611
  352SOL    HW2 1056   1.951   2.299   2.749  1.7432 -0.7361  1.7004
  353SOL     OW 1057   0.771   0.621   0.164  0.5395 -0.6463 -0.2625
  353SOL    HW1 1058   0.753   0.549   0.097 -0.7474 -1.2588  1.5537
  353SOL    HW2 1059   0.725   0.594   0.250 -1.5565 -2.2133  1.5595
  354SOL     OW 1060   0.630   1.886   3.042  0.0579  0.2501  0.3964
  354SOL    HW1 1061   0.611   1.784   3.032  0.2225 -0.9240  2.3328
  354SOL    HW2 1062   0.721   1.889   3.095  4.8362 -0.8865  2.8814
  355SOL     OW 1063   2.907   2.666   2.201 -0.1467 -0.5191  0.1290
  355SOL    HW1 1064   2.917   2.563   2.213 -0.1190  0.1144 -0.7157
  355SOL    HW2 1065   2.925   2.718   2.288  1.8150  1.2121  1.3087
  356SOL     OW 1066   2.745   0.752   0.773  0.5520  0.1908 -0.0252
  356SOL    HW1 1067   2.656   0.799   0.746  0.9816  2.1287  0.3594
  356SOL    HW2 1068   2.733   0.651   0.759 -0.7228  0.9780 -1.9485
  357SOL     OW 1069   2.417   0.260   1.044  0.0112  0.0970  0.0306
  357SOL    HW1 1070   2.438   0.236   1.140  1.7895  1.7525 -1.7549
  357SOL    HW2 1071   2.320   0.273   1.025  1.3867 -0.6311  0.7068
  358SOL     OW 1072   1.411   2.951   1.623 -0.1474  0.4185  0.1087
  358SOL    HW1 1073   1.462   3.034   1.607 -0.1428  0.0907  0.5119
  358SOL    HW2 1074   1.310   2.971   1.628 -0.8359 -2.4745 -0.0860
  359SOL     OW 1075   3.042   2.319   2.647 -0.1610  0.0825 -0.2323
  359SOL    HW1 1076   3.036   2.230   2.603 -0.1424 -0.7779 -0.1176
  359SOL    HW2 1077   3.036   2.310   2.749  1.3966 -0.1091  0.0535
  360SOL     OW 1078   0.590   1.188   1.502  0.2244 -0.2001 -0.3760
  360SOL    HW1 1079   0.650   1.157   1.578  0.9129 -0.5307 -0.6470
  360SOL    HW2 1080   0.557   1.109   1.452 -0.6506  0.2163  2.4980
  361SOL     OW 1081   2.379   2.843   0.576 -0.2911  0.4776  1.0068
  361SOL    HW1 1082   2.314   2.908   0.522 -1.3030  2.1978  0.8081
  361SOL    HW2 1083   2.476   2.863   0.551 -0.0322 -0.0872  1.2221
  362SOL     OW 1084   0.002   2.795   0.874  0.5378  0.2034  0.1145
  362SOL    HW1 1085   0.096   2.787   0.844 -0.5771 -2.1138  3.8815
  362SOL    HW2 1086   3.054   2.782   0.793 -0.4994  0.1048  0.8222
  363SOL     OW 1087   0.751   1.490   0.759  0.5765 -0.7222  0.2506
  363SOL    HW1 1088   0.745   1.465   0.662  0.2498  1.7097  0.8713
  363SOL    HW2 1089   0.841   1.542   0.779 -0.2557  0.6351  1.8239
  364SOL     OW 1090   0.885   1.360   1.366  0.5714 -0.1789 -0.6605
  364SOL    HW1 1091   0.819   1.337   1.435 -0.0572 -0.6526 -2.0921
  364SOL    HW2 1092   0.978   1.328   1.401  1.4792  0.5927  1.1736
  365SOL     OW 1093   2.613   1.782   0.439  0.0823 -0.2025  0.1231
  365SOL    HW1 1094   2.663   1.869   0.456 -2.0401  0.4055  1.6384
  365SOL    HW2 1095   2.615   1.774   0.337  0.0270 -1.5771  0.1865
  366SOL     OW 1096   2.823   1.568   1.037  0.0056 -0.2959 -0.2890
  366SOL    HW1 1097   2.920   1.545   1.031 -3.4122  0.9172  4.2549
  366SOL    HW2 1098   2.814   1.668   1.044 -0.5953 -2.1447 -2.9839
  367SOL     OW 1099   2.313   1.953   1.768 -0.0634 -0.3316  0.2202
  367SOL    HW1 1100   2.224   1.935   1.812  0.4461  0.0691 -1.7477
  367SOL    HW2 1101   2.312   2.043   1.720 -2.8292 -0.2032 -1.8926
  368SOL     OW 1102   2.588   1.013   1.252  0.0771  0.4462 -0.1816
  368SOL    HW1 1103   2.612   1.084   1.322 -0.3724 -1.0155  1.3642
  368SOL    HW2 1104   2.674   0.998   1.199  3.7631  3.2608  2.0479
  369SOL     OW 1105   2.009   2.720   0.334 -0.3931  0.3050 -0.0989
  369SOL    HW1 1106   1.976   2.779   0.409 -1.1957  0.9488  1.2544
  369SOL    HW2 1107   2.082   2.772   0.280  2.3263 -1.4246  0.7430
  370SOL     OW 1108   2.780   2.454   1.322  0.0234  0.3341 -0.3776
  370SOL    HW1 1109   2.769   2.511   1.405  1.1980 -0.8490 -2.4497
  370SOL    HW2 1110   2.873   2.436   1.289 -2.7453  1.3153  1.8384
  371SOL     OW 1111   0.722   1.670   2.530 -0.0054  0.3032 -0.6317
  371SOL    HW1 1112   0.711   1.751   2.593 -0.0225 -0.7075  1.1774
  371SOL    HW2 1113   0.714   1.709   2.436  0.2390 -0.4716 -1.3773
  372SOL     OW 1114   0.995   1.169   0.298 -0.1543  0.1688  0.3266
  372SOL    HW1 1115   0.895   1.150   0.292 -0.1286 -0.6020 -1.3595
  372SOL    HW2 1116   1.039   1.110   0.368 -0.2485  0.1992 -0.9928
  373SOL     OW 1117   1.283   2.621   0.208 -0.4679  0.5308  0.3395
  373SOL    HW1 1118   1.257   2.568   0.292 -0.1451  0.6424 -0.9496
  373SOL    HW2 1119   1.287   2.562   0.119  1.8880 -3.7777 -1.4492
  374SOL     OW 1120   0.368   1.777   0.160  0.2145 -0.6842  0.1954
  374SOL    HW1 1121   0.313   1.729   0.092  3.2823  0.8071  0.8180
  374SOL    HW2 1122   0.411   1.712   0.227 -0.2070  0.5427 -0.4334
  375SOL     OW 1123   1.047   1.714   1.980  0.1566 -0.3302  0.7016
  375SOL    HW1 1124   1.145   1.730   1.986 -0.5201  0.6802 -0.0080
  375SOL    HW2 1125   1.029   1.613   1.970 -2.7426 -0.2050  2.3836
  376SOL     OW 1126   0.792   2.553   1.538 -0.5273  0.5422  0.1030
  376SOL    HW1 1127   0.773   2.609   1.617  1.7437  0.5483  0.6213
  376SOL    HW2 1128   0.873   2.581   1.492 -2.4013  0.4694  1.8984
  377SOL     OW 1129   2.322   1.342   2.179 -0.0677 -0.0818 -0.2616
  377SOL    HW1 1130   2.294   1.274   2.249  1.7550  1.6251 -1.1880
  377SOL    HW2 1131   2.242   1.403   2.164 -1.5315 -1.3087 -0.9519
  378SOL     OW 1132   1.237   0.390   2.446  0.1592 -0.1998  0.3760
  378SOL    HW1 1133   1.174   0.332   2.392  1.2271 -1.3344  0.6556
  378SOL    HW2 1134   1.337   0.381   2.432 -0.2418 -0.4578  0.9467
  379SOL     OW 1135   1.444   0.643   0.735 -0.5247 -0.3861 -0.3160
  379SOL    HW1 1136   1.523   0.699   0.764  0.8022 -1.8653 -0.0291
  379SOL    HW2 1137   1.398   0.606   0.817 -2.0755 -1.1567  1.1025
  380SOL     OW 1138   0.167   2.046   1.465  0.5197  0.3565 -0.2793
  380SOL    HW1 1139   0.198   2.140   1.421  1.3909  2.4169 -3.6941
  380SOL    HW2 1140   0.082   2.060   1.521  1.9230 -1.5506 -0.6862
  381SOL     OW 1141   1.640   1.720   1.613  0.4688  0.0286 -0.3748
  381SOL    HW1 1142   1.613   1.688   1.703 -0.5178 -0.6054 -1.4925
  381SOL    HW2 1143   1.554   1.710   1.560  2.4725  0.0004  0.3972
  382SOL     OW 1144   3.063   0.406   2.875  0.7370 -0.2103  0.0373
  382SOL    HW1 1145   2.990   0.339   2.856  0.9588  0.6643 -1.5114
  382SOL    HW2 1146   3.104   0.401   2.969 -0.3564 -1.2706 -2.8106
  383SOL     OW 1147   1.519   1.483   2.615 -0.2082  0.1869 -0.2133
  383SOL    HW1 1148   1.446   1.475   2.684 -1.2429 -1.7821 -2.7269
  383SOL    HW2 1149   1.613   1.475   2.656 -2.0729  3.6513  0.7807
  384SOL     OW 1150   1.159   2.607   1.149  0.7409 -0.0937 -0.0938
  384SOL    HW1 1151   1.150   2.674   1.073 -2.0134 -1.7894 -0.0423
  384SOL    HW2 1152   1.251   2.566   1.146 -2.3900  0.6561 -1.3293
  385SOL     OW 1153   2.019   2.281   1.089 -0.4378  0.3404 -0.2435
  385SOL    HW1 1154   2.016   2.227   1.006  0.5449  3.0624  2.0242
  385SOL    HW2 1155   1.966   2.236   1.163 -0.0164 -1.1115 -1.0797
  386SOL     OW 1156   2.351   2.128   1.284 -0.6701  0.0122 -0.2209
  386SOL    HW1 1157   2.257   2.097   1.317  3.4002  2.9344  0.6077
  386SOL    HW2 1158   2.364   2.228   1.286  0.3809  0.0856 -3.1955
  387SOL     OW 1159   0.634   2.200   1.175  0.1289  0.0877  0.3344
  387SOL    HW1 1160   0.631   2.256   1.263 -0.7193  0.0277  1.3922
  387SOL    HW2 1161   0.550   2.136   1.171 -2.2763 -4.6184 -0.5344
  388SOL     OW 1162   2.809   0.896   1.883  0.3367 -0.8934  0.1769
  388SOL    HW1 1163   2.750   0.843   1.948 -0.5271 -1.8726  0.6769
  388SOL    HW2 1164   2.903   0.860   1.894  3.5760  0.5960 -0.9173
  389SOL     OW 1165   1.767   1.318   1.187 -0.1788  0.1771 -0.5356
  389SOL    HW1 1166   1.722   1.407   1.153  1.3719  0.6756 -0.1680
  389SOL    HW2 1167   1.714   1.273   1.257  1.2434  1.5076 -3.1243
  390SOL     OW 1168   0.946   2.168   1.928 -0.1742 -0.1016  0.1787
  390SOL    HW1 1169   0.913   2.221   2.012  0.0532  1.3365  0.0125
  390SOL    HW2 1170   0.898   2.207   1.845  0.8788  2.4166 -0.1193
  391SOL     OW 1171   0.987   1.936   2.649  0.2254 -0.5899  0.4555
  391SOL    HW1 1172   0.885   1.922   2.649 -2.3469 -0.1193  1.1411
  391SOL    HW2 1173   1.000   2.010   2.579 -0.6155  0.6613 -1.5280
  392SOL     OW 1174   2.941   2.791   2.443  0.0670  0.0590  0.0247
  392SOL    HW1 1175   2.932   2.771   2.543  1.0218  0.5537 -0.0051
  392SOL    HW2 1176   3.043   2.799   2.424 -0.3274 -4.2775  1.9505
  393SOL     OW 1177   1.939   2.908   0.538 -0.2040 -0.2685  0.2014
  393SOL    HW1 1178   1.859   2.956   0.583  0.9158 -0.3966 -0.6979
  393SOL    HW2 1179   1.995   2.857   0.609  0.3976 -0.5415  0.0750
  394SOL     OW 1180   0.547   0.699   2.459 -0.3390  0.0465  0.5510
  394SOL    HW1 1181   0.505   0.791   2.465  2.0995 -0.6884  1.5567
  394SOL    HW2 1182   0.579   0.674   2.365  2.0207  0.3543  1.2714
  395SOL     OW 1183   0.468   1.431   1.514 -0.5774 -0.1905  0.4750
  395SOL    HW1 1184   0.506   1.334   1.511 -0.7765 -2.1361  0.6772
  395SOL    HW2 1185   0.509   1.489   1.588  0.3853  1.4377 -0.6586
  396SOL     OW 1186   1.649   1.671   2.139 -0.5946  0.3421 -0.1418
  396SOL    HW1 1187   1.563   1.679   2.191  1.2323  2.3587  1.5873
  396SOL    HW2 1188   1.703   1.586   2.166  1.0966  2.7424 -1.6114
  397SOL     OW 1189   0.562   0.538   2.690 -0.2821  0.1304 -0.4168
  397SOL    HW1 1190   0.547   0.575   2.596  1.8198  1.9473 -1.7615
  397SOL    HW2 1191   0.486   0.568   2.752 -0.7829 -0.4026  1.1580
  398SOL     OW 1192   0.398   2.112   2.838  0.2013  0.3036 -0.6831
  398SOL    HW1 1193   0.470   2.162   2.796 -0.3222 -1.1976  0.3660
  398SOL    HW2 1194   0.347   2.055   2.767 -0.2570  0.8620 -0.4118
  399SOL     OW 1195   0.178   1.875   2.226  0.5125 -0.2214 -0.1851
  399SOL    HW1 1196   0.257   1.847   2.170 -2.0877 -1.0072 -1.7750
  399SOL    HW2 1197   0.095   1.812   2.219  0.5034  0.3279 -1.6997
  400SOL     OW 1198   2.680   0.227   1.712 -0.4978 -0.5017  0.0155
  400SOL    HW1 1199   2.593   0.195   1.676  0.6002  0.3742 -2.1471
  400SOL    HW2 1200   2.732   0.274   1.639  0.6968  1.2031  1.6897
  401SOL     OW 1201   0.770   1.656   0.249 -0.7757  0.4750  0.3288
  401SOL    HW1 1202   0.846   1.586   0.233  0.3870  0.5019  1.8007
  401SOL    HW2 1203   0.789   1.706   0.334 -0.3431 -3.7408  0.1949
  402SOL     OW 1204   0.236   2.543   1.949  0.0713  0.2018 -0.3847
  402SOL    HW1 1205   0.175   2.526   1.872  3.9281  1.6046  3.8802
  402SOL    HW2 1206   0.219   2.482   2.030  4.0094  1.8843 -0.5440
  403SOL     OW 1207   0.685   0.966   2.138 -0.3062 -0.5372  0.1526
  403SOL    HW1 1208   0.719   1.003   2.227  2.8130 -0.4459  1.2662
  403SOL    HW2 1209   0.582   0.956   2.130  0.0321 -0.5058 -0.6835
  404SOL     OW 1210   1.663   2.329   1.511  0.2191 -0.3634 -0.2609
  404SOL    HW1 1211   1.733   2.349   1.442  1.0505  1.1757  1.1814
  404SOL    HW2 1212   1.609   2.242   1.498 -0.3835  0.0491 -1.0959
  405SOL     OW 1213   2.483   2.373   2.909  0.2391 -0.3806 -0.2403
  405SOL    HW1 1214   2.545   2.448   2.952  2.3246 -0.8169  0.9942
  405SOL    HW2 1215   2.385   2.378   2.939  0.7330  0.1352  0.0551
  406SOL     OW 1216   0.678   1.191   2.609 -0.3835  0.2711  0.1572
  406SOL    HW1 1217   0.700   1.137   2.695  2.7204  0.2144  0.2681
  406SOL    HW2 1218   0.719   1.287   2.614 -1.1707 -0.2863  1.3113
  407SOL     OW 1219   2.217   2.812   3.013 -0.4362 -0.0806  0.8829
  407SOL    HW1 1220   2.303   2.790   2.959  2.6076 -1.1524  2.3885
  407SOL    HW2 1221   2.238   2.813   0.007  0.6393  3.4882  3.0925
  408SOL     OW 1222   2.757   2.536   0.175 -0.8493  0.4037  0.0079
  408SOL    HW1 1223   2.787   2.441   0.150 -1.0507 -1.3498  2.2753
  408SOL    HW2 1224   2.668   2.539   0.228 -0.3119  1.8795 -1.0567
  409SOL     OW 1225   2.329   1.148   0.370  0.4880 -0.0086 -0.1723
  409SOL    HW1 1226   2.381   1.203   0.437  0.3631 -1.6469 -0.1364
  409SOL    HW2 1227   2.230   1.136   0.395 -0.3643  0.4641 -2.1099
  410SOL     OW 1228   2.953   1.686   0.773 -0.4454 -0.3356  0.3145
  410SOL    HW1 1229   2.852   1.681   0.757  2.5717 -1.4048  1.1894
  410SOL    HW2 1230   2.974   1.633   0.858 -2.3110  0.7317  1.4234
  411SOL     OW 1231   0.196   1.485   0.744 -0.2227 -0.2927  0.4323
  411SOL    HW1 1232   0.232   1.461   0.838  1.3938  2.5938  0.7541
  411SOL    HW2 1233   0.266   1.456   0.671  2.1972  0.3774 -1.2589
  412SOL     OW 1234   2.279   2.319   0.736  0.5211 -0.5092  0.3886
  412SOL    HW1 1235   2.280   2.347   0.834  0.9650  0.5245  0.7943
  412SOL    HW2 1236   2.265   2.217   0.729 -0.7343 -1.1999 -2.6878
  413SOL     OW 1237   1.466   1.129   2.037 -0.0059  0.2329 -0.0223
  413SOL    HW1 1238   1.402   1.108   1.960  0.8785  0.4153  1.5627
  413SOL    HW2 1239   1.418   1.171   2.116 -0.3194  0.5589 -0.1231
  414SOL     OW 1240   3.039   2.784   0.158 -0.4415  0.1623  0.8389
  414SOL    HW1 1241   3.036   2.742   0.063 -3.5165 -0.7221 -3.2280
  414SOL    HW2 1242   2.944   2.783   0.193 -2.4829 -2.1232 -0.9293
  415SOL     OW 1243   1.142   1.968   1.644  0.4866  0.5776  0.0423
  415SOL    HW1 1244   1.164   2.037   1.717  1.0496 -0.6916  0.7236
  415SOL    HW2 1245   1.084   1.890   1.673  0.3645  1.9618 -1.7981
  416SOL     OW 1246   2.811   2.443   2.518  0.3986  0.1465  0.6035
  416SOL    HW1 1247   2.862   2.447   2.607  2.4651  0.3656 -0.8260
  416SOL    HW2 1248   2.875   2.441   2.441  0.0504  0.2676 -0.8827
  417SOL     OW 1249   2.591   0.484   1.300  0.2356 -0.5106  0.1225
  417SOL    HW1 1250   2.547   0.392   1.304  1.0963 -0.3259  0.9468
  417SOL    HW2 1251   2.692   0.469   1.314 -0.8070  2.7341 -0.2117
  418SOL     OW 1252   2.868   0.139   0.118  0.2533 -0.0191  0.3224
  418SOL    HW1 1253   2.785   0.087   0.146 -0.2693 -0.3547  1.1135
  418SOL    HW2 1254   2.844   0.236   0.119  0.2044 -1.7938  1.6886
  419SOL     OW 1255   0.024   1.517   1.312  0.7393  0.0200 -0.4300
  419SOL    HW1 1256   3.041   1.502   1.353 -2.6431 -1.5941 -0.0727
  419SOL    HW2 1257   0.090   1.451   1.353 -2.1328  1.5574 -2.5141
  420SOL     OW 1258   0.332   1.426   3.033 -0.0555 -0.3054  0.1839
  420SOL    HW1 1259   0.315   1.373   0.006  0.1379  2.0031  0.3201
  420SOL    HW2 1260   0.408   1.371   2.995  2.3362  0.7720  1.2463
  421SOL     OW 1261   2.403   2.419   2.379  0.4261 -0.2180  0.7533
  421SOL    HW1 1262   2.344   2.493   2.414  0.9879 -1.9701  0.3463
  421SOL    HW2 1263   2.380   2.384   2.287 -0.8274 -0.2580 -0.2724
  422SOL     OW 1264   0.472   0.960   2.479  1.1598  0.1473 -0.4386
  422SOL    HW1 1265   0.488   1.059   2.458 -1.2452  1.8327 -1.7814
  422SOL    HW2 1266   0.383   0.953   2.527 -2.8689  2.2114  0.2291
  423SOL     OW 1267   1.134   2.002   0.754  0.0359  0.6359  0.1798
  423SOL    HW1 1268   1.186   2.048   0.828  0.9862  0.2663  1.9088
  423SOL    HW2 1269   1.097   2.076   0.695  0.3018  1.5633  0.6935
  424SOL     OW 1270   0.861   1.748   1.689  0.1758  0.2812 -0.1096
  424SOL    HW1 1271   0.850   1.829   1.754  1.1632  2.3433  1.4212
  424SOL    HW2 1272   0.808   1.666   1.719 -0.8344  0.1669 -1.5164
  425SOL     OW 1273   2.618   2.275   2.421 -0.3157 -0.2696 -0.0770
  425SOL    HW1 1274   2.695   2.321   2.473  0.2539 -0.5438 -1.2535
  425SOL    HW2 1275   2.538   2.333   2.421  0.2291 -2.1125  0.4960
  426SOL     OW 1276   1.576   0.925   1.111  0.0756  0.0487 -0.4879
  426SOL    HW1 1277   1.650   0.914   1.180  0.0115  0.4376 -0.9596
  426SOL    HW2 1278   1.551   1.027   1.106 -1.5825  0.2408 -0.6240
  427SOL     OW 1279   0.266   1.504   2.737  0.1244 -0.5187  0.0402
  427SOL    HW1 1280   0.257   1.500   2.838  1.9911 -0.3791 -1.2766
  427SOL    HW2 1281   0.237   1.418   2.691 -0.9730  1.0595  0.4875
  428SOL     OW 1282   0.985   1.476   0.206 -0.3285 -0.3544  0.0945
  428SOL    HW1 1283   1.071   1.475   0.153 -0.2391 -1.3153 -2.0316
  428SOL    HW2 1284   0.968   1.390   0.254  3.1598  2.2889  3.0555
  429SOL     OW 1285   0.070   2.492   0.485 -0.4326 -0.3835 -0.3475
  429SOL    HW1 1286   0.159   2.443   0.513 -1.3396 -0.7047 -1.3170
  429SOL    HW2 1287   0.062   2.486   0.384  2.4855  2.2056  0.6145
  430SOL     OW 1288   0.602   2.413   2.078  0.3649  0.2964  0.2707
  430SOL    HW1 1289   0.604   2.441   2.176 -3.4946  2.3391 -2.5108
  430SOL    HW2 1290   0.517   2.355   2.052 -1.2523  0.1525  0.7513
  431SOL     OW 1291   3.095   1.049   0.149 -0.5768  0.7020  0.1865
  431SOL    HW1 1292   0.016   1.006   0.236 -1.0592  0.3400 -0.9177
  431SOL    HW2 1293   3.001   1.020   0.125 -0.8152  0.0879  0.5226
  432SOL     OW 1294   1.714   2.557   2.772 -0.1123 -0.0809 -0.0077
  432SOL    HW1 1295   1.728   2.539   2.872  0.8097  1.6093 -1.6502
  432SOL    HW2 1296   1.804   2.588   2.733  2.7981 -1.2308 -1.5252
  433SOL     OW 1297   1.208   2.449   0.803  0.5044 -0.0317  0.1314
  433SOL    HW1 1298   1.120   2.437   0.761  6.5377  3.8784 -2.6398
  433SOL    HW2 1299   1.205   2.535   0.855 -0.6388  1.3129 -0.3265
  434SOL     OW 1300   1.499   1.925   2.377 -0.5220  0.3376  0.1126
  434SOL    HW1 1301   1.555   1.995   2.421  2.1602 -2.2896 -0.5249
  434SOL    HW2 1302   1.516   1.838   2.425  0.0378  2.4759  2.6936
  435SOL     OW 1303   2.395   0.704   0.215  0.0021  0.2718  0.6684
  435SOL    HW1 1304   2.378   0.794   0.171  1.8810  1.2191 -0.2266
  435SOL    HW2 1305   2.374   0.708   0.316 -1.6423  1.4745  1.2441
  436SOL     OW 1306   0.356   2.611   2.240 -0.1090 -0.0828  0.1832
  436SOL    HW1 1307   0.305   2.542   2.189  0.1580 -0.6274 -1.1853
  436SOL    HW2 1308   0.457   2.589   2.247  1.0938  1.1290 -0.9844
  437SOL     OW 1309   2.135   2.942   1.620 -0.0389  0.2167  0.3239
  437SOL    HW1 1310   2.117   2.850   1.577 -1.8364  1.7483 -0.8481
  437SOL    HW2 1311   2.078   3.018   1.581  2.5455 -0.2617 -0.3269
  438SOL     OW 1312   0.150   1.739   0.471  0.3101 -0.4937  0.6766
  438SOL    HW1 1313   0.168   1.769   0.562  0.4588 -2.5277 -2.2973
  438SOL    HW2 1314   0.158   1.817   0.404  0.0963  0.8295  0.5971
  439SOL     OW 1315   0.033   3.035   0.998 -0.4347  0.8449  0.0433
  439SOL    HW1 1316   0.013   0.003   0.938  0.6817 -1.0156 -0.7407
  439SOL    HW2 1317   0.020   2.943   0.948 -1.5824 -1.7537 -1.8630
  440SOL     OW 1318   2.608   2.603   2.361  0.3540 -0.2503 -0.0743
  440SOL    HW1 1319   2.526   2.549   2.340 -0.8695  0.3667  1.7464
  440SOL    HW2 1320   2.674   2.552   2.424  0.7271  0.4409  1.9742
  441SOL     OW 1321   0.115   0.872   0.355  0.2193 -0.2866 -0.4787
  441SOL    HW1 1322   0.163   0.963   0.360  0.4177  0.1991 -0.4447
  441SOL    HW2 1323   0.031   0.865   0.413 -1.3158 -0.1322  0.4721
  442SOL     OW 1324   1.721   2.286   2.381 -0.0142  0.0201  0.3244
  442SOL    HW1 1325   1.685   2.211   2.445  0.4342 -0.5052 -0.2662
  442SOL    HW2 1326   1.671   2.372   2.401 -2.2680  0.1785  1.7834
  443SOL     OW 1327   0.846   3.012   2.795  0.0902  0.1363 -0.1747
  443SOL    HW1 1328   0.919   3.039   2.730  0.5593  0.7218  1.1505
  443SOL    HW2 1329   0.844   2.911   2.820  0.2415 -1.9114 -1.9780
  444SOL     OW 1330   1.442   1.814   2.735 -0.9006  0.0301 -0.4147
  444SOL    HW1 1331   1.343   1.791   2.729 -4.1549 -0.5412 -0.0340
  444SOL    HW2 1332   1.497   1.783   2.654 -0.6679 -2.5494  1.6885
  445SOL     OW 1333   0.337   0.211   1.050  0.1067 -0.4125  0.2001
  445SOL    HW1 1334   0.235   0.199   1.028 -1.5327  1.2699  0.3924
  445SOL    HW2 1335   0.396   0.171   0.981  0.8841  1.4996 -1.7309
  446SOL     OW 1336   1.634   0.817   0.875 -0.4112  0.4139 -0.1165
  446SOL    HW1 1337   1.615   0.848   0.970  1.3336  0.3615 -5.6757
  446SOL    HW2 1338   1.734   0.785   0.869  0.8157 -2.6122 -0.3576
  447SOL     OW 1339   2.998   0.684   0.168  0.4721 -0.8188  0.1766
  447SOL    HW1 1340   2.983   0.584   0.157  3.2040  1.2124  1.6452
  447SOL    HW2 1341   3.035   0.701   0.261  1.1249  0.2635 -1.6033
  448SOL     OW 1342   2.368   1.946   1.082  0.7361  0.2065 -0.1194
  448SOL    HW1 1343   2.399   1.853   1.103 -2.3567  1.6218 -1.3014
  448SOL    HW2 1344   2.385   2.003   1.162  1.4855 -1.8184 -0.9703
  449SOL     OW 1345   0.944   1.297   2.956 -0.4960  0.2170 -0.0741
  449SOL    HW1 1346   1.007   1.330   2.882  2.7856  1.1795  0.4203
  449SOL    HW2 1347   0.876   1.364   2.978  1.3313 -0.6065  2.1249
  450SOL     OW 1348   2.264   2.620   2.495 -0.1900 -0.3712  0.1107
  450SOL    HW1 1349   2.166   2.639   2.479  0.0403  1.5120  0.7188
  450SOL    HW2 1350   2.311   2.710   2.491  0.8662 -0.1224 -0.3470
  451SOL     OW 1351   2.356   0.704   2.563 -0.4978 -0.1201 -0.2073
  451SOL    HW1 1352   2.415   0.719   2.483 -0.2699 -0.1039  2.4905
  451SOL    HW2 1353   2.279   0.771   2.552 -2.6159  2.2961  0.4244
  452SOL     OW 1354   1.674   1.371   1.503  0.0507 -0.4835 -0.2336
  452SOL    HW1 1355   1.738   1.447   1.483 -1.7330  2.2847 -1.0924
  452SOL    HW2 1356   1.581   1.409   1.521  0.0766  1.2997 -0.3096
  453SOL     OW 1357   1.744   0.463   1.915  0.6853  0.1969  0.0463
  453SOL    HW1 1358   1.749   0.380   1.979  1.4844 -1.2836 -2.6599
  453SOL    HW2 1359   1.739   0.440   1.816 -1.0240  2.3278 -1.1427
  454SOL     OW 1360   3.048   0.942   2.926  0.2397  0.1436 -0.2967
  454SOL    HW1 1361   3.043   0.920   2.824 -1.6997 -0.0844 -1.2987
  454SOL    HW2 1362   3.107   0.871   2.971  0.7396 -0.2031  0.5039
  455SOL     OW 1363   2.228   1.615   1.482  0.4958  0.0471  0.2232
  455SOL    HW1 1364   2.259   1.538   1.423 -1.8972 -1.0344 -0.2659
  455SOL    HW2 1365   2.252   1.596   1.577 -4.3562  1.8794 -3.0368
  456SOL     OW 1366   1.787   2.895   1.620  0.2218 -0.2920 -0.1948
  456SOL    HW1 1367   1.813   2.837   1.537  1.8127 -0.1563 -2.4227
  456SOL    HW2 1368   1.828   2.990   1.602  2.7616 -0.6316 -1.0933
  457SOL     OW 1369   1.358   3.108   0.602 -0.2613 -0.3375  0.3838
  457SOL    HW1 1370   1.373   0.099   0.605  3.1358  1.3912 -1.4124
  457SOL    HW2 1371   1.437   3.073   0.541  0.5091 -0.8430 -0.1739
  458SOL     OW 1372   2.974   2.899   0.522 -0.4466  0.1624 -0.0079
  458SOL    HW1 1373   3.000   2.815   0.575 -0.2125 -2.0543  0.8594
  458SOL    HW2 1374   3.043   2.913   0.446 -0.1250 -2.2395 -0.5492
  459SOL     OW 1375   1.940   1.257   0.643 -0.0022 -0.0655  0.0049
  459SOL    HW1 1376   1.993   1.192   0.702 -2.2286 -1.3469 -1.9694
  459SOL    HW2 1377   1.843   1.262   0.681  0.7816  2.2410 -0.0265
  460SOL     OW 1378   0.910   2.420   2.366  0.1629  0.0119 -0.2699
  460SOL    HW1 1379   0.976   2.496   2.367 -0.0809  2.5659  2.1041
  460SOL    HW2 1380   0.877   2.400   2.455  0.8598  3.4093  0.2530
  461SOL     OW 1381   0.593   1.603   3.068  0.2892  0.1020  0.1997
  461SOL    HW1 1382   0.490   1.617   3.072 -2.8478  0.0127 -0.1116
  461SOL    HW2 1383   0.621   1.524   0.017  0.1610 -0.5376  0.5711
  462SOL     OW 1384   2.347   2.167   0.412  0.0562  0.1459  0.0232
  462SOL    HW1 1385   2.333   2.127   0.505  1.8241 -2.5579 -0.4322
  462SOL    HW2 1386   2.292   2.113   0.341 -0.2299  4.4754  0.0546
  463SOL     OW 1387   2.884   0.422   0.206 -0.1133  0.4220  0.7636
  463SOL    HW1 1388   2.921   0.381   0.291  0.5726  0.3153 -0.1204
  463SOL    HW2 1389   2.785   0.433   0.206  0.6061  0.0948 -1.9823
  464SOL     OW 1390   0.370   1.395   0.548  0.4923  0.2586  0.0086
  464SOL    HW1 1391   0.328   1.441   0.471  1.7388 -2.2350  0.2183
  464SOL    HW2 1392   0.437   1.322   0.514  0.2507 -0.1862 -1.5464
  465SOL     OW 1393   2.220   0.204   1.459  0.0420 -0.5996  0.6057
  465SOL    HW1 1394   2.149   0.134   1.433  0.6321 -2.5539 -2.3772
  465SOL    HW2 1395   2.188   0.264   1.539  0.0774 -2.6872 -1.3829
  466SOL     OW 1396   2.213   3.042   0.839  0.1016 -0.3185  0.2251
  466SOL    HW1 1397   2.238   2.941   0.831  1.7150 -2.9820 -0.1542
  466SOL    HW2 1398   2.281   3.109   0.800 -0.6623  0.4958  0.5904
  467SOL     OW 1399   3.003   0.615   2.204  0.0825  0.3420 -0.4506
  467SOL    HW1 1400   2.966   0.684   2.260 -1.8366 -2.0731  3.0500
  467SOL    HW2 1401   3.074   0.561   2.252 -0.0265  0.2277 -2.1004
  468SOL     OW 1402   2.958   0.170   2.175 -0.2279  0.4298  0.8396
  468SOL    HW1 1403   3.048   0.218   2.175 -1.4359 -0.0019 -0.4951
  468SOL    HW2 1404   2.946   0.125   2.080 -1.4063 -1.4295 -1.2755
  469SOL     OW 1405   0.811   3.072   1.865 -0.0186 -0.0643 -0.3004
  469SOL    HW1 1406   0.805   3.055   1.965 -0.4871  0.2236 -1.4374
  469SOL    HW2 1407   0.810   0.060   1.836  1.2368  0.2173 -3.3701
  470SOL     OW 1408   2.698   0.849   1.651 -0.4521  0.2323  0.0447
  470SOL    HW1 1409   2.760   0.851   1.571  0.1833 -0.7006  0.2325
  470SOL    HW2 1410   2.745   0.893   1.730  0.4700  1.1387 -1.7644
  471SOL     OW 1411   2.795   1.699   2.671  0.0101 -0.1358  0.3007
  471SOL    HW1 1412   2.761   1.762   2.743 -0.9221  0.9676  1.3505
  471SOL    HW2 1413   2.729   1.691   2.595 -1.8228 -3.5319 -1.1170
  472SOL     OW 1414   0.830   1.802   0.481  0.2367 -0.0235  0.4547
  472SOL    HW1 1415   0.925   1.778   0.498  0.4191 -3.1702  0.0589
  472SOL    HW2 1416   0.811   1.895   0.507 -2.3244 -2.2531 -5.1808
  473SOL     OW 1417   1.597   2.271   2.108  0.0731  0.3894  0.0243
  473SOL    HW1 1418   1.542   2.183   2.107  2.1332 -2.1383 -0.6158
  473SOL    HW2 1419   1.655   2.276   2.192  1.2954 -1.0683  0.1070
  474SOL     OW 1420   0.865   2.788   2.472 -0.0413  0.5086 -0.2028
  474SOL    HW1 1421   0.947   2.740   2.433 -0.6445  0.7892 -0.9174
  474SOL    HW2 1422   0.856   2.762   2.569  1.4763  1.5583  1.0832
  475SOL     OW 1423   0.713   1.968   2.745 -0.0310 -0.0026 -0.0416
  475SOL    HW1 1424   0.621   1.921   2.740 -2.6367 -1.7716  2.7005
  475SOL    HW2 1425   0.743   1.956   2.844  0.0707 -0.1247  2.4564
  476SOL     OW 1426   0.565   0.495   0.948  0.0886 -0.0569 -0.0938
  476SOL    HW1 1427   0.520   0.553   1.024  1.7418  2.4342  0.0370
  476SOL    HW2 1428   0.514   0.509   0.856 -0.9661  0.2103  0.5333
  477SOL     OW 1429   1.882   2.431   1.350 -0.2620 -0.3945  0.1004
  477SOL    HW1 1430   1.865   2.462   1.253 -0.1361  1.6462 -1.7202
  477SOL    HW2 1431   1.985   2.420   1.367  1.0691 -0.5530  1.9932
  478SOL     OW 1432   0.230   0.378   2.764 -0.1332  0.2756  0.0970
  478SOL    HW1 1433   0.136   0.358   2.783 -3.8438  1.5892 -0.6218
  478SOL    HW2 1434   0.266   0.466   2.804  1.0636 -0.5543  0.1826
  479SOL     OW 1435   1.079   0.529   1.289  0.0033  0.3035  0.6920
  479SOL    HW1 1436   1.013   0.568   1.351  1.6676  0.8467 -0.7342
  479SOL    HW2 1437   1.105   0.598   1.221 -1.0680  1.3843  0.8555
  480SOL     OW 1438   2.903   2.330   0.129 -0.7679 -0.0552  0.4941
  480SOL    HW1 1439   2.828   2.272   0.101  2.1531  1.5989 -1.3056
  480SOL    HW2 1440   2.967   2.269   0.185  1.5271 -1.7537 -1.6883
  481SOL     OW 1441   0.143   0.712   1.460  0.1283  0.2810  0.3929
  481SOL    HW1 1442   0.238   0.692   1.498 -0.0168 -1.0833  1.8289
  481SOL    HW2 1443   0.070   0.680   1.524  0.0915 -0.6008 -2.4893
  482SOL     OW 1444   1.007   0.016   1.447 -0.1295 -0.7536 -0.2878
  482SOL    HW1 1445   0.936   0.082   1.412  2.0230  1.7371 -0.8909
  482SOL    HW2 1446   0.982   3.026   1.436  0.4189 -2.1414 -2.3707
  483SOL     OW 1447   3.028   1.371   2.432 -0.7390  0.0549  0.3453
  483SOL    HW1 1448   3.004   1.283   2.384  1.5305 -1.7130  1.2450
  483SOL    HW2 1449   2.963   1.386   2.511 -1.9067 -0.4482 -0.1690
  484SOL     OW 1450   1.630   1.600   1.864  0.1477  0.4006 -0.1466
  484SOL    HW1 1451   1.657   1.654   1.948 -0.0540 -1.8961  1.2453
  484SOL    HW2 1452   1.710   1.538   1.845  0.0962 -1.9628 -0.4823
  485SOL     OW 1453   0.075   2.691   2.441 -0.1133  0.3547  0.2215
  485SOL    HW1 1454   0.138   2.695   2.518 -0.7966 -2.1170  1.3276
  485SOL    HW2 1455   0.122   2.729   2.359 -0.6011  0.9935 -1.9210
  486SOL     OW 1456   0.988   0.139   0.747  0.6924 -0.3980  0.3992
  486SOL    HW1 1457   1.065   0.147   0.682  0.5876  1.8555  0.5157
  486SOL    HW2 1458   0.934   0.057   0.729  3.6267  0.5055  0.9250
  487SOL     OW 1459   1.401   0.270   0.899 -0.7642 -0.2962  0.2230
  487SOL    HW1 1460   1.503   0.292   0.912  1.7639 -0.3220  0.9268
  487SOL    HW2 1461   1.346   0.243   0.980 -2.5258 -2.0712 -0.3782
  488SOL     OW 1462   2.365   1.167   0.718 -0.1215  0.5264 -0.2756
  488SOL    HW1 1463   2.409   1.229   0.652 -0.2734  1.5118  0.0620
  488SOL    HW2 1464   2.416   1.078   0.732  1.4656 -0.0466 -0.9908
  489SOL     OW 1465   1.251   0.773   1.317  0.6723 -0.1902  0.5812
  489SOL    HW1 1466   1.348   0.779   1.345 -1.3152  0.4433  0.8774
  489SOL    HW2 1467   1.241   0.760   1.216 -2.4539  1.2065 -3.0036
  490SOL     OW 1468   0.991   0.532   2.852  0.3239  0.2650 -0.3295
  490SOL    HW1 1469   1.063   0.540   2.927 -1.3988  0.8977  0.9564
  490SOL    HW2 1470   0.908   0.586   2.876  1.6025  1.5449  1.4813
  491SOL     OW 1471   0.943   2.420   0.779 -0.4073 -0.7085  0.1816
  491SOL    HW1 1472   0.953   2.463   0.871  1.3958 -1.6463  1.2082
  491SOL    HW2 1473   0.881   2.342   0.782  0.6329  0.5027 -0.1673
  492SOL     OW 1474   1.311   1.682   1.762  0.3224 -0.3924 -0.3220
  492SOL    HW1 1475   1.306   1.779   1.788  0.1464  1.2471 -1.5051
  492SOL    HW2 1476   1.389   1.641   1.813 -0.6477  0.7631 -0.2773
  493SOL     OW 1477   0.503   1.606   0.337  0.1379 -0.2274  0.2211
  493SOL    HW1 1478   0.498   1.617   0.439 -2.3535  2.8393 -0.0351
  493SOL    HW2 1479   0.600   1.613   0.305  0.0545 -1.8590 -0.0242
  494SOL     OW 1480   2.031   2.756   0.765 -0.2549 -0.3904  0.3435
  494SOL    HW1 1481   2.008   2.658   0.739 -1.2307  1.2969 -1.5357
  494SOL    HW2 1482   2.131   2.763   0.793  0.8004  0.8664 -0.5472
  495SOL     OW 1483   0.110   1.530   2.299  0.6610  0.0115 -0.0191
  495SOL    HW1 1484   0.050   1.481   2.364  0.7927  2.3112 -0.1405
  495SOL    HW2 1485   0.178   1.595   2.348  1.8371  4.7233  0.1507
  496SOL     OW 1486   0.489   2.424   2.597  0.2183  0.2002 -0.3113
  496SOL    HW1 1487   0.519   2.337   2.563  1.2362  1.7113 -2.3871
  496SOL    HW2 1488   0.390   2.425   2.608  1.9022 -1.3832  0.3715
  497SOL     OW 1489   1.701   1.405   0.466 -0.4228  0.4876  0.0344
  497SOL    HW1 1490   1.663   1.491   0.421 -2.1066  4.5199  0.1660
  497SOL    HW2 1491   1.719   1.416   0.568 -0.4815 -0.4928  3.4198
  498SOL     OW 1492   0.015   2.491   0.222 -0.5345  0.6802  0.0260
  498SOL    HW1 1493   0.010   2.584   0.189  0.7517 -1.1894  0.9108
  498SOL    HW2 1494   3.054   2.430   0.185  0.6773 -1.2268 -0.5738
  499SOL     OW 1495   2.316   2.781   0.809  0.2887  0.6222  0.0977
  499SOL    HW1 1496   2.340   2.800   0.709 -0.8118 -0.1219  0.1847
  499SOL    HW2 1497   2.396   2.734   0.853 -0.4740  0.2308 -1.0696
  500SOL     OW 1498   0.247   0.427   2.387  0.1378 -0.0546  0.1654
  500SOL    HW1 1499   0.195   0.487   2.448  2.7014 -0.4529 -2.6758
  500SOL    HW2 1500   0.298   0.358   2.439  0.9392 -0.1296 -0.8492
  501SOL     OW 1501   1.802   2.654   1.501 -0.4672  0.3458 -0.2725
  501SOL    HW1 1502   1.825   2.581   1.432 -1.2371  0.6167 -0.8611
  501SOL    HW2 1503   1.789   2.617   1.593  0.5852  0.4137  0.2319
  502SOL     OW 1504   3.053   0.166   2.527  0.1342  0.0454 -0.2639
  502SOL    HW1 1505   0.038   0.129   2.522  0.1679  0.1777 -1.4616
  502SOL    HW2 1506   2.982   0.094   2.497 -0.4168 -0.1782  0.7901
  503SOL     OW 1507   1.890   2.594   2.283  0.0929  0.1504 -0.1119
  503SOL    HW1 1508   1.824   2.617   2.207  0.0214  0.2904  1.7141
  503SOL    HW2 1509   1.858   2.630   2.369  2.0866 -0.1164 -3.0003
  504SOL     OW 1510   2.085   0.339   1.912  0.1415  0.2561 -0.5050
  504SOL    HW1 1511   2.035   0.340   1.823 -1.6897  0.9061 -0.5304
  504SOL    HW2 1512   2.178   0.361   1.888  0.6229 -2.9704  2.4179
  505SOL     OW 1513   2.647   1.376   1.037  0.7406 -0.5369 -0.5528
  505SOL    HW1 1514   2.715   1.450   1.022  1.3082  0.7120  0.2567
  505SOL    HW2 1515   2.562   1.406   1.092 -0.0083 -0.4350  1.4353
  506SOL     OW 1516   0.214   1.706   1.767 -0.3677 -0.2378  0.1602
  506SOL    HW1 1517   0.204   1.709   1.665  1.1624 -0.6405  3.7998
  506SOL    HW2 1518   0.252   1.793   1.806 -0.3918 -0.5024  1.0710
  507SOL     OW 1519   0.653   2.345   1.431 -0.2611 -0.5226  0.3007
  507SOL    HW1 1520   0.725   2.413   1.455 -0.2244  1.9856 -2.7333
  507SOL    HW2 1521   0.560   2.385   1.459  1.3273 -0.6156  2.9868
  508SOL     OW 1522   0.343   0.551   2.015 -0.5653 -0.1382 -0.3367
  508SOL    HW1 1523   0.434   0.551   2.060  1.6185  0.3017 -0.4650
  508SOL    HW2 1524   0.300   0.462   1.997  0.8807  0.5259 -1.8810
  509SOL     OW 1525   1.658   2.555   2.140  0.5281 -0.6748 -0.5005
  509SOL    HW1 1526   1.645   2.608   2.050 -0.9268  1.1780 -2.0318
  509SOL    HW2 1527   1.673   2.461   2.118 -0.3161  0.4566 -1.4942
  510SOL     OW 1528   2.218   1.247   2.413  0.5151 -0.3634  0.3346
  510SOL    HW1 1529   2.166   1.337   2.423  1.0994  2.0981  1.9933
  510SOL    HW2 1530   2.223   1.194   2.500 -0.9438 -0.9716  0.6781
  511SOL     OW 1531   1.198   1.015   1.048  0.2709  0.0022  0.1388
  511SOL    HW1 1532   1.285   1.028   1.096 -0.8153  0.0552  1.9833
  511SOL    HW2 1533   1.127   0.969   1.103 -1.2481  1.4580 -0.6217
  512SOL     OW 1534   3.024   1.606   0.528  0.5889 -0.3733 -0.3692
  512SOL    HW1 1535   3.000   1.627   0.625 -2.0751 -1.2857 -0.5243
  512SOL    HW2 1536   3.086   1.676   0.491 -0.7718  0.6136  1.4442
  513SOL     OW 1537   1.199   2.200   2.355  0.4124  0.0790  0.7735
  513SOL    HW1 1538   1.107   2.212   2.404 -2.4899 -2.7281  2.6165
  513SOL    HW2 1539   1.200   2.251   2.265 -1.5558  1.1052 -2.3144
  514SOL     OW 1540   0.414   2.051   1.205  0.4392  0.0166 -0.1333
  514SOL    HW1 1541   0.313   2.071   1.189 -3.6617  0.4344  0.6525
  514SOL    HW2 1542   0.426   2.004   1.295 -1.2314  1.6685  2.9867
  515SOL     OW 1543   1.765   0.728   1.650 -0.0761 -0.4862 -0.3333
  515SOL    HW1 1544   1.731   0.824   1.654  1.2463  0.6594 -0.0759
  515SOL    HW2 1545   1.689   0.660   1.654 -0.1062 -2.3234 -1.6365
  516SOL     OW 1546   2.250   0.506   0.119 -0.6931 -0.2495  0.3104
  516SOL    HW1 1547   2.294   0.448   0.045 -0.1054 -0.2108 -0.4608
  516SOL    HW2 1548   2.310   0.585   0.149  0.7578 -0.0110  1.9941
  517SOL     OW 1549   1.016   1.671   2.939  0.2253  0.5003  0.1927
  517SOL    HW1 1550   1.064   1.658   3.028  0.2401  0.3480  1.3505
  517SOL    HW2 1551   0.919   1.634   2.943 -4.1127  0.0052 -2.4683
  518SOL     OW 1552   1.486   2.686   1.918  0.7968 -0.6239 -0.3140
  518SOL    HW1 1553   1.528   2.773   1.885  1.9880 -0.9724 -0.9792
  518SOL    HW2 1554   1.390   2.693   1.880 -1.9412  0.1990  0.9643
  519SOL     OW 1555   2.061   0.019   1.047 -0.0739 -0.1652 -0.2479
  519SOL    HW1 1556   2.118   3.090   0.975  0.0893  0.6051 -0.4812
  519SOL    HW2 1557   1.978   3.067   1.049 -0.3770 -1.0773 -0.1242
  520SOL     OW 1558   2.648   1.750   2.161  0.0104 -0.6769 -0.2018
  520SOL    HW1 1559   2.693   1.715   2.078 -2.0218  3.1378  3.2916
  520SOL    HW2 1560   2.648   1.855   2.156 -0.6776  0.4167 -0.2995
  521SOL     OW 1561   2.644   0.780   3.002 -0.8250 -0.1653  0.4134
  521SOL    HW1 1562   2.571   0.738   2.942 -0.5781 -2.0843 -1.2136
  521SOL    HW2 1563   2.664   0.725   3.083 -3.9114  1.5050 -0.5334
  522SOL     OW 1564   0.778   0.837   2.589  0.1896 -0.8542  0.0463
  522SOL    HW1 1565   0.722   0.756   2.572  1.0413 -0.0312  4.5157
  522SOL    HW2 1566   0.767   0.896   2.508  2.3702  0.3645 -1.4381
  523SOL     OW 1567   0.293   2.353   0.573  0.4874  1.1364 -0.3152
  523SOL    HW1 1568   0.358   2.337   0.652  1.7811  0.6626 -1.8052
  523SOL    HW2 1569   0.307   2.278   0.507 -0.9099  2.7688 -1.8519
  524SOL     OW 1570   2.041   2.601   2.938 -0.5584 -0.2704 -0.2450
  524SOL    HW1 1571   2.026   2.605   2.835 -1.1954 -0.3586 -0.3622
  524SOL    HW2 1572   2.095   2.685   2.969 -0.4185  1.7012 -0.7141
  525SOL     OW 1573   2.656   0.620   1.794 -0.0076 -0.4740 -0.1880
  525SOL    HW1 1574   2.697   0.701   1.744  0.2269  2.2963 -1.7186
  525SOL    HW2 1575   2.728   0.558   1.829 -1.3953 -1.3808 -0.5486
  526SOL     OW 1576   1.098   3.042   0.381  0.3801 -0.1798 -0.6815
  526SOL    HW1 1577   1.124   3.017   0.291 -1.2254 -0.2135  2.0085
  526SOL    HW2 1578   1.170   3.087   0.436  1.4468  0.7330  0.9546
  527SOL     OW 1579   2.031   0.104   0.661 -0.4093 -0.1794 -0.2015
  527SOL    HW1 1580   2.081   0.048   0.724 -0.5606 -0.0402 -0.6953
  527SOL    HW2 1581   2.084   0.116   0.572 -1.2453  1.1354  0.0195
  528SOL     OW 1582   1.765   0.961   2.839 -0.2565 -0.2022  0.1261
  528SOL    HW1 1583   1.749   0.879   2.895 -0.2022  0.8061 -0.3603
  528SOL    HW2 1584   1.685   0.979   2.777 -1.1223 -0.9102  0.6229
  529SOL     OW 1585   1.741   1.437   2.242  0.6803  0.5306  0.0725
  529SOL    HW1 1586   1.655   1.392   2.285 -0.4307 -0.5264  0.9528
  529SOL    HW2 1587   1.802   1.363   2.203  2.3317 -2.5020 -1.1649
  530SOL     OW 1588   2.298   2.810   0.158  0.3817  0.9064 -0.3275
  530SOL    HW1 1589   2.374   2.746   0.167 -0.8715 -1.7632  1.8673
  530SOL    HW2 1590   2.321   2.901   0.195  0.3733 -0.7364 -3.0885
  531SOL     OW 1591   1.846   1.646   2.970  0.2116  0.3851 -0.5682
  531SOL    HW1 1592   1.875   1.603   3.058 -0.9535  0.2725 -0.0841
  531SOL    HW2 1593   1.903   1.607   2.897  0.8633 -1.5868  0.8102
  532SOL     OW 1594   1.526   0.238   1.263  0.2503  0.1355 -0.3242
  532SOL    HW1 1595   1.529   0.247   1.162  2.5276 -2.2930  0.5151
  532SOL    HW2 1596   1.435   0.270   1.300  3.6478  3.8786 -0.1175
  533SOL     OW 1597   0.537   0.778   3.041  0.0338 -0.5199  0.1360
  533SOL    HW1 1598   0.598   0.841   3.092 -1.3423 -1.6562 -3.1463
  533SOL    HW2 1599   0.542   0.810   2.943 -0.0909 -0.5807 -0.5077
  534SOL     OW 1600   1.698   0.768   3.008  0.0144  0.5522  0.0432
  534SOL    HW1 1601   1.763   0.702   2.968 -1.4209  0.0971  1.2992
  534SOL    HW2 1602   1.694   0.756   0.002  0.1917  0.4928  0.2614
  535SOL     OW 1603   0.781   2.254   2.882  0.5066 -0.3086 -0.2047
  535SOL    HW1 1604   0.728   2.268   2.966 -0.3104  0.5238  0.5439
  535SOL    HW2 1605   0.858   2.195   2.902 -1.6378 -0.4364 -2.8774
  536SOL     OW 1606   0.762   2.942   0.150 -0.7563 -0.0507 -0.3012
  536SOL    HW1 1607   0.782   2.998   0.236 -1.1965 -1.2915  1.6452
  536SOL    HW2 1608   0.664   2.938   0.131  2.0763 -0.7345  0.0042
  537SOL     OW 1609   1.954   0.229   0.157 -0.1690  0.2964  0.1186
  537SOL    HW1 1610   1.918   0.148   0.208 -2.4031 -2.2189  1.5860
  537SOL    HW2 1611   1.991   0.297   0.224 -0.8099 -0.7409 -0.1391
  538SOL     OW 1612   2.456   2.564   0.151  0.4722 -0.8245 -0.2116
  538SOL    HW1 1613   2.419   2.532   0.064 -1.8750 -0.3550 -1.1601
  538SOL    HW2 1614   2.441   2.513   0.241 -2.4458 -0.8683  1.5841
  539SOL     OW 1615   2.644   1.268   3.046  0.0333  0.9265  0.3904
  539SOL    HW1 1616   2.687   1.253   2.953 -0.3111 -1.4435 -1.4307
  539SOL    HW2 1617   2.708   1.304   0.009 -1.8238 -0.4514 -2.4389
  540SOL     OW 1618   0.972   2.827   2.177  0.4379  0.2465 -0.1995
  540SOL    HW1 1619   0.892   2.855   2.231 -1.1630 -0.5338  2.4062
  540SOL    HW2 1620   0.947   2.808   2.078 -2.1031 -0.1153  2.6265
  541SOL     OW 1621   2.391   2.880   2.468 -0.0857  0.4538  0.3738
  541SOL    HW1 1622   2.357   2.964   2.514  0.4290  0.1531  0.0254
  541SOL    HW2 1623   2.493   2.868   2.480  0.4787  1.4041  0.2868
  542SOL     OW 1624   0.587   0.414   3.077  0.1180 -0.0263  0.0196
  542SOL    HW1 1625   0.543   0.326   3.047 -1.3450  0.0249  1.1074
  542SOL    HW2 1626   0.513   0.471   0.010 -1.0695  1.4703 -0.4371
  543SOL     OW 1627   0.262   0.961   0.856 -0.4071 -0.5266 -0.2872
  543SOL    HW1 1628   0.180   1.026   0.838 -2.5388  0.6195 -0.1753
  543SOL    HW2 1629   0.345   1.021   0.860 -1.5304  1.3385  0.5816
  544SOL     OW 1630   2.368   0.634   1.417  0.1504  0.5849 -0.1443
  544SOL    HW1 1631   2.447   0.596   1.364 -0.8233 -1.9477  0.8877
  544SOL    HW2 1632   2.337   0.722   1.379  2.0637  0.1057 -1.5492
  545SOL     OW 1633   1.204   1.579   0.048  0.2710  0.4664  0.2894
  545SOL    HW1 1634   1.251   1.670   0.070 -1.1540  3.6415 -0.7608
  545SOL    HW2 1635   1.263   1.525   3.091  1.8194  1.3615 -0.3874
  546SOL     OW 1636   2.368   2.954   1.495  0.2147 -0.4655 -0.0228
  546SOL    HW1 1637   2.280   2.943   1.542 -2.1592  1.3707  1.5865
  546SOL    HW2 1638   2.421   2.875   1.531 -3.8959 -1.4527 -1.2187
  547SOL     OW 1639   1.612   2.539   2.429  0.2720 -0.4706  0.0964
  547SOL    HW1 1640   1.626   2.549   2.330  2.6014  0.9752  1.8444
  547SOL    HW2 1641   1.513   2.533   2.447 -0.3338 -0.0668  1.1462
  548SOL     OW 1642   1.469   0.720   2.658 -0.1289  0.1118 -0.0660
  548SOL    HW1 1643   1.413   0.743   2.743  0.4318  1.9311  0.0316
  548SOL    HW2 1644   1.500   0.623   2.668  1.7162 -2.8321  1.8803
  549SOL     OW 1645   2.215   0.708   0.492 -0.5276 -0.4188  0.6003
  549SOL    HW1 1646   2.131   0.652   0.477 -1.4106  0.6860  1.0585
  549SOL    HW2 1647   2.280   0.669   0.556  0.2265  2.2405  1.5807
  550SOL     OW 1648   2.483   1.543   0.424  0.0512 -0.4172  0.3635
  550SOL    HW1 1649   2.533   1.632   0.438  1.7577 -0.5321 -2.0592
  550SOL    HW2 1650   2.456   1.539   0.329  0.4100 -0.6585  3.5549
  551SOL     OW 1651   1.923   0.042   1.576  0.3582 -0.1278  0.2485
  551SOL    HW1 1652   1.933   0.135   1.613  0.2544 -2.7441 -0.0533
  551SOL    HW2 1653   1.884   0.044   1.483  2.1647  0.5931 -1.1647
  552SOL     OW 1654   1.435   0.002   2.827 -0.0076  0.3253 -0.1847
  552SOL    HW1 1655   1.386   0.087   2.805 -1.2182  1.4631 -0.8386
  552SOL    HW2 1656   1.537   0.009   2.814  0.8626 -3.6518 -0.1057
  553SOL     OW 1657   0.700   2.673   2.042 -1.1860  0.5079 -0.7476
  553SOL    HW1 1658   0.685   2.710   2.133  2.1781  1.6440 -0.5241
  553SOL    HW2 1659   0.667   2.573   2.034 -2.2475 -0.2969 -1.8589
  554SOL     OW 1660   0.297   3.007   1.122 -0.3952 -0.3241  0.4423
  554SOL    HW1 1661   0.202   3.011   1.087  0.7647  1.5460  1.1225
  554SOL    HW2 1662   0.315   2.908   1.145 -0.0159 -3.4163 -1.0944
  555SOL     OW 1663   2.512   1.506   2.264 -0.5397 -0.4847  0.6515
  555SOL    HW1 1664   2.529   1.586   2.202 -0.8108  0.5597 -1.3972
  555SOL    HW2 1665   2.432   1.461   2.223  0.4530 -3.4189  0.8079
  556SOL     OW 1666   1.170   0.583   3.032 -0.6358  0.3230  0.2593
  556SOL    HW1 1667   1.254   0.635   3.010 -1.2302  0.0781 -1.3540
  556SOL    HW2 1668   1.193   0.489   3.067  0.0100 -0.1508 -1.2597
  557SOL     OW 1669   0.273   2.138   2.219  0.3429 -0.6361  0.5721
  557SOL    HW1 1670   0.315   2.126   2.128 -1.3667 -1.4448 -2.2866
  557SOL    HW2 1671   0.245   2.047   2.257 -1.5128 -0.5924  1.0713
  558SOL     OW 1672   2.021   0.835   2.929 -0.0015 -0.1152 -0.7863
  558SOL    HW1 1673   2.002   0.736   2.924 -1.0342 -3.4016  1.7328
  558SOL    HW2 1674   1.954   0.885   2.874 -0.8951  1.1850  0.0240
  559SOL     OW 1675   2.021   1.704   1.724 -0.2076 -0.0962  0.5791
  559SOL    HW1 1676   2.026   1.706   1.624  1.5960  1.6831  1.1645
  559SOL    HW2 1677   1.948   1.639   1.750 -1.4162  1.4497 -0.0829
  560SOL     OW 1678   1.697   0.692   2.043  0.0688  0.2038  0.1919
  560SOL    HW1 1679   1.663   0.757   1.973  0.6934  0.4654  1.9156
  560SOL    HW2 1680   1.716   0.599   2.000 -2.1538 -0.2676 -3.4125
  561SOL     OW 1681   2.905   0.181   2.814 -0.1641  0.6446  0.2069
  561SOL    HW1 1682   2.833   0.109   2.818 -1.2397 -0.2607 -1.1094
  561SOL    HW2 1683   2.955   0.169   2.725 -2.2243 -0.1480 -0.0745
  562SOL     OW 1684   1.067   1.580   1.656  0.1719 -0.0505 -0.0086
  562SOL    HW1 1685   1.150   1.609   1.709 -0.1221  0.7454  1.6679
  562SOL    HW2 1686   0.997   1.654   1.644  2.4610  3.3303 -0.1935
  563SOL     OW 1687   1.283   0.102   0.014 -0.2188  0.3861 -0.2012
  563SOL    HW1 1688   1.179   0.103   0.028 -1.9237 -0.2705  2.9466
  563SOL    HW2 1689   1.320   0.011   3.106  1.3168 -2.1224 -2.7502
  564SOL     OW 1690   0.197   2.745   0.553 -0.0884 -0.5072  0.1182
  564SOL    HW1 1691   0.233   2.769   0.460  0.2879  0.7909 -2.5468
  564SOL    HW2 1692   0.129   2.664   0.541  0.2858 -2.1172  1.4521
  565SOL     OW 1693   0.741   2.680   1.033 -0.5532  0.7114  0.1636
  565SOL    HW1 1694   0.762   2.752   1.101 -1.6744  3.1970 -2.1096
  565SOL    HW2 1695   0.810   2.606   1.017  2.4715 -1.7360  0.8592
  566SOL     OW 1696   1.215   0.029   2.361 -0.0115  0.3074  0.0547
  566SOL    HW1 1697   1.124   3.108   2.403 -1.0137  0.3000  1.3014
  566SOL    HW2 1698   1.216   0.020   2.262 -1.7264  0.8947  0.6164
  567SOL     OW 1699   2.129   0.275   0.978 -0.2763  0.0804 -0.3627
  567SOL    HW1 1700   2.079   0.317   0.900  0.7553  1.9907  1.7769
  567SOL    HW2 1701   2.085   0.188   1.008 -0.7596 -1.5952 -2.0253
  568SOL     OW 1702   1.585   1.807   0.637 -0.0957 -0.2920 -0.3182
  568SOL    HW1 1703   1.653   1.774   0.570 -2.0936  0.4001  1.6202
  568SOL    HW2 1704   1.498   1.830   0.586  0.6810  1.1354 -0.3514
  569SOL     OW 1705   2.062   0.496   2.132  0.3053 -0.1952  0.1639
  569SOL    HW1 1706   2.085   0.442   2.052 -1.6177 -2.2581  1.1713
  569SOL    HW2 1707   1.985   0.453   2.187  0.2136  0.1564  0.7512
  570SOL     OW 1708   0.047   2.955   2.096  0.0600  0.0161  0.4154
  570SOL    HW1 1709   3.084   3.012   2.057 -0.0613 -0.6170  0.3946
  570SOL    HW2 1710   0.101   3.002   2.171  0.9563  0.9957 -0.9952
  571SOL     OW 1711   0.563   2.965   1.269  0.3312  0.7000 -0.1924
  571SOL    HW1 1712   0.508   2.960   1.357  1.1870 -1.2080  1.4154
  571SOL    HW2 1713   0.518   3.020   1.201 -1.2486  0.7427  2.9056
  572SOL     OW 1714   0.434   2.483   1.480  0.1781 -0.1858 -0.0399
  572SOL    HW1 1715   0.410   2.576   1.459 -0.9866 -4.7222 -0.8738
  572SOL    HW2 1716   0.420   2.466   1.578  1.6418  1.9721 -4.7734
  573SOL     OW 1717   1.257   1.012   2.702  0.4869  0.6509 -0.3338
  573SOL    HW1 1718   1.263   1.098   2.750 -2.0848 -1.4020  1.1720
  573SOL    HW2 1719   1.166   0.967   2.709 -1.6530 -1.8764  0.3225
  574SOL     OW 1720   2.260   2.345   2.116 -0.1947  0.0735  0.2891
  574SOL    HW1 1721   2.336   2.379   2.057 -0.9211  0.8673  0.0151
  574SOL    HW2 1722   2.191   2.421   2.121 -1.8088  0.0979 -1.0331
  575SOL     OW 1723   1.364   2.890   0.755 -0.1672 -0.2086 -0.2142
  575SOL    HW1 1724   1.372   2.975   0.694  0.2272  0.0774  0.3730
  575SOL    HW2 1725   1.435   2.826   0.722  1.6207  1.5470 -1.4685
  576SOL     OW 1726   1.175   0.468   0.864 -0.2870  0.1691  0.0521
  576SOL    HW1 1727   1.188   0.445   0.766 -0.7601 -1.0648  1.5855
  576SOL    HW2 1728   1.224   0.400   0.919 -3.5835 -0.6208 -0.5469
  577SOL     OW 1729   2.216   2.024   0.228 -0.2818 -0.0472  0.1527
  577SOL    HW1 1730   2.233   1.966   0.147  2.0084  1.2060  0.1822
  577SOL    HW2 1731   2.142   1.980   0.279  1.6194 -2.3388 -0.9200
  578SOL     OW 1732   2.122   0.506   1.517 -0.0229 -0.5147  0.2358
  578SOL    HW1 1733   2.217   0.517   1.482  1.4235 -3.9476 -3.7711
  578SOL    HW2 1734   2.066   0.587   1.504 -0.9665  0.2490  0.2074
  579SOL     OW 1735   1.641   1.086   2.437  0.1234 -0.0273  0.0539
  579SOL    HW1 1736   1.588   1.163   2.391  0.9254 -0.1485  3.7041
  579SOL    HW2 1737   1.740   1.117   2.441 -1.5850 -1.0609  0.5123
  580SOL     OW 1738   1.293   1.031   1.827 -0.3165 -0.1235  0.3848
  580SOL    HW1 1739   1.302   1.013   1.726  2.1954 -2.6600  3.1743
  580SOL    HW2 1740   1.285   0.942   1.877  0.4482  1.2472  0.9299
  581SOL     OW 1741   0.020   1.084   0.839 -0.3469  0.4703  0.1863
  581SOL    HW1 1742   3.053   1.018   0.843  1.1632 -1.8857  0.8483
  581SOL    HW2 1743   0.028   1.131   0.929  1.7176 -1.1730  0.0722
  582SOL     OW 1744   3.039   0.527   1.916 -0.2943 -0.3183  0.3671
  582SOL    HW1 1745   2.954   0.474   1.921  1.3524  0.2981 -0.2627
  582SOL    HW2 1746   3.050   0.580   1.999  1.8171  0.6300 -1.3012
  583SOL     OW 1747   2.796   0.982   2.494 -0.0149 -0.0683 -0.1195
  583SOL    HW1 1748   2.845   1.069   2.473 -1.2911  0.5520 -0.5971
  583SOL    HW2 1749   2.737   0.992   2.581  0.2176 -2.1721  1.0131
  584SOL     OW 1750   2.063   2.295   0.539  0.7996 -0.1478  0.0038
  584SOL    HW1 1751   2.147   2.293   0.599  1.7587 -1.4443  0.1627
  584SOL    HW2 1752   2.077   2.360   0.460 -1.9224  2.5922 -2.3449
  585SOL     OW 1753   0.152   2.283   3.095 -0.2171 -0.1394  0.1100
  585SOL    HW1 1754   0.193   2.189   3.091  0.2179  1.3782  0.7126
  585SOL    HW2 1755   0.118   2.319   0.073 -1.5131  3.1557  0.3353
  586SOL     OW 1756   1.848   1.820   2.421  0.2217 -0.2461 -0.1477
  586SOL    HW1 1757   1.781   1.803   2.347 -2.6443 -1.4029  0.9671
  586SOL    HW2 1758   1.914   1.891   2.393 -1.7593 -1.0972 -1.7882
  587SOL     OW 1759   2.249   1.563   2.810 -0.0170  0.1492  0.1735
  587SOL    HW1 1760   2.348   1.543   2.785  0.7661 -2.0239 -1.5025
  587SOL    HW2 1761   2.179   1.493   2.776 -0.9374 -2.2958 -0.1453
  588SOL     OW 1762   2.580   0.007   1.385  0.1443  0.0174 -0.1162
  588SOL    HW1 1763   2.498   3.056   1.397  0.8972 -2.9123 -0.2400
  588SOL    HW2 1764   2.658   3.084   1.440  0.0105 -0.1127  1.2897
  589SOL     OW 1765   0.474   0.251   0.701 -0.5736  0.0280 -0.0843
  589SOL    HW1 1766   0.402   0.217   0.638 -0.1331 -0.2349  0.3075
  589SOL    HW2 1767   0.466   0.352   0.706 -0.3998 -4.6007 -0.9146
  590SOL     OW 1768   2.509   2.330   1.004  0.4116  0.3667 -0.2045
  590SOL    HW1 1769   2.413   2.358   0.996 -0.8577 -1.2801 -2.4610
  590SOL    HW2 1770   2.552   2.346   0.917 -1.3426 -0.6557  1.6400
  591SOL     OW 1771   1.247   2.209   0.895 -0.2683  0.3731 -0.1372
  591SOL    HW1 1772   1.328   2.181   0.951  1.6710  0.8130  2.2658
  591SOL    HW2 1773   1.259   2.301   0.861  0.4596 -0.4762 -0.4049
  592SOL     OW 1774   1.090   1.066   1.386  0.6053 -0.0708  0.1198
  592SOL    HW1 1775   1.061   1.019   1.299 -2.7315 -0.7448  0.7120
  592SOL    HW2 1776   1.190   1.092   1.393  0.8654 -1.4622  0.5926
  593SOL     OW 1777   1.050   2.600   1.390  0.1432 -0.0975 -0.7438
  593SOL    HW1 1778   1.118   2.610   1.468 -0.9804  1.4780 -2.0896
  593SOL    HW2 1779   1.093   2.608   1.298  0.5185 -1.1158  0.1319
  594SOL     OW 1780   0.801   1.537   2.899 -0.1311 -0.1801 -0.3785
  594SOL    HW1 1781   0.778   1.512   2.801 -1.9205  1.3601 -3.3057
  594SOL    HW2 1782   0.710   1.570   2.936  0.7284 -2.4060 -1.6749
  595SOL     OW 1783   1.428   1.453   1.581 -0.1257 -0.7477  0.1081
  595SOL    HW1 1784   1.377   1.451   1.667 -0.2970 -2.0547 -0.5004
  595SOL    HW2 1785   1.417   1.543   1.535 -0.0164 -1.4457  0.6401
  596SOL     OW 1786   2.861   1.267   2.131 -0.2005 -0.3236 -0.3733
  596SOL    HW1 1787   2.824   1.222   2.046 -0.0273  2.1766 -1.5812
  596SOL    HW2 1788   2.905   1.353   2.103 -1.1850 -0.5946  1.0806
  597SOL     OW 1789   1.448   2.436   1.678 -0.3543 -0.1664 -0.2415
  597SOL    HW1 1790   1.389   2.361   1.644  2.9366  0.3271  0.4115
  597SOL    HW2 1791   1.512   2.463   1.605 -2.0389  0.1093  0.1159
  598SOL     OW 1792   2.451   1.440   1.222  0.4159  0.3503 -0.0427
  598SOL    HW1 1793   2.458   1.393   1.314  0.4947  0.3143 -0.9502
  598SOL    HW2 1794   2.368   1.406   1.174  1.2255  1.3513 -3.8893
  599SOL     OW 1795   0.838   2.708   2.712 -0.1676 -0.0767 -0.4855
  599SOL    HW1 1796   0.874   2.680   2.803 -1.9393  1.4094  1.3144
  599SOL    HW2 1797   0.732   2.709   2.713 -0.8797 -1.0324 -2.9897
  600SOL     OW 1798   3.043   2.181   0.295 -0.0493 -0.3200 -0.0236
  600SOL    HW1 1799   3.061   2.080   0.295  0.0917  2.7779  1.9164
  600SOL    HW2 1800   3.049   2.209   0.394 -2.3349 -3.1623 -0.4295
  601SOL     OW 1801   0.485   0.725   1.433 -0.4250 -0.4266 -0.4383
  601SOL    HW1 1802   0.571   0.743   1.486  0.5254 -3.7084  1.5651
  601SOL    HW2 1803   0.472   0.625   1.450  1.7184  2.1043 -0.5580
  602SOL     OW 1804   0.819   0.193   1.342  0.0573 -0.6112  0.3981
  602SOL    HW1 1805   0.731   0.179   1.398 -2.7527 -0.8950  0.0656
  602SOL    HW2 1806   0.789   0.232   1.252 -0.8852  1.0361 -0.6200
  603SOL     OW 1807   0.199   2.947   2.721  0.0835 -0.0289 -0.7356
  603SOL    HW1 1808   0.254   2.874   2.674  1.7277  0.1178 -0.5012
  603SOL    HW2 1809   0.115   2.907   2.765 -3.1681  0.4158  2.0600
  604SOL     OW 1810   1.631   0.068   1.948 -0.0009 -0.6267  0.2725
  604SOL    HW1 1811   1.589   0.115   1.865 -3.9181  1.9678 -1.7832
  604SOL    HW2 1812   1.607   3.079   1.957  2.6133  0.2495  0.0730
  605SOL     OW 1813   1.434   1.461   2.018 -0.3321 -0.4008  0.3073
  605SOL    HW1 1814   1.506   1.518   1.975 -1.6863  0.9676  0.3715
  605SOL    HW2 1815   1.403   1.503   2.107 -1.5426  1.0359  2.0162
  606SOL     OW 1816   1.922   2.885   0.051 -0.5224 -0.2617  0.5678
  606SOL    HW1 1817   1.969   2.916   3.077  0.1989 -3.0020  0.3525
  606SOL    HW2 1818   1.841   2.829   0.026  0.6784 -0.4743  1.9093
  607SOL     OW 1819   0.638   0.086   2.448 -0.3719  0.5683  0.3015
  607SOL    HW1 1820   0.606   3.103   2.452 -0.3700  0.5769 -0.6517
  607SOL    HW2 1821   0.737   0.096   2.479  3.2787 -2.4823  1.2690
  608SOL     OW 1822   2.920   2.388   2.249 -0.1529 -0.5855  0.2420
  608SOL    HW1 1823   3.006   2.392   2.307  1.2860  0.5345 -0.7507
  608SOL    HW2 1824   2.919   2.309   2.183  1.9765  1.0059  0.8293
  609SOL     OW 1825   0.762   1.115   2.870 -0.1655 -1.1716  0.0300
  609SOL    HW1 1826   0.840   1.180   2.878  0.7970 -3.0173 -2.0003
  609SOL    HW2 1827   0.792   1.019   2.877 -2.2067 -1.0293 -1.0971
  610SOL     OW 1828   0.515   2.772   0.907  0.4392 -0.1816  0.7524
  610SOL    HW1 1829   0.507   2.870   0.880  1.1186 -1.1122  0.6538
  610SOL    HW2 1830   0.607   2.747   0.946  0.9065  1.2494 -0.0496
  611SOL     OW 1831   1.200   1.291   0.765  0.5670 -0.0162 -0.1381
  611SOL    HW1 1832   1.131   1.257   0.831  2.4274  0.6171 -0.3029
  611SOL    HW2 1833   1.217   1.218   0.693 -2.6878 -3.3172 -0.3505
  612SOL     OW 1834   2.259   2.048   0.646  0.0834  0.2293 -0.1637
  612SOL    HW1 1835   2.177   1.992   0.627  4.3491  0.0345 -1.7529
  612SOL    HW2 1836   2.323   1.994   0.701 -1.0843  1.0690 -0.5708
  613SOL     OW 1837   1.685   1.674   0.397  0.4821  0.1611 -0.2921
  613SOL    HW1 1838   1.734   1.736   0.336  0.9561 -3.1807 -1.1884
  613SOL    HW2 1839   1.588   1.670   0.368  0.8969 -2.1317  0.9689
  614SOL     OW 1840   2.735   0.507   2.516  0.8159 -0.4592 -0.2427
  614SOL    HW1 1841   2.832   0.470   2.523  0.6140 -2.1245  0.8948
  614SOL    HW2 1842   2.671   0.428   2.511 -0.8195 -1.1690  2.0917
  615SOL     OW 1843   0.545   1.210   0.434 -0.2520 -0.4168 -0.0807
  615SOL    HW1 1844   0.628   1.190   0.375  1.7862 -2.4690 -1.0890
  615SOL    HW2 1845   0.544   1.156   0.518  0.2953 -1.3198  1.1017
  616SOL     OW 1846   1.551   0.993   2.682 -0.6017  0.0219 -0.3365
  616SOL    HW1 1847   1.451   0.985   2.685  2.0505  4.2024  1.7479
  616SOL    HW2 1848   1.586   1.029   2.592  0.9630  0.7690 -1.0903
  617SOL     OW 1849   1.310   0.798   0.172  0.3773  0.2555 -0.2884
  617SOL    HW1 1850   1.220   0.786   0.223 -0.5262  0.0614  1.9000
  617SOL    HW2 1851   1.373   0.724   0.195  0.1164  1.0573 -0.5364
  618SOL     OW 1852   3.104   1.916   1.913  0.0945 -0.4431 -0.1347
  618SOL    HW1 1853   0.088   1.931   1.871  0.1214  1.7793 -3.2926
  618SOL    HW2 1854   3.107   1.874   2.005 -1.7890  1.4208 -0.0254
  619SOL     OW 1855   2.733   2.022   0.766 -0.2843 -0.1390 -0.4004
  619SOL    HW1 1856   2.823   2.020   0.718  2.5050  1.1045 -1.7071
  619SOL    HW2 1857   2.698   2.118   0.764  1.4602 -0.9863 -2.5300
  620SOL     OW 1858   2.791   0.056   1.213  0.6986  0.2846  0.0055
  620SOL    HW1 1859   2.784   0.107   1.125 -0.8482 -1.4955 -0.9107
  620SOL    HW2 1860   2.699   0.049   1.259 -1.7915  1.4571 -1.5049
  621SOL     OW 1861   0.188   1.774   0.761 -0.2254 -0.0883 -0.2415
  621SOL    HW1 1862   0.194   1.672   0.755  0.2335  2.7012  1.2104
  621SOL    HW2 1863   0.283   1.809   0.764  0.2592 -2.0117 -1.0818
  622SOL     OW 1864   0.544   1.756   1.672 -0.3861  0.3792 -0.3021
  622SOL    HW1 1865   0.491   1.810   1.603 -0.2165  0.1325  0.3994
  622SOL    HW2 1866   0.550   1.803   1.762 -0.9185  0.1639 -0.1666
  623SOL     OW 1867   2.325   2.810   2.220 -0.2122  0.1987 -0.3362
  623SOL    HW1 1868   2.409   2.818   2.160  1.1738  3.3530 -0.2281
  623SOL    HW2 1869   2.349   2.850   2.313  0.3062  2.7233  1.2294
  624SOL     OW 1870   0.575   2.037   0.276 -0.1878 -0.1158 -0.1122
  624SOL    HW1 1871   0.524   2.072   0.193 -0.7228 -4.3292 -1.2094
  624SOL    HW2 1872   0.580   1.936   0.272 -2.9453  0.0283  1.3290
  625SOL     OW 1873   0.683   2.012   2.137 -0.4391  0.2155  0.0652
  625SOL    HW1 1874   0.686   1.982   2.040 -0.4368  1.4638  0.6244
  625SOL    HW2 1875   0.695   1.929   2.200  1.1087 -0.4585  1.1310
  626SOL     OW 1876   3.072   2.659   3.009 -0.0210 -0.4031  0.6459
  626SOL    HW1 1877   0.056   2.620   3.020 -0.3273  0.6445  2.9971
  626SOL    HW2 1878   3.075   2.748   2.956 -0.2148  0.7383  0.7975
  627SOL     OW 1879   1.579   1.707   2.518  0.1408  0.5461 -0.0094
  627SOL    HW1 1880   1.682   1.711   2.529 -1.9260 -1.6641 -1.0984
  627SOL    HW2 1881   1.547   1.611   2.531 -0.5947  1.5585 -0.5867
  628SOL     OW 1882   1.220   2.121   0.347 -0.0111  0.1401 -0.4587
  628SOL    HW1 1883   1.146   2.118   0.419 -1.8034  0.5806  1.5923
  628SOL    HW2 1884   1.263   2.211   0.350 -1.8178 -1.6093 -0.9295
  629SOL     OW 1885   0.933   0.886   2.303  0.4775  0.2908  0.6423
  629SOL    HW1 1886   0.873   0.945   2.363 -0.1362 -2.8132  2.0867
  629SOL    HW2 1887   0.971   0.944   2.226  1.2837  0.5757 -2.8086
  630SOL     OW 1888   2.971   2.702   1.706 -0.5125  0.2875 -0.5381
  630SOL    HW1 1889   2.907   2.713   1.631 -1.5465 -0.7825  0.5366
  630SOL    HW2 1890   3.072   2.720   1.681  0.5368  1.6355  1.4579
  631SOL     OW 1891   1.297   1.002   0.794 -0.2888  0.4928  0.1862
  631SOL    HW1 1892   1.261   0.914   0.756 -1.0172 -1.2777  0.9099
  631SOL    HW2 1893   1.262   1.022   0.893 -0.9918 -0.5438 -0.1380
  632SOL     OW 1894   2.305   0.453   2.247  0.4582  0.3829 -0.3894
  632SOL    HW1 1895   2.298   0.369   2.306  2.5215 -0.1112  2.4226
  632SOL    HW2 1896   2.213   0.492   2.227  0.0096 -1.5732 -0.5762
  633SOL     OW 1897   1.828   1.263   0.227 -0.1804  0.1561 -0.6174
  633SOL    HW1 1898   1.775   1.303   0.306 -1.8623  0.4441  0.9863
  633SOL    HW2 1899   1.771   1.209   0.167  0.5919 -0.2794  0.4174
  634SOL     OW 1900   0.193   1.935   0.285 -0.1114 -0.0787 -0.2679
  634SOL    HW1 1901   0.269   1.887   0.233  0.5882 -1.9047  1.3679
  634SOL    HW2 1902   0.102   1.919   0.243 -1.9940  1.6331  0.9008
  635SOL     OW 1903   2.884   1.773   2.415 -0.1480  0.2728  0.3970
  635SOL    HW1 1904   2.924   1.758   2.511  4.1840  1.6747  1.8582
  635SOL    HW2 1905   2.794   1.727   2.400  0.1274  1.4401  0.3977
  636SOL     OW 1906   0.267   1.681   2.460  0.1389 -0.2931 -0.1810
  636SOL    HW1 1907   0.261   1.655   2.555 -0.9827  0.3875 -3.8968
  636SOL    HW2 1908   0.324   1.762   2.446  2.3257 -2.1656  0.1956
  637SOL     OW 1909   0.326   2.128   0.438  0.2132  0.7099 -0.4223
  637SOL    HW1 1910   0.253   2.065   0.399 -2.9848 -3.9481  1.5030
  637SOL    HW2 1911   0.366   2.186   0.362 -0.9689  0.4654  0.0767
  638SOL     OW 1912   2.458   2.524   0.697  0.2284  0.5710 -0.3912
  638SOL    HW1 1913   2.471   2.548   0.604 -2.2146  1.4928  1.4634
  638SOL    HW2 1914   2.401   2.437   0.705 -0.8534 -1.8079 -0.7818
  639SOL     OW 1915   1.046   0.670   0.185  0.3612 -0.6785  0.2946
  639SOL    HW1 1916   0.945   0.679   0.190  1.5329 -0.0790 -0.2448
  639SOL    HW2 1917   1.077   0.649   0.090  3.0767 -1.6020 -1.6617
  640SOL     OW 1918   2.348   2.233   1.680  0.2806  0.2249  0.1407
  640SOL    HW1 1919   2.353   2.321   1.735  1.3650  2.0389 -0.0940
  640SOL    HW2 1920   2.438   2.218   1.630  0.8258 -0.5521 -0.7500
  641SOL     OW 1921   2.796   2.836   1.320  0.4407  0.0051 -0.1976
  641SOL    HW1 1922   2.799   2.906   1.394 -1.4955 -1.5215 -0.7490
  641SOL    HW2 1923   2.837   2.874   1.234 -1.5743  0.7378 -0.9683
  642SOL     OW 1924   0.883   1.043   1.571 -0.4151 -0.0922  0.0120
  642SOL    HW1 1925   0.962   1.053   1.505  0.5224 -0.1086 -0.2137
  642SOL    HW2 1926   0.852   1.137   1.605  1.7009  0.6172  0.8287
  643SOL     OW 1927   0.519   1.287   2.222  0.3463  0.2130 -0.4328
  643SOL    HW1 1928   0.483   1.236   2.299 -1.1188 -1.2359 -0.1093
  643SOL    HW2 1929   0.460   1.370   2.199 -1.7255 -0.0586  0.4038
  644SOL     OW 1930   0.983   0.252   2.302  0.0989 -0.2029 -0.1962
  644SOL    HW1 1931   1.005   0.347   2.278 -0.7043 -0.2709  1.7373
  644SOL    HW2 1932   0.975   0.191   2.219 -2.6785 -1.7261 -0.0296
  645SOL     OW 1933   2.066   1.204   1.394 -0.2684 -0.1342  0.2270
  645SOL    HW1 1934   2.152   1.165   1.436 -1.2557  0.4775 -0.3513
  645SOL    HW2 1935   2.076   1.227   1.299  0.9135  1.4015  2.8813
  646SOL     OW 1936   1.507   2.818   0.273 -0.5401 -0.2428 -0.2800
  646SOL    HW1 1937   1.604   2.781   0.268  3.8754 -1.4110  1.7446
  646SOL    HW2 1938   1.444   2.761   0.220  0.3739  0.1994  0.9668
  647SOL     OW 1939   1.737   2.814   0.802 -0.3685  0.6850  0.3895
  647SOL    HW1 1940   1.823   2.762   0.776  0.9389  0.6079  2.2930
  647SOL    HW2 1941   1.720   2.905   0.748 -2.5330 -1.5899  1.8739
  648SOL     OW 1942   0.390   2.723   1.206 -0.1643  0.5549  0.3484
  648SOL    HW1 1943   0.348   2.632   1.184  0.6497  0.5959  0.9023
  648SOL    HW2 1944   0.483   2.726   1.163  1.5015 -0.5351 -0.8226
  649SOL     OW 1945   1.019   2.211   3.083  0.6100 -0.0468  0.5050
  649SOL    HW1 1946   1.001   2.124   3.037 -0.8104  3.8887  2.8499
  649SOL    HW2 1947   0.997   2.198   0.068 -0.9229  0.6899 -4.1854
  650SOL     OW 1948   2.484   1.304   0.178  0.2990  0.4586 -0.3112
  650SOL    HW1 1949   2.545   1.278   0.102 -1.3718 -1.1829 -0.8218
  650SOL    HW2 1950   2.495   1.249   0.262  1.4217  1.5846 -0.5392
  651SOL     OW 1951   2.629   2.253   2.140 -0.2449 -1.0036  0.0546
  651SOL    HW1 1952   2.639   2.327   2.064 -1.5556 -0.5176 -0.5643
  651SOL    HW2 1953   2.660   2.288   2.232 -0.6793 -0.5926  1.6085
  652SOL     OW 1954   2.774   2.363   0.493  0.1323  0.0499 -0.5677
  652SOL    HW1 1955   2.768   2.458   0.533  0.8918 -0.7075 -1.9925
  652SOL    HW2 1956   2.861   2.310   0.514  0.6577 -0.5366  0.7412
  653SOL     OW 1957   2.708   1.769   1.401  0.4113 -0.7996  0.0406
  653SOL    HW1 1958   2.619   1.810   1.433  2.3398 -1.3411  0.8623
  653SOL    HW2 1959   2.706   1.672   1.432 -0.3529 -1.8922  1.2727
  654SOL     OW 1960   1.141   1.169   0.050  0.5302 -0.2612 -0.1932
  654SOL    HW1 1961   1.093   1.175   0.138 -0.2641 -3.6094 -2.1946
  654SOL    HW2 1962   1.087   1.195   3.079 -0.0792  1.2645 -0.6835
  655SOL     OW 1963   1.372   1.482   0.689 -0.2527 -0.4102 -0.6802
  655SOL    HW1 1964   1.305   1.412   0.716  0.2591  1.4730  0.1139
  655SOL    HW2 1965   1.402   1.467   0.593  0.6059  1.2601 -1.5041
  656SOL     OW 1966   1.424   2.363   2.815 -0.1547 -0.1713 -0.3964
  656SOL    HW1 1967   1.526   2.362   2.816  0.5244 -1.0248 -2.9464
  656SOL    HW2 1968   1.395   2.391   2.722 -0.8003  2.3746  1.6504
  657SOL     OW 1969   2.095   1.485   0.664 -0.0236 -0.5333  0.2741
  657SOL    HW1 1970   2.050   1.400   0.626  1.1440  1.4940 -1.2272
  657SOL    HW2 1971   2.171   1.464   0.729  1.1782  0.2980  1.6671
  658SOL     OW 1972   2.276   3.074   1.821 -0.2465 -0.6028  0.1322
  658SOL    HW1 1973   2.212   0.027   1.863  4.3115 -0.8258  1.1348
  658SOL    HW2 1974   2.237   3.017   1.742 -0.4635 -3.2793 -3.2018
  659SOL     OW 1975   2.845   1.628   0.299 -0.5075 -0.2032  0.6251
  659SOL    HW1 1976   2.845   1.611   0.398 -1.3167  2.3121  0.2448
  659SOL    HW2 1977   2.782   1.703   0.266  1.2558  0.5443 -0.9063
  660SOL     OW 1978   1.201   0.785   0.627  0.3356  0.2196 -0.3931
  660SOL    HW1 1979   1.132   0.750   0.561  0.4127  1.5852  1.8449
  660SOL    HW2 1980   1.263   0.710   0.646 -1.0706  1.6716  0.6695
  661SOL     OW 1981   1.710   0.502   0.084 -0.0316 -0.5035 -0.2762
  661SOL    HW1 1982   1.746   0.501   3.097 -0.5811  1.8921  0.1758
  661SOL    HW2 1983   1.766   0.567   0.142  1.2208  0.3316  1.0725
  662SOL     OW 1984   0.433   0.243   0.287  0.1096 -0.1196 -0.1790
  662SOL    HW1 1985   0.408   0.212   0.191  1.9957 -1.9150  0.1530
  662SOL    HW2 1986   0.522   0.296   0.289 -0.3502  0.0452 -2.5272
  663SOL     OW 1987   1.045   2.471   2.995 -0.0336  0.3528  0.0867
  663SOL    HW1 1988   1.018   2.373   3.009  2.2033  1.5458  0.3212
  663SOL    HW2 1989   1.077   2.484   2.899  0.3939  0.6137  0.4106
  664SOL     OW 1990   0.807   2.879   1.208  0.1967 -0.3404  0.1690
  664SOL    HW1 1991   0.719   2.924   1.235 -1.0307  0.5651  0.9346
  664SOL    HW2 1992   0.879   2.879   1.283  4.3299 -0.8559  0.8919
  665SOL     OW 1993   1.552   3.107   0.877 -0.4204  0.3154 -0.4598
  665SOL    HW1 1994   1.534   3.023   0.931  1.1979 -0.9914 -1.2360
  665SOL    HW2 1995   1.520   0.083   0.923 -1.1240  0.0387  1.6305
  666SOL     OW 1996   0.811   2.424   2.632  1.0624  0.2308  0.2948
  666SOL    HW1 1997   0.782   2.374   2.717  0.9586  0.8175 -0.0370
  666SOL    HW2 1998   0.819   2.526   2.641 -0.0758 -0.5193  2.2603
  667SOL     OW 1999   2.848   0.361   1.542  0.2069 -0.6935  0.2712
  667SOL    HW1 2000   2.870   0.445   1.598  1.4634 -0.1115  2.7423
  667SOL    HW2 2001   2.871   0.375   1.443  0.3041 -0.1034 -1.1776
  668SOL     OW 2002   0.488   0.279   1.697 -0.4305 -0.1693  0.1018
  668SOL    HW1 2003   0.494   0.378   1.720 -0.9147 -1.0980  0.8165
  668SOL    HW2 2004   0.512   0.229   1.787  1.2923 -1.7465  1.0943
  669SOL     OW 2005   1.487   2.958   1.229 -0.4845 -0.3778  0.3638
  669SOL    HW1 2006   1.388   2.974   1.229  1.5348  0.3841 -1.2487
  669SOL    HW2 2007   1.511   2.886   1.158  1.3209 -0.8795  0.5283
  670SOL     OW 2008   1.595   2.564   0.019 -0.1040 -0.0110 -0.2848
  670SOL    HW1 2009   1.507   2.514   0.006 -1.4254  0.8967  1.0512
  670SOL    HW2 2010   1.668   2.503   3.092  1.3551 -1.4706 -0.1843
  671SOL     OW 2011   0.523   1.240   2.936 -0.2080 -0.1670 -0.4436
  671SOL    HW1 2012   0.455   1.165   2.928 -1.0584 -1.1185  3.4505
  671SOL    HW2 2013   0.615   1.210   2.920 -2.5442 -1.3473  1.4877
  672SOL     OW 2014   2.030   0.543   2.628 -0.2171  0.0727  0.3407
  672SOL    HW1 2015   2.129   0.526   2.625 -1.3598 -1.1040  0.0328
  672SOL    HW2 2016   2.002   0.628   2.576 -1.0246  2.3434 -1.6955
  673SOL     OW 2017   0.145   1.956   1.142 -0.3870 -0.3201  0.0823
  673SOL    HW1 2018   0.079   1.998   1.206  0.2046  1.1220  0.2883
  673SOL    HW2 2019   0.111   1.860   1.123 -0.6773  2.3986 -0.0662
  674SOL     OW 2020   1.883   2.112   1.782 -0.5838  0.0961 -0.0427
  674SOL    HW1 2021   1.861   2.190   1.844  0.2531  1.9837  0.8979
  674SOL    HW2 2022   1.948   2.162   1.715  0.2193  0.8861  0.1003
  675SOL     OW 2023   1.126   1.482   1.079  0.4221  0.5237  0.4366
  675SOL    HW1 2024   1.128   1.422   0.997 -0.0476  1.0486  5.6417
  675SOL    HW2 2025   1.041   1.467   1.133  1.6665  1.3900  2.3813
  676SOL     OW 2026   2.014   0.596   1.004  0.0118  0.4726 -0.1285
  676SOL    HW1 2027   1.989   0.652   0.921 -0.3784  1.7637 -0.9099
  676SOL    HW2 2028   2.092   0.538   0.984 -2.4354  0.1762 -0.0813
  677SOL     OW 2029   2.480   0.207   0.325 -0.2469 -0.1559  0.1789
  677SOL    HW1 2030   2.539   0.189   0.403 -1.3039  1.1375 -3.2575
  677SOL    HW2 2031   2.514   0.287   0.269  0.1614  0.6539 -1.1872
  678SOL     OW 2032   2.381   1.071   1.055 -0.1070  0.4460 -0.1940
  678SOL    HW1 2033   2.348   1.166   1.078 -0.3186  4.5804  0.7698
  678SOL    HW2 2034   2.469   1.048   1.093 -3.6421 -0.4573 -1.4131
  679SOL     OW 2035   2.608   0.404   0.108 -0.1665 -0.1359 -0.3771
  679SOL    HW1 2036   2.607   0.509   0.104  0.3692 -0.3332 -0.2348
  679SOL    HW2 2037   2.655   0.367   0.026  2.2312 -0.0096  0.1591
  680SOL     OW 2038   0.667   1.785   2.281 -0.1044  0.2069  0.2123
  680SOL    HW1 2039   0.645   1.719   2.206 -0.2675  2.6059  0.0149
  680SOL    HW2 2040   0.587   1.777   2.349 -4.5833 -1.9539  0.8579
  681SOL     OW 2041   2.609   2.096   1.559 -0.8170  0.0330 -0.0411
  681SOL    HW1 2042   2.631   2.054   1.649 -0.0613 -1.7438 -1.1105
  681SOL    HW2 2043   2.526   2.055   1.518  0.6614  2.1770 -2.4390
  682SOL     OW 2044   0.444   1.885   2.430  0.4363  0.4464  0.4013
  682SOL    HW1 2045   0.477   1.976   2.400  2.4455 -0.1207  3.7041
  682SOL    HW2 2046   0.472   1.861   2.524  2.1128  0.5085 -0.3052
  683SOL     OW 2047   3.041   2.138   1.555  0.4331 -0.3976 -0.0045
  683SOL    HW1 2048   3.006   2.211   1.619  3.0604  0.4939 -1.2771
  683SOL    HW2 2049   2.962   2.096   1.506 -2.2437  0.5426 -0.0966
  684SOL     OW 2050   2.886   1.816   1.785  0.1331  0.1613  0.1386
  684SOL    HW1 2051   2.943   1.858   1.856  1.5017 -1.5639  0.4857
  684SOL    HW2 2052   2.946   1.792   1.701  2.7732 -0.2418 -3.7871
  685SOL     OW 2053   0.626   0.883   0.985 -0.1970  0.5835  0.1150
  685SOL    HW1 2054   0.563   0.807   0.999  1.5655  1.2820  0.8625
  685SOL    HW2 2055   0.708   0.853   0.932  1.9209 -0.0618 -1.2611
  686SOL     OW 2056   0.171   0.034   2.541 -0.1588 -0.6621 -0.0096
  686SOL    HW1 2057   0.254   0.095   2.557  0.8870 -2.9436 -3.1147
  686SOL    HW2 2058   0.176   3.065   2.605 -1.1077  2.4300  0.5489
  687SOL     OW 2059   0.604   1.991   1.826 -0.0166  0.5955  0.5890
  687SOL    HW1 2060   0.615   2.040   1.736  0.3386  0.4956 -2.4656
  687SOL    HW2 2061   0.694   1.965   1.864  0.4845 -1.2496  0.8334
  688SOL     OW 2062   2.354   0.325   1.813 -0.0561 -0.0754  0.2411
  688SOL    HW1 2063   2.363   0.240   1.752  1.2569 -2.7910 -3.3004
  688SOL    HW2 2064   2.377   0.409   1.760 -1.0822 -0.1385 -0.1078
  689SOL     OW 2065   2.115   1.070   0.760  0.1169  0.5044 -0.2087
  689SOL    HW1 2066   2.087   0.995   0.691  0.6741  1.4491  1.0288
  689SOL    HW2 2067   2.211   1.103   0.757  0.2481  2.7675  2.3789
  690SOL     OW 2068   2.614   0.656   1.103  0.5542  0.3521  0.2586
  690SOL    HW1 2069   2.712   0.681   1.103  3.1692  1.5376  0.2774
  690SOL    HW2 2070   2.590   0.612   1.192  0.6621 -2.6544  1.9935
  691SOL     OW 2071   0.458   1.188   1.910 -0.5196 -0.0454  0.3414
  691SOL    HW1 2072   0.412   1.275   1.946 -1.9278  1.0136 -1.9500
  691SOL    HW2 2073   0.559   1.202   1.897 -0.5581  1.6365  0.5769
  692SOL     OW 2074   0.697   1.447   1.955  0.3457  0.5318  0.1417
  692SOL    HW1 2075   0.792   1.465   1.981 -1.9068  1.4955  1.9391
  692SOL    HW2 2076   0.691   1.344   1.944 -0.5987 -0.5691 -0.7165
  693SOL     OW 2077   0.623   0.808   1.830 -0.4591  0.5767 -0.0073
  693SOL    HW1 2078   0.655   0.835   1.922  3.1346  0.6473  0.2077
  693SOL    HW2 2079   0.544   0.859   1.788 -0.0885 -0.6090  1.0306
  694SOL     OW 2080   1.481   2.107   1.020  0.2531 -0.2914 -0.2711
  694SOL    HW1 2081   1.555   2.093   0.955 -1.6243  0.6326 -0.2429
  694SOL    HW2 2082   1.430   2.020   1.052 -0.3433 -2.0534  3.5126
  695SOL     OW 2083   2.904   0.693   1.062  0.1739  0.5865  0.5802
  695SOL    HW1 2084   2.931   0.637   0.982  1.1522  2.5627 -2.6125
  695SOL    HW2 2085   2.987   0.731   1.101 -2.5438 -2.3538 -0.5981
  696SOL     OW 2086   0.610   2.354   0.583 -0.4299 -0.1640 -0.7324
  696SOL    HW1 2087   0.681   2.379   0.520  0.5971  0.9660  0.5151
  696SOL    HW2 2088   0.636   2.387   0.673 -2.4941 -2.2828 -4.4862
  697SOL     OW 2089   1.700   1.042   1.708  0.1823 -0.7952 -0.2077
  697SOL    HW1 2090   1.756   1.094   1.645  0.2991 -0.2817  2.2187
  697SOL    HW2 2091   1.682   1.095   1.792  1.2066  1.1553 -0.5369
  698SOL     OW 2092   1.851   1.591   1.486 -0.2475  0.5340  0.1026
  698SOL    HW1 2093   1.779   1.653   1.525  0.5299 -0.6212  1.1457
  698SOL    HW2 2094   1.885   1.624   1.397  1.0342  0.6323  0.7988
  699SOL     OW 2095   0.081   0.617   2.535  0.2973  0.1486  0.0356
  699SOL    HW1 2096   0.020   0.699   2.525 -0.8577  0.0360  1.1291
  699SOL    HW2 2097   0.101   0.618   2.634 -1.2696  1.0231 -0.0777
  700SOL     OW 2098   1.621   2.280   0.715 -0.3134  0.5021  0.0571
  700SOL    HW1 2099   1.673   2.325   0.789 -0.8262  1.7964 -0.3693
  700SOL    HW2 2100   1.552   2.343   0.671  0.2594 -0.2177 -1.8312
  701SOL     OW 2101   2.981   1.498   2.038 -0.9765 -0.3645  0.0060
  701SOL    HW1 2102   2.989   1.573   2.108 -1.3434  0.6745  2.8021
  701SOL    HW2 2103   3.009   1.519   1.940  0.3040  0.9406  0.6710
  702SOL     OW 2104   0.598   3.099   2.777  0.3205  0.5259 -0.3445
  702SOL    HW1 2105   0.691   3.064   2.792  0.6135  0.4030 -0.5349
  702SOL    HW2 2106   0.596   0.090   2.766 -0.0448 -1.1628 -1.7162
  703SOL     OW 2107   1.897   0.603   2.888  0.0721  0.4738  0.1816
  703SOL    HW1 2108   1.858   0.517   2.934 -1.8699 -2.2547  0.7321
  703SOL    HW2 2109   1.952   0.577   2.809 -0.4636 -0.3797 -0.0185
  704SOL     OW 2110   2.881   1.283   1.170  0.2684 -0.2138  0.4881
  704SOL    HW1 2111   2.800   1.328   1.123 -2.5954  0.8718 -1.1100
  704SOL    HW2 2112   2.906   1.338   1.251  1.2330 -1.4829  0.6612
  705SOL     OW 2113   2.484   1.737   1.796 -0.4345  0.0536 -0.1671
  705SOL    HW1 2114   2.412   1.806   1.791  1.3387 -0.3827  0.0868
  705SOL    HW2 2115   2.447   1.643   1.773  1.0835  0.6557  1.3788
  706SOL     OW 2116   0.149   2.460   0.898  0.6454  0.6380 -0.3383
  706SOL    HW1 2117   0.186   2.546   0.867 -0.8410 -3.6379  1.3267
  706SOL    HW2 2118   0.083   2.420   0.834  2.4585  0.6457 -1.8058
  707SOL     OW 2119   0.989   2.974   0.028 -0.2674  0.3682  0.1344
  707SOL    HW1 2120   0.900   2.969   0.081  0.2050  0.5043  2.0141
  707SOL    HW2 2121   1.065   2.938   0.088  2.8226 -1.5675  3.8679
  708SOL     OW 2122   0.644   2.109   1.580 -0.2508 -0.7438 -0.0077
  708SOL    HW1 2123   0.636   2.181   1.510  1.8885  0.5338  2.9014
  708SOL    HW2 2124   0.674   2.026   1.533 -1.2186 -1.1493 -0.3081
  709SOL     OW 2125   2.355   0.013   2.646  0.1434 -0.6844  0.0247
  709SOL    HW1 2126   2.256   0.006   2.663  0.0364 -1.7094 -0.7418
  709SOL    HW2 2127   2.403   0.083   2.702  1.0305  1.0417 -1.3532
  710SOL     OW 2128   1.155   2.516   2.750 -0.2841 -0.3920  0.1565
  710SOL    HW1 2129   1.182   2.438   2.693  0.3478  1.7042  0.4866
  710SOL    HW2 2130   1.123   2.594   2.688 -0.1808  4.2201 -4.7598
  711SOL     OW 2131   1.001   2.200   2.561  0.3066 -0.2168 -0.2585
  711SOL    HW1 2132   1.070   2.190   2.636 -1.7596  0.6156 -0.1441
  711SOL    HW2 2133   0.911   2.224   2.601  1.2242 -0.3113 -1.6929
  712SOL     OW 2134   0.967   2.007   2.928 -0.3053 -0.3582 -0.1767
  712SOL    HW1 2135   0.972   1.975   2.833 -0.5548 -2.1744 -0.5048
  712SOL    HW2 2136   0.934   1.937   2.991  0.9374  0.9707  1.6918
  713SOL     OW 2137   0.928   0.983   1.830  0.0181  0.0986 -0.2079
  713SOL    HW1 2138   0.915   1.013   1.734 -0.5456 -0.1092  1.7119
  713SOL    HW2 2139   0.947   0.881   1.832  1.4738 -0.3176  0.3404
  714SOL     OW 2140   1.827   2.105   1.245 -0.0146  0.3208  0.3470
  714SOL    HW1 2141   1.817   2.037   1.166 -3.1640  1.1992 -0.7904
  714SOL    HW2 2142   1.740   2.131   1.284 -0.4791  1.5385 -3.1883
  715SOL     OW 2143   0.122   0.329   0.651  0.1478 -0.0897  0.4476
  715SOL    HW1 2144   0.070   0.253   0.703  1.2547  1.4238 -0.5332
  715SOL    HW2 2145   0.199   0.275   0.606  0.2076 -1.3648 -0.0117
  716SOL     OW 2146   0.854   2.707   0.218 -0.9677 -0.4076 -0.4595
  716SOL    HW1 2147   0.851   2.639   0.143 -0.5438  1.0563 -0.1999
  716SOL    HW2 2148   0.837   2.804   0.187  0.3286  2.8925  1.1928
  717SOL     OW 2149   0.172   0.345   0.302  0.0012  0.3254 -0.2294
  717SOL    HW1 2150   0.270   0.335   0.331  0.2639  0.1950  4.7081
  717SOL    HW2 2151   0.131   0.255   0.293  0.5815  0.3755  0.3498
  718SOL     OW 2152   1.794   2.557   1.117  0.1541 -0.5639  0.5528
  718SOL    HW1 2153   1.698   2.579   1.142 -0.4976  0.8613  0.0604
  718SOL    HW2 2154   1.858   2.636   1.135 -0.4535  0.9468  0.2385
  719SOL     OW 2155   3.035   2.234   0.842 -0.4379  0.1801 -0.3832
  719SOL    HW1 2156   3.105   2.165   0.875  1.7291  1.5717  0.6747
  719SOL    HW2 2157   2.968   2.250   0.921  1.2110 -0.8063  2.1995
  720SOL     OW 2158   1.013   1.189   0.941 -0.2420 -0.3639 -0.2918
  720SOL    HW1 2159   0.930   1.196   1.001 -0.1419 -0.3719  0.4625
  720SOL    HW2 2160   1.075   1.119   0.985 -0.4424 -1.9352  0.4492
  721SOL     OW 2161   0.805   0.504   0.830 -0.1333  0.4901  0.5548
  721SOL    HW1 2162   0.710   0.509   0.864 -0.6852 -0.6382 -1.8255
  721SOL    HW2 2163   0.854   0.430   0.883 -1.0548  0.1181 -0.4935
  722SOL     OW 2164   1.388   1.214   1.415 -0.7043 -0.0166 -0.4863
  722SOL    HW1 2165   1.409   1.303   1.459 -0.0621 -0.3680  0.4765
  722SOL    HW2 2166   1.403   1.132   1.478 -2.9668  0.8645  0.2095
  723SOL     OW 2167   0.825   0.248   1.840  0.7931  0.2201  0.0829
  723SOL    HW1 2168   0.799   0.293   1.752  1.4787  4.0028 -1.6385
  723SOL    HW2 2169   0.818   0.319   1.916 -0.0150 -0.2816  0.6670
  724SOL     OW 2170   2.062   1.924   1.846 -0.2433 -0.0537 -0.4467
  724SOL    HW1 2171   2.053   1.831   1.807 -0.1021 -0.5088 -1.8274
  724SOL    HW2 2172   1.986   1.982   1.821 -0.8654 -0.8560  2.5696
  725SOL     OW 2173   0.947   2.835   1.437  0.1452 -0.4534 -0.1247
  725SOL    HW1 2174   0.992   2.750   1.405 -1.4589  1.4875  2.1992
  725SOL    HW2 2175   0.907   2.820   1.530 -2.0749 -0.4177  2.3670
  726SOL     OW 2176   1.471   0.588   0.264 -0.2575 -0.2119  0.5354
  726SOL    HW1 2177   1.509   0.631   0.352  1.5899 -0.0741  1.3204
  726SOL    HW2 2178   1.546   0.592   0.195  0.4359 -1.0860  1.4765
  727SOL     OW 2179   1.468   2.329   1.220 -0.3653 -0.4634 -0.4937
  727SOL    HW1 2180   1.528   2.272   1.156  2.3031  0.3522  0.0345
  727SOL    HW2 2181   1.382   2.274   1.242  1.3371 -0.6921  2.4704
  728SOL     OW 2182   1.647   0.151   2.427 -0.4252  0.4205  0.0165
  728SOL    HW1 2183   1.711   0.115   2.358 -1.5681  0.8992 -2.2951
  728SOL    HW2 2184   1.580   0.083   2.458  1.5748 -0.1697 -2.5864
  729SOL     OW 2185   2.303   1.432   0.809 -0.9176  0.1206 -0.0932
  729SOL    HW1 2186   2.340   1.348   0.765  0.3019  0.6450  0.0772
  729SOL    HW2 2187   2.373   1.501   0.815 -1.6059 -0.1567 -1.6619
  730SOL     OW 2188   1.912   1.154   2.713  0.3592  0.2174 -0.4329
  730SOL    HW1 2189   1.896   1.149   2.614 -0.7374 -2.0752  1.5619
  730SOL    HW2 2190   1.870   1.072   2.753 -1.9803  0.1195 -1.2483
  731SOL     OW 2191   0.345   0.090   1.319  0.1620  0.5975  0.5440
  731SOL    HW1 2192   0.326   0.178   1.275 -3.0411 -0.5631 -1.0435
  731SOL    HW2 2193   0.346   0.015   1.250  1.2778 -0.3845  0.9559
  732SOL     OW 2194   1.651   0.476   1.408 -0.4083 -0.4469  0.4305
  732SOL    HW1 2195   1.733   0.521   1.365 -1.3975 -0.8423 -0.4033
  732SOL    HW2 2196   1.618   0.397   1.351 -0.7046  3.2177  0.4834
  733SOL     OW 2197   1.003   1.437   1.914 -0.0410 -0.6324  0.3726
  733SOL    HW1 2198   1.034   1.456   1.820 -1.9401 -0.4388  1.9607
  733SOL    HW2 2199   1.064   1.366   1.954  0.6527 -0.2427  0.5369
  734SOL     OW 2200   2.612   1.745   0.185 -1.1108  0.5671 -0.0938
  734SOL    HW1 2201   2.530   1.697   0.159 -1.5483  2.2026  0.3656
  734SOL    HW2 2202   2.600   1.843   0.162 -1.9174  1.7098 -0.6500
  735SOL     OW 2203   0.494   0.708   0.288 -0.3658 -0.5221 -0.1467
  735SOL    HW1 2204   0.415   0.655   0.260  0.6638  0.4972  0.4944
  735SOL    HW2 2205   0.509   0.710   0.387 -0.7479  1.2201 -2.2569
  736SOL     OW 2206   1.742   2.679   0.268  0.8119  0.0538 -0.4683
  736SOL    HW1 2207   1.846   2.693   0.271  3.1264  2.7043  0.5659
  736SOL    HW2 2208   1.707   2.646   0.180 -1.5482 -2.0949  0.3891
  737SOL     OW 2209   1.207   2.204   1.297 -0.1002  0.0684 -0.4302
  737SOL    HW1 2210   1.193   2.262   1.380 -2.6288 -2.1350 -1.2844
  737SOL    HW2 2211   1.200   2.103   1.324 -0.1297 -2.7959 -0.3627
  738SOL     OW 2212   2.082   3.096   2.670 -0.1461  0.0358 -0.2749
  738SOL    HW1 2213   1.999   0.040   2.648  1.0019 -1.3133  1.1596
  738SOL    HW2 2214   2.075   3.006   2.627 -0.2406 -0.8980  1.3614
  739SOL     OW 2215   1.683   2.295   2.697  0.0730 -0.2025 -0.1083
  739SOL    HW1 2216   1.769   2.261   2.740 -1.3417  0.4595 -0.9450
  739SOL    HW2 2217   1.686   2.398   2.692 -0.2920 -1.0338  1.9769
  740SOL     OW 2218   2.010   2.214   2.088 -0.3105 -0.0918  0.2435
  740SOL    HW1 2219   2.013   2.113   2.102  0.9612  0.0464 -3.3169
  740SOL    HW2 2220   2.105   2.255   2.102 -0.6689 -0.6679  0.6359
  741SOL     OW 2221   2.583   2.074   2.585  0.3530 -0.0230  0.0777
  741SOL    HW1 2222   2.605   2.140   2.514 -1.8223 -3.0727 -1.3843
  741SOL    HW2 2223   2.505   2.111   2.640  2.6997 -1.2520 -2.9290
  742SOL     OW 2224   1.054   1.405   2.689 -0.5670 -0.1326 -0.0905
  742SOL    HW1 2225   1.148   1.403   2.735 -1.4622 -1.9627  2.1890
  742SOL    HW2 2226   1.067   1.395   2.588 -1.5163 -0.2321 -0.4927
  743SOL     OW 2227   1.358   1.269   2.801  0.0082 -0.8036  0.2362
  743SOL    HW1 2228   1.442   1.213   2.793 -1.7138  1.1041 -1.5752
  743SOL    HW2 2229   1.357   1.342   2.871 -0.0365 -0.0975 -1.7127
  744SOL     OW 2230   2.143   3.086   1.344 -0.4043 -0.1788  0.0137
  744SOL    HW1 2231   2.229   3.044   1.376  0.4416 -0.3097  0.9448
  744SOL    HW2 2232   2.126   3.069   1.245 -0.8777 -0.3631  2.6236
  745SOL     OW 2233   2.535   0.954   0.698  0.3442 -0.1551  0.0963
  745SOL    HW1 2234   2.551   0.970   0.594  1.5870  1.5616 -1.0298
  745SOL    HW2 2235   2.591   1.018   0.755 -1.4620  0.7074 -1.7769
  746SOL     OW 2236   2.764   1.803   1.130  0.4201 -0.3069 -0.1560
  746SOL    HW1 2237   2.768   1.789   1.229 -1.2325  1.6288 -2.8662
  746SOL    HW2 2238   2.746   1.896   1.103  0.5495 -0.7643 -2.0231
  747SOL     OW 2239   1.640   0.049   0.182 -0.0138 -0.0312  0.1426
  747SOL    HW1 2240   1.731   0.027   0.215 -0.2185 -2.6646 -0.7427
  747SOL    HW2 2241   1.605   3.086   0.127 -0.7825 -1.1849  0.4286
  748SOL     OW 2242   0.616   1.346   0.091  0.3459  0.0543  0.8689
  748SOL    HW1 2243   0.557   1.285   0.027 -3.9188 -0.8992  0.2082
  748SOL    HW2 2244   0.560   1.378   0.169  0.9423  2.1640 -1.9939
  749SOL     OW 2245   2.590   0.908   2.309  0.1489 -0.2435  0.1921
  749SOL    HW1 2246   2.563   0.814   2.340 -0.4163  0.2656  1.6856
  749SOL    HW2 2247   2.662   0.944   2.369 -2.4280 -0.9533 -0.9873
  750SOL     OW 2248   0.871   0.531   1.828 -0.1561 -0.6910 -0.1453
  750SOL    HW1 2249   0.825   0.521   1.915  0.0295 -2.6162 -0.6855
  750SOL    HW2 2250   0.817   0.493   1.753  1.6574  0.9311  0.1060
  751SOL     OW 2251   2.395   2.716   1.886 -0.2537  0.0062  0.0338
  751SOL    HW1 2252   2.294   2.740   1.899  0.7749 -0.6712  2.5918
  751SOL    HW2 2253   2.445   2.758   1.963 -1.2950  3.1506 -1.3516
  752SOL     OW 2254   2.107   1.654   1.013  0.1795 -0.2946  0.0781
  752SOL    HW1 2255   2.156   1.562   1.020  1.5030  1.2178  1.2712
  752SOL    HW2 2256   2.051   1.665   0.929  2.2463  1.4220 -1.3981
  753SOL     OW 2257   1.030   1.012   2.076  0.1806 -0.1871  0.5098
  753SOL    HW1 2258   0.966   0.990   1.994 -0.8476 -1.5613 -2.1689
  753SOL    HW2 2259   1.121   0.965   2.066 -1.2476  1.0384 -2.1967
  754SOL     OW 2260   0.750   2.528   0.411  0.5864 -0.0183 -0.2624
  754SOL    HW1 2261   0.768   2.591   0.336  1.4558  0.3338  2.3688
  754SOL    HW2 2262   0.721   2.578   0.495  2.8132 -1.1625 -0.4575
  755SOL     OW 2263   2.703   2.921   0.844 -0.4603  0.5060 -0.1437
  755SOL    HW1 2264   2.638   2.841   0.848 -0.2526 -0.2635  2.1330
  755SOL    HW2 2265   2.751   2.937   0.930  0.4868  0.8333 -2.9482
  756SOL     OW 2266   2.455   1.886   2.418 -0.0126  0.1694  0.3628
  756SOL    HW1 2267   2.500   1.941   2.487  0.7189 -0.8492  2.1861
  756SOL    HW2 2268   2.422   1.953   2.340 -0.1670  3.6943 -1.5688
  757SOL     OW 2269   0.098   3.010   1.708 -0.2011 -0.1003 -0.3773
  757SOL    HW1 2270   0.098   2.988   1.809  1.3987 -1.2591 -0.5020
  757SOL    HW2 2271   0.019   3.065   1.681  1.9469 -0.6395  0.0976
  758SOL     OW 2272   0.454   2.786   0.353  0.2594 -0.3501 -0.0265
  758SOL    HW1 2273   0.512   2.842   0.419 -1.2616 -2.7310  4.5449
  758SOL    HW2 2274   0.461   2.687   0.371  0.3267  0.7906 -0.3709
  759SOL     OW 2275   2.000   1.278   1.072  0.0169  0.5160  0.2973
  759SOL    HW1 2276   1.910   1.295   1.121  0.8976  2.5734  2.6560
  759SOL    HW2 2277   2.035   1.183   1.084 -0.2103  1.3787 -1.5849
  760SOL     OW 2278   1.448   1.001   1.557 -0.0049  0.4264  0.1956
  760SOL    HW1 2279   1.454   0.910   1.506 -2.1242 -3.0415  0.0575
  760SOL    HW2 2280   1.528   1.022   1.621  2.4210  0.0995  0.5805
  761SOL     OW 2281   2.005   0.293   1.263 -0.1578  0.4767 -0.2826
  761SOL    HW1 2282   2.061   0.327   1.344  3.0799 -2.0957  2.1742
  761SOL    HW2 2283   2.050   0.262   1.175  0.8692 -0.2365 -1.2938
  762SOL     OW 2284   1.831   0.382   0.412 -0.3175  0.2850  0.3144
  762SOL    HW1 2285   1.840   0.282   0.442 -2.5153 -2.7331  0.3240
  762SOL    HW2 2286   1.731   0.407   0.425  0.3137 -0.7373 -0.5600
  763SOL     OW 2287   0.845   0.376   1.586  0.1338  0.0832  0.0179
  763SOL    HW1 2288   0.823   0.409   1.491  0.6256  1.2872 -0.2018
  763SOL    HW2 2289   0.925   0.315   1.586 -4.1034 -0.7154  0.8039
  764SOL     OW 2290   2.292   2.045   2.218  0.2581 -0.4927 -0.0567
  764SOL    HW1 2291   2.302   2.013   2.123 -2.5364 -0.3734  0.3107
  764SOL    HW2 2292   2.307   2.144   2.230 -3.3937 -0.8204 -2.3645
  765SOL     OW 2293   3.030   1.179   2.697 -0.0698  0.1380  0.2144
  765SOL    HW1 2294   2.956   1.247   2.709 -0.7175  3.7990  1.1998
  765SOL    HW2 2295   3.086   1.176   2.785  0.0421  0.0168  0.8652
  766SOL     OW 2296   2.945   0.638   2.761  0.3414  0.4090 -0.4356
  766SOL    HW1 2297   2.967   0.559   2.818 -1.7394  1.1677 -0.6541
  766SOL    HW2 2298   2.844   0.629   2.739 -2.1007 -0.1045 -0.4467
  767SOL     OW 2299   0.407   2.589   1.744  0.6265 -0.0038  0.2223
  767SOL    HW1 2300   0.352   2.634   1.670  0.0710  0.2406  0.7089
  767SOL    HW2 2301   0.354   2.566   1.830  0.3359  3.6388  2.0478
  768SOL     OW 2302   0.722   0.907   0.069  0.0025  0.1692  0.1459
  768SOL    HW1 2303   0.750   0.814   0.107  0.1432  1.0553 -1.0331
  768SOL    HW2 2304   0.782   0.926   3.097  1.3891  0.0980 -1.0995
  769SOL     OW 2305   1.241   2.423   0.435 -0.1380 -0.0033 -0.1378
  769SOL    HW1 2306   1.146   2.431   0.474  1.4114  1.7190  0.1212
  769SOL    HW2 2307   1.309   2.440   0.509 -0.8938 -1.9571 -1.0875
  770SOL     OW 2308   1.143   0.045   1.961  0.2990  0.4624  0.0496
  770SOL    HW1 2309   1.057   0.083   2.006 -1.5604  1.0938 -0.3576
  770SOL    HW2 2310   1.168   3.080   2.021  1.0233 -0.5575 -0.5957
  771SOL     OW 2311   0.818   2.882   0.714 -0.1680 -0.0081 -0.2841
  771SOL    HW1 2312   0.915   2.896   0.700 -0.6174  1.3773  0.3774
  771SOL    HW2 2313   0.803   2.905   0.813 -3.0048  1.5425 -1.8052
  772SOL     OW 2314   2.653   0.660   0.168 -0.1449 -0.5643  0.6107
  772SOL    HW1 2315   2.705   0.657   0.255  1.1598 -1.1911 -1.4184
  772SOL    HW2 2316   2.555   0.669   0.191  1.7327 -1.6587  0.5139
  773SOL     OW 2317   2.220   0.687   1.867  0.2363  0.4793  0.5971
  773SOL    HW1 2318   2.276   0.643   1.792 -3.5862  0.5279  0.0829
  773SOL    HW2 2319   2.121   0.666   1.849 -1.6880 -0.5449  0.6101
  774SOL     OW 2320   0.263   0.774   0.656  0.3707 -0.2491 -0.5129
  774SOL    HW1 2321   0.300   0.799   0.565  0.2786  0.9320 -0.9486
  774SOL    HW2 2322   0.275   0.856   0.720  1.3803  1.5481  3.1183
  775SOL     OW 2323   1.649   0.262   1.002  0.0881  0.1551 -0.0739
  775SOL    HW1 2324   1.664   0.359   1.031 -0.5709 -0.5531  0.7192
  775SOL    HW2 2325   1.736   0.228   0.960 -1.5402  3.0144  1.3273
  776SOL     OW 2326   2.084   2.930   2.167 -0.6553  0.0813  0.3167
  776SOL    HW1 2327   2.168   2.871   2.159  0.5451  0.3419  1.2103
  776SOL    HW2 2328   2.085   3.008   2.098 -1.0487 -0.2404 -0.1151
  777SOL     OW 2329   1.416   1.486   0.406  0.0201 -0.6510 -0.2789
  777SOL    HW1 2330   1.421   1.577   0.360 -0.9974  2.8161  1.7694
  777SOL    HW2 2331   1.383   1.413   0.339 -0.4213  0.2710 -0.1462
  778SOL     OW 2332   0.415   2.641   0.054 -0.0358  1.0541  0.2393
  778SOL    HW1 2333   0.433   2.590   0.146  0.3700 -2.0156  4.7930
  778SOL    HW2 2334   0.449   2.736   0.053 -2.6085 -1.4559 -0.5402
  779SOL     OW 2335   0.204   1.500   0.344 -0.1277  0.0856 -0.2617
  779SOL    HW1 2336   0.115   1.483   0.297  1.3929  0.9606 -0.2025
  779SOL    HW2 2337   0.194   1.583   0.402 -1.3091 -0.3364 -0.1135
  780SOL     OW 2338   1.704   0.272   2.098 -0.2282 -0.0429 -0.0293
  780SOL    HW1 2339   1.746   0.245   2.190  2.0517  0.6643  1.2371
  780SOL    HW2 2340   1.686   0.192   2.035  0.1642 -2.3141 -1.3467
  781SOL     OW 2341   1.800   1.941   1.015 -0.0236  0.2406 -0.3993
  781SOL    HW1 2342   1.740   1.980   0.942  0.2884  0.8489  0.9302
  781SOL    HW2 2343   1.899   1.950   0.994  0.1926 -0.9299 -1.9900
  782SOL     OW 2344   2.156   2.612   2.151 -0.5132  0.4312  0.0019
  782SOL    HW1 2345   2.076   2.637   2.212  1.2556  0.5710  0.8586
  782SOL    HW2 2346   2.233   2.672   2.177 -1.3633 -0.6183  0.5768
  783SOL     OW 2347   1.510   0.629   1.730  0.4549 -0.5878  0.1508
  783SOL    HW1 2348   1.454   0.552   1.771  0.1186 -0.6050 -0.8564
  783SOL    HW2 2349   1.501   0.708   1.792 -0.8249 -0.0614 -1.1207
  784SOL     OW 2350   1.522   0.846   1.893 -0.3012 -0.4095  0.1069
  784SOL    HW1 2351   1.550   0.928   1.840  1.2094 -0.0405 -0.2960
  784SOL    HW2 2352   1.447   0.862   1.954  0.7898 -1.1599 -1.1992
  785SOL     OW 2353   1.757   0.794   0.493 -0.3197 -0.0979  0.4728
  785SOL    HW1 2354   1.681   0.834   0.444  3.3241  0.7499  1.4695
  785SOL    HW2 2355   1.755   0.807   0.595  1.2025 -1.2835  1.2899
  786SOL     OW 2356   2.925   1.179   0.449 -0.3534 -0.4765  0.6508
  786SOL    HW1 2357   2.870   1.145   0.365 -2.1407 -1.1248  2.8228
  786SOL    HW2 2358   2.989   1.254   0.425  0.5120 -0.0885  3.6334
  787SOL     OW 2359   1.416   1.822   0.024  0.7662 -0.0991 -0.3839
  787SOL    HW1 2360   1.481   1.776   3.064  1.7851  1.0437 -0.6095
  787SOL    HW2 2361   1.363   1.898   3.093  0.5195  2.9435  2.2909
  788SOL     OW 2362   2.122   1.030   1.036  0.2514  0.8010 -0.0251
  788SOL    HW1 2363   2.218   1.024   1.073  1.5879  0.8856  1.1898
  788SOL    HW2 2364   2.127   1.048   0.935  1.4427 -0.5289 -0.3030
  789SOL     OW 2365   3.060   1.731   2.206 -0.0837 -0.2736 -0.1874
  789SOL    HW1 2366   0.004   1.649   2.237  1.3229 -0.8444 -0.4402
  789SOL    HW2 2367   2.974   1.745   2.253 -1.1141  1.4381  2.4439
  790SOL     OW 2368   1.002   3.025   2.528  0.1843 -0.2023 -0.1529
  790SOL    HW1 2369   0.935   2.960   2.498 -0.0941  0.5444  0.9257
  790SOL    HW2 2370   1.090   2.987   2.574  0.5808 -1.8777 -0.1616
  791SOL     OW 2371   0.174   2.533   2.732 -0.2565  0.3975  0.7934
  791SOL    HW1 2372   0.160   2.527   2.830  2.0260 -0.5801 -5.6526
  791SOL    HW2 2373   0.102   2.478   2.684 -0.8946  0.8154 -2.9847
  792SOL     OW 2374   1.428   0.434   2.073  0.2921  0.5458 -0.1743
  792SOL    HW1 2375   1.512   0.401   2.126 -0.1821  0.4131  3.0524
  792SOL    HW2 2376   1.459   0.487   1.995 -0.2993 -3.0127  0.1556
  793SOL     OW 2377   2.656   2.824   2.499 -0.3837 -0.3674  0.1159
  793SOL    HW1 2378   2.613   2.751   2.441 -1.9555 -1.4830 -2.6511
  793SOL    HW2 2379   2.756   2.839   2.475 -1.5758  0.4951 -1.4015
  794SOL     OW 2380   0.276   0.261   1.966  0.0380  0.0326  0.1041
  794SOL    HW1 2381   0.257   0.251   2.067  1.6136 -0.1405  1.4190
  794SOL    HW2 2382   0.367   0.217   1.945  3.2112 -2.8367  0.8175
  795SOL     OW 2383   2.789   1.340   0.148  0.3680 -0.5549  0.1307
  795SOL    HW1 2384   2.887   1.343   0.121  0.3324  0.2271 -2.0172
  795SOL    HW2 2385   2.757   1.425   0.198  0.9632 -0.3108  0.1422
  796SOL     OW 2386   2.827   2.025   2.694 -0.1772 -0.2892 -0.2699
  796SOL    HW1 2387   2.899   2.041   2.623  1.1836  1.1174 -0.6604
  796SOL    HW2 2388   2.731   2.043   2.656 -1.2217  2.5057 -0.7746
  797SOL     OW 2389   3.033   1.892   0.290 -0.3322 -0.0119 -0.6854
  797SOL    HW1 2390   3.021   1.792   0.299  0.9706 -1.7669 -1.8135
  797SOL    HW2 2391   2.944   1.938   0.319 -0.0142  0.8074  0.4992
  798SOL     OW 2392   0.509   0.556   1.780 -0.2958  0.1993  0.4849
  798SOL    HW1 2393   0.568   0.636   1.796  2.2440  2.1602 -0.0072
  798SOL    HW2 2394   0.422   0.570   1.827  1.1393  0.5014 -2.4193
  799SOL     OW 2395   2.644   1.270   2.332 -0.6624 -0.1478 -0.1526
  799SOL    HW1 2396   2.730   1.278   2.275  1.0788 -1.0166 -0.0350
  799SOL    HW2 2397   2.588   1.353   2.335 -0.5503 -0.2944 -1.4267
  800SOL     OW 2398   3.012   2.270   0.565  0.1075  0.4668  0.5915
  800SOL    HW1 2399   3.042   2.239   0.664  1.4483 -1.5518  1.2401
  800SOL    HW2 2400   3.053   2.359   0.539 -2.2449  0.7158  0.0495
  801SOL     OW 2401   0.868   0.805   0.874 -0.9038  0.4068 -0.2309
  801SOL    HW1 2402   0.901   0.870   0.803 -3.6511  0.3136 -1.9282
  801SOL    HW2 2403   0.867   0.709   0.832 -0.3203 -3.2668  0.9602
  802SOL     OW 2404   1.967   2.153   0.864  0.1157 -0.4182 -0.2574
  802SOL    HW1 2405   2.025   2.073   0.886  2.3407  0.0932 -2.1080
  802SOL    HW2 2406   1.916   2.132   0.780 -0.7846 -1.8126  3.2496
  803SOL     OW 2407   3.083   1.380   0.390 -0.5724 -0.2015  0.6853
  803SOL    HW1 2408   0.067   1.342   0.394  0.6582 -1.1054  1.3459
  803SOL    HW2 2409   3.069   1.466   0.448  0.0044 -0.7138  2.1537
  804SOL     OW 2410   1.442   2.464   0.646 -0.5527  0.2140  0.2850
  804SOL    HW1 2411   1.365   2.461   0.710  0.4595 -0.1347 -0.3457
  804SOL    HW2 2412   1.463   2.561   0.617  0.5006  0.7481 -1.2520
  805SOL     OW 2413   1.671   2.061   2.535  0.0463 -0.2756  0.5277
  805SOL    HW1 2414   1.653   2.108   2.624 -1.8268 -3.9956  0.3677
  805SOL    HW2 2415   1.746   1.990   2.549  0.4321  0.8012 -1.1221
  806SOL     OW 2416   1.522   0.027   1.445  0.6517 -0.2051  0.2279
  806SOL    HW1 2417   1.506   0.113   1.389 -1.4796  2.8150 -0.1797
  806SOL    HW2 2418   1.507   3.064   1.381  2.5909  2.6775  1.4137
  807SOL     OW 2419   1.851   0.128   0.453 -0.0851  0.3235  0.7025
  807SOL    HW1 2420   1.880   0.120   0.549 -0.9897 -1.3758  0.3068
  807SOL    HW2 2421   1.862   0.039   0.406 -1.1300 -1.7212  0.5922
  808SOL     OW 2422   0.529   1.565   2.746  0.5905 -0.0552  0.0866
  808SOL    HW1 2423   0.430   1.542   2.726  1.7282 -3.3912 -1.4597
  808SOL    HW2 2424   0.599   1.517   2.690 -0.3191  0.2929 -0.9913
  809SOL     OW 2425   0.084   1.163   2.910  0.1033  0.8017  0.0134
  809SOL    HW1 2426   0.184   1.170   2.911  2.6771 -0.9417 -0.3544
  809SOL    HW2 2427   0.056   1.064   2.921 -1.0097  1.3668  1.7094
  810SOL     OW 2428   2.682   0.517   2.793 -0.0580  0.4322  0.5414
  810SOL    HW1 2429   2.598   0.572   2.799  3.3107  0.7676  0.1536
  810SOL    HW2 2430   2.706   0.499   2.696  0.3759 -2.5630  2.7678
  811SOL     OW 2431   2.119   2.733   1.915  0.3496 -0.4564 -0.1995
  811SOL    HW1 2432   2.038   2.735   1.851  0.4996 -0.6568  0.0463
  811SOL    HW2 2433   2.115   2.658   1.981  2.4244  2.0804 -0.2227
  812SOL     OW 2434   1.148   0.262   0.560  0.3771 -0.3664 -0.1705
  812SOL    HW1 2435   1.248   0.270   0.570 -0.4783  1.6556 -2.5967
  812SOL    HW2 2436   1.111   0.280   0.465 -2.2198 -0.9092 -1.4401
  813SOL     OW 2437   1.953   0.666   1.849 -0.1761  0.1262  0.0385
  813SOL    HW1 2438   1.899   0.707   1.769 -0.6345  1.1681 -1.7989
  813SOL    HW2 2439   1.897   0.593   1.885  1.1489  2.1405  1.1343
  814SOL     OW 2440   1.902   0.892   1.119  0.4638  0.2525  0.1550
  814SOL    HW1 2441   1.935   0.804   1.081  0.5296 -1.3593  1.5885
  814SOL    HW2 2442   1.965   0.969   1.084  3.0087  1.9958 -1.1223
  815SOL     OW 2443   0.555   0.777   0.552  0.1280 -0.4854  0.4120
  815SOL    HW1 2444   0.590   0.867   0.590 -1.7411  1.7269  2.9789
  815SOL    HW2 2445   0.629   0.716   0.529  0.5388  0.9208 -2.7944
  816SOL     OW 2446   2.384   2.433   0.382 -0.0871 -0.1224 -0.4296
  816SOL    HW1 2447   2.381   2.334   0.402  0.8573  0.1564 -3.5561
  816SOL    HW2 2448   2.295   2.477   0.364  0.6587  1.6550 -2.0000
  817SOL     OW 2449   2.819   2.469   0.922  0.5864  0.4043 -0.0755
  817SOL    HW1 2450   2.809   2.382   0.975  1.5127 -1.8359  0.1532
  817SOL    HW2 2451   2.875   2.542   0.968  0.0980  5.4343 -0.3006
  818SOL     OW 2452   1.724   0.797   0.168  0.7455 -0.0502 -0.3858
  818SOL    HW1 2453   1.818   0.830   0.198 -1.4047 -1.8795  0.4041
  818SOL    HW2 2454   1.659   0.819   0.239  1.7043  1.2051 -3.7490
  819SOL     OW 2455   0.444   0.544   0.708  0.1087  0.1756 -0.5126
  819SOL    HW1 2456   0.355   0.595   0.711 -2.1050  1.2173  1.9480
  819SOL    HW2 2457   0.496   0.562   0.629 -3.4521 -1.1926  1.6461
  820SOL     OW 2458   1.993   0.766   1.466  0.0951 -0.1220 -0.0571
  820SOL    HW1 2459   2.055   0.845   1.484  2.3958 -2.0798 -0.8802
  820SOL    HW2 2460   1.903   0.780   1.512 -0.4481 -0.1819  1.7786
  821SOL     OW 2461   2.877   0.251   1.028 -0.1615 -0.5264  0.3299
  821SOL    HW1 2462   2.813   0.326   1.004 -1.0331 -1.0725 -0.0262
  821SOL    HW2 2463   2.973   0.275   1.016  0.0946 -2.4742  2.1789
  822SOL     OW 2464   0.874   2.348   2.116  0.7986  0.1518  0.7507
  822SOL    HW1 2465   0.896   2.379   2.209  0.4083 -0.2205  0.5284
  822SOL    HW2 2466   0.778   2.369   2.086  0.0841  1.1360 -3.5923
  823SOL     OW 2467   2.903   1.229   1.607  0.4251  0.7128 -0.0436
  823SOL    HW1 2468   2.988   1.178   1.631 -2.5162 -0.7385  0.0315
  823SOL    HW2 2469   2.867   1.275   1.691 -1.7711 -0.5628  2.7729
  824SOL     OW 2470   0.617   2.517   2.331  0.3406  0.8233  0.0472
  824SOL    HW1 2471   0.570   2.477   2.410  0.8162 -1.1626 -0.0821
  824SOL    HW2 2472   0.719   2.511   2.352 -0.2047  0.0596 -1.1325
  825SOL     OW 2473   1.568   1.638   2.909 -0.0123 -0.0617 -0.0752
  825SOL    HW1 2474   1.536   1.664   2.814 -0.5815  0.7809  0.5512
  825SOL    HW2 2475   1.665   1.662   2.920 -0.3346 -2.5763 -1.5360
  826SOL     OW 2476   0.854   2.133   0.220  0.2071  0.4290 -0.1554
  826SOL    HW1 2477   0.805   2.147   0.304  1.3891 -0.0794 -0.4525
  826SOL    HW2 2478   0.848   2.033   0.190  1.7676 -0.7869 -0.4759
  827SOL     OW 2479   0.297   1.432   1.874 -0.3105  0.6985 -0.1926
  827SOL    HW1 2480   0.274   1.520   1.826  1.1233 -1.4102  1.5965
  827SOL    HW2 2481   0.252   1.353   1.824 -1.0522 -0.1451 -3.2652
  828SOL     OW 2482   0.195   1.770   1.486 -0.1966 -0.0334 -0.4735
  828SOL    HW1 2483   0.178   1.866   1.453 -0.2688  2.7230  1.6629
  828SOL    HW2 2484   0.269   1.719   1.441 -1.7458 -0.8213  1.8455
  829SOL     OW 2485   3.025   2.291   2.908  0.1016  0.1662 -0.4075
  829SOL    HW1 2486   0.003   2.294   2.958 -1.2277  0.3802  0.7498
  829SOL    HW2 2487   2.972   2.215   2.947  1.5554  2.4269  1.3346
  830SOL     OW 2488   1.030   0.638   0.486 -0.4218  0.5451  0.3996
  830SOL    HW1 2489   0.999   0.549   0.522  3.0468 -0.9516  2.6892
  830SOL    HW2 2490   1.032   0.644   0.382  0.2073 -0.8030 -2.9923
  831SOL     OW 2491   2.651   2.203   3.062 -0.2276 -0.5637  0.3643
  831SOL    HW1 2492   2.728   2.152   3.017  0.6260 -1.1330 -0.7142
  831SOL    HW2 2493   2.600   2.252   2.985  0.0604  0.3704 -0.5484
  832SOL     OW 2494   1.752   2.682   0.528 -0.1792  0.3510  1.2241
  832SOL    HW1 2495   1.752   2.685   0.424  1.2457  0.1883 -1.3304
  832SOL    HW2 2496   1.820   2.607   0.549 -1.4693 -1.4812 -1.3860
  833SOL     OW 2497   0.227   1.180   2.178  0.2392 -0.1725 -0.2090
  833SOL    HW1 2498   0.198   1.195   2.272  1.3142 -2.9427 -2.1320
  833SOL    HW2 2499   0.271   1.257   2.129 -0.3002  0.0306  1.3961
  834SOL     OW 2500   2.296   0.364   0.605 -0.6857  0.5528 -0.0002
  834SOL    HW1 2501   2.359   0.442   0.616 -0.4380 -0.7519  2.4389
  834SOL    HW2 2502   2.252   0.357   0.514  2.9191 -1.4478  0.1454
  835SOL     OW 2503   2.344   0.701   2.114  0.3416  0.3263 -0.3747
  835SOL    HW1 2504   2.320   0.702   2.015 -0.7333 -0.7345  1.5932
  835SOL    HW2 2505   2.319   0.607   2.154  2.4536 -3.4262 -3.1828
  836SOL     OW 2506   0.969   1.621   0.867  0.1217  0.4242 -0.1300
  836SOL    HW1 2507   1.038   1.669   0.805 -2.2363  0.3259  0.9211
  836SOL    HW2 2508   1.009   1.611   0.961  2.1375  0.1234 -0.1792
  837SOL     OW 2509   2.424   1.135   1.887  0.1403  0.1753  0.7771
  837SOL    HW1 2510   2.348   1.199   1.871  1.5658  0.5666 -0.4589
  837SOL    HW2 2511   2.444   1.116   1.984 -0.6088  0.7787 -2.5579
  838SOL     OW 2512   3.074   0.915   2.632 -0.2742 -0.0997 -0.4795
  838SOL    HW1 2513   3.012   0.857   2.575 -1.4461  2.4565  3.0241
  838SOL    HW2 2514   3.061   1.014   2.615  1.4774  0.3526 -1.0099
  839SOL     OW 2515   3.024   0.020   3.034  0.7051  0.0169  0.0378
  839SOL    HW1 2516   3.001   0.064   2.949  3.6597 -1.2881  1.5397
  839SOL    HW2 2517   2.964   0.053   3.108 -2.4287  0.8518  0.9396
  840SOL     OW 2518   2.850   1.389   2.648 -0.1271  0.2290 -0.3983
  840SOL    HW1 2519   2.761   1.337   2.656  0.2050 -1.6041  0.1689
  840SOL    HW2 2520   2.834   1.489   2.640 -3.2152 -0.9657  0.1059
  841SOL     OW 2521   0.556   2.147   2.589  0.1724 -0.1500  0.3286
  841SOL    HW1 2522   0.555   2.139   2.486  0.3031  1.2606 -1.2742
  841SOL    HW2 2523   0.627   2.096   2.637 -2.9776 -0.5643 -1.1391
  842SOL     OW 2524   0.595   0.142   0.917  0.3472 -0.2026  0.2115
  842SOL    HW1 2525   0.618   0.202   0.998  0.8547  0.8802  1.3095
  842SOL    HW2 2526   0.552   0.198   0.845  1.7397 -2.1618  2.6129
  843SOL     OW 2527   3.104   1.543   1.790  0.3222  0.1970  0.2509
  843SOL    HW1 2528   0.079   1.593   1.817  0.3150 -1.7505  1.3237
  843SOL    HW2 2529   3.051   1.596   1.724  2.0715 -3.0867  1.0189
  844SOL     OW 2530   2.044   1.994   2.374  0.3897 -0.8660  0.0550
  844SOL    HW1 2531   2.023   2.093   2.372  3.4504  1.4431  3.1648
  844SOL    HW2 2532   2.137   1.977   2.334  1.5399 -0.5030 -2.3766
  845SOL     OW 2533   1.802   2.712   2.531  0.3348 -0.2288 -0.1214
  845SOL    HW1 2534   1.714   2.674   2.499  2.3428  2.0912 -0.6249
  845SOL    HW2 2535   1.791   2.781   2.607  0.6162  1.9933  0.4060
  846SOL     OW 2536   2.426   1.564   0.124  0.6273  0.2899  0.1274
  846SOL    HW1 2537   2.344   1.578   0.063 -0.0871  2.1365 -2.6734
  846SOL    HW2 2538   2.460   1.468   0.119 -0.7220  1.1937  0.3759
  847SOL     OW 2539   2.577   0.202   2.779 -0.0270 -0.3451  0.3240
  847SOL    HW1 2540   2.657   0.158   2.828 -0.1429 -2.8679  1.0456
  847SOL    HW2 2541   2.535   0.278   2.833 -1.7133  0.9305 -0.5110
  848SOL     OW 2542   1.971   0.598   0.468 -0.0431 -0.0265  0.0067
  848SOL    HW1 2543   1.913   0.514   0.463  1.4652  0.7362  1.1430
  848SOL    HW2 2544   1.914   0.685   0.462 -1.1582 -0.3913  1.2333
  849SOL     OW 2545   1.056   0.275   2.755  0.0703  0.0777 -0.1452
  849SOL    HW1 2546   1.003   0.246   2.678  2.1156 -2.8447  1.6223
  849SOL    HW2 2547   1.022   0.360   2.801  0.2447  0.6945  2.6600
  850SOL     OW 2548   0.094   0.416   0.024  0.1201 -0.0655 -0.6150
  850SOL    HW1 2549   0.100   0.513   3.104  0.1239 -0.8429  1.0228
  850SOL    HW2 2550   0.110   0.407   0.125  0.5086 -2.7212  1.2688
  851SOL     OW 2551   0.197   1.356   1.457  0.0950  0.4669 -0.4841
  851SOL    HW1 2552   0.161   1.317   1.544  2.7127  0.1112 -0.9804
  851SOL    HW2 2553   0.284   1.406   1.472  0.2147  1.4017  0.5090
  852SOL     OW 2554   1.255   0.787   1.959 -0.2776 -0.1408  0.1139
  852SOL    HW1 2555   1.183   0.761   1.893  3.1795  2.6059 -0.7726
  852SOL    HW2 2556   1.252   0.726   2.041 -3.0021  0.3432  1.7098
  853SOL     OW 2557   2.123   1.328   2.799  0.1564 -0.0838 -0.3383
  853SOL    HW1 2558   2.189   1.306   2.874  1.7455  1.2436 -3.6529
  853SOL    HW2 2559   2.057   1.255   2.775 -1.2176  3.1587 -3.3636
  854SOL     OW 2560   1.280   1.313   1.817  0.0317  0.5172 -0.2435
  854SOL    HW1 2561   1.349   1.347   1.881 -1.3078  1.9626 -1.2800
  854SOL    HW2 2562   1.287   1.213   1.816 -1.2759 -1.2150  2.2803
  855SOL     OW 2563   0.216   2.276   1.818  0.2534  0.5310  0.1253
  855SOL    HW1 2564   0.153   2.343   1.776 -1.3794 -2.9670 -0.0982
  855SOL    HW2 2565   0.265   2.215   1.749  2.5879 -0.9171  0.0080
  856SOL     OW 2566   1.093   1.425   2.438 -0.4988 -0.0321  0.2549
  856SOL    HW1 2567   1.075   1.379   2.346  0.4374 -1.2047 -0.4989
  856SOL    HW2 2568   1.115   1.524   2.425  1.6535  0.3313  2.5401
  857SOL     OW 2569   1.035   0.871   2.706 -0.3554  0.0228  0.0801
  857SOL    HW1 2570   0.950   0.879   2.646 -1.0002  2.9451 -2.1568
  857SOL    HW2 2571   1.095   0.795   2.678 -1.3002  1.2670  0.7660
  858SOL     OW 2572   0.290   3.012   1.503 -0.0377 -0.2594 -0.1575
  858SOL    HW1 2573   0.294   3.105   1.456 -1.3278  2.1463  0.3643
  858SOL    HW2 2574   0.233   3.020   1.589  1.8392 -0.0243 -0.2016
  859SOL     OW 2575   2.362   0.156   0.785 -0.1215  0.1605  0.0169
  859SOL    HW1 2576   2.350   0.228   0.716  1.2724 -3.1558 -1.7894
  859SOL    HW2 2577   2.404   0.187   0.871 -0.1685  0.6496  0.3824
  860SOL     OW 2578   0.724   0.808   1.576  0.2352  0.7374  0.3978
  860SOL    HW1 2579   0.704   0.808   1.677 -0.5955 -0.3174 -1.7163
  860SOL    HW2 2580   0.774   0.887   1.545 -2.9869  0.4142  0.2721
  861SOL     OW 2581   1.497   0.762   1.441  0.2520  0.5095 -0.0241
  861SOL    HW1 2582   1.477   0.697   1.521 -2.4624 -0.6207  1.2449
  861SOL    HW2 2583   1.598   0.776   1.434  0.4854 -2.3989 -1.1821
  862SOL     OW 2584   0.659   2.876   2.290 -0.6870 -0.8799 -0.0966
  862SOL    HW1 2585   0.555   2.874   2.287  0.7867  2.5054  0.3103
  862SOL    HW2 2586   0.692   2.847   2.379 -1.7045 -2.0581 -1.8513
  863SOL     OW 2587   2.459   0.239   1.308  0.6259 -0.2629 -0.6244
  863SOL    HW1 2588   2.530   0.169   1.334 -0.9198 -0.2641 -0.1055
  863SOL    HW2 2589   2.366   0.232   1.354 -2.6002 -0.1150  0.0000
  864SOL     OW 2590   2.601   2.891   2.770 -0.0680  0.8499  0.3773
  864SOL    HW1 2591   2.537   2.813   2.799  1.1286 -1.8864 -0.3008
  864SOL    HW2 2592   2.603   2.908   2.668  0.7695 -2.0241 -0.5854
  865SOL     OW 2593   1.315   1.200   2.235 -0.5575 -0.1637 -0.4051
  865SOL    HW1 2594   1.312   1.152   2.326 -1.9849 -0.2160  1.6664
  865SOL    HW2 2595   1.224   1.234   2.211 -0.4871  2.1190 -1.1549
  866SOL     OW 2596   2.556   2.670   0.903 -0.1607  0.0172 -0.1590
  866SOL    HW1 2597   2.575   2.653   1.002  0.1638  1.2113  0.3589
  866SOL    HW2 2598   2.512   2.595   0.855 -2.0719 -0.8311  1.4226
  867SOL     OW 2599   2.644   2.654   1.203 -0.2230 -0.5386 -0.3773
  867SOL    HW1 2600   2.674   2.745   1.247  0.4060  2.3484  0.0157
  867SOL    HW2 2601   2.708   2.580   1.235 -1.1811  0.4954 -0.5575
  868SOL     OW 2602   2.646   1.479   1.558 -0.5971 -0.6432  0.1583
  868SOL    HW1 2603   2.693   1.448   1.640 -2.1307 -3.3893 -4.7503
  868SOL    HW2 2604   2.579   1.413   1.521 -1.4908  0.9433  1.3891
  869SOL     OW 2605   2.047   1.431   2.063 -0.1084 -0.2895  0.3975
  869SOL    HW1 2606   2.073   1.493   2.145 -1.7797 -1.1557  1.9259
  869SOL    HW2 2607   2.004   1.348   2.106  0.1446 -1.4683 -0.6101
  870SOL     OW 2608   1.508   1.314   0.893  0.5777  0.4373 -0.3109
  870SOL    HW1 2609   1.545   1.231   0.851 -0.7339  0.5335  1.8969
  870SOL    HW2 2610   1.466   1.365   0.818  0.3686  1.0324 -2.5326
  871SOL     OW 2611   2.183   1.277   1.846 -0.2917 -0.2513 -0.8604
  871SOL    HW1 2612   2.122   1.229   1.782 -1.5690  2.5284 -2.1771
  871SOL    HW2 2613   2.121   1.318   1.917  0.0615 -0.8676 -0.7317
  872SOL     OW 2614   1.516   1.351   2.375  0.2300  0.4103 -0.0380
  872SOL    HW1 2615   1.510   1.379   2.473 -1.5438  2.9927  2.9429
  872SOL    HW2 2616   1.438   1.293   2.345 -1.6420  0.0338  1.5318
  873SOL     OW 2617   1.367   1.563   1.229  0.3198  0.1034 -0.0083
  873SOL    HW1 2618   1.291   1.505   1.189 -0.2840  3.1760 -1.8756
  873SOL    HW2 2619   1.455   1.526   1.191  2.7841 -2.0952  0.1005
  874SOL     OW 2620   1.568   1.493   1.069 -0.5024  0.3199 -0.3730
  874SOL    HW1 2621   1.639   1.565   1.042  0.7295  1.9526  0.6906
  874SOL    HW2 2622   1.544   1.417   0.999 -0.0643  0.1164  1.2402
  875SOL     OW 2623   2.366   0.446   2.615 -0.3480  0.3155 -0.3744
  875SOL    HW1 2624   2.363   0.547   2.597 -2.6886  1.5078 -1.4695
  875SOL    HW2 2625   2.450   0.398   2.580  0.4033 -1.3598 -0.6379
  876SOL     OW 2626   1.128   1.051   0.536 -0.3009  1.0918 -0.6200
  876SOL    HW1 2627   1.151   0.953   0.567 -1.6363 -0.2672  1.1425
  876SOL    HW2 2628   1.205   1.091   0.484  0.7833  0.0216 -0.5585
  877SOL     OW 2629   1.840   0.162   0.834  0.5440  0.1464 -0.2587
  877SOL    HW1 2630   1.910   0.147   0.759 -1.6098  2.1695 -0.6478
  877SOL    HW2 2631   1.840   0.092   0.909 -0.5481 -1.0555 -2.3244
  878SOL     OW 2632   2.802   1.980   0.407  0.2859 -0.0532  0.3745
  878SOL    HW1 2633   2.862   1.986   0.492  1.1998 -1.0641 -1.1461
  878SOL    HW2 2634   2.735   2.052   0.386  0.0920 -0.3285 -1.2661
  879SOL     OW 2635   2.821   2.230   1.815 -0.0860  0.0730  0.4072
  879SOL    HW1 2636   2.888   2.216   1.889 -1.3828 -0.6952  0.0769
  879SOL    HW2 2637   2.766   2.147   1.800 -0.4548  1.3450  0.5461
  880SOL     OW 2638   0.619   1.375   0.962  1.2301  0.0544  0.5418
  880SOL    HW1 2639   0.668   1.412   0.882  1.2640 -2.5740 -0.5588
  880SOL    HW2 2640   0.523   1.408   0.956 -1.9535  3.2750  0.0802
  881SOL     OW 2641   1.508   0.433   2.645 -0.3633  0.1128 -0.8076
  881SOL    HW1 2642   1.438   0.383   2.701  0.4386  1.5044 -3.1219
  881SOL    HW2 2643   1.508   0.408   2.552  2.3813 -2.8748  1.8793
  882SOL     OW 2644   2.663   0.709   0.483  0.4590  0.6425  0.2113
  882SOL    HW1 2645   2.639   0.803   0.454  0.2061 -2.8163  1.5589
  882SOL    HW2 2646   2.760   0.697   0.511 -2.1061  0.3652 -0.3721
  883SOL     OW 2647   1.644   0.803   2.458 -0.2418 -0.1437  0.1863
  883SOL    HW1 2648   1.581   0.784   2.536  0.1839 -1.0380 -2.1893
  883SOL    HW2 2649   1.636   0.903   2.434 -0.0636 -2.7853 -0.0645
  884SOL     OW 2650   0.433   2.977   1.958  0.4978  0.2986 -0.0626
  884SOL    HW1 2651   0.337   2.957   1.927  0.6243  1.0480 -4.4242
  884SOL    HW2 2652   0.501   2.925   1.905  2.0251  1.8577  1.5763
  885SOL     OW 2653   1.939   0.734   2.201 -0.0008  0.1244  0.4605
  885SOL    HW1 2654   2.004   0.668   2.160 -1.4154  1.8931 -2.9416
  885SOL    HW2 2655   1.855   0.745   2.147  1.5320  1.3673 -0.0685
  886SOL     OW 2656   1.703   0.029   2.807 -0.8184  0.0425  0.0284
  886SOL    HW1 2657   1.756   0.055   2.723 -1.8797 -1.7422  0.3123
  886SOL    HW2 2658   1.747   0.068   2.893  0.1926  1.0226  1.0261
  887SOL     OW 2659   1.111   0.244   1.566 -0.1414  0.1891  0.1903
  887SOL    HW1 2660   1.207   0.280   1.546  1.0622  0.7698 -1.0698
  887SOL    HW2 2661   1.106   0.145   1.539  1.8405 -0.0868 -1.0312
  888SOL     OW 2662   2.393   0.572   1.696  0.5446 -0.7916  0.1198
  888SOL    HW1 2663   2.484   0.599   1.737 -3.5135 -2.7454 -1.0079
  888SOL    HW2 2664   2.393   0.598   1.601 -1.0701 -3.2387  3.3246
  889SOL     OW 2665   1.402   0.295   0.634  0.1011  0.4972 -0.7461
  889SOL    HW1 2666   1.462   0.376   0.616  0.1420 -2.1816 -3.2052
  889SOL    HW2 2667   1.396   0.289   0.739 -0.9606 -0.2963  0.2751
  890SOL     OW 2668   1.203   2.693   0.902 -0.1184 -0.5642 -0.1750
  890SOL    HW1 2669   1.286   2.752   0.905 -1.5138  0.2308  1.8937
  890SOL    HW2 2670   1.126   2.737   0.856  2.0138 -0.2912  0.6683
  891SOL     OW 2671   3.054   1.282   0.046  0.1067  0.3132  0.2076
  891SOL    HW1 2672   3.100   1.277   3.062  2.0113  2.4572  2.5493
  891SOL    HW2 2673   3.077   1.199   0.096  2.7974  2.8496 -1.2887
  892SOL     OW 2674   1.945   1.453   2.408  0.0115 -0.5673  0.9676
  892SOL    HW1 2675   2.004   1.536   2.383  2.4076  0.5014  0.7439
  892SOL    HW2 2676   1.855   1.454   2.356  0.8169  0.8032  0.9459
  893SOL     OW 2677   2.388   2.670   1.268 -0.2584  0.6053 -0.2788
  893SOL    HW1 2678   2.325   2.667   1.189  1.9772  1.1303  0.0075
  893SOL    HW2 2679   2.486   2.666   1.238 -0.1435 -0.9340  1.5556
  894SOL     OW 2680   0.239   0.755   1.037 -0.0659  0.1958 -0.2574
  894SOL    HW1 2681   0.189   0.666   1.012 -0.3948 -0.6097 -0.6046
  894SOL    HW2 2682   0.229   0.824   0.966 -0.9562  0.5559  1.0698
  895SOL     OW 2683   3.010   2.110   2.476  0.1755 -0.4577  0.1184
  895SOL    HW1 2684   2.966   2.132   2.388  1.2208 -0.1328  0.7386
  895SOL    HW2 2685   3.072   2.027   2.472  1.2905  0.1484  0.3732
  896SOL     OW 2686   1.434   3.104   2.543  0.3460  0.1122  0.4261
  896SOL    HW1 2687   1.391   0.025   2.629 -1.1383 -0.7738  0.5148
  896SOL    HW2 2688   1.363   0.009   2.470 -1.5247 -0.2286  2.5114
  897SOL     OW 2689   0.349   2.085   1.649  0.0538 -0.3006  0.4411
  897SOL    HW1 2690   0.275   2.084   1.580  1.2981  0.0753  4.7681
  897SOL    HW2 2691   0.446   2.074   1.617  2.5900 -0.2958  2.8653
  898SOL     OW 2692   0.805   2.285   1.717 -0.1745 -0.3657  0.0089
  898SOL    HW1 2693   0.757   2.225   1.645  0.4719 -2.8830 -0.1609
  898SOL    HW2 2694   0.806   2.384   1.702  0.8365 -0.2364 -1.8800
  899SOL     OW 2695   1.886   3.080   1.848  0.3038  0.3914 -0.3159
  899SOL    HW1 2696   1.788   3.102   1.868 -2.7754 -2.0160 -0.0650
  899SOL    HW2 2697   1.903   3.084   1.748  1.2289  1.6817 -1.7017
  900SOL     OW 2698   1.599   1.155   0.493  0.1169  0.1606 -0.4974
  900SOL    HW1 2699   1.643   1.248   0.497 -0.3563  1.3025 -0.7449
  900SOL    HW2 2700   1.580   1.119   0.587 -0.4963 -1.8951  2.9102
  901SOL     OW 2701   1.323   1.014   2.432  0.2674 -0.3832  0.2827
  901SOL    HW1 2702   1.277   1.019   2.521  1.7285 -1.9582 -0.9296
  901SOL    HW2 2703   1.330   0.917   2.401 -0.2391  2.0372  0.5893
  902SOL     OW 2704   0.087   2.014   0.871 -0.1682 -0.9271 -0.0068
  902SOL    HW1 2705   0.104   1.920   0.840 -1.2880  1.4838 -0.9535
  902SOL    HW2 2706   0.119   2.023   0.967 -1.4013  0.8411 -1.5617
  903SOL     OW 2707   2.538   1.103   2.125 -0.4929 -0.5645 -0.2230
  903SOL    HW1 2708   2.564   1.176   2.191 -0.1741  0.4066 -0.5934
  903SOL    HW2 2709   2.545   1.011   2.168 -0.1327  1.8984 -1.8342
  904SOL     OW 2710   1.289   2.075   0.003 -0.8270  0.3996 -0.0662
  904SOL    HW1 2711   1.226   2.136   3.064  3.3774  0.0545  1.1387
  904SOL    HW2 2712   1.246   2.014   0.070  4.5872 -0.1965 -2.4232
  905SOL     OW 2713   2.082   0.081   2.003 -0.3235  0.3453  0.0614
  905SOL    HW1 2714   2.005   0.024   1.962  0.4935  1.4593  0.0891
  905SOL    HW2 2715   2.071   0.173   1.967 -0.6779 -2.4876  2.8972
  906SOL     OW 2716   0.779   2.552   3.093 -0.1224 -0.1938  0.7970
  906SOL    HW1 2717   0.733   2.462   3.095  0.2274  0.2860  3.6363
  906SOL    HW2 2718   0.875   2.540   3.053  1.9399 -1.5218 -1.7106
  907SOL     OW 2719   0.258   2.706   0.800  0.0908 -0.6458 -0.3266
  907SOL    HW1 2720   0.350   2.721   0.838 -1.3060  1.0204 -2.7438
  907SOL    HW2 2721   0.248   2.729   0.702 -4.9521  0.6894 -1.8125
  908SOL     OW 2722   1.226   2.749   1.815 -0.0672 -0.0276 -0.1198
  908SOL    HW1 2723   1.136   2.737   1.860 -0.1222  0.2621  1.5619
  908SOL    HW2 2724   1.236   2.843   1.782 -0.5790  0.4597  1.2134
  909SOL     OW 2725   1.738   0.912   1.343  0.0465  0.3439  0.2041
  909SOL    HW1 2726   1.821   0.890   1.284  0.1678  1.3943  1.0386
  909SOL    HW2 2727   1.747   1.009   1.364  0.5200  0.2617 -0.6055
  910SOL     OW 2728   0.840   0.279   0.096 -0.7874 -0.0460  0.2474
  910SOL    HW1 2729   0.763   0.315   0.036 -1.9357  0.3186 -2.1434
  910SOL    HW2 2730   0.917   0.245   0.041 -3.5982  2.0553  1.8857
  911SOL     OW 2731   0.353   0.169   0.055 -0.7291 -0.5966  0.2745
  911SOL    HW1 2732   0.310   0.075   0.053 -0.4420 -0.2624 -0.6881
  911SOL    HW2 2733   0.277   0.236   0.046 -1.2647  0.0564  1.0308
  912SOL     OW 2734   0.240   1.890   2.730  0.2254 -0.4263  0.4222
  912SOL    HW1 2735   0.187   1.914   2.648 -0.4907  0.5212 -1.0173
  912SOL    HW2 2736   0.174   1.876   2.807 -1.8384  2.2774  1.0402
  913SOL     OW 2737   2.429   0.008   0.151 -0.0246 -0.2826  0.4530
  913SOL    HW1 2738   2.364   0.052   0.086 -2.2622  0.0842 -1.5692
  913SOL    HW2 2739   2.455   0.074   0.225 -1.3100 -0.4482  0.1855
  914SOL     OW 2740   1.375   1.606   2.242  0.3041 -0.5623 -0.4548
  914SOL    HW1 2741   1.362   1.672   2.169  3.0220 -3.1132  1.8957
  914SOL    HW2 2742   1.322   1.634   2.325 -0.2630  0.4203 -1.1381
  915SOL     OW 2743   2.669   2.444   1.882 -0.2925  0.5634  0.0765
  915SOL    HW1 2744   2.720   2.532   1.891 -1.1343  1.6905  2.0843
  915SOL    HW2 2745   2.732   2.363   1.866 -2.0404  0.5276 -2.1477
  916SOL     OW 2746   2.983   1.136   2.309  0.4997  0.3633  0.0163
  916SOL    HW1 2747   3.058   1.072   2.280  2.8584 -2.4067 -1.2410
  916SOL    HW2 2748   2.928   1.171   2.231  2.0813  0.8142 -0.8091
  917SOL     OW 2749   1.304   0.384   0.253  0.1659 -0.2851  0.0922
  917SOL    HW1 2750   1.349   0.479   0.271  1.6849 -0.0407 -0.4126
  917SOL    HW2 2751   1.375   0.318   0.219 -0.3005  0.0145  0.6900
  918SOL     OW 2752   1.654   2.857   2.280 -0.3535 -0.1887 -0.0914
  918SOL    HW1 2753   1.720   2.828   2.208  0.0926 -1.5020 -1.4428
  918SOL    HW2 2754   1.684   2.939   2.332 -1.1658  0.3030  0.1175
  919SOL     OW 2755   1.807   2.311   1.945 -0.2366 -0.0378 -0.4642
  919SOL    HW1 2756   1.718   2.282   1.986 -0.0996 -0.4987 -2.2353
  919SOL    HW2 2757   1.888   2.287   2.002  1.7761 -1.0892 -1.1569
  920SOL     OW 2758   0.210   0.922   0.035  0.8218  0.1877 -0.0694
  920SOL    HW1 2759   0.123   0.963   0.069 -1.4116  0.6484 -0.4057
  920SOL    HW2 2760   0.296   0.943   0.088 -1.7816 -0.2654 -1.1221
  921SOL     OW 2761   2.158   0.873   2.475  0.2371  0.2341  0.0211
  921SOL    HW1 2762   2.069   0.823   2.459 -1.2858  0.8437 -0.0888
  921SOL    HW2 2763   2.196   0.898   2.386 -1.0273  1.1223  0.2768
  922SOL     OW 2764   1.152   1.727   2.688 -0.2053 -0.2335  0.4117
  922SOL    HW1 2765   1.111   1.818   2.664 -0.2719 -0.5497  1.9563
  922SOL    HW2 2766   1.107   1.701   2.774  1.9145  1.7440 -1.4561
  923SOL     OW 2767   0.796   1.323   2.238  0.2535 -0.3479  0.3462
  923SOL    HW1 2768   0.693   1.319   2.216 -2.4005  0.7874 -1.0199
  923SOL    HW2 2769   0.821   1.416   2.285  0.2191  0.9793  2.3353
  924SOL     OW 2770   0.248   2.047   3.048 -0.1450 -0.2228  0.2184
  924SOL    HW1 2771   0.327   2.050   2.985 -0.8665 -2.2358  1.8556
  924SOL    HW2 2772   0.193   1.959   3.034  0.8212 -0.5619 -1.9042
  925SOL     OW 2773   1.782   1.664   0.953 -0.1019 -0.5577 -0.5556
  925SOL    HW1 2774   1.770   1.755   1.001  0.5218  0.2840  0.2465
  925SOL    HW2 2775   1.853   1.673   0.877  0.1103  1.7400 -3.2358
  926SOL     OW 2776   1.858   0.129   2.601  0.0009 -0.1579  0.0209
  926SOL    HW1 2777   1.791   0.122   2.527 -1.2763  1.6433  1.6786
  926SOL    HW2 2778   1.853   0.226   2.634  2.1131 -0.1213 -0.9418
  927SOL     OW 2779   2.549   2.786   1.648  0.6087 -0.0483  0.1514
  927SOL    HW1 2780   2.621   2.852   1.677  1.9422 -0.2084  1.1043
  927SOL    HW2 2781   2.486   2.764   1.728  1.6172 -1.4209 -1.5124
  928SOL     OW 2782   0.561   0.893   2.786  0.0411  0.3406 -0.2652
  928SOL    HW1 2783   0.523   0.891   2.691  0.6059  1.8327 -3.8444
  928SOL    HW2 2784   0.661   0.891   2.777 -1.8512 -1.4974 -1.5677
  929SOL     OW 2785   0.078   0.216   0.949 -0.2661 -0.3389  0.2535
  929SOL    HW1 2786   0.041   0.173   0.865 -0.8080 -1.9705 -2.7394
  929SOL    HW2 2787   0.077   0.320   0.939 -0.5324  2.0840 -0.6704
  930SOL     OW 2788   2.670   0.019   1.920 -0.4691  0.4485 -0.0661
  930SOL    HW1 2789   2.582   0.013   1.969  2.9198  2.2100  0.0370
  930SOL    HW2 2790   2.672   0.104   1.873 -2.1067 -2.8640  0.4132
  931SOL     OW 2791   2.306   1.206   3.019  0.3370 -0.5514 -0.2013
  931SOL    HW1 2792   2.396   1.242   3.062  1.3583  1.6504 -0.2407
  931SOL    HW2 2793   2.249   1.155   3.087  0.8144 -0.3828  1.8702
  932SOL     OW 2794   2.680   1.167   0.819 -0.2474  0.3694  0.0942
  932SOL    HW1 2795   2.670   1.222   0.903 -0.8964  0.9063  2.9186
  932SOL    HW2 2796   2.691   1.228   0.736  0.0014 -1.0046 -1.1085
  933SOL     OW 2797   2.928   2.420   1.621  0.5029 -0.0266 -0.6584
  933SOL    HW1 2798   2.857   2.365   1.667  0.8137  2.0918 -1.2638
  933SOL    HW2 2799   2.898   2.518   1.628 -0.0062 -2.4549 -0.0861
  934SOL     OW 2800   0.824   3.036   0.960  0.1283 -0.0913 -1.1312
  934SOL    HW1 2801   0.825   2.982   1.050 -2.2854 -2.2219 -2.7965
  934SOL    HW2 2802   0.739   3.095   0.946 -1.8045 -0.1579 -0.5933
  935SOL     OW 2803   2.766   0.365   2.153 -0.2953  0.2487  0.5799
  935SOL    HW1 2804   2.815   0.420   2.221  2.4882 -0.5247 -0.0315
  935SOL    HW2 2805   2.792   0.269   2.157  0.9938  1.1126  0.8266
  936SOL     OW 2806   3.103   0.562   1.636  0.3518 -0.4754 -0.1599
  936SOL    HW1 2807   3.069   0.625   1.707 -0.5359 -1.9720 -0.7475
  936SOL    HW2 2808   0.042   0.486   1.684 -0.9561 -1.8081 -1.4038
  937SOL     OW 2809   1.882   1.494   1.828  0.4064 -0.5963  0.3671
  937SOL    HW1 2810   1.909   1.425   1.756  0.7996 -0.4585  0.2943
  937SOL    HW2 2811   1.931   1.470   1.914 -1.7336 -1.4567  3.9754
  938SOL     OW 2812   0.695   2.292   0.034  0.3600  0.0336  0.2348
  938SOL    HW1 2813   0.615   2.234   0.037 -0.0076  2.6768 -0.3010
  938SOL    HW2 2814   0.762   2.274   0.108 -2.0907  0.3616 -2.0647
  939SOL     OW 2815   1.756   0.384   2.956 -0.4682  0.3193 -0.3248
  939SOL    HW1 2816   1.714   0.392   2.859  0.3142  0.3217 -2.0802
  939SOL    HW2 2817   1.770   0.288   2.983 -1.4338  0.5130 -0.9315
  940SOL     OW 2818   1.554   2.792   1.017 -0.4943 -0.1577  0.0354
  940SOL    HW1 2819   1.538   2.697   1.045  4.6922 -2.3728  1.8465
  940SOL    HW2 2820   1.610   2.806   0.931  3.1389 -0.9884 -1.6703
  941SOL     OW 2821   1.408   1.950   1.832 -0.2477 -0.1554 -0.2615
  941SOL    HW1 2822   1.502   1.977   1.794  1.8831  0.2221  0.2847
  941SOL    HW2 2823   1.348   2.035   1.840 -3.2948  1.7700  0.2812
  942SOL     OW 2824   2.874   2.067   2.965 -0.6110 -0.1184 -0.2289
  942SOL    HW1 2825   2.909   1.984   3.016  1.2958 -0.7055  2.4112
  942SOL    HW2 2826   2.859   2.047   2.867  2.6740  0.9326  0.5973
  943SOL     OW 2827   2.758   2.922   1.758  0.1512  0.0355  0.2556
  943SOL    HW1 2828   2.722   2.986   1.828 -2.3418 -2.6081  1.1980
  943SOL    HW2 2829   2.838   2.877   1.793 -1.9383 -0.2383 -0.9790
  944SOL     OW 2830   1.739   2.171   3.001 -0.6475 -0.7692  0.3416
  944SOL    HW1 2831   1.692   2.095   2.954  0.9447  1.4459  2.3636
  944SOL    HW2 2832   1.824   2.195   2.944  2.8131  1.3232 -2.5583
  945SOL     OW 2833   3.055   2.156   1.263  0.0472 -0.1325 -0.3008
  945SOL    HW1 2834   2.958   2.148   1.309 -2.6722 -0.7160  2.1392
  945SOL    HW2 2835   3.092   2.243   1.305  0.2749  3.0980  0.6947
  946SOL     OW 2836   1.476   1.174   3.099 -0.3140  0.5703 -0.2223
  946SOL    HW1 2837   1.576   1.139   3.094  2.6178 -2.2130 -2.7699
  946SOL    HW2 2838   1.417   1.094   3.086  1.8652  2.9836 -0.7744
  947SOL     OW 2839   0.056   0.970   2.169  0.0362 -0.3965 -0.3103
  947SOL    HW1 2840   0.129   1.033   2.139 -1.0664  2.1130 -0.0146
  947SOL    HW2 2841   0.099   0.890   2.216 -0.0178  0.0001 -1.2732
  948SOL     OW 2842   0.265   1.095   0.363  0.0898  0.3628  0.2163
  948SOL    HW1 2843   0.229   1.132   0.454  2.1344 -2.0751  2.4727
  948SOL    HW2 2844   0.366   1.078   0.372 -0.4355 -0.9746  1.3767
  949SOL     OW 2845   0.618   0.275   2.687  0.5870 -0.2357  0.2382
  949SOL    HW1 2846   0.592   0.375   2.695 -2.3325  0.9625  2.5611
  949SOL    HW2 2847   0.717   0.271   2.658 -3.0311 -0.1331 -1.2903
  950SOL     OW 2848   0.028   0.520   1.237 -0.4688 -0.3340  0.2268
  950SOL    HW1 2849   0.030   0.422   1.265  0.1392  1.7809  1.6456
  950SOL    HW2 2850   0.064   0.576   1.310  0.8988 -1.2087 -0.9644
  951SOL     OW 2851   0.247   0.957   2.626  0.2407  0.7311  0.0554
  951SOL    HW1 2852   0.143   0.931   2.608 -2.0003  1.6484  0.8219
  951SOL    HW2 2853   0.258   0.973   2.725 -1.0706 -3.0023 -1.1096
  952SOL     OW 2854   2.061   2.242   1.606 -0.1761  0.1153 -0.3528
  952SOL    HW1 2855   2.043   2.181   1.529  1.1257  2.7883  3.4384
  952SOL    HW2 2856   2.159   2.248   1.625 -3.3032 -0.7806 -0.4299
  953SOL     OW 2857   0.205   2.542   3.009 -0.0064  0.2919 -0.4966
  953SOL    HW1 2858   0.282   2.591   3.060 -1.0578  2.0797  1.5626
  953SOL    HW2 2859   0.193   2.442   3.036 -1.5320 -0.5949 -0.2609
  954SOL     OW 2860   2.383   0.779   1.024 -0.2013  0.5939  0.1840
  954SOL    HW1 2861   2.476   0.735   1.032  0.0338 -3.3132  2.6380
  954SOL    HW2 2862   2.385   0.863   0.969  0.8314 -0.1821  3.1105
  955SOL     OW 2863   1.332   1.312   0.193 -0.0640  0.2729 -0.0370
  955SOL    HW1 2864   1.409   1.276   0.135 -0.0775 -0.3471 -1.7535
  955SOL    HW2 2865   1.246   1.305   0.137  0.5054 -0.5089 -1.6546
  956SOL     OW 2866   0.878   0.643   2.383 -0.0345 -0.0412 -0.2723
  956SOL    HW1 2867   0.884   0.741   2.353  1.2037 -3.4844  3.6578
  956SOL    HW2 2868   0.940   0.632   2.463 -0.1697  1.4877  0.9107
  957SOL     OW 2869   0.633   0.359   2.270 -0.2142  0.4818 -0.4418
  957SOL    HW1 2870   0.602   0.290   2.340  0.6636 -1.6491  2.6227
  957SOL    HW2 2871   0.560   0.428   2.258  2.8595  1.7828 -0.1839
  958SOL     OW 2872   0.825   2.163   0.762 -0.1421 -0.3114  0.2274
  958SOL    HW1 2873   0.880   2.112   0.832 -1.3033  0.0812  1.8349
  958SOL    HW2 2874   0.753   2.220   0.814 -1.2447  0.5011  0.9623
  959SOL     OW 2875   2.663   0.771   2.052  0.2035  0.6809 -0.4407
  959SOL    HW1 2876   2.573   0.737   2.016  1.9603 -0.2959 -1.7395
  959SOL    HW2 2877   2.667   0.794   2.151  0.9376 -1.0591  1.4861
  960SOL     OW 2878   0.165   1.288   2.615  0.0371 -0.1491 -0.1067
  960SOL    HW1 2879   0.118   1.315   2.532 -1.6072 -2.5383  2.0539
  960SOL    HW2 2880   0.106   1.216   2.656  0.2266  0.9985  0.5428
  961SOL     OW 2881   0.603   1.652   0.578 -0.5688  0.3380 -0.4267
  961SOL    HW1 2882   0.671   1.714   0.536  0.8642 -0.5503 -1.2537
  961SOL    HW2 2883   0.628   1.622   0.670  0.0690  3.2395  2.3222
  962SOL     OW 2884   0.332   1.411   0.964 -0.5695  0.0505 -0.0080
  962SOL    HW1 2885   0.307   1.353   1.045 -0.8549  1.0823  1.6069
  962SOL    HW2 2886   0.348   1.504   1.004 -0.2467 -0.0477 -1.4921
  963SOL     OW 2887   1.301   2.482   3.058  0.1282 -0.2407 -0.1790
  963SOL    HW1 2888   1.356   2.431   2.983  1.3386 -0.5088 -3.0239
  963SOL    HW2 2889   1.200   2.468   3.051  0.6169 -0.0257  1.4374
  964SOL     OW 2890   0.314   2.732   2.619  0.0300  0.4349  0.0827
  964SOL    HW1 2891   0.414   2.718   2.623 -1.4986 -0.8976 -2.0837
  964SOL    HW2 2892   0.260   2.654   2.661 -1.1162  0.4718  0.8425
  965SOL     OW 2893   2.627   1.777   2.896 -0.3126 -0.7271 -0.5006
  965SOL    HW1 2894   2.599   1.688   2.859  0.5071 -3.2868  1.9173
  965SOL    HW2 2895   2.557   1.815   2.962 -0.3437  1.4759 -0.1193
  966SOL     OW 2896   2.613   1.257   2.638 -0.1593 -0.4199 -0.0587
  966SOL    HW1 2897   2.596   1.245   2.538 -1.9317 -2.5159 -2.8434
  966SOL    HW2 2898   2.535   1.211   2.690 -0.1956 -2.6229 -1.5905
  967SOL     OW 2899   1.607   0.486   0.568  0.1197  0.1215 -0.1872
  967SOL    HW1 2900   1.689   0.470   0.622 -0.6767  0.1999  0.5765
  967SOL    HW2 2901   1.544   0.557   0.613 -0.8015  1.5528 -1.9223
  968SOL     OW 2902   2.635   2.963   0.559  0.1149 -0.5198  0.0637
  968SOL    HW1 2903   2.648   2.949   0.662 -1.4981 -0.7612  1.0339
  968SOL    HW2 2904   2.614   3.062   0.541 -1.4075  0.3179 -0.0057
  969SOL     OW 2905   0.411   0.912   2.119  0.2932  0.4695  0.0644
  969SOL    HW1 2906   0.350   0.856   2.172 -0.5930  0.9002 -2.7066
  969SOL    HW2 2907   0.371   1.002   2.100  0.7752 -0.3295  0.0012
  970SOL     OW 2908   2.088   1.760   2.785  0.2116  0.0050  0.2614
  970SOL    HW1 2909   2.131   1.848   2.765  1.1108  0.1150 -1.8376
  970SOL    HW2 2910   2.154   1.681   2.788  2.4680  1.9062 -2.4376
  971SOL     OW 2911   2.957   0.015   1.950  0.4073 -0.0243 -0.2861
  971SOL    HW1 2912   2.971   0.076   1.869 -0.5260  1.8290 -0.5568
  971SOL    HW2 2913   2.857   3.104   1.957  1.1947  0.3894 -2.2574
  972SOL     OW 2914   0.051   0.581   0.627 -0.0516  0.6413  0.0833
  972SOL    HW1 2915   0.086   0.488   0.651 -1.2628  1.5851 -0.4661
  972SOL    HW2 2916   0.116   0.656   0.645 -0.7282 -1.3118 -2.0446
  973SOL     OW 2917   2.887   3.089   2.359  0.0637  0.0998 -0.3366
  973SOL    HW1 2918   2.880   2.997   2.322  1.5990  0.0649  1.1575
  973SOL    HW2 2919   2.899   0.045   2.284 -0.4235  0.2086  3.5694
  974SOL     OW 2920   2.861   0.845   1.412  0.5595 -0.1929 -0.1659
  974SOL    HW1 2921   2.819   0.872   1.323 -0.0405  2.9121 -1.3820
  974SOL    HW2 2922   2.948   0.811   1.387 -4.3685 -0.4130 -0.0167
  975SOL     OW 2923   1.492   2.832   2.500  0.1385 -0.3638 -0.0955
  975SOL    HW1 2924   1.496   2.937   2.515  0.4309  3.9888  0.7745
  975SOL    HW2 2925   1.544   2.806   2.415 -0.4017 -0.5240 -1.8506
  976SOL     OW 2926   2.001   1.376   1.608  0.6158 -0.3600 -0.0484
  976SOL    HW1 2927   1.999   1.297   1.546  2.0139  3.5105 -0.3673
  976SOL    HW2 2928   1.941   1.443   1.568  3.9380 -1.9698 -0.4480
  977SOL     OW 2929   2.784   2.811   0.243 -0.1344  0.5094 -0.5239
  977SOL    HW1 2930   2.777   2.715   0.213  1.2606  1.2339  1.0189
  977SOL    HW2 2931   2.775   2.820   0.343  1.5703  0.0641  1.8232
  978SOL     OW 2932   2.030   0.999   2.227 -0.6318 -0.1714 -0.2209
  978SOL    HW1 2933   2.128   0.991   2.207 -1.7518  1.0565  0.0593
  978SOL    HW2 2934   1.990   0.905   2.241 -1.4920  2.3220 -2.6028
  979SOL     OW 2935   0.770   1.081   2.383  0.3127  0.3922 -0.2235
  979SOL    HW1 2936   0.815   1.156   2.346  1.5273 -3.6384  5.4912
  979SOL    HW2 2937   0.728   1.116   2.471 -1.0605  2.2395  2.9695
  980SOL     OW 2938   1.658   1.954   2.868  0.2435  1.0861 -0.4210
  980SOL    HW1 2939   1.570   1.911   2.842  1.4993  0.7150 -0.8588
  980SOL    HW2 2940   1.729   1.926   2.796  3.1151 -0.0230 -2.2695
  981SOL     OW 2941   1.048   0.743   1.810 -0.0184 -0.3200  0.4834
  981SOL    HW1 2942   1.085   0.744   1.716  1.9848 -0.5225 -1.1293
  981SOL    HW2 2943   0.992   0.657   1.815  0.3329 -1.2979 -1.1482
  982SOL     OW 2944   1.020   0.155   3.070  0.1975  0.4092  0.4627
  982SOL    HW1 2945   1.036   0.190   2.974 -0.2761  0.6074 -1.2826
  982SOL    HW2 2946   1.006   0.054   3.072 -2.4559 -0.3401  0.6256
  983SOL     OW 2947   2.348   0.953   0.143  0.4970 -0.4394 -0.1059
  983SOL    HW1 2948   2.419   0.978   0.072  0.8651 -0.9647 -2.3950
  983SOL    HW2 2949   2.349   1.022   0.220 -1.1490  1.9692  0.7574
  984SOL     OW 2950   1.347   0.366   3.049  0.0087  0.3954 -0.4669
  984SOL    HW1 2951   1.409   0.396   0.011  0.0805  0.8779 -0.4254
  984SOL    HW2 2952   1.317   0.272   3.082 -1.6263  0.2431  0.9940
  985SOL     OW 2953   1.444   2.749   2.162 -0.1342  0.4183 -0.3725
  985SOL    HW1 2954   1.520   2.788   2.218  0.8711 -2.7945  0.3080
  985SOL    HW2 2955   1.465   2.715   2.068 -1.4696  0.5099  0.3675
  986SOL     OW 2956   2.442   3.108   2.034  0.4679  0.4402 -0.0040
  986SOL    HW1 2957   2.414   0.089   2.072 -0.2695  4.7494 -0.5836
  986SOL    HW2 2958   2.390   3.081   1.949  0.4922  1.6229  1.8970
  987SOL     OW 2959   2.264   1.320   1.055  0.2845  0.5094  0.3044
  987SOL    HW1 2960   2.281   1.345   0.959 -1.0289 -0.6673  1.0572
  987SOL    HW2 2961   2.163   1.304   1.072 -1.9400 -2.2541  1.5680
  988SOL     OW 2962   2.486   1.021   1.639  0.1660  0.5631 -0.3405
  988SOL    HW1 2963   2.563   0.951   1.642  0.4095  3.6044 -0.4126
  988SOL    HW2 2964   2.474   1.073   1.729  0.7201  2.0582 -2.1414
  989SOL     OW 2965   2.132   2.260   0.102 -0.5758  0.1091  0.2421
  989SOL    HW1 2966   2.033   2.248   0.121  1.3332 -1.5380 -0.7697
  989SOL    HW2 2967   2.181   2.185   0.150  1.1697  1.6970 -2.2511
  990SOL     OW 2968   1.270   0.622   2.166 -0.0790 -0.7944  0.2187
  990SOL    HW1 2969   1.285   0.657   2.264  0.8034  1.6979  4.7247
  990SOL    HW2 2970   1.347   0.556   2.140  0.7111  1.1386  0.5563
  991SOL     OW 2971   1.351   1.156   0.404 -0.4538 -0.0052 -0.5580
  991SOL    HW1 2972   1.448   1.181   0.434  0.9909  0.1504  0.2904
  991SOL    HW2 2973   1.329   1.213   0.318 -0.0294  1.2275 -0.6733
  992SOL     OW 2974   0.214   0.971   1.559 -0.5752 -0.2443  0.5349
  992SOL    HW1 2975   0.295   0.999   1.505  0.4551  2.1931  1.1241
  992SOL    HW2 2976   0.173   0.897   1.502  0.0895  0.2210  0.0270
  993SOL     OW 2977   2.593   0.148   2.315 -0.4381 -0.3354  0.0921
  993SOL    HW1 2978   2.541   0.155   2.230 -1.1820 -0.1757  1.5299
  993SOL    HW2 2979   2.685   0.103   2.309 -0.3729 -0.5422 -0.1063
  994SOL     OW 2980   1.650   1.989   1.685 -0.0186 -0.2342 -0.4445
  994SOL    HW1 2981   1.665   1.904   1.635 -0.9651 -0.0462  1.9682
  994SOL    HW2 2982   1.733   2.034   1.724 -1.0217 -0.5341 -1.4305
  995SOL     OW 2983   2.431   1.949   3.029 -0.3118 -0.4357 -0.2613
  995SOL    HW1 2984   2.485   1.966   0.008  2.3239 -0.0219  2.7419
  995SOL    HW2 2985   2.330   1.936   3.035  1.1813  0.0052  2.0141
  996SOL     OW 2986   2.200   1.631   3.087 -0.0399  0.0305 -0.2780
  996SOL    HW1 2987   2.106   1.595   3.104 -1.0848 -2.8190  1.9410
  996SOL    HW2 2988   2.214   1.625   2.988 -0.3045 -0.9607 -3.1031
  997SOL     OW 2989   1.642   0.608   2.301 -0.3248  0.5867 -0.1598
  997SOL    HW1 2990   1.636   0.630   2.198  1.4663 -2.3214 -1.1168
  997SOL    HW2 2991   1.650   0.691   2.361 -0.8634  0.0160  1.1870
  998SOL     OW 2992   2.716   0.473   0.758 -0.3086 -0.1000  0.6327
  998SOL    HW1 2993   2.744   0.393   0.702 -0.4636  0.0559 -1.5764
  998SOL    HW2 2994   2.687   0.447   0.852 -0.5061 -0.9312 -1.0980
  999SOL     OW 2995   2.753   1.341   0.607  0.2833 -0.0818  0.2144
  999SOL    HW1 2996   2.792   1.434   0.620 -1.7609  1.2833 -0.4470
  999SOL    HW2 2997   2.823   1.280   0.564 -0.1537  0.6595 -1.0381
 1000SOL     OW 2998   0.533   1.631   2.092  0.4379 -0.2013 -0.8182
 1000SOL    HW1 2999   0.587   1.561   2.042 -2.2405 -2.8483 -1.7831
 1000SOL    HW2 3000   0.443   1.583   2.119 -1.4891 -1.2933  1.5989
   3.11024   3.11024   3.11024
