1000 SPC/Fw water molecules t= 414.00000 step= 414000
 3000
    1SOL     OW    1   0.159   3.062   1.423 -0.1123 -0.4607 -0.8041
    1SOL    HW1    2   0.104   0.038   1.484  0.2197  1.1490  0.5923
    1SOL    HW2    3   0.135   2.963   1.438  0.1774 -1.5797  0.4752
    2SOL     OW    4   2.691   2.936   0.235  0.0044  0.3145  0.0362
    2SOL    HW1    5   2.618   2.869   0.227  0.5415  0.5540 -0.1939
    2SOL    HW2    6   2.715   2.980   0.142  1.3645 -0.9812 -1.2009
    3SOL     OW    7   1.515   2.484   2.983 -0.1066  0.1992 -0.4267
    3SOL    HW1    8   1.558   2.546   2.918 -1.9049 -0.3144  2.3341
    3SOL    HW2    9   1.437   2.532   3.026 -2.1722 -2.7685  0.9535
    4SOL     OW   10   0.913   0.016   2.195  0.0381 -0.3618  0.1194
    4SOL    HW1   11   0.873   0.058   2.270  2.5981 -1.3867  1.5317
    4SOL    HW2   12   0.937   3.005   2.213  0.5816  0.4995  1.1874
    5SOL     OW   13   2.373   0.120   1.789  0.4109  0.7729 -0.3471
    5SOL    HW1   14   2.437   0.196   1.776 -0.8365 -1.0361  0.3376
    5SOL    HW2   15   2.348   0.109   1.889 -0.6561 -0.1864 -0.7938
    6SOL     OW   16   2.498   1.762   1.238 -0.5716  0.5262  0.7464
    6SOL    HW1   17   2.540   1.760   1.143 -1.1988 -0.1151  1.1040
    6SOL    HW2   18   2.393   1.770   1.239 -1.3741  0.0941  2.6621
    7SOL     OW   19   2.198   1.184   0.936  0.1728 -0.2852  0.3511
    7SOL    HW1   20   2.173   1.235   1.019  1.8331 -0.7099 -0.8123
    7SOL    HW2   21   2.272   1.227   0.882  2.2761 -0.8266 -3.2421
    8SOL     OW   22   0.652   1.586   1.066  0.0539 -0.1475  0.4096
    8SOL    HW1   23   0.716   1.661   1.093  1.6203 -1.4134 -2.4816
    8SOL    HW2   24   0.607   1.544   1.148  0.7622  4.4860  2.4223
    9SOL     OW   25   0.083   2.788   1.416 -0.4159 -1.0478 -0.0352
    9SOL    HW1   26   3.075   2.748   1.413 -1.1912 -0.4844 -1.5865
    9SOL    HW2   27   0.139   2.736   1.352  1.0815  1.5318 -1.4651
   10SOL     OW   28   1.206   2.493   0.597  0.2338 -0.2438  0.6256
   10SOL    HW1   29   1.291   2.544   0.630  0.6618  0.7363  0.9915
   10SOL    HW2   30   1.149   2.540   0.533 -0.1542 -4.8462  0.0401
   11SOL     OW   31   1.570   2.082   1.140  0.8302  0.6712 -0.1231
   11SOL    HW1   32   1.597   1.988   1.113  2.2835  2.2626 -2.7171
   11SOL    HW2   33   1.647   2.132   1.179  1.3071 -0.9656 -2.1955
   12SOL     OW   34   2.860   0.702   2.329  0.2687  0.7293  0.0539
   12SOL    HW1   35   2.929   0.763   2.285 -0.7131 -3.7064  0.4440
   12SOL    HW2   36   2.849   0.606   2.292  2.2853  1.2069 -0.0079
   13SOL     OW   37   2.464   2.782   0.159  0.3180  0.2505 -0.1065
   13SOL    HW1   38   2.481   2.809   0.060 -1.5369 -0.6088 -0.0076
   13SOL    HW2   39   2.482   2.682   0.174 -1.0527 -0.0280  0.3458
   14SOL     OW   40   1.468   1.586   3.037 -0.0666  0.2280  0.3876
   14SOL    HW1   41   1.388   1.643   3.060  0.5830  0.3184 -0.2627
   14SOL    HW2   42   1.533   1.584   0.028 -1.6063 -0.2378 -1.4176
   15SOL     OW   43   2.812   2.578   1.817  0.2678  0.0156  0.1294
   15SOL    HW1   44   2.833   2.505   1.750 -0.1302  0.9850 -0.9944
   15SOL    HW2   45   2.879   2.650   1.827 -2.8827 -0.5000 -1.2505
   16SOL     OW   46   2.925   0.243   0.868 -0.1832  0.1609 -0.1243
   16SOL    HW1   47   2.922   0.344   0.868  1.7515 -0.3177 -0.9640
   16SOL    HW2   48   2.913   0.209   0.769 -1.5946 -1.2577 -3.5416
   17SOL     OW   49   1.357   0.251   0.688  0.0133  0.4944  0.2440
   17SOL    HW1   50   1.255   0.259   0.679 -2.0133 -0.1190  0.2799
   17SOL    HW2   51   1.384   0.259   0.789 -1.6649  0.3254 -0.4270
   18SOL     OW   52   1.437   0.237   0.939  0.3620  0.5916 -0.1322
   18SOL    HW1   53   1.534   0.227   0.971 -1.5374 -0.0553 -0.1741
   18SOL    HW2   54   1.368   0.257   1.014 -0.5537  0.4512  3.0419
   19SOL     OW   55   2.262   1.071   0.585  0.0702 -0.3522 -0.2944
   19SOL    HW1   56   2.323   1.135   0.635  0.0237 -2.3587  0.0688
   19SOL    HW2   57   2.271   1.086   0.483  0.4181  1.1160 -1.5105
   20SOL     OW   58   2.451   1.585   2.733 -0.5924  0.7217 -0.8085
   20SOL    HW1   59   2.497   1.590   2.643 -0.9134 -2.2942  0.3283
   20SOL    HW2   60   2.439   1.675   2.773  0.1120 -1.0416 -0.8945
   21SOL     OW   61   1.331   2.984   0.036  0.2185  0.1412 -0.5197
   21SOL    HW1   62   1.320   3.076   0.084 -0.3351 -0.5171  0.9595
   21SOL    HW2   63   1.260   2.962   3.057 -0.1493 -1.7788 -1.2794
   22SOL     OW   64   2.916   1.082   0.814 -0.0487  0.1022  0.5043
   22SOL    HW1   65   2.905   1.058   0.908 -0.6255  1.0106 -2.6653
   22SOL    HW2   66   2.865   1.024   0.749  1.9433 -0.0679  0.8039
   23SOL     OW   67   0.576   0.045   1.830  0.3333 -0.2816  0.1293
   23SOL    HW1   68   0.669   0.007   1.855  1.7509 -1.5292  0.8603
   23SOL    HW2   69   0.576   0.142   1.796  1.5111 -0.3485  1.0998
   24SOL     OW   70   2.460   2.151   0.782  0.2433  0.0673  0.3576
   24SOL    HW1   71   2.413   2.237   0.808 -2.9115  2.0374 -0.8801
   24SOL    HW2   72   2.392   2.074   0.796  2.1834 -0.6822 -0.0502
   25SOL     OW   73   1.630   0.096   2.556  0.1078  0.6982  0.2986
   25SOL    HW1   74   1.558   0.161   2.526 -0.1455  2.2081  0.5950
   25SOL    HW2   75   1.589   3.085   2.569  0.8966 -2.5874  1.8175
   26SOL     OW   76   1.531   2.303   0.085 -0.0558  0.7933 -0.0714
   26SOL    HW1   77   1.571   2.327   0.176  0.2887 -0.6207 -0.8016
   26SOL    HW2   78   1.514   2.388   0.035 -1.5182 -2.2353  2.5293
   27SOL     OW   79   1.690   0.475   1.485 -0.0664 -0.5486 -0.4276
   27SOL    HW1   80   1.724   0.519   1.400  0.7607  3.9195 -1.7703
   27SOL    HW2   81   1.766   0.442   1.542 -1.0363  0.8866 -0.0045
   28SOL     OW   82   0.997   1.496   0.568  0.4679  0.0650  0.4880
   28SOL    HW1   83   0.942   1.417   0.601  1.6551 -0.1459  0.7296
   28SOL    HW2   84   1.096   1.481   0.595 -1.2821  2.5197 -1.5522
   29SOL     OW   85   2.528   0.300   1.652 -0.3089  0.0493  0.5450
   29SOL    HW1   86   2.552   0.240   1.571  0.6594 -0.9246 -0.4102
   29SOL    HW2   87   2.478   0.384   1.619 -2.1588  0.9868  0.5984
   30SOL     OW   88   1.289   2.564   1.499 -0.4989  0.2953 -0.1735
   30SOL    HW1   89   1.329   2.657   1.507  0.1277  1.7182 -0.7917
   30SOL    HW2   90   1.334   2.517   1.418 -0.6078 -1.5737  0.6339
   31SOL     OW   91   1.891   2.690   1.262 -0.0236  0.1757  0.0870
   31SOL    HW1   92   1.941   2.714   1.347  1.6429 -1.1460 -0.2974
   31SOL    HW2   93   1.937   2.736   1.178 -2.7878  0.0821 -1.4831
   32SOL     OW   94   1.971   1.356   2.596 -0.2787 -0.0916 -0.2397
   32SOL    HW1   95   1.945   1.288   2.526  1.0866  0.5916  2.0809
   32SOL    HW2   96   2.066   1.388   2.581 -0.5656 -1.1792  2.1853
   33SOL     OW   97   2.558   0.729   2.899 -0.0215 -0.4846 -0.1017
   33SOL    HW1   98   2.543   0.708   2.998  0.2152  0.4163 -1.5830
   33SOL    HW2   99   2.483   0.681   2.852 -0.6873 -2.6216 -1.7324
   34SOL     OW  100   1.990   0.222   0.252 -0.0606  0.2595 -0.1249
   34SOL    HW1  101   1.899   0.194   0.288 -0.0041 -0.7039 -1.5681
   34SOL    HW2  102   2.062   0.168   0.301 -0.2175  0.9241  0.3885
   35SOL     OW  103   3.066   2.025   1.883 -0.2513  0.1261  0.0398
   35SOL    HW1  104   3.025   2.014   1.787  0.4193 -0.8912 -1.8415
   35SOL    HW2  105   3.016   1.985   1.958  1.9664  0.4311 -0.7373
   36SOL     OW  106   2.197   1.771   2.951 -0.2422 -0.0994  0.0009
   36SOL    HW1  107   2.130   1.731   2.889 -0.8430  0.4666  1.4988
   36SOL    HW2  108   2.258   1.841   2.910  0.3554 -0.2034  3.4374
   37SOL     OW  109   1.720   3.083   1.780 -0.3107 -0.2881 -0.1460
   37SOL    HW1  110   1.811   3.061   1.746 -2.4643 -1.6197  2.3793
   37SOL    HW2  111   1.712   3.077   1.881 -0.3436  1.4558 -1.2653
   38SOL     OW  112   0.247   0.490   2.413 -0.4123  0.2138 -0.1504
   38SOL    HW1  113   0.253   0.582   2.370  0.2192 -2.0667  1.8519
   38SOL    HW2  114   0.342   0.447   2.407 -0.6441  0.6632 -0.1027
   39SOL     OW  115   2.199   0.809   1.328 -0.1699  0.0732 -0.5199
   39SOL    HW1  116   2.113   0.768   1.363  1.9984 -0.1990  0.2169
   39SOL    HW2  117   2.175   0.871   1.255  0.7930 -0.0157 -1.2368
   40SOL     OW  118   1.205   2.305   0.803  0.2882 -0.0896 -1.3404
   40SOL    HW1  119   1.127   2.241   0.821 -0.1140 -0.8877 -0.1056
   40SOL    HW2  120   1.184   2.367   0.718  1.8215  1.2985 -0.7247
   41SOL     OW  121   1.912   2.130   0.986  0.7080  0.4091  0.2010
   41SOL    HW1  122   1.853   2.113   0.906 -2.8534 -2.1582 -1.0910
   41SOL    HW2  123   1.860   2.170   1.060  0.8515  1.2219 -4.0876
   42SOL     OW  124   2.538   0.494   0.903  0.4639  0.1016  0.6251
   42SOL    HW1  125   2.628   0.495   0.947 -0.5115 -0.9428 -1.3801
   42SOL    HW2  126   2.539   0.545   0.813 -0.1816 -1.7530 -0.0970
   43SOL     OW  127   0.596   1.269   2.394  0.3054 -0.4132  0.2545
   43SOL    HW1  128   0.695   1.296   2.389 -3.4087 -1.2315 -0.6519
   43SOL    HW2  129   0.531   1.332   2.343  0.3953  1.7436 -0.0411
   44SOL     OW  130   1.636   2.715   1.233 -0.2711  0.1208  0.1212
   44SOL    HW1  131   1.578   2.699   1.312  1.3503 -2.5515 -0.6569
   44SOL    HW2  132   1.735   2.703   1.249 -1.8072 -1.1384 -1.1273
   45SOL     OW  133   0.900   2.993   2.600 -0.1163 -0.4169  0.2828
   45SOL    HW1  134   0.950   2.951   2.517 -0.2682 -0.0417 -2.6790
   45SOL    HW2  135   0.847   2.916   2.642 -0.4415  0.4087  1.6609
   46SOL     OW  136   0.769   2.447   1.925  0.8739  0.2524  0.1569
   46SOL    HW1  137   0.841   2.374   1.941  0.4830  1.9268  0.1924
   46SOL    HW2  138   0.777   2.511   1.842  0.4361  2.2233 -2.7991
   47SOL     OW  139   0.984   2.138   0.770 -0.0993 -0.0361  0.2862
   47SOL    HW1  140   1.009   2.112   0.674  1.1516 -1.8293 -0.2381
   47SOL    HW2  141   0.943   2.056   0.815 -1.7547  2.1185 -0.2504
   48SOL     OW  142   0.767   2.532   1.241 -0.2780  0.1482  0.4388
   48SOL    HW1  143   0.820   2.517   1.152 -1.5354 -0.8602 -0.4906
   48SOL    HW2  144   0.834   2.577   1.302 -1.9606  0.8185 -2.9239
   49SOL     OW  145   2.663   3.031   2.851 -0.0520  0.0377  0.5020
   49SOL    HW1  146   2.639   0.037   2.883 -1.3599  0.7600  2.4548
   49SOL    HW2  147   2.701   3.040   2.755 -0.1659 -1.2931 -3.1250
   50SOL     OW  148   1.738   0.950   0.486 -0.5917  0.3628  0.9816
   50SOL    HW1  149   1.802   0.879   0.525  1.1951  0.0689  2.3489
   50SOL    HW2  150   1.640   0.917   0.492 -0.2848 -2.4585  0.2952
   51SOL     OW  151   2.250   0.212   0.803 -0.0996  0.1044  0.1390
   51SOL    HW1  152   2.203   0.272   0.734 -0.2520  5.9222 -0.7851
   51SOL    HW2  153   2.205   0.120   0.807  2.6043  0.0326  1.9137
   52SOL     OW  154   0.934   1.625   0.085 -0.3188 -0.0995  0.2874
   52SOL    HW1  155   0.911   1.589   3.076 -1.4756 -0.0059  1.2191
   52SOL    HW2  156   0.933   1.728   0.081  2.8310  1.3480 -1.7160
   53SOL     OW  157   0.312   1.216   3.051  0.1793 -0.0972 -0.1369
   53SOL    HW1  158   0.311   1.127   3.001 -1.1088 -2.0063 -0.3884
   53SOL    HW2  159   0.384   1.224   0.036 -1.1074  1.8175 -0.6523
   54SOL     OW  160   2.027   1.720   2.761 -0.2091  0.5748  0.8631
   54SOL    HW1  161   2.071   1.768   2.682 -0.4949  1.8781  3.1500
   54SOL    HW2  162   1.958   1.788   2.798  3.8536  1.3810 -1.8879
   55SOL     OW  163   2.233   2.171   1.289  0.3437  0.1274  0.7581
   55SOL    HW1  164   2.317   2.123   1.310  1.7383  1.2490 -2.9316
   55SOL    HW2  165   2.185   2.121   1.218 -1.6076 -0.5303  0.0122
   56SOL     OW  166   1.919   3.050   1.015  0.0722  0.4380 -0.1283
   56SOL    HW1  167   1.936   2.946   1.013  1.4141 -1.6359  0.8451
   56SOL    HW2  168   1.829   3.080   0.978  0.7170  1.0825 -1.8193
   57SOL     OW  169   1.681   1.344   0.812 -0.3678  0.1862  0.2591
   57SOL    HW1  170   1.749   1.420   0.811  2.2945 -2.8344  2.9243
   57SOL    HW2  171   1.712   1.266   0.752 -0.9322 -4.1857 -1.6116
   58SOL     OW  172   2.397   3.048   1.570 -0.1256 -0.0445 -0.4090
   58SOL    HW1  173   2.489   3.080   1.541  0.3711 -0.6637 -0.0929
   58SOL    HW2  174   2.381   0.016   1.655  1.5999  0.5337  2.0227
   59SOL     OW  175   1.063   2.871   2.448  0.6491 -0.4365 -0.0584
   59SOL    HW1  176   1.150   2.820   2.457  1.3958  0.3820 -0.0356
   59SOL    HW2  177   1.017   2.849   2.359 -0.7557  0.1749  0.8679
   60SOL     OW  178   0.108   2.821   2.776 -0.3813  0.6730 -0.0284
   60SOL    HW1  179   0.119   2.787   2.872 -0.1809 -0.8265  0.2496
   60SOL    HW2  180   0.013   2.851   2.763  0.0940 -0.8680  0.0055
   61SOL     OW  181   0.813   2.347   0.800 -0.2525  0.1840 -0.0804
   61SOL    HW1  182   0.870   2.259   0.785  0.5213 -2.3640  1.9665
   61SOL    HW2  183   0.724   2.315   0.836 -0.4980  0.2146 -4.1537
   62SOL     OW  184   1.058   1.859   2.090 -0.3186  0.2218  0.2543
   62SOL    HW1  185   1.135   1.906   2.050 -3.2738 -1.5476 -1.6197
   62SOL    HW2  186   1.009   1.806   2.013 -1.1858 -0.7659 -2.1786
   63SOL     OW  187   1.620   1.823   0.705 -0.3899 -0.7419 -0.0804
   63SOL    HW1  188   1.636   1.844   0.607 -2.4497 -0.4499 -1.2203
   63SOL    HW2  189   1.602   1.723   0.709  0.3669 -1.3940 -0.6952
   64SOL     OW  190   1.740   1.439   0.496 -0.5709 -0.4222 -0.1409
   64SOL    HW1  191   1.643   1.436   0.466 -0.6248 -3.7975  0.3810
   64SOL    HW2  192   1.767   1.349   0.532  0.2078  1.2634 -0.9936
   65SOL     OW  193   1.616   2.191   2.344 -0.5845  0.0320  0.2374
   65SOL    HW1  194   1.557   2.103   2.338  1.3880 -3.0584 -2.1168
   65SOL    HW2  195   1.686   2.180   2.419  1.7459  0.2687  1.4657
   66SOL     OW  196   0.317   0.948   1.084  0.2253 -0.4530  0.1478
   66SOL    HW1  197   0.371   0.898   1.153  0.8215 -0.6776 -1.2820
   66SOL    HW2  198   0.377   0.985   1.009  0.5333  1.0103 -1.7788
   67SOL     OW  199   2.125   2.581   0.408 -0.4029 -0.0219 -0.5745
   67SOL    HW1  200   2.174   2.669   0.416  0.8963  1.3363  1.1021
   67SOL    HW2  201   2.192   2.511   0.436  1.4208 -0.2638  1.0585
   68SOL     OW  202   2.084   2.316   1.445 -0.4606  0.0516 -0.6193
   68SOL    HW1  203   2.126   2.253   1.375  2.3823 -0.6061 -1.0744
   68SOL    HW2  204   2.076   2.263   1.535 -0.7342  1.0731 -0.0328
   69SOL     OW  205   2.316   2.022   3.045 -0.1129  0.0569 -0.5430
   69SOL    HW1  206   2.345   2.003   0.050 -0.3931  1.7118 -0.9938
   69SOL    HW2  207   2.396   2.055   2.990 -2.7563 -1.7428  0.8235
   70SOL     OW  208   0.207   1.078   2.461  0.1265 -0.4177 -0.1770
   70SOL    HW1  209   0.146   1.152   2.426  0.7514  0.8211  2.1094
   70SOL    HW2  210   0.152   1.009   2.510  1.9296 -0.7208 -1.6296
   71SOL     OW  211   0.581   1.004   2.383 -0.3217 -0.5875  0.5797
   71SOL    HW1  212   0.606   1.101   2.358  3.4440  1.3794 -1.0323
   71SOL    HW2  213   0.645   0.963   2.448 -0.1639  1.2444 -1.1277
   72SOL     OW  214   2.298   1.475   2.029 -0.5906 -0.2028  0.2543
   72SOL    HW1  215   2.308   1.443   1.931  1.3313 -0.3965  1.3697
   72SOL    HW2  216   2.375   1.541   2.053 -1.9698  1.0267  1.5739
   73SOL     OW  217   1.054   1.862   2.908 -0.3838  0.6803 -0.8039
   73SOL    HW1  218   0.979   1.803   2.880 -0.9935 -0.6972  4.2511
   73SOL    HW2  219   1.118   1.900   2.839  2.8681 -0.9469  0.8008
   74SOL     OW  220   1.784   3.065   2.350 -0.8048  0.2909 -0.2034
   74SOL    HW1  221   1.779   0.011   2.449 -0.6379  0.9568  1.8520
   74SOL    HW2  222   1.816   0.051   2.284 -0.4109  0.2420  0.8396
   75SOL     OW  223   1.372   2.917   0.506 -0.6327  0.2627  0.1158
   75SOL    HW1  224   1.335   2.822   0.487 -1.1193 -1.0043  0.1586
   75SOL    HW2  225   1.428   2.952   0.428  1.7744  0.1159 -1.6857
   76SOL     OW  226   2.951   1.880   2.727  0.6351  0.0110 -0.4059
   76SOL    HW1  227   2.931   1.782   2.752  1.0585  0.7845 -2.2901
   76SOL    HW2  228   3.047   1.906   2.752  2.4477 -0.3556 -0.5776
   77SOL     OW  229   3.022   2.458   1.334  0.0156  0.0426  0.2690
   77SOL    HW1  230   3.061   2.424   1.245 -2.7896 -1.4958 -0.0866
   77SOL    HW2  231   3.056   2.402   1.409 -1.9514 -0.4433 -0.5659
   78SOL     OW  232   2.672   1.006   0.041  0.0501  0.4935 -0.5561
   78SOL    HW1  233   2.670   1.105   0.065 -0.3646  0.1883 -1.7444
   78SOL    HW2  234   2.574   0.979   0.030  1.7616  1.3836 -0.1869
   79SOL     OW  235   0.247   1.798   2.836  0.4505 -0.0946  0.0574
   79SOL    HW1  236   0.242   1.711   2.786 -0.5747  0.8765 -1.2705
   79SOL    HW2  237   0.252   1.773   2.934  1.4319 -0.8667  0.4355
   80SOL     OW  238   1.670   1.492   1.697  0.4753  0.0768 -0.7985
   80SOL    HW1  239   1.735   1.463   1.771 -1.7747 -1.0354 -2.0658
   80SOL    HW2  240   1.691   1.585   1.657  0.0764  3.3882  0.5621
   81SOL     OW  241   2.105   1.207   2.341  0.1804  0.2895  0.2622
   81SOL    HW1  242   2.004   1.190   2.364  2.3139 -1.2866 -0.2032
   81SOL    HW2  243   2.111   1.304   2.315 -0.6357  1.6446  0.4608
   82SOL     OW  244   1.399   1.406   1.714 -0.1560  0.3043 -0.8101
   82SOL    HW1  245   1.494   1.437   1.733  2.3766 -1.3353  0.5467
   82SOL    HW2  246   1.389   1.309   1.738 -2.8328  0.6167 -0.6285
   83SOL     OW  247   2.990   0.167   2.875 -0.2699  0.6297  0.1053
   83SOL    HW1  248   3.021   0.074   2.906 -0.3452 -0.2208 -1.3598
   83SOL    HW2  249   2.964   0.163   2.776 -3.2198 -0.7944 -0.0763
   84SOL     OW  250   0.053   1.121   0.317 -0.1631  0.5364  0.2128
   84SOL    HW1  251   0.055   1.117   0.215  0.1052 -0.0541 -1.4439
   84SOL    HW2  252   0.032   1.213   0.358 -1.7975  0.5899  0.6816
   85SOL     OW  253   2.011   1.550   2.063  0.0204  0.3718 -0.3603
   85SOL    HW1  254   2.108   1.529   2.037 -0.0080 -0.2408 -0.4231
   85SOL    HW2  255   2.001   1.535   2.163  1.1439  1.7614 -0.9204
   86SOL     OW  256   0.601   0.756   1.089  0.0783 -0.2703 -0.5315
   86SOL    HW1  257   0.652   0.844   1.098 -3.7732 -1.4427 -1.5957
   86SOL    HW2  258   0.552   0.756   1.000  0.4822  1.2927 -0.1424
   87SOL     OW  259   2.705   2.027   2.066 -0.1711  0.0420 -0.1561
   87SOL    HW1  260   2.670   2.089   1.995  2.0426 -1.9779  0.5025
   87SOL    HW2  261   2.798   2.050   2.091 -1.6720  0.8120  0.7344
   88SOL     OW  262   0.494   2.266   2.923  0.2781 -0.0406 -0.3167
   88SOL    HW1  263   0.436   2.306   2.997  0.8006  1.2038  0.3381
   88SOL    HW2  264   0.471   2.168   2.917 -0.6984  0.3158 -0.4172
   89SOL     OW  265   1.541   0.598   0.223 -0.0715  0.1262  0.6223
   89SOL    HW1  266   1.480   0.542   0.170  2.6839  0.6898  1.0086
   89SOL    HW2  267   1.632   0.589   0.176  1.2140  1.1732  0.9196
   90SOL     OW  268   3.007   1.529   2.372 -0.2156  0.4116  0.3672
   90SOL    HW1  269   2.942   1.561   2.298 -1.9250 -1.5585 -1.0761
   90SOL    HW2  270   3.080   1.598   2.385 -2.8280 -4.8147 -2.2612
   91SOL     OW  271   2.357   3.035   1.273  0.2337 -0.1105 -0.5538
   91SOL    HW1  272   2.341   3.050   1.375 -0.8892 -2.2297  0.3845
   91SOL    HW2  273   2.282   3.077   1.220 -2.2842 -1.9568 -0.2028
   92SOL     OW  274   2.366   1.458   1.196  0.6965 -0.2303 -0.2394
   92SOL    HW1  275   2.357   1.558   1.203  0.7471 -1.5944 -1.3798
   92SOL    HW2  276   2.276   1.424   1.157  2.5038  0.3892 -1.6565
   93SOL     OW  277   0.014   1.404   0.334 -0.0713 -0.6732 -0.0328
   93SOL    HW1  278   3.005   1.438   0.349 -1.1982  3.4910 -0.7537
   93SOL    HW2  279   0.067   1.472   0.276 -0.9789  2.8174  1.7967
   94SOL     OW  280   1.132   2.575   1.719  0.5856 -0.0509 -0.4255
   94SOL    HW1  281   1.038   2.589   1.683  1.0528 -3.4017  0.6839
   94SOL    HW2  282   1.208   2.583   1.650  0.2346 -1.4350 -0.1085
   95SOL     OW  283   3.038   0.513   1.112  0.3395 -0.4104 -0.1631
   95SOL    HW1  284   0.012   0.594   1.131 -0.0398  2.3109  0.0832
   95SOL    HW2  285   3.081   0.426   1.148 -0.6830 -0.3279  1.6382
   96SOL     OW  286   3.054   2.685   1.808 -0.3361 -0.0793 -0.0135
   96SOL    HW1  287   3.051   2.790   1.810 -0.6882 -0.8938  0.2026
   96SOL    HW2  288   0.053   2.650   1.765 -1.3425 -0.7333 -0.8550
   97SOL     OW  289   2.378   0.567   1.494  0.6565 -0.0877 -0.4471
   97SOL    HW1  290   2.411   0.633   1.429 -0.2296 -4.0727  2.5278
   97SOL    HW2  291   2.285   0.537   1.472  1.1812  1.7672 -0.6005
   98SOL     OW  292   2.404   2.360   1.464  0.0843  0.6265  0.2085
   98SOL    HW1  293   2.475   2.359   1.385 -0.5278  2.4696  1.0067
   98SOL    HW2  294   2.316   2.315   1.432 -0.3106 -1.7346 -0.3723
   99SOL     OW  295   0.284   0.235   1.630 -0.0247 -0.0617 -0.3827
   99SOL    HW1  296   0.261   0.273   1.725 -0.8040  2.0999 -0.7500
   99SOL    HW2  297   0.197   0.229   1.580  0.4933  0.3447  0.1852
  100SOL     OW  298   2.201   0.233   2.423  0.5356  0.0713  0.2478
  100SOL    HW1  299   2.121   0.280   2.460 -0.0197 -0.1391  1.8553
  100SOL    HW2  300   2.198   0.137   2.457  1.6543  0.6376 -2.3689
  101SOL     OW  301   0.145   0.281   2.270  0.1508  0.1979 -0.3119
  101SOL    HW1  302   0.228   0.240   2.216  0.7984 -2.1312 -2.2607
  101SOL    HW2  303   0.175   0.368   2.312  0.6380 -2.1425  2.7198
  102SOL     OW  304   0.636   0.302   1.747  0.5979  0.5848 -0.3112
  102SOL    HW1  305   0.608   0.312   1.654  1.8111  0.9363  1.3135
  102SOL    HW2  306   0.729   0.342   1.739 -1.6185  1.0726 -1.6391
  103SOL     OW  307   0.984   0.739   2.537 -0.0968 -0.7554 -0.1688
  103SOL    HW1  308   0.981   0.798   2.624  0.9538  1.0735 -0.5743
  103SOL    HW2  309   1.064   0.679   2.532 -1.2730 -3.1307 -0.3918
  104SOL     OW  310   0.221   0.561   1.900  0.3319  0.4707  0.2944
  104SOL    HW1  311   0.203   0.632   1.827  2.6482 -0.7966 -0.7467
  104SOL    HW2  312   0.296   0.594   1.957 -1.0008 -0.4889 -1.7357
  105SOL     OW  313   2.384   1.845   1.647  0.1947 -0.3022  0.5759
  105SOL    HW1  314   2.348   1.876   1.731 -0.7184 -1.4354  0.2240
  105SOL    HW2  315   2.339   1.760   1.617 -1.8467  0.0580 -0.1791
  106SOL     OW  316   1.748   0.157   0.396 -0.1216  0.1157  0.3796
  106SOL    HW1  317   1.766   0.122   0.485  1.4072  0.6806 -2.4847
  106SOL    HW2  318   1.714   0.251   0.396 -2.1918 -3.6672 -2.7112
  107SOL     OW  319   2.142   2.026   1.080  0.5152 -0.3047  0.0108
  107SOL    HW1  320   2.061   2.078   1.041  0.0872  0.0134 -1.7291
  107SOL    HW2  321   2.196   1.985   1.007 -0.3047 -2.0388 -0.9193
  108SOL     OW  322   0.065   2.325   1.145 -0.1905  0.1717  0.2321
  108SOL    HW1  323   0.137   2.333   1.072 -2.7314 -0.7946  0.8940
  108SOL    HW2  324   0.019   2.229   1.154 -0.0326 -0.5782 -1.1032
  109SOL     OW  325   1.584   2.593   1.011  0.1563 -0.0850  0.3095
  109SOL    HW1  326   1.535   2.660   0.956  1.3829  2.1886 -2.6888
  109SOL    HW2  327   1.607   2.644   1.097  4.2396  1.3917  1.1302
  110SOL     OW  328   1.822   1.680   1.267  0.1262  0.5777 -0.2615
  110SOL    HW1  329   1.888   1.753   1.255 -2.0117 -2.1286  1.6670
  110SOL    HW2  330   1.862   1.582   1.269  1.4633 -3.2454  1.0577
  111SOL     OW  331   1.376   2.264   1.799  0.0353  0.2656 -0.2022
  111SOL    HW1  332   1.452   2.252   1.736 -2.0478  0.3447  0.0463
  111SOL    HW2  333   1.417   2.334   1.864  0.6090 -0.1684 -1.9058
  112SOL     OW  334   1.916   2.120   0.061  0.2085  0.2629  0.0279
  112SOL    HW1  335   1.882   2.022   0.068  1.9714 -1.3561  0.9816
  112SOL    HW2  336   1.974   2.132   3.067  0.0679  3.2568 -1.0998
  113SOL     OW  337   2.021   1.749   1.878  0.4779  0.2109 -0.1262
  113SOL    HW1  338   2.059   1.837   1.910 -0.6246 -0.2847 -0.3438
  113SOL    HW2  339   2.022   1.676   1.951 -1.6887 -1.4539  1.1542
  114SOL     OW  340   0.067   1.288   1.725 -0.1940 -0.5146 -0.6488
  114SOL    HW1  341   0.009   1.366   1.756 -2.1529 -0.3090  0.8089
  114SOL    HW2  342   0.011   1.205   1.726 -0.1609  0.2080  1.0725
  115SOL     OW  343   3.072   0.837   3.067 -0.2667  0.3057  0.2811
  115SOL    HW1  344   2.971   0.838   3.087 -4.8602 -0.3000  1.5745
  115SOL    HW2  345   0.036   0.781   0.049  0.2045  1.3103  1.5870
  116SOL     OW  346   2.406   0.979   0.026 -0.8270 -0.3922  0.5738
  116SOL    HW1  347   2.347   1.015   3.035  0.1791  0.1663  1.2195
  116SOL    HW2  348   2.400   0.879   0.040  0.1529 -0.3588  0.5644
  117SOL     OW  349   2.676   2.473   0.084 -0.0349 -0.7298 -0.6493
  117SOL    HW1  350   2.728   2.531   0.022 -4.1016 -1.6832  1.2828
  117SOL    HW2  351   2.600   2.437   0.034  4.1663  2.3272  0.2894
  118SOL     OW  352   0.621   2.393   2.719 -0.4382 -0.3562  0.3128
  118SOL    HW1  353   0.720   2.391   2.740  1.0842 -0.4555 -0.2165
  118SOL    HW2  354   0.574   2.337   2.791 -2.0392 -0.6009  2.2477
  119SOL     OW  355   0.581   2.600   0.503  0.2837 -0.2534  0.3094
  119SOL    HW1  356   0.567   2.680   0.573 -0.3506  0.0074  3.6221
  119SOL    HW2  357   0.492   2.564   0.469  0.9140  1.9203  0.6863
  120SOL     OW  358   1.198   0.891   0.142 -0.0318 -0.3954  0.0583
  120SOL    HW1  359   1.116   0.836   0.174  0.1270  0.4850 -0.0997
  120SOL    HW2  360   1.180   0.990   0.150 -0.6269  2.2176 -2.4582
  121SOL     OW  361   1.404   2.782   0.918  0.2348 -0.1323  0.4454
  121SOL    HW1  362   1.375   2.880   0.928  2.6134 -2.1548 -1.2562
  121SOL    HW2  363   1.394   2.754   0.823  0.7778  1.9210  2.2716
  122SOL     OW  364   2.549   1.539   2.428 -0.0990 -0.3072  0.0420
  122SOL    HW1  365   2.581   1.624   2.380 -0.9231 -0.1306  0.4044
  122SOL    HW2  366   2.629   1.482   2.453  2.7746  0.0962 -0.1166
  123SOL     OW  367   1.214   1.364   1.098 -0.0656 -0.7524  0.3777
  123SOL    HW1  368   1.208   1.434   1.170 -0.3476 -0.4951  1.0671
  123SOL    HW2  369   1.130   1.306   1.102  0.1133  0.2725 -1.9017
  124SOL     OW  370   0.553   0.552   3.019  0.1808  0.2833  0.5026
  124SOL    HW1  371   0.529   0.466   2.969  0.3314  1.4301 -0.0698
  124SOL    HW2  372   0.653   0.577   2.994  2.6291  2.2030 -0.3336
  125SOL     OW  373   0.511   0.416   0.210 -0.3583 -0.1749 -0.1542
  125SOL    HW1  374   0.489   0.418   0.113  5.6604 -0.3399  0.0914
  125SOL    HW2  375   0.499   0.323   0.245 -1.0316  0.2498 -1.9094
  126SOL     OW  376   0.320   1.599   0.451 -0.4635 -0.4772  0.0662
  126SOL    HW1  377   0.411   1.554   0.431  1.5380 -2.1210 -0.5493
  126SOL    HW2  378   0.326   1.639   0.543 -1.6945 -2.3328  0.2451
  127SOL     OW  379   0.814   2.638   1.705 -0.3854 -0.7263  0.7326
  127SOL    HW1  380   0.775   2.645   1.613  2.6078 -0.9423  0.6348
  127SOL    HW2  381   0.803   2.726   1.753 -1.7510  0.6226 -0.1903
  128SOL     OW  382   1.283   1.497   0.173  0.0431  0.1147 -0.4164
  128SOL    HW1  383   1.189   1.489   0.208  3.7286  0.8570 -0.6942
  128SOL    HW2  384   1.280   1.482   0.074 -0.7146  2.0392  2.6083
  129SOL     OW  385   1.737   1.728   2.033 -0.0136 -0.4326 -0.1062
  129SOL    HW1  386   1.650   1.714   1.980  1.3763 -0.9274 -0.3900
  129SOL    HW2  387   1.803   1.659   1.997 -2.5114  2.6455 -0.7207
  130SOL     OW  388   1.589   2.221   1.644 -0.7122  0.1216  0.1803
  130SOL    HW1  389   1.601   2.121   1.630  0.2591 -0.0827  1.7441
  130SOL    HW2  390   1.620   2.268   1.557  4.5235  0.0591 -0.4730
  131SOL     OW  391   0.112   2.259   1.957 -0.0420  0.3230  0.4777
  131SOL    HW1  392   0.065   2.197   1.887 -0.9441  0.4739 -1.3207
  131SOL    HW2  393   0.067   2.349   1.963 -1.4024  1.1585  3.3618
  132SOL     OW  394   2.964   1.756   0.942 -0.3682  0.1444  0.2013
  132SOL    HW1  395   3.035   1.816   0.899  0.4064  0.7841  1.6406
  132SOL    HW2  396   2.918   1.795   1.021  1.4859 -1.5246 -4.2392
  133SOL     OW  397   0.420   0.544   1.692 -0.2934  0.3995  0.3541
  133SOL    HW1  398   0.456   0.468   1.633 -0.6765 -3.3350  1.1970
  133SOL    HW2  399   0.497   0.608   1.716 -0.3114 -0.9788  0.5409
  134SOL     OW  400   2.504   1.728   0.198  0.5664  0.1509  0.2692
  134SOL    HW1  401   2.414   1.723   0.247  1.1057 -2.5604 -1.7362
  134SOL    HW2  402   2.515   1.644   0.138  0.2883 -2.3095  2.3401
  135SOL     OW  403   1.734   0.971   2.551 -0.2269  0.0770 -0.0308
  135SOL    HW1  404   1.768   0.887   2.606  2.7664 -1.6939  0.4240
  135SOL    HW2  405   1.637   0.978   2.534 -1.7086  2.3383 -1.6507
  136SOL     OW  406   2.662   1.777   1.476 -0.4273 -0.5614  0.4401
  136SOL    HW1  407   2.580   1.768   1.414 -1.1651 -0.8776 -0.6850
  136SOL    HW2  408   2.635   1.795   1.573  0.0041 -0.7209  0.8152
  137SOL     OW  409   2.394   1.807   0.538  0.3171 -0.0239  0.3252
  137SOL    HW1  410   2.435   1.729   0.589  0.7627  1.2828 -0.4497
  137SOL    HW2  411   2.436   1.896   0.556  0.1746  0.2133  3.0275
  138SOL     OW  412   2.835   0.727   0.866  0.0091  0.0376 -0.5771
  138SOL    HW1  413   2.736   0.706   0.884 -2.3216 -0.8975 -1.9139
  138SOL    HW2  414   2.881   0.643   0.837 -0.9080  2.0719 -0.5731
  139SOL     OW  415   2.947   2.850   0.269  0.0947  0.0283  0.8343
  139SOL    HW1  416   2.859   2.897   0.260  2.4206 -1.0776  0.9928
  139SOL    HW2  417   3.023   2.914   0.297  1.3780  0.8446 -3.0199
  140SOL     OW  418   0.751   1.168   1.311 -0.6256  0.0289 -0.6151
  140SOL    HW1  419   0.663   1.213   1.340 -0.1445  2.2512  0.9315
  140SOL    HW2  420   0.780   1.093   1.378  1.5305  0.0643 -1.1773
  141SOL     OW  421   1.296   1.553   0.900 -0.3761  0.1246  0.4965
  141SOL    HW1  422   1.244   1.641   0.906  3.3299 -0.1474 -2.4742
  141SOL    HW2  423   1.287   1.493   0.977 -2.1288  0.0680 -2.2980
  142SOL     OW  424   1.111   0.460   1.004 -0.4220 -0.2456  0.1032
  142SOL    HW1  425   1.066   0.519   1.070 -1.2122 -1.1580 -0.5813
  142SOL    HW2  426   1.126   0.364   1.039 -1.0425  1.4084  1.9286
  143SOL     OW  427   0.343   0.952   2.266  0.2957  0.2442  0.4506
  143SOL    HW1  428   0.295   0.995   2.344 -3.3447  0.1897  1.5622
  143SOL    HW2  429   0.442   0.947   2.286  0.9235 -2.0770  0.5913
  144SOL     OW  430   2.354   2.994   0.540  0.4789 -0.0258 -0.1673
  144SOL    HW1  431   2.409   2.919   0.576  1.8339 -0.3817 -1.7026
  144SOL    HW2  432   2.401   3.087   0.545  0.6887  3.0804 -2.1343
  145SOL     OW  433   2.116   0.079   2.710  0.2004 -0.6862 -0.2030
  145SOL    HW1  434   2.211   0.111   2.743  4.4212  1.0837  1.9211
  145SOL    HW2  435   2.057   0.160   2.729 -4.1297  1.6368  2.4215
  146SOL     OW  436   2.896   2.949   0.591  0.3317 -0.0988  0.1357
  146SOL    HW1  437   2.828   2.878   0.571  0.3476  0.3256 -1.0865
  146SOL    HW2  438   2.930   2.938   0.681 -3.6924  1.8002 -2.7714
  147SOL     OW  439   0.955   1.141   2.530 -0.3335  0.0767 -0.3294
  147SOL    HW1  440   0.902   1.189   2.462 -0.9441 -2.9047  0.1989
  147SOL    HW2  441   1.054   1.159   2.505  1.3396 -0.1338 -1.4018
  148SOL     OW  442   1.564   3.016   2.988 -0.5922 -1.2286  0.3203
  148SOL    HW1  443   1.648   2.966   3.023 -0.4864 -1.8350 -1.5621
  148SOL    HW2  444   1.487   3.012   3.055  0.7066  0.5258 -1.4560
  149SOL     OW  445   1.406   0.098   2.021 -0.4119 -0.6506  0.1579
  149SOL    HW1  446   1.322   0.102   2.075  1.0591  0.6325 -2.8611
  149SOL    HW2  447   1.443   0.190   1.990  0.3663  1.0821 -0.5945
  150SOL     OW  448   2.175   2.840   0.011 -0.3326  0.2855  0.2023
  150SOL    HW1  449   2.221   2.759   3.049  1.9002 -2.4249 -0.7844
  150SOL    HW2  450   2.172   2.821   0.109  1.4536 -0.4723  0.7277
  151SOL     OW  451   0.650   1.609   2.887  0.4969 -0.9250 -0.3821
  151SOL    HW1  452   0.564   1.552   2.915 -0.0475 -0.4108 -0.0940
  151SOL    HW2  453   0.734   1.573   2.933 -0.0452  0.1482  0.8811
  152SOL     OW  454   0.420   3.041   1.360 -0.5077 -0.0999  0.2223
  152SOL    HW1  455   0.324   3.048   1.382  3.2893 -1.5700  1.6847
  152SOL    HW2  456   0.483   0.002   1.424  0.3844 -0.6196  1.6699
  153SOL     OW  457   2.568   2.734   1.817 -0.6666  0.5273  0.2452
  153SOL    HW1  458   2.624   2.655   1.846  0.8241 -0.0349  1.4064
  153SOL    HW2  459   2.549   2.792   1.897 -0.9074  0.5328  1.2334
  154SOL     OW  460   2.293   2.948   2.609 -0.3580  0.6373 -0.3955
  154SOL    HW1  461   2.229   2.964   2.535 -0.0135  0.2290  0.2320
  154SOL    HW2  462   2.378   3.005   2.599  1.1852  1.0435  0.0949
  155SOL     OW  463   0.213   1.317   0.547  0.5402  0.0481  0.1431
  155SOL    HW1  464   0.171   1.410   0.543 -0.0197  2.8134  0.7483
  155SOL    HW2  465   0.267   1.300   0.463 -4.1601  0.6268  1.0081
  156SOL     OW  466   2.794   1.614   0.752 -0.0220  0.0148  0.0063
  156SOL    HW1  467   2.848   1.654   0.827 -0.1373 -0.7762 -1.6264
  156SOL    HW2  468   2.844   1.643   0.666  1.0286  0.1649 -1.0556
  157SOL     OW  469   0.674   0.599   0.537 -0.2459  0.4321 -0.0451
  157SOL    HW1  470   0.625   0.515   0.566  0.3772 -0.8515  1.4650
  157SOL    HW2  471   0.744   0.628   0.610 -0.6680 -3.0747  1.3570
  158SOL     OW  472   1.720   0.982   1.104 -0.1694  0.1398 -0.0145
  158SOL    HW1  473   1.660   0.932   1.039 -0.4741 -1.7730 -0.6310
  158SOL    HW2  474   1.688   1.076   1.109  0.5090 -1.8263 -2.2578
  159SOL     OW  475   0.040   0.464   0.206  0.7177  0.2518  0.7746
  159SOL    HW1  476   0.097   0.547   0.185 -3.6505 -0.9546 -0.7564
  159SOL    HW2  477   0.061   0.400   0.133  2.4699 -2.4285 -2.7391
  160SOL     OW  478   2.074   2.023   1.937 -0.2256  0.6720  0.2838
  160SOL    HW1  479   1.980   2.012   1.974 -2.2971  0.4048  1.8136
  160SOL    HW2  480   2.102   2.116   1.954 -0.8416 -2.9860 -1.8109
  161SOL     OW  481   0.283   1.001   2.871  0.1821  0.2354  0.2280
  161SOL    HW1  482   0.343   0.981   2.787  1.6113 -1.2754 -2.3772
  161SOL    HW2  483   0.228   0.917   2.898  0.6669 -2.0486  0.4064
  162SOL     OW  484   0.802   0.293   2.026  0.2532  0.2743  0.3588
  162SOL    HW1  485   0.844   0.205   1.995  0.0674 -1.9714  0.7921
  162SOL    HW2  486   0.699   0.293   2.004 -0.3774 -0.0070 -0.4407
  163SOL     OW  487   2.729   2.963   2.569 -0.1111  0.5830 -0.1509
  163SOL    HW1  488   2.632   2.998   2.562 -4.2453 -0.8352  0.4732
  163SOL    HW2  489   2.789   2.995   2.493  1.8796  3.3786 -0.1737
  164SOL     OW  490   2.054   2.118   0.508  0.6589 -0.2609 -0.3490
  164SOL    HW1  491   2.031   2.183   0.434 -1.0784 -2.1383 -0.0127
  164SOL    HW2  492   2.068   2.167   0.599  1.8230  0.3910  4.9935
  165SOL     OW  493   0.453   0.112   1.139  0.6135 -0.3298 -0.3278
  165SOL    HW1  494   0.504   0.070   1.063  0.0970  1.4298 -2.0653
  165SOL    HW2  495   0.447   0.042   1.216 -0.3124 -1.3377 -2.6609
  166SOL     OW  496   2.601   0.564   0.435 -0.3590 -0.4701 -0.4146
  166SOL    HW1  497   2.691   0.551   0.478 -1.7865 -0.4454  0.2833
  166SOL    HW2  498   2.551   0.476   0.438 -0.5493  1.8517 -2.5268
  167SOL     OW  499   2.411   1.017   0.299 -0.6154  0.3209 -0.2410
  167SOL    HW1  500   2.490   0.951   0.317  1.0306 -0.9776 -0.5147
  167SOL    HW2  501   2.400   1.028   0.198  3.3094 -0.6777  0.6286
  168SOL     OW  502   1.478   2.859   2.356  0.5734 -0.2222  0.1524
  168SOL    HW1  503   1.402   2.787   2.369 -1.2176  0.6792 -2.7879
  168SOL    HW2  504   1.528   2.882   2.438  1.3666 -2.9078 -1.0114
  169SOL     OW  505   0.705   1.882   0.613  0.1217 -0.5408  0.1138
  169SOL    HW1  506   0.607   1.908   0.605  1.2251  0.4778  1.3468
  169SOL    HW2  507   0.740   1.915   0.701  0.1464  0.8811 -0.0414
  170SOL     OW  508   0.009   1.051   1.364  0.3294  0.3378  0.1272
  170SOL    HW1  509   0.016   1.082   1.269 -1.7222 -0.1124  2.3665
  170SOL    HW2  510   0.021   0.950   1.375  0.9936  2.1062  1.2780
  171SOL     OW  511   2.792   1.394   2.463  0.2170 -0.2486  0.5508
  171SOL    HW1  512   2.777   1.291   2.445 -1.5933 -2.0009 -2.7349
  171SOL    HW2  513   2.886   1.421   2.429  0.5053  2.8819 -2.1042
  172SOL     OW  514   0.959   1.741   1.191  0.2543  0.7439 -1.2803
  172SOL    HW1  515   0.904   1.734   1.271  1.4516  0.2420 -2.9209
  172SOL    HW2  516   0.995   1.649   1.164 -1.4977  1.2524  2.3850
  173SOL     OW  517   1.805   1.847   0.043 -0.6183 -0.4206 -0.0891
  173SOL    HW1  518   1.728   1.851   0.106 -0.0606 -0.0502 -4.0007
  173SOL    HW2  519   1.884   1.791   0.078  0.1045 -0.4778  3.0985
  174SOL     OW  520   1.880   0.753   2.634  0.7386 -0.2210  0.2405
  174SOL    HW1  521   1.945   0.744   2.555 -0.6062  1.7369 -0.8175
  174SOL    HW2  522   1.893   0.678   2.701  0.0561 -0.7869  0.7123
  175SOL     OW  523   1.115   1.532   1.300 -0.2192 -0.2536  0.2584
  175SOL    HW1  524   1.076   1.435   1.322  0.8381 -2.0638  2.2678
  175SOL    HW2  525   1.125   1.589   1.381  1.1265 -0.4693 -0.9119
  176SOL     OW  526   1.085   0.172   0.074  0.3212  0.1598  0.3011
  176SOL    HW1  527   1.042   0.234   0.136  0.0364  0.7022 -2.0979
  176SOL    HW2  528   1.109   0.213   3.070  1.8293 -1.2834 -3.2602
  177SOL     OW  529   0.205   1.496   0.155 -0.1560 -0.6684  0.2721
  177SOL    HW1  530   0.267   1.486   0.233 -2.0425  3.5252 -0.1940
  177SOL    HW2  531   0.187   1.409   0.113 -1.4664  1.2614  2.7420
  178SOL     OW  532   0.001   2.362   2.549  0.2710  0.0258 -0.0829
  178SOL    HW1  533   3.056   2.402   2.640 -1.2497  2.8786  2.3778
  178SOL    HW2  534   0.081   2.409   2.511 -0.7378 -0.4001  0.7015
  179SOL     OW  535   2.641   2.681   2.600 -1.0539 -0.3338  0.0110
  179SOL    HW1  536   2.618   2.674   2.503  1.3363  0.1742  1.9448
  179SOL    HW2  537   2.684   2.773   2.618  1.0961  0.2169  1.4199
  180SOL     OW  538   2.373   0.468   1.111 -0.4499 -0.1461 -0.0576
  180SOL    HW1  539   2.384   0.547   1.175  0.1134  0.8958 -3.7580
  180SOL    HW2  540   2.423   0.484   1.024 -1.0747  0.5748 -2.6577
  181SOL     OW  541   2.420   0.378   2.451 -0.5679  0.5101  0.2285
  181SOL    HW1  542   2.511   0.337   2.466 -0.1453  1.4589  0.2804
  181SOL    HW2  543   2.343   0.310   2.445  0.9756  1.1254  0.9637
  182SOL     OW  544   2.524   2.371   2.461  0.3868 -0.3702  0.0386
  182SOL    HW1  545   2.438   2.403   2.509  0.4658 -0.0575 -0.6284
  182SOL    HW2  546   2.542   2.434   2.384 -1.6365  0.7647  0.5079
  183SOL     OW  547   2.332   0.817   2.170 -0.3074 -0.4551  0.0622
  183SOL    HW1  548   2.364   0.764   2.087 -0.8602  1.7590  0.3780
  183SOL    HW2  549   2.263   0.884   2.132 -1.1593 -0.7023  1.4563
  184SOL     OW  550   0.372   1.639   0.952  0.2382  0.1875  0.4417
  184SOL    HW1  551   0.463   1.612   0.986  1.6532 -0.3603  0.0099
  184SOL    HW2  552   0.304   1.657   1.022  3.2988  2.9009  0.0577
  185SOL     OW  553   2.904   0.148   0.589 -0.1722 -0.2796  0.2089
  185SOL    HW1  554   2.852   0.168   0.499  1.7008  0.2496 -2.3105
  185SOL    HW2  555   2.908   0.050   0.610 -1.0399  1.9214  0.9150
  186SOL     OW  556   2.294   2.446   2.567 -0.4871  0.2763 -0.1675
  186SOL    HW1  557   2.248   2.373   2.624  1.6209 -3.2984 -1.3715
  186SOL    HW2  558   2.253   2.535   2.578  2.2218  0.3487 -0.1705
  187SOL     OW  559   0.706   1.598   0.583 -0.0863 -0.4659 -0.7484
  187SOL    HW1  560   0.809   1.585   0.581  3.2596  2.8759  2.4413
  187SOL    HW2  561   0.680   1.697   0.607 -0.4350  1.3060  2.2098
  188SOL     OW  562   2.156   1.531   0.754 -0.1149  0.2368  0.4016
  188SOL    HW1  563   2.186   1.462   0.690  3.2733 -1.7452  0.7913
  188SOL    HW2  564   2.064   1.564   0.742  3.1891 -2.0041 -2.1287
  189SOL     OW  565   3.023   1.576   2.821  0.1004 -0.3665  0.0485
  189SOL    HW1  566   0.015   1.599   2.766 -0.2940 -1.2547  2.9107
  189SOL    HW2  567   3.039   1.506   2.888 -3.0628  0.3761 -0.8125
  190SOL     OW  568   2.350   0.479   2.199 -0.0275 -0.1649 -0.7275
  190SOL    HW1  569   2.386   0.472   2.293  1.2451  1.6403  0.8721
  190SOL    HW2  570   2.258   0.520   2.204  2.1877  0.4129 -1.5765
  191SOL     OW  571   1.110   0.399   2.223 -0.0943  0.2801 -0.1565
  191SOL    HW1  572   1.136   0.307   2.191 -0.3084  1.3877  1.1055
  191SOL    HW2  573   1.040   0.395   2.296  0.9004  2.5254  0.1549
  192SOL     OW  574   1.201   1.592   1.761  0.4633  0.0235 -0.1904
  192SOL    HW1  575   1.257   1.512   1.727  0.3680  0.7148  1.7410
  192SOL    HW2  576   1.174   1.647   1.679  1.5530 -1.7131  0.6072
  193SOL     OW  577   1.109   2.944   0.647  0.8384 -0.2880 -0.3560
  193SOL    HW1  578   1.198   2.945   0.601 -1.2607  0.1497  0.9294
  193SOL    HW2  579   1.074   2.849   0.660 -0.5225 -1.9483 -0.4080
  194SOL     OW  580   0.720   1.804   2.094 -0.4988 -0.4111  0.7848
  194SOL    HW1  581   0.769   1.799   2.184  4.7555 -0.2540 -0.1457
  194SOL    HW2  582   0.725   1.896   2.049 -1.5704  0.5687  0.2922
  195SOL     OW  583   2.327   0.404   0.503 -0.0846 -0.0938  0.0864
  195SOL    HW1  584   2.248   0.434   0.446  0.4328  0.2578 -2.0421
  195SOL    HW2  585   2.303   0.438   0.598  0.6179  0.9636  2.0147
  196SOL     OW  586   1.094   1.365   2.144  0.4835 -0.0767 -0.3820
  196SOL    HW1  587   1.070   1.461   2.174  0.4939 -0.2885 -0.0233
  196SOL    HW2  588   1.031   1.335   2.073  1.2441 -1.3051 -0.4508
  197SOL     OW  589   0.187   0.301   1.901  0.3190 -0.6773  0.0828
  197SOL    HW1  590   0.236   0.259   1.980  1.9900  0.2240 -1.2362
  197SOL    HW2  591   0.203   0.405   1.898  2.3271 -0.1194  3.1316
  198SOL     OW  592   0.407   1.110   0.885  0.1342 -0.0510  0.0137
  198SOL    HW1  593   0.499   1.108   0.845 -0.1086  1.2929  0.0015
  198SOL    HW2  594   0.352   1.188   0.846  0.6207 -1.5073  2.0058
  199SOL     OW  595   0.271   2.350   0.977 -0.2201  0.7221 -0.1181
  199SOL    HW1  596   0.258   2.406   0.891  1.2265 -0.9044  1.9863
  199SOL    HW2  597   0.340   2.403   1.030 -2.1174  1.1629 -1.9961
  200SOL     OW  598   1.706   1.509   2.712 -0.4615 -0.2055  0.0203
  200SOL    HW1  599   1.787   1.481   2.660 -2.1527  1.5962 -0.8821
  200SOL    HW2  600   1.711   1.475   2.809  1.1989  0.7971  1.0381
  201SOL     OW  601   0.397   2.438   1.610  0.1884  0.1258 -0.4639
  201SOL    HW1  602   0.462   2.455   1.538  0.4672 -1.0705  2.4233
  201SOL    HW2  603   0.379   2.341   1.612  1.2799  1.7953  0.4303
  202SOL     OW  604   1.112   3.030   2.945  0.1861  0.1264  0.2610
  202SOL    HW1  605   1.026   3.075   2.918  2.0008 -0.0219 -0.7105
  202SOL    HW2  606   1.188   0.003   2.907 -1.7627  0.4735  0.3116
  203SOL     OW  607   1.552   0.361   2.246  0.2861  0.3860  0.5145
  203SOL    HW1  608   1.543   0.348   2.146  0.6174 -1.0663  2.1411
  203SOL    HW2  609   1.646   0.384   2.273 -2.3467 -1.8963 -1.7646
  204SOL     OW  610   0.784   0.892   1.419 -0.4442 -0.6559  0.6301
  204SOL    HW1  611   0.808   0.885   1.516  2.0062 -0.7621  0.6961
  204SOL    HW2  612   0.713   0.825   1.401 -2.3581  2.6448 -0.6965
  205SOL     OW  613   2.029   0.991   2.691  0.4662 -0.8550 -0.4806
  205SOL    HW1  614   1.940   0.932   2.687 -0.7421 -0.0348  1.2755
  205SOL    HW2  615   2.088   0.976   2.610 -1.6074 -0.4543  0.0087
  206SOL     OW  616   0.675   2.006   2.988 -0.8097  0.2415  0.2690
  206SOL    HW1  617   0.600   1.958   3.034 -0.1150  0.1468  2.1554
  206SOL    HW2  618   0.657   2.011   2.888 -0.3281 -1.3913  0.5356
  207SOL     OW  619   0.543   0.374   2.018  0.1082 -0.0731 -0.0149
  207SOL    HW1  620   0.484   0.444   2.054  0.0853 -3.0039  0.6182
  207SOL    HW2  621   0.545   0.381   1.913 -0.6680  0.6668 -3.7293
  208SOL     OW  622   0.514   2.566   1.350 -0.5264  0.0591 -0.0026
  208SOL    HW1  623   0.440   2.528   1.295  0.1258 -0.4507  0.5860
  208SOL    HW2  624   0.604   2.532   1.315  0.1449  1.5456 -2.4736
  209SOL     OW  625   1.290   2.621   3.059 -0.7477  0.2063  0.3892
  209SOL    HW1  626   1.214   2.582   0.028 -0.3028  0.8586  1.9317
  209SOL    HW2  627   1.249   2.681   2.982  1.1231 -0.4962 -3.8007
  210SOL     OW  628   2.783   1.408   1.765  0.1028 -0.3449  0.0750
  210SOL    HW1  629   2.865   1.445   1.808  1.9568 -1.4127 -1.1287
  210SOL    HW2  630   2.708   1.473   1.777  2.1075  2.1247  0.8880
  211SOL     OW  631   1.253   0.227   1.674  0.4244 -0.3561 -0.4847
  211SOL    HW1  632   1.217   0.318   1.704  2.9776 -1.4322 -1.5021
  211SOL    HW2  633   1.337   0.242   1.613  1.5716  0.4014  0.9327
  212SOL     OW  634   1.011   2.166   1.622 -0.2695 -0.6625  0.4074
  212SOL    HW1  635   0.956   2.219   1.690  1.5037 -0.4920 -0.2864
  212SOL    HW2  636   1.098   2.214   1.600 -0.8540  0.3960 -2.7002
  213SOL     OW  637   2.420   0.415   1.941  0.5899  0.1684 -0.5078
  213SOL    HW1  638   2.410   0.500   1.887 -1.0193  1.6750 -1.1434
  213SOL    HW2  639   2.390   0.444   2.038  0.6108  0.4821  1.4939
  214SOL     OW  640   0.795   1.875   1.677  0.2180  0.0181 -0.4091
  214SOL    HW1  641   0.899   1.880   1.672  3.2617 -1.2458  0.3291
  214SOL    HW2  642   0.753   1.941   1.744 -1.0861 -2.0140  1.1518
  215SOL     OW  643   2.842   1.880   1.158 -0.7472 -0.3844 -0.4565
  215SOL    HW1  644   2.855   1.825   1.241  0.9287 -0.0798  0.3393
  215SOL    HW2  645   2.771   1.946   1.174 -0.3919 -1.5040 -0.6657
  216SOL     OW  646   3.051   0.769   1.359  0.2113  0.1555 -0.0164
  216SOL    HW1  647   0.033   0.757   1.278  1.7363  0.8816 -0.9487
  216SOL    HW2  648   3.065   0.695   1.432  1.0074  0.1399  1.9926
  217SOL     OW  649   2.607   0.126   1.442 -0.0933  0.2430  0.5418
  217SOL    HW1  650   2.589   0.153   1.344  0.5146 -1.8788 -3.4042
  217SOL    HW2  651   2.697   0.082   1.445 -0.7611  1.1052  0.2131
  218SOL     OW  652   1.338   2.256   1.088  0.6984 -0.4860 -0.0617
  218SOL    HW1  653   1.416   2.204   1.128  1.4649 -0.6159  1.2133
  218SOL    HW2  654   1.358   2.269   0.991  0.0113 -2.4054  2.2397
  219SOL     OW  655   1.657   2.170   0.509  0.2711  0.1802 -0.1038
  219SOL    HW1  656   1.704   2.215   0.594  0.8142 -0.2682  2.1032
  219SOL    HW2  657   1.673   2.227   0.427  1.0692 -0.0744  0.0137
  220SOL     OW  658   1.713   2.323   0.302 -0.3524  0.8110  0.3194
  220SOL    HW1  659   1.688   2.424   0.298  1.1994  2.1990  1.9729
  220SOL    HW2  660   1.809   2.302   0.277 -0.3524  0.4995  2.7452
  221SOL     OW  661   2.968   2.098   0.991 -0.0426  0.1535 -0.3794
  221SOL    HW1  662   3.028   2.050   0.924 -0.3451 -1.0206  4.4684
  221SOL    HW2  663   2.939   2.025   1.054  0.9259 -0.8971  0.8226
  222SOL     OW  664   1.676   2.345   0.946  0.1831 -0.1403 -0.0778
  222SOL    HW1  665   1.636   2.434   0.981  0.5769 -2.7514 -0.1690
  222SOL    HW2  666   1.597   2.286   0.916 -0.2377  3.0213 -1.9000
  223SOL     OW  667   0.732   2.719   2.390 -0.7095  0.3253 -0.0622
  223SOL    HW1  668   0.704   2.807   2.357  0.3674  0.5850  2.1569
  223SOL    HW2  669   0.709   2.636   2.334  1.9029 -0.9625 -0.0874
  224SOL     OW  670   3.030   1.826   1.411 -0.4338  0.3811 -0.2766
  224SOL    HW1  671   3.015   1.731   1.442  1.5237 -1.5352 -1.1487
  224SOL    HW2  672   3.078   1.825   1.324 -1.1311 -0.6475  2.3438
  225SOL     OW  673   2.258   1.663   0.967 -0.2071 -0.6010  0.0798
  225SOL    HW1  674   2.360   1.662   0.961 -0.9816 -1.8569 -2.5296
  225SOL    HW2  675   2.225   1.612   0.888  0.4998  3.1816  1.7245
  226SOL     OW  676   1.329   2.680   0.363  0.3873  0.3234  0.1142
  226SOL    HW1  677   1.394   2.713   0.292 -0.1102  1.4955 -1.4623
  226SOL    HW2  678   1.248   2.633   0.320  2.2652 -0.7821 -0.0972
  227SOL     OW  679   1.575   0.893   1.397 -0.2418  0.1864  0.5417
  227SOL    HW1  680   1.488   0.919   1.352 -0.8741  1.0656 -0.6933
  227SOL    HW2  681   1.649   0.967   1.390  0.5571 -1.1793 -0.8273
  228SOL     OW  682   1.397   0.655   1.975  0.0210 -0.5914 -0.2367
  228SOL    HW1  683   1.471   0.703   2.026 -1.3324 -2.0484 -1.3907
  228SOL    HW2  684   1.374   0.695   1.887  0.3867 -3.2615  0.4910
  229SOL     OW  685   2.855   0.774   2.792 -0.4253 -0.0124 -0.2262
  229SOL    HW1  686   2.871   0.707   2.866  0.8866  2.2293 -0.8489
  229SOL    HW2  687   2.824   0.864   2.829  0.8380  1.9289  0.5514
  230SOL     OW  688   0.956   1.147   0.899 -0.1762 -0.2040  0.4543
  230SOL    HW1  689   0.995   1.058   0.891  1.7490  2.9980  2.0639
  230SOL    HW2  690   0.957   1.179   0.994 -3.5018  0.5228 -0.6345
  231SOL     OW  691   2.527   2.997   1.994  0.4355  0.5532 -0.1114
  231SOL    HW1  692   2.593   3.047   1.928 -0.9865 -0.9662 -0.9170
  231SOL    HW2  693   2.435   3.042   2.004 -1.3466 -0.7230  0.1510
  232SOL     OW  694   0.622   2.071   0.285  0.1371 -0.6893 -0.4058
  232SOL    HW1  695   0.687   1.996   0.306 -2.4214  0.4573 -0.2751
  232SOL    HW2  696   0.653   2.151   0.332 -1.1354  1.9309 -1.2888
  233SOL     OW  697   1.265   2.256   2.503  0.2657 -0.3744 -0.2488
  233SOL    HW1  698   1.335   2.187   2.541  1.2325 -2.8831 -1.5224
  233SOL    HW2  699   1.267   2.350   2.549 -1.3607  0.5683  0.5110
  234SOL     OW  700   0.948   1.308   1.681  0.1218  0.3960  0.5712
  234SOL    HW1  701   0.946   1.308   1.783 -1.5895  0.3997 -2.1765
  234SOL    HW2  702   0.927   1.402   1.648  0.8416 -0.3150 -0.9582
  235SOL     OW  703   0.622   1.623   1.695 -0.8132 -0.3161 -0.0459
  235SOL    HW1  704   0.641   1.587   1.789  1.2332  1.7532 -0.9802
  235SOL    HW2  705   0.677   1.711   1.687 -0.3820  1.5505 -2.6048
  236SOL     OW  706   1.694   2.573   2.469 -0.5432  0.9563  0.6550
  236SOL    HW1  707   1.646   2.498   2.417 -0.6390 -1.9612  1.9438
  236SOL    HW2  708   1.714   2.655   2.409  0.9576  1.6546 -0.4557
  237SOL     OW  709   1.330   0.172   0.188 -0.2390  0.3898 -0.3318
  237SOL    HW1  710   1.333   0.263   0.236  0.5164  0.9479  2.9878
  237SOL    HW2  711   1.238   0.169   0.147  0.3409  1.7474  1.6751
  238SOL     OW  712   1.368   0.578   2.753  0.0639 -1.0361  0.0150
  238SOL    HW1  713   1.431   0.505   2.732  0.3651  2.6323 -0.0520
  238SOL    HW2  714   1.407   0.636   2.827 -1.0295  1.3398  1.5091
  239SOL     OW  715   0.412   0.620   2.086  0.0342  0.1776  0.0979
  239SOL    HW1  716   0.500   0.664   2.111 -0.5276  0.7307  0.3165
  239SOL    HW2  717   0.335   0.664   2.138  1.6923 -1.5473  0.0759
  240SOL     OW  718   2.300   2.649   0.647 -0.5411  0.0352  0.1484
  240SOL    HW1  719   2.221   2.711   0.673 -1.5461  1.2996 -0.7552
  240SOL    HW2  720   2.383   2.698   0.679  0.6976  0.0468  2.0092
  241SOL     OW  721   1.366   1.363   1.455  0.4059  0.1090  0.3619
  241SOL    HW1  722   1.275   1.314   1.455 -1.2766  0.1884 -1.0228
  241SOL    HW2  723   1.389   1.385   1.551  1.0854 -0.6224 -1.6958
  242SOL     OW  724   0.110   0.840   0.737 -0.0445  0.1859  0.0553
  242SOL    HW1  725   0.028   0.808   0.689  1.5602 -1.5471  1.2206
  242SOL    HW2  726   0.130   0.940   0.722 -0.7979 -0.2521 -0.2375
  243SOL     OW  727   0.363   0.684   1.356  0.6679 -0.0524 -0.3026
  243SOL    HW1  728   0.312   0.616   1.409 -3.2698 -0.8922  0.4364
  243SOL    HW2  729   0.463   0.674   1.378 -1.3993  0.5958 -0.9598
  244SOL     OW  730   1.131   0.545   3.023  0.5123  0.5981 -0.2027
  244SOL    HW1  731   1.112   0.608   2.949  0.1869 -1.6700 -0.1464
  244SOL    HW2  732   1.043   0.506   3.062  0.9631 -3.7294  2.0759
  245SOL     OW  733   2.014   0.899   0.070  0.0385  0.2774  0.2811
  245SOL    HW1  734   2.039   0.997   0.059 -0.4639  0.3481  0.6709
  245SOL    HW2  735   1.961   0.894   0.154 -2.1595 -2.4536 -3.2665
  246SOL     OW  736   3.025   0.895   2.173  0.5397 -0.2496  0.0715
  246SOL    HW1  737   2.950   0.931   2.117  0.0295 -1.8372  0.7951
  246SOL    HW2  738   0.020   0.950   2.160 -1.5990  3.3247  0.3966
  247SOL     OW  739   0.473   3.015   2.065  0.2817  0.0333 -0.4816
  247SOL    HW1  740   0.390   2.955   2.059 -1.8308 -2.1770  0.0508
  247SOL    HW2  741   0.509   3.046   1.976  1.0882  1.5057  0.3998
  248SOL     OW  742   0.465   1.434   2.236 -0.0940  0.1202 -0.1022
  248SOL    HW1  743   0.467   1.537   2.222  0.6989 -0.9202  0.1685
  248SOL    HW2  744   0.470   1.388   2.143 -1.2871 -0.5668 -1.1617
  249SOL     OW  745   0.366   0.300   2.636  0.3750 -0.1821  0.2258
  249SOL    HW1  746   0.345   0.202   2.624  0.1325  2.2416  0.2860
  249SOL    HW2  747   0.291   0.357   2.596  1.4787  2.9008  0.5178
  250SOL     OW  748   0.206   0.017   2.873 -0.9970 -0.3262 -0.2508
  250SOL    HW1  749   0.148   3.049   2.934  0.5829  2.7308 -0.4451
  250SOL    HW2  750   0.204   3.081   2.771  0.2902  1.1586 -3.1771
  251SOL     OW  751   0.283   1.700   0.700 -0.0595 -0.1402  0.2805
  251SOL    HW1  752   0.184   1.668   0.695  1.5989 -1.1770 -2.3157
  251SOL    HW2  753   0.324   1.695   0.796 -1.2722  2.3392  1.2201
  252SOL     OW  754   1.640   2.557   2.109  0.0757  0.0376 -0.2818
  252SOL    HW1  755   1.728   2.508   2.102 -3.1495  0.5998 -0.4643
  252SOL    HW2  756   1.575   2.520   2.183 -1.3656 -0.5214  2.8676
  253SOL     OW  757   1.624   1.900   2.692 -0.5926 -0.2681 -0.5630
  253SOL    HW1  758   1.614   1.821   2.629 -1.0631 -2.6762  2.9865
  253SOL    HW2  759   1.569   1.883   2.779  1.7413  1.7296  1.5338
  254SOL     OW  760   0.373   1.519   1.745  0.1697 -0.1174  0.2139
  254SOL    HW1  761   0.350   1.420   1.735 -1.7447  0.0181  0.4110
  254SOL    HW2  762   0.467   1.534   1.700  1.7818 -1.0610  1.2240
  255SOL     OW  763   1.029   0.012   1.476  0.3548  0.1075  0.2460
  255SOL    HW1  764   1.098   3.026   1.491 -1.1709 -0.9004 -0.8913
  255SOL    HW2  765   1.004   0.054   1.569 -1.2791  0.0605  0.0427
  256SOL     OW  766   2.837   2.279   1.125  0.3084  0.2140  0.4116
  256SOL    HW1  767   2.867   2.288   1.223 -0.9531 -0.3933  2.3850
  256SOL    HW2  768   2.901   2.231   1.065 -0.2311  1.5302 -0.3515
  257SOL     OW  769   0.160   2.737   3.022  0.1737  0.5803 -0.0700
  257SOL    HW1  770   0.241   2.759   3.076 -0.1444 -0.7627 -0.7007
  257SOL    HW2  771   0.079   2.729   3.083 -0.8638  1.8229  2.4467
  258SOL     OW  772   0.945   2.200   1.990  1.0694 -0.2772  0.2198
  258SOL    HW1  773   1.021   2.140   1.958 -3.1832 -1.3916  0.9569
  258SOL    HW2  774   0.942   2.220   2.089 -0.1363 -1.2809  1.2605
  259SOL     OW  775   0.999   1.881   2.531  0.2774  0.0050  0.8426
  259SOL    HW1  776   1.099   1.893   2.563  1.7883 -1.8832 -0.5179
  259SOL    HW2  777   0.936   1.867   2.607 -0.1880 -0.2776 -2.0476
  260SOL     OW  778   2.421   0.845   2.412 -0.3073 -0.3809  0.4166
  260SOL    HW1  779   2.433   0.762   2.474  0.6736  0.2008  6.0892
  260SOL    HW2  780   2.389   0.827   2.314 -2.1209  1.9163 -2.1151
  261SOL     OW  781   1.478   0.594   0.923  0.6930  0.0297 -0.2359
  261SOL    HW1  782   1.429   0.565   0.839  0.8720 -0.5273 -0.2169
  261SOL    HW2  783   1.539   0.672   0.907 -1.0862 -1.4628 -0.1247
  262SOL     OW  784   2.136   2.283   2.732  0.0026 -0.2512 -0.3503
  262SOL    HW1  785   2.137   2.213   2.805  1.5063  1.6824  0.8664
  262SOL    HW2  786   2.096   2.238   2.650 -0.2713  1.0729 -0.1998
  263SOL     OW  787   0.439   2.329   0.625 -0.4303  0.3765 -0.1467
  263SOL    HW1  788   0.378   2.406   0.638  2.8431  0.3663  1.0542
  263SOL    HW2  789   0.514   2.353   0.558 -0.1930  1.9213  1.2213
  264SOL     OW  790   3.017   2.191   0.585  0.2068 -0.3298 -0.3726
  264SOL    HW1  791   3.084   2.120   0.611  0.7119 -0.0133 -0.8631
  264SOL    HW2  792   3.020   2.210   0.482  1.3120  0.3294 -0.2819
  265SOL     OW  793   0.521   1.181   0.114 -0.3973  0.0220  0.0515
  265SOL    HW1  794   0.547   1.090   0.079  1.0049  0.0859  1.2911
  265SOL    HW2  795   0.598   1.232   0.162  0.5332 -1.7728 -0.2008
  266SOL     OW  796   0.737   2.074   2.460  0.3864 -0.9165  0.0418
  266SOL    HW1  797   0.764   2.003   2.388 -1.0450 -0.3468  0.9911
  266SOL    HW2  798   0.823   2.116   2.494  1.6289 -0.1012  0.8082
  267SOL     OW  799   1.745   0.714   2.357  0.3236 -0.6665  0.1350
  267SOL    HW1  800   1.658   0.723   2.409 -1.0807 -0.2732  2.0184
  267SOL    HW2  801   1.817   0.766   2.404  0.3328 -0.5065  0.5302
  268SOL     OW  802   0.820   1.006   0.123 -0.3752  0.0380  0.4038
  268SOL    HW1  803   0.893   1.074   0.124  1.1591  0.6034 -2.0025
  268SOL    HW2  804   0.765   1.009   0.209 -0.1649 -1.9320  0.1915
  269SOL     OW  805   2.347   1.902   2.274 -0.8611 -0.7662  0.3731
  269SOL    HW1  806   2.392   1.817   2.244  1.4945  2.2483  1.0234
  269SOL    HW2  807   2.416   1.981   2.264  1.3179 -0.9220  0.0909
  270SOL     OW  808   1.448   1.862   2.896  0.2880 -0.2665  0.1886
  270SOL    HW1  809   1.453   1.935   2.966 -0.0634  0.4633  1.4999
  270SOL    HW2  810   1.472   1.773   2.937 -0.0195  4.8236 -0.9579
  271SOL     OW  811   0.047   0.348   3.049 -0.1513 -0.2945 -0.4103
  271SOL    HW1  812   0.049   0.431   2.990 -1.6993  0.3793  0.2331
  271SOL    HW2  813   0.017   0.270   2.997  2.7818  1.9774  1.8475
  272SOL     OW  814   2.869   0.542   0.559 -0.0133  0.7088  0.2471
  272SOL    HW1  815   2.926   0.475   0.510 -1.3458  3.1439 -1.0709
  272SOL    HW2  816   2.928   0.613   0.593 -0.1946 -1.1675  0.2429
  273SOL     OW  817   0.556   2.887   1.675  0.0437 -0.2543  0.0498
  273SOL    HW1  818   0.545   2.983   1.701 -2.0386  0.8776  2.0974
  273SOL    HW2  819   0.462   2.844   1.664 -1.0460  1.0283  1.1565
  274SOL     OW  820   2.750   0.541   1.577  0.4645  0.1913 -0.2659
  274SOL    HW1  821   2.796   0.468   1.631 -0.3858 -1.0156 -2.1112
  274SOL    HW2  822   2.692   0.593   1.637 -0.5002 -2.6540 -1.8185
  275SOL     OW  823   0.984   1.660   0.793 -0.1489  0.1790 -0.3905
  275SOL    HW1  824   1.012   1.607   0.713 -2.2019  1.3477 -1.8019
  275SOL    HW2  825   1.047   1.735   0.823  0.7635  2.3927 -0.5503
  276SOL     OW  826   0.565   0.958   1.992  0.1327 -0.0750 -0.0492
  276SOL    HW1  827   0.465   0.935   1.987 -3.2877  0.3791 -1.1263
  276SOL    HW2  828   0.613   0.885   2.045 -1.6930 -0.6107 -0.4138
  277SOL     OW  829   1.168   2.641   1.976  0.3607 -0.0025  0.0630
  277SOL    HW1  830   1.211   2.733   1.974 -0.8222  0.8063  1.2793
  277SOL    HW2  831   1.145   2.602   1.884 -0.1511  1.4624 -0.2381
  278SOL     OW  832   2.091   2.874   1.948 -0.3226  0.2418 -0.0695
  278SOL    HW1  833   2.052   2.888   1.850 -2.4170  2.3608 -1.6718
  278SOL    HW2  834   2.128   2.963   1.983 -2.9475 -0.7051 -0.9472
  279SOL     OW  835   1.488   1.450   0.345 -0.0135 -0.2009 -0.4975
  279SOL    HW1  836   1.571   1.484   0.292 -0.6455 -0.6547  0.4180
  279SOL    HW2  837   1.405   1.449   0.288 -1.2296 -1.1931  0.6137
  280SOL     OW  838   1.329   1.185   0.153 -0.7466  0.3408  0.1328
  280SOL    HW1  839   1.275   1.195   0.239 -0.4464  0.2876  1.6342
  280SOL    HW2  840   1.423   1.217   0.171 -1.1214 -1.3348  0.0154
  281SOL     OW  841   0.497   0.345   1.503 -0.0237 -0.1054  0.5212
  281SOL    HW1  842   0.474   0.363   1.404 -2.3899  0.2916 -0.2154
  281SOL    HW2  843   0.418   0.298   1.544  2.4908 -0.7579 -2.0348
  282SOL     OW  844   0.026   2.546   0.652  0.4351  0.2280 -0.2432
  282SOL    HW1  845   3.077   2.568   0.559 -0.9854  0.1791 -0.5367
  282SOL    HW2  846   3.050   2.497   0.708  1.3132  2.3624 -1.7735
  283SOL     OW  847   1.234   2.044   1.921  0.0239 -0.1706 -0.1084
  283SOL    HW1  848   1.292   2.001   1.999  3.1033  0.9707  0.4816
  283SOL    HW2  849   1.287   2.128   1.892  0.5904 -1.7091 -3.2974
  284SOL     OW  850   2.872   2.715   1.155 -0.6330  0.5004 -0.3738
  284SOL    HW1  851   2.833   2.801   1.123 -0.5778 -1.1077  2.9935
  284SOL    HW2  852   2.885   2.716   1.253  0.1862 -1.9947 -2.9386
  285SOL     OW  853   0.335   2.047   2.930 -0.2214 -0.4699 -0.4368
  285SOL    HW1  854   0.294   1.956   2.903  0.5355 -0.4308 -1.1233
  285SOL    HW2  855   0.271   2.127   2.919 -0.3616  4.6953  1.2255
  286SOL     OW  856   0.164   2.730   1.100  0.3471  0.1325  0.2197
  286SOL    HW1  857   0.145   2.826   1.122 -1.0261  0.6397 -1.6115
  286SOL    HW2  858   0.099   2.695   1.026  1.0871 -0.9735 -2.3574
  287SOL     OW  859   0.564   1.088   0.458  0.4787 -0.3443 -0.3598
  287SOL    HW1  860   0.665   1.071   0.475  0.5209  1.2871 -1.4196
  287SOL    HW2  861   0.545   1.186   0.480 -0.6686  0.9668  2.4528
  288SOL     OW  862   1.853   1.904   2.854  0.3258  0.1463  0.5202
  288SOL    HW1  863   1.826   1.881   2.948 -0.6453  0.3701 -1.0965
  288SOL    HW2  864   1.768   1.914   2.799  0.6191  0.4299  1.0509
  289SOL     OW  865   0.125   2.040   0.247 -0.5723  0.3133  0.5286
  289SOL    HW1  866   0.075   2.014   0.162 -2.4132 -0.4140  2.0173
  289SOL    HW2  867   0.116   1.961   0.314 -1.2998 -0.6699 -0.4873
  290SOL     OW  868   1.363   1.697   1.418 -0.0960 -0.5734  0.0207
  290SOL    HW1  869   1.365   1.770   1.349  2.6703 -1.1065  1.0760
  290SOL    HW2  870   1.428   1.626   1.389  0.2981 -2.2520  0.0513
  291SOL     OW  871   1.044   1.221   2.912 -0.1419  0.0769 -0.0892
  291SOL    HW1  872   0.960   1.171   2.939  0.8300  0.5414 -0.5884
  291SOL    HW2  873   1.106   1.157   2.866 -1.5586  0.2541  1.7725
  292SOL     OW  874   1.045   1.488   0.290 -0.0336 -0.1917 -0.1836
  292SOL    HW1  875   1.017   1.507   0.387  1.0508  1.1193  0.1055
  292SOL    HW2  876   0.974   1.521   0.228  1.9273 -2.7357  0.4900
  293SOL     OW  877   1.481   0.017   0.662 -0.0410 -0.0481 -0.1764
  293SOL    HW1  878   1.432   3.039   0.600  0.2083  1.0028 -2.3502
  293SOL    HW2  879   1.438   0.110   0.667 -0.6505 -0.4781  1.2850
  294SOL     OW  880   1.844   1.191   2.420  0.4404  0.0764  0.7132
  294SOL    HW1  881   1.803   1.107   2.466 -1.7997 -0.9152 -0.0587
  294SOL    HW2  882   1.775   1.263   2.404 -4.8096 -0.7430  1.5586
  295SOL     OW  883   1.589   1.803   0.221  0.0415  0.1972  0.8566
  295SOL    HW1  884   1.490   1.820   0.212  0.5315  1.2042  0.0753
  295SOL    HW2  885   1.623   1.828   0.310 -3.9987  1.3938 -3.2677
  296SOL     OW  886   1.306   0.730   1.717  0.1265  0.0048 -0.8950
  296SOL    HW1  887   1.401   0.744   1.676  2.8976 -1.1740  0.6461
  296SOL    HW2  888   1.243   0.806   1.692 -1.2299  3.6455 -1.8827
  297SOL     OW  889   2.969   0.782   1.780 -0.4337 -0.3972 -0.3122
  297SOL    HW1  890   2.917   0.727   1.851 -0.8503 -0.5075  0.2545
  297SOL    HW2  891   3.060   0.813   1.809 -1.1313 -0.6473 -0.2063
  298SOL     OW  892   1.114   1.722   1.528  0.2091  0.0445  0.7814
  298SOL    HW1  893   1.107   1.813   1.581 -0.0863  1.4863  0.3740
  298SOL    HW2  894   1.199   1.729   1.467  0.7268 -0.1448 -1.0826
  299SOL     OW  895   1.124   0.085   2.586  0.4131 -0.1710  0.1527
  299SOL    HW1  896   1.203   0.067   2.525 -2.8741  2.6064 -1.2951
  299SOL    HW2  897   1.072   3.083   2.600 -1.0986 -2.5312 -0.7364
  300SOL     OW  898   2.934   1.278   0.022 -0.5597  0.1771 -0.0991
  300SOL    HW1  899   2.949   1.361   0.081  0.2903  1.3766  1.0975
  300SOL    HW2  900   3.017   1.221   0.024 -0.9881  1.6675  0.3300
  301SOL     OW  901   2.055   0.763   2.431  0.3427 -0.3096  0.0393
  301SOL    HW1  902   2.062   0.734   2.334  0.8579  0.9756 -0.0612
  301SOL    HW2  903   2.137   0.819   2.446  0.2653  5.0227 -1.5929
  302SOL     OW  904   2.450   1.872   2.745  0.7732  0.7647  0.0305
  302SOL    HW1  905   2.380   1.878   2.677  0.2900  0.0286 -1.7488
  302SOL    HW2  906   2.534   1.925   2.717  1.2544  1.0972 -0.6306
  303SOL     OW  907   0.197   2.305   2.844  0.1024 -0.1053  0.4770
  303SOL    HW1  908   0.244   2.399   2.843  2.5707  2.7161  0.7435
  303SOL    HW2  909   0.099   2.319   2.861 -0.4524 -0.4107 -1.3354
  304SOL     OW  910   0.362   1.902   1.415 -0.2554 -0.4016  0.5054
  304SOL    HW1  911   0.318   1.864   1.498  0.7339  2.6189  1.3996
  304SOL    HW2  912   0.462   1.934   1.432 -1.0812  0.2984  0.6157
  305SOL     OW  913   2.451   0.738   1.945  0.4494  0.1547  0.1550
  305SOL    HW1  914   2.532   0.720   2.006  0.6124 -0.1632  3.6150
  305SOL    HW2  915   2.476   0.754   1.850 -2.5526 -2.7122  2.2046
  306SOL     OW  916   1.883   1.410   1.256  0.4594 -0.4732 -0.3543
  306SOL    HW1  917   1.832   1.349   1.193  0.5582 -1.8392 -3.2176
  306SOL    HW2  918   1.891   1.375   1.354 -2.0667 -0.2466  1.7074
  307SOL     OW  919   2.987   0.500   0.838 -0.0600  0.0315  0.2127
  307SOL    HW1  920   3.078   0.475   0.790  2.5169  1.8596  1.1550
  307SOL    HW2  921   2.998   0.524   0.939  0.3240  0.5339 -0.3052
  308SOL     OW  922   0.280   1.291   1.547 -0.3500  0.0705  0.1912
  308SOL    HW1  923   0.282   1.378   1.493 -0.4068 -2.3025  0.0771
  308SOL    HW2  924   0.194   1.281   1.596  1.7604  0.9949 -3.7319
  309SOL     OW  925   2.476   2.142   1.838  0.3181  0.1075 -0.3619
  309SOL    HW1  926   2.529   2.197   1.772  1.2770  1.5540  1.8182
  309SOL    HW2  927   2.446   2.205   1.911 -3.9188 -0.4321 -1.4042
  310SOL     OW  928   2.258   1.391   2.572 -0.0138 -0.0399 -0.0548
  310SOL    HW1  929   2.329   1.462   2.604  0.8102  0.4610  1.0903
  310SOL    HW2  930   2.282   1.303   2.622 -1.7188  1.7889  3.2649
  311SOL     OW  931   1.515   1.311   2.995 -0.3875 -0.0778  0.3227
  311SOL    HW1  932   1.479   1.399   3.021 -0.0985 -0.8454  1.0005
  311SOL    HW2  933   1.445   1.239   2.996 -0.6295  1.8595  0.5691
  312SOL     OW  934   1.239   2.015   2.368 -0.1277 -0.0981 -0.3038
  312SOL    HW1  935   1.260   2.103   2.424  0.6760  1.6235  0.9567
  312SOL    HW2  936   1.146   2.018   2.330  0.0147  1.5602 -1.5378
  313SOL     OW  937   0.239   0.395   0.850 -0.3921 -0.4250 -0.3785
  313SOL    HW1  938   0.251   0.490   0.884  0.0896  0.5381  0.2984
  313SOL    HW2  939   0.236   0.335   0.934 -0.9152  1.4465  0.5202
  314SOL     OW  940   0.740   1.947   1.110 -0.0219  0.5643 -0.6373
  314SOL    HW1  941   0.713   2.040   1.144  1.5324  1.1444 -0.1950
  314SOL    HW2  942   0.835   1.927   1.135 -1.9684  0.0523 -0.0654
  315SOL     OW  943   0.435   2.086   2.005 -0.3591 -0.2235  0.4824
  315SOL    HW1  944   0.390   2.170   2.048 -0.5459 -2.4926  0.3696
  315SOL    HW2  945   0.367   2.030   1.956  0.1276  1.6724  2.6549
  316SOL     OW  946   0.283   2.500   0.729  0.0080  0.0381 -0.2568
  316SOL    HW1  947   0.181   2.515   0.712 -0.3646  0.6768  1.5361
  316SOL    HW2  948   0.315   2.572   0.792 -0.1117 -0.4344 -1.2890
  317SOL     OW  949   2.888   0.034   1.336  0.1371 -0.3922  0.3367
  317SOL    HW1  950   2.877   0.101   1.260  0.6601  1.4996 -4.1325
  317SOL    HW2  951   2.888   3.028   1.292 -0.3475 -1.1357  2.1567
  318SOL     OW  952   2.042   2.535   0.148 -0.2711  0.5214  0.2536
  318SOL    HW1  953   2.117   2.535   0.079  0.9694  0.3985 -1.0055
  318SOL    HW2  954   2.079   2.564   0.241  0.4539 -0.1510  2.2174
  319SOL     OW  955   1.457   0.982   2.507 -0.7754 -0.3920  0.5910
  319SOL    HW1  956   1.425   1.024   2.596 -1.6852  0.2371  0.9010
  319SOL    HW2  957   1.457   0.882   2.518  0.0977  0.1742 -2.0016
  320SOL     OW  958   0.133   2.082   2.169  0.2137 -0.0814 -0.3926
  320SOL    HW1  959   0.141   2.144   2.090  1.4022 -0.4707  1.8606
  320SOL    HW2  960   0.133   1.978   2.147  0.9690 -3.2522  1.3609
  321SOL     OW  961   0.699   2.399   0.139 -0.3331  0.2259 -0.3022
  321SOL    HW1  962   0.754   2.469   0.186  1.2182  0.9850 -0.4931
  321SOL    HW2  963   0.633   2.439   0.077  0.0266  1.3310  0.8905
  322SOL     OW  964   2.666   0.625   2.627  0.2728  0.2783 -0.1994
  322SOL    HW1  965   2.692   0.701   2.688 -1.1628 -2.7364 -0.6342
  322SOL    HW2  966   2.568   0.629   2.602 -0.0241  2.4099 -0.5600
  323SOL     OW  967   2.622   1.117   0.891  0.0717  0.2595 -0.6493
  323SOL    HW1  968   2.699   1.186   0.902  2.2849  1.1581  0.0416
  323SOL    HW2  969   2.656   1.058   0.821  0.3080 -0.2887  0.9595
  324SOL     OW  970   0.111   0.335   1.301  0.0303 -0.0071 -0.4630
  324SOL    HW1  971   0.168   0.389   1.366  1.0884  4.5081 -0.0224
  324SOL    HW2  972   0.016   0.323   1.329  0.0020 -2.0111 -1.0683
  325SOL     OW  973   3.086   2.978   1.773  0.0591  0.0471 -0.1266
  325SOL    HW1  974   3.025   2.994   1.693  1.0293 -0.5852  0.0799
  325SOL    HW2  975   0.061   3.053   1.793  1.1799  3.3492  3.0728
  326SOL     OW  976   1.966   2.860   0.377 -0.1510 -0.1524  0.2302
  326SOL    HW1  977   2.069   2.863   0.382  0.4573 -0.8300 -1.2704
  326SOL    HW2  978   1.940   2.818   0.286  1.3706  1.5324 -1.8374
  327SOL     OW  979   1.951   1.628   0.562 -0.0476 -0.2389 -0.1437
  327SOL    HW1  980   1.950   1.718   0.514 -2.5600  2.2272  0.6538
  327SOL    HW2  981   1.881   1.559   0.525  3.3033 -4.1435  1.8803
  328SOL     OW  982   0.113   2.025   2.431  0.4269  0.2315 -0.1229
  328SOL    HW1  983   0.165   2.092   2.492 -2.0561 -0.9053  1.1649
  328SOL    HW2  984   0.093   2.058   2.334 -1.9232  0.7899 -1.6118
  329SOL     OW  985   0.208   2.218   1.452 -0.0629  0.1362  0.3983
  329SOL    HW1  986   0.275   2.230   1.373  0.8635  2.4212 -2.2451
  329SOL    HW2  987   0.242   2.164   1.531 -0.2540  1.3142 -0.9479
  330SOL     OW  988   2.411   1.182   2.704  0.2235 -0.2257 -0.4272
  330SOL    HW1  989   2.489   1.127   2.668  0.0833  0.2148  1.0568
  330SOL    HW2  990   2.345   1.121   2.751  0.1416  4.7945  0.3229
  331SOL     OW  991   2.658   1.995   0.912  0.2243  0.8645 -0.1316
  331SOL    HW1  992   2.662   2.027   1.008 -1.2291  2.0925  0.3115
  331SOL    HW2  993   2.577   2.039   0.871 -1.6937 -3.4676  1.4995
  332SOL     OW  994   0.588   2.821   0.669 -0.0016  0.3538 -0.1960
  332SOL    HW1  995   0.506   2.871   0.709 -3.2918 -0.8862  1.2242
  332SOL    HW2  996   0.673   2.833   0.728  2.1002  1.2626 -0.0316
  333SOL     OW  997   2.237   1.885   2.535 -0.6196  0.1155 -0.1628
  333SOL    HW1  998   2.159   1.920   2.479 -0.7161 -0.3657 -1.4841
  333SOL    HW2  999   2.313   1.883   2.470 -2.2863  1.0233  1.5100
  334SOL     OW 1000   0.635   1.384   0.754  0.3076 -0.3751 -0.0682
  334SOL    HW1 1001   0.535   1.376   0.770 -1.1312 -0.4436  1.4170
  334SOL    HW2 1002   0.666   1.474   0.720 -0.0689 -1.8401  1.1520
  335SOL     OW 1003   2.956   1.931   2.416 -0.3843  0.2853  0.0907
  335SOL    HW1 1004   3.046   1.950   2.464  2.9876  1.0894  0.3089
  335SOL    HW2 1005   2.895   1.861   2.457  1.9554 -0.3375 -0.3011
  336SOL     OW 1006   2.512   2.780   2.138  0.3156 -0.2745  0.3632
  336SOL    HW1 1007   2.425   2.783   2.195  0.7319  0.0363  2.1332
  336SOL    HW2 1008   2.512   2.862   2.078  3.1999 -0.0680  0.1975
  337SOL     OW 1009   0.763   0.796   0.695 -0.4175  0.5332 -0.2312
  337SOL    HW1 1010   0.831   0.823   0.628 -1.4905  0.3260 -0.3290
  337SOL    HW2 1011   0.715   0.883   0.723 -1.6567  0.7314 -1.7068
  338SOL     OW 1012   1.182   1.846   0.875 -0.4618 -0.3522  0.8767
  338SOL    HW1 1013   1.164   1.893   0.965 -1.8457 -2.0650 -0.1136
  338SOL    HW2 1014   1.234   1.906   0.809  0.6383 -0.7201 -0.4933
  339SOL     OW 1015   0.288   1.740   1.641  0.2854  0.1892 -0.2218
  339SOL    HW1 1016   0.205   1.779   1.685  0.3170  1.4598  1.4025
  339SOL    HW2 1017   0.314   1.655   1.692 -0.1002  2.1068 -1.0836
  340SOL     OW 1018   1.180   3.048   1.747 -0.0932 -0.3372 -0.8002
  340SOL    HW1 1019   1.217   0.057   1.739 -2.0707 -1.6980 -0.6047
  340SOL    HW2 1020   1.197   3.009   1.840 -1.4916 -2.2530 -1.3721
  341SOL     OW 1021   1.554   1.648   1.191  0.0865  0.4254  0.1849
  341SOL    HW1 1022   1.550   1.709   1.110 -0.3851  1.1563  3.5718
  341SOL    HW2 1023   1.651   1.640   1.217 -1.0029 -1.4948 -4.4043
  342SOL     OW 1024   2.560   1.474   1.014 -0.5445 -0.8272  0.0829
  342SOL    HW1 1025   2.638   1.411   1.018 -3.0285 -2.0833 -1.0963
  342SOL    HW2 1026   2.496   1.447   1.082  0.8961  1.6942 -2.0801
  343SOL     OW 1027   2.196   0.285   1.059 -0.0627  0.3705 -0.3123
  343SOL    HW1 1028   2.265   0.355   1.086 -1.3763  4.0471 -0.2780
  343SOL    HW2 1029   2.216   0.249   0.964  0.7510 -0.6055 -1.3282
  344SOL     OW 1030   2.497   0.187   0.512 -0.1312  0.3300  0.3657
  344SOL    HW1 1031   2.415   0.239   0.492  2.9992 -0.9954  0.1961
  344SOL    HW2 1032   2.550   0.218   0.591  1.5440  0.3227 -1.4278
  345SOL     OW 1033   0.763   2.879   1.847 -0.4026  0.4555 -0.1592
  345SOL    HW1 1034   0.738   2.846   1.940  0.8111 -0.6862 -2.0041
  345SOL    HW2 1035   0.687   2.871   1.787  3.5515 -0.5919  0.1803
  346SOL     OW 1036   2.561   2.023   0.576 -0.4389  0.1851 -0.3027
  346SOL    HW1 1037   2.647   1.974   0.593  0.8320 -2.9819 -0.6170
  346SOL    HW2 1038   2.534   2.086   0.649 -0.9086  0.2307 -2.4437
  347SOL     OW 1039   2.635   2.901   1.247 -0.0544  0.4399  0.2522
  347SOL    HW1 1040   2.603   2.812   1.223 -0.8592  3.5514  0.6934
  347SOL    HW2 1041   2.554   2.960   1.261 -0.6403  1.8856  0.5612
  348SOL     OW 1042   1.208   1.042   1.382 -0.2241 -0.0494  0.0853
  348SOL    HW1 1043   1.288   1.073   1.324 -0.7286  0.0445 -1.2711
  348SOL    HW2 1044   1.149   0.983   1.329  1.2907 -0.3010  0.5391
  349SOL     OW 1045   2.393   0.636   2.574 -0.6067 -0.1625  0.4829
  349SOL    HW1 1046   2.402   0.541   2.533  2.4171 -0.3696 -0.4422
  349SOL    HW2 1047   2.314   0.636   2.639 -0.8577  4.6108  1.9573
  350SOL     OW 1048   1.879   2.525   0.520 -0.3733 -0.1617 -0.5010
  350SOL    HW1 1049   1.845   2.434   0.545  0.2200  0.3622  0.8533
  350SOL    HW2 1050   1.968   2.525   0.467  1.6117 -0.9913 -1.5163
  351SOL     OW 1051   1.315   0.472   0.125 -0.0001 -0.0834 -0.1929
  351SOL    HW1 1052   1.382   0.420   0.069 -2.9696  2.7998 -0.7774
  351SOL    HW2 1053   1.241   0.503   0.059 -0.8545  1.3655 -1.2922
  352SOL     OW 1054   2.061   2.574   2.256  0.4830 -0.0566 -0.6343
  352SOL    HW1 1055   2.004   2.618   2.327 -3.1229  0.3448 -2.0828
  352SOL    HW2 1056   2.016   2.585   2.166 -0.4232  1.2415  0.6253
  353SOL     OW 1057   0.435   1.152   2.589 -0.2324 -0.3341  0.5740
  353SOL    HW1 1058   0.342   1.153   2.551 -0.2398  1.5727 -1.5163
  353SOL    HW2 1059   0.496   1.188   2.512 -1.4048  2.4408 -1.7205
  354SOL     OW 1060   0.476   2.933   2.559  0.5359 -0.3130 -0.0231
  354SOL    HW1 1061   0.557   2.925   2.499 -0.6567 -3.4723  1.3023
  354SOL    HW2 1062   0.509   2.970   2.649 -0.9445 -0.2709  0.7415
  355SOL     OW 1063   2.439   2.631   1.403  0.3382 -0.4936 -0.3596
  355SOL    HW1 1064   2.425   2.670   1.497  0.1576  0.0983 -2.9381
  355SOL    HW2 1065   2.431   2.529   1.408  0.5890 -1.9528 -0.5693
  356SOL     OW 1066   2.975   0.795   0.604  0.3006  0.3211  0.5791
  356SOL    HW1 1067   2.969   0.863   0.525  0.2347 -0.6759 -2.2611
  356SOL    HW2 1068   2.890   0.799   0.658  1.7438  0.0129  1.0170
  357SOL     OW 1069   0.009   0.181   1.545  0.5401  0.0342  0.1147
  357SOL    HW1 1070   3.064   0.190   1.641 -0.2010 -1.2487 -2.8128
  357SOL    HW2 1071   3.022   0.198   1.480  1.0453 -2.6587  0.3989
  358SOL     OW 1072   2.883   1.618   1.491 -0.5399 -0.1068  0.1873
  358SOL    HW1 1073   2.857   1.521   1.485 -1.1734 -1.6643  0.4820
  358SOL    HW2 1074   2.799   1.680   1.472 -0.7355  1.3781 -0.3192
  359SOL     OW 1075   2.420   2.642   2.784 -0.0148  0.0627 -0.2127
  359SOL    HW1 1076   2.477   2.602   2.706  3.2593  0.9749 -0.1522
  359SOL    HW2 1077   2.325   2.663   2.751 -1.0927  0.2877 -0.7699
  360SOL     OW 1078   1.299   0.646   1.356 -0.5473  0.3641 -0.1104
  360SOL    HW1 1079   1.216   0.595   1.392 -0.2838 -0.4264  1.6604
  360SOL    HW2 1080   1.369   0.672   1.425  0.2698 -0.0715 -3.3630
  361SOL     OW 1081   2.573   2.368   1.266  0.1216 -0.1481 -0.0978
  361SOL    HW1 1082   2.656   2.327   1.318  0.0147 -0.2165  0.7337
  361SOL    HW2 1083   2.606   2.432   1.194  0.1750  2.3058 -2.1994
  362SOL     OW 1084   1.371   0.380   0.436  0.5587  0.4738 -0.2129
  362SOL    HW1 1085   1.295   0.451   0.434  0.3665  1.1340 -0.5299
  362SOL    HW2 1086   1.361   0.307   0.506  1.6569  1.7486  1.5176
  363SOL     OW 1087   1.719   1.271   1.091 -0.7463 -0.2017 -0.3066
  363SOL    HW1 1088   1.639   1.301   1.144  0.7163 -1.2916 -1.0950
  363SOL    HW2 1089   1.721   1.312   0.994  1.9634 -3.2764 -1.5490
  364SOL     OW 1090   0.222   0.843   1.553 -0.1817  0.3822  0.9166
  364SOL    HW1 1091   0.272   0.780   1.486  2.5222 -3.4803 -1.5643
  364SOL    HW2 1092   0.219   0.935   1.514  1.3143 -1.7606  0.6121
  365SOL     OW 1093   2.764   0.546   1.069  0.4446 -0.3258 -0.5245
  365SOL    HW1 1094   2.864   0.529   1.075 -3.1544 -0.0667  0.1378
  365SOL    HW2 1095   2.714   0.538   1.158  3.6318  0.7295  0.9222
  366SOL     OW 1096   2.750   1.353   0.680  0.2257 -0.0956  0.0038
  366SOL    HW1 1097   2.707   1.429   0.734 -0.4393  1.8865 -0.3183
  366SOL    HW2 1098   2.845   1.334   0.719  1.0543 -3.3636 -0.1504
  367SOL     OW 1099   2.081   1.956   2.308 -0.3377  0.1077  0.4366
  367SOL    HW1 1100   2.071   2.059   2.298  0.6512  0.1146 -1.0896
  367SOL    HW2 1101   2.167   1.923   2.269 -0.4276 -0.8331  1.2844
  368SOL     OW 1102   2.421   1.982   1.385 -0.0913  0.3012  0.2946
  368SOL    HW1 1103   2.389   1.938   1.470  0.2872 -0.4054 -0.1775
  368SOL    HW2 1104   2.446   1.908   1.322 -1.4177  0.2945  1.4903
  369SOL     OW 1105   2.020   2.933   2.830  0.1640  0.5121 -0.2393
  369SOL    HW1 1106   2.076   3.007   2.788 -0.3994 -2.9147  3.7010
  369SOL    HW2 1107   2.071   2.882   2.903 -1.7733  0.8491  1.4977
  370SOL     OW 1108   0.754   0.330   1.087  0.5500 -0.4099 -0.2796
  370SOL    HW1 1109   0.711   0.309   0.998  0.5617  1.9125  2.4456
  370SOL    HW2 1110   0.822   0.263   1.121  0.3735 -0.0875  0.4155
  371SOL     OW 1111   0.548   1.457   0.418 -0.1394 -0.2676 -0.3126
  371SOL    HW1 1112   0.613   1.405   0.361 -4.1493 -1.4596 -0.0595
  371SOL    HW2 1113   0.599   1.505   0.488 -2.1091  0.4799 -1.1848
  372SOL     OW 1114   0.418   0.883   2.634  0.8409 -0.1064  0.1422
  372SOL    HW1 1115   0.435   0.822   2.556 -0.8312  0.3375  0.2580
  372SOL    HW2 1116   0.427   0.981   2.612  0.0132 -1.5245  3.4546
  373SOL     OW 1117   1.196   2.800   2.857 -0.1407 -0.4978 -0.0685
  373SOL    HW1 1118   1.156   2.880   2.907 -2.1054 -0.3907 -1.3093
  373SOL    HW2 1119   1.279   2.845   2.808 -0.3217  2.6316 -0.1973
  374SOL     OW 1120   1.040   1.739   0.455 -0.2937  0.5854 -0.6565
  374SOL    HW1 1121   1.121   1.700   0.400  1.8631 -2.8393  1.7495
  374SOL    HW2 1122   1.008   1.662   0.518 -0.7086 -0.0242 -0.4897
  375SOL     OW 1123   0.645   0.715   1.773  0.5990  0.3357  0.1872
  375SOL    HW1 1124   0.679   0.740   1.863 -2.3374  1.4705  0.2852
  375SOL    HW2 1125   0.727   0.699   1.709  0.2051 -1.4122 -1.1659
  376SOL     OW 1126   0.040   2.388   1.595  0.3667  0.6029  0.2723
  376SOL    HW1 1127   0.104   2.317   1.573 -0.2851  2.1341 -0.2629
  376SOL    HW2 1128   0.097   2.462   1.638 -0.7685 -0.1358  2.3635
  377SOL     OW 1129   2.771   1.714   2.947 -0.1475  0.3290  0.4412
  377SOL    HW1 1130   2.679   1.709   2.912  1.0453  0.2404 -2.0919
  377SOL    HW2 1131   2.843   1.667   2.890  0.2879 -0.8965  0.2513
  378SOL     OW 1132   1.788   2.846   3.008 -0.1413  0.1513  0.2582
  378SOL    HW1 1133   1.819   2.807   0.007 -0.0690  0.1869  0.0911
  378SOL    HW2 1134   1.856   2.901   2.957 -0.7632 -3.4723 -1.7075
  379SOL     OW 1135   1.991   0.515   0.672  0.5557  0.2425  0.0620
  379SOL    HW1 1136   2.005   0.424   0.638 -0.0880  1.2700  0.7208
  379SOL    HW2 1137   2.067   0.550   0.727 -0.4718  0.4507 -2.0867
  380SOL     OW 1138   2.811   1.755   1.947 -0.1860 -0.2634 -0.0139
  380SOL    HW1 1139   2.892   1.734   1.881 -0.6006 -1.9272  0.0239
  380SOL    HW2 1140   2.840   1.830   2.012 -1.3852  0.6919 -0.1423
  381SOL     OW 1141   2.190   1.491   2.329  0.0693 -0.0039 -0.3725
  381SOL    HW1 1142   2.251   1.491   2.247 -0.1271 -1.4417  1.2076
  381SOL    HW2 1143   2.236   1.452   2.415 -0.3063 -1.9281  0.9854
  382SOL     OW 1144   2.906   2.828   2.761  0.1463 -0.4522 -0.2485
  382SOL    HW1 1145   2.845   2.787   2.830 -2.3547 -0.3779 -2.3448
  382SOL    HW2 1146   2.858   2.894   2.701  1.4340  2.0564 -0.7637
  383SOL     OW 1147   0.968   1.248   0.125 -0.6608 -0.2655  0.4284
  383SOL    HW1 1148   1.022   1.255   0.037  0.1566  0.5504 -0.3352
  383SOL    HW2 1149   1.000   1.308   0.197  1.6403 -0.2982  0.2468
  384SOL     OW 1150   1.305   2.032   1.535 -0.2904  0.5135  0.3739
  384SOL    HW1 1151   1.273   2.129   1.525  1.8332 -0.1901 -0.8232
  384SOL    HW2 1152   1.310   1.989   1.441  0.8669 -0.1465 -4.2009
  385SOL     OW 1153   1.859   2.609   0.907 -0.0973 -0.1583  0.3827
  385SOL    HW1 1154   1.852   2.688   0.848  0.6066 -2.7550  1.5177
  385SOL    HW2 1155   1.769   2.570   0.931  0.5117 -0.7544 -0.2074
  386SOL     OW 1156   1.823   1.575   0.810  0.0996 -0.3022  0.1666
  386SOL    HW1 1157   1.868   1.632   0.878  0.2784 -2.0164  0.0764
  386SOL    HW2 1158   1.853   1.601   0.715  1.2927 -0.2565  2.1838
  387SOL     OW 1159   2.652   2.070   1.180 -0.0715  0.5426  0.3738
  387SOL    HW1 1160   2.699   2.161   1.169 -0.4809 -1.1899  1.6552
  387SOL    HW2 1161   2.573   2.072   1.244  1.3100 -1.5609 -3.1997
  388SOL     OW 1162   3.005   1.040   1.643 -0.0695  0.2662  0.3834
  388SOL    HW1 1163   3.034   1.054   1.545 -2.1406  1.0099 -2.1901
  388SOL    HW2 1164   3.003   0.941   1.659 -3.7816  1.1934  0.4747
  389SOL     OW 1165   2.269   0.570   0.170 -0.2417  0.2523  0.1311
  389SOL    HW1 1166   2.214   0.562   0.254 -1.0433 -2.0961 -1.7440
  389SOL    HW2 1167   2.324   0.483   0.155  1.2912 -1.2178  2.0388
  390SOL     OW 1168   1.208   1.594   2.747 -0.2584 -0.3066 -0.5322
  390SOL    HW1 1169   1.167   1.658   2.686 -1.6084 -0.4640  2.0086
  390SOL    HW2 1170   1.270   1.523   2.703 -0.0011 -0.7526 -2.6558
  391SOL     OW 1171   1.140   2.269   2.827  0.2294  0.2690 -0.2219
  391SOL    HW1 1172   1.132   2.203   2.903 -1.0173  1.2629 -0.3380
  391SOL    HW2 1173   1.049   2.298   2.794  0.3409  3.2064  2.4339
  392SOL     OW 1174   0.203   2.580   1.733  1.0213  0.2918 -0.2591
  392SOL    HW1 1175   0.239   2.603   1.826  1.4979 -2.1717 -0.7508
  392SOL    HW2 1176   0.279   2.531   1.681  3.3426  1.4988 -2.4891
  393SOL     OW 1177   1.090   2.267   0.173  0.4686  0.6619 -0.0610
  393SOL    HW1 1178   1.095   2.211   0.088  1.2328  2.1578  0.2994
  393SOL    HW2 1179   1.149   2.230   0.244 -2.3368 -2.3985 -0.5871
  394SOL     OW 1180   0.531   0.714   2.401 -0.1445 -0.1316  0.3351
  394SOL    HW1 1181   0.603   0.739   2.471  1.2438  0.7656 -1.0379
  394SOL    HW2 1182   0.520   0.615   2.395 -1.4343  0.3926 -0.4671
  395SOL     OW 1183   0.504   1.269   1.153 -0.0126  0.6131  0.1345
  395SOL    HW1 1184   0.537   1.224   1.070  0.4519 -1.1713  2.1543
  395SOL    HW2 1185   0.404   1.271   1.164  1.7593  3.2322 -2.9393
  396SOL     OW 1186   1.665   1.157   2.137 -0.4424 -0.2729 -0.8928
  396SOL    HW1 1187   1.593   1.096   2.164  2.6304  2.8006  2.8068
  396SOL    HW2 1188   1.662   1.242   2.195 -0.5921 -0.5221  0.7222
  397SOL     OW 1189   0.760   0.469   0.316 -0.6387 -0.7305 -0.3732
  397SOL    HW1 1190   0.673   0.429   0.271  0.4397 -0.1482 -2.2787
  397SOL    HW2 1191   0.744   0.535   0.393  0.1713 -0.8246  0.0432
  398SOL     OW 1192   0.892   2.381   2.767 -0.7094 -0.0906 -0.3263
  398SOL    HW1 1193   0.912   2.484   2.781 -0.4512  1.3874 -1.2429
  398SOL    HW2 1194   0.871   2.337   2.858  1.5681 -1.4305 -0.8948
  399SOL     OW 1195   1.496   1.943   2.351 -1.1044 -0.0994  0.5295
  399SOL    HW1 1196   1.401   1.967   2.375 -0.4622  1.4917  2.6835
  399SOL    HW2 1197   1.532   1.856   2.395  1.6330  0.7202  2.3917
  400SOL     OW 1198   2.196   1.642   1.475 -0.0297  0.1220  0.2866
  400SOL    HW1 1199   2.207   1.655   1.371 -0.3811 -0.3699 -1.5382
  400SOL    HW2 1200   2.146   1.552   1.498 -0.7157 -0.9051  1.1179
  401SOL     OW 1201   1.350   1.001   1.017 -0.1706 -0.2090  0.5283
  401SOL    HW1 1202   1.380   1.040   0.926  0.1363  0.1836 -0.6693
  401SOL    HW2 1203   1.252   0.972   1.010 -1.0447  0.4915  0.3931
  402SOL     OW 1204   3.080   2.508   2.004  0.4188 -0.1617  0.6541
  402SOL    HW1 1205   3.059   2.582   1.941 -0.1376 -2.6196  0.8419
  402SOL    HW2 1206   0.055   2.544   2.073 -0.8702  0.0976  0.5516
  403SOL     OW 1207   3.005   1.725   1.749 -0.5339  0.0387 -0.1381
  403SOL    HW1 1208   2.969   1.817   1.722 -1.8805 -2.2399  0.1614
  403SOL    HW2 1209   3.003   1.664   1.673  0.9718 -0.3766 -0.0860
  404SOL     OW 1210   2.023   1.872   1.279  0.1744  0.1661  0.4138
  404SOL    HW1 1211   1.968   1.916   1.355  1.1087 -2.5371  1.7769
  404SOL    HW2 1212   2.037   1.936   1.204  0.8366 -1.9306 -0.4771
  405SOL     OW 1213   2.614   0.231   2.931 -0.2502 -0.0518  0.6153
  405SOL    HW1 1214   2.610   0.258   3.024 -1.7387  0.9999 -2.2025
  405SOL    HW2 1215   2.676   0.291   2.870  1.5847  1.0551 -3.4137
  406SOL     OW 1216   0.900   1.535   2.556  0.1798  0.3572 -0.0071
  406SOL    HW1 1217   0.866   1.628   2.586 -1.6106 -2.4888  0.1111
  406SOL    HW2 1218   0.870   1.462   2.623 -1.8151 -2.0581  3.3978
  407SOL     OW 1219   1.845   2.729   0.166 -0.0343  0.0132  0.4357
  407SOL    HW1 1220   1.903   2.647   0.154  0.4130 -1.2149  0.4586
  407SOL    HW2 1221   1.762   2.711   0.221  1.0673  0.9349 -2.0773
  408SOL     OW 1222   0.369   2.978   0.725  0.6059  0.3033  0.4041
  408SOL    HW1 1223   0.342   3.055   0.662  0.3025 -0.6236 -0.9613
  408SOL    HW2 1224   0.305   2.898   0.723  1.5039  1.8860 -0.9215
  409SOL     OW 1225   2.313   1.920   0.849  0.0916  0.1159  0.5215
  409SOL    HW1 1226   2.227   1.878   0.826  0.3666  1.3437 -0.1534
  409SOL    HW2 1227   2.374   1.845   0.888 -2.5481 -0.3953  0.8676
  410SOL     OW 1228   2.085   2.081   2.916 -0.7456 -0.1707  0.0722
  410SOL    HW1 1229   2.172   2.061   2.968  1.0075  2.4290  0.3810
  410SOL    HW2 1230   2.023   2.003   2.930  2.1692 -0.5256  2.6501
  411SOL     OW 1231   0.080   0.478   0.643  0.1357 -0.2218 -0.6112
  411SOL    HW1 1232   0.106   0.562   0.600 -0.4467 -1.4905  0.7637
  411SOL    HW2 1233   0.148   0.448   0.710 -2.2587 -1.0387  1.9023
  412SOL     OW 1234   1.634   2.595   0.275 -0.1962  0.0194 -0.3170
  412SOL    HW1 1235   1.620   2.618   0.374 -0.6556  0.4591 -0.3347
  412SOL    HW2 1236   1.569   2.654   0.217 -3.4325  2.4885 -1.2038
  413SOL     OW 1237   1.929   0.400   2.128  0.5955  0.1469 -0.2722
  413SOL    HW1 1238   1.984   0.432   2.043  0.8003  0.1092 -0.5249
  413SOL    HW2 1239   1.908   0.304   2.122  1.3774  0.9766 -1.4351
  414SOL     OW 1240   0.158   0.171   0.422 -0.4901  0.6408 -0.3915
  414SOL    HW1 1241   0.080   0.237   0.412 -0.3477  2.7988 -0.9431
  414SOL    HW2 1242   0.166   0.151   0.521 -0.7982  0.9453 -1.2009
  415SOL     OW 1243   0.730   1.733   1.331 -0.2721  0.0196  0.2133
  415SOL    HW1 1244   0.709   1.820   1.369  1.1033 -1.0510 -0.9564
  415SOL    HW2 1245   0.648   1.667   1.346 -4.1309 -3.6981  0.4948
  416SOL     OW 1246   0.317   2.802   0.141 -0.4786 -0.3107  0.0842
  416SOL    HW1 1247   0.279   2.895   0.148  0.0505  0.7243 -1.5554
  416SOL    HW2 1248   0.290   2.731   0.211  0.0491 -0.9458 -3.8793
  417SOL     OW 1249   2.778   2.940   1.029  0.2941 -0.0615  0.2048
  417SOL    HW1 1250   2.721   2.951   1.112 -1.9683 -0.0810  0.5415
  417SOL    HW2 1251   2.737   2.990   0.953  3.5846  0.2690  0.6759
  418SOL     OW 1252   0.665   0.321   2.558  0.7488  0.0283  0.2945
  418SOL    HW1 1253   0.572   0.292   2.586  1.5966 -1.1674  2.0347
  418SOL    HW2 1254   0.711   0.360   2.642 -1.4191 -0.0707  0.1786
  419SOL     OW 1255   0.366   1.388   0.793 -0.3249  1.0606  0.0921
  419SOL    HW1 1256   0.299   1.367   0.721  1.8880  1.7163  2.7780
  419SOL    HW2 1257   0.356   1.479   0.840 -1.1951 -0.7992 -1.9609
  420SOL     OW 1258   1.669   1.833   1.003 -0.6342 -0.0250 -0.4012
  420SOL    HW1 1259   1.770   1.821   1.006 -0.4979  4.3740 -1.1417
  420SOL    HW2 1260   1.640   1.830   0.904 -4.8771 -1.7022 -1.1942
  421SOL     OW 1261   1.854   1.964   2.091  0.0343  0.7617 -1.1595
  421SOL    HW1 1262   1.782   1.892   2.094  0.7055  4.4998 -0.3203
  421SOL    HW2 1263   1.910   1.971   2.174  2.2552 -1.0714  0.1203
  422SOL     OW 1264   2.910   0.595   2.963  1.0600 -0.4874  0.3605
  422SOL    HW1 1265   2.993   0.541   2.945 -1.8700 -3.1736  1.7897
  422SOL    HW2 1266   2.903   0.594   3.062 -1.0999  0.3836 -2.4554
  423SOL     OW 1267   1.472   2.234   0.816 -0.2677  0.2763  0.2538
  423SOL    HW1 1268   1.494   2.211   0.718 -0.4660 -0.4713 -1.4852
  423SOL    HW2 1269   1.373   2.244   0.809  2.3107  2.9891 -4.7637
  424SOL     OW 1270   0.651   1.400   1.542 -0.8210  0.1823  0.5495
  424SOL    HW1 1271   0.607   1.317   1.582  0.1637  0.6391  0.2191
  424SOL    HW2 1272   0.648   1.477   1.607  2.6364 -1.2898 -2.9512
  425SOL     OW 1273   2.747   2.430   2.072 -0.5010 -0.3896  0.3712
  425SOL    HW1 1274   2.788   2.473   1.984 -1.8684 -0.9422 -2.8489
  425SOL    HW2 1275   2.801   2.361   2.120 -2.5197  1.3116  0.0201
  426SOL     OW 1276   2.091   2.805   0.714  0.3034 -0.5421  0.4449
  426SOL    HW1 1277   1.986   2.799   0.699  0.2808 -2.2129  1.8860
  426SOL    HW2 1278   2.115   2.907   0.718  1.7251  2.1700  0.7983
  427SOL     OW 1279   0.640   0.897   2.811  0.2889  0.0133  0.4513
  427SOL    HW1 1280   0.553   0.875   2.759  1.2227 -1.0912 -0.7519
  427SOL    HW2 1281   0.623   0.901   2.909 -0.3725 -2.0764  0.5613
  428SOL     OW 1282   2.029   1.293   0.246  0.1543 -0.1620  0.3250
  428SOL    HW1 1283   1.993   1.198   0.253 -2.8196  1.0137 -1.7284
  428SOL    HW2 1284   1.966   1.343   0.182 -1.0108  4.2818 -0.0385
  429SOL     OW 1285   3.077   3.044   0.388  0.0269 -0.3807 -0.3706
  429SOL    HW1 1286   0.024   0.052   0.405 -0.7827  2.6699 -0.9830
  429SOL    HW2 1287   3.004   3.005   0.448  1.0536  1.2472 -1.0702
  430SOL     OW 1288   0.616   2.952   2.284  0.0708  0.1036  0.0026
  430SOL    HW1 1289   0.656   3.032   2.331 -1.7563 -1.6420  1.5717
  430SOL    HW2 1290   0.548   2.981   2.215  0.8229  0.3392 -0.1843
  431SOL     OW 1291   2.865   1.183   1.276 -0.2027 -0.1854 -0.6472
  431SOL    HW1 1292   2.855   1.260   1.342 -1.1262  0.3391  0.1903
  431SOL    HW2 1293   2.940   1.119   1.306  0.1292 -1.6064 -2.4670
  432SOL     OW 1294   1.882   2.504   1.779  0.0976  0.3590  0.6087
  432SOL    HW1 1295   1.961   2.514   1.711  2.4866  1.2790  0.9681
  432SOL    HW2 1296   1.871   2.406   1.813 -0.7924 -0.3185  0.3035
  433SOL     OW 1297   1.235   1.745   0.042  0.1631  0.7259 -0.7177
  433SOL    HW1 1298   1.181   1.677   0.102 -1.5916 -0.2936  2.2639
  433SOL    HW2 1299   1.178   1.784   3.054 -0.3291 -2.1407 -1.2433
  434SOL     OW 1300   0.259   2.192   2.585  0.3159 -0.4242 -0.5178
  434SOL    HW1 1301   0.299   2.245   2.506  0.4705  1.2982  0.6760
  434SOL    HW2 1302   0.214   2.255   2.654 -0.6239  0.4035 -0.6712
  435SOL     OW 1303   0.312   0.629   0.528  0.2021  0.2122  0.4858
  435SOL    HW1 1304   0.294   0.619   0.427 -1.1784 -2.7197 -1.5481
  435SOL    HW2 1305   0.339   0.721   0.555 -0.7269  1.1271 -0.2896
  436SOL     OW 1306   0.263   2.830   1.628  1.3334 -0.1694 -0.3147
  436SOL    HW1 1307   0.235   2.743   1.682  0.5224 -2.6660  1.7627
  436SOL    HW2 1308   0.215   2.829   1.542 -0.2864 -3.5928  2.0346
  437SOL     OW 1309   0.904   2.227   1.364  0.6812 -0.0827 -0.4193
  437SOL    HW1 1310   0.936   2.172   1.445 -1.0298 -1.1192  0.9752
  437SOL    HW2 1311   0.975   2.213   1.293  1.1832 -1.4146  2.0018
  438SOL     OW 1312   0.069   1.923   0.860 -0.5617 -0.0971  0.0273
  438SOL    HW1 1313   0.158   1.951   0.916  2.3073 -0.9475 -0.2299
  438SOL    HW2 1314   0.092   1.943   0.764 -0.9981 -2.1694 -0.4452
  439SOL     OW 1315   0.233   0.235   1.072  0.2087  0.1381  0.3543
  439SOL    HW1 1316   0.201   0.284   1.153  0.4993 -1.0210 -3.4032
  439SOL    HW2 1317   0.317   0.189   1.102 -1.0834  1.2534 -1.6131
  440SOL     OW 1318   2.929   2.701   2.222  0.0492 -0.5261 -0.0515
  440SOL    HW1 1319   2.870   2.709   2.302 -1.4320 -1.7380  1.6306
  440SOL    HW2 1320   2.903   2.625   2.156  1.4085 -1.1940  0.5244
  441SOL     OW 1321   3.031   0.592   1.570  0.7138 -0.2912  0.3118
  441SOL    HW1 1322   3.015   0.653   1.648 -0.3005  1.9308 -0.3334
  441SOL    HW2 1323   3.002   0.497   1.596  0.0905 -0.5170 -0.3836
  442SOL     OW 1324   1.804   2.362   3.035 -0.2889  0.1137 -0.0452
  442SOL    HW1 1325   1.844   2.282   3.084 -0.2465  0.3303 -0.1297
  442SOL    HW2 1326   1.714   2.383   3.070  0.2918  0.1065 -2.4427
  443SOL     OW 1327   0.585   0.912   3.084 -0.1668  0.5515 -0.3261
  443SOL    HW1 1328   0.502   0.859   3.062 -1.7083  0.7986 -2.3375
  443SOL    HW2 1329   0.620   0.908   0.092 -0.1989  1.0804 -0.3467
  444SOL     OW 1330   1.347   1.483   2.042 -0.5583  0.1082 -0.5710
  444SOL    HW1 1331   1.323   1.555   1.980  0.6650 -1.5181 -0.2805
  444SOL    HW2 1332   1.267   1.426   2.072  0.3092  0.2639  2.2586
  445SOL     OW 1333   0.066   2.981   1.140  0.1998  0.3432 -0.1898
  445SOL    HW1 1334   0.060   3.042   1.060  1.1593  4.1287  1.3069
  445SOL    HW2 1335   0.121   3.033   1.212  4.3150  2.3506  2.5950
  446SOL     OW 1336   2.423   0.707   1.251 -0.1583  0.8329 -0.1168
  446SOL    HW1 1337   2.464   0.784   1.193  0.1736 -0.0120 -1.5899
  446SOL    HW2 1338   2.328   0.731   1.274 -1.9038 -0.8458  2.7080
  447SOL     OW 1339   0.340   0.711   3.030  0.1229  0.2126 -0.0784
  447SOL    HW1 1340   0.416   0.642   3.014 -0.7285 -1.6987 -1.9786
  447SOL    HW2 1341   0.265   0.692   2.965  1.0493 -3.7404 -0.9725
  448SOL     OW 1342   1.217   2.318   1.584 -0.1722 -0.3844  0.4504
  448SOL    HW1 1343   1.267   2.313   1.673  0.9141 -0.0505  0.1591
  448SOL    HW2 1344   1.211   2.414   1.553 -2.2427  2.1830  0.8002
  449SOL     OW 1345   1.252   1.183   0.644 -0.0849 -0.6427 -0.3577
  449SOL    HW1 1346   1.318   1.191   0.729  0.2928  0.2734  1.9761
  449SOL    HW2 1347   1.248   1.087   0.614  1.1699  0.6551 -2.2977
  450SOL     OW 1348   2.477   1.694   2.034  0.0437 -0.0283  0.1394
  450SOL    HW1 1349   2.549   1.725   2.101  0.3473 -1.0077  1.4419
  450SOL    HW2 1350   2.423   1.778   2.005 -2.2747 -0.3679  1.4935
  451SOL     OW 1351   2.829   1.281   2.865 -0.0292 -0.6572  0.2923
  451SOL    HW1 1352   2.735   1.317   2.862  3.0625 -0.7735 -1.1094
  451SOL    HW2 1353   2.877   1.288   2.959  2.1685  0.0895  1.6279
  452SOL     OW 1354   1.691   0.660   1.254 -0.2595  0.2386  0.4787
  452SOL    HW1 1355   1.608   0.612   1.222 -0.0375  2.9244 -0.7393
  452SOL    HW2 1356   1.657   0.746   1.296  1.8558  0.2224  2.3678
  453SOL     OW 1357   2.091   0.973   1.047  0.4798  0.1243  0.3254
  453SOL    HW1 1358   1.992   0.963   1.033  2.1561  0.4887  0.1337
  453SOL    HW2 1359   2.131   1.059   1.003  0.6248 -1.0533 -0.0753
  454SOL     OW 1360   2.842   0.851   0.171 -0.6429 -0.4466 -0.1337
  454SOL    HW1 1361   2.888   0.900   0.245 -0.2119  2.0110  1.4724
  454SOL    HW2 1362   2.775   0.906   0.121 -0.2270  1.1383  0.8168
  455SOL     OW 1363   2.529   1.748   0.978 -0.7481  0.5586  0.2204
  455SOL    HW1 1364   2.565   1.652   0.970  0.2859  1.5200  0.1548
  455SOL    HW2 1365   2.596   1.817   0.941  1.0708 -0.4602  0.4610
  456SOL     OW 1366   0.842   0.040   1.254 -0.1046  0.4523  0.1594
  456SOL    HW1 1367   0.770   0.056   1.322  0.3300 -0.9662  1.7982
  456SOL    HW2 1368   0.928   0.068   1.302  1.5276  0.6111  0.6689
  457SOL     OW 1369   1.818   2.849   0.736  0.0580  0.5843  0.5211
  457SOL    HW1 1370   1.767   2.802   0.662  1.5356 -0.9241 -0.8063
  457SOL    HW2 1371   1.770   2.928   0.778  0.5964 -0.6776  0.8553
  458SOL     OW 1372   2.636   0.263   0.733  0.0577 -0.1573 -0.1053
  458SOL    HW1 1373   2.585   0.281   0.819  0.9430 -2.9186  0.1498
  458SOL    HW2 1374   2.708   0.329   0.717 -0.7952 -0.1621 -0.7822
  459SOL     OW 1375   2.165   0.711   3.037 -0.2881  0.4580 -0.1339
  459SOL    HW1 1376   2.112   0.792   3.076  0.0615 -0.1884 -0.3212
  459SOL    HW2 1377   2.203   0.649   0.022  1.0023  1.2193  0.5932
  460SOL     OW 1378   3.047   2.513   2.768  0.2493  0.2555 -0.3166
  460SOL    HW1 1379   3.042   2.611   2.754  0.6185 -1.6864  1.0168
  460SOL    HW2 1380   3.050   2.485   2.866 -0.3056 -3.0253 -3.3138
  461SOL     OW 1381   0.860   1.883   0.068  0.3308 -0.2844  0.1601
  461SOL    HW1 1382   0.865   1.933   0.158  0.5649 -3.0583  2.6138
  461SOL    HW2 1383   0.780   1.909   0.010  0.5738 -1.1414 -0.7560
  462SOL     OW 1384   2.344   2.398   0.833 -0.3374 -0.0255  0.2963
  462SOL    HW1 1385   2.374   2.485   0.792 -0.8696  1.5819  1.5926
  462SOL    HW2 1386   2.324   2.402   0.932 -1.5458 -2.4594 -3.7029
  463SOL     OW 1387   3.040   0.361   0.429  0.4658 -0.2476  0.2898
  463SOL    HW1 1388   3.084   0.412   0.506 -0.2324  0.7690 -1.4414
  463SOL    HW2 1389   3.073   0.394   0.339 -0.2395 -2.5210 -2.1346
  464SOL     OW 1390   1.036   2.625   0.438 -0.3147  0.6324  0.0298
  464SOL    HW1 1391   0.966   2.608   0.512  0.6459 -4.1712  1.3616
  464SOL    HW2 1392   1.027   2.722   0.410 -0.5997  0.5388  0.1450
  465SOL     OW 1393   2.371   0.869   0.713  0.4625 -0.6311  0.2707
  465SOL    HW1 1394   2.338   0.855   0.808  2.2733  1.5828 -1.3439
  465SOL    HW2 1395   2.316   0.932   0.655  1.1638 -0.5908  0.7420
  466SOL     OW 1396   2.249   0.013   0.019 -0.4773 -0.3458 -0.2394
  466SOL    HW1 1397   2.314   0.020   3.033 -3.2847  1.5427  2.6813
  466SOL    HW2 1398   2.208   3.007   0.026 -1.9332  0.4587  1.2462
  467SOL     OW 1399   1.193   0.488   1.758  0.1225  0.1417 -0.0752
  467SOL    HW1 1400   1.139   0.480   1.840  1.5707  0.8210 -2.0277
  467SOL    HW2 1401   1.237   0.581   1.748 -2.6744 -1.7330 -0.1742
  468SOL     OW 1402   0.002   0.475   2.115 -0.5239 -0.4196  0.2897
  468SOL    HW1 1403   0.020   0.409   2.189  1.7111 -0.2992  0.2880
  468SOL    HW2 1404   0.084   0.498   2.056  1.8041  1.9922  1.5593
  469SOL     OW 1405   0.881   0.033   2.849 -0.2243 -0.0747  0.1538
  469SOL    HW1 1406   0.844   3.047   2.911 -1.1622  0.0174  5.3094
  469SOL    HW2 1407   0.867   0.014   2.749  1.1909  4.6996  0.5913
  470SOL     OW 1408   1.634   1.372   2.302 -0.2084 -0.4408 -0.0553
  470SOL    HW1 1409   1.540   1.406   2.326 -0.0468 -0.2116  0.6244
  470SOL    HW2 1410   1.701   1.450   2.293 -0.1912 -1.8326  0.1681
  471SOL     OW 1411   2.784   1.017   2.879  0.4284  0.2224 -0.7937
  471SOL    HW1 1412   2.816   1.113   2.863  2.7858  0.0382  1.4482
  471SOL    HW2 1413   2.736   1.003   2.968 -2.0374 -0.4633 -1.0670
  472SOL     OW 1414   0.303   2.650   0.357 -0.2742 -0.3677 -0.0714
  472SOL    HW1 1415   0.265   2.732   0.410 -1.2236  0.5989  1.4258
  472SOL    HW2 1416   0.241   2.570   0.353  1.1817 -0.4556 -2.5621
  473SOL     OW 1417   0.763   0.254   2.950 -0.2560  0.4166  0.0270
  473SOL    HW1 1418   0.822   0.190   2.901  1.4540 -0.2705 -2.3644
  473SOL    HW2 1419   0.682   0.205   2.984 -0.5255 -2.1997  1.7422
  474SOL     OW 1420   1.671   0.003   2.067  0.1482  0.3737  0.1162
  474SOL    HW1 1421   1.585   0.044   2.047  4.7527  0.4309 -2.1912
  474SOL    HW2 1422   1.666   2.995   2.101  0.2426  0.6627 -0.8949
  475SOL     OW 1423   0.773   2.619   0.279  0.1722  0.3019 -0.1986
  475SOL    HW1 1424   0.861   2.671   0.284  2.3337 -0.8170 -0.9799
  475SOL    HW2 1425   0.723   2.637   0.363 -1.5823  1.2834 -1.8685
  476SOL     OW 1426   0.280   0.667   0.887  0.6050  0.2105  0.1801
  476SOL    HW1 1427   0.222   0.725   0.823 -1.6977  3.2593 -1.6907
  476SOL    HW2 1428   0.379   0.682   0.874 -0.4399  1.5116 -3.4733
  477SOL     OW 1429   1.879   2.023   1.453 -0.7358  0.6202  0.0348
  477SOL    HW1 1430   1.787   2.000   1.490  0.1506 -2.5438  1.6000
  477SOL    HW2 1431   1.951   2.051   1.519  0.4867  1.5406 -1.7468
  478SOL     OW 1432   0.521   1.292   2.015  1.3023  0.0556 -0.1730
  478SOL    HW1 1433   0.584   1.210   2.020 -0.9970  0.3063 -0.0867
  478SOL    HW2 1434   0.437   1.273   1.960  1.9525 -0.9805  1.7673
  479SOL     OW 1435   0.534   0.047   0.884 -0.0236 -0.1383 -0.2143
  479SOL    HW1 1436   0.548   0.138   0.849 -0.5430 -0.8419 -0.4687
  479SOL    HW2 1437   0.452   3.085   0.849  0.8731  1.9711 -1.3877
  480SOL     OW 1438   2.214   2.561   3.036 -0.1612 -0.3029 -0.6656
  480SOL    HW1 1439   2.129   2.523   2.992 -1.0488  0.0820  0.7739
  480SOL    HW2 1440   2.299   2.512   3.015 -0.0265  2.3116 -0.4905
  481SOL     OW 1441   2.646   0.523   1.306 -0.7081  1.0621 -0.0878
  481SOL    HW1 1442   2.598   0.614   1.280 -1.0940  0.3834  0.1352
  481SOL    HW2 1443   2.651   0.511   1.407 -0.4453  1.8189 -0.3834
  482SOL     OW 1444   1.518   2.470   1.886  0.8357  0.4895  0.1497
  482SOL    HW1 1445   1.553   2.487   1.789  0.1227 -0.5255 -2.7115
  482SOL    HW2 1446   1.578   2.509   1.955  0.8007  1.1306  0.5836
  483SOL     OW 1447   0.204   1.529   2.749  0.2166 -0.3687 -0.2211
  483SOL    HW1 1448   0.248   1.515   2.662 -4.0274  0.1059  0.2173
  483SOL    HW2 1449   0.166   1.437   2.781  0.1752  1.9726 -0.9906
  484SOL     OW 1450   0.974   1.674   1.905  0.1578  0.4622  0.1392
  484SOL    HW1 1451   1.043   1.634   1.841 -1.7788 -0.1203  1.8175
  484SOL    HW2 1452   0.874   1.679   1.871 -1.7673  0.1873 -1.7884
  485SOL     OW 1453   2.958   0.210   2.622 -0.3609 -0.0725 -0.1999
  485SOL    HW1 1454   2.999   0.302   2.625  1.4364 -0.2470 -0.2020
  485SOL    HW2 1455   3.017   0.144   2.567  2.3001  0.5038  2.5098
  486SOL     OW 1456   1.542   3.086   0.307  0.3839 -0.3448 -0.1137
  486SOL    HW1 1457   1.614   0.064   0.339 -1.0385 -2.8764  0.2897
  486SOL    HW2 1458   1.468   0.050   0.267 -0.1129 -1.2459  0.2516
  487SOL     OW 1459   1.316   2.643   1.141 -0.5077  0.3494  0.3909
  487SOL    HW1 1460   1.367   2.697   1.073 -2.1224 -0.3725  0.6392
  487SOL    HW2 1461   1.258   2.702   1.197  1.2830 -3.1624  1.1092
  488SOL     OW 1462   2.029   1.093   0.730 -0.2707 -0.2803 -0.1855
  488SOL    HW1 1463   2.088   1.057   0.659  0.6820  1.9430  0.7151
  488SOL    HW2 1464   2.089   1.130   0.809 -2.5360 -0.4426  3.6260
  489SOL     OW 1465   1.118   2.808   1.243  0.1197 -0.4745  0.7786
  489SOL    HW1 1466   1.019   2.808   1.265  2.5687  1.6589  0.1082
  489SOL    HW2 1467   1.170   2.836   1.329  2.5518  0.8350  0.3214
  490SOL     OW 1468   0.958   0.852   0.513 -0.4285 -0.3981  0.0073
  490SOL    HW1 1469   1.044   0.895   0.545 -3.0972 -0.6183 -2.9072
  490SOL    HW2 1470   0.970   0.814   0.417 -1.0615 -0.7412 -1.4337
  491SOL     OW 1471   1.454   2.752   0.137  0.2427  0.1907  0.3861
  491SOL    HW1 1472   1.437   2.851   0.121 -0.2318 -0.6011  2.3709
  491SOL    HW2 1473   1.383   2.700   0.087 -0.9952  1.4112 -2.2685
  492SOL     OW 1474   1.245   1.128   2.146  0.3153  0.2214  0.5248
  492SOL    HW1 1475   1.183   1.209   2.147 -1.6759 -1.8005  2.0904
  492SOL    HW2 1476   1.196   1.044   2.116 -0.1629  0.8330 -0.3864
  493SOL     OW 1477   0.137   1.799   0.400  0.7211 -0.0981 -0.0612
  493SOL    HW1 1478   0.039   1.784   0.386  1.7626 -0.7630 -0.9793
  493SOL    HW2 1479   0.188   1.717   0.429  0.8925  0.9646  0.8080
  494SOL     OW 1480   2.146   1.455   0.442  0.3427  0.0644  0.1945
  494SOL    HW1 1481   2.081   1.527   0.476 -1.6855 -0.2133  1.7693
  494SOL    HW2 1482   2.105   1.395   0.365 -3.1042  0.6847 -0.3149
  495SOL     OW 1483   0.113   0.799   2.814  0.0478 -0.5804 -0.0824
  495SOL    HW1 1484   0.097   0.832   2.718  1.5972 -1.4186  0.0651
  495SOL    HW2 1485   0.036   0.814   2.875  0.8035  0.6754 -2.6832
  496SOL     OW 1486   2.908   2.986   2.357 -0.2756 -0.2681  0.1192
  496SOL    HW1 1487   2.981   2.955   2.292 -3.2573  1.6840  0.1919
  496SOL    HW2 1488   2.818   2.997   2.311  0.1672 -1.7319 -2.1975
  497SOL     OW 1489   2.711   0.948   0.675 -0.1983 -0.0925 -0.0888
  497SOL    HW1 1490   2.624   0.890   0.683 -3.4673  1.8268  0.2499
  497SOL    HW2 1491   2.709   0.994   0.583 -2.5126 -2.3542 -1.2908
  498SOL     OW 1492   0.253   2.412   0.069  0.3001 -0.5745  0.1080
  498SOL    HW1 1493   0.293   2.329   0.114 -1.1516 -0.5841  0.4613
  498SOL    HW2 1494   0.331   2.476   0.061 -0.4089  1.2933 -1.2914
  499SOL     OW 1495   1.136   2.542   0.927  0.2608 -0.4922 -0.2970
  499SOL    HW1 1496   1.196   2.581   0.999 -0.3538 -1.9132  0.3749
  499SOL    HW2 1497   1.181   2.459   0.892 -2.0117  1.9034 -1.1848
  500SOL     OW 1498   0.868   0.348   2.408 -0.0655  0.1966 -0.2332
  500SOL    HW1 1499   0.777   0.330   2.457  0.1142 -0.5176 -2.6162
  500SOL    HW2 1500   0.946   0.313   2.466  1.6101 -1.6950  0.2751
  501SOL     OW 1501   1.177   0.255   1.389 -0.3038 -0.2762 -0.4662
  501SOL    HW1 1502   1.266   0.250   1.344  0.2294  3.0104 -1.2259
  501SOL    HW2 1503   1.162   0.174   1.456 -0.7306 -0.6627  0.0262
  502SOL     OW 1504   3.025   0.107   2.146  0.0423  0.3275 -0.1333
  502SOL    HW1 1505   3.049   0.013   2.130 -1.4606  1.9097  1.8774
  502SOL    HW2 1506   0.014   0.148   2.201 -2.1236  0.6752  1.5074
  503SOL     OW 1507   1.771   2.238   2.142  0.4483 -0.4910  0.2956
  503SOL    HW1 1508   1.705   2.236   2.218  1.7669 -1.8475  1.0137
  503SOL    HW2 1509   1.775   2.138   2.111  0.5626 -1.8572  0.2785
  504SOL     OW 1510   1.972   0.125   1.643  0.9648 -0.4588  0.5000
  504SOL    HW1 1511   2.048   0.187   1.676  1.6404  1.3953  0.6544
  504SOL    HW2 1512   1.978   0.109   1.540  1.0701  2.4885  0.8946
  505SOL     OW 1513   2.758   1.119   1.768  0.7329 -0.3089 -0.1144
  505SOL    HW1 1514   2.835   1.102   1.707 -0.3469  0.2150  0.4934
  505SOL    HW2 1515   2.747   1.217   1.795 -0.8643 -0.2666 -1.4336
  506SOL     OW 1516   0.314   1.478   2.466 -0.6162 -0.2975 -0.0341
  506SOL    HW1 1517   0.251   1.397   2.465 -0.4133 -1.2448 -0.3850
  506SOL    HW2 1518   0.388   1.464   2.395  0.7058  1.3964  1.3075
  507SOL     OW 1519   0.261   3.069   1.784 -0.1100  0.1142 -0.0640
  507SOL    HW1 1520   0.317   0.066   1.751  3.6926  1.8035  0.3695
  507SOL    HW2 1521   0.249   2.994   1.715 -1.4578  3.4311  2.6417
  508SOL     OW 1522   1.522   0.694   1.555 -0.1382  0.1882  0.3039
  508SOL    HW1 1523   1.546   0.783   1.507  2.3725 -0.6702 -0.1240
  508SOL    HW2 1524   1.577   0.611   1.520 -0.5248 -2.1954 -0.9712
  509SOL     OW 1525   1.126   1.938   1.114 -0.0767 -0.1969 -0.3314
  509SOL    HW1 1526   1.094   2.035   1.134 -2.2387 -0.2181  0.7341
  509SOL    HW2 1527   1.059   1.865   1.143  0.0307 -1.8380  1.8431
  510SOL     OW 1528   2.576   0.960   2.689 -0.7405  0.4222 -0.1937
  510SOL    HW1 1529   2.518   0.883   2.724 -0.7320 -0.9876  1.3586
  510SOL    HW2 1530   2.645   0.992   2.758  1.4514 -1.0064  0.1754
  511SOL     OW 1531   0.543   1.485   1.308 -1.0177  0.1329 -0.2275
  511SOL    HW1 1532   0.598   1.471   1.395  1.6130 -0.3380  0.2321
  511SOL    HW2 1533   0.530   1.391   1.259 -2.3650  0.5177 -1.2163
  512SOL     OW 1534   2.636   2.432   0.517  0.2493 -0.2227  0.8586
  512SOL    HW1 1535   2.657   2.413   0.611  0.2979 -0.4080 -1.1950
  512SOL    HW2 1536   2.682   2.363   0.456  0.2705 -0.4826 -0.0941
  513SOL     OW 1537   0.425   1.437   2.925 -0.1296 -0.2249 -0.6104
  513SOL    HW1 1538   0.376   1.365   2.978 -1.1287 -0.2866 -0.1534
  513SOL    HW2 1539   0.364   1.484   2.857  1.5203  0.0406  0.9473
  514SOL     OW 1540   0.301   2.566   2.874  0.0750 -0.3083  0.1069
  514SOL    HW1 1541   0.292   2.572   2.776  0.6294 -1.7916  1.5208
  514SOL    HW2 1542   0.224   2.604   2.925  0.9324 -4.0900  2.4142
  515SOL     OW 1543   1.472   1.004   2.234  0.4568 -0.1150  0.7746
  515SOL    HW1 1544   1.396   1.070   2.229  0.1781  0.7447 -0.1024
  515SOL    HW2 1545   1.501   1.003   2.331  1.7979 -0.1226 -2.8089
  516SOL     OW 1546   2.081   2.274   0.764 -0.1593  0.1489  0.5286
  516SOL    HW1 1547   2.054   2.246   0.858  0.2185  0.6890 -0.9197
  516SOL    HW2 1548   2.166   2.325   0.770  1.2430 -0.5606  2.2771
  517SOL     OW 1549   1.236   1.443   0.646 -0.2013  0.1155 -0.2019
  517SOL    HW1 1550   1.272   1.469   0.739 -1.4860 -1.3352  1.1068
  517SOL    HW2 1551   1.229   1.341   0.632  1.3901 -1.0816 -2.5961
  518SOL     OW 1552   2.315   2.425   2.240 -0.3795 -0.1023  0.5556
  518SOL    HW1 1553   2.240   2.495   2.242  1.8608  1.8989  0.8867
  518SOL    HW2 1554   2.346   2.398   2.331  1.6211 -1.9657 -2.8531
  519SOL     OW 1555   1.803   2.179   1.238  0.1419 -0.7566  0.0046
  519SOL    HW1 1556   1.829   2.121   1.323 -1.6676  0.6179 -2.8232
  519SOL    HW2 1557   1.783   2.276   1.258  1.9746 -3.3512  0.7890
  520SOL     OW 1558   2.715   2.237   2.583  0.2799 -0.2555 -0.6705
  520SOL    HW1 1559   2.802   2.252   2.530  0.2711 -0.5036 -0.8985
  520SOL    HW2 1560   2.635   2.285   2.536 -0.3103 -1.7993 -0.0545
  521SOL     OW 1561   0.200   1.235   1.964  0.0873  0.3025  0.2216
  521SOL    HW1 1562   0.156   1.272   1.879 -1.1275 -0.4761  1.0120
  521SOL    HW2 1563   0.135   1.219   2.041 -2.8451 -1.2153 -1.4106
  522SOL     OW 1564   0.764   0.511   2.197 -0.0566  0.2510  0.0286
  522SOL    HW1 1565   0.768   0.426   2.144  0.0352 -0.1462 -1.6428
  522SOL    HW2 1566   0.825   0.503   2.279  0.7231  0.0879 -0.4893
  523SOL     OW 1567   0.573   2.243   0.856  0.0939 -0.7635 -0.4185
  523SOL    HW1 1568   0.547   2.152   0.896 -0.8821 -1.3867 -2.2801
  523SOL    HW2 1569   0.509   2.261   0.778 -2.8565 -2.4515  0.9173
  524SOL     OW 1570   1.697   2.916   0.427 -0.0319  0.1438 -0.2471
  524SOL    HW1 1571   1.796   2.927   0.408 -1.2971  1.1809 -2.6336
  524SOL    HW2 1572   1.630   2.969   0.366 -4.8991 -0.1096 -0.5114
  525SOL     OW 1573   2.362   0.852   1.562 -0.1277  0.2913  0.0910
  525SOL    HW1 1574   2.303   0.821   1.490 -2.6243 -4.8229  2.0350
  525SOL    HW2 1575   2.322   0.931   1.615 -0.9698 -0.6879 -0.2122
  526SOL     OW 1576   1.002   2.688   0.755 -0.1751 -0.1140  0.2619
  526SOL    HW1 1577   1.065   2.627   0.813 -1.2918 -0.6002  0.4346
  526SOL    HW2 1578   0.931   2.630   0.710 -1.1671  1.0178  1.8926
  527SOL     OW 1579   2.749   2.318   0.298  0.0024  0.0114 -0.3585
  527SOL    HW1 1580   2.669   2.249   0.299 -0.7909 -0.8265  0.3604
  527SOL    HW2 1581   2.732   2.395   0.237  0.6518 -2.6732 -0.9373
  528SOL     OW 1582   2.272   0.142   0.254 -0.0235 -0.1610 -0.1524
  528SOL    HW1 1583   2.260   0.087   0.167 -0.9226 -0.2223 -0.0720
  528SOL    HW2 1584   2.250   0.082   0.335  3.2900 -1.3248 -2.7905
  529SOL     OW 1585   1.392   1.463   2.333  0.3655  0.6321 -0.3500
  529SOL    HW1 1586   1.303   1.492   2.385  1.1598  1.1589  0.0828
  529SOL    HW2 1587   1.386   1.493   2.239 -0.1688 -1.9353  0.8754
  530SOL     OW 1588   2.483   0.716   0.086  0.1756 -0.2787  0.5170
  530SOL    HW1 1589   2.413   0.645   0.097 -0.2974 -1.6279  0.1735
  530SOL    HW2 1590   2.524   0.737   0.179  0.2068 -0.0018 -0.4677
  531SOL     OW 1591   1.330   1.105   2.974  0.2884 -0.2091  0.1334
  531SOL    HW1 1592   1.295   1.138   3.065  0.3146  0.1713  1.7113
  531SOL    HW2 1593   1.337   1.002   2.985  1.0055  1.5219 -0.6906
  532SOL     OW 1594   1.730   0.414   0.675  0.2139  0.5364  0.2158
  532SOL    HW1 1595   1.811   0.477   0.686  0.1216 -1.7681  0.6979
  532SOL    HW2 1596   1.715   0.400   0.577  0.8375  2.2312 -2.0598
  533SOL     OW 1597   0.916   0.734   1.942 -0.5806 -0.6657  0.1388
  533SOL    HW1 1598   0.963   0.792   2.013 -0.1185  0.0771  0.7672
  533SOL    HW2 1599   0.910   0.787   1.854  2.6635  2.9280 -0.5383
  534SOL     OW 1600   1.535   0.390   2.726 -0.0127  0.0778 -0.3938
  534SOL    HW1 1601   1.517   0.302   2.780 -2.2309  0.8244 -1.3133
  534SOL    HW2 1602   1.628   0.382   2.684  0.7566  1.0562 -0.8582
  535SOL     OW 1603   0.427   0.247   0.403  0.5831  0.7382 -0.1154
  535SOL    HW1 1604   0.444   0.146   0.419 -0.2475  1.5380  1.6974
  535SOL    HW2 1605   0.327   0.263   0.404  1.9723 -2.1403 -0.7818
  536SOL     OW 1606   0.849   0.244   0.455 -0.0941 -0.2542 -0.2216
  536SOL    HW1 1607   0.819   0.314   0.390  0.8242 -1.4558 -2.3045
  536SOL    HW2 1608   0.891   0.280   0.543  0.6427  0.1166  1.6643
  537SOL     OW 1609   1.911   0.829   0.837 -0.3036  0.1548 -0.0190
  537SOL    HW1 1610   1.954   0.907   0.785  0.2385  0.1211  1.5413
  537SOL    HW2 1611   1.980   0.753   0.834 -0.4800 -1.7243 -2.9523
  538SOL     OW 1612   2.955   2.172   0.030 -0.1388  0.0703 -0.0587
  538SOL    HW1 1613   2.863   2.156   0.059 -0.3953  2.0385 -1.8595
  538SOL    HW2 1614   3.001   2.082   0.022 -0.2177 -0.6323  2.1907
  539SOL     OW 1615   2.106   1.801   0.156  0.0663 -0.2534 -0.5886
  539SOL    HW1 1616   2.124   1.795   0.060 -2.6895  1.0952  2.9480
  539SOL    HW2 1617   2.184   1.755   0.205 -2.3096 -1.6428 -2.7408
  540SOL     OW 1618   0.270   2.526   1.234 -0.0182  0.3449  0.3029
  540SOL    HW1 1619   0.189   2.462   1.245 -0.3648 -3.2159 -0.8662
  540SOL    HW2 1620   0.249   2.607   1.179  3.2061  0.8801  3.0875
  541SOL     OW 1621   1.896   0.130   2.135 -0.1973  0.5850 -0.5297
  541SOL    HW1 1622   1.975   0.062   2.139 -0.5441  1.3655 -0.0092
  541SOL    HW2 1623   1.814   0.085   2.098  0.5368 -0.1728  0.9511
  542SOL     OW 1624   2.767   0.426   2.776 -1.1594  0.4084 -0.7485
  542SOL    HW1 1625   2.813   0.470   2.858  1.1931  0.9763  1.4430
  542SOL    HW2 1626   2.728   0.497   2.718  0.5779 -1.0168 -1.3539
  543SOL     OW 1627   0.170   1.117   0.708  0.3198  0.0610 -0.2379
  543SOL    HW1 1628   0.191   1.181   0.630 -0.7102 -0.0783  0.2897
  543SOL    HW2 1629   0.098   1.155   0.766 -1.0660 -0.9107 -0.9410
  544SOL     OW 1630   2.812   0.203   1.137 -0.3691 -0.2053 -0.0173
  544SOL    HW1 1631   2.714   0.188   1.151 -3.4979 -3.0267 -2.5379
  544SOL    HW2 1632   2.842   0.203   1.038  1.0568  0.2787  1.0410
  545SOL     OW 1633   1.442   2.610   0.698  0.5644  0.0259 -0.2491
  545SOL    HW1 1634   1.522   2.649   0.645  0.5671  1.2032 -1.0023
  545SOL    HW2 1635   1.455   2.514   0.718 -0.9766 -0.1423 -0.8874
  546SOL     OW 1636   2.066   2.770   1.462 -0.2133  0.1803  0.1655
  546SOL    HW1 1637   2.081   2.690   1.520 -2.2133  0.3393 -1.0751
  546SOL    HW2 1638   2.152   2.808   1.427 -1.7792 -1.4338  1.4830
  547SOL     OW 1639   0.341   0.185   2.104 -0.3690  0.4532 -0.4170
  547SOL    HW1 1640   0.370   0.088   2.099 -1.3392  0.6417 -2.4791
  547SOL    HW2 1641   0.420   0.246   2.089 -1.5492  0.3019 -0.8014
  548SOL     OW 1642   1.767   1.363   2.940 -0.2248 -0.1104 -0.2369
  548SOL    HW1 1643   1.668   1.336   2.945 -0.4404 -0.2152 -1.1614
  548SOL    HW2 1644   1.821   1.288   2.893 -1.2158  0.1019 -0.8942
  549SOL     OW 1645   2.929   0.987   0.402  0.3705  0.2253  0.1873
  549SOL    HW1 1646   2.878   1.068   0.443 -2.3959 -0.6686  2.2079
  549SOL    HW2 1647   3.027   1.022   0.393 -1.6309 -0.7470  0.7601
  550SOL     OW 1648   1.851   1.970   0.727  0.6077 -0.3083  0.0057
  550SOL    HW1 1649   1.764   1.919   0.724  0.1632  0.1325  2.5269
  550SOL    HW2 1650   1.850   2.065   0.689  1.3168 -0.9660 -0.2159
  551SOL     OW 1651   1.503   0.541   0.621 -0.0443 -0.1855 -0.3420
  551SOL    HW1 1652   1.442   0.491   0.555  0.2486  0.7016  1.3779
  551SOL    HW2 1653   1.586   0.491   0.649  0.9235 -0.2462 -0.5919
  552SOL     OW 1654   2.605   2.565   2.279 -0.9747  0.2521 -0.3856
  552SOL    HW1 1655   2.674   2.515   2.224 -2.0072  1.9934 -0.4182
  552SOL    HW2 1656   2.571   2.645   2.224 -2.4120 -0.6064 -0.5814
  553SOL     OW 1657   0.033   0.076   2.425 -0.0494  0.1154  0.1798
  553SOL    HW1 1658   0.056   0.165   2.382  0.3994  0.8726 -0.3058
  553SOL    HW2 1659   3.039   0.032   2.382  1.6902 -1.4927 -0.0534
  554SOL     OW 1660   1.076   3.051   1.071  0.2854 -0.2186 -0.5696
  554SOL    HW1 1661   0.982   3.060   1.041  3.7278  1.8564  2.1721
  554SOL    HW2 1662   1.089   2.962   1.116 -0.0067 -1.1957  0.0059
  555SOL     OW 1663   2.461   2.360   2.037 -0.0914 -0.0253  0.3100
  555SOL    HW1 1664   2.551   2.414   2.043  4.5545  1.5913  1.3492
  555SOL    HW2 1665   2.403   2.368   2.122  0.4886 -0.9847  1.4912
  556SOL     OW 1666   1.045   0.323   2.638  0.1072  0.5161 -0.2418
  556SOL    HW1 1667   1.088   0.400   2.588  1.1070 -0.7292  0.5852
  556SOL    HW2 1668   1.080   0.231   2.621 -1.7997  2.9406 -0.1671
  557SOL     OW 1669   0.142   1.714   2.413  0.3051  0.1960 -0.1688
  557SOL    HW1 1670   0.133   1.810   2.446 -1.7913 -0.2305  1.1957
  557SOL    HW2 1671   0.235   1.676   2.429  0.6468 -0.1558 -2.2074
  558SOL     OW 1672   2.199   0.989   2.479 -0.3696 -0.0457  0.7145
  558SOL    HW1 1673   2.286   0.960   2.441 -1.5371 -0.5667 -1.2921
  558SOL    HW2 1674   2.159   1.066   2.428 -0.8081  0.5557  0.5279
  559SOL     OW 1675   2.512   2.111   2.284  0.4160 -0.2450  0.6737
  559SOL    HW1 1676   2.525   2.197   2.338  1.5190 -0.3176  0.3194
  559SOL    HW2 1677   2.587   2.094   2.217 -0.5774 -1.3074  1.6572
  560SOL     OW 1678   2.600   0.997   2.260  0.0689 -0.4078 -0.5664
  560SOL    HW1 1679   2.551   0.937   2.328  0.4186  0.5771 -0.6539
  560SOL    HW2 1680   2.535   1.050   2.196  1.3018 -0.6893 -3.0419
  561SOL     OW 1681   0.459   0.663   0.306 -0.0274 -0.3398 -0.5076
  561SOL    HW1 1682   0.516   0.661   0.393  2.0777  2.5542  1.4034
  561SOL    HW2 1683   0.476   0.578   0.254 -1.1130  0.4303 -0.9638
  562SOL     OW 1684   1.101   1.293   1.453  0.5418  0.1358 -0.1996
  562SOL    HW1 1685   1.043   1.287   1.537 -0.1672  0.8594  0.0580
  562SOL    HW2 1686   1.130   1.199   1.430  2.6199 -0.6448  0.3932
  563SOL     OW 1687   1.576   2.917   2.616  0.1039 -0.1701  0.3592
  563SOL    HW1 1688   1.536   2.823   2.625 -0.3836  1.7975 -1.4839
  563SOL    HW2 1689   1.678   2.916   2.614 -2.8939 -0.6651 -1.0580
  564SOL     OW 1690   0.245   2.073   1.003  0.2053 -0.1661  0.7338
  564SOL    HW1 1691   0.247   2.175   0.990 -0.4636 -0.2216  0.3042
  564SOL    HW2 1692   0.332   2.033   0.982 -2.3521 -1.7053 -0.0477
  565SOL     OW 1693   0.679   2.564   2.182 -0.3140  0.5382 -0.4734
  565SOL    HW1 1694   0.749   2.519   2.124  3.4835  1.9210 -0.4322
  565SOL    HW2 1695   0.607   2.500   2.216  1.6347  1.0302 -1.7340
  566SOL     OW 1696   1.225   2.477   2.198 -0.2927 -0.1306 -0.0008
  566SOL    HW1 1697   1.152   2.413   2.226  0.4219  2.9404 -1.0329
  566SOL    HW2 1698   1.198   2.520   2.109 -0.1895 -0.4412  0.7469
  567SOL     OW 1699   2.265   2.409   1.102 -0.2689  0.1944  0.0788
  567SOL    HW1 1700   2.167   2.406   1.068  1.9276  2.9691  0.9320
  567SOL    HW2 1701   2.293   2.326   1.159  0.3794 -0.5476  4.2308
  568SOL     OW 1702   1.937   0.738   0.513  0.1780  0.4856 -0.0692
  568SOL    HW1 1703   2.021   0.785   0.485 -2.2236 -0.4917  0.2058
  568SOL    HW2 1704   1.948   0.663   0.575  2.9182  3.4099 -2.1986
  569SOL     OW 1705   2.791   1.563   2.676  0.1629 -0.5250 -0.1725
  569SOL    HW1 1706   2.784   1.485   2.615 -0.8270  3.0344  2.8102
  569SOL    HW2 1707   2.884   1.561   2.719 -0.5218 -0.7936 -0.6748
  570SOL     OW 1708   0.057   0.073   0.941 -0.2992  0.1431  0.3384
  570SOL    HW1 1709   0.135   0.104   0.995 -1.4177 -0.8272 -2.7295
  570SOL    HW2 1710   0.005   0.155   0.919  0.9159  0.4792 -0.0866
  571SOL     OW 1711   2.878   0.397   1.786  0.4595  0.2594 -0.3207
  571SOL    HW1 1712   2.874   0.468   1.860 -0.6682  1.2963  1.7774
  571SOL    HW2 1713   2.954   0.330   1.811  2.5651 -0.4359  0.1174
  572SOL     OW 1714   2.705   2.371   0.776 -0.0659  0.0743 -0.3347
  572SOL    HW1 1715   2.653   2.408   0.855 -2.1261  1.2656  1.0155
  572SOL    HW2 1716   2.804   2.380   0.772 -1.1795 -1.7811  2.1658
  573SOL     OW 1717   0.871   0.761   0.015 -0.6598  0.4488  0.6710
  573SOL    HW1 1718   0.817   0.723   3.023 -1.4935 -1.9185 -0.4141
  573SOL    HW2 1719   0.830   0.848   0.046 -2.1420  2.1741  2.1781
  574SOL     OW 1720   2.988   2.701   0.049 -0.1209  0.5463  0.0336
  574SOL    HW1 1721   2.904   2.666   3.084 -2.3404 -0.7382  1.0830
  574SOL    HW2 1722   2.964   2.751   0.134  0.7567 -1.2348 -0.3287
  575SOL     OW 1723   1.078   2.212   1.152 -0.3410 -0.7842  0.0845
  575SOL    HW1 1724   1.014   2.283   1.113  1.0093 -2.0662  2.8992
  575SOL    HW2 1725   1.177   2.225   1.130 -1.5200  0.2266  0.0985
  576SOL     OW 1726   0.618   2.676   1.042 -0.2005  0.5190  0.2379
  576SOL    HW1 1727   0.632   2.700   1.139  0.6960 -1.9287  0.7011
  576SOL    HW2 1728   0.691   2.722   0.987 -0.5162  2.6152  0.0747
  577SOL     OW 1729   2.213   1.710   1.222  0.4022  0.5780 -0.5514
  577SOL    HW1 1730   2.137   1.778   1.233 -0.2715 -1.5916  1.3723
  577SOL    HW2 1731   2.217   1.686   1.125 -0.2416  1.8618  3.2551
  578SOL     OW 1732   1.652   0.409   0.417 -0.6562 -0.0671 -0.1370
  578SOL    HW1 1733   1.691   0.462   0.341 -1.8545  1.2527 -2.4631
  578SOL    HW2 1734   1.550   0.417   0.424  2.7401 -0.6410 -2.0969
  579SOL     OW 1735   2.545   1.376   2.858 -0.4674 -0.4931 -0.3050
  579SOL    HW1 1736   2.515   1.459   2.806  0.4825  0.5809  0.8185
  579SOL    HW2 1737   2.494   1.297   2.818 -0.8001  0.3049  1.7602
  580SOL     OW 1738   1.862   0.696   1.708  0.3026  0.0415  0.0231
  580SOL    HW1 1739   1.806   0.767   1.754  0.9571 -1.3360 -2.1427
  580SOL    HW2 1740   1.813   0.608   1.705  1.6995  0.0799 -1.4613
  581SOL     OW 1741   0.750   0.987   1.089 -0.1496  0.4039  0.1363
  581SOL    HW1 1742   0.712   1.061   1.141 -3.1494 -0.7788 -1.0790
  581SOL    HW2 1743   0.847   0.968   1.114 -1.2308  0.1861 -0.4644
  582SOL     OW 1744   2.615   3.083   2.279  0.1266 -0.2705  0.2990
  582SOL    HW1 1745   2.584   3.022   2.202 -0.1463  0.4723 -0.0728
  582SOL    HW2 1746   2.645   0.085   2.242  1.4852 -0.3974  1.6656
  583SOL     OW 1747   2.642   0.693   2.142  0.3392 -0.0853  0.2962
  583SOL    HW1 1748   2.579   0.622   2.180 -1.5924  1.6387 -1.2841
  583SOL    HW2 1749   2.680   0.745   2.223 -0.5764  0.0210  2.0534
  584SOL     OW 1750   1.232   1.906   2.699 -0.0082  0.3169  0.4067
  584SOL    HW1 1751   1.273   1.839   2.762 -0.9079  2.4718 -0.2237
  584SOL    HW2 1752   1.296   1.977   2.672 -2.1179 -0.5000  4.2441
  585SOL     OW 1753   0.217   3.073   0.171  0.1556 -0.0067  0.5967
  585SOL    HW1 1754   0.248   0.062   0.110  1.8530  1.1134  1.7466
  585SOL    HW2 1755   0.216   0.006   0.268 -1.5144  2.3511 -2.1634
  586SOL     OW 1756   1.751   2.156   2.578  0.3835  0.2677  0.2622
  586SOL    HW1 1757   1.728   2.233   2.640 -2.2486 -2.1756  0.9698
  586SOL    HW2 1758   1.713   2.065   2.605 -2.8241  0.3437  0.4319
  587SOL     OW 1759   2.362   2.443   0.499 -0.4349  0.3865  0.1370
  587SOL    HW1 1760   2.343   2.512   0.573  0.3243  0.5910  0.5335
  587SOL    HW2 1761   2.467   2.422   0.496 -0.9265  0.5248 -0.5635
  588SOL     OW 1762   2.536   0.219   1.190 -0.6246 -0.4153  0.2969
  588SOL    HW1 1763   2.497   0.172   1.110  3.5641  1.8510  1.1236
  588SOL    HW2 1764   2.492   0.310   1.193  1.4199 -1.2312  0.8162
  589SOL     OW 1765   0.560   0.680   0.836 -0.9456  0.4722  0.2286
  589SOL    HW1 1766   0.633   0.718   0.776 -0.1575 -1.2514  0.5114
  589SOL    HW2 1767   0.565   0.578   0.824  1.0873  0.9070 -0.2335
  590SOL     OW 1768   2.087   1.844   0.754  0.1138 -0.1970 -0.4113
  590SOL    HW1 1769   2.122   1.799   0.670 -1.1383  0.0435  0.4551
  590SOL    HW2 1770   2.004   1.900   0.741 -1.2362  0.6282  1.7878
  591SOL     OW 1771   0.554   2.417   1.086 -0.0162  0.1645 -0.6886
  591SOL    HW1 1772   0.554   2.361   0.999  0.5942 -0.7458 -0.0516
  591SOL    HW2 1773   0.582   2.513   1.074 -2.6061 -0.0547  0.9908
  592SOL     OW 1774   0.978   0.821   1.239  0.6508 -0.3941 -0.6947
  592SOL    HW1 1775   0.907   0.868   1.296 -0.3303  0.6234 -0.7635
  592SOL    HW2 1776   0.961   0.725   1.220 -0.4701 -0.6498  3.0886
  593SOL     OW 1777   0.951   1.262   1.152 -0.3784  0.0338 -0.1810
  593SOL    HW1 1778   0.924   1.343   1.094  1.2875  0.6354 -0.1252
  593SOL    HW2 1779   0.875   1.244   1.222 -2.8510 -0.3879  0.5134
  594SOL     OW 1780   1.043   2.031   0.511  0.1627  0.3649  0.6037
  594SOL    HW1 1781   0.946   2.039   0.476 -1.5975  0.8534 -0.3076
  594SOL    HW2 1782   1.061   1.934   0.531  1.2924  0.6890 -2.4054
  595SOL     OW 1783   1.647   0.275   1.213 -0.2850  0.2112  0.6408
  595SOL    HW1 1784   1.719   0.276   1.144  0.8264 -0.1678  2.5891
  595SOL    HW2 1785   1.589   0.356   1.190 -2.0168 -1.0600  0.5009
  596SOL     OW 1786   0.095   1.707   1.103  0.2392  0.4567 -0.1576
  596SOL    HW1 1787   0.135   1.779   1.166  0.0403 -1.6045 -0.8061
  596SOL    HW2 1788   0.047   1.749   1.025  0.4556  0.8324  3.0965
  597SOL     OW 1789   0.201   2.517   2.445  0.6784  0.4993 -0.4119
  597SOL    HW1 1790   0.279   2.458   2.401  3.6335  0.2364 -1.0355
  597SOL    HW2 1791   0.237   2.596   2.497 -1.0952  1.4607 -1.5688
  598SOL     OW 1792   2.878   2.394   1.648 -0.5360  0.2902 -0.0657
  598SOL    HW1 1793   2.977   2.406   1.617 -0.2840  0.0497  0.2370
  598SOL    HW2 1794   2.855   2.308   1.695 -0.7275 -1.5277  1.1721
  599SOL     OW 1795   0.902   0.417   0.074  0.4801 -0.3052  0.2114
  599SOL    HW1 1796   0.832   0.452   0.141 -0.8936  1.2824  2.1970
  599SOL    HW2 1797   0.852   0.367   3.086  1.0805 -0.1025 -0.0353
  600SOL     OW 1798   0.513   2.562   0.006  0.4089  0.3939  0.4164
  600SOL    HW1 1799   0.538   2.661   0.034  4.1861  2.6473 -1.7678
  600SOL    HW2 1800   0.452   2.566   3.010  1.4468  2.6070  1.3215
  601SOL     OW 1801   0.649   0.621   1.457  0.0860  0.1337 -0.4889
  601SOL    HW1 1802   0.743   0.622   1.500  0.3967  1.5474 -3.0573
  601SOL    HW2 1803   0.635   0.536   1.399  0.8072 -1.6985  1.5357
  602SOL     OW 1804   0.778   2.846   0.839 -0.3924 -0.0840 -0.0790
  602SOL    HW1 1805   0.860   2.790   0.812  0.4506 -3.2637 -2.1188
  602SOL    HW2 1806   0.807   2.922   0.898 -1.1644 -2.5756 -1.6594
  603SOL     OW 1807   0.499   0.418   2.339 -0.1438  0.3167  0.4592
  603SOL    HW1 1808   0.573   0.456   2.281 -1.7120  0.6004 -0.7900
  603SOL    HW2 1809   0.527   0.326   2.369 -1.2650 -1.9669 -1.7165
  604SOL     OW 1810   0.686   2.714   1.475 -0.0153 -0.4748 -0.4229
  604SOL    HW1 1811   0.643   2.795   1.526 -1.2589  1.2887 -0.0186
  604SOL    HW2 1812   0.613   2.662   1.427 -0.0166  0.4136 -1.1251
  605SOL     OW 1813   1.727   0.892   1.863 -0.5817  0.2632 -0.4385
  605SOL    HW1 1814   1.687   0.972   1.815  1.2968  0.8611  0.8179
  605SOL    HW2 1815   1.684   0.868   1.952  0.5996 -2.4751 -3.5413
  606SOL     OW 1816   2.536   2.815   2.960 -0.6852 -0.4963 -0.1378
  606SOL    HW1 1817   2.489   2.760   2.887 -2.8454 -1.8769 -1.9533
  606SOL    HW2 1818   2.578   2.899   2.913  3.0401  1.4893 -3.2142
  607SOL     OW 1819   0.883   0.584   1.125 -0.1288  0.3196 -0.2615
  607SOL    HW1 1820   0.840   0.491   1.131 -2.4139 -0.0086  0.8632
  607SOL    HW2 1821   0.805   0.643   1.093  1.7478  3.3010 -0.2255
  608SOL     OW 1822   0.348   1.940   2.639  0.5195 -0.2166  0.3347
  608SOL    HW1 1823   0.336   2.039   2.652 -0.6932 -0.0355 -0.6927
  608SOL    HW2 1824   0.288   1.885   2.704 -1.0192  1.7457 -3.4244
  609SOL     OW 1825   1.227   1.257   0.386 -0.3805  0.5103  0.5260
  609SOL    HW1 1826   1.253   1.230   0.477 -2.0042 -0.4424 -0.2670
  609SOL    HW2 1827   1.200   1.351   0.378  2.5214 -2.2067  0.7314
  610SOL     OW 1828   0.578   0.461   1.251  0.0023 -0.0172 -0.1724
  610SOL    HW1 1829   0.646   0.402   1.207 -0.6311 -1.9504 -0.1365
  610SOL    HW2 1830   0.582   0.553   1.201  2.5729 -0.0283 -0.4829
  611SOL     OW 1831   1.622   0.832   0.852  0.0090  0.0482  0.1841
  611SOL    HW1 1832   1.573   0.879   0.783 -1.4202  1.0487 -0.5923
  611SOL    HW2 1833   1.716   0.808   0.821 -1.6221 -0.1592  1.0846
  612SOL     OW 1834   1.857   1.062   0.255  0.3007  0.4379 -0.3409
  612SOL    HW1 1835   1.833   1.005   0.335 -0.8750 -1.8929  1.9172
  612SOL    HW2 1836   1.776   1.121   0.227  2.4437 -0.3378 -1.8797
  613SOL     OW 1837   2.107   0.461   0.359  0.1377  0.2255 -0.1057
  613SOL    HW1 1838   2.079   0.386   0.293 -0.8196 -0.9458  1.8731
  613SOL    HW2 1839   2.031   0.504   0.404 -1.5809  0.4355  2.4685
  614SOL     OW 1840   2.500   0.009   2.536 -0.1545 -0.1797  0.0848
  614SOL    HW1 1841   2.536   0.006   2.443  3.1740 -2.6948  2.7805
  614SOL    HW2 1842   2.513   0.101   2.577  1.0310 -0.1509 -0.1240
  615SOL     OW 1843   0.837   1.901   0.851 -0.0918 -0.2652  0.0082
  615SOL    HW1 1844   0.869   1.805   0.848  2.0626  0.5513 -3.8771
  615SOL    HW2 1845   0.782   1.926   0.932  0.7916 -1.7695 -2.4266
  616SOL     OW 1846   1.410   1.119   2.728  0.5783 -0.1987 -0.0269
  616SOL    HW1 1847   1.427   1.215   2.696  1.9166 -0.7760  0.1009
  616SOL    HW2 1848   1.348   1.124   2.811  0.5787  1.1776 -1.3902
  617SOL     OW 1849   1.473   0.382   3.026 -0.4830  0.2609 -0.5232
  617SOL    HW1 1850   1.480   0.465   2.963  0.1495  0.4564  0.4752
  617SOL    HW2 1851   1.560   0.329   3.026 -2.2897  3.0739  1.3134
  618SOL     OW 1852   1.431   2.090   2.645 -0.4421 -0.4262  0.2789
  618SOL    HW1 1853   1.510   2.028   2.642  0.9678  1.5434 -1.6923
  618SOL    HW2 1854   1.435   2.162   2.719 -2.7962  0.1428 -1.2219
  619SOL     OW 1855   2.522   1.616   0.668  0.8713  0.0563  0.5879
  619SOL    HW1 1856   2.608   1.618   0.720 -1.1515  1.3370  2.0536
  619SOL    HW2 1857   2.482   1.525   0.645 -1.7588 -0.4055  1.3240
  620SOL     OW 1858   2.215   2.799   2.199  0.0983  0.3432 -0.0366
  620SOL    HW1 1859   2.175   2.810   2.106  0.9577  2.9964  2.3349
  620SOL    HW2 1860   2.167   2.712   2.243 -1.8343 -0.9319  1.1223
  621SOL     OW 1861   3.004   1.328   0.781  0.3807 -0.1713 -0.0120
  621SOL    HW1 1862   2.990   1.228   0.782  1.3433  0.4096 -0.5243
  621SOL    HW2 1863   3.009   1.356   0.877  0.9199 -0.9666 -2.0554
  622SOL     OW 1864   1.435   1.392   2.647 -0.1523  0.0148  0.6600
  622SOL    HW1 1865   1.413   1.390   2.548  1.2038 -2.5682 -0.2804
  622SOL    HW2 1866   1.529   1.422   2.670  0.0293 -1.3955  1.3869
  623SOL     OW 1867   0.119   2.610   2.202 -0.9169  0.0307 -0.1049
  623SOL    HW1 1868   0.156   2.565   2.282 -0.9399  0.5428 -3.6214
  623SOL    HW2 1869   0.028   2.653   2.215 -0.9662  2.3949  1.5450
  624SOL     OW 1870   0.753   2.877   2.958  0.0940  0.1790  0.0282
  624SOL    HW1 1871   0.765   2.786   2.911 -0.1286 -3.7919  0.3554
  624SOL    HW2 1872   0.700   2.865   3.042 -0.1919 -1.8748 -1.4338
  625SOL     OW 1873   0.357   2.355   2.081  0.1762  1.0215 -0.1485
  625SOL    HW1 1874   0.420   2.397   2.018 -1.0338  2.2748  2.6425
  625SOL    HW2 1875   0.271   2.326   2.032  1.6530  2.2362 -0.7132
  626SOL     OW 1876   0.296   0.204   3.061  0.0090 -0.6439  0.5442
  626SOL    HW1 1877   0.230   0.274   3.086  2.3205  1.3770  0.6950
  626SOL    HW2 1878   0.259   0.137   2.998 -0.0276  1.2127  1.4800
  627SOL     OW 1879   1.896   1.459   0.069  0.5064 -0.2898  0.4860
  627SOL    HW1 1880   1.981   1.499   0.027  2.1804  1.1262 -1.9913
  627SOL    HW2 1881   1.834   1.418   0.001 -0.5342 -2.5493  0.1656
  628SOL     OW 1882   1.332   1.903   0.229 -0.0792 -0.1550  0.0505
  628SOL    HW1 1883   1.337   1.864   0.323  0.0041  0.5094 -2.7515
  628SOL    HW2 1884   1.285   1.844   0.159  2.8581 -0.7407  1.6576
  629SOL     OW 1885   3.043   0.194   1.839 -0.0043  0.2287  0.1283
  629SOL    HW1 1886   0.048   0.224   1.876 -1.9839  1.8694  1.7552
  629SOL    HW2 1887   3.002   0.130   1.905  0.9130  0.3466 -0.3531
  630SOL     OW 1888   2.018   0.919   1.886  0.8742 -0.6265  0.5214
  630SOL    HW1 1889   1.917   0.904   1.887  1.4669  0.7307 -0.1933
  630SOL    HW2 1890   2.062   0.825   1.863  1.8382 -3.1599  1.6354
  631SOL     OW 1891   1.792   0.133   0.652 -0.1013 -0.1620 -0.0397
  631SOL    HW1 1892   1.733   0.214   0.679 -0.6958 -0.3461 -1.0104
  631SOL    HW2 1893   1.763   0.053   0.704 -0.2799 -1.1441 -3.8340
  632SOL     OW 1894   2.808   0.978   2.025  0.2823  0.8268  0.3721
  632SOL    HW1 1895   2.801   1.002   1.926  0.9089 -0.6222 -0.6438
  632SOL    HW2 1896   2.720   0.950   2.066  0.7588 -1.2638  0.0041
  633SOL     OW 1897   0.713   0.797   2.559 -0.2870  0.3172  0.2534
  633SOL    HW1 1898   0.803   0.744   2.566 -0.6051 -2.7369 -1.5052
  633SOL    HW2 1899   0.706   0.862   2.634 -0.6137 -4.2824 -2.2602
  634SOL     OW 1900   0.604   3.059   2.790 -0.1180 -0.5573 -0.3829
  634SOL    HW1 1901   0.584   0.030   2.871 -0.1961 -1.6981 -0.2740
  634SOL    HW2 1902   0.651   2.972   2.820 -1.0826 -1.4843  0.0018
  635SOL     OW 1903   0.034   1.487   1.257  0.4631 -0.0776 -0.3179
  635SOL    HW1 1904   0.076   1.577   1.244 -2.0748  1.5376  0.0259
  635SOL    HW2 1905   3.057   1.481   1.336  0.0284 -1.5637 -1.0224
  636SOL     OW 1906   0.240   1.717   0.011  0.1852  0.1404  0.2132
  636SOL    HW1 1907   0.225   1.631   0.065  0.0637 -0.4629 -2.6041
  636SOL    HW2 1908   0.328   1.760   0.042  0.3739  2.2402 -1.1504
  637SOL     OW 1909   0.132   2.461   0.290 -0.1645 -0.3280 -0.2055
  637SOL    HW1 1910   0.177   2.451   0.201  3.7850 -0.4136  2.4724
  637SOL    HW2 1911   0.068   2.386   0.306  2.3994  1.8457  0.0137
  638SOL     OW 1912   2.754   2.679   0.502  0.2661 -0.1542  0.3668
  638SOL    HW1 1913   2.840   2.634   0.463 -0.9936  0.5094 -0.3530
  638SOL    HW2 1914   2.684   2.603   0.490 -3.6125 -1.6874  0.8179
  639SOL     OW 1915   1.346   0.837   2.953  0.8426 -0.6029 -0.1068
  639SOL    HW1 1916   1.259   0.805   2.909  0.9018  0.1427 -2.3554
  639SOL    HW2 1917   1.330   0.843   3.051 -0.2604 -0.2830 -1.6105
  640SOL     OW 1918   1.781   2.247   1.827  0.0704 -0.1703 -0.6508
  640SOL    HW1 1919   1.699   2.240   1.766 -3.0196 -0.3757 -3.1083
  640SOL    HW2 1920   1.760   2.248   1.926 -0.2243 -0.7524 -0.3179
  641SOL     OW 1921   2.986   2.958   0.839 -0.1241 -0.1875 -0.4497
  641SOL    HW1 1922   3.053   3.026   0.873  1.2196 -1.1537 -1.5380
  641SOL    HW2 1923   2.919   2.940   0.915 -0.3545 -2.2669  1.9511
  642SOL     OW 1924   1.175   0.953   1.637 -0.2468  0.0481  0.2205
  642SOL    HW1 1925   1.197   1.025   1.703 -1.3344  0.6196  0.2785
  642SOL    HW2 1926   1.190   0.990   1.545 -2.8724 -2.0796 -0.7694
  643SOL     OW 1927   0.810   1.755   2.724 -0.1496  0.6948  0.3181
  643SOL    HW1 1928   0.768   1.685   2.787 -0.1696 -0.9058 -0.1135
  643SOL    HW2 1929   0.739   1.831   2.708 -3.0525  2.7871 -1.7337
  644SOL     OW 1930   1.267   2.538   2.628  0.4653 -0.5192 -0.2769
  644SOL    HW1 1931   1.359   2.575   2.654 -1.2930 -1.5285 -0.4840
  644SOL    HW2 1932   1.201   2.561   2.703  0.1441  2.9620 -2.7613
  645SOL     OW 1933   1.591   1.111   1.755  0.3143  0.2513 -0.1432
  645SOL    HW1 1934   1.605   1.178   1.832 -0.8961  1.8168 -0.0548
  645SOL    HW2 1935   1.599   1.162   1.666 -0.3362  1.9888 -1.4196
  646SOL     OW 1936   0.974   2.650   2.787  0.4618 -0.4276 -0.2716
  646SOL    HW1 1937   0.912   2.699   2.729  1.7676 -2.0612 -1.3996
  646SOL    HW2 1938   1.050   2.706   2.810 -1.6633 -0.5373  0.7468
  647SOL     OW 1939   0.983   0.007   0.430 -0.6708  0.4652 -0.0188
  647SOL    HW1 1940   1.015   3.054   0.520 -1.5086  0.0256  0.8884
  647SOL    HW2 1941   0.936   0.096   0.444  0.5020  2.6573  0.4981
  648SOL     OW 1942   2.676   2.811   1.563  0.0765 -0.1545 -0.0349
  648SOL    HW1 1943   2.614   2.817   1.483  0.7310  0.2346  0.4824
  648SOL    HW2 1944   2.625   2.780   1.647 -2.2821  1.0241 -0.3734
  649SOL     OW 1945   0.576   2.648   2.780  0.0265 -0.7146  0.8546
  649SOL    HW1 1946   0.597   2.550   2.760  2.8102 -0.2330  0.3255
  649SOL    HW2 1947   0.481   2.674   2.778 -1.5518 -1.3539  0.6570
  650SOL     OW 1948   2.637   1.813   2.215  0.3983  0.1778 -0.7263
  650SOL    HW1 1949   2.682   1.802   2.306  0.6060 -0.2738  1.0819
  650SOL    HW2 1950   2.672   1.882   2.153 -3.7565 -1.2659  1.0192
  651SOL     OW 1951   2.921   2.240   2.172 -0.0046  0.3405 -0.4239
  651SOL    HW1 1952   3.016   2.208   2.152 -1.6864 -1.7215 -0.9617
  651SOL    HW2 1953   2.893   2.230   2.272  0.4914 -1.5067  2.5567
  652SOL     OW 1954   2.561   2.150   0.321  0.2556  0.5197 -0.2519
  652SOL    HW1 1955   2.556   2.095   0.404  1.2138 -1.7356 -0.8457
  652SOL    HW2 1956   2.467   2.178   0.297 -1.0928  0.5116 -0.4802
  653SOL     OW 1957   2.938   0.907   1.048  0.3446 -0.5432 -0.7902
  653SOL    HW1 1958   2.880   0.851   0.984 -2.7287  0.8281 -1.5455
  653SOL    HW2 1959   2.965   0.852   1.131  1.2308 -1.3591  2.1473
  654SOL     OW 1960   0.826   0.432   2.752  0.4903  0.6203 -0.4163
  654SOL    HW1 1961   0.909   0.400   2.699  1.1871 -1.8448 -0.7190
  654SOL    HW2 1962   0.816   0.368   2.833  1.1072 -1.8361  0.9507
  655SOL     OW 1963   1.042   0.221   1.154 -0.5892 -0.2657  0.0671
  655SOL    HW1 1964   1.076   0.252   1.246 -2.9129  0.4267  1.3411
  655SOL    HW2 1965   1.059   0.122   1.135  2.8038  1.2613  1.2081
  656SOL     OW 1966   0.503   2.491   1.874  0.0574 -0.1287 -0.2689
  656SOL    HW1 1967   0.490   2.486   1.773 -0.7179 -1.1571 -0.6611
  656SOL    HW2 1968   0.599   2.482   1.899 -2.2558 -1.6338  1.9533
  657SOL     OW 1969   2.594   0.815   0.321  0.5072  0.0073 -0.0678
  657SOL    HW1 1970   2.600   0.724   0.364  2.7335  1.1589 -1.7086
  657SOL    HW2 1971   2.678   0.841   0.271 -1.8240 -1.8914  1.3642
  658SOL     OW 1972   1.969   1.749   0.989  0.1877  0.1424 -0.3848
  658SOL    HW1 1973   2.019   1.753   1.076  0.2196  1.0232  2.4029
  658SOL    HW2 1974   2.022   1.797   0.915  3.6597  1.0681 -2.4223
  659SOL     OW 1975   2.540   2.110   2.950  0.3565 -0.1979 -0.0491
  659SOL    HW1 1976   2.577   2.074   2.860 -0.3286 -0.6235 -0.3191
  659SOL    HW2 1977   2.604   2.107   3.030 -0.3749  3.1354  2.5133
  660SOL     OW 1978   1.181   0.580   0.353 -0.5717  0.2237  0.0758
  660SOL    HW1 1979   1.246   0.655   0.372 -0.9206 -1.1316 -0.3414
  660SOL    HW2 1980   1.213   0.534   0.267 -0.8987 -2.3347 -1.0464
  661SOL     OW 1981   2.049   0.197   3.085 -0.2865 -0.6032 -0.2238
  661SOL    HW1 1982   2.041   0.218   0.103  0.2704  1.2640  2.3353
  661SOL    HW2 1983   2.115   0.119   3.073  1.8368 -2.2170  2.3369
  662SOL     OW 1984   0.770   0.049   0.673  0.1434  0.1863 -0.9081
  662SOL    HW1 1985   0.743   0.102   0.588  1.9707 -0.8204  0.5841
  662SOL    HW2 1986   0.709   3.062   0.705  3.1663  0.1680  2.3061
  663SOL     OW 1987   1.438   0.250   2.460  0.4412  0.4864 -0.0701
  663SOL    HW1 1988   1.473   0.297   2.375 -1.8007  0.1445  2.8637
  663SOL    HW2 1989   1.406   0.317   2.531  0.0885  1.3146  1.0569
  664SOL     OW 1990   0.860   2.869   1.289  0.5172  0.9309 -0.0545
  664SOL    HW1 1991   0.856   2.968   1.297  0.9845 -2.7817  0.1848
  664SOL    HW2 1992   0.794   2.824   1.350  2.6437 -0.7053 -2.2385
  665SOL     OW 1993   0.821   2.383   1.617  1.1921 -0.8781 -0.0041
  665SOL    HW1 1994   0.832   2.335   1.526 -0.6397 -0.0944  0.4162
  665SOL    HW2 1995   0.860   2.480   1.615  1.2703 -0.2592 -0.1429
  666SOL     OW 1996   0.255   0.050   2.597  0.1355  0.1058 -0.0447
  666SOL    HW1 1997   0.343   3.082   2.600  1.4471  1.3147  0.4251
  666SOL    HW2 1998   0.199   0.012   2.521  2.6366 -1.2945 -1.2738
  667SOL     OW 1999   1.820   1.703   1.558 -0.4393 -0.2304 -0.1873
  667SOL    HW1 2000   1.798   1.673   1.461  0.6886  1.6836  0.3505
  667SOL    HW2 2001   1.904   1.761   1.560  1.1670  1.3135 -1.8135
  668SOL     OW 2002   1.606   0.252   1.771  0.2890  0.2158 -0.8297
  668SOL    HW1 2003   1.652   0.162   1.781  1.5308 -0.0708 -0.6777
  668SOL    HW2 2004   1.534   0.240   1.700 -1.5465  0.8004  0.8484
  669SOL     OW 2005   2.714   2.518   1.097  0.3109  0.2502  0.0128
  669SOL    HW1 2006   2.780   2.596   1.118  0.2810 -2.8615  0.8409
  669SOL    HW2 2007   2.759   2.434   1.074  0.0637  0.0066 -0.4251
  670SOL     OW 2008   1.402   2.303   2.810 -0.6088 -0.3362 -0.0200
  670SOL    HW1 2009   1.302   2.295   2.795  0.9088  0.7094 -1.5320
  670SOL    HW2 2010   1.410   2.351   2.898 -1.6072 -1.7164 -4.0401
  671SOL     OW 2011   0.832   1.098   0.499 -0.4425 -0.1325  0.7555
  671SOL    HW1 2012   0.855   1.160   0.573 -0.5220 -3.0847  1.9902
  671SOL    HW2 2013   0.888   1.013   0.498  0.5066  0.4875 -2.6535
  672SOL     OW 2014   3.017   1.207   2.647 -0.1512 -0.6047  0.1904
  672SOL    HW1 2015   2.940   1.226   2.711  1.6388  1.2522  1.4810
  672SOL    HW2 2016   3.000   1.128   2.591  1.3026  2.4786 -0.9485
  673SOL     OW 2017   2.644   1.888   1.756 -0.2773 -0.0670 -0.0354
  673SOL    HW1 2018   2.674   1.826   1.830  1.2247 -0.1733 -0.5749
  673SOL    HW2 2019   2.545   1.891   1.746  1.6733 -0.0516 -0.4406
  674SOL     OW 2020   0.367   2.307   2.345  0.1836  0.6676  0.2556
  674SOL    HW1 2021   0.465   2.311   2.374  0.0704  0.7381 -0.0469
  674SOL    HW2 2022   0.353   2.315   2.245 -0.3707 -1.3753 -0.3698
  675SOL     OW 2023   0.881   0.647   1.590  0.6520 -0.0672  0.1641
  675SOL    HW1 2024   0.910   0.723   1.649  0.7108 -2.6310  0.8137
  675SOL    HW2 2025   0.955   0.622   1.527 -1.8538  1.1050  2.3521
  676SOL     OW 2026   2.147   0.041   1.147  0.2071 -0.1610 -0.5514
  676SOL    HW1 2027   2.088   3.084   1.079  0.8883  1.9180 -0.6652
  676SOL    HW2 2028   2.148   0.140   1.125  0.5367  1.4657 -1.1184
  677SOL     OW 2029   2.234   1.519   3.082 -0.1360 -0.4853  0.7326
  677SOL    HW1 2030   2.252   1.612   3.049 -0.2926 -0.6458 -0.3795
  677SOL    HW2 2031   2.184   1.460   3.013 -3.0834 -0.8195  0.7355
  678SOL     OW 2032   2.772   1.299   1.050 -0.6755 -0.0063  0.9207
  678SOL    HW1 2033   2.777   1.245   1.135  0.8691 -5.3588 -2.4821
  678SOL    HW2 2034   2.855   1.354   1.051  0.5187  0.4564  0.6931
  679SOL     OW 2035   2.703   0.365   0.120 -0.5069 -0.0530 -0.1668
  679SOL    HW1 2036   2.764   0.291   0.092 -0.8362  2.1657 -1.0358
  679SOL    HW2 2037   2.754   0.449   0.152 -1.3822 -0.8866 -0.6001
  680SOL     OW 2038   0.249   1.945   1.884 -0.1301 -0.1254 -0.1549
  680SOL    HW1 2039   0.153   1.974   1.865  1.1026  1.6999  0.2960
  680SOL    HW2 2040   0.258   1.844   1.908 -0.0329  0.6257  0.7756
  681SOL     OW 2041   2.012   2.131   1.672  0.0457  0.3365  0.0336
  681SOL    HW1 2042   2.056   2.053   1.715 -1.6091  1.7359  0.4812
  681SOL    HW2 2043   1.933   2.164   1.727  0.6288 -1.0729  0.1963
  682SOL     OW 2044   0.450   1.906   0.063  0.0770  0.8189 -0.6548
  682SOL    HW1 2045   0.407   1.978   0.006  0.4150  0.7898  0.7778
  682SOL    HW2 2046   0.519   1.941   0.126 -0.1726 -1.2116 -2.4869
  683SOL     OW 2047   3.036   2.125   1.353  0.3357  0.6523  0.3363
  683SOL    HW1 2048   0.035   2.163   1.389  0.9324 -0.2443 -0.2963
  683SOL    HW2 2049   3.053   2.027   1.333 -1.3808 -0.3559 -3.7053
  684SOL     OW 2050   2.863   1.255   2.094 -0.1940 -0.5444 -0.1734
  684SOL    HW1 2051   2.774   1.306   2.079 -1.5324 -2.8362 -0.5932
  684SOL    HW2 2052   2.844   1.158   2.081  1.0515  1.5401  1.2819
  685SOL     OW 2053   1.497   0.818   0.572  0.0174 -0.2986 -0.0679
  685SOL    HW1 2054   1.509   0.723   0.598  0.5568  2.7187 -2.3219
  685SOL    HW2 2055   1.454   0.818   0.479  0.1387  0.3279  1.4800
  686SOL     OW 2056   0.554   0.372   0.866 -0.1847 -0.3737 -0.8489
  686SOL    HW1 2057   0.470   0.361   0.921  1.9735  0.1637  0.2286
  686SOL    HW2 2058   0.535   0.373   0.763 -1.7584  0.8591 -0.8419
  687SOL     OW 2059   0.991   2.252   2.518  0.2602  0.5285  0.8020
  687SOL    HW1 2060   0.958   2.301   2.597  0.1125 -0.0413  0.7150
  687SOL    HW2 2061   1.090   2.255   2.516  0.1693  1.4359 -2.3951
  688SOL     OW 2062   1.980   0.707   1.455  0.1921 -0.5551 -0.3199
  688SOL    HW1 2063   2.044   0.626   1.457 -1.3821 -0.8508 -0.9324
  688SOL    HW2 2064   1.927   0.714   1.543  3.6857 -0.1300  1.6608
  689SOL     OW 2065   1.715   0.329   0.945  0.6284  0.1689 -0.3795
  689SOL    HW1 2066   1.816   0.342   0.961 -0.7582 -1.3327 -0.0782
  689SOL    HW2 2067   1.685   0.369   0.854 -0.5644 -0.0274 -0.5900
  690SOL     OW 2068   2.998   1.477   1.020 -0.1181 -0.3687  0.3949
  690SOL    HW1 2069   3.052   1.467   1.107 -0.0313 -1.7583  1.4194
  690SOL    HW2 2070   2.998   1.577   0.992 -1.6288  2.4097  0.0617
  691SOL     OW 2071   0.412   2.254   1.270 -0.1812 -0.2885 -0.1784
  691SOL    HW1 2072   0.415   2.325   1.198 -0.9330 -2.0352 -1.0658
  691SOL    HW2 2073   0.485   2.187   1.251 -2.3279  0.2144 -1.6611
  692SOL     OW 2074   1.614   2.994   1.509 -0.1330  0.3441 -0.2155
  692SOL    HW1 2075   1.601   3.038   1.599  0.3439  1.7575  2.0853
  692SOL    HW2 2076   1.688   3.027   1.445  1.1402 -1.7603  1.0724
  693SOL     OW 2077   0.484   1.717   2.168 -0.3895 -0.1604 -0.1751
  693SOL    HW1 2078   0.578   1.742   2.127  3.6505  0.2689 -2.0825
  693SOL    HW2 2079   0.446   1.795   2.226 -0.5104  2.5012  2.2370
  694SOL     OW 2080   2.122   1.410   1.091 -0.0652  0.5480  0.1887
  694SOL    HW1 2081   2.118   1.458   1.005  0.9521  0.6256  0.8654
  694SOL    HW2 2082   2.034   1.410   1.145  2.7495 -1.4599  1.8454
  695SOL     OW 2083   1.084   0.898   0.992  0.1438  0.1264  0.2563
  695SOL    HW1 2084   1.095   0.825   0.917  1.4857 -1.3994 -0.1820
  695SOL    HW2 2085   1.082   0.844   1.076  2.0653  0.1981 -0.7742
  696SOL     OW 2086   0.443   3.064   0.424  0.0696  0.0491 -0.5626
  696SOL    HW1 2087   0.346   3.027   0.438 -2.5133 -1.4300 -1.0949
  696SOL    HW2 2088   0.514   2.997   0.411 -0.2008  1.0494  3.3527
  697SOL     OW 2089   2.129   0.669   0.904 -0.1876  0.5704  0.2440
  697SOL    HW1 2090   2.202   0.739   0.918  1.2185  3.1900 -2.0275
  697SOL    HW2 2091   2.074   0.657   0.989 -0.7765  0.6038 -1.2000
  698SOL     OW 2092   1.539   1.290   1.942  0.1102  0.0067  0.1052
  698SOL    HW1 2093   1.484   1.378   1.955 -0.7475 -2.1448 -0.1857
  698SOL    HW2 2094   1.563   1.248   2.030 -0.2839  0.2260 -3.6977
  699SOL     OW 2095   2.883   0.599   1.966 -0.1467  0.2246 -0.2567
  699SOL    HW1 2096   2.800   0.627   2.021  1.2455  0.5259 -0.3606
  699SOL    HW2 2097   2.962   0.560   2.020  1.9348  2.3081 -0.1128
  700SOL     OW 2098   1.655   2.689   0.563 -0.1470 -0.3914  0.0923
  700SOL    HW1 2099   1.659   2.775   0.510 -0.8291  1.7222 -1.9291
  700SOL    HW2 2100   1.743   2.636   0.556 -0.1418  0.4779 -0.5808
  701SOL     OW 2101   2.699   1.791   2.489 -0.3561  0.4137  0.6218
  701SOL    HW1 2102   2.709   1.705   2.547  0.5668  0.5340  1.5913
  701SOL    HW2 2103   2.669   1.865   2.550 -3.1065 -1.7103  0.2127
  702SOL     OW 2104   0.663   2.915   0.414 -0.5773  0.3398 -0.0689
  702SOL    HW1 2105   0.620   2.884   0.500 -1.9740 -2.2379 -0.2588
  702SOL    HW2 2106   0.765   2.933   0.414 -0.3459 -0.6123  0.6838
  703SOL     OW 2107   1.803   2.802   2.329 -0.1379  0.4205 -1.0100
  703SOL    HW1 2108   1.813   2.902   2.347  2.9066 -0.5164 -0.0416
  703SOL    HW2 2109   1.766   2.774   2.239  1.4635  2.3084  0.2558
  704SOL     OW 2110   2.696   2.144   0.083 -0.1217 -0.2573  0.0806
  704SOL    HW1 2111   2.709   2.243   0.091  0.0748 -1.1135  0.3406
  704SOL    HW2 2112   2.634   2.111   0.157 -0.6193 -0.7057  0.1722
  705SOL     OW 2113   2.927   2.196   2.432  0.2958 -0.0447  0.4106
  705SOL    HW1 2114   2.972   2.102   2.414 -0.6627  1.6451  0.1859
  705SOL    HW2 2115   2.992   2.256   2.483  0.7252 -0.4770 -1.1068
  706SOL     OW 2116   2.730   0.107   0.373  0.2586 -0.9247  0.3182
  706SOL    HW1 2117   2.709   0.018   0.323  0.8614 -0.3458  0.8282
  706SOL    HW2 2118   2.659   0.131   0.446 -2.9072 -1.9018  2.6803
  707SOL     OW 2119   1.157   0.214   2.884  0.0564 -0.1510 -0.1135
  707SOL    HW1 2120   1.090   0.217   2.805 -0.7756 -0.2712 -0.8379
  707SOL    HW2 2121   1.208   0.301   2.892  0.3594 -1.9294  0.1129
  708SOL     OW 2122   0.360   2.145   1.685  0.2907 -0.3232  0.0080
  708SOL    HW1 2123   0.335   2.081   1.761 -2.0962  0.5416  0.5157
  708SOL    HW2 2124   0.462   2.163   1.685  2.9233  1.2199 -0.2598
  709SOL     OW 2125   1.287   2.909   1.966 -0.1588 -0.0548  0.0144
  709SOL    HW1 2126   1.305   3.010   1.973 -0.3903  1.7316  1.8595
  709SOL    HW2 2127   1.372   2.858   1.999  0.0077 -0.5807  0.1886
  710SOL     OW 2128   1.504   2.667   2.657  0.0595 -0.4164  0.7647
  710SOL    HW1 2129   1.548   2.630   2.570 -0.7758  2.0193 -0.2063
  710SOL    HW2 2130   1.554   2.633   2.740 -1.0321  1.0732 -1.7632
  711SOL     OW 2131   0.772   2.778   2.648  0.3912 -0.2842  0.3984
  711SOL    HW1 2132   0.760   2.758   2.549 -1.2854 -1.7813  0.2384
  711SOL    HW2 2133   0.695   2.727   2.697  1.4938 -0.2514  0.9363
  712SOL     OW 2134   1.033   2.113   3.019  0.6939  0.1037 -0.1625
  712SOL    HW1 2135   1.011   2.023   2.978 -0.9286  2.1127 -0.4576
  712SOL    HW2 2136   0.944   2.164   3.031 -1.6273  1.3598 -0.5943
  713SOL     OW 2137   1.893   1.209   1.458 -0.4837 -0.4441 -0.4033
  713SOL    HW1 2138   1.883   1.118   1.414 -0.7710 -1.3475  1.4123
  713SOL    HW2 2139   1.801   1.239   1.489 -0.6966  0.4717  1.7160
  714SOL     OW 2140   0.770   1.134   2.094  0.0649 -1.2018  0.0771
  714SOL    HW1 2141   0.848   1.082   2.134  0.9105 -0.0185 -1.1402
  714SOL    HW2 2142   0.684   1.087   2.099  4.8569  2.4498  1.3207
  715SOL     OW 2143   2.870   0.141   0.129  0.4632  0.6114  0.3526
  715SOL    HW1 2144   2.815   0.142   0.218  0.8776 -0.3487 -0.8322
  715SOL    HW2 2145   2.829   0.080   0.061 -2.3890 -0.3937 -0.3203
  716SOL     OW 2146   0.384   2.627   0.956 -0.1264 -0.6235 -0.0920
  716SOL    HW1 2147   0.464   2.668   1.002  1.7054  1.2498 -3.4390
  716SOL    HW2 2148   0.298   2.671   0.985  0.7535 -0.6372 -2.7136
  717SOL     OW 2149   2.550   0.680   0.671 -0.4328  0.1507 -0.9449
  717SOL    HW1 2150   2.550   0.637   0.582  2.1663  0.3692  1.1131
  717SOL    HW2 2151   2.471   0.744   0.688 -0.8854  1.1254 -3.2958
  718SOL     OW 2152   1.633   1.284   1.524  0.1148 -0.4568  0.0376
  718SOL    HW1 2153   1.639   1.356   1.599 -1.4024 -0.6986 -2.9613
  718SOL    HW2 2154   1.548   1.299   1.467 -0.2378 -4.3206  0.9916
  719SOL     OW 2155   2.774   2.660   2.951 -0.3026 -0.1236  0.4106
  719SOL    HW1 2156   2.680   2.700   2.966  1.8492  1.5730 -1.7550
  719SOL    HW2 2157   2.769   2.577   2.891 -1.3074 -0.8552 -2.4175
  720SOL     OW 2158   1.085   0.342   0.761 -0.1569  0.0217  0.2482
  720SOL    HW1 2159   1.072   0.391   0.851  0.0305  1.4497  2.0053
  720SOL    HW2 2160   1.042   0.249   0.769  0.8998 -0.6426 -1.7229
  721SOL     OW 2161   1.939   0.394   1.061  0.1927 -0.4732 -0.0674
  721SOL    HW1 2162   2.034   0.356   1.050 -1.0717  1.3268 -1.6061
  721SOL    HW2 2163   1.938   0.497   1.052  0.8135 -2.1434 -1.8205
  722SOL     OW 2164   0.632   2.226   1.718  0.1573  0.0964 -0.2610
  722SOL    HW1 2165   0.648   2.197   1.815  1.6809  0.3536  2.2948
  722SOL    HW2 2166   0.681   2.306   1.685 -0.5329 -0.7504 -0.1976
  723SOL     OW 2167   1.406   0.170   1.295 -0.0051 -0.3346 -0.1097
  723SOL    HW1 2168   1.488   0.203   1.238  0.5216 -0.1297 -0.2690
  723SOL    HW2 2169   1.418   0.068   1.314  2.3829  1.2174  2.6643
  724SOL     OW 2170   1.662   1.941   1.580 -0.4446 -0.4128  0.4022
  724SOL    HW1 2171   1.569   1.904   1.594 -1.3495 -0.1115 -4.1568
  724SOL    HW2 2172   1.721   1.860   1.591  2.0226 -1.1157 -0.0843
  725SOL     OW 2173   1.426   2.446   1.270 -0.0158 -0.6480  0.2831
  725SOL    HW1 2174   1.378   2.383   1.202 -1.1433 -1.3248 -1.2712
  725SOL    HW2 2175   1.411   2.545   1.235  1.6216  2.7245  1.4521
  726SOL     OW 2176   1.799   0.325   2.951 -0.4893  0.1138  0.0999
  726SOL    HW1 2177   1.890   0.282   2.961 -1.0825 -0.7581 -0.6220
  726SOL    HW2 2178   1.735   0.272   2.892  2.4522 -0.8117 -1.8096
  727SOL     OW 2179   1.230   2.123   0.335 -0.0259  0.1531 -0.1722
  727SOL    HW1 2180   1.259   2.051   0.272 -0.3472  0.1715  1.5308
  727SOL    HW2 2181   1.163   2.095   0.410 -4.0655  2.4929  1.7114
  728SOL     OW 2182   1.945   2.636   2.010  0.1436  0.0818 -0.2136
  728SOL    HW1 2183   1.921   2.595   1.918  1.7314 -1.0257 -1.2815
  728SOL    HW2 2184   2.001   2.722   2.011 -0.9276  1.0906  1.3072
  729SOL     OW 2185   2.089   2.551   1.620 -0.4743  0.1740 -0.2985
  729SOL    HW1 2186   2.106   2.466   1.563  0.0410 -1.1111  1.7646
  729SOL    HW2 2187   2.144   2.553   1.702 -1.1204 -2.4113 -0.9469
  730SOL     OW 2188   1.447   0.725   2.520  0.3338  0.4027  0.6558
  730SOL    HW1 2189   1.439   0.664   2.600 -0.1290  0.8607  0.2630
  730SOL    HW2 2190   1.414   0.672   2.433 -2.7043 -1.8258 -2.7675
  731SOL     OW 2191   0.777   3.063   0.990 -0.4901 -0.4536 -0.1257
  731SOL    HW1 2192   0.690   0.028   0.957 -2.9548  0.9260  3.2063
  731SOL    HW2 2193   0.790   3.083   1.090 -0.2948  1.8941 -0.8109
  732SOL     OW 2194   1.588   2.979   1.092  0.5359  0.1166 -0.0393
  732SOL    HW1 2195   1.597   2.879   1.120  1.2445  0.2136 -0.5785
  732SOL    HW2 2196   1.487   2.994   1.070 -0.7382  0.6845 -3.2725
  733SOL     OW 2197   1.434   1.100   1.243  0.2685  0.2206 -0.3963
  733SOL    HW1 2198   1.444   1.045   1.155  0.4412  1.9400  1.0803
  733SOL    HW2 2199   1.440   1.196   1.226  0.3480 -1.6003 -0.4282
  734SOL     OW 2200   2.315   2.271   0.298  0.1770  0.2427 -0.1847
  734SOL    HW1 2201   2.214   2.258   0.286  2.4642  1.3741 -0.5424
  734SOL    HW2 2202   2.339   2.337   0.372 -0.5111 -3.9037  0.9670
  735SOL     OW 2203   0.475   0.399   0.617 -0.6994  0.2618  0.2513
  735SOL    HW1 2204   0.385   0.447   0.626  1.1474 -1.6351 -0.9654
  735SOL    HW2 2205   0.484   0.348   0.529  1.0153 -0.9133 -1.2227
  736SOL     OW 2206   2.023   2.207   2.502 -0.0622  0.2002 -0.6825
  736SOL    HW1 2207   1.931   2.184   2.525  1.8705 -0.3281  2.7375
  736SOL    HW2 2208   2.041   2.216   2.404  0.6323  0.7617  0.6717
  737SOL     OW 2209   0.904   2.433   1.038  0.0230 -0.3639 -0.1883
  737SOL    HW1 2210   0.979   2.500   1.018  0.7692  1.5822 -1.6155
  737SOL    HW2 2211   0.858   2.405   0.954 -1.4821 -0.2406 -0.9344
  738SOL     OW 2212   1.537   2.813   2.084  0.4861 -0.3040  0.2452
  738SOL    HW1 2213   1.513   2.821   2.182  1.4495  0.5864  0.8732
  738SOL    HW2 2214   1.566   2.713   2.067 -0.4301 -1.6431  0.4429
  739SOL     OW 2215   0.730   2.032   1.938  0.5324 -0.3479 -0.1064
  739SOL    HW1 2216   0.811   2.088   1.968  1.7740 -1.0980  0.1544
  739SOL    HW2 2217   0.639   2.062   1.974 -0.1788 -0.4386 -1.8081
  740SOL     OW 2218   1.634   2.410   1.433  0.3497  0.6852  0.2207
  740SOL    HW1 2219   1.715   2.404   1.367  2.0374 -0.3071 -1.5889
  740SOL    HW2 2220   1.545   2.434   1.385  1.3947 -1.2032 -0.7501
  741SOL     OW 2221   2.491   1.489   0.008 -0.0273 -0.1648  0.4671
  741SOL    HW1 2222   2.522   1.463   3.002  1.1398  1.1996  1.6128
  741SOL    HW2 2223   2.392   1.485   0.024 -0.0444 -0.2378 -2.6013
  742SOL     OW 2224   0.680   1.543   1.955 -0.4660  0.1231  0.7351
  742SOL    HW1 2225   0.682   1.615   2.024 -0.2056 -0.8908  1.8273
  742SOL    HW2 2226   0.616   1.472   1.986 -2.0121 -0.1185  0.0004
  743SOL     OW 2227   2.952   1.027   2.422 -0.3609  0.1745 -0.1620
  743SOL    HW1 2228   2.972   1.001   2.329  0.1037 -1.5731  0.1941
  743SOL    HW2 2229   2.853   1.022   2.432  3.2051 -0.4922 -2.1366
  744SOL     OW 2230   2.180   2.293   2.002 -0.3716 -0.1738  0.8698
  744SOL    HW1 2231   2.274   2.301   2.044  2.1798  2.5499  1.2792
  744SOL    HW2 2232   2.164   2.352   1.922 -3.4316  1.5707 -0.2007
  745SOL     OW 2233   2.441   1.549   1.574 -0.4072 -0.1982  0.2279
  745SOL    HW1 2234   2.343   1.558   1.552 -0.6970  1.4936  0.8557
  745SOL    HW2 2235   2.485   1.477   1.512 -2.1508 -0.1033 -0.8488
  746SOL     OW 2236   2.750   1.192   0.470  0.4965  0.1964  0.3244
  746SOL    HW1 2237   2.656   1.208   0.429  0.0239  0.3839  0.6852
  746SOL    HW2 2238   2.749   1.245   0.559  1.1440 -0.2673  0.2495
  747SOL     OW 2239   1.811   2.255   0.719 -0.1218 -0.1505 -0.6041
  747SOL    HW1 2240   1.905   2.280   0.702 -1.0306 -0.5951 -0.2599
  747SOL    HW2 2241   1.778   2.302   0.803  0.5741  2.0940  2.1154
  748SOL     OW 2242   0.882   2.241   0.363  0.2069  0.1917  0.0701
  748SOL    HW1 2243   0.917   2.232   0.266 -1.0882  0.6574 -1.3868
  748SOL    HW2 2244   0.939   2.307   0.415 -1.6337 -1.5223 -2.5249
  749SOL     OW 2245   2.774   0.424   2.299 -0.6407  0.0817  0.0913
  749SOL    HW1 2246   2.746   0.405   2.395  0.3884 -2.4404  0.6028
  749SOL    HW2 2247   2.753   0.342   2.244 -1.8432 -1.6111  1.1130
  750SOL     OW 2248   1.753   0.026   1.302 -0.1801 -0.1839 -0.0852
  750SOL    HW1 2249   1.725   0.123   1.271  0.3374 -1.5157 -0.6041
  750SOL    HW2 2250   1.718   3.045   1.232 -2.1033 -1.3329 -2.0550
  751SOL     OW 2251   1.660   2.319   2.785 -0.7058  0.3059  0.8083
  751SOL    HW1 2252   1.561   2.299   2.788 -0.0559  3.2097 -0.7924
  751SOL    HW2 2253   1.706   2.334   2.879 -0.1743  0.7555 -0.2314
  752SOL     OW 2254   1.699   1.899   0.454  0.3546  0.2051  0.3629
  752SOL    HW1 2255   1.680   1.996   0.478 -0.2911  1.2308  0.3653
  752SOL    HW2 2256   1.798   1.889   0.431 -0.9934  0.1362  0.1314
  753SOL     OW 2257   1.626   0.811   2.101 -0.2764  0.3135  0.3391
  753SOL    HW1 2258   1.677   0.749   2.164  0.5624 -0.7327  0.4461
  753SOL    HW2 2259   1.595   0.896   2.146  1.8982 -3.2314 -1.3553
  754SOL     OW 2260   0.127   2.808   0.738 -0.1602  0.8785  0.7071
  754SOL    HW1 2261   0.081   2.717   0.722 -0.8418 -0.7410  0.9252
  754SOL    HW2 2262   0.071   2.865   0.803 -1.9956 -1.3405 -1.9304
  755SOL     OW 2263   2.000   0.071   1.379  0.1818  0.0301 -0.4827
  755SOL    HW1 2264   2.065   0.061   1.300  0.2884 -0.2589  0.5035
  755SOL    HW2 2265   1.908   0.047   1.348  0.3535 -2.1483  0.6512
  756SOL     OW 2266   1.213   1.171   2.483 -0.3096  0.4675  0.2008
  756SOL    HW1 2267   1.294   1.146   2.539  1.0291  1.3580  1.7541
  756SOL    HW2 2268   1.237   1.160   2.384  1.9485  1.4111 -3.2316
  757SOL     OW 2269   2.938   2.693   1.440 -0.1645 -0.8443  0.2376
  757SOL    HW1 2270   2.975   2.602   1.413  0.0604 -1.4070  1.2894
  757SOL    HW2 2271   2.858   2.690   1.499 -1.2933 -0.8168 -0.9519
  758SOL     OW 2272   0.655   0.094   1.474  0.7913 -0.2338 -0.6774
  758SOL    HW1 2273   0.730   0.086   1.544 -0.2377 -1.3319  0.8300
  758SOL    HW2 2274   0.616   0.184   1.461 -0.2157 -0.8625  2.3242
  759SOL     OW 2275   2.413   1.248   0.766  0.7711  0.2834  0.2373
  759SOL    HW1 2276   2.435   1.316   0.692 -0.2640 -0.7626  1.8495
  759SOL    HW2 2277   2.495   1.203   0.801 -2.7184  0.8783 -2.3246
  760SOL     OW 2278   2.135   0.485   1.498 -0.4558 -0.1956 -0.4713
  760SOL    HW1 2279   2.062   0.439   1.448 -2.5451  0.7092 -0.9793
  760SOL    HW2 2280   2.171   0.427   1.575  2.0446 -1.2508  1.3023
  761SOL     OW 2281   2.127   0.025   0.449 -0.2845 -0.0403  0.1843
  761SOL    HW1 2282   2.210   3.058   0.475 -0.6120  0.0397  0.1123
  761SOL    HW2 2283   2.040   3.065   0.459 -0.2318 -0.4823  0.5274
  762SOL     OW 2284   2.014   2.273   0.272 -0.1787  0.4224 -0.3463
  762SOL    HW1 2285   1.993   2.196   0.208  0.2766 -0.2648  1.2457
  762SOL    HW2 2286   2.015   2.357   0.219  1.3140 -1.2376  0.4736
  763SOL     OW 2287   0.672   1.038   0.812 -0.4764  0.2858  0.3636
  763SOL    HW1 2288   0.737   1.105   0.776  0.7235  2.5821 -1.0587
  763SOL    HW2 2289   0.703   1.022   0.907  0.1139 -0.2640 -0.4401
  764SOL     OW 2290   2.502   2.386   2.994  0.0185 -0.9280 -0.0364
  764SOL    HW1 2291   2.522   2.289   2.980 -1.6811 -1.1136 -0.4343
  764SOL    HW2 2292   2.530   2.439   2.913  1.7636 -1.3085  0.8983
  765SOL     OW 2293   0.650   0.751   2.159  0.3729 -0.1836  0.3838
  765SOL    HW1 2294   0.589   0.761   2.240  0.5978  0.4382 -0.7244
  765SOL    HW2 2295   0.708   0.666   2.169  0.9740  0.6188  2.9937
  766SOL     OW 2296   0.046   1.294   2.414 -0.1102 -0.1989  0.2673
  766SOL    HW1 2297   3.074   1.287   2.496 -1.9721  0.4131 -3.4576
  766SOL    HW2 2298   0.030   1.385   2.370  0.8185  1.4993 -0.9505
  767SOL     OW 2299   0.122   1.785   2.165  0.5568  0.1717 -0.0627
  767SOL    HW1 2300   0.166   1.720   2.096  0.7150  2.1291 -0.9493
  767SOL    HW2 2301   0.152   1.763   2.261 -3.3118  1.0609 -2.0470
  768SOL     OW 2302   0.928   0.933   2.726 -0.2607 -0.8905  0.6622
  768SOL    HW1 2303   0.872   0.970   2.804  0.3640  0.4351 -0.5583
  768SOL    HW2 2304   0.917   0.995   2.645 -0.4546  1.5947 -2.0045
  769SOL     OW 2305   1.693   2.623   2.854  0.2944 -0.3807 -0.0025
  769SOL    HW1 2306   1.783   2.574   2.842 -2.1774  0.5840  1.1472
  769SOL    HW2 2307   1.710   2.705   2.916  0.5825  1.3916 -0.0533
  770SOL     OW 2308   2.957   0.665   2.570 -0.1490 -0.5621 -0.2729
  770SOL    HW1 2309   2.888   0.657   2.493  0.3416  0.9922 -1.7620
  770SOL    HW2 2310   2.907   0.697   2.654  0.0203 -1.2631 -0.6291
  771SOL     OW 2311   0.685   2.206   1.215  0.5285  0.6871  0.7865
  771SOL    HW1 2312   0.753   2.237   1.281  0.7266  2.5548 -3.0858
  771SOL    HW2 2313   0.640   2.286   1.176 -1.2666 -2.1975  2.6343
  772SOL     OW 2314   0.768   0.659   2.865 -0.4484 -0.2157 -0.0343
  772SOL    HW1 2315   0.794   0.578   2.806  0.3699  2.9898 -1.4445
  772SOL    HW2 2316   0.739   0.747   2.818 -1.2887 -0.1399  3.4103
  773SOL     OW 2317   2.260   1.046   1.709  0.2778 -0.2301  0.3497
  773SOL    HW1 2318   2.321   1.074   1.782 -0.9235 -1.9877 -2.8214
  773SOL    HW2 2319   2.164   1.042   1.743 -4.5073 -2.0762  1.9471
  774SOL     OW 2320   1.235   0.898   0.646  0.0053  0.5784 -0.4728
  774SOL    HW1 2321   1.208   0.830   0.717  0.4139 -0.0652 -0.1256
  774SOL    HW2 2322   1.317   0.863   0.599  0.0298 -0.7569  0.3000
  775SOL     OW 2323   1.868   2.884   2.615  0.0572 -0.5481  0.1062
  775SOL    HW1 2324   1.931   2.922   2.687  0.4879 -0.2461 -0.7267
  775SOL    HW2 2325   1.879   2.783   2.609 -0.3218  0.4811  2.8362
  776SOL     OW 2326   2.118   3.048   2.210 -0.5768  0.0977 -0.0754
  776SOL    HW1 2327   2.090   3.055   2.308 -4.0226 -1.0149  1.0180
  776SOL    HW2 2328   2.167   2.961   2.206  1.3640  0.8871  0.5101
  777SOL     OW 2329   0.590   1.223   2.792  0.6183 -0.1480  0.0233
  777SOL    HW1 2330   0.521   1.185   2.720 -4.2694  1.2448 -0.1390
  777SOL    HW2 2331   0.544   1.288   2.857  0.7956 -0.1975  2.6737
  778SOL     OW 2332   0.704   3.081   0.145  0.1897 -0.0414  0.4468
  778SOL    HW1 2333   0.805   3.065   0.142  1.0529 -1.1715 -1.8104
  778SOL    HW2 2334   0.661   3.038   0.226  0.6964 -0.7285  0.7638
  779SOL     OW 2335   0.071   1.095   0.027 -0.0210 -0.0711 -0.3590
  779SOL    HW1 2336   0.048   1.002   3.077 -0.6156 -1.7671  1.2565
  779SOL    HW2 2337   0.152   1.137   3.071 -1.0145  0.1015 -1.3759
  780SOL     OW 2338   2.008   0.335   2.675 -0.2217  0.2297 -0.6364
  780SOL    HW1 2339   2.023   0.409   2.745  0.1958 -1.6171 -0.9718
  780SOL    HW2 2340   1.918   0.344   2.628 -0.4403  0.9368 -1.5847
  781SOL     OW 2341   2.180   1.017   2.096  0.9968 -0.4601 -0.7714
  781SOL    HW1 2342   2.167   1.087   2.171  0.4483 -2.9689  1.2723
  781SOL    HW2 2343   2.113   1.033   2.022  3.8305 -1.1308  2.1509
  782SOL     OW 2344   1.014   1.606   2.227  0.1793  0.0487 -0.3782
  782SOL    HW1 2345   1.017   1.675   2.157 -1.3663  2.3950  0.4932
  782SOL    HW2 2346   0.969   1.644   2.311 -0.7904 -1.8542 -0.4508
  783SOL     OW 2347   1.324   3.027   0.973  0.2333 -0.1481  0.0251
  783SOL    HW1 2348   1.349   0.019   0.921 -1.0478  0.7687 -0.1695
  783SOL    HW2 2349   1.233   3.039   1.018  0.0055 -3.2668 -1.9228
  784SOL     OW 2350   1.569   0.671   2.941 -0.7536  0.0701 -0.2875
  784SOL    HW1 2351   1.667   0.703   2.946  0.4213 -1.8384 -1.1674
  784SOL    HW2 2352   1.506   0.753   2.938 -1.4607  1.9448 -0.3665
  785SOL     OW 2353   1.976   0.589   2.866 -0.1439 -0.2001  0.4618
  785SOL    HW1 2354   2.040   0.641   2.925  0.4635 -2.2049 -1.7962
  785SOL    HW2 2355   1.929   0.522   2.926  1.3691  0.1139 -1.6079
  786SOL     OW 2356   0.027   1.566   0.666 -0.0221 -0.6284 -0.3474
  786SOL    HW1 2357   3.038   1.627   0.624 -0.5607  1.9318 -1.6418
  786SOL    HW2 2358   3.076   1.477   0.689  0.7284 -0.9305  0.7090
  787SOL     OW 2359   1.678   1.551   0.180 -0.0388  0.1298 -0.6562
  787SOL    HW1 2360   1.667   1.651   0.203 -0.8752  1.5120  0.2251
  787SOL    HW2 2361   1.773   1.529   0.156 -0.9004  2.7993  2.1604
  788SOL     OW 2362   1.368   1.955   1.275 -0.4903  0.4717  0.5853
  788SOL    HW1 2363   1.450   2.015   1.248  2.3316  1.4631 -0.6986
  788SOL    HW2 2364   1.289   1.959   1.208 -0.7708  0.2022 -3.0487
  789SOL     OW 2365   0.022   1.189   2.164  0.4358  0.1321  0.1007
  789SOL    HW1 2366   0.030   1.211   2.262  0.4885  1.3788 -0.9586
  789SOL    HW2 2367   3.016   1.217   2.135 -1.7509 -0.7057 -2.7252
  790SOL     OW 2368   0.567   0.089   3.028 -0.3774 -0.1286 -0.2476
  790SOL    HW1 2369   0.477   0.136   3.048 -0.6564 -2.2926 -0.9426
  790SOL    HW2 2370   0.613   0.045   0.021 -0.8928 -0.7812  1.3658
  791SOL     OW 2371   0.730   0.061   2.440  0.0409  0.3750 -0.0779
  791SOL    HW1 2372   0.693   0.139   2.489  0.6739 -1.0042 -1.6912
  791SOL    HW2 2373   0.805   0.021   2.494 -0.8398  1.2931 -1.2580
  792SOL     OW 2374   1.787   0.460   2.342 -0.1015  0.0308 -0.3559
  792SOL    HW1 2375   1.760   0.560   2.338 -0.8983 -1.3904 -1.5152
  792SOL    HW2 2376   1.837   0.440   2.255 -3.6413  0.9132  1.8815
  793SOL     OW 2377   2.814   0.807   1.476  0.0958  0.6129  0.5782
  793SOL    HW1 2378   2.783   0.717   1.512 -0.0961  2.5305 -1.3649
  793SOL    HW2 2379   2.897   0.794   1.423 -1.0419  1.7111  1.7120
  794SOL     OW 2380   0.211   0.506   1.491  0.2222  0.3068 -0.4357
  794SOL    HW1 2381   0.116   0.545   1.521 -2.7448 -0.2055  1.6171
  794SOL    HW2 2382   0.269   0.516   1.571  1.0407 -3.7296  0.3687
  795SOL     OW 2383   2.853   1.482   0.377  0.4534  0.1023 -0.0601
  795SOL    HW1 2384   2.789   1.554   0.407  1.1054 -0.1233  1.3618
  795SOL    HW2 2385   2.820   1.401   0.429 -2.7490  0.6600  1.6712
  796SOL     OW 2386   2.996   2.613   0.401  0.2801  0.2050 -0.3965
  796SOL    HW1 2387   2.989   2.704   0.353  1.7154 -0.0283  0.8029
  796SOL    HW2 2388   3.066   2.555   0.358 -1.9548 -0.4744  3.8929
  797SOL     OW 2389   1.928   2.609   2.599  0.0645  0.0357  0.3553
  797SOL    HW1 2390   1.968   2.558   2.681  2.0530 -1.6005 -1.1544
  797SOL    HW2 2391   1.845   2.560   2.554 -0.0505  0.0331 -1.5072
  798SOL     OW 2392   0.207   1.274   1.203 -0.0827  0.2057 -0.4215
  798SOL    HW1 2393   0.150   1.210   1.146  2.6514 -3.5936  1.7308
  798SOL    HW2 2394   0.153   1.356   1.228  1.6857  0.6420  0.0021
  799SOL     OW 2395   0.102   0.530   2.863 -0.0010 -0.2229  0.5867
  799SOL    HW1 2396   0.094   0.495   2.769 -1.1590 -0.2285  0.2216
  799SOL    HW2 2397   0.109   0.635   2.847  0.0463  3.0493 -1.8108
  800SOL     OW 2398   2.921   1.771   0.570 -0.1926 -0.3408  0.5435
  800SOL    HW1 2399   2.893   1.852   0.621  0.6762 -0.6457  0.7938
  800SOL    HW2 2400   2.938   1.797   0.472 -0.7886  1.6693  3.1495
  801SOL     OW 2401   1.511   1.385   1.225 -0.2935  0.2838  0.0188
  801SOL    HW1 2402   1.526   1.484   1.206 -0.7886 -2.0252 -0.0515
  801SOL    HW2 2403   1.457   1.383   1.311  1.4792  2.1944 -1.1089
  802SOL     OW 2404   1.074   1.933   1.723  0.1596 -0.3087 -0.1458
  802SOL    HW1 2405   1.115   1.956   1.813 -0.3889 -1.0480 -3.4788
  802SOL    HW2 2406   1.058   2.022   1.677  0.4878  1.2729  0.7742
  803SOL     OW 2407   0.435   1.912   0.618  0.0721  0.0444  0.2825
  803SOL    HW1 2408   0.368   1.840   0.634  0.9647  0.2200 -1.6024
  803SOL    HW2 2409   0.396   1.994   0.571 -2.9156 -0.3714  1.1530
  804SOL     OW 2410   1.007   2.564   1.431 -0.2864  0.0780  0.1644
  804SOL    HW1 2411   1.043   2.472   1.421  2.8384 -0.1428  0.8591
  804SOL    HW2 2412   1.069   2.644   1.407 -1.7723  1.9015  1.2810
  805SOL     OW 2413   1.647   1.260   0.162  0.3410  0.7260  0.1692
  805SOL    HW1 2414   1.610   1.285   0.069 -0.5923 -1.0865 -0.4351
  805SOL    HW2 2415   1.697   1.335   0.202 -1.5205 -0.8927 -3.2382
  806SOL     OW 2416   1.682   3.054   0.839  0.2024 -0.4468  0.6567
  806SOL    HW1 2417   1.611   3.073   0.769 -0.2312  0.5824  0.0417
  806SOL    HW2 2418   1.642   3.044   0.930  0.2626 -0.0990 -0.1625
  807SOL     OW 2419   2.370   0.149   2.810 -0.0864 -0.2592  0.7576
  807SOL    HW1 2420   2.339   0.216   2.878  0.8593 -1.1588  1.1341
  807SOL    HW2 2421   2.470   0.159   2.784  0.3444 -0.2843  0.1469
  808SOL     OW 2422   0.168   0.868   0.335  0.8775  0.6083 -0.9607
  808SOL    HW1 2423   0.216   0.853   0.423  1.3354  0.3122 -1.8666
  808SOL    HW2 2424   0.137   0.964   0.325 -0.0817 -0.9688 -1.1963
  809SOL     OW 2425   2.703   1.103   2.496  0.3166  0.0385  0.1317
  809SOL    HW1 2426   2.655   1.062   2.576 -2.5381  1.3141 -0.8678
  809SOL    HW2 2427   2.654   1.084   2.411  0.4323 -0.5631  1.4791
  810SOL     OW 2428   1.851   0.401   1.726 -0.0755  0.0843  0.0509
  810SOL    HW1 2429   1.907   0.338   1.668 -0.7335 -2.4547 -0.7431
  810SOL    HW2 2430   1.761   0.357   1.750 -0.5533  0.5989 -0.4898
  811SOL     OW 2431   2.274   2.494   1.841 -0.1607  0.1959 -0.3228
  811SOL    HW1 2432   2.300   2.569   1.901 -1.8087  2.0892 -0.3794
  811SOL    HW2 2433   2.351   2.436   1.800  1.4167 -0.0371  0.0472
  812SOL     OW 2434   1.621   0.159   2.859 -0.4330 -0.0976 -0.2602
  812SOL    HW1 2435   1.611   0.087   2.927  1.5511  1.7898 -0.9326
  812SOL    HW2 2436   1.635   0.114   2.770  0.2505 -0.3935  1.9363
  813SOL     OW 2437   2.035   0.502   1.905  0.2261 -0.0473  0.5784
  813SOL    HW1 2438   1.959   0.482   1.842 -1.3642  2.1601  2.7197
  813SOL    HW2 2439   2.082   0.590   1.887 -1.8075 -1.3325  1.2651
  814SOL     OW 2440   1.875   1.147   1.937 -0.5452  0.1687 -0.1977
  814SOL    HW1 2441   1.800   1.116   2.002  1.7109  1.5953  1.5259
  814SOL    HW2 2442   1.910   1.066   1.888 -2.1514  0.5584  0.1425
  815SOL     OW 2443   0.585   0.897   0.257  0.0941 -0.3137 -0.1797
  815SOL    HW1 2444   0.560   0.956   0.336 -0.6253 -2.6563 -0.0704
  815SOL    HW2 2445   0.557   0.800   0.272 -1.2914  0.4898  1.3368
  816SOL     OW 2446   2.042   1.478   2.874  0.3171  0.1437 -0.3160
  816SOL    HW1 2447   2.003   1.409   2.811  0.2072 -2.0100  1.6346
  816SOL    HW2 2448   2.025   1.573   2.843 -1.7718 -0.2022 -0.5861
  817SOL     OW 2449   0.201   2.887   0.469  0.2709 -0.4348 -0.8877
  817SOL    HW1 2450   0.201   2.855   0.570 -0.4376  1.7343  1.4998
  817SOL    HW2 2451   0.123   2.944   0.450  2.7655 -1.6193  1.5389
  818SOL     OW 2452   1.743   0.331   2.575  0.8255 -0.6060  0.3805
  818SOL    HW1 2453   1.757   0.398   2.497 -1.5146  1.7057  0.5229
  818SOL    HW2 2454   1.720   0.234   2.555 -0.3806  0.3704  0.2488
  819SOL     OW 2455   1.395   0.796   0.327 -0.6406  0.1866 -0.1169
  819SOL    HW1 2456   1.323   0.836   0.262 -3.2070 -2.9616 -0.3959
  819SOL    HW2 2457   1.448   0.721   0.278  0.0367 -1.3856 -0.5317
  820SOL     OW 2458   2.300   0.521   0.742  0.4011  0.0815 -0.2381
  820SOL    HW1 2459   2.377   0.476   0.787 -0.1933  0.3651 -0.1297
  820SOL    HW2 2460   2.251   0.574   0.810  0.6699  0.5971 -2.0060
  821SOL     OW 2461   2.239   2.851   0.339 -0.3629 -0.4401 -0.0536
  821SOL    HW1 2462   2.286   2.883   0.422 -1.6818  3.0352 -0.0727
  821SOL    HW2 2463   2.306   2.831   0.265  0.5250 -2.2400 -1.5983
  822SOL     OW 2464   3.085   2.926   2.152  0.0636 -0.9153  0.0505
  822SOL    HW1 2465   0.084   2.913   2.093 -0.1766 -0.1328  0.6831
  822SOL    HW2 2466   3.017   2.848   2.150 -0.8857  0.4853 -0.2275
  823SOL     OW 2467   2.743   2.130   1.660 -0.5942  0.4988 -0.3440
  823SOL    HW1 2468   2.708   2.143   1.568  2.2593  0.7369  0.4883
  823SOL    HW2 2469   2.686   2.055   1.694 -0.1716  1.4583  0.2101
  824SOL     OW 2470   0.749   2.807   2.101  0.2074  0.4283 -0.1787
  824SOL    HW1 2471   0.737   2.708   2.134  1.0280  0.3496  2.9585
  824SOL    HW2 2472   0.702   2.868   2.169 -0.1038 -3.5125  0.5493
  825SOL     OW 2473   1.525   1.546   0.685  0.0380  0.1483 -0.5663
  825SOL    HW1 2474   1.549   1.468   0.746 -0.7851  0.1214  2.3548
  825SOL    HW2 2475   1.435   1.585   0.708 -0.9259  3.3799  0.6609
  826SOL     OW 2476   1.767   0.536   0.078  0.1190 -0.2233 -0.7291
  826SOL    HW1 2477   1.788   0.458   0.013 -0.1609  1.4802 -0.9581
  826SOL    HW2 2478   1.772   0.624   0.028 -0.9591  0.0110  0.5153
  827SOL     OW 2479   0.290   1.526   1.420 -0.5184 -0.1893  0.0979
  827SOL    HW1 2480   0.287   1.615   1.466 -1.4147 -0.2841 -1.9209
  827SOL    HW2 2481   0.358   1.524   1.347 -3.2017 -1.6060 -0.1649
  828SOL     OW 2482   2.080   1.390   1.542  0.0125  0.2032  0.0585
  828SOL    HW1 2483   2.028   1.308   1.511 -2.1505 -0.3062  0.0088
  828SOL    HW2 2484   2.043   1.429   1.626  3.4123  2.1960  0.6677
  829SOL     OW 2485   0.366   2.195   0.224  0.3156 -0.1956 -0.6827
  829SOL    HW1 2486   0.280   2.147   0.225  2.1013  1.2923  1.2778
  829SOL    HW2 2487   0.448   2.141   0.242 -3.8502  1.8680  0.0226
  830SOL     OW 2488   1.130   0.688   0.809 -0.5831  0.2254 -0.4823
  830SOL    HW1 2489   1.075   0.645   0.737  1.9376 -0.4347  0.7519
  830SOL    HW2 2490   1.127   0.623   0.887 -1.2844 -0.1028 -0.8022
  831SOL     OW 2491   2.772   1.824   0.125  0.1365 -0.0955 -0.0577
  831SOL    HW1 2492   2.780   1.812   0.026  0.0930 -0.7523 -0.3767
  831SOL    HW2 2493   2.675   1.837   0.153 -1.3716 -1.1187  0.6051
  832SOL     OW 2494   0.979   2.855   0.332  0.4583  0.2370 -0.0410
  832SOL    HW1 2495   0.984   2.872   0.233  0.1448 -2.0825  0.1431
  832SOL    HW2 2496   1.004   2.945   0.377  1.9648 -3.1620  0.6154
  833SOL     OW 2497   0.974   0.469   1.929  0.5411 -0.1625 -0.0078
  833SOL    HW1 2498   0.911   0.409   1.984 -1.5904 -0.8369  0.0721
  833SOL    HW2 2499   0.957   0.571   1.950 -0.4571 -2.1169 -0.8243
  834SOL     OW 2500   0.147   0.697   1.175  0.4748  0.0708  0.0520
  834SOL    HW1 2501   0.185   0.762   1.097  0.7684  1.4037 -3.3734
  834SOL    HW2 2502   0.229   0.674   1.236  1.6065 -0.4009  1.2712
  835SOL     OW 2503   2.674   0.301   1.944 -0.1476 -0.1092 -0.1596
  835SOL    HW1 2504   2.582   0.327   1.918  1.0412 -2.2478 -0.6443
  835SOL    HW2 2505   2.749   0.327   1.878 -1.0810 -1.3384 -2.3849
  836SOL     OW 2506   0.317   2.135   0.492  0.2142 -0.2225  0.9033
  836SOL    HW1 2507   0.376   2.212   0.524  0.8610 -2.7636 -2.2697
  836SOL    HW2 2508   0.308   2.137   0.392  0.7274  2.3410  1.0249
  837SOL     OW 2509   1.986   1.692   2.354  0.1011  0.2236 -0.5689
  837SOL    HW1 2510   2.065   1.630   2.371 -0.4347  0.3727 -0.7689
  837SOL    HW2 2511   2.016   1.790   2.336 -1.9300 -0.8950 -0.3739
  838SOL     OW 2512   0.323   1.065   1.399  0.2058 -0.3039 -0.4437
  838SOL    HW1 2513   0.281   1.110   1.315 -0.6182 -2.1335 -1.1438
  838SOL    HW2 2514   0.331   1.131   1.476  1.6115  0.0131 -0.2519
  839SOL     OW 2515   0.197   0.115   0.677 -0.3390 -0.0062  0.1904
  839SOL    HW1 2516   0.219   0.210   0.706 -0.5679 -0.7797 -0.3675
  839SOL    HW2 2517   0.111   0.082   0.724  1.1682 -0.8489  0.2461
  840SOL     OW 2518   2.664   0.214   2.609 -0.6106  0.1876 -0.5248
  840SOL    HW1 2519   2.764   0.188   2.605 -0.1172 -0.5751  0.2109
  840SOL    HW2 2520   2.659   0.292   2.680 -2.0158 -2.0508 -1.1005
  841SOL     OW 2521   0.598   2.795   0.095 -0.1289 -0.4444 -0.4497
  841SOL    HW1 2522   0.509   2.835   0.117  0.5627 -1.8929  0.4204
  841SOL    HW2 2523   0.642   2.763   0.178 -1.9516 -0.9990  1.3338
  842SOL     OW 2524   1.018   0.091   0.771  0.6809 -0.5674 -0.1757
  842SOL    HW1 2525   0.915   0.080   0.754 -0.6283 -0.5245 -1.4163
  842SOL    HW2 2526   1.066   0.006   0.737  1.6534 -0.2278 -1.6565
  843SOL     OW 2527   0.151   1.270   2.800 -0.0527  0.5592 -0.2096
  843SOL    HW1 2528   0.222   1.206   2.836  0.7293  0.1613  1.3871
  843SOL    HW2 2529   0.066   1.230   2.756  0.5267  0.1134  2.5605
  844SOL     OW 2530   0.930   2.279   2.241  0.8080 -0.3256  0.5186
  844SOL    HW1 2531   0.970   2.237   2.328  0.4180 -1.2429 -0.2946
  844SOL    HW2 2532   0.843   2.334   2.261 -0.3338 -1.1268  1.8979
  845SOL     OW 2533   2.187   2.707   2.660 -0.1599  0.1696  0.4869
  845SOL    HW1 2534   2.229   2.796   2.639 -0.1562 -0.1178  1.5668
  845SOL    HW2 2535   2.088   2.710   2.634 -2.3526  0.0712 -2.1289
  846SOL     OW 2536   1.607   1.712   2.526 -0.0734  0.0956  0.1750
  846SOL    HW1 2537   1.631   1.636   2.590 -1.2430  0.2249  1.6382
  846SOL    HW2 2538   1.650   1.689   2.438 -0.8673 -0.5864 -1.2278
  847SOL     OW 2539   2.803   3.002   3.075  0.1187 -0.1918  0.0369
  847SOL    HW1 2540   2.757   2.991   2.982  0.8727  0.5760 -1.0796
  847SOL    HW2 2541   2.896   2.960   3.075 -0.3684 -1.3812 -1.4246
  848SOL     OW 2542   0.152   0.689   0.139 -0.5781 -0.4127 -0.0487
  848SOL    HW1 2543   0.162   0.759   0.220 -0.2576  2.2977  2.2536
  848SOL    HW2 2544   0.239   0.691   0.082  1.8715  0.8058  0.9558
  849SOL     OW 2545   1.168   0.132   2.172  0.3675 -0.4767 -0.1486
  849SOL    HW1 2546   1.071   0.101   2.175  0.1949 -0.6567  2.4149
  849SOL    HW2 2547   1.227   0.075   2.237 -1.0084 -1.7192  2.9435
  850SOL     OW 2548   0.326   0.921   0.562  0.5007 -0.4279  0.0665
  850SOL    HW1 2549   0.395   0.976   0.512 -2.3873  1.4765  0.0976
  850SOL    HW2 2550   0.275   0.979   0.630  1.9639  0.4660  0.1439
  851SOL     OW 2551   0.345   1.297   0.303  0.8616  0.1066  0.4987
  851SOL    HW1 2552   0.400   1.370   0.346 -2.1419 -0.4293 -1.8900
  851SOL    HW2 2553   0.397   1.227   0.253 -1.0917 -1.1889  0.0085
  852SOL     OW 2554   1.327   1.121   1.798 -0.2556  0.0220  0.7028
  852SOL    HW1 2555   1.408   1.064   1.771 -1.8224  2.5892  0.2396
  852SOL    HW2 2556   1.312   1.123   1.896  0.3327  0.9821 -2.0826
  853SOL     OW 2557   2.678   1.697   0.406  0.0314 -0.2131  0.8903
  853SOL    HW1 2558   2.638   1.715   0.499  0.7950 -1.1262 -1.6327
  853SOL    HW2 2559   2.609   1.721   0.335  2.1025  1.9727 -0.1823
  854SOL     OW 2560   1.081   0.880   2.136 -0.2938 -0.1382  0.4186
  854SOL    HW1 2561   0.995   0.876   2.194 -0.8154  2.6864  0.1882
  854SOL    HW2 2562   1.131   0.790   2.142  1.0904  0.2773 -0.6655
  855SOL     OW 2563   0.293   2.729   2.602  0.5025 -0.0643 -0.0000
  855SOL    HW1 2564   0.365   2.799   2.586 -0.2442 -0.5100 -1.6378
  855SOL    HW2 2565   0.216   2.778   2.659 -1.2453  0.6883  1.7373
  856SOL     OW 2566   1.182   0.635   2.123  0.6778  0.5696 -0.4504
  856SOL    HW1 2567   1.254   0.625   2.056 -1.2465 -0.1923  1.5240
  856SOL    HW2 2568   1.144   0.542   2.146 -1.1462  0.8500 -2.9291
  857SOL     OW 2569   1.354   0.552   2.340  0.1265 -0.0852 -0.3885
  857SOL    HW1 2570   1.425   0.483   2.311 -1.0291  0.7361 -0.0758
  857SOL    HW2 2571   1.277   0.553   2.278  2.0950  1.5886  0.9413
  858SOL     OW 2572   0.147   0.814   1.800  0.4944  0.2360  0.5903
  858SOL    HW1 2573   0.199   0.861   1.871  2.2401 -0.2589  0.2612
  858SOL    HW2 2574   0.181   0.828   1.706  1.5681  0.6927 -0.6317
  859SOL     OW 2575   2.639   3.059   0.818 -0.4912 -0.1407  0.0009
  859SOL    HW1 2576   2.675   0.063   0.786  0.4140  0.3528  0.0070
  859SOL    HW2 2577   2.670   2.983   0.761  2.3404  0.4621  0.6550
  860SOL     OW 2578   2.031   0.263   0.603 -0.1823 -0.7485 -0.9847
  860SOL    HW1 2579   1.953   0.221   0.657 -1.8189  1.1091 -0.8786
  860SOL    HW2 2580   2.076   0.187   0.551  2.3420 -0.9451 -0.5311
  861SOL     OW 2581   1.458   0.505   1.185  0.2401  0.2093 -0.0212
  861SOL    HW1 2582   1.390   0.556   1.246  2.4522 -0.3391 -0.9560
  861SOL    HW2 2583   1.459   0.527   1.086  0.7368 -1.0520  2.2256
  862SOL     OW 2584   1.328   0.029   2.374 -0.1919  0.0385 -0.3254
  862SOL    HW1 2585   1.389   3.034   2.365  0.7884  1.5798  0.6624
  862SOL    HW2 2586   1.374   0.118   2.375  1.5126  0.0842 -0.3533
  863SOL     OW 2587   3.054   2.606   0.943  0.2238  0.5030 -0.4746
  863SOL    HW1 2588   2.985   2.668   0.985 -2.7143  1.4344  1.1822
  863SOL    HW2 2589   3.026   2.507   0.955  0.1709 -1.2192  0.5299
  864SOL     OW 2590   2.332   0.125   2.058  0.5141  0.1306 -0.4189
  864SOL    HW1 2591   2.250   0.121   2.112  1.1949  1.7391 -1.6116
  864SOL    HW2 2592   2.370   0.217   2.052 -0.6565  1.5653 -3.0863
  865SOL     OW 2593   0.876   1.338   1.925  0.1245  0.2955  0.6126
  865SOL    HW1 2594   0.825   1.261   1.978  0.2395 -3.0675  0.0397
  865SOL    HW2 2595   0.824   1.425   1.944 -0.9164  1.1275 -1.4432
  866SOL     OW 2596   2.005   2.789   1.033  0.5118  0.5820  0.5942
  866SOL    HW1 2597   1.962   2.713   0.979  0.3425  1.7266  1.0250
  866SOL    HW2 2598   2.103   2.776   1.035 -0.8479  2.1591  2.0580
  867SOL     OW 2599   2.114   3.059   0.802  0.0748  0.0256  0.1415
  867SOL    HW1 2600   2.191   3.006   0.844 -0.2003 -0.0230  0.5354
  867SOL    HW2 2601   2.023   3.049   0.845 -0.0575 -0.5749 -0.4913
  868SOL     OW 2602   2.976   1.986   1.636 -0.2708  0.1853 -0.2795
  868SOL    HW1 2603   2.976   1.940   1.547  0.2864  0.0838  5.8570
  868SOL    HW2 2604   2.885   2.033   1.635 -1.4758 -1.3338 -0.7139
  869SOL     OW 2605   2.034   2.229   2.232  0.0520  0.7274  0.2471
  869SOL    HW1 2606   1.947   2.255   2.193  4.0381 -0.0798 -0.7507
  869SOL    HW2 2607   2.109   2.277   2.184  1.5418  0.3845 -0.3553
  870SOL     OW 2608   1.436   1.219   0.844 -0.0813 -0.3904 -0.2329
  870SOL    HW1 2609   1.526   1.264   0.828 -0.4025  1.2968  1.0409
  870SOL    HW2 2610   1.392   1.270   0.918  1.7907  0.3796 -0.2397
  871SOL     OW 2611   2.963   1.895   2.147 -0.5182  0.1359  0.7024
  871SOL    HW1 2612   2.916   1.910   2.235  0.3207 -1.7347  0.0259
  871SOL    HW2 2613   3.060   1.852   2.160  1.3316  0.4805  2.1445
  872SOL     OW 2614   1.145   1.459   2.481  0.1388  0.1905  0.5358
  872SOL    HW1 2615   1.062   1.495   2.526  2.7089  1.2270  2.2842
  872SOL    HW2 2616   1.156   1.356   2.491  0.0644  0.5170 -0.6662
  873SOL     OW 2617   0.790   1.097   1.662 -0.1288 -0.2892 -0.2571
  873SOL    HW1 2618   0.851   1.181   1.673  0.0181 -1.3075  0.5884
  873SOL    HW2 2619   0.693   1.123   1.667 -1.3992  0.4974 -0.8950
  874SOL     OW 2620   1.848   0.978   1.333  0.2621  0.2815 -0.1007
  874SOL    HW1 2621   1.826   0.975   1.232 -1.6616  1.7879 -2.0285
  874SOL    HW2 2622   1.868   0.884   1.370  0.6560 -1.3404 -1.2773
  875SOL     OW 2623   0.005   3.087   3.078  0.2577  0.3498  0.2572
  875SOL    HW1 2624   0.070   3.059   0.070  0.3532 -0.9631  0.7754
  875SOL    HW2 2625   3.023   0.065   0.031 -2.6749  2.0154  1.5192
  876SOL     OW 2626   0.729   1.291   0.300 -0.0218  0.4636  0.0372
  876SOL    HW1 2627   0.754   1.210   0.355  1.1049  1.5898 -0.9027
  876SOL    HW2 2628   0.802   1.319   0.234  0.4690  0.9871 -1.4868
  877SOL     OW 2629   2.532   2.670   0.929 -0.1775 -0.3054  0.0836
  877SOL    HW1 2630   2.459   2.681   0.996  2.1156 -0.0849 -2.1080
  877SOL    HW2 2631   2.616   2.633   0.973 -0.9653  0.9863 -1.8779
  878SOL     OW 2632   1.990   1.865   0.410 -0.1989  0.3981  0.3498
  878SOL    HW1 2633   2.024   1.949   0.463 -0.9505  2.9155  1.5856
  878SOL    HW2 2634   2.034   1.846   0.313 -0.9023  0.5406 -3.1760
  879SOL     OW 2635   3.018   1.476   1.873 -1.2529  0.4428 -0.3820
  879SOL    HW1 2636   3.046   1.574   1.860  1.2566  0.6552  0.6068
  879SOL    HW2 2637   3.009   1.454   1.974  0.1795  1.0061  1.6906
  880SOL     OW 2638   0.493   1.950   0.920  0.3699 -0.0258 -0.0929
  880SOL    HW1 2639   0.550   1.873   0.958  2.3640 -1.7198  3.7974
  880SOL    HW2 2640   0.468   1.940   0.822 -0.5788 -1.7152 -1.4770
  881SOL     OW 2641   0.884   0.137   1.679 -0.1656 -0.2881 -0.1572
  881SOL    HW1 2642   0.894   0.075   1.760  3.3533  0.5722  2.3989
  881SOL    HW2 2643   0.892   0.234   1.707 -2.2362  0.3106 -1.2050
  882SOL     OW 2644   2.540   0.917   1.081  0.4468  0.4276  0.2236
  882SOL    HW1 2645   2.565   0.982   1.009  0.9562 -3.8707  2.7898
  882SOL    HW2 2646   2.585   0.942   1.168 -1.3486 -0.4427 -2.2200
  883SOL     OW 2647   1.480   0.275   1.523  0.2516  0.3318  0.4550
  883SOL    HW1 2648   1.446   0.223   1.442 -0.9022 -0.1971  0.6289
  883SOL    HW2 2649   1.522   0.364   1.496  0.3220 -0.4049  1.7110
  884SOL     OW 2650   2.736   0.190   2.168  0.1453 -0.0582  0.1117
  884SOL    HW1 2651   2.706   0.229   2.080  2.9428 -2.3942 -1.1720
  884SOL    HW2 2652   2.827   0.148   2.156 -1.7410  1.3634 -0.2054
  885SOL     OW 2653   1.203   1.451   2.985  0.1688  0.4276  0.0967
  885SOL    HW1 2654   1.247   1.512   2.918  0.7999 -1.4708  4.6380
  885SOL    HW2 2655   1.150   1.369   2.949 -0.6689  1.4934  3.4526
  886SOL     OW 2656   2.279   0.345   2.997 -0.7012 -0.7027 -0.5706
  886SOL    HW1 2657   2.181   0.319   3.014 -1.4919 -0.3073  1.5358
  886SOL    HW2 2658   2.328   0.357   3.083 -3.4794 -0.9588 -0.6477
  887SOL     OW 2659   1.249   2.913   1.497  0.0557 -0.2967  0.0188
  887SOL    HW1 2660   1.344   2.873   1.502 -2.3166 -1.5858 -0.7847
  887SOL    HW2 2661   1.215   2.954   1.583  0.8501 -1.7321 -2.6018
  888SOL     OW 2662   1.744   1.609   2.296 -0.4627  0.0780 -0.3174
  888SOL    HW1 2663   1.723   1.653   2.202 -1.5317  0.4685  0.1953
  888SOL    HW2 2664   1.836   1.636   2.332  2.8860 -0.7001  0.9156
  889SOL     OW 2665   2.006   2.434   1.041 -0.0412 -0.0847  0.1197
  889SOL    HW1 2666   1.970   2.415   1.134 -0.3113  0.9815  1.6542
  889SOL    HW2 2667   1.938   2.485   0.984  0.9327 -1.4648  1.1004
  890SOL     OW 2668   1.366   1.948   0.724 -0.0616 -0.3212  0.1872
  890SOL    HW1 2669   1.391   2.035   0.669  0.2337  0.6755 -0.5365
  890SOL    HW2 2670   1.451   1.912   0.761 -2.1118  2.4559 -1.5905
  891SOL     OW 2671   2.670   1.303   0.111 -0.3367  0.4708 -0.7605
  891SOL    HW1 2672   2.767   1.305   0.088 -0.4755 -0.3551  0.8026
  891SOL    HW2 2673   2.611   1.380   0.078  0.7996 -2.1100 -0.3747
  892SOL     OW 2674   2.071   1.165   3.028 -0.1745  0.3981 -0.0870
  892SOL    HW1 2675   2.050   1.249   3.076  0.0184 -0.0731 -3.4160
  892SOL    HW2 2676   2.021   1.163   2.940  0.1748  0.8866  0.7338
  893SOL     OW 2677   1.860   2.433   1.298  0.0228 -0.4989 -0.2940
  893SOL    HW1 2678   1.876   2.534   1.279 -1.2605  2.1224 -2.0272
  893SOL    HW2 2679   1.930   2.408   1.368  0.0520  1.2182 -1.2233
  894SOL     OW 2680   2.542   2.772   0.680  0.2367 -0.2181  0.3049
  894SOL    HW1 2681   2.614   2.727   0.623 -1.4657 -1.4773  0.4736
  894SOL    HW2 2682   2.547   2.743   0.774 -1.5201 -0.7831 -0.6389
  895SOL     OW 2683   2.685   2.463   2.762  1.8355  0.0950  0.0298
  895SOL    HW1 2684   2.679   2.536   2.693  1.9667 -2.7341 -1.0242
  895SOL    HW2 2685   2.737   2.384   2.726  2.6863  0.0457  1.0793
  896SOL     OW 2686   2.062   3.065   2.474  0.1868  0.3121  0.2740
  896SOL    HW1 2687   2.070   0.010   2.570 -1.1881  0.7343 -0.2102
  896SOL    HW2 2688   1.972   3.016   2.468 -0.6486 -0.4139 -2.0024
  897SOL     OW 2689   0.295   1.685   1.949  0.0050  0.0839 -0.1266
  897SOL    HW1 2690   0.325   1.625   1.870 -0.1164 -0.8051 -2.0043
  897SOL    HW2 2691   0.376   1.695   2.013 -1.0333 -1.1055 -1.2936
  898SOL     OW 2692   2.565   1.561   1.811 -0.0848 -0.3755  0.3097
  898SOL    HW1 2693   2.531   1.619   1.886  1.0066 -1.2220 -0.5943
  898SOL    HW2 2694   2.509   1.561   1.725  1.1712  0.3053 -0.1414
  899SOL     OW 2695   1.503   2.741   1.482  0.4844 -0.1163  0.1901
  899SOL    HW1 2696   1.547   2.661   1.533  2.9088 -2.7954  0.3906
  899SOL    HW2 2697   1.553   2.826   1.498 -1.4636  1.3905  1.0250
  900SOL     OW 2698   1.085   0.799   2.909 -0.0231 -0.4798 -0.0579
  900SOL    HW1 2699   1.046   0.851   2.826  3.0101 -1.1816 -2.9505
  900SOL    HW2 2700   1.013   0.801   2.983 -0.6161  0.9154  0.6940
  901SOL     OW 2701   0.852   1.349   2.365 -0.0420  0.2538 -0.5978
  901SOL    HW1 2702   0.911   1.366   2.283  1.7790  2.8318 -2.2778
  901SOL    HW2 2703   0.868   1.433   2.424  0.0075  2.5885 -0.6566
  902SOL     OW 2704   3.025   2.276   0.301  0.0913  0.2861 -0.1475
  902SOL    HW1 2705   3.033   2.195   0.244 -0.0971 -4.0063  3.8699
  902SOL    HW2 2706   2.935   2.320   0.297 -0.0403  0.1392  0.6478
  903SOL     OW 2707   2.474   1.112   1.872  0.0654 -0.6264  0.2111
  903SOL    HW1 2708   2.572   1.092   1.857 -0.9555 -0.2714  0.1441
  903SOL    HW2 2709   2.453   1.129   1.971 -2.6006 -0.6245 -1.1587
  904SOL     OW 2710   1.800   0.777   3.033  0.3047  0.0388  0.0168
  904SOL    HW1 2711   1.765   0.837   2.962 -0.2728 -1.6238  2.9844
  904SOL    HW2 2712   1.868   0.834   3.083  0.3763  2.0121 -0.2862
  905SOL     OW 2713   2.359   2.670   1.149 -0.0532  0.2114 -0.3382
  905SOL    HW1 2714   2.384   2.664   1.246  0.4903 -0.4347  0.1615
  905SOL    HW2 2715   2.321   2.577   1.124  1.0383  0.8768 -0.6464
  906SOL     OW 2716   1.449   2.052   0.006  0.0324 -0.2794 -0.1497
  906SOL    HW1 2717   1.470   2.148   0.039 -1.2016 -1.6863 -1.1689
  906SOL    HW2 2718   1.409   1.996   0.081  1.1371  2.3349  0.8330
  907SOL     OW 2719   0.810   2.543   0.619 -0.6096 -0.4573 -0.1053
  907SOL    HW1 2720   0.720   2.572   0.574  0.1656  2.6351 -1.1433
  907SOL    HW2 2721   0.811   2.444   0.654 -0.1220 -0.9750 -1.0897
  908SOL     OW 2722   1.035   2.847   2.174 -0.3771 -0.8122 -0.4766
  908SOL    HW1 2723   1.008   2.782   2.099  1.8492 -2.4805  1.1031
  908SOL    HW2 2724   1.123   2.888   2.147  0.8163 -0.9945  1.6666
  909SOL     OW 2725   1.930   0.365   1.369  0.0587  0.2311  0.8147
  909SOL    HW1 2726   1.890   0.392   1.276 -1.4959 -2.1409 -0.4233
  909SOL    HW2 2727   1.947   0.267   1.374  1.4379  0.9943  4.1767
  910SOL     OW 2728   1.181   0.537   2.554  0.4320 -0.5178 -0.3750
  910SOL    HW1 2729   1.227   0.555   2.644 -1.9419 -4.1205  0.2119
  910SOL    HW2 2730   1.236   0.563   2.476 -1.9965  1.9052  2.3656
  911SOL     OW 2731   2.865   0.556   0.194  0.0046 -0.1254  0.1630
  911SOL    HW1 2732   2.869   0.660   0.198  0.4576  0.7599 -2.1654
  911SOL    HW2 2733   2.959   0.513   0.209  2.5424  1.3106  1.1238
  912SOL     OW 2734   0.006   2.400   3.020  0.2249  0.6903 -0.2144
  912SOL    HW1 2735   3.043   2.321   3.069 -1.3865  0.1425 -0.5815
  912SOL    HW2 2736   0.089   2.415   3.072  0.1837  0.0722 -2.2475
  913SOL     OW 2737   2.682   2.006   2.693  0.0179  0.0174  0.4086
  913SOL    HW1 2738   2.683   2.103   2.657  0.0354 -0.2288 -1.5542
  913SOL    HW2 2739   2.779   1.980   2.714 -1.9156  2.2002 -0.8411
  914SOL     OW 2740   1.425   1.810   1.652 -0.4317 -0.0832  0.2020
  914SOL    HW1 2741   1.409   1.765   1.566  0.1676  2.1727  0.9305
  914SOL    HW2 2742   1.364   1.893   1.649 -2.1290 -0.2480 -0.7897
  915SOL     OW 2743   0.301   2.662   1.986 -0.0951 -0.0178  0.3273
  915SOL    HW1 2744   0.257   2.606   2.058  1.4088 -1.4573  1.7216
  915SOL    HW2 2745   0.396   2.630   1.979 -1.0640 -0.1491 -0.3999
  916SOL     OW 2746   0.495   1.201   1.663 -0.0467 -0.8661  0.4377
  916SOL    HW1 2747   0.502   1.102   1.670 -0.0138 -1.2331  0.0119
  916SOL    HW2 2748   0.406   1.232   1.618 -1.0253  0.9288 -1.5712
  917SOL     OW 2749   2.431   0.353   0.145 -0.3204  0.1223  0.7274
  917SOL    HW1 2750   2.396   0.280   0.208 -1.0559  0.1231 -0.5411
  917SOL    HW2 2751   2.534   0.360   0.149  1.2339  1.5255 -0.4890
  918SOL     OW 2752   1.480   2.433   2.311  0.4661  0.1173 -0.6110
  918SOL    HW1 2753   1.507   2.335   2.313 -1.3267  0.2225 -0.7956
  918SOL    HW2 2754   1.386   2.437   2.273 -1.9001 -1.4623 -1.6359
  919SOL     OW 2755   1.627   2.569   1.658 -0.0943 -0.4797 -0.3300
  919SOL    HW1 2756   1.626   2.509   1.575 -0.7847 -0.8663  2.2078
  919SOL    HW2 2757   1.719   2.579   1.694 -3.9129 -1.5385  0.1583
  920SOL     OW 2758   0.830   1.080   2.933 -0.0444 -0.3986  0.3745
  920SOL    HW1 2759   0.746   1.109   2.883  1.2098  2.7416 -0.0038
  920SOL    HW2 2760   0.801   1.053   3.029 -0.8400 -1.9787  2.1151
  921SOL     OW 2761   0.041   0.888   2.567  0.2184  0.5790 -0.0082
  921SOL    HW1 2762   3.075   0.942   2.500  1.6793 -1.5956 -2.5369
  921SOL    HW2 2763   3.078   0.794   2.575 -1.5022 -1.6230  0.3444
  922SOL     OW 2764   0.818   1.885   0.367 -0.2264 -0.4581 -0.2008
  922SOL    HW1 2765   0.879   1.807   0.353  2.4876  0.8651 -3.4203
  922SOL    HW2 2766   0.766   1.877   0.454 -3.6656 -0.0122 -4.9216
  923SOL     OW 2767   0.465   0.917   1.689  0.8199  0.2224  0.7002
  923SOL    HW1 2768   0.396   0.854   1.645 -1.5015  0.6642  1.9878
  923SOL    HW2 2769   0.536   0.860   1.723 -0.6742  1.1972  1.0475
  924SOL     OW 2770   1.386   2.976   2.790 -0.1090 -0.2735  0.3136
  924SOL    HW1 2771   1.453   2.965   2.714  1.4272  0.9135 -1.9089
  924SOL    HW2 2772   1.431   3.010   2.875 -0.2549  3.5723  0.0024
  925SOL     OW 2773   2.805   1.362   1.477 -0.1920  0.0259 -0.6891
  925SOL    HW1 2774   2.712   1.367   1.431  0.8042 -1.0274  2.0577
  925SOL    HW2 2775   2.795   1.344   1.578  0.0254 -2.1140  2.1045
  926SOL     OW 2776   2.178   0.698   1.801 -0.7995 -0.1881 -0.4388
  926SOL    HW1 2777   2.261   0.737   1.838 -0.1929  0.5999  1.2472
  926SOL    HW2 2778   2.192   0.669   1.704  1.9179 -2.0836 -2.0263
  927SOL     OW 2779   2.509   2.420   1.695 -0.2798 -0.0001 -0.2652
  927SOL    HW1 2780   2.588   2.486   1.682 -0.0908 -0.1427  1.1227
  927SOL    HW2 2781   2.481   2.386   1.600  3.0426  1.9683 -0.9728
  928SOL     OW 2782   0.207   0.724   2.238 -0.6907 -0.3099 -0.2671
  928SOL    HW1 2783   0.119   0.718   2.186 -2.6623  2.5671 -1.8232
  928SOL    HW2 2784   0.246   0.820   2.251 -1.7085 -0.0580 -2.8456
  929SOL     OW 2785   2.450   0.103   0.961 -0.5625 -0.0042  0.2359
  929SOL    HW1 2786   2.505   0.035   0.909  0.4832  1.9763  0.4987
  929SOL    HW2 2787   2.405   0.162   0.894 -2.6804 -2.2763  0.2146
  930SOL     OW 2788   2.881   3.024   1.585  0.3208  0.6587 -0.3334
  930SOL    HW1 2789   2.809   2.954   1.566 -0.2084  2.4818 -0.8484
  930SOL    HW2 2790   2.902   3.080   1.501  0.7299 -3.4933 -1.0242
  931SOL     OW 2791   2.182   0.836   0.401 -0.2511 -0.0289  0.0683
  931SOL    HW1 2792   2.238   0.773   0.457  0.5241  2.9549 -0.3092
  931SOL    HW2 2793   2.240   0.901   0.346  1.5030  2.1463  0.3091
  932SOL     OW 2794   2.312   1.353   1.754  0.0129  0.0991  0.1902
  932SOL    HW1 2795   2.396   1.298   1.737  0.8865 -0.1795 -1.0289
  932SOL    HW2 2796   2.236   1.335   1.684 -3.5391 -1.9117 -2.2304
  933SOL     OW 2797   2.807   2.256   1.405 -0.2119  0.0355 -0.1788
  933SOL    HW1 2798   2.815   2.304   1.496 -1.0118  2.0708 -1.3202
  933SOL    HW2 2799   2.889   2.197   1.385 -2.4134  0.1796 -3.2553
  934SOL     OW 2800   0.634   1.980   1.472 -0.2299  0.6864  0.1428
  934SOL    HW1 2801   0.644   2.081   1.465  2.3088  0.6973  1.6134
  934SOL    HW2 2802   0.672   1.952   1.562 -1.0013  2.9537 -0.1449
  935SOL     OW 2803   2.867   1.564   2.144 -0.1192 -0.1878 -0.0757
  935SOL    HW1 2804   2.802   1.489   2.158  0.9398  2.0167 -1.3290
  935SOL    HW2 2805   2.841   1.615   2.056 -2.9097  0.2480 -0.9099
  936SOL     OW 2806   2.619   1.393   2.026  0.3022  0.5442 -0.0718
  936SOL    HW1 2807   2.533   1.343   2.054  0.2354  0.5046  2.2587
  936SOL    HW2 2808   2.606   1.438   1.935 -2.5026 -1.3631 -0.3301
  937SOL     OW 2809   1.869   1.405   1.863 -0.3406 -0.5285 -0.4558
  937SOL    HW1 2810   1.875   1.304   1.865  1.7147  0.7456 -1.1004
  937SOL    HW2 2811   1.905   1.443   1.952  0.6188 -0.2334 -0.1758
  938SOL     OW 2812   0.623   2.330   2.431 -0.4592  0.5818  0.1122
  938SOL    HW1 2813   0.608   2.363   2.526 -0.0207  1.1214  1.1975
  938SOL    HW2 2814   0.667   2.238   2.421 -0.7644  0.2231 -1.2309
  939SOL     OW 2815   2.250   1.038   2.864  0.5705  0.7240  0.3214
  939SOL    HW1 2816   2.178   0.992   2.809 -0.7234  0.2639 -0.3151
  939SOL    HW2 2817   2.208   1.107   2.926  2.3761  1.7023 -2.4026
  940SOL     OW 2818   1.346   1.727   0.443 -0.0352 -0.0604 -0.8529
  940SOL    HW1 2819   1.393   1.635   0.427  2.6258 -1.4445  0.0371
  940SOL    HW2 2820   1.366   1.767   0.536  0.6536 -0.4195  1.8193
  941SOL     OW 2821   1.281   2.683   2.386  0.1537  0.4458  0.2480
  941SOL    HW1 2822   1.275   2.631   2.477 -0.3662  1.9140  1.4940
  941SOL    HW2 2823   1.263   2.617   2.307  3.3571  0.2070 -0.2271
  942SOL     OW 2824   0.597   2.317   0.404  0.2990  0.7605  0.4627
  942SOL    HW1 2825   0.575   2.354   0.308  0.2596  1.1504 -0.6178
  942SOL    HW2 2826   0.697   2.296   0.394 -1.1943 -0.5772 -1.8409
  943SOL     OW 2827   1.968   2.935   1.698  0.1555  0.5785  0.6753
  943SOL    HW1 2828   1.994   2.871   1.619 -1.4933 -0.2459 -2.1212
  943SOL    HW2 2829   1.978   3.033   1.676 -0.8006  0.2660 -2.3910
  944SOL     OW 2830   0.913   1.522   2.923  0.2727  0.0467 -0.1341
  944SOL    HW1 2831   1.015   1.518   2.920  0.5065  0.8334 -1.8854
  944SOL    HW2 2832   0.889   1.431   2.877 -0.8872 -3.5349 -0.1757
  945SOL     OW 2833   2.996   2.337   0.797 -0.1312 -0.4877  0.0064
  945SOL    HW1 2834   2.991   2.265   0.870  0.6004 -1.3283  0.8620
  945SOL    HW2 2835   3.011   2.293   0.705  1.6018  1.0169 -0.6796
  946SOL     OW 2836   0.824   1.337   2.724 -0.4390  0.0584  0.0774
  946SOL    HW1 2837   0.743   1.283   2.752 -0.6792 -0.3508 -0.6458
  946SOL    HW2 2838   0.890   1.279   2.669  0.2673 -0.9680 -1.1173
  947SOL     OW 2839   2.678   0.022   1.807 -0.2889 -0.6623  0.1213
  947SOL    HW1 2840   2.745   3.064   1.744 -0.1001  1.5115 -0.5687
  947SOL    HW2 2841   2.682   0.122   1.820 -0.2158  3.1927 -0.4742
  948SOL     OW 2842   0.163   1.928   1.225  1.0272 -0.0228 -0.1772
  948SOL    HW1 2843   0.189   2.003   1.158 -2.0534  0.7189  0.9034
  948SOL    HW2 2844   0.221   1.925   1.312  0.2452 -1.7259 -0.1963
  949SOL     OW 2845   0.922   0.877   1.713  0.3949  0.4685  0.1944
  949SOL    HW1 2846   1.017   0.905   1.687  1.4905  0.2258 -0.9710
  949SOL    HW2 2847   0.857   0.952   1.691 -0.5085 -0.1956 -0.5786
  950SOL     OW 2848   0.062   1.085   1.068 -0.0332 -0.6623  0.1050
  950SOL    HW1 2849   0.155   1.045   1.055 -1.8922  0.7476 -2.2000
  950SOL    HW2 2850   3.082   1.019   1.034 -0.6316  1.1011 -1.8898
  951SOL     OW 2851   0.387   1.911   2.347  0.2384  0.0183  0.1990
  951SOL    HW1 2852   0.328   1.970   2.296  0.6020  1.3581  1.3998
  951SOL    HW2 2853   0.386   1.939   2.445 -2.1029  0.6920  0.5615
  952SOL     OW 2854   1.401   2.177   0.553 -0.0515 -0.0251 -0.0270
  952SOL    HW1 2855   1.491   2.159   0.513 -1.7675 -2.2677  1.8703
  952SOL    HW2 2856   1.335   2.221   0.488 -2.3023 -1.4368 -0.3871
  953SOL     OW 2857   0.988   0.748   0.250 -0.9098  0.3967 -0.4298
  953SOL    HW1 2858   1.025   0.665   0.296  2.1539 -1.1944  2.3445
  953SOL    HW2 2859   0.943   0.733   0.162  4.9426  1.7304 -1.0402
  954SOL     OW 2860   2.307   0.847   0.971  1.0309  0.0003 -0.4303
  954SOL    HW1 2861   2.401   0.868   1.011  3.5079 -2.2273  0.4279
  954SOL    HW2 2862   2.230   0.903   1.013 -1.5870  1.0319  2.2447
  955SOL     OW 2863   2.386   1.410   0.547  0.0367  0.1398  0.0793
  955SOL    HW1 2864   2.287   1.417   0.512 -0.6090 -2.0618 -2.0951
  955SOL    HW2 2865   2.443   1.357   0.481  3.1021 -0.6417 -1.4293
  956SOL     OW 2866   0.879   0.403   1.693 -0.2468 -0.2236  0.0587
  956SOL    HW1 2867   0.928   0.436   1.781  0.9216  1.0179  0.3097
  956SOL    HW2 2868   0.868   0.488   1.640  1.6445 -0.7637 -2.2917
  957SOL     OW 2869   1.905   0.657   1.074 -0.3525  0.0305 -0.3091
  957SOL    HW1 2870   1.819   0.675   1.127 -0.3229  0.1089  0.8909
  957SOL    HW2 2871   1.920   0.734   1.008  2.2103  2.5309  2.0353
  958SOL     OW 2872   0.115   2.007   0.610 -0.9946  0.0110  0.2071
  958SOL    HW1 2873   0.111   1.926   0.551  2.1272 -0.7891 -2.2283
  958SOL    HW2 2874   0.197   2.064   0.586 -0.3424  2.3840 -0.1747
  959SOL     OW 2875   2.051   1.816   1.629  0.4137 -0.0384 -0.2270
  959SOL    HW1 2876   2.044   1.776   1.723  0.6055 -1.8935 -1.2344
  959SOL    HW2 2877   2.115   1.765   1.563 -1.5541 -0.2329 -3.7682
  960SOL     OW 2878   3.075   1.913   0.051 -0.0527  0.1654  0.4188
  960SOL    HW1 2879   0.074   1.874   0.018 -1.9173  0.8502 -0.2581
  960SOL    HW2 2880   2.998   1.850   0.054  2.0588 -0.4553  1.0113
  961SOL     OW 2881   0.886   1.465   0.984  1.0102 -0.0501  0.2701
  961SOL    HW1 2882   0.788   1.468   1.014  1.5683  0.1910 -0.8442
  961SOL    HW2 2883   0.908   1.534   0.916  0.2256  0.6759  0.7106
  962SOL     OW 2884   0.881   1.303   0.690 -0.1962  0.3675  0.1510
  962SOL    HW1 2885   0.798   1.344   0.729  2.3259  1.0290  2.9047
  962SOL    HW2 2886   0.934   1.262   0.767 -0.1135  0.6698  2.7379
  963SOL     OW 2887   0.874   1.853   2.299  0.4245  0.2862  0.0823
  963SOL    HW1 2888   0.918   1.850   2.393  0.0075  0.5849  2.5806
  963SOL    HW2 2889   0.942   1.867   2.227 -3.5020 -1.7074 -2.3030
  964SOL     OW 2890   0.217   2.909   2.006  0.3807 -0.4421 -0.5112
  964SOL    HW1 2891   0.216   2.962   1.918 -2.1268  0.9546  0.5371
  964SOL    HW2 2892   0.246   2.819   1.993 -0.2516  2.9260  2.3300
  965SOL     OW 2893   0.795   2.270   3.005  0.0929 -0.2414  0.9741
  965SOL    HW1 2894   0.775   2.319   3.087 -1.0917 -0.3452 -3.8274
  965SOL    HW2 2895   0.730   2.196   2.994 -1.5323  0.5295  0.2273
  966SOL     OW 2896   2.955   1.754   0.305 -0.1393 -0.1406  0.3139
  966SOL    HW1 2897   2.926   1.659   0.322  0.0505  0.8798 -0.6476
  966SOL    HW2 2898   2.892   1.791   0.233 -1.0760  0.6304  0.1998
  967SOL     OW 2899   1.982   2.483   2.869  0.3105  0.5694  0.3366
  967SOL    HW1 2900   2.038   2.414   2.816  1.4572 -1.3541 -0.6897
  967SOL    HW2 2901   1.936   2.440   2.952  0.3251  2.6348 -1.2372
  968SOL     OW 2902   2.308   2.931   0.984 -0.6518  0.1445  0.5635
  968SOL    HW1 2903   2.349   3.017   1.017  2.1438  2.4664 -0.4363
  968SOL    HW2 2904   2.320   2.862   1.052  0.6014  4.8479 -1.0302
  969SOL     OW 2905   0.274   0.965   1.988  0.1631 -0.2422  0.2426
  969SOL    HW1 2906   0.293   0.955   2.088  0.4121  0.1194 -0.0835
  969SOL    HW2 2907   0.241   1.059   1.976  2.1119  1.1419  1.1445
  970SOL     OW 2908   1.801   1.195   0.597  0.3552 -0.9048  0.5459
  970SOL    HW1 2909   1.886   1.160   0.644 -0.1365 -0.3333 -0.7033
  970SOL    HW2 2910   1.762   1.118   0.540  1.7174  0.4662 -1.4416
  971SOL     OW 2911   2.370   2.772   1.626  0.4704 -0.1251  0.5843
  971SOL    HW1 2912   2.420   2.731   1.706  3.4960  1.0284 -0.4214
  971SOL    HW2 2913   2.378   2.872   1.626  1.4102 -2.9725  2.4622
  972SOL     OW 2914   2.904   0.349   1.395  0.1368  0.3906 -0.2152
  972SOL    HW1 2915   2.857   0.326   1.309  1.7853  0.2394  1.9526
  972SOL    HW2 2916   2.859   0.432   1.436 -1.6775  0.5848  0.4863
  973SOL     OW 2917   0.057   0.469   2.601  0.7563  0.1938  0.9747
  973SOL    HW1 2918   0.129   0.463   2.535  1.0109  0.5146  3.1483
  973SOL    HW2 2919   3.076   0.541   2.575  1.2462 -1.6537  1.0424
  974SOL     OW 2920   2.417   1.135   2.132 -0.0659 -0.0157 -0.0222
  974SOL    HW1 2921   2.330   1.078   2.128 -2.6261 -1.1910  0.3165
  974SOL    HW2 2922   2.433   1.183   2.226  2.4135  0.8156  1.6588
  975SOL     OW 2923   1.104   0.523   1.495 -0.1687  0.1136  0.2000
  975SOL    HW1 2924   1.111   0.427   1.457 -2.5994  2.5884 -1.2797
  975SOL    HW2 2925   1.135   0.532   1.596 -0.7085 -2.1140  4.5019
  976SOL     OW 2926   0.904   1.549   1.557 -0.2025  0.6789 -0.1654
  976SOL    HW1 2927   0.975   1.619   1.553 -2.8645 -1.0518  1.2875
  976SOL    HW2 2928   0.842   1.549   1.477  0.9325  0.1446  2.2308
  977SOL     OW 2929   0.979   3.002   0.111  0.0128 -0.1537 -0.3639
  977SOL    HW1 2930   1.001   2.976   0.017  1.4884 -0.6955 -1.5930
  977SOL    HW2 2931   1.025   3.087   0.134 -2.0494 -2.3359  0.4919
  978SOL     OW 2932   2.425   1.292   2.347 -0.3083 -0.2171  0.3085
  978SOL    HW1 2933   2.471   1.383   2.342 -0.8049  0.7017  3.9215
  978SOL    HW2 2934   2.385   1.278   2.436  0.9149  0.1074 -0.9856
  979SOL     OW 2935   1.488   0.384   1.971  0.3458  0.5774 -0.0445
  979SOL    HW1 2936   1.456   0.482   1.955  0.7678  0.4290 -2.4880
  979SOL    HW2 2937   1.531   0.341   1.888 -0.1243 -3.8486 -1.0880
  980SOL     OW 2938   1.510   1.702   1.893  0.1489 -0.0628 -0.1580
  980SOL    HW1 2939   1.474   1.764   1.819  0.8645 -2.6409 -1.4550
  980SOL    HW2 2940   1.468   1.611   1.885  0.0808 -0.6275  0.2326
  981SOL     OW 2941   2.473   1.130   1.446 -0.2328  0.1594 -0.1544
  981SOL    HW1 2942   2.545   1.076   1.395  2.2787 -1.4857  0.8813
  981SOL    HW2 2943   2.413   1.064   1.495 -2.8065 -0.9361 -0.4971
  982SOL     OW 2944   0.440   0.359   2.890  0.0556 -0.5579 -0.4029
  982SOL    HW1 2945   0.432   0.351   2.791  1.2927  2.9102  2.9428
  982SOL    HW2 2946   0.380   0.290   2.938 -2.4022  0.9484 -0.8281
  983SOL     OW 2947   2.314   0.584   2.834 -0.1690 -0.0344 -0.0045
  983SOL    HW1 2948   2.319   0.493   2.880  0.1726  0.3728 -2.9966
  983SOL    HW2 2949   2.275   0.651   2.896 -1.6006  0.4891  1.0656
  984SOL     OW 2950   0.844   0.024   1.943  0.4530 -0.4273  0.3203
  984SOL    HW1 2951   0.873   0.019   2.040  0.4137 -0.5083  2.3334
  984SOL    HW2 2952   0.829   3.024   1.899  0.6574  2.2297 -0.1922
  985SOL     OW 2953   1.392   1.895   2.072 -0.2496  0.1994  0.5264
  985SOL    HW1 2954   1.443   1.834   2.009  0.2551  2.9912  0.3589
  985SOL    HW2 2955   1.448   1.911   2.159  1.2689 -0.5872  2.2647
  986SOL     OW 2956   2.145   0.300   1.735 -0.6694 -0.5011  0.7856
  986SOL    HW1 2957   2.104   0.378   1.790  0.5990  0.9556 -0.5393
  986SOL    HW2 2958   2.227   0.258   1.781 -1.9497  0.5260  0.1127
  987SOL     OW 2959   2.540   1.380   1.387 -0.0758  0.2634  0.1409
  987SOL    HW1 2960   2.481   1.412   1.316  0.9532  1.0136  1.5736
  987SOL    HW2 2961   2.512   1.284   1.419 -0.7663  0.7006  1.5500
  988SOL     OW 2962   2.336   1.935   1.907 -0.1959 -0.0389  0.0467
  988SOL    HW1 2963   2.389   2.017   1.879  1.1487  2.9139  0.0359
  988SOL    HW2 2964   2.237   1.953   1.933 -1.5110 -1.1612 -0.3758
  989SOL     OW 2965   1.142   2.523   0.197 -0.1288  0.7523  0.4442
  989SOL    HW1 2966   1.076   2.557   0.264  1.3639 -2.3492 -0.2530
  989SOL    HW2 2967   1.127   2.424   0.178  1.8298 -2.1842 -0.8651
  990SOL     OW 2968   1.625   0.961   2.853 -0.3506 -0.3499 -0.6399
  990SOL    HW1 2969   1.526   0.953   2.882 -1.4298 -1.1368 -1.9947
  990SOL    HW2 2970   1.632   1.009   2.763 -0.8762  3.5908  2.6450
  991SOL     OW 2971   1.034   0.545   0.595 -0.2043  0.4568 -0.1766
  991SOL    HW1 2972   1.054   0.462   0.656  1.6833  0.0711  0.0647
  991SOL    HW2 2973   1.065   0.529   0.502 -1.8886  0.1744 -1.1679
  992SOL     OW 2974   2.674   0.988   1.330 -0.7563 -0.0373 -0.0255
  992SOL    HW1 2975   2.725   0.912   1.381  2.7867 -1.4681  4.1502
  992SOL    HW2 2976   2.744   1.057   1.296  1.6435  1.4692 -1.5019
  993SOL     OW 2977   2.566   0.756   1.684  0.4777 -0.3483 -0.2930
  993SOL    HW1 2978   2.482   0.789   1.630 -2.8286 -3.0865  1.5954
  993SOL    HW2 2979   2.647   0.822   1.682 -0.6508 -0.0120  1.1563
  994SOL     OW 2980   0.640   1.947   2.697  0.0794  0.1758 -0.0831
  994SOL    HW1 2981   0.656   2.010   2.615  3.3822 -2.3575 -1.6057
  994SOL    HW2 2982   0.542   1.918   2.697  0.5487  0.8180 -2.4604
  995SOL     OW 2983   1.920   1.201   2.808  0.2724 -0.6769 -0.3803
  995SOL    HW1 2984   1.915   1.266   2.726 -0.3600  0.8975  0.9466
  995SOL    HW2 2985   1.952   1.113   2.773  1.1691  0.9132 -1.4580
  996SOL     OW 2986   2.272   1.675   0.337  0.2463 -0.2682 -0.7304
  996SOL    HW1 2987   2.231   1.586   0.362  1.2945  0.5279 -3.4470
  996SOL    HW2 2988   2.313   1.723   0.419  0.4358  0.7641 -0.1660
  997SOL     OW 2989   2.057   0.646   2.193 -0.4354 -0.3533 -0.3585
  997SOL    HW1 2990   2.060   0.707   2.112 -2.4670 -0.0039 -1.6874
  997SOL    HW2 2991   2.001   0.561   2.175  1.0937 -0.2185  2.4552
  998SOL     OW 2992   2.530   1.258   0.350  0.7368 -0.5844 -0.3142
  998SOL    HW1 2993   2.572   1.303   0.268  2.3905  1.6295  0.3472
  998SOL    HW2 2994   2.493   1.168   0.324  0.4002  2.0723  1.6899
  999SOL     OW 2995   2.824   2.002   0.685  0.0357  0.7489  0.0831
  999SOL    HW1 2996   2.773   1.992   0.774 -0.3647  1.2331 -0.8842
  999SOL    HW2 2997   2.860   2.098   0.671 -0.9742  0.2450  1.2619
 1000SOL     OW 2998   0.872   0.886   2.289  0.4081 -0.1399 -1.0172
 1000SOL    HW1 2999   0.878   0.885   2.389 -1.2856  2.6797  4.2522
 1000SOL    HW2 3000   0.793   0.833   2.261  0.3241 -1.3009 -1.4901
   3.08740   3.08740   3.08740
