1000 SPC/Fw water molecules t= 396.00000 step= 396000
 3000
    1SOL     OW    1   2.876   2.974   1.885 -0.6509  0.5875 -0.1673
    1SOL    HW1    2   2.786   2.979   1.932  2.1145  1.6751 -1.2615
    1SOL    HW2    3   2.874   2.893   1.820  0.0798 -0.6475 -2.3708
    2SOL     OW    4   2.462   2.517   0.365 -0.0130 -0.4018  0.3835
    2SOL    HW1    5   2.540   2.496   0.300  1.3046  2.1076  3.1786
    2SOL    HW2    6   2.474   2.609   0.407  2.8896  0.7520  0.9090
    3SOL     OW    7   1.350   2.892   0.249 -0.3026 -0.0326  0.2150
    3SOL    HW1    8   1.383   2.935   0.339  1.3544  1.4696 -2.4654
    3SOL    HW2    9   1.249   2.906   0.239  2.2140  1.8409 -1.3341
    4SOL     OW   10   1.114   2.964   2.447 -0.3109 -0.0729 -0.1288
    4SOL    HW1   11   1.214   2.942   2.436 -0.1648  0.4948 -1.3440
    4SOL    HW2   12   1.073   2.978   2.354 -0.1196  0.0167 -1.5573
    5SOL     OW   13   2.190   2.950   1.474  0.2898  0.4573 -0.0508
    5SOL    HW1   14   2.133   3.015   1.525  2.4247 -0.2544  2.4584
    5SOL    HW2   15   2.285   2.980   1.479 -0.6553  1.0745 -3.3026
    6SOL     OW   16   2.213   2.082   0.515 -0.1071  0.8143 -0.5764
    6SOL    HW1   17   2.179   2.048   0.422 -3.0551 -0.1088 -2.8349
    6SOL    HW2   18   2.164   2.165   0.538  0.4828 -1.4930  0.2175
    7SOL     OW   19   2.133   1.228   0.639 -0.8732 -0.3450  0.4629
    7SOL    HW1   20   2.225   1.200   0.670  0.2129  0.7773  0.0832
    7SOL    HW2   21   2.133   1.260   0.542  0.1209  0.3703 -0.5338
    8SOL     OW   22   0.493   1.282   0.952 -0.1626 -0.0439  0.2804
    8SOL    HW1   23   0.575   1.287   1.015  1.9147 -2.6916 -1.4466
    8SOL    HW2   24   0.491   1.347   0.872  0.1416  0.5339 -0.3022
    9SOL     OW   25   0.405   2.752   1.783  0.6807  0.5548  0.2576
    9SOL    HW1   26   0.371   2.755   1.685  0.5459  0.4187 -0.1336
    9SOL    HW2   27   0.422   2.663   1.821  2.9164  1.1756 -0.5780
   10SOL     OW   28   1.117   2.356   0.544 -0.2316  0.2298 -0.0657
   10SOL    HW1   29   1.066   2.329   0.627  0.1449 -1.5545 -1.0376
   10SOL    HW2   30   1.195   2.292   0.526  0.0372 -1.3688 -0.5969
   11SOL     OW   31   1.736   2.171   1.069 -0.4180 -0.6915  0.5230
   11SOL    HW1   32   1.737   2.271   1.051 -2.9616  1.4108 -0.7440
   11SOL    HW2   33   1.673   2.154   1.147  0.7205 -0.0945  1.8506
   12SOL     OW   34   2.809   0.498   1.871 -0.0862 -0.4824  0.6150
   12SOL    HW1   35   2.786   0.588   1.909 -1.1115  0.5470  0.3059
   12SOL    HW2   36   2.901   0.467   1.908  2.1886  3.2389  1.7400
   13SOL     OW   37   2.663   2.774   0.335  0.0806  0.2665 -0.0837
   13SOL    HW1   38   2.758   2.794   0.370 -0.1276 -1.3595  0.0029
   13SOL    HW2   39   2.648   2.827   0.251  2.2202 -0.5946  0.4531
   14SOL     OW   40   1.876   1.382   0.027  0.1914  0.0526  0.5007
   14SOL    HW1   41   1.830   1.340   3.037 -1.7564 -0.0748 -1.7827
   14SOL    HW2   42   1.817   1.358   0.110  0.3401 -2.6176 -0.4604
   15SOL     OW   43   2.724   2.399   1.888 -0.6907 -0.2123  0.0053
   15SOL    HW1   44   2.639   2.369   1.941 -2.4140  0.7054 -1.2479
   15SOL    HW2   45   2.807   2.394   1.949  0.6453 -0.2517  3.2488
   16SOL     OW   46   2.768   2.868   0.807  0.5290 -0.3874  0.5249
   16SOL    HW1   47   2.753   2.923   0.894  0.9608 -0.8675  2.6005
   16SOL    HW2   48   2.709   2.782   0.807 -0.6880 -0.4727 -0.2516
   17SOL     OW   49   1.119   0.287   1.272 -0.6344 -0.0423 -0.6157
   17SOL    HW1   50   1.041   0.250   1.220  0.2669  1.2273 -0.6805
   17SOL    HW2   51   1.115   0.285   1.374 -0.8733  1.0634 -0.4243
   18SOL     OW   52   1.562   3.079   1.104 -0.3743 -0.2486 -0.4710
   18SOL    HW1   53   1.650   0.002   1.153 -0.5939 -0.9028  1.6712
   18SOL    HW2   54   1.531   0.075   1.061 -0.7071 -0.6665 -0.0336
   19SOL     OW   55   2.355   1.331   0.044  0.0070 -0.1074  0.1655
   19SOL    HW1   56   2.266   1.378   0.025 -1.6554 -2.7785  1.2021
   19SOL    HW2   57   2.414   1.388   0.108 -3.7189 -2.1381  1.9853
   20SOL     OW   58   2.430   1.498   2.277  0.2103 -0.0927 -0.6021
   20SOL    HW1   59   2.412   1.451   2.369 -2.8627  2.0469  2.0257
   20SOL    HW2   60   2.384   1.588   2.270 -1.0286 -0.6098  1.3943
   21SOL     OW   61   1.380   3.059   0.481 -0.3633 -0.2105 -0.5774
   21SOL    HW1   62   1.326   0.039   0.433 -0.0670 -0.2435  1.7964
   21SOL    HW2   63   1.319   3.001   0.545  0.8528 -1.7804 -0.6720
   22SOL     OW   64   2.842   0.943   0.963 -0.1295 -0.2159 -0.1004
   22SOL    HW1   65   2.816   0.946   1.065  2.0890  2.0685 -1.4866
   22SOL    HW2   66   2.761   0.935   0.901  0.4742 -0.6232  2.4239
   23SOL     OW   67   0.583   0.063   1.824  0.1227  0.5322  0.4349
   23SOL    HW1   68   0.545   0.097   1.910 -0.3389 -1.3809  0.3283
   23SOL    HW2   69   0.565   3.052   1.814 -2.8582 -2.7313 -1.3301
   24SOL     OW   70   2.297   2.585   0.664  0.5939 -1.1599  0.3430
   24SOL    HW1   71   2.339   2.665   0.626 -0.7120 -1.3607 -0.7009
   24SOL    HW2   72   2.201   2.584   0.628 -0.8240  1.1631 -0.8631
   25SOL     OW   73   2.012   3.019   2.709  0.2992  0.1668  0.1990
   25SOL    HW1   74   2.065   2.975   2.786 -0.9412 -1.0911  0.4132
   25SOL    HW2   75   1.983   0.021   2.732  1.4909 -1.6073 -1.0315
   26SOL     OW   76   1.368   2.577   3.073  0.0796  0.1458  0.4077
   26SOL    HW1   77   1.423   2.659   3.076  0.3226  0.0913  0.8655
   26SOL    HW2   78   1.268   2.593   3.071  0.8120 -1.5287  0.4964
   27SOL     OW   79   1.287   0.677   1.094  0.2418  0.1196  0.1659
   27SOL    HW1   80   1.197   0.633   1.104  1.1715  1.9245 -1.6392
   27SOL    HW2   81   1.362   0.619   1.130 -0.8245  1.4561  0.5845
   28SOL     OW   82   0.946   1.353   0.454 -0.1010 -0.1494  0.7005
   28SOL    HW1   83   0.917   1.279   0.382 -0.6438  0.7496  0.6652
   28SOL    HW2   84   1.003   1.321   0.531 -2.3080  2.7009 -0.8346
   29SOL     OW   85   2.539   0.480   1.575  0.1304 -0.7817 -0.1988
   29SOL    HW1   86   2.465   0.417   1.603 -1.2850  0.9784  1.1605
   29SOL    HW2   87   2.559   0.541   1.650  0.6345 -1.7711 -3.9638
   30SOL     OW   88   1.217   2.669   1.485  0.1048 -0.0744 -0.0143
   30SOL    HW1   89   1.181   2.743   1.543  0.0438 -0.9553 -2.1462
   30SOL    HW2   90   1.218   2.574   1.519  0.1574  3.0486 -2.0261
   31SOL     OW   91   1.797   2.977   1.617 -0.2690  0.3087  0.2528
   31SOL    HW1   92   1.802   2.939   1.713 -1.4593  0.1994  1.2702
   31SOL    HW2   93   1.841   2.917   1.545 -1.2475 -3.9751  1.3716
   32SOL     OW   94   1.547   1.896   2.686  0.3161 -0.5092  0.3531
   32SOL    HW1   95   1.455   1.881   2.720 -0.5115 -0.5646 -0.1369
   32SOL    HW2   96   1.590   1.818   2.634  1.8368 -0.9022 -1.1781
   33SOL     OW   97   2.757   0.747   2.628 -0.0723 -0.1845  0.5097
   33SOL    HW1   98   2.750   0.746   2.529  2.0743 -3.7837 -0.1076
   33SOL    HW2   99   2.666   0.713   2.664 -2.8027  0.7462 -0.4211
   34SOL     OW  100   1.875   0.419   0.530  0.1753  0.2255 -0.3767
   34SOL    HW1  101   1.875   0.446   0.628  2.0009  0.3746 -0.8105
   34SOL    HW2  102   1.829   0.487   0.473 -4.0580 -1.3908  0.7332
   35SOL     OW  103   3.065   2.096   2.278 -0.3507  0.1377  0.4537
   35SOL    HW1  104   2.980   2.048   2.314 -2.8322  0.4712 -2.0655
   35SOL    HW2  105   3.067   2.177   2.336  0.4244  0.0390 -4.6654
   36SOL     OW  106   2.367   1.916   3.006  0.6089  0.0150 -0.1796
   36SOL    HW1  107   2.400   1.843   2.936 -0.7303 -0.9765  0.1682
   36SOL    HW2  108   2.355   2.009   2.967 -1.8838  0.4479  1.3671
   37SOL     OW  109   1.750   0.348   1.475  0.0291  0.0715  0.3084
   37SOL    HW1  110   1.831   0.337   1.536 -0.3740 -0.0621  1.5767
   37SOL    HW2  111   1.688   0.419   1.517 -0.3731  3.0202 -1.8736
   38SOL     OW  112   0.291   0.240   2.652 -0.2474  0.0272  0.1459
   38SOL    HW1  113   0.338   0.331   2.647  1.9772  1.9097  0.0750
   38SOL    HW2  114   0.336   0.173   2.715  0.3144  1.0359 -2.1694
   39SOL     OW  115   1.620   1.184   1.546  0.9384 -0.1441 -0.2648
   39SOL    HW1  116   1.533   1.179   1.494 -1.9580 -1.3392  0.6027
   39SOL    HW2  117   1.678   1.254   1.501 -0.5568 -0.5846  1.4650
   40SOL     OW  118   1.221   1.965   0.914  0.4319 -0.1794  0.1534
   40SOL    HW1  119   1.178   1.876   0.947  1.8169 -2.5001  0.6643
   40SOL    HW2  120   1.317   1.949   0.879  1.6071 -0.3382  2.0554
   41SOL     OW  121   1.983   2.027   1.021  0.6979  0.1097 -0.3102
   41SOL    HW1  122   1.996   1.927   1.049  1.4709 -1.8268 -0.2558
   41SOL    HW2  123   1.912   2.078   1.074  0.5238  2.4030 -0.2231
   42SOL     OW  124   2.657   0.682   1.175  0.6952  0.4210  0.1017
   42SOL    HW1  125   2.741   0.633   1.209 -0.9982  0.4874  0.9188
   42SOL    HW2  126   2.668   0.785   1.182 -0.3262  0.2389  2.2266
   43SOL     OW  127   0.563   1.831   2.990 -0.8071  0.3537 -0.1652
   43SOL    HW1  128   0.567   1.889   3.077  2.0265 -0.4212  1.2872
   43SOL    HW2  129   0.620   1.747   3.015 -1.2747 -1.9405  0.2987
   44SOL     OW  130   1.559   2.491   1.488 -0.4468 -0.0810 -0.1119
   44SOL    HW1  131   1.558   2.544   1.573  1.2644 -2.6719 -1.1154
   44SOL    HW2  132   1.607   2.541   1.414  0.5071  2.4745 -0.1679
   45SOL     OW  133   0.779   2.994   2.563 -0.1633  0.1985  0.0023
   45SOL    HW1  134   0.765   2.958   2.469  2.1397 -0.2286 -0.1922
   45SOL    HW2  135   0.803   0.003   2.561 -2.5785 -1.7418 -0.3634
   46SOL     OW  136   0.791   2.388   2.251 -0.0784  0.1668 -0.1619
   46SOL    HW1  137   0.855   2.402   2.176 -1.0939  1.5170  0.1049
   46SOL    HW2  138   0.747   2.473   2.283  0.5198 -2.9400 -1.0244
   47SOL     OW  139   0.795   2.180   0.969  0.3563 -0.3469  0.6262
   47SOL    HW1  140   0.729   2.253   1.005  0.9572 -0.3711  0.3446
   47SOL    HW2  141   0.764   2.092   1.013 -0.3728 -3.0508 -1.1850
   48SOL     OW  142   0.746   2.330   1.300 -0.0542 -0.9330 -0.3251
   48SOL    HW1  143   0.737   2.364   1.203 -0.4331 -0.7838 -0.9199
   48SOL    HW2  144   0.728   2.231   1.314 -0.7939  0.7306  0.4377
   49SOL     OW  145   2.517   0.060   0.017  0.3526  0.1064 -0.1495
   49SOL    HW1  146   2.478   0.136   0.077 -2.7306  0.4068  0.5536
   49SOL    HW2  147   2.618   0.065   3.090  0.2966  0.9931 -0.6279
   50SOL     OW  148   1.769   0.570   0.338 -0.0391 -0.4289  0.8309
   50SOL    HW1  149   1.826   0.628   0.277  0.1793  0.4794  1.2656
   50SOL    HW2  150   1.681   0.612   0.371  0.0941 -2.5547 -0.2424
   51SOL     OW  151   1.874   0.858   0.862  0.4331 -1.0444 -0.1695
   51SOL    HW1  152   1.958   0.889   0.905 -3.9813  2.2038 -1.6588
   51SOL    HW2  153   1.806   0.837   0.936  0.5250  1.2789 -1.3566
   52SOL     OW  154   0.636   1.535   0.222 -0.5602 -0.0579  0.0132
   52SOL    HW1  155   0.663   1.543   0.125  0.5545 -2.1300  2.0302
   52SOL    HW2  156   0.677   1.450   0.260  1.8278 -0.3362  1.5517
   53SOL     OW  157   0.382   1.442   0.019 -0.3501 -0.7382 -0.7482
   53SOL    HW1  158   0.406   1.382   0.098  1.6355  0.0692  2.6923
   53SOL    HW2  159   0.417   1.404   3.022 -0.5115 -0.7295  0.2079
   54SOL     OW  160   2.308   1.329   2.058  0.0689 -0.0576  0.4211
   54SOL    HW1  161   2.381   1.382   2.110  1.0839 -0.4796  2.6067
   54SOL    HW2  162   2.294   1.374   1.967  0.4126  1.3140 -2.5594
   55SOL     OW  163   2.556   2.077   0.758  0.2165  0.1206  0.2386
   55SOL    HW1  164   2.523   2.173   0.751  1.2707 -0.0022 -0.4138
   55SOL    HW2  165   2.507   2.034   0.842  0.1636 -2.4857  1.0745
   56SOL     OW  166   1.769   0.021   1.258 -0.6252  0.2327 -0.5865
   56SOL    HW1  167   1.850   0.081   1.291  2.1047 -0.2692  0.4524
   56SOL    HW2  168   1.747   3.047   1.334  0.7498 -0.5302  1.2195
   57SOL     OW  169   1.510   1.188   0.184  0.0638  0.1139 -0.1076
   57SOL    HW1  170   1.487   1.185   0.087 -1.4840  1.3941  0.5475
   57SOL    HW2  171   1.453   1.127   0.239  2.2546  1.3136  0.2962
   58SOL     OW  172   2.187   0.368   1.486 -0.4086  0.2994 -0.3847
   58SOL    HW1  173   2.256   0.309   1.527 -0.5105  1.6555  1.2565
   58SOL    HW2  174   2.172   0.444   1.552 -0.9424  0.0023  1.0190
   59SOL     OW  175   1.148   2.747   2.680 -0.3003  0.2946 -0.5674
   59SOL    HW1  176   1.169   2.764   2.584 -0.2507 -0.8788 -0.7205
   59SOL    HW2  177   1.059   2.803   2.695 -0.1293  0.1703 -1.2362
   60SOL     OW  178   2.960   2.595   2.678  0.1215 -0.4011  0.6612
   60SOL    HW1  179   2.921   2.590   2.775 -2.8515 -0.8464  2.3214
   60SOL    HW2  180   2.886   2.611   2.612  1.0636  2.1483  2.2520
   61SOL     OW  181   0.711   2.435   1.060  0.3098  0.2120 -0.1025
   61SOL    HW1  182   0.752   2.528   1.073 -1.8152  1.8072  0.0853
   61SOL    HW2  183   0.652   2.442   0.980 -3.2856 -0.0980  0.1991
   62SOL     OW  184   1.708   1.717   2.185  0.3348 -0.6307 -0.4349
   62SOL    HW1  185   1.716   1.765   2.095 -1.9638  0.1852 -0.5702
   62SOL    HW2  186   1.792   1.739   2.239 -2.7104  0.6948  1.2900
   63SOL     OW  187   1.660   1.614   0.091  0.5726 -0.0771 -0.5254
   63SOL    HW1  188   1.611   1.622   0.179  0.2987  0.1091 -1.5187
   63SOL    HW2  189   1.724   1.535   0.095  0.2805  0.5670 -0.3596
   64SOL     OW  190   1.813   1.044   0.177  0.1719  0.5020  0.3979
   64SOL    HW1  191   1.773   1.120   0.123 -0.4388 -1.8142 -0.2872
   64SOL    HW2  192   1.741   1.004   0.240 -0.2743 -1.2727  1.6177
   65SOL     OW  193   2.172   2.245   1.906 -0.3527 -0.1191 -0.8847
   65SOL    HW1  194   2.135   2.205   1.997 -2.1644 -0.5009  1.0998
   65SOL    HW2  195   2.112   2.239   1.827  2.5117  1.9880 -1.3724
   66SOL     OW  196   0.389   0.910   1.589  0.5654 -0.1874  0.2036
   66SOL    HW1  197   0.435   0.847   1.520 -0.4776 -0.2363 -1.1585
   66SOL    HW2  198   0.427   1.003   1.588 -1.8021  3.0661  1.4732
   67SOL     OW  199   2.034   2.755   0.163  0.1498  0.2795 -0.3436
   67SOL    HW1  200   2.128   2.726   0.174  0.1485  3.0304  2.6347
   67SOL    HW2  201   2.031   2.846   0.123 -3.8600 -2.5284  1.8883
   68SOL     OW  202   1.934   2.388   1.144 -0.0549  0.2706 -0.6421
   68SOL    HW1  203   2.016   2.381   1.085 -0.7233 -0.1438  0.7220
   68SOL    HW2  204   1.864   2.458   1.110 -1.6541  0.6076 -1.1972
   69SOL     OW  205   2.807   2.075   2.991 -0.1087 -0.4035 -0.1371
   69SOL    HW1  206   2.829   1.976   2.965 -0.1071  0.3025 -2.1556
   69SOL    HW2  207   2.837   2.104   3.086 -0.7933  0.2971 -1.3482
   70SOL     OW  208   0.038   1.032   2.081  0.2291  0.3978 -0.6516
   70SOL    HW1  209   0.043   1.103   2.012 -0.5808 -1.7570  0.2738
   70SOL    HW2  210   3.057   1.050   2.154 -0.3971 -1.0549  1.0086
   71SOL     OW  211   0.926   1.024   2.502  0.3171  0.5061  0.2528
   71SOL    HW1  212   0.853   1.067   2.438  2.8178  0.6619 -1.1482
   71SOL    HW2  213   0.921   0.919   2.498 -1.1501 -2.2398  0.2808
   72SOL     OW  214   2.616   1.365   2.141 -0.9594 -0.3723  0.0425
   72SOL    HW1  215   2.548   1.425   2.181 -0.0046  0.4738  0.4710
   72SOL    HW2  216   2.615   1.375   2.040  0.4680 -0.2871 -2.4946
   73SOL     OW  217   1.184   1.901   2.869  0.5097  0.3584 -0.4571
   73SOL    HW1  218   1.169   1.983   2.808  1.1245 -0.2140  0.2055
   73SOL    HW2  219   1.216   1.930   2.963 -0.4349 -1.9620  1.0863
   74SOL     OW  220   1.969   3.027   2.440 -0.0593  0.2833 -0.0937
   74SOL    HW1  221   1.992   3.033   2.542 -0.5040 -0.2789 -0.6987
   74SOL    HW2  222   2.029   0.001   2.388  0.3367  0.5633 -1.2661
   75SOL     OW  223   1.507   2.370   0.712  0.1597  0.0823  0.0076
   75SOL    HW1  224   1.476   2.404   0.804  0.6273 -1.8826 -0.4428
   75SOL    HW2  225   1.605   2.338   0.716  2.3006  0.3945 -0.7707
   76SOL     OW  226   2.879   1.862   2.884  0.1047 -0.1206  0.4177
   76SOL    HW1  227   2.818   1.822   2.816  1.7902 -0.5017  0.4215
   76SOL    HW2  228   2.953   1.802   2.920 -1.1838 -0.4309 -1.5765
   77SOL     OW  229   3.033   2.586   1.696 -0.0057  0.1646  0.4488
   77SOL    HW1  230   3.043   2.580   1.796  1.9570 -1.1078 -2.2652
   77SOL    HW2  231   2.957   2.520   1.670  1.4519  1.8188  0.8392
   78SOL     OW  232   2.537   0.971   0.165  0.3838 -0.8897  0.2190
   78SOL    HW1  233   2.466   1.002   0.225  2.5834 -0.7750  1.2185
   78SOL    HW2  234   2.502   0.961   0.071  1.7823  2.5993  1.4267
   79SOL     OW  235   0.339   1.464   2.678 -0.0438  0.8544 -0.3661
   79SOL    HW1  236   0.401   1.455   2.601 -1.3867 -1.3072 -0.3192
   79SOL    HW2  237   0.242   1.456   2.648 -1.8258  0.4729  3.0406
   80SOL     OW  238   1.977   1.630   2.054 -0.2373 -0.0869  0.4643
   80SOL    HW1  239   1.962   1.712   2.109  0.2931 -1.6858 -1.8751
   80SOL    HW2  240   2.052   1.570   2.092  2.3754 -0.5137  1.1938
   81SOL     OW  241   2.112   1.421   2.216 -0.3695 -0.3152  0.0439
   81SOL    HW1  242   2.036   1.355   2.209 -1.1614  0.8699  1.6076
   81SOL    HW2  243   2.194   1.384   2.168 -1.4961  1.6386  1.2652
   82SOL     OW  244   1.479   1.508   1.928  0.3298 -0.7603 -0.0505
   82SOL    HW1  245   1.385   1.538   1.964 -3.0615  2.7641  0.3751
   82SOL    HW2  246   1.479   1.415   1.882 -0.2521  1.2136  0.5982
   83SOL     OW  247   3.049   0.243   0.084  0.0321 -0.5802 -0.2249
   83SOL    HW1  248   3.035   0.175   0.158  1.0933  0.7787 -2.1551
   83SOL    HW2  249   2.961   0.293   0.066  2.2759 -0.4217  2.3825
   84SOL     OW  250   0.098   0.721   0.251 -0.8187 -0.0848 -0.5106
   84SOL    HW1  251   3.090   0.736   0.263  2.8070 -0.4993 -0.7019
   84SOL    HW2  252   0.143   0.717   0.344 -0.2744  0.5990 -1.3242
   85SOL     OW  253   2.151   2.070   1.370 -0.3062  0.1834 -0.3559
   85SOL    HW1  254   2.054   2.099   1.350 -0.4851 -0.2703  1.8505
   85SOL    HW2  255   2.202   2.149   1.412 -2.9416 -2.9782 -1.6511
   86SOL     OW  256   0.306   0.412   1.270  0.0411  0.5469 -0.1424
   86SOL    HW1  257   0.339   0.494   1.223 -0.9104  1.5028  1.1432
   86SOL    HW2  258   0.387   0.367   1.313 -0.7413  0.8158 -0.4004
   87SOL     OW  259   0.030   2.074   2.000 -0.1208 -0.5400 -0.1698
   87SOL    HW1  260   3.084   2.099   2.092 -2.1696 -0.0064  0.8823
   87SOL    HW2  261   0.090   1.992   1.995 -0.0127 -2.7991 -3.6354
   88SOL     OW  262   0.327   2.158   3.036  0.2536 -0.3388 -0.4004
   88SOL    HW1  263   0.346   2.172   2.940 -3.1608 -2.3596  0.5870
   88SOL    HW2  264   0.268   2.075   3.040 -3.0356  0.2386 -0.1833
   89SOL     OW  265   1.344   0.896   0.168 -0.4007  0.1257 -0.1770
   89SOL    HW1  266   1.435   0.881   0.212  1.3348  2.3135  2.4276
   89SOL    HW2  267   1.346   0.915   0.066 -0.0403  2.5803  0.5089
   90SOL     OW  268   0.057   1.488   2.328 -0.2617  0.6051 -0.7651
   90SOL    HW1  269   0.138   1.544   2.353  2.4297  0.7933  1.4307
   90SOL    HW2  270   3.062   1.546   2.312 -0.8957  2.0532 -3.8939
   91SOL     OW  271   1.942   0.208   1.350  0.0656  0.2191  0.2863
   91SOL    HW1  272   1.849   0.253   1.362 -0.0075  2.1672 -2.2505
   91SOL    HW2  273   2.010   0.275   1.314 -0.6615 -0.8060  0.4890
   92SOL     OW  274   2.270   1.431   1.272 -0.1145  0.0185  0.5999
   92SOL    HW1  275   2.330   1.382   1.199  2.5463 -0.4026 -1.6445
   92SOL    HW2  276   2.301   1.402   1.366 -2.9459  0.6814  1.7751
   93SOL     OW  277   0.301   1.044   3.026  0.1643 -0.3795  0.1376
   93SOL    HW1  278   0.345   1.044   0.029  0.1726 -0.1498  1.0081
   93SOL    HW2  279   0.333   1.126   2.971  1.2310 -0.2506 -0.1598
   94SOL     OW  280   1.567   2.468   2.215 -0.1262 -0.0134 -0.2645
   94SOL    HW1  281   1.562   2.369   2.213 -0.5308  2.8038  0.5069
   94SOL    HW2  282   1.593   2.505   2.125  1.2594 -1.3143  1.4168
   95SOL     OW  283   0.442   0.652   1.167 -0.2860 -0.8684  0.0809
   95SOL    HW1  284   0.526   0.684   1.115  1.6341 -2.2004  1.2618
   95SOL    HW2  285   0.364   0.645   1.106  3.8933  0.1380  0.9590
   96SOL     OW  286   2.669   2.914   1.496  0.8475 -0.2436  0.1254
   96SOL    HW1  287   2.692   2.875   1.586  0.2157  0.9560 -0.1395
   96SOL    HW2  288   2.748   2.964   1.459 -2.6789 -0.1271  0.6990
   97SOL     OW  289   2.525   0.706   1.743 -0.0487 -0.2532  0.3639
   97SOL    HW1  290   2.582   0.763   1.803 -0.5536 -0.4088  1.3567
   97SOL    HW2  291   2.461   0.649   1.799  2.3670 -0.8487 -0.2441
   98SOL     OW  292   2.287   2.640   1.333  0.8741  0.3535  0.2310
   98SOL    HW1  293   2.309   2.689   1.419  0.4757  1.3122 -0.1047
   98SOL    HW2  294   2.329   2.664   1.241 -0.0374  0.1736 -2.1621
   99SOL     OW  295   0.565   2.964   1.451 -0.0987  0.1077 -0.2538
   99SOL    HW1  296   0.480   3.012   1.485 -5.0676 -0.1336  0.1363
   99SOL    HW2  297   0.587   2.994   1.357  0.7277  2.2979 -2.2129
  100SOL     OW  298   2.072   0.211   2.208  0.5541  0.4999  0.4997
  100SOL    HW1  299   2.049   0.310   2.192  3.9007 -0.4777 -3.9698
  100SOL    HW2  300   2.159   0.192   2.153  1.9119  0.1490 -1.8147
  101SOL     OW  301   3.070   0.059   2.261  0.4731  0.3898  0.5288
  101SOL    HW1  302   3.067   3.053   2.283 -1.3186  1.1682 -3.6160
  101SOL    HW2  303   0.034   0.112   2.325  1.4046 -3.1380 -2.9552
  102SOL     OW  304   0.712   0.415   1.780  0.3458 -0.2977 -0.0349
  102SOL    HW1  305   0.762   0.366   1.704  0.9533 -2.1104 -0.8777
  102SOL    HW2  306   0.741   0.379   1.872  0.6440 -0.4096  0.9213
  103SOL     OW  307   0.841   0.714   2.725  0.2047  0.2050  0.4041
  103SOL    HW1  308   0.891   0.695   2.811 -1.6817  1.1884 -0.4152
  103SOL    HW2  309   0.807   0.808   2.724 -1.7519 -0.4279  0.2628
  104SOL     OW  310   0.074   0.589   2.153  0.3966  0.2648  0.0502
  104SOL    HW1  311   0.166   0.617   2.178 -0.5383 -1.9155  2.1995
  104SOL    HW2  312   0.026   0.647   2.083  2.2060 -1.8462 -1.5610
  105SOL     OW  313   2.520   2.020   1.282 -0.5492  0.2816  0.1304
  105SOL    HW1  314   2.508   2.017   1.382 -1.3300 -0.1912 -3.6199
  105SOL    HW2  315   2.470   2.104   1.249  2.9275  0.0504  0.9003
  106SOL     OW  316   1.869   0.109   0.402  0.0655 -0.1992  0.6390
  106SOL    HW1  317   1.936   0.137   0.471  0.5909  1.5239 -1.7865
  106SOL    HW2  318   1.807   0.185   0.373  1.7788  0.3483 -1.2978
  107SOL     OW  319   1.782   2.331   0.747 -0.3381  0.1186  0.0767
  107SOL    HW1  320   1.809   2.431   0.761 -0.4706  3.4663  0.5707
  107SOL    HW2  321   1.858   2.264   0.763  1.3638 -1.3158  0.1647
  108SOL     OW  322   0.225   2.275   1.250  0.7471  0.2131  0.3077
  108SOL    HW1  323   0.143   2.225   1.215  0.2126 -0.7611  2.8093
  108SOL    HW2  324   0.236   2.371   1.214  0.7079 -0.3116  0.1317
  109SOL     OW  325   1.818   2.605   0.784  0.1847 -0.5682 -0.2937
  109SOL    HW1  326   1.756   2.641   0.713  0.7962  1.0442 -0.1828
  109SOL    HW2  327   1.803   2.658   0.868  1.6373  2.8061 -0.1934
  110SOL     OW  328   1.348   1.579   1.518 -0.2258  0.2012 -0.5382
  110SOL    HW1  329   1.297   1.616   1.599 -1.0679 -0.8813 -1.9089
  110SOL    HW2  330   1.317   1.624   1.433 -0.3541 -0.8813 -0.5269
  111SOL     OW  331   1.749   2.315   1.909  0.8682  0.0762 -0.4271
  111SOL    HW1  332   1.825   2.309   1.841  2.1117 -1.8657  2.2039
  111SOL    HW2  333   1.726   2.409   1.938 -2.9301 -1.0636 -1.5860
  112SOL     OW  334   1.826   2.074   2.937  0.1467  0.2264 -0.1813
  112SOL    HW1  335   1.733   2.108   2.954  0.7354  0.7988  0.9148
  112SOL    HW2  336   1.879   2.084   3.022 -1.1692 -0.3913  0.8128
  113SOL     OW  337   2.001   1.981   1.618 -0.1028 -0.8795 -0.1496
  113SOL    HW1  338   2.072   1.949   1.548  0.7010 -1.3051 -1.4161
  113SOL    HW2  339   2.009   1.927   1.704  1.1991  3.9820 -2.9526
  114SOL     OW  340   3.084   1.486   1.596 -0.0110  0.2778 -0.1587
  114SOL    HW1  341   0.046   1.562   1.555 -0.0104  0.8002 -1.5663
  114SOL    HW2  342   3.055   1.417   1.526 -0.1594 -2.3460  2.3210
  115SOL     OW  343   0.186   0.695   0.512  0.2021  0.2812 -0.0898
  115SOL    HW1  344   0.100   0.734   0.556 -4.1281  1.2644  0.3728
  115SOL    HW2  345   0.256   0.673   0.584  0.8755 -0.0453  1.0228
  116SOL     OW  346   2.647   1.255   2.670 -0.2523 -0.0276  0.3624
  116SOL    HW1  347   2.578   1.300   2.604 -0.4196 -1.8728 -1.2688
  116SOL    HW2  348   2.666   1.317   2.754 -2.9335  2.6810  0.1149
  117SOL     OW  349   2.825   2.330   0.299 -0.4210  0.6919  0.2601
  117SOL    HW1  350   2.754   2.374   0.247  0.1320 -0.4002  3.0050
  117SOL    HW2  351   2.834   2.365   0.394  0.1211  1.0207 -0.2910
  118SOL     OW  352   0.660   2.054   2.817  0.1210 -0.4123  0.1575
  118SOL    HW1  353   0.588   2.120   2.788  0.3155  1.6576 -0.8901
  118SOL    HW2  354   0.618   1.982   2.878 -3.5604 -3.5676  0.3132
  119SOL     OW  355   0.638   2.216   0.684 -0.2644 -0.0740 -0.5325
  119SOL    HW1  356   0.698   2.156   0.633 -1.7839  2.0398  4.7811
  119SOL    HW2  357   0.549   2.169   0.706  0.3801 -0.0295 -0.6681
  120SOL     OW  358   1.470   0.271   0.443  0.6411 -0.0638 -0.0912
  120SOL    HW1  359   1.409   0.335   0.392 -0.0719  0.2992  2.9496
  120SOL    HW2  360   1.452   0.171   0.414 -3.3406 -0.8821 -0.3254
  121SOL     OW  361   1.405   2.451   0.960 -0.2989  0.3621 -0.6130
  121SOL    HW1  362   1.431   2.537   1.012 -2.3530 -0.4683  0.1479
  121SOL    HW2  363   1.308   2.441   0.959  1.8454 -2.1016  2.3542
  122SOL     OW  364   2.703   1.980   2.027 -0.3050 -0.3568 -0.0841
  122SOL    HW1  365   2.653   1.994   2.113 -1.0885 -2.1503  0.9599
  122SOL    HW2  366   2.765   2.053   1.997 -1.6303 -3.1663 -0.8315
  123SOL     OW  367   0.829   1.512   0.782 -0.4274 -0.3264  0.1264
  123SOL    HW1  368   0.740   1.554   0.795 -0.5135 -1.1419  0.3183
  123SOL    HW2  369   0.877   1.558   0.701 -0.5044  0.2892  0.1393
  124SOL     OW  370   0.159   0.364   3.034 -0.1998  0.1210 -0.3400
  124SOL    HW1  371   0.072   0.326   3.074 -0.9553 -1.2920  1.0210
  124SOL    HW2  372   0.159   0.373   2.935 -3.9835  0.1012  0.4219
  125SOL     OW  373   0.312   0.214   0.144 -0.3514  0.1250  0.1411
  125SOL    HW1  374   0.255   0.283   0.095  0.9187  0.0068 -3.2759
  125SOL    HW2  375   0.300   0.122   0.102 -0.1723  2.2291  0.8045
  126SOL     OW  376   2.978   1.647   0.500  0.1533  0.7730  0.6197
  126SOL    HW1  377   3.066   1.632   0.448  0.2979  1.5147 -0.8758
  126SOL    HW2  378   2.943   1.740   0.508 -0.9181  0.6457  1.2532
  127SOL     OW  379   1.058   2.465   1.677  0.0876 -0.4856  0.2050
  127SOL    HW1  380   0.981   2.498   1.733  0.3664  3.3064 -1.1704
  127SOL    HW2  381   1.027   2.447   1.581 -1.8486  0.4494 -3.9489
  128SOL     OW  382   1.344   1.566   0.055 -0.3948  0.4956  0.1607
  128SOL    HW1  383   1.409   1.553   3.067 -0.0951 -1.0152  0.1633
  128SOL    HW2  384   1.255   1.530   0.025  1.0003  0.0770 -2.6092
  129SOL     OW  385   1.890   2.137   1.290  0.3053  0.0280 -0.5223
  129SOL    HW1  386   1.888   2.220   1.233 -0.0976 -1.1241  1.0968
  129SOL    HW2  387   1.806   2.086   1.286  1.6719 -0.5063 -2.5543
  130SOL     OW  388   1.972   2.249   1.681 -0.5998 -0.2258 -0.9385
  130SOL    HW1  389   1.997   2.154   1.668  2.5548  1.5124  1.0182
  130SOL    HW2  390   1.885   2.268   1.631  2.1123 -1.9173 -0.9727
  131SOL     OW  391   2.642   2.339   2.485  0.0892  0.3955 -0.5710
  131SOL    HW1  392   2.545   2.359   2.511  1.0090  2.2299 -3.6501
  131SOL    HW2  393   2.703   2.395   2.543 -0.1357 -1.6745  1.7106
  132SOL     OW  394   3.011   2.191   0.710 -0.5420 -0.3821  0.0140
  132SOL    HW1  395   0.003   2.147   0.755  1.4380  3.4067  1.5052
  132SOL    HW2  396   2.930   2.144   0.753  1.4150 -0.2258  1.7661
  133SOL     OW  397   0.788   0.349   2.057 -0.1212  0.1194  0.0115
  133SOL    HW1  398   0.839   0.262   2.045  2.4598  0.8635 -1.6834
  133SOL    HW2  399   0.846   0.408   2.118  1.3709  2.4429 -1.0292
  134SOL     OW  400   2.890   1.743   0.105 -0.1754 -0.1292 -0.9282
  134SOL    HW1  401   2.936   1.786   0.187 -0.3401 -1.0219 -1.1949
  134SOL    HW2  402   2.816   1.802   0.075  2.2032  0.8112  0.0446
  135SOL     OW  403   1.705   1.141   2.532 -0.2282  0.4616 -0.4064
  135SOL    HW1  404   1.630   1.187   2.584  2.4082 -2.3705 -0.8586
  135SOL    HW2  405   1.666   1.057   2.485  2.6122 -0.4454  0.1806
  136SOL     OW  406   2.501   1.895   0.994  0.5502 -0.1254  0.0466
  136SOL    HW1  407   2.527   1.910   1.090 -1.2434  1.5642 -1.1540
  136SOL    HW2  408   2.552   1.823   0.943 -0.5763  3.2037 -3.5745
  137SOL     OW  409   2.709   1.721   0.839 -0.1430 -0.9181  0.2583
  137SOL    HW1  410   2.794   1.681   0.874 -0.2919 -0.5393  0.7977
  137SOL    HW2  411   2.697   1.696   0.741  0.4716 -1.3573 -1.3187
  138SOL     OW  412   2.723   0.403   0.819  0.4589  0.8412  0.0776
  138SOL    HW1  413   2.772   0.324   0.864 -1.0301  0.3051  1.0140
  138SOL    HW2  414   2.656   0.448   0.882  2.1884 -1.4784  1.2612
  139SOL     OW  415   3.003   2.866   0.180 -0.0111 -0.3558  0.1287
  139SOL    HW1  416   2.981   2.888   0.084  1.7892 -2.3537  0.5167
  139SOL    HW2  417   3.087   2.918   0.200 -2.3116 -1.1241 -2.4547
  140SOL     OW  418   0.624   1.739   1.636 -0.3228 -0.0419  0.1652
  140SOL    HW1  419   0.673   1.674   1.691 -2.7817  4.8090 -1.6810
  140SOL    HW2  420   0.680   1.812   1.587 -3.6658 -0.6731  0.6018
  141SOL     OW  421   1.465   1.883   0.818  0.4079  0.3282  0.8565
  141SOL    HW1  422   1.437   1.796   0.771 -3.2930  0.8296 -0.7856
  141SOL    HW2  423   1.559   1.911   0.797 -0.7905 -0.8542  0.4219
  142SOL     OW  424   0.969   0.523   0.927  0.0841  0.1940 -0.0359
  142SOL    HW1  425   0.964   0.424   0.900  0.1032 -0.1372 -1.2177
  142SOL    HW2  426   0.997   0.533   1.021 -0.2343 -0.6024  0.1697
  143SOL     OW  427   0.720   1.428   2.605  0.2598  0.3427 -0.0066
  143SOL    HW1  428   0.792   1.489   2.575 -0.3228 -1.0860  0.4779
  143SOL    HW2  429   0.641   1.430   2.536  2.1535 -1.3974 -3.0238
  144SOL     OW  430   2.401   2.968   0.815 -0.1575 -0.3244  0.2419
  144SOL    HW1  431   2.426   3.056   0.863 -3.4161  3.6191  0.0202
  144SOL    HW2  432   2.301   2.958   0.806  1.6425 -0.1723  0.4402
  145SOL     OW  433   2.324   0.438   2.751 -0.1634 -0.2507 -0.1467
  145SOL    HW1  434   2.264   0.395   2.827  0.2223  1.3975  0.1089
  145SOL    HW2  435   2.425   0.424   2.777  0.8577 -1.6420  3.3736
  146SOL     OW  436   3.067   2.613   0.568 -0.4720 -0.4564  0.0310
  146SOL    HW1  437   2.999   2.537   0.569  1.4990  0.2847 -0.2695
  146SOL    HW2  438   3.054   2.673   0.649  0.1034  0.7177  0.0868
  147SOL     OW  439   1.080   1.193   2.674 -0.2342  0.4231 -0.0567
  147SOL    HW1  440   1.026   1.133   2.609 -0.9684 -1.3740  2.9842
  147SOL    HW2  441   1.156   1.234   2.621 -1.1679 -1.7690 -0.3686
  148SOL     OW  442   1.384   0.223   2.815 -0.3302 -0.0832 -0.0085
  148SOL    HW1  443   1.382   0.119   2.822  0.1707 -1.2709  0.4183
  148SOL    HW2  444   1.410   0.262   2.727  0.3659  1.3756  0.8387
  149SOL     OW  445   1.908   0.054   2.074  0.1005 -0.0259  0.3172
  149SOL    HW1  446   1.958   3.062   2.049  0.8913  2.4303 -1.9339
  149SOL    HW2  447   1.963   0.107   2.140 -1.9050 -1.4391 -0.0065
  150SOL     OW  448   2.320   2.779   0.186 -0.2538  0.3423 -0.0418
  150SOL    HW1  449   2.328   2.719   0.103 -0.4102  0.0096  2.4931
  150SOL    HW2  450   2.346   2.730   0.271 -2.0829 -0.2495  1.8299
  151SOL     OW  451   0.728   1.602   3.039  0.2776  0.0021  0.0991
  151SOL    HW1  452   0.818   1.648   3.022 -1.4768 -1.4893  0.8391
  151SOL    HW2  453   0.703   1.529   2.972 -1.3403 -1.3994 -0.5631
  152SOL     OW  454   0.235   3.074   1.527 -0.2254  0.3395 -0.5086
  152SOL    HW1  455   0.316   0.047   1.537  0.3236 -0.3597 -2.1080
  152SOL    HW2  456   0.194   3.069   1.619  1.0772 -3.3880  0.3882
  153SOL     OW  457   2.519   2.993   1.724  1.0048  0.0621  0.1644
  153SOL    HW1  458   2.521   3.003   1.622 -0.6970  0.3713  0.2904
  153SOL    HW2  459   2.433   3.021   1.766 -1.9217 -0.0488 -1.5669
  154SOL     OW  460   2.481   0.232   2.591  0.6231 -0.2724 -0.0967
  154SOL    HW1  461   2.516   0.298   2.662 -1.2676  2.9005 -0.1601
  154SOL    HW2  462   2.560   0.175   2.548  3.8154 -1.6652 -1.6404
  155SOL     OW  463   0.002   1.180   0.516  0.3850  0.7023  0.1778
  155SOL    HW1  464   0.055   1.167   0.604  0.7164 -1.6202  0.3329
  155SOL    HW2  465   3.032   1.261   0.526  0.7090  1.1854  1.6199
  156SOL     OW  466   0.145   1.581   0.369  0.2830  0.2932 -0.1930
  156SOL    HW1  467   0.214   1.638   0.319 -1.3170  0.2528 -1.0246
  156SOL    HW2  468   0.152   1.482   0.341  1.3447 -0.3126  0.2757
  157SOL     OW  469   0.601   0.001   0.830 -0.2841 -0.2614 -0.0520
  157SOL    HW1  470   0.585   3.018   0.761  0.3702 -0.4259  0.9389
  157SOL    HW2  471   0.697   3.081   0.866  1.4413  0.3206  1.5506
  158SOL     OW  472   1.738   1.347   0.880 -0.1189  0.8585  0.2784
  158SOL    HW1  473   1.773   1.286   0.954  0.7618  2.2014  3.7229
  158SOL    HW2  474   1.728   1.441   0.922  2.1099 -0.7953  3.2281
  159SOL     OW  475   0.062   0.203   0.403  0.4625 -0.4263 -0.0676
  159SOL    HW1  476   0.121   0.281   0.374 -1.4726  1.9373  0.9293
  159SOL    HW2  477   0.111   0.134   0.456 -1.5209  0.4315 -2.7596
  160SOL     OW  478   2.209   2.287   1.541 -0.2010  1.0700 -0.3400
  160SOL    HW1  479   2.135   2.280   1.610 -1.0726  0.0030 -0.1318
  160SOL    HW2  480   2.177   2.352   1.475 -1.5257 -0.1780  2.1517
  161SOL     OW  481   0.346   0.793   2.934 -0.2188  0.2955 -0.7271
  161SOL    HW1  482   0.286   0.736   3.000 -1.2432  3.0598 -0.1099
  161SOL    HW2  483   0.320   0.889   2.959 -2.2303  0.3215 -1.3569
  162SOL     OW  484   0.836   3.086   1.768 -0.0805  0.5580 -0.6177
  162SOL    HW1  485   0.903   0.028   1.836  0.8851 -0.4172  2.0273
  162SOL    HW2  486   0.743   0.033   1.775 -1.8494  0.0224  0.9718
  163SOL     OW  487   2.613   0.095   2.409  0.5627  0.1234 -0.8795
  163SOL    HW1  488   2.618   3.083   2.407  1.1283 -0.6997 -0.8734
  163SOL    HW2  489   2.544   0.134   2.343 -1.6558  0.2845 -2.7656
  164SOL     OW  490   1.916   1.890   0.381  0.4133  0.5070 -0.5071
  164SOL    HW1  491   1.840   1.889   0.312 -1.2402  1.0182  1.2953
  164SOL    HW2  492   1.999   1.843   0.350 -0.9597  1.4935 -1.5716
  165SOL     OW  493   0.078   0.440   1.465 -0.9607 -0.0539  0.0077
  165SOL    HW1  494   3.087   0.400   1.431  0.9979  2.4831  0.6390
  165SOL    HW2  495   0.144   0.466   1.392 -0.2763 -1.2980  1.3217
  166SOL     OW  496   1.873   0.891   0.599 -0.0315 -0.4932 -0.1641
  166SOL    HW1  497   1.835   0.983   0.575 -2.8545 -0.0143  1.1344
  166SOL    HW2  498   1.844   0.871   0.697  0.5283  0.2721  0.4650
  167SOL     OW  499   2.348   0.667   2.986 -0.4631 -0.9024 -0.0494
  167SOL    HW1  500   2.388   0.658   3.079 -0.8015 -0.3266  0.5746
  167SOL    HW2  501   2.259   0.612   2.988 -0.4525 -1.2276  3.9590
  168SOL     OW  502   1.702   3.012   2.433  0.1260  0.2003  0.1657
  168SOL    HW1  503   1.687   2.911   2.429 -1.6930 -0.7729 -1.0403
  168SOL    HW2  504   1.800   3.024   2.439 -3.9316  0.4222  1.6834
  169SOL     OW  505   0.613   1.649   0.843 -0.3753 -0.4281 -0.8322
  169SOL    HW1  506   0.566   1.700   0.771 -0.4449  0.3810 -0.7753
  169SOL    HW2  507   0.549   1.627   0.921 -1.3493 -0.7947  1.3974
  170SOL     OW  508   2.968   0.982   1.329 -0.0093 -0.1499  0.2506
  170SOL    HW1  509   3.010   1.058   1.276 -0.2594  0.5153  0.4623
  170SOL    HW2  510   3.044   0.940   1.390  2.9121 -1.6173  1.0834
  171SOL     OW  511   2.645   1.781   2.337  0.7093  0.4822 -0.0222
  171SOL    HW1  512   2.660   1.732   2.248 -0.2922  0.3623 -0.9326
  171SOL    HW2  513   2.541   1.788   2.354 -1.9433  1.1614  1.9763
  172SOL     OW  514   0.456   1.661   1.304  0.6950 -0.0369  0.2695
  172SOL    HW1  515   0.444   1.742   1.366 -2.9384  0.8751 -0.4505
  172SOL    HW2  516   0.408   1.580   1.342  2.8590 -0.8160 -1.7166
  173SOL     OW  517   2.028   1.637   2.849 -0.0146  0.5791  0.4242
  173SOL    HW1  518   2.041   1.552   2.902 -1.8559  2.2377 -1.8480
  173SOL    HW2  519   1.944   1.692   2.875 -4.7381 -0.3389  0.2895
  174SOL     OW  520   1.430   0.910   2.793  0.5263  0.2902 -0.5321
  174SOL    HW1  521   1.511   0.892   2.845 -0.9862  1.6918 -1.8331
  174SOL    HW2  522   1.425   0.851   2.714 -1.1949  0.6819 -1.0505
  175SOL     OW  523   1.120   1.526   1.167 -0.2303  0.2942 -0.0305
  175SOL    HW1  524   1.059   1.573   1.234 -2.0608 -1.0754 -1.3596
  175SOL    HW2  525   1.131   1.427   1.194 -1.3387  1.0311 -2.5512
  176SOL     OW  526   1.184   0.124   0.357 -0.6265 -0.0408 -0.0748
  176SOL    HW1  527   1.105   0.067   0.375  0.1951  3.4248  1.4548
  176SOL    HW2  528   1.183   0.169   0.265 -0.6703 -0.8636  3.5412
  177SOL     OW  529   0.383   0.919   0.401  0.0361  0.5084 -0.8467
  177SOL    HW1  530   0.376   0.824   0.433  0.2055  2.3439 -2.7094
  177SOL    HW2  531   0.421   0.970   0.477 -1.4605 -2.6069 -2.9940
  178SOL     OW  532   2.912   2.318   2.644  0.1565  0.2404 -0.4121
  178SOL    HW1  533   2.935   2.274   2.737  1.5430 -1.5609  2.8559
  178SOL    HW2  534   2.933   2.416   2.652  1.6511  0.5217 -0.4768
  179SOL     OW  535   2.580   2.923   2.465  0.7189  0.1456 -0.0208
  179SOL    HW1  536   2.587   2.899   2.564 -0.3270  0.4513 -0.9412
  179SOL    HW2  537   2.663   2.887   2.413 -1.1148 -0.5512  0.3923
  180SOL     OW  538   2.102   0.975   1.002  0.3802  0.1468  0.6492
  180SOL    HW1  539   2.128   0.984   1.100 -0.6059  0.8421 -0.5486
  180SOL    HW2  540   2.171   0.925   0.946  3.1887 -1.4495 -1.4105
  181SOL     OW  541   2.278   0.596   2.559 -0.0297  0.0985  0.0538
  181SOL    HW1  542   2.296   0.529   2.628 -1.7320  1.5593 -1.3665
  181SOL    HW2  543   2.302   0.569   2.461  1.9566 -0.8353 -4.4832
  182SOL     OW  544   2.952   2.335   2.013  0.0036 -0.1273 -0.1824
  182SOL    HW1  545   3.029   2.397   2.019 -0.2329 -2.1420  0.2381
  182SOL    HW2  546   2.981   2.249   1.962  2.4143 -0.9344  0.7033
  183SOL     OW  547   2.006   0.843   1.896 -0.2564  0.3068 -0.0915
  183SOL    HW1  548   2.101   0.849   1.931 -0.0338  0.7161 -1.0475
  183SOL    HW2  549   1.980   0.938   1.885 -3.0777 -2.3323  1.2022
  184SOL     OW  550   0.089   1.668   1.087  0.6194 -0.2671 -0.1483
  184SOL    HW1  551   0.177   1.617   1.075  0.2185  0.1293  1.6045
  184SOL    HW2  552   0.106   1.735   1.163  2.0108 -1.6022  0.5217
  185SOL     OW  553   2.852   0.159   0.926 -0.7625  0.0199 -0.1239
  185SOL    HW1  554   2.821   0.075   0.970 -0.0080  2.0944 -1.7213
  185SOL    HW2  555   2.885   0.220   1.003  0.5829  0.7152  3.2470
  186SOL     OW  556   2.316   2.458   2.532  0.8333 -0.2778  0.1366
  186SOL    HW1  557   2.312   2.374   2.590 -2.0972  0.2819 -2.7446
  186SOL    HW2  558   2.233   2.514   2.534  0.3321  0.0157  0.8777
  187SOL     OW  559   0.348   1.274   0.574  0.6344 -0.7976 -0.9703
  187SOL    HW1  560   0.299   1.231   0.496 -0.4018 -3.2557 -0.0954
  187SOL    HW2  561   0.422   1.209   0.600 -0.7266  2.5262 -1.1439
  188SOL     OW  562   2.056   1.227   0.904  0.1981  0.2690 -0.6608
  188SOL    HW1  563   2.055   1.133   0.944 -0.0233  1.8851 -1.1441
  188SOL    HW2  564   2.098   1.224   0.809 -0.0588  1.5691 -0.8630
  189SOL     OW  565   0.007   1.140   2.653  0.1920 -0.5225 -0.1702
  189SOL    HW1  566   0.029   1.090   2.735 -1.1222 -1.3550 -1.0375
  189SOL    HW2  567   2.998   1.152   2.638  0.0527  3.3634 -0.2573
  190SOL     OW  568   2.293   0.552   2.263 -0.1167  0.7601 -0.1239
  190SOL    HW1  569   2.194   0.546   2.251  0.4033  1.5058  1.6105
  190SOL    HW2  570   2.339   0.461   2.279 -0.0357 -2.4851 -0.1076
  191SOL     OW  571   1.227   0.153   2.192 -0.6442  0.0880 -0.1302
  191SOL    HW1  572   1.239   0.238   2.131  0.3000 -0.5490 -5.2523
  191SOL    HW2  573   1.144   0.101   2.166 -0.0302 -1.1257 -0.5678
  192SOL     OW  574   0.843   1.900   1.610  0.1813  0.0237 -0.3083
  192SOL    HW1  575   0.942   1.899   1.593  0.0424  2.8339  0.7827
  192SOL    HW2  576   0.823   1.931   1.702  0.6459  1.8987 -2.1186
  193SOL     OW  577   1.147   2.942   0.900 -0.0028 -0.0251  0.6640
  193SOL    HW1  578   1.131   2.968   0.996  2.7277  0.3870 -1.6827
  193SOL    HW2  579   1.081   2.869   0.872  1.9937 -1.6019  0.7272
  194SOL     OW  580   0.784   1.948   1.883  0.5665 -0.1524  1.0248
  194SOL    HW1  581   0.694   1.987   1.853  1.8716 -3.4755 -0.3420
  194SOL    HW2  582   0.862   2.009   1.862  0.7455 -0.6539  0.7452
  195SOL     OW  583   1.517   0.188   0.898 -0.3670 -0.0413  0.1873
  195SOL    HW1  584   1.613   0.176   0.862  0.2311  0.5788 -0.7153
  195SOL    HW2  585   1.473   0.270   0.852  2.3046  2.6247 -2.3316
  196SOL     OW  586   1.210   1.564   1.956 -0.5440  0.5016  0.0930
  196SOL    HW1  587   1.168   1.581   2.050  0.2475  1.8471  1.4293
  196SOL    HW2  588   1.214   1.651   1.904 -1.1413 -1.0163 -1.0525
  197SOL     OW  589   0.418   0.404   1.819  0.2386  0.0279  0.1149
  197SOL    HW1  590   0.514   0.420   1.832 -1.7316 -1.4313  1.7638
  197SOL    HW2  591   0.363   0.482   1.858  0.6007  2.7469  1.8595
  198SOL     OW  592   0.673   0.670   0.825 -0.2668  0.5078 -0.2145
  198SOL    HW1  593   0.751   0.610   0.826 -3.6891 -0.3661  0.1864
  198SOL    HW2  594   0.644   0.682   0.728  0.2533 -0.3642  0.3616
  199SOL     OW  595   0.175   2.441   1.667 -0.2666  0.2455 -0.1529
  199SOL    HW1  596   0.163   2.349   1.620  0.7767 -4.2043 -0.3541
  199SOL    HW2  597   0.094   2.501   1.654  0.2742  1.8918 -1.7502
  200SOL     OW  598   1.789   1.407   2.496  0.3041  0.4666  0.5354
  200SOL    HW1  599   1.879   1.438   2.513 -5.7852 -1.5453 -1.7237
  200SOL    HW2  600   1.775   1.306   2.475 -1.2263  0.3737  2.6914
  201SOL     OW  601   0.595   2.346   1.732  0.5891 -0.5680 -0.1531
  201SOL    HW1  602   0.614   2.383   1.638 -3.4201 -0.6973 -0.3304
  201SOL    HW2  603   0.587   2.243   1.732  0.5245  0.3522 -1.7871
  202SOL     OW  604   1.263   2.864   2.974  0.0911 -0.3424 -0.0103
  202SOL    HW1  605   1.223   2.796   2.912  1.9610  0.6913  0.5439
  202SOL    HW2  606   1.186   2.924   3.006  1.5252  0.6528  1.1927
  203SOL     OW  607   1.669   0.409   2.555  0.2530  0.3423 -0.0283
  203SOL    HW1  608   1.753   0.418   2.494  0.5555 -1.2662  1.2316
  203SOL    HW2  609   1.658   0.312   2.591  0.7306  1.5352  4.3999
  204SOL     OW  610   0.756   1.530   1.770 -0.2886 -0.0975  0.4558
  204SOL    HW1  611   0.789   1.540   1.865  2.0221 -0.9492  2.7403
  204SOL    HW2  612   0.721   1.434   1.752  0.9010 -1.4663  0.5408
  205SOL     OW  613   2.039   0.934   2.852  0.1450  0.0075 -0.7077
  205SOL    HW1  614   2.068   0.853   2.795  0.1144 -0.4107  1.9860
  205SOL    HW2  615   2.076   1.021   2.812 -0.4592 -0.5478  2.7915
  206SOL     OW  616   0.342   1.730   2.874  0.0885 -0.0140  0.2125
  206SOL    HW1  617   0.347   1.631   2.849  0.0423  0.9311  0.6360
  206SOL    HW2  618   0.428   1.770   2.914  1.5005 -1.2228 -1.1241
  207SOL     OW  619   0.923   2.788   1.807 -0.1303  0.3407 -0.2448
  207SOL    HW1  620   0.880   2.709   1.856 -0.1191 -1.1118  0.0462
  207SOL    HW2  621   0.845   2.831   1.752  2.0529  0.1401 -3.5582
  208SOL     OW  622   0.593   2.478   1.471  0.2287  0.2748 -0.0471
  208SOL    HW1  623   0.532   2.549   1.431  1.6327 -1.9030 -0.0360
  208SOL    HW2  624   0.650   2.429   1.402  0.2379  1.7578  0.5548
  209SOL     OW  625   1.068   2.893   0.230  0.2711 -0.2390 -0.1642
  209SOL    HW1  626   1.026   2.939   0.305  1.8825 -1.1125 -3.6596
  209SOL    HW2  627   1.063   2.946   0.142  1.9259 -0.6773 -2.8437
  210SOL     OW  628   2.877   1.600   1.744  0.0065  0.0808  0.4946
  210SOL    HW1  629   2.815   1.533   1.789  0.0723  0.1279 -0.9032
  210SOL    HW2  630   2.951   1.551   1.699 -1.3532  0.3522 -1.2457
  211SOL     OW  631   1.029   0.423   1.841 -0.7347  0.3905 -0.4588
  211SOL    HW1  632   0.971   0.502   1.871  0.7221  2.5424  4.7272
  211SOL    HW2  633   1.039   0.421   1.744  0.2522 -0.8849  5.2885
  212SOL     OW  634   1.369   2.190   1.596  0.1367  0.1551 -0.1701
  212SOL    HW1  635   1.389   2.244   1.510 -2.0382 -0.8738 -0.3644
  212SOL    HW2  636   1.370   2.093   1.570 -1.4564  0.4735  2.3677
  213SOL     OW  637   2.380   0.215   1.587 -0.3826 -0.3365  0.0464
  213SOL    HW1  638   2.338   0.142   1.649 -0.0173 -0.0425  3.4321
  213SOL    HW2  639   2.485   0.212   1.585 -0.4202  0.9049 -0.8254
  214SOL     OW  640   1.027   2.037   1.857 -0.2210 -0.0232  0.5329
  214SOL    HW1  641   1.094   1.964   1.860  0.2865 -1.1413 -1.1433
  214SOL    HW2  642   1.068   2.119   1.809  0.9619 -1.1492  2.0019
  215SOL     OW  643   2.793   1.907   1.261  0.5129  0.2781 -0.1003
  215SOL    HW1  644   2.701   1.940   1.288  0.2185  3.3099 -2.1637
  215SOL    HW2  645   2.862   1.926   1.339  0.3812  1.1057  0.9534
  216SOL     OW  646   0.081   0.886   1.535 -0.2733  0.4486  0.5015
  216SOL    HW1  647   0.182   0.893   1.551 -2.2954 -0.1042 -2.0578
  216SOL    HW2  648   0.048   0.802   1.582  0.6961 -0.6196 -2.0707
  217SOL     OW  649   2.552   0.208   1.227 -0.0168  0.4131  0.6035
  217SOL    HW1  650   2.637   0.162   1.252 -1.4593  2.4008  0.9490
  217SOL    HW2  651   2.495   0.230   1.308  0.5260 -2.1102 -1.0222
  218SOL     OW  652   1.054   2.136   1.082  0.2889 -0.4295  0.5001
  218SOL    HW1  653   1.133   2.099   1.030 -0.7722  0.3548 -0.1845
  218SOL    HW2  654   0.975   2.148   1.016  1.9715  0.8214  1.7118
  219SOL     OW  655   1.375   2.335   0.286 -0.4548  0.4727 -0.3797
  219SOL    HW1  656   1.350   2.432   0.283  1.3785  1.1750  3.7702
  219SOL    HW2  657   1.371   2.293   0.382  0.9160 -2.3525  2.0353
  220SOL     OW  658   1.656   2.311   0.249  0.3310 -0.0752  0.2468
  220SOL    HW1  659   1.557   2.327   0.269 -1.8142  2.2288 -1.2318
  220SOL    HW2  660   1.704   2.247   0.311 -0.5697  1.7258 -0.7401
  221SOL     OW  661   2.925   1.969   0.996 -0.1254  0.1758  0.2552
  221SOL    HW1  662   2.854   2.010   0.929  0.2111  0.0452 -2.2983
  221SOL    HW2  663   2.874   1.925   1.071  0.1680 -0.6848 -2.6973
  222SOL     OW  664   0.969   2.258   0.750 -0.0575 -0.0987  0.6254
  222SOL    HW1  665   1.006   2.172   0.714 -0.5914 -1.0680  0.8198
  222SOL    HW2  666   0.878   2.244   0.791  1.5770  2.9618  0.9948
  223SOL     OW  667   1.126   2.640   2.339 -0.1055 -0.1491  0.3325
  223SOL    HW1  668   1.213   2.643   2.288 -3.1874 -1.6463  0.0698
  223SOL    HW2  669   1.064   2.723   2.325 -1.4972  0.8090 -1.7117
  224SOL     OW  670   2.634   1.366   1.026 -0.2285 -0.5333 -0.1314
  224SOL    HW1  671   2.565   1.438   1.010  1.2312 -3.0727  0.9657
  224SOL    HW2  672   2.722   1.401   1.068  1.8815 -1.8620 -0.3015
  225SOL     OW  673   2.264   1.658   0.807 -0.1755 -0.1401 -0.5162
  225SOL    HW1  674   2.247   1.757   0.786  1.6913  0.4947 -0.1631
  225SOL    HW2  675   2.296   1.607   0.723 -0.6248  0.9215 -0.3020
  226SOL     OW  676   1.145   2.610   0.641  0.6855 -0.0440 -0.0896
  226SOL    HW1  677   1.240   2.641   0.654  0.4321 -0.5251 -3.3269
  226SOL    HW2  678   1.140   2.529   0.580  1.9610  2.4114 -1.6580
  227SOL     OW  679   1.149   1.287   1.273  0.1490 -0.0431 -0.3710
  227SOL    HW1  680   1.107   1.255   1.363  0.6237 -0.8095  0.4487
  227SOL    HW2  681   1.187   1.210   1.220  2.6497 -0.9803 -3.2238
  228SOL     OW  682   1.239   0.512   2.229  0.0325  0.7321 -0.0488
  228SOL    HW1  683   1.327   0.559   2.226  3.2850  0.8987  1.2513
  228SOL    HW2  684   1.241   0.447   2.148  1.6704 -2.2594 -1.2353
  229SOL     OW  685   2.460   0.907   2.997  0.0902  0.1882 -0.2083
  229SOL    HW1  686   2.505   0.928   2.908 -0.1475  0.6358 -2.2756
  229SOL    HW2  687   2.402   0.820   2.997  0.3043 -2.1252  1.9677
  230SOL     OW  688   1.072   1.265   0.659 -0.8694 -0.0133  0.0135
  230SOL    HW1  689   1.171   1.295   0.659  1.6843  0.6640  2.5608
  230SOL    HW2  690   1.053   1.218   0.747 -1.2611  1.5570  2.9292
  231SOL     OW  691   2.351   2.994   2.339  0.1287  0.1911 -0.4567
  231SOL    HW1  692   2.422   2.967   2.406 -0.4149  1.9778 -3.0569
  231SOL    HW2  693   2.303   3.084   2.369  2.6218  0.4682  1.8621
  232SOL     OW  694   0.522   2.029   0.114  0.2470  0.4363  0.6289
  232SOL    HW1  695   0.533   2.060   0.209  3.3733  0.1399 -0.6021
  232SOL    HW2  696   0.462   2.094   0.063 -0.0197 -1.2831  0.1678
  233SOL     OW  697   1.552   2.516   2.504  0.0223  0.2953 -0.0208
  233SOL    HW1  698   1.499   2.526   2.420 -1.3297  1.9382  1.0453
  233SOL    HW2  699   1.604   2.432   2.503  0.7095  1.2395  1.4046
  234SOL     OW  700   1.204   1.294   1.906  0.1123  0.3348 -0.1416
  234SOL    HW1  701   1.182   1.394   1.899  0.9782  0.1474 -0.1327
  234SOL    HW2  702   1.146   1.253   1.979  0.6170 -1.1950 -1.8250
  235SOL     OW  703   0.559   2.073   1.740 -0.3630 -0.2065 -0.0886
  235SOL    HW1  704   0.533   2.070   1.837 -1.5546  2.8494  0.2384
  235SOL    HW2  705   0.484   2.046   1.675 -0.2500 -1.2754 -0.9852
  236SOL     OW  706   2.054   2.577   2.591  0.2791  0.2152 -0.1127
  236SOL    HW1  707   1.980   2.506   2.598 -2.5084  0.5996  0.8959
  236SOL    HW2  708   2.014   2.669   2.579  0.6006  1.7377  1.1787
  237SOL     OW  709   1.425   2.929   0.888  0.2194 -0.0727 -0.0396
  237SOL    HW1  710   1.326   2.948   0.873  2.5091  1.0508  1.1578
  237SOL    HW2  711   1.469   2.995   0.954  0.1855  0.5179  1.3322
  238SOL     OW  712   1.085   0.674   2.861 -0.5404  0.0571 -0.2110
  238SOL    HW1  713   1.132   0.666   2.956  0.8181  1.2818  0.4910
  238SOL    HW2  714   1.083   0.774   2.835  0.1983 -0.9313  0.1993
  239SOL     OW  715   0.768   3.063   2.066 -0.2151 -0.0298 -0.2181
  239SOL    HW1  716   0.702   2.994   2.032  1.1539 -2.2610  0.5676
  239SOL    HW2  717   0.775   0.047   2.000  1.5335  1.2143  1.1507
  240SOL     OW  718   2.025   2.609   0.600 -0.3852 -0.0179 -0.0871
  240SOL    HW1  719   1.971   2.587   0.681 -0.1498 -1.2193 -0.4574
  240SOL    HW2  720   2.001   2.698   0.557 -0.6356  1.1258 -1.1975
  241SOL     OW  721   0.972   1.660   1.366 -0.0263 -0.3301  0.0186
  241SOL    HW1  722   0.975   1.616   1.457  1.8701  0.9991 -0.4751
  241SOL    HW2  723   0.990   1.761   1.371  1.9600 -1.8028  0.8628
  242SOL     OW  724   0.201   0.637   1.000  0.2531  0.1627 -0.3009
  242SOL    HW1  725   0.110   0.686   1.007 -0.3656 -0.2753 -1.1314
  242SOL    HW2  726   0.242   0.657   0.908 -0.3639 -0.9989 -1.2568
  243SOL     OW  727   0.669   0.662   1.651 -0.0830  0.4270 -0.2152
  243SOL    HW1  728   0.597   0.673   1.581  0.1500 -1.2365  0.9210
  243SOL    HW2  729   0.640   0.607   1.733 -1.6171 -1.5792  0.1907
  244SOL     OW  730   1.352   0.462   0.290 -0.2998  0.3758 -0.1833
  244SOL    HW1  731   1.292   0.519   0.352  0.5603 -0.2740 -1.0606
  244SOL    HW2  732   1.410   0.507   0.220 -0.2327  0.6393 -1.8053
  245SOL     OW  733   2.107   0.309   0.079  0.3544  0.1990  0.0859
  245SOL    HW1  734   2.120   0.225   0.142  1.5155 -3.3249 -0.3738
  245SOL    HW2  735   2.160   0.392   0.112  0.9299  1.7305 -0.0924
  246SOL     OW  736   0.694   0.842   1.957  0.1393  0.4570 -0.1495
  246SOL    HW1  737   0.603   0.836   1.915  1.2727 -2.7780  3.1004
  246SOL    HW2  738   0.767   0.832   1.887 -2.7570 -0.9596  1.2284
  247SOL     OW  739   0.403   3.045   2.163  0.2075 -0.8120  0.4936
  247SOL    HW1  740   0.408   0.030   2.091 -1.3345  0.3698  0.3572
  247SOL    HW2  741   0.459   3.066   2.247  0.9201  2.1139 -0.2248
  248SOL     OW  742   0.093   1.438   1.936  0.6293  0.5182  0.3903
  248SOL    HW1  743   0.091   1.537   1.952  1.2786  1.0178 -0.4204
  248SOL    HW2  744   0.186   1.398   1.950 -0.3626  2.8654 -0.2615
  249SOL     OW  745   0.079   0.074   2.647  0.6548 -0.3315  0.3824
  249SOL    HW1  746   0.160   0.135   2.641 -0.6702  2.1605 -0.9929
  249SOL    HW2  747   0.115   3.073   2.624 -2.5157  0.5652 -3.2025
  250SOL     OW  748   2.983   2.913   3.002  0.2634 -0.3322 -0.0844
  250SOL    HW1  749   3.004   3.015   2.996  0.3704  2.5490  1.7090
  250SOL    HW2  750   3.041   2.861   2.937 -0.2995 -0.0119  1.0430
  251SOL     OW  751   0.266   1.390   1.069  0.2560  0.0126  0.0848
  251SOL    HW1  752   0.183   1.386   1.008 -1.9786 -1.2915 -3.1056
  251SOL    HW2  753   0.338   1.328   1.037 -0.1852  0.6425 -0.7875
  252SOL     OW  754   1.650   2.851   2.057  0.4279 -0.2547 -0.4034
  252SOL    HW1  755   1.590   2.931   2.086 -1.8562  4.2114 -0.2625
  252SOL    HW2  756   1.721   2.816   2.123 -0.6838  0.3205  1.2023
  253SOL     OW  757   1.971   1.976   2.536 -0.0669 -0.0273  0.0532
  253SOL    HW1  758   2.018   2.067   2.538  1.3374 -3.6412  1.9023
  253SOL    HW2  759   1.879   1.985   2.571  0.1515 -0.2088  1.4084
  254SOL     OW  760   0.497   1.494   1.989  0.2243  0.0313 -0.0077
  254SOL    HW1  761   0.600   1.505   1.981 -1.3518 -0.1102  0.9501
  254SOL    HW2  762   0.461   1.548   2.062  1.2616 -1.4520 -1.4293
  255SOL     OW  763   1.126   0.265   1.540 -0.0419 -0.0444 -0.8379
  255SOL    HW1  764   1.175   0.208   1.606 -2.2670 -1.7971 -1.5195
  255SOL    HW2  765   1.136   0.363   1.564  0.9252  0.2716 -3.9944
  256SOL     OW  766   2.930   2.390   1.171 -0.2010 -0.0194 -0.3418
  256SOL    HW1  767   2.978   2.477   1.139  1.5741 -0.4105  0.1926
  256SOL    HW2  768   2.838   2.385   1.124  1.1645  1.6553 -2.5094
  257SOL     OW  769   0.478   2.568   3.062  0.1420 -0.1856  0.3271
  257SOL    HW1  770   0.546   2.641   3.076  0.6725 -1.2297 -1.0987
  257SOL    HW2  771   0.506   2.484   0.021  0.0721 -1.5867  2.1066
  258SOL     OW  772   1.103   2.038   2.330 -0.1054 -0.2690  0.2294
  258SOL    HW1  773   1.028   2.031   2.261  0.6189  2.1190  3.2144
  258SOL    HW2  774   1.068   2.066   2.419 -0.5251 -1.1023 -1.6164
  259SOL     OW  775   0.888   1.762   2.726 -0.2241 -0.4725  0.5843
  259SOL    HW1  776   0.878   1.859   2.696  0.1576 -2.6337 -1.7999
  259SOL    HW2  777   0.879   1.752   2.829  2.1084  0.0886  5.5658
  260SOL     OW  778   2.445   0.780   2.316 -0.3118 -0.0370  0.1994
  260SOL    HW1  779   2.372   0.831   2.370 -1.1313 -1.1102 -0.8210
  260SOL    HW2  780   2.407   0.686   2.291 -3.5318 -1.8455 -0.0942
  261SOL     OW  781   1.129   0.745   0.820 -0.3059  0.5760 -0.2877
  261SOL    HW1  782   1.070   0.676   0.866  0.2534  1.8811 -0.0627
  261SOL    HW2  783   1.141   0.824   0.882 -0.9840  0.3741 -1.4904
  262SOL     OW  784   1.905   2.378   2.324 -0.0741 -0.1186  0.6154
  262SOL    HW1  785   1.824   2.379   2.388 -0.6381 -0.8823 -0.1771
  262SOL    HW2  786   1.915   2.465   2.275  0.0497 -1.1961  0.2345
  263SOL     OW  787   0.262   2.010   0.471 -0.5387  0.4202  0.0952
  263SOL    HW1  788   0.214   1.993   0.386 -1.5487  1.2017  2.0160
  263SOL    HW2  789   0.359   2.036   0.454  3.8159  2.4215 -0.2967
  264SOL     OW  790   0.201   2.129   0.808 -0.0064  0.3243  0.3737
  264SOL    HW1  791   0.275   2.086   0.757 -3.0738  0.5376  0.8130
  264SOL    HW2  792   0.173   2.075   0.893  3.0406  0.0984  0.5704
  265SOL     OW  793   0.637   1.311   0.383  0.2682  0.6802 -0.4220
  265SOL    HW1  794   0.636   1.304   0.486  1.6452 -0.8266 -1.2445
  265SOL    HW2  795   0.722   1.264   0.348 -3.1562 -3.2569  0.8735
  266SOL     OW  796   0.723   2.003   2.278 -0.2458 -0.0219  0.1687
  266SOL    HW1  797   0.663   2.087   2.276 -0.6152 -1.2080  1.0720
  266SOL    HW2  798   0.811   2.029   2.230  2.3821  0.2730 -0.3467
  267SOL     OW  799   1.187   0.638   2.470 -0.2344  0.4444  0.6859
  267SOL    HW1  800   1.169   0.574   2.547 -0.0690  0.4262  2.2335
  267SOL    HW2  801   1.207   0.594   2.379  0.2089  1.4986  1.4923
  268SOL     OW  802   0.593   0.953   3.007 -0.1643 -0.3909 -0.2772
  268SOL    HW1  803   0.517   0.889   2.980 -0.4255 -0.7696  1.5984
  268SOL    HW2  804   0.564   1.007   3.088 -0.3222  0.6036 -0.1912
  269SOL     OW  805   2.317   2.424   2.232  0.3589 -0.1779  0.0147
  269SOL    HW1  806   2.238   2.433   2.170  1.6007  0.1566  1.0068
  269SOL    HW2  807   2.301   2.460   2.328 -3.5696  0.5916 -2.6959
  270SOL     OW  808   1.573   1.475   2.673 -0.5365 -0.2633 -0.2324
  270SOL    HW1  809   1.504   1.526   2.616 -0.6124  0.0261  2.2711
  270SOL    HW2  810   1.657   1.440   2.621 -0.7601 -0.2164 -0.5073
  271SOL     OW  811   0.242   0.013   3.075  0.5867  0.3365  0.1971
  271SOL    HW1  812   0.270   3.019   3.027 -2.3435  0.2346  3.5291
  271SOL    HW2  813   0.154   0.048   3.032 -1.0887  1.9383 -0.5215
  272SOL     OW  814   2.783   0.656   0.440 -0.1995  0.5977 -0.8447
  272SOL    HW1  815   2.810   0.594   0.518  0.7799  0.6367  0.1798
  272SOL    HW2  816   2.680   0.672   0.446 -0.4190  1.5824  1.5372
  273SOL     OW  817   0.544   2.893   1.965  0.2716  0.1890  0.6989
  273SOL    HW1  818   0.493   2.964   2.022  0.1847  0.7299  1.4508
  273SOL    HW2  819   0.491   2.849   1.891 -0.0382  0.0124 -0.2810
  274SOL     OW  820   0.231   0.619   1.886 -0.1968  0.4395 -0.2247
  274SOL    HW1  821   0.193   0.661   1.966 -0.4128 -0.0667 -2.3269
  274SOL    HW2  822   0.164   0.628   1.812  3.0222  1.4359  1.8805
  275SOL     OW  823   0.965   1.599   0.583 -0.4786 -0.1405  0.4587
  275SOL    HW1  824   0.951   1.520   0.520  0.1019 -0.1667 -0.1805
  275SOL    HW2  825   1.062   1.629   0.576 -0.7410  0.5960 -1.8037
  276SOL     OW  826   0.932   0.637   2.002 -0.2164  0.2439 -0.2746
  276SOL    HW1  827   0.853   0.697   1.999  1.7815 -1.2354  1.4913
  276SOL    HW2  828   0.935   0.584   2.091  2.1318 -0.7789  0.7136
  277SOL     OW  829   1.287   2.492   1.820 -0.6279  0.1473  0.3020
  277SOL    HW1  830   1.192   2.483   1.770  0.8996  0.0373 -1.8538
  277SOL    HW2  831   1.295   2.423   1.896 -1.8302  1.1640 -2.2934
  278SOL     OW  832   1.838   2.855   1.866  0.0193  0.4648 -0.4486
  278SOL    HW1  833   1.758   2.853   1.930 -1.0820 -0.4763  0.3153
  278SOL    HW2  834   1.926   2.873   1.920  2.6699 -1.3846  0.2268
  279SOL     OW  835   1.363   1.409   0.271 -0.5207 -0.5603 -0.4539
  279SOL    HW1  836   1.368   1.470   0.180  0.1605  1.1188 -4.3724
  279SOL    HW2  837   1.418   1.322   0.260  0.8242 -1.0151 -0.2751
  280SOL     OW  838   1.085   1.233   0.078 -0.4751 -0.1870  0.0854
  280SOL    HW1  839   1.079   1.322   0.023  1.2168  0.0225 -1.3451
  280SOL    HW2  840   1.067   1.154   0.019 -0.7576  0.5629  0.3289
  281SOL     OW  841   0.482   0.130   1.553 -0.6751  0.3414 -0.0381
  281SOL    HW1  842   0.529   0.125   1.644 -0.2680 -0.1479 -0.6826
  281SOL    HW2  843   0.514   0.209   1.502 -0.8266 -1.7079  3.2623
  282SOL     OW  844   0.227   2.478   0.576  0.6784  0.2656 -0.2617
  282SOL    HW1  845   0.158   2.549   0.589  2.5418  1.4588  1.0957
  282SOL    HW2  846   0.189   2.384   0.547  0.3227  1.5353 -1.9608
  283SOL     OW  847   1.545   2.131   2.275  0.2611 -0.1079 -0.6575
  283SOL    HW1  848   1.623   2.139   2.211  0.8030  0.4482  0.0935
  283SOL    HW2  849   1.515   2.033   2.264 -0.8836 -0.3372 -1.7436
  284SOL     OW  850   2.123   2.894   0.794 -0.5347  0.1392 -0.2193
  284SOL    HW1  851   2.057   2.971   0.773  0.5780 -0.6972  0.9355
  284SOL    HW2  852   2.105   2.846   0.884  0.4013 -0.7558 -0.0969
  285SOL     OW  853   0.445   2.318   2.465  0.4939 -0.4564  0.0593
  285SOL    HW1  854   0.488   2.240   2.409  0.3365 -2.5769 -0.7953
  285SOL    HW2  855   0.464   2.404   2.419  1.2225 -2.1853 -1.6867
  286SOL     OW  856   3.027   2.780   0.788 -0.1440 -0.7844 -0.0641
  286SOL    HW1  857   2.935   2.819   0.800 -1.2140  1.7172  2.2802
  286SOL    HW2  858   3.052   2.734   0.876 -1.0052  0.8049 -3.3660
  287SOL     OW  859   0.679   1.324   0.639  0.8935  0.0258 -0.6458
  287SOL    HW1  860   0.746   1.381   0.696  0.9410  0.7511  2.8884
  287SOL    HW2  861   0.705   1.228   0.650  1.7423  0.3699 -0.1429
  288SOL     OW  862   2.276   2.191   2.625  0.6931  0.1851 -0.1174
  288SOL    HW1  863   2.328   2.121   2.580  0.2044  1.9485  0.9674
  288SOL    HW2  864   2.191   2.222   2.575 -2.0255  0.5162  0.2896
  289SOL     OW  865   3.016   2.214   2.878  0.0139  0.1460  0.2556
  289SOL    HW1  866   3.071   2.260   2.946  0.9316 -2.0572 -2.6488
  289SOL    HW2  867   2.942   2.153   2.919 -0.2686  1.6956  0.8806
  290SOL     OW  868   1.319   1.783   1.286  0.6609 -0.2169  0.1107
  290SOL    HW1  869   1.397   1.804   1.219  1.9318  2.6124 -0.3783
  290SOL    HW2  870   1.234   1.842   1.264 -1.0991  0.8198  0.3600
  291SOL     OW  871   1.474   1.152   3.004 -0.0584 -0.2657  0.0958
  291SOL    HW1  872   1.420   1.226   2.959  0.2734  0.7035 -0.1599
  291SOL    HW2  873   1.411   1.072   3.005  2.0487 -2.7731  0.2135
  292SOL     OW  874   1.111   1.565   0.287 -0.1250  0.6252 -0.1976
  292SOL    HW1  875   1.054   1.493   0.336 -2.6485  0.9188 -2.5191
  292SOL    HW2  876   1.208   1.532   0.270 -0.2301  0.3558 -1.3507
  293SOL     OW  877   1.454   2.709   1.063  0.6644 -0.1085  0.1879
  293SOL    HW1  878   1.419   2.723   1.155  3.1253  0.5131 -2.5690
  293SOL    HW2  879   1.451   2.793   1.009 -1.7937 -0.2825  4.2065
  294SOL     OW  880   2.227   1.379   2.829 -0.0850 -0.0098 -0.2248
  294SOL    HW1  881   2.319   1.347   2.850 -3.0509 -2.4289  0.6988
  294SOL    HW2  882   2.187   1.397   2.920 -0.5009  0.1727 -1.2594
  295SOL     OW  883   1.819   1.797   2.921 -0.4038 -0.2442 -0.3712
  295SOL    HW1  884   1.747   1.763   2.981 -0.5059  2.1394 -2.2645
  295SOL    HW2  885   1.811   1.899   2.915  1.3556 -2.0988 -0.3729
  296SOL     OW  886   1.763   0.546   1.941  0.0738 -0.7016 -0.7988
  296SOL    HW1  887   1.779   0.589   1.851 -2.2879  2.5582  0.0689
  296SOL    HW2  888   1.817   0.598   2.009 -0.6147  0.7523 -0.0252
  297SOL     OW  889   3.051   0.772   1.988 -0.0387 -0.2343  0.0388
  297SOL    HW1  890   2.946   0.769   1.973 -2.0041 -0.5569  0.1683
  297SOL    HW2  891   3.086   0.864   2.019  0.3720 -0.9055 -0.2945
  298SOL     OW  892   1.208   1.894   2.035 -0.2205  0.1095 -0.3816
  298SOL    HW1  893   1.288   1.860   1.978 -0.4469 -2.1241  0.6079
  298SOL    HW2  894   1.238   1.978   2.085  0.3823  3.3460 -1.5264
  299SOL     OW  895   1.236   0.063   2.604  0.0815  0.3280  0.2685
  299SOL    HW1  896   1.242   0.146   2.547 -1.3453 -1.8853  0.3565
  299SOL    HW2  897   1.185   3.082   2.554  0.6222 -0.6124 -0.3451
  300SOL     OW  898   0.081   0.962   2.876  0.0293  0.4430 -0.4002
  300SOL    HW1  899   0.030   0.881   2.913 -1.7803 -0.2771  0.3240
  300SOL    HW2  900   0.164   0.979   2.933  0.8325 -0.9137  0.6079
  301SOL     OW  901   1.804   0.728   2.621  0.1900 -0.2253 -0.1622
  301SOL    HW1  902   1.743   0.670   2.680 -0.5769 -1.5919  1.0510
  301SOL    HW2  903   1.751   0.817   2.597 -1.3845  3.0056 -0.8774
  302SOL     OW  904   2.694   1.770   2.604  0.0905 -0.2722 -0.4827
  302SOL    HW1  905   2.709   1.722   2.517  2.3052 -2.1466  2.3232
  302SOL    HW2  906   2.656   1.865   2.590 -0.6360 -1.0679 -0.7618
  303SOL     OW  907   0.437   2.209   2.742 -0.1182  0.0016 -0.1379
  303SOL    HW1  908   0.464   2.261   2.657 -1.1359 -0.0588 -1.8435
  303SOL    HW2  909   0.350   2.157   2.720 -2.7740  0.8325 -2.3089
  304SOL     OW  910   3.031   1.262   1.447  0.5045 -0.0132  0.2273
  304SOL    HW1  911   3.066   1.240   1.354 -0.0198  2.8435 -1.3520
  304SOL    HW2  912   3.015   1.176   1.503  1.7932  0.8035  1.7144
  305SOL     OW  913   2.337   0.625   2.003  0.1089  0.3480  0.1824
  305SOL    HW1  914   2.306   0.541   1.951  0.6323 -1.2651  3.4784
  305SOL    HW2  915   2.335   0.607   2.102  1.2402  0.1028  0.3905
  306SOL     OW  916   2.068   1.191   1.732  0.4173 -0.4563 -0.5458
  306SOL    HW1  917   2.034   1.256   1.657 -1.7551 -1.9600 -1.6436
  306SOL    HW2  918   1.993   1.171   1.796 -0.1463  1.1872 -2.5385
  307SOL     OW  919   2.665   2.970   1.071  0.2544 -0.0639 -0.2283
  307SOL    HW1  920   2.569   2.957   1.077 -2.1116  0.1449  1.1169
  307SOL    HW2  921   2.695   3.039   1.140  0.7654 -1.0099 -0.1014
  308SOL     OW  922   0.194   1.777   1.741  0.4180  0.5230 -0.5649
  308SOL    HW1  923   0.168   1.782   1.840 -0.0813  0.5677  0.2279
  308SOL    HW2  924   0.268   1.709   1.742  0.0197  0.0969 -1.3193
  309SOL     OW  925   2.439   2.384   1.637  0.0771  0.5114 -0.1327
  309SOL    HW1  926   2.485   2.329   1.710  0.5241  0.5170 -1.0080
  309SOL    HW2  927   2.350   2.346   1.612  0.1294  0.2885 -0.0592
  310SOL     OW  928   2.283   1.526   2.594  0.4148  0.1938 -0.5317
  310SOL    HW1  929   2.262   1.624   2.611 -1.2135 -2.1487 -3.6230
  310SOL    HW2  930   2.268   1.481   2.682  0.4866  2.8735 -2.9430
  311SOL     OW  931   1.718   1.234   2.963 -0.3209 -0.1288 -0.1865
  311SOL    HW1  932   1.625   1.219   2.980  3.3253  1.8040 -1.3439
  311SOL    HW2  933   1.757   1.157   2.907  1.9422 -0.0150 -1.2669
  312SOL     OW  934   1.302   2.150   2.174 -0.1069 -0.0269  0.3112
  312SOL    HW1  935   1.397   2.134   2.205 -1.9800 -0.5778 -0.0116
  312SOL    HW2  936   1.230   2.110   2.235  0.4322  1.9656  1.3561
  313SOL     OW  937   0.223   0.210   0.996 -0.1938 -0.1245 -0.4374
  313SOL    HW1  938   0.151   0.199   0.923 -0.2991 -1.1011 -0.4022
  313SOL    HW2  939   0.177   0.253   1.078 -0.3198  0.1604 -1.3798
  314SOL     OW  940   0.453   1.886   0.990  0.8350  0.3187 -0.1326
  314SOL    HW1  941   0.394   1.943   1.053 -1.0856  0.8820 -0.5631
  314SOL    HW2  942   0.428   1.789   1.003 -0.7070 -0.0498  0.7886
  315SOL     OW  943   0.500   2.043   2.003  0.0434 -0.1153  0.6580
  315SOL    HW1  944   0.503   1.949   2.042 -0.3657  0.3850 -2.5770
  315SOL    HW2  945   0.411   2.089   2.012 -0.6267  1.4960  0.6790
  316SOL     OW  946   0.277   2.373   0.854 -0.3769 -0.3271  0.4658
  316SOL    HW1  947   0.253   2.276   0.829  1.9511 -1.9773  1.0938
  316SOL    HW2  948   0.263   2.428   0.768 -2.8271 -0.6471  0.5594
  317SOL     OW  949   2.141   3.090   1.076  0.3616  0.6215  0.2428
  317SOL    HW1  950   2.099   0.032   0.985  0.5937 -0.3170  0.9698
  317SOL    HW2  951   2.157   0.072   1.143  1.2144  0.2317 -0.9305
  318SOL     OW  952   2.260   2.358   0.293 -0.2789 -0.2075 -0.2128
  318SOL    HW1  953   2.285   2.273   0.245  0.6625  1.2776  2.7373
  318SOL    HW2  954   2.344   2.419   0.308  2.7153  0.7579  0.4013
  319SOL     OW  955   1.296   1.640   2.804  0.0207  0.0210  0.6781
  319SOL    HW1  956   1.268   1.739   2.818  1.0432  1.4288  0.9038
  319SOL    HW2  957   1.380   1.633   2.854 -0.5704  2.4653 -2.1133
  320SOL     OW  958   0.450   2.559   2.369 -0.4836 -0.2860  0.1841
  320SOL    HW1  959   0.527   2.627   2.388  1.4863 -1.3297  3.2043
  320SOL    HW2  960   0.404   2.589   2.283  0.8155  4.3342 -1.4091
  321SOL     OW  961   0.874   2.442   2.863 -0.7159 -0.4969  0.0137
  321SOL    HW1  962   0.930   2.414   2.785  0.4866 -1.3347 -0.2646
  321SOL    HW2  963   0.887   2.376   2.936  0.5766  1.5495 -1.4327
  322SOL     OW  964   2.427   0.313   2.296 -0.4404  0.7849  0.1484
  322SOL    HW1  965   2.426   0.289   2.398  0.4499  0.7503  2.3893
  322SOL    HW2  966   2.524   0.340   2.269  0.0414 -2.5087 -1.4350
  323SOL     OW  967   2.846   1.368   0.821  0.2823  0.2722  0.0750
  323SOL    HW1  968   2.755   1.356   0.867  2.1626  1.7065  0.0858
  323SOL    HW2  969   2.906   1.285   0.836  0.9606 -0.6397 -0.3488
  324SOL     OW  970   0.420   0.815   1.858  0.0710  0.1836 -0.2032
  324SOL    HW1  971   0.351   0.739   1.868 -0.8672  0.1764  1.4636
  324SOL    HW2  972   0.416   0.843   1.760  0.6561 -1.6409 -0.3773
  325SOL     OW  973   0.438   0.175   2.022  0.0136 -0.1010  0.3453
  325SOL    HW1  974   0.449   0.237   1.943  1.7650  1.2376  1.4934
  325SOL    HW2  975   0.412   0.228   2.106  1.3853  0.3978 -0.0912
  326SOL     OW  976   2.105   2.419   0.089 -0.4029 -0.4859 -0.2402
  326SOL    HW1  977   2.011   2.456   0.111 -0.3844  2.5490  0.5729
  326SOL    HW2  978   2.157   2.393   0.172 -0.0082  1.2610  2.1354
  327SOL     OW  979   2.168   1.327   0.325 -0.4755 -0.3753  0.3927
  327SOL    HW1  980   2.252   1.382   0.338  0.2530  2.6743 -0.5096
  327SOL    HW2  981   2.178   1.266   0.245 -3.9118 -3.5629 -2.7294
  328SOL     OW  982   2.996   1.831   2.554 -0.6631  0.2353 -0.0708
  328SOL    HW1  983   2.947   1.796   2.630 -0.2812  1.6556 -0.9417
  328SOL    HW2  984   0.004   1.835   2.573  0.0274 -0.1570 -2.0300
  329SOL     OW  985   0.452   1.949   1.432 -0.1598 -0.1483 -0.1664
  329SOL    HW1  986   0.402   1.965   1.343 -2.0320 -1.7750 -1.9459
  329SOL    HW2  987   0.389   1.963   1.514 -4.8136 -0.0403 -2.5084
  330SOL     OW  988   2.454   1.339   2.504 -0.1024 -0.0435 -0.0877
  330SOL    HW1  989   2.401   1.405   2.565 -0.9235 -0.2964  0.5972
  330SOL    HW2  990   2.399   1.251   2.488 -1.4398  0.4716 -1.8967
  331SOL     OW  991   2.248   2.615   0.921  0.0005 -0.3330 -0.2732
  331SOL    HW1  992   2.158   2.651   0.947 -0.0094  0.2587 -0.8919
  331SOL    HW2  993   2.255   2.602   0.821 -1.7479  4.4927 -0.5269
  332SOL     OW  994   0.338   2.871   0.640  0.1932 -0.0079 -0.2089
  332SOL    HW1  995   0.273   2.932   0.690 -1.6398 -0.0450  0.1356
  332SOL    HW2  996   0.375   2.799   0.703 -0.3626  2.8390  0.2597
  333SOL     OW  997   2.029   2.242   2.511 -0.1677  0.4005 -0.1328
  333SOL    HW1  998   1.997   2.283   2.428  1.3585  2.3551  2.4601
  333SOL    HW2  999   2.003   2.301   2.591  2.2434  1.5230 -2.0723
  334SOL     OW 1000   0.501   1.050   0.622 -0.4369 -0.0357 -0.2747
  334SOL    HW1 1001   0.478   1.001   0.710  1.9299  2.0375 -0.2910
  334SOL    HW2 1002   0.600   1.034   0.601  1.7302 -1.1832  0.8052
  335SOL     OW 1003   2.843   1.975   2.375  0.1002  0.8218  0.4618
  335SOL    HW1 1004   2.900   1.937   2.452 -3.9434 -0.2894 -2.1375
  335SOL    HW2 1005   2.776   1.903   2.343  3.2319  0.6300  0.1564
  336SOL     OW 1006   2.383   2.939   2.077  0.3764 -0.3493  0.0906
  336SOL    HW1 1007   2.369   2.966   2.177 -0.9509 -0.9276  1.2392
  336SOL    HW2 1008   2.350   2.844   2.062 -1.9103 -1.0578  0.2981
  337SOL     OW 1009   0.934   1.083   0.915 -0.2758 -0.4199  0.0671
  337SOL    HW1 1010   1.029   1.053   0.929 -0.3631  0.1399  2.8152
  337SOL    HW2 1011   0.931   1.183   0.939 -1.8783 -1.7158 -1.2251
  338SOL     OW 1012   1.070   1.757   1.021  0.0214  0.0818 -0.2086
  338SOL    HW1 1013   1.102   1.663   1.033  0.6490  2.1047 -0.5677
  338SOL    HW2 1014   0.969   1.748   1.011 -1.4352  0.2241  1.6475
  339SOL     OW 1015   0.177   1.689   1.471  0.1122 -0.7403  0.4451
  339SOL    HW1 1016   0.210   1.714   1.562  0.2507 -1.8840 -1.3639
  339SOL    HW2 1017   0.219   1.609   1.425 -0.1439 -1.8547  1.7083
  340SOL     OW 1018   1.152   2.852   1.671  0.1642  0.1592  0.3383
  340SOL    HW1 1019   1.130   2.943   1.626  0.3214  0.2387 -0.9926
  340SOL    HW2 1020   1.070   2.817   1.721 -0.5433 -0.8912  0.6662
  341SOL     OW 1021   1.519   1.830   1.108 -0.4055 -0.2632 -0.5516
  341SOL    HW1 1022   1.547   1.884   1.026  0.5036 -0.5611 -1.1287
  341SOL    HW2 1023   1.577   1.856   1.187 -0.7085  1.0665  0.8643
  342SOL     OW 1024   2.473   1.594   0.950 -0.3854  0.5139  0.1058
  342SOL    HW1 1025   2.560   1.618   0.893  2.7429  0.5298  0.6543
  342SOL    HW2 1026   2.385   1.623   0.906  1.1644  0.0009  1.9591
  343SOL     OW 1027   2.475   0.502   1.310  0.4261 -0.2097 -0.3346
  343SOL    HW1 1028   2.500   0.490   1.411  0.5744 -3.4230 -0.2525
  343SOL    HW2 1029   2.557   0.534   1.258 -0.4555 -0.2410 -0.0721
  344SOL     OW 1030   2.091   0.083   0.824  0.1665  0.3157 -0.0723
  344SOL    HW1 1031   2.038   0.089   0.734 -3.0134  1.4113 -0.5757
  344SOL    HW2 1032   2.158   0.158   0.840 -1.1775  0.0821  1.2688
  345SOL     OW 1033   0.696   2.934   2.284  0.7113 -0.0206 -0.6929
  345SOL    HW1 1034   0.614   2.977   2.328  3.2327 -1.5102  0.3270
  345SOL    HW2 1035   0.714   2.986   2.198  2.2902 -0.7705 -0.8588
  346SOL     OW 1036   2.770   2.160   0.847  0.2259 -0.6245 -0.0573
  346SOL    HW1 1037   2.754   2.241   0.911 -0.5321  3.2219  0.5143
  346SOL    HW2 1038   2.688   2.127   0.799  1.9671  2.6351 -0.0793
  347SOL     OW 1039   2.045   0.073   1.558  0.1264 -0.9065  0.4073
  347SOL    HW1 1040   2.008   0.120   1.474  0.7959  1.3171 -1.4948
  347SOL    HW2 1041   1.971   0.026   1.609 -1.1766 -1.7978 -1.5113
  348SOL     OW 1042   1.045   1.203   1.488 -0.0838  0.1925 -0.2375
  348SOL    HW1 1043   1.010   1.106   1.476 -2.1134  1.1477 -1.3380
  348SOL    HW2 1044   0.959   1.262   1.505 -0.0475 -0.5965  0.3058
  349SOL     OW 1045   2.122   0.554   1.688 -0.3650 -0.1586 -0.1128
  349SOL    HW1 1046   2.045   0.613   1.719  0.4992  2.5687  0.7494
  349SOL    HW2 1047   2.173   0.490   1.759  0.9437 -1.3628  1.4977
  350SOL     OW 1048   2.035   2.363   0.456  0.2006  0.2162 -0.3506
  350SOL    HW1 1049   2.033   2.457   0.498 -1.7266 -0.1859  2.0129
  350SOL    HW2 1050   2.116   2.343   0.395  0.5056 -1.6332 -1.1559
  351SOL     OW 1051   1.078   0.478   2.689 -0.1749 -0.1777  0.2754
  351SOL    HW1 1052   1.064   0.387   2.735 -0.6769  1.9273 -1.9783
  351SOL    HW2 1053   1.085   0.557   2.750 -1.2111 -1.0923 -2.7649
  352SOL     OW 1054   2.091   2.495   1.962  0.2862 -0.1921  0.3459
  352SOL    HW1 1055   2.089   2.395   1.943 -0.6418  2.0371  1.3433
  352SOL    HW2 1056   2.041   2.540   1.886 -2.8213  0.7488 -1.9221
  353SOL     OW 1057   0.543   0.890   2.193 -0.5482  0.2601 -0.5654
  353SOL    HW1 1058   0.453   0.914   2.156 -1.0469 -0.9883  1.4422
  353SOL    HW2 1059   0.608   0.857   2.125 -0.3834  0.5756  1.6407
  354SOL     OW 1060   0.327   2.696   2.579  0.3850  0.0807  0.1317
  354SOL    HW1 1061   0.366   2.644   2.494 -0.3385 -2.4069 -0.1470
  354SOL    HW2 1062   0.240   2.654   2.617 -2.1876  0.3581 -1.6182
  355SOL     OW 1063   1.999   2.743   1.028  0.1947 -0.1633 -0.3138
  355SOL    HW1 1064   2.045   2.791   1.108  2.3811  2.2196  1.2216
  355SOL    HW2 1065   1.901   2.774   1.018  0.6336 -0.1289 -0.8160
  356SOL     OW 1066   2.512   0.729   0.403 -0.2002  0.3298 -0.7888
  356SOL    HW1 1067   2.497   0.829   0.420 -2.7172 -2.8484 -1.0310
  356SOL    HW2 1068   2.439   0.676   0.456 -2.2160  1.4643  1.0708
  357SOL     OW 1069   0.119   0.039   1.773  0.0206  0.0238  0.5285
  357SOL    HW1 1070   0.133   0.139   1.768  1.1377 -0.6822 -2.1344
  357SOL    HW2 1071   0.081   0.015   1.867 -2.3753  1.6120  1.7385
  358SOL     OW 1072   2.866   1.634   1.231  0.1281 -0.2467 -0.0999
  358SOL    HW1 1073   2.888   1.637   1.130  1.0559 -2.6277 -0.3304
  358SOL    HW2 1074   2.844   1.729   1.269 -0.3410  3.0433  1.1149
  359SOL     OW 1075   2.710   0.155   2.801 -0.1092  0.2300 -0.3465
  359SOL    HW1 1076   2.781   0.113   2.738 -1.0190  0.4158 -3.2733
  359SOL    HW2 1077   2.715   0.117   2.897 -0.3120 -0.5505  2.8412
  360SOL     OW 1078   1.275   1.058   1.171  0.1279 -0.0532 -0.9809
  360SOL    HW1 1079   1.364   1.097   1.190 -2.2723  0.3250 -3.2455
  360SOL    HW2 1080   1.251   0.987   1.242  2.3266 -0.4699 -1.1755
  361SOL     OW 1081   2.707   2.653   1.345  0.8102 -0.2067  0.7556
  361SOL    HW1 1082   2.688   2.697   1.435  1.7018 -1.9983 -0.3699
  361SOL    HW2 1083   2.707   2.554   1.359 -0.1998 -0.8807 -1.0498
  362SOL     OW 1084   1.130   0.093   0.807 -0.1008 -0.0767  0.2550
  362SOL    HW1 1085   1.133   3.080   0.821  3.6376 -0.9715  1.3240
  362SOL    HW2 1086   1.208   0.128   0.754 -1.4156  0.9162 -0.5514
  363SOL     OW 1087   1.873   1.688   0.795 -0.2877 -0.1959  0.1909
  363SOL    HW1 1088   1.934   1.617   0.828 -1.9352  2.5982 -2.0336
  363SOL    HW2 1089   1.843   1.668   0.695 -0.7374  0.2548 -2.9277
  364SOL     OW 1090   0.879   0.810   1.749 -0.2044 -0.2402 -0.1722
  364SOL    HW1 1091   0.978   0.795   1.738 -0.6437 -2.1849  1.0264
  364SOL    HW2 1092   0.817   0.764   1.682 -1.1135  0.5566 -1.8536
  365SOL     OW 1093   2.919   0.317   1.141  0.1808 -0.0604  0.3495
  365SOL    HW1 1094   3.018   0.318   1.140 -1.9883 -0.2772 -1.0006
  365SOL    HW2 1095   2.881   0.405   1.182 -1.0983  2.1270  2.8969
  366SOL     OW 1096   2.956   0.967   0.453  0.0428  0.4454 -0.4267
  366SOL    HW1 1097   2.856   0.979   0.434  0.2784 -3.0273 -2.3312
  366SOL    HW2 1098   3.008   1.058   0.461  2.5621  0.5166  1.1147
  367SOL     OW 1099   2.156   1.937   2.243  0.5177  0.1654  0.5265
  367SOL    HW1 1100   2.062   1.947   2.276  1.0679  0.9955 -1.2265
  367SOL    HW2 1101   2.212   2.019   2.267  0.1287  0.8380 -2.9692
  368SOL     OW 1102   2.261   2.046   1.015  0.2379 -0.2659  0.0163
  368SOL    HW1 1103   2.318   1.965   0.998 -1.2120  1.4436  2.9163
  368SOL    HW2 1104   2.165   2.020   1.046 -0.7936  0.4354  1.1261
  369SOL     OW 1105   2.179   0.281   2.919 -0.2432  0.4244  0.0821
  369SOL    HW1 1106   2.135   0.305   3.009  0.1682 -0.9249  0.7831
  369SOL    HW2 1107   2.227   0.191   2.922 -0.1111  2.5924  0.2106
  370SOL     OW 1108   0.723   0.507   1.219  0.4803 -0.0599 -0.1278
  370SOL    HW1 1109   0.731   0.444   1.136 -1.2845 -1.6745 -0.0094
  370SOL    HW2 1110   0.710   0.607   1.188  0.4739  4.2410  0.7590
  371SOL     OW 1111   0.375   1.633   0.205  0.2368 -0.3868 -0.0557
  371SOL    HW1 1112   0.361   1.591   0.112  0.1567  0.8416 -0.2367
  371SOL    HW2 1113   0.456   1.581   0.247  1.1796  3.2743 -0.2324
  372SOL     OW 1114   0.717   0.620   2.353  0.1168 -0.1722 -0.2050
  372SOL    HW1 1115   0.766   0.547   2.402 -1.5465 -1.2576 -1.5956
  372SOL    HW2 1116   0.769   0.706   2.364 -2.1761 -3.0215  2.4878
  373SOL     OW 1117   0.918   2.876   2.758  0.2242 -0.4166 -0.1655
  373SOL    HW1 1118   0.910   2.944   2.832 -1.8223 -3.0261  0.6892
  373SOL    HW2 1119   0.886   2.924   2.672  1.4939  1.2407 -1.5630
  374SOL     OW 1120   1.081   1.825   0.250 -0.6332 -0.2333 -0.2017
  374SOL    HW1 1121   1.122   1.873   0.331  1.0528  0.2424  0.7846
  374SOL    HW2 1122   1.096   1.723   0.262  0.8394 -0.5811  2.0664
  375SOL     OW 1123   1.207   0.717   1.956 -0.3749  0.2067 -0.3601
  375SOL    HW1 1124   1.122   0.688   2.007 -0.9512 -0.3753 -0.4341
  375SOL    HW2 1125   1.285   0.732   2.022  0.4022  0.1182  1.3164
  376SOL     OW 1126   3.003   2.656   1.954  0.1036 -0.1240 -0.2903
  376SOL    HW1 1127   2.934   2.680   2.024 -0.4943 -1.1182 -0.7383
  376SOL    HW2 1128   3.083   2.716   1.956 -0.2365 -1.0182 -0.4429
  377SOL     OW 1129   2.505   1.688   2.784 -0.2858  0.2492  0.1306
  377SOL    HW1 1130   2.572   1.736   2.721 -0.1614 -1.1453  0.1189
  377SOL    HW2 1131   2.547   1.598   2.819  2.1775  0.2274  0.0286
  378SOL     OW 1132   2.292   0.038   2.932 -0.3845  0.0391  0.3824
  378SOL    HW1 1133   2.221   3.056   2.939  0.2861  2.9543 -2.8184
  378SOL    HW2 1134   2.356   0.045   3.012 -0.4041  0.0454  1.2698
  379SOL     OW 1135   1.562   0.591   0.716 -0.3102  0.4062 -0.4977
  379SOL    HW1 1136   1.571   0.692   0.720 -0.9962  0.5230  0.5177
  379SOL    HW2 1137   1.642   0.543   0.753  2.7084  0.7210  0.1261
  380SOL     OW 1138   2.486   1.960   1.550 -0.0615  0.0037 -0.3630
  380SOL    HW1 1139   2.417   1.972   1.625  1.2976 -1.4031 -1.3882
  380SOL    HW2 1140   2.529   1.868   1.553  1.6946 -0.9408 -1.5761
  381SOL     OW 1141   2.712   1.486   2.391  0.4935 -0.1023 -0.2835
  381SOL    HW1 1142   2.692   1.456   2.298 -0.7212  2.7011  2.8314
  381SOL    HW2 1143   2.622   1.490   2.447 -6.0846  1.6842  1.4778
  382SOL     OW 1144   2.810   2.576   2.450 -0.9734  0.4368  0.1674
  382SOL    HW1 1145   2.766   2.667   2.427 -2.3775  1.6220 -2.7808
  382SOL    HW2 1146   2.823   2.517   2.368 -2.0539 -1.6058  0.0633
  383SOL     OW 1147   1.112   1.510   3.025  0.6861 -0.2497  0.4811
  383SOL    HW1 1148   1.054   1.464   2.954 -0.3242  1.2970 -0.7515
  383SOL    HW2 1149   1.070   1.595   3.056 -2.1608 -1.9101 -0.3775
  384SOL     OW 1150   1.721   2.012   1.564  0.1715  0.1558  0.7538
  384SOL    HW1 1151   1.820   2.009   1.590  0.7058 -2.7382 -0.9528
  384SOL    HW2 1152   1.662   2.047   1.638  2.2583 -0.7250  2.0796
  385SOL     OW 1153   1.701   2.719   0.568 -0.3443 -0.2046  0.8142
  385SOL    HW1 1154   1.643   2.801   0.593 -1.2128 -0.2705  0.3661
  385SOL    HW2 1155   1.760   2.737   0.484  0.1306  2.9062  1.1748
  386SOL     OW 1156   1.927   1.314   0.421  0.9563 -0.2993  0.3349
  386SOL    HW1 1157   2.023   1.325   0.390  0.0380 -1.7180  0.8821
  386SOL    HW2 1158   1.882   1.391   0.469 -0.0890 -0.3720  0.1953
  387SOL     OW 1159   3.004   2.302   1.431  0.1865  0.3610  0.0766
  387SOL    HW1 1160   2.949   2.339   1.508  1.9263 -0.9604  3.1080
  387SOL    HW2 1161   2.983   2.350   1.343 -0.2623  1.4853  0.6325
  388SOL     OW 1162   2.993   1.060   1.667 -0.5741  0.1587  0.7297
  388SOL    HW1 1163   3.043   1.112   1.739 -0.3999 -0.5855 -0.5475
  388SOL    HW2 1164   3.063   0.989   1.622  2.4924 -2.6151 -3.3990
  389SOL     OW 1165   1.656   0.257   0.017  0.0773  0.9952  0.1391
  389SOL    HW1 1166   1.635   0.157   0.005 -2.0917 -1.5682  1.9299
  389SOL    HW2 1167   1.671   0.283   0.113  0.1877  0.2599 -0.6426
  390SOL     OW 1168   0.951   1.786   2.998 -0.2572 -0.2339 -0.1696
  390SOL    HW1 1169   0.938   1.815   0.004  1.2792 -1.1868  1.5454
  390SOL    HW2 1170   1.022   1.844   2.950  0.5404  2.7060 -0.9240
  391SOL     OW 1171   1.289   2.223   0.050 -0.3187 -0.2953  0.1483
  391SOL    HW1 1172   1.280   2.264   0.143  1.0493  0.6893 -0.3097
  391SOL    HW2 1173   1.390   2.227   0.025 -0.2265 -1.5717  1.1327
  392SOL     OW 1174   0.129   2.403   2.140 -0.0125  0.2450 -0.1510
  392SOL    HW1 1175   0.161   2.497   2.142 -2.5242 -0.3187 -2.9188
  392SOL    HW2 1176   0.048   2.393   2.202  1.0019  0.1877 -0.6198
  393SOL     OW 1177   1.477   2.003   0.375 -0.3939  0.2834 -0.3092
  393SOL    HW1 1178   1.538   2.041   0.451  1.2972 -2.2238  0.9080
  393SOL    HW2 1179   1.504   2.036   0.281 -0.8772 -1.3399  1.7162
  394SOL     OW 1180   0.505   0.275   2.424 -0.5040  0.1702 -0.0459
  394SOL    HW1 1181   0.514   0.299   2.326  3.1327 -3.2708  0.3515
  394SOL    HW2 1182   0.474   0.354   2.482 -1.5414  2.6282 -1.3045
  395SOL     OW 1183   0.650   1.207   1.391 -0.5276 -0.1334  0.0631
  395SOL    HW1 1184   0.721   1.262   1.439  0.5028 -0.5725 -1.8778
  395SOL    HW2 1185   0.647   1.230   1.290 -0.0553 -2.5530  2.3252
  396SOL     OW 1186   1.979   1.020   2.497  0.1950  0.6197 -0.3582
  396SOL    HW1 1187   1.891   1.073   2.481 -0.6374 -1.3535 -1.7186
  396SOL    HW2 1188   2.036   1.067   2.566 -0.5641 -0.6949 -1.0412
  397SOL     OW 1189   0.562   0.432   0.043 -0.1249 -0.3828  0.7545
  397SOL    HW1 1190   0.545   0.499   3.056  2.1141 -3.0142 -0.9644
  397SOL    HW2 1191   0.478   0.407   0.094  0.6543  1.8592 -2.7117
  398SOL     OW 1192   1.096   2.584   3.054 -0.6436 -0.1836 -0.1314
  398SOL    HW1 1193   1.009   2.614   3.009  2.0887 -0.8822  0.8777
  398SOL    HW2 1194   1.072   2.570   0.060 -2.7701  2.5125 -3.4480
  399SOL     OW 1195   1.743   2.112   2.083  0.0065  0.1934  1.0197
  399SOL    HW1 1196   1.737   2.022   2.038  1.4646  0.9948 -0.7726
  399SOL    HW2 1197   1.748   2.184   2.008  3.9817  0.4012 -1.1789
  400SOL     OW 1198   2.014   1.365   1.229 -0.4006  0.1118 -0.5930
  400SOL    HW1 1199   2.009   1.343   1.125  0.9997 -0.2544 -2.3203
  400SOL    HW2 1200   2.111   1.389   1.252 -3.3705  0.6745  1.9017
  401SOL     OW 1201   1.325   1.236   0.872  0.1838 -0.1941 -0.0482
  401SOL    HW1 1202   1.302   1.329   0.896  1.6887  0.1281 -0.9607
  401SOL    HW2 1203   1.407   1.206   0.927 -0.3162 -0.3381  1.4186
  402SOL     OW 1204   0.003   2.898   2.396  0.0917  0.5512  0.0456
  402SOL    HW1 1205   3.085   2.877   2.498 -0.5538 -1.6160  2.3516
  402SOL    HW2 1206   0.099   2.888   2.356  1.7727 -1.2700 -2.0262
  403SOL     OW 1207   2.506   1.683   1.518  0.1558 -0.2772 -0.2453
  403SOL    HW1 1208   2.541   1.592   1.546 -0.9250 -2.6249  0.0750
  403SOL    HW2 1209   2.484   1.682   1.418 -1.0914 -2.0411  1.8372
  404SOL     OW 1210   2.060   1.605   1.425 -0.0609 -0.0989  0.6474
  404SOL    HW1 1211   2.108   1.678   1.372  1.1570 -1.1244 -0.8108
  404SOL    HW2 1212   1.967   1.590   1.385 -2.2620 -0.8596  0.8934
  405SOL     OW 1213   2.614   0.422   2.762  0.2526  0.7227  0.2583
  405SOL    HW1 1214   2.680   0.344   2.787 -0.1071 -1.9040 -2.1026
  405SOL    HW2 1215   2.643   0.515   2.778 -2.4623 -0.5164 -1.7696
  406SOL     OW 1216   0.946   1.569   2.419 -0.5676 -0.0376  0.0737
  406SOL    HW1 1217   0.888   1.651   2.418  1.9010 -0.9661  1.3748
  406SOL    HW2 1218   1.019   1.570   2.490  1.1311  0.4886 -0.4141
  407SOL     OW 1219   1.865   2.487   0.173  0.1679  0.3322  0.4366
  407SOL    HW1 1220   1.826   2.583   0.165 -2.3415 -0.0882  2.2018
  407SOL    HW2 1221   1.780   2.433   0.204  0.3360 -1.7245  0.0848
  408SOL     OW 1222   0.155   3.008   0.770  0.6409  0.4463  0.4516
  408SOL    HW1 1223   0.140   0.011   0.807  0.7702  2.0897  0.5692
  408SOL    HW2 1224   0.079   2.942   0.792 -0.2698  1.8219  0.1669
  409SOL     OW 1225   2.219   1.909   0.730 -0.4889  0.1733  0.1497
  409SOL    HW1 1226   2.121   1.908   0.692 -3.4633  1.7397  0.3763
  409SOL    HW2 1227   2.275   1.984   0.687 -2.6378  0.1709  1.9532
  410SOL     OW 1228   2.340   2.169   2.902 -0.2428  0.2975 -0.0677
  410SOL    HW1 1229   2.438   2.198   2.899  0.2851  1.4242  1.0704
  410SOL    HW2 1230   2.306   2.147   2.810  3.0781  2.9915  2.5249
  411SOL     OW 1231   0.293   0.014   0.463 -0.2825  0.0931 -0.8818
  411SOL    HW1 1232   0.374   0.050   0.417  1.2816 -1.2691  2.3932
  411SOL    HW2 1233   0.305   3.021   0.518 -2.5662 -3.7202  0.0474
  412SOL     OW 1234   1.329   2.607   0.344  0.1423 -0.8895  0.5089
  412SOL    HW1 1235   1.353   2.703   0.319  0.9084 -1.1179  0.9487
  412SOL    HW2 1236   1.379   2.591   0.430 -2.0203 -1.6383  1.4217
  413SOL     OW 1237   2.027   0.467   2.219 -0.0635  0.0594  0.5656
  413SOL    HW1 1238   1.993   0.526   2.147 -0.5560 -2.1668 -0.3530
  413SOL    HW2 1239   1.976   0.478   2.301  3.1830 -0.4401 -1.9866
  414SOL     OW 1240   0.077   0.395   0.643  0.1103  0.8107 -0.1256
  414SOL    HW1 1241   0.148   0.426   0.707 -0.8232  0.8574 -0.5158
  414SOL    HW2 1242   0.111   0.385   0.547  0.0287 -2.4425 -0.5130
  415SOL     OW 1243   0.303   1.446   1.375  0.5355  0.1232  0.4530
  415SOL    HW1 1244   0.278   1.384   1.294  0.5520  0.5805  0.2605
  415SOL    HW2 1245   0.294   1.406   1.471 -0.1662  0.1949  0.3506
  416SOL     OW 1246   0.131   3.000   0.218  0.0331  0.1327 -0.3830
  416SOL    HW1 1247   0.181   3.061   0.153 -0.3559  2.6471 -1.4356
  416SOL    HW2 1248   0.160   3.017   0.311 -0.6159  1.0560 -3.1300
  417SOL     OW 1249   1.948   0.289   1.040  0.5462  0.2580 -0.1547
  417SOL    HW1 1250   1.997   0.227   1.107  0.7922 -0.5720  1.2909
  417SOL    HW2 1251   2.010   0.367   1.012  0.0744  1.2038 -0.3965
  418SOL     OW 1252   0.422   0.473   2.601 -0.0078 -0.3447 -0.0524
  418SOL    HW1 1253   0.523   0.474   2.632  1.2940 -2.4876 -0.0634
  418SOL    HW2 1254   0.384   0.568   2.606 -0.1922 -1.8565 -0.1947
  419SOL     OW 1255   0.417   0.878   0.810 -0.0344  0.1223 -0.4777
  419SOL    HW1 1256   0.415   0.779   0.803 -0.1222  1.9937  0.5721
  419SOL    HW2 1257   0.398   0.917   0.898 -0.9152 -1.0336 -0.3568
  420SOL     OW 1258   1.987   2.171   0.789 -0.2640 -0.0714  0.1000
  420SOL    HW1 1259   1.962   2.090   0.729 -2.5110 -1.3737 -1.5883
  420SOL    HW2 1260   1.998   2.139   0.886  2.6259 -0.7514  1.8082
  421SOL     OW 1261   1.757   2.065   2.666 -0.5732 -0.3159  0.6734
  421SOL    HW1 1262   1.778   2.103   2.762 -1.6464  1.5348  3.0617
  421SOL    HW2 1263   1.680   1.998   2.675  0.6822  0.4685 -0.5190
  422SOL     OW 1264   2.805   0.349   0.061 -0.0683  0.3828 -0.8226
  422SOL    HW1 1265   2.778   0.423   0.000  0.7140 -0.8378  1.8785
  422SOL    HW2 1266   2.766   0.366   0.155 -1.2375  1.1393 -0.7005
  423SOL     OW 1267   1.700   2.004   0.855 -0.1628  0.2659  0.0830
  423SOL    HW1 1268   1.709   2.067   0.936 -2.5034  1.2142 -1.5126
  423SOL    HW2 1269   1.785   1.951   0.839 -0.8444  0.2434  0.0331
  424SOL     OW 1270   0.251   1.370   1.628  0.2925  0.2703 -0.0951
  424SOL    HW1 1271   0.302   1.443   1.678  1.1193  0.4458  2.5941
  424SOL    HW2 1272   0.150   1.374   1.652 -2.5409 -0.6269  0.8073
  425SOL     OW 1273   2.613   2.629   1.798 -0.0982 -0.0704  0.1942
  425SOL    HW1 1274   2.662   2.537   1.806  1.2617 -0.9233  1.4859
  425SOL    HW2 1275   2.532   2.630   1.855  1.3748  0.4527  0.8545
  426SOL     OW 1276   1.869   2.816   0.356  0.0233 -0.1609  0.0760
  426SOL    HW1 1277   1.939   2.844   0.421 -0.3041 -1.3934 -2.9077
  426SOL    HW2 1278   1.918   2.774   0.274  1.9806  0.9049 -0.5174
  427SOL     OW 1279   0.344   0.745   2.625 -0.0840  0.2071 -0.2483
  427SOL    HW1 1280   0.387   0.813   2.560  0.3394  0.5462 -2.7331
  427SOL    HW2 1281   0.324   0.783   2.718  0.1735 -0.8586 -1.6079
  428SOL     OW 1282   2.003   0.933   0.029 -0.5083 -0.1804 -0.2500
  428SOL    HW1 1283   1.916   0.974   0.067 -0.1482  0.1655 -2.2891
  428SOL    HW2 1284   2.007   0.922   3.020 -0.0812  1.7032  2.5367
  429SOL     OW 1285   2.924   0.187   0.522 -0.2796 -0.5721  0.0838
  429SOL    HW1 1286   2.908   0.090   0.554 -1.3637  1.3521  1.4839
  429SOL    HW2 1287   3.012   0.197   0.468  2.2049  2.1365 -2.7235
  430SOL     OW 1288   1.083   2.833   2.005  0.0208  0.3840 -0.4078
  430SOL    HW1 1289   1.012   2.811   1.937  0.1029 -1.8420  1.1968
  430SOL    HW2 1290   1.162   2.772   1.988  0.5577 -4.8511 -1.3907
  431SOL     OW 1291   0.112   1.893   1.282 -0.1124 -0.0766 -0.7426
  431SOL    HW1 1292   0.023   1.937   1.310 -2.3601 -0.3144  1.1419
  431SOL    HW2 1293   0.143   1.816   1.343  0.5388  2.2008  0.1845
  432SOL     OW 1294   2.193   2.730   1.798  0.5394 -0.6113  0.4793
  432SOL    HW1 1295   2.253   2.741   1.717 -0.0031  1.1124 -2.5624
  432SOL    HW2 1296   2.112   2.672   1.776  0.9848  0.9326 -0.6118
  433SOL     OW 1297   1.241   1.952   0.038 -0.1028 -0.4378  0.2146
  433SOL    HW1 1298   1.168   1.904   0.094 -0.0860  0.2028  2.2846
  433SOL    HW2 1299   1.257   2.052   0.059 -2.0713 -0.7744  1.6225
  434SOL     OW 1300   3.064   2.350   2.369 -0.0717 -0.2385  0.5420
  434SOL    HW1 1301   0.061   2.317   2.409 -0.3081 -1.1595 -3.8307
  434SOL    HW2 1302   2.994   2.358   2.441 -1.1046  0.2956 -0.8659
  435SOL     OW 1303   0.364   0.634   0.713  0.1009  0.1087  0.1878
  435SOL    HW1 1304   0.348   0.540   0.754 -3.3751 -0.9274  0.6243
  435SOL    HW2 1305   0.443   0.648   0.647 -0.2539 -2.4750 -2.8708
  436SOL     OW 1306   0.371   2.446   1.836  0.4270  0.1572 -0.1972
  436SOL    HW1 1307   0.293   2.446   1.766 -1.5852 -0.8942 -5.0017
  436SOL    HW2 1308   0.458   2.407   1.797  1.7371 -0.7038 -0.8612
  437SOL     OW 1309   1.114   1.907   1.555 -0.2273 -0.1445  0.1022
  437SOL    HW1 1310   1.123   1.987   1.614 -1.2177  1.4220 -2.8570
  437SOL    HW2 1311   1.084   1.928   1.458 -1.0182  0.5437 -0.0344
  438SOL     OW 1312   0.102   2.230   0.482 -0.3909 -0.2922  0.1605
  438SOL    HW1 1313   0.163   2.149   0.500 -0.0639  0.5811 -0.2790
  438SOL    HW2 1314   0.018   2.221   0.538  2.7897  1.1593  2.0375
  439SOL     OW 1315   0.081   0.280   1.220  0.0838 -0.3461  0.0110
  439SOL    HW1 1316   0.065   0.188   1.249  0.1173  2.3490 -2.8321
  439SOL    HW2 1317   0.170   0.324   1.249 -0.1274  1.9893 -2.2602
  440SOL     OW 1318   2.763   2.712   2.115 -0.0631  1.0373  0.0626
  440SOL    HW1 1319   2.737   2.621   2.152  0.4520 -0.0781 -0.8036
  440SOL    HW2 1320   2.698   2.739   2.043  0.6109 -0.9874 -0.6427
  441SOL     OW 1321   2.889   0.665   1.655 -0.2763  0.2611 -0.0394
  441SOL    HW1 1322   2.820   0.706   1.586  0.7462  2.4110  0.5712
  441SOL    HW2 1323   2.845   0.628   1.737  1.7853  0.8062 -2.8483
  442SOL     OW 1324   1.580   2.381   3.072  0.1882 -0.5242  0.4339
  442SOL    HW1 1325   1.641   2.373   0.059 -0.7116  3.3153  0.7791
  442SOL    HW2 1326   1.501   2.444   3.078  1.3182  1.5895 -2.0912
  443SOL     OW 1327   0.472   1.039   0.171 -0.5804 -0.4746  0.3288
  443SOL    HW1 1328   0.414   0.982   0.233  2.4298 -0.9288 -0.8086
  443SOL    HW2 1329   0.459   1.137   0.198  1.5974 -0.7421  1.2403
  444SOL     OW 1330   1.594   1.509   2.331  0.4767 -0.2963  0.2450
  444SOL    HW1 1331   1.660   1.493   2.400 -3.3821  1.3072 -5.1314
  444SOL    HW2 1332   1.636   1.565   2.258 -1.3224  2.4987  0.3248
  445SOL     OW 1333   0.224   2.513   1.090 -0.3823  0.3656 -0.0211
  445SOL    HW1 1334   0.151   2.570   1.046  0.5888 -1.4084  0.7583
  445SOL    HW2 1335   0.293   2.487   1.016 -0.6123  3.2442  0.1047
  446SOL     OW 1336   2.355   1.344   1.500  0.5227 -0.5412  0.2794
  446SOL    HW1 1337   2.311   1.299   1.578  0.0610  1.0916  0.4191
  446SOL    HW2 1338   2.443   1.382   1.528 -1.6458  1.2677  1.5972
  447SOL     OW 1339   0.194   0.666   0.018 -0.3394 -0.2438  0.2954
  447SOL    HW1 1340   0.172   0.686   0.117  0.5668 -2.2361  2.2017
  447SOL    HW2 1341   0.200   0.566   3.091 -0.1096  1.7970  1.2029
  448SOL     OW 1342   1.581   2.112   1.777 -0.2841 -0.0628  0.2818
  448SOL    HW1 1343   1.499   2.151   1.724 -1.0840 -0.8954 -0.8786
  448SOL    HW2 1344   1.642   2.189   1.803  1.6284  3.5358 -0.6807
  449SOL     OW 1345   1.345   1.394   0.542  0.1066 -0.3422  0.2298
  449SOL    HW1 1346   1.432   1.351   0.576  2.6015 -1.0117 -2.4509
  449SOL    HW2 1347   1.328   1.363   0.444  2.8735 -0.0151 -2.5343
  450SOL     OW 1348   2.929   2.073   1.812  0.0825  0.0060  0.0530
  450SOL    HW1 1349   2.927   1.992   1.755 -0.2428  2.4304  0.2586
  450SOL    HW2 1350   3.016   2.074   1.863 -2.2112  2.3445 -2.7293
  451SOL     OW 1351   2.876   1.379   2.984 -0.5114  0.5465 -0.0118
  451SOL    HW1 1352   2.937   1.417   2.914  0.7274 -1.2959  1.2349
  451SOL    HW2 1353   2.901   1.281   3.008 -0.0529 -1.5201  0.3980
  452SOL     OW 1354   1.462   0.848   0.997 -0.1587  0.1023 -0.1280
  452SOL    HW1 1355   1.383   0.789   1.028  0.4304  0.4208 -0.3030
  452SOL    HW2 1356   1.536   0.834   1.068  1.6131  0.3617  1.6488
  453SOL     OW 1357   1.777   1.177   1.152 -0.2449  0.2042 -0.2020
  453SOL    HW1 1358   1.752   1.250   1.222  0.7500  0.4768 -0.4404
  453SOL    HW2 1359   1.822   1.097   1.197  0.2348  1.3102 -0.7280
  454SOL     OW 1360   3.016   0.774   0.644  0.0057  0.1178  0.0094
  454SOL    HW1 1361   2.949   0.696   0.653 -1.1320 -3.4159 -0.1545
  454SOL    HW2 1362   2.989   0.845   0.578  0.0395 -0.6248  4.0851
  455SOL     OW 1363   2.466   2.698   1.128 -1.0565  0.6068 -0.2540
  455SOL    HW1 1364   2.565   2.698   1.159 -0.1106  0.4144 -0.0308
  455SOL    HW2 1365   2.439   2.609   1.087 -0.5300  1.6682 -1.8624
  456SOL     OW 1366   0.425   2.766   1.080  0.2287 -0.3911 -0.3125
  456SOL    HW1 1367   0.412   2.716   1.167  0.1525 -1.7771 -0.3475
  456SOL    HW2 1368   0.347   2.832   1.072 -1.0506 -1.0979 -1.8531
  457SOL     OW 1369   1.881   3.010   0.687 -0.1015 -0.0998  0.3791
  457SOL    HW1 1370   1.782   2.984   0.697 -0.1351 -0.4241 -0.9951
  457SOL    HW2 1371   1.912   3.003   0.589 -2.9158 -0.1769 -1.4831
  458SOL     OW 1372   2.428   0.114   0.983  0.3865  0.2509  0.6057
  458SOL    HW1 1373   2.375   0.035   1.017  2.4457  0.5008 -0.3536
  458SOL    HW2 1374   2.482   0.163   1.055 -0.2700 -0.1369  0.9809
  459SOL     OW 1375   2.033   0.584   2.954 -0.0299  0.3083  0.6396
  459SOL    HW1 1376   2.040   0.620   2.856 -0.0635  1.0562 -2.6219
  459SOL    HW2 1377   1.976   0.498   2.948  1.1854  0.1172 -0.2367
  460SOL     OW 1378   2.624   2.427   2.806 -0.5179 -0.3947  0.1232
  460SOL    HW1 1379   2.586   2.488   2.730  0.2678 -0.0395 -0.5213
  460SOL    HW2 1380   2.702   2.478   2.851  3.3236 -0.0757 -0.9477
  461SOL     OW 1381   0.635   1.778   0.363  0.3254 -0.4157 -0.3107
  461SOL    HW1 1382   0.712   1.789   0.430 -2.9317 -2.1549 -1.1929
  461SOL    HW2 1383   0.647   1.679   0.329 -0.7668  0.0765 -0.4402
  462SOL     OW 1384   2.474   2.364   0.719  0.2271 -0.1836  0.2767
  462SOL    HW1 1385   2.407   2.333   0.786  0.4072  1.8974  0.6581
  462SOL    HW2 1386   2.432   2.431   0.648  1.0052  5.5320  0.7107
  463SOL     OW 1387   2.886   0.517   0.644 -0.0653 -0.3989  0.1491
  463SOL    HW1 1388   2.834   0.474   0.722 -0.6440 -1.7821  0.7133
  463SOL    HW2 1389   2.972   0.467   0.626 -0.2679  0.7949 -1.9940
  464SOL     OW 1390   1.177   2.923   0.598 -0.4105 -0.4913 -0.5902
  464SOL    HW1 1391   1.091   2.973   0.613 -1.6631 -0.0193  0.3277
  464SOL    HW2 1392   1.162   2.824   0.588  1.4717  1.6477 -1.8201
  465SOL     OW 1393   2.329   0.978   0.375  0.3237 -0.0482 -0.2043
  465SOL    HW1 1394   2.266   0.932   0.443 -1.5808  0.8838  0.2074
  465SOL    HW2 1395   2.277   1.016   0.296 -0.5685  0.3801  0.6732
  466SOL     OW 1396   2.571   2.908   0.113 -0.0262  0.1370 -0.1389
  466SOL    HW1 1397   2.559   3.009   0.091 -2.7947  0.9001 -2.2229
  466SOL    HW2 1398   2.482   2.875   0.141  1.3088  1.3096  0.2285
  467SOL     OW 1399   1.005   0.940   1.466  0.2750 -0.0745 -0.1334
  467SOL    HW1 1400   1.057   0.883   1.532 -0.0564  0.3793  0.1381
  467SOL    HW2 1401   1.035   0.921   1.372 -0.7116 -0.4466  0.1473
  468SOL     OW 1402   0.325   0.640   2.182  0.1104  0.0042 -0.2561
  468SOL    HW1 1403   0.425   0.620   2.171  1.1478 -1.4229 -0.4943
  468SOL    HW2 1404   0.302   0.739   2.170 -1.5728  0.0709  2.9576
  469SOL     OW 1405   0.571   2.996   2.757  0.8188 -0.3838  0.0548
  469SOL    HW1 1406   0.542   2.900   2.770 -1.9686  3.3014  0.3817
  469SOL    HW2 1407   0.639   3.002   2.680 -1.2570 -1.1678 -0.1966
  470SOL     OW 1408   2.166   1.144   2.697  0.3421 -0.2857  0.3206
  470SOL    HW1 1409   2.165   1.234   2.749  0.1197 -2.4828  1.3300
  470SOL    HW2 1410   2.257   1.124   2.657  0.0487  1.4501  1.9995
  471SOL     OW 1411   2.892   1.327   2.531 -0.3375 -0.3041  0.4659
  471SOL    HW1 1412   2.867   1.414   2.481  0.0309 -2.4147 -0.2592
  471SOL    HW2 1413   2.811   1.300   2.591 -1.7118  1.1099  0.6980
  472SOL     OW 1414   0.470   2.377   0.213 -0.6412  0.5785  0.0114
  472SOL    HW1 1415   0.467   2.398   0.314 -2.1482 -1.1770  0.7879
  472SOL    HW2 1416   0.566   2.348   0.186 -0.6951 -2.1298 -0.3905
  473SOL     OW 1417   0.615   0.162   3.031  0.1968 -0.7573  0.4729
  473SOL    HW1 1418   0.534   0.129   2.980 -2.0471  1.8674 -0.3528
  473SOL    HW2 1419   0.589   0.248   3.081 -0.2220 -1.8036  1.6028
  474SOL     OW 1420   1.562   0.576   2.272  0.5844 -0.5938  0.0758
  474SOL    HW1 1421   1.511   0.633   2.204  2.6950  4.4710  0.7024
  474SOL    HW2 1422   1.626   0.510   2.232 -2.0407  0.3001  1.6637
  475SOL     OW 1423   0.815   2.601   0.126  0.2799  0.1178  0.1261
  475SOL    HW1 1424   0.779   2.510   0.115  1.2322  2.0675  4.0061
  475SOL    HW2 1425   0.896   2.600   0.186 -1.9924  1.7100  0.4091
  476SOL     OW 1426   0.397   1.042   1.069 -0.8658  0.1535 -0.3750
  476SOL    HW1 1427   0.485   0.992   1.098 -0.9721 -1.3669 -2.7353
  476SOL    HW2 1428   0.421   1.139   1.054  2.5010 -0.5004  1.3544
  477SOL     OW 1429   1.583   2.175   1.312 -0.1618 -0.2781  0.2030
  477SOL    HW1 1430   1.499   2.229   1.340 -1.1657  1.5959  2.0610
  477SOL    HW2 1431   1.566   2.075   1.316 -2.1248 -0.5565 -1.2927
  478SOL     OW 1432   0.812   1.384   2.258  0.4743 -0.3561  0.4208
  478SOL    HW1 1433   0.808   1.285   2.284 -0.6055  0.6362  0.7718
  478SOL    HW2 1434   0.877   1.435   2.319  2.8237 -1.0686  1.6135
  479SOL     OW 1435   0.197   2.950   1.099 -0.5607  0.3219  0.4471
  479SOL    HW1 1436   0.159   3.031   1.155  1.4183  3.0169  0.4347
  479SOL    HW2 1437   0.174   2.963   0.997  0.4251  1.1150 -0.6740
  480SOL     OW 1438   2.649   2.492   0.173 -0.0335  0.0793  0.4880
  480SOL    HW1 1439   2.710   2.574   0.153  0.7612  0.7802 -0.1851
  480SOL    HW2 1440   2.601   2.455   0.087 -1.1298 -0.9610 -0.3640
  481SOL     OW 1441   2.792   0.099   1.246 -0.6874  0.4249  0.1038
  481SOL    HW1 1442   2.842   0.182   1.216 -3.6431 -0.0167 -1.9016
  481SOL    HW2 1443   2.857   0.030   1.286  2.3523  2.4204 -2.1257
  482SOL     OW 1444   1.650   2.559   1.983  0.8264 -0.1320  0.1529
  482SOL    HW1 1445   1.657   2.654   2.013 -2.1634 -3.3440 -0.5399
  482SOL    HW2 1446   1.618   2.564   1.887 -0.4850 -1.6911  2.6915
  483SOL     OW 1447   0.670   1.405   2.869  0.4131 -0.8148  0.0758
  483SOL    HW1 1448   0.688   1.414   2.767 -0.5539  0.9455 -2.6048
  483SOL    HW2 1449   0.603   1.329   2.891 -0.8222 -1.9585 -0.2330
  484SOL     OW 1450   1.138   1.575   2.225  0.2844 -0.1211  0.2081
  484SOL    HW1 1451   1.219   1.508   2.228  0.9459  2.0593  2.2080
  484SOL    HW2 1452   1.065   1.554   2.297 -4.5085  1.7172  0.1673
  485SOL     OW 1453   2.789   0.081   3.077 -0.0836  0.1517  0.2683
  485SOL    HW1 1454   2.771   0.182   3.082 -2.4498  0.3727  0.2884
  485SOL    HW2 1455   2.850   0.064   0.066 -1.3925 -1.4600 -0.4449
  486SOL     OW 1456   1.586   2.960   0.662  0.2080 -0.3857  0.0060
  486SOL    HW1 1457   1.541   3.021   0.592  0.2802 -0.2491 -0.5681
  486SOL    HW2 1458   1.526   2.942   0.739  0.4664  1.7137 -3.0847
  487SOL     OW 1459   1.122   2.442   0.945 -0.0441 -0.2512  0.3407
  487SOL    HW1 1460   1.091   2.349   0.919 -1.9260 -1.7550 -0.5285
  487SOL    HW2 1461   1.052   2.509   0.912 -0.7103  1.5577 -1.7255
  488SOL     OW 1462   2.197   1.094   0.144  0.0698  0.0115 -0.0721
  488SOL    HW1 1463   2.241   1.145   0.068 -1.4744  0.4279 -0.8711
  488SOL    HW2 1464   2.114   1.049   0.103 -1.4801  1.0168  1.3675
  489SOL     OW 1465   1.418   2.769   1.330  0.5361  0.9156 -0.2484
  489SOL    HW1 1466   1.348   2.727   1.396 -0.2730 -2.2220  1.0181
  489SOL    HW2 1467   1.408   2.867   1.314  0.5377 -1.8888 -0.0921
  490SOL     OW 1468   0.736   0.907   0.199 -0.0248  0.0629 -0.2828
  490SOL    HW1 1469   0.641   0.941   0.195  0.5131 -0.7643 -1.6584
  490SOL    HW2 1470   0.744   0.844   0.281 -3.1653  0.4401 -2.6989
  491SOL     OW 1471   0.862   3.042   0.926  0.0456 -0.1546 -0.7756
  491SOL    HW1 1472   0.924   0.007   0.984  1.4824  1.0649  0.3713
  491SOL    HW2 1473   0.820   2.961   0.975 -0.0783 -2.1317  1.2774
  492SOL     OW 1474   1.346   1.419   2.249  0.1668  0.6447  0.7942
  492SOL    HW1 1475   1.431   1.459   2.271  3.0179 -0.8197 -1.1678
  492SOL    HW2 1476   1.356   1.351   2.172  1.0938  2.8052 -1.2645
  493SOL     OW 1477   0.228   2.487   0.236  0.4943 -0.3951  0.2369
  493SOL    HW1 1478   0.142   2.431   0.245 -0.8646 -1.1616  0.7522
  493SOL    HW2 1479   0.312   2.430   0.222 -2.3497  3.2672 -3.8822
  494SOL     OW 1480   2.153   1.742   0.285  0.3145 -0.0198  0.0656
  494SOL    HW1 1481   2.232   1.696   0.332  1.7678 -2.2160 -0.0849
  494SOL    HW2 1482   2.154   1.720   0.187  1.1247  2.2148  1.6764
  495SOL     OW 1483   2.981   1.112   3.042 -0.6231  0.8091  0.5576
  495SOL    HW1 1484   3.036   1.038   2.992  2.0243 -2.4192 -1.9253
  495SOL    HW2 1485   2.896   1.073   3.082 -1.4590 -0.2952 -0.2370
  496SOL     OW 1486   2.636   3.010   1.964 -0.0882 -0.4321 -0.2087
  496SOL    HW1 1487   2.557   2.969   2.016 -1.1616 -2.7422 -1.0988
  496SOL    HW2 1488   2.612   3.011   1.866  1.8450  1.3940  2.6533
  497SOL     OW 1489   2.630   0.936   0.791  0.7283 -0.1737  0.2585
  497SOL    HW1 1490   2.623   0.836   0.772  0.0605 -0.8252 -0.2587
  497SOL    HW2 1491   2.591   0.993   0.718  0.7901  0.0225  0.4350
  498SOL     OW 1492   0.145   2.070   2.701 -0.0649  0.5147 -0.7284
  498SOL    HW1 1493   0.074   2.073   2.766  1.7278 -1.1251 -3.0176
  498SOL    HW2 1494   0.134   2.153   2.645 -1.7754 -1.5736 -3.0464
  499SOL     OW 1495   0.776   2.104   0.412 -0.9165  0.2591  0.6132
  499SOL    HW1 1496   0.817   2.201   0.423  2.1913 -0.1227 -0.0814
  499SOL    HW2 1497   0.842   2.034   0.442 -1.7971  1.4559 -0.0285
  500SOL     OW 1498   0.756   0.204   2.533  0.3807 -0.2349 -0.0666
  500SOL    HW1 1499   0.775   0.229   2.631 -1.9464 -0.5607 -1.9629
  500SOL    HW2 1500   0.664   0.243   2.498 -1.5036 -0.4520 -0.6191
  501SOL     OW 1501   1.050   3.081   1.565  0.2187 -0.8695  0.7505
  501SOL    HW1 1502   0.960   3.086   1.611 -2.2400  0.5045  0.1657
  501SOL    HW2 1503   1.083   0.084   1.539 -1.2641 -1.3015  0.1921
  502SOL     OW 1504   0.003   0.386   1.945 -0.6691 -0.4006 -0.3920
  502SOL    HW1 1505   0.067   0.375   1.864 -0.0639  0.3442 -3.0239
  502SOL    HW2 1506   0.047   0.443   2.016 -1.5304  0.0245  0.5974
  503SOL     OW 1507   2.351   1.763   2.339 -0.0800  0.1125  0.4191
  503SOL    HW1 1508   2.287   1.799   2.269 -1.0875  1.3521  1.0609
  503SOL    HW2 1509   2.377   1.841   2.401  0.4122 -0.3168  0.9209
  504SOL     OW 1510   1.859   0.701   1.730 -0.1006 -0.1398  0.3435
  504SOL    HW1 1511   1.914   0.746   1.806  0.0345  0.8482 -0.9727
  504SOL    HW2 1512   1.842   0.776   1.657 -2.3970  0.1986 -0.2225
  505SOL     OW 1513   2.777   0.928   1.733 -0.0928  0.4230  0.1160
  505SOL    HW1 1514   2.855   0.993   1.703 -0.5506  0.2255 -2.2716
  505SOL    HW2 1515   2.749   0.875   1.648  0.3247  0.8690  0.4002
  506SOL     OW 1516   0.463   1.333   2.444 -0.1701  0.1018 -0.1750
  506SOL    HW1 1517   0.389   1.279   2.396 -1.2333 -1.5891 -0.9064
  506SOL    HW2 1518   0.490   1.423   2.394  0.5033  1.2122 -2.7106
  507SOL     OW 1519   0.252   2.843   2.306 -0.5833  0.2049  0.2037
  507SOL    HW1 1520   0.294   2.924   2.261  1.4940  0.8710  1.0911
  507SOL    HW2 1521   0.259   2.757   2.252 -0.1498 -0.0872  1.0655
  508SOL     OW 1522   1.229   0.823   1.319 -0.9444  0.1995 -0.1373
  508SOL    HW1 1523   1.314   0.817   1.372  0.2285 -0.8874 -1.6888
  508SOL    HW2 1524   1.241   0.770   1.233 -1.3416  3.1585 -0.2764
  509SOL     OW 1525   0.715   1.541   1.325 -0.0963 -0.1135  0.8412
  509SOL    HW1 1526   0.619   1.576   1.325  1.3752  0.5046  1.3406
  509SOL    HW2 1527   0.775   1.620   1.344 -1.5043 -2.1775 -0.6996
  510SOL     OW 1528   2.663   0.987   2.776 -0.1079 -0.4470 -0.0998
  510SOL    HW1 1529   2.733   0.921   2.748 -3.4532 -1.2595  1.7540
  510SOL    HW2 1530   2.667   1.079   2.728  3.4555  0.8233  0.8645
  511SOL     OW 1531   0.422   1.621   1.039  0.2419 -0.0058  0.0570
  511SOL    HW1 1532   0.377   1.533   1.041 -0.8306  0.6686  0.4071
  511SOL    HW2 1533   0.455   1.642   1.136  0.1723  0.3813 -1.5562
  512SOL     OW 1534   2.691   2.368   0.991  0.6996  0.2287  0.0947
  512SOL    HW1 1535   2.689   2.431   0.910  0.1537  0.7373 -0.0882
  512SOL    HW2 1536   2.626   2.395   1.064 -2.0963 -1.3944 -3.7832
  513SOL     OW 1537   0.123   1.498   3.050  0.8103 -0.1142  0.3944
  513SOL    HW1 1538   0.079   1.423   0.019 -1.9324  1.2164  0.6554
  513SOL    HW2 1539   0.223   1.479   3.039 -0.8066  0.0044 -0.2565
  514SOL     OW 1540   0.223   2.539   2.968 -0.0465  0.5045  0.0291
  514SOL    HW1 1541   0.176   2.484   3.044 -0.7898 -0.6687 -0.9516
  514SOL    HW2 1542   0.325   2.546   2.984  0.1181  2.1859 -2.1515
  515SOL     OW 1543   1.659   1.239   2.238  0.3122 -0.1342  0.0422
  515SOL    HW1 1544   1.662   1.331   2.188  1.4904  3.6425 -1.9715
  515SOL    HW2 1545   1.566   1.232   2.275  5.2058  1.1007 -0.2936
  516SOL     OW 1546   2.155   2.029   0.258 -0.0257  0.0757  0.2877
  516SOL    HW1 1547   2.166   1.929   0.259 -0.6824  3.4475 -1.3023
  516SOL    HW2 1548   2.224   2.071   0.202 -2.1801  0.7484  2.8652
  517SOL     OW 1549   1.398   1.067   0.404  0.4005  0.2498  0.2762
  517SOL    HW1 1550   1.410   1.056   0.504 -2.3341 -0.7032 -1.0885
  517SOL    HW2 1551   1.295   1.063   0.387  0.9944  0.1764 -2.3538
  518SOL     OW 1552   2.356   2.665   2.004  0.0050 -0.2945 -0.2731
  518SOL    HW1 1553   2.371   2.573   2.031  1.7056  3.2918 -0.6133
  518SOL    HW2 1554   2.288   2.669   1.931  3.1261  0.5081  3.9870
  519SOL     OW 1555   1.739   2.304   1.556 -0.5625 -0.2500 -0.3961
  519SOL    HW1 1556   1.742   2.232   1.488 -1.2716 -0.1188 -0.2194
  519SOL    HW2 1557   1.658   2.362   1.530 -1.1443  0.3567  0.8972
  520SOL     OW 1558   2.525   2.602   2.643 -0.2397 -0.3281  0.0841
  520SOL    HW1 1559   2.520   2.695   2.686  0.6566 -0.3039 -1.3453
  520SOL    HW2 1560   2.437   2.568   2.606  0.8258 -2.7985  4.5951
  521SOL     OW 1561   0.311   1.229   2.006 -0.0909 -0.6313  0.1118
  521SOL    HW1 1562   0.308   1.216   2.104 -1.4540 -2.2793  1.2413
  521SOL    HW2 1563   0.391   1.286   1.974  0.5251  2.5845 -1.3559
  522SOL     OW 1564   1.025   0.151   1.915 -0.0197  0.4567  0.3169
  522SOL    HW1 1565   1.115   0.096   1.910 -1.0631 -0.1683  0.9943
  522SOL    HW2 1566   1.039   0.249   1.889  1.0290  0.0076  0.6143
  523SOL     OW 1567   0.555   2.417   0.828  0.5991  0.4844  0.1932
  523SOL    HW1 1568   0.603   2.344   0.779  1.0148  1.9574 -0.7938
  523SOL    HW2 1569   0.460   2.388   0.848  2.2618 -1.0119 -1.2034
  524SOL     OW 1570   1.454   2.590   0.581 -0.3957  0.1892  0.3329
  524SOL    HW1 1571   1.539   2.644   0.569 -1.0307  1.0020  0.6735
  524SOL    HW2 1572   1.475   2.498   0.627 -1.4059  1.1879  0.9740
  525SOL     OW 1573   2.221   1.056   1.250  0.2934  0.4698  0.0752
  525SOL    HW1 1574   2.287   1.036   1.329  0.0428 -0.1225  1.5636
  525SOL    HW2 1575   2.189   1.155   1.251  3.4102 -0.0008  0.1096
  526SOL     OW 1576   0.981   2.680   0.835  0.1509 -0.0897  0.1976
  526SOL    HW1 1577   0.888   2.693   0.796  1.2004  0.9919 -3.4604
  526SOL    HW2 1578   1.035   2.668   0.750 -0.5580 -1.6482 -2.1062
  527SOL     OW 1579   2.470   2.169   0.437 -0.0675 -0.1333 -0.2986
  527SOL    HW1 1580   2.511   2.237   0.497  0.7344  1.9225 -2.3383
  527SOL    HW2 1581   2.392   2.124   0.488 -1.0184 -1.8152 -1.4770
  528SOL     OW 1582   2.088   0.576   0.402 -0.3061 -0.2552  0.6144
  528SOL    HW1 1583   2.058   0.674   0.399 -3.3600  0.8652 -2.6238
  528SOL    HW2 1584   2.011   0.513   0.433 -2.4923  0.2718  3.7295
  529SOL     OW 1585   1.251   1.238   2.469  0.0548  0.1570  0.5215
  529SOL    HW1 1586   1.337   1.214   2.516  0.4388  0.1750 -0.5293
  529SOL    HW2 1587   1.274   1.308   2.401  2.1339  3.7782 -2.4607
  530SOL     OW 1588   2.507   0.640   0.119 -0.6587 -0.0110 -0.0127
  530SOL    HW1 1589   2.590   0.622   0.068  0.4237 -1.8855 -1.1213
  530SOL    HW2 1590   2.538   0.698   0.198  1.6166  2.9519  0.3986
  531SOL     OW 1591   1.006   1.005   3.063  0.7395  0.6110  0.2377
  531SOL    HW1 1592   0.943   0.970   0.040 -1.2454 -1.2666  1.6745
  531SOL    HW2 1593   0.989   0.976   2.970  1.7784 -0.5312  0.6619
  532SOL     OW 1594   1.852   0.438   0.815  0.3698 -0.4007  0.2023
  532SOL    HW1 1595   1.931   0.482   0.859 -1.1186 -1.4543  1.1843
  532SOL    HW2 1596   1.837   0.349   0.858 -2.3606  0.7681  0.7367
  533SOL     OW 1597   1.417   0.990   2.217  0.1280 -0.5430 -0.2799
  533SOL    HW1 1598   1.322   0.990   2.254  0.6872  0.4258  1.6841
  533SOL    HW2 1599   1.433   1.062   2.146  0.7737 -0.8115  0.0665
  534SOL     OW 1600   2.105   0.284   2.618  0.0732 -0.5872 -0.7776
  534SOL    HW1 1601   2.193   0.307   2.660 -0.4196  1.1426  2.4510
  534SOL    HW2 1602   2.038   0.253   2.690 -1.3693  0.3586  1.8594
  535SOL     OW 1603   0.531   0.199   0.355 -0.2868 -0.1025 -0.1421
  535SOL    HW1 1604   0.455   0.212   0.289  0.3081  0.1045  2.9024
  535SOL    HW2 1605   0.587   0.115   0.329  0.3593 -0.8427  1.1234
  536SOL     OW 1606   0.691   2.850   1.063  0.0786  0.0840 -0.1261
  536SOL    HW1 1607   0.595   2.811   1.075 -1.9441 -1.6900  1.6450
  536SOL    HW2 1608   0.752   2.766   1.064  0.6756 -2.6925  0.3022
  537SOL     OW 1609   1.540   1.100   1.002  0.0124  0.2866 -0.0810
  537SOL    HW1 1610   1.526   1.002   0.988  2.3647  1.5063 -0.5370
  537SOL    HW2 1611   1.610   1.116   1.070 -0.8248 -0.8636  1.0981
  538SOL     OW 1612   2.841   2.074   0.193 -0.1936 -1.1234 -0.2845
  538SOL    HW1 1613   2.919   2.020   0.226 -0.4704 -1.0098 -1.4578
  538SOL    HW2 1614   2.839   2.170   0.231  1.1428  1.9389  0.7604
  539SOL     OW 1615   2.582   1.822   0.070  0.1966  0.9227 -0.4138
  539SOL    HW1 1616   2.506   1.863   0.015 -1.6608  0.3005  1.9702
  539SOL    HW2 1617   2.582   1.851   0.169  2.5133  0.6252 -0.8266
  540SOL     OW 1618   0.273   2.785   1.531  0.1702  0.8181 -0.6241
  540SOL    HW1 1619   0.214   2.730   1.469 -0.8871  2.0858 -2.3957
  540SOL    HW2 1620   0.269   2.881   1.505 -0.9708 -2.3176 -0.1548
  541SOL     OW 1621   2.322   3.088   1.861  0.8489  0.2179 -0.0945
  541SOL    HW1 1622   2.347   3.031   1.937 -1.4059  2.3815 -2.4583
  541SOL    HW2 1623   2.232   0.045   1.871 -2.1245 -2.3112 -0.3744
  542SOL     OW 1624   2.702   0.414   2.291 -0.4994  0.0330 -0.1581
  542SOL    HW1 1625   2.709   0.400   2.390  1.2706 -0.9246 -3.5365
  542SOL    HW2 1626   2.779   0.367   2.244 -1.6241 -1.2505 -0.1339
  543SOL     OW 1627   0.720   0.412   0.674 -0.0732  0.2179 -0.1108
  543SOL    HW1 1628   0.741   0.441   0.582 -3.1476 -1.0320  0.5318
  543SOL    HW2 1629   0.637   0.352   0.679  2.8106 -1.7939  0.4490
  544SOL     OW 1630   3.072   2.622   1.007  0.2257  0.1332  0.3765
  544SOL    HW1 1631   2.995   2.666   1.058 -2.1733 -0.4574  0.1301
  544SOL    HW2 1632   3.056   2.529   0.970 -3.7317  0.0988 -1.2096
  545SOL     OW 1633   1.076   2.009   0.698  0.2694 -0.4031 -0.4850
  545SOL    HW1 1634   1.125   1.987   0.612  0.4149 -0.2903 -0.2615
  545SOL    HW2 1635   1.130   1.987   0.781  1.5304 -0.5269 -0.1316
  546SOL     OW 1636   2.153   0.220   1.774  0.1403 -0.1959 -0.2411
  546SOL    HW1 1637   2.067   0.250   1.821 -0.3503  0.7514 -0.4155
  546SOL    HW2 1638   2.132   0.177   1.684  0.5475  0.2945 -0.8497
  547SOL     OW 1639   0.334   0.362   2.167  0.2185 -0.6677  0.1578
  547SOL    HW1 1640   0.321   0.466   2.158  1.6921  2.4042 -1.1104
  547SOL    HW2 1641   0.272   0.318   2.229  1.4030  1.3761  0.6500
  548SOL     OW 1642   2.162   1.790   2.665 -0.3595  0.5987 -0.2522
  548SOL    HW1 1643   2.103   1.727   2.722 -2.3991 -0.3441 -0.0678
  548SOL    HW2 1644   2.105   1.846   2.605  0.0030  0.0285  1.2545
  549SOL     OW 1645   3.084   0.816   0.923 -0.1629 -0.1571  0.4837
  549SOL    HW1 1646   3.080   0.801   0.821  0.0651 -5.1352 -1.7560
  549SOL    HW2 1647   2.996   0.858   0.955  1.2002  0.1394 -1.1661
  550SOL     OW 1648   1.697   1.770   0.588  0.1810  0.3286 -0.6933
  550SOL    HW1 1649   1.689   1.713   0.506  1.7684 -0.5947 -1.7645
  550SOL    HW2 1650   1.695   1.871   0.565  0.0363  0.3903 -0.1088
  551SOL     OW 1651   0.920   0.179   1.130 -0.0314 -0.2981 -0.6012
  551SOL    HW1 1652   0.879   0.102   1.183 -1.4449  1.5200  0.4638
  551SOL    HW2 1653   0.852   0.236   1.080  0.0731  1.2703 -1.3666
  552SOL     OW 1654   2.477   2.391   1.999 -0.1418  0.3066  0.0981
  552SOL    HW1 1655   2.402   2.349   1.948 -0.2962  0.7301  1.4971
  552SOL    HW2 1656   2.458   2.396   2.099  3.0723 -0.4231 -0.2684
  553SOL     OW 1657   2.884   0.082   2.616  0.2626  0.0885  0.5549
  553SOL    HW1 1658   2.870   0.024   2.536 -0.3177 -2.6742 -0.8550
  553SOL    HW2 1659   2.981   0.079   2.642 -0.9204  1.1054  0.8961
  554SOL     OW 1660   1.008   2.748   1.322  0.7746 -0.0890  0.2970
  554SOL    HW1 1661   0.924   2.720   1.369 -1.3045  0.1060 -1.7853
  554SOL    HW2 1662   1.093   2.715   1.364  1.7880  0.0097 -0.0164
  555SOL     OW 1663   2.412   2.662   1.603 -0.7336 -0.0145  0.7633
  555SOL    HW1 1664   2.450   2.567   1.616 -0.4018 -0.5261 -1.7361
  555SOL    HW2 1665   2.479   2.726   1.640 -1.0033 -1.4311  0.1319
  556SOL     OW 1666   1.056   0.213   2.808  0.7092 -0.1201 -0.1113
  556SOL    HW1 1667   1.120   0.145   2.769 -2.5157 -2.3607  1.1357
  556SOL    HW2 1668   1.052   0.196   2.913  2.0990  0.2409  0.0190
  557SOL     OW 1669   0.218   1.680   2.432 -0.0002 -0.1570  0.1942
  557SOL    HW1 1670   0.244   1.727   2.345 -0.9735 -1.5281  2.4350
  557SOL    HW2 1671   0.193   1.751   2.500 -1.6352 -0.2256  0.6708
  558SOL     OW 1672   2.402   1.087   2.584  0.0066 -0.0363 -0.4945
  558SOL    HW1 1673   2.386   1.000   2.539 -0.8365  3.2410 -1.0357
  558SOL    HW2 1674   2.489   1.081   2.643  1.8406 -1.6761  3.0283
  559SOL     OW 1675   2.357   2.050   1.817  0.3153 -0.3562  0.0101
  559SOL    HW1 1676   2.458   2.076   1.797  2.5725  0.2687 -2.1003
  559SOL    HW2 1677   2.300   2.130   1.858  0.1545  0.2725  1.1915
  560SOL     OW 1678   2.990   0.645   2.374  0.3194  0.4516 -0.1859
  560SOL    HW1 1679   2.893   0.674   2.364  1.6441 -0.3607  0.6015
  560SOL    HW2 1680   3.043   0.629   2.283  1.2876  1.1097 -3.1573
  561SOL     OW 1681   0.619   0.461   0.389 -0.0166 -0.3127 -0.4387
  561SOL    HW1 1682   0.623   0.363   0.365 -1.5747 -1.5077 -2.2910
  561SOL    HW2 1683   0.702   0.519   0.370  1.1290  0.7531  1.3268
  562SOL     OW 1684   1.027   1.587   1.658 -0.0938 -0.1290 -0.2520
  562SOL    HW1 1685   0.947   1.598   1.716  0.1101 -2.6354  2.0055
  562SOL    HW2 1686   1.091   1.652   1.698  0.3428  1.7041  1.2051
  563SOL     OW 1687   1.479   2.827   0.039  0.6706  0.4844  0.1001
  563SOL    HW1 1688   1.442   2.846   0.129  1.2247  0.3080 -1.7954
  563SOL    HW2 1689   1.407   2.845   3.058 -2.4904  1.3121  0.5056
  564SOL     OW 1690   0.078   1.926   0.636  0.4411 -0.3295  0.1680
  564SOL    HW1 1691   0.096   1.905   0.735  0.3680  1.8010  1.1540
  564SOL    HW2 1692   0.161   1.939   0.574  1.5876  0.2467 -4.2083
  565SOL     OW 1693   0.581   2.212   2.225 -0.4502 -0.2101  0.3831
  565SOL    HW1 1694   0.553   2.154   2.142 -0.9882 -0.1643 -0.1845
  565SOL    HW2 1695   0.662   2.273   2.212 -0.8077 -1.0462  0.5740
  566SOL     OW 1696   1.352   2.625   2.210  0.2658  0.2142  0.4024
  566SOL    HW1 1697   1.440   2.565   2.218 -0.6743 -2.4691 -0.4224
  566SOL    HW2 1698   1.347   2.677   2.120  0.3532 -1.3281  0.3917
  567SOL     OW 1699   2.250   2.234   0.843 -0.5706  0.9762 -0.5177
  567SOL    HW1 1700   2.161   2.235   0.795  1.7549  1.1295  1.7447
  567SOL    HW2 1701   2.258   2.153   0.904  3.3127  1.0971 -1.5147
  568SOL     OW 1702   1.963   0.822   0.350 -0.1039  0.1258  0.0759
  568SOL    HW1 1703   1.970   0.904   0.290 -0.6202 -0.9925  0.9807
  568SOL    HW2 1704   1.895   0.844   0.426 -0.7003 -0.6205  0.9886
  569SOL     OW 1705   0.092   1.410   2.609 -0.3422 -0.2011 -0.3098
  569SOL    HW1 1706   0.061   1.459   2.525  0.0076 -0.3028 -2.1045
  569SOL    HW2 1707   0.073   1.309   2.597  1.3885 -0.2138 -0.5309
  570SOL     OW 1708   2.943   2.995   1.411 -0.0374  0.1249  0.0324
  570SOL    HW1 1709   2.937   3.041   1.505 -1.3228  0.1133  3.6896
  570SOL    HW2 1710   2.970   2.897   1.427  0.5330 -0.4877  0.9020
  571SOL     OW 1711   0.057   0.638   1.644 -0.0994  0.4233 -0.3316
  571SOL    HW1 1712   0.074   0.558   1.584  1.0929 -0.1323  0.1098
  571SOL    HW2 1713   3.047   0.642   1.662  0.7734 -0.4815  0.1559
  572SOL     OW 1714   3.033   2.372   0.905  0.3066 -0.5425 -0.4060
  572SOL    HW1 1715   3.037   2.300   0.831  1.4051 -1.0663 -1.6194
  572SOL    HW2 1716   3.022   2.334   0.999  1.3980  0.9724 -2.6091
  573SOL     OW 1717   0.778   0.708   3.047 -0.1031 -0.1861  0.2715
  573SOL    HW1 1718   0.693   0.668   3.008 -0.0193  0.0781 -1.2743
  573SOL    HW2 1719   0.757   0.799   3.090 -0.0568  0.2282 -2.5862
  574SOL     OW 1720   2.842   2.605   2.908  0.4252  0.1735 -0.2138
  574SOL    HW1 1721   2.789   2.686   2.936 -2.5122 -1.9031  1.5679
  574SOL    HW2 1722   2.891   2.563   2.991  0.3453  1.1618 -0.2869
  575SOL     OW 1723   1.044   1.906   1.267 -0.1386 -0.3711  0.3227
  575SOL    HW1 1724   1.059   1.844   1.187  2.9578  0.5965  1.9119
  575SOL    HW2 1725   1.009   1.994   1.229  2.3178 -0.2070 -0.7568
  576SOL     OW 1726   0.072   0.021   1.304 -0.1877 -0.3204  0.2647
  576SOL    HW1 1727   0.125   0.007   1.386  0.8038  2.1751 -2.4176
  576SOL    HW2 1728   3.067   3.067   1.323 -1.5709 -3.2667  0.9926
  577SOL     OW 1729   2.071   1.499   0.917 -0.3137  0.0974  0.3984
  577SOL    HW1 1730   2.049   1.400   0.917  1.0022 -0.0516 -1.7170
  577SOL    HW2 1731   2.151   1.528   0.866 -1.3061 -0.7922  0.4613
  578SOL     OW 1732   1.481   0.032   0.117 -0.6563  0.3816 -0.5508
  578SOL    HW1 1733   1.401   3.068   0.088  2.1969 -2.3457 -0.1911
  578SOL    HW2 1734   1.551   3.071   0.167  0.0373 -1.2104 -1.4404
  579SOL     OW 1735   2.935   1.634   2.366  0.1127  0.2510  0.0382
  579SOL    HW1 1736   2.950   1.700   2.442 -0.9087  1.3436  2.3949
  579SOL    HW2 1737   2.844   1.589   2.379  1.4360 -0.1571  1.6499
  580SOL     OW 1738   1.472   0.800   1.510  0.0970  0.5928  0.2047
  580SOL    HW1 1739   1.441   0.841   1.593 -0.6709 -1.3595 -2.6550
  580SOL    HW2 1740   1.476   0.697   1.519 -1.9409 -2.1721  0.6611
  581SOL     OW 1741   0.859   1.384   1.515 -0.3704 -0.3516 -0.2658
  581SOL    HW1 1742   0.818   1.447   1.445  3.5650 -0.1506  1.3875
  581SOL    HW2 1743   0.895   1.428   1.596  2.2748 -1.8087  1.0701
  582SOL     OW 1744   0.008   3.042   2.001  0.0985 -0.3478  0.3177
  582SOL    HW1 1745   0.003   3.068   2.100  1.6287 -1.9229  1.0034
  582SOL    HW2 1746   3.010   3.015   1.964  1.3710 -0.1516 -0.6644
  583SOL     OW 1747   2.104   0.777   1.479  0.0398 -0.9905 -0.1135
  583SOL    HW1 1748   2.116   0.701   1.549  3.4455 -2.0207  1.5128
  583SOL    HW2 1749   2.200   0.804   1.462 -0.9572 -2.6256 -1.6403
  584SOL     OW 1750   1.534   2.092   2.914 -0.1309 -0.1699  0.8009
  584SOL    HW1 1751   1.519   2.007   2.855  3.3551 -1.5446  1.4534
  584SOL    HW2 1752   1.479   2.169   2.879  3.0876 -0.3594  0.5475
  585SOL     OW 1753   0.618   2.824   0.275  0.3157  0.4324 -0.0251
  585SOL    HW1 1754   0.530   2.794   0.324 -1.4469 -1.6762  1.1692
  585SOL    HW2 1755   0.633   2.783   0.185 -0.3884  0.0003 -0.1139
  586SOL     OW 1756   1.678   2.264   2.480  0.2127  0.7713 -0.0313
  586SOL    HW1 1757   1.693   2.204   2.560  3.0484  1.3947 -0.6478
  586SOL    HW2 1758   1.634   2.215   2.402  3.1527  0.7415 -1.2298
  587SOL     OW 1759   2.661   1.869   0.570  0.1813 -0.5684 -0.2862
  587SOL    HW1 1760   2.616   1.890   0.483 -1.0950 -2.3911 -1.0321
  587SOL    HW2 1761   2.625   1.929   0.647  0.3930 -1.1631  0.6688
  588SOL     OW 1762   2.185   0.280   1.210  0.2989  0.6466  0.3199
  588SOL    HW1 1763   2.225   0.291   1.301 -0.8585  2.8952 -0.0448
  588SOL    HW2 1764   2.205   0.363   1.154 -4.1458  0.6710  1.2906
  589SOL     OW 1765   0.893   0.536   0.364 -0.2116  0.4431 -0.4072
  589SOL    HW1 1766   0.954   0.464   0.409 -1.5144 -0.8697  1.2315
  589SOL    HW2 1767   0.936   0.565   0.275 -0.8397 -0.0002 -0.3782
  590SOL     OW 1768   2.354   1.540   0.378  0.3483  0.1977 -0.1563
  590SOL    HW1 1769   2.434   1.530   0.311  1.2790 -0.6701  0.2135
  590SOL    HW2 1770   2.394   1.537   0.469  0.5986 -3.4162 -2.5335
  591SOL     OW 1771   0.163   2.732   1.265  0.3856  0.3815  0.4205
  591SOL    HW1 1772   0.154   2.806   1.197  0.2519 -0.0104 -1.0883
  591SOL    HW2 1773   0.202   2.643   1.223  2.8263  0.8302  0.9097
  592SOL     OW 1774   0.711   0.944   1.401 -0.3450 -0.1790 -0.3266
  592SOL    HW1 1775   0.681   1.037   1.428 -0.0823 -2.0684 -1.2165
  592SOL    HW2 1776   0.804   0.912   1.438  1.1608 -1.5249 -0.6776
  593SOL     OW 1777   0.719   1.328   1.145  0.0088 -0.4028  0.6586
  593SOL    HW1 1778   0.798   1.316   1.080 -1.1391 -1.8521  0.8954
  593SOL    HW2 1779   0.727   1.413   1.200 -0.7232 -1.0101  1.3317
  594SOL     OW 1780   0.857   1.943   0.161  0.7837  0.1198  0.1727
  594SOL    HW1 1781   0.788   1.885   0.210  1.0907 -0.6910  3.3083
  594SOL    HW2 1782   0.946   1.916   0.194  2.0767  3.1470  1.8619
  595SOL     OW 1783   1.372   0.268   1.200 -0.3897 -0.6586  0.1353
  595SOL    HW1 1784   1.276   0.294   1.223  0.4732  1.4343  0.5149
  595SOL    HW2 1785   1.388   0.233   1.105  0.5385  0.4297 -1.9224
  596SOL     OW 1786   2.923   1.586   0.966  0.7138 -0.2366 -0.1204
  596SOL    HW1 1787   3.019   1.604   1.008  1.7565  0.6368  3.2085
  596SOL    HW2 1788   2.927   1.505   0.899  0.6935 -1.5676 -1.4851
  597SOL     OW 1789   0.130   2.540   2.699  0.0135  0.5894  0.1613
  597SOL    HW1 1790   0.039   2.578   2.699  0.0188 -1.3821 -0.2609
  597SOL    HW2 1791   0.171   2.560   2.790 -1.1648  2.6498 -0.1119
  598SOL     OW 1792   2.651   2.160   2.274 -0.2282 -0.3520 -0.0223
  598SOL    HW1 1793   2.726   2.092   2.292 -2.6014  0.6734 -1.3373
  598SOL    HW2 1794   2.635   2.222   2.354 -0.6485 -1.2010  0.3682
  599SOL     OW 1795   0.838   0.355   0.035  0.0815 -0.0106  0.7150
  599SOL    HW1 1796   0.734   0.375   0.019 -4.8640 -3.0739 -1.3245
  599SOL    HW2 1797   0.885   0.444   0.050 -2.5125 -1.6142 -0.1545
  600SOL     OW 1798   0.710   2.613   0.467  0.4013 -0.4637 -0.0797
  600SOL    HW1 1799   0.696   2.660   0.378 -2.2794 -1.5821  0.2468
  600SOL    HW2 1800   0.631   2.556   0.495  1.2064  0.9587  1.2446
  601SOL     OW 1801   0.520   0.741   1.413 -0.1986  0.4845 -0.3590
  601SOL    HW1 1802   0.587   0.811   1.399 -3.1283  1.2025  1.0708
  601SOL    HW2 1803   0.478   0.711   1.326  1.6169 -1.6991 -2.1269
  602SOL     OW 1804   0.460   2.695   0.813  0.3994  0.2694 -0.2800
  602SOL    HW1 1805   0.510   2.604   0.801 -0.1301  0.4101 -3.5345
  602SOL    HW2 1806   0.467   2.726   0.910 -0.2887 -0.0125 -1.3955
  603SOL     OW 1807   1.030   3.045   2.184 -0.0654  0.2677  0.0069
  603SOL    HW1 1808   1.070   2.969   2.130  2.0397 -1.4568 -1.2787
  603SOL    HW2 1809   0.933   3.056   2.159  1.6823  0.2637  0.1292
  604SOL     OW 1810   0.822   2.490   1.834  0.0108  0.3522 -0.3690
  604SOL    HW1 1811   0.751   2.424   1.805  1.8120  0.2351 -3.0991
  604SOL    HW2 1812   0.778   2.555   1.892  0.3665 -1.6990 -1.8968
  605SOL     OW 1813   1.919   0.686   2.086  0.1350  0.8327  0.0063
  605SOL    HW1 1814   1.963   0.746   2.016 -1.3796 -1.6646 -0.1830
  605SOL    HW2 1815   1.901   0.747   2.165  0.0974  0.5315 -0.0707
  606SOL     OW 1816   2.376   3.085   2.700 -0.5344  0.4694  0.7857
  606SOL    HW1 1817   2.349   0.004   2.803 -2.1298 -1.0156 -0.1321
  606SOL    HW2 1818   2.433   0.069   2.663 -2.0183  1.0675 -0.0499
  607SOL     OW 1819   0.854   0.562   1.448  0.4685 -0.3943 -0.1694
  607SOL    HW1 1820   0.816   0.568   1.353  1.3634  2.7930 -0.8818
  607SOL    HW2 1821   0.780   0.586   1.516 -1.0321 -0.3474  2.0073
  608SOL     OW 1822   0.176   1.809   2.665  0.2435 -0.1794 -0.0584
  608SOL    HW1 1823   0.172   1.911   2.688  0.3742 -0.1907  0.7309
  608SOL    HW2 1824   0.238   1.760   2.733  0.3910  1.0741  3.2149
  609SOL     OW 1825   1.606   0.918   0.325  0.1341  0.1676 -0.3669
  609SOL    HW1 1826   1.577   0.836   0.372 -1.8754  2.3971  1.3238
  609SOL    HW2 1827   1.538   0.995   0.349 -0.0459  2.2554  0.9677
  610SOL     OW 1828   0.579   0.331   1.409 -0.3410 -0.7404 -0.5956
  610SOL    HW1 1829   0.626   0.336   1.497 -1.3903 -2.0334 -1.7876
  610SOL    HW2 1830   0.620   0.385   1.329  1.8780  2.3757  2.0080
  611SOL     OW 1831   1.418   0.370   0.677  1.0194 -0.4382 -0.4157
  611SOL    HW1 1832   1.475   0.452   0.702 -1.8749 -2.0229  0.8590
  611SOL    HW2 1833   1.450   0.329   0.587 -0.1833 -0.0575 -0.1599
  612SOL     OW 1834   1.673   0.750   0.093  0.1880  0.2274 -0.1148
  612SOL    HW1 1835   1.693   0.842   0.129  2.1325 -1.4662 -0.7456
  612SOL    HW2 1836   1.759   0.696   0.087 -3.4766  0.7024 -1.0554
  613SOL     OW 1837   2.352   0.578   0.538 -0.5852  0.2005  0.3968
  613SOL    HW1 1838   2.253   0.595   0.539  2.7768  0.2070 -0.0836
  613SOL    HW2 1839   2.365   0.478   0.526 -0.2547 -1.2103 -0.5192
  614SOL     OW 1840   2.644   0.152   2.077 -0.0174  0.4399 -0.3896
  614SOL    HW1 1841   2.641   0.061   2.034  2.0552  0.8156 -2.4510
  614SOL    HW2 1842   2.739   0.180   2.093  2.9296  0.0629 -0.5199
  615SOL     OW 1843   0.678   1.974   1.108 -0.6610 -0.2195 -0.3281
  615SOL    HW1 1844   0.669   2.009   1.203 -0.0786  0.5128 -0.5579
  615SOL    HW2 1845   0.590   1.938   1.076 -0.0328  2.5261 -1.1879
  616SOL     OW 1846   1.703   1.720   2.571  0.0605  0.4222  0.0522
  616SOL    HW1 1847   1.673   1.637   2.622  1.2204  0.7866 -2.7098
  616SOL    HW2 1848   1.801   1.708   2.555 -1.7805 -0.6978  0.8653
  617SOL     OW 1849   1.718   0.008   2.854 -0.3688 -0.5128  0.1862
  617SOL    HW1 1850   1.706   3.005   2.898  0.2470 -2.2927  0.6495
  617SOL    HW2 1851   1.628   0.038   2.821  0.8797  0.3730 -0.5780
  618SOL     OW 1852   1.348   2.265   2.795 -0.3149 -0.0191  0.5132
  618SOL    HW1 1853   1.270   2.215   2.761  1.2759 -1.8871  0.2171
  618SOL    HW2 1854   1.315   2.364   2.808 -1.0151  4.0018 -1.1003
  619SOL     OW 1855   2.411   1.464   0.651 -0.1447  0.3912 -0.3920
  619SOL    HW1 1856   2.506   1.499   0.645 -1.9694  1.3690  1.4059
  619SOL    HW2 1857   2.405   1.372   0.693  1.3199  0.2899  1.6017
  620SOL     OW 1858   2.133   2.844   2.294  0.4708 -0.3451 -0.1278
  620SOL    HW1 1859   2.051   2.886   2.335 -0.8809  1.2403 -0.5400
  620SOL    HW2 1860   2.217   2.897   2.319  0.2530  0.7708 -1.5510
  621SOL     OW 1861   2.934   1.380   0.573  0.0714 -0.3105 -0.1289
  621SOL    HW1 1862   2.893   1.370   0.668  0.4986  0.6164  0.9099
  621SOL    HW2 1863   2.948   1.484   0.560  1.2804  1.7083  1.6686
  622SOL     OW 1864   1.481   1.866   2.200 -0.4152 -0.0454 -0.0227
  622SOL    HW1 1865   1.404   1.842   2.259 -1.4027 -0.9407  0.0387
  622SOL    HW2 1866   1.556   1.795   2.212  1.5418 -0.7301  1.0557
  623SOL     OW 1867   0.734   2.675   2.304 -0.4710 -0.1129  0.5325
  623SOL    HW1 1868   0.741   2.774   2.285 -0.6974 -1.0347  0.5640
  623SOL    HW2 1869   0.780   2.647   2.387 -2.9064 -2.3467 -2.0395
  624SOL     OW 1870   0.743   2.650   2.811 -0.2467  0.1111  0.3507
  624SOL    HW1 1871   0.802   2.563   2.827  0.0810 -1.7761 -0.2043
  624SOL    HW2 1872   0.807   2.725   2.793 -0.2212 -0.9207  2.3668
  625SOL     OW 1873   0.248   2.021   2.201 -0.1970 -0.3646 -0.5368
  625SOL    HW1 1874   0.256   2.120   2.174 -1.2142  2.8637 -3.2486
  625SOL    HW2 1875   0.154   2.015   2.244 -1.5478  1.2100 -1.0742
  626SOL     OW 1876   3.077   0.085   2.954 -0.2779 -0.3474  0.1334
  626SOL    HW1 1877   3.057   0.150   3.031 -0.2212 -1.2490  2.2806
  626SOL    HW2 1878   0.003   0.131   2.864  1.9119 -1.0689  1.6735
  627SOL     OW 1879   2.155   1.766   3.091 -0.4286  0.1971  0.0596
  627SOL    HW1 1880   2.236   1.823   3.071 -0.3615 -2.5352  4.3327
  627SOL    HW2 1881   2.099   1.755   3.007  0.6027 -0.6584 -0.3739
  628SOL     OW 1882   1.533   1.605   2.939 -0.1023 -0.3585  0.5050
  628SOL    HW1 1883   1.572   1.558   2.859  0.0448 -0.6132 -0.3070
  628SOL    HW2 1884   1.582   1.580   3.023  0.1710  1.2731 -4.0442
  629SOL     OW 1885   0.181   0.317   1.731 -0.3859  0.0135 -0.1126
  629SOL    HW1 1886   0.281   0.341   1.753 -0.5706 -0.3536  0.1059
  629SOL    HW2 1887   0.142   0.370   1.650 -1.2021 -0.5354 -2.0023
  630SOL     OW 1888   2.330   1.049   1.739  0.2003 -0.2613 -0.5661
  630SOL    HW1 1889   2.250   1.110   1.765 -0.1204 -1.4098  0.6813
  630SOL    HW2 1890   2.343   0.990   1.822 -0.0472 -1.9042  0.0468
  631SOL     OW 1891   1.783   0.143   0.851  0.1302  0.1032 -0.1359
  631SOL    HW1 1892   1.839   0.147   0.935  2.4344 -0.8885 -0.2352
  631SOL    HW2 1893   1.825   0.080   0.782 -1.2882  1.0776 -0.3017
  632SOL     OW 1894   2.777   0.764   1.964 -0.2823 -0.1044  0.3547
  632SOL    HW1 1895   2.780   0.827   1.882 -0.5619  0.6698 -0.6170
  632SOL    HW2 1896   2.722   0.811   2.037 -2.8161 -2.1331 -1.6869
  633SOL     OW 1897   0.679   0.493   2.696 -0.1620  0.2540  0.7975
  633SOL    HW1 1898   0.720   0.413   2.747  1.9401 -0.7630  1.3262
  633SOL    HW2 1899   0.747   0.567   2.675 -2.6792  0.4815 -2.5381
  634SOL     OW 1900   0.485   2.738   2.791 -0.6219  0.3289  0.1885
  634SOL    HW1 1901   0.569   2.683   2.799 -1.9561  2.2966  1.2663
  634SOL    HW2 1902   0.417   2.704   2.726  1.7330 -0.4038 -0.4567
  635SOL     OW 1903   3.079   1.188   1.172 -0.8808 -0.3823  0.4027
  635SOL    HW1 1904   3.044   1.273   1.124  1.3581 -1.9871 -0.9599
  635SOL    HW2 1905   0.041   1.127   1.106  0.6699  0.7808  0.7537
  636SOL     OW 1906   3.070   1.293   0.117  0.0536 -0.5979 -0.1914
  636SOL    HW1 1907   2.982   1.345   0.127 -0.0669  1.4326  0.8534
  636SOL    HW2 1908   3.054   1.210   0.056  1.8474 -0.8693 -0.2152
  637SOL     OW 1909   0.235   2.743   0.118 -0.8278  0.1206 -0.3067
  637SOL    HW1 1910   0.231   2.647   0.152 -2.0236 -1.0647 -3.0748
  637SOL    HW2 1911   0.181   2.810   0.167 -0.9553  1.4112  0.7523
  638SOL     OW 1912   2.893   2.427   0.605 -0.0104  0.2957 -0.5494
  638SOL    HW1 1913   2.932   2.335   0.643  2.6679 -0.5293  0.5006
  638SOL    HW2 1914   2.814   2.464   0.661 -1.7494  1.6532 -0.5174
  639SOL     OW 1915   1.145   1.060   0.279 -0.1304 -0.5487  0.8465
  639SOL    HW1 1916   1.118   1.135   0.215  5.3711 -1.4139 -0.1546
  639SOL    HW2 1917   1.205   0.991   0.236  1.3431 -2.1558 -0.2994
  640SOL     OW 1918   1.891   2.565   1.522  0.0996  0.1547  0.0600
  640SOL    HW1 1919   1.810   2.507   1.531 -2.7557 -0.8428 -1.3207
  640SOL    HW2 1920   1.967   2.521   1.472  0.3123  0.6764  0.5419
  641SOL     OW 1921   0.019   0.161   0.823  0.0071  0.0572 -0.4213
  641SOL    HW1 1922   0.029   0.233   0.754  0.8221 -1.2860  1.0603
  641SOL    HW2 1923   3.016   0.141   0.844  2.4321  1.1077 -1.7868
  642SOL     OW 1924   1.363   0.950   1.701 -0.3836  0.0939  0.1859
  642SOL    HW1 1925   1.386   0.932   1.796 -5.0365 -1.1293 -0.3631
  642SOL    HW2 1926   1.360   1.051   1.677  0.6506  1.3474 -1.2074
  643SOL     OW 1927   0.881   2.225   2.456 -0.6107  0.0608 -0.2790
  643SOL    HW1 1928   0.957   2.293   2.467  0.8090 -1.5734 -0.2952
  643SOL    HW2 1929   0.835   2.249   2.375  4.4930 -1.1052  6.6640
  644SOL     OW 1930   1.196   2.507   2.771 -0.1197 -0.1055  0.7628
  644SOL    HW1 1931   1.189   2.523   2.873  0.7930  0.9762 -0.1070
  644SOL    HW2 1932   1.173   2.595   2.719 -2.4329 -2.3608 -3.0196
  645SOL     OW 1933   1.539   1.259   1.833 -0.1839 -0.1423 -0.1116
  645SOL    HW1 1934   1.601   1.339   1.819  0.8742  1.4870  0.4179
  645SOL    HW2 1935   1.551   1.194   1.750 -0.8968 -1.1666 -0.7442
  646SOL     OW 1936   0.786   3.039   3.041 -0.0699 -0.4702 -0.2299
  646SOL    HW1 1937   0.730   2.954   3.038 -1.0480 -1.2729  0.6489
  646SOL    HW2 1938   0.728   0.035   3.043 -0.2763  2.9352  1.1879
  647SOL     OW 1939   0.901   2.996   0.644  0.2092  0.0146 -0.0677
  647SOL    HW1 1940   0.820   2.942   0.620 -0.0812 -0.0443 -0.3422
  647SOL    HW2 1941   0.895   3.044   0.735  4.7109  1.0791  0.8242
  648SOL     OW 1942   2.814   2.743   1.118  0.2784 -0.1703  0.3077
  648SOL    HW1 1943   2.762   2.829   1.093 -0.3048  1.8401 -0.2340
  648SOL    HW2 1944   2.784   2.696   1.203  0.5391 -2.0500 -1.6223
  649SOL     OW 1945   0.818   2.132   3.054 -0.2102 -0.5539 -0.1697
  649SOL    HW1 1946   0.773   2.081   2.977  1.0952 -1.6029  0.7476
  649SOL    HW2 1947   0.856   2.062   0.031  1.2416 -1.6527  0.2405
  650SOL     OW 1948   2.264   1.870   2.010  0.3044  0.3263  0.2079
  650SOL    HW1 1949   2.222   1.916   2.090  0.2659  0.1104 -3.4938
  650SOL    HW2 1950   2.301   1.938   1.940  3.0009  1.5546 -1.4527
  651SOL     OW 1951   2.812   2.861   2.334 -0.0890  0.7482 -0.6994
  651SOL    HW1 1952   2.913   2.861   2.342  0.4692 -1.0591  0.8838
  651SOL    HW2 1953   2.789   2.804   2.253 -0.6964 -0.6538  2.5665
  652SOL     OW 1954   2.935   1.918   0.532  0.0100 -0.1294 -0.7887
  652SOL    HW1 1955   3.020   1.911   0.583 -1.5067  0.4352  0.8725
  652SOL    HW2 1956   2.848   1.913   0.587 -1.7779  0.9049  1.0991
  653SOL     OW 1957   2.493   0.995   1.014 -0.5582  0.3914  0.8986
  653SOL    HW1 1958   2.473   0.911   1.064  1.7276 -0.5871 -1.7395
  653SOL    HW2 1959   2.547   0.977   0.930 -1.6325 -0.4855  2.0933
  654SOL     OW 1960   0.780   0.266   2.814  0.1578  0.3864  0.1943
  654SOL    HW1 1961   0.876   0.277   2.845  0.9006 -0.4469 -0.0939
  654SOL    HW2 1962   0.726   0.206   2.877 -2.0235 -2.7448 -0.1741
  655SOL     OW 1963   0.821   0.302   1.568  0.4310  0.4696 -0.3428
  655SOL    HW1 1964   0.844   0.365   1.493  1.0974 -0.8848 -0.3925
  655SOL    HW2 1965   0.817   0.206   1.531  1.0582  2.4833  3.4996
  656SOL     OW 1966   0.270   2.662   2.124  0.1320 -0.4369  0.0089
  656SOL    HW1 1967   0.348   2.612   2.092 -2.7224  0.3633  4.4967
  656SOL    HW2 1968   0.245   2.728   2.051 -0.7631 -3.4864  0.9305
  657SOL     OW 1969   2.273   0.511   0.199 -0.1623  0.0341 -0.1497
  657SOL    HW1 1970   2.233   0.517   0.294  2.5642  0.1151  1.6521
  657SOL    HW2 1971   2.324   0.594   0.168  1.1191 -2.2500  0.6904
  658SOL     OW 1972   2.073   1.765   1.077  0.5950  0.4885  0.5649
  658SOL    HW1 1973   2.134   1.758   1.159  1.5017 -1.5263  3.5159
  658SOL    HW2 1974   2.103   1.700   1.004 -0.2697  1.2480  1.5089
  659SOL     OW 1975   2.600   2.161   2.842  0.0386  0.1272  0.0613
  659SOL    HW1 1976   2.608   2.266   2.841  0.6852  0.4969  0.9925
  659SOL    HW2 1977   2.679   2.129   2.902  0.2308  0.3876  0.8354
  660SOL     OW 1978   1.054   0.198   3.074 -0.0490 -0.1715  0.0603
  660SOL    HW1 1979   1.144   0.222   0.031 -0.0473  0.7892  0.6785
  660SOL    HW2 1980   0.976   0.260   0.013  1.0047  1.5598 -0.8365
  661SOL     OW 1981   2.298   0.180   0.370  0.6478 -0.6431 -0.4948
  661SOL    HW1 1982   2.226   0.125   0.319 -0.4649  0.2692  1.4271
  661SOL    HW2 1983   2.348   0.238   0.301 -1.2164 -0.4962 -2.5187
  662SOL     OW 1984   0.499   0.147   1.042  0.1300 -0.2164  0.2308
  662SOL    HW1 1985   0.520   0.079   0.969 -0.7617 -0.8393  0.6779
  662SOL    HW2 1986   0.405   0.180   1.040  0.6880  0.4721  2.0522
  663SOL     OW 1987   1.341   0.249   2.428 -0.0859 -0.4154 -0.4699
  663SOL    HW1 1988   1.288   0.214   2.350  1.6220 -0.2980  2.2303
  663SOL    HW2 1989   1.389   0.331   2.403 -2.2712 -2.9598  2.2990
  664SOL     OW 1990   0.776   2.685   1.449  0.1405 -0.4137  0.2360
  664SOL    HW1 1991   0.725   2.598   1.473  2.4995 -1.6902 -0.7012
  664SOL    HW2 1992   0.766   2.756   1.519 -2.1395 -0.9840 -0.4381
  665SOL     OW 1993   0.981   2.342   2.037  0.0119 -0.1822 -0.3638
  665SOL    HW1 1994   0.931   2.376   1.955  1.5212  2.3144  1.6824
  665SOL    HW2 1995   1.083   2.345   2.024  1.5516  1.0652 -1.2000
  666SOL     OW 1996   0.295   2.982   2.536  0.1941 -0.0686  0.0948
  666SOL    HW1 1997   0.255   2.935   2.455  0.3571 -0.1638 -0.7707
  666SOL    HW2 1998   0.308   2.922   2.615 -0.2740  2.8890 -1.2004
  667SOL     OW 1999   1.615   1.539   1.530 -0.6852 -0.1355  0.0632
  667SOL    HW1 2000   1.515   1.524   1.543  0.9673  2.1106 -0.0900
  667SOL    HW2 2001   1.666   1.474   1.462  1.8750 -1.4279 -1.8602
  668SOL     OW 2002   1.468   0.478   1.499 -0.1013 -0.1376  0.2036
  668SOL    HW1 2003   1.412   0.403   1.461 -1.4207 -1.6739  2.0562
  668SOL    HW2 2004   1.438   0.495   1.597  0.2683  0.6768  0.4815
  669SOL     OW 2005   2.636   2.389   1.455  0.0238 -0.2544  0.2313
  669SOL    HW1 2006   2.610   2.354   1.365 -0.0329  0.8218  1.2966
  669SOL    HW2 2007   2.557   2.386   1.522 -0.5138  0.1613  2.0774
  670SOL     OW 2008   1.661   2.406   2.816  0.0157 -0.8419  0.0193
  670SOL    HW1 2009   1.631   2.376   2.910 -0.0163  0.2223  0.4624
  670SOL    HW2 2010   1.589   2.391   2.750  3.1068 -0.0103  1.9165
  671SOL     OW 2011   0.988   0.963   0.500  0.5252  0.3367  0.2586
  671SOL    HW1 2012   1.064   0.997   0.553 -2.6654 -0.4964  1.1937
  671SOL    HW2 2013   1.019   0.958   0.402  0.5369 -1.6058 -1.2882
  672SOL     OW 2014   0.177   1.051   2.453 -0.8850  0.2105  0.4128
  672SOL    HW1 2015   0.132   1.066   2.543  0.7360  0.5921 -0.6732
  672SOL    HW2 2016   0.161   0.954   2.423 -1.8987  0.9075 -0.0353
  673SOL     OW 2017   2.970   1.970   1.458  0.3039  0.0908  0.0110
  673SOL    HW1 2018   2.959   2.068   1.480  2.0853  1.2939  0.0593
  673SOL    HW2 2019   2.994   1.908   1.538  1.7366 -0.9578  1.9714
  674SOL     OW 2020   0.481   2.492   2.076  0.3195 -0.1893 -1.0031
  674SOL    HW1 2021   0.442   2.483   1.983 -2.6931 -0.7333  1.5633
  674SOL    HW2 2022   0.507   2.400   2.106  1.9916  0.4781 -1.0073
  675SOL     OW 2023   0.887   1.086   1.737  0.6894 -0.5352 -0.2720
  675SOL    HW1 2024   0.873   0.987   1.749  1.0789 -0.3093 -3.3978
  675SOL    HW2 2025   0.983   1.108   1.704  0.1215 -1.4995  1.2553
  676SOL     OW 2026   2.239   0.554   1.180  0.3167 -0.2391 -0.2372
  676SOL    HW1 2027   2.183   0.634   1.210 -2.6579  0.1580 -0.1714
  676SOL    HW2 2028   2.324   0.549   1.234  0.4483  3.2895  1.7285
  677SOL     OW 2029   2.616   1.459   2.885 -0.2996  0.3262 -0.5762
  677SOL    HW1 2030   2.573   1.365   2.905 -1.2156 -2.6182 -1.3546
  677SOL    HW2 2031   2.712   1.455   2.915 -1.6190  0.2038 -2.7394
  678SOL     OW 2032   2.714   0.950   1.248  0.6052  0.2043  0.5571
  678SOL    HW1 2033   2.807   0.971   1.275 -1.1330 -1.0209 -3.6494
  678SOL    HW2 2034   2.662   1.037   1.237  0.0562  0.8740 -0.8654
  679SOL     OW 2035   2.460   0.302   0.187  0.2469  0.5603  0.1270
  679SOL    HW1 2036   2.556   0.324   0.204  0.7504 -0.9033 -1.9306
  679SOL    HW2 2037   2.404   0.386   0.159 -1.0522  0.0786 -1.1833
  680SOL     OW 2038   0.134   1.718   1.988  0.0137  0.4158  0.0382
  680SOL    HW1 2039   0.199   1.719   2.064 -0.7639  0.9677  0.1218
  680SOL    HW2 2040   0.039   1.742   2.022  2.5149 -1.0574 -0.5608
  681SOL     OW 2041   2.371   2.225   1.174  0.4767 -0.1573 -0.5236
  681SOL    HW1 2042   2.303   2.303   1.173 -2.2450  2.2523  0.2285
  681SOL    HW2 2043   2.333   2.149   1.115 -1.9095  1.2589 -0.5510
  682SOL     OW 2044   0.191   1.931   3.020 -0.3810  0.1988 -0.0271
  682SOL    HW1 2045   0.116   1.872   3.007  2.7632  3.3272 -1.0059
  682SOL    HW2 2046   0.270   1.883   2.987 -1.0742  1.4853  0.4694
  683SOL     OW 2047   0.150   2.210   1.520 -0.6005 -0.0268 -0.0697
  683SOL    HW1 2048   0.207   2.249   1.445 -0.9493 -1.7077  1.0053
  683SOL    HW2 2049   0.053   2.224   1.496  4.4013  0.6377 -0.2708
  684SOL     OW 2050   3.013   1.224   2.283 -0.4725  0.6151 -0.9758
  684SOL    HW1 2051   3.066   1.308   2.268  2.3059  1.0853  1.1461
  684SOL    HW2 2052   2.976   1.223   2.382 -0.1814 -1.6976  4.2653
  685SOL     OW 2053   1.453   1.076   0.669  0.6176 -0.3658  0.4190
  685SOL    HW1 2054   1.435   1.155   0.731  0.3382 -1.4635 -2.0538
  685SOL    HW2 2055   1.529   1.022   0.706  1.6578  2.5345 -1.4296
  686SOL     OW 2056   0.512   0.220   0.668 -0.1407  0.1268 -0.0045
  686SOL    HW1 2057   0.530   0.145   0.733  0.9707  0.9268  0.3045
  686SOL    HW2 2058   0.509   0.195   0.569 -1.1835  0.8554  0.6108
  687SOL     OW 2059   1.123   2.121   2.725 -0.2130 -0.4400 -0.2911
  687SOL    HW1 2060   1.113   2.181   2.809 -0.3903  1.6462  0.7947
  687SOL    HW2 2061   1.038   2.088   2.681 -1.6621  0.7211 -2.7553
  688SOL     OW 2062   1.467   1.225   1.342 -0.2639 -0.6377 -0.3147
  688SOL    HW1 2063   1.498   1.304   1.283  0.1719  1.0597 -1.5099
  688SOL    HW2 2064   1.394   1.253   1.403  0.0332  1.7852  0.1555
  689SOL     OW 2065   2.063   0.199   0.556 -0.2598  0.9379 -0.3342
  689SOL    HW1 2066   2.158   0.221   0.534 -0.3626  1.6962  0.2240
  689SOL    HW2 2067   2.010   0.284   0.564 -0.4805  3.9705  0.5746
  690SOL     OW 2068   0.086   1.387   0.873 -0.4275 -0.4625 -0.1843
  690SOL    HW1 2069   0.060   1.298   0.835 -0.9833  0.6389  0.1605
  690SOL    HW2 2070   0.080   1.470   0.813 -0.9328  0.6096  2.9008
  691SOL     OW 2071   0.294   2.026   1.164 -0.2946  0.2127 -0.2544
  691SOL    HW1 2072   0.210   1.978   1.196 -0.7341 -1.3783  2.2779
  691SOL    HW2 2073   0.279   2.124   1.160 -0.5393 -0.4970 -0.0720
  692SOL     OW 2074   1.985   0.552   1.354  0.2673  0.3259  0.2680
  692SOL    HW1 2075   2.000   0.638   1.408 -0.4731 -1.6626  0.1839
  692SOL    HW2 2076   2.056   0.481   1.368  0.2095 -0.0015  1.0011
  693SOL     OW 2077   0.600   1.811   2.124 -0.2072  0.0167  0.5929
  693SOL    HW1 2078   0.655   1.730   2.098  1.5965  0.6661  1.5196
  693SOL    HW2 2079   0.655   1.875   2.174 -1.5262 -0.2077  0.9643
  694SOL     OW 2080   1.703   1.634   0.987  0.3332  0.3688  0.2641
  694SOL    HW1 2081   1.628   1.700   1.010  2.0632 -0.1910  0.9565
  694SOL    HW2 2082   1.770   1.676   0.924 -0.2239  0.7964 -1.8583
  695SOL     OW 2083   1.231   0.901   0.622  0.5073 -0.0030 -0.5543
  695SOL    HW1 2084   1.298   0.972   0.651  1.2856  0.7466 -2.0720
  695SOL    HW2 2085   1.199   0.846   0.700 -0.4616  1.5080  2.3909
  696SOL     OW 2086   0.673   3.081   0.282 -0.5539 -0.1978  0.1434
  696SOL    HW1 2087   0.663   2.983   0.280  0.5772  2.5529 -0.4102
  696SOL    HW2 2088   0.707   0.020   0.188  0.4460  0.9327 -0.5420
  697SOL     OW 2089   1.720   0.819   1.090  0.8432 -0.2192 -0.1280
  697SOL    HW1 2090   1.740   0.727   1.134  1.5198 -1.6279  1.0809
  697SOL    HW2 2091   1.679   0.887   1.156 -1.1241 -1.4279 -0.4110
  698SOL     OW 2092   1.735   1.440   2.059  0.1626 -0.0212  0.3987
  698SOL    HW1 2093   1.652   1.495   2.030 -2.4917 -3.2505  1.3238
  698SOL    HW2 2094   1.822   1.494   2.060  0.1964  1.8091 -0.1781
  699SOL     OW 2095   2.590   0.340   1.877  0.1239  0.6136 -0.6095
  699SOL    HW1 2096   2.671   0.399   1.865 -0.6687 -1.4593  0.1140
  699SOL    HW2 2097   2.608   0.273   1.952  1.9849 -0.5471  1.8295
  700SOL     OW 2098   1.372   2.216   0.532  0.0504 -0.2282 -0.5187
  700SOL    HW1 2099   1.426   2.254   0.606 -3.2004 -2.2671 -2.0435
  700SOL    HW2 2100   1.397   2.118   0.509  0.1433 -2.4662 -0.0666
  701SOL     OW 2101   2.335   2.129   2.255  0.2305 -0.5251 -0.0695
  701SOL    HW1 2102   2.426   2.126   2.221 -2.3473  0.6192  0.2951
  701SOL    HW2 2103   2.306   2.225   2.268  1.4261  0.6713  2.4078
  702SOL     OW 2104   0.579   2.948   0.569 -0.2153 -0.5127  0.4219
  702SOL    HW1 2105   0.483   2.919   0.587  0.8316  0.9229  0.5471
  702SOL    HW2 2106   0.590   2.963   0.469 -0.9571  2.5351 -2.4746
  703SOL     OW 2107   2.068   2.922   1.999 -0.1205  0.1751 -0.1879
  703SOL    HW1 2108   2.130   2.882   1.930  2.1084 -1.0558  1.5895
  703SOL    HW2 2109   2.112   2.910   2.089  0.0973 -1.9709 -0.2288
  704SOL     OW 2110   2.612   1.960   0.310  0.7337 -0.2031  0.0540
  704SOL    HW1 2111   2.550   2.033   0.351 -0.6830  0.6569  0.5374
  704SOL    HW2 2112   2.696   2.002   0.269  0.5440  1.9275  1.3246
  705SOL     OW 2113   2.781   2.417   2.210  0.3066  0.2627 -0.0117
  705SOL    HW1 2114   2.850   2.390   2.139  1.0648 -3.7107 -0.0283
  705SOL    HW2 2115   2.713   2.347   2.215  1.5716  1.7898  1.7776
  706SOL     OW 2116   2.684   0.253   0.602  0.1466  0.3418  0.2589
  706SOL    HW1 2117   2.704   0.300   0.690  1.0526 -0.0899 -0.7673
  706SOL    HW2 2118   2.765   0.215   0.552  0.7591 -0.5419 -0.5561
  707SOL     OW 2119   0.917   0.428   2.472 -0.1099  0.1057 -0.4079
  707SOL    HW1 2120   0.886   0.331   2.497 -0.4453 -2.9877 -1.3826
  707SOL    HW2 2121   0.983   0.471   2.542  2.1483  1.7236  1.2880
  708SOL     OW 2122   0.295   2.010   1.632 -0.4743  0.0940  0.3389
  708SOL    HW1 2123   0.229   2.086   1.600  1.2884  2.1604  1.7793
  708SOL    HW2 2124   0.245   1.935   1.680  0.1565  1.6970  1.2198
  709SOL     OW 2125   1.312   0.092   1.681 -0.0013  0.2079  0.2637
  709SOL    HW1 2126   1.406   0.063   1.650  0.8173 -0.1934  1.3006
  709SOL    HW2 2127   1.300   0.054   1.777  0.8629 -0.5614 -2.3780
  710SOL     OW 2128   1.686   2.753   2.477  0.5167 -0.0942  0.1477
  710SOL    HW1 2129   1.634   2.666   2.499 -1.9521 -3.6510  0.8047
  710SOL    HW2 2130   1.768   2.772   2.540  0.8784 -1.1667 -1.2613
  711SOL     OW 2131   0.859   2.035   2.652  0.3347  0.4847 -0.8618
  711SOL    HW1 2132   0.781   2.049   2.723  0.5817  1.2909  1.3698
  711SOL    HW2 2133   0.855   2.099   2.572 -1.5830 -3.4219  3.6552
  712SOL     OW 2134   1.061   2.228   2.994 -0.2190  0.3071  0.3213
  712SOL    HW1 2135   0.979   2.193   3.037  2.1698 -1.3080 -0.9445
  712SOL    HW2 2136   1.141   2.219   3.060 -0.5149  0.0285  0.9199
  713SOL     OW 2137   1.937   1.207   2.120  0.2077  0.3409 -0.0216
  713SOL    HW1 2138   1.931   1.162   2.029 -0.9871 -3.9682 -2.4782
  713SOL    HW2 2139   1.843   1.226   2.157 -1.8569 -0.5903  2.1320
  714SOL     OW 2140   1.029   1.181   2.089  0.4765 -0.6195 -0.0365
  714SOL    HW1 2141   0.927   1.182   2.093  0.5688 -0.9775  1.7309
  714SOL    HW2 2142   1.077   1.130   2.164  0.0932  0.3569  0.9445
  715SOL     OW 2143   2.702   0.406   0.328 -0.3382 -0.2788 -0.5077
  715SOL    HW1 2144   2.684   0.357   0.412  1.2213  2.3989 -2.7311
  715SOL    HW2 2145   2.736   0.499   0.350 -1.9464 -0.8521 -1.6392
  716SOL     OW 2146   3.043   2.730   1.421  0.0371 -0.1433 -0.2358
  716SOL    HW1 2147   3.046   2.637   1.466  0.0758 -1.9574  2.2287
  716SOL    HW2 2148   0.021   2.738   1.346 -0.2024 -1.4865  0.8599
  717SOL     OW 2149   2.308   0.880   0.796 -0.5089  0.3419  0.4229
  717SOL    HW1 2150   2.251   0.886   0.713 -0.7565  1.5365  1.1920
  717SOL    HW2 2151   2.387   0.814   0.781  0.3336 -0.1207  0.4930
  718SOL     OW 2152   1.544   1.484   1.212 -0.1819  1.0098 -0.5331
  718SOL    HW1 2153   1.537   1.567   1.271  0.9736 -1.1061  0.8558
  718SOL    HW2 2154   1.578   1.511   1.125 -2.1540  0.6037  1.7177
  719SOL     OW 2155   2.561   2.860   2.739  0.0783  0.0261  0.3986
  719SOL    HW1 2156   2.615   2.864   2.827 -0.3610  1.2342  1.3926
  719SOL    HW2 2157   2.492   2.932   2.732  1.6692 -1.2668 -1.2207
  720SOL     OW 2158   0.920   0.284   0.827  0.0436  0.5531  0.9962
  720SOL    HW1 2159   0.859   0.308   0.744  1.1211 -0.2303 -0.1577
  720SOL    HW2 2160   0.994   0.221   0.802  2.2490 -0.7005  1.4976
  721SOL     OW 2161   2.535   0.666   0.724 -0.3099  0.1178  0.4165
  721SOL    HW1 2162   2.518   0.620   0.817 -1.7822 -2.4945  3.6440
  721SOL    HW2 2163   2.469   0.639   0.653  0.0367  2.1642  0.4872
  722SOL     OW 2164   0.927   2.094   2.142  0.1366 -0.0076  0.2230
  722SOL    HW1 2165   0.951   2.041   2.059  0.7900 -0.8623 -2.4732
  722SOL    HW2 2166   0.959   2.186   2.137 -0.2431 -2.5936  3.0177
  723SOL     OW 2167   1.350   3.059   1.290 -0.4051 -0.1066 -0.5298
  723SOL    HW1 2168   1.341   0.048   1.347  1.6780 -1.6015 -0.2227
  723SOL    HW2 2169   1.444   3.046   1.250 -0.3497 -0.0486 -0.5222
  724SOL     OW 2170   1.676   1.903   1.322  0.2745  0.1549  0.3035
  724SOL    HW1 2171   1.692   1.931   1.421 -0.7041  1.8096 -0.1367
  724SOL    HW2 2172   1.733   1.821   1.298 -0.7118 -0.1105  0.7572
  725SOL     OW 2173   1.126   2.369   1.218  0.0266 -0.4300  0.1174
  725SOL    HW1 2174   1.123   2.435   1.136  1.5218  1.6844 -0.1277
  725SOL    HW2 2175   1.100   2.274   1.191 -0.6895 -0.9737 -1.9501
  726SOL     OW 2176   1.926   2.997   0.047 -0.5780 -0.8734  0.1683
  726SOL    HW1 2177   1.870   2.945   3.067 -0.6841 -0.9126  0.3323
  726SOL    HW2 2178   1.860   3.027   0.117  0.6763  1.5081 -0.5281
  727SOL     OW 2179   1.623   1.561   0.396  0.3071 -0.4927  0.0064
  727SOL    HW1 2180   1.533   1.606   0.375 -2.2862 -0.9237  0.6544
  727SOL    HW2 2181   1.640   1.486   0.330  2.5341 -0.1713 -1.7177
  728SOL     OW 2182   1.930   2.614   1.776 -0.4847 -0.3399  1.0571
  728SOL    HW1 2183   1.913   2.615   1.673  0.1833  3.1025 -1.5001
  728SOL    HW2 2184   1.872   2.686   1.820 -0.4938  1.0508  1.7150
  729SOL     OW 2185   2.094   2.464   1.362  0.2603  0.8901 -0.2737
  729SOL    HW1 2186   2.051   2.449   1.273 -1.7563  0.9477  0.6748
  729SOL    HW2 2187   2.166   2.533   1.349 -1.0203 -3.3539 -2.1658
  730SOL     OW 2188   1.458   1.174   2.646 -0.1297 -0.7926  0.4646
  730SOL    HW1 2189   1.469   1.083   2.690  0.7399 -2.3760 -1.7532
  730SOL    HW2 2190   1.444   1.251   2.708  0.1849 -0.1492  1.3972
  731SOL     OW 2191   0.809   0.071   1.438 -0.2775 -0.6614 -0.0385
  731SOL    HW1 2192   0.734   0.048   1.368 -2.4847  2.0314 -2.2473
  731SOL    HW2 2193   0.887   0.001   1.434  2.2314  1.3132 -3.3085
  732SOL     OW 2194   1.094   2.982   1.170  0.6655  0.1206  0.2267
  732SOL    HW1 2195   1.065   2.899   1.222  2.3643 -0.3835 -2.0859
  732SOL    HW2 2196   1.159   3.048   1.213  1.1015  0.0969 -0.9295
  733SOL     OW 2197   1.198   0.999   0.923 -0.1308  0.2371  0.4416
  733SOL    HW1 2198   1.250   1.078   0.879 -1.2482  2.1665 -1.2203
  733SOL    HW2 2199   1.218   0.999   1.023  1.8774  0.2167  0.3508
  734SOL     OW 2200   2.353   2.171   0.098 -0.5330  0.1357  0.4124
  734SOL    HW1 2201   2.321   2.209   0.009 -0.4932 -2.1471  0.4510
  734SOL    HW2 2202   2.446   2.128   0.097 -0.8618  1.1478 -1.9127
  735SOL     OW 2203   0.726   0.334   1.001 -0.3714  0.2066  0.1716
  735SOL    HW1 2204   0.651   0.269   1.019 -1.5175  0.4791 -0.5052
  735SOL    HW2 2205   0.773   0.318   0.910  1.6530 -0.5904 -1.3899
  736SOL     OW 2206   1.962   2.371   2.731 -0.5054  0.1831 -0.1892
  736SOL    HW1 2207   2.037   2.351   2.800  1.8787 -3.0076  0.8569
  736SOL    HW2 2208   1.869   2.349   2.769 -2.2570  0.0268 -0.2198
  737SOL     OW 2209   0.881   2.661   1.086  0.4016 -0.0298 -0.4134
  737SOL    HW1 2210   0.938   2.663   0.999 -0.0250 -0.5392 -4.1892
  737SOL    HW2 2211   0.934   2.697   1.158 -3.4924 -1.1337 -3.3913
  738SOL     OW 2212   1.645   0.093   2.204 -0.1929  0.2442 -0.3235
  738SOL    HW1 2213   1.735   0.108   2.153  1.8619  0.7864 -1.8609
  738SOL    HW2 2214   1.655   0.029   2.284  0.3971 -2.1529 -0.7975
  739SOL     OW 2215   1.279   2.390   2.068 -0.0115 -0.1073 -0.1880
  739SOL    HW1 2216   1.292   2.469   2.133  0.2146 -1.6843 -3.5808
  739SOL    HW2 2217   1.283   2.300   2.121 -3.1545 -3.2450  1.2942
  740SOL     OW 2218   1.352   2.326   1.366  0.4542 -0.0219  0.7783
  740SOL    HW1 2219   1.258   2.338   1.332  0.8973  0.2112 -0.5045
  740SOL    HW2 2220   1.384   2.418   1.390 -0.8380 -2.2170  1.6087
  741SOL     OW 2221   2.702   1.081   0.371 -0.4615  0.7364 -0.5935
  741SOL    HW1 2222   2.723   1.180   0.353 -0.7373  1.2815  1.0591
  741SOL    HW2 2223   2.684   1.036   0.282  2.4365 -0.2027 -2.1535
  742SOL     OW 2224   0.597   1.567   2.349 -0.1277  0.4148 -0.5611
  742SOL    HW1 2225   0.645   1.649   2.385 -0.4834  0.8793  0.9551
  742SOL    HW2 2226   0.667   1.517   2.293  1.3421  2.7868  3.6234
  743SOL     OW 2227   0.130   0.792   2.404  0.4404 -0.3751  0.0368
  743SOL    HW1 2228   0.188   0.729   2.463  0.0037 -0.7034 -2.3924
  743SOL    HW2 2229   0.036   0.755   2.399 -1.0540 -1.6640  3.0981
  744SOL     OW 2230   2.522   2.425   1.209  0.1529  0.3543  0.2425
  744SOL    HW1 2231   2.460   2.344   1.202  1.8121 -0.5589 -1.0650
  744SOL    HW2 2232   2.488   2.497   1.274  2.2900 -3.3467 -1.6573
  745SOL     OW 2233   2.209   1.808   1.287 -0.0105 -0.2936 -0.4613
  745SOL    HW1 2234   2.300   1.762   1.286 -0.3121  2.0641 -2.6379
  745SOL    HW2 2235   2.222   1.906   1.318  0.0272  0.8086 -0.1479
  746SOL     OW 2236   2.135   0.949   0.577  0.4359  0.3566  0.8176
  746SOL    HW1 2237   2.051   0.889   0.566 -2.7311  1.0690  0.7080
  746SOL    HW2 2238   2.108   1.045   0.597 -1.1553 -0.0874 -2.1421
  747SOL     OW 2239   1.639   2.058   0.591  0.0100  0.3591 -0.5611
  747SOL    HW1 2240   1.719   2.109   0.550 -2.5903  0.5999  1.4708
  747SOL    HW2 2241   1.641   2.084   0.691  1.2783  1.3052  0.0636
  748SOL     OW 2242   0.866   1.875   0.565  0.2951 -0.1066 -0.9841
  748SOL    HW1 2243   0.883   1.776   0.592  0.0159  1.8751  2.1587
  748SOL    HW2 2244   0.913   1.937   0.632  1.5047  1.0841 -0.0078
  749SOL     OW 2245   2.894   0.245   2.090  0.6187 -0.0266  0.4395
  749SOL    HW1 2246   2.955   0.286   2.020 -1.8338 -1.5878  1.0492
  749SOL    HW2 2247   2.945   0.175   2.142  1.3856  0.1874 -0.3632
  750SOL     OW 2248   1.551   0.191   1.378 -0.5683 -0.1020  0.6218
  750SOL    HW1 2249   1.623   0.263   1.400  2.6220 -0.3123 -0.1279
  750SOL    HW2 2250   1.498   0.224   1.297  0.9168  1.0984  4.2381
  751SOL     OW 2251   1.722   2.858   3.000  0.4822  0.0475 -0.3703
  751SOL    HW1 2252   1.625   2.867   3.032 -2.8798  0.3003  3.0984
  751SOL    HW2 2253   1.742   2.777   2.943 -0.5899 -1.1908  1.3154
  752SOL     OW 2254   1.752   1.951   0.175  0.2562  0.5328  0.3722
  752SOL    HW1 2255   1.663   1.933   0.133  3.4221  0.6562  2.4000
  752SOL    HW2 2256   1.813   2.013   0.121 -1.2522 -2.6240  0.6064
  753SOL     OW 2257   1.848   0.843   2.279 -0.0970 -0.1527 -0.5176
  753SOL    HW1 2258   1.767   0.819   2.340  0.4430  0.3029  2.0230
  753SOL    HW2 2259   1.920   0.897   2.329 -0.0536  3.7344  0.5052
  754SOL     OW 2260   0.401   2.722   0.398  0.5769 -0.1216 -0.1429
  754SOL    HW1 2261   0.372   2.650   0.338 -0.5274 -0.4655  3.8367
  754SOL    HW2 2262   0.343   2.737   0.480  2.7508  0.5781  1.5413
  755SOL     OW 2263   2.112   0.461   0.954 -0.0299 -0.0049  0.0263
  755SOL    HW1 2264   2.165   0.527   1.016  1.2833  2.4696 -0.1316
  755SOL    HW2 2265   2.178   0.400   0.908  0.8628  1.3863  0.2348
  756SOL     OW 2266   1.102   1.583   2.631  0.3011 -0.2132  0.6797
  756SOL    HW1 2267   1.035   1.654   2.665  1.5219 -0.3278 -1.1632
  756SOL    HW2 2268   1.196   1.586   2.676  3.3398  0.6746 -0.0452
  757SOL     OW 2269   2.374   2.982   1.179 -0.0862  0.1007  0.0676
  757SOL    HW1 2270   2.394   2.882   1.161  0.4067  0.3572  1.8415
  757SOL    HW2 2271   2.274   2.996   1.172 -1.2512 -0.3876  0.5220
  758SOL     OW 2272   0.740   2.884   1.632  0.3039 -0.1940  0.0184
  758SOL    HW1 2273   0.668   2.907   1.564 -1.9830 -1.6958  1.3676
  758SOL    HW2 2274   0.772   2.970   1.679  0.7045 -0.6191  3.0182
  759SOL     OW 2275   2.391   1.191   0.775 -0.5359  0.0011  0.4676
  759SOL    HW1 2276   2.420   1.143   0.686  2.1930 -1.6568 -0.1045
  759SOL    HW2 2277   2.418   1.131   0.852 -2.4125 -1.1323  3.1993
  760SOL     OW 2278   1.943   0.994   1.405 -0.0028  0.0531  0.1123
  760SOL    HW1 2279   2.015   0.922   1.415 -0.4053 -0.0148  0.5385
  760SOL    HW2 2280   1.985   1.085   1.405 -0.5876 -0.0357  1.5335
  761SOL     OW 2281   2.086   0.076   0.230  0.9464  0.0087 -0.1533
  761SOL    HW1 2282   2.006   0.090   0.294 -0.6575  0.6321  1.8999
  761SOL    HW2 2283   2.055   0.021   0.148  0.3723 -2.1747 -0.1540
  762SOL     OW 2284   1.948   2.146   0.089 -0.3249  0.0474 -0.0321
  762SOL    HW1 2285   2.016   2.128   0.163 -0.0286 -2.1734 -1.7960
  762SOL    HW2 2286   1.940   2.248   0.073  0.1552  1.1366 -0.9201
  763SOL     OW 2287   0.732   0.987   1.114 -0.6570  0.4407  0.2625
  763SOL    HW1 2288   0.807   1.039   1.068  2.0914  2.6358  4.1983
  763SOL    HW2 2289   0.726   1.007   1.211  0.8221 -0.0856 -0.8374
  764SOL     OW 2290   2.464   2.437   3.050 -0.1022  0.3640 -0.0006
  764SOL    HW1 2291   2.475   2.424   2.952 -1.5370 -0.1539  0.7193
  764SOL    HW2 2292   2.389   2.498   3.074 -1.5452 -0.2852 -2.4605
  765SOL     OW 2293   0.974   0.461   2.222 -0.3319 -0.4190 -0.1456
  765SOL    HW1 2294   0.932   0.440   2.315 -3.3412  0.5702  0.1616
  765SOL    HW2 2295   1.075   0.472   2.236 -1.0249 -1.2666 -0.9802
  766SOL     OW 2296   0.242   1.264   2.292 -0.2829 -0.0881 -0.1727
  766SOL    HW1 2297   0.205   1.175   2.323 -0.6887 -0.3597  1.9116
  766SOL    HW2 2298   0.186   1.346   2.315 -1.6953  0.3213  0.7884
  767SOL     OW 2299   2.968   1.712   2.082 -0.4893 -0.6389 -0.6042
  767SOL    HW1 2300   2.978   1.711   2.183  0.8936 -0.7067  0.2228
  767SOL    HW2 2301   2.871   1.692   2.057 -0.9857  1.4993 -0.4647
  768SOL     OW 2302   1.031   0.943   2.808  0.3553 -0.3584 -0.4588
  768SOL    HW1 2303   0.952   0.935   2.745  0.7188 -0.4422 -0.4295
  768SOL    HW2 2304   1.075   1.032   2.787  0.2669 -0.9311 -0.6934
  769SOL     OW 2305   2.114   2.930   2.945  0.0783  0.2859 -0.1353
  769SOL    HW1 2306   2.107   2.830   2.943  0.7526 -0.9349  3.7764
  769SOL    HW2 2307   2.052   2.968   3.017 -2.1321 -1.7238 -2.0924
  770SOL     OW 2308   3.030   0.479   2.577 -0.5208 -0.0184 -0.2284
  770SOL    HW1 2309   3.028   0.549   2.505 -0.4164  0.5453  1.8295
  770SOL    HW2 2310   2.949   0.415   2.566 -1.9665 -2.0994  0.3293
  771SOL     OW 2311   1.107   2.182   1.663 -0.7676 -0.4915  0.0579
  771SOL    HW1 2312   1.212   2.194   1.646  2.9702 -0.2027 -0.9875
  771SOL    HW2 2313   1.044   2.252   1.621 -0.3623  3.3228  0.3513
  772SOL     OW 2314   0.548   0.612   2.935  0.0226  0.0020  0.4120
  772SOL    HW1 2315   0.567   0.577   2.841  0.4887 -0.9285 -3.5810
  772SOL    HW2 2316   0.469   0.673   2.931  0.0287 -1.4708  2.8743
  773SOL     OW 2317   2.609   1.149   1.743 -0.3618 -0.4241  0.0746
  773SOL    HW1 2318   2.517   1.109   1.746  1.6307  2.9189 -0.9729
  773SOL    HW2 2319   2.684   1.080   1.740 -0.1414  1.6769 -2.4021
  774SOL     OW 2320   1.258   0.651   0.467 -0.2568  0.7197  0.1478
  774SOL    HW1 2321   1.226   0.592   0.545  1.0370 -0.2105 -2.1003
  774SOL    HW2 2322   1.235   0.746   0.487  0.5436 -3.8146  0.7041
  775SOL     OW 2323   2.268   2.607   3.085 -0.1166 -0.0277 -0.5948
  775SOL    HW1 2324   2.229   2.638   2.994  0.7107  1.1225  1.0467
  775SOL    HW2 2325   2.211   2.530   0.019 -1.5614  2.1699 -1.1177
  776SOL     OW 2326   2.318   0.420   1.841  0.1869 -0.2784 -0.8443
  776SOL    HW1 2327   2.262   0.338   1.815 -0.2428  0.4231 -0.8716
  776SOL    HW2 2328   2.415   0.389   1.853  0.2814  1.4146  2.5350
  777SOL     OW 2329   0.417   1.261   2.867 -0.6310  0.0167  0.5655
  777SOL    HW1 2330   0.354   1.325   2.815 -1.9499 -0.3926 -0.5945
  777SOL    HW2 2331   0.456   1.193   2.806 -1.4948 -1.4480  0.2916
  778SOL     OW 2332   0.971   3.073   0.398 -0.0164 -0.1187 -0.0192
  778SOL    HW1 2333   0.931   0.057   0.339  1.1372 -0.1714  0.8133
  778SOL    HW2 2334   0.907   3.055   0.475 -4.4644 -0.2024  2.6530
  779SOL     OW 2335   0.442   0.943   2.462 -0.5088  0.1783  0.3457
  779SOL    HW1 2336   0.350   0.975   2.432  1.3278 -0.1375 -1.3605
  779SOL    HW2 2337   0.501   0.915   2.385  2.2390 -2.5410  1.7974
  780SOL     OW 2338   2.059   0.696   2.702  0.0913 -0.1641 -0.3276
  780SOL    HW1 2339   2.133   0.669   2.639  0.4006  0.7824  1.2911
  780SOL    HW2 2340   1.971   0.732   2.658 -0.5742  1.5603 -1.7352
  781SOL     OW 2341   2.373   1.475   1.838 -0.0138 -0.0675 -0.8982
  781SOL    HW1 2342   2.466   1.441   1.805  1.2023  1.1718  0.1705
  781SOL    HW2 2343   2.321   1.527   1.765 -1.1660  0.0194  0.0776
  782SOL     OW 2344   1.246   1.805   2.343 -0.2400  0.1779 -0.0095
  782SOL    HW1 2345   1.192   1.725   2.312  0.7643  2.0203  0.7536
  782SOL    HW2 2346   1.186   1.888   2.352 -0.0802 -0.6616  0.8843
  783SOL     OW 2347   0.494   2.699   1.358  0.3690  0.1704 -0.4162
  783SOL    HW1 2348   0.564   2.773   1.372  1.7338 -2.5609 -0.1285
  783SOL    HW2 2349   0.413   2.720   1.415  0.5859  1.8103  1.5226
  784SOL     OW 2350   1.447   0.600   0.082 -0.1696  0.3495  0.1826
  784SOL    HW1 2351   1.458   0.547   3.088  0.0833 -0.2309  4.0512
  784SOL    HW2 2352   1.528   0.651   0.117  2.0776  0.2811 -1.6724
  785SOL     OW 2353   1.289   0.227   0.141  0.3370 -0.0897  0.1549
  785SOL    HW1 2354   1.304   0.312   0.192 -0.0214  0.2851  1.3290
  785SOL    HW2 2355   1.376   0.175   0.128 -0.0565  0.2768 -1.7285
  786SOL     OW 2356   0.258   1.550   0.607 -0.8409 -0.3981  0.0105
  786SOL    HW1 2357   0.306   1.459   0.599  1.0037  1.1544 -1.3123
  786SOL    HW2 2358   0.216   1.572   0.514 -2.0906  2.3541 -3.1303
  787SOL     OW 2359   1.712   1.338   0.238 -0.1156 -0.1582 -0.3156
  787SOL    HW1 2360   1.786   1.302   0.301  0.7769  0.6522 -1.6910
  787SOL    HW2 2361   1.645   1.257   0.216  1.0378 -1.9268  1.2492
  788SOL     OW 2362   1.834   1.716   1.207  0.7182 -0.0604 -0.4265
  788SOL    HW1 2363   1.778   1.673   1.131 -2.0141 -1.5106  0.1765
  788SOL    HW2 2364   1.934   1.734   1.178 -0.0471 -0.5531 -1.3034
  789SOL     OW 2365   2.921   1.380   1.978  0.4854 -0.1122  0.4128
  789SOL    HW1 2366   3.015   1.413   1.951 -0.1218 -1.8060 -0.2572
  789SOL    HW2 2367   2.919   1.348   2.072 -0.7957  3.5381 -4.5627
  790SOL     OW 2368   0.336   2.885   2.974  0.4483  0.1253 -0.1953
  790SOL    HW1 2369   0.325   2.835   3.066  0.2821  1.7726  1.4231
  790SOL    HW2 2370   0.405   2.840   2.916  0.5098 -3.6382  0.0091
  791SOL     OW 2371   0.514   3.087   2.405 -0.4486 -0.1645 -0.0374
  791SOL    HW1 2372   0.516   0.091   2.429 -0.9244  0.3069 -1.3056
  791SOL    HW2 2373   0.445   3.038   2.470 -1.7575 -1.4136  0.3483
  792SOL     OW 2374   1.959   0.496   2.489  0.0409  0.5686  0.1241
  792SOL    HW1 2375   2.017   0.436   2.545 -3.8962  2.7326  1.3995
  792SOL    HW2 2376   1.898   0.554   2.549 -2.8072  1.5730  0.4275
  793SOL     OW 2377   2.903   0.574   1.263  0.3001  0.0733 -0.2077
  793SOL    HW1 2378   2.879   0.519   1.346 -1.5097  1.5504 -1.0697
  793SOL    HW2 2379   2.989   0.628   1.262 -0.0556  0.8253  1.9898
  794SOL     OW 2380   0.594   0.552   2.122  1.1560  0.0370  0.2286
  794SOL    HW1 2381   0.635   0.578   2.214  1.7307 -2.0096  0.1112
  794SOL    HW2 2382   0.662   0.498   2.077 -2.6352 -1.0916 -0.3596
  795SOL     OW 2383   0.166   1.291   0.325  0.2130  0.5705 -0.0764
  795SOL    HW1 2384   0.106   1.301   0.244  2.0838  1.7227 -3.7878
  795SOL    HW2 2385   0.120   1.231   0.396 -0.1078  0.3677  1.7012
  796SOL     OW 2386   2.909   2.820   0.439 -0.0848 -0.2905 -0.8719
  796SOL    HW1 2387   2.957   2.736   0.473 -1.3450 -2.4922 -2.7241
  796SOL    HW2 2388   2.951   2.848   0.348 -0.2093 -0.3705 -1.0488
  797SOL     OW 2389   2.044   2.593   2.220  0.1594 -0.3536 -0.1474
  797SOL    HW1 2390   2.066   2.581   2.126  0.3824  2.1358  2.0427
  797SOL    HW2 2391   2.066   2.689   2.242 -1.1624  1.6966 -1.9940
  798SOL     OW 2392   2.990   1.140   0.841 -0.2189  1.0966 -0.0116
  798SOL    HW1 2393   3.090   1.107   0.838  1.3894  2.9830 -0.7745
  798SOL    HW2 2394   2.934   1.073   0.892  1.5794 -1.0486 -2.3789
  799SOL     OW 2395   2.888   0.564   2.822  0.0610  0.4997  0.1055
  799SOL    HW1 2396   2.967   0.516   2.779 -0.3622 -0.0221  2.0012
  799SOL    HW2 2397   2.845   0.630   2.755  1.3255  1.2944 -0.4621
  800SOL     OW 2398   3.037   1.923   0.281 -0.0308 -0.2855  0.0949
  800SOL    HW1 2399   0.043   1.909   0.266  1.3479 -0.6151 -1.4015
  800SOL    HW2 2400   3.019   1.944   0.387  0.5315  2.4259  3.5385
  801SOL     OW 2401   1.299   1.483   0.961  0.1965  0.2203 -0.0896
  801SOL    HW1 2402   1.357   1.563   0.941 -2.8219  0.3645 -1.0219
  801SOL    HW2 2403   1.248   1.490   1.051 -0.4448  1.2585  2.2906
  802SOL     OW 2404   1.272   1.741   1.755  0.1869 -0.5585  0.4257
  802SOL    HW1 2405   1.355   1.787   1.795 -0.0414 -0.5421 -1.0630
  802SOL    HW2 2406   1.220   1.799   1.688 -0.5513 -1.7201 -2.9699
  803SOL     OW 2407   0.052   1.615   0.757 -0.6626 -0.2345  0.0430
  803SOL    HW1 2408   3.081   1.671   0.696 -2.3658  0.3630  1.4121
  803SOL    HW2 2409   0.146   1.612   0.715  1.1864 -0.6100 -0.9894
  804SOL     OW 2410   0.973   2.417   1.436  0.3306  0.0589 -0.0224
  804SOL    HW1 2411   1.045   2.402   1.360  1.5277 -0.5345 -1.2225
  804SOL    HW2 2412   0.881   2.395   1.400 -0.2000 -2.0100 -2.8035
  805SOL     OW 2413   2.129   1.469   3.068 -0.0934  0.4551  0.2256
  805SOL    HW1 2414   2.147   1.566   0.004  2.0362  0.2532 -0.5786
  805SOL    HW2 2415   2.033   1.443   0.002 -0.6770 -1.1949 -1.4267
  806SOL     OW 2416   1.648   2.643   1.284  0.0815  0.3308 -0.1281
  806SOL    HW1 2417   1.730   2.696   1.295 -0.9647  1.3224  2.2598
  806SOL    HW2 2418   1.561   2.697   1.301 -1.5322  2.7311  2.2136
  807SOL     OW 2419   2.768   0.633   3.069 -0.1026 -0.2059  0.0180
  807SOL    HW1 2420   2.767   0.732   3.089  2.3067  0.9369  1.4814
  807SOL    HW2 2421   2.814   0.611   2.980 -0.0943 -0.7128  0.1450
  808SOL     OW 2422   0.154   1.119   0.743 -0.1335  0.3724 -0.2184
  808SOL    HW1 2423   0.206   1.031   0.729 -0.2361  1.9954 -0.1760
  808SOL    HW2 2424   0.214   1.200   0.724  2.7448  2.0171 -1.2074
  809SOL     OW 2425   2.718   0.675   2.341 -0.1816 -0.4118  0.5131
  809SOL    HW1 2426   2.656   0.735   2.286  1.1509  0.2272 -2.6469
  809SOL    HW2 2427   2.722   0.583   2.301 -0.6743  0.6575  1.2178
  810SOL     OW 2428   1.493   0.553   1.207 -0.0474 -0.2129  0.1869
  810SOL    HW1 2429   1.470   0.532   1.307  1.1438  0.7327  2.4407
  810SOL    HW2 2430   1.593   0.561   1.200  0.2364 -0.1438  1.2646
  811SOL     OW 2431   1.869   2.813   1.401 -0.6830  0.0759 -0.0063
  811SOL    HW1 2432   1.874   2.730   1.454  0.2639  0.9257  1.0281
  811SOL    HW2 2433   1.954   2.825   1.342 -0.1782  0.5533  0.9036
  812SOL     OW 2434   1.767   2.645   2.858  0.0165 -0.0674 -0.2363
  812SOL    HW1 2435   1.703   2.573   2.825  0.0180  0.7278  1.2209
  812SOL    HW2 2436   1.860   2.608   2.884  1.9357 -3.1828  0.1572
  813SOL     OW 2437   1.702   1.008   2.110 -0.1508 -0.0073 -0.0673
  813SOL    HW1 2438   1.681   1.091   2.166  0.3003 -0.4944  1.2303
  813SOL    HW2 2439   1.746   0.941   2.173 -0.6455  0.0912 -1.4904
  814SOL     OW 2440   1.368   0.579   1.728  0.0698 -0.2086 -0.0055
  814SOL    HW1 2441   1.409   0.526   1.804 -2.4161 -0.6944 -2.0281
  814SOL    HW2 2442   1.304   0.654   1.755  0.7864  0.6217 -2.9182
  815SOL     OW 2443   0.539   0.677   0.514 -0.0829  0.1162 -0.4018
  815SOL    HW1 2444   0.619   0.732   0.492 -0.8645 -0.3453  1.6676
  815SOL    HW2 2445   0.550   0.589   0.461  0.5810 -0.5125  1.6450
  816SOL     OW 2446   2.398   1.937   2.533 -0.0867  0.2015  0.4767
  816SOL    HW1 2447   2.345   1.876   2.601 -2.3557 -0.3375 -0.2221
  816SOL    HW2 2448   2.482   1.971   2.577  0.1509  0.3438  0.1709
  817SOL     OW 2449   0.485   2.444   0.482 -0.3451 -0.3725  0.7829
  817SOL    HW1 2450   0.528   2.358   0.513 -0.0515  1.6847  0.2952
  817SOL    HW2 2451   0.391   2.467   0.515  1.1109 -0.0817 -2.3476
  818SOL     OW 2452   1.920   0.183   2.807 -0.0824  0.4621 -0.2627
  818SOL    HW1 2453   1.948   0.244   2.884  1.0785  0.0641 -0.1556
  818SOL    HW2 2454   1.833   0.129   2.831  0.5934 -2.2591  0.4895
  819SOL     OW 2455   1.708   0.295   0.298 -0.1724 -0.3591  0.4101
  819SOL    HW1 2456   1.617   0.273   0.343 -1.3034 -0.7683  1.2149
  819SOL    HW2 2457   1.747   0.389   0.324 -2.4074  2.5230  2.7087
  820SOL     OW 2458   1.546   0.691   0.450 -0.3908  0.0661 -0.2155
  820SOL    HW1 2459   1.445   0.674   0.423 -3.5390  0.5416 -0.8560
  820SOL    HW2 2460   1.562   0.648   0.542 -2.3524 -1.1230 -0.4091
  821SOL     OW 2461   2.439   2.781   0.477  0.4225  1.1182  0.5419
  821SOL    HW1 2462   2.382   2.859   0.481  1.5427 -4.1636 -1.5620
  821SOL    HW2 2463   2.533   2.796   0.436 -1.4334 -0.2350 -0.1633
  822SOL     OW 2464   0.151   2.811   1.938 -0.0909 -0.2873 -0.0956
  822SOL    HW1 2465   0.099   2.902   1.946 -1.5284 -1.2180  1.4916
  822SOL    HW2 2466   0.219   2.814   1.862 -1.0958 -0.0057 -2.5743
  823SOL     OW 2467   2.633   2.144   1.716 -0.7768  0.4008  0.0317
  823SOL    HW1 2468   2.730   2.154   1.761  1.0061 -0.7061  3.0533
  823SOL    HW2 2469   2.631   2.077   1.636  0.3558 -2.4483 -1.4291
  824SOL     OW 2470   1.386   2.884   2.409  0.0297 -0.2945  0.0354
  824SOL    HW1 2471   1.391   2.808   2.342  1.8940 -2.4581  1.6060
  824SOL    HW2 2472   1.473   2.886   2.464  0.5977 -1.7107  0.5004
  825SOL     OW 2473   1.801   1.492   0.586 -0.0134 -0.3040  0.4001
  825SOL    HW1 2474   1.732   1.446   0.641  1.2116  0.1843 -1.6604
  825SOL    HW2 2475   1.749   1.526   0.505 -0.3409 -2.1703 -1.4693
  826SOL     OW 2476   1.925   0.641   0.120  0.0859 -0.7722 -0.3745
  826SOL    HW1 2477   1.982   0.710   0.161 -0.1056  0.5579  0.7941
  826SOL    HW2 2478   1.962   0.623   0.026  0.1719 -0.0113 -1.9003
  827SOL     OW 2479   0.465   1.199   1.622 -0.1383 -0.3475  0.0194
  827SOL    HW1 2480   0.384   1.261   1.609  0.1269  1.4215  0.0206
  827SOL    HW2 2481   0.528   1.200   1.541 -0.8026  2.1057 -0.5040
  828SOL     OW 2482   1.917   1.582   1.804 -0.0864  0.0209  0.0873
  828SOL    HW1 2483   1.838   1.640   1.783  2.2368 -2.4557 -1.1968
  828SOL    HW2 2484   1.959   1.603   1.894  1.1709 -0.4368 -1.3547
  829SOL     OW 2485   0.226   1.872   0.199  0.0961  0.3239 -0.0245
  829SOL    HW1 2486   0.209   1.899   0.102 -1.1312 -1.0203 -1.5125
  829SOL    HW2 2487   0.314   1.813   0.201  0.5853 -0.2357  2.2524
  830SOL     OW 2488   1.185   0.473   0.666  0.0822 -0.1801 -0.2154
  830SOL    HW1 2489   1.278   0.438   0.692 -1.1516  3.3918  0.1325
  830SOL    HW2 2490   1.145   0.516   0.746 -0.4598  1.2494 -0.1315
  831SOL     OW 2491   2.874   1.472   0.144  0.6176 -0.0619  0.0914
  831SOL    HW1 2492   2.870   1.454   0.044 -2.5600 -1.1831  0.5132
  831SOL    HW2 2493   2.884   1.575   0.148  0.2538  1.8395  1.0813
  832SOL     OW 2494   1.070   3.023   3.085  0.2170  0.2183 -0.0971
  832SOL    HW1 2495   0.975   2.996   3.063  0.9629  0.0176  0.8082
  832SOL    HW2 2496   1.080   0.035   3.070 -0.0742  0.8733 -0.9040
  833SOL     OW 2497   1.429   0.739   2.127  0.3463  0.0661  0.5007
  833SOL    HW1 2498   1.473   0.754   2.040 -3.7070 -1.0794  3.2323
  833SOL    HW2 2499   1.430   0.824   2.180 -0.6653 -1.7456 -1.9840
  834SOL     OW 2500   0.050   0.703   1.275 -0.3488 -0.4386 -0.4232
  834SOL    HW1 2501   0.070   0.772   1.204 -0.4269 -1.5155  0.0962
  834SOL    HW2 2502   0.092   0.727   1.362  0.9648 -1.7266 -1.2674
  835SOL     OW 2503   2.816   0.409   1.440  0.1863  0.1027 -0.0586
  835SOL    HW1 2504   2.716   0.381   1.428 -1.2864 -1.1638 -1.6434
  835SOL    HW2 2505   2.857   0.376   1.528 -1.4319  3.5061 -0.0513
  836SOL     OW 2506   0.528   2.025   0.433  0.1685 -0.9297  0.0905
  836SOL    HW1 2507   0.570   1.939   0.391 -0.8936 -0.8526 -2.2926
  836SOL    HW2 2508   0.602   2.096   0.441  1.4561  0.1340 -0.5965
  837SOL     OW 2509   1.930   1.755   2.353  0.8275  0.6750  0.0244
  837SOL    HW1 2510   1.939   1.844   2.405  0.6014 -2.8539 -1.1764
  837SOL    HW2 2511   1.968   1.668   2.398 -0.5540 -0.5251  1.3683
  838SOL     OW 2512   0.079   1.171   1.845 -0.3830 -0.2608  0.4051
  838SOL    HW1 2513   0.181   1.162   1.867  0.8120 -0.8417  2.0027
  838SOL    HW2 2514   0.042   1.267   1.865  1.4697  3.6163 -1.0350
  839SOL     OW 2515   0.330   0.395   0.801 -0.6370  0.0810  0.4383
  839SOL    HW1 2516   0.284   0.360   0.887  0.5067 -0.4762 -1.9184
  839SOL    HW2 2517   0.398   0.335   0.756 -0.4645 -0.4310  2.5796
  840SOL     OW 2518   2.792   0.342   2.542 -0.2854 -0.3935  0.0413
  840SOL    HW1 2519   2.817   0.243   2.557  0.8471  2.1018  1.7741
  840SOL    HW2 2520   2.707   0.367   2.591  0.6456 -0.1654 -0.0710
  841SOL     OW 2521   0.686   2.777   3.065 -0.0966  0.1414 -0.2371
  841SOL    HW1 2522   0.678   2.755   2.966  0.5461 -0.3062  3.2276
  841SOL    HW2 2523   0.744   2.708   0.022  2.2651 -0.7328 -1.3393
  842SOL     OW 2524   0.686   3.080   1.201 -0.2655 -0.0494  0.6507
  842SOL    HW1 2525   0.635   0.053   1.141 -1.0646 -3.1302  0.5625
  842SOL    HW2 2526   0.697   2.993   1.148  0.7034  1.3649 -1.8155
  843SOL     OW 2527   3.044   0.780   3.005  0.7060  0.1893 -0.1850
  843SOL    HW1 2528   2.983   0.773   3.083  0.5924 -0.1916  0.3321
  843SOL    HW2 2529   0.035   0.720   3.013 -2.6719  2.0418 -0.2413
  844SOL     OW 2530   1.054   2.438   2.503  0.0788 -0.4499 -0.1779
  844SOL    HW1 2531   1.128   2.444   2.577  0.6154  1.3596  1.9143
  844SOL    HW2 2532   1.078   2.506   2.430  0.9662 -0.1389  0.5976
  845SOL     OW 2533   2.250   2.849   2.625  0.2959 -0.3870  0.4762
  845SOL    HW1 2534   2.262   2.951   2.638  1.5829 -0.3534 -2.4154
  845SOL    HW2 2535   2.300   2.822   2.543 -1.1780  3.6976  0.7833
  846SOL     OW 2536   2.039   1.514   2.453  0.1053 -0.2013  0.3869
  846SOL    HW1 2537   2.084   1.513   2.363 -1.1689  0.6683 -0.2244
  846SOL    HW2 2538   2.105   1.500   2.528 -1.3692  0.3235 -0.9778
  847SOL     OW 2539   2.720   2.853   2.957 -0.0369  0.6712  0.4567
  847SOL    HW1 2540   2.679   2.875   3.048  1.9065  0.6741  1.7933
  847SOL    HW2 2541   2.815   2.889   2.952  1.6464 -0.5327  1.1159
  848SOL     OW 2542   0.222   0.417   0.415  0.3055 -0.2663 -0.3315
  848SOL    HW1 2543   0.307   0.427   0.473 -0.7202 -2.2508  1.5104
  848SOL    HW2 2544   0.218   0.488   0.339 -0.9478  1.6051 -2.9163
  849SOL     OW 2545   1.442   3.039   2.105  0.2524  0.4705 -0.3262
  849SOL    HW1 2546   1.517   0.020   2.122  2.5618 -0.2289  0.9222
  849SOL    HW2 2547   1.361   3.065   2.159  4.4041 -1.0324 -1.1010
  850SOL     OW 2548   0.789   1.061   0.668  0.0816 -0.3104  0.4155
  850SOL    HW1 2549   0.854   1.050   0.591  2.0705 -1.4677  2.0385
  850SOL    HW2 2550   0.838   1.049   0.759  0.9009  0.8057  1.5665
  851SOL     OW 2551   0.430   1.300   0.222  0.1992  0.1629  0.7475
  851SOL    HW1 2552   0.503   1.318   0.294  0.5752  0.7757  3.1956
  851SOL    HW2 2553   0.334   1.299   0.252  3.7249  0.0152 -0.2016
  852SOL     OW 2554   1.258   0.374   2.005 -0.2132 -0.1863  0.2335
  852SOL    HW1 2555   1.184   0.395   1.937 -1.8960 -0.1407 -0.7729
  852SOL    HW2 2556   1.347   0.361   1.953  2.3032 -0.9830 -0.2897
  853SOL     OW 2557   2.756   1.353   0.358  0.2962 -0.1689 -0.2875
  853SOL    HW1 2558   2.810   1.370   0.438 -0.0693 -0.5835 -2.1707
  853SOL    HW2 2559   2.798   1.398   0.270  1.5472 -0.2413  0.4219
  854SOL     OW 2560   1.146   1.043   2.320  0.1470 -0.5593 -0.7976
  854SOL    HW1 2561   1.081   0.987   2.375 -0.0861 -2.0650  2.5859
  854SOL    HW2 2562   1.177   1.121   2.374  0.0926  0.7806 -0.6316
  855SOL     OW 2563   0.107   2.772   2.906  0.4381 -0.1384  0.3434
  855SOL    HW1 2564   0.179   2.835   2.942  0.5000 -0.6856  2.9802
  855SOL    HW2 2565   0.119   2.678   2.951 -3.7431 -0.4723  3.8543
  856SOL     OW 2566   1.612   0.882   2.420 -0.2236 -0.3112 -0.4224
  856SOL    HW1 2567   1.544   0.928   2.359  1.5951  0.4476 -0.6020
  856SOL    HW2 2568   1.568   0.811   2.466 -0.9313  0.4478 -0.5120
  857SOL     OW 2569   1.447   0.710   2.536  0.1887  0.0685  0.5358
  857SOL    HW1 2570   1.486   0.621   2.505  1.2252 -2.3030  0.2294
  857SOL    HW2 2571   1.348   0.716   2.515  1.7161 -0.4125 -0.5288
  858SOL     OW 2572   2.758   1.150   2.208 -0.7955 -0.0001  0.2721
  858SOL    HW1 2573   2.706   1.238   2.204  1.0173  0.6152  0.7135
  858SOL    HW2 2574   2.856   1.159   2.233  0.1470  0.3814  1.5814
  859SOL     OW 2575   2.302   0.287   0.833 -0.1426 -0.1583 -0.6706
  859SOL    HW1 2576   2.362   0.236   0.897 -2.0696  2.0000 -1.2303
  859SOL    HW2 2577   2.340   0.305   0.739 -0.2327  1.1384 -0.7699
  860SOL     OW 2578   1.732   3.021   0.251  0.2729  0.4029  0.0005
  860SOL    HW1 2579   1.768   0.014   0.300  1.5909  1.4662  3.1481
  860SOL    HW2 2580   1.761   2.937   0.297 -2.8284 -0.6744 -0.2475
  861SOL     OW 2581   1.050   0.559   1.198  0.0710 -0.3901  0.4812
  861SOL    HW1 2582   1.069   0.462   1.210 -1.2145  3.2170 -1.2031
  861SOL    HW2 2583   1.024   0.605   1.287  0.7650 -0.7837  2.8656
  862SOL     OW 2584   1.588   0.144   2.561  0.1761 -0.0002  0.6528
  862SOL    HW1 2585   1.638   0.068   2.512  1.4395 -2.3263  0.3971
  862SOL    HW2 2586   1.504   0.172   2.514  0.9843 -0.5358  0.8732
  863SOL     OW 2587   2.674   2.514   0.756 -0.7113  0.7403 -0.0196
  863SOL    HW1 2588   2.600   2.444   0.734 -0.0044  1.4954  1.4690
  863SOL    HW2 2589   2.633   2.603   0.768  2.4901 -1.4337  1.0312
  864SOL     OW 2590   2.313   0.184   2.100 -0.1610 -0.2625 -0.1839
  864SOL    HW1 2591   2.381   0.219   2.168  0.1465 -0.6274 -0.8248
  864SOL    HW2 2592   2.354   0.127   2.025  1.9906 -0.0593 -0.5471
  865SOL     OW 2593   1.416   1.210   2.059 -0.1834 -0.6769  0.6418
  865SOL    HW1 2594   1.329   1.245   2.015 -0.0769 -0.0868  1.1291
  865SOL    HW2 2595   1.487   1.194   1.987 -0.5093 -1.7765  2.9973
  866SOL     OW 2596   1.733   2.809   0.999 -0.0572  0.5150 -0.7683
  866SOL    HW1 2597   1.669   2.746   1.045 -1.2878 -0.1895 -2.0525
  866SOL    HW2 2598   1.684   2.881   0.959  0.3747 -5.9107  4.3215
  867SOL     OW 2599   2.312   3.025   0.519  0.1220 -0.3381  0.9993
  867SOL    HW1 2600   2.318   3.044   0.615 -1.7439  0.3490 -1.1711
  867SOL    HW2 2601   2.292   0.020   0.467  1.9105 -1.1234  1.5001
  868SOL     OW 2602   0.306   2.238   2.035  0.3010  0.4974  0.1014
  868SOL    HW1 2603   0.328   2.271   1.942 -0.6259 -0.8112  1.5663
  868SOL    HW2 2604   0.240   2.301   2.074 -0.8616 -1.1564 -2.0232
  869SOL     OW 2605   2.013   2.188   2.129  0.7188 -0.3499 -0.1304
  869SOL    HW1 2606   1.923   2.143   2.112  0.4202 -1.8305  0.4275
  869SOL    HW2 2607   2.006   2.260   2.203  0.2355 -0.1074  1.7215
  870SOL     OW 2608   1.490   1.609   0.757 -0.5049  0.4474  0.2806
  870SOL    HW1 2609   1.575   1.643   0.713  1.9825 -1.3593 -0.3957
  870SOL    HW2 2610   1.457   1.522   0.713 -2.7130 -0.5855 -0.1968
  871SOL     OW 2611   3.005   1.822   1.678  0.3758 -0.4522 -0.3400
  871SOL    HW1 2612   0.008   1.813   1.714 -0.9187  1.5374  2.6727
  871SOL    HW2 2613   2.940   1.750   1.708 -1.3027 -1.3883  1.2595
  872SOL     OW 2614   0.782   1.772   2.428  0.4104 -0.2689 -0.3474
  872SOL    HW1 2615   0.799   1.784   2.529 -3.3820  0.0061  3.3053
  872SOL    HW2 2616   0.764   1.869   2.392  0.6831  1.1993 -0.5062
  873SOL     OW 2617   0.783   1.566   2.062 -0.5918 -1.2067 -0.0460
  873SOL    HW1 2618   0.868   1.622   2.040  2.4869  0.9512  1.4366
  873SOL    HW2 2619   0.797   1.495   2.131  2.0262 -0.2096  1.0881
  874SOL     OW 2620   1.568   0.893   1.904  0.1490  0.5314 -0.3334
  874SOL    HW1 2621   1.623   0.841   1.830 -1.0736 -0.4083 -1.6539
  874SOL    HW2 2622   1.626   0.935   1.977 -1.2545 -2.9392  0.8508
  875SOL     OW 2623   2.836   0.074   0.292  0.2261 -0.2708 -0.0008
  875SOL    HW1 2624   2.833   3.073   0.338 -0.1940 -1.0355 -1.5994
  875SOL    HW2 2625   2.863   0.147   0.358  0.0074  1.7840 -2.1963
  876SOL     OW 2626   0.841   1.210   0.246  0.0357 -0.2508 -0.1500
  876SOL    HW1 2627   0.853   1.109   0.232 -3.0294 -0.9843 -0.7289
  876SOL    HW2 2628   0.823   1.260   0.159  2.1223 -0.2396  2.9535
  877SOL     OW 2629   2.518   2.731   0.833 -0.1274  0.3024  0.2018
  877SOL    HW1 2630   2.508   2.828   0.807  1.5719 -0.6934 -2.0569
  877SOL    HW2 2631   2.424   2.693   0.859  0.6731 -0.3296  0.7852
  878SOL     OW 2632   1.975   1.915   0.648  0.3732  0.1314 -0.4714
  878SOL    HW1 2633   1.962   1.919   0.549  0.2973  0.4767 -1.6839
  878SOL    HW2 2634   1.922   1.845   0.701 -1.9633 -0.9202  0.6440
  879SOL     OW 2635   2.424   1.649   1.241 -0.3311 -0.5492 -0.3710
  879SOL    HW1 2636   2.348   1.585   1.243 -0.4957 -1.2551  0.2187
  879SOL    HW2 2637   2.463   1.654   1.147  2.6645  0.1043 -0.2702
  880SOL     OW 2638   0.444   2.011   0.747  0.0562 -0.3399 -0.2322
  880SOL    HW1 2639   0.457   1.975   0.842 -1.8946 -1.2987 -0.5959
  880SOL    HW2 2640   0.436   1.923   0.690 -1.2968  0.1393  0.2081
  881SOL     OW 2641   0.671   0.739   1.072  0.0169 -0.2112  0.2512
  881SOL    HW1 2642   0.704   0.836   1.080  1.7435  0.5339  0.1827
  881SOL    HW2 2643   0.668   0.711   0.972 -3.4494 -2.9764 -3.8906
  882SOL     OW 2644   2.418   1.263   1.137  0.4529  0.6640  0.6163
  882SOL    HW1 2645   2.384   1.172   1.101  0.8166  2.4819  0.2857
  882SOL    HW2 2646   2.498   1.292   1.080  1.5337 -2.0108 -0.4069
  883SOL     OW 2647   1.610   0.159   1.854 -0.1671 -0.3266  0.1455
  883SOL    HW1 2648   1.642   0.105   1.934  0.5208  0.1350  1.4466
  883SOL    HW2 2649   1.600   0.106   1.768 -0.4542  0.1985  0.0227
  884SOL     OW 2650   2.930   0.335   1.677 -0.0087 -0.3272  0.4882
  884SOL    HW1 2651   3.014   0.337   1.729 -1.2758 -2.6606 -0.2172
  884SOL    HW2 2652   2.862   0.404   1.708 -1.9814  2.8510  0.7832
  885SOL     OW 2653   1.308   1.302   2.862 -0.6780 -0.1748 -0.2230
  885SOL    HW1 2654   1.244   1.226   2.846 -3.2234  0.8659  0.6221
  885SOL    HW2 2655   1.259   1.391   2.865 -2.1078 -0.0431  0.2690
  886SOL     OW 2656   1.882   0.364   3.013 -0.0909  0.0173  0.7624
  886SOL    HW1 2657   1.793   0.321   3.046 -1.3954 -1.7432  0.3748
  886SOL    HW2 2658   1.960   0.363   3.083  2.5791  0.0583  2.0000
  887SOL     OW 2659   1.562   0.010   1.617  0.0479 -0.3259 -0.0584
  887SOL    HW1 2660   1.556   0.082   1.539  0.7402  1.7412  0.4868
  887SOL    HW2 2661   1.646   3.044   1.615 -1.3915 -2.6083 -1.2148
  888SOL     OW 2662   2.040   1.859   1.845 -0.8131  0.4203  0.3963
  888SOL    HW1 2663   2.049   1.766   1.817 -0.1877  0.0536  2.0217
  888SOL    HW2 2664   2.122   1.881   1.899 -0.6014  2.0037 -3.4112
  889SOL     OW 2665   1.837   2.163   0.425 -0.0958 -0.0435  0.3534
  889SOL    HW1 2666   1.886   2.075   0.413 -0.9971  1.5018  1.0725
  889SOL    HW2 2667   1.903   2.242   0.422 -0.4982 -0.2880 -1.6603
  890SOL     OW 2668   1.209   1.884   0.489 -0.5365 -0.3264  0.2083
  890SOL    HW1 2669   1.215   1.792   0.525  0.2162  1.7977 -2.1965
  890SOL    HW2 2670   1.302   1.917   0.475 -1.0829  1.0341  0.7008
  891SOL     OW 2671   2.790   0.929   0.072  0.0333  0.0292  0.0200
  891SOL    HW1 2672   2.851   0.875   0.138 -1.3281 -0.4521  0.7253
  891SOL    HW2 2673   2.690   0.928   0.092  2.1272  0.6602  0.7488
  892SOL     OW 2674   1.661   0.546   2.805  0.3984  0.0737  0.1511
  892SOL    HW1 2675   1.601   0.503   2.877  1.1705 -1.9139 -1.9301
  892SOL    HW2 2676   1.670   0.484   2.725  0.0960 -1.5241 -0.1911
  893SOL     OW 2677   1.420   2.868   1.707  0.0990 -0.2189 -0.1900
  893SOL    HW1 2678   1.328   2.852   1.672  1.7531  2.3251 -1.0153
  893SOL    HW2 2679   1.457   2.954   1.669  2.1490 -1.5695  0.1863
  894SOL     OW 2680   2.839   3.039   0.587  0.2437  0.3503 -0.1891
  894SOL    HW1 2681   2.863   2.944   0.551  0.2760 -2.6210 -1.3316
  894SOL    HW2 2682   2.780   3.030   0.666  0.9238 -1.6525 -2.7381
  895SOL     OW 2683   2.118   2.318   2.936  0.2447 -0.4711 -0.8794
  895SOL    HW1 2684   2.121   2.342   3.038  2.9045  2.9438  0.3722
  895SOL    HW2 2685   2.204   2.264   2.916  3.3513  0.3883 -0.2981
  896SOL     OW 2686   2.234   0.125   2.418 -0.6907  0.4861 -0.6426
  896SOL    HW1 2687   2.205   0.167   2.509 -0.9337  0.4815  0.2236
  896SOL    HW2 2688   2.195   0.187   2.347  1.4042 -0.0854  0.6318
  897SOL     OW 2689   0.402   1.559   1.729 -0.2469  0.2725 -0.2678
  897SOL    HW1 2690   0.418   1.543   1.827 -1.3739 -1.7802  0.3032
  897SOL    HW2 2691   0.468   1.627   1.688 -0.9037  0.1456 -3.1571
  898SOL     OW 2692   2.261   1.614   1.648  0.2487 -0.0761  0.6141
  898SOL    HW1 2693   2.176   1.623   1.594 -2.1919 -1.1905  2.0844
  898SOL    HW2 2694   2.340   1.653   1.597  0.0772  3.6641  1.6093
  899SOL     OW 2695   1.663   2.449   1.070  0.0432  0.5876  0.2607
  899SOL    HW1 2696   1.580   2.425   1.021  0.9452  0.1152  0.2753
  899SOL    HW2 2697   1.650   2.504   1.157 -2.5151  2.1084 -1.0398
  900SOL     OW 2698   1.192   0.696   0.036  0.0975  0.2329  0.2163
  900SOL    HW1 2699   1.284   0.655   0.068  2.4943  0.8412 -1.3888
  900SOL    HW2 2700   1.200   0.796   0.035  0.7811  2.3012  1.7507
  901SOL     OW 2701   1.421   1.607   2.500  0.2219 -0.2170 -0.7103
  901SOL    HW1 2702   1.473   1.570   2.420  1.2050 -1.1788  1.5692
  901SOL    HW2 2703   1.368   1.686   2.470 -1.2972 -1.3374  0.5624
  902SOL     OW 2704   3.008   2.583   0.060 -0.1831 -0.2731  0.5346
  902SOL    HW1 2705   3.021   2.671   0.108 -1.0263 -1.7980  0.9313
  902SOL    HW2 2706   3.080   2.521   0.083 -0.5484 -1.6732 -1.0694
  903SOL     OW 2707   2.262   0.916   1.986 -0.1560  0.0489 -0.1434
  903SOL    HW1 2708   2.292   0.820   2.013 -1.7041 -1.8594  0.6500
  903SOL    HW2 2709   2.258   0.984   2.064 -1.6850  2.2036 -0.1811
  904SOL     OW 2710   1.480   0.429   2.971 -0.2889 -0.6227  0.0509
  904SOL    HW1 2711   1.411   0.368   2.923 -1.1042 -1.1799 -0.2446
  904SOL    HW2 2712   1.553   0.372   3.016 -0.6711 -1.1019  0.0437
  905SOL     OW 2713   2.192   2.381   1.077  0.1073  0.0809 -0.0112
  905SOL    HW1 2714   2.217   2.476   1.054 -1.7707 -2.3130 -2.0614
  905SOL    HW2 2715   2.186   2.323   0.993  2.0788 -2.1384  0.8239
  906SOL     OW 2716   1.489   2.002   0.094 -0.4861  0.1971 -0.2535
  906SOL    HW1 2717   1.400   1.956   0.076 -1.0871 -1.0102 -0.7545
  906SOL    HW2 2718   1.521   2.043   0.006  0.2160 -0.1117 -2.5090
  907SOL     OW 2719   0.751   2.757   0.694  0.3828  0.7727 -0.0783
  907SOL    HW1 2720   0.665   2.806   0.718  1.0121  0.1568  1.9620
  907SOL    HW2 2721   0.739   2.695   0.612  3.1768  2.1952 -0.0629
  908SOL     OW 2722   1.322   2.719   1.964 -0.2647 -0.0556  0.4159
  908SOL    HW1 2723   1.306   2.631   1.909  0.2646 -2.2111 -3.1121
  908SOL    HW2 2724   1.373   2.780   1.901  0.5853  0.0379 -0.3943
  909SOL     OW 2725   1.790   0.552   1.157 -0.1586  0.4006  0.1144
  909SOL    HW1 2726   1.853   0.539   1.240 -1.5021 -2.7301  1.3372
  909SOL    HW2 2727   1.811   0.484   1.086  1.4582  3.6833  2.5667
  910SOL     OW 2728   1.281   0.968   3.013 -0.0868  0.5675 -0.4209
  910SOL    HW1 2729   1.181   0.985   3.003 -1.4340  0.4767 -2.4407
  910SOL    HW2 2730   1.329   0.932   2.927  0.4359 -1.0416 -1.7374
  911SOL     OW 2731   2.923   0.794   0.246 -0.0011 -0.0520 -0.1409
  911SOL    HW1 2732   2.871   0.719   0.295 -0.1528  0.0697 -1.2647
  911SOL    HW2 2733   2.965   0.855   0.318 -0.0049  0.1746  1.5568
  912SOL     OW 2734   0.110   2.332   0.002  0.2626 -0.3281 -0.4786
  912SOL    HW1 2735   0.179   2.268   3.053 -1.9083  3.6037  0.0862
  912SOL    HW2 2736   0.090   2.305   0.104  1.4378 -2.6277  4.1290
  913SOL     OW 2737   2.623   2.051   2.604 -0.1138 -0.1915  0.0293
  913SOL    HW1 2738   2.636   2.073   2.701  1.8020 -1.9735  1.3748
  913SOL    HW2 2739   2.663   2.121   2.546  2.7672 -0.8719  0.4656
  914SOL     OW 2740   1.424   1.942   1.513 -0.6677  0.1393 -0.2685
  914SOL    HW1 2741   1.366   1.879   1.454  0.1910  1.0144 -0.5571
  914SOL    HW2 2742   1.516   1.908   1.531 -0.9211 -0.9827 -1.9482
  915SOL     OW 2743   0.726   2.662   2.009 -0.2923  0.1102 -0.0941
  915SOL    HW1 2744   0.657   2.735   2.005 -0.6372  0.4826 -1.0108
  915SOL    HW2 2745   0.709   2.602   2.090  0.3347  0.9412  1.9402
  916SOL     OW 2746   0.694   1.260   1.768 -0.7567  0.3996 -0.0454
  916SOL    HW1 2747   0.774   1.196   1.747  0.9487  3.8038  1.5378
  916SOL    HW2 2748   0.605   1.221   1.734 -1.4300 -1.1168  1.7290
  917SOL     OW 2749   2.417   0.311   0.592  0.5829  0.4051  0.4714
  917SOL    HW1 2750   2.394   0.245   0.515 -1.7625  0.3420 -0.0336
  917SOL    HW2 2751   2.512   0.301   0.621 -0.5478  1.9808  0.1815
  918SOL     OW 2752   1.800   2.767   2.251 -0.2142  0.0819 -0.5119
  918SOL    HW1 2753   1.899   2.774   2.260 -0.3066 -0.9809 -0.9384
  918SOL    HW2 2754   1.754   2.731   2.337 -2.5858 -1.6819  0.5154
  919SOL     OW 2755   1.520   2.604   1.734  0.2275  0.0366 -0.0466
  919SOL    HW1 2756   1.489   2.703   1.725 -2.0872  0.8862 -4.2056
  919SOL    HW2 2757   1.435   2.549   1.754  0.9320  1.2136 -0.2772
  920SOL     OW 2758   0.752   0.961   2.761 -0.2704 -0.2657 -0.4599
  920SOL    HW1 2759   0.695   1.030   2.711 -1.1540  4.1159 -0.6908
  920SOL    HW2 2760   0.728   0.968   2.858 -0.1653 -1.2341 -1.1672
  921SOL     OW 2761   0.111   0.399   2.763 -0.3190 -0.0052 -0.0083
  921SOL    HW1 2762   0.046   0.435   2.691 -3.6333 -1.4333 -0.0850
  921SOL    HW2 2763   0.180   0.343   2.718  0.1881 -0.5849 -0.1659
  922SOL     OW 2764   0.820   1.750   0.991 -0.0979  0.2384  0.1837
  922SOL    HW1 2765   0.742   1.704   0.944 -2.5192  1.3881  0.3617
  922SOL    HW2 2766   0.786   1.839   1.027 -1.1213  0.7814 -1.1533
  923SOL     OW 2767   0.724   1.120   2.044  0.3371 -0.0334 -0.0397
  923SOL    HW1 2768   0.718   1.021   2.016 -0.9713  0.2900  0.6115
  923SOL    HW2 2769   0.740   1.182   1.966 -2.2075  2.8800  2.2919
  924SOL     OW 2770   1.393   3.044   2.812  0.5383  0.1337  0.0247
  924SOL    HW1 2771   1.323   3.071   2.740 -3.0121 -1.0353 -0.3339
  924SOL    HW2 2772   1.364   2.960   2.864  2.3705 -0.1280  1.5121
  925SOL     OW 2773   2.605   1.431   1.571 -0.6965 -0.0986  0.2811
  925SOL    HW1 2774   2.651   1.408   1.658  0.9541 -0.3374 -1.9507
  925SOL    HW2 2775   2.671   1.408   1.492  0.1772  0.0547 -1.6564
  926SOL     OW 2776   1.783   0.958   1.616  0.5188 -0.3802 -0.4213
  926SOL    HW1 2777   1.706   1.014   1.577 -3.6475 -0.3746 -0.4238
  926SOL    HW2 2778   1.865   0.967   1.558 -1.0914  2.9785 -0.3293
  927SOL     OW 2779   2.103   2.889   1.240  0.0559 -0.3784  0.4204
  927SOL    HW1 2780   2.144   2.912   1.334  0.7806 -0.6020  1.8315
  927SOL    HW2 2781   2.089   2.969   1.181 -0.5127 -0.6641  1.1755
  928SOL     OW 2782   0.277   0.894   2.097  0.2669 -0.7259  0.1495
  928SOL    HW1 2783   0.190   0.944   2.107  0.7439  0.7974  1.3733
  928SOL    HW2 2784   0.313   0.886   2.000 -3.0176  1.9046  1.8059
  929SOL     OW 2785   2.530   0.557   0.982 -0.0375  0.0774 -0.3121
  929SOL    HW1 2786   2.449   0.518   1.025  0.3274 -1.7488  2.1394
  929SOL    HW2 2787   2.582   0.615   1.048 -0.2975  0.7116 -0.9787
  930SOL     OW 2788   2.825   2.768   1.708 -0.2998  0.4283 -0.0457
  930SOL    HW1 2789   2.758   2.703   1.750  0.0841 -0.0163  0.5620
  930SOL    HW2 2790   2.912   2.720   1.695 -0.9280 -0.7148  0.0067
  931SOL     OW 2791   1.614   0.852   0.775  0.2867  0.0677 -0.0195
  931SOL    HW1 2792   1.549   0.831   0.853  2.5059  0.1437 -1.6469
  931SOL    HW2 2793   1.712   0.856   0.813  2.6759 -0.4943  2.0557
  932SOL     OW 2794   2.700   1.372   1.833  0.3364  0.1069  0.0344
  932SOL    HW1 2795   2.684   1.276   1.792  0.0809  1.6531  0.0817
  932SOL    HW2 2796   2.776   1.360   1.901  0.0359  0.1666 -1.2983
  933SOL     OW 2797   2.833   2.422   1.633  1.1486  0.2554  0.0818
  933SOL    HW1 2798   2.808   2.399   1.733  0.3592  1.8971  0.4695
  933SOL    HW2 2799   2.758   2.397   1.566 -0.4054 -0.3632 -0.7641
  934SOL     OW 2800   0.681   2.077   1.386 -0.3942  0.7576 -0.2345
  934SOL    HW1 2801   0.754   2.047   1.449  2.2986 -0.3796 -2.0345
  934SOL    HW2 2802   0.593   2.040   1.414 -0.6156  3.1445 -0.1975
  935SOL     OW 2803   2.689   1.714   2.071 -0.4757 -0.1871  0.0563
  935SOL    HW1 2804   2.598   1.686   2.040  0.5436  1.4481  0.9755
  935SOL    HW2 2805   2.710   1.813   2.040 -0.9120  0.1499  0.4289
  936SOL     OW 2806   2.433   1.642   2.021 -0.0454  0.2008 -0.2927
  936SOL    HW1 2807   2.410   1.565   1.957  1.8205  0.9387  2.2445
  936SOL    HW2 2808   2.365   1.713   2.020  3.0419  1.0362  0.1316
  937SOL     OW 2809   1.863   1.087   1.872  0.6509 -0.1914 -0.2753
  937SOL    HW1 2810   1.783   1.081   1.933  0.8906 -2.8255 -3.1215
  937SOL    HW2 2811   1.845   1.038   1.790 -0.5291  2.9015 -0.8712
  938SOL     OW 2812   0.845   2.608   2.522  0.0269 -0.2943  0.5325
  938SOL    HW1 2813   0.920   2.537   2.511  0.9720 -0.6429 -0.1287
  938SOL    HW2 2814   0.799   2.610   2.607  1.8481  3.8624 -2.4220
  939SOL     OW 2815   2.496   1.231   2.938  0.0603 -0.5464  0.1747
  939SOL    HW1 2816   2.437   1.280   3.009  0.4878  0.8959  1.8535
  939SOL    HW2 2817   2.491   1.132   2.945  1.8465  3.4843 -0.4361
  940SOL     OW 2818   1.233   1.634   0.604 -0.4209 -0.0753  0.5862
  940SOL    HW1 2819   1.291   1.569   0.549  3.2799 -1.0962 -0.0193
  940SOL    HW2 2820   1.266   1.632   0.695 -1.8057 -1.1858 -2.1347
  941SOL     OW 2821   1.891   2.783   2.646 -0.5600 -0.7497 -0.1207
  941SOL    HW1 2822   1.943   2.877   2.658  0.8165  1.5439  1.6783
  941SOL    HW2 2823   1.845   2.757   2.734  1.2996 -0.5259  2.1216
  942SOL     OW 2824   0.887   2.378   0.415 -0.4240 -0.3222  0.2556
  942SOL    HW1 2825   0.842   2.463   0.442  0.8016 -1.3594 -0.4495
  942SOL    HW2 2826   0.984   2.378   0.446  0.3327  2.7108  2.6165
  943SOL     OW 2827   1.945   0.298   1.931 -0.1696  0.6219  0.2867
  943SOL    HW1 2828   1.911   0.215   1.981  1.4645 -1.5685 -1.5439
  943SOL    HW2 2829   1.869   0.363   1.929  0.7009  0.4960 -0.1784
  944SOL     OW 2830   0.955   1.359   2.857  0.3674  0.0012 -0.2753
  944SOL    HW1 2831   0.852   1.353   2.861 -1.1914 -0.4149 -0.7799
  944SOL    HW2 2832   1.000   1.309   2.782  0.0165 -2.5866  0.1044
  945SOL     OW 2833   3.065   2.158   1.151 -0.6958  0.1306  0.6852
  945SOL    HW1 2834   3.007   2.238   1.157 -0.8728 -1.5358 -3.3928
  945SOL    HW2 2835   3.018   2.082   1.105 -2.5130  1.7229  1.4451
  946SOL     OW 2836   0.551   1.125   2.654  0.5658  0.2671  0.3819
  946SOL    HW1 2837   0.549   1.220   2.614 -2.5729  1.5441  1.0304
  946SOL    HW2 2838   0.503   1.056   2.596 -1.3343  0.6012  3.7801
  947SOL     OW 2839   2.656   0.191   1.624  0.3080  0.2766 -0.0442
  947SOL    HW1 2840   2.647   0.232   1.714 -2.1095  1.1734 -1.1497
  947SOL    HW2 2841   2.728   0.118   1.622 -1.1023 -0.9278  1.2837
  948SOL     OW 2842   0.081   1.880   0.899 -0.2290  0.3575  0.8835
  948SOL    HW1 2843   0.073   1.778   0.922 -0.2091  0.3036 -0.2172
  948SOL    HW2 2844   3.084   1.927   0.917 -0.2795 -1.1588  1.1174
  949SOL     OW 2845   1.282   1.194   1.645  0.2202 -0.4405 -0.1867
  949SOL    HW1 2846   1.206   1.208   1.579  1.0815  0.0714  1.5005
  949SOL    HW2 2847   1.260   1.239   1.734  0.7594 -3.8208 -1.0378
  950SOL     OW 2848   0.139   0.988   1.062  0.5779 -0.2584  0.0783
  950SOL    HW1 2849   0.111   0.924   0.990 -0.2964 -1.7238 -1.4425
  950SOL    HW2 2850   0.239   0.997   1.072 -3.0619  1.9544  1.3081
  951SOL     OW 2851   0.334   1.787   2.189 -0.3228  0.4664 -0.1056
  951SOL    HW1 2852   0.315   1.883   2.192  0.0076 -2.6397 -0.9826
  951SOL    HW2 2853   0.435   1.773   2.169  0.9761 -2.8776 -0.9701
  952SOL     OW 2854   1.421   1.726   0.294  0.3940  0.0005  0.7619
  952SOL    HW1 2855   1.440   1.822   0.315  1.4104 -2.1424  1.3049
  952SOL    HW2 2856   1.399   1.710   0.197  0.5218 -1.3499 -1.4005
  953SOL     OW 2857   0.956   0.579   0.115 -0.4895 -0.8017 -0.2946
  953SOL    HW1 2858   1.050   0.606   0.077 -0.1968  2.4129  0.9081
  953SOL    HW2 2859   0.883   0.631   0.061 -1.0559  0.4787 -1.0428
  954SOL     OW 2860   1.833   1.186   0.640  0.3518 -0.0548  0.2106
  954SOL    HW1 2861   1.888   1.221   0.560  2.8916  2.1738 -0.2140
  954SOL    HW2 2862   1.859   1.233   0.727  2.1001 -0.0174 -0.0906
  955SOL     OW 2863   2.522   1.507   0.164  0.3109  0.1092 -0.5631
  955SOL    HW1 2864   2.535   1.568   0.085 -2.6803 -2.2655 -0.6628
  955SOL    HW2 2865   2.609   1.463   0.195  0.1305 -0.2805  0.2067
  956SOL     OW 2866   1.151   0.795   1.707 -0.0929 -0.1140 -0.5726
  956SOL    HW1 2867   1.225   0.862   1.687  1.5853 -0.7890  0.6987
  956SOL    HW2 2868   1.157   0.763   1.806 -0.7614 -0.2317 -0.9996
  957SOL     OW 2869   1.568   0.955   1.295  0.5948  0.4198 -0.3505
  957SOL    HW1 2870   1.546   1.051   1.309 -1.7489 -3.9356  1.2418
  957SOL    HW2 2871   1.556   0.900   1.383 -2.2015 -1.9836  0.8994
  958SOL     OW 2872   0.446   1.754   0.646 -0.2963  0.3013  0.1168
  958SOL    HW1 2873   0.375   1.678   0.644 -0.2273 -0.7817  1.0081
  958SOL    HW2 2874   0.505   1.760   0.567 -1.0648  0.7237  1.3472
  959SOL     OW 2875   1.811   1.406   1.390 -0.2393 -0.0898 -0.3742
  959SOL    HW1 2876   1.864   1.409   1.480 -0.3896 -0.6083  2.8942
  959SOL    HW2 2877   1.868   1.390   1.308 -1.2727  1.2231  0.7552
  960SOL     OW 2878   3.017   1.497   2.798 -0.5169  0.0257  0.2709
  960SOL    HW1 2879   3.070   1.557   2.860 -0.3756 -0.8773  0.0451
  960SOL    HW2 2880   3.081   1.469   2.720  0.5722 -0.8772  2.1838
  961SOL     OW 2881   0.943   1.343   0.958  0.3474  0.1700  0.0687
  961SOL    HW1 2882   0.905   1.405   0.886  0.3306 -0.6763  0.5617
  961SOL    HW2 2883   1.008   1.396   1.015  1.9951  1.2617 -2.8059
  962SOL     OW 2884   0.789   0.780   0.449  0.3674 -0.8704  0.1297
  962SOL    HW1 2885   0.838   0.696   0.425 -1.3470  4.7114  1.9307
  962SOL    HW2 2886   0.857   0.846   0.480 -3.1393 -2.4868  4.0094
  963SOL     OW 2887   1.470   1.882   1.909 -0.1364  0.2567  0.0195
  963SOL    HW1 2888   1.514   1.951   1.846 -0.6408 -0.7065 -2.2126
  963SOL    HW2 2889   1.487   1.900   2.007  1.7578  1.0127 -1.6590
  964SOL     OW 2890   3.086   2.843   2.657  0.3753 -0.5488  0.3313
  964SOL    HW1 2891   0.041   2.847   2.742 -1.3243 -1.4341 -3.2122
  964SOL    HW2 2892   3.047   2.746   2.650 -0.6697  0.0202 -0.8104
  965SOL     OW 2893   0.745   2.331   0.149  0.1082 -0.3663 -0.0039
  965SOL    HW1 2894   0.761   2.261   0.081  1.0370 -0.1296 -0.8792
  965SOL    HW2 2895   0.773   2.296   0.241  1.0420 -1.8840  1.7105
  966SOL     OW 2896   3.080   1.735   2.998 -0.6184 -0.4223 -0.2993
  966SOL    HW1 2897   3.013   1.759   3.073 -2.0391 -0.1719  2.2108
  966SOL    HW2 2898   0.049   1.655   3.024  1.1793 -1.8184  0.3241
  967SOL     OW 2899   2.154   2.675   2.830 -0.1990 -0.3231  0.1507
  967SOL    HW1 2900   2.208   2.751   2.784  2.6652 -1.0817  0.0139
  967SOL    HW2 2901   2.118   2.613   2.760  2.0946  1.9925 -1.0620
  968SOL     OW 2902   2.058   2.879   0.529  0.3390  0.0808  0.0562
  968SOL    HW1 2903   2.133   2.935   0.494 -0.6700 -0.0134  0.2379
  968SOL    HW2 2904   2.083   2.836   0.620 -0.3633  2.6214  0.6530
  969SOL     OW 2905   0.741   1.123   2.312 -0.6266 -0.2449  0.2463
  969SOL    HW1 2906   0.654   1.124   2.365 -0.4205 -2.9523  3.2035
  969SOL    HW2 2907   0.720   1.120   2.210  0.4676 -0.0151  0.1564
  970SOL     OW 2908   1.581   1.339   0.684  0.1029 -0.4647  0.0313
  970SOL    HW1 2909   1.610   1.256   0.630 -4.1677  0.1308 -0.7336
  970SOL    HW2 2910   1.621   1.335   0.778  2.4468 -0.6885 -2.7765
  971SOL     OW 2911   2.442   3.048   1.431 -0.3839 -0.3253  0.1377
  971SOL    HW1 2912   2.541   3.012   1.449  2.4672 -2.2791  0.6161
  971SOL    HW2 2913   2.424   3.051   1.331 -0.4374  0.7819  1.8549
  972SOL     OW 2914   2.932   0.049   1.622  0.0176 -0.3745  0.1480
  972SOL    HW1 2915   2.961   0.004   1.710  2.6749  0.2529  2.5036
  972SOL    HW2 2916   2.936   0.151   1.638 -2.4862 -0.4310  0.1701
  973SOL     OW 2917   0.206   0.168   2.378  0.4957  0.0604 -0.1271
  973SOL    HW1 2918   0.233   0.074   2.365  0.1208  1.1655  0.8746
  973SOL    HW2 2919   0.245   0.196   2.470 -1.7568  0.5567 -0.6148
  974SOL     OW 2920   2.190   1.102   2.186  0.0096  0.1344  0.3263
  974SOL    HW1 2921   2.089   1.130   2.182 -2.4279 -1.0846  0.5405
  974SOL    HW2 2922   2.247   1.183   2.164  1.2376 -1.5716  1.7725
  975SOL     OW 2923   1.065   0.528   1.590  0.2382  0.1312 -0.5598
  975SOL    HW1 2924   1.100   0.615   1.633  2.0292 -1.8147 -2.2238
  975SOL    HW2 2925   0.988   0.540   1.524 -2.4461 -0.6753 -4.5577
  976SOL     OW 2926   0.947   1.739   1.952 -0.3995 -0.3510 -0.4055
  976SOL    HW1 2927   0.877   1.800   1.911  1.0372 -0.6470 -1.9888
  976SOL    HW2 2928   1.025   1.791   1.996  2.2177 -0.0019  0.6342
  977SOL     OW 2929   0.872   0.222   0.277  0.0288  0.3324  0.1942
  977SOL    HW1 2930   0.851   0.279   0.198 -2.0940  1.4422  0.3252
  977SOL    HW2 2931   0.912   0.282   0.352  1.5860 -1.8800  1.2809
  978SOL     OW 2932   2.630   0.892   2.157  0.2103  0.2955  0.8416
  978SOL    HW1 2933   2.556   0.870   2.222  2.7328  1.4320  1.0143
  978SOL    HW2 2934   2.667   0.984   2.184 -1.0013  0.7037 -2.5059
  979SOL     OW 2935   1.521   0.405   1.902  0.8992 -0.2803 -0.1693
  979SOL    HW1 2936   1.553   0.317   1.857 -1.7065 -0.0956  2.1477
  979SOL    HW2 2937   1.603   0.456   1.934 -0.7086  2.3890 -1.1829
  980SOL     OW 2938   1.662   1.690   1.752  0.4101 -0.4273  0.0875
  980SOL    HW1 2939   1.588   1.675   1.817  3.3668  0.7958 -1.4609
  980SOL    HW2 2940   1.648   1.639   1.664  0.0494 -1.1936 -2.8147
  981SOL     OW 2941   2.407   1.001   1.465  0.2793  0.1044  0.0048
  981SOL    HW1 2942   2.472   1.070   1.432 -1.5279 -2.7028  0.7984
  981SOL    HW2 2943   2.390   1.016   1.563  0.5125  0.2026 -1.3937
  982SOL     OW 2944   0.406   0.083   2.854 -0.0729 -0.5142 -0.6964
  982SOL    HW1 2945   0.331   0.037   2.903  3.3689 -2.0233  1.4953
  982SOL    HW2 2946   0.464   0.024   2.795  1.8929  2.9851  2.5872
  983SOL     OW 2947   2.524   0.679   2.731  0.1547  0.1793 -0.0260
  983SOL    HW1 2948   2.483   0.702   2.821  0.8406 -1.2400 -0.8260
  983SOL    HW2 2949   2.447   0.658   2.662  1.1780 -1.2914 -0.0880
  984SOL     OW 2950   1.244   3.080   1.920 -0.1194  0.8417 -0.5501
  984SOL    HW1 2951   1.332   3.056   1.962  1.2846 -0.9491 -0.9786
  984SOL    HW2 2952   1.186   2.999   1.918  2.4923  0.8253 -0.7539
  985SOL     OW 2953   1.766   1.855   1.941  0.7844 -0.0650 -0.5288
  985SOL    HW1 2954   1.865   1.846   1.918  1.8358  1.2747  2.5404
  985SOL    HW2 2955   1.696   1.835   1.864 -3.2261  0.1426 -2.1222
  986SOL     OW 2956   2.356   0.756   1.380  0.0695  0.4222  0.0570
  986SOL    HW1 2957   2.401   0.839   1.410 -1.5881  1.8218 -0.4088
  986SOL    HW2 2958   2.422   0.680   1.357 -0.1293  1.4461  1.6094
  987SOL     OW 2959   2.571   1.197   1.361  0.2549  0.0621  0.3166
  987SOL    HW1 2960   2.496   1.235   1.304  2.2316 -1.3479  1.5888
  987SOL    HW2 2961   2.643   1.268   1.377  0.6778  1.0929 -0.2871
  988SOL     OW 2962   1.974   1.410   1.606  0.0480 -0.1618 -0.0891
  988SOL    HW1 2963   1.922   1.467   1.677  1.0463  0.8779  1.6843
  988SOL    HW2 2964   2.034   1.468   1.555 -2.8565 -0.9606  2.6271
  989SOL     OW 2965   1.063   2.630   0.238 -0.0177 -0.1746  0.0576
  989SOL    HW1 2966   1.063   2.732   0.242  2.0818 -2.4140 -2.3814
  989SOL    HW2 2967   1.144   2.602   0.289  1.2057  0.2669  0.5422
  990SOL     OW 2968   1.690   0.807   2.907 -0.0819 -0.0799  0.6750
  990SOL    HW1 2969   1.691   0.707   2.886  0.5733 -1.2154  2.0358
  990SOL    HW2 2970   1.656   0.826   3.004 -1.0250  0.4965  1.6560
  991SOL     OW 2971   1.053   0.329   0.466 -0.0481 -0.5030 -0.0216
  991SOL    HW1 2972   1.100   0.394   0.533  3.3222 -2.4251  0.8852
  991SOL    HW2 2973   1.128   0.266   0.434  2.0002  0.2972 -0.4854
  992SOL     OW 2974   2.782   1.399   1.354 -0.5057  0.7043  0.1706
  992SOL    HW1 2975   2.816   1.488   1.324 -2.3038  0.2205 -0.9296
  992SOL    HW2 2976   2.856   1.333   1.380  0.9381 -0.8627  0.6128
  993SOL     OW 2977   2.707   0.806   1.490 -0.3695 -0.0832 -0.1617
  993SOL    HW1 2978   2.611   0.771   1.468  0.4523 -2.4619 -1.3136
  993SOL    HW2 2979   2.751   0.836   1.406 -1.7633  3.9901 -1.1346
  994SOL     OW 2980   0.185   2.306   2.559  0.2546  0.1707  0.0675
  994SOL    HW1 2981   0.284   2.319   2.536  0.2341  0.9871  1.3123
  994SOL    HW2 2982   0.153   2.384   2.616  2.3810 -0.9398 -1.0399
  995SOL     OW 2983   1.770   1.023   2.798  0.1731  0.4007 -0.3409
  995SOL    HW1 2984   1.842   1.014   2.729 -0.5524  2.8596  1.2265
  995SOL    HW2 2985   1.740   0.941   2.852 -0.1861  1.4312 -0.2338
  996SOL     OW 2986   2.646   1.591   0.585 -0.2412  0.1590  0.1638
  996SOL    HW1 2987   2.624   1.684   0.544  1.6056  3.7797 -1.1701
  996SOL    HW2 2988   2.732   1.553   0.540 -1.9322  1.4793  0.0110
  997SOL     OW 2989   2.230   0.938   2.406 -0.1571 -0.5250  0.8522
  997SOL    HW1 2990   2.237   1.002   2.325  0.5689  3.6847  2.7057
  997SOL    HW2 2991   2.136   0.941   2.437 -1.8560  0.3981  0.0553
  998SOL     OW 2992   2.529   1.064   0.578  0.3655  0.4159 -0.9631
  998SOL    HW1 2993   2.455   1.016   0.529 -0.2232 -2.2869 -3.4200
  998SOL    HW2 2994   2.602   1.094   0.512 -1.0283 -0.7642  0.1916
  999SOL     OW 2995   0.008   2.315   0.244  0.3431  0.0333  0.2351
  999SOL    HW1 2996   0.051   2.285   0.335  3.2748 -1.8118  0.7014
  999SOL    HW2 2997   2.997   2.329   0.255 -2.8175 -2.7441  0.4690
 1000SOL     OW 2998   0.943   0.763   2.459 -0.0198  0.0641 -0.2621
 1000SOL    HW1 2999   0.905   0.712   2.541  1.9835 -0.1443 -1.5390
 1000SOL    HW2 3000   1.042   0.732   2.446  1.2916 -0.6701 -0.0792
   3.09115   3.09115   3.09115
