1000 SPC/Fw water molecules t= 424.00000 step= 424000
 3000
    1SOL     OW    1   0.075   3.068   1.159  0.1694  0.1765 -0.0473
    1SOL    HW1    2   0.177   3.084   1.174  0.7320  0.3063  0.8793
    1SOL    HW2    3   0.046   3.022   1.249 -1.4337 -2.2839  1.1419
    2SOL     OW    4   2.692   0.047   0.241 -0.6303 -0.7161  0.6499
    2SOL    HW1    5   2.708   3.069   0.215 -0.3297  0.5215  1.2515
    2SOL    HW2    6   2.664   0.098   0.159  0.1542  1.9811 -0.5841
    3SOL     OW    7   1.613   2.694   0.020  0.2005  0.3989 -1.2407
    3SOL    HW1    8   1.570   2.649   3.063 -1.3085  1.3100  2.0548
    3SOL    HW2    9   1.605   2.795   0.013 -2.1811 -0.3519  0.3965
    4SOL     OW   10   1.150   0.029   2.397  0.3829  0.0094  0.2474
    4SOL    HW1   11   1.096   0.061   2.479 -0.0111  2.2994 -1.4646
    4SOL    HW2   12   1.087   3.112   2.321  1.0681 -0.8949 -1.1117
    5SOL     OW   13   2.298   0.174   2.161 -0.2718 -0.1246  0.4803
    5SOL    HW1   14   2.260   0.081   2.140 -0.7658 -1.9504 -2.2255
    5SOL    HW2   15   2.242   0.250   2.127  0.0338 -0.9198  0.2294
    6SOL     OW   16   2.582   1.862   1.430  0.1195 -0.0886 -0.2833
    6SOL    HW1   17   2.602   1.832   1.336 -0.0267  0.3207  1.6951
    6SOL    HW2   18   2.505   1.805   1.470  1.2507 -2.8646  0.6399
    7SOL     OW   19   1.748   1.434   0.643  0.5986  0.0896  0.0010
    7SOL    HW1   20   1.791   1.409   0.730 -1.0487 -0.6101 -2.0777
    7SOL    HW2   21   1.704   1.355   0.599 -2.1225 -0.6867  2.7440
    8SOL     OW   22   0.348   1.551   1.063  0.4296  0.0360  0.0367
    8SOL    HW1   23   0.395   1.604   1.133 -0.0585 -0.5525  0.2786
    8SOL    HW2   24   0.247   1.572   1.072  0.8197 -0.3915 -1.6174
    9SOL     OW   25   3.059   2.748   1.478  0.9102  0.1901 -0.3702
    9SOL    HW1   26   2.957   2.735   1.474 -1.7668  0.0134  0.5189
    9SOL    HW2   27   3.112   2.668   1.451 -1.0498  0.8810  0.1742
   10SOL     OW   28   1.174   2.436   0.532  0.2899  0.0436  0.0250
   10SOL    HW1   29   1.250   2.495   0.495  1.1271 -0.0486 -0.7477
   10SOL    HW2   30   1.091   2.467   0.481  0.4633 -1.3461 -0.2598
   11SOL     OW   31   1.617   1.902   1.198 -0.0181 -0.3222  0.1622
   11SOL    HW1   32   1.692   1.967   1.221  0.0919 -1.9780  0.8119
   11SOL    HW2   33   1.596   1.914   1.101 -0.8280 -4.8605 -0.5795
   12SOL     OW   34   0.095   0.739   2.188  0.8167 -0.6541  0.0812
   12SOL    HW1   35   0.112   0.802   2.108  2.3506  1.5960 -1.3728
   12SOL    HW2   36   0.180   0.722   2.242 -1.9564  0.4356 -2.2296
   13SOL     OW   37   2.499   2.815   0.327 -0.0166  0.2947 -0.6241
   13SOL    HW1   38   2.476   2.716   0.310  0.5228 -0.0970 -3.0239
   13SOL    HW2   39   2.558   2.856   0.255  2.1511  1.4572 -0.1520
   14SOL     OW   40   1.442   1.919   0.168  0.5006 -0.4190 -0.1413
   14SOL    HW1   41   1.486   1.920   0.075  0.5973  1.6118  0.3760
   14SOL    HW2   42   1.472   1.992   0.233 -1.2340  2.6856  2.5936
   15SOL     OW   43   2.901   2.818   1.953 -0.2667  0.0438  0.3090
   15SOL    HW1   44   2.953   2.766   1.885 -2.0530 -2.4677 -0.9885
   15SOL    HW2   45   2.899   2.922   1.939 -2.1095 -1.5057 -1.3922
   16SOL     OW   46   2.862   0.505   0.810  0.1521 -0.3039 -0.2633
   16SOL    HW1   47   2.955   0.464   0.822 -0.3792 -0.9599 -2.6721
   16SOL    HW2   48   2.803   0.439   0.761 -0.6637  1.0908  0.9869
   17SOL     OW   49   0.971   0.067   0.733 -0.2726 -0.5832  0.1703
   17SOL    HW1   50   0.911   0.123   0.673  0.9567  0.2174  2.0280
   17SOL    HW2   51   0.991   0.118   0.823  2.3489  2.3710  1.4039
   18SOL     OW   52   1.054   0.244   0.925 -0.2364  0.3365  0.1400
   18SOL    HW1   53   1.148   0.248   0.961  0.6439 -0.2279  1.8121
   18SOL    HW2   54   1.010   0.335   0.916 -0.4491 -3.0197 -0.7478
   19SOL     OW   55   2.065   1.174   0.754 -0.0438  0.0406  0.3768
   19SOL    HW1   56   2.166   1.203   0.766  0.8534 -1.4037  2.5034
   19SOL    HW2   57   2.031   1.186   0.660 -1.6445 -0.8044 -0.8800
   20SOL     OW   58   2.332   1.532   2.707 -0.5533 -0.2251  0.5214
   20SOL    HW1   59   2.236   1.551   2.720  0.3642  3.3311  1.8419
   20SOL    HW2   60   2.385   1.614   2.664  2.1396  4.8682  0.3158
   21SOL     OW   61   1.433   3.023   0.264 -0.2504 -0.1852 -0.0786
   21SOL    HW1   62   1.510   3.001   0.329 -0.8981 -0.1465  2.3197
   21SOL    HW2   63   1.347   3.031   0.320  3.2833  0.8104 -1.3017
   22SOL     OW   64   2.996   0.952   0.780  0.5002  0.6637  0.0748
   22SOL    HW1   65   3.038   1.005   0.705 -0.7375 -0.4983  2.9669
   22SOL    HW2   66   2.953   0.865   0.745  0.0197  1.9812 -0.7172
   23SOL     OW   67   0.556   0.250   2.042 -0.0558 -0.1410 -0.1897
   23SOL    HW1   68   0.578   0.348   2.064  0.6889 -1.7090  0.1069
   23SOL    HW2   69   0.495   0.248   1.962 -0.1975 -0.4504  0.8912
   24SOL     OW   70   2.312   2.245   0.919 -0.6477  0.1271  0.6679
   24SOL    HW1   71   2.263   2.308   0.858 -1.0756 -4.0277 -0.4639
   24SOL    HW2   72   2.257   2.161   0.932  1.0471  0.7830  0.2753
   25SOL     OW   73   1.898   0.175   2.476 -0.2289  0.8422 -0.1527
   25SOL    HW1   74   1.805   0.165   2.430 -2.5373  3.0250 -1.6475
   25SOL    HW2   75   1.884   0.214   2.571 -1.5949 -0.9741  1.6901
   26SOL     OW   76   1.528   2.234   3.069 -0.5701  0.0961 -0.2275
   26SOL    HW1   77   1.589   2.305   3.031 -0.4168  0.4481  1.0987
   26SOL    HW2   78   1.479   2.190   2.992 -0.1342  1.7174  1.4403
   27SOL     OW   79   1.420   0.337   1.273  0.3599 -0.1269 -0.8124
   27SOL    HW1   80   1.381   0.303   1.186 -0.8864  1.7650  0.2726
   27SOL    HW2   81   1.495   0.270   1.302  1.2492  0.1878 -1.0733
   28SOL     OW   82   0.829   1.572   0.646 -0.2394  0.5042  0.2731
   28SOL    HW1   83   0.756   1.514   0.690 -0.6929  2.5094 -0.0504
   28SOL    HW2   84   0.850   1.546   0.547 -0.2761 -1.5021  0.3459
   29SOL     OW   85   2.639   0.424   1.576 -0.3242 -0.3296 -0.5153
   29SOL    HW1   86   2.634   0.395   1.478  1.9957  0.7631 -0.1267
   29SOL    HW2   87   2.662   0.339   1.629 -0.5690 -4.3122  0.3032
   30SOL     OW   88   1.389   2.507   1.561  0.4183  0.4323 -0.1532
   30SOL    HW1   89   1.476   2.459   1.548 -1.1707  3.1807 -2.4975
   30SOL    HW2   90   1.311   2.472   1.508  2.4395  1.2656  0.5810
   31SOL     OW   91   1.985   2.803   1.596  0.4877 -0.5272 -0.3321
   31SOL    HW1   92   2.026   2.799   1.688  1.2351  2.9466  2.8256
   31SOL    HW2   93   2.053   2.820   1.526  0.0316 -1.4629 -0.9165
   32SOL     OW   94   2.171   1.384   2.313  0.3687 -0.1523 -0.2513
   32SOL    HW1   95   2.082   1.334   2.304 -0.6686  0.6157  0.5034
   32SOL    HW2   96   2.253   1.325   2.327 -0.8545 -1.2923  2.3672
   33SOL     OW   97   2.631   0.558   2.916  0.0475 -0.5724 -0.8598
   33SOL    HW1   98   2.641   0.570   3.018 -0.8191 -0.3093 -0.3449
   33SOL    HW2   99   2.613   0.649   2.876 -1.5917  0.2364  2.3132
   34SOL     OW  100   1.793   0.405   0.378 -0.3688 -0.3744 -0.3126
   34SOL    HW1  101   1.702   0.366   0.355 -0.0295 -0.5583 -0.2062
   34SOL    HW2  102   1.813   0.471   0.302  0.9238 -0.0840 -2.2068
   35SOL     OW  103   0.164   2.010   1.924 -0.4811 -0.5879  0.6608
   35SOL    HW1  104   0.114   2.096   1.949  1.6927 -2.5310 -1.3479
   35SOL    HW2  105   0.133   1.932   1.981  0.2549  1.9013 -0.3500
   36SOL     OW  106   2.459   1.770   2.622 -0.0551  0.0085  0.3253
   36SOL    HW1  107   2.460   1.791   2.723 -0.1561  0.7802 -0.7712
   36SOL    HW2  108   2.551   1.777   2.574  0.7172  1.9839 -1.2395
   37SOL     OW  109   1.342   2.945   1.693  0.0696 -0.3433 -0.0557
   37SOL    HW1  110   1.407   2.895   1.634  2.5971 -2.0393  0.5767
   37SOL    HW2  111   1.380   2.949   1.787 -0.1499  0.2058 -0.2983
   38SOL     OW  112   0.513   0.737   2.659  0.0745  0.1383 -0.1927
   38SOL    HW1  113   0.496   0.819   2.596  0.0101 -0.3186  0.0746
   38SOL    HW2  114   0.567   0.658   2.617 -1.6078 -1.7458 -3.6401
   39SOL     OW  115   1.912   0.737   1.339 -0.0859  0.0939 -0.7180
   39SOL    HW1  116   1.824   0.690   1.330 -1.6428 -1.3561 -0.1716
   39SOL    HW2  117   1.968   0.747   1.254  2.2030 -0.7240  2.4321
   40SOL     OW  118   1.278   2.379   0.796  0.2020 -1.0029 -0.1175
   40SOL    HW1  119   1.228   2.321   0.863  2.3052  2.2544 -0.7627
   40SOL    HW2  120   1.215   2.400   0.717 -0.3095  2.4696  0.6592
   41SOL     OW  121   2.117   2.049   1.047 -0.0914 -0.2984  0.0194
   41SOL    HW1  122   2.062   1.978   0.994  1.3894  1.2910  1.7835
   41SOL    HW2  123   2.057   2.114   1.093 -0.1294  3.2867 -2.3171
   42SOL     OW  124   2.466   0.461   0.768 -0.7384  0.1593 -0.1391
   42SOL    HW1  125   2.547   0.456   0.827 -0.3612 -2.0728  0.7949
   42SOL    HW2  126   2.457   0.545   0.709 -0.5111 -1.9757 -0.7438
   43SOL     OW  127   0.833   1.461   2.245 -0.3457 -0.1106  0.3611
   43SOL    HW1  128   0.837   1.402   2.329 -0.8523 -0.2513  0.5285
   43SOL    HW2  129   0.808   1.552   2.270 -1.2718 -1.3227 -0.2629
   44SOL     OW  130   1.792   2.631   1.191 -0.2869 -0.5105 -0.3235
   44SOL    HW1  131   1.704   2.598   1.152 -1.0695  0.1918  3.3679
   44SOL    HW2  132   1.853   2.554   1.211 -0.6698  0.1329  0.8795
   45SOL     OW  133   1.022   0.031   2.632  0.5028 -0.3969 -0.2784
   45SOL    HW1  134   0.985   0.121   2.655 -1.9141 -1.2496 -0.4207
   45SOL    HW2  135   0.950   3.087   2.667  0.7128 -0.9536  0.1548
   46SOL     OW  136   0.669   2.670   1.885 -0.5339  0.2599 -0.2383
   46SOL    HW1  137   0.680   2.687   1.786 -0.1182 -1.3620 -2.2909
   46SOL    HW2  138   0.694   2.753   1.944  1.4946 -2.0329 -2.1054
   47SOL     OW  139   0.970   1.980   0.905  0.1000 -0.1892  0.1728
   47SOL    HW1  140   0.965   1.880   0.871  0.5376 -0.6492 -0.3804
   47SOL    HW2  141   0.915   2.000   0.990 -1.1236  1.8028 -1.3206
   48SOL     OW  142   0.920   2.576   1.248 -0.1600 -0.5921 -0.4109
   48SOL    HW1  143   1.008   2.605   1.291  0.2207 -1.2980 -0.2886
   48SOL    HW2  144   0.842   2.631   1.283 -0.9640 -0.5380 -1.6077
   49SOL     OW  145   2.803   3.092   2.985 -0.2281 -0.9301  0.6450
   49SOL    HW1  146   2.859   0.054   2.994 -3.8192  0.4533  1.3991
   49SOL    HW2  147   2.850   3.020   3.035 -0.0699 -0.1422 -1.5120
   50SOL     OW  148   1.694   1.210   0.485 -0.3175 -0.0661  0.4401
   50SOL    HW1  149   1.693   1.119   0.532  2.2223 -0.7314  0.2390
   50SOL    HW2  150   1.685   1.206   0.384 -0.6115 -1.2896  0.9606
   51SOL     OW  151   2.015   0.041   0.583  0.2348 -0.6166  0.3337
   51SOL    HW1  152   2.023   0.131   0.522  3.0060  1.9824 -1.4209
   51SOL    HW2  153   2.060   0.062   0.672  0.7214  1.2937 -1.2093
   52SOL     OW  154   0.837   1.527   0.376 -0.5236  0.1972 -0.2312
   52SOL    HW1  155   0.872   1.432   0.347  0.6537 -0.7430 -1.0411
   52SOL    HW2  156   0.790   1.573   0.303  0.5571 -0.1103  0.7237
   53SOL     OW  157   0.250   1.036   2.686  0.1610 -0.3252  0.3502
   53SOL    HW1  158   0.309   1.058   2.766 -0.0288  2.1612  2.8172
   53SOL    HW2  159   0.203   1.118   2.648  0.3288  0.1938  1.2563
   54SOL     OW  160   2.317   2.012   3.012 -0.5640 -0.1206  0.0759
   54SOL    HW1  161   2.411   1.971   3.007 -1.2745 -0.1505 -0.2296
   54SOL    HW2  162   2.244   1.941   3.017  3.7240  0.3847 -0.3548
   55SOL     OW  163   2.357   2.264   1.308 -0.8824  0.2825 -0.3276
   55SOL    HW1  164   2.392   2.250   1.401 -0.5882 -0.0048 -2.0553
   55SOL    HW2  165   2.350   2.171   1.270 -0.9395 -0.0955 -1.0257
   56SOL     OW  166   1.746   3.057   1.344 -0.2239 -0.5119  0.1549
   56SOL    HW1  167   1.724   2.961   1.375 -2.2296 -0.6388 -1.8871
   56SOL    HW2  168   1.691   3.084   1.260  0.2794 -0.6964  1.2959
   57SOL     OW  169   1.594   1.711   0.708 -0.0164 -0.3084  0.1307
   57SOL    HW1  170   1.659   1.635   0.731 -1.0716  1.7318 -1.3635
   57SOL    HW2  171   1.523   1.686   0.637  1.1090 -0.6192 -1.5505
   58SOL     OW  172   2.521   0.011   1.783 -0.0975  0.2475 -0.3440
   58SOL    HW1  173   2.479   0.071   1.857  0.7118 -2.4449 -0.0260
   58SOL    HW2  174   2.496   0.043   1.687  0.5832  0.3265 -2.1784
   59SOL     OW  175   0.898   2.709   2.479 -0.3295 -0.2246 -0.6370
   59SOL    HW1  176   0.866   2.681   2.384  0.1174  0.1204 -4.4936
   59SOL    HW2  177   0.837   2.777   2.522  0.0225 -0.7687  1.3623
   60SOL     OW  178   0.613   0.193   2.435 -0.1532 -0.1407 -0.1329
   60SOL    HW1  179   0.510   0.182   2.433 -2.0006 -2.8843  0.8508
   60SOL    HW2  180   0.644   0.291   2.445  2.1159  0.7171 -2.4673
   61SOL     OW  181   0.843   2.156   0.726  0.1791  0.4567  0.3833
   61SOL    HW1  182   0.817   2.150   0.627 -0.6828  0.5993 -0.6351
   61SOL    HW2  183   0.884   2.072   0.768  0.1118  0.1945 -1.5106
   62SOL     OW  184   1.156   2.184   2.012  0.1603  0.2030  0.1085
   62SOL    HW1  185   1.154   2.188   2.114 -3.3307 -0.2492  0.2066
   62SOL    HW2  186   1.126   2.094   1.979 -0.1431 -1.6169  1.7452
   63SOL     OW  187   1.254   1.703   0.777  0.0144  0.1411  0.4853
   63SOL    HW1  188   1.152   1.704   0.770  0.8838  2.5739 -0.4561
   63SOL    HW2  189   1.293   1.666   0.689  0.1115 -0.2941 -1.2198
   64SOL     OW  190   1.550   1.488   0.135 -0.5003 -0.3555 -0.2958
   64SOL    HW1  191   1.590   1.423   0.067 -1.9509  0.7717 -1.3100
   64SOL    HW2  192   1.620   1.517   0.206  4.4641 -1.3872  0.0603
   65SOL     OW  193   1.515   2.094   2.221  0.1931 -0.1165 -0.0311
   65SOL    HW1  194   1.536   2.044   2.131  3.3312 -3.4027 -0.3227
   65SOL    HW2  195   1.599   2.083   2.278 -0.1249  0.1959 -0.4806
   66SOL     OW  196   0.383   0.906   1.326 -0.1235  0.0465 -0.1023
   66SOL    HW1  197   0.292   0.868   1.308 -0.3997  0.8100 -0.2546
   66SOL    HW2  198   0.449   0.886   1.254 -0.4890 -0.7780 -0.9447
   67SOL     OW  199   2.156   2.532   0.504 -0.3343  0.3222  0.3601
   67SOL    HW1  200   2.069   2.564   0.543  0.6604  1.5426  1.6099
   67SOL    HW2  201   2.140   2.507   0.408  1.2396  1.7419  0.9956
   68SOL     OW  202   2.296   2.515   1.691  0.3039  0.3895  0.1235
   68SOL    HW1  203   2.291   2.580   1.611  1.2870 -2.9347  2.9748
   68SOL    HW2  204   2.369   2.539   1.759 -0.5910  0.2464 -2.4753
   69SOL     OW  205   2.423   2.406   2.497  0.8004  0.0969  0.4437
   69SOL    HW1  206   2.350   2.462   2.533  3.6047 -2.7369  0.4177
   69SOL    HW2  207   2.390   2.339   2.425  2.5237  0.3911 -1.7681
   70SOL     OW  208   0.150   1.283   2.586 -0.1014  0.6479  0.2617
   70SOL    HW1  209   0.076   1.328   2.638  2.3340 -1.1550  0.5130
   70SOL    HW2  210   0.122   1.252   2.494  2.0126  0.6548 -1.2117
   71SOL     OW  211   0.978   1.270   2.079 -0.0156 -0.4684 -0.3557
   71SOL    HW1  212   0.939   1.319   2.158 -1.4551 -1.3211  0.1675
   71SOL    HW2  213   0.935   1.287   1.993 -0.9461 -0.5549  0.4693
   72SOL     OW  214   2.314   1.210   1.750 -0.3755 -0.3867 -0.2138
   72SOL    HW1  215   2.238   1.176   1.683  0.4236 -1.5205 -1.6431
   72SOL    HW2  216   2.386   1.144   1.781 -1.1890 -0.3784  0.7018
   73SOL     OW  217   0.618   1.888   2.965 -0.1647  0.3897 -0.0614
   73SOL    HW1  218   0.702   1.846   2.920 -1.6966  2.4393 -0.7084
   73SOL    HW2  219   0.563   1.811   3.011 -2.1359 -3.2716  2.5504
   74SOL     OW  220   1.742   2.877   1.898  0.1531  0.4310  0.5970
   74SOL    HW1  221   1.760   2.797   1.958  0.3154 -3.0740 -1.4205
   74SOL    HW2  222   1.643   2.907   1.909 -1.2280 -0.0823 -0.4223
   75SOL     OW  223   1.059   2.733   0.567  0.4834  0.1505 -0.5883
   75SOL    HW1  224   1.004   2.769   0.490 -0.4625  1.9334 -0.9485
   75SOL    HW2  225   1.128   2.796   0.602  1.3108 -1.6073  1.1178
   76SOL     OW  226   2.893   2.062   2.727 -0.2738  0.5731 -0.7716
   76SOL    HW1  227   2.891   2.018   2.637 -2.4325  0.3665 -2.1431
   76SOL    HW2  228   2.994   2.074   2.756 -0.3636  1.6819 -0.7124
   77SOL     OW  229   0.088   2.538   1.111 -0.6641  0.1751  0.4212
   77SOL    HW1  230   0.006   2.565   1.165  0.3568 -0.5658 -0.9437
   77SOL    HW2  231   0.173   2.559   1.162  0.4435 -0.6587 -1.4513
   78SOL     OW  232   2.607   1.040   0.317 -0.1232 -0.4575 -0.1121
   78SOL    HW1  233   2.671   1.044   0.234 -0.2928  0.5713  0.4479
   78SOL    HW2  234   2.654   1.051   0.407 -1.9445  0.2535 -0.7230
   79SOL     OW  235   0.283   1.700   2.996  0.0840  0.3127 -0.0590
   79SOL    HW1  236   0.257   1.626   2.936  0.2702  1.6563 -2.6539
   79SOL    HW2  237   0.201   1.732   3.046  0.8586 -1.7405  1.7663
   80SOL     OW  238   1.669   1.472   1.576  0.1797 -0.1173  0.7969
   80SOL    HW1  239   1.681   1.543   1.648 -1.9159  0.1355  2.4687
   80SOL    HW2  240   1.574   1.444   1.563  3.0287  1.9954  0.4354
   81SOL     OW  241   2.089   0.900   2.132 -0.2303  0.2240  0.7563
   81SOL    HW1  242   2.044   0.806   2.146 -1.6548  0.3035  0.7773
   81SOL    HW2  243   2.023   0.967   2.091 -0.3526  0.8873  2.0893
   82SOL     OW  244   1.674   1.215   1.676  0.6110  0.2818  0.8706
   82SOL    HW1  245   1.704   1.305   1.645 -0.3564  0.7288  0.9231
   82SOL    HW2  246   1.586   1.224   1.731 -2.1028  0.3699 -2.5209
   83SOL     OW  247   0.222   0.240   0.026 -0.1045 -0.3598 -0.0573
   83SOL    HW1  248   0.129   0.271   0.037  4.7793 -0.3913  0.2860
   83SOL    HW2  249   0.241   0.200   3.058 -4.0016 -0.0126  3.7684
   84SOL     OW  250   0.447   1.301   2.965  0.0572  0.5189  0.1801
   84SOL    HW1  251   0.439   1.208   2.932  0.3603  1.5799  0.5277
   84SOL    HW2  252   0.435   1.308   3.068 -0.6030 -0.9460  2.0411
   85SOL     OW  253   2.242   1.556   1.962 -0.1443 -0.0609  1.0826
   85SOL    HW1  254   2.334   1.574   1.918  0.6936  0.1659  0.4237
   85SOL    HW2  255   2.227   1.596   2.054 -0.2201  0.9981 -0.9417
   86SOL     OW  256   0.587   0.870   1.134  0.1274 -0.2496 -0.8914
   86SOL    HW1  257   0.679   0.919   1.132 -0.1290  2.4817  2.4420
   86SOL    HW2  258   0.565   0.830   1.043  2.1501  1.9296  0.2818
   87SOL     OW  259   2.617   2.092   2.475 -0.7253  0.1418 -0.5192
   87SOL    HW1  260   2.686   2.164   2.465 -1.2045  1.3089 -0.0895
   87SOL    HW2  261   2.554   2.108   2.555 -0.9109  1.5136  0.7877
   88SOL     OW  262   0.414   2.753   0.212 -0.3054  0.0098  0.0815
   88SOL    HW1  263   0.398   2.778   0.310  1.4000 -0.6590 -1.8578
   88SOL    HW2  264   0.509   2.779   0.188 -0.1587  1.9340 -2.1898
   89SOL     OW  265   1.810   0.651   0.188 -0.0346 -0.4052 -0.1519
   89SOL    HW1  266   1.737   0.690   0.124 -3.3248  0.1333 -4.1244
   89SOL    HW2  267   1.902   0.689   0.161  1.4839 -0.2888 -1.8057
   90SOL     OW  268   2.994   1.516   2.315 -0.1006  0.8320  0.3547
   90SOL    HW1  269   2.925   1.460   2.367 -2.1267  0.2640  0.8074
   90SOL    HW2  270   3.038   1.578   2.383 -1.0166 -0.2712 -0.1333
   91SOL     OW  271   2.157   2.904   1.385 -0.3146  0.0212  0.1742
   91SOL    HW1  272   2.137   2.869   1.289 -0.0382 -3.1067  0.9655
   91SOL    HW2  273   2.148   3.006   1.399  1.3038  1.8435 -1.0374
   92SOL     OW  274   2.088   1.581   1.130  0.1511  0.5465  0.3309
   92SOL    HW1  275   2.152   1.546   1.060  0.4012 -1.0352 -3.1426
   92SOL    HW2  276   2.121   1.642   1.208  0.2982  0.3797  1.5617
   93SOL     OW  277   0.235   1.282   0.106  0.3274 -0.3973  0.2660
   93SOL    HW1  278   0.256   1.382   0.106 -0.1189  1.1004 -1.2956
   93SOL    HW2  279   0.290   1.235   0.176  1.5769  0.7725 -0.3755
   94SOL     OW  280   1.056   2.734   1.829  0.2193  0.1705  0.7143
   94SOL    HW1  281   1.037   2.737   1.931  0.6133 -0.1025 -0.3340
   94SOL    HW2  282   1.120   2.659   1.799 -0.9014  0.3051 -4.0219
   95SOL     OW  283   0.191   0.629   0.764  0.1284 -0.0607  0.5279
   95SOL    HW1  284   0.245   0.716   0.774 -0.3324  0.4265 -0.7267
   95SOL    HW2  285   0.129   0.619   0.846 -1.3072  2.5071  0.6165
   96SOL     OW  286   3.073   2.818   1.742 -0.5055 -0.1290  0.1293
   96SOL    HW1  287   3.015   2.901   1.738 -1.6001 -1.3849  1.0786
   96SOL    HW2  288   3.090   2.793   1.644  2.8416  0.7116 -3.3158
   97SOL     OW  289   2.288   0.262   1.398  0.3084  0.1364 -0.3374
   97SOL    HW1  290   2.284   0.359   1.359  2.4786  0.7840 -2.0924
   97SOL    HW2  291   2.303   0.204   1.318 -0.1016 -1.3549 -0.7700
   98SOL     OW  292   3.028   2.351   1.575 -0.2452  0.0138 -0.8032
   98SOL    HW1  293   3.002   2.290   1.503 -0.4632  1.5767 -1.0359
   98SOL    HW2  294   3.097   2.414   1.539 -0.3651 -0.8340 -0.3232
   99SOL     OW  295   0.044   0.423   1.254 -0.0418  0.5710  0.6878
   99SOL    HW1  296   0.124   0.363   1.225  0.6516  0.2009 -1.8734
   99SOL    HW2  297   0.047   0.433   1.356 -0.4770  1.9329  0.7906
  100SOL     OW  298   2.405   0.423   2.522 -0.4840  0.3562 -0.0152
  100SOL    HW1  299   2.321   0.428   2.467  1.6082 -2.6644  0.3149
  100SOL    HW2  300   2.384   0.373   2.613 -3.2696  0.9191  2.8786
  101SOL     OW  301   0.437   0.043   2.158  0.5349  0.3885  0.1999
  101SOL    HW1  302   0.488   0.120   2.115  1.0862 -0.8178  0.8464
  101SOL    HW2  303   0.505   3.115   2.212 -3.4649  0.3189  0.8844
  102SOL     OW  304   0.595   0.295   1.552 -0.2981 -0.4163  0.0076
  102SOL    HW1  305   0.549   0.387   1.542  2.3610  0.2935  0.5580
  102SOL    HW2  306   0.687   0.317   1.597 -1.3324  1.9615  2.4444
  103SOL     OW  307   1.175   0.895   2.472  0.4459  0.2015 -0.1477
  103SOL    HW1  308   1.248   0.921   2.403 -1.0058  2.3086  0.7101
  103SOL    HW2  309   1.099   0.849   2.415 -1.5272  0.2472 -0.4140
  104SOL     OW  310   0.185   0.437   1.926 -0.3493 -0.6734  0.0927
  104SOL    HW1  311   0.088   0.463   1.948  0.6678  1.4695  3.2610
  104SOL    HW2  312   0.236   0.415   2.015  0.0101 -0.5047 -2.3646
  105SOL     OW  313   2.269   1.912   1.698  0.1652  0.1323  0.1440
  105SOL    HW1  314   2.223   2.002   1.673  0.4200  1.0586  0.2106
  105SOL    HW2  315   2.213   1.848   1.752  1.3576  0.0164 -0.0830
  106SOL     OW  316   1.451   0.205   0.542  0.1974 -0.3355 -0.0487
  106SOL    HW1  317   1.350   0.210   0.568 -0.0514  0.4067 -0.9265
  106SOL    HW2  318   1.470   0.248   0.452 -2.2284  0.3191  2.1747
  107SOL     OW  319   2.319   1.969   1.214 -0.1050 -0.1807 -0.0644
  107SOL    HW1  320   2.249   1.988   1.143 -1.7969 -0.2986 -0.2469
  107SOL    HW2  321   2.400   1.914   1.184 -1.0602  2.6752 -1.5530
  108SOL     OW  322   0.213   2.283   1.010  0.0966  0.2099 -0.7742
  108SOL    HW1  323   0.134   2.234   1.055 -0.2944  2.2089  0.3140
  108SOL    HW2  324   0.192   2.378   1.002 -1.5847 -2.5968 -0.8596
  109SOL     OW  325   1.561   2.722   0.801 -0.4067  0.1901  0.2443
  109SOL    HW1  326   1.584   2.625   0.787 -1.2408  1.6035  2.3993
  109SOL    HW2  327   1.576   2.755   0.897 -3.8480  1.6293 -0.8483
  110SOL     OW  328   1.900   1.616   0.921 -0.1306 -0.2964  0.0168
  110SOL    HW1  329   1.976   1.629   0.986 -0.3005  2.8179  0.3837
  110SOL    HW2  330   1.864   1.518   0.923  1.5270 -5.2796 -1.9812
  111SOL     OW  331   1.455   2.619   1.981 -0.1551  0.8076  0.6497
  111SOL    HW1  332   1.537   2.568   1.949 -0.7507  1.3619 -0.5232
  111SOL    HW2  333   1.475   2.716   2.000 -0.6230 -1.3818 -2.5822
  112SOL     OW  334   1.964   2.336   3.033 -0.5669 -0.3052 -0.1961
  112SOL    HW1  335   1.996   2.330   2.939 -1.3268  2.5847  0.8635
  112SOL    HW2  336   2.036   2.311   3.099 -2.0118 -0.7110 -0.4360
  113SOL     OW  337   2.064   1.697   1.779  0.1751 -0.2542 -0.1011
  113SOL    HW1  338   2.099   1.651   1.869  2.1644 -0.9366  3.6501
  113SOL    HW2  339   2.074   1.639   1.696  1.2614  1.1234 -2.0935
  114SOL     OW  340   3.025   1.221   1.914  0.4311  0.2637  0.5875
  114SOL    HW1  341   2.937   1.190   1.953  0.6040 -0.1421 -0.8743
  114SOL    HW2  342   3.006   1.285   1.839 -1.2919  0.3651  1.2907
  115SOL     OW  343   2.995   0.976   0.147 -0.4848 -0.0168  0.0858
  115SOL    HW1  344   3.087   1.011   0.118 -0.4953  0.3331 -2.6987
  115SOL    HW2  345   2.998   0.959   0.248 -1.6427  0.6330 -1.4050
  116SOL     OW  346   2.914   0.747   0.021  0.1359  0.2519 -0.1368
  116SOL    HW1  347   2.928   0.836   0.070 -1.1724  1.7965  0.0417
  116SOL    HW2  348   2.869   0.753   3.050 -1.3020 -1.7913 -0.8491
  117SOL     OW  349   2.769   2.172   0.019  0.1572 -0.8516  0.0418
  117SOL    HW1  350   2.737   2.271   0.027 -0.1326  0.0730 -0.1395
  117SOL    HW2  351   2.757   2.145   3.045  0.4409  0.4428 -2.4648
  118SOL     OW  352   0.502   2.062   2.654 -0.9068  0.2249 -0.0130
  118SOL    HW1  353   0.564   2.139   2.686  0.0479  1.2758  1.5086
  118SOL    HW2  354   0.435   2.038   2.726 -1.9308 -1.9686 -1.3317
  119SOL     OW  355   0.747   2.739   0.406 -0.1883  0.2604  0.1815
  119SOL    HW1  356   0.728   2.637   0.414 -0.4847 -0.5498  2.0115
  119SOL    HW2  357   0.765   2.779   0.499  3.0914  0.6614 -1.2043
  120SOL     OW  358   1.500   0.980   0.246 -0.1200 -0.1974 -0.2753
  120SOL    HW1  359   1.428   0.946   0.312 -1.9337  1.7040 -1.4725
  120SOL    HW2  360   1.551   0.903   0.209 -0.2853  1.5294  1.3371
  121SOL     OW  361   1.433   2.970   0.828  0.1453  0.6463 -0.2249
  121SOL    HW1  362   1.475   2.875   0.809 -0.2518 -0.8941  1.5586
  121SOL    HW2  363   1.493   3.046   0.792  0.0735  0.7027 -2.6203
  122SOL     OW  364   2.596   1.424   2.312  0.2712  0.2818  0.0919
  122SOL    HW1  365   2.599   1.358   2.233 -1.1866 -0.3001  1.4147
  122SOL    HW2  366   2.558   1.516   2.286 -1.5276  0.2743  2.4943
  123SOL     OW  367   1.414   1.119   1.434 -0.0031  0.7049 -0.0544
  123SOL    HW1  368   1.400   1.148   1.531 -0.7315  1.3227  0.5667
  123SOL    HW2  369   1.341   1.048   1.409 -3.1803  2.0827 -0.1116
  124SOL     OW  370   0.688   0.477   0.000  0.2342  0.3175  0.0325
  124SOL    HW1  371   0.634   0.387   0.002 -1.1726 -0.6985  0.4647
  124SOL    HW2  372   0.622   0.543   3.080  0.6576 -0.3202 -3.0819
  125SOL     OW  373   0.657   0.397   0.414 -0.4759  0.5353 -0.0968
  125SOL    HW1  374   0.620   0.325   0.349 -0.8424  0.6512  0.8370
  125SOL    HW2  375   0.701   0.474   0.359  0.2947  1.1704 -2.1458
  126SOL     OW  376   0.251   1.522   0.504 -0.5210 -0.0491 -0.2498
  126SOL    HW1  377   0.230   1.619   0.494  1.9285 -0.2584 -0.1779
  126SOL    HW2  378   0.348   1.501   0.486 -0.5222  0.9318 -1.8242
  127SOL     OW  379   0.717   2.840   1.592  0.3697 -0.7203  0.1149
  127SOL    HW1  380   0.616   2.852   1.602 -0.3649  1.0822 -0.1038
  127SOL    HW2  381   0.769   2.924   1.624  3.4943  0.5128 -1.6426
  128SOL     OW  382   1.060   1.808   0.297 -0.7601 -0.1277  0.4129
  128SOL    HW1  383   0.992   1.733   0.297 -2.1278  0.9558  0.8526
  128SOL    HW2  384   1.156   1.764   0.292  2.4194 -1.5218 -0.4560
  129SOL     OW  385   1.837   1.591   1.979  0.0407  0.3464  0.1646
  129SOL    HW1  386   1.740   1.607   1.949  1.4908  0.4069  0.5740
  129SOL    HW2  387   1.885   1.539   1.904  0.8581 -2.3449 -1.2008
  130SOL     OW  388   1.591   2.164   1.397  0.5192 -0.0342 -0.1995
  130SOL    HW1  389   1.671   2.126   1.351  1.4728 -0.8689 -0.3499
  130SOL    HW2  390   1.521   2.199   1.330 -2.5142 -0.0784 -1.0032
  131SOL     OW  391   0.036   2.272   1.957 -0.1671 -0.9014 -0.3786
  131SOL    HW1  392   3.114   2.349   1.907 -0.2055  1.5729 -3.5349
  131SOL    HW2  393   0.106   2.308   2.020  0.5008  0.4361  0.5361
  132SOL     OW  394   2.788   1.781   0.748  0.3664 -0.2441 -0.6517
  132SOL    HW1  395   2.854   1.840   0.702 -2.2001  2.3145  1.6333
  132SOL    HW2  396   2.735   1.846   0.808 -1.6275 -1.4868  0.9482
  133SOL     OW  397   0.524   0.786   1.567 -0.3806  0.1623  0.3110
  133SOL    HW1  398   0.565   0.779   1.473 -0.2380 -1.0217 -0.9057
  133SOL    HW2  399   0.574   0.718   1.627 -1.4167 -1.4590  1.9156
  134SOL     OW  400   2.273   1.625   0.045  0.4143 -0.4029 -0.1338
  134SOL    HW1  401   2.252   1.675   0.132 -0.4236  1.0778 -1.0003
  134SOL    HW2  402   2.227   1.680   3.097  1.0212  2.0088  1.5731
  135SOL     OW  403   1.704   1.102   2.471  0.6635 -0.2317 -0.5208
  135SOL    HW1  404   1.619   1.065   2.520 -1.9489 -1.8399  0.8408
  135SOL    HW2  405   1.781   1.032   2.477  0.5222  2.5013 -0.1753
  136SOL     OW  406   2.966   1.729   1.433 -0.2808 -0.0824 -0.4483
  136SOL    HW1  407   2.990   1.632   1.435  0.6909  4.6204  0.7337
  136SOL    HW2  408   2.902   1.761   1.507  1.8289  3.3796  3.6782
  137SOL     OW  409   2.503   1.857   0.423 -0.2117  0.4859  0.1068
  137SOL    HW1  410   2.521   1.855   0.323 -0.9783  0.3191  0.7011
  137SOL    HW2  411   2.554   1.935   0.464 -0.8866 -2.1900 -1.2049
  138SOL     OW  412   2.883   0.730   0.696  0.0143 -0.0139 -0.1790
  138SOL    HW1  413   2.860   0.698   0.605 -0.2995 -0.3253  1.3815
  138SOL    HW2  414   2.877   0.648   0.760 -0.3349 -1.9098 -0.1729
  139SOL     OW  415   0.064   3.077   0.013 -0.1152  0.4690  0.2770
  139SOL    HW1  416   0.060   0.019   0.097 -1.0951  2.8298  1.0905
  139SOL    HW2  417   0.130   3.000   0.026 -0.9130 -0.6110  2.6085
  140SOL     OW  418   0.813   1.132   1.555 -0.1416 -0.1298 -0.0233
  140SOL    HW1  419   0.768   1.168   1.637  1.0423 -1.6657  0.7478
  140SOL    HW2  420   0.753   1.114   1.471 -0.7778  0.5238 -0.8737
  141SOL     OW  421   1.509   1.503   1.111 -0.1606  0.0579 -0.3492
  141SOL    HW1  422   1.443   1.450   1.174 -2.2802 -5.0384  1.1217
  141SOL    HW2  423   1.474   1.598   1.086 -4.2588 -0.6818 -0.0576
  142SOL     OW  424   1.266   0.749   1.143 -0.0266 -0.3042  0.2049
  142SOL    HW1  425   1.243   0.779   1.046  1.9198  0.6766 -1.5746
  142SOL    HW2  426   1.194   0.684   1.176  1.4351 -1.3265  1.3521
  143SOL     OW  427   0.595   1.136   2.481  0.9503 -0.2769  0.2505
  143SOL    HW1  428   0.536   1.177   2.549  0.8305  0.7129 -3.5221
  143SOL    HW2  429   0.557   1.163   2.391 -0.0833 -0.2649  1.2518
  144SOL     OW  430   2.380   0.032   0.339 -0.6882 -0.4871 -0.0830
  144SOL    HW1  431   2.466   0.052   0.283  4.6435 -1.2741  0.6849
  144SOL    HW2  432   2.335   3.069   0.303 -3.9196  2.9823 -0.4685
  145SOL     OW  433   2.468   0.333   2.950 -0.0204  0.4613  0.1228
  145SOL    HW1  434   2.403   0.368   3.021 -0.4960  1.6365  1.9852
  145SOL    HW2  435   2.537   0.402   2.917  1.1709 -0.5543 -1.5688
  146SOL     OW  436   2.872   2.936   0.521  0.1020 -0.2416 -0.1114
  146SOL    HW1  437   2.931   2.863   0.480 -0.2391  0.2816  0.4734
  146SOL    HW2  438   2.787   2.886   0.553  1.9989  0.3850 -0.1294
  147SOL     OW  439   1.113   1.151   2.855 -0.0063  0.3598  0.0680
  147SOL    HW1  440   1.104   1.234   2.803  0.2445 -2.6492  0.9827
  147SOL    HW2  441   1.146   1.069   2.799  4.4812  0.3827  0.3359
  148SOL     OW  442   1.475   0.148   0.123  0.2391 -0.8631 -0.2295
  148SOL    HW1  443   1.463   0.057   0.169 -0.0985 -0.9606 -0.8159
  148SOL    HW2  444   1.394   0.166   0.064 -1.6921  0.2512  1.9084
  149SOL     OW  445   1.563   0.053   2.068 -0.1949  0.0879  0.1577
  149SOL    HW1  446   1.650   0.016   2.107 -0.1637  1.2223 -0.6298
  149SOL    HW2  447   1.483   0.058   2.133 -1.4302 -0.1578 -0.3984
  150SOL     OW  448   2.279   3.066   0.002 -0.3630  0.0405 -0.1402
  150SOL    HW1  449   2.267   2.989   0.069 -0.1554  0.3630  1.9748
  150SOL    HW2  450   2.371   3.058   3.070  4.1080  1.8605  0.6060
  151SOL     OW  451   0.515   1.623   3.065 -0.6716 -0.0621 -0.3162
  151SOL    HW1  452   0.413   1.645   3.056 -0.0256 -0.0142  2.3278
  151SOL    HW2  453   0.549   1.565   2.987  1.9710  0.9895 -1.8060
  152SOL     OW  454   0.297   0.305   1.229 -0.6607 -0.2493  0.5218
  152SOL    HW1  455   0.357   0.392   1.233  1.3057  3.8347 -1.3991
  152SOL    HW2  456   0.311   0.239   1.303 -0.0523  1.5864 -1.1322
  153SOL     OW  457   2.649   2.783   2.074  0.3001 -0.1678  0.7143
  153SOL    HW1  458   2.743   2.772   2.034 -0.3877  1.4420 -0.3973
  153SOL    HW2  459   2.645   2.813   2.167 -0.3221 -0.1072 -1.9678
  154SOL     OW  460   2.359   2.946   2.545  0.3039 -0.0985  0.7211
  154SOL    HW1  461   2.414   2.863   2.550 -2.5593  1.3798  1.2458
  154SOL    HW2  462   2.261   2.920   2.518 -2.1700  0.3820 -0.0477
  155SOL     OW  463   0.305   1.182   0.742  0.1330 -0.0309  0.2221
  155SOL    HW1  464   0.248   1.260   0.763  3.3661 -0.8895  0.8305
  155SOL    HW2  465   0.382   1.185   0.805 -0.3155 -1.3398 -1.4868
  156SOL     OW  466   2.541   1.683   0.629 -0.0572  0.1795 -0.4140
  156SOL    HW1  467   2.636   1.693   0.663  1.8190 -1.5607  1.5974
  156SOL    HW2  468   2.515   1.753   0.560 -1.6461  1.8188 -0.8628
  157SOL     OW  469   0.919   0.317   0.231  0.5221  0.4619  0.2514
  157SOL    HW1  470   0.843   0.384   0.228  1.1542 -0.0691  1.0086
  157SOL    HW2  471   0.995   0.365   0.270 -1.2236 -1.6753  0.1813
  158SOL     OW  472   1.700   0.886   1.049  0.3620  0.1026 -0.0473
  158SOL    HW1  473   1.660   0.969   1.096  1.7858  2.5741 -1.4435
  158SOL    HW2  474   1.647   0.803   1.075 -2.3046 -0.2296 -2.3905
  159SOL     OW  475   0.133   0.675   0.287 -0.6100 -0.3391 -0.3617
  159SOL    HW1  476   0.128   0.719   0.384  0.2385  2.0519  0.0247
  159SOL    HW2  477   0.190   0.589   0.271  2.4461  1.8729 -3.7311
  160SOL     OW  478   2.324   2.151   2.057 -0.2814 -0.3001  0.2823
  160SOL    HW1  479   2.297   2.085   2.124 -1.8452  0.2016  0.0038
  160SOL    HW2  480   2.274   2.238   2.075 -1.5308  0.9597  0.3640
  161SOL     OW  481   0.420   1.041   2.909  0.1196  0.0468 -0.4494
  161SOL    HW1  482   0.511   1.011   2.874  1.2605 -0.3336 -1.0459
  161SOL    HW2  483   0.387   0.977   2.978  2.6821 -0.5533 -0.6915
  162SOL     OW  484   0.444   0.667   1.942 -0.0255 -0.2355  0.4307
  162SOL    HW1  485   0.517   0.698   1.876  0.1123 -1.3971 -0.6374
  162SOL    HW2  486   0.363   0.624   1.899 -0.3678 -1.0791  0.4563
  163SOL     OW  487   2.878   3.022   2.728 -0.2024 -0.1220 -0.4105
  163SOL    HW1  488   2.835   3.046   2.819 -1.9290  1.8293  2.1031
  163SOL    HW2  489   2.846   3.091   2.657  0.7339  0.4845  0.2350
  164SOL     OW  490   2.269   2.259   0.233  0.2368 -0.6508  0.3551
  164SOL    HW1  491   2.269   2.228   0.134  2.1640  1.2257 -2.1343
  164SOL    HW2  492   2.366   2.244   0.266  0.9257  1.8796  1.2377
  165SOL     OW  493   0.508   0.116   0.974 -0.1611  0.1217 -0.1553
  165SOL    HW1  494   0.602   0.139   0.999  1.7076  1.5830 -2.1124
  165SOL    HW2  495   0.455   0.077   1.053  0.2767  1.2549  1.9875
  166SOL     OW  496   2.456   0.456   0.401 -0.7929  0.4886  0.2461
  166SOL    HW1  497   2.544   0.439   0.350 -0.7871 -0.3788 -1.4393
  166SOL    HW2  498   2.459   0.398   0.490 -0.0200 -0.1783  1.1687
  167SOL     OW  499   2.384   0.813   0.007  0.1715 -0.0142  0.1044
  167SOL    HW1  500   2.462   0.877   3.108  1.9778  0.9602  0.0080
  167SOL    HW2  501   2.411   0.738   0.074  0.1223 -2.7787  2.2445
  168SOL     OW  502   1.328   2.956   2.382 -0.2441 -0.6199  0.0626
  168SOL    HW1  503   1.247   3.017   2.404  0.9779  0.5642 -0.8779
  168SOL    HW2  504   1.400   2.954   2.452  0.8820  1.0525  2.3282
  169SOL     OW  505   0.404   1.822   0.651 -0.2716 -0.8609  0.3482
  169SOL    HW1  506   0.418   1.921   0.637 -2.9761  1.6901 -0.3642
  169SOL    HW2  507   0.487   1.781   0.689 -0.6363 -0.6307 -0.6915
  170SOL     OW  508   3.004   0.854   1.276  0.1522 -0.2992 -0.0729
  170SOL    HW1  509   2.930   0.803   1.326  0.6590 -1.2711  3.4848
  170SOL    HW2  510   2.985   0.861   1.180  2.8800  1.9354  2.6275
  171SOL     OW  511   2.799   1.385   2.485  0.1532  0.3743 -0.3287
  171SOL    HW1  512   2.825   1.297   2.439  1.1585  0.3447 -3.1019
  171SOL    HW2  513   2.713   1.428   2.436  0.1109  0.4532 -0.9171
  172SOL     OW  514   1.003   1.918   1.313 -0.0028  0.2546 -1.2490
  172SOL    HW1  515   1.085   1.980   1.322  0.7280  0.6988 -0.0911
  172SOL    HW2  516   0.982   1.872   1.403 -2.3031 -2.5806 -0.3992
  173SOL     OW  517   1.788   1.795   2.977 -0.6290 -0.1993 -0.0668
  173SOL    HW1  518   1.838   1.762   3.061 -0.1185 -0.1396 -0.5145
  173SOL    HW2  519   1.693   1.830   2.998  1.8911  1.8686  0.8245
  174SOL     OW  520   1.766   0.667   2.811 -0.3930  0.0695 -0.1206
  174SOL    HW1  521   1.845   0.695   2.752  2.5219 -1.2109  1.3112
  174SOL    HW2  522   1.794   0.602   2.881  0.6902 -1.2238  2.2132
  175SOL     OW  523   0.744   1.758   1.278  0.0025  0.3584  0.4265
  175SOL    HW1  524   0.759   1.729   1.375 -2.2934  0.1992  0.2577
  175SOL    HW2  525   0.789   1.846   1.247 -1.0803  1.8181  1.8462
  176SOL     OW  526   0.949   0.028   0.300 -0.0991 -0.3013  0.1470
  176SOL    HW1  527   0.882   0.007   0.376  1.0821 -0.9666 -0.6135
  176SOL    HW2  528   0.952   0.127   0.272  0.9713 -0.6949 -0.8628
  177SOL     OW  529   0.062   1.397   0.276 -0.3558  0.6631  0.1027
  177SOL    HW1  530   0.133   1.428   0.346  0.3397  0.3537  1.1959
  177SOL    HW2  531   0.103   1.359   0.192  0.2752  1.6948  0.0168
  178SOL     OW  532   3.112   2.362   2.373  0.5787 -0.2681  0.2692
  178SOL    HW1  533   3.118   2.351   2.476 -0.3312 -2.0143  1.5831
  178SOL    HW2  534   0.088   2.367   2.339 -0.3017  0.8971  2.9004
  179SOL     OW  535   2.846   2.738   2.772 -0.0942 -0.1155 -0.4803
  179SOL    HW1  536   2.797   2.748   2.683  1.8058 -1.6555  0.1187
  179SOL    HW2  537   2.872   2.831   2.799 -2.1677  0.6019  2.2581
  180SOL     OW  538   2.221   0.376   0.846 -0.0942  0.1958  0.7783
  180SOL    HW1  539   2.198   0.379   0.946  0.9290 -1.8954 -1.1220
  180SOL    HW2  540   2.312   0.414   0.827 -0.1577  0.5062  0.4234
  181SOL     OW  541   2.843   0.349   2.569  0.0430 -0.5185 -0.1304
  181SOL    HW1  542   2.852   0.365   2.470 -1.6668 -0.9554  0.1641
  181SOL    HW2  543   2.803   0.253   2.577 -2.1604 -0.9962 -0.2913
  182SOL     OW  544   2.300   2.236   2.332 -0.1082 -0.6968 -0.2142
  182SOL    HW1  545   2.310   2.134   2.345 -0.1223  0.6124 -1.2081
  182SOL    HW2  546   2.202   2.263   2.334 -1.1913 -1.1158 -2.0764
  183SOL     OW  547   2.395   0.525   1.943 -0.1480 -0.3491  0.1433
  183SOL    HW1  548   2.482   0.553   1.979 -3.3976 -0.5235  0.2825
  183SOL    HW2  549   2.373   0.587   1.862  1.2146 -2.8738 -1.5306
  184SOL     OW  550   2.890   1.550   0.608 -0.6024 -0.3777  0.1567
  184SOL    HW1  551   2.990   1.553   0.620 -2.0719  0.3030  1.2034
  184SOL    HW2  552   2.846   1.625   0.662 -0.7148  1.9473 -0.9376
  185SOL     OW  553   2.711   0.291   0.675 -0.1732 -0.0102 -0.0914
  185SOL    HW1  554   2.775   0.216   0.694 -1.6841 -1.6667 -0.3600
  185SOL    HW2  555   2.637   0.260   0.608 -3.0692 -2.1981 -0.6491
  186SOL     OW  556   2.233   2.662   2.840 -0.0916  0.6123 -0.0109
  186SOL    HW1  557   2.186   2.670   2.931 -0.6053 -0.5712  2.4702
  186SOL    HW2  558   2.282   2.751   2.809  1.4174  0.7804 -1.1663
  187SOL     OW  559   0.442   1.598   0.799  0.5164 -0.1343  0.0986
  187SOL    HW1  560   0.397   1.589   0.890 -1.0012  2.9301 -1.0882
  187SOL    HW2  561   0.388   1.661   0.741  0.8219  0.6836 -1.5524
  188SOL     OW  562   1.966   1.597   0.642 -0.1503  0.0747 -0.0654
  188SOL    HW1  563   1.873   1.564   0.616 -0.2484 -0.7602 -2.1147
  188SOL    HW2  564   1.964   1.624   0.739 -1.9047  0.6052  1.4511
  189SOL     OW  565   2.975   1.290   2.980  0.0597 -0.2599 -0.3809
  189SOL    HW1  566   3.006   1.193   2.966  0.0978  0.5808  0.8935
  189SOL    HW2  567   2.881   1.312   2.938  1.2579 -0.1094 -1.4679
  190SOL     OW  568   2.612   0.379   2.341 -0.1750  0.1596  0.7307
  190SOL    HW1  569   2.533   0.391   2.407 -1.4582  2.0121 -0.1735
  190SOL    HW2  570   2.622   0.281   2.319 -1.3824  1.0718  0.1525
  191SOL     OW  571   1.033   0.341   2.282  0.1105  0.0521  0.6468
  191SOL    HW1  572   0.966   0.319   2.355  0.1274 -1.0092  1.9442
  191SOL    HW2  573   1.104   0.409   2.313 -0.0053 -1.4357  1.7508
  192SOL     OW  574   1.265   1.854   1.830  0.0985  0.3316 -0.0664
  192SOL    HW1  575   1.274   1.797   1.749 -2.1226 -1.9874  2.6375
  192SOL    HW2  576   1.264   1.953   1.801 -1.9375 -0.9217  0.2767
  193SOL     OW  577   1.549   2.779   1.070  0.0137 -0.9062 -0.0731
  193SOL    HW1  578   1.570   2.878   1.091  1.1007  3.3545  1.4500
  193SOL    HW2  579   1.446   2.772   1.055 -2.6529  0.8321 -2.1359
  194SOL     OW  580   1.057   1.705   1.968  0.7805  0.8363 -0.1580
  194SOL    HW1  581   1.076   1.606   1.952 -1.1236  1.2189  0.3485
  194SOL    HW2  582   1.119   1.762   1.912  0.7836 -0.1580  2.7738
  195SOL     OW  583   2.034   0.481   0.687  0.3107  0.3967  0.1661
  195SOL    HW1  584   2.103   0.448   0.756  0.1894  1.6504 -0.9395
  195SOL    HW2  585   2.038   0.425   0.601  1.6715  1.4061 -0.3187
  196SOL     OW  586   1.331   1.628   2.284 -0.6389 -0.5884 -0.4249
  196SOL    HW1  587   1.402   1.608   2.360  4.3086 -1.9096  2.7315
  196SOL    HW2  588   1.238   1.599   2.312 -1.6928 -0.2314  0.4435
  197SOL     OW  589   0.160   0.141   1.812 -0.0189 -0.3823  0.3670
  197SOL    HW1  590   0.127   0.169   1.906 -0.3811  1.4130  2.1609
  197SOL    HW2  591   0.263   0.153   1.810 -1.6849  0.0939 -2.3905
  198SOL     OW  592   0.150   1.210   1.034 -0.1539  0.3189  0.5045
  198SOL    HW1  593   0.129   1.110   1.050 -0.0289 -1.2599 -0.1544
  198SOL    HW2  594   0.127   1.237   0.935  2.2008  1.0794 -1.6562
  199SOL     OW  595   0.375   2.478   0.818  0.7989  0.3717  0.2515
  199SOL    HW1  596   0.436   2.464   0.735  1.3608  0.1572  1.5325
  199SOL    HW2  597   0.425   2.515   0.897  0.1841 -0.9542  1.4168
  200SOL     OW  598   1.762   1.594   2.782  0.2366 -0.2183  0.0354
  200SOL    HW1  599   1.774   1.662   2.856 -1.8109 -1.8879 -2.6535
  200SOL    HW2  600   1.814   1.510   2.796 -1.4478 -1.4708 -0.8755
  201SOL     OW  601   0.330   2.402   1.709  0.5917 -0.2347 -0.0252
  201SOL    HW1  602   0.431   2.394   1.705  0.5673 -0.1542  0.5445
  201SOL    HW2  603   0.280   2.314   1.688  1.6997  0.8331  0.9777
  202SOL     OW  604   0.984   2.729   3.009  0.5164 -0.0209 -0.4478
  202SOL    HW1  605   1.071   2.709   3.059 -0.2132 -1.3353  0.4594
  202SOL    HW2  606   0.946   2.822   3.022  0.6858  1.9748 -0.1920
  203SOL     OW  607   1.389   0.480   1.966  0.6035  0.3747 -0.3896
  203SOL    HW1  608   1.491   0.496   1.961 -0.1637  0.2386  0.8115
  203SOL    HW2  609   1.335   0.567   1.985 -2.0452  1.3357  0.2801
  204SOL     OW  610   0.652   1.087   1.343  0.1089  0.0586 -0.0621
  204SOL    HW1  611   0.558   1.041   1.331 -2.7084  0.2902 -1.2467
  204SOL    HW2  612   0.656   1.167   1.279 -0.6637  0.1370  0.0463
  205SOL     OW  613   2.123   1.182   2.542 -0.1068 -0.5703  0.3098
  205SOL    HW1  614   2.166   1.270   2.508  0.7214 -0.7707  1.4712
  205SOL    HW2  615   2.148   1.099   2.486  0.1121 -1.4994 -0.9213
  206SOL     OW  616   0.311   1.945   2.850  0.1845 -0.6346  0.3608
  206SOL    HW1  617   0.291   2.023   2.915 -2.7607 -1.7120 -0.2811
  206SOL    HW2  618   0.335   1.861   2.899  2.0250 -2.0022  0.3942
  207SOL     OW  619   0.435   0.133   1.806 -0.0539 -0.4846 -0.3504
  207SOL    HW1  620   0.500   0.134   1.731 -3.0664  0.7826 -1.2925
  207SOL    HW2  621   0.415   0.041   1.840 -1.9922 -1.0735  0.7676
  208SOL     OW  622   0.556   2.514   1.431 -0.4785  0.1037  0.3618
  208SOL    HW1  623   0.590   2.417   1.432 -1.5585  1.1320 -1.4033
  208SOL    HW2  624   0.529   2.539   1.523 -0.1212 -2.5723  0.4467
  209SOL     OW  625   1.411   2.703   2.942  0.4005  0.2119  0.8488
  209SOL    HW1  626   1.332   2.659   2.985 -1.2133 -1.0491 -2.5942
  209SOL    HW2  627   1.406   2.803   2.937  0.5102  0.6601  0.6573
  210SOL     OW  628   2.772   1.510   1.675 -0.6988  0.0721 -0.3961
  210SOL    HW1  629   2.869   1.494   1.706  1.9827 -0.0610  0.2210
  210SOL    HW2  630   2.750   1.611   1.672  1.1220  1.5707  1.7471
  211SOL     OW  631   1.155   0.202   1.685  0.7682 -0.4132  0.0690
  211SOL    HW1  632   1.237   0.255   1.712  0.4910 -0.7709  1.9148
  211SOL    HW2  633   1.184   0.110   1.667 -3.0859  0.3410 -2.9641
  212SOL     OW  634   0.952   2.407   1.605  0.2337 -0.0767 -0.4160
  212SOL    HW1  635   0.916   2.493   1.568  2.5885  1.1339 -1.5018
  212SOL    HW2  636   0.969   2.414   1.709  1.6931 -0.3604 -0.5224
  213SOL     OW  637   2.605   0.554   2.098 -0.1168  0.0109 -0.5104
  213SOL    HW1  638   2.600   0.652   2.137 -0.0876  3.0326 -1.5660
  213SOL    HW2  639   2.583   0.485   2.167 -1.3095  1.7519  0.7118
  214SOL     OW  640   0.932   1.985   1.814 -0.5094  0.4816 -0.5179
  214SOL    HW1  641   0.966   2.027   1.726  1.8597  1.6730  0.9716
  214SOL    HW2  642   0.885   2.055   1.874 -1.2661  2.1375 -2.2997
  215SOL     OW  643   2.681   1.982   0.909 -0.5043  0.4101  0.3615
  215SOL    HW1  644   2.747   2.034   0.969  2.8064 -1.7869  0.6669
  215SOL    HW2  645   2.622   1.920   0.967 -2.9438  0.6329 -0.1029
  216SOL     OW  646   2.742   0.770   1.051  0.8406 -0.6355 -0.3672
  216SOL    HW1  647   2.712   0.783   1.149 -1.1892 -0.2174  3.4640
  216SOL    HW2  648   2.671   0.712   1.002  1.6413 -2.5674 -0.6020
  217SOL     OW  649   2.416   0.087   1.543 -0.3910  0.5425  0.5329
  217SOL    HW1  650   2.346   0.146   1.497  2.5621 -0.9896 -0.5319
  217SOL    HW2  651   2.462   0.021   1.476  0.7207 -1.0866 -3.3490
  218SOL     OW  652   1.657   2.425   1.008  0.1869  0.2689  0.1069
  218SOL    HW1  653   1.692   2.329   1.000  0.0204  0.0779 -2.1593
  218SOL    HW2  654   1.616   2.458   0.924 -2.2352  0.3698  1.1566
  219SOL     OW  655   1.703   2.201   0.177 -0.4633 -0.0093 -0.4964
  219SOL    HW1  656   1.776   2.269   0.215  1.0754  0.9150  1.3704
  219SOL    HW2  657   1.652   2.240   0.095 -0.3534 -2.3812  0.0021
  220SOL     OW  658   1.707   2.422   3.023 -0.4486  0.4290  0.5489
  220SOL    HW1  659   1.702   2.495   2.955  1.1491 -0.7885  0.4561
  220SOL    HW2  660   1.807   2.391   3.033  1.7387 -0.3750 -0.0578
  221SOL     OW  661   3.031   2.261   0.792 -0.0811  0.2113  0.3251
  221SOL    HW1  662   3.115   2.312   0.776 -0.0508 -0.9097 -0.9587
  221SOL    HW2  663   3.039   2.197   0.872 -0.1151 -0.1757 -0.1999
  222SOL     OW  664   1.984   2.459   0.941  0.0823  0.1414 -0.2437
  222SOL    HW1  665   1.896   2.489   0.978  0.9932 -2.6439  0.0159
  222SOL    HW2  666   2.067   2.516   0.973  2.7137 -1.7354 -1.7121
  223SOL     OW  667   0.331   2.633   2.307 -0.3347  0.4718  0.4353
  223SOL    HW1  668   0.415   2.680   2.290 -2.7959 -2.3547  2.6770
  223SOL    HW2  669   0.355   2.534   2.310  2.0445 -0.3906  1.6195
  224SOL     OW  670   2.752   2.176   1.100 -0.3887  0.3624  0.1417
  224SOL    HW1  671   2.801   2.218   1.182  0.8895  0.3682  3.4360
  224SOL    HW2  672   2.668   2.227   1.082 -1.2404 -0.0663 -2.0184
  225SOL     OW  673   2.220   1.952   0.740  0.0741  0.1694 -0.1030
  225SOL    HW1  674   2.263   1.879   0.795 -0.4416  0.7400  0.4947
  225SOL    HW2  675   2.122   1.945   0.720 -0.3127 -0.3642  0.8675
  226SOL     OW  676   1.365   2.552   0.351  0.1681  0.4088 -0.3310
  226SOL    HW1  677   1.408   2.640   0.320  1.2858  2.5778 -0.8379
  226SOL    HW2  678   1.355   2.485   0.275  1.0379  0.4011 -2.0913
  227SOL     OW  679   1.927   0.512   0.947 -0.1989 -0.2735  0.0932
  227SOL    HW1  680   1.840   0.551   0.975  1.1850  2.8365 -3.2880
  227SOL    HW2  681   1.922   0.490   0.847  1.3287  3.4025 -2.3660
  228SOL     OW  682   1.305   0.741   2.010  0.3586  0.0804 -0.0086
  228SOL    HW1  683   1.380   0.747   2.080 -3.5974 -1.2119  1.0670
  228SOL    HW2  684   1.314   0.811   1.936  0.7017  0.7385  1.1360
  229SOL     OW  685   2.986   1.097   2.677  0.0665 -0.2261  0.1006
  229SOL    HW1  686   3.051   1.032   2.635  0.0905  1.1412  1.7454
  229SOL    HW2  687   2.996   1.102   2.773 -0.0226  0.9917 -2.0272
  230SOL     OW  688   0.996   1.192   1.052 -0.2197  0.1477 -0.7007
  230SOL    HW1  689   1.064   1.187   0.976  1.1786 -0.2923  0.2696
  230SOL    HW2  690   1.034   1.243   1.129 -2.1210 -1.8168  2.5500
  231SOL     OW  691   2.569   2.873   2.317  0.0734  0.0459  0.2710
  231SOL    HW1  692   2.559   2.975   2.310 -1.2684 -0.1996  0.2429
  231SOL    HW2  693   2.623   2.849   2.399  0.3536  0.3761 -0.1493
  232SOL     OW  694   0.715   1.928   0.185 -0.3126  0.1330 -0.0675
  232SOL    HW1  695   0.712   1.947   0.287 -1.6731  0.2227 -0.6452
  232SOL    HW2  696   0.679   2.008   0.140  0.9434 -0.0322  0.0310
  233SOL     OW  697   1.118   2.360   2.244  0.6175 -0.2312  0.1768
  233SOL    HW1  698   1.072   2.341   2.333  0.3291  2.2155 -0.6476
  233SOL    HW2  699   1.217   2.365   2.267  0.2921  0.0353 -0.5966
  234SOL     OW  700   1.137   1.448   1.665  0.3383 -0.0597  0.2647
  234SOL    HW1  701   1.154   1.482   1.757  1.2450  2.7613 -0.7609
  234SOL    HW2  702   1.186   1.505   1.600 -1.1563 -1.0384 -0.0004
  235SOL     OW  703   0.788   1.747   1.863  0.1964 -0.0146  0.6435
  235SOL    HW1  704   0.847   1.829   1.845 -3.4171  0.2408  0.6799
  235SOL    HW2  705   0.844   1.676   1.906  1.1685 -1.8807 -0.5575
  236SOL     OW  706   1.546   2.860   2.523 -0.2279  0.5040  0.0098
  236SOL    HW1  707   1.635   2.812   2.496  0.6433 -0.2188  0.0488
  236SOL    HW2  708   1.475   2.787   2.538 -0.3420  0.0478 -0.2577
  237SOL     OW  709   1.178   2.972   0.694 -0.2481  0.3634 -0.1095
  237SOL    HW1  710   1.105   3.034   0.713  2.1451 -0.2196  2.1450
  237SOL    HW2  711   1.255   2.995   0.754 -1.3771  1.2858  1.6767
  238SOL     OW  712   1.136   0.803   2.999  0.0864 -0.2400 -0.4342
  238SOL    HW1  713   1.172   0.731   3.059 -1.4333  0.7115 -1.0041
  238SOL    HW2  714   1.075   0.771   2.929 -0.2432  0.1754  3.5771
  239SOL     OW  715   0.217   0.435   2.269 -0.1258 -0.1702  0.0744
  239SOL    HW1  716   0.245   0.522   2.316  2.0152 -1.7934 -2.9525
  239SOL    HW2  717   0.253   0.357   2.326 -0.4965 -1.8077  0.2009
  240SOL     OW  718   2.402   2.566   0.822 -0.7730 -0.4855  0.4850
  240SOL    HW1  719   2.468   2.491   0.798  0.6982  0.6289 -2.1165
  240SOL    HW2  720   2.367   2.605   0.735  0.1641 -0.1682  0.0770
  241SOL     OW  721   1.656   1.174   1.317  0.2048 -0.1801 -0.1384
  241SOL    HW1  722   1.559   1.145   1.340  1.6684 -0.9470  0.7478
  241SOL    HW2  723   1.725   1.101   1.331 -0.4457 -1.7386  1.1983
  242SOL     OW  724   0.290   0.888   0.841 -0.2189  0.3849 -0.0818
  242SOL    HW1  725   0.222   0.911   0.918  0.9406 -0.5127  1.2109
  242SOL    HW2  726   0.312   0.971   0.785 -1.2333 -0.2050 -0.4796
  243SOL     OW  727   0.162   0.755   1.240 -0.3306 -0.0865  0.5305
  243SOL    HW1  728   0.068   0.768   1.269  1.3357 -0.8275 -1.5056
  243SOL    HW2  729   0.180   0.669   1.187  1.9864 -0.3508  0.1822
  244SOL     OW  730   1.144   0.495   3.034  0.5452  0.0253 -0.3495
  244SOL    HW1  731   1.046   0.529   3.037 -4.6562  2.3916 -0.0070
  244SOL    HW2  732   1.153   0.411   2.976 -1.3084  0.3689 -3.5477
  245SOL     OW  733   2.176   0.933   3.024 -0.1264  0.6300  0.2175
  245SOL    HW1  734   2.263   0.894   3.056 -2.6737  0.9279  1.7362
  245SOL    HW2  735   2.185   1.017   2.970  2.0979  1.7175  0.3581
  246SOL     OW  736   0.023   0.970   2.043 -0.0081  0.2263  0.2090
  246SOL    HW1  737   3.084   1.042   2.003  1.5378  1.3241 -3.4333
  246SOL    HW2  738   0.054   0.915   1.963  0.5699 -1.9173  0.0758
  247SOL     OW  739   0.411   2.999   1.902 -0.2291 -0.5274  0.1886
  247SOL    HW1  740   0.328   2.957   1.936 -0.6736  1.5712  0.1544
  247SOL    HW2  741   0.493   2.966   1.959  1.4190 -0.6604  1.3782
  248SOL     OW  742   0.590   1.397   2.064 -0.2262 -0.2265  0.0027
  248SOL    HW1  743   0.683   1.409   2.110 -0.4499 -0.1538  0.5009
  248SOL    HW2  744   0.595   1.351   1.976  1.2371 -2.8679 -1.8542
  249SOL     OW  745   0.498   0.301   2.814 -0.6596 -0.0785 -0.8451
  249SOL    HW1  746   0.415   0.309   2.762  1.5177  0.3107  2.4218
  249SOL    HW2  747   0.526   0.397   2.840  1.0037 -0.7307 -1.7297
  250SOL     OW  748   0.286   0.082   2.900 -0.6850  0.0955  0.0414
  250SOL    HW1  749   0.226   0.002   2.880  0.9256 -2.2930  2.5582
  250SOL    HW2  750   0.275   0.153   2.825 -1.1469  0.9863  2.0409
  251SOL     OW  751   3.021   1.731   1.158 -0.0148 -0.1788  0.0506
  251SOL    HW1  752   2.954   1.677   1.106 -1.7257 -0.5956  0.3658
  251SOL    HW2  753   2.977   1.755   1.244 -1.3239 -3.1969  0.4398
  252SOL     OW  754   1.693   2.679   2.310 -0.2861 -0.2334 -0.2884
  252SOL    HW1  755   1.733   2.680   2.214 -2.7410  0.3710 -0.8915
  252SOL    HW2  756   1.769   2.703   2.376 -0.3174  3.6200  0.0370
  253SOL     OW  757   1.470   1.603   2.782 -0.4673 -0.1852 -0.0782
  253SOL    HW1  758   1.425   1.640   2.694 -2.6921 -0.2124 -0.7776
  253SOL    HW2  759   1.570   1.608   2.779 -0.4412 -1.8309 -0.1491
  254SOL     OW  760   0.566   1.495   1.653 -0.3364  0.1036 -0.7886
  254SOL    HW1  761   0.512   1.477   1.571  0.3336  0.8287  0.1427
  254SOL    HW2  762   0.535   1.575   1.709 -0.4783 -1.0839 -1.8306
  255SOL     OW  763   0.892   3.038   1.401 -0.1703 -0.0083  0.2606
  255SOL    HW1  764   0.993   3.062   1.396 -5.0734  0.5825  1.0706
  255SOL    HW2  765   0.853   3.048   1.493 -1.5888  0.4134  0.7164
  256SOL     OW  766   0.114   2.492   0.834 -0.2905  0.5883 -0.7203
  256SOL    HW1  767   0.210   2.470   0.815  0.0867  1.4141 -1.8138
  256SOL    HW2  768   0.089   2.523   0.930 -1.0124 -0.3089  0.4890
  257SOL     OW  769   0.301   2.737   2.921 -0.0348 -0.4951 -0.0078
  257SOL    HW1  770   0.401   2.763   2.930  1.2010 -1.3023 -0.0611
  257SOL    HW2  771   0.242   2.819   2.922  3.2288 -0.4600  1.2093
  258SOL     OW  772   1.058   2.395   1.858  0.7482  0.5850 -0.4976
  258SOL    HW1  773   1.090   2.313   1.899 -2.5822  3.8526 -2.5366
  258SOL    HW2  774   1.133   2.459   1.847 -0.8172  0.0279 -0.2304
  259SOL     OW  775   1.058   1.955   2.370 -0.0054 -0.1937  0.9661
  259SOL    HW1  776   1.036   1.882   2.435  1.4850  2.8303  1.5341
  259SOL    HW2  777   1.025   1.928   2.278 -2.9301  0.3317 -0.3521
  260SOL     OW  778   2.404   0.797   2.404  0.2962  0.2551  0.3721
  260SOL    HW1  779   2.430   0.754   2.493  0.5755 -0.7922 -0.3050
  260SOL    HW2  780   2.363   0.726   2.342 -1.4169 -0.4114  1.8133
  261SOL     OW  781   1.236   0.819   0.867 -0.3906  0.7391  0.7418
  261SOL    HW1  782   1.258   0.759   0.786  1.2918 -1.9995 -3.5227
  261SOL    HW2  783   1.310   0.889   0.878 -0.9940 -0.5266 -0.8522
  262SOL     OW  784   2.259   2.118   2.749  0.0663 -0.1052 -0.0599
  262SOL    HW1  785   2.274   2.089   2.845 -0.4355  1.6081 -0.6783
  262SOL    HW2  786   2.159   2.149   2.739 -0.3491  0.8616 -3.0026
  263SOL     OW  787   0.679   2.298   0.892  0.0859 -0.0758  0.8164
  263SOL    HW1  788   0.664   2.399   0.889 -0.7496 -2.1955 -0.2099
  263SOL    HW2  789   0.750   2.272   0.820  0.1615  0.8951 -2.7709
  264SOL     OW  790   0.175   2.459   0.390  0.2192 -0.0973  0.2101
  264SOL    HW1  791   0.080   2.468   0.353 -0.8836  0.4676  2.1950
  264SOL    HW2  792   0.193   2.363   0.417 -2.6856  0.3566 -0.6311
  265SOL     OW  793   0.688   1.167   0.088 -0.3106 -1.0199 -0.5199
  265SOL    HW1  794   0.714   1.227   0.008 -2.1378  0.3604 -0.6781
  265SOL    HW2  795   0.771   1.143   0.137 -0.7322 -0.0524  0.0569
  266SOL     OW  796   0.722   2.255   2.427  0.1406 -0.4114  0.1294
  266SOL    HW1  797   0.820   2.220   2.427  0.1075 -1.6256 -0.6170
  266SOL    HW2  798   0.689   2.240   2.524 -0.5785 -0.0582  0.9087
  267SOL     OW  799   1.806   0.773   2.307  0.3681 -0.2533  0.0952
  267SOL    HW1  800   1.836   0.815   2.392  0.2405 -3.1839 -3.3573
  267SOL    HW2  801   1.766   0.845   2.245  1.0046  1.0355 -0.4456
  268SOL     OW  802   0.813   0.860   0.249  0.2118  0.2870 -0.0529
  268SOL    HW1  803   0.840   0.946   0.198  1.0918  2.4487 -1.5200
  268SOL    HW2  804   0.734   0.889   0.310  0.4662 -0.2986  1.1317
  269SOL     OW  805   2.491   1.690   2.267  0.1449 -0.2412  0.4020
  269SOL    HW1  806   2.543   1.726   2.346  0.6843  1.1648 -0.2596
  269SOL    HW2  807   2.515   1.731   2.176  2.1979  1.2379  0.0949
  270SOL     OW  808   1.176   1.963   0.095  0.0069 -0.6966  0.8391
  270SOL    HW1  809   1.120   1.901   0.155  2.9293 -0.8204 -3.0352
  270SOL    HW2  810   1.273   1.964   0.131 -0.2318  0.1706 -0.8502
  271SOL     OW  811   0.285   0.471   0.179  0.4539  0.2605  0.6011
  271SOL    HW1  812   0.333   0.538   0.121  0.1586 -1.3036 -0.5851
  271SOL    HW2  813   0.258   0.394   0.118 -1.4448 -0.3459 -1.3851
  272SOL     OW  814   2.915   0.347   0.423  0.1388  0.1587 -0.4345
  272SOL    HW1  815   2.908   0.242   0.437 -0.2752 -2.1309  0.6639
  272SOL    HW2  816   2.996   0.391   0.476  0.6275 -1.1327  1.2771
  273SOL     OW  817   0.247   0.014   1.572 -0.2917  0.0351 -0.2226
  273SOL    HW1  818   0.233   0.055   1.663 -0.2033 -0.2524 -2.2952
  273SOL    HW2  819   0.185   3.052   1.562 -1.0331 -1.7001  0.3647
  274SOL     OW  820   2.869   0.596   1.499 -0.0939  0.2070 -0.2980
  274SOL    HW1  821   2.945   0.526   1.499  0.3604 -1.8773  0.6729
  274SOL    HW2  822   2.783   0.555   1.536 -0.5375  0.4761 -1.0304
  275SOL     OW  823   0.927   1.630   1.083  0.0807  0.2720  0.0273
  275SOL    HW1  824   0.857   1.682   1.129  0.5565  0.8627 -2.4336
  275SOL    HW2  825   0.896   1.538   1.051  2.7167  2.2216 -1.6934
  276SOL     OW  826   0.641   1.246   1.741 -0.1746 -0.3874  0.2805
  276SOL    HW1  827   0.615   1.336   1.697  1.1561  1.6634 -0.2243
  276SOL    HW2  828   0.566   1.183   1.745  2.3638  1.9912 -1.2741
  277SOL     OW  829   1.016   2.790   2.101  0.1023  0.4957  0.1011
  277SOL    HW1  830   1.104   2.733   2.113  0.9877 -1.0268 -2.7301
  277SOL    HW2  831   0.937   2.734   2.135 -0.1110  0.0054  1.1247
  278SOL     OW  832   2.078   2.852   2.185  0.4979 -0.1912  0.0129
  278SOL    HW1  833   2.174   2.809   2.185  3.1350 -1.9189  1.2468
  278SOL    HW2  834   2.026   2.825   2.102  3.0401 -0.8152  0.2077
  279SOL     OW  835   1.398   1.638   3.051 -0.7692  0.3555  0.7181
  279SOL    HW1  836   1.448   1.595   0.008 -2.4581  0.8108  0.3232
  279SOL    HW2  837   1.438   1.601   2.961  1.8401  0.3361 -2.7883
  280SOL     OW  838   1.583   0.772   0.048  0.4498  0.4376  0.4391
  280SOL    HW1  839   1.635   0.794   3.085 -0.3991 -2.1729  1.5613
  280SOL    HW2  840   1.495   0.732   0.021 -0.4503  1.3431 -0.8536
  281SOL     OW  841   0.443   0.519   1.508  0.7558 -0.4991 -0.2648
  281SOL    HW1  842   0.420   0.525   1.406 -2.7197  2.4375 -0.6255
  281SOL    HW2  843   0.359   0.523   1.561  2.1195  0.3813 -2.0621
  282SOL     OW  844   0.067   2.602   0.600 -0.2119  0.3459 -0.2031
  282SOL    HW1  845   0.081   2.556   0.690  0.0974  1.2835  0.6700
  282SOL    HW2  846   0.108   2.548   0.522  1.4657  2.7475 -0.6323
  283SOL     OW  847   1.401   2.268   1.880  0.1280  0.4287 -1.1984
  283SOL    HW1  848   1.314   2.265   1.937  1.3313 -2.1520  3.1832
  283SOL    HW2  849   1.460   2.346   1.902  1.4818 -0.9350  2.5951
  284SOL     OW  850   2.957   2.631   1.189 -0.0216 -0.4137 -0.2930
  284SOL    HW1  851   2.957   2.688   1.104  0.2168  1.5413  0.5130
  284SOL    HW2  852   2.870   2.639   1.235  1.9353  0.1783  1.2333
  285SOL     OW  853   0.426   2.258   0.055 -0.6739  0.4754 -0.7167
  285SOL    HW1  854   0.373   2.330   0.103 -1.9581 -0.0124  0.0189
  285SOL    HW2  855   0.506   2.229   0.117  1.4339 -2.5236 -0.2279
  286SOL     OW  856   0.389   2.793   0.903  0.1334 -0.4206  0.0700
  286SOL    HW1  857   0.443   2.877   0.890 -2.6695 -3.2161 -0.5029
  286SOL    HW2  858   0.289   2.821   0.908  1.0943  0.7385  0.2942
  287SOL     OW  859   0.650   1.424   0.781 -0.0137 -0.1361  0.0384
  287SOL    HW1  860   0.568   1.479   0.808  2.1519  1.6016 -1.6679
  287SOL    HW2  861   0.628   1.324   0.792 -1.2021 -0.3172 -1.7001
  288SOL     OW  862   1.829   1.993   2.704  0.2534 -0.2256 -0.4981
  288SOL    HW1  863   1.834   1.921   2.634 -1.9837  1.9826  1.1887
  288SOL    HW2  864   1.805   1.951   2.796 -0.7792 -1.1381 -0.8693
  289SOL     OW  865   2.922   1.909   0.318 -0.7199  0.1764  0.7608
  289SOL    HW1  866   2.821   1.920   0.317  0.5143  1.0014  3.7898
  289SOL    HW2  867   2.960   1.873   0.229 -0.6861 -3.4929  0.7689
  290SOL     OW  868   1.400   1.470   1.502 -0.1765 -0.7930 -0.1077
  290SOL    HW1  869   1.380   1.572   1.498 -2.8093  0.0311  1.4708
  290SOL    HW2  870   1.405   1.429   1.411  2.9717 -2.6364 -0.6278
  291SOL     OW  871   1.264   1.445   0.148  0.3549 -0.0578  0.4212
  291SOL    HW1  872   1.241   1.466   0.053 -1.2295  0.9227 -0.7108
  291SOL    HW2  873   1.359   1.411   0.165  1.4315  0.0963  1.2579
  292SOL     OW  874   1.043   1.308   0.336 -0.1215  0.0469  0.3256
  292SOL    HW1  875   1.044   1.289   0.434  1.4419 -1.4101  0.1794
  292SOL    HW2  876   1.123   1.365   0.312 -2.4722 -1.4439 -0.7413
  293SOL     OW  877   1.057   2.773   0.896  0.3564 -0.5822 -0.0493
  293SOL    HW1  878   0.952   2.773   0.906  2.4700  1.3008 -0.1436
  293SOL    HW2  879   1.081   2.789   0.797  0.7454  0.2490  0.4962
  294SOL     OW  880   1.936   1.224   2.316  0.4436  0.1246 -0.0678
  294SOL    HW1  881   1.850   1.277   2.304  1.4054  1.6032 -0.2023
  294SOL    HW2  882   1.949   1.193   2.410  0.0318  2.4016  0.1018
  295SOL     OW  883   1.535   1.860   3.016 -0.3636 -0.0902 -0.9231
  295SOL    HW1  884   1.467   1.786   3.028 -0.5270  1.2271  0.6828
  295SOL    HW2  885   1.482   1.940   2.987  1.4177 -0.2499 -2.7856
  296SOL     OW  886   1.330   0.865   1.753  0.0516 -0.6905  0.3108
  296SOL    HW1  887   1.294   0.803   1.682  2.1872 -1.3975  1.7424
  296SOL    HW2  888   1.281   0.955   1.746  0.2545 -2.1160  1.0562
  297SOL     OW  889   0.086   0.821   1.802  0.6572 -0.0158 -0.1460
  297SOL    HW1  890   0.001   0.763   1.794 -0.4304 -0.7670 -2.1636
  297SOL    HW2  891   0.148   0.811   1.724 -0.1618  1.2380  1.4770
  298SOL     OW  892   1.391   1.789   1.379 -0.4151 -0.3311 -0.1122
  298SOL    HW1  893   1.459   1.794   1.301  2.8012  0.7660  2.5504
  298SOL    HW2  894   1.400   1.871   1.438 -1.1268 -0.0397  1.1653
  299SOL     OW  895   1.297   0.015   2.754 -0.2482  0.1203 -0.2729
  299SOL    HW1  896   1.378   3.113   2.702 -1.5779  3.2357  0.0447
  299SOL    HW2  897   1.209   3.120   2.705 -0.6257  0.8716 -1.4863
  300SOL     OW  898   2.558   1.722   0.027  0.5016 -0.7084  0.0390
  300SOL    HW1  899   2.622   1.641   0.026 -0.6327 -1.9062  0.9889
  300SOL    HW2  900   2.467   1.682   0.048  1.4278  0.1909 -1.1950
  301SOL     OW  901   1.921   0.917   2.502 -0.2449 -0.3134  0.3397
  301SOL    HW1  902   2.020   0.905   2.469  2.2270  0.6529  0.4105
  301SOL    HW2  903   1.916   0.958   2.596  0.8307  2.5359  0.7398
  302SOL     OW  904   2.507   2.256   2.732  0.3761 -0.0354 -0.2248
  302SOL    HW1  905   2.492   2.316   2.653 -0.5920  1.1025  2.8182
  302SOL    HW2  906   2.436   2.180   2.733  1.0762 -3.2771  1.2693
  303SOL     OW  907   0.114   1.984   0.028  0.5521 -0.1792  0.1648
  303SOL    HW1  908   0.200   2.026   3.117 -2.3652  1.3028  0.5613
  303SOL    HW2  909   0.040   2.050   0.025  2.6123  1.7110 -0.5787
  304SOL     OW  910   0.327   1.874   1.287 -0.2685  0.3338  0.2490
  304SOL    HW1  911   0.280   1.815   1.352 -1.1126 -0.6105 -2.8386
  304SOL    HW2  912   0.421   1.833   1.263  1.3287 -1.3812  0.9639
  305SOL     OW  913   2.905   0.724   1.773  0.1178 -0.1883 -0.4682
  305SOL    HW1  914   2.939   0.641   1.824  0.4224 -1.0385 -1.9693
  305SOL    HW2  915   2.882   0.713   1.674  0.2812  1.2552 -1.6867
  306SOL     OW  916   1.760   1.398   1.147  0.6961  0.1373  0.7441
  306SOL    HW1  917   1.674   1.453   1.134 -0.4119 -3.6840 -1.3018
  306SOL    HW2  918   1.798   1.426   1.233 -0.5831 -0.3190 -0.4082
  307SOL     OW  919   0.015   0.318   0.799 -0.3104 -0.1162  0.4183
  307SOL    HW1  920   0.078   0.303   0.877 -3.1820  2.5888  0.2360
  307SOL    HW2  921   3.082   0.233   0.773 -0.3620 -2.4333 -0.5821
  308SOL     OW  922   0.297   1.319   1.874  0.2438 -0.4304 -0.0154
  308SOL    HW1  923   0.237   1.331   1.790 -1.9019  3.4256 -1.0977
  308SOL    HW2  924   0.265   1.243   1.933  0.3616 -0.0317 -0.9717
  309SOL     OW  925   2.827   1.969   2.181  0.1433  0.2665 -0.0099
  309SOL    HW1  926   2.885   2.020   2.108  1.1279  2.2979 -2.6560
  309SOL    HW2  927   2.730   1.975   2.164  0.3504 -0.0254  1.1327
  310SOL     OW  928   2.520   1.183   2.661  0.7794 -0.2285  1.0138
  310SOL    HW1  929   2.604   1.156   2.614 -2.2638  1.7514 -0.3017
  310SOL    HW2  930   2.499   1.122   2.743 -0.4920 -0.6732  2.0850
  311SOL     OW  931   1.748   1.174   3.072  0.2750 -0.3931 -0.4576
  311SOL    HW1  932   1.673   1.231   3.034 -0.7936  0.0644  0.5086
  311SOL    HW2  933   1.740   1.074   3.053 -1.3732  0.9526 -0.1647
  312SOL     OW  934   1.370   2.188   2.630 -0.2475  0.0402  0.0227
  312SOL    HW1  935   1.471   2.188   2.651 -0.4908  1.7112  0.6544
  312SOL    HW2  936   1.348   2.121   2.560 -0.2724  0.6119 -0.3942
  313SOL     OW  937   0.398   0.436   0.716  0.0481  0.1128  0.2381
  313SOL    HW1  938   0.422   0.433   0.615  1.0746 -0.9366  3.6716
  313SOL    HW2  939   0.324   0.503   0.732 -1.8539  1.4194  1.2250
  314SOL     OW  940   0.821   2.053   1.139  0.1568 -0.0466 -0.0379
  314SOL    HW1  941   0.822   2.154   1.164 -1.3750  0.2460 -2.0719
  314SOL    HW2  942   0.886   2.002   1.198 -2.4755  0.0693  1.3001
  315SOL     OW  943   0.635   2.074   2.200 -0.1788 -0.4499 -0.3335
  315SOL    HW1  944   0.577   1.995   2.225  1.1235  0.5739 -1.2101
  315SOL    HW2  945   0.645   2.134   2.281 -0.5730 -1.8445 -0.7977
  316SOL     OW  946   0.469   2.423   0.577  0.1588  0.0172 -0.3085
  316SOL    HW1  947   0.415   2.338   0.561 -2.8113 -0.9747  0.7765
  316SOL    HW2  948   0.423   2.502   0.531  0.6284 -2.4990  0.8320
  317SOL     OW  949   2.741   3.085   1.177 -0.3846 -0.3417  0.0734
  317SOL    HW1  950   2.683   0.010   1.105  0.0371  0.2725  1.2081
  317SOL    HW2  951   2.711   2.983   1.190  0.5535  0.2527 -0.5345
  318SOL     OW  952   2.046   2.924   0.420  0.2291  0.3756 -0.1071
  318SOL    HW1  953   1.980   2.999   0.432 -1.8518 -3.3793 -2.4206
  318SOL    HW2  954   2.067   2.886   0.512  0.2852  1.6980 -0.4814
  319SOL     OW  955   1.616   0.772   2.566  0.2088  0.4594 -0.7688
  319SOL    HW1  956   1.656   0.755   2.659  1.4586  0.0033 -0.5676
  319SOL    HW2  957   1.675   0.725   2.498  0.3032 -1.5417 -1.2263
  320SOL     OW  958   2.910   2.143   2.007  0.3301  0.0080  0.2013
  320SOL    HW1  959   2.998   2.162   1.968 -4.2360  0.7956  1.0716
  320SOL    HW2  960   2.865   2.227   2.045 -0.3777 -2.6561 -0.2937
  321SOL     OW  961   0.618   2.494   0.108 -0.3289 -0.7469  0.4301
  321SOL    HW1  962   0.643   2.572   0.046 -2.4141  0.5560  0.3572
  321SOL    HW2  963   0.519   2.479   0.123 -2.3462  0.1790  1.0145
  322SOL     OW  964   2.774   0.646   2.563  0.2373 -0.1688  0.2108
  322SOL    HW1  965   2.813   0.552   2.555 -0.9984  4.6301 -1.2057
  322SOL    HW2  966   2.689   0.647   2.615  0.5647 -1.2349  1.6308
  323SOL     OW  967   2.504   1.027   0.895 -0.4266 -0.1166 -0.0830
  323SOL    HW1  968   2.571   1.075   0.960 -0.2101  3.3856  3.7047
  323SOL    HW2  969   2.545   0.937   0.864  1.1808  0.1770 -2.8297
  324SOL     OW  970   2.643   0.343   1.320  0.4177  0.2129 -0.6763
  324SOL    HW1  971   2.731   0.317   1.282 -1.4193 -0.2449 -0.0263
  324SOL    HW2  972   2.578   0.388   1.258  1.2038 -0.8621 -1.4560
  325SOL     OW  973   2.911   3.021   1.687  0.0348 -0.6269 -0.0324
  325SOL    HW1  974   2.868   3.067   1.765 -0.9733  1.0123  1.7040
  325SOL    HW2  975   2.934   3.093   1.614 -1.1138 -0.3053  0.0229
  326SOL     OW  976   1.894   2.884   0.187  0.4879  0.1189 -0.0374
  326SOL    HW1  977   1.899   2.781   0.166 -0.3504 -0.4514  1.3550
  326SOL    HW2  978   1.939   2.900   0.276 -0.7336 -0.5674  1.4889
  327SOL     OW  979   1.844   1.717   0.407 -0.0228  0.6434 -0.2781
  327SOL    HW1  980   1.851   1.803   0.354 -2.1497 -1.7147 -0.8700
  327SOL    HW2  981   1.908   1.717   0.486  1.8201  2.7812  0.9450
  328SOL     OW  982   0.086   2.056   2.549  0.1197 -0.2636 -0.2717
  328SOL    HW1  983   0.153   2.118   2.507 -1.2476 -0.1086  0.0999
  328SOL    HW2  984   3.119   2.050   2.497 -3.5440 -0.4146 -2.1541
  329SOL     OW  985   0.208   2.252   1.429 -0.5269 -0.0735 -0.2139
  329SOL    HW1  986   0.293   2.226   1.378  1.9754  1.3743  1.6379
  329SOL    HW2  987   0.212   2.213   1.522  0.7297 -2.3345 -1.7684
  330SOL     OW  988   2.780   0.838   2.863 -0.5045  0.8928 -0.5043
  330SOL    HW1  989   2.772   0.885   2.775 -1.6253 -0.9784 -1.1476
  330SOL    HW2  990   2.857   0.767   2.857  2.7878 -3.1137  1.8305
  331SOL     OW  991   2.506   2.326   1.083  0.0468 -0.2672  0.2255
  331SOL    HW1  992   2.434   2.306   1.013  0.5671 -2.0208 -0.0291
  331SOL    HW2  993   2.467   2.323   1.179  1.5094 -0.0168  2.2794
  332SOL     OW  994   0.519   2.733   0.661 -0.1579  0.2832 -0.5880
  332SOL    HW1  995   0.616   2.771   0.676 -0.8987  0.0042  2.1674
  332SOL    HW2  996   0.464   2.752   0.743 -1.3598  0.6536 -0.2296
  333SOL     OW  997   2.240   1.917   2.578 -0.1267 -0.3269 -0.4012
  333SOL    HW1  998   2.245   1.999   2.640 -1.7143  2.4081 -1.7553
  333SOL    HW2  999   2.329   1.867   2.600  0.5458 -0.0219  0.4688
  334SOL     OW 1000   0.584   1.179   0.898  0.0137  0.3002  0.0388
  334SOL    HW1 1001   0.661   1.110   0.888 -0.9646 -2.1849 -0.8209
  334SOL    HW2 1002   0.540   1.184   0.990  1.2513  2.0723 -0.7510
  335SOL     OW 1003   2.978   1.997   2.407  0.2350  0.3984 -0.0488
  335SOL    HW1 1004   2.931   2.017   2.317  3.5875 -2.3946 -1.0005
  335SOL    HW2 1005   2.967   1.895   2.428 -1.0994 -2.6729  1.1543
  336SOL     OW 1006   2.324   2.762   2.199  0.3507 -0.1822 -0.1245
  336SOL    HW1 1007   2.340   2.663   2.172  0.0397 -1.3666  0.8983
  336SOL    HW2 1008   2.420   2.805   2.190  2.4268  2.7123  0.6229
  337SOL     OW 1009   0.804   0.986   0.836  0.2349  0.7856 -0.7974
  337SOL    HW1 1010   0.730   0.917   0.845  0.2073 -1.3556  1.0852
  337SOL    HW2 1011   0.894   0.952   0.877  2.7985  1.5129  1.5883
  338SOL     OW 1012   1.344   2.073   1.093 -0.6964  0.1486 -0.2859
  338SOL    HW1 1013   1.391   2.052   1.008  0.6749 -0.1871  1.6388
  338SOL    HW2 1014   1.387   2.158   1.136  2.2114  1.7880  1.3997
  339SOL     OW 1015   0.217   1.800   1.537 -0.4183  0.6928 -0.0134
  339SOL    HW1 1016   0.289   1.810   1.614 -0.6244 -1.6211 -0.3006
  339SOL    HW2 1017   0.151   1.880   1.537 -2.1096  2.7841  0.4053
  340SOL     OW 1018   1.009   0.096   1.972  0.3511 -0.4803  0.0298
  340SOL    HW1 1019   1.088   0.163   1.976 -3.2860 -1.4101  2.0144
  340SOL    HW2 1020   1.018   0.039   1.883  1.5462 -5.3786 -0.7410
  341SOL     OW 1021   1.807   1.690   1.215  0.2193  0.1194 -0.4843
  341SOL    HW1 1022   1.835   1.640   1.130  3.3955  0.4115 -1.5238
  341SOL    HW2 1023   1.731   1.759   1.202  0.6502  1.2690 -1.8498
  342SOL     OW 1024   2.250   1.461   0.967  0.7657 -0.7535  0.9571
  342SOL    HW1 1025   2.316   1.465   1.044 -0.9789 -1.3189 -2.9868
  342SOL    HW2 1026   2.280   1.398   0.891  0.0951 -0.2410  3.4638
  343SOL     OW 1027   2.131   0.111   0.808  0.2236 -0.3462  0.1047
  343SOL    HW1 1028   2.174   0.200   0.791  1.5459 -0.4802 -1.0558
  343SOL    HW2 1029   2.177   0.056   0.881  2.5149 -0.2347  0.6311
  344SOL     OW 1030   2.244   0.272   0.326 -0.2217 -0.7765 -0.2772
  344SOL    HW1 1031   2.315   0.351   0.326  0.0861  0.6928  1.1558
  344SOL    HW2 1032   2.288   0.186   0.356  0.0447  1.7800  1.4960
  345SOL     OW 1033   0.845   3.067   1.670  0.2474 -0.4608 -0.8006
  345SOL    HW1 1034   0.810   0.023   1.729  0.9754  0.9355  1.1063
  345SOL    HW2 1035   0.942   3.042   1.697  1.3067 -0.5136  0.7251
  346SOL     OW 1036   2.501   2.089   0.719  0.1658  0.3855  0.5247
  346SOL    HW1 1037   2.547   2.020   0.784 -0.7968 -1.3376  1.3325
  346SOL    HW2 1038   2.398   2.074   0.718  1.8841 -1.0526 -1.4203
  347SOL     OW 1039   2.444   3.029   1.345  0.4459 -0.1315 -0.2605
  347SOL    HW1 1040   2.494   2.959   1.291 -2.1391  2.4313  2.5995
  347SOL    HW2 1041   2.399   3.095   1.280  0.4293 -1.3035 -0.2952
  348SOL     OW 1042   0.959   0.938   1.656  0.2914 -0.2960 -0.1154
  348SOL    HW1 1043   0.895   1.018   1.630  1.0696 -0.4949 -0.9800
  348SOL    HW2 1044   1.018   0.918   1.577 -0.8411 -0.0087  0.5917
  349SOL     OW 1045   2.489   0.652   2.628 -0.0138  0.2298  0.3256
  349SOL    HW1 1046   2.483   0.568   2.575 -1.6645  2.4398 -0.4823
  349SOL    HW2 1047   2.409   0.673   2.691 -2.3366  1.4343  1.1753
  350SOL     OW 1048   2.126   2.488   0.243  0.2186  0.0477  0.3828
  350SOL    HW1 1049   2.024   2.472   0.217 -2.8597 -0.5845  2.1377
  350SOL    HW2 1050   2.180   2.400   0.248  0.7210 -0.8666 -0.9909
  351SOL     OW 1051   1.403   0.534   0.269  0.1462 -0.0744  0.2948
  351SOL    HW1 1052   1.398   0.550   0.167 -1.1054  0.1845 -0.6087
  351SOL    HW2 1053   1.420   0.619   0.323 -0.1851  1.7524 -1.5588
  352SOL     OW 1054   1.743   1.985   2.338 -0.2192  0.0234 -0.0226
  352SOL    HW1 1055   1.690   1.906   2.301 -0.4211  0.8306  1.3704
  352SOL    HW2 1056   1.806   1.953   2.412  0.9342  0.6257  0.2975
  353SOL     OW 1057   0.418   1.257   2.648 -0.0077 -0.2236 -0.1867
  353SOL    HW1 1058   0.318   1.254   2.623  0.8550 -2.4531 -0.0723
  353SOL    HW2 1059   0.443   1.345   2.689 -0.7651 -0.9372 -0.4087
  354SOL     OW 1060   0.619   2.661   2.696  0.1589 -0.1652  0.5008
  354SOL    HW1 1061   0.545   2.602   2.667  1.8942  0.7325 -1.0973
  354SOL    HW2 1062   0.691   2.613   2.743 -1.3418 -0.0939 -3.3331
  355SOL     OW 1063   2.283   2.690   1.485 -0.1063 -0.0231  0.1711
  355SOL    HW1 1064   2.368   2.729   1.529 -1.8275  1.3772  1.7813
  355SOL    HW2 1065   2.231   2.767   1.441  1.7033 -0.5939  2.5935
  356SOL     OW 1066   2.864   1.001   1.022  0.2378  0.7139 -0.0309
  356SOL    HW1 1067   2.922   0.995   0.942  0.3578 -1.6480  1.1558
  356SOL    HW2 1068   2.838   0.908   1.044  0.6398 -0.1961 -1.7492
  357SOL     OW 1069   2.998   0.057   1.465  0.5898  0.1135 -0.2846
  357SOL    HW1 1070   3.035   0.134   1.518 -0.0841 -1.4492 -1.3773
  357SOL    HW2 1071   2.916   0.082   1.416  0.5566  0.2855 -0.5369
  358SOL     OW 1072   3.031   1.458   1.725 -0.1387  0.2167  0.1126
  358SOL    HW1 1073   3.075   1.547   1.745  0.2851  0.3989  0.5974
  358SOL    HW2 1074   3.031   1.444   1.623 -0.0252  0.9091  1.6904
  359SOL     OW 1075   2.738   2.739   2.495 -0.2100  0.0619  0.0038
  359SOL    HW1 1076   2.736   2.633   2.490  2.3965 -3.0900 -1.0403
  359SOL    HW2 1077   2.820   2.779   2.447 -1.4938  0.3010  0.7989
  360SOL     OW 1078   1.130   0.501   1.214 -0.3067 -0.1613 -0.1207
  360SOL    HW1 1079   1.105   0.399   1.226  3.5330 -0.7460  1.1805
  360SOL    HW2 1080   1.205   0.527   1.277  0.8668  1.7796 -1.2105
  361SOL     OW 1081   2.209   2.602   1.025 -0.5296 -0.0554  0.1061
  361SOL    HW1 1082   2.271   2.578   0.942  1.8053 -0.7837 -0.9881
  361SOL    HW2 1083   2.234   2.540   1.104  0.4271 -1.5435  1.3480
  362SOL     OW 1084   1.179   0.260   0.628 -0.3562 -0.6505 -0.2104
  362SOL    HW1 1085   1.115   0.239   0.703  1.7031  1.8578 -1.4181
  362SOL    HW2 1086   1.138   0.336   0.573  2.3738  1.9062  2.4941
  363SOL     OW 1087   1.420   1.360   0.890 -0.1068  0.0899  0.3908
  363SOL    HW1 1088   1.454   1.399   0.803  0.2301 -2.6417 -1.5020
  363SOL    HW2 1089   1.445   1.425   0.968  0.7387  0.8969  2.9127
  364SOL     OW 1090   0.263   0.764   1.581 -0.6375  0.0136 -0.4456
  364SOL    HW1 1091   0.367   0.754   1.554  0.3359 -0.9440  0.4894
  364SOL    HW2 1092   0.215   0.840   1.540  2.0938 -1.9555 -0.3714
  365SOL     OW 1093   2.654   0.395   0.981 -0.3878  0.1095  0.0845
  365SOL    HW1 1094   2.749   0.420   0.954  2.0333  3.2652 -1.7173
  365SOL    HW2 1095   2.617   0.454   1.052 -0.3894 -3.3357 -0.2167
  366SOL     OW 1096   2.804   1.585   1.004 -0.4816  0.0993  0.1381
  366SOL    HW1 1097   2.796   1.644   0.920 -0.6900  0.8307 -0.2026
  366SOL    HW2 1098   2.788   1.486   0.979 -1.7481 -2.9389  0.7061
  367SOL     OW 1099   2.224   1.979   2.303 -0.0126 -0.3653  0.5240
  367SOL    HW1 1100   2.213   1.925   2.389  1.0671 -0.2790  0.3099
  367SOL    HW2 1101   2.148   1.963   2.241  1.0980 -3.3214  2.3024
  368SOL     OW 1102   2.542   2.142   1.529 -0.3787 -0.3716  0.3044
  368SOL    HW1 1103   2.526   2.135   1.628 -1.0293 -0.8439 -2.1484
  368SOL    HW2 1104   2.552   2.047   1.492 -2.9068 -0.2968 -0.4996
  369SOL     OW 1105   2.362   2.893   2.837  0.6178  1.4462 -0.3563
  369SOL    HW1 1106   2.354   2.953   2.758 -0.9374 -1.0658  2.8700
  369SOL    HW2 1107   2.430   2.925   2.904 -2.1487 -2.4665 -3.0799
  370SOL     OW 1108   0.623   0.476   1.023 -0.5986  0.1648 -0.1237
  370SOL    HW1 1109   0.622   0.475   0.922 -0.3867 -0.5381  0.1307
  370SOL    HW2 1110   0.635   0.379   1.053  0.8977  1.9295  0.1011
  371SOL     OW 1111   0.540   1.508   0.369  0.3380  0.3897  0.4122
  371SOL    HW1 1112   0.510   1.604   0.382  0.7960 -0.7292  1.6595
  371SOL    HW2 1113   0.639   1.505   0.393 -0.5590 -1.0725  3.6256
  372SOL     OW 1114   0.864   1.064   2.770 -0.0759 -0.5650  0.8292
  372SOL    HW1 1115   0.941   1.070   2.836 -0.5724  0.5172 -4.1567
  372SOL    HW2 1116   0.894   1.078   2.676 -1.7550 -1.1972 -0.1316
  373SOL     OW 1117   1.096   2.633   2.664 -0.5899 -0.5464  0.4403
  373SOL    HW1 1118   1.019   2.648   2.597 -0.6744  1.4757 -0.2660
  373SOL    HW2 1119   1.066   2.625   2.759  1.2135  0.8824 -0.4797
  374SOL     OW 1120   0.669   1.913   0.462 -0.3435  0.0870 -0.4478
  374SOL    HW1 1121   0.656   1.864   0.551  1.7651 -0.0519  2.9419
  374SOL    HW2 1122   0.756   1.967   0.466 -3.6600  1.0892 -2.6999
  375SOL     OW 1123   0.659   0.619   1.758  0.1663 -0.2202  0.6096
  375SOL    HW1 1124   0.704   0.532   1.736 -0.6536  2.4792  2.9937
  375SOL    HW2 1125   0.727   0.684   1.807  1.1642  1.4699 -1.1138
  376SOL     OW 1126   0.115   2.523   1.470  0.0053 -0.0578 -0.2354
  376SOL    HW1 1127   0.152   2.429   1.480 -1.4244 -2.6399 -2.0085
  376SOL    HW2 1128   0.169   2.587   1.529  1.8016 -2.3780 -1.1341
  377SOL     OW 1129   3.104   1.717   2.874  0.2565 -0.4429 -0.0139
  377SOL    HW1 1130   0.030   1.656   2.806  0.5318  0.2300  0.6122
  377SOL    HW2 1131   3.061   1.662   2.946  0.4545  1.4026 -1.8866
  378SOL     OW 1132   1.742   3.083   2.968 -0.1598  0.2145  0.0909
  378SOL    HW1 1133   1.666   3.048   3.032  0.5256 -0.9514 -1.2151
  378SOL    HW2 1134   1.830   3.078   3.016 -0.0490  0.1871  1.3096
  379SOL     OW 1135   1.773   0.590   0.700  0.9865 -0.1588 -0.4235
  379SOL    HW1 1136   1.851   0.531   0.670 -0.8016  0.2478 -0.0025
  379SOL    HW2 1137   1.804   0.689   0.717  3.3897 -0.0822  0.7792
  380SOL     OW 1138   0.339   1.894   1.744 -0.0582  0.2928  0.4880
  380SOL    HW1 1139   0.312   1.953   1.820 -2.0041  0.1810  0.8652
  380SOL    HW2 1140   0.411   1.834   1.785  0.0452 -0.2276  1.1563
  381SOL     OW 1141   2.404   1.249   2.401 -0.3400  0.4460  0.2148
  381SOL    HW1 1142   2.474   1.323   2.401 -3.4952  0.1432  0.1197
  381SOL    HW2 1143   2.407   1.193   2.486  0.2437 -2.3899 -0.0187
  382SOL     OW 1144   0.141   2.971   2.883  0.1402 -0.1128  0.1477
  382SOL    HW1 1145   0.100   3.003   2.967  0.0664  0.9967 -4.3975
  382SOL    HW2 1146   0.077   2.996   2.803  0.6841  0.7042 -2.6204
  383SOL     OW 1147   1.519   1.312   3.036 -0.0996  1.1424  0.3040
  383SOL    HW1 1148   1.456   1.349   2.964  1.2628  0.9729 -0.7921
  383SOL    HW2 1149   1.466   1.260   3.105 -0.0794  1.6301  3.1606
  384SOL     OW 1150   1.202   2.101   1.362  0.7071 -0.3360 -0.2996
  384SOL    HW1 1151   1.259   2.062   1.290 -0.7074 -1.0094  2.6948
  384SOL    HW2 1152   1.218   2.199   1.366  0.9290 -1.4204 -1.2922
  385SOL     OW 1153   1.801   2.829   0.791 -0.4911 -0.3169  0.3788
  385SOL    HW1 1154   1.830   2.842   0.888  1.4626  0.2767 -1.7684
  385SOL    HW2 1155   1.707   2.784   0.781 -1.9421  1.0785 -2.4050
  386SOL     OW 1156   1.531   1.884   0.920 -0.1447  0.0016 -0.3276
  386SOL    HW1 1157   1.454   1.825   0.954  1.5704 -1.9816 -0.2018
  386SOL    HW2 1158   1.584   1.837   0.845 -2.6961 -0.8300 -1.7360
  387SOL     OW 1159   2.669   2.362   1.455  0.9468 -0.0064 -0.0186
  387SOL    HW1 1160   2.754   2.343   1.407 -1.3603 -1.0181  1.2914
  387SOL    HW2 1161   2.623   2.273   1.478 -0.0332 -0.4390 -0.6374
  388SOL     OW 1162   2.878   1.072   1.523 -0.3212 -0.3423  0.2466
  388SOL    HW1 1163   2.903   1.089   1.429  0.8597 -0.6185  1.9781
  388SOL    HW2 1164   2.959   1.077   1.581  0.2676 -0.6663 -1.3869
  389SOL     OW 1165   2.040   0.745   0.059 -0.0180 -0.5004  0.0655
  389SOL    HW1 1166   2.055   0.821   3.113 -0.9820 -0.9002  2.3483
  389SOL    HW2 1167   2.082   0.777   0.145 -1.6054 -0.9721  1.6403
  390SOL     OW 1168   1.404   1.760   2.567  0.3385 -0.4599 -0.0256
  390SOL    HW1 1169   1.382   1.834   2.497  2.0596 -0.0870  0.5734
  390SOL    HW2 1170   1.478   1.695   2.536 -0.1497 -0.5603 -0.4122
  391SOL     OW 1171   1.160   2.222   0.189  0.5252  0.0712  0.2767
  391SOL    HW1 1172   1.132   2.212   0.286  1.7987  0.1148  1.9427
  391SOL    HW2 1173   1.144   2.133   0.138  3.6063  0.6854 -0.4202
  392SOL     OW 1174   0.280   2.666   1.649 -0.1973  0.3286 -0.2624
  392SOL    HW1 1175   0.334   2.738   1.602 -0.5821 -1.5238  3.3679
  392SOL    HW2 1176   0.342   2.600   1.698 -0.4007 -0.0047 -0.0436
  393SOL     OW 1177   1.360   2.380   0.122 -0.2557 -0.1321 -0.3348
  393SOL    HW1 1178   1.287   2.311   0.138  1.5011  0.3256 -0.1028
  393SOL    HW2 1179   1.433   2.332   0.067  2.3279 -0.2921 -0.4592
  394SOL     OW 1180   0.295   0.679   2.371  0.2659 -0.7448  0.6228
  394SOL    HW1 1181   0.312   0.764   2.432  0.2513  1.6289  3.5417
  394SOL    HW2 1182   0.379   0.625   2.343 -0.7059 -1.4761 -1.9795
  395SOL     OW 1183   0.422   1.282   1.098 -0.0337 -0.3883 -0.2710
  395SOL    HW1 1184   0.422   1.384   1.086  1.8056 -1.8316  2.9781
  395SOL    HW2 1185   0.322   1.264   1.114 -0.3534  1.5789  1.3710
  396SOL     OW 1186   1.694   1.017   2.213  0.0372  0.3239  0.0659
  396SOL    HW1 1187   1.774   1.040   2.154 -2.7567 -1.0207  0.7419
  396SOL    HW2 1188   1.681   1.082   2.291 -0.5768 -0.4245 -1.5544
  397SOL     OW 1189   0.964   0.169   0.004  0.3503 -0.0279  0.0895
  397SOL    HW1 1190   0.872   0.120   3.116 -2.0778 -0.0709  4.2085
  397SOL    HW2 1191   0.951   0.238   0.077 -1.0914 -1.6026  1.0227
  398SOL     OW 1192   0.654   2.279   2.713 -0.3991 -0.8184  0.1873
  398SOL    HW1 1193   0.751   2.310   2.717 -0.5015 -0.8163  0.3736
  398SOL    HW2 1194   0.619   2.245   2.802  0.8952 -1.1652 -3.2455
  399SOL     OW 1195   1.931   1.548   2.463 -0.5481  0.1662 -0.1879
  399SOL    HW1 1196   1.882   1.473   2.516  2.5205 -0.1168 -1.7213
  399SOL    HW2 1197   1.969   1.525   2.375 -0.5329  0.2702  0.0137
  400SOL     OW 1198   2.088   1.525   1.555 -0.3190  0.3309 -0.0436
  400SOL    HW1 1199   2.026   1.600   1.519  1.1050  1.3609 -2.7801
  400SOL    HW2 1200   2.114   1.463   1.480 -1.5876  0.0695 -1.0934
  401SOL     OW 1201   1.366   1.323   1.251 -0.3276  0.2071  0.1885
  401SOL    HW1 1202   1.414   1.243   1.295  2.1569 -0.3522  0.3583
  401SOL    HW2 1203   1.267   1.326   1.277  1.7208  0.5833  1.2996
  402SOL     OW 1204   3.077   2.527   1.809  0.0927  0.9052  0.1630
  402SOL    HW1 1205   3.065   2.477   1.720  1.7231  0.3659  1.2907
  402SOL    HW2 1206   3.112   2.622   1.798  0.4125  1.5065 -1.2114
  403SOL     OW 1207   0.256   1.512   2.074 -0.3060 -0.3520  0.3633
  403SOL    HW1 1208   0.162   1.481   2.095 -1.2810  1.7963 -0.9420
  403SOL    HW2 1209   0.304   1.451   2.008  1.2865 -1.3929  1.6037
  404SOL     OW 1210   2.071   1.982   1.424  0.3341  0.2346  0.1333
  404SOL    HW1 1211   2.080   2.042   1.506  1.3215  0.3720 -3.4149
  404SOL    HW2 1212   2.152   1.983   1.360 -2.3054 -1.1285 -0.5994
  405SOL     OW 1213   2.855   0.444   2.846 -0.5704  0.7754  0.0731
  405SOL    HW1 1214   2.765   0.489   2.865 -1.7772 -0.3390 -1.4278
  405SOL    HW2 1215   2.857   0.418   2.748 -1.2976 -1.4555 -0.4234
  406SOL     OW 1216   0.797   1.505   2.634 -0.1412  0.1320  0.3169
  406SOL    HW1 1217   0.791   1.432   2.560 -0.8651 -0.9448 -1.1214
  406SOL    HW2 1218   0.716   1.497   2.693 -1.2650 -0.5386 -3.1427
  407SOL     OW 1219   1.903   2.633   0.104  0.1204  0.4570  0.6805
  407SOL    HW1 1220   1.950   2.555   0.067 -2.4151  1.7873  1.9635
  407SOL    HW2 1221   1.805   2.629   0.080 -1.5542 -0.9264  1.1705
  408SOL     OW 1222   0.492   3.068   0.351  0.2188 -0.1252 -0.5432
  408SOL    HW1 1223   0.423   0.008   0.309 -2.4906 -1.6182  3.6755
  408SOL    HW2 1224   0.443   3.001   0.402  0.1603  5.1632 -0.0601
  409SOL     OW 1225   2.524   1.838   1.062  0.6159  0.9221 -0.6844
  409SOL    HW1 1226   2.471   1.771   0.999 -0.2308 -1.9990 -0.8646
  409SOL    HW2 1227   2.577   1.780   1.121 -0.9309  0.6812  0.0878
  410SOL     OW 1228   2.263   2.254   3.079  0.4383 -0.0818  0.2453
  410SOL    HW1 1229   2.282   2.156   3.057 -1.1866 -0.9032  1.5381
  410SOL    HW2 1230   2.306   2.322   3.019  0.8908 -0.9453  1.1603
  411SOL     OW 1231   0.131   1.037   0.561  0.8982  0.1308 -0.2310
  411SOL    HW1 1232   0.200   1.094   0.607 -0.9756  1.3577 -0.3523
  411SOL    HW2 1233   0.037   1.078   0.559  1.4616 -0.2873  0.3954
  412SOL     OW 1234   1.625   2.674   0.298 -0.1286  0.2045 -0.1962
  412SOL    HW1 1235   1.624   2.762   0.345  0.4259 -1.5741  0.3799
  412SOL    HW2 1236   1.612   2.687   0.197  1.9947  0.0628 -3.3112
  413SOL     OW 1237   2.006   0.285   2.251  0.3659  0.1547 -0.1505
  413SOL    HW1 1238   1.983   0.248   2.160  3.0038 -0.1243 -0.4848
  413SOL    HW2 1239   1.959   0.228   2.321 -0.2409 -4.5540 -1.0385
  414SOL     OW 1240   0.017   0.436   0.562 -0.5347 -0.0786  0.0050
  414SOL    HW1 1241   0.073   0.518   0.556  0.4565 -2.7804  0.2176
  414SOL    HW2 1242   0.015   0.393   0.657 -0.6207 -1.2279 -2.7749
  415SOL     OW 1243   0.962   1.803   1.554 -0.2377  0.2886  0.4092
  415SOL    HW1 1244   0.948   1.863   1.635 -0.8182 -1.6271  2.2197
  415SOL    HW2 1245   0.890   1.730   1.556 -2.0239  0.3693 -1.5419
  416SOL     OW 1246   0.566   0.236   0.235  0.0817  0.1163 -0.0061
  416SOL    HW1 1247   0.595   0.216   0.138 -1.9161  2.0115  0.2696
  416SOL    HW2 1248   0.472   0.191   0.245 -3.5985 -1.0025  0.7507
  417SOL     OW 1249   2.612   2.852   1.207  0.3142  0.3390 -0.2038
  417SOL    HW1 1250   2.645   2.767   1.252 -0.3792  1.8631 -0.4887
  417SOL    HW2 1251   2.550   2.833   1.128  1.7773  1.8785  1.1470
  418SOL     OW 1252   0.711   0.511   2.583  0.8273  0.6054  0.3284
  418SOL    HW1 1253   0.765   0.561   2.511  1.5880 -2.0922 -0.5111
  418SOL    HW2 1254   0.771   0.493   2.663 -1.1244  0.7978  0.5943
  419SOL     OW 1255   0.097   1.533   1.198 -0.0261  0.4752  0.5323
  419SOL    HW1 1256   0.069   1.435   1.200  1.5227  2.7587 -1.3188
  419SOL    HW2 1257   0.028   1.594   1.156 -0.7491 -0.9852 -1.7410
  420SOL     OW 1258   1.253   1.980   0.768 -0.0204  0.2767 -0.0274
  420SOL    HW1 1259   1.177   2.009   0.825 -1.5653  1.7008 -0.3083
  420SOL    HW2 1260   1.267   1.877   0.767  0.5995 -0.3035 -1.1496
  421SOL     OW 1261   1.936   1.995   1.989 -0.2541  0.1555 -0.5206
  421SOL    HW1 1262   1.911   1.974   1.893 -1.7101  0.3396 -1.8420
  421SOL    HW2 1263   1.979   1.915   2.036  0.3946 -1.2740 -0.7011
  422SOL     OW 1264   3.078   0.529   2.956  0.0536 -0.4604 -0.6537
  422SOL    HW1 1265   2.983   0.505   2.926 -3.6726  1.3431 -1.8569
  422SOL    HW2 1266   3.088   0.534   3.054 -1.2557  0.3332 -2.1778
  423SOL     OW 1267   1.123   2.188   0.944 -0.2668  0.4519  0.5719
  423SOL    HW1 1268   1.040   2.126   0.936  0.6897 -1.9065  0.4628
  423SOL    HW2 1269   1.184   2.156   1.024  1.1138 -0.1661  1.0503
  424SOL     OW 1270   0.780   1.610   1.501  0.1612  0.1878 -0.1575
  424SOL    HW1 1271   0.837   1.551   1.437  0.0731 -0.3700 -0.9191
  424SOL    HW2 1272   0.723   1.550   1.559 -0.4274 -0.2906 -0.3908
  425SOL     OW 1273   3.041   2.709   2.139 -0.0705  0.5022 -0.6564
  425SOL    HW1 1274   0.017   2.704   2.121 -0.5477 -1.7621 -0.4088
  425SOL    HW2 1275   2.990   2.748   2.059 -0.8251 -0.9933  0.2438
  426SOL     OW 1276   1.808   2.998   0.587 -0.1802 -0.1748  0.2700
  426SOL    HW1 1277   1.815   2.930   0.663 -0.9404 -0.5852  0.1539
  426SOL    HW2 1278   1.872   3.077   0.599  1.0662 -1.8785 -0.3851
  427SOL     OW 1279   0.643   0.932   2.816  0.6540  0.4144 -0.0727
  427SOL    HW1 1280   0.727   0.980   2.787 -1.4784 -0.5235 -2.1255
  427SOL    HW2 1281   0.613   0.858   2.754  0.2088  2.9322 -0.6260
  428SOL     OW 1282   2.168   1.362   0.321  0.5483  0.5494  0.4838
  428SOL    HW1 1283   2.102   1.393   0.245 -1.4255  0.4357 -1.1404
  428SOL    HW2 1284   2.234   1.291   0.286  1.3865  0.1233  1.2513
  429SOL     OW 1285   3.099   0.075   0.259  0.2545  0.0567 -0.1356
  429SOL    HW1 1286   0.034   0.125   0.327 -2.4375 -0.6265 -0.8126
  429SOL    HW2 1287   3.007   0.062   0.298  0.0881 -1.5718  0.2308
  430SOL     OW 1288   0.552   2.803   2.267 -0.1914 -0.0430 -0.6805
  430SOL    HW1 1289   0.514   2.876   2.206 -2.4503 -3.2546  2.1128
  430SOL    HW2 1290   0.618   2.837   2.341  2.0691  0.4459  0.6149
  431SOL     OW 1291   2.469   1.130   1.387  0.1809  0.1792  0.3395
  431SOL    HW1 1292   2.394   1.202   1.403  0.3695  0.3744 -1.2694
  431SOL    HW2 1293   2.533   1.113   1.470  2.4376  0.8799  1.1206
  432SOL     OW 1294   1.859   2.286   1.927 -0.0475 -0.0056 -0.1344
  432SOL    HW1 1295   1.856   2.228   2.010  3.1705 -0.0512 -1.2294
  432SOL    HW2 1296   1.958   2.306   1.906  0.6817  0.7170  0.4793
  433SOL     OW 1297   0.911   2.018   0.433  0.1086 -0.0557  0.4945
  433SOL    HW1 1298   0.964   1.955   0.370  2.2526 -2.5058  0.7791
  433SOL    HW2 1299   0.981   2.077   0.485  2.2770  0.7785 -0.4376
  434SOL     OW 1300   0.312   2.115   2.396  0.2358  0.1764  0.1021
  434SOL    HW1 1301   0.351   2.086   2.486  4.3006  0.8551  1.9033
  434SOL    HW2 1302   0.338   2.043   2.325 -0.2378 -0.3648  0.3769
  435SOL     OW 1303   0.770   0.577   0.236  0.0245 -0.1357  0.5531
  435SOL    HW1 1304   0.738   0.562   0.140 -0.0615  3.1604 -1.7176
  435SOL    HW2 1305   0.810   0.672   0.241  1.5905  1.6970 -1.3024
  436SOL     OW 1306   0.300   2.840   1.347  0.0249 -0.3368  0.1678
  436SOL    HW1 1307   0.317   2.749   1.303  1.6264  0.4682  1.1943
  436SOL    HW2 1308   0.204   2.867   1.360 -0.2587 -1.0584  0.4915
  437SOL     OW 1309   1.460   1.971   1.559  0.2498 -0.1613  0.6804
  437SOL    HW1 1310   1.387   2.014   1.616 -0.3971  0.1645  3.1759
  437SOL    HW2 1311   1.510   2.048   1.514  1.2589  2.1512 -0.0201
  438SOL     OW 1312   0.123   1.826   0.769 -0.5703 -0.3141  0.4376
  438SOL    HW1 1313   0.110   1.857   0.864  0.3824  2.0958 -0.9954
  438SOL    HW2 1314   0.216   1.844   0.736 -0.3961 -1.0386  0.5339
  439SOL     OW 1315   0.098   0.540   1.002  0.0504  0.1315  0.2709
  439SOL    HW1 1316   0.069   0.505   1.090  1.0551  0.9338 -1.4735
  439SOL    HW2 1317   0.167   0.475   0.963  0.5092 -1.0348 -2.1821
  440SOL     OW 1318   0.086   2.983   2.441 -0.5001  0.0168  0.2908
  440SOL    HW1 1319   0.148   2.901   2.463 -0.8078 -1.7224  0.7235
  440SOL    HW2 1320   0.124   3.028   2.357  0.9073  1.6510  1.9440
  441SOL     OW 1321   2.902   0.273   1.218  0.2331  0.6831  0.2179
  441SOL    HW1 1322   2.996   0.311   1.229 -0.1968  0.9970  0.0756
  441SOL    HW2 1323   2.887   0.211   1.144  1.9135 -1.1924  1.9912
  442SOL     OW 1324   1.624   2.173   2.700 -0.3354  0.1087  0.4341
  442SOL    HW1 1325   1.659   2.269   2.703 -0.1501  0.8148 -0.1320
  442SOL    HW2 1326   1.705   2.109   2.706  0.4531  1.6883  1.5025
  443SOL     OW 1327   0.751   1.321   2.969  0.3115  0.2190  0.3744
  443SOL    HW1 1328   0.650   1.295   2.959 -3.0157 -2.0115  2.5022
  443SOL    HW2 1329   0.801   1.288   2.890  0.2614  2.2474  4.2041
  444SOL     OW 1330   1.410   1.725   2.040 -0.4500  0.1042  0.1648
  444SOL    HW1 1331   1.350   1.800   1.998  2.1644  1.3073 -0.7215
  444SOL    HW2 1332   1.356   1.686   2.124  0.1254 -4.6745  2.5141
  445SOL     OW 1333   0.157   2.941   0.906  0.2705  0.1764 -0.1631
  445SOL    HW1 1334   0.193   3.038   0.881  0.6489 -0.9277  1.5232
  445SOL    HW2 1335   0.096   2.953   0.988  1.3001  1.8642 -1.6055
  446SOL     OW 1336   2.294   0.521   1.271 -0.1189  0.7647 -0.1540
  446SOL    HW1 1337   2.265   0.601   1.332  1.5811  2.6699 -0.1167
  446SOL    HW2 1338   2.223   0.489   1.208  0.1936 -1.3106  1.9625
  447SOL     OW 1339   0.451   0.955   0.047 -0.2177  0.0110  0.0416
  447SOL    HW1 1340   0.524   1.026   0.067  1.8074 -0.8816  0.2415
  447SOL    HW2 1341   0.379   0.953   0.122 -0.2073 -1.7192  0.6931
  448SOL     OW 1342   1.276   2.112   1.714 -0.3778  0.5900 -0.1260
  448SOL    HW1 1343   1.184   2.142   1.680  2.1071  1.3118  0.4924
  448SOL    HW2 1344   1.329   2.185   1.766  1.0509 -0.4270 -2.0870
  449SOL     OW 1345   1.058   1.226   0.600  0.4173 -0.1332  0.5842
  449SOL    HW1 1346   1.055   1.276   0.688  0.3269  0.9152 -0.7327
  449SOL    HW2 1347   1.142   1.173   0.587 -0.2706  0.6389 -3.3811
  450SOL     OW 1348   2.931   1.767   1.844 -0.4119 -0.4204 -0.5379
  450SOL    HW1 1349   3.019   1.721   1.817  1.1090 -3.2174  3.1559
  450SOL    HW2 1350   2.928   1.773   1.943  0.3840  2.0047 -1.1660
  451SOL     OW 1351   2.716   1.382   2.885  0.2534 -0.4833 -0.6147
  451SOL    HW1 1352   2.688   1.396   2.982 -0.8243 -1.5723  0.5216
  451SOL    HW2 1353   2.646   1.331   2.834  2.6844  2.7194  3.6475
  452SOL     OW 1354   1.669   0.624   1.304 -0.2802  0.1696  0.4124
  452SOL    HW1 1355   1.613   0.647   1.384  1.5328 -0.7068 -0.4765
  452SOL    HW2 1356   1.610   0.627   1.218 -1.2849 -2.0753  0.4500
  453SOL     OW 1357   2.063   1.120   1.297  0.2144  0.5447  0.6215
  453SOL    HW1 1358   2.139   1.056   1.265  0.3193  2.1605 -4.4383
  453SOL    HW2 1359   2.095   1.215   1.275 -0.2753  2.3393 -0.6214
  454SOL     OW 1360   2.948   0.906   0.416  0.6512  0.4720 -0.1338
  454SOL    HW1 1361   3.034   0.852   0.438  1.3647 -2.3749  0.2911
  454SOL    HW2 1362   2.870   0.843   0.419  0.0272 -1.8861 -2.1712
  455SOL     OW 1363   2.679   1.702   1.222 -0.7236  0.1841  0.2244
  455SOL    HW1 1364   2.715   1.647   1.141  0.6880  1.1584 -2.4327
  455SOL    HW2 1365   2.722   1.672   1.312  0.0594  0.3119  1.8966
  456SOL     OW 1366   0.771   0.143   1.311 -0.3050 -0.1001  0.2173
  456SOL    HW1 1367   0.688   0.161   1.368 -0.1906 -3.7857  1.6617
  456SOL    HW2 1368   0.820   0.064   1.342 -1.1280  0.3568 -0.6539
  457SOL     OW 1369   1.634   3.058   1.072 -0.1297 -0.2901  0.2112
  457SOL    HW1 1370   1.534   3.074   1.063  2.2308 -1.2224  0.0213
  457SOL    HW2 1371   1.687   0.005   1.024  0.8192 -0.2973  1.1820
  458SOL     OW 1372   2.455   0.266   0.587 -0.1684 -0.7203  0.2818
  458SOL    HW1 1373   2.399   0.184   0.606  0.7811  2.6117 -0.7306
  458SOL    HW2 1374   2.443   0.318   0.677 -3.0581  0.2806 -0.1786
  459SOL     OW 1375   1.964   0.523   2.967  0.1347  0.2787 -0.7708
  459SOL    HW1 1376   1.993   0.572   3.048 -0.5609  0.5263  1.1723
  459SOL    HW2 1377   1.985   0.425   2.977 -2.1191  2.6005  1.4340
  460SOL     OW 1378   0.010   2.423   2.671 -0.0605  0.3556  0.4773
  460SOL    HW1 1379   3.049   2.442   2.721  3.1967  2.3185  1.7575
  460SOL    HW2 1380   0.070   2.504   2.671 -0.9341  1.8108 -1.0775
  461SOL     OW 1381   0.688   1.657   0.145  0.2546 -0.4066 -0.6878
  461SOL    HW1 1382   0.697   1.759   0.149  1.9090  0.5154  3.0045
  461SOL    HW2 1383   0.625   1.625   0.074  1.8019 -1.4003  1.7988
  462SOL     OW 1384   2.130   2.361   0.708 -0.5480 -0.3290 -0.2802
  462SOL    HW1 1385   2.151   2.428   0.627  0.7430  2.3554 -0.2292
  462SOL    HW2 1386   2.077   2.400   0.788  0.5524 -0.6163 -1.0473
  463SOL     OW 1387   0.091   0.791   0.529 -0.1768  0.2463  0.6795
  463SOL    HW1 1388   0.108   0.733   0.612  0.2265  1.4061  1.6897
  463SOL    HW2 1389   0.111   0.892   0.539 -2.1217  1.1101 -1.3350
  464SOL     OW 1390   0.705   2.487   0.466  0.5269 -0.2705  0.1337
  464SOL    HW1 1391   0.642   2.463   0.538 -2.0713 -0.4894 -0.1637
  464SOL    HW2 1392   0.704   2.401   0.407  0.5149  0.7173  0.8473
  465SOL     OW 1393   2.434   0.686   0.623 -0.4769  0.1571 -0.5477
  465SOL    HW1 1394   2.330   0.693   0.607 -2.8109  0.3719 -1.8027
  465SOL    HW2 1395   2.477   0.704   0.536 -0.0748 -1.1531  2.5154
  466SOL     OW 1396   2.143   0.187   0.069 -0.1309  0.1576 -0.4411
  466SOL    HW1 1397   2.155   0.195   0.174 -0.1516 -1.2430 -0.1944
  466SOL    HW2 1398   2.194   0.103   0.037  0.0726  1.5348 -0.3704
  467SOL     OW 1399   1.097   0.608   1.848 -0.0771 -0.1153 -0.3600
  467SOL    HW1 1400   1.109   0.596   1.748 -0.5397 -1.1507  0.1953
  467SOL    HW2 1401   1.166   0.671   1.890  2.0230  0.9993 -2.1315
  468SOL     OW 1402   2.951   0.654   2.176 -0.2649  0.0166  0.3063
  468SOL    HW1 1403   3.054   0.663   2.193  0.8767 -0.2276 -2.0438
  468SOL    HW2 1404   2.909   0.741   2.162  0.8224 -0.0909 -2.0760
  469SOL     OW 1405   0.642   2.873   2.526 -0.0549 -0.0332  0.0055
  469SOL    HW1 1406   0.621   2.783   2.569  2.1380  0.0246 -0.3663
  469SOL    HW2 1407   0.568   2.941   2.559 -0.6881  3.4433 -0.9444
  470SOL     OW 1408   1.756   1.362   2.179  0.3439  0.0728 -0.0691
  470SOL    HW1 1409   1.650   1.382   2.177 -4.5288  1.5551 -0.1939
  470SOL    HW2 1410   1.801   1.425   2.115  0.5280 -1.7992 -4.9891
  471SOL     OW 1411   2.760   1.109   0.110 -0.8819 -0.2751 -0.4198
  471SOL    HW1 1412   2.731   1.205   0.110 -1.1205  0.2604  0.0003
  471SOL    HW2 1413   2.857   1.089   0.123  1.2703 -0.8731 -0.5080
  472SOL     OW 1414   0.381   2.849   0.460  0.2923 -0.1956 -0.1018
  472SOL    HW1 1415   0.291   2.863   0.509 -2.0528  1.8689  1.4995
  472SOL    HW2 1416   0.453   2.804   0.519 -0.7407  0.9597  0.0538
  473SOL     OW 1417   0.841   3.010   2.763  0.2430 -0.6022  0.3179
  473SOL    HW1 1418   0.771   3.084   2.748 -0.4956 -1.7183 -1.0917
  473SOL    HW2 1419   0.818   2.920   2.726 -1.0692 -1.7961 -2.0066
  474SOL     OW 1420   1.788   3.089   2.187 -0.0097 -0.1381  0.1756
  474SOL    HW1 1421   1.797   2.990   2.202 -0.9628  1.0384 -0.6179
  474SOL    HW2 1422   1.869   0.016   2.138 -2.2482  0.0909 -1.1378
  475SOL     OW 1423   0.987   2.722   0.270 -0.3109 -0.2080  0.0633
  475SOL    HW1 1424   1.036   2.788   0.207  0.1406 -1.9339  2.5754
  475SOL    HW2 1425   0.895   2.762   0.297 -0.8274 -0.5918 -0.3115
  476SOL     OW 1426   0.571   0.813   0.873 -0.4072 -0.2508 -0.2499
  476SOL    HW1 1427   0.475   0.821   0.843  3.5921  0.3089  1.3623
  476SOL    HW2 1428   0.624   0.762   0.803 -0.4664  0.6339 -1.1705
  477SOL     OW 1429   1.824   2.057   1.271  0.2198  0.5248 -0.0173
  477SOL    HW1 1430   1.854   2.118   1.195 -0.4469  1.3695  1.6020
  477SOL    HW2 1431   1.906   2.037   1.329  3.9603  0.1251  1.2351
  478SOL     OW 1432   0.449   1.225   2.258 -0.4368  0.0812  0.2322
  478SOL    HW1 1433   0.507   1.287   2.205 -0.3178 -0.1139 -0.8534
  478SOL    HW2 1434   0.383   1.179   2.196 -0.7254 -0.8602 -0.4373
  479SOL     OW 1435   0.267   0.052   0.813 -0.3236 -0.6125 -0.5512
  479SOL    HW1 1436   0.357   0.062   0.863 -0.1542  0.5857  0.6199
  479SOL    HW2 1437   0.244   0.144   0.782  0.5485 -0.6309  2.0352
  480SOL     OW 1438   2.562   2.496   3.119  0.4281 -0.2837  0.1548
  480SOL    HW1 1439   2.498   2.483   3.044  2.3529  3.1690  0.1438
  480SOL    HW2 1440   2.656   2.470   3.097 -0.3679  1.8239  1.0416
  481SOL     OW 1441   2.556   0.561   1.176  0.1569  0.0296 -0.4627
  481SOL    HW1 1442   2.453   0.567   1.178  1.5475 -1.9222 -0.3037
  481SOL    HW2 1443   2.600   0.607   1.252  2.2271 -3.3927  1.3434
  482SOL     OW 1444   1.259   2.547   1.807 -0.0952  0.8837 -0.2132
  482SOL    HW1 1445   1.312   2.534   1.719  1.7040  1.3302  0.9440
  482SOL    HW2 1446   1.331   2.573   1.880 -0.7873 -0.8263  1.2845
  483SOL     OW 1447   0.245   1.484   2.872  0.0063 -0.0944 -0.4180
  483SOL    HW1 1448   0.153   1.450   2.850 -1.1994  2.3573 -3.8740
  483SOL    HW2 1449   0.317   1.414   2.885 -1.1933  1.1806 -2.2005
  484SOL     OW 1450   1.338   1.982   2.417  0.2168 -0.5056  0.5730
  484SOL    HW1 1451   1.241   1.983   2.389 -1.8729 -2.2085  1.7099
  484SOL    HW2 1452   1.396   2.029   2.347 -2.2165  2.4437  0.9504
  485SOL     OW 1453   0.095   0.198   2.513 -0.0181 -0.0191  0.0263
  485SOL    HW1 1454   0.034   0.242   2.443 -2.6269  3.8001 -0.8547
  485SOL    HW2 1455   0.052   0.121   2.567 -2.6743  1.6132  1.8014
  486SOL     OW 1456   1.605   0.046   0.685  0.3255 -0.0579 -0.4244
  486SOL    HW1 1457   1.549   0.096   0.619  0.8679 -2.2652  3.9733
  486SOL    HW2 1458   1.671   3.111   0.633  2.8997  1.0596  3.3189
  487SOL     OW 1459   1.305   2.684   0.974 -0.1896 -0.0463  0.7951
  487SOL    HW1 1460   1.366   2.675   0.896  2.0238  1.7803  0.0665
  487SOL    HW2 1461   1.212   2.707   0.943  1.0283 -0.4608  0.1413
  488SOL     OW 1462   1.827   0.839   0.808 -0.2264  0.3258 -0.3570
  488SOL    HW1 1463   1.784   0.856   0.902 -3.5076  0.4733  4.9557
  488SOL    HW2 1464   1.927   0.874   0.814 -0.2745  0.1327 -0.5427
  489SOL     OW 1465   1.118   2.699   1.388 -0.3122  0.7786 -0.1943
  489SOL    HW1 1466   1.218   2.696   1.406  0.2551  0.7578  0.5527
  489SOL    HW2 1467   1.070   2.704   1.483  1.6994 -0.3319  2.9017
  490SOL     OW 1468   0.975   0.806   0.581  0.0325 -0.4227  0.1553
  490SOL    HW1 1469   0.959   0.905   0.607  0.9902  0.3385 -0.3076
  490SOL    HW2 1470   1.004   0.793   0.481  1.8240  0.1503 -0.2291
  491SOL     OW 1471   1.560   2.970   0.015  0.7539  0.2122 -0.2867
  491SOL    HW1 1472   1.529   3.001   0.104 -0.8380 -0.5650 -1.1147
  491SOL    HW2 1473   1.482   2.977   3.072  3.4421 -0.8252  2.6979
  492SOL     OW 1474   1.489   1.388   2.181 -0.2940  0.2436 -0.2548
  492SOL    HW1 1475   1.429   1.467   2.205 -0.2662 -2.5585 -2.0244
  492SOL    HW2 1476   1.449   1.313   2.236  1.0330  0.3963 -0.3168
  493SOL     OW 1477   2.937   1.770   0.073 -0.2758 -0.2758  0.2367
  493SOL    HW1 1478   2.906   1.826   3.113  0.4062  0.0878  1.8019
  493SOL    HW2 1479   2.937   1.673   0.058 -0.8909  0.8752  0.9060
  494SOL     OW 1480   2.176   1.613   0.461  0.0887 -0.2134  0.4321
  494SOL    HW1 1481   2.104   1.624   0.537 -1.7775 -2.7027 -0.1387
  494SOL    HW2 1482   2.182   1.518   0.428 -0.2871 -2.4637  1.5682
  495SOL     OW 1483   0.137   0.788   2.656  0.2005  0.2075 -0.0002
  495SOL    HW1 1484   0.165   0.763   2.562 -1.3307  1.9198 -0.3390
  495SOL    HW2 1485   0.193   0.866   2.695  1.1730  1.8344  2.3079
  496SOL     OW 1486   2.832   3.093   2.335  0.2513  0.5721 -0.3053
  496SOL    HW1 1487   2.841   0.019   2.244  0.0037  1.0188 -0.0071
  496SOL    HW2 1488   2.890   3.004   2.346  2.8856 -0.6846  1.6161
  497SOL     OW 1489   2.634   0.825   0.773 -0.6006  0.4488 -0.8223
  497SOL    HW1 1490   2.556   0.778   0.730  3.0642 -0.6328  3.8622
  497SOL    HW2 1491   2.728   0.787   0.746  0.2858  0.8744  0.7306
  498SOL     OW 1492   3.042   2.618   0.035  0.4193 -0.0943 -0.1304
  498SOL    HW1 1493   3.013   2.706   3.120  1.1281 -2.2161 -0.0262
  498SOL    HW2 1494   0.017   2.607   0.003  0.3053 -1.9066  0.7328
  499SOL     OW 1495   1.523   2.469   0.744 -0.2303  0.4532  0.4176
  499SOL    HW1 1496   1.439   2.423   0.783 -1.8343 -3.9802  1.6689
  499SOL    HW2 1497   1.520   2.453   0.642  1.5544  2.9534 -4.5029
  500SOL     OW 1498   1.103   0.359   2.618 -0.0802  0.1450  0.2188
  500SOL    HW1 1499   1.020   0.400   2.662 -0.2706  2.5028  5.0370
  500SOL    HW2 1500   1.129   0.408   2.532 -0.5160  0.3508  1.5131
  501SOL     OW 1501   1.038   0.276   1.328 -0.1227  0.1637  0.4311
  501SOL    HW1 1502   1.091   0.189   1.322  1.6548  1.0755  1.6646
  501SOL    HW2 1503   0.941   0.256   1.311 -1.3936 -1.1803 -0.3987
  502SOL     OW 1504   0.014   0.130   2.046  0.3222  0.2527 -0.1238
  502SOL    HW1 1505   0.086   0.072   2.092  0.9469  1.1421 -2.0841
  502SOL    HW2 1506   3.109   0.200   2.110  1.4229  0.6555 -4.7417
  503SOL     OW 1507   1.381   2.309   2.283  0.0355 -0.5300 -0.1528
  503SOL    HW1 1508   1.454   2.369   2.327 -0.5580  4.2899  0.7741
  503SOL    HW2 1509   1.419   2.225   2.241  1.4388 -0.6774  1.6925
  504SOL     OW 1510   2.174   2.827   1.815 -0.5310 -0.2881  0.1779
  504SOL    HW1 1511   2.268   2.815   1.854  2.4681 -1.8424  3.9870
  504SOL    HW2 1512   2.153   2.928   1.802  0.2717  0.7447 -2.5379
  505SOL     OW 1513   2.604   1.085   1.641 -0.4689 -0.2600 -0.1081
  505SOL    HW1 1514   2.701   1.059   1.630  0.8125 -3.2752  0.7423
  505SOL    HW2 1515   2.544   1.003   1.650  0.5049  0.7112  0.7485
  506SOL     OW 1516   0.302   1.492   2.342  0.5252  0.5071 -0.0341
  506SOL    HW1 1517   0.276   1.512   2.246 -0.3189  1.6696 -1.0179
  506SOL    HW2 1518   0.315   1.394   2.371 -2.0717 -0.3089  2.1120
  507SOL     OW 1519   0.059   2.973   1.427 -0.3915 -0.2398 -0.6771
  507SOL    HW1 1520   0.002   3.050   1.455 -0.9497  0.2533 -0.9050
  507SOL    HW2 1521   0.004   2.885   1.433 -0.5798  1.0576 -0.8986
  508SOL     OW 1522   1.396   0.500   1.502  0.2833 -0.7537  0.3519
  508SOL    HW1 1523   1.429   0.596   1.490  1.1739 -0.0936  3.3376
  508SOL    HW2 1524   1.414   0.445   1.414  2.5979  1.9731 -3.0892
  509SOL     OW 1525   1.179   2.392   1.423 -0.5342  0.5319  0.1070
  509SOL    HW1 1526   1.176   2.433   1.330  2.3709  0.1885 -4.6195
  509SOL    HW2 1527   1.103   2.416   1.486  1.0301 -1.1775 -0.3210
  510SOL     OW 1528   2.627   1.424   0.022  0.0626  0.3656 -0.3558
  510SOL    HW1 1529   2.527   1.409   0.018  2.2544  2.1109  0.2699
  510SOL    HW2 1530   2.668   1.433   0.114  0.1341 -0.5433  2.2799
  511SOL     OW 1531   0.886   1.454   1.312  0.0051 -0.5825 -0.3865
  511SOL    HW1 1532   0.835   1.378   1.262  0.0245 -2.8951 -0.1828
  511SOL    HW2 1533   0.902   1.537   1.252  1.0190  0.6437  0.8520
  512SOL     OW 1534   2.886   2.322   0.337  0.0475 -0.2885  0.1000
  512SOL    HW1 1535   2.923   2.268   0.417  2.8138 -0.4134  1.2400
  512SOL    HW2 1536   2.862   2.259   0.262  1.4268  0.5158 -0.0341
  513SOL     OW 1537   0.510   1.541   2.748  0.7555  0.4691  0.0440
  513SOL    HW1 1538   0.506   1.586   2.655 -0.0185 -0.3005 -2.5160
  513SOL    HW2 1539   0.419   1.554   2.787 -1.8603 -0.0734 -1.1180
  514SOL     OW 1540   0.031   2.327   2.946  0.3232  0.1298  0.0082
  514SOL    HW1 1541   0.081   2.394   2.999 -0.3896 -2.0757 -1.4353
  514SOL    HW2 1542   0.040   2.354   2.850 -2.5328  2.3529  0.1208
  515SOL     OW 1543   1.330   0.972   2.253 -0.3022  0.1217 -0.0166
  515SOL    HW1 1544   1.262   0.995   2.181 -0.0848  2.1774  0.1327
  515SOL    HW2 1545   1.384   1.052   2.288  2.4140  2.0742 -0.6580
  516SOL     OW 1546   2.039   2.212   0.511  0.7529 -0.1826  0.1068
  516SOL    HW1 1547   2.106   2.144   0.479 -0.6901  1.6037  0.3320
  516SOL    HW2 1548   2.085   2.269   0.581 -1.9699 -1.2800 -0.5132
  517SOL     OW 1549   1.358   1.656   0.526  0.0200 -0.4585  0.2238
  517SOL    HW1 1550   1.395   1.562   0.528  0.5290  1.9938  0.0634
  517SOL    HW2 1551   1.323   1.687   0.433  2.1631  0.5112 -0.3791
  518SOL     OW 1552   2.038   2.289   2.274  0.2251 -0.2756 -0.1487
  518SOL    HW1 1553   1.956   2.256   2.224 -0.3341 -0.7254  2.3227
  518SOL    HW2 1554   2.001   2.327   2.365  2.1584  1.9114 -1.1885
  519SOL     OW 1555   1.699   2.158   0.955  0.2352  0.4643  0.0571
  519SOL    HW1 1556   1.772   2.089   0.941 -0.7416 -0.7534  1.3143
  519SOL    HW2 1557   1.618   2.143   0.893  1.2814 -1.1563  1.6991
  520SOL     OW 1558   2.707   2.486   2.519  0.1146 -0.4224 -0.2599
  520SOL    HW1 1559   2.751   2.393   2.496 -0.0131 -2.9124 -0.0216
  520SOL    HW2 1560   2.608   2.477   2.500  1.0526 -0.4242  1.3293
  521SOL     OW 1561   0.024   1.392   2.100 -0.6720 -0.1900  0.1181
  521SOL    HW1 1562   3.078   1.440   2.159  0.8261 -1.2798  0.2142
  521SOL    HW2 1563   3.111   1.323   2.033 -0.6350 -1.6876 -2.1577
  522SOL     OW 1564   0.614   0.511   2.088 -0.4848  0.4419 -0.4420
  522SOL    HW1 1565   0.551   0.558   2.024 -1.7769 -0.8436  1.8621
  522SOL    HW2 1566   0.708   0.505   2.050  0.5733  2.3847  1.0562
  523SOL     OW 1567   0.644   1.882   0.981 -0.3437 -0.5237 -0.9626
  523SOL    HW1 1568   0.689   1.941   1.052 -0.4264  0.6107  0.8371
  523SOL    HW2 1569   0.548   1.895   0.979  2.4666  0.3366 -1.0371
  524SOL     OW 1570   1.683   2.961   0.361  0.3053 -0.1518 -0.0297
  524SOL    HW1 1571   1.752   2.954   0.282 -0.6932  0.8696 -2.3221
  524SOL    HW2 1572   1.729   2.968   0.455  1.0331  1.0986  0.3274
  525SOL     OW 1573   2.429   0.578   1.661 -0.4092 -0.1401  0.3194
  525SOL    HW1 1574   2.351   0.514   1.664  0.7878 -0.6205  1.0107
  525SOL    HW2 1575   2.514   0.527   1.641  2.9673 -1.3002 -0.8364
  526SOL     OW 1576   0.891   2.542   0.668  0.4103  0.6386  0.0399
  526SOL    HW1 1577   0.950   2.614   0.630 -1.0844 -0.4017 -0.1561
  526SOL    HW2 1578   0.833   2.503   0.593  0.4163 -0.1886 -1.0218
  527SOL     OW 1579   2.710   2.522   0.385  0.3226  0.0609 -0.4891
  527SOL    HW1 1580   2.611   2.506   0.412 -0.5141  1.8560 -1.3514
  527SOL    HW2 1581   2.764   2.438   0.375 -1.2312  1.5979  1.7977
  528SOL     OW 1582   2.291   0.424   0.016  0.6495  0.3307 -0.1767
  528SOL    HW1 1583   2.309   0.469   0.104 -2.4586 -0.8025 -0.3165
  528SOL    HW2 1584   2.222   0.352   0.024  3.6706 -0.2974  0.3789
  529SOL     OW 1585   1.593   1.601   2.449  0.0536 -0.5523  0.2836
  529SOL    HW1 1586   1.647   1.518   2.481 -0.2947 -0.8974 -1.5864
  529SOL    HW2 1587   1.632   1.645   2.369 -1.6628  0.2424 -0.0071
  530SOL     OW 1588   2.355   0.630   0.222  0.0320  0.5579 -0.5046
  530SOL    HW1 1589   2.283   0.692   0.262  0.1959  1.6485 -0.4044
  530SOL    HW2 1590   2.397   0.572   0.299  2.2226  0.1424  2.2519
  531SOL     OW 1591   1.672   0.926   2.929 -0.2720 -0.7237  0.2042
  531SOL    HW1 1592   1.712   0.845   2.887  2.0876 -0.2412  2.9933
  531SOL    HW2 1593   1.583   0.952   2.889  1.2422 -1.4869 -0.1374
  532SOL     OW 1594   1.715   0.704   0.467 -0.5195  0.1288 -0.0854
  532SOL    HW1 1595   1.712   0.642   0.550  0.3366 -1.2707  0.3501
  532SOL    HW2 1596   1.757   0.650   0.393 -1.4546  0.7939  1.8996
  533SOL     OW 1597   0.820   0.822   2.123  0.0973 -0.0247  0.4312
  533SOL    HW1 1598   0.823   0.922   2.123  0.9256 -2.7814  0.3224
  533SOL    HW2 1599   0.800   0.781   2.031 -1.1640 -2.9712  1.2386
  534SOL     OW 1600   1.529   0.390   2.656  0.2955 -0.0807  0.2221
  534SOL    HW1 1601   1.544   0.303   2.708  2.7053  1.4094 -0.5358
  534SOL    HW2 1602   1.432   0.414   2.645  1.5203  1.3375  0.2940
  535SOL     OW 1603   0.320   0.136   0.265  0.0277 -0.2075 -0.1442
  535SOL    HW1 1604   0.252   0.166   0.332  2.1753 -0.0103 -0.9374
  535SOL    HW2 1605   0.303   0.184   0.175  0.0223  0.3542 -1.9555
  536SOL     OW 1606   0.776   0.232   0.620 -0.0821 -0.1988  0.6745
  536SOL    HW1 1607   0.780   0.283   0.531  0.2679  1.7754  1.1940
  536SOL    HW2 1608   0.736   0.302   0.683  0.6426 -0.6258  2.0593
  537SOL     OW 1609   1.685   0.949   0.601 -0.2574  0.0064  0.1861
  537SOL    HW1 1610   1.735   0.924   0.690 -0.9670  2.7595  1.8264
  537SOL    HW2 1611   1.675   0.878   0.531  1.2019  0.1258 -0.1120
  538SOL     OW 1612   3.042   2.150   0.005 -0.6796 -0.0635 -0.4419
  538SOL    HW1 1613   3.070   2.199   3.042  1.0749 -2.3855 -1.6056
  538SOL    HW2 1614   2.941   2.140   0.002  0.6802 -0.0994 -3.1948
  539SOL     OW 1615   1.949   1.730   0.086 -0.2527 -0.3716 -0.3230
  539SOL    HW1 1616   1.945   1.807   0.153  0.5129  0.1978 -1.2991
  539SOL    HW2 1617   1.934   1.637   0.127 -1.0000 -1.2989  1.9278
  540SOL     OW 1618   0.348   2.581   1.246  0.3991  0.2651  0.5103
  540SOL    HW1 1619   0.397   2.532   1.322  1.6332 -1.3562 -0.2059
  540SOL    HW2 1620   0.400   2.585   1.160 -3.4477  0.5913  1.4147
  541SOL     OW 1621   2.020   2.980   2.433 -0.1636 -0.2054  0.8179
  541SOL    HW1 1622   2.065   3.073   2.425  1.5136 -0.7462 -0.5725
  541SOL    HW2 1623   2.046   2.925   2.350 -1.2810 -0.2084 -0.0788
  542SOL     OW 1624   0.191   0.570   2.811 -0.2021  0.0515  0.2359
  542SOL    HW1 1625   0.109   0.543   2.865 -2.4832  0.3837 -0.8420
  542SOL    HW2 1626   0.172   0.653   2.755  0.8058 -0.3428  0.3822
  543SOL     OW 1627   0.003   1.290   1.248  0.0124  0.2425  0.3345
  543SOL    HW1 1628   3.025   1.306   1.225 -0.0422  0.5807 -1.4782
  543SOL    HW2 1629   0.052   1.224   1.180  0.6212 -0.0610 -3.3226
  544SOL     OW 1630   2.633   0.106   0.978  0.1911  0.0527 -0.8463
  544SOL    HW1 1631   2.671   0.196   0.961  2.6235  0.4738  0.5700
  544SOL    HW2 1632   2.569   0.073   0.903 -0.5305  0.8309 -0.1482
  545SOL     OW 1633   1.729   2.508   0.476 -0.0474 -0.0570 -0.1970
  545SOL    HW1 1634   1.692   2.577   0.410 -2.7662  1.8115 -0.7939
  545SOL    HW2 1635   1.658   2.446   0.514 -1.4916 -0.3751  0.9225
  546SOL     OW 1636   2.048   2.635   1.975  0.2304 -0.3053 -0.4289
  546SOL    HW1 1637   2.078   2.535   1.978 -1.0562  1.3274 -1.1698
  546SOL    HW2 1638   2.110   2.690   1.914 -0.7634 -3.1077 -0.3668
  547SOL     OW 1639   0.176   3.084   2.194  0.1682 -0.2705 -0.1696
  547SOL    HW1 1640   0.267   3.095   2.149 -1.1171 -0.9438  2.5466
  547SOL    HW2 1641   0.112   3.019   2.141 -0.5521 -1.5692  0.9132
  548SOL     OW 1642   1.876   1.371   2.875  0.4263  0.1028 -0.2077
  548SOL    HW1 1643   1.859   1.315   2.959  0.5937  0.6682  2.4052
  548SOL    HW2 1644   1.963   1.335   2.833  0.5082 -0.2099  1.6804
  549SOL     OW 1645   3.013   1.153   0.583  0.4032 -0.0052 -0.4995
  549SOL    HW1 1646   2.929   1.101   0.547 -1.6978 -0.7417  0.0195
  549SOL    HW2 1647   3.006   1.238   0.521 -2.7831  1.2434 -1.4041
  550SOL     OW 1648   1.907   1.997   0.623  0.1563  0.1651 -0.3951
  550SOL    HW1 1649   1.948   2.067   0.565 -1.0439 -1.0036  0.6287
  550SOL    HW2 1650   1.815   1.970   0.586  0.7189 -0.2579 -0.4185
  551SOL     OW 1651   1.350   0.625   0.716 -0.6047 -0.5821 -0.3523
  551SOL    HW1 1652   1.404   0.586   0.796 -1.2494  0.2788  0.7386
  551SOL    HW2 1653   1.283   0.557   0.681  0.6455 -0.3694  1.2718
  552SOL     OW 1654   2.955   2.848   2.359 -0.2806 -0.2808 -0.0134
  552SOL    HW1 1655   3.042   2.871   2.416  0.9220 -0.8769  0.3895
  552SOL    HW2 1656   2.989   2.794   2.279 -0.5915  1.5090 -1.8013
  553SOL     OW 1657   0.009   3.080   2.680  0.7995 -0.2273 -0.3506
  553SOL    HW1 1658   3.029   3.059   2.702 -1.9346 -1.5278  1.2594
  553SOL    HW2 1659   0.030   3.052   2.582  0.3268 -1.6629 -0.7032
  554SOL     OW 1660   0.770   2.912   1.155  0.1595 -0.5188 -0.6972
  554SOL    HW1 1661   0.715   2.847   1.209 -0.0732  0.6140 -0.0716
  554SOL    HW2 1662   0.825   2.972   1.222  0.1506  1.4070  1.6499
  555SOL     OW 1663   2.398   2.521   2.089  0.2985  0.1856 -0.0579
  555SOL    HW1 1664   2.418   2.548   1.997  1.0476 -0.5755  2.8746
  555SOL    HW2 1665   2.477   2.475   2.132 -0.0050 -0.1250  0.5609
  556SOL     OW 1666   1.183   0.267   2.871  0.1184  1.0056 -0.2843
  556SOL    HW1 1667   1.167   0.306   2.780  1.9717 -0.0147  2.3647
  556SOL    HW2 1668   1.232   0.174   2.857 -0.9690 -0.3464 -2.0103
  557SOL     OW 1669   0.477   1.662   2.513 -0.2528  0.1305  0.1528
  557SOL    HW1 1670   0.402   1.724   2.538 -2.2728  0.5349  3.2317
  557SOL    HW2 1671   0.452   1.598   2.438 -1.7726  2.1501 -0.2346
  558SOL     OW 1672   2.161   0.947   2.374  0.0306 -0.4901  0.1882
  558SOL    HW1 1673   2.248   0.906   2.399 -2.3813  0.3923  0.4853
  558SOL    HW2 1674   2.133   0.930   2.277 -1.6877  1.4431  1.9262
  559SOL     OW 1675   2.568   2.054   2.175 -0.1022  0.0361  0.0754
  559SOL    HW1 1676   2.493   2.105   2.130  1.8128  2.0361  2.1839
  559SOL    HW2 1677   2.594   2.106   2.257 -2.1353  0.6091 -1.2662
  560SOL     OW 1678   2.638   0.823   2.219  0.2857 -0.4752 -0.7594
  560SOL    HW1 1679   2.581   0.812   2.305 -2.0677 -0.7019  2.3462
  560SOL    HW2 1680   2.627   0.917   2.180  0.2125 -1.9999 -2.0638
  561SOL     OW 1681   0.509   0.285   3.080  0.4216 -0.3377 -0.1797
  561SOL    HW1 1682   0.413   0.282   3.115 -2.0078  1.2513 -0.0993
  561SOL    HW2 1683   0.509   0.274   2.977 -0.0032 -1.7478 -0.5939
  562SOL     OW 1684   1.082   1.224   1.542 -0.1090  0.2003 -0.1828
  562SOL    HW1 1685   1.112   1.300   1.605 -0.0725 -2.5411 -0.0262
  562SOL    HW2 1686   0.983   1.225   1.534  3.1404  0.8971  0.8554
  563SOL     OW 1687   1.617   0.158   2.798 -0.1744 -0.8565 -0.2650
  563SOL    HW1 1688   1.561   0.102   2.732  1.9933 -0.4042 -2.1327
  563SOL    HW2 1689   1.661   0.089   2.863  0.8082 -2.8844 -2.4035
  564SOL     OW 1690   3.038   2.154   1.059  0.3483 -0.2739 -0.1711
  564SOL    HW1 1691   2.935   2.145   1.060 -1.4727 -1.3429  1.6754
  564SOL    HW2 1692   3.073   2.125   1.151 -2.1283 -0.6610 -0.4272
  565SOL     OW 1693   0.511   2.304   2.097 -0.7485  0.3617  0.1806
  565SOL    HW1 1694   0.577   2.371   2.060  1.0861  1.1957 -0.6206
  565SOL    HW2 1695   0.564   2.213   2.116  0.1252 -2.7491  2.5497
  566SOL     OW 1696   1.219   2.626   2.145  0.3657 -0.0821 -0.2488
  566SOL    HW1 1697   1.176   2.551   2.200  1.1156 -3.1402 -1.6070
  566SOL    HW2 1698   1.319   2.626   2.161  1.4424  0.0237  0.9157
  567SOL     OW 1699   1.936   2.277   1.139  0.2835  0.9015 -0.1743
  567SOL    HW1 1700   1.938   2.338   1.221 -2.5411 -1.8066 -0.1686
  567SOL    HW2 1701   1.973   2.333   1.060  1.4826 -3.3429  0.4837
  568SOL     OW 1702   2.149   0.720   0.615  0.4840  0.6838 -0.5338
  568SOL    HW1 1703   2.123   0.789   0.683  1.1161 -2.0825 -1.6131
  568SOL    HW2 1704   2.097   0.633   0.636 -1.3063  1.3496  1.0287
  569SOL     OW 1705   2.975   1.759   2.516 -0.0985 -0.4517  0.3206
  569SOL    HW1 1706   3.074   1.736   2.503  1.4451 -2.1057  0.0162
  569SOL    HW2 1707   2.945   1.695   2.590 -0.0238 -0.8661 -2.4929
  570SOL     OW 1708   2.991   0.023   1.001 -0.7293 -0.2518  0.3796
  570SOL    HW1 1709   3.084   0.012   1.041  1.8294 -1.1618  0.7861
  570SOL    HW2 1710   2.924   0.010   1.076 -0.9441  0.7928 -0.2706
  571SOL     OW 1711   3.075   0.420   1.523  0.0710  0.0960  0.0588
  571SOL    HW1 1712   0.043   0.463   1.562  0.8682  2.0312  2.8673
  571SOL    HW2 1713   3.042   0.350   1.586  2.0032  0.5397 -1.6596
  572SOL     OW 1714   2.814   2.434   0.809 -0.1264  0.7416  0.4364
  572SOL    HW1 1715   2.727   2.408   0.766 -0.2428 -0.2016 -2.5281
  572SOL    HW2 1716   2.883   2.359   0.806 -0.9079  3.5521  1.4175
  573SOL     OW 1717   0.908   0.591   3.025 -0.0976 -0.4598  0.1822
  573SOL    HW1 1718   0.841   0.518   3.045  0.0725 -1.5272 -0.1685
  573SOL    HW2 1719   0.866   0.682   3.025  0.8759 -1.5577  1.6019
  574SOL     OW 1720   2.971   2.907   0.021  0.1368 -0.0803 -0.2684
  574SOL    HW1 1721   2.908   2.926   0.100 -3.6913 -0.7299 -0.7596
  574SOL    HW2 1722   3.051   2.968   0.018  1.7109 -2.3408  2.2365
  575SOL     OW 1723   1.431   2.335   1.164 -0.2787  0.6530  0.4501
  575SOL    HW1 1724   1.342   2.383   1.140  0.1332  1.5943  1.5461
  575SOL    HW2 1725   1.516   2.390   1.137 -0.5753  2.7406  2.7804
  576SOL     OW 1726   0.787   2.553   1.015  0.2877 -0.0865 -0.4820
  576SOL    HW1 1727   0.848   2.514   0.940 -0.3861 -2.2179 -4.4890
  576SOL    HW2 1728   0.834   2.554   1.106 -0.4191 -1.9838  1.1972
  577SOL     OW 1729   2.243   1.699   1.327  0.6240 -0.4695  0.3418
  577SOL    HW1 1730   2.309   1.701   1.400 -0.4405  2.1930 -1.4732
  577SOL    HW2 1731   2.226   1.793   1.292  0.1978 -0.1333 -0.3665
  578SOL     OW 1732   1.542   0.317   0.304  0.0969  0.1919  0.0005
  578SOL    HW1 1733   1.479   0.394   0.296 -0.0666 -0.5926 -0.5722
  578SOL    HW2 1734   1.517   0.243   0.241  0.0826  1.8454  3.5949
  579SOL     OW 1735   2.400   1.015   2.864 -0.2687  0.8152  0.0617
  579SOL    HW1 1736   2.452   1.005   2.951 -1.4783 -2.8503  2.7287
  579SOL    HW2 1737   2.387   0.923   2.819 -0.5198  1.6978 -0.2806
  580SOL     OW 1738   1.889   0.542   1.918 -0.6237 -0.1037 -0.3688
  580SOL    HW1 1739   1.792   0.571   1.919 -0.9366 -0.9892  1.4911
  580SOL    HW2 1740   1.936   0.576   2.004 -0.7081 -0.3263  0.4219
  581SOL     OW 1741   0.667   1.290   1.172 -0.3974  0.3412  0.1960
  581SOL    HW1 1742   0.567   1.303   1.153  1.9436  1.3478 -3.4719
  581SOL    HW2 1743   0.722   1.323   1.095 -1.4814  0.8979  0.8476
  582SOL     OW 1744   2.713   0.138   2.069 -0.2251  0.6377 -0.0057
  582SOL    HW1 1745   2.668   0.120   2.155 -0.5600 -0.8790 -1.1349
  582SOL    HW2 1746   2.652   0.192   2.008 -1.7223  0.6891  0.0335
  583SOL     OW 1747   3.041   0.537   1.953  0.9095 -0.1833  0.0375
  583SOL    HW1 1748   3.027   0.571   2.047  0.9619 -0.1841  1.6051
  583SOL    HW2 1749   2.967   0.469   1.926 -2.7159 -2.3046  1.1128
  584SOL     OW 1750   1.167   1.800   2.689 -0.3562  0.6810  0.2304
  584SOL    HW1 1751   1.161   1.863   2.770  0.0618 -0.0135  0.1137
  584SOL    HW2 1752   1.260   1.792   2.648 -4.3068  0.9192  0.4324
  585SOL     OW 1753   0.328   2.936   0.056 -0.9643  0.3692 -0.1037
  585SOL    HW1 1754   0.342   2.857   0.119  0.2695  0.1663 -1.0429
  585SOL    HW2 1755   0.416   2.975   0.015 -1.3558  2.4942 -2.3302
  586SOL     OW 1756   1.918   1.832   2.506  0.2882 -0.3954 -0.0682
  586SOL    HW1 1757   2.007   1.847   2.550 -2.3900 -1.5167  0.7231
  586SOL    HW2 1758   1.916   1.736   2.470  2.4356 -0.2523 -1.0015
  587SOL     OW 1759   2.449   2.467   0.440  0.1247 -0.1239 -0.7396
  587SOL    HW1 1760   2.432   2.502   0.346 -1.5850 -2.0204 -0.9647
  587SOL    HW2 1761   2.362   2.446   0.486 -0.2478  1.4729  1.5064
  588SOL     OW 1762   2.364   0.097   1.181  0.0985 -0.0742  0.4874
  588SOL    HW1 1763   2.442   0.137   1.128  0.5875 -0.8055 -0.6112
  588SOL    HW2 1764   2.293   0.056   1.116 -1.3731 -3.7909 -0.1776
  589SOL     OW 1765   0.716   0.687   0.597  0.1885  0.5258  0.2595
  589SOL    HW1 1766   0.804   0.715   0.627  1.5257 -2.1962 -0.1967
  589SOL    HW2 1767   0.681   0.746   0.524 -3.4610  3.3148  0.8435
  590SOL     OW 1768   2.143   2.037   0.330 -0.1955 -0.1286  0.2536
  590SOL    HW1 1769   2.203   1.953   0.318 -1.9224  1.4863  2.1398
  590SOL    HW2 1770   2.189   2.123   0.305 -0.2977 -1.5595 -1.1712
  591SOL     OW 1771   0.450   2.185   1.046 -0.2403 -0.3405  0.0941
  591SOL    HW1 1772   0.535   2.241   1.028  1.7787  0.3567 -0.8751
  591SOL    HW2 1773   0.360   2.239   1.034 -0.7537 -0.1839 -1.1584
  592SOL     OW 1774   0.916   0.726   1.460  0.5181  0.1495 -0.0013
  592SOL    HW1 1775   0.884   0.678   1.375 -2.6627  1.2740  0.5216
  592SOL    HW2 1776   0.835   0.730   1.527  1.2704 -1.5403 -0.2926
  593SOL     OW 1777   1.094   1.288   1.283  0.2017 -0.0466  0.1025
  593SOL    HW1 1778   1.098   1.239   1.367 -0.9056  1.1251 -3.2985
  593SOL    HW2 1779   1.034   1.367   1.298 -0.5141  0.7987  0.0243
  594SOL     OW 1780   0.828   2.272   0.330  0.0318  0.3691 -0.4405
  594SOL    HW1 1781   0.901   2.345   0.311  3.6466 -0.3117  0.5035
  594SOL    HW2 1782   0.866   2.184   0.374  0.0546  0.0808 -0.8954
  595SOL     OW 1783   1.827   0.359   1.335 -0.7059  0.6405 -0.0316
  595SOL    HW1 1784   1.778   0.448   1.340  2.7871  1.7616  0.2517
  595SOL    HW2 1785   1.891   0.343   1.416 -0.4538  1.0008  4.0304
  596SOL     OW 1786   2.861   1.345   1.266  0.0618 -0.1898 -0.4534
  596SOL    HW1 1787   2.797   1.272   1.231 -0.3780  0.8721 -2.3915
  596SOL    HW2 1788   2.807   1.406   1.328 -2.2697 -0.3648  0.0113
  597SOL     OW 1789   0.262   2.792   2.514 -0.1952  0.2059 -0.1039
  597SOL    HW1 1790   0.243   2.721   2.589  1.3473 -1.1595  0.1689
  597SOL    HW2 1791   0.293   2.747   2.431  1.1327 -1.3096  2.2764
  598SOL     OW 1792   2.834   2.451   1.916 -0.0920  0.3214 -0.1192
  598SOL    HW1 1793   2.930   2.486   1.900 -1.6288 -1.5862  1.5140
  598SOL    HW2 1794   2.790   2.445   1.827  0.2992 -0.1918 -0.3608
  599SOL     OW 1795   1.020   3.048   2.991  0.2418  0.1590  0.4555
  599SOL    HW1 1796   1.031   0.027   3.012  0.8456  1.9320  2.0340
  599SOL    HW2 1797   0.976   3.036   2.897 -0.5495  0.5550 -4.8310
  600SOL     OW 1798   0.289   2.181   2.975 -0.3959  0.5923 -0.6245
  600SOL    HW1 1799   0.205   2.232   2.966  2.1425 -0.5349  0.8270
  600SOL    HW2 1800   0.338   2.216   3.058 -0.0898 -1.5484 -0.8467
  601SOL     OW 1801   0.643   0.688   1.323  0.1439 -0.0198 -0.1843
  601SOL    HW1 1802   0.724   0.630   1.293  0.8916 -3.4093 -1.8365
  601SOL    HW2 1803   0.627   0.761   1.253 -0.4195  0.4861 -0.3301
  602SOL     OW 1804   0.804   2.818   0.907 -0.0946 -0.0846 -0.2525
  602SOL    HW1 1805   0.778   2.722   0.924  0.0896  3.4354  3.3902
  602SOL    HW2 1806   0.770   2.880   0.981  3.5965  0.2301 -1.7201
  603SOL     OW 1807   0.516   0.531   2.373 -0.0072 -0.2862  0.5838
  603SOL    HW1 1808   0.565   0.533   2.282  2.8015 -1.4698 -0.2454
  603SOL    HW2 1809   0.587   0.515   2.447  0.6576 -1.8011  0.5763
  604SOL     OW 1810   0.442   2.888   1.585  0.3528 -0.0051  0.7268
  604SOL    HW1 1811   0.371   2.935   1.640  1.7484  0.7891 -0.0318
  604SOL    HW2 1812   0.422   2.887   1.487  1.5720  1.0092  2.0259
  605SOL     OW 1813   1.640   0.664   1.994 -0.1863  0.3227  0.6878
  605SOL    HW1 1814   1.650   0.727   1.916 -0.9915  0.8980  1.7753
  605SOL    HW2 1815   1.604   0.708   2.078 -0.5786  1.8706  0.3486
  606SOL     OW 1816   2.643   2.757   0.007 -0.3641  0.3081 -0.6326
  606SOL    HW1 1817   2.615   2.658   0.002  3.2003 -0.0268  0.1363
  606SOL    HW2 1818   2.737   2.769   3.094 -1.2961  0.0388  0.4599
  607SOL     OW 1819   0.859   0.566   1.220  0.0988 -0.2617 -0.2122
  607SOL    HW1 1820   0.960   0.556   1.208  0.5579  2.1149 -2.5221
  607SOL    HW2 1821   0.814   0.513   1.146  1.9755  0.0059 -3.3917
  608SOL     OW 1822   0.265   1.841   2.604 -0.2294 -0.1027 -0.0259
  608SOL    HW1 1823   0.186   1.893   2.560  0.6498  0.8503 -0.5421
  608SOL    HW2 1824   0.294   1.889   2.690 -0.5660 -2.4667  0.5306
  609SOL     OW 1825   1.488   1.413   0.508 -0.1210  0.0781 -0.2970
  609SOL    HW1 1826   1.521   1.317   0.516 -1.7543 -0.7293  1.4064
  609SOL    HW2 1827   1.496   1.441   0.410 -0.1533 -1.6578  0.2580
  610SOL     OW 1828   0.452   0.530   1.223  0.0373 -1.2111  0.5291
  610SOL    HW1 1829   0.498   0.505   1.132  2.0884 -0.5548 -1.3602
  610SOL    HW2 1830   0.510   0.599   1.271 -0.3854  1.1078  1.1653
  611SOL     OW 1831   1.452   0.978   0.821 -0.3454  0.3203  0.4131
  611SOL    HW1 1832   1.483   1.028   0.906 -1.0118  0.9642 -1.3042
  611SOL    HW2 1833   1.534   0.958   0.766  2.3522 -0.8208  2.7663
  612SOL     OW 1834   1.991   1.221   0.485 -0.5743  0.3514 -0.1235
  612SOL    HW1 1835   1.892   1.232   0.469  0.8813  1.7479  0.5924
  612SOL    HW2 1836   2.052   1.286   0.438  0.8684 -1.4397 -1.9929
  613SOL     OW 1837   2.143   0.748   0.345  0.1233 -0.9368 -0.3358
  613SOL    HW1 1838   2.126   0.850   0.325  0.3472  1.2884 -0.2823
  613SOL    HW2 1839   2.160   0.734   0.447 -0.3661 -0.2377  3.4337
  614SOL     OW 1840   2.744   0.081   2.556  0.0127 -0.2848  0.1424
  614SOL    HW1 1841   2.774   0.036   2.470  1.4642  1.2964  0.4226
  614SOL    HW2 1842   2.643   0.074   2.578  0.0639  1.3468  2.5347
  615SOL     OW 1843   0.660   1.809   0.708  0.2598  0.0283 -0.1934
  615SOL    HW1 1844   0.736   1.746   0.680 -0.0396 -2.5565  0.9977
  615SOL    HW2 1845   0.663   1.831   0.808  0.9336  0.8026 -0.1154
  616SOL     OW 1846   1.430   1.036   2.863  0.3492 -0.0419  0.4253
  616SOL    HW1 1847   1.428   1.096   2.947 -1.5515  2.1450 -0.0238
  616SOL    HW2 1848   1.333   1.015   2.832  1.4035  0.5829  1.0171
  617SOL     OW 1849   1.396   0.600   3.104  0.0550 -0.0237 -0.1746
  617SOL    HW1 1850   1.302   0.559   3.105 -0.5260 -1.2358 -1.2095
  617SOL    HW2 1851   1.466   0.522   3.098  4.1762 -1.8529 -0.7083
  618SOL     OW 1852   1.702   2.453   2.618 -0.6557  0.3102 -0.5090
  618SOL    HW1 1853   1.633   2.465   2.545 -1.3401 -1.9658  2.8913
  618SOL    HW2 1854   1.674   2.506   2.701 -1.5617 -2.7068 -1.3138
  619SOL     OW 1855   2.371   1.724   0.846  0.2300  0.4796  0.3864
  619SOL    HW1 1856   2.414   1.693   0.762 -0.7278 -1.1554 -1.0879
  619SOL    HW2 1857   2.284   1.673   0.866  0.6606 -2.4465 -1.6840
  620SOL     OW 1858   2.171   2.718   2.445  0.0543  0.2587  0.3874
  620SOL    HW1 1859   2.234   2.717   2.367  0.2196 -0.9387  1.3592
  620SOL    HW2 1860   2.072   2.740   2.421 -0.4069 -2.1558 -0.0715
  621SOL     OW 1861   0.040   1.551   0.707 -0.5317 -0.2333 -0.2587
  621SOL    HW1 1862   0.097   1.513   0.630  2.0418  0.3362 -1.8348
  621SOL    HW2 1863   0.069   1.649   0.719 -1.3525 -0.8061  1.4931
  622SOL     OW 1864   1.156   1.346   2.504  0.2607 -0.1155  0.4237
  622SOL    HW1 1865   1.150   1.424   2.442 -0.1800  1.1280  0.9297
  622SOL    HW2 1866   1.115   1.371   2.591  1.1914  0.6337 -1.3257
  623SOL     OW 1867   2.914   2.507   2.253 -0.1335 -0.1006  0.4335
  623SOL    HW1 1868   2.980   2.467   2.318 -3.4482 -1.4967 -1.1272
  623SOL    HW2 1869   2.956   2.580   2.195  1.1120 -1.7532 -0.8763
  624SOL     OW 1870   0.735   2.792   0.006  0.5383  0.0054  0.2431
  624SOL    HW1 1871   0.816   2.730   3.118  0.7551 -0.2230  1.0695
  624SOL    HW2 1872   0.743   2.863   0.074  0.0572 -1.7145 -0.9387
  625SOL     OW 1873   0.367   1.943   2.196  0.1291 -0.4504 -0.1709
  625SOL    HW1 1874   0.293   1.956   2.125 -3.3491  1.3315 -2.7052
  625SOL    HW2 1875   0.413   1.852   2.187  0.4291 -1.4190 -0.8873
  626SOL     OW 1876   0.513   3.095   2.994  0.1444  1.1697 -0.8011
  626SOL    HW1 1877   0.436   0.014   2.937 -0.5558 -0.2894 -1.8212
  626SOL    HW2 1878   0.540   2.998   2.964  0.5327 -1.2353  1.8547
  627SOL     OW 1879   1.953   1.407   0.174  0.3601 -0.1035  0.0227
  627SOL    HW1 1880   1.947   1.310   0.131 -1.7889 -2.6986 -1.1686
  627SOL    HW2 1881   1.865   1.432   0.218  3.2965 -2.3666 -0.5409
  628SOL     OW 1882   1.109   2.163   0.537  0.1739  0.2687 -0.1678
  628SOL    HW1 1883   1.175   2.120   0.602  0.2193  1.6553 -0.5958
  628SOL    HW2 1884   1.118   2.267   0.536 -0.2093 -3.3595  0.9681
  629SOL     OW 1885   3.041   0.223   1.697 -0.1705  0.2130  0.0289
  629SOL    HW1 1886   0.004   0.193   1.751 -1.3785  0.0790  0.4963
  629SOL    HW2 1887   2.958   0.229   1.754 -0.7835  0.8296 -1.6940
  630SOL     OW 1888   2.112   0.623   1.791 -0.1049 -0.0818  0.1536
  630SOL    HW1 1889   2.116   0.591   1.693 -0.6037 -1.4868  0.5428
  630SOL    HW2 1890   2.028   0.593   1.840  2.7086 -1.7476 -0.4711
  631SOL     OW 1891   1.348   0.206   1.046  0.6202  0.9530 -0.2689
  631SOL    HW1 1892   1.434   0.230   0.996  3.6508  0.1752 -0.7617
  631SOL    HW2 1893   1.335   0.104   1.046  0.4768 -0.5340  2.1465
  632SOL     OW 1894   2.758   0.896   1.925  0.4310 -0.2522  0.2811
  632SOL    HW1 1895   2.827   0.836   1.875  1.3962 -0.6120 -2.6387
  632SOL    HW2 1896   2.663   0.888   1.881 -0.5931  1.2974 -0.9854
  633SOL     OW 1897   1.198   0.924   2.733  0.2565  0.5740 -0.0356
  633SOL    HW1 1898   1.204   0.911   2.628 -0.4051  1.8045 -1.9525
  633SOL    HW2 1899   1.193   0.828   2.772  0.1845  1.6539 -1.1355
  634SOL     OW 1900   0.556   2.813   2.919  0.3084  0.1473  0.1199
  634SOL    HW1 1901   0.578   2.770   2.827  0.0214 -1.7804  0.3745
  634SOL    HW2 1902   0.620   2.783   2.990 -1.2021  0.7524 -2.5936
  635SOL     OW 1903   3.037   1.466   1.459 -0.1732  0.4340  0.5765
  635SOL    HW1 1904   2.992   1.420   1.378  1.2463 -3.5741  1.4958
  635SOL    HW2 1905   0.019   1.471   1.447 -1.1645  0.4513 -1.4105
  636SOL     OW 1906   0.309   1.549   0.152  0.2239  0.5115 -0.3592
  636SOL    HW1 1907   0.375   1.569   0.225  0.5360 -0.2723 -1.6697
  636SOL    HW2 1908   0.230   1.615   0.156 -0.4816 -2.9329  1.8629
  637SOL     OW 1909   3.070   2.517   0.295 -0.6155 -0.1445 -0.3386
  637SOL    HW1 1910   3.063   2.584   0.220 -1.8332 -0.0273 -0.0785
  637SOL    HW2 1911   2.997   2.446   0.289  1.3843  0.9649 -1.1308
  638SOL     OW 1912   2.905   2.722   0.376  0.2767  0.2265  0.0726
  638SOL    HW1 1913   2.985   2.659   0.358 -0.6742  0.4364 -0.6635
  638SOL    HW2 1914   2.826   2.663   0.395  2.1659 -0.0502 -0.8275
  639SOL     OW 1915   1.303   0.602   2.825 -0.1655 -0.2796  0.1259
  639SOL    HW1 1916   1.266   0.531   2.881  1.1169 -0.2788 -3.6794
  639SOL    HW2 1917   1.347   0.667   2.896  2.4611 -1.2550  1.4260
  640SOL     OW 1918   2.105   2.116   1.643  0.2646  0.4843 -0.4753
  640SOL    HW1 1919   2.031   2.053   1.682  0.7399 -4.1645  0.2282
  640SOL    HW2 1920   2.111   2.204   1.698  0.1525  0.8368  1.4583
  641SOL     OW 1921   2.914   0.105   0.742 -0.1469 -0.3476 -0.3052
  641SOL    HW1 1922   2.911   0.059   0.831 -0.1738 -0.8384 -1.4292
  641SOL    HW2 1923   2.972   0.054   0.680 -2.5888  2.8913  0.2086
  642SOL     OW 1924   1.178   1.073   1.773  0.3422 -0.3400  0.6057
  642SOL    HW1 1925   1.231   1.145   1.725 -1.6001 -1.9474 -0.2301
  642SOL    HW2 1926   1.111   1.037   1.706 -1.5738  1.4069 -0.3942
  643SOL     OW 1927   0.877   1.963   2.613 -0.2929  0.2543 -0.2710
  643SOL    HW1 1928   0.908   1.875   2.576 -2.6891 -0.8994 -0.6309
  643SOL    HW2 1929   0.784   1.981   2.575 -1.0292  1.4345 -0.8099
  644SOL     OW 1930   1.326   2.685   2.524  0.7001  0.2616 -0.0386
  644SOL    HW1 1931   1.300   2.757   2.458  1.8104  0.2410  2.3149
  644SOL    HW2 1932   1.246   2.656   2.585 -1.7370 -0.2049 -0.1136
  645SOL     OW 1933   1.618   0.796   1.766  0.4583 -0.2906  0.5646
  645SOL    HW1 1934   1.689   0.847   1.714  0.1479  0.3974  0.8235
  645SOL    HW2 1935   1.528   0.840   1.743  0.4957 -0.5780  0.7754
  646SOL     OW 1936   1.161   2.363   2.591 -0.1277 -0.2853  0.0349
  646SOL    HW1 1937   1.183   2.459   2.594 -1.5989  0.9684 -0.0044
  646SOL    HW2 1938   1.245   2.309   2.600 -0.2720 -0.5493 -2.2563
  647SOL     OW 1939   1.211   3.036   0.425 -0.7144  0.6320  0.4899
  647SOL    HW1 1940   1.197   3.024   0.525 -3.0642  2.6031 -0.9566
  647SOL    HW2 1941   1.120   3.070   0.390 -1.2051 -0.4343  1.6911
  648SOL     OW 1942   2.660   2.589   1.283 -0.1535  0.0164 -0.2575
  648SOL    HW1 1943   2.642   2.556   1.187  0.1911 -1.2435  1.5352
  648SOL    HW2 1944   2.619   2.519   1.347 -2.3424  0.3627  0.5401
  649SOL     OW 1945   0.475   2.457   2.590  0.7397  0.4656 -0.2583
  649SOL    HW1 1946   0.437   2.436   2.495 -0.0133  1.5983 -3.0336
  649SOL    HW2 1947   0.553   2.401   2.620  1.5764 -0.5076 -3.0609
  650SOL     OW 1948   2.685   1.817   2.460  0.6926  0.2972 -0.6584
  650SOL    HW1 1949   2.786   1.807   2.482  0.6019 -0.1668  2.2458
  650SOL    HW2 1950   2.667   1.919   2.447  0.0739  0.2530 -0.6923
  651SOL     OW 1951   2.653   2.450   2.157 -0.0858 -0.4510 -0.2705
  651SOL    HW1 1952   2.677   2.400   2.072  0.2325  2.9749 -2.4714
  651SOL    HW2 1953   2.730   2.500   2.198  1.6909  0.3230  0.1611
  652SOL     OW 1954   2.558   2.363   0.686  0.0729 -0.1548 -0.6215
  652SOL    HW1 1955   2.539   2.263   0.699 -0.7921 -0.5363 -0.7947
  652SOL    HW2 1956   2.529   2.400   0.598 -1.0117  1.7211  0.1829
  653SOL     OW 1957   2.687   1.152   1.132  0.1956 -0.0829 -0.1675
  653SOL    HW1 1958   2.616   1.112   1.193 -3.4947  0.4423  0.8775
  653SOL    HW2 1959   2.754   1.082   1.096  1.0512  1.0640  1.5534
  654SOL     OW 1960   0.899   0.469   2.778  0.0718 -0.1890  0.6205
  654SOL    HW1 1961   0.853   0.379   2.810  1.6065 -0.4624  2.1731
  654SOL    HW2 1962   0.907   0.538   2.857 -1.3095  1.1023  2.4940
  655SOL     OW 1963   0.773   0.200   1.030 -0.6855 -0.1278  0.1573
  655SOL    HW1 1964   0.866   0.215   0.993 -0.8219 -0.2954 -0.0960
  655SOL    HW2 1965   0.768   0.196   1.131  1.8290  0.9574 -0.6389
  656SOL     OW 1966   0.296   2.420   2.017  0.2054  0.3957  0.7363
  656SOL    HW1 1967   0.322   2.409   1.920  2.5301 -0.1587  3.4520
  656SOL    HW2 1968   0.349   2.350   2.071 -0.8999  0.3976  1.2844
  657SOL     OW 1969   2.560   0.778   0.357 -0.2031  0.2167  0.3027
  657SOL    HW1 1970   2.517   0.747   0.274  0.6018 -0.7075  2.7122
  657SOL    HW2 1971   2.575   0.878   0.339 -0.2019  1.6714  0.5322
  658SOL     OW 1972   1.924   1.908   0.893 -0.4882  0.3752  0.4631
  658SOL    HW1 1973   1.935   1.955   0.799  0.4212  0.7136 -0.5630
  658SOL    HW2 1974   1.870   1.819   0.875 -2.2642 -0.7420 -2.2662
  659SOL     OW 1975   2.543   1.849   2.895 -0.2494 -0.2508  0.3788
  659SOL    HW1 1976   2.580   1.774   2.951  1.8475 -2.0367 -2.3351
  659SOL    HW2 1977   2.610   1.925   2.898  1.4245 -2.7914  0.5727
  660SOL     OW 1978   1.122   0.477   0.352  0.0420  0.0228  0.2064
  660SOL    HW1 1979   1.122   0.520   0.446  1.8582  1.4585 -1.9060
  660SOL    HW2 1980   1.214   0.489   0.309 -1.4294 -2.5778 -1.2148
  661SOL     OW 1981   1.989   3.018   3.081  0.5652  0.3177 -0.4097
  661SOL    HW1 1982   1.955   2.981   0.054  1.6010 -0.4457  2.5198
  661SOL    HW2 1983   2.085   2.998   3.064  0.9672 -0.3640 -0.8877
  662SOL     OW 1984   0.748   2.872   0.653 -0.1947 -0.1072  0.0220
  662SOL    HW1 1985   0.776   2.969   0.633  1.3359  2.7668 -2.8050
  662SOL    HW2 1986   0.752   2.863   0.752 -1.1801  2.5205 -1.0811
  663SOL     OW 1987   1.654   0.152   2.342 -0.0166  0.0617 -0.6055
  663SOL    HW1 1988   1.685   0.085   2.270 -1.8382 -0.5626  0.6249
  663SOL    HW2 1989   1.572   0.207   2.318  2.0360 -0.1254  0.8023
  664SOL     OW 1990   0.672   2.741   1.344 -0.1654  0.1685  0.2383
  664SOL    HW1 1991   0.614   2.658   1.349  4.2391  2.6079  0.4603
  664SOL    HW2 1992   0.686   2.784   1.433 -1.7982 -0.1041  0.2180
  665SOL     OW 1993   0.601   2.372   1.703  0.4613 -0.4065  0.2459
  665SOL    HW1 1994   0.658   2.382   1.785 -2.3287  1.7128 -1.1403
  665SOL    HW2 1995   0.655   2.342   1.624  1.0806 -1.6163 -1.7170
  666SOL     OW 1996   0.635   0.037   2.676 -0.3131 -0.5431  0.0136
  666SOL    HW1 1997   0.615   0.091   2.591 -0.9028  1.2315 -1.6543
  666SOL    HW2 1998   0.555   3.119   2.724  0.7848 -1.8997  0.9686
  667SOL     OW 1999   1.950   1.425   1.780 -0.0323  0.7147  0.4443
  667SOL    HW1 2000   1.946   1.323   1.800 -0.7850 -0.1369 -0.0363
  667SOL    HW2 2001   2.024   1.443   1.706  1.1289  0.4524  4.1584
  668SOL     OW 2002   1.855   3.103   1.814  0.1473 -0.1721 -0.1001
  668SOL    HW1 2003   1.819   3.015   1.845 -1.1842  1.2778 -1.4482
  668SOL    HW2 2004   1.781   0.051   1.830  1.7027 -1.1175 -2.7395
  669SOL     OW 2005   2.668   2.603   0.992  0.2331 -0.0723 -0.1299
  669SOL    HW1 2006   2.619   2.646   0.915  1.1978  0.9713 -0.7979
  669SOL    HW2 2007   2.739   2.544   0.950 -0.5829 -0.2796 -1.1142
  670SOL     OW 2008   1.152   1.946   2.938 -0.0482  0.3922 -0.0902
  670SOL    HW1 2009   1.142   1.943   3.038  0.9712 -1.9597 -3.2534
  670SOL    HW2 2010   1.079   1.996   2.895  1.8312 -2.7441 -0.7525
  671SOL     OW 2011   0.845   1.073   0.587 -0.5034 -0.6944 -0.1762
  671SOL    HW1 2012   0.900   1.158   0.576  0.2896 -1.3646 -1.6203
  671SOL    HW2 2013   0.828   1.054   0.688  0.7913 -0.9766 -0.2008
  672SOL     OW 2014   2.736   0.996   2.628  0.4269 -0.1585  0.1445
  672SOL    HW1 2015   2.807   1.066   2.639  1.0200  0.7375  0.5910
  672SOL    HW2 2016   2.758   0.939   2.552 -0.4472  2.5412  3.2688
  673SOL     OW 2017   2.740   2.085   1.813  0.0135 -0.2484  0.8787
  673SOL    HW1 2018   2.788   2.076   1.903  1.0448  2.0421  0.2902
  673SOL    HW2 2019   2.642   2.084   1.828 -2.4839  0.5622 -1.2937
  674SOL     OW 2020   0.401   2.368   2.332 -0.3111  0.2129 -0.3500
  674SOL    HW1 2021   0.351   2.279   2.347 -2.6891  0.2089 -1.3665
  674SOL    HW2 2022   0.462   2.351   2.250 -0.9390  2.3348 -0.5623
  675SOL     OW 2023   1.185   0.686   1.574  0.0850  0.0521  0.0192
  675SOL    HW1 2024   1.090   0.663   1.540 -1.8515 -2.6461 -0.6760
  675SOL    HW2 2025   1.249   0.611   1.550  1.3563  0.4343 -1.0952
  676SOL     OW 2026   2.014   0.012   1.423  0.3105 -0.7107  0.3866
  676SOL    HW1 2027   1.920   3.093   1.400  0.5266 -2.4237 -0.3026
  676SOL    HW2 2028   2.005   0.098   1.482  0.3020  2.6445  0.9739
  677SOL     OW 2029   2.348   1.303   2.869  0.2328  0.6870  0.0897
  677SOL    HW1 2030   2.363   1.396   2.828  2.1932 -1.1595  0.0018
  677SOL    HW2 2031   2.359   1.230   2.800 -1.0745 -1.6569 -3.0324
  678SOL     OW 2032   2.427   1.451   1.162  0.2951  0.0190 -0.4055
  678SOL    HW1 2033   2.530   1.460   1.157 -1.8675  1.8663  0.0633
  678SOL    HW2 2034   2.403   1.413   1.257 -2.5144  0.1533  1.8738
  679SOL     OW 2035   2.690   0.601   0.070 -0.2417 -0.4258  0.2621
  679SOL    HW1 2036   2.698   0.543   0.149 -0.7721  5.4344 -1.8283
  679SOL    HW2 2037   2.769   0.664   0.062 -0.9060  3.2100  0.7450
  680SOL     OW 2038   0.511   1.712   1.863  0.3430 -0.1010  0.2618
  680SOL    HW1 2039   0.489   1.682   1.956  1.5324 -1.1331 -1.2278
  680SOL    HW2 2040   0.609   1.691   1.855  0.9238  2.2234  0.8279
  681SOL     OW 2041   2.465   2.074   1.815 -0.7538 -0.0178  0.2199
  681SOL    HW1 2042   2.417   2.132   1.888 -0.0737 -1.0623  1.4148
  681SOL    HW2 2043   2.399   2.012   1.764 -1.5731  0.6344 -0.7509
  682SOL     OW 2044   0.081   1.724   0.092 -0.4762  0.3619 -0.4548
  682SOL    HW1 2045   0.085   1.826   0.074  0.8688 -0.1564  0.7587
  682SOL    HW2 2046   3.111   1.700   0.124 -2.4741  0.2255 -1.4487
  683SOL     OW 2047   3.093   2.162   1.330 -0.0793  0.1352  0.0610
  683SOL    HW1 2048   3.070   2.088   1.395  0.8116  1.1320 -4.7309
  683SOL    HW2 2049   0.061   2.201   1.350 -3.1779 -2.6871  0.3504
  684SOL     OW 2050   2.825   1.125   2.077  0.0709  0.1992  0.6652
  684SOL    HW1 2051   2.743   1.190   2.076  1.8414 -0.4325  1.0694
  684SOL    HW2 2052   2.798   1.031   2.049  1.2075  3.6556  0.2085
  685SOL     OW 2053   1.471   0.731   0.493  0.4291  0.3833 -0.1050
  685SOL    HW1 2054   1.574   0.722   0.485 -0.5417 -3.5809  1.2219
  685SOL    HW2 2055   1.435   0.672   0.564  1.1035  2.3866  0.6418
  686SOL     OW 2056   0.688   0.455   0.737  0.1122  0.1291 -0.3015
  686SOL    HW1 2057   0.697   0.526   0.666  0.8833  1.0947  1.4451
  686SOL    HW2 2058   0.588   0.425   0.734 -2.6487  0.9410  0.2888
  687SOL     OW 2059   0.955   2.079   2.831  0.2697 -0.5202  0.3349
  687SOL    HW1 2060   0.932   2.048   2.739  3.4057  1.6771 -1.5333
  687SOL    HW2 2061   0.877   2.080   2.893 -0.0832 -0.6245 -2.8180
  688SOL     OW 2062   2.232   0.361   1.647  0.1007  0.3338 -0.0975
  688SOL    HW1 2063   2.275   0.304   1.721 -0.3568 -0.9880  0.9737
  688SOL    HW2 2064   2.266   0.337   1.549  0.9663  0.4982 -1.6466
  689SOL     OW 2065   1.545   0.500   0.874  0.1551  0.1259  0.7557
  689SOL    HW1 2066   1.547   0.396   0.883  0.6308 -0.9380 -0.2505
  689SOL    HW2 2067   1.606   0.527   0.799  0.6430  1.0482 -0.8041
  690SOL     OW 2068   2.685   1.496   1.422 -0.1516  0.7324  0.2131
  690SOL    HW1 2069   2.585   1.485   1.416 -3.5986  0.0866  1.6262
  690SOL    HW2 2070   2.704   1.506   1.519 -1.8161 -0.5579 -0.7218
  691SOL     OW 2071   0.417   2.130   1.320  0.1409  0.3047 -0.6737
  691SOL    HW1 2072   0.446   2.143   1.226  2.9988  3.4034  3.1008
  691SOL    HW2 2073   0.366   2.042   1.327  2.8988  3.4149  0.8599
  692SOL     OW 2074   1.373   0.018   1.449  0.0505  0.6306 -0.3442
  692SOL    HW1 2075   1.415   3.048   1.474  1.7801 -1.0506  2.8969
  692SOL    HW2 2076   1.447   0.088   1.438  2.5091  4.0112  0.7841
  693SOL     OW 2077   0.946   1.883   2.140 -0.1004 -0.0719  0.1716
  693SOL    HW1 2078   0.887   1.961   2.108 -2.3394  0.1920  1.4541
  693SOL    HW2 2079   0.990   1.837   2.061 -0.3980  2.2254 -0.5770
  694SOL     OW 2080   1.844   1.349   0.897 -0.0703  0.1165  0.0730
  694SOL    HW1 2081   1.797   1.345   0.988 -0.4159  0.9109  0.0157
  694SOL    HW2 2082   1.903   1.267   0.884  0.2515 -1.6196  0.6678
  695SOL     OW 2083   1.264   0.902   1.361  0.1621  0.7268  0.2715
  695SOL    HW1 2084   1.284   0.859   1.264  0.0644 -2.8653 -1.0108
  695SOL    HW2 2085   1.204   0.845   1.420 -1.9545  1.5418  1.0679
  696SOL     OW 2086   0.102   0.187   0.465 -0.9273 -0.1326  0.1498
  696SOL    HW1 2087   0.055   0.271   0.497 -0.3909 -0.0999 -0.3146
  696SOL    HW2 2088   0.092   0.113   0.532 -0.7629 -0.8693 -2.3416
  697SOL     OW 2089   2.120   0.399   1.098  0.0765 -0.3944  0.2035
  697SOL    HW1 2090   2.042   0.444   1.056  1.1981 -0.8466 -1.3027
  697SOL    HW2 2091   2.085   0.317   1.143  2.1101 -0.0103  0.2160
  698SOL     OW 2092   1.439   1.425   1.914 -0.1609  0.2935 -0.1915
  698SOL    HW1 2093   1.505   1.496   1.883 -0.4330 -0.6502  2.0880
  698SOL    HW2 2094   1.456   1.403   2.010 -1.6780 -2.0417 -2.0362
  699SOL     OW 2095   3.104   0.301   2.250  0.0761  0.4323  0.2299
  699SOL    HW1 2096   3.025   0.346   2.294 -1.5965 -1.7117 -1.3340
  699SOL    HW2 2097   0.064   0.365   2.248 -0.1713  0.7617  1.1621
  700SOL     OW 2098   1.922   2.660   0.606 -0.1063 -0.0171  0.0506
  700SOL    HW1 2099   1.877   2.723   0.674 -0.3515  0.6903  0.3746
  700SOL    HW2 2100   1.853   2.600   0.559 -1.2752  1.1788  0.4330
  701SOL     OW 2101   0.090   1.663   2.463 -0.1581  0.5096  0.4194
  701SOL    HW1 2102   0.142   1.710   2.536 -0.0267  1.1063  1.8803
  701SOL    HW2 2103   0.153   1.608   2.411 -0.1128  0.9801  1.5802
  702SOL     OW 2104   0.742   0.002   0.493 -0.0692  0.1845  0.3130
  702SOL    HW1 2105   0.752   0.089   0.546  2.6205 -0.8056  1.1931
  702SOL    HW2 2106   0.648   3.116   0.444 -0.7699  1.9787 -1.5406
  703SOL     OW 2107   2.008   2.971   2.703 -0.2307 -0.6119 -0.3838
  703SOL    HW1 2108   2.044   3.054   2.755  0.1112  2.2449  1.8465
  703SOL    HW2 2109   2.028   2.971   2.605 -2.0018  1.0892  1.6993
  704SOL     OW 2110   2.613   1.939   0.181  0.4883  0.1294 -0.7154
  704SOL    HW1 2111   2.634   2.017   0.124 -0.6044  0.0290  1.5826
  704SOL    HW2 2112   2.595   1.853   0.122 -0.6703 -0.6181  0.4627
  705SOL     OW 2113   2.784   2.270   2.372 -0.0221 -0.1938  0.0138
  705SOL    HW1 2114   2.750   2.330   2.298 -1.7462 -0.8855 -0.3898
  705SOL    HW2 2115   2.882   2.254   2.382  2.2002 -2.3391  2.2140
  706SOL     OW 2116   2.874   0.094   0.435  0.4316 -0.2312  0.5537
  706SOL    HW1 2117   2.800   0.102   0.361 -0.7590  1.0355 -0.9057
  706SOL    HW2 2118   2.875   0.001   0.475  0.5686  0.8266  0.3737
  707SOL     OW 2119   1.251   0.188   3.109 -0.1220  0.2105 -0.1405
  707SOL    HW1 2120   1.223   0.231   3.022 -2.9124  2.0203  1.0109
  707SOL    HW2 2121   1.170   0.175   0.042  1.9712  1.9266 -0.1741
  708SOL     OW 2122   0.219   2.154   1.664 -0.2249 -0.3338  0.0909
  708SOL    HW1 2123   0.177   2.148   1.756 -1.1315  1.7379 -0.3660
  708SOL    HW2 2124   0.278   2.071   1.643  0.1778  1.8216 -1.1881
  709SOL     OW 2125   1.419   2.985   1.951  0.0508 -0.0039  0.2460
  709SOL    HW1 2126   1.470   3.073   1.965  3.0891  0.3926 -1.5175
  709SOL    HW2 2127   1.395   2.946   2.041  2.6943  0.5058 -2.8989
  710SOL     OW 2128   1.644   2.618   2.838 -0.1763  0.0438  0.6836
  710SOL    HW1 2129   1.689   2.708   2.812  0.2022 -2.4814  1.2379
  710SOL    HW2 2130   1.554   2.634   2.883 -1.7679  1.6023 -0.7630
  711SOL     OW 2131   0.802   2.544   2.889 -0.0436 -0.2568 -0.3583
  711SOL    HW1 2132   0.863   2.613   2.934 -0.9722  0.6546 -1.5395
  711SOL    HW2 2133   0.858   2.468   2.849  0.3842  0.5193  1.8573
  712SOL     OW 2134   0.878   1.748   2.927  0.2027  0.3624 -0.6047
  712SOL    HW1 2135   0.958   1.810   2.922  1.1837 -0.9692 -1.3485
  712SOL    HW2 2136   0.898   1.666   2.987 -1.2647 -1.5278  0.3384
  713SOL     OW 2137   1.847   0.993   1.365 -0.3548 -0.0623  0.1982
  713SOL    HW1 2138   1.886   0.897   1.364  0.5279 -2.6107  0.4350
  713SOL    HW2 2139   1.923   1.052   1.327  3.4200  0.4535  0.4655
  714SOL     OW 2140   1.178   1.447   1.968  0.5142  0.2835  0.0853
  714SOL    HW1 2141   1.146   1.370   2.023  2.1290  2.9160 -1.4574
  714SOL    HW2 2142   1.277   1.438   1.946  0.0774  0.0532  1.7906
  715SOL     OW 2143   2.678   0.397   0.263 -0.2224  0.3355  0.5202
  715SOL    HW1 2144   2.769   0.379   0.304  1.3522  0.1998  1.4812
  715SOL    HW2 2145   2.659   0.345   0.177  2.3749  2.5033  0.9932
  716SOL     OW 2146   0.522   2.584   1.004 -0.3879  0.3005  0.0798
  716SOL    HW1 2147   0.622   2.592   1.017 -0.6551 -2.2058  1.4051
  716SOL    HW2 2148   0.477   2.668   0.966  0.8435  1.8736 -0.9773
  717SOL     OW 2149   2.770   0.649   0.471 -0.1751 -0.2173  0.4335
  717SOL    HW1 2150   2.774   0.548   0.465  1.0865  0.8670  0.3562
  717SOL    HW2 2151   2.680   0.688   0.435 -3.0951  2.8443  1.8927
  718SOL     OW 2152   1.833   1.356   1.414 -0.0974  0.5141 -0.0031
  718SOL    HW1 2153   1.779   1.419   1.474  0.2339 -1.1789  1.0288
  718SOL    HW2 2154   1.775   1.299   1.353 -1.4474 -0.6260 -1.2285
  719SOL     OW 2155   2.747   2.910   0.204  0.3622  0.0788 -0.1238
  719SOL    HW1 2156   2.715   2.840   0.137  0.9662  2.1603 -2.7528
  719SOL    HW2 2157   2.799   2.863   0.278  0.5709 -2.3829  0.3447
  720SOL     OW 2158   0.949   0.481   0.853  0.3957 -0.5110  0.1323
  720SOL    HW1 2159   0.945   0.580   0.876  1.0516 -0.5160  1.3225
  720SOL    HW2 2160   0.850   0.446   0.830 -4.3506 -2.5266  0.7003
  721SOL     OW 2161   1.883   0.119   0.946  0.2361  0.1560 -0.4825
  721SOL    HW1 2162   1.950   0.095   0.875 -1.5662 -3.8557  1.1129
  721SOL    HW2 2163   1.934   0.147   1.025 -0.8245 -1.1975 -1.0140
  722SOL     OW 2164   0.811   2.129   2.004  0.5618 -0.6390  0.0344
  722SOL    HW1 2165   0.750   2.099   2.082 -0.9326 -0.6424 -0.1206
  722SOL    HW2 2166   0.814   2.230   1.993  0.5330 -0.7405 -0.6290
  723SOL     OW 2167   1.128   0.009   1.321 -0.2250  0.5715  0.0626
  723SOL    HW1 2168   1.140   3.039   1.270 -0.2836 -1.9586  0.3325
  723SOL    HW2 2169   1.212   0.024   1.382  0.7176 -0.0098  2.3746
  724SOL     OW 2170   1.922   1.936   1.726  0.4033  0.0178  0.2210
  724SOL    HW1 2171   1.824   1.933   1.702 -2.1970  2.4518  1.1231
  724SOL    HW2 2172   1.965   1.847   1.733 -2.6273  1.0133  0.3379
  725SOL     OW 2173   1.502   2.785   1.515 -0.1877 -0.3442 -0.3055
  725SOL    HW1 2174   1.583   2.784   1.452 -0.1327  1.3104 -1.4904
  725SOL    HW2 2175   1.474   2.689   1.535  0.8033 -0.4320 -0.7211
  726SOL     OW 2176   1.999   0.236   2.981 -0.3283 -0.2638  0.1030
  726SOL    HW1 2177   1.947   0.151   2.970  0.0243 -2.2858 -0.4901
  726SOL    HW2 2178   2.055   0.235   3.068 -1.1599 -0.2432  1.6778
  727SOL     OW 2179   1.521   2.339   0.488 -0.0799 -0.6531 -0.5984
  727SOL    HW1 2180   1.487   2.419   0.438  2.0340 -0.3089  1.3109
  727SOL    HW2 2181   1.525   2.256   0.427  0.1141 -0.0081  2.1258
  728SOL     OW 2182   1.836   2.762   2.536  0.1038 -0.3028  0.0541
  728SOL    HW1 2183   1.887   2.852   2.526  2.2270  0.4676 -0.1872
  728SOL    HW2 2184   1.838   2.728   2.632 -0.0611 -1.0414 -2.0769
  729SOL     OW 2185   2.118   2.345   1.776  0.1186 -1.0786  0.4527
  729SOL    HW1 2186   2.184   2.407   1.727  2.0834 -0.3440  1.3295
  729SOL    HW2 2187   2.137   2.347   1.876 -2.7496  0.1163  2.4850
  730SOL     OW 2188   1.678   0.533   2.449  0.3879 -0.0074 -0.0418
  730SOL    HW1 2189   1.639   0.463   2.511  1.7963  0.6945 -0.9096
  730SOL    HW2 2190   1.646   0.519   2.356 -2.0989  0.8061 -1.0087
  731SOL     OW 2191   0.368   3.094   1.195 -0.6985  0.1365 -0.9950
  731SOL    HW1 2192   0.408   0.036   1.265  0.5851 -1.0323 -2.3268
  731SOL    HW2 2193   0.357   2.999   1.232 -0.4593 -0.4445  2.0097
  732SOL     OW 2194   1.841   2.879   1.057 -0.0655 -0.1521 -0.0337
  732SOL    HW1 2195   1.824   2.805   1.125 -1.5205 -1.5399  0.0927
  732SOL    HW2 2196   1.781   2.958   1.080  0.0811 -0.8580 -1.2533
  733SOL     OW 2197   1.475   0.760   1.470 -0.4345 -0.0073  0.3130
  733SOL    HW1 2198   1.444   0.831   1.405  2.5398 -1.0016 -1.3167
  733SOL    HW2 2199   1.544   0.804   1.533  0.2110 -0.8855 -0.0961
  734SOL     OW 2200   2.505   2.159   0.315  0.0878  0.5490  0.0656
  734SOL    HW1 2201   2.552   2.086   0.257  0.3456  0.3182  1.4262
  734SOL    HW2 2202   2.561   2.170   0.401  0.3246 -2.2060  0.2170
  735SOL     OW 2203   0.393   0.500   0.435  0.0625 -0.7794  0.8508
  735SOL    HW1 2204   0.346   0.490   0.345  1.3634  1.2178 -0.7539
  735SOL    HW2 2205   0.491   0.466   0.435 -0.0792  1.5798  1.5006
  736SOL     OW 2206   1.991   2.227   2.740 -0.6830  0.3680  0.0658
  736SOL    HW1 2207   1.937   2.139   2.749 -2.3577 -0.9131  0.5991
  736SOL    HW2 2208   1.987   2.264   2.648  0.1506 -0.7359  4.5581
  737SOL     OW 2209   1.187   2.488   1.137  0.8780  0.3453  0.3166
  737SOL    HW1 2210   1.237   2.563   1.083  2.7342  1.1237  0.0471
  737SOL    HW2 2211   1.099   2.458   1.088 -2.2649 -0.8116 -2.9077
  738SOL     OW 2212   1.511   2.858   2.181  0.4653  0.3729 -0.1402
  738SOL    HW1 2213   1.448   2.918   2.237 -1.3130  0.9468 -0.5045
  738SOL    HW2 2214   1.557   2.788   2.241  3.0358  1.7821  3.5116
  739SOL     OW 2215   0.794   2.406   1.899 -0.0034  0.4297 -0.5438
  739SOL    HW1 2216   0.894   2.409   1.869  3.4210 -0.6872 -1.0923
  739SOL    HW2 2217   0.759   2.501   1.894  1.5947 -0.5234  1.0279
  740SOL     OW 2218   1.618   2.395   1.571  0.2082 -0.1417 -0.5684
  740SOL    HW1 2219   1.637   2.304   1.525 -0.1813  0.0173  0.7152
  740SOL    HW2 2220   1.709   2.442   1.576 -1.4103 -0.4891  2.5733
  741SOL     OW 2221   2.113   1.842   3.013 -0.2344 -0.5536  0.2052
  741SOL    HW1 2222   2.068   1.842   3.108 -0.4538  0.5150 -1.1941
  741SOL    HW2 2223   2.043   1.850   2.942 -0.7326 -0.1725 -1.6387
  742SOL     OW 2224   0.827   1.300   2.450  0.2321  0.6017 -0.1679
  742SOL    HW1 2225   0.731   1.259   2.455 -0.6274  0.2481 -1.1494
  742SOL    HW2 2226   0.894   1.227   2.480  0.4071 -1.0244 -1.8905
  743SOL     OW 2227   2.869   1.177   2.340 -0.0990  0.2141 -0.8443
  743SOL    HW1 2228   2.933   1.111   2.387  2.3121 -0.8016  1.0301
  743SOL    HW2 2229   2.863   1.162   2.239 -0.0158 -0.5856 -2.3816
  744SOL     OW 2230   2.158   2.379   2.049 -0.0628  0.1095 -0.0203
  744SOL    HW1 2231   2.116   2.354   2.138 -2.6482 -0.2305 -1.1434
  744SOL    HW2 2232   2.236   2.444   2.062  0.5132  0.7144  1.1102
  745SOL     OW 2233   2.404   1.714   1.555  0.5585 -0.9931 -0.2482
  745SOL    HW1 2234   2.341   1.774   1.608  2.5849 -0.4093  0.3074
  745SOL    HW2 2235   2.421   1.624   1.598 -1.6501  0.7390 -0.9498
  746SOL     OW 2236   2.733   1.351   0.941 -0.0843  0.0320 -0.6830
  746SOL    HW1 2237   2.708   1.315   0.848 -2.3545  1.1670  2.0368
  746SOL    HW2 2238   2.724   1.286   1.019 -0.4149  1.0939 -1.3106
  747SOL     OW 2239   1.897   2.349   0.317  0.2445  0.6785  0.3546
  747SOL    HW1 2240   1.956   2.294   0.380  0.5028 -0.6812 -0.0281
  747SOL    HW2 2241   1.840   2.411   0.370  3.7273  0.6013 -3.1649
  748SOL     OW 2242   0.999   2.454   0.269  0.3029  0.0016 -0.7316
  748SOL    HW1 2243   1.006   2.557   0.250 -3.2516  0.2513  1.8658
  748SOL    HW2 2244   1.063   2.400   0.211  0.0563  0.3415 -0.9334
  749SOL     OW 2245   2.868   0.416   2.304 -0.2485  0.6356  0.0400
  749SOL    HW1 2246   2.883   0.514   2.274 -0.5019  0.7394 -1.3895
  749SOL    HW2 2247   2.764   0.397   2.294 -0.4519  0.8347 -1.0559
  750SOL     OW 2248   1.613   0.167   1.387  0.2004  0.5306  0.0396
  750SOL    HW1 2249   1.676   0.247   1.387  2.5062 -0.4925  0.5669
  750SOL    HW2 2250   1.672   0.083   1.395  0.2579 -0.2037 -0.9954
  751SOL     OW 2251   1.941   2.392   2.517 -0.5776  0.4128  0.1195
  751SOL    HW1 2252   1.849   2.418   2.547  3.0465 -0.6472 -1.4913
  751SOL    HW2 2253   2.016   2.445   2.564  2.0811 -0.0187 -1.7040
  752SOL     OW 2254   1.646   1.925   0.562 -0.2677 -0.3183  0.6375
  752SOL    HW1 2255   1.601   2.004   0.609 -0.5271  1.6480  1.2327
  752SOL    HW2 2256   1.628   1.838   0.610  0.0479  0.6055  3.8035
  753SOL     OW 2257   1.529   0.754   2.209 -0.5386 -0.7206 -0.2016
  753SOL    HW1 2258   1.577   0.720   2.288 -1.1583  1.4617 -2.9292
  753SOL    HW2 2259   1.519   0.857   2.208  0.0603  0.9348  0.1109
  754SOL     OW 2260   0.148   2.867   0.629 -0.5662  0.6776  0.4399
  754SOL    HW1 2261   0.160   2.883   0.728 -1.5673 -1.8778 -2.7948
  754SOL    HW2 2262   0.100   2.776   0.620  1.3394 -0.0714  0.6242
  755SOL     OW 2263   2.094   3.088   1.699  0.3472 -0.4102  0.3587
  755SOL    HW1 2264   2.082   3.076   1.600 -1.1072  1.7283  2.7262
  755SOL    HW2 2265   2.005   3.098   1.743 -0.7154 -0.4496  0.8078
  756SOL     OW 2266   1.470   1.011   2.584  0.6445  0.2532  0.0400
  756SOL    HW1 2267   1.512   0.920   2.565  2.2332  0.9727  4.2224
  756SOL    HW2 2268   1.461   1.023   2.682  1.9467 -1.5650 -3.1876
  757SOL     OW 2269   2.760   2.800   1.530 -0.2937  0.1185 -0.3963
  757SOL    HW1 2270   2.800   2.860   1.598  0.3357 -2.0012 -2.2006
  757SOL    HW2 2271   2.662   2.827   1.520 -0.7408  1.0396  2.1156
  758SOL     OW 2272   0.418   0.131   1.413 -0.1692  0.9440 -0.5147
  758SOL    HW1 2273   0.348   0.080   1.471 -1.1820 -2.3760  0.6956
  758SOL    HW2 2274   0.459   0.207   1.469 -2.4999 -1.6351 -1.8033
  759SOL     OW 2275   2.366   1.247   0.800  0.4059 -0.1815 -0.2120
  759SOL    HW1 2276   2.414   1.312   0.742 -1.1206 -0.0846  2.6872
  759SOL    HW2 2277   2.411   1.155   0.825 -1.4227 -0.1004  1.7259
  760SOL     OW 2278   1.989   0.296   1.542 -0.0094 -0.1154 -0.2220
  760SOL    HW1 2279   1.927   0.290   1.624  1.3799 -1.9015 -0.3265
  760SOL    HW2 2280   2.081   0.306   1.580  1.5287 -0.4984 -2.4774
  761SOL     OW 2281   2.016   0.290   0.456  0.0290 -0.2311 -0.5948
  761SOL    HW1 2282   2.096   0.300   0.396  0.9346 -2.4668  0.9480
  761SOL    HW2 2283   1.930   0.333   0.416 -1.3760  0.2515  2.5179
  762SOL     OW 2284   2.406   2.585   0.201 -0.9258 -0.4476 -0.1138
  762SOL    HW1 2285   2.467   2.529   0.143  0.3725 -0.8869  0.2249
  762SOL    HW2 2286   2.308   2.573   0.193  1.1126  0.3993 -0.0573
  763SOL     OW 2287   0.946   0.950   1.160  0.2601  0.3437 -0.2364
  763SOL    HW1 2288   0.950   1.054   1.151 -1.7936 -0.1278 -0.7371
  763SOL    HW2 2289   0.913   0.929   1.253  0.4189  0.4501 -1.1260
  764SOL     OW 2290   2.392   2.448   2.909  0.2408 -0.1055 -0.2932
  764SOL    HW1 2291   2.329   2.508   2.859 -1.1982 -2.1537  0.7707
  764SOL    HW2 2292   2.452   2.394   2.849  0.4872  3.2551 -1.4711
  765SOL     OW 2293   0.448   0.887   2.091 -0.0202 -0.0990  0.5461
  765SOL    HW1 2294   0.460   0.868   2.190  0.9965  2.4659 -0.0773
  765SOL    HW2 2295   0.447   0.798   2.038  1.3948 -0.8861 -0.5207
  766SOL     OW 2296   2.876   1.552   2.677 -0.2033  0.2570  0.3457
  766SOL    HW1 2297   2.836   1.535   2.767  1.6039  1.3411 -0.9166
  766SOL    HW2 2298   2.838   1.483   2.613  1.5438  1.0375  0.8985
  767SOL     OW 2299   0.130   1.798   2.084 -0.0953 -0.3752  0.6287
  767SOL    HW1 2300   0.199   1.722   2.101  1.9790 -0.7342  1.3816
  767SOL    HW2 2301   0.037   1.759   2.090  0.4563  1.2681  1.4306
  768SOL     OW 2302   1.112   1.062   3.107 -0.8986 -0.1854  0.1307
  768SOL    HW1 2303   1.119   0.962   3.084  0.5171 -1.8312  0.2899
  768SOL    HW2 2304   1.123   1.110   3.017  0.6207 -2.5458  0.1821
  769SOL     OW 2305   1.795   2.843   2.820 -0.0109 -0.1281 -0.7061
  769SOL    HW1 2306   1.887   2.874   2.783  1.8597  0.3424 -1.4562
  769SOL    HW2 2307   1.751   2.919   2.871  0.9795 -0.5131  0.0678
  770SOL     OW 2308   0.341   0.203   2.388  0.0693 -0.3705 -0.0563
  770SOL    HW1 2309   0.267   0.188   2.453  2.2278 -2.2999 -0.5598
  770SOL    HW2 2310   0.330   0.149   2.303  0.1823 -0.0004 -1.3863
  771SOL     OW 2311   0.786   2.311   1.214  0.3757 -0.7358  0.4494
  771SOL    HW1 2312   0.839   2.396   1.228 -1.3779 -0.1643 -0.0975
  771SOL    HW2 2313   0.721   2.343   1.143  0.3083  2.8165 -1.9464
  772SOL     OW 2314   0.444   0.665   0.008  0.4024 -0.2224 -0.5039
  772SOL    HW1 2315   0.442   0.640   3.030 -0.3749 -2.7458  1.6976
  772SOL    HW2 2316   0.453   0.764   0.032  1.0737  0.8783 -2.7390
  773SOL     OW 2317   2.240   0.883   1.649 -0.1478 -0.2893  0.6217
  773SOL    HW1 2318   2.200   0.970   1.613 -1.6932  0.2545 -0.2976
  773SOL    HW2 2319   2.225   0.874   1.750  0.0501 -0.2669 -0.8967
  774SOL     OW 2320   1.283   1.092   0.604  0.8684 -0.3579 -0.1853
  774SOL    HW1 2321   1.344   1.072   0.677 -0.3220  3.5345 -0.9821
  774SOL    HW2 2322   1.311   1.044   0.516  2.6376 -1.2103 -1.4390
  775SOL     OW 2323   2.189   0.075   2.845  0.3379  0.3214  0.1532
  775SOL    HW1 2324   2.198   0.009   2.924  0.6733  1.1369 -1.1147
  775SOL    HW2 2325   2.125   0.151   2.868  0.7857  1.1205 -1.3515
  776SOL     OW 2326   2.473   0.068   2.550  0.0845  0.6712 -0.0041
  776SOL    HW1 2327   2.430   0.138   2.618 -0.9101  3.6922  0.5041
  776SOL    HW2 2328   2.412   3.107   2.535  1.2880  0.1514 -0.8119
  777SOL     OW 2329   0.882   1.521   0.001  0.2646  0.1174 -0.4896
  777SOL    HW1 2330   0.832   1.445   3.083 -2.4114  0.7280 -1.3447
  777SOL    HW2 2331   0.819   1.571   0.067 -1.5359  0.8731  0.1261
  778SOL     OW 2332   0.678   2.937   0.228  0.4543  0.2783 -0.6591
  778SOL    HW1 2333   0.609   2.989   0.277 -0.4972 -1.4569  1.6807
  778SOL    HW2 2334   0.718   2.858   0.281  1.9926  1.4561 -0.2025
  779SOL     OW 2335   3.102   1.021   2.915  0.0463  0.0908 -0.4626
  779SOL    HW1 2336   0.051   1.040   2.990  1.0260 -0.0021  2.2663
  779SOL    HW2 2337   3.105   0.925   2.889  1.4961  1.8320  0.9449
  780SOL     OW 2338   2.142   0.430   2.426 -0.0938  0.4220  0.2918
  780SOL    HW1 2339   2.061   0.464   2.478 -1.1625 -0.8582 -1.7032
  780SOL    HW2 2340   2.114   0.366   2.351  2.6632  1.7060  0.4877
  781SOL     OW 2341   2.255   0.802   1.925  0.3151  0.3781 -0.4076
  781SOL    HW1 2342   2.240   0.814   2.022  1.4241 -3.8782 -2.0780
  781SOL    HW2 2343   2.185   0.736   1.886  3.6487  0.1168  0.1872
  782SOL     OW 2344   1.648   1.742   2.205 -0.6880 -0.1682  0.5691
  782SOL    HW1 2345   1.567   1.775   2.154  1.0603  1.4985  1.2064
  782SOL    HW2 2346   1.726   1.717   2.148  0.8692  1.2767 -2.0549
  783SOL     OW 2347   1.152   2.896   1.169 -0.0484  0.4237 -0.5542
  783SOL    HW1 2348   1.161   2.821   1.238  0.1605 -0.9730 -0.5571
  783SOL    HW2 2349   1.078   2.872   1.104  1.3834 -1.6394 -1.6201
  784SOL     OW 2350   1.364   0.635   2.540  0.2434 -0.1722  0.5972
  784SOL    HW1 2351   1.457   0.681   2.538  1.3524  1.6726  1.9594
  784SOL    HW2 2352   1.337   0.618   2.636  1.0297  3.5595 -1.9644
  785SOL     OW 2353   1.929   0.498   2.574  0.2885 -0.0982 -0.6592
  785SOL    HW1 2354   1.843   0.523   2.523 -2.9164  2.4005 -1.8152
  785SOL    HW2 2355   1.906   0.428   2.642 -0.9092 -1.1392  1.2994
  786SOL     OW 2356   0.026   1.306   0.794 -0.2646 -0.2670 -0.0868
  786SOL    HW1 2357   3.091   1.251   0.728  2.3010 -0.8562  0.9500
  786SOL    HW2 2358   0.019   1.404   0.773  1.8344 -1.8077  1.4192
  787SOL     OW 2359   1.545   2.074   0.361 -0.1744 -0.2427  0.2118
  787SOL    HW1 2360   1.606   2.117   0.294  0.7780 -1.1983  2.1572
  787SOL    HW2 2361   1.598   2.019   0.429 -0.3429 -2.4718 -0.5343
  788SOL     OW 2362   1.914   1.731   1.458 -0.7361 -0.1303 -0.1348
  788SOL    HW1 2363   1.894   1.689   1.365  1.6200 -0.1862 -0.1328
  788SOL    HW2 2364   1.952   1.823   1.444 -1.2083 -3.1018  1.4599
  789SOL     OW 2365   0.068   1.206   2.347  0.0138 -0.3880 -0.2086
  789SOL    HW1 2366   0.012   1.115   2.343  0.2819 -2.2428 -4.1523
  789SOL    HW2 2367   0.044   1.269   2.270  0.1868  0.9148  0.0848
  790SOL     OW 2368   0.731   0.044   0.022 -0.2953  0.0058  0.4392
  790SOL    HW1 2369   0.704   3.113   0.105 -1.7699 -0.3420  1.4895
  790SOL    HW2 2370   0.661   0.043   3.069 -1.3940 -1.7615 -1.4267
  791SOL     OW 2371   0.728   3.043   2.261 -0.0823  0.2816  0.4596
  791SOL    HW1 2372   0.702   3.106   2.337 -1.6668  0.3071  0.5621
  791SOL    HW2 2373   0.833   3.051   2.244  1.6685  1.1138 -0.0502
  792SOL     OW 2374   1.968   0.611   2.173  0.5956 -0.0169 -0.3916
  792SOL    HW1 2375   1.900   0.663   2.225  1.2892  0.4933 -0.3406
  792SOL    HW2 2376   1.988   0.518   2.213 -0.0731  0.3944  1.8546
  793SOL     OW 2377   2.700   0.737   1.339 -0.4430 -0.0450  0.1684
  793SOL    HW1 2378   2.774   0.690   1.393 -1.0545  2.2824  0.9019
  793SOL    HW2 2379   2.647   0.799   1.400  0.8308  1.3894  0.1595
  794SOL     OW 2380   0.212   0.522   1.673 -0.5152 -0.2672  0.5550
  794SOL    HW1 2381   0.225   0.622   1.661 -0.5947 -0.5730  0.0850
  794SOL    HW2 2382   0.223   0.486   1.768 -0.2568  1.2184  1.6219
  795SOL     OW 2383   2.942   1.348   0.402  0.6195 -0.4285 -0.0063
  795SOL    HW1 2384   2.911   1.419   0.469  0.8444 -0.6259  0.0477
  795SOL    HW2 2385   3.026   1.375   0.355 -1.3192 -2.0076  2.5601
  796SOL     OW 2386   0.318   2.483   0.173  0.0642  0.5890 -0.0916
  796SOL    HW1 2387   0.352   2.578   0.175  0.4195  0.7109 -0.1613
  796SOL    HW2 2388   0.248   2.468   0.248  0.0098  0.4741  2.7154
  797SOL     OW 2389   2.165   2.674   3.113  0.0231  0.2204  0.0678
  797SOL    HW1 2390   2.229   2.733   0.042  0.6629  1.3394  0.7957
  797SOL    HW2 2391   2.075   2.669   0.038  0.0619 -0.3613 -0.4101
  798SOL     OW 2392   0.186   1.320   1.605 -0.4446  0.6005  0.2152
  798SOL    HW1 2393   0.235   1.242   1.560 -0.4615 -2.0879  0.8056
  798SOL    HW2 2394   0.185   1.404   1.547 -1.4523  0.2887  0.3436
  799SOL     OW 2395   3.042   0.763   2.814  0.1147  0.6106  0.1940
  799SOL    HW1 2396   3.107   0.786   2.742 -3.2351 -1.2714  3.2620
  799SOL    HW2 2397   3.071   0.674   2.857  1.5827 -0.1998  0.9779
  800SOL     OW 2398   2.964   2.155   0.563 -0.0727 -0.5763 -0.4184
  800SOL    HW1 2399   2.980   2.057   0.575 -0.7061 -1.6780 -0.7961
  800SOL    HW2 2400   2.974   2.211   0.645  2.6645 -1.3007 -3.0942
  801SOL     OW 2401   1.564   1.138   1.041  0.2867 -1.0320 -0.0530
  801SOL    HW1 2402   1.502   1.214   1.004 -1.2401  2.2137 -2.1202
  801SOL    HW2 2403   1.632   1.170   1.112 -0.1965 -0.7923  2.0882
  802SOL     OW 2404   1.027   2.142   1.586  0.0710 -0.0787 -0.4252
  802SOL    HW1 2405   1.069   2.142   1.494 -0.0334 -2.3775  1.3360
  802SOL    HW2 2406   0.973   2.229   1.599  0.5669 -0.3735 -1.6981
  803SOL     OW 2407   0.183   1.778   0.454  0.1630 -0.1459  0.1114
  803SOL    HW1 2408   0.271   1.814   0.496  2.9349  3.3199  1.8151
  803SOL    HW2 2409   0.149   1.830   0.369  0.0828  0.1917 -1.2719
  804SOL     OW 2410   0.955   2.689   1.590 -0.1187  0.3067  0.6795
  804SOL    HW1 2411   0.975   2.717   1.686  0.4986  1.1627  2.1440
  804SOL    HW2 2412   0.871   2.732   1.558 -0.3453  0.2945  3.0933
  805SOL     OW 2413   1.681   1.193   0.215 -0.2797  0.1530  0.2403
  805SOL    HW1 2414   1.614   1.111   0.227 -1.7017 -0.9856  0.2950
  805SOL    HW2 2415   1.708   1.202   0.117  0.2324 -2.8480  0.6304
  806SOL     OW 2416   1.357   3.047   1.080  0.4643 -0.3892  0.8166
  806SOL    HW1 2417   1.371   3.009   0.986  1.7399  1.2329 -0.6967
  806SOL    HW2 2418   1.278   3.001   1.130  0.4028 -0.8596  0.1564
  807SOL     OW 2419   2.532   2.994   3.042 -0.4660 -0.0433 -0.0237
  807SOL    HW1 2420   2.614   3.046   3.014 -0.2599  0.0273  1.5360
  807SOL    HW2 2421   2.554   2.901   3.077 -0.8050  0.6125  1.6495
  808SOL     OW 2422   0.125   1.066   0.010 -0.6539 -0.6293  0.5831
  808SOL    HW1 2423   0.171   0.990   0.064  2.0396 -3.7810  0.8773
  808SOL    HW2 2424   0.166   1.159   0.037  1.4495 -0.2124 -0.7080
  809SOL     OW 2425   2.837   0.860   2.416 -0.0796  0.2823  0.1744
  809SOL    HW1 2426   2.827   0.772   2.468 -0.8527  0.8406 -1.8051
  809SOL    HW2 2427   2.777   0.859   2.334  0.4637 -0.0214  0.5867
  810SOL     OW 2428   2.229   3.051   2.070  0.4983  0.0213 -0.2779
  810SOL    HW1 2429   2.314   3.001   2.032  1.5066  1.7334 -1.3739
  810SOL    HW2 2430   2.166   2.984   2.108 -1.0659  2.9607  1.2406
  811SOL     OW 2431   2.512   2.594   1.846 -0.5840  0.4760 -0.5063
  811SOL    HW1 2432   2.565   2.656   1.911  3.2765  0.3748  1.0953
  811SOL    HW2 2433   2.565   2.575   1.763 -2.0967  1.8776 -0.5443
  812SOL     OW 2434   1.844   0.284   2.730  0.7275  0.1775 -0.8347
  812SOL    HW1 2435   1.896   0.305   2.812 -0.3999 -0.0425 -1.0698
  812SOL    HW2 2436   1.753   0.260   2.763  0.1898  0.3076  0.3381
  813SOL     OW 2437   1.988   0.080   2.037  0.1050  0.1958 -0.2714
  813SOL    HW1 2438   2.082   0.039   2.039 -1.5585 -0.0195 -2.0113
  813SOL    HW2 2439   1.960   0.065   1.945  1.9942 -0.7486  2.8280
  814SOL     OW 2440   1.930   1.140   1.781  0.8002  0.1660  0.3039
  814SOL    HW1 2441   1.901   1.127   1.876 -0.4592 -1.7806 -1.6008
  814SOL    HW2 2442   1.847   1.158   1.723 -1.4581 -2.0867  1.0593
  815SOL     OW 2443   0.665   0.936   0.455 -0.3828 -0.2442  0.0056
  815SOL    HW1 2444   0.587   0.987   0.491  1.1318 -1.7321  1.6289
  815SOL    HW2 2445   0.746   0.981   0.495 -2.5335  1.3547 -0.2126
  816SOL     OW 2446   2.050   1.575   2.706  0.1607 -0.6012  0.0814
  816SOL    HW1 2447   2.024   1.569   2.607  1.7749  1.8622 -0.5317
  816SOL    HW2 2448   1.965   1.595   2.762 -1.3169  1.8410  1.1036
  817SOL     OW 2449   3.097   3.084   0.598 -0.0728 -0.2030 -0.3338
  817SOL    HW1 2450   0.058   3.026   0.602 -0.8271 -0.8460  0.1684
  817SOL    HW2 2451   3.019   3.022   0.578 -0.3576  0.8670  1.4222
  818SOL     OW 2452   2.167   0.092   2.433 -0.0191 -0.2516 -0.6468
  818SOL    HW1 2453   2.226   0.162   2.392 -1.1431  0.6797  0.0697
  818SOL    HW2 2454   2.089   0.129   2.487  0.4362  0.3380 -2.5356
  819SOL     OW 2455   1.299   0.908   0.402  0.3493 -0.2502  0.5779
  819SOL    HW1 2456   1.368   0.858   0.455  0.6548 -0.6231 -1.5162
  819SOL    HW2 2457   1.215   0.850   0.384 -2.7635 -2.5765  0.1219
  820SOL     OW 2458   2.085   0.922   0.811 -0.3877 -0.0527 -0.4711
  820SOL    HW1 2459   2.166   0.907   0.879  3.9372 -0.1512  2.5262
  820SOL    HW2 2460   2.077   1.022   0.796  0.4880  0.0289 -0.4017
  821SOL     OW 2461   2.279   3.046   0.590  0.5246  0.6844  0.1315
  821SOL    HW1 2462   2.342   3.064   0.512 -0.4887  2.7571 -0.3002
  821SOL    HW2 2463   2.180   3.077   0.574 -1.1163  0.0630  2.3921
  822SOL     OW 2464   0.403   2.981   2.624  0.0673  0.4119 -0.4893
  822SOL    HW1 2465   0.335   3.061   2.630 -0.7167  1.2763 -0.5824
  822SOL    HW2 2466   0.360   2.902   2.579  3.3996  1.9569 -0.1735
  823SOL     OW 2467   3.025   2.104   1.718  0.5011 -0.0529  0.1322
  823SOL    HW1 2468   2.926   2.109   1.746 -1.9533 -0.4129 -0.7515
  823SOL    HW2 2469   3.046   2.194   1.671 -0.0507 -1.4568 -1.9632
  824SOL     OW 2470   0.667   2.922   2.024  0.1369 -0.2300 -0.1253
  824SOL    HW1 2471   0.674   2.952   2.123 -1.6542 -0.5029  0.1807
  824SOL    HW2 2472   0.717   2.983   1.958  0.9792 -0.3771 -0.7222
  825SOL     OW 2473   1.301   1.710   0.251  0.4797 -0.2347 -0.0627
  825SOL    HW1 2474   1.306   1.625   0.196 -1.9631 -0.3511 -1.4277
  825SOL    HW2 2475   1.369   1.778   0.218 -1.9689 -2.8302 -0.8015
  826SOL     OW 2476   1.541   0.376   3.091 -0.0296  0.2093 -0.1503
  826SOL    HW1 2477   1.622   0.363   3.026  2.3387 -2.5392 -2.9690
  826SOL    HW2 2478   1.548   0.302   0.041 -2.2383  1.3145 -0.1213
  827SOL     OW 2479   0.187   1.550   1.441  0.1193  1.0693 -0.0171
  827SOL    HW1 2480   0.206   1.644   1.479  1.1061 -0.0309  2.1289
  827SOL    HW2 2481   0.149   1.555   1.344  0.4525  1.7322 -1.8442
  828SOL     OW 2482   2.130   1.096   1.576 -0.0913 -0.0902 -0.2345
  828SOL    HW1 2483   2.085   1.113   1.484  0.6235 -0.2215  1.3159
  828SOL    HW2 2484   2.066   1.095   1.653  2.4901 -0.3470 -1.7037
  829SOL     OW 2485   0.059   2.057   0.307 -0.3171  0.0678  0.1193
  829SOL    HW1 2486   3.093   2.019   0.325  0.0893  1.6133 -1.5385
  829SOL    HW2 2487   0.062   2.099   0.214  1.3238  1.1219  0.0502
  830SOL     OW 2488   0.963   0.747   0.933 -0.5059 -0.0168 -0.7867
  830SOL    HW1 2489   1.059   0.769   0.897  1.1299 -1.1852 -1.9892
  830SOL    HW2 2490   0.943   0.793   1.017  1.9146  0.8813  0.2898
  831SOL     OW 2491   2.876   1.874   2.926  0.0685  0.0853 -0.2386
  831SOL    HW1 2492   2.965   1.821   2.906 -0.5434  0.6736  0.1173
  831SOL    HW2 2493   2.855   1.942   2.858  0.0394 -0.2851 -0.7890
  832SOL     OW 2494   1.289   2.814   0.199  0.2287 -0.0174 -0.0663
  832SOL    HW1 2495   1.204   2.861   0.226 -0.0407 -1.7221  2.1916
  832SOL    HW2 2496   1.364   2.887   0.194  0.6275 -0.1495 -0.8669
  833SOL     OW 2497   0.902   0.464   2.001 -0.8932  0.8305  0.2359
  833SOL    HW1 2498   0.930   0.380   2.057  0.8566 -2.1145  1.4862
  833SOL    HW2 2499   0.985   0.507   1.956  0.8384 -0.3488 -2.8539
  834SOL     OW 2500   0.089   0.928   1.013 -0.7364  0.3436  0.2943
  834SOL    HW1 2501   3.112   0.922   0.987  0.2850 -0.4400 -0.8179
  834SOL    HW2 2502   0.116   0.854   1.077 -2.6145  2.2612 -0.9451
  835SOL     OW 2503   2.481   0.241   1.947  0.0402 -0.3656  0.2873
  835SOL    HW1 2504   2.476   0.335   1.908  1.6466  3.9762  1.0622
  835SOL    HW2 2505   2.429   0.232   2.036 -1.0955 -0.4980  1.8364
  836SOL     OW 2506   0.428   2.092   0.684  0.5799  0.0385 -0.5030
  836SOL    HW1 2507   0.503   2.160   0.696  0.9367  1.6537  1.4650
  836SOL    HW2 2508   0.401   2.053   0.777 -2.4964  1.1796  3.5885
  837SOL     OW 2509   2.216   1.645   2.210 -0.0931  0.1682 -0.0082
  837SOL    HW1 2510   2.208   1.557   2.260 -1.7289 -0.4180 -1.0767
  837SOL    HW2 2511   2.301   1.696   2.244  2.8954  3.2859 -2.2731
  838SOL     OW 2512   0.365   1.135   1.484  0.0801 -0.3256  0.1182
  838SOL    HW1 2513   0.359   1.054   1.425 -1.9761 -1.3713  3.5518
  838SOL    HW2 2514   0.399   1.106   1.574 -2.0142 -1.1628 -4.1731
  839SOL     OW 2515   0.238   0.316   0.946 -0.0950  0.1767 -0.5786
  839SOL    HW1 2516   0.323   0.309   0.886  2.5193 -0.8828 -1.3283
  839SOL    HW2 2517   0.269   0.328   1.042  0.5695 -1.9517  0.6548
  840SOL     OW 2518   0.244   0.290   2.723  0.3483  0.0655  0.5180
  840SOL    HW1 2519   0.197   0.268   2.634  0.3948 -1.8313  0.6194
  840SOL    HW2 2520   0.217   0.386   2.749 -0.1280 -2.9647 -0.0669
  841SOL     OW 2521   0.160   2.536   3.066 -0.4190 -0.4152  0.6622
  841SOL    HW1 2522   0.189   2.614   3.010 -0.1833  3.0277  1.1020
  841SOL    HW2 2523   0.233   2.527   0.017  0.0036 -0.1995 -0.4863
  842SOL     OW 2524   0.545   3.001   0.856  0.4265  0.0402 -0.1840
  842SOL    HW1 2525   0.507   3.026   0.760 -0.8641  2.3476  0.2412
  842SOL    HW2 2526   0.537   3.080   0.918  2.5175 -2.8845 -1.2546
  843SOL     OW 2527   3.099   1.432   2.755  0.5833  0.4712 -0.0477
  843SOL    HW1 2528   3.047   1.395   2.834  0.0839 -0.7693 -2.1096
  843SOL    HW2 2529   3.031   1.486   2.703  1.1833  0.6382 -1.0317
  844SOL     OW 2530   0.825   2.380   2.197  0.5518 -0.0121  0.3093
  844SOL    HW1 2531   0.926   2.355   2.190  1.9540  1.8784  1.4533
  844SOL    HW2 2532   0.790   2.345   2.285  2.4698 -1.1268  0.8219
  845SOL     OW 2533   2.184   2.515   2.621  0.5766 -0.0539 -0.0691
  845SOL    HW1 2534   2.165   2.580   2.546 -0.3067  1.5056 -1.1152
  845SOL    HW2 2535   2.189   2.562   2.714 -0.8052 -0.2140  0.1495
  846SOL     OW 2536   1.749   1.369   2.564 -0.1512  0.5449  0.3777
  846SOL    HW1 2537   1.730   1.377   2.663  0.0682 -1.7026 -1.4145
  846SOL    HW2 2538   1.746   1.277   2.527  2.1121 -0.2624 -0.5128
  847SOL     OW 2539   2.878   0.227   3.020 -0.1626 -0.3022 -0.7009
  847SOL    HW1 2540   2.862   0.295   2.948  1.1177 -0.0708  2.6600
  847SOL    HW2 2541   2.952   0.254   3.085  0.1651 -1.0575 -0.0397
  848SOL     OW 2542   0.239   0.905   0.228 -0.4037 -0.0155 -0.1751
  848SOL    HW1 2543   0.206   0.809   0.244  0.7821  1.0029  0.6776
  848SOL    HW2 2544   0.267   0.956   0.312 -0.6924  2.0730 -3.6263
  849SOL     OW 2545   1.354   0.143   2.228 -0.2291 -0.5129 -0.7072
  849SOL    HW1 2546   1.285   0.108   2.294 -1.3984  2.5378  0.4570
  849SOL    HW2 2547   1.316   0.205   2.156  1.5998  0.5883  0.1938
  850SOL     OW 2548   0.448   1.070   0.517  1.1564 -0.0402  0.1807
  850SOL    HW1 2549   0.434   1.128   0.432  1.8934  1.0388  0.2402
  850SOL    HW2 2550   0.393   1.109   0.593  0.7155  1.3769 -2.3170
  851SOL     OW 2551   0.466   1.226   0.290 -0.2407 -0.0970  0.0815
  851SOL    HW1 2552   0.493   1.317   0.330  0.0521 -1.0234 -0.0620
  851SOL    HW2 2553   0.542   1.193   0.222  2.8880 -1.1727  2.6631
  852SOL     OW 2554   1.381   1.283   1.698  0.6811 -0.4383  0.6649
  852SOL    HW1 2555   1.409   1.332   1.785 -1.3994 -0.4177 -0.2384
  852SOL    HW2 2556   1.378   1.349   1.619 -1.7942  0.1430 -0.0414
  853SOL     OW 2557   2.699   1.325   0.674 -0.2731 -0.0885  0.3025
  853SOL    HW1 2558   2.612   1.351   0.622  0.3337  2.1600 -1.5141
  853SOL    HW2 2559   2.767   1.403   0.658  2.7695  1.8740 -0.9551
  854SOL     OW 2560   1.388   1.199   2.394  0.1846  0.2037  0.4199
  854SOL    HW1 2561   1.412   1.120   2.454 -1.2560  0.4193  0.4258
  854SOL    HW2 2562   1.333   1.260   2.455 -0.7180  1.7050  0.4676
  855SOL     OW 2563   0.210   2.597   2.709 -0.5128  0.1342  0.1741
  855SOL    HW1 2564   0.285   2.537   2.669 -0.7172 -0.8626  1.5373
  855SOL    HW2 2565   0.258   2.649   2.783  0.1069 -1.8354 -2.1121
  856SOL     OW 2566   1.123   1.058   2.058  0.0249  0.1657  0.1604
  856SOL    HW1 2567   1.144   1.047   1.954 -0.2422 -0.4725 -4.3842
  856SOL    HW2 2568   1.066   1.141   2.076 -2.5720 -1.0236  0.7482
  857SOL     OW 2569   1.064   0.783   2.215  0.2615  0.0360  0.1578
  857SOL    HW1 2570   1.133   0.815   2.149 -2.2105 -2.3569  1.9480
  857SOL    HW2 2571   0.965   0.782   2.179 -0.0925 -1.0731  2.0002
  858SOL     OW 2572   0.011   1.120   1.651  0.1218  0.0380 -0.1365
  858SOL    HW1 2573   3.094   1.125   1.744  0.9453  0.7846 -2.6804
  858SOL    HW2 2574   0.071   1.203   1.637  0.3576 -0.2555 -0.0616
  859SOL     OW 2575   2.654   2.870   0.871  0.1165  0.2588 -0.0656
  859SOL    HW1 2576   2.731   2.858   0.936 -1.3627  0.4556  0.6674
  859SOL    HW2 2577   2.669   2.835   0.776  3.7013 -2.4738 -1.5094
  860SOL     OW 2578   1.606   0.237   0.891 -0.3786 -0.5377  0.8300
  860SOL    HW1 2579   1.592   0.177   0.808  0.0565 -2.8575 -1.7639
  860SOL    HW2 2580   1.693   0.211   0.941  0.8838 -0.4384 -0.4036
  861SOL     OW 2581   1.521   0.642   1.103 -0.7447 -0.1353  0.3682
  861SOL    HW1 2582   1.426   0.662   1.122  2.5948 -1.2021 -0.5641
  861SOL    HW2 2583   1.535   0.611   1.004 -0.0174  0.4556 -1.3989
  862SOL     OW 2584   1.518   0.002   2.585 -0.2328 -0.2347  0.0652
  862SOL    HW1 2585   1.562   3.035   2.598 -1.1744  2.3129 -3.0878
  862SOL    HW2 2586   1.529   0.033   2.486 -0.5541 -1.9318 -2.2319
  863SOL     OW 2587   2.969   2.850   0.938  0.0634 -0.2696  0.3585
  863SOL    HW1 2588   2.989   2.949   0.928 -1.5538 -1.4958 -0.6993
  863SOL    HW2 2589   2.977   2.806   0.849 -0.3924  1.1995 -0.6624
  864SOL     OW 2590   2.540   0.119   2.284 -0.1412 -0.4681 -0.1558
  864SOL    HW1 2591   2.529   0.095   2.381 -1.8008  0.0518 -0.0055
  864SOL    HW2 2592   2.449   0.125   2.237  0.5332 -0.1180 -1.8709
  865SOL     OW 2593   1.078   1.554   2.349 -0.5701  0.1306  0.5132
  865SOL    HW1 2594   1.025   1.492   2.287 -1.5175 -0.3896  0.3288
  865SOL    HW2 2595   1.016   1.619   2.399 -0.3628 -1.6497  0.7003
  866SOL     OW 2596   2.094   2.837   1.122 -0.1695 -0.4831  0.0078
  866SOL    HW1 2597   1.992   2.843   1.100 -0.7268 -0.1502 -1.5014
  866SOL    HW2 2598   2.134   2.751   1.093 -0.6032 -0.2989 -1.8924
  867SOL     OW 2599   2.421   2.861   0.998  0.2959  0.0298  0.1575
  867SOL    HW1 2600   2.513   2.867   0.945 -0.7173 -1.2112 -1.6151
  867SOL    HW2 2601   2.370   2.778   0.967  0.0202 -1.6319 -1.3392
  868SOL     OW 2602   3.115   1.955   1.506  0.5221  0.5807  0.0876
  868SOL    HW1 2603   3.062   1.870   1.485 -1.0013 -2.0357 -2.0092
  868SOL    HW2 2604   3.075   1.997   1.595 -1.7996 -0.0736  1.4250
  869SOL     OW 2605   1.840   2.150   2.161 -0.4919  0.3521  0.0531
  869SOL    HW1 2606   1.795   2.101   2.241 -1.4146 -0.6183  0.0455
  869SOL    HW2 2607   1.872   2.086   2.085  1.0450  1.0409 -1.3074
  870SOL     OW 2608   1.183   1.212   0.853  0.4368  0.5763 -0.0515
  870SOL    HW1 2609   1.215   1.147   0.780  0.6793 -0.6529 -1.6829
  870SOL    HW2 2610   1.261   1.267   0.887 -1.9481  0.5855  0.6176
  871SOL     OW 2611   2.976   1.743   2.115 -0.3085 -0.3025 -0.2002
  871SOL    HW1 2612   2.926   1.821   2.157 -1.7477  0.1854 -2.0084
  871SOL    HW2 2613   2.965   1.665   2.177 -1.5507  2.5432  0.8398
  872SOL     OW 2614   1.038   1.409   2.746 -0.1118 -0.2992 -0.0546
  872SOL    HW1 2615   1.060   1.443   2.838 -0.2632  2.7070  1.0572
  872SOL    HW2 2616   0.953   1.461   2.713  0.0859  0.0874 -1.5151
  873SOL     OW 2617   0.882   1.372   1.841  0.2359  0.3872 -0.0137
  873SOL    HW1 2618   0.804   1.314   1.809 -0.1413  2.8453 -1.1803
  873SOL    HW2 2619   0.947   1.403   1.766 -0.8701 -1.3146 -0.9696
  874SOL     OW 2620   1.651   0.963   1.550 -0.0583 -0.2745  0.0528
  874SOL    HW1 2621   1.735   0.957   1.484  1.0316  0.6407 -0.3789
  874SOL    HW2 2622   1.641   1.059   1.579  1.7382  0.9056 -1.2880
  875SOL     OW 2623   3.085   0.288   0.078  0.4044  0.3324  0.4843
  875SOL    HW1 2624   3.077   0.223   0.153 -1.0768  2.0889 -0.5816
  875SOL    HW2 2625   3.063   0.385   0.106  2.9454 -0.2431  2.0308
  876SOL     OW 2626   0.943   1.112   0.192 -0.2938 -0.3402 -0.0059
  876SOL    HW1 2627   0.976   1.192   0.244  0.4284  0.9373 -0.8618
  876SOL    HW2 2628   1.000   1.098   0.111  1.7189  0.6257  2.3867
  877SOL     OW 2629   2.338   2.765   0.589 -0.3562  0.2452  0.5176
  877SOL    HW1 2630   2.271   2.712   0.528  2.4100  0.5893 -0.7550
  877SOL    HW2 2631   2.312   2.864   0.603 -1.6847 -0.6114  0.1689
  878SOL     OW 2632   1.906   1.935   0.252 -0.2222 -0.4376  0.0404
  878SOL    HW1 2633   1.990   1.990   0.281  2.1769 -0.0924 -2.7674
  878SOL    HW2 2634   1.840   1.999   0.211  3.4141 -0.8971 -1.9300
  879SOL     OW 2635   0.061   1.675   1.759  0.2212  0.4951  0.2783
  879SOL    HW1 2636   0.080   1.762   1.712  1.2939  0.7836 -0.5469
  879SOL    HW2 2637   0.131   1.651   1.824 -2.5039  0.1150 -1.5704
  880SOL     OW 2638   0.357   1.971   0.935 -0.5231 -0.3804  0.4942
  880SOL    HW1 2639   0.391   2.054   0.982  0.4925 -0.2645 -0.7299
  880SOL    HW2 2640   0.270   1.945   0.976  0.2271  0.6656 -0.1004
  881SOL     OW 2641   1.194   0.303   2.057  0.0431  0.4180 -0.4117
  881SOL    HW1 2642   1.261   0.372   2.023 -1.9919  2.4317 -1.2143
  881SOL    HW2 2643   1.149   0.319   2.146  2.8865 -1.8207 -0.1569
  882SOL     OW 2644   2.277   0.905   1.008  0.2803 -0.7778  0.0315
  882SOL    HW1 2645   2.354   0.941   0.952  1.0893 -1.5146  0.2544
  882SOL    HW2 2646   2.308   0.885   1.101  1.0302  0.4547 -1.0342
  883SOL     OW 2647   1.595   0.199   1.835 -0.1491  0.2106 -0.5240
  883SOL    HW1 2648   1.507   0.233   1.795 -0.1155  0.2829 -0.6523
  883SOL    HW2 2649   1.572   0.158   1.927 -0.0920 -0.3029  0.8796
  884SOL     OW 2650   2.903   3.104   1.964 -0.0986 -0.1308 -0.1197
  884SOL    HW1 2651   2.827   0.043   1.996  0.1859 -0.1379  0.2193
  884SOL    HW2 2652   2.987   0.038   1.985 -0.1123 -1.3815  2.7937
  885SOL     OW 2653   1.336   1.363   2.852  0.2343 -0.0342  0.1195
  885SOL    HW1 2654   1.385   1.448   2.815  1.6267  2.8382 -1.4244
  885SOL    HW2 2655   1.254   1.394   2.904 -1.3908 -1.1890 -0.4001
  886SOL     OW 2656   2.098   0.641   2.730  0.0128 -0.2926  0.1408
  886SOL    HW1 2657   2.051   0.623   2.816 -0.1632  0.0973 -1.7193
  886SOL    HW2 2658   2.067   0.575   2.653  1.7900 -1.1570 -0.2790
  887SOL     OW 2659   1.090   2.998   1.763  0.6707 -0.1738  0.0337
  887SOL    HW1 2660   1.185   2.981   1.728  1.8350  0.9962 -1.5347
  887SOL    HW2 2661   1.066   2.915   1.814  1.7382 -1.2698  0.6175
  888SOL     OW 2662   1.992   1.770   2.120  0.0937  0.3283  0.5646
  888SOL    HW1 2663   1.946   1.714   2.049  2.1270  1.3741  1.4126
  888SOL    HW2 2664   2.076   1.723   2.145 -0.8323 -1.0219 -3.1670
  889SOL     OW 2665   1.965   2.464   1.327 -0.4411 -0.2624  0.3751
  889SOL    HW1 2666   1.923   2.473   1.421  0.4020 -0.7747 -2.1844
  889SOL    HW2 2667   2.067   2.467   1.339  0.2880  1.3562  0.7770
  890SOL     OW 2668   1.353   1.719   1.046 -0.0830 -0.2402 -0.6467
  890SOL    HW1 2669   1.294   1.788   1.096  0.2626  0.6434 -0.7202
  890SOL    HW2 2670   1.319   1.707   0.951  2.2355 -0.3302 -0.0639
  891SOL     OW 2671   2.674   1.325   0.298 -0.5319 -0.6236  0.2206
  891SOL    HW1 2672   2.775   1.335   0.325  0.3309 -1.6705  2.0229
  891SOL    HW2 2673   2.626   1.262   0.362  1.1784  2.0237 -1.3623
  892SOL     OW 2674   2.351   1.366   0.020  0.3644 -0.4109 -0.0681
  892SOL    HW1 2675   2.322   1.333   3.049  0.5468 -0.3407 -0.3546
  892SOL    HW2 2676   2.325   1.463   0.037 -1.8665 -0.3313  0.0155
  893SOL     OW 2677   1.883   2.493   1.577  0.2303 -0.4663  0.1011
  893SOL    HW1 2678   1.882   2.578   1.630  1.0913  0.7615  0.2934
  893SOL    HW2 2679   1.938   2.423   1.629 -0.3445  3.0969 -0.7854
  894SOL     OW 2680   2.642   2.780   0.596  0.1271  0.6604  0.8025
  894SOL    HW1 2681   2.681   2.710   0.534  0.5736 -0.9639 -2.5202
  894SOL    HW2 2682   2.536   2.792   0.576 -3.6808  3.0556  0.6455
  895SOL     OW 2683   2.878   2.483   2.773 -0.3209  0.1961 -0.2894
  895SOL    HW1 2684   2.876   2.585   2.776  0.4226 -1.0391 -2.5888
  895SOL    HW2 2685   2.816   2.455   2.700 -0.8200  0.5539  0.6353
  896SOL     OW 2686   2.367   0.245   2.727  0.2153 -0.3716 -0.5323
  896SOL    HW1 2687   2.409   0.280   2.811  0.6986  0.3946 -0.8719
  896SOL    HW2 2688   2.301   0.176   2.753  1.4767 -0.6280  0.7383
  897SOL     OW 2689   0.453   1.688   2.132 -0.0388  0.3514 -0.1966
  897SOL    HW1 2690   0.549   1.671   2.157  2.6089  0.2307 -0.2518
  897SOL    HW2 2691   0.394   1.606   2.140 -3.3546  0.1374 -0.4832
  898SOL     OW 2692   2.761   1.783   1.613 -0.0584 -0.2482  0.2496
  898SOL    HW1 2693   2.789   1.837   1.694 -1.3178 -3.7025 -2.3000
  898SOL    HW2 2694   2.681   1.820   1.566  1.4717  1.9537  2.3822
  899SOL     OW 2695   1.752   2.794   1.409  0.0045 -0.0021 -0.8270
  899SOL    HW1 2696   1.765   2.722   1.331  0.4368 -4.0946  0.8071
  899SOL    HW2 2697   1.829   2.807   1.465 -2.0432 -0.9769 -3.2821
  900SOL     OW 2698   1.383   1.132   0.053  0.1681 -0.4282 -0.1174
  900SOL    HW1 2699   1.282   1.125   0.043 -1.4279 -0.2200  1.0908
  900SOL    HW2 2700   1.416   1.103   0.144  1.1683 -0.6338 -1.2846
  901SOL     OW 2701   1.003   1.121   2.530 -0.5497  0.3804  0.2017
  901SOL    HW1 2702   1.063   1.200   2.512 -0.5500 -1.4180  0.9185
  901SOL    HW2 2703   1.066   1.043   2.530  1.2109  1.2454 -2.5483
  902SOL     OW 2704   2.674   2.107   0.515 -0.4877 -0.2638  0.1088
  902SOL    HW1 2705   2.625   2.118   0.605 -1.9482 -1.6102 -2.0833
  902SOL    HW2 2706   2.775   2.108   0.533 -0.5319 -1.2628 -0.6548
  903SOL     OW 2707   2.689   1.294   1.805 -0.0939  0.5781  0.3027
  903SOL    HW1 2708   2.717   1.376   1.746  1.5225 -0.3269  1.7983
  903SOL    HW2 2709   2.646   1.220   1.743  0.7812  0.5856 -0.2184
  904SOL     OW 2710   2.115   1.021   0.261  0.0705 -0.2821 -0.4049
  904SOL    HW1 2711   2.195   1.071   0.218  0.6844 -3.1409  1.2175
  904SOL    HW2 2712   2.043   1.086   0.301 -1.8574  0.2835  0.4221
  905SOL     OW 2713   2.245   2.508   1.286 -0.5237 -0.6002  0.0070
  905SOL    HW1 2714   2.270   2.568   1.366 -1.7946  0.0107  1.5922
  905SOL    HW2 2715   2.301   2.418   1.289  2.0498 -2.8554 -1.8235
  906SOL     OW 2716   1.393   2.069   2.874 -0.0386 -0.5042 -0.0799
  906SOL    HW1 2717   1.295   2.035   2.890 -0.0178 -0.5629 -2.1552
  906SOL    HW2 2718   1.394   2.111   2.784  1.9172  1.0810  1.1165
  907SOL     OW 2719   0.969   2.398   0.888  0.0957 -0.3570  0.0142
  907SOL    HW1 2720   1.006   2.305   0.883  1.3840  1.6233 -0.3425
  907SOL    HW2 2721   0.968   2.449   0.799 -2.1673  1.0669 -1.1314
  908SOL     OW 2722   0.992   3.056   2.189  0.2271  0.1691  0.0807
  908SOL    HW1 2723   0.998   2.957   2.161  1.4785 -1.7131  0.5121
  908SOL    HW2 2724   0.984   3.115   2.103  0.0918  0.1615 -0.4494
  909SOL     OW 2725   1.818   0.329   1.746  0.0349 -0.2463  0.5056
  909SOL    HW1 2726   1.733   0.284   1.773 -1.8167 -0.0368  1.5381
  909SOL    HW2 2727   1.836   0.407   1.809 -2.5463 -1.8899 -3.3452
  910SOL     OW 2728   1.140   0.559   2.402 -0.1539  0.8151 -0.1933
  910SOL    HW1 2729   1.234   0.554   2.450 -1.2617 -2.5626  2.2212
  910SOL    HW2 2730   1.138   0.651   2.358  0.7471  0.7709 -2.6226
  911SOL     OW 2731   3.088   0.567   0.099 -0.3823  0.0645  0.6922
  911SOL    HW1 2732   3.042   0.652   0.071 -0.2720  1.2518  2.1991
  911SOL    HW2 2733   0.034   0.586   0.171 -0.5829 -0.7915  0.9947
  912SOL     OW 2734   2.828   2.461   3.064 -0.0515  0.2165 -0.0481
  912SOL    HW1 2735   2.841   2.469   2.959  0.8664  1.2046 -1.4657
  912SOL    HW2 2736   2.912   2.494   3.109  0.7130  1.5324 -1.2063
  913SOL     OW 2737   2.694   2.128   2.893  0.5741 -0.4726 -0.0847
  913SOL    HW1 2738   2.639   2.200   2.850  0.1189 -2.8761  1.6707
  913SOL    HW2 2739   2.763   2.088   2.830  2.1867 -0.5599  2.3361
  914SOL     OW 2740   1.680   1.788   1.609  0.2134 -0.1740  0.6124
  914SOL    HW1 2741   1.606   1.851   1.580  1.2655  0.0174 -1.1165
  914SOL    HW2 2742   1.751   1.765   1.541 -2.3366  0.3086  0.3702
  915SOL     OW 2743   0.215   2.663   2.083  0.5469 -0.2667  0.0113
  915SOL    HW1 2744   0.231   2.586   2.017 -0.6187  0.3277  3.0359
  915SOL    HW2 2745   0.275   2.647   2.164 -1.3442  1.1637 -1.9581
  916SOL     OW 2746   0.444   1.418   1.429  0.4345 -0.6639 -0.3907
  916SOL    HW1 2747   0.351   1.460   1.400 -2.0114 -0.9955  1.0817
  916SOL    HW2 2748   0.442   1.315   1.437  1.9848 -1.4215  0.4843
  917SOL     OW 2749   2.636   0.231   0.021 -0.4072  0.2299  0.2616
  917SOL    HW1 2750   2.566   0.231   3.071  2.8823  1.2315 -2.1869
  917SOL    HW2 2751   2.729   0.207   3.109  1.5942  2.2803  0.8135
  918SOL     OW 2752   1.524   2.505   2.432  0.4086 -0.4927  0.2135
  918SOL    HW1 2753   1.445   2.555   2.477  1.5537 -0.9679 -1.2733
  918SOL    HW2 2754   1.587   2.567   2.376  1.6904 -0.7712 -0.5777
  919SOL     OW 2755   1.651   2.447   1.866  0.1339  1.1172  0.4359
  919SOL    HW1 2756   1.605   2.431   1.774  0.3405  1.1862  0.2408
  919SOL    HW2 2757   1.717   2.373   1.886 -3.1487 -0.9462 -0.1914
  920SOL     OW 2758   0.777   0.831   3.027  0.3117 -0.2101 -0.0575
  920SOL    HW1 2759   0.729   0.863   2.940  0.6941  0.8936  1.2491
  920SOL    HW2 2760   0.738   0.881   3.109 -0.4654  0.1399 -1.2997
  921SOL     OW 2761   3.062   0.979   2.339  0.0052  0.0600 -0.4921
  921SOL    HW1 2762   2.981   0.921   2.365 -0.2301 -0.1624 -0.6991
  921SOL    HW2 2763   3.109   0.957   2.253  1.0062 -0.9103  0.4684
  922SOL     OW 2764   0.477   1.771   0.339 -0.6803 -0.4834  0.4823
  922SOL    HW1 2765   0.545   1.827   0.393 -2.4250 -0.3678 -1.7969
  922SOL    HW2 2766   0.512   1.766   0.242  0.1719  3.7188 -1.2034
  923SOL     OW 2767   0.475   1.008   1.714 -0.7268 -0.3606  0.5563
  923SOL    HW1 2768   0.379   0.997   1.736  3.3337 -0.2618 -1.2295
  923SOL    HW2 2769   0.506   0.924   1.666  0.1090 -1.9146  0.2289
  924SOL     OW 2770   1.323   2.982   2.977 -0.6268 -0.0130  0.0446
  924SOL    HW1 2771   1.304   3.032   2.887 -0.5306  2.6513 -2.3548
  924SOL    HW2 2772   1.240   2.986   3.031  2.1979  2.0861  0.5652
  925SOL     OW 2773   2.349   1.376   1.429 -0.2351  0.2219  0.0839
  925SOL    HW1 2774   2.248   1.381   1.413 -1.6862 -1.0609 -0.9173
  925SOL    HW2 2775   2.376   1.393   1.529 -1.7708  1.5514  1.8517
  926SOL     OW 2776   2.183   0.369   2.009 -0.2487  0.2612  0.2201
  926SOL    HW1 2777   2.245   0.439   1.976 -2.9553  2.3327  1.9349
  926SOL    HW2 2778   2.095   0.370   1.951 -2.0808 -0.2942  0.7204
  927SOL     OW 2779   2.684   2.572   1.633  0.1268  0.6089 -0.4411
  927SOL    HW1 2780   2.701   2.659   1.587  0.2400  0.2094  2.5430
  927SOL    HW2 2781   2.658   2.495   1.572 -1.3318 -0.4383 -2.7455
  928SOL     OW 2782   0.402   0.924   2.494 -0.1319 -0.3083  0.4582
  928SOL    HW1 2783   0.349   0.983   2.561  0.2575  3.0820  0.2299
  928SOL    HW2 2784   0.488   0.975   2.479 -0.8155  3.1711 -1.5924
  929SOL     OW 2785   2.477   0.015   0.782 -0.6813 -0.6089  0.0114
  929SOL    HW1 2786   2.553   3.073   0.754  0.7143  0.0102  1.7530
  929SOL    HW2 2787   2.383   3.109   0.745 -2.1681 -1.3777  0.7342
  930SOL     OW 2788   2.721   0.192   1.694 -0.0342  0.6581 -0.6317
  930SOL    HW1 2789   2.662   0.122   1.738  0.5922 -1.6136 -1.2005
  930SOL    HW2 2790   2.753   0.157   1.603  2.4072  0.8375  1.7932
  931SOL     OW 2791   2.336   1.168   0.205  0.0337  0.0814 -0.5429
  931SOL    HW1 2792   2.348   1.231   0.129  0.9479 -3.0628 -0.7935
  931SOL    HW2 2793   2.414   1.102   0.203 -1.3226  1.1386  0.4453
  932SOL     OW 2794   2.419   1.456   1.696 -0.1007 -0.2472 -0.1954
  932SOL    HW1 2795   2.378   1.366   1.722 -1.1845  0.0151 -1.4091
  932SOL    HW2 2796   2.469   1.503   1.772 -1.2935 -0.5394 -2.9528
  933SOL     OW 2797   2.884   2.339   1.280 -0.2284  0.5350  0.0499
  933SOL    HW1 2798   2.898   2.438   1.255 -0.2408 -3.7324 -0.3069
  933SOL    HW2 2799   2.976   2.301   1.300  1.8778  2.7071  0.0171
  934SOL     OW 2800   0.643   2.255   1.437 -0.2067  0.1116 -0.1442
  934SOL    HW1 2801   0.686   2.273   1.350 -0.2437 -0.5965  0.8917
  934SOL    HW2 2802   0.567   2.188   1.428  0.0423  0.4023 -2.7547
  935SOL     OW 2803   2.595   1.294   2.051  0.1743 -0.1798  0.3696
  935SOL    HW1 2804   2.505   1.242   2.038  0.8430  1.7382  1.4784
  935SOL    HW2 2805   2.652   1.305   1.968 -0.0610  0.9582  0.3385
  936SOL     OW 2806   2.525   1.562   1.935 -0.6393  0.1835 -0.4880
  936SOL    HW1 2807   2.559   1.658   1.957 -0.6400  3.8202  0.7789
  936SOL    HW2 2808   2.559   1.485   1.994  1.6370 -1.7871  0.8835
  937SOL     OW 2809   1.958   1.137   2.064  0.4113  0.2696 -0.6906
  937SOL    HW1 2810   1.955   1.171   2.156  0.8132 -0.5224 -3.1099
  937SOL    HW2 2811   2.027   1.192   2.011  2.3504 -2.6733 -1.8994
  938SOL     OW 2812   0.929   2.354   2.750 -0.0450  0.0153 -0.2436
  938SOL    HW1 2813   0.946   2.262   2.801 -0.7392 -1.8345 -0.0707
  938SOL    HW2 2814   1.008   2.373   2.690 -3.1188 -0.5625 -0.2059
  939SOL     OW 2815   2.616   0.981   3.037  0.5955 -0.2579 -0.1640
  939SOL    HW1 2816   2.672   0.916   2.980 -3.7969 -0.1883 -1.5183
  939SOL    HW2 2817   2.675   1.015   3.116  0.4130 -0.1021 -1.4570
  940SOL     OW 2818   0.983   1.734   0.821  0.0589  0.5539 -0.2471
  940SOL    HW1 2819   0.922   1.687   0.756 -1.8395  0.0511 -2.4981
  940SOL    HW2 2820   0.963   1.701   0.916 -1.5503  1.7651  2.6932
  941SOL     OW 2821   0.812   2.651   2.203 -0.3541  0.0501 -0.2775
  941SOL    HW1 2822   0.717   2.684   2.200  1.7178 -1.4262 -0.2281
  941SOL    HW2 2823   0.817   2.549   2.198  0.6908 -0.2732  1.2368
  942SOL     OW 2824   0.702   2.233   0.106  0.7207  0.0148 -0.5306
  942SOL    HW1 2825   0.663   2.323   0.086  1.6216  1.4922  0.7938
  942SOL    HW2 2826   0.765   2.242   0.186 -1.3637 -1.8437  2.7487
  943SOL     OW 2827   1.789   2.639   2.061  0.1970  0.8877  0.1776
  943SOL    HW1 2828   1.744   2.565   2.007  0.5036  0.3389  0.6882
  943SOL    HW2 2829   1.884   2.649   2.025 -0.8892  0.0831 -0.2014
  944SOL     OW 2830   1.114   1.507   2.986  0.1585 -0.3305  0.3523
  944SOL    HW1 2831   1.164   1.597   2.972  0.7659 -1.5915 -2.4578
  944SOL    HW2 2832   1.044   1.512   3.060  0.6962 -3.8799 -0.4043
  945SOL     OW 2833   2.920   2.673   0.720  0.1110 -0.5128  0.3031
  945SOL    HW1 2834   2.874   2.595   0.772  0.7039 -3.1288  0.6887
  945SOL    HW2 2835   2.996   2.644   0.659  3.0957  0.8937  1.4094
  946SOL     OW 2836   0.950   1.718   2.537 -0.1714 -0.4743  0.2788
  946SOL    HW1 2837   1.027   1.738   2.601 -0.6650 -2.1032  0.4488
  946SOL    HW2 2838   0.888   1.647   2.572  0.0055  0.2055 -0.6875
  947SOL     OW 2839   2.823   0.381   1.882 -0.0335  0.5066 -0.1021
  947SOL    HW1 2840   2.792   0.313   1.812 -0.6604  1.3378  0.6254
  947SOL    HW2 2841   2.746   0.407   1.944  0.9886 -0.8550  0.4399
  948SOL     OW 2842   0.123   1.889   1.087 -0.3679 -0.0904  0.5298
  948SOL    HW1 2843   0.027   1.861   1.121 -4.0901  0.8308  0.1433
  948SOL    HW2 2844   0.194   1.894   1.158 -0.9382 -0.5204 -1.7467
  949SOL     OW 2845   0.856   0.779   1.857 -0.3347 -0.2689 -0.1146
  949SOL    HW1 2846   0.928   0.709   1.842 -1.4893 -0.5879 -1.0672
  949SOL    HW2 2847   0.875   0.857   1.795 -0.2557 -1.5141 -0.9286
  950SOL     OW 2848   0.079   0.929   1.480  0.1976 -0.5347 -0.6367
  950SOL    HW1 2849   0.044   0.986   1.560 -1.5863  0.9225 -1.7086
  950SOL    HW2 2850   0.003   0.883   1.433  0.8930 -3.8577  1.6077
  951SOL     OW 2851   0.734   1.746   2.220  0.3797  0.4856 -0.0226
  951SOL    HW1 2852   0.689   1.797   2.301 -1.3781  0.0412  0.0936
  951SOL    HW2 2853   0.827   1.784   2.202  3.0503 -0.2915 -0.6492
  952SOL     OW 2854   1.505   2.110   0.744 -0.3003  0.3294  0.1354
  952SOL    HW1 2855   1.510   2.211   0.732  0.3455  0.7924 -1.8016
  952SOL    HW2 2856   1.409   2.077   0.762  0.7459 -1.0501  2.6293
  953SOL     OW 2857   1.065   0.768   0.318 -0.3121  0.3092 -0.4871
  953SOL    HW1 2858   1.054   0.671   0.297  0.3150  0.0687  1.1840
  953SOL    HW2 2859   0.989   0.828   0.292 -0.5633  2.2775  0.2436
  954SOL     OW 2860   2.024   0.837   1.106 -0.2516 -0.4036  0.0902
  954SOL    HW1 2861   2.100   0.866   1.048 -0.0037 -1.7625  0.5182
  954SOL    HW2 2862   1.933   0.878   1.075 -2.6649  1.4131  2.1850
  955SOL     OW 2863   2.432   1.444   0.609 -0.8913  0.0213  0.0688
  955SOL    HW1 2864   2.472   1.538   0.608 -1.7908  0.1456 -0.4852
  955SOL    HW2 2865   2.353   1.442   0.547  0.8492 -0.4548  0.4502
  956SOL     OW 2866   0.796   0.388   1.707 -0.5240 -0.1400 -0.2010
  956SOL    HW1 2867   0.780   0.296   1.754 -0.8481 -1.0350  2.9478
  956SOL    HW2 2868   0.890   0.407   1.669 -0.9323  0.7450  0.5711
  957SOL     OW 2869   1.985   0.186   1.205 -0.0399  0.3698 -0.3003
  957SOL    HW1 2870   1.929   0.259   1.240  1.0946 -3.0030 -2.5009
  957SOL    HW2 2871   2.011   0.115   1.277 -0.5124 -1.6212  2.0989
  958SOL     OW 2872   0.230   2.201   0.477  0.0862 -0.1020 -0.2345
  958SOL    HW1 2873   0.184   2.140   0.409 -0.9149  1.9648 -1.2175
  958SOL    HW2 2874   0.268   2.155   0.562 -1.5008  1.6782  2.4627
  959SOL     OW 2875   2.160   1.289   1.971 -0.3032 -0.3949 -0.0048
  959SOL    HW1 2876   2.165   1.389   1.989 -1.8454 -0.4115 -1.1371
  959SOL    HW2 2877   2.216   1.267   1.890 -0.1055  0.7993 -0.1906
  960SOL     OW 2878   0.020   2.032   2.843  0.0691  0.1559  0.5688
  960SOL    HW1 2879   0.068   2.045   2.753 -1.0226  0.9490  1.5352
  960SOL    HW2 2880   0.031   1.939   2.882  1.7610 -2.7727 -2.8678
  961SOL     OW 2881   0.505   1.628   1.261  0.0941  0.0449 -0.1368
  961SOL    HW1 2882   0.508   1.561   1.336 -0.5087  3.8958  0.2067
  961SOL    HW2 2883   0.604   1.665   1.242  1.7923 -0.0397 -2.7738
  962SOL     OW 2884   0.843   1.407   0.994  0.0717 -0.8353 -0.0467
  962SOL    HW1 2885   0.782   1.405   0.909  0.4713  0.9980  1.6011
  962SOL    HW2 2886   0.900   1.323   1.002 -1.2861  0.7160 -3.0220
  963SOL     OW 2887   0.981   2.217   2.451  0.1200  0.1596 -0.0574
  963SOL    HW1 2888   1.004   2.123   2.413  1.9939 -1.0479 -0.0818
  963SOL    HW2 2889   1.047   2.243   2.525 -0.1245 -1.0435  0.4846
  964SOL     OW 2890   0.142   2.899   1.983 -0.5603  0.4195 -0.0168
  964SOL    HW1 2891   0.089   2.897   1.895  0.5942  1.3205 -1.6989
  964SOL    HW2 2892   0.164   2.801   2.005 -1.1485 -1.4047 -0.7426
  965SOL     OW 2893   0.710   2.156   2.960 -0.2376  0.1155  0.4353
  965SOL    HW1 2894   0.710   2.221   3.043 -0.3520 -1.0175  5.0208
  965SOL    HW2 2895   0.671   2.070   2.984  0.6177  3.6096 -0.4916
  966SOL     OW 2896   3.039   1.497   0.027  0.1993 -0.1215  0.0550
  966SOL    HW1 2897   3.085   1.474   0.117  0.5492  0.2820 -0.0545
  966SOL    HW2 2898   3.034   1.414   3.087 -0.1612  3.2856  3.0090
  967SOL     OW 2899   2.254   2.908   0.218  0.1955  0.6420  0.1371
  967SOL    HW1 2900   2.325   2.866   0.280  2.7388 -3.3598  1.2962
  967SOL    HW2 2901   2.161   2.902   0.266 -0.2864  1.1752 -1.0686
  968SOL     OW 2902   2.230   3.063   1.012 -0.0008 -0.5843  0.1020
  968SOL    HW1 2903   2.149   3.015   1.053 -0.5826 -1.2011  0.4689
  968SOL    HW2 2904   2.308   2.997   1.014 -1.0252 -0.5269 -1.1962
  969SOL     OW 2905   0.260   1.109   2.042  0.1278  0.1642 -0.3691
  969SOL    HW1 2906   0.167   1.094   2.086 -1.1594 -1.9270  0.5966
  969SOL    HW2 2907   0.323   1.036   2.070  0.3918  1.4160 -1.2883
  970SOL     OW 2908   1.735   1.495   0.341  0.1185 -0.3801 -0.4474
  970SOL    HW1 2909   1.784   1.589   0.352  0.7069  0.7397  0.8804
  970SOL    HW2 2910   1.734   1.448   0.431 -1.4066 -0.2998 -2.2085
  971SOL     OW 2911   2.487   2.883   1.571 -0.2272  0.2832  0.0807
  971SOL    HW1 2912   2.501   2.935   1.657 -1.4219 -0.9926 -0.0432
  971SOL    HW2 2913   2.450   2.942   1.496 -1.7420  0.3486  1.7194
  972SOL     OW 2914   2.715   0.108   1.422  0.0898  0.0735  0.2786
  972SOL    HW1 2915   2.734   0.052   1.342 -2.0388 -1.1842  3.7575
  972SOL    HW2 2916   2.662   0.190   1.396  2.1355 -2.3931 -0.4272
  973SOL     OW 2917   0.446   0.599   2.878 -0.0230 -0.3778  0.1312
  973SOL    HW1 2918   0.478   0.648   2.791  3.9888  0.2624 -1.0895
  973SOL    HW2 2919   0.350   0.569   2.860 -0.4319  2.4213  0.4081
  974SOL     OW 2920   2.467   0.993   1.951  0.4191 -0.3176  0.0864
  974SOL    HW1 2921   2.422   0.904   1.930  2.6243 -0.0959 -1.7475
  974SOL    HW2 2922   2.417   1.038   2.024 -0.7910  1.3059 -2.7544
  975SOL     OW 2923   1.050   0.410   1.565 -0.2424 -0.0362 -0.1807
  975SOL    HW1 2924   1.063   0.361   1.473 -0.0119 -1.9210 -2.2170
  975SOL    HW2 2925   1.084   0.345   1.635 -1.8364  0.0145 -1.4434
  976SOL     OW 2926   1.220   1.729   1.590  0.1094 -0.1642 -1.1367
  976SOL    HW1 2927   1.290   1.768   1.524 -2.0825 -0.1157 -0.3208
  976SOL    HW2 2928   1.123   1.759   1.581  0.0405  2.8423  1.0636
  977SOL     OW 2929   1.045   2.973   0.115 -0.5664  0.1620  0.2746
  977SOL    HW1 2930   1.026   3.004   0.021 -1.1309 -1.1775  0.3598
  977SOL    HW2 2931   1.001   3.037   0.187 -0.1287  1.4440  0.8541
  978SOL     OW 2932   2.351   1.085   2.168  0.0677 -0.1948 -0.1596
  978SOL    HW1 2933   2.383   1.134   2.247  0.7297 -0.4392 -3.0214
  978SOL    HW2 2934   2.263   1.036   2.184 -1.5430  2.0444 -0.2994
  979SOL     OW 2935   1.377   0.333   1.732  0.5220  0.1256  0.0463
  979SOL    HW1 2936   1.364   0.390   1.819  3.1489 -0.5861  1.4874
  979SOL    HW2 2937   1.402   0.391   1.655 -0.7314 -1.9820  3.0423
  980SOL     OW 2938   1.595   1.644   1.863 -0.1515  0.3317 -0.2689
  980SOL    HW1 2939   1.606   1.704   1.786  2.4476  1.6432  1.2685
  980SOL    HW2 2940   1.537   1.691   1.939  0.6649  0.3899  0.5400
  981SOL     OW 2941   2.164   0.703   1.437  0.4880 -0.2043 -0.7996
  981SOL    HW1 2942   2.066   0.710   1.421  2.4172  1.9286  4.8964
  981SOL    HW2 2943   2.193   0.769   1.514 -0.5748  2.4496  2.0182
  982SOL     OW 2944   0.799   0.240   2.858  0.5880 -0.6935  0.7022
  982SOL    HW1 2945   0.717   0.191   2.820 -1.1794 -1.5123 -2.2150
  982SOL    HW2 2946   0.814   0.218   2.959  0.6520  2.9270  3.3490
  983SOL     OW 2947   2.334   0.739   2.825  0.0782 -0.3353 -0.7994
  983SOL    HW1 2948   2.238   0.716   2.800  2.6022  2.5553  1.0238
  983SOL    HW2 2949   2.347   0.736   2.928  0.3007 -0.8850  4.8465
  984SOL     OW 2950   0.772   0.137   1.873  0.3255 -0.2224 -0.4504
  984SOL    HW1 2951   0.867   0.146   1.910 -2.1227 -2.1659 -1.3388
  984SOL    HW2 2952   0.694   0.158   1.941 -0.3080 -1.6603  0.2152
  985SOL     OW 2953   1.593   2.011   1.957  0.1740 -0.0652 -0.2212
  985SOL    HW1 2954   1.520   2.067   1.911 -2.2445  0.9409  1.3735
  985SOL    HW2 2955   1.685   2.033   1.922 -0.0861  0.4152  3.1082
  986SOL     OW 2956   2.434   2.927   1.948 -0.5285 -0.6597  0.1900
  986SOL    HW1 2957   2.516   2.878   1.988 -0.9965  0.1665  1.7403
  986SOL    HW2 2958   2.463   3.016   1.912  1.9779 -0.3641  0.0572
  987SOL     OW 2959   2.099   1.381   1.319  0.0896  0.3828 -0.8792
  987SOL    HW1 2960   2.109   1.432   1.229  0.5151 -0.7454 -2.1518
  987SOL    HW2 2961   2.005   1.399   1.356 -2.1951 -0.9031  0.9349
  988SOL     OW 2962   2.588   1.818   2.017  0.4698  0.0035 -0.3346
  988SOL    HW1 2963   2.560   1.898   2.071 -0.5408 -0.0258  1.7460
  988SOL    HW2 2964   2.613   1.843   1.920  1.2084 -0.1572  0.4094
  989SOL     OW 2965   1.218   2.628   0.005 -0.0050 -0.7045 -0.0457
  989SOL    HW1 2966   1.221   2.701   0.077  2.4449  0.1127  0.8142
  989SOL    HW2 2967   1.288   2.556   0.026 -0.7455  0.7157 -2.3193
  990SOL     OW 2968   1.863   1.048   2.762 -0.1006  0.4247  0.0295
  990SOL    HW1 2969   1.802   1.011   2.832 -1.0392  0.1142  1.6682
  990SOL    HW2 2970   1.930   1.118   2.799 -0.8059 -0.7742 -0.8968
  991SOL     OW 2971   1.079   0.535   0.615 -0.1634  0.2975  0.2785
  991SOL    HW1 2972   1.051   0.626   0.581 -0.3351 -0.1935  0.1796
  991SOL    HW2 2973   1.045   0.513   0.708  1.5696  1.1947  1.9746
  992SOL     OW 2974   2.302   0.941   1.303  0.1570  0.1583  0.1173
  992SOL    HW1 2975   2.381   1.003   1.320 -2.2150  2.5354  0.5985
  992SOL    HW2 2976   2.299   0.869   1.378 -1.5368  0.1853  0.9663
  993SOL     OW 2977   2.497   0.831   1.567  0.2272  0.8416 -0.4293
  993SOL    HW1 2978   2.510   0.734   1.596  0.3088 -0.0522  0.5309
  993SOL    HW2 2979   2.407   0.853   1.599  2.3329  0.7597  2.2467
  994SOL     OW 2980   0.618   1.890   2.471  0.4771  0.0208  0.2054
  994SOL    HW1 2981   0.579   1.967   2.526  2.3480  0.4558  1.1619
  994SOL    HW2 2982   0.589   1.799   2.506 -0.2914  0.7339  2.8960
  995SOL     OW 2983   2.082   1.206   2.810  0.4846 -0.2974 -0.4392
  995SOL    HW1 2984   2.167   1.246   2.846  0.7054 -0.6915  2.6814
  995SOL    HW2 2985   2.094   1.178   2.707 -0.4959 -0.7642 -2.0308
  996SOL     OW 2986   2.275   1.778   0.290 -0.0530 -0.1471 -0.2796
  996SOL    HW1 2987   2.223   1.718   0.353  1.1993 -2.0429  1.6353
  996SOL    HW2 2988   2.361   1.805   0.340  1.2527  0.1105  0.2459
  997SOL     OW 2989   2.306   0.644   2.175 -0.0367  0.5600  0.0343
  997SOL    HW1 2990   2.327   0.593   2.093  0.4112  0.0643  0.5826
  997SOL    HW2 2991   2.220   0.607   2.212  0.5003  0.2772 -2.4278
  998SOL     OW 2992   2.669   1.056   0.592  0.4795 -0.1541 -0.5642
  998SOL    HW1 2993   2.700   1.137   0.647 -0.3656 -2.3830 -1.0575
  998SOL    HW2 2994   2.662   0.972   0.652  0.7610 -0.5499  0.4799
  999SOL     OW 2995   3.019   1.887   0.617  0.7845 -0.3253  0.2908
  999SOL    HW1 2996   3.031   1.848   0.523  2.0504 -1.1594 -0.1940
  999SOL    HW2 2997   3.102   1.876   0.672  1.1515 -0.8695 -0.6539
 1000SOL     OW 2998   0.849   0.632   2.374 -0.7633 -0.4564  0.2046
 1000SOL    HW1 2999   0.946   0.597   2.367  1.6385  0.0071 -2.8312
 1000SOL    HW2 3000   0.831   0.715   2.314 -3.8532 -2.0257  1.1595
   3.12066   3.12066   3.12066
