1000 SPC/Fw water molecules t= 145.00000 step= 145000
 3000
    1SOL     OW    1   2.195   2.681   0.895 -0.9064 -0.1113 -0.1577
    1SOL    HW1    2   2.231   2.609   0.829  2.3382  0.5365 -1.3534
    1SOL    HW2    3   2.104   2.659   0.927  0.3017  0.4672  1.8428
    2SOL     OW    4   1.732   1.782   2.282 -0.0596  0.0867  0.2056
    2SOL    HW1    5   1.825   1.825   2.282  0.5420  0.4264 -0.7613
    2SOL    HW2    6   1.676   1.817   2.354 -0.6865 -1.1962 -1.2940
    3SOL     OW    7   1.792   2.531   2.292 -0.0282  0.3088 -0.1247
    3SOL    HW1    8   1.777   2.630   2.324  3.0721  3.2457  1.5217
    3SOL    HW2    9   1.886   2.502   2.299  0.1527 -1.1348  0.9160
    4SOL     OW   10   1.621   2.479   1.994  0.2699  0.7441 -0.4408
    4SOL    HW1   11   1.642   2.450   2.091 -1.1975 -0.2755  0.4305
    4SOL    HW2   12   1.679   2.434   1.926 -0.7357  1.8633 -1.3695
    5SOL     OW   13   0.521   0.659   1.354 -0.4038 -0.2361 -0.0087
    5SOL    HW1   14   0.574   0.641   1.275 -2.5147  0.4593  2.0279
    5SOL    HW2   15   0.474   0.577   1.397  0.7880  2.1582  0.3672
    6SOL     OW   16   2.583   0.909   2.890  0.9888  0.0938  0.2225
    6SOL    HW1   17   2.541   0.851   2.970 -2.6222 -0.5365  4.8346
    6SOL    HW2   18   2.510   0.930   2.821  0.3994  0.1485  0.4656
    7SOL     OW   19   0.739   0.596   1.188 -0.1428  0.7714  0.0030
    7SOL    HW1   20   0.670   0.538   1.145  0.2361  0.8208  1.0762
    7SOL    HW2   21   0.813   0.616   1.117  1.0359  0.1888 -1.4215
    8SOL     OW   22   1.097   2.463   1.500  0.3395  0.6198 -0.6712
    8SOL    HW1   23   0.997   2.452   1.512 -1.5805  1.2675 -3.6894
    8SOL    HW2   24   1.144   2.392   1.558 -1.3679  2.4423  0.5858
    9SOL     OW   25   0.762   0.985   0.326  0.4337  0.4740 -0.0646
    9SOL    HW1   26   0.803   1.025   0.243 -1.6792 -3.7523 -0.6735
    9SOL    HW2   27   0.694   1.050   0.351  1.4307  1.3644 -1.8854
   10SOL     OW   28   0.767   2.454   2.742  0.3095 -0.3095  0.5137
   10SOL    HW1   29   0.676   2.478   2.703  1.8784 -0.5894  1.6544
   10SOL    HW2   30   0.801   2.536   2.782 -3.0734 -2.6075 -2.1728
   11SOL     OW   31   0.149   1.747   0.071 -0.0309 -0.1630 -0.0312
   11SOL    HW1   32   0.066   1.801   0.090 -1.3400 -1.8778  0.5307
   11SOL    HW2   33   0.164   1.742   3.086 -0.6781  0.2670 -2.0762
   12SOL     OW   34   0.491   3.105   1.323 -0.0189  0.3776 -0.2198
   12SOL    HW1   35   0.396   3.081   1.349  1.6136  0.8650 -3.5720
   12SOL    HW2   36   0.507   0.086   1.332 -1.0477 -0.6403 -1.5733
   13SOL     OW   37   0.922   2.612   0.325 -0.2957  0.2301 -0.4146
   13SOL    HW1   38   0.875   2.525   0.347  1.9039 -1.7634  2.2533
   13SOL    HW2   39   0.930   2.632   0.226 -0.4339 -2.5308  2.0485
   14SOL     OW   40   1.400   1.867   0.999 -0.2085  0.1297 -0.1171
   14SOL    HW1   41   1.411   1.959   0.955 -2.0499 -2.2768 -1.7585
   14SOL    HW2   42   1.371   1.877   1.093  1.0849  0.7660 -0.8863
   15SOL     OW   43   2.620   0.809   2.371 -0.1006  0.2977 -0.1309
   15SOL    HW1   44   2.641   0.724   2.425  3.6033 -0.6941 -1.5801
   15SOL    HW2   45   2.540   0.856   2.412  3.0502 -0.2309 -1.9382
   16SOL     OW   46   1.693   2.915   2.967 -0.1726  0.1865  0.0715
   16SOL    HW1   47   1.692   2.863   3.058  2.0119 -0.6080  1.5796
   16SOL    HW2   48   1.776   2.976   2.967 -2.3944  1.4015 -0.4357
   17SOL     OW   49   0.663   2.625   1.935  0.2424  0.0190 -0.7996
   17SOL    HW1   50   0.759   2.646   1.913 -2.2584  1.2178  1.5594
   17SOL    HW2   51   0.601   2.707   1.931  1.3891  2.6033  0.3276
   18SOL     OW   52   1.820   1.051   0.151  0.2654 -0.6336 -0.8466
   18SOL    HW1   53   1.786   1.038   0.053 -2.5421 -0.8231 -1.0015
   18SOL    HW2   54   1.875   1.136   0.145 -0.7596 -3.9030 -2.8467
   19SOL     OW   55   2.430   2.265   2.748 -0.0959  0.1327  0.3945
   19SOL    HW1   56   2.417   2.270   2.852  1.1851  0.3159  3.7702
   19SOL    HW2   57   2.517   2.209   2.726 -0.1426  1.0743 -1.8003
   20SOL     OW   58   2.143   1.672   2.521 -0.5382 -0.2350  0.0153
   20SOL    HW1   59   2.145   1.614   2.440 -2.1257 -1.9291  0.1260
   20SOL    HW2   60   2.071   1.641   2.584  2.6568 -0.5106  1.1067
   21SOL     OW   61   0.449   2.178   2.920  0.4067  0.7413 -0.6441
   21SOL    HW1   62   0.427   2.206   3.015  0.1950 -0.0893 -0.4698
   21SOL    HW2   63   0.400   2.086   2.907  0.8364  1.5478 -0.6829
   22SOL     OW   64   2.161   2.833   1.440  0.3299  0.5611  0.2654
   22SOL    HW1   65   2.184   2.809   1.537  1.1882  1.2863 -2.1952
   22SOL    HW2   66   2.210   2.925   1.420  1.0890  0.5934  0.6611
   23SOL     OW   67   3.114   1.195   1.573 -0.5158 -0.0007  0.2653
   23SOL    HW1   68   0.068   1.205   1.646 -0.5450 -0.1919  0.4504
   23SOL    HW2   69   3.110   1.101   1.532  0.1265 -1.4240 -1.1657
   24SOL     OW   70   2.385   1.971   1.765  0.2867 -0.8090  0.2916
   24SOL    HW1   71   2.452   2.027   1.719 -2.3316  0.9404  0.8252
   24SOL    HW2   72   2.308   1.952   1.702  2.7122  0.1665  0.4704
   25SOL     OW   73   1.984   2.998   2.716 -0.2972 -0.7863  0.4847
   25SOL    HW1   74   2.068   3.047   2.689 -0.6052  0.4646 -1.4588
   25SOL    HW2   75   1.994   2.900   2.694  3.3773  1.6796 -0.2501
   26SOL     OW   76   1.054   3.002   0.642 -0.1092 -0.4788 -0.5073
   26SOL    HW1   77   1.103   2.918   0.667  0.5140 -2.7948  0.8636
   26SOL    HW2   78   1.118   3.072   0.607 -0.2870  0.5580  1.8267
   27SOL     OW   79   1.102   2.007   2.925  0.1562 -0.2160  0.4070
   27SOL    HW1   80   1.089   2.019   3.023 -3.4035 -1.8292  0.4759
   27SOL    HW2   81   1.014   1.984   2.881 -0.1392 -0.3322  0.4062
   28SOL     OW   82   3.046   1.804   1.364  0.1423  0.3269  0.1593
   28SOL    HW1   83   0.002   1.795   1.437 -1.4524 -1.2622  0.5574
   28SOL    HW2   84   3.003   1.899   1.366  0.3924 -0.1609  0.4246
   29SOL     OW   85   2.394   2.216   2.162 -0.5355 -0.0900 -0.0386
   29SOL    HW1   86   2.425   2.304   2.199 -0.3166 -1.3171 -1.9300
   29SOL    HW2   87   2.340   2.158   2.227 -1.0196 -0.4312 -2.7239
   30SOL     OW   88   0.947   2.754   1.253 -0.1453  0.6868 -0.4571
   30SOL    HW1   89   0.970   2.849   1.287 -0.0663 -0.7625  0.9254
   30SOL    HW2   90   0.903   2.755   1.160  1.9760 -1.4948  0.2563
   31SOL     OW   91   3.014   2.176   2.055  0.1824  0.0543  0.0059
   31SOL    HW1   92   2.962   2.090   2.049 -0.0480 -0.2834  0.5302
   31SOL    HW2   93   3.114   2.158   2.046 -2.3589  0.5019  0.0282
   32SOL     OW   94   1.239   1.006   2.179 -0.4722 -0.3823 -0.5572
   32SOL    HW1   95   1.266   1.066   2.102  3.1435 -0.5532  0.2492
   32SOL    HW2   96   1.297   1.026   2.260  0.2588  1.8567 -1.2865
   33SOL     OW   97   0.459   3.060   2.642  0.0946 -0.5305  0.5456
   33SOL    HW1   98   0.358   3.060   2.654  0.2672 -0.4745  0.4582
   33SOL    HW2   99   0.495   2.969   2.671 -2.1846 -1.5260 -1.7655
   34SOL     OW  100   1.446   3.018   1.451 -0.1897 -0.0415  0.1561
   34SOL    HW1  101   1.378   2.942   1.431 -0.9342  1.5125  1.4905
   34SOL    HW2  102   1.536   3.003   1.404 -4.2618 -0.3058 -1.8453
   35SOL     OW  103   2.065   0.459   1.023 -0.2048 -0.0218  0.1302
   35SOL    HW1  104   2.066   0.376   0.963 -3.1212 -1.3074  0.5179
   35SOL    HW2  105   1.971   0.497   1.021 -0.4172 -0.6507 -0.7211
   36SOL     OW  106   2.003   2.809   2.341  0.0730  0.1265  0.2051
   36SOL    HW1  107   2.098   2.836   2.363 -0.2986  1.5948  2.4316
   36SOL    HW2  108   1.987   2.802   2.242 -2.1910  0.8890  0.8983
   37SOL     OW  109   1.447   2.519   2.455  0.2891  0.3242  0.1017
   37SOL    HW1  110   1.356   2.531   2.494 -1.4234  0.5470  1.2549
   37SOL    HW2  111   1.448   2.440   2.391  2.3577  1.1765 -1.7960
   38SOL     OW  112   2.548   0.515   2.884 -0.3325  0.3438  0.1600
   38SOL    HW1  113   2.550   0.600   2.944 -1.0275  0.0276  0.9064
   38SOL    HW2  114   2.636   0.462   2.893  0.2684 -0.3718  1.1125
   39SOL     OW  115   1.876   2.105   2.347 -0.1622 -0.7792 -0.2627
   39SOL    HW1  116   1.865   2.096   2.451 -1.0652  3.7075 -1.7231
   39SOL    HW2  117   1.952   2.045   2.311  1.0332 -1.3896  1.0742
   40SOL     OW  118   0.165   0.203   3.065  0.4460  0.4201  0.4567
   40SOL    HW1  119   0.228   0.242   2.994 -0.5327 -2.1170  0.7498
   40SOL    HW2  120   0.135   0.112   3.043  1.6379  2.9593  0.9471
   41SOL     OW  121   1.540   0.837   1.567 -0.2127  0.3967 -0.2195
   41SOL    HW1  122   1.536   0.915   1.499  1.4711  1.1685 -1.2570
   41SOL    HW2  123   1.445   0.790   1.563 -2.9508 -0.8282 -2.1846
   42SOL     OW  124   0.352   0.377   1.678  0.2282 -0.2615 -0.7454
   42SOL    HW1  125   0.313   0.286   1.655 -1.6844 -0.4188 -4.3969
   42SOL    HW2  126   0.448   0.368   1.721 -1.2507 -2.4428  1.4733
   43SOL     OW  127   1.623   0.952   1.998  0.5195  0.2867 -0.2288
   43SOL    HW1  128   1.627   1.052   2.019  0.5314  0.7179  1.4973
   43SOL    HW2  129   1.686   0.931   1.918  0.8856 -2.3770  1.7526
   44SOL     OW  130   0.160   2.875   2.480  0.3130 -0.2770 -0.5160
   44SOL    HW1  131   0.162   2.928   2.561  2.0760  0.3270 -1.0746
   44SOL    HW2  132   0.202   2.922   2.407  0.8984  0.4240  0.9581
   45SOL     OW  133   0.322   2.449   1.068 -1.2207  0.0182 -0.2848
   45SOL    HW1  134   0.320   2.539   1.115  1.4198  1.6555  0.6465
   45SOL    HW2  135   0.406   2.443   1.012 -1.6433  0.4418  2.7367
   46SOL     OW  136   2.319   2.256   1.895  0.6332 -0.3597 -0.1994
   46SOL    HW1  137   2.283   2.341   1.941 -2.0374 -1.9211 -0.1736
   46SOL    HW2  138   2.412   2.234   1.918 -2.7759  0.6655  2.5122
   47SOL     OW  139   1.795   1.938   1.578 -0.3316  0.1563  1.0357
   47SOL    HW1  140   1.809   1.919   1.676 -0.7372 -0.2363 -2.7983
   47SOL    HW2  141   1.820   1.859   1.519  0.4595  0.2385 -0.6265
   48SOL     OW  142   0.412   1.930   0.448  0.5937  0.0669  0.3379
   48SOL    HW1  143   0.408   1.831   0.475  1.1682 -0.2563  0.4882
   48SOL    HW2  144   0.474   1.982   0.507  1.1590  1.1019  1.0230
   49SOL     OW  145   2.946   0.685   2.170 -0.3619 -0.0043 -0.7552
   49SOL    HW1  146   3.012   0.674   2.248 -1.2310 -1.3194  3.0154
   49SOL    HW2  147   2.885   0.765   2.199 -2.6649  3.3498  1.4171
   50SOL     OW  148   2.232   0.602   0.844  0.0538 -0.6098  0.3875
   50SOL    HW1  149   2.181   0.542   0.912 -2.9310  0.1484  1.5174
   50SOL    HW2  150   2.295   0.664   0.896 -1.8056 -1.6790 -2.2447
   51SOL     OW  151   1.237   0.483   0.774 -0.4248 -0.5945 -0.0948
   51SOL    HW1  152   1.157   0.496   0.835 -1.9032 -0.3135  2.5883
   51SOL    HW2  153   1.322   0.523   0.818  0.7599  2.9394  0.0748
   52SOL     OW  154   1.234   1.228   0.260  0.1272  0.1253 -0.4501
   52SOL    HW1  155   1.292   1.205   0.182 -1.7070  1.1118 -0.4153
   52SOL    HW2  156   1.213   1.145   0.315 -0.1096 -0.2550  0.3601
   53SOL     OW  157   1.087   2.158   2.522  0.2482  0.2416  0.6174
   53SOL    HW1  158   0.992   2.196   2.526 -1.5962  1.3097 -1.6332
   53SOL    HW2  159   1.129   2.216   2.588 -1.2468  0.8624 -1.2635
   54SOL     OW  160   1.733   0.846   1.758  0.3690 -0.0239  0.0229
   54SOL    HW1  161   1.815   0.820   1.699  2.1031 -3.0111 -0.1335
   54SOL    HW2  162   1.651   0.839   1.696 -1.8975 -2.2544 -2.7225
   55SOL     OW  163   2.010   2.920   0.783  0.0055  0.1428  0.1292
   55SOL    HW1  164   2.032   2.854   0.706 -0.3715 -0.7024 -4.1171
   55SOL    HW2  165   2.019   2.878   0.875 -1.1559 -1.0093 -1.4511
   56SOL     OW  166   0.725   2.608   1.340  0.3999  0.5592 -0.0189
   56SOL    HW1  167   0.816   2.647   1.303  3.1059 -1.8610 -1.1652
   56SOL    HW2  168   0.667   2.683   1.384 -0.5356  0.7579  2.6474
   57SOL     OW  169   2.168   1.071   0.127  0.9665 -0.7036  0.3588
   57SOL    HW1  170   2.251   1.048   0.183 -1.0769 -1.8927  0.7968
   57SOL    HW2  171   2.115   1.145   0.168  0.9110 -1.3939 -1.1062
   58SOL     OW  172   0.022   1.172   2.135 -0.2012 -0.2266 -0.1013
   58SOL    HW1  173   0.035   1.227   2.221 -1.1121 -1.5655  2.3521
   58SOL    HW2  174   3.066   1.219   2.085  1.5037  1.0245  0.8536
   59SOL     OW  175   0.926   2.447   2.242  0.1931  0.4770  0.7234
   59SOL    HW1  176   0.843   2.402   2.284 -0.6828  1.1211 -0.5739
   59SOL    HW2  177   0.920   2.546   2.261 -1.2550 -4.2479 -0.8349
   60SOL     OW  178   2.491   2.571   1.048 -0.0166 -0.5164  0.1874
   60SOL    HW1  179   2.416   2.641   1.062 -2.7520 -1.4138  1.9149
   60SOL    HW2  180   2.555   2.608   0.979 -0.1527  3.0444  1.0168
   61SOL     OW  181   1.479   1.820   0.435  0.2505  0.2329  0.5970
   61SOL    HW1  182   1.401   1.772   0.472  2.7739  0.3167  1.9683
   61SOL    HW2  183   1.518   1.889   0.506  1.1927  2.6397  4.0650
   62SOL     OW  184   2.165   2.781   3.040  0.0003  0.7713 -0.7241
   62SOL    HW1  185   2.265   2.787   3.022 -2.1568  0.4404 -2.1791
   62SOL    HW2  186   2.127   2.855   3.096  2.3738 -2.7754 -0.1793
   63SOL     OW  187   1.959   0.261   0.302 -0.1088  0.1726 -0.2142
   63SOL    HW1  188   2.005   0.318   0.369 -1.6313  0.3318 -1.6709
   63SOL    HW2  189   1.879   0.318   0.265 -3.7166  1.9210  0.8019
   64SOL     OW  190   0.879   1.141   2.547 -0.4564  0.5825  0.2560
   64SOL    HW1  191   0.924   1.216   2.491 -1.3072  1.4032 -1.3107
   64SOL    HW2  192   0.866   1.053   2.491  1.0331  0.5276  0.9571
   65SOL     OW  193   1.304   2.293   0.518 -0.3122  0.2937 -0.2677
   65SOL    HW1  194   1.387   2.322   0.574  1.0044  3.5766  0.8238
   65SOL    HW2  195   1.271   2.202   0.543 -1.2767 -0.6913  1.0319
   66SOL     OW  196   0.686   1.452   1.741 -0.0622 -0.4479 -0.1159
   66SOL    HW1  197   0.748   1.467   1.821 -0.8967  0.4715  2.0160
   66SOL    HW2  198   0.591   1.456   1.770 -0.2547 -0.9895  0.7890
   67SOL     OW  199   2.601   0.156   2.028  1.1809  0.3177 -0.5217
   67SOL    HW1  200   2.600   0.201   1.938 -0.1690  0.1490 -0.5211
   67SOL    HW2  201   2.676   0.176   2.092 -0.9185  1.0841 -0.9488
   68SOL     OW  202   0.962   0.824   1.476  0.3812 -0.4001  0.3363
   68SOL    HW1  203   0.951   0.728   1.439  1.6817  0.2421 -0.4189
   68SOL    HW2  204   0.902   0.843   1.556 -1.6311  1.0347 -1.8661
   69SOL     OW  205   1.784   2.814   0.437 -0.1091  0.3764 -0.5218
   69SOL    HW1  206   1.774   2.905   0.392 -0.6533 -1.6891 -0.5042
   69SOL    HW2  207   1.879   2.813   0.478  0.7454 -1.4014  0.6687
   70SOL     OW  208   3.093   1.017   2.398  0.0589 -0.4525 -0.6190
   70SOL    HW1  209   3.021   0.960   2.357  1.8551  0.3195  0.1901
   70SOL    HW2  210   3.110   1.087   2.331 -4.1643 -1.9220  0.6227
   71SOL     OW  211   2.941   1.581   3.068 -0.3222  0.5657 -0.2507
   71SOL    HW1  212   2.853   1.531   3.041 -1.5284  1.4624 -2.4437
   71SOL    HW2  213   2.957   1.668   3.020 -0.1139 -0.8182 -1.7883
   72SOL     OW  214   3.073   1.775   0.394  0.5755 -0.6244  0.7715
   72SOL    HW1  215   0.041   1.824   0.364  1.7086  0.5738  1.7597
   72SOL    HW2  216   3.035   1.808   0.482  0.9572  0.8846 -2.5204
   73SOL     OW  217   0.942   1.345   0.632  0.0956 -1.0106  0.0612
   73SOL    HW1  218   0.986   1.297   0.711  0.0124  0.1814 -0.7535
   73SOL    HW2  219   1.008   1.360   0.552 -0.2571 -0.5486  0.2058
   74SOL     OW  220   0.236   1.883   2.069 -0.0458 -0.0365 -0.2780
   74SOL    HW1  221   0.205   1.796   2.116 -3.6282 -0.8584  0.1413
   74SOL    HW2  222   0.304   1.867   1.996 -0.9006 -3.5394 -0.2505
   75SOL     OW  223   1.701   1.395   1.663 -0.0026 -0.0719 -0.2813
   75SOL    HW1  224   1.634   1.320   1.677  1.9449  0.4239 -1.5036
   75SOL    HW2  225   1.749   1.425   1.752  3.0691  3.2226  0.7321
   76SOL     OW  226   2.146   2.577   1.350 -0.7830 -0.2196  0.0167
   76SOL    HW1  227   2.224   2.532   1.396 -1.2048  2.1361 -2.1002
   76SOL    HW2  228   2.162   2.678   1.344  0.3417 -0.4551  2.3270
   77SOL     OW  229   2.683   1.285   1.371  0.2386 -0.1038 -0.0698
   77SOL    HW1  230   2.765   1.311   1.424  0.1378  2.1644  1.0362
   77SOL    HW2  231   2.663   1.183   1.378  0.6087  0.4844 -0.2587
   78SOL     OW  232   1.401   0.870   0.377  0.6353  0.2046  0.5237
   78SOL    HW1  233   1.321   0.936   0.391 -2.5600 -1.0336  0.1530
   78SOL    HW2  234   1.434   0.831   0.464  0.4525 -1.2083  1.0512
   79SOL     OW  235   2.551   1.518   1.346  0.3226  0.6704 -0.4588
   79SOL    HW1  236   2.493   1.522   1.264 -2.7848 -0.2048 -2.8629
   79SOL    HW2  237   2.593   1.422   1.358  0.3028 -1.3006 -1.4338
   80SOL     OW  238   0.821   0.550   1.473 -0.2159  0.3498  0.0967
   80SOL    HW1  239   0.778   0.581   1.388  2.4830 -0.1491  0.2351
   80SOL    HW2  240   0.863   0.460   1.458 -0.6614  0.1857 -0.8615
   81SOL     OW  241   0.902   2.989   0.863 -0.0713 -0.0833 -0.2332
   81SOL    HW1  242   0.950   3.004   0.772  2.0414  1.3036 -1.3974
   81SOL    HW2  243   0.928   3.066   0.925  1.7497 -1.9704  0.4099
   82SOL     OW  244   1.396   3.067   1.715  0.6369 -0.3441 -0.1945
   82SOL    HW1  245   1.440   3.052   1.624 -0.9751 -4.3865  1.9357
   82SOL    HW2  246   1.317   2.995   1.722  1.1965 -0.8429  1.1399
   83SOL     OW  247   1.258   2.051   0.615  0.3522 -0.0268 -0.5400
   83SOL    HW1  248   1.236   2.049   0.715 -0.0850  0.7615 -1.2779
   83SOL    HW2  249   1.180   2.016   0.567  0.8103  5.0180  4.7829
   84SOL     OW  250   0.211   1.709   2.914  0.2245  0.3090  0.5012
   84SOL    HW1  251   0.129   1.682   2.854  1.0633 -2.2664  1.4878
   84SOL    HW2  252   0.301   1.666   2.891  2.4326  1.0359  0.5723
   85SOL     OW  253   0.206   2.223   1.024 -0.5275 -0.1690  0.1290
   85SOL    HW1  254   0.118   2.213   1.076 -1.8942  0.0804 -0.8409
   85SOL    HW2  255   0.247   2.319   1.037  1.1609  2.6627 -1.0124
   86SOL     OW  256   2.380   2.503   1.528 -0.3215  0.3032 -0.1700
   86SOL    HW1  257   2.393   2.561   1.612  0.7193 -0.2013 -0.1882
   86SOL    HW2  258   2.377   2.400   1.544  2.2265 -0.6397 -0.8463
   87SOL     OW  259   0.041   1.882   0.882 -0.3276 -0.0978  0.0104
   87SOL    HW1  260   0.057   1.803   0.950 -1.4129 -2.4024  2.1833
   87SOL    HW2  261   0.123   1.927   0.841  1.1845  1.4454  0.3873
   88SOL     OW  262   1.006   1.295   1.363  0.5909  0.1259  0.2801
   88SOL    HW1  263   0.954   1.383   1.371  0.0075  0.3878 -0.0806
   88SOL    HW2  264   0.992   1.260   1.263  0.3282 -0.1693 -0.2615
   89SOL     OW  265   0.940   2.949   2.082 -0.1544 -0.0909 -0.0810
   89SOL    HW1  266   0.876   2.984   2.013  3.1512  0.9311  3.7236
   89SOL    HW2  267   1.033   2.989   2.068 -1.9026 -3.1388 -1.0183
   90SOL     OW  268   0.222   2.108   1.458  0.3283 -0.7632 -0.4650
   90SOL    HW1  269   0.193   2.072   1.544  0.6905  2.9355 -1.5555
   90SOL    HW2  270   0.245   2.032   1.397  0.4516 -0.5095  2.6298
   91SOL     OW  271   1.335   1.740   1.623 -0.5280 -0.3107  0.3049
   91SOL    HW1  272   1.360   1.661   1.676 -1.8635  1.2800  1.0220
   91SOL    HW2  273   1.381   1.741   1.535 -3.9836  2.8507  2.5042
   92SOL     OW  274   2.260   2.803   1.697  0.0175  0.4430 -0.1267
   92SOL    HW1  275   2.319   2.726   1.711 -2.6243  2.5876 -3.9041
   92SOL    HW2  276   2.302   2.881   1.745 -3.1095  1.5831 -0.3150
   93SOL     OW  277   2.878   1.436   2.794  0.0879  0.4556 -0.6631
   93SOL    HW1  278   2.896   1.359   2.735 -0.6795  1.8159 -2.1546
   93SOL    HW2  279   2.799   1.417   2.856 -0.0002  1.1411 -1.0012
   94SOL     OW  280   2.724   2.802   2.150  0.3789  0.0565  0.2343
   94SOL    HW1  281   2.817   2.816   2.191  0.0993  2.3357 -1.3834
   94SOL    HW2  282   2.731   2.809   2.049  0.7314  1.7169 -0.4309
   95SOL     OW  283   1.378   0.597   1.847  0.2351  0.0121  0.6114
   95SOL    HW1  284   1.476   0.563   1.856 -1.1994  1.5667  1.6951
   95SOL    HW2  285   1.368   0.682   1.908  0.5754  1.4887  1.4427
   96SOL     OW  286   2.575   0.621   1.609 -0.0306  0.1438 -0.1073
   96SOL    HW1  287   2.643   0.567   1.556  2.7433  1.7527  0.5113
   96SOL    HW2  288   2.477   0.604   1.587 -0.0189  1.6203  2.2144
   97SOL     OW  289   2.089   0.345   1.631  0.1119 -0.2744  0.0701
   97SOL    HW1  290   2.021   0.340   1.710 -1.3273 -1.6716 -0.7224
   97SOL    HW2  291   2.029   0.306   1.553 -0.1318  0.0525 -1.7343
   98SOL     OW  292   1.644   2.876   1.296 -0.2588 -0.1762 -0.3895
   98SOL    HW1  293   1.724   2.923   1.325 -0.3895 -0.5262 -3.6372
   98SOL    HW2  294   1.657   2.776   1.298  3.3268 -0.8632 -0.7652
   99SOL     OW  295   2.581   0.328   1.836 -0.1121  0.0633  0.2410
   99SOL    HW1  296   2.659   0.385   1.808  0.9270  0.0829 -1.3765
   99SOL    HW2  297   2.508   0.389   1.871 -1.2734 -2.0455 -3.9693
  100SOL     OW  298   2.851   1.709   1.961 -0.3781  0.1408  0.3374
  100SOL    HW1  299   2.886   1.635   2.024  1.3285  0.0190  2.0276
  100SOL    HW2  300   2.775   1.679   1.900  4.3745 -0.5902  1.5792
  101SOL     OW  301   1.451   0.399   0.620 -0.2191  0.3536  0.8074
  101SOL    HW1  302   1.523   0.413   0.688  3.1298  2.1210  0.4912
  101SOL    HW2  303   1.360   0.418   0.658  0.0061 -1.0481 -0.8983
  102SOL     OW  304   0.492   1.179   1.305  0.1586 -0.4485 -0.7058
  102SOL    HW1  305   0.458   1.272   1.283  0.7027  0.3401 -1.1676
  102SOL    HW2  306   0.460   1.142   1.394 -0.9411  0.3164  1.3517
  103SOL     OW  307   2.852   0.350   0.084  0.4582 -0.8372  0.2240
  103SOL    HW1  308   2.923   0.332   0.152 -2.8779  0.9901  1.0795
  103SOL    HW2  309   2.860   0.445   0.048 -0.4395  1.4369 -0.3267
  104SOL     OW  310   2.703   0.090   1.718  0.2141  0.3398  0.2777
  104SOL    HW1  311   2.804   0.100   1.722 -0.6158 -1.5176 -0.6600
  104SOL    HW2  312   2.648   0.161   1.761  2.1906 -3.2469 -3.9956
  105SOL     OW  313   1.820   0.709   2.138 -0.1548  0.3183  0.0040
  105SOL    HW1  314   1.902   0.670   2.181 -2.9407  0.4192 -3.3498
  105SOL    HW2  315   1.755   0.753   2.205 -3.4216  1.3662  3.7728
  106SOL     OW  316   1.646   0.138   0.875 -0.0944  0.2629 -0.4806
  106SOL    HW1  317   1.707   0.085   0.810 -1.1839 -2.1245 -1.4451
  106SOL    HW2  318   1.547   0.126   0.855  0.7354 -1.4341 -0.2819
  107SOL     OW  319   0.594   1.133   0.809 -0.1051  0.0142  0.2410
  107SOL    HW1  320   0.634   1.045   0.841 -2.1850 -0.0686  1.2291
  107SOL    HW2  321   0.489   1.144   0.811  0.8663  1.1216 -0.5553
  108SOL     OW  322   2.818   0.273   2.179  0.0014  0.2509  0.7647
  108SOL    HW1  323   2.839   0.354   2.123 -2.4524 -2.3767 -1.1171
  108SOL    HW2  324   2.897   0.205   2.175  1.2058 -2.3000 -2.5099
  109SOL     OW  325   2.337   0.773   0.284 -0.4557 -0.0311  0.3889
  109SOL    HW1  326   2.338   0.872   0.271 -1.3864  0.8921 -0.7186
  109SOL    HW2  327   2.408   0.743   0.351  3.3248  0.2110 -0.6490
  110SOL     OW  328   0.200   2.470   2.634 -0.2510  0.0164  0.5092
  110SOL    HW1  329   0.247   2.543   2.583  1.1100  0.1086  0.7331
  110SOL    HW2  330   0.112   2.439   2.592  0.3552  0.3868  1.4466
  111SOL     OW  331   1.944   0.040   2.064  0.2722 -0.3758  0.2805
  111SOL    HW1  332   2.011   0.116   2.076  0.8591  0.1726 -1.3694
  111SOL    HW2  333   1.849   0.073   2.066 -1.6520  2.5873  2.1245
  112SOL     OW  334   2.264   2.898   0.402  0.2404 -0.7339 -0.4339
  112SOL    HW1  335   2.318   2.971   0.355 -0.2866  0.1273  0.7364
  112SOL    HW2  336   2.328   2.818   0.412 -0.5156 -1.8780 -3.4004
  113SOL     OW  337   2.540   2.146   1.612  0.3849 -0.4849  0.0936
  113SOL    HW1  338   2.545   2.074   1.536  1.3613 -1.5468  0.8702
  113SOL    HW2  339   2.456   2.204   1.599  0.3523  4.5711 -2.3968
  114SOL     OW  340   2.696   0.974   0.899 -0.4240 -0.5654 -0.0202
  114SOL    HW1  341   2.602   0.945   0.872 -0.6324  0.5728  0.6220
  114SOL    HW2  342   2.765   0.910   0.860  1.1388 -0.5320  0.6077
  115SOL     OW  343   2.997   1.798   0.142  0.1890 -0.4097  0.2197
  115SOL    HW1  344   3.019   1.770   0.240 -0.2414 -2.4780  2.5639
  115SOL    HW2  345   2.984   1.712   0.085 -1.3251 -2.4407  1.2419
  116SOL     OW  346   0.110   1.550   1.926 -0.3118 -0.2243 -0.4518
  116SOL    HW1  347   0.039   1.481   1.904  0.2519  1.0171 -0.6586
  116SOL    HW2  348   0.120   1.570   2.024  3.0368 -0.7174  1.3412
  117SOL     OW  349   2.505   3.117   0.540 -0.3347 -0.0683 -0.3918
  117SOL    HW1  350   2.459   0.060   0.608 -0.0201 -0.4920  0.7826
  117SOL    HW2  351   2.446   3.104   0.459  1.7687 -0.4179  3.8862
  118SOL     OW  352   0.488   2.233   1.585 -0.4039  0.2486 -0.5930
  118SOL    HW1  353   0.493   2.298   1.663  1.2125 -2.3887 -0.9482
  118SOL    HW2  354   0.431   2.268   1.511  0.2748 -0.5624 -2.8325
  119SOL     OW  355   1.707   2.047   0.987  0.1808  0.6737 -0.1320
  119SOL    HW1  356   1.727   1.945   0.982 -1.3801 -3.4037  0.0771
  119SOL    HW2  357   1.671   2.072   1.083 -0.6406  1.1624  1.1169
  120SOL     OW  358   0.206   1.725   2.415 -0.5934  0.4012 -0.4334
  120SOL    HW1  359   0.272   1.709   2.492  1.3108  0.8469  0.8023
  120SOL    HW2  360   0.171   1.826   2.416  1.0089  4.1931  0.3819
  121SOL     OW  361   2.916   2.034   1.353 -0.0996  0.3716 -0.3294
  121SOL    HW1  362   2.828   2.074   1.325  1.2074 -2.2514  1.3268
  121SOL    HW2  363   2.935   2.058   1.451  0.3051 -0.2776  0.3221
  122SOL     OW  364   2.299   1.326   2.310  0.1644 -0.2827  0.3847
  122SOL    HW1  365   2.355   1.351   2.225 -1.3818 -1.5780 -0.0308
  122SOL    HW2  366   2.357   1.277   2.373 -0.9010  1.4405 -1.5759
  123SOL     OW  367   3.119   0.095   0.766 -0.4368  0.3755  0.1061
  123SOL    HW1  368   3.032   0.046   0.787  2.9997  1.4086  1.9646
  123SOL    HW2  369   0.076   0.042   0.809 -1.3266 -1.0115  1.6965
  124SOL     OW  370   1.674   0.901   2.810  0.2027 -0.0856  0.4046
  124SOL    HW1  371   1.770   0.879   2.779 -2.1756  1.2393 -0.9336
  124SOL    HW2  372   1.614   0.857   2.741  0.3099 -0.9828 -2.0116
  125SOL     OW  373   0.450   1.591   2.876  0.2295 -0.1001  0.0792
  125SOL    HW1  374   0.545   1.607   2.916  0.7127 -1.8988  0.6879
  125SOL    HW2  375   0.423   1.492   2.894 -1.3684  0.6325  0.4910
  126SOL     OW  376   2.881   2.035   0.184 -0.1255 -0.1042  0.3862
  126SOL    HW1  377   2.939   2.087   0.250  0.0316 -1.3906 -0.7037
  126SOL    HW2  378   2.921   1.944   0.160  0.3520 -1.0699  0.1159
  127SOL     OW  379   0.721   1.575   0.960 -0.2891  0.1956 -0.1237
  127SOL    HW1  380   0.813   1.569   0.909 -0.5021  1.2145  1.1729
  127SOL    HW2  381   0.657   1.504   0.922  0.3933  0.0430  2.2715
  128SOL     OW  382   1.277   0.626   0.305  0.4443 -0.2500  0.4212
  128SOL    HW1  383   1.330   0.713   0.319 -1.3143  1.6515 -0.4735
  128SOL    HW2  384   1.329   0.542   0.326 -1.1451  0.5916  0.2338
  129SOL     OW  385   2.362   1.844   1.217  0.1462  0.2549 -0.0675
  129SOL    HW1  386   2.283   1.886   1.166 -0.3657 -0.3758  0.8934
  129SOL    HW2  387   2.418   1.782   1.159  0.0376 -0.0230 -2.4049
  130SOL     OW  388   2.028   1.618   0.980 -0.2458 -0.3076  0.2469
  130SOL    HW1  389   2.123   1.578   0.952  3.0058  1.3334  0.4299
  130SOL    HW2  390   1.980   1.538   1.022  3.8397 -0.5298  1.2679
  131SOL     OW  391   3.036   1.016   2.842 -0.2011  0.0688 -0.6330
  131SOL    HW1  392   3.030   1.100   2.900  0.2498 -0.1257 -2.5177
  131SOL    HW2  393   0.013   1.003   2.805  0.4093  1.2844 -3.0937
  132SOL     OW  394   2.464   1.760   1.902  0.2381  0.3432  0.0109
  132SOL    HW1  395   2.446   1.846   1.848  0.0016 -0.6481  1.8801
  132SOL    HW2  396   2.530   1.704   1.855 -3.0159  2.5981 -0.5908
  133SOL     OW  397   3.081   1.099   0.095  0.5229 -0.1354 -0.2622
  133SOL    HW1  398   3.092   1.144   0.187  0.8477  0.6546  0.7448
  133SOL    HW2  399   3.105   1.165   0.020 -0.9508  1.9889  0.0403
  134SOL     OW  400   0.227   1.335   0.029  0.2006  0.2877 -0.2642
  134SOL    HW1  401   0.243   1.235   0.051  1.6565 -0.9390  0.9861
  134SOL    HW2  402   0.144   1.371   0.078 -0.7391 -0.4176  3.8440
  135SOL     OW  403   2.276   1.419   0.713  0.1891  0.3515 -0.5190
  135SOL    HW1  404   2.316   1.449   0.799  1.6895 -2.9090 -0.6230
  135SOL    HW2  405   2.342   1.428   0.631  1.1039  0.7025  1.1818
  136SOL     OW  406   1.995   1.530   1.313 -0.6383 -0.5112  0.1307
  136SOL    HW1  407   2.095   1.523   1.290 -1.3125 -0.2976 -0.5596
  136SOL    HW2  408   1.933   1.509   1.236  2.2901  0.0160  1.7612
  137SOL     OW  409   2.598   2.098   0.793  0.3691 -0.0647  0.1389
  137SOL    HW1  410   2.519   2.050   0.842 -1.7364  0.9532  2.1398
  137SOL    HW2  411   2.570   2.122   0.692 -2.7183 -0.2287 -2.2414
  138SOL     OW  412   1.238   0.098   1.376 -0.3970  0.2377 -0.5517
  138SOL    HW1  413   1.316   0.036   1.412  1.2581 -1.4907 -1.9416
  138SOL    HW2  414   1.147   0.067   1.411 -3.0259  0.8743 -0.5283
  139SOL     OW  415   2.428   0.258   0.045 -0.3337 -0.0794  0.3701
  139SOL    HW1  416   2.402   0.199   3.084  0.9930 -1.7141  0.4427
  139SOL    HW2  417   2.514   0.223   0.092 -1.2614  0.4957  0.4241
  140SOL     OW  418   1.523   2.062   2.718  0.0931 -0.3508 -0.2033
  140SOL    HW1  419   1.465   1.979   2.729  1.3738  0.9220 -1.2404
  140SOL    HW2  420   1.596   2.060   2.789 -2.1940 -1.5597  0.2437
  141SOL     OW  421   0.746   0.932   1.646 -0.1005  0.6747 -0.1967
  141SOL    HW1  422   0.713   1.024   1.677 -2.6117 -1.4983 -2.7614
  141SOL    HW2  423   0.795   0.880   1.715 -0.9556  1.2071 -0.8538
  142SOL     OW  424   2.676   2.943   0.139 -0.1269  0.3112 -0.0100
  142SOL    HW1  425   2.579   2.964   0.110  2.1749 -0.2193 -1.0016
  142SOL    HW2  426   2.738   2.981   0.068  0.0322 -1.3223  4.3860
  143SOL     OW  427   0.707   2.186   2.849  0.3010  0.0098 -0.4602
  143SOL    HW1  428   0.716   2.284   2.822  0.5684 -0.7074 -0.1849
  143SOL    HW2  429   0.610   2.161   2.854 -0.2929  0.8354  0.5125
  144SOL     OW  430   1.046   2.707   3.042  0.6161 -0.0918 -0.0023
  144SOL    HW1  431   1.146   2.705   3.047  1.9845 -1.1010  0.3916
  144SOL    HW2  432   1.011   2.626   3.096  0.6559  2.7088 -1.8888
  145SOL     OW  433   2.475   1.787   0.052 -0.4625 -0.7688 -0.0209
  145SOL    HW1  434   2.515   1.880   0.048 -1.1306 -0.5487  0.1102
  145SOL    HW2  435   2.380   1.798   0.021  1.0144  0.6787  3.5453
  146SOL     OW  436   2.684   2.795   2.894  0.2777  0.4438  0.2299
  146SOL    HW1  437   2.662   2.896   2.897  1.3977 -1.3701  0.2365
  146SOL    HW2  438   2.782   2.776   2.913  1.2167 -0.0864 -1.6056
  147SOL     OW  439   2.691   2.186   1.326 -0.0138 -0.2128  0.1807
  147SOL    HW1  440   2.732   2.256   1.385  0.3068 -0.1216 -0.1223
  147SOL    HW2  441   2.624   2.232   1.262 -2.7652  0.6796 -3.2351
  148SOL     OW  442   1.794   0.405   0.111 -0.0466  0.5296  0.0123
  148SOL    HW1  443   1.875   0.427   0.056  0.2553 -0.2089  1.7489
  148SOL    HW2  444   1.740   0.332   0.064 -1.3224  0.1867 -0.2642
  149SOL     OW  445   1.098   1.448   2.806  0.0934  0.3827 -0.3021
  149SOL    HW1  446   1.105   1.360   2.859 -2.6086  1.8015  2.1169
  149SOL    HW2  447   1.003   1.458   2.765 -1.9856  1.3007  3.6107
  150SOL     OW  448   0.852   2.352   0.442 -0.4513  0.0648  0.2512
  150SOL    HW1  449   0.799   2.263   0.426 -2.5537  0.3908  2.4719
  150SOL    HW2  450   0.860   2.381   0.537  1.3890 -0.0570 -2.2494
  151SOL     OW  451   0.702   1.604   2.965  0.2585 -0.1243 -0.6833
  151SOL    HW1  452   0.726   1.523   3.018  1.4017  1.3851 -0.8739
  151SOL    HW2  453   0.789   1.650   2.945  0.2483 -1.5607  3.9091
  152SOL     OW  454   2.941   1.299   0.549  0.1282  0.1079  1.1555
  152SOL    HW1  455   2.961   1.361   0.625  1.2193 -1.6745 -0.9790
  152SOL    HW2  456   2.976   1.203   0.567 -0.0858 -1.0597 -0.9085
  153SOL     OW  457   2.463   2.440   0.523  0.4198  0.8859  0.1991
  153SOL    HW1  458   2.416   2.414   0.613  0.0733  0.7508  1.1559
  153SOL    HW2  459   2.466   2.540   0.512 -1.8352 -2.0222  2.6973
  154SOL     OW  460   0.659   3.089   0.931 -0.8088  0.0517 -0.3027
  154SOL    HW1  461   0.591   3.073   0.857  0.0411 -1.5960 -1.9721
  154SOL    HW2  462   0.743   3.027   0.917  1.0231 -1.0783 -2.7109
  155SOL     OW  463   0.236   2.061   0.801 -0.0349  0.1619 -0.1027
  155SOL    HW1  464   0.287   2.119   0.741 -2.1336 -0.0023  0.8952
  155SOL    HW2  465   0.211   2.112   0.889  0.0948  1.9567 -0.1567
  156SOL     OW  466   2.689   2.470   0.072  0.0048 -0.1399  0.4313
  156SOL    HW1  467   2.700   2.446   3.092  0.4638 -0.6539 -0.8681
  156SOL    HW2  468   2.779   2.464   0.117  2.3911 -2.4053 -0.2233
  157SOL     OW  469   0.965   2.096   1.405 -0.3745 -0.3020  0.0287
  157SOL    HW1  470   0.876   2.151   1.416 -4.7424  2.2621  0.0452
  157SOL    HW2  471   0.950   1.996   1.408 -1.7837  0.6106 -0.1098
  158SOL     OW  472   1.830   0.644   3.031 -0.2417 -0.0492  0.1196
  158SOL    HW1  473   1.879   0.572   2.978  1.8181  1.0998 -0.3928
  158SOL    HW2  474   1.897   0.698   3.091  1.8392  0.0160 -0.2347
  159SOL     OW  475   0.992   0.319   2.973 -0.0915 -0.3599 -0.4036
  159SOL    HW1  476   0.912   0.381   2.956 -1.1545  0.4962  0.5820
  159SOL    HW2  477   1.068   0.370   3.016  1.2835 -0.5805  1.5142
  160SOL     OW  478   1.324   1.450   0.137 -0.1236 -0.4996 -0.1538
  160SOL    HW1  479   1.282   1.540   0.163 -0.8163  0.0827  0.0381
  160SOL    HW2  480   1.277   1.380   0.195 -1.6456 -2.5802  1.2480
  161SOL     OW  481   3.020   2.213   2.914 -0.3911 -0.2275 -0.3811
  161SOL    HW1  482   2.996   2.218   2.818 -0.0290  1.3499  2.5794
  161SOL    HW2  483   3.083   2.139   2.946  2.0916 -1.7857  1.6145
  162SOL     OW  484   0.615   2.784   0.898 -0.2780 -0.4070  0.4258
  162SOL    HW1  485   0.709   2.764   0.912 -2.4364  2.2433 -1.9822
  162SOL    HW2  486   0.577   2.834   0.978 -1.3264 -1.1577  0.2705
  163SOL     OW  487   2.717   1.133   2.997  0.0111 -0.0629  0.0478
  163SOL    HW1  488   2.670   1.057   2.951 -0.2256 -2.0982 -0.0153
  163SOL    HW2  489   2.809   1.108   3.026 -0.6064  1.8895 -1.4261
  164SOL     OW  490   0.080   2.837   2.860 -0.2197  0.1682 -0.4303
  164SOL    HW1  491   0.094   2.771   2.937 -1.8590  0.0067 -0.4607
  164SOL    HW2  492   3.117   2.811   2.811 -2.0618 -1.0179 -0.1612
  165SOL     OW  493   2.281   0.243   1.310  0.4743  0.0143 -0.0134
  165SOL    HW1  494   2.285   0.342   1.309 -0.5739 -3.4532  1.0864
  165SOL    HW2  495   2.257   0.212   1.213 -0.5332  0.9035 -1.1338
  166SOL     OW  496   1.897   0.260   1.480  0.2193  0.3121  0.4222
  166SOL    HW1  497   1.797   0.245   1.495 -1.2468 -1.1325  2.1310
  166SOL    HW2  498   1.927   0.201   1.401  1.2397 -1.6247 -0.2354
  167SOL     OW  499   0.976   0.311   1.901 -0.5609  0.4650  0.2721
  167SOL    HW1  500   0.886   0.300   1.948  1.1472 -0.0497  1.4002
  167SOL    HW2  501   1.049   0.274   1.961 -2.3658  1.6641 -0.9355
  168SOL     OW  502   2.425   0.524   1.994 -0.4858  0.1378  0.6910
  168SOL    HW1  503   2.425   0.500   2.091  4.0043  3.0197  1.3570
  168SOL    HW2  504   2.337   0.571   1.966  0.7120  0.2673 -0.3578
  169SOL     OW  505   0.510   1.432   0.169 -0.4230  0.0802 -0.7064
  169SOL    HW1  506   0.471   1.527   0.185 -0.5605  4.5018  0.5835
  169SOL    HW2  507   0.431   1.368   0.144 -1.3279 -1.2942 -0.4839
  170SOL     OW  508   0.146   1.232   1.797 -0.1097 -0.0491 -0.2194
  170SOL    HW1  509   0.208   1.172   1.849  0.4862 -0.1245  0.9529
  170SOL    HW2  510   0.055   1.243   1.847  1.0463 -0.9494  2.3279
  171SOL     OW  511   1.455   2.096   1.925  0.5148  0.6208  0.3770
  171SOL    HW1  512   1.426   2.191   1.922  0.8412 -2.1530  1.3301
  171SOL    HW2  513   1.374   2.033   1.914 -1.1513 -1.1015  0.4705
  172SOL     OW  514   0.430   2.455   1.412 -0.0217 -0.1224  0.6602
  172SOL    HW1  515   0.473   2.482   1.499  0.0609 -1.1585 -0.8797
  172SOL    HW2  516   0.505   2.440   1.341  1.8236 -0.4791  0.5635
  173SOL     OW  517   1.213   2.764   0.694  0.3501  0.0271 -0.3326
  173SOL    HW1  518   1.268   2.756   0.610 -2.2657 -1.7986  1.0045
  173SOL    HW2  519   1.171   2.676   0.722 -1.6822 -0.7193  2.3117
  174SOL     OW  520   1.337   3.004   3.042  0.2495 -0.1809 -0.0348
  174SOL    HW1  521   1.266   3.004   3.116  1.7753 -1.4060  2.8050
  174SOL    HW2  522   1.402   2.927   3.055 -0.3689 -1.7724  0.9052
  175SOL     OW  523   0.997   1.015   2.753 -0.3939 -0.0171 -0.5643
  175SOL    HW1  524   0.967   1.040   2.850  1.9205  0.6370  2.2643
  175SOL    HW2  525   0.942   1.070   2.686 -0.2781  1.6747 -1.4589
  176SOL     OW  526   1.678   0.825   0.276 -0.2578 -0.4071 -0.0563
  176SOL    HW1  527   1.725   0.904   0.231 -0.0092 -0.7404 -2.0277
  176SOL    HW2  528   1.593   0.851   0.324 -0.9380  0.0306 -1.3785
  177SOL     OW  529   1.335   0.885   0.847 -0.5984  0.1672 -0.2658
  177SOL    HW1  530   1.249   0.832   0.850 -0.3219  1.9854 -3.0223
  177SOL    HW2  531   1.384   0.876   0.932 -1.6231 -1.3854 -1.1443
  178SOL     OW  532   2.658   1.661   2.765 -0.0750 -0.1924  0.2040
  178SOL    HW1  533   2.705   1.606   2.838  0.1411 -1.4241  1.7066
  178SOL    HW2  534   2.591   1.608   2.707 -0.4741 -0.8816  0.2336
  179SOL     OW  535   0.693   2.628   3.101  0.9249 -0.2079  0.4189
  179SOL    HW1  536   0.758   2.656   3.025  0.1749  0.4051  3.9946
  179SOL    HW2  537   0.727   2.551   0.040  0.4689 -0.2245  1.3013
  180SOL     OW  538   1.960   1.482   1.597  0.6930 -0.1701  0.2742
  180SOL    HW1  539   1.964   1.493   1.494 -0.0451 -2.0511 -1.7339
  180SOL    HW2  540   1.861   1.468   1.620  1.1079  0.6226  1.4587
  181SOL     OW  541   0.952   1.362   2.360 -0.3097  0.1381  0.1926
  181SOL    HW1  542   0.933   1.303   2.279 -0.6286  3.1121  3.5785
  181SOL    HW2  543   1.049   1.377   2.370 -1.7483 -2.2489 -0.4115
  182SOL     OW  544   0.071   0.821   2.553 -0.0696 -0.3029  0.1146
  182SOL    HW1  545   0.119   0.870   2.625 -1.3412 -2.0413 -2.9901
  182SOL    HW2  546   0.033   0.887   2.489  2.0941 -0.3394  3.4107
  183SOL     OW  547   1.341   0.115   2.503 -0.4648  0.0496  0.3125
  183SOL    HW1  548   1.336   0.166   2.416  1.5358 -2.3901 -0.2507
  183SOL    HW2  549   1.284   0.033   2.498  1.3307 -1.0843 -0.3061
  184SOL     OW  550   0.072   0.504   1.439 -0.2377  0.2751 -0.2068
  184SOL    HW1  551   0.051   0.564   1.356 -2.0580 -1.1831 -3.9147
  184SOL    HW2  552   0.001   0.430   1.444 -0.0713  2.3384  0.6061
  185SOL     OW  553   2.596   1.630   1.027  0.7528  0.3354 -0.1456
  185SOL    HW1  554   2.636   1.721   1.043  0.7231 -1.0220  0.2918
  185SOL    HW2  555   2.648   1.559   1.075 -4.4916  0.3012  1.1825
  186SOL     OW  556   0.260   2.065   2.610 -0.1252 -0.3524  0.5527
  186SOL    HW1  557   0.349   2.048   2.569 -1.8766  0.0487  2.5180
  186SOL    HW2  558   0.188   2.057   2.544  2.0567  1.0214  1.1735
  187SOL     OW  559   2.572   2.021   3.016 -0.8060  0.0247  0.0805
  187SOL    HW1  560   2.665   2.062   3.026  0.8453  0.2958 -2.2530
  187SOL    HW2  561   2.507   2.092   2.984 -0.5491 -0.1006 -1.8406
  188SOL     OW  562   0.711   2.152   0.298  0.4686 -0.1307  0.0615
  188SOL    HW1  563   0.800   2.101   0.301  2.0297 -0.5966 -0.0241
  188SOL    HW2  564   0.643   2.107   0.237  2.3395 -1.3797 -1.2741
  189SOL     OW  565   2.407   1.049   0.249 -0.2755  0.3809 -0.4377
  189SOL    HW1  566   2.371   1.136   0.293 -1.5529  2.3990  1.5624
  189SOL    HW2  567   2.486   1.078   0.194  0.5288  0.4594  2.5294
  190SOL     OW  568   0.876   1.879   2.089 -0.3238 -0.1163 -0.4258
  190SOL    HW1  569   0.886   1.980   2.090  2.2528 -1.8012 -1.9355
  190SOL    HW2  570   0.922   1.835   2.008 -0.5266  2.5877 -2.8327
  191SOL     OW  571   2.264   0.537   1.697 -0.0230 -0.2938 -0.9357
  191SOL    HW1  572   2.249   0.542   1.799  0.0852  2.1028  0.6031
  191SOL    HW2  573   2.198   0.472   1.662 -0.5692  0.4637  3.0555
  192SOL     OW  574   1.917   0.013   1.734 -0.3011 -0.1814  0.8837
  192SOL    HW1  575   1.903   0.109   1.761 -2.3722 -0.0130  1.0100
  192SOL    HW2  576   1.851   3.098   1.663  3.1665  0.3951  0.1571
  193SOL     OW  577   0.155   0.813   0.891 -0.6715  0.0988  0.2623
  193SOL    HW1  578   0.151   0.840   0.991  2.9946 -0.0484 -1.6241
  193SOL    HW2  579   0.072   0.758   0.869 -2.3598  1.2420 -0.6039
  194SOL     OW  580   1.472   2.594   1.631  0.3249  0.0491  0.1089
  194SOL    HW1  581   1.463   2.491   1.620 -0.7727  0.7319 -1.2043
  194SOL    HW2  582   1.487   2.618   1.731  1.7053 -2.0587 -1.1122
  195SOL     OW  583   2.648   0.647   0.989  0.5818 -0.1138 -0.2206
  195SOL    HW1  584   2.638   0.583   0.906  0.4539  0.9115 -0.3264
  195SOL    HW2  585   2.669   0.735   0.941 -1.6313  0.3587 -0.5869
  196SOL     OW  586   1.712   2.119   2.025 -0.1458  0.4119  0.5163
  196SOL    HW1  587   1.710   2.174   2.112  0.8684 -0.6416 -1.1826
  196SOL    HW2  588   1.624   2.129   1.970 -0.8868  1.2868 -0.7523
  197SOL     OW  589   0.223   3.036   2.958  0.0839 -0.2109 -0.1227
  197SOL    HW1  590   0.160   2.971   2.915  0.6056  0.6787  0.8414
  197SOL    HW2  591   0.218   3.032   3.059 -1.9736 -0.1416 -0.7953
  198SOL     OW  592   1.052   1.136   0.809  0.7924  0.6594  0.0032
  198SOL    HW1  593   1.135   1.136   0.749 -0.4848 -2.0489 -3.6809
  198SOL    HW2  594   1.000   1.052   0.781  1.0107 -2.3986  0.0915
  199SOL     OW  595   2.309   0.985   1.714 -0.3597 -0.1491 -0.1399
  199SOL    HW1  596   2.398   0.947   1.691 -1.6957  1.9990  0.7618
  199SOL    HW2  597   2.320   1.076   1.766 -0.2122  0.6356 -0.8682
  200SOL     OW  598   2.311   2.586   2.420  0.2062 -0.4355 -0.0716
  200SOL    HW1  599   2.296   2.683   2.399  2.2988  1.1645 -2.6961
  200SOL    HW2  600   2.349   2.580   2.513  1.3006  0.4046 -0.3701
  201SOL     OW  601   2.554   0.160   1.449 -0.3403 -0.0994  0.3162
  201SOL    HW1  602   2.598   0.093   1.511  1.7323  0.5357 -1.6622
  201SOL    HW2  603   2.542   0.128   1.354 -0.1381 -0.2936  2.8092
  202SOL     OW  604   2.137   0.066   0.197  0.3051 -0.1683 -0.7365
  202SOL    HW1  605   2.223   0.045   0.244 -1.0898  0.3225 -2.3527
  202SOL    HW2  606   2.086   0.139   0.252 -2.1578  3.1115 -0.1243
  203SOL     OW  607   1.556   1.835   2.091  0.6171 -0.7220  0.3279
  203SOL    HW1  608   1.545   1.933   2.072 -0.4890  0.2296 -0.3570
  203SOL    HW2  609   1.615   1.820   2.172  0.4970 -0.1904  0.1097
  204SOL     OW  610   0.853   1.472   2.684 -0.5195 -0.1654  1.0866
  204SOL    HW1  611   0.771   1.415   2.701 -0.9321  0.9136 -1.6565
  204SOL    HW2  612   0.854   1.516   2.592  1.8642  1.2159 -0.8348
  205SOL     OW  613   0.914   1.827   1.397  0.2807  0.4315 -0.0859
  205SOL    HW1  614   0.972   1.763   1.341  0.0680 -1.0924 -0.8371
  205SOL    HW2  615   0.817   1.798   1.400  2.5601 -0.1027  1.9266
  206SOL     OW  616   3.078   0.452   2.918 -0.4323 -0.5926 -0.2435
  206SOL    HW1  617   3.113   0.484   2.828 -3.4338  3.0679  0.7027
  206SOL    HW2  618   3.054   0.353   2.923  0.9988 -1.4409 -1.2583
  207SOL     OW  619   1.701   2.820   2.352 -0.2852 -0.3706  0.5440
  207SOL    HW1  620   1.800   2.843   2.363 -0.2433  1.6346 -0.1382
  207SOL    HW2  621   1.667   2.871   2.272 -0.8237  0.6079  1.3210
  208SOL     OW  622   0.629   2.385   1.178 -0.0414 -0.4456  0.1958
  208SOL    HW1  623   0.675   2.456   1.233  0.4813  1.7321 -0.4232
  208SOL    HW2  624   0.652   2.391   1.079  0.1624 -0.5137 -1.4990
  209SOL     OW  625   1.577   1.167   2.353  0.1020  0.1709 -0.4615
  209SOL    HW1  626   1.478   1.137   2.377 -1.8427  1.0746  1.8033
  209SOL    HW2  627   1.606   1.252   2.393 -2.1924 -2.7526 -0.0863
  210SOL     OW  628   1.895   0.809   1.302 -0.2720 -0.4600  0.2922
  210SOL    HW1  629   1.933   0.831   1.209  0.4499  0.8206 -1.0585
  210SOL    HW2  630   1.876   0.708   1.307  0.4847  1.6864  0.5514
  211SOL     OW  631   0.886   2.707   0.595  0.2826 -0.0039 -0.1862
  211SOL    HW1  632   0.925   2.702   0.501  0.3156  0.6847  3.7983
  211SOL    HW2  633   0.934   2.788   0.642  0.2217  2.1224 -0.5261
  212SOL     OW  634   1.925   1.653   0.316 -0.0534  0.6463 -0.1076
  212SOL    HW1  635   1.823   1.655   0.328 -2.3774 -0.3308  0.8992
  212SOL    HW2  636   1.977   1.696   0.395 -0.1876  0.8073 -0.1278
  213SOL     OW  637   1.751   0.295   2.826  0.1765 -0.8600 -0.4619
  213SOL    HW1  638   1.652   0.317   2.847 -0.4553 -1.0896  0.8864
  213SOL    HW2  639   1.818   0.366   2.861  1.2247  1.2855  2.2961
  214SOL     OW  640   1.265   1.456   2.384 -0.3414 -0.1525 -0.2003
  214SOL    HW1  641   1.280   1.432   2.286 -2.0871 -0.0602  2.9993
  214SOL    HW2  642   1.193   1.531   2.390 -0.0148 -0.3711 -0.5313
  215SOL     OW  643   0.782   1.764   0.192  0.2927  0.3357  0.4016
  215SOL    HW1  644   0.701   1.764   0.123  0.3949 -2.0594 -1.3821
  215SOL    HW2  645   0.761   1.697   0.264  0.8550 -0.0059 -2.7704
  216SOL     OW  646   0.121   3.047   2.070  0.4814  0.4716 -1.0378
  216SOL    HW1  647   0.048   3.119   2.078  1.2075 -0.6304 -0.6365
  216SOL    HW2  648   0.106   2.967   2.130  2.3924 -1.4486 -2.7612
  217SOL     OW  649   2.423   0.971   0.888 -0.1567  0.4715  0.0961
  217SOL    HW1  650   2.445   1.058   0.934  1.1069 -1.6154 -0.5770
  217SOL    HW2  651   2.383   0.989   0.799  1.6609 -0.2651 -0.7603
  218SOL     OW  652   1.792   1.430   1.913 -0.0411 -0.0401  0.3923
  218SOL    HW1  653   1.748   1.350   1.964 -1.0992 -0.2698 -2.9438
  218SOL    HW2  654   1.881   1.397   1.884 -0.6520 -1.5652  1.2574
  219SOL     OW  655   1.989   1.751   0.074  0.0642  0.3962  0.3485
  219SOL    HW1  656   1.954   1.692   3.119  0.7199 -3.3740 -1.1192
  219SOL    HW2  657   1.961   1.726   0.168  1.9928 -1.5917  1.0871
  220SOL     OW  658   1.364   1.477   0.911 -0.1804  0.0984 -0.1666
  220SOL    HW1  659   1.351   1.499   0.812 -1.7287 -2.3800  2.9396
  220SOL    HW2  660   1.446   1.523   0.952 -0.9823 -1.0834  1.0271
  221SOL     OW  661   0.831   0.530   2.928  0.3301 -0.2293 -0.3304
  221SOL    HW1  662   0.822   0.635   2.924 -0.0434 -0.2616 -1.6083
  221SOL    HW2  663   0.759   0.492   2.994 -2.3424  0.2952  0.3317
  222SOL     OW  664   1.146   1.410   0.470 -0.0359  0.4174 -0.7391
  222SOL    HW1  665   1.218   1.467   0.521  1.4498  0.1101  0.7677
  222SOL    HW2  666   1.182   1.331   0.415  2.0313  2.6773  0.7913
  223SOL     OW  667   1.136   3.011   2.849  0.0369  0.3034  0.0658
  223SOL    HW1  668   1.226   3.009   2.896  1.6745  1.3915 -1.6833
  223SOL    HW2  669   1.062   2.999   2.920  0.2850  1.7468 -2.5848
  224SOL     OW  670   2.281   3.075   1.406 -0.6139 -0.1378 -0.4006
  224SOL    HW1  671   2.278   0.031   1.338  2.0337 -0.9388  0.1445
  224SOL    HW2  672   2.300   3.104   1.506 -0.0405  2.4242  3.8897
  225SOL     OW  673   0.539   0.246   1.323 -0.1640 -0.3555 -0.0412
  225SOL    HW1  674   0.465   0.319   1.316 -2.6121  3.0961  0.3532
  225SOL    HW2  675   0.598   0.240   1.241 -2.9159 -0.4926  0.2445
  226SOL     OW  676   1.382   1.544   3.011 -0.1851 -0.8875 -0.4080
  226SOL    HW1  677   1.419   1.485   2.942 -2.8251  2.3482  0.0901
  226SOL    HW2  678   1.365   1.493   3.096  0.1090  0.0785  1.3418
  227SOL     OW  679   1.075   1.690   1.221 -0.1598  0.2641 -0.3699
  227SOL    HW1  680   1.084   1.616   1.145  0.8968 -0.9736 -1.8980
  227SOL    HW2  681   1.163   1.731   1.245  3.1594 -0.3983  4.7253
  228SOL     OW  682   0.493   1.667   0.697  0.2560  0.0041 -0.3848
  228SOL    HW1  683   0.509   1.582   0.739 -1.4160  3.4500  0.4584
  228SOL    HW2  684   0.477   1.742   0.768 -0.1170  1.5021  0.4822
  229SOL     OW  685   1.325   0.539   3.047 -0.0274  0.2145  0.0071
  229SOL    HW1  686   1.282   0.600   2.977  0.3889 -1.4439  1.3784
  229SOL    HW2  687   1.383   0.594   3.108 -0.7026  0.0433  0.6083
  230SOL     OW  688   1.228   0.379   2.227 -0.3323  0.3199  0.0010
  230SOL    HW1  689   1.242   0.476   2.234  0.8073 -3.0143 -0.7889
  230SOL    HW2  690   1.315   0.328   2.245  1.5254 -1.2066  0.7630
  231SOL     OW  691   1.152   1.704   2.396 -0.0231  0.2265  0.4724
  231SOL    HW1  692   1.066   1.718   2.348  3.5328 -0.5110 -3.8028
  231SOL    HW2  693   1.202   1.789   2.416  2.5224 -0.5443  1.7657
  232SOL     OW  694   2.428   2.001   0.971 -0.7438  0.0062  0.3032
  232SOL    HW1  695   2.422   2.058   1.053 -0.1580 -0.9430 -2.3298
  232SOL    HW2  696   2.342   1.948   0.973  1.9398 -0.3096 -1.9148
  233SOL     OW  697   2.653   2.693   0.238  0.7308  0.2410  0.2465
  233SOL    HW1  698   2.647   2.631   0.158  1.2119  1.0140 -0.9946
  233SOL    HW2  699   2.664   2.790   0.204  0.0010 -0.3469 -2.5429
  234SOL     OW  700   1.006   0.127   2.783  0.7905  0.3183 -0.0848
  234SOL    HW1  701   0.998   0.177   2.869 -1.6988 -1.5146 -3.0381
  234SOL    HW2  702   1.078   0.058   2.793 -2.1795  2.6440 -1.2788
  235SOL     OW  703   2.604   0.202   2.827  0.2272 -0.1703 -0.5645
  235SOL    HW1  704   2.504   0.214   2.813  1.4770 -1.3660  0.1380
  235SOL    HW2  705   2.655   0.288   2.840 -1.8230  0.6069  0.5835
  236SOL     OW  706   2.099   2.465   2.038 -0.7653  0.1684 -0.3471
  236SOL    HW1  707   2.069   2.486   2.132 -1.2850  0.3398 -2.9055
  236SOL    HW2  708   2.054   2.384   1.999  1.4631  0.1061  3.4793
  237SOL     OW  709   0.599   1.586   2.223 -0.1129  0.4631  0.3359
  237SOL    HW1  710   0.586   1.687   2.197 -2.1275  0.3255 -0.9757
  237SOL    HW2  711   0.687   1.581   2.276 -0.4294  0.7129 -1.6419
  238SOL     OW  712   1.807   0.140   2.592 -0.4467  0.1228  0.3087
  238SOL    HW1  713   1.781   0.193   2.676 -1.9227 -0.5502  1.2682
  238SOL    HW2  714   1.892   0.085   2.600 -1.9175  0.8693 -2.5786
  239SOL     OW  715   0.109   2.051   1.714  0.0590 -0.4461 -0.3176
  239SOL    HW1  716   0.137   2.105   1.791  2.0425  0.0506 -0.8485
  239SOL    HW2  717   0.125   1.953   1.732  0.3905 -2.7802  0.1230
  240SOL     OW  718   3.091   2.603   0.786 -0.4252  0.6487 -0.3481
  240SOL    HW1  719   2.995   2.581   0.820 -2.6130 -2.7504  2.9646
  240SOL    HW2  720   0.009   2.522   0.743 -2.2561  1.5228  2.2305
  241SOL     OW  721   2.283   1.274   1.098  0.3740  0.2771 -0.0380
  241SOL    HW1  722   2.345   1.265   1.018 -0.3777 -0.2635 -0.2957
  241SOL    HW2  723   2.204   1.213   1.094  1.5566  2.1991 -0.2449
  242SOL     OW  724   1.890   2.050   2.619 -0.3515 -0.4570 -0.2174
  242SOL    HW1  725   1.987   2.054   2.634 -2.4333  0.0072 -0.7571
  242SOL    HW2  726   1.840   2.031   2.708 -1.0346 -2.5441  5.0999
  243SOL     OW  727   0.550   2.630   1.641 -0.0814  0.3507 -0.9283
  243SOL    HW1  728   0.465   2.682   1.623  1.4610 -0.7551 -1.3104
  243SOL    HW2  729   0.621   2.690   1.694  1.9569  1.8043  1.0208
  244SOL     OW  730   2.298   3.115   2.974  0.3242 -0.8874  0.6499
  244SOL    HW1  731   2.271   0.085   2.926  0.8125  3.3208 -2.2639
  244SOL    HW2  732   2.338   3.053   2.899  4.0284 -0.5139 -1.4045
  245SOL     OW  733   1.372   2.896   0.872  0.4023  0.1142 -0.0134
  245SOL    HW1  734   1.353   2.872   0.970 -1.7055 -1.3973  1.0774
  245SOL    HW2  735   1.299   2.862   0.809 -3.4748  2.2121 -0.9553
  246SOL     OW  736   1.616   2.456   0.250  0.3796  0.6934  0.2916
  246SOL    HW1  737   1.714   2.479   0.269 -0.8768  0.0744 -0.2915
  246SOL    HW2  738   1.613   2.381   0.183 -2.5274  0.0997  2.1640
  247SOL     OW  739   0.960   0.332   2.274  0.2315 -0.7435 -0.1369
  247SOL    HW1  740   0.911   0.422   2.270 -2.2526  1.5125  0.9520
  247SOL    HW2  741   1.058   0.344   2.268  1.0703 -2.6602  1.0831
  248SOL     OW  742   0.415   1.789   1.875 -0.1838  0.0626 -0.0748
  248SOL    HW1  743   0.420   1.846   1.792 -0.2531  1.2117 -0.2296
  248SOL    HW2  744   0.396   1.691   1.850 -0.3981  0.7254 -3.1104
  249SOL     OW  745   2.124   0.470   0.406 -0.0853  0.1670  0.0079
  249SOL    HW1  746   2.205   0.423   0.366 -0.5156 -2.2791  0.4885
  249SOL    HW2  747   2.095   0.551   0.351 -0.8349  0.9009 -0.1338
  250SOL     OW  748   0.002   0.483   0.630  0.0591  0.3652  0.3043
  250SOL    HW1  749   0.041   0.466   0.724  0.5533 -0.1040 -0.6659
  250SOL    HW2  750   0.069   0.497   0.554  0.7078  1.1776 -0.1799
  251SOL     OW  751   1.980   0.422   2.916 -0.3119  0.0875 -0.8233
  251SOL    HW1  752   2.050   0.424   2.842  0.7430  1.7702  1.2045
  251SOL    HW2  753   2.006   0.354   2.987  1.6330  0.0327  1.6274
  252SOL     OW  754   1.837   1.694   1.985  0.3654  0.1006  0.4276
  252SOL    HW1  755   1.754   1.739   2.030  1.4343 -1.0452  0.8983
  252SOL    HW2  756   1.811   1.596   1.955  0.7464 -3.1522  0.0555
  253SOL     OW  757   2.700   2.515   1.806  0.0379 -0.2870  0.1311
  253SOL    HW1  758   2.738   2.564   1.885 -1.4023 -3.1074 -1.7466
  253SOL    HW2  759   2.769   2.477   1.745  1.1894 -1.9821  1.0905
  254SOL     OW  760   0.037   1.671   1.149 -0.0155 -0.4253 -0.3626
  254SOL    HW1  761   3.094   1.712   1.221  0.7799 -1.6814  1.6889
  254SOL    HW2  762   0.132   1.652   1.188  1.5122 -0.0314  0.3402
  255SOL     OW  763   1.133   0.389   1.242  0.0630 -0.5382  0.0892
  255SOL    HW1  764   1.056   0.360   1.303 -1.3230  0.0257  1.6083
  255SOL    HW2  765   1.208   0.428   1.297  0.6857 -1.2080 -0.1443
  256SOL     OW  766   2.074   2.366   1.522  0.0408  0.2245  0.4721
  256SOL    HW1  767   2.070   2.436   1.451  0.3991  0.2488  0.4854
  256SOL    HW2  768   1.989   2.302   1.520  0.5075  1.7901  0.3653
  257SOL     OW  769   0.569   2.790   2.657  0.6268 -0.0793 -0.4531
  257SOL    HW1  770   0.664   2.817   2.668  1.5010  0.2709 -0.6131
  257SOL    HW2  771   0.558   2.693   2.658  2.9414  0.7434 -0.1366
  258SOL     OW  772   0.846   2.240   3.114  0.4622  0.3844 -0.5098
  258SOL    HW1  773   0.905   2.164   0.034  0.3659  0.8682  0.5660
  258SOL    HW2  774   0.800   2.201   3.031  0.9952 -0.4523  0.0696
  259SOL     OW  775   0.953   0.063   2.336  0.3451  0.3754 -0.0666
  259SOL    HW1  776   0.891   0.017   2.266 -0.7174 -1.0568  3.1365
  259SOL    HW2  777   0.955   0.164   2.322 -0.2477 -1.2064  0.4904
  260SOL     OW  778   1.800   0.542   1.050  0.2856 -0.2629 -0.3204
  260SOL    HW1  779   1.758   0.637   1.029 -1.1077  0.5037 -2.1380
  260SOL    HW2  780   1.798   0.519   1.147 -3.1287  0.1011  0.9495
  261SOL     OW  781   0.631   0.381   2.607 -0.2139 -0.5491  0.4132
  261SOL    HW1  782   0.571   0.455   2.571  0.3486  1.1162 -0.5649
  261SOL    HW2  783   0.725   0.417   2.624  0.7305  0.7767  0.4972
  262SOL     OW  784   0.163   2.157   2.037  0.2997 -0.1966 -0.2329
  262SOL    HW1  785   0.228   2.222   1.989 -1.1561 -0.1338 -0.2280
  262SOL    HW2  786   0.205   2.065   2.065 -1.4978 -1.2127  0.2448
  263SOL     OW  787   2.845   1.655   2.351  0.4660 -0.0563 -0.6353
  263SOL    HW1  788   2.819   1.733   2.409  0.8623 -0.5089 -0.7071
  263SOL    HW2  789   2.938   1.623   2.374 -1.5988  0.4306 -2.4476
  264SOL     OW  790   0.714   1.210   1.071  0.1264 -0.6625 -0.0658
  264SOL    HW1  791   0.633   1.211   1.134 -0.8904  1.9711  0.7428
  264SOL    HW2  792   0.677   1.210   0.978 -0.8188  1.5759  1.5040
  265SOL     OW  793   1.058   2.491   0.967  0.0010 -0.1192 -0.1069
  265SOL    HW1  794   1.008   2.415   0.918 -0.2483 -1.2307  1.2254
  265SOL    HW2  795   1.070   2.471   1.067 -0.3337  0.0454 -1.8383
  266SOL     OW  796   1.616   0.990   1.066 -0.1172  0.0257 -0.6337
  266SOL    HW1  797   1.641   1.052   1.145 -2.1586 -1.3194  1.1787
  266SOL    HW2  798   1.618   1.044   0.982  0.7393 -0.8178  2.2759
  267SOL     OW  799   2.616   1.139   0.135 -0.1299  0.5427  0.3236
  267SOL    HW1  800   2.688   1.143   0.204 -2.0234 -0.3981 -2.5258
  267SOL    HW2  801   2.654   1.123   0.040  2.2442 -0.6154 -3.5535
  268SOL     OW  802   1.239   0.345   0.172  0.3825  0.3398 -0.1380
  268SOL    HW1  803   1.319   0.372   0.226 -2.8210  1.4848 -2.3571
  268SOL    HW2  804   1.245   0.385   0.079  1.6205  0.6728  2.6852
  269SOL     OW  805   2.421   0.521   2.635 -0.4653  0.6299 -0.0600
  269SOL    HW1  806   2.461   0.514   2.734  0.0569  1.0513  4.3627
  269SOL    HW2  807   2.325   0.487   2.635 -0.5072  0.3289  1.1263
  270SOL     OW  808   0.140   0.897   0.162  0.3996  0.4128  0.1773
  270SOL    HW1  809   0.091   0.808   0.144 -2.5801 -2.2807 -0.6403
  270SOL    HW2  810   0.088   0.978   0.139  3.4332 -0.2704  2.1826
  271SOL     OW  811   2.767   1.209   0.373  0.2914  0.1613  0.1068
  271SOL    HW1  812   2.715   1.127   0.411  0.2528 -1.7195 -1.3095
  271SOL    HW2  813   2.844   1.239   0.437 -3.0441  2.1233 -1.0635
  272SOL     OW  814   2.971   2.751   2.733  0.2222 -0.2459  0.1343
  272SOL    HW1  815   2.977   2.708   2.638  0.8536  2.2881 -3.1442
  272SOL    HW2  816   2.941   2.688   2.810 -1.2852 -1.3401  2.3170
  273SOL     OW  817   2.854   3.035   3.049  0.3087  0.4252 -0.2308
  273SOL    HW1  818   2.927   3.099   3.084 -0.0871  0.4438  0.3252
  273SOL    HW2  819   2.792   3.077   2.981  0.3795  2.9952  2.0674
  274SOL     OW  820   0.648   2.504   0.907 -0.1333 -0.2816 -0.6978
  274SOL    HW1  821   0.596   2.592   0.903 -0.4838  1.2257 -0.6055
  274SOL    HW2  822   0.708   2.483   0.827 -2.1440  0.2110 -1.4947
  275SOL     OW  823   2.680   1.511   0.325  0.1371 -0.0953  0.2045
  275SOL    HW1  824   2.780   1.528   0.312 -2.8165  1.8600  0.6164
  275SOL    HW2  825   2.662   1.415   0.325 -2.0765  3.9284 -2.8765
  276SOL     OW  826   2.822   1.232   1.763 -0.5052 -0.7786  0.4110
  276SOL    HW1  827   2.839   1.130   1.770 -2.7950  1.7148 -0.9489
  276SOL    HW2  828   2.830   1.268   1.667  1.9690 -0.8079 -0.6456
  277SOL     OW  829   2.162   0.139   1.070  0.2294 -0.3843  0.5586
  277SOL    HW1  830   2.224   0.062   1.042 -1.3272  0.1203 -0.3125
  277SOL    HW2  831   2.110   0.180   0.991 -1.0120  2.0067 -0.5588
  278SOL     OW  832   1.411   2.343   2.250  0.2780  0.1410  0.2181
  278SOL    HW1  833   1.488   2.273   2.233  1.2910  1.0130  1.3352
  278SOL    HW2  834   1.317   2.301   2.233  1.0685 -1.1393 -3.1672
  279SOL     OW  835   1.768   1.791   0.665 -0.5337  0.1875 -0.3217
  279SOL    HW1  836   1.871   1.791   0.659 -1.1847  2.5120  0.1264
  279SOL    HW2  837   1.735   1.880   0.637 -1.1196 -2.1031  0.1471
  280SOL     OW  838   0.218   1.364   1.086 -0.6084 -0.1490  0.4332
  280SOL    HW1  839   0.218   1.423   1.002 -0.5216  0.9625 -2.7237
  280SOL    HW2  840   0.286   1.405   1.152 -0.9070  1.8749  0.5404
  281SOL     OW  841   0.017   1.331   2.342  0.5353  0.8904  0.2838
  281SOL    HW1  842   0.114   1.357   2.364  0.3611  0.0859 -1.7388
  281SOL    HW2  843   3.067   1.371   2.408 -1.8148 -0.0931  1.0993
  282SOL     OW  844   0.730   1.353   0.022 -0.0958 -0.2683  0.1886
  282SOL    HW1  845   0.657   1.397   0.072  0.7827  3.5134  1.1648
  282SOL    HW2  846   0.816   1.342   0.074 -1.1987 -1.6599 -3.8683
  283SOL     OW  847   2.398   2.527   3.120  0.1412  0.5123  0.0309
  283SOL    HW1  848   2.303   2.487   3.100 -0.8897 -2.4362 -1.3377
  283SOL    HW2  849   2.425   2.500   0.095 -3.0659  1.0650 -1.1111
  284SOL     OW  850   0.798   3.077   0.445  0.0311 -0.2385 -0.2122
  284SOL    HW1  851   0.852   3.043   0.522  1.8450  0.9541 -1.7861
  284SOL    HW2  852   0.787   0.059   0.457  2.3138  1.5896  2.4674
  285SOL     OW  853   2.361   1.191   2.768 -0.2410 -0.1527  0.8521
  285SOL    HW1  854   2.354   1.089   2.754 -0.5396  0.2429 -3.0206
  285SOL    HW2  855   2.399   1.210   2.861  0.4297 -0.1025  0.0481
  286SOL     OW  856   1.911   2.569   1.218 -0.7616  0.2135 -0.1113
  286SOL    HW1  857   2.002   2.568   1.272  2.9362 -0.2118  2.5075
  286SOL    HW2  858   1.831   2.581   1.280  3.1625  2.3097  1.1715
  287SOL     OW  859   1.073   0.247   0.551  0.1344  0.1578 -0.6550
  287SOL    HW1  860   1.097   0.261   0.457 -0.3686 -1.6179  2.3403
  287SOL    HW2  861   0.989   0.197   0.561  1.0584  0.0641  1.0944
  288SOL     OW  862   1.203   2.555   2.557  0.1119 -0.0092  0.1307
  288SOL    HW1  863   1.148   2.486   2.608 -0.7990 -0.8045  0.0866
  288SOL    HW2  864   1.225   2.627   2.630 -0.6009  0.2917  0.8171
  289SOL     OW  865   0.301   1.681   1.237 -0.2536  0.2726  0.1329
  289SOL    HW1  866   0.317   1.763   1.292 -0.0190  0.9610 -2.5675
  289SOL    HW2  867   0.354   1.596   1.272  0.2616 -0.5373 -0.3575
  290SOL     OW  868   1.432   2.162   0.974 -0.0541 -0.5408 -0.1568
  290SOL    HW1  869   1.420   2.203   1.061  3.2746 -0.9306 -1.9053
  290SOL    HW2  870   1.530   2.139   0.956  0.5338 -1.3890  1.4000
  291SOL     OW  871   1.667   2.840   0.096  0.0453  0.5475 -0.3056
  291SOL    HW1  872   1.597   2.780   0.139  0.4578 -0.1875 -1.4062
  291SOL    HW2  873   1.647   2.940   0.110 -0.1601  0.2631 -0.1059
  292SOL     OW  874   0.633   0.343   1.779  0.4215 -0.3333 -0.0218
  292SOL    HW1  875   0.666   0.435   1.750 -0.6366  1.2849  0.5683
  292SOL    HW2  876   0.658   0.320   1.877  1.7143 -1.6098  1.4810
  293SOL     OW  877   2.398   2.159   1.188 -0.3173  0.1090  0.3347
  293SOL    HW1  878   2.476   2.219   1.152  1.1449 -1.0081  3.4744
  293SOL    HW2  879   2.318   2.217   1.216  0.1683 -0.6476  1.0372
  294SOL     OW  880   0.781   0.564   2.270  0.4897  0.2746  0.3914
  294SOL    HW1  881   0.692   0.520   2.243  2.8274  0.2313  0.7664
  294SOL    HW2  882   0.780   0.592   2.369 -1.1691  0.7224  0.4047
  295SOL     OW  883   1.443   1.746   1.382 -0.3978  0.6552 -0.0960
  295SOL    HW1  884   1.372   1.798   1.334  0.2110 -0.6898 -0.6207
  295SOL    HW2  885   1.540   1.782   1.364  2.1821  1.0899  1.5067
  296SOL     OW  886   2.653   2.001   0.353  0.2497  0.3430 -0.0452
  296SOL    HW1  887   2.729   2.001   0.289 -2.4202 -0.6409 -0.2188
  296SOL    HW2  888   2.571   2.052   0.314  0.1014 -0.4965 -1.8028
  297SOL     OW  889   2.425   0.006   0.286  0.2237  0.6007 -0.1269
  297SOL    HW1  890   2.500   0.071   0.257  1.0969 -1.4694  0.9669
  297SOL    HW2  891   2.410   3.061   0.206  2.3339  2.5226 -2.1777
  298SOL     OW  892   0.841   2.829   2.649  0.1623  0.4921 -0.0068
  298SOL    HW1  893   0.891   2.792   2.569  0.9892  1.1699 -0.3058
  298SOL    HW2  894   0.869   2.926   2.669 -0.5207  1.7160 -2.4219
  299SOL     OW  895   0.907   2.152   2.144  0.3431  0.2732 -0.1550
  299SOL    HW1  896   0.866   2.237   2.109  0.2930 -1.7443  1.0955
  299SOL    HW2  897   0.996   2.179   2.183  2.8160  2.0207 -0.2157
  300SOL     OW  898   0.020   0.189   2.341 -0.3140  0.0333 -0.2308
  300SOL    HW1  899   0.098   0.155   2.396 -0.3024  1.3800  2.0442
  300SOL    HW2  900   3.095   0.265   2.396 -0.5789 -1.4431  0.9843
  301SOL     OW  901   0.990   0.969   2.078  0.2893 -0.1396  0.2525
  301SOL    HW1  902   0.965   0.872   2.093  0.5507  0.7212 -1.5850
  301SOL    HW2  903   1.071   1.002   2.132 -1.4730  1.7622 -0.0515
  302SOL     OW  904   0.095   2.382   0.648  0.0500  0.5173 -0.3412
  302SOL    HW1  905   0.133   2.377   0.555 -3.9825 -0.4818  0.9663
  302SOL    HW2  906   0.039   2.298   0.669  0.6461  0.6271  1.4736
  303SOL     OW  907   2.436   2.606   1.773 -0.1195  0.0093  0.4224
  303SOL    HW1  908   2.533   2.578   1.774 -0.4405  0.8435 -1.2934
  303SOL    HW2  909   2.406   2.600   1.870  1.4905 -0.8908 -0.4581
  304SOL     OW  910   2.856   0.952   1.730  0.0059 -0.2549  0.6778
  304SOL    HW1  911   2.888   0.908   1.810 -2.1953  2.5576 -3.2697
  304SOL    HW2  912   2.919   0.941   1.651 -0.0639  0.4190  1.4520
  305SOL     OW  913   0.830   1.542   1.259  0.3899  0.1452  0.0065
  305SOL    HW1  914   0.917   1.596   1.243  1.5158  0.1533 -4.2228
  305SOL    HW2  915   0.774   1.537   1.173 -0.9883 -2.1828  2.4000
  306SOL     OW  916   0.407   1.438   2.112  0.3094  0.3207 -0.7024
  306SOL    HW1  917   0.449   1.350   2.090 -3.1617  0.4021  1.3466
  306SOL    HW2  918   0.477   1.494   2.160  1.4522  0.9761 -2.0304
  307SOL     OW  919   0.750   0.571   1.733  0.0635 -0.0072  0.6459
  307SOL    HW1  920   0.814   0.633   1.780  1.8537  1.0948 -1.2611
  307SOL    HW2  921   0.780   0.563   1.633 -1.2888 -0.4317  1.0272
  308SOL     OW  922   2.969   1.205   1.227 -0.5155 -0.1159 -0.0641
  308SOL    HW1  923   2.936   1.300   1.226  1.6329 -1.2794 -1.7617
  308SOL    HW2  924   2.891   1.140   1.193 -2.1847 -0.7251  2.7628
  309SOL     OW  925   2.750   1.416   1.125 -1.2713 -0.5516 -0.0422
  309SOL    HW1  926   2.726   1.365   1.210  0.7582 -2.5067  0.5622
  309SOL    HW2  927   2.757   1.347   1.053 -1.5789  0.2580  0.2844
  310SOL     OW  928   2.931   2.204   2.646 -0.0653  0.0527 -0.3192
  310SOL    HW1  929   2.834   2.215   2.661  1.0393 -2.2471 -1.1457
  310SOL    HW2  930   2.950   2.116   2.597  0.4556 -0.1321 -2.4250
  311SOL     OW  931   2.879   2.642   2.490  0.1863 -0.2728 -0.5366
  311SOL    HW1  932   2.907   2.710   2.416  0.0006  4.4923 -1.8584
  311SOL    HW2  933   2.782   2.657   2.523 -0.7376 -0.5708 -1.2312
  312SOL     OW  934   2.226   2.127   0.064  0.1507  0.2004  0.0989
  312SOL    HW1  935   2.139   2.157   0.111 -1.9881  0.5087 -0.9318
  312SOL    HW2  936   2.206   2.043   0.007 -1.8459  1.8392  2.5747
  313SOL     OW  937   2.600   2.869   0.602 -0.8064 -0.0421  0.0943
  313SOL    HW1  938   2.558   2.961   0.593 -0.9506  1.7215 -2.4537
  313SOL    HW2  939   2.689   2.865   0.555 -0.2512  1.6940 -2.0952
  314SOL     OW  940   1.963   1.268   0.207  0.1269  0.4515  0.4088
  314SOL    HW1  941   1.974   1.332   0.286 -0.8323  0.5631 -1.4075
  314SOL    HW2  942   1.964   1.324   0.123 -1.9465  3.6584  2.4660
  315SOL     OW  943   1.402   2.811   2.254 -0.0292 -0.0846  0.3466
  315SOL    HW1  944   1.500   2.832   2.254  1.2867 -2.6146 -1.3936
  315SOL    HW2  945   1.355   2.869   2.323 -1.3408 -3.0169  0.1117
  316SOL     OW  946   2.870   0.943   0.001  0.2768  0.2333 -0.5310
  316SOL    HW1  947   2.958   0.986   0.023  0.6884 -0.6177 -1.3549
  316SOL    HW2  948   2.873   0.891   3.037 -0.3129 -0.7388  1.8007
  317SOL     OW  949   0.576   2.837   0.109  0.9137  0.2223  0.2931
  317SOL    HW1  950   0.520   2.862   0.029  1.8944 -0.4978  3.5921
  317SOL    HW2  951   0.647   2.768   0.079  0.0536  3.0018 -2.2152
  318SOL     OW  952   2.393   2.464   0.799 -0.1562 -0.8150 -0.5747
  318SOL    HW1  953   2.351   2.409   0.879 -1.7513 -0.6841 -1.2912
  318SOL    HW2  954   2.482   2.507   0.827 -1.3216  3.5098 -0.3182
  319SOL     OW  955   1.303   1.872   2.769 -0.1349  0.0588  0.0137
  319SOL    HW1  956   1.291   1.774   2.757 -0.1812  1.4956  0.6671
  319SOL    HW2  957   1.239   1.906   2.842 -1.9392  2.9177  2.7803
  320SOL     OW  958   0.517   1.941   1.590 -0.2524  1.0424  0.1934
  320SOL    HW1  959   0.583   1.946   1.668 -2.0486 -0.6331 -0.6599
  320SOL    HW2  960   0.487   2.032   1.554 -0.3082 -0.4429 -0.6524
  321SOL     OW  961   1.509   2.762   2.556  0.0016 -0.2842 -0.2397
  321SOL    HW1  962   1.504   2.672   2.512 -0.2829  0.6848  1.7585
  321SOL    HW2  963   1.571   2.821   2.501 -1.2646  0.4020  2.0739
  322SOL     OW  964   2.818   1.482   2.143 -0.2251 -0.0883  0.2874
  322SOL    HW1  965   2.822   1.538   2.228 -0.3974  0.5025 -3.6690
  322SOL    HW2  966   2.753   1.406   2.159 -0.6728  2.2224  0.0988
  323SOL     OW  967   2.246   0.806   1.025  0.2844  0.2554 -0.4896
  323SOL    HW1  968   2.323   0.868   0.992  2.9762  1.0507 -2.0574
  323SOL    HW2  969   2.252   0.784   1.121  3.2281 -2.1099 -0.2120
  324SOL     OW  970   2.728   3.081   2.237  0.3371  0.8118  0.3011
  324SOL    HW1  971   2.684   2.992   2.199 -0.5550  0.7933 -2.3040
  324SOL    HW2  972   2.697   3.108   2.329  0.1902  0.3226  1.6304
  325SOL     OW  973   1.149   0.672   2.604  0.0486  0.2706  0.4852
  325SOL    HW1  974   1.083   0.618   2.661  0.2127  1.2793  1.9350
  325SOL    HW2  975   1.123   0.701   2.508 -0.3901  0.3015 -0.0825
  326SOL     OW  976   1.658   2.949   2.120  0.1828  0.1255  0.3599
  326SOL    HW1  977   1.673   3.044   2.158  0.7188  0.9377  2.1773
  326SOL    HW2  978   1.748   2.908   2.086  2.5236  0.3358 -0.6574
  327SOL     OW  979   2.109   0.422   0.075  0.3210 -0.7134  0.4002
  327SOL    HW1  980   2.130   0.347   0.009  0.5507 -0.9124 -1.2112
  327SOL    HW2  981   2.134   0.390   0.170 -1.7703 -1.8809  2.7443
  328SOL     OW  982   3.098   1.584   2.466  0.2130  0.3610 -0.0166
  328SOL    HW1  983   3.113   1.611   2.564 -0.8656  1.9834 -2.4667
  328SOL    HW2  984   0.048   1.631   2.412 -3.3389 -1.8996 -2.0697
  329SOL     OW  985   1.749   3.016   1.561  0.0571  0.0886  0.1037
  329SOL    HW1  986   1.714   2.925   1.587  0.0386  3.5925  0.5083
  329SOL    HW2  987   1.823   3.010   1.485 -0.3756 -0.5234  1.1031
  330SOL     OW  988   0.307   1.220   0.842  0.1195 -0.4446  0.0896
  330SOL    HW1  989   0.246   1.159   0.796  0.9946  1.0735  0.9442
  330SOL    HW2  990   0.264   1.284   0.911  0.6360 -0.5560 -0.7803
  331SOL     OW  991   0.203   1.628   2.165 -0.2575  0.0962  0.1970
  331SOL    HW1  992   0.283   1.564   2.151  0.0115  1.5391  2.3111
  331SOL    HW2  993   0.213   1.671   2.260  2.4300 -1.0698  0.5028
  332SOL     OW  994   3.052   2.764   1.514  0.0552 -0.2871  0.1094
  332SOL    HW1  995   3.045   2.839   1.582  0.0529 -1.7712  0.0557
  332SOL    HW2  996   2.965   2.718   1.498  0.6766 -0.1021 -2.0517
  333SOL     OW  997   2.365   0.199   0.678  0.3704 -0.2252 -0.2960
  333SOL    HW1  998   2.299   0.119   0.678 -0.9156 -0.2499  1.5194
  333SOL    HW2  999   2.317   0.284   0.649  1.0977  3.2607 -0.6805
  334SOL     OW 1000   0.693   2.031   0.545  0.0569 -0.0977  0.0563
  334SOL    HW1 1001   0.735   1.938   0.552  0.8622  2.7786  2.4858
  334SOL    HW2 1002   0.680   2.069   0.452  1.4507  1.1379  1.5614
  335SOL     OW 1003   0.156   2.662   3.042  0.0036  0.1656 -0.2323
  335SOL    HW1 1004   0.099   2.576   3.036 -0.6151 -0.4573  0.4563
  335SOL    HW2 1005   0.254   2.636   3.033  2.4400 -0.8102  1.7906
  336SOL     OW 1006   0.122   2.780   2.195 -0.1788 -0.6295  0.1050
  336SOL    HW1 1007   0.124   2.746   2.102 -0.6650  0.7157 -0.3207
  336SOL    HW2 1008   0.208   2.764   2.247 -2.0889  1.8077 -1.4211
  337SOL     OW 1009   2.293   2.211   2.520  0.6988  0.2650  0.1554
  337SOL    HW1 1010   2.349   2.233   2.600 -0.5273 -1.1987  0.2105
  337SOL    HW2 1011   2.336   2.149   2.459 -1.3170  1.1460  1.5934
  338SOL     OW 1012   0.697   0.225   0.387  0.1232 -0.0743  0.0565
  338SOL    HW1 1013   0.757   0.306   0.417 -0.1290  3.2040  1.2169
  338SOL    HW2 1014   0.664   0.234   0.290  0.2165  0.8122 -0.0427
  339SOL     OW 1015   0.221   0.762   2.143  0.1772  0.2485 -0.3939
  339SOL    HW1 1016   0.149   0.747   2.211  2.2170  0.6317 -0.0532
  339SOL    HW2 1017   0.185   0.824   2.069  2.3653  3.4590  1.2604
  340SOL     OW 1018   1.837   3.040   0.314 -0.1005 -0.1032  0.1673
  340SOL    HW1 1019   1.890   0.001   0.340  0.2355 -1.5632 -0.1949
  340SOL    HW2 1020   1.750   3.061   0.262 -0.4867 -0.6511 -1.1997
  341SOL     OW 1021   1.986   0.868   1.053 -0.3135  0.2825  0.0147
  341SOL    HW1 1022   1.905   0.859   0.990  1.3433 -0.1862  1.2322
  341SOL    HW2 1023   2.071   0.818   1.021  1.4399 -0.7707  1.2480
  342SOL     OW 1024   2.380   2.973   0.074 -0.4870 -0.2276 -0.2068
  342SOL    HW1 1025   2.311   3.027   0.019 -2.1308  1.9329 -0.2241
  342SOL    HW2 1026   2.410   2.889   0.020  2.8004  1.2766  0.0262
  343SOL     OW 1027   1.408   2.088   1.599  0.5451  0.6025  0.1152
  343SOL    HW1 1028   1.483   2.156   1.599 -0.3528  0.7256 -0.3101
  343SOL    HW2 1029   1.445   1.999   1.623  0.4915 -1.3525 -1.5006
  344SOL     OW 1030   2.352   2.794   1.093  0.2714  0.2599  0.7049
  344SOL    HW1 1031   2.279   2.848   1.144  0.0636 -0.2493  0.0033
  344SOL    HW2 1032   2.305   2.756   1.010 -1.6003  1.3738 -0.8778
  345SOL     OW 1033   2.959   2.393   0.204  0.2953  0.1428  0.6019
  345SOL    HW1 1034   2.951   2.481   0.254 -0.4005 -3.0249  0.8536
  345SOL    HW2 1035   3.001   2.320   0.260  0.3193 -3.3219  1.3209
  346SOL     OW 1036   2.703   1.884   0.976 -0.6242  0.2867 -0.3055
  346SOL    HW1 1037   2.631   1.958   0.959 -0.8199 -0.2206 -1.6552
  346SOL    HW2 1038   2.797   1.925   0.968 -0.0430  0.8825 -1.7755
  347SOL     OW 1039   1.853   1.925   1.836 -0.6688  0.4760  0.0209
  347SOL    HW1 1040   1.815   1.993   1.901  1.6260  3.1307 -3.4661
  347SOL    HW2 1041   1.867   1.830   1.873 -0.9696  1.7059 -1.8287
  348SOL     OW 1042   0.403   1.664   2.621  0.4124  0.2685  0.1348
  348SOL    HW1 1043   0.455   1.593   2.575  1.3224 -0.7280 -0.6600
  348SOL    HW2 1044   0.419   1.666   2.720 -1.9991 -2.2246 -1.2121
  349SOL     OW 1045   2.441   1.249   0.895  0.5143 -0.5021 -0.3403
  349SOL    HW1 1046   2.423   1.264   0.795  0.1216 -2.4960  1.1135
  349SOL    HW2 1047   2.538   1.264   0.923 -0.9945  0.1632 -0.5983
  350SOL     OW 1048   2.915   2.622   1.073 -0.0596 -0.3958 -0.1886
  350SOL    HW1 1049   2.904   2.712   1.119 -2.5378  0.2407  1.0867
  350SOL    HW2 1050   2.977   2.568   1.137  1.2398  1.6393 -2.4204
  351SOL     OW 1051   0.677   0.009   2.170 -0.1394 -0.2760 -0.8891
  351SOL    HW1 1052   0.586   0.044   2.135  1.2829  2.3962  0.3245
  351SOL    HW2 1053   0.673   3.106   2.266  1.7655  2.0509 -1.3686
  352SOL     OW 1054   0.956   1.579   0.825 -0.4712 -0.1064  0.5730
  352SOL    HW1 1055   1.031   1.601   0.885 -0.5654  0.2811  1.5730
  352SOL    HW2 1056   0.985   1.507   0.757 -0.1397 -0.0911  0.2695
  353SOL     OW 1057   1.262   1.627   2.681 -0.3880  0.2418 -0.3529
  353SOL    HW1 1058   1.279   1.608   2.586  0.8399 -1.1134  3.9877
  353SOL    HW2 1059   1.215   1.547   2.730 -1.4226 -0.7341 -3.1662
  354SOL     OW 1060   1.360   0.059   0.877  0.1807 -0.1982 -0.4590
  354SOL    HW1 1061   1.349   3.081   0.874 -1.1317  0.9351  0.9393
  354SOL    HW2 1062   1.314   0.099   0.958  1.3673 -2.1385  1.0718
  355SOL     OW 1063   2.689   1.326   0.687 -0.5490 -0.1312  0.3629
  355SOL    HW1 1064   2.613   1.289   0.633  0.0097 -2.8553 -1.2815
  355SOL    HW2 1065   2.767   1.365   0.626  2.8605  0.3537 -1.1013
  356SOL     OW 1066   2.505   1.667   2.286 -0.1751 -0.2393 -0.0251
  356SOL    HW1 1067   2.455   1.746   2.248 -0.7552  0.8920  0.0277
  356SOL    HW2 1068   2.572   1.697   2.358  4.0004 -2.7313  1.5735
  357SOL     OW 1069   0.352   2.808   1.529 -0.0072 -0.1316  0.1870
  357SOL    HW1 1070   0.285   2.800   1.452  0.7213  2.7616 -0.8373
  357SOL    HW2 1071   0.442   2.842   1.500 -1.7250 -0.4109  0.7551
  358SOL     OW 1072   2.241   0.759   1.563 -0.4339 -0.2768 -0.2481
  358SOL    HW1 1073   2.253   0.670   1.617 -0.1213 -0.8014  0.8515
  358SOL    HW2 1074   2.259   0.841   1.624 -0.2090  0.6012 -1.7103
  359SOL     OW 1075   2.204   2.633   2.768  0.4886 -0.3088  0.7565
  359SOL    HW1 1076   2.126   2.627   2.704  1.4052 -1.9548 -1.1052
  359SOL    HW2 1077   2.183   2.680   2.853  1.9475 -0.8906 -1.4982
  360SOL     OW 1078   0.856   0.347   0.887 -0.0861 -0.6609 -0.2654
  360SOL    HW1 1079   0.937   0.386   0.933 -0.7880 -0.6447  2.2531
  360SOL    HW2 1080   0.807   0.419   0.834  0.5749  2.4814 -1.4764
  361SOL     OW 1081   1.954   0.107   1.239 -0.6271 -0.0865  0.4034
  361SOL    HW1 1082   1.874   0.131   1.181  0.1726 -0.1504 -0.5676
  361SOL    HW2 1083   2.043   0.161   1.214  3.4447  2.0035  1.4038
  362SOL     OW 1084   1.293   1.107   0.677 -0.0228 -0.2084 -0.0338
  362SOL    HW1 1085   1.364   1.178   0.654 -0.2405 -0.3898  1.0239
  362SOL    HW2 1086   1.317   1.043   0.756  0.2981  0.5537 -0.2521
  363SOL     OW 1087   2.246   1.426   2.701  0.3687 -0.1179  0.4776
  363SOL    HW1 1088   2.275   1.500   2.760 -0.9135  2.0441  0.0020
  363SOL    HW2 1089   2.283   1.336   2.733  0.5573 -0.6369 -0.3113
  364SOL     OW 1090   0.184   0.428   1.115 -0.6113 -0.1786 -0.0144
  364SOL    HW1 1091   0.275   0.449   1.163  1.5378 -0.9117  3.0322
  364SOL    HW2 1092   0.111   0.479   1.168 -3.5835 -0.6309  1.4649
  365SOL     OW 1093   0.138   2.785   0.175  0.0222  0.0618  0.2543
  365SOL    HW1 1094   0.138   2.744   0.084 -2.7928  0.6370  0.8805
  365SOL    HW2 1095   0.062   2.737   0.229 -0.7276 -1.0586  1.9256
  366SOL     OW 1096   2.413   2.266   3.012 -0.0759 -0.0809 -0.2966
  366SOL    HW1 1097   2.334   2.220   3.062  0.9594  0.6082  0.0912
  366SOL    HW2 1098   2.453   2.346   3.060  2.7930  0.0320 -1.7526
  367SOL     OW 1099   2.932   2.607   2.937 -0.0426 -0.0769 -0.3158
  367SOL    HW1 1100   2.846   2.562   2.966 -1.0492 -2.8591  2.6541
  367SOL    HW2 1101   3.006   2.561   2.997 -0.7125  0.9301  1.8575
  368SOL     OW 1102   0.410   1.834   0.906 -0.1562 -0.3416 -0.4420
  368SOL    HW1 1103   0.454   1.844   0.998  0.7744  0.4108 -2.7234
  368SOL    HW2 1104   0.332   1.901   0.891  0.6609  2.4846 -2.3169
  369SOL     OW 1105   0.849   2.666   2.882 -0.1123 -0.1835  0.1419
  369SOL    HW1 1106   0.825   2.745   2.822 -0.4465 -0.0120 -1.1515
  369SOL    HW2 1107   0.942   2.672   2.930  2.2264  0.0559  2.5748
  370SOL     OW 1108   0.100   1.032   0.768  0.3042  0.1955  0.0357
  370SOL    HW1 1109   0.041   1.079   0.837  1.2018 -2.5074  0.3524
  370SOL    HW2 1110   0.115   0.937   0.805 -0.6962 -2.2332 -0.2023
  371SOL     OW 1111   1.941   2.688   0.971 -0.1631  0.4763 -0.2422
  371SOL    HW1 1112   1.854   2.704   0.918 -1.6865 -2.4061  2.9095
  371SOL    HW2 1113   1.923   2.641   1.063 -0.1924 -2.4148  2.4518
  372SOL     OW 1114   0.159   0.969   2.763  0.4184  0.0957  0.0528
  372SOL    HW1 1115   0.232   1.028   2.723 -3.5590  3.3630 -0.3482
  372SOL    HW2 1116   0.198   0.911   2.839 -1.1797  0.6217  1.1875
  373SOL     OW 1117   2.978   1.851   0.641 -0.0916 -0.0899 -0.2602
  373SOL    HW1 1118   2.901   1.806   0.687  1.3286  1.1438 -2.3193
  373SOL    HW2 1119   3.068   1.845   0.694  0.7951 -1.7951  1.1092
  374SOL     OW 1120   0.260   2.352   0.396  0.5438 -0.2051  0.0689
  374SOL    HW1 1121   0.250   2.312   0.301 -0.4774  3.1008 -1.6382
  374SOL    HW2 1122   0.298   2.447   0.388 -0.4252  1.4588 -0.7668
  375SOL     OW 1123   0.217   0.410   0.417 -0.2564  0.4250 -0.0888
  375SOL    HW1 1124   0.240   0.340   0.489  0.4917  0.9738 -1.3003
  375SOL    HW2 1125   0.261   0.386   0.330 -0.8825 -1.2913  0.4702
  376SOL     OW 1126   0.323   2.320   1.911  0.4835 -0.6828 -0.3862
  376SOL    HW1 1127   0.413   2.337   1.862  2.0244  1.8051  0.0099
  376SOL    HW2 1128   0.272   2.412   1.915  0.0639  0.1544 -0.5240
  377SOL     OW 1129   1.771   2.545   2.928  0.4755 -0.9399  0.0616
  377SOL    HW1 1130   1.672   2.530   2.911  0.3356 -0.6187  1.3509
  377SOL    HW2 1131   1.824   2.538   2.841 -1.7997 -0.3946  1.4973
  378SOL     OW 1132   0.860   0.431   0.428  0.2006 -0.3965  0.4688
  378SOL    HW1 1133   0.892   0.389   0.338  2.9908 -2.9858 -0.6157
  378SOL    HW2 1134   0.938   0.482   0.476  0.9934  0.3445 -1.2351
  379SOL     OW 1135   0.687   1.746   0.551  0.1189 -0.3544 -0.1606
  379SOL    HW1 1136   0.625   1.699   0.614 -0.8531 -1.2236 -1.4637
  379SOL    HW2 1137   0.732   1.681   0.492 -0.8097  3.0440 -0.9317
  380SOL     OW 1138   0.436   2.166   1.147 -0.2197 -0.2529 -0.1794
  380SOL    HW1 1139   0.348   2.183   1.099  0.9880 -0.0734  1.7586
  380SOL    HW2 1140   0.486   2.245   1.185 -0.2105 -2.5260  0.5922
  381SOL     OW 1141   0.661   1.182   1.728  0.2279 -0.5529 -0.2097
  381SOL    HW1 1142   0.691   1.263   1.675 -0.5098  0.8777 -0.1714
  381SOL    HW2 1143   0.645   1.204   1.827  1.6678 -3.3377 -1.7595
  382SOL     OW 1144   2.297   2.196   0.450  0.4316 -0.4003 -0.1071
  382SOL    HW1 1145   2.364   2.242   0.505 -0.2835 -1.8785 -0.8503
  382SOL    HW2 1146   2.343   2.144   0.384 -2.0906  2.1451  0.3942
  383SOL     OW 1147   2.627   1.812   2.466  1.0218  0.4833  0.1301
  383SOL    HW1 1148   2.533   1.802   2.502 -3.2037 -0.9692 -0.5731
  383SOL    HW2 1149   2.628   1.909   2.428 -0.8584 -0.7730 -0.0146
  384SOL     OW 1150   0.086   1.959   2.372 -0.5828 -0.1809  0.2600
  384SOL    HW1 1151   0.141   2.040   2.339 -2.0139 -0.1583 -0.1107
  384SOL    HW2 1152   0.058   1.910   2.285  0.9481  1.4748 -0.9400
  385SOL     OW 1153   2.832   2.218   0.832  0.2265 -0.2379 -0.2017
  385SOL    HW1 1154   2.876   2.141   0.883 -0.1963 -0.4973 -0.4667
  385SOL    HW2 1155   2.733   2.191   0.821 -0.8577  1.8580  4.0939
  386SOL     OW 1156   1.750   0.797   0.924  0.4936  0.5797 -0.0947
  386SOL    HW1 1157   1.726   0.804   0.824 -0.1189  1.3619 -2.5260
  386SOL    HW2 1158   1.703   0.873   0.977  1.0216  0.6868 -0.6911
  387SOL     OW 1159   0.340   0.562   2.020  0.7210  0.0778  0.2486
  387SOL    HW1 1160   0.288   0.621   2.078  0.6922 -0.6535  0.1054
  387SOL    HW2 1161   0.417   0.617   1.978 -0.9047  0.5733 -0.1172
  388SOL     OW 1162   2.399   0.967   2.417  0.0883  0.0060  0.3694
  388SOL    HW1 1163   2.420   1.066   2.429 -0.4278 -0.5735  1.2560
  388SOL    HW2 1164   2.308   0.946   2.377  1.3718  1.8273  0.3405
  389SOL     OW 1165   1.965   1.216   2.129 -0.2046 -0.2086 -0.0929
  389SOL    HW1 1166   2.027   1.281   2.083 -2.1019  1.1481  2.1607
  389SOL    HW2 1167   1.985   1.119   2.096 -0.3273  0.6598 -1.3543
  390SOL     OW 1168   1.964   2.466   0.483  0.0515  0.1189  0.0661
  390SOL    HW1 1169   1.910   2.510   0.405 -1.0031  3.5666 -2.2878
  390SOL    HW2 1170   1.947   2.364   0.478  2.0357  0.4077 -2.7075
  391SOL     OW 1171   2.030   2.069   1.273 -0.2645  0.1401  0.0231
  391SOL    HW1 1172   2.012   2.071   1.171  0.6377 -2.5612  1.3270
  391SOL    HW2 1173   2.084   1.990   1.304  1.7268  2.1527  0.5668
  392SOL     OW 1174   2.786   2.850   1.183  0.2850  0.2194 -0.2809
  392SOL    HW1 1175   2.751   2.833   1.279  0.2222  0.2739  1.9117
  392SOL    HW2 1176   2.714   2.854   1.113 -2.4139 -0.3765 -1.7853
  393SOL     OW 1177   2.211   1.839   3.073 -0.2269 -0.0481 -0.1617
  393SOL    HW1 1178   2.139   1.818   0.020  1.0754  0.3139 -4.0133
  393SOL    HW2 1179   2.171   1.830   2.980 -0.0210 -1.0528 -0.1236
  394SOL     OW 1180   3.056   0.107   2.675 -0.2675  0.2235 -0.3992
  394SOL    HW1 1181   3.022   0.136   2.768 -1.1697 -0.2830 -0.2876
  394SOL    HW2 1182   3.018   0.174   2.609 -1.4143 -0.2779 -1.5438
  395SOL     OW 1183   1.066   0.777   0.965  0.3446 -0.2623 -0.0150
  395SOL    HW1 1184   1.051   0.846   1.038  0.0371  2.7370 -1.7426
  395SOL    HW2 1185   1.025   0.808   0.876  1.2582 -0.7024  1.0619
  396SOL     OW 1186   1.232   0.810   2.922  0.0353  0.3979  0.1523
  396SOL    HW1 1187   1.203   0.814   2.826 -1.1332  2.0883 -0.8645
  396SOL    HW2 1188   1.321   0.864   2.935  0.2073 -0.1964 -0.6423
  397SOL     OW 1189   0.477   0.603   2.599  0.6831  0.0217 -0.0403
  397SOL    HW1 1190   0.456   0.687   2.544 -0.6685 -1.5481  1.9262
  397SOL    HW2 1191   0.400   0.566   2.657  2.0277  0.8902  0.3473
  398SOL     OW 1192   0.875   0.126   0.073 -0.1336  0.8237 -0.6633
  398SOL    HW1 1193   0.925   0.145   3.108  2.0648 -0.0995  1.0683
  398SOL    HW2 1194   0.808   0.049   0.059  0.0659 -0.3345 -1.4199
  399SOL     OW 1195   2.006   2.842   1.829  0.4232  0.0066  0.4655
  399SOL    HW1 1196   2.091   2.833   1.773 -0.4792 -4.0690  0.8310
  399SOL    HW2 1197   1.952   2.925   1.805  0.9868  0.9347 -1.8720
  400SOL     OW 1198   0.513   1.944   2.485 -0.0854  0.2698  0.1119
  400SOL    HW1 1199   0.507   1.843   2.505 -0.4433  2.1052  0.0282
  400SOL    HW2 1200   0.503   1.972   2.388  1.4860  2.6407 -0.1709
  401SOL     OW 1201   0.873   0.530   2.659 -0.0674 -0.3606 -0.2920
  401SOL    HW1 1202   0.941   0.462   2.633  0.9299  2.4202 -0.0205
  401SOL    HW2 1203   0.854   0.529   2.761  1.1464 -1.9298 -2.0156
  402SOL     OW 1204   3.074   2.454   2.063  0.5059  0.4059 -0.6575
  402SOL    HW1 1205   3.060   2.354   2.051 -0.0196  2.3903 -1.2594
  402SOL    HW2 1206   2.983   2.498   2.055  2.8474 -0.8690  1.8508
  403SOL     OW 1207   0.540   1.198   2.017 -0.5358  0.3142 -0.1760
  403SOL    HW1 1208   0.575   1.143   2.099 -0.1855 -1.1546  3.3881
  403SOL    HW2 1209   0.469   1.151   1.963  0.2763  3.0371 -2.2784
  404SOL     OW 1210   0.088   2.574   1.633 -0.2711 -0.4660  0.3540
  404SOL    HW1 1211   0.110   2.500   1.566 -0.5033  1.2015 -0.0487
  404SOL    HW2 1212   0.020   2.638   1.594  0.9365 -1.6236 -0.9854
  405SOL     OW 1213   0.145   0.493   1.831  0.2729  0.4258  0.0122
  405SOL    HW1 1214   0.216   0.507   1.900 -0.2352 -1.0916 -1.8099
  405SOL    HW2 1215   0.186   0.443   1.754 -0.0861 -2.8274 -0.5823
  406SOL     OW 1216   1.839   2.193   3.067 -0.2266  0.2181  0.2084
  406SOL    HW1 1217   1.902   2.167   0.023 -0.7274 -0.3871 -3.0318
  406SOL    HW2 1218   1.888   2.239   2.993 -0.9762 -1.0499 -0.7700
  407SOL     OW 1219   1.654   1.234   2.057 -0.0843 -0.2094  0.7824
  407SOL    HW1 1220   1.580   1.263   2.118 -0.5133 -0.1628 -0.2693
  407SOL    HW2 1221   1.746   1.248   2.097 -1.2468 -2.2895 -0.5997
  408SOL     OW 1222   0.597   0.149   2.783  0.1866 -0.3338  0.1213
  408SOL    HW1 1223   0.552   0.066   2.744 -0.7041 -0.4854  0.4628
  408SOL    HW2 1224   0.613   0.223   2.716 -0.7752  0.1492 -2.6737
  409SOL     OW 1225   0.157   1.987   0.450 -0.0299 -0.5794 -0.3696
  409SOL    HW1 1226   0.148   2.032   0.542 -2.3095 -0.3903 -0.8750
  409SOL    HW2 1227   0.256   1.974   0.428  0.3977 -0.3801 -1.7513
  410SOL     OW 1228   2.651   1.746   0.484  0.4455  0.4454 -0.5602
  410SOL    HW1 1229   2.656   1.841   0.444  2.4701 -0.5087 -1.6869
  410SOL    HW2 1230   2.660   1.676   0.410 -0.8929  0.9994 -2.0999
  411SOL     OW 1231   2.966   0.428   1.050  0.4575 -0.1574 -0.1495
  411SOL    HW1 1232   2.900   0.395   0.978 -0.8928 -0.3539 -0.8829
  411SOL    HW2 1233   2.991   0.351   1.118 -0.4109 -0.3349  0.9977
  412SOL     OW 1234   1.428   0.795   1.085 -0.6888 -0.2634  0.2265
  412SOL    HW1 1235   1.505   0.857   1.117  1.6038  0.7390  3.6024
  412SOL    HW2 1236   1.361   0.790   1.161 -2.5563  0.3240  1.6722
  413SOL     OW 1237   0.510   2.961   1.107  0.2668  0.3065 -0.0557
  413SOL    HW1 1238   0.574   3.024   1.057  0.1508 -0.8515 -2.5834
  413SOL    HW2 1239   0.489   2.999   1.197  1.2885  0.1163  0.2585
  414SOL     OW 1240   3.003   1.797   2.925  0.3019 -0.0929  0.4597
  414SOL    HW1 1241   2.933   1.823   2.853  0.7114 -0.8849 -0.6546
  414SOL    HW2 1242   3.039   1.878   2.982  3.1800 -1.9068  3.1967
  415SOL     OW 1243   0.369   2.434   2.833  0.1950 -0.1741 -0.6258
  415SOL    HW1 1244   0.394   2.335   2.844  0.4301  0.9642  2.2336
  415SOL    HW2 1245   0.289   2.437   2.770 -0.1176 -0.1551  3.7563
  416SOL     OW 1246   1.448   0.426   0.345 -0.3646  0.2754 -0.3409
  416SOL    HW1 1247   1.546   0.454   0.325 -1.8368  0.3871 -0.8448
  416SOL    HW2 1248   1.444   0.382   0.437 -0.1000  2.0330  0.3318
  417SOL     OW 1249   0.159   1.205   0.533  0.2978 -0.0542  0.4187
  417SOL    HW1 1250   0.241   1.173   0.487 -1.3171  0.2327  1.1070
  417SOL    HW2 1251   0.156   1.155   0.621  2.9496 -1.0920 -4.1322
  418SOL     OW 1252   2.670   1.266   2.237  0.3038  0.1173  0.2111
  418SOL    HW1 1253   2.588   1.327   2.215 -0.5893  0.2903 -0.6482
  418SOL    HW2 1254   2.696   1.269   2.339  1.6488  0.3991  2.5884
  419SOL     OW 1255   0.352   0.686   0.217 -0.7184 -0.6076  0.1341
  419SOL    HW1 1256   0.265   0.736   0.221  1.4320  0.1316 -2.4778
  419SOL    HW2 1257   0.385   0.648   0.308 -0.7360 -0.5756  0.8199
  420SOL     OW 1258   0.526   1.435   0.832  0.1184 -0.0406 -0.6045
  420SOL    HW1 1259   0.433   1.395   0.850  0.7174 -1.3165 -2.0539
  420SOL    HW2 1260   0.572   1.377   0.766 -0.7301  0.2239  0.1186
  421SOL     OW 1261   0.817   2.460   0.694  0.2704  0.1256 -0.5516
  421SOL    HW1 1262   0.875   2.396   0.750  1.4049  1.2941  2.7827
  421SOL    HW2 1263   0.871   2.544   0.671 -1.5573 -2.8177 -0.6308
  422SOL     OW 1264   3.075   0.875   1.540  0.2691 -0.2401 -0.0596
  422SOL    HW1 1265   0.041   0.925   1.516 -0.9875 -3.7044 -0.8333
  422SOL    HW2 1266   3.088   0.780   1.580 -0.5587  0.4746 -3.0115
  423SOL     OW 1267   1.365   1.492   1.378 -0.1026 -0.1465  0.3565
  423SOL    HW1 1268   1.346   1.464   1.467  1.7923  1.4764 -0.1613
  423SOL    HW2 1269   1.389   1.596   1.376  1.4558  1.0803  0.2139
  424SOL     OW 1270   2.215   1.018   2.967 -0.1304 -0.1588  0.3282
  424SOL    HW1 1271   2.244   1.065   3.055  1.2297  0.3402 -0.7882
  424SOL    HW2 1272   2.130   1.061   2.933  2.3292  0.0415  0.6438
  425SOL     OW 1273   3.040   0.344   1.891  0.2128 -0.4383 -0.7679
  425SOL    HW1 1274   0.006   0.390   1.873 -0.1586  1.4078  0.3685
  425SOL    HW2 1275   2.972   0.400   1.940  0.9920 -2.7682  0.1592
  426SOL     OW 1276   2.651   2.677   2.634 -0.6955  0.1940 -0.7182
  426SOL    HW1 1277   2.680   2.713   2.727 -0.0638 -0.3982  0.5878
  426SOL    HW2 1278   2.562   2.628   2.647 -1.8027  1.0757  1.2566
  427SOL     OW 1279   1.107   0.753   2.336 -0.0530 -0.2558  0.0027
  427SOL    HW1 1280   1.046   0.758   2.255 -1.7854 -0.2322 -1.1037
  427SOL    HW2 1281   1.208   0.747   2.317  0.1457  1.2109 -0.2617
  428SOL     OW 1282   1.982   0.935   2.075 -0.2997  0.5331  0.4921
  428SOL    HW1 1283   2.018   0.911   1.983  0.3416 -0.8548 -1.5270
  428SOL    HW2 1284   1.899   0.883   2.100  0.6864 -0.4528 -0.9888
  429SOL     OW 1285   3.087   2.835   0.430  0.6948  0.6208  0.3132
  429SOL    HW1 1286   0.038   2.817   0.506  2.1207  0.3550 -0.3948
  429SOL    HW2 1287   3.109   2.919   0.375  1.4547  0.9197 -1.2576
  430SOL     OW 1288   2.096   1.490   2.330 -0.4028 -0.0795 -0.0458
  430SOL    HW1 1289   2.188   1.440   2.324 -1.9994 -0.3763 -1.5313
  430SOL    HW2 1290   2.023   1.426   2.364 -0.5329 -0.5881  1.2577
  431SOL     OW 1291   0.279   1.955   1.235  0.0651  0.1891  0.3279
  431SOL    HW1 1292   0.198   1.983   1.181  0.1241  2.1254  0.5138
  431SOL    HW2 1293   0.365   1.997   1.204 -0.0939 -1.4396 -1.2142
  432SOL     OW 1294   1.782   0.164   2.327 -0.5329  0.1822 -0.2167
  432SOL    HW1 1295   1.761   0.148   2.429  1.2409 -2.3570  5.3442
  432SOL    HW2 1296   1.797   0.264   2.320 -2.2240  0.9247 -0.2654
  433SOL     OW 1297   1.440   2.954   1.961 -0.2155 -0.0370 -0.5283
  433SOL    HW1 1298   1.452   3.009   1.876  1.0053 -2.6899  2.5734
  433SOL    HW2 1299   1.517   2.971   2.030 -0.5636  0.4263  0.4783
  434SOL     OW 1300   0.484   2.735   2.164  0.2840 -0.6844  0.3627
  434SOL    HW1 1301   0.551   2.756   2.238  0.6076  0.9456 -0.1034
  434SOL    HW2 1302   0.482   2.636   2.139  2.5969  1.3331  0.5667
  435SOL     OW 1303   0.333   2.261   0.135 -0.2213 -0.3976 -0.0143
  435SOL    HW1 1304   0.387   2.351   0.120 -2.1542  1.7292 -0.5410
  435SOL    HW2 1305   0.399   2.183   0.147  0.9199 -0.3328  0.2840
  436SOL     OW 1306   0.507   0.717   1.888 -0.6879 -0.3264  0.3194
  436SOL    HW1 1307   0.577   0.673   1.832 -1.2341  0.0237 -1.9087
  436SOL    HW2 1308   0.442   0.771   1.828  0.1463  1.4804 -0.2368
  437SOL     OW 1309   0.643   2.791   2.379  0.3896 -0.2674 -1.2291
  437SOL    HW1 1310   0.659   2.895   2.364  2.3509  2.2126 -1.3238
  437SOL    HW2 1311   0.634   2.760   2.474 -1.6607 -2.0783 -2.2100
  438SOL     OW 1312   0.637   1.764   1.401 -0.1320  0.1203  0.4012
  438SOL    HW1 1313   0.615   1.838   1.464 -0.6234 -3.1171 -0.9531
  438SOL    HW2 1314   0.626   1.680   1.450 -0.4162  6.6065  0.9784
  439SOL     OW 1315   2.250   0.750   2.908  0.1350  0.3199  0.7120
  439SOL    HW1 1316   2.236   0.847   2.930 -0.6011 -0.8161  0.6960
  439SOL    HW2 1317   2.265   0.697   2.998  1.4007 -1.3672  1.5465
  440SOL     OW 1318   0.668   0.427   0.009 -0.0056 -0.6693 -0.3171
  440SOL    HW1 1319   0.634   0.348   0.063 -0.0476  0.2409  0.5598
  440SOL    HW2 1320   0.714   0.493   0.072 -1.7744  2.4158 -0.1936
  441SOL     OW 1321   0.828   2.431   1.540  0.4229  0.0697  0.4552
  441SOL    HW1 1322   0.789   2.507   1.482 -1.7530  0.7008 -1.1602
  441SOL    HW2 1323   0.782   2.343   1.529  1.4726  0.5362  1.4082
  442SOL     OW 1324   2.991   1.498   0.745  0.2407 -0.7753 -0.6707
  442SOL    HW1 1325   2.946   1.586   0.721 -0.5633 -1.6935  2.4727
  442SOL    HW2 1326   2.995   1.494   0.847 -0.2603 -0.4166  1.5523
  443SOL     OW 1327   2.656   2.131   2.676  0.2845  0.4862 -0.1423
  443SOL    HW1 1328   2.656   2.101   2.580 -1.2238  1.5007  2.0333
  443SOL    HW2 1329   2.687   2.058   2.738  2.5605  2.8331 -1.5160
  444SOL     OW 1330   1.773   1.086   3.003  0.0116  0.7445  0.0682
  444SOL    HW1 1331   1.854   1.134   2.957  0.4386 -0.6808 -0.9714
  444SOL    HW2 1332   1.716   1.040   2.930  1.5426  0.7423 -0.5197
  445SOL     OW 1333   2.662   2.819   1.896 -0.0848 -0.6092 -0.3626
  445SOL    HW1 1334   2.712   2.845   1.810 -0.0556 -1.4754  0.1529
  445SOL    HW2 1335   2.561   2.811   1.879 -2.0566 -1.4063  0.5057
  446SOL     OW 1336   0.112   1.138   1.246  0.0960 -0.4352  0.0321
  446SOL    HW1 1337   0.170   1.202   1.192  2.0494  2.5773  1.2649
  446SOL    HW2 1338   0.017   1.170   1.260 -0.6913 -0.0181  0.3291
  447SOL     OW 1339   1.015   2.053   1.120  0.2030 -0.0743  0.6154
  447SOL    HW1 1340   0.995   2.068   1.219 -2.8290  0.3335 -2.4333
  447SOL    HW2 1341   0.933   2.032   1.067  0.5851  1.2602  0.7349
  448SOL     OW 1342   1.387   1.009   1.746 -0.2704  0.0254 -0.1323
  448SOL    HW1 1343   1.448   0.986   1.666 -0.0416 -0.1726  0.4755
  448SOL    HW2 1344   1.322   0.934   1.761  0.2611  1.2483 -0.1787
  449SOL     OW 1345   2.884   2.170   2.298  0.0530  0.3494  0.2326
  449SOL    HW1 1346   2.842   2.261   2.319 -0.1057  0.5266 -1.2077
  449SOL    HW2 1347   2.927   2.169   2.205  1.2581  0.1832 -0.1070
  450SOL     OW 1348   0.107   1.766   1.728  0.2955 -0.3980  0.0336
  450SOL    HW1 1349   0.007   1.773   1.714  0.4046 -3.8504 -1.0581
  450SOL    HW2 1350   0.125   1.705   1.805  0.7426 -1.2352  0.5238
  451SOL     OW 1351   2.248   0.511   1.226  0.1111 -0.1512 -0.1567
  451SOL    HW1 1352   2.263   0.604   1.265  0.4867 -0.3797 -0.9270
  451SOL    HW2 1353   2.175   0.507   1.152 -0.4820 -1.4552  0.0200
  452SOL     OW 1354   0.663   1.319   0.616  0.0242 -0.2253 -0.0274
  452SOL    HW1 1355   0.637   1.235   0.667 -0.4378  1.6077 -2.6751
  452SOL    HW2 1356   0.758   1.350   0.630 -0.2448  2.5374 -0.0638
  453SOL     OW 1357   1.550   1.994   0.627 -0.0416  0.1721  0.2416
  453SOL    HW1 1358   1.447   2.018   0.627 -3.8463  1.4954  0.9622
  453SOL    HW2 1359   1.601   2.066   0.675 -1.6431 -3.0244 -0.8131
  454SOL     OW 1360   0.583   1.796   0.014 -0.7330  0.0374 -0.0806
  454SOL    HW1 1361   0.607   1.732   3.055 -0.4086 -1.5346 -0.7690
  454SOL    HW2 1362   0.515   1.746   0.068  0.0079  1.1248 -3.5986
  455SOL     OW 1363   1.184   1.024   0.438 -0.0474  0.4398  0.4239
  455SOL    HW1 1364   1.094   0.979   0.445  0.7987  1.8267  3.8039
  455SOL    HW2 1365   1.218   1.056   0.528  0.1992  0.8058 -0.1314
  456SOL     OW 1366   2.143   2.311   1.235 -0.4470  0.4117 -0.0636
  456SOL    HW1 1367   2.087   2.232   1.272 -0.3313  0.0975  0.9303
  456SOL    HW2 1368   2.105   2.403   1.252  0.8878 -0.4690 -2.0542
  457SOL     OW 1369   1.931   3.086   2.968 -0.2003  0.5537 -0.3058
  457SOL    HW1 1370   1.948   3.034   3.057  0.1091 -2.4462 -1.7201
  457SOL    HW2 1371   1.953   3.025   2.883  0.7833 -0.5834 -0.9665
  458SOL     OW 1372   2.596   0.916   0.396  0.0409 -0.3212  0.2182
  458SOL    HW1 1373   2.565   0.828   0.435 -1.3328  1.2720  1.7043
  458SOL    HW2 1374   2.515   0.967   0.361  2.7097  0.8074 -0.7533
  459SOL     OW 1375   2.991   0.332   2.525 -0.2640 -0.0735  0.0715
  459SOL    HW1 1376   3.031   0.426   2.517  0.9796 -1.9116  1.7332
  459SOL    HW2 1377   2.892   0.338   2.502 -0.9600  0.7383  2.1852
  460SOL     OW 1378   2.838   0.805   2.853  0.2827 -0.1481  0.6596
  460SOL    HW1 1379   2.746   0.845   2.846  0.6573 -1.8576 -2.6460
  460SOL    HW2 1380   2.903   0.881   2.833 -0.9300 -1.1602 -0.5617
  461SOL     OW 1381   2.841   2.523   0.846  0.0949  0.4814 -0.0866
  461SOL    HW1 1382   2.871   2.558   0.937  0.3170 -1.2418  1.2453
  461SOL    HW2 1383   2.836   2.418   0.848 -0.9327 -3.5769  1.4889
  462SOL     OW 1384   3.011   3.014   1.674  0.1430 -0.1451  0.2612
  462SOL    HW1 1385   2.980   3.111   1.667  1.0272 -0.7381 -1.3926
  462SOL    HW2 1386   3.106   3.012   1.709  2.2845  0.5866 -1.1638
  463SOL     OW 1387   2.355   1.862   2.570 -0.1043  0.3723  0.5670
  463SOL    HW1 1388   2.394   1.868   2.665 -1.5715 -2.0714  1.1306
  463SOL    HW2 1389   2.275   1.799   2.572 -0.1178  0.2142 -0.8037
  464SOL     OW 1390   0.607   2.871   1.425  0.3955  0.2488  0.2299
  464SOL    HW1 1391   0.665   2.875   1.503 -1.5707 -0.5028 -1.5100
  464SOL    HW2 1392   0.572   2.964   1.397 -0.7086  1.6535  1.0866
  465SOL     OW 1393   0.700   0.211   1.542  0.3952 -0.0123  0.0308
  465SOL    HW1 1394   0.629   0.218   1.467  1.4353 -1.2486  0.6557
  465SOL    HW2 1395   0.665   0.251   1.631  1.1003  0.3183  1.2278
  466SOL     OW 1396   1.477   2.664   1.883 -0.6247 -0.1585 -0.2981
  466SOL    HW1 1397   1.535   2.598   1.937  2.0066 -0.2466  0.9415
  466SOL    HW2 1398   1.503   2.754   1.918  1.5719 -1.3785  0.2470
  467SOL     OW 1399   0.672   2.063   1.228 -0.0383  0.1989  0.8754
  467SOL    HW1 1400   0.678   1.962   1.227  0.9781 -0.3307 -0.0891
  467SOL    HW2 1401   0.584   2.097   1.194 -1.0408  0.4003  1.3373
  468SOL     OW 1402   2.454   1.526   2.547  0.0404 -0.0599 -0.2079
  468SOL    HW1 1403   2.472   1.524   2.450 -0.0930 -0.9119  2.7014
  468SOL    HW2 1404   2.357   1.499   2.572 -0.6878 -1.5891 -0.4326
  469SOL     OW 1405   1.053   1.890   0.544  0.6397 -0.8050  0.0161
  469SOL    HW1 1406   1.078   1.803   0.499  2.6665  0.8506  0.0846
  469SOL    HW2 1407   1.015   1.885   0.643  0.6020  1.7218  1.6193
  470SOL     OW 1408   2.306   1.243   1.503 -0.1017  0.0006  0.2259
  470SOL    HW1 1409   2.335   1.336   1.520  1.1881 -0.9016 -2.9085
  470SOL    HW2 1410   2.212   1.231   1.547 -2.8932 -2.8229 -0.6397
  471SOL     OW 1411   0.441   2.636   2.975 -0.0850  0.2002  0.4833
  471SOL    HW1 1412   0.414   2.559   2.904 -2.0189 -2.6230 -1.3448
  471SOL    HW2 1413   0.535   2.632   3.010  0.8175 -2.1128  1.7112
  472SOL     OW 1414   2.820   1.982   2.002  0.2025 -0.3479  0.2067
  472SOL    HW1 1415   2.830   1.886   1.988  0.4883  1.5952  0.9192
  472SOL    HW2 1416   2.726   2.014   1.987  2.8956 -2.0310 -0.0427
  473SOL     OW 1417   1.133   3.012   0.136 -0.1849  0.3309  0.5481
  473SOL    HW1 1418   1.127   2.957   0.221  1.7227 -1.4001 -0.3790
  473SOL    HW2 1419   1.048   3.006   0.079  2.2220  1.5667  1.7681
  474SOL     OW 1420   2.635   2.693   0.810  0.4982  0.3107  0.3083
  474SOL    HW1 1421   2.635   2.749   0.724 -0.4307 -0.4899  1.9230
  474SOL    HW2 1422   2.713   2.624   0.811  0.4510  1.0240  2.2151
  475SOL     OW 1423   1.935   2.586   1.716 -0.1672 -0.3686 -0.2263
  475SOL    HW1 1424   2.005   2.566   1.643 -1.6446 -0.7056 -2.6090
  475SOL    HW2 1425   1.968   2.645   1.788 -0.0055  0.4822 -0.7222
  476SOL     OW 1426   0.700   0.852   0.807  0.6552 -0.0216  0.0887
  476SOL    HW1 1427   0.614   0.808   0.768 -1.1056 -3.0993  1.4974
  476SOL    HW2 1428   0.693   0.859   0.907  1.4823 -2.2415 -1.1374
  477SOL     OW 1429   0.651   2.179   0.755 -0.7449  0.1043 -0.2682
  477SOL    HW1 1430   0.604   2.270   0.749  1.6133 -1.0277 -0.7081
  477SOL    HW2 1431   0.666   2.124   0.671 -0.4248 -1.8239  0.9633
  478SOL     OW 1432   0.067   2.491   2.322 -0.5650 -0.3839  0.2078
  478SOL    HW1 1433   0.025   2.454   2.405  0.3793  1.3957 -3.1630
  478SOL    HW2 1434   0.008   2.473   2.238 -1.3340  2.7083 -2.8733
  479SOL     OW 1435   0.005   0.641   1.662 -0.0736 -0.5977  0.0380
  479SOL    HW1 1436   0.066   0.606   1.742  0.4283 -0.0809  0.2663
  479SOL    HW2 1437   0.006   0.569   1.587  1.5299 -0.0880  0.8446
  480SOL     OW 1438   3.081   2.453   3.071  0.2398 -0.2042  0.9052
  480SOL    HW1 1439   3.092   2.373   3.010 -0.2312 -0.5988 -1.1155
  480SOL    HW2 1440   3.034   2.433   0.041 -0.4807  2.5824 -0.2357
  481SOL     OW 1441   2.016   1.855   2.318  0.0356 -0.1322  0.0480
  481SOL    HW1 1442   2.023   1.809   2.406 -1.7412  1.5820  1.3286
  481SOL    HW2 1443   2.065   1.807   2.245 -2.2977 -0.9333  0.3324
  482SOL     OW 1444   1.617   2.262   0.069 -0.2221  0.0190 -0.7163
  482SOL    HW1 1445   1.534   2.263   0.017  0.8660 -0.4888  0.3640
  482SOL    HW2 1446   1.700   2.230   0.011 -1.9465  0.8278  0.4988
  483SOL     OW 1447   0.497   2.116   2.222  0.4306 -0.3729  0.4210
  483SOL    HW1 1448   0.495   2.116   2.114  1.1438  1.4925 -1.3484
  483SOL    HW2 1449   0.431   2.187   2.261 -1.4167 -0.9930  1.3095
  484SOL     OW 1450   3.074   0.624   1.209  0.5331 -0.0174  0.2319
  484SOL    HW1 1451   3.021   0.569   1.140  1.2277  2.1677  1.8693
  484SOL    HW2 1452   3.011   0.693   1.252  0.0297 -1.0805  0.8976
  485SOL     OW 1453   2.294   1.024   0.647 -0.2191 -0.2213 -0.6370
  485SOL    HW1 1454   2.276   0.926   0.637 -0.6045  1.4550  1.3230
  485SOL    HW2 1455   2.221   1.088   0.613 -1.4148 -0.1245  1.2430
  486SOL     OW 1456   1.454   0.224   2.265 -0.2554 -0.0185  0.1700
  486SOL    HW1 1457   1.492   0.254   2.173  0.2858 -1.3576 -1.6118
  486SOL    HW2 1458   1.497   0.134   2.286  2.6443  0.9032 -1.2502
  487SOL     OW 1459   1.136   1.481   1.064 -0.3652  0.2603 -0.5625
  487SOL    HW1 1460   1.095   1.389   1.055  1.5168  0.1693  0.5943
  487SOL    HW2 1461   1.227   1.484   1.025 -0.7914 -1.0180  1.1932
  488SOL     OW 1462   2.312   1.464   3.086  0.2823 -0.4299  0.7241
  488SOL    HW1 1463   2.298   1.512   2.996  0.0599  1.1485 -1.4260
  488SOL    HW2 1464   2.402   1.485   0.008 -1.3151 -1.0702  0.1766
  489SOL     OW 1465   2.320   0.310   0.294  0.1349 -0.6100  0.5962
  489SOL    HW1 1466   2.398   0.325   0.358  0.1600  1.9301  0.2859
  489SOL    HW2 1467   2.353   0.312   0.198 -0.1301 -0.1298  0.3049
  490SOL     OW 1468   1.581   2.602   0.479  0.1580  0.0502  0.1206
  490SOL    HW1 1469   1.647   2.675   0.447 -1.0277 -1.0327 -3.6340
  490SOL    HW2 1470   1.575   2.523   0.414 -0.3046 -0.9943  1.0280
  491SOL     OW 1471   0.953   0.882   0.742  0.2311  0.3824 -0.3326
  491SOL    HW1 1472   0.853   0.871   0.771  1.6561  1.6417 -1.7790
  491SOL    HW2 1473   0.965   0.850   0.642  0.1689 -2.0731 -1.3469
  492SOL     OW 1474   1.712   0.135   3.105 -0.1648  0.2645 -0.1987
  492SOL    HW1 1475   1.800   0.092   3.074  0.1027  1.6109 -1.6631
  492SOL    HW2 1476   1.642   0.114   3.030 -1.7604  0.6397  1.7145
  493SOL     OW 1477   1.989   2.180   0.184  0.4311  0.2728 -0.5303
  493SOL    HW1 1478   2.039   2.237   0.251  0.3430 -0.8190  0.7386
  493SOL    HW2 1479   1.899   2.144   0.219 -2.1809  2.6568  0.5116
  494SOL     OW 1480   0.383   1.106   0.367  0.5571  0.0764 -0.3835
  494SOL    HW1 1481   0.473   1.156   0.371  0.8120  3.3065  1.6201
  494SOL    HW2 1482   0.348   1.096   0.273 -0.9048  2.4007 -2.4751
  495SOL     OW 1483   2.882   2.849   0.851  0.2733  0.1996  0.4448
  495SOL    HW1 1484   2.885   2.768   0.917  1.5638 -1.2986  2.0071
  495SOL    HW2 1485   2.935   2.830   0.765  0.6186  1.4129 -1.6486
  496SOL     OW 1486   2.307   0.189   1.622  0.1737 -0.3913  0.1071
  496SOL    HW1 1487   2.393   0.191   1.566  1.6238  1.5588 -1.2593
  496SOL    HW2 1488   2.252   0.273   1.612  2.2688 -1.9929  1.7293
  497SOL     OW 1489   1.931   1.614   2.689  0.0676  0.1995 -0.3189
  497SOL    HW1 1490   1.940   1.537   2.760 -0.6620 -0.3097  0.8479
  497SOL    HW2 1491   1.836   1.625   2.657  1.8203 -2.3002  1.0402
  498SOL     OW 1492   0.955   1.873   0.793  0.6799 -0.3388 -0.0581
  498SOL    HW1 1493   0.885   1.925   0.843  0.7763 -1.2841  1.3804
  498SOL    HW2 1494   0.927   1.778   0.800  1.3679  0.5202 -0.3476
  499SOL     OW 1495   0.716   2.198   1.469  0.2332 -0.4434 -0.3856
  499SOL    HW1 1496   0.700   2.154   1.379 -1.6573  0.8000  0.5222
  499SOL    HW2 1497   0.624   2.202   1.521 -2.7735  1.5901  2.6868
  500SOL     OW 1498   1.064   2.044   0.077  0.9192 -0.3476  0.0481
  500SOL    HW1 1499   1.021   2.004   0.160  2.9738 -0.2417 -0.3554
  500SOL    HW2 1500   1.126   2.120   0.109 -2.0692  1.2384  0.6194
  501SOL     OW 1501   2.593   2.921   1.504  0.0215  0.2446  0.3666
  501SOL    HW1 1502   2.539   2.934   1.588 -0.0357 -1.7641 -1.7331
  501SOL    HW2 1503   2.552   2.849   1.437 -2.5089 -2.9620 -2.2967
  502SOL     OW 1504   0.344   0.807   1.703  0.3274  0.4129 -0.1766
  502SOL    HW1 1505   0.259   0.755   1.675  1.3934  0.6660 -0.2947
  502SOL    HW2 1506   0.396   0.838   1.619  0.7884  0.3846  0.0261
  503SOL     OW 1507   1.953   0.819   1.582 -0.0479 -0.0022 -0.2073
  503SOL    HW1 1508   2.052   0.794   1.587 -2.7386  0.1248 -0.1852
  503SOL    HW2 1509   1.928   0.828   1.485 -0.6046 -1.4753  3.9124
  504SOL     OW 1510   1.352   0.679   2.243 -0.0672  0.3289 -0.1500
  504SOL    HW1 1511   1.432   0.666   2.309 -3.7482 -1.5015 -1.6397
  504SOL    HW2 1512   1.381   0.712   2.151 -1.8468  1.0046  2.7509
  505SOL     OW 1513   0.651   3.073   2.436 -0.1289 -0.4119  0.6071
  505SOL    HW1 1514   0.737   3.100   2.486  0.9528 -0.4154 -1.9008
  505SOL    HW2 1515   0.575   3.061   2.504  0.9249  2.3357  0.1302
  506SOL     OW 1516   0.332   0.479   1.426  0.6236  0.0499  0.5897
  506SOL    HW1 1517   0.354   0.442   1.521 -0.5891  0.8631  3.1713
  506SOL    HW2 1518   0.230   0.495   1.420  2.4779  0.0089  1.3817
  507SOL     OW 1519   1.511   0.061   2.908 -0.6556  0.6386 -0.2468
  507SOL    HW1 1520   1.450   3.114   2.956 -1.9393  0.7551  1.0354
  507SOL    HW2 1521   1.558   0.013   2.836  2.0761  1.3631  0.1923
  508SOL     OW 1522   2.131   0.380   2.403 -0.2645 -0.6371 -0.1131
  508SOL    HW1 1523   2.213   0.406   2.356  0.1665  0.1718  0.4520
  508SOL    HW2 1524   2.107   0.281   2.398 -0.2785  0.4810  2.0600
  509SOL     OW 1525   0.873   1.470   1.937  0.0606 -0.3566  0.6574
  509SOL    HW1 1526   0.850   1.425   2.022 -0.7340  1.7040 -1.8890
  509SOL    HW2 1527   0.935   1.547   1.949 -0.4435  1.3885  1.2842
  510SOL     OW 1528   3.060   1.189   0.913 -0.1086 -0.0684  0.5617
  510SOL    HW1 1529   2.983   1.230   0.862  2.5831 -2.7932  0.9212
  510SOL    HW2 1530   3.070   1.224   1.007  2.3362 -1.7733 -1.0013
  511SOL     OW 1531   1.821   1.784   0.934 -0.2650  0.5229 -0.2923
  511SOL    HW1 1532   1.779   1.773   0.844 -2.7405  0.6030 -2.1607
  511SOL    HW2 1533   1.898   1.718   0.953 -1.6467 -2.9462  0.6652
  512SOL     OW 1534   0.652   1.226   0.340  0.1656  0.1711 -0.0785
  512SOL    HW1 1535   0.626   1.314   0.293  0.8676  0.9899 -1.3687
  512SOL    HW2 1536   0.679   1.247   0.438  0.7044  1.1409  0.1965
  513SOL     OW 1537   0.548   2.401   0.621  0.0607  0.1881 -0.3868
  513SOL    HW1 1538   0.482   2.454   0.561 -1.5006  1.4845 -1.9093
  513SOL    HW2 1539   0.644   2.427   0.609  1.6219 -0.8460  0.6509
  514SOL     OW 1540   2.623   2.092   2.394  0.5307  0.0896 -0.4972
  514SOL    HW1 1541   2.523   2.113   2.391  0.4351 -1.6212 -0.5876
  514SOL    HW2 1542   2.675   2.139   2.318 -1.0249  0.2148 -1.6253
  515SOL     OW 1543   2.529   0.715   3.064 -0.3533 -0.1506  0.5434
  515SOL    HW1 1544   2.451   0.648   3.073 -0.2692 -0.1825 -1.0104
  515SOL    HW2 1545   2.575   0.739   0.033  3.4489 -1.0621  2.2941
  516SOL     OW 1546   1.775   3.067   0.714  0.0569  0.3269  0.0867
  516SOL    HW1 1547   1.850   3.015   0.760 -1.0712 -0.6008 -0.2387
  516SOL    HW2 1548   1.694   3.008   0.695 -1.5594 -2.0974 -1.9421
  517SOL     OW 1549   1.274   2.169   2.802  0.0436  0.0255  0.2516
  517SOL    HW1 1550   1.200   2.101   2.824  1.0765 -1.3822 -1.9586
  517SOL    HW2 1551   1.361   2.127   2.770  0.4698 -1.3015 -0.4966
  518SOL     OW 1552   0.897   0.835   1.840 -0.3226  0.1617 -0.1452
  518SOL    HW1 1553   0.966   0.763   1.856 -0.5287 -2.0621  0.4171
  518SOL    HW2 1554   0.917   0.920   1.891  1.7914  0.4867 -0.7916
  519SOL     OW 1555   0.028   1.487   0.127 -0.4337  0.2131 -0.5452
  519SOL    HW1 1556   0.079   1.573   0.104 -1.0588 -0.3787 -0.0095
  519SOL    HW2 1557   3.053   1.506   0.158  0.3941 -0.7849 -0.4775
  520SOL     OW 1558   2.176   2.035   2.024  0.0804 -0.6230  0.0726
  520SOL    HW1 1559   2.239   2.116   2.009  1.1143  1.1135  0.8941
  520SOL    HW2 1560   2.219   1.961   2.079 -0.5766 -1.3593  0.0015
  521SOL     OW 1561   1.028   2.743   2.467 -0.3921  0.3267  0.4620
  521SOL    HW1 1562   0.980   2.736   2.379 -1.1329  1.0455  0.6237
  521SOL    HW2 1563   1.098   2.666   2.466  0.2985  0.2956  1.5034
  522SOL     OW 1564   2.159   0.234   2.061 -0.1208  0.2462 -0.1246
  522SOL    HW1 1565   2.180   0.177   1.982  3.4949  0.9917 -1.2802
  522SOL    HW2 1566   2.247   0.238   2.111 -0.6100  0.6192 -2.0200
  523SOL     OW 1567   1.631   2.119   1.241  0.3060 -0.1833 -0.0297
  523SOL    HW1 1568   1.537   2.152   1.232  2.5748  0.1895  0.6580
  523SOL    HW2 1569   1.698   2.190   1.269 -0.1945 -0.1761  2.5508
  524SOL     OW 1570   1.284   2.190   0.164  0.1200  0.3213  0.3214
  524SOL    HW1 1571   1.276   2.241   0.247 -1.2245 -1.0407 -0.5153
  524SOL    HW2 1572   1.311   2.240   0.076  0.7477  1.0463  1.0742
  525SOL     OW 1573   0.061   0.633   3.096  0.1414 -0.2926 -0.3392
  525SOL    HW1 1574   0.009   0.568   3.039  0.0954  3.0383  1.7144
  525SOL    HW2 1575   0.065   0.609   0.075  0.5853 -0.9438  0.2869
  526SOL     OW 1576   1.119   2.818   0.333 -0.2520  0.3414  0.4014
  526SOL    HW1 1577   1.047   2.748   0.339  2.9616  2.9257  0.8338
  526SOL    HW2 1578   1.196   2.798   0.391 -2.6176 -1.4664 -1.6072
  527SOL     OW 1579   2.781   1.687   0.733  0.0620 -0.1020  0.2348
  527SOL    HW1 1580   2.746   1.680   0.830  2.1311 -0.5085  0.5762
  527SOL    HW2 1581   2.706   1.714   0.666 -1.1296  2.1855  0.9755
  528SOL     OW 1582   0.427   0.914   2.251  0.2577 -0.9713  0.2319
  528SOL    HW1 1583   0.344   0.866   2.223  0.0802  2.2311  2.3941
  528SOL    HW2 1584   0.494   0.910   2.171 -4.0648 -1.0633  1.7216
  529SOL     OW 1585   1.661   1.653   2.632  0.4444 -0.5643 -0.1024
  529SOL    HW1 1586   1.592   1.578   2.622  1.9254 -0.7774  0.9198
  529SOL    HW2 1587   1.648   1.722   2.559  2.1004  4.1287  0.5108
  530SOL     OW 1588   1.910   1.036   2.453  0.2808 -0.0744 -0.1570
  530SOL    HW1 1589   1.829   0.986   2.420  0.0265 -2.0324  2.7583
  530SOL    HW2 1590   1.918   1.135   2.424  1.9873  1.4984  1.4232
  531SOL     OW 1591   0.542   2.515   2.623  0.6349  0.3080 -0.5478
  531SOL    HW1 1592   0.514   2.500   2.522 -2.1401 -2.0750  1.2932
  531SOL    HW2 1593   0.461   2.501   2.686  1.5575  0.2910  2.7449
  532SOL     OW 1594   2.460   1.242   0.570 -0.0480 -0.1630  0.5034
  532SOL    HW1 1595   2.400   1.279   0.494  2.1130  0.8419  0.0989
  532SOL    HW2 1596   2.419   1.153   0.606  2.4132  2.4203 -0.4018
  533SOL     OW 1597   2.973   0.157   1.694 -0.3700  0.3430 -0.0551
  533SOL    HW1 1598   3.015   0.215   1.763  1.4566 -1.1994 -2.5526
  533SOL    HW2 1599   2.978   0.207   1.607 -0.2290  0.7985  0.3230
  534SOL     OW 1600   0.714   3.009   2.930  0.7093  0.2301  0.1593
  534SOL    HW1 1601   0.719   3.107   2.896 -1.3612  2.3959  1.8881
  534SOL    HW2 1602   0.618   3.001   2.963 -2.1181 -0.6258  2.7723
  535SOL     OW 1603   0.273   0.242   0.184 -0.2383 -0.8794 -0.1029
  535SOL    HW1 1604   0.238   0.207   0.094 -2.5157 -0.6261 -2.9172
  535SOL    HW2 1605   0.247   0.174   0.255 -1.3552 -0.3360  0.8275
  536SOL     OW 1606   0.651   1.807   1.112  0.4632  0.2147  0.1762
  536SOL    HW1 1607   0.620   1.771   1.201  1.1323  1.2692 -2.9601
  536SOL    HW2 1608   0.646   1.730   1.048 -0.6843 -0.8959  3.6925
  537SOL     OW 1609   0.927   2.701   1.884 -0.5466 -0.3324 -0.4902
  537SOL    HW1 1610   0.945   2.785   1.941 -1.6784  1.4818  0.3547
  537SOL    HW2 1611   0.988   2.617   1.908  3.6485 -0.3112 -0.8487
  538SOL     OW 1612   0.037   2.018   3.021  0.2518 -0.2870  0.1999
  538SOL    HW1 1613   0.062   2.028   3.119 -1.2309 -0.7523 -1.4582
  538SOL    HW2 1614   0.123   2.003   2.968  1.5299  0.1107 -0.0588
  539SOL     OW 1615   2.937   1.123   2.612 -0.1699 -0.6601 -0.0605
  539SOL    HW1 1616   2.963   1.084   2.700  0.5067  0.6710 -2.6410
  539SOL    HW2 1617   2.986   1.079   2.532 -0.9059  2.7696 -0.6068
  540SOL     OW 1618   1.788   0.434   2.297  0.1531 -0.2467  0.3871
  540SOL    HW1 1619   1.712   0.497   2.310  0.7881 -1.9984 -1.9004
  540SOL    HW2 1620   1.864   0.437   2.366  0.3499 -0.4786 -1.0299
  541SOL     OW 1621   0.551   0.419   2.181  0.1125  0.2312 -0.1011
  541SOL    HW1 1622   0.525   0.343   2.245 -0.6914  0.0097 -0.0791
  541SOL    HW2 1623   0.486   0.433   2.100  0.2471 -0.1737 -0.2137
  542SOL     OW 1624   1.973   2.961   0.088  0.6545 -0.2150 -0.3888
  542SOL    HW1 1625   1.894   2.948   0.151  0.3245 -0.2958  3.0932
  542SOL    HW2 1626   2.042   3.008   0.144 -1.2200  0.4184 -1.4296
  543SOL     OW 1627   1.331   0.058   0.229  0.0261  0.3482 -0.1063
  543SOL    HW1 1628   1.297   0.155   0.213  1.6827  2.5309  3.2334
  543SOL    HW2 1629   1.258   3.112   0.203  0.8885  1.5865  1.3540
  544SOL     OW 1630   2.668   1.633   1.783  0.1770 -0.5307 -0.0956
  544SOL    HW1 1631   2.658   1.533   1.781  2.5445  0.4290  0.3238
  544SOL    HW2 1632   2.672   1.662   1.685  1.5791 -2.0790 -0.5889
  545SOL     OW 1633   2.164   1.850   1.386 -0.1160 -1.1486  0.0796
  545SOL    HW1 1634   2.251   1.854   1.327  1.5776  0.4206  2.4243
  545SOL    HW2 1635   2.177   1.774   1.458  0.3634  0.4128  4.6434
  546SOL     OW 1636   0.439   0.094   2.120  0.2524  0.0668  0.6560
  546SOL    HW1 1637   0.353   0.151   2.134 -0.5852  1.6978  0.2101
  546SOL    HW2 1638   0.419   0.039   2.038  1.2424 -0.9002  1.8583
  547SOL     OW 1639   1.483   0.759   0.601 -0.6495  0.0319 -0.1301
  547SOL    HW1 1640   1.427   0.753   0.687 -1.8141 -0.7580  2.8039
  547SOL    HW2 1641   1.550   0.683   0.603 -2.3756  0.8411 -0.0427
  548SOL     OW 1642   1.580   2.395   2.660 -0.4419 -0.1630  0.3844
  548SOL    HW1 1643   1.557   2.438   2.574  2.4177 -1.3153  2.0253
  548SOL    HW2 1644   1.564   2.293   2.673  2.4471  2.5242  1.5153
  549SOL     OW 1645   2.049   0.733   0.317  0.2097 -0.2176 -0.5894
  549SOL    HW1 1646   2.143   0.767   0.331  0.6606 -2.5604 -1.2744
  549SOL    HW2 1647   2.032   0.737   0.219  0.5869 -0.6256  0.5239
  550SOL     OW 1648   2.986   2.128   0.617 -0.1023  0.3886  0.1655
  550SOL    HW1 1649   2.931   2.185   0.682 -0.9497  0.8789  2.5895
  550SOL    HW2 1650   2.986   2.030   0.653 -1.2993 -1.0257  2.1450
  551SOL     OW 1651   1.292   2.590   2.156 -0.1169  0.4787  0.5470
  551SOL    HW1 1652   1.323   2.678   2.203  0.0791  1.5311 -2.6618
  551SOL    HW2 1653   1.350   2.513   2.196  1.8590 -2.5403 -2.5825
  552SOL     OW 1654   3.069   2.427   2.562  0.3042  0.2689  0.5130
  552SOL    HW1 1655   3.031   2.341   2.602 -0.1873 -2.6664  2.2052
  552SOL    HW2 1656   2.998   2.489   2.524 -2.3379 -0.6376  3.2829
  553SOL     OW 1657   0.097   0.356   0.854 -0.3599  0.5716 -0.3907
  553SOL    HW1 1658   0.124   0.362   0.949 -2.7424  0.8458 -0.6302
  553SOL    HW2 1659   0.062   0.261   0.830  1.8309 -0.6679  0.3852
  554SOL     OW 1660   2.306   2.268   1.613 -0.5943 -0.2587 -0.0996
  554SOL    HW1 1661   2.217   2.298   1.573 -0.6805 -1.6271 -1.1882
  554SOL    HW2 1662   2.292   2.260   1.715 -1.7033  0.7319  3.2595
  555SOL     OW 1663   1.700   2.267   2.241  0.2457  0.2640 -0.9070
  555SOL    HW1 1664   1.761   2.206   2.297 -2.0476  1.1651  1.9253
  555SOL    HW2 1665   1.738   2.362   2.253  0.8235 -0.5215 -1.0235
  556SOL     OW 1666   1.276   1.218   1.389  0.0608  0.0815  0.7278
  556SOL    HW1 1667   1.301   1.302   1.330 -4.1484 -1.6247 -2.5022
  556SOL    HW2 1668   1.178   1.223   1.408  0.1673  0.5462 -0.2704
  557SOL     OW 1669   2.081   2.489   2.320  0.4871  0.4208 -0.0703
  557SOL    HW1 1670   2.072   2.410   2.383  2.8553  0.8705 -1.4766
  557SOL    HW2 1671   2.164   2.546   2.344  0.5233  5.1691  1.0004
  558SOL     OW 1672   0.134   3.057   1.789  0.4930 -0.9292 -0.4494
  558SOL    HW1 1673   0.183   2.975   1.756 -1.8286  2.7885 -0.8130
  558SOL    HW2 1674   0.135   3.057   1.894  1.5060 -0.6005  3.4949
  559SOL     OW 1675   2.176   3.117   0.640 -0.3516  0.3512  0.3287
  559SOL    HW1 1676   2.205   3.030   0.597  1.1107 -0.2783 -1.3999
  559SOL    HW2 1677   2.102   3.098   0.711 -0.8524 -0.6036  2.5105
  560SOL     OW 1678   1.699   2.694   0.832 -0.0162  0.0667  0.2173
  560SOL    HW1 1679   1.629   2.624   0.856  1.2454  0.2631 -1.1495
  560SOL    HW2 1680   1.653   2.769   0.773  1.7525  1.9442  1.3589
  561SOL     OW 1681   1.040   0.084   0.956  0.6548 -0.6527  0.5507
  561SOL    HW1 1682   1.070   0.118   0.867 -0.9521  1.7872 -0.1607
  561SOL    HW2 1683   1.097   0.128   1.030  1.0785 -0.6541 -2.3600
  562SOL     OW 1684   0.436   0.859   2.521 -0.0005 -0.6573  0.3550
  562SOL    HW1 1685   0.434   0.853   2.421 -3.3157  0.4863 -2.1744
  562SOL    HW2 1686   0.422   0.960   2.550  2.3570  2.3811  0.6945
  563SOL     OW 1687   1.576   1.898   2.488  0.2161 -0.4390 -0.0992
  563SOL    HW1 1688   1.590   1.966   2.566 -0.9209 -0.0863  1.7341
  563SOL    HW2 1689   1.480   1.883   2.466  0.8891 -1.6174  1.8634
  564SOL     OW 1690   2.775   1.022   1.165  0.3392  0.2804 -0.4141
  564SOL    HW1 1691   2.700   1.026   1.235 -1.2465  0.1694 -1.2152
  564SOL    HW2 1692   2.729   1.030   1.073 -0.3088  2.0065  1.4660
  565SOL     OW 1693   1.022   0.892   3.093  0.8129  0.7489 -0.5701
  565SOL    HW1 1694   1.107   0.880   3.036  1.0543 -0.5300  0.0844
  565SOL    HW2 1695   0.938   0.877   3.036  1.5148  2.6716 -2.7301
  566SOL     OW 1696   2.314   0.226   2.806  0.5411  0.2567  0.0001
  566SOL    HW1 1697   2.296   0.144   2.753  2.4842  0.5527  0.9193
  566SOL    HW2 1698   2.258   0.307   2.780 -2.4583  2.0044  0.7069
  567SOL     OW 1699   2.093   1.152   0.537 -0.2058 -0.6741  0.6679
  567SOL    HW1 1700   2.044   1.227   0.598  1.9273  3.5649  4.3052
  567SOL    HW2 1701   2.023   1.084   0.503  3.1904 -1.9162 -1.6279
  568SOL     OW 1702   1.735   1.760   2.886 -0.2629 -0.1115  0.1284
  568SOL    HW1 1703   1.665   1.760   2.964 -2.0290 -0.0385  1.8536
  568SOL    HW2 1704   1.684   1.741   2.802  1.0213 -0.2556 -0.6947
  569SOL     OW 1705   2.048   1.385   3.094  0.1218 -0.2838  0.4624
  569SOL    HW1 1706   2.008   1.465   3.045  0.4104  0.2226 -4.0245
  569SOL    HW2 1707   2.146   1.408   3.114 -0.1062 -1.1400 -2.6868
  570SOL     OW 1708   0.544   2.409   1.793  0.4625 -0.3523  0.2756
  570SOL    HW1 1709   0.555   2.499   1.747 -3.3563 -0.9028 -0.9945
  570SOL    HW2 1710   0.627   2.395   1.851  0.0125  0.4269 -0.1671
  571SOL     OW 1711   0.346   1.036   1.886  0.6776  0.6976  0.1709
  571SOL    HW1 1712   0.352   0.975   1.811  0.5228  0.6626 -0.2809
  571SOL    HW2 1713   0.269   1.011   1.955 -1.8264  0.0771  0.8398
  572SOL     OW 1714   1.087   1.664   0.378  0.3418 -0.4710 -0.7611
  572SOL    HW1 1715   1.115   1.573   0.408 -4.2689  0.9959  0.0154
  572SOL    HW2 1716   1.133   1.696   0.291 -1.8448 -0.5133  1.3842
  573SOL     OW 1717   1.859   2.180   0.480 -0.0487 -0.1010  0.5954
  573SOL    HW1 1718   1.810   2.154   0.395 -1.5200  2.2469  0.8853
  573SOL    HW2 1719   1.793   2.179   0.557 -2.3550 -0.7554  2.1164
  574SOL     OW 1720   0.883   0.045   1.173 -0.1274  0.5306  0.0551
  574SOL    HW1 1721   0.802   0.108   1.170 -2.0966  0.9095 -0.3737
  574SOL    HW2 1722   0.939   0.067   1.090 -2.1662 -2.0620 -2.8895
  575SOL     OW 1723   0.411   1.161   1.573 -0.7936 -0.6868 -0.5587
  575SOL    HW1 1724   0.490   1.162   1.638 -1.3291 -2.5059 -1.9781
  575SOL    HW2 1725   0.334   1.227   1.598 -0.9064  0.7724 -0.6386
  576SOL     OW 1726   2.576   2.901   0.979  0.2600 -0.1562 -0.1857
  576SOL    HW1 1727   2.633   2.844   0.922 -0.9965  0.3330 -1.5960
  576SOL    HW2 1728   2.496   2.848   1.009  0.7510  0.8375 -3.3403
  577SOL     OW 1729   0.859   1.231   2.146 -0.0596  0.3138  0.2884
  577SOL    HW1 1730   0.884   1.158   2.082 -1.1451  1.3739  1.6451
  577SOL    HW2 1731   0.773   1.208   2.201  0.0173  0.0419  1.1490
  578SOL     OW 1732   1.935   0.928   2.699  0.0520 -0.6903  0.1841
  578SOL    HW1 1733   1.958   0.968   2.609 -2.2854 -1.6989  1.2044
  578SOL    HW2 1734   1.937   1.004   2.771 -0.7042  1.9038  2.0066
  579SOL     OW 1735   1.607   2.280   1.580 -0.4057 -0.3630  0.2806
  579SOL    HW1 1736   1.652   2.299   1.669  2.1823 -0.6036 -2.8735
  579SOL    HW2 1737   1.683   2.246   1.523  1.3721 -0.4335 -0.5892
  580SOL     OW 1738   1.504   1.428   2.571 -0.1201 -0.9494 -0.3468
  580SOL    HW1 1739   1.519   1.395   2.667 -0.1486  3.3720 -2.6846
  580SOL    HW2 1740   1.409   1.406   2.550  2.2212  0.5619  0.3349
  581SOL     OW 1741   1.315   1.082   2.412  0.0643 -0.0550 -0.0241
  581SOL    HW1 1742   1.272   0.995   2.444  2.0142  1.5523 -1.1456
  581SOL    HW2 1743   1.257   1.163   2.419 -0.9821 -0.4441 -1.2298
  582SOL     OW 1744   0.946   1.140   1.603  0.0848 -0.0658  0.5199
  582SOL    HW1 1745   0.921   1.045   1.581  1.7127 -0.7182  0.8507
  582SOL    HW2 1746   0.976   1.199   1.526 -1.2891 -2.5381  1.0963
  583SOL     OW 1747   1.264   1.180   1.920  0.0255  0.6956 -0.0169
  583SOL    HW1 1748   1.307   1.128   1.843  0.1967 -0.5242 -1.7656
  583SOL    HW2 1749   1.174   1.221   1.890 -0.9157 -1.1776 -1.4549
  584SOL     OW 1750   2.459   2.721   0.438 -0.2101 -0.0487  0.3380
  584SOL    HW1 1751   2.510   2.784   0.495 -0.5791  0.3423 -2.8935
  584SOL    HW2 1752   2.518   2.695   0.362  0.8599 -0.3065  0.9949
  585SOL     OW 1753   2.046   0.180   3.076  0.3846  0.2925 -0.2009
  585SOL    HW1 1754   1.998   0.119   3.008  0.4741 -0.4918 -2.4484
  585SOL    HW2 1755   2.069   0.129   0.038 -1.2139  0.9908  0.3123
  586SOL     OW 1756   3.076   2.171   1.161 -0.0613 -0.4297 -0.1127
  586SOL    HW1 1757   3.058   2.271   1.178 -1.2666  3.2849  2.3146
  586SOL    HW2 1758   3.042   2.117   1.242  0.9967  1.1826  1.1811
  587SOL     OW 1759   1.532   1.777   3.071  0.0371 -0.0265  0.2647
  587SOL    HW1 1760   1.497   1.815   0.036  1.2899  0.5873  0.0636
  587SOL    HW2 1761   1.464   1.710   3.035  0.5613 -0.7391  2.4289
  588SOL     OW 1762   0.539   0.489   1.044 -0.0898 -0.6823 -0.3138
  588SOL    HW1 1763   0.529   0.402   0.990 -1.8652 -2.0871  1.9882
  588SOL    HW2 1764   0.476   0.556   1.003 -1.6639 -1.1024  0.5418
  589SOL     OW 1765   1.250   0.066   0.626  0.0534 -0.4242 -0.0350
  589SOL    HW1 1766   1.181   0.141   0.611  2.8398  0.5564  1.8624
  589SOL    HW2 1767   1.302   0.082   0.712  0.3635 -0.7250  0.6932
  590SOL     OW 1768   1.327   1.167   2.775 -0.7950  0.0576 -0.2103
  590SOL    HW1 1769   1.316   1.085   2.721  0.4630  4.5184  1.1135
  590SOL    HW2 1770   1.259   1.174   2.850  0.6767 -0.4624 -1.0997
  591SOL     OW 1771   2.757   2.417   2.303 -0.1487 -0.0385 -0.0595
  591SOL    HW1 1772   2.667   2.435   2.260  1.0336  0.3504 -3.8139
  591SOL    HW2 1773   2.797   2.498   2.353 -1.3195  0.8365  0.5990
  592SOL     OW 1774   2.390   1.497   1.577  0.7848 -0.0280 -0.2040
  592SOL    HW1 1775   2.310   1.559   1.571  1.5020 -2.5786 -0.5258
  592SOL    HW2 1776   2.455   1.518   1.501 -0.6074 -0.4552  1.6369
  593SOL     OW 1777   1.300   0.742   1.557  0.2071  0.2143  0.0782
  593SOL    HW1 1778   1.273   0.755   1.460  1.3089 -0.1171 -1.0423
  593SOL    HW2 1779   1.261   0.660   1.605 -2.2850 -0.6784  0.0447
  594SOL     OW 1780   2.741   1.296   2.508 -0.1506 -0.2589 -0.1677
  594SOL    HW1 1781   2.752   1.388   2.543 -0.7167 -1.3489  0.7230
  594SOL    HW2 1782   2.807   1.229   2.549  1.8688  0.0759  0.9753
  595SOL     OW 1783   3.115   0.089   0.506  0.0266  0.3910  0.5503
  595SOL    HW1 1784   3.104   0.091   0.609 -2.8548  2.0552 -0.9888
  595SOL    HW2 1785   3.031   0.053   0.466  2.0156 -1.3228  0.6131
  596SOL     OW 1786   3.001   1.483   1.021 -0.2635 -0.4108 -0.1397
  596SOL    HW1 1787   2.920   1.510   1.073  4.2706 -2.1176  0.5790
  596SOL    HW2 1788   3.080   1.542   1.050 -0.5234  1.1529 -0.4491
  597SOL     OW 1789   1.616   1.579   0.607 -0.3530  0.2078 -0.7176
  597SOL    HW1 1790   1.669   1.651   0.653  0.2568 -0.1194 -1.7224
  597SOL    HW2 1791   1.644   1.563   0.512  0.2178  0.2972  2.2338
  598SOL     OW 1792   0.232   2.802   1.784  0.1208  0.1509  0.4138
  598SOL    HW1 1793   0.272   2.805   1.694 -2.4984 -1.3793  3.5611
  598SOL    HW2 1794   0.216   2.705   1.811 -2.4953 -1.8386 -0.6950
  599SOL     OW 1795   3.100   1.621   2.760  0.1880  0.2935 -0.3340
  599SOL    HW1 1796   3.029   1.555   2.781  2.1346  1.2151 -1.7529
  599SOL    HW2 1797   3.070   1.709   2.807 -0.8513  2.4653  0.6532
  600SOL     OW 1798   0.604   1.025   0.050  0.0357  0.5201 -0.0111
  600SOL    HW1 1799   0.687   1.070   0.088  2.1122  0.9400  2.5866
  600SOL    HW2 1800   0.609   0.923   0.065  0.2850 -1.0230  1.2041
  601SOL     OW 1801   0.741   0.937   1.067 -0.2124 -0.4628  0.0868
  601SOL    HW1 1802   0.650   0.907   1.106  2.0270  0.5602  0.6190
  601SOL    HW2 1803   0.746   1.042   1.069 -0.7323  1.5439 -2.3300
  602SOL     OW 1804   1.108   2.383   0.325  0.0648  0.4027 -0.1531
  602SOL    HW1 1805   1.178   2.365   0.400 -0.7907 -1.4792  0.0218
  602SOL    HW2 1806   1.013   2.372   0.362  0.0413  1.6716  0.9750
  603SOL     OW 1807   1.346   2.419   1.869 -0.3601 -0.6494 -0.4482
  603SOL    HW1 1808   1.412   2.495   1.886 -0.7672 -2.3578  1.4715
  603SOL    HW2 1809   1.261   2.424   1.927 -0.7618 -0.3291  1.5523
  604SOL     OW 1810   0.386   0.341   2.907  0.5094 -0.4043  0.1208
  604SOL    HW1 1811   0.398   0.423   2.963 -0.0473 -0.6235 -0.2334
  604SOL    HW2 1812   0.456   0.264   2.904 -0.2690 -0.6591  0.8054
  605SOL     OW 1813   2.589   1.024   1.377 -0.0651 -0.4638 -0.3355
  605SOL    HW1 1814   2.495   1.030   1.338 -1.2418  2.7081 -2.3154
  605SOL    HW2 1815   2.596   0.965   1.462  0.9483 -0.3903  1.0457
  606SOL     OW 1816   0.937   1.715   2.833  0.1418 -0.1170 -0.2175
  606SOL    HW1 1817   0.904   1.803   2.789 -1.2042 -1.2355 -0.3789
  606SOL    HW2 1818   0.960   1.640   2.768  0.4101 -0.9660 -1.3756
  607SOL     OW 1819   0.678   3.061   0.177  0.3090  0.0206  0.1158
  607SOL    HW1 1820   0.628   2.971   0.166  0.7950  0.3957  0.5262
  607SOL    HW2 1821   0.732   3.060   0.265 -0.3255 -1.6865  1.4498
  608SOL     OW 1822   2.322   1.829   2.128 -0.3373  0.5845 -0.6182
  608SOL    HW1 1823   2.391   1.816   2.055 -1.7508  0.9779  1.4709
  608SOL    HW2 1824   2.239   1.766   2.111 -2.5954 -1.2062  0.7272
  609SOL     OW 1825   2.836   0.303   0.845  0.7103  0.1838 -0.1347
  609SOL    HW1 1826   2.857   0.204   0.852 -0.5733 -0.3953  0.6222
  609SOL    HW2 1827   2.733   0.316   0.833 -2.8819  4.9941  1.0499
  610SOL     OW 1828   0.298   2.513   0.766 -0.5181 -0.4924 -0.2403
  610SOL    HW1 1829   0.222   2.484   0.702  0.2807  1.6539  0.3027
  610SOL    HW2 1830   0.385   2.459   0.751  0.9943 -1.5175 -0.2850
  611SOL     OW 1831   1.589   1.418   0.156 -0.1865  0.6197 -0.0231
  611SOL    HW1 1832   1.628   1.371   0.235 -4.4881 -0.2323  0.6941
  611SOL    HW2 1833   1.488   1.431   0.166 -3.0004 -1.7413 -0.0763
  612SOL     OW 1834   0.498   2.855   1.933 -0.4923 -0.1485  0.0635
  612SOL    HW1 1835   0.491   2.821   2.030  0.8911 -2.0697 -0.6585
  612SOL    HW2 1836   0.406   2.877   1.899  0.7899  0.1952 -0.4793
  613SOL     OW 1837   0.610   2.717   0.641  0.3909 -0.0471  0.1782
  613SOL    HW1 1838   0.591   2.754   0.734 -0.2884 -2.9935 -0.1970
  613SOL    HW2 1839   0.714   2.702   0.632  2.8697 -0.0456  1.4012
  614SOL     OW 1840   2.208   0.073   1.850 -0.2050  0.6958 -0.7977
  614SOL    HW1 1841   2.114   0.045   1.828  1.0683  0.2565 -0.8189
  614SOL    HW2 1842   2.241   0.131   1.774 -0.4430 -0.7661  0.7911
  615SOL     OW 1843   1.686   1.261   0.415  0.2458  0.3095  0.0938
  615SOL    HW1 1844   1.710   1.161   0.402  0.1844 -1.5365  0.8335
  615SOL    HW2 1845   1.767   1.318   0.415  2.7150  1.2846  0.2656
  616SOL     OW 1846   1.926   1.419   0.432  0.1777  0.2909  0.0125
  616SOL    HW1 1847   1.914   1.513   0.393  1.1043 -2.9518 -2.2250
  616SOL    HW2 1848   1.950   1.417   0.532 -0.3777 -1.1777  1.4430
  617SOL     OW 1849   1.219   0.941   2.628  0.2737 -0.2771 -0.1821
  617SOL    HW1 1850   1.209   0.843   2.606 -1.0730 -1.1681 -2.2038
  617SOL    HW2 1851   1.132   0.971   2.671 -0.7304 -0.3703  0.7622
  618SOL     OW 1852   0.717   3.018   1.923 -0.2278 -0.5719 -0.4108
  618SOL    HW1 1853   0.637   2.957   1.902  2.2815 -2.3252 -1.5289
  618SOL    HW2 1854   0.704   3.057   2.017 -1.8779 -0.0920 -0.1616
  619SOL     OW 1855   2.906   1.616   1.485 -0.0239  0.1523 -0.4596
  619SOL    HW1 1856   2.967   1.668   1.414 -1.8462  0.2538 -1.2890
  619SOL    HW2 1857   2.812   1.659   1.491 -1.6128 -0.8292 -0.0284
  620SOL     OW 1858   2.881   0.603   2.674 -0.2828  0.4593  0.2192
  620SOL    HW1 1859   2.856   0.670   2.743  3.0508 -1.6378  0.1096
  620SOL    HW2 1860   2.985   0.595   2.657  0.8703 -0.2004  0.8241
  621SOL     OW 1861   2.350   2.007   2.333 -0.3179 -0.9972  0.1051
  621SOL    HW1 1862   2.349   1.952   2.247 -0.6267  1.3910 -0.2322
  621SOL    HW2 1863   2.340   1.941   2.407 -1.1269  2.0347 -1.8307
  622SOL     OW 1864   0.943   0.709   2.129 -0.4623 -0.1609 -0.3925
  622SOL    HW1 1865   0.869   0.655   2.170  0.7238 -0.7084 -2.1343
  622SOL    HW2 1866   0.983   0.662   2.047 -0.0798 -1.7870 -1.3900
  623SOL     OW 1867   0.688   1.062   2.273 -0.5980  0.1614  0.0288
  623SOL    HW1 1868   0.602   1.012   2.269 -1.0664  1.1203  1.6429
  623SOL    HW2 1869   0.758   1.003   2.326 -1.1607 -1.6387  1.1810
  624SOL     OW 1870   2.715   0.804   0.174 -0.4537  0.1065 -0.1798
  624SOL    HW1 1871   2.675   0.870   0.240  2.5837 -0.9154  2.1890
  624SOL    HW2 1872   2.766   0.850   0.101 -3.9971  1.7193  0.5421
  625SOL     OW 1873   0.797   2.018   0.944 -0.0628  0.4764  0.2023
  625SOL    HW1 1874   0.732   2.068   0.884  0.8536  0.2145 -1.1425
  625SOL    HW2 1875   0.735   1.957   0.998  1.3543 -1.7209  1.0909
  626SOL     OW 1876   2.126   0.710   2.678 -0.2883  0.5761 -0.1156
  626SOL    HW1 1877   2.172   0.704   2.769  2.6231  0.0749  0.2783
  626SOL    HW2 1878   2.032   0.762   2.681 -2.1162  0.1359 -0.1730
  627SOL     OW 1879   1.463   2.759   2.816  0.1251  0.4065 -0.0006
  627SOL    HW1 1880   1.538   2.798   2.867 -3.8422 -0.2395  1.1212
  627SOL    HW2 1881   1.485   2.770   2.716 -1.1518 -1.7472 -0.1028
  628SOL     OW 1882   2.272   2.851   2.358 -0.0185  0.1055 -0.3556
  628SOL    HW1 1883   2.273   2.953   2.373  0.2169 -0.7203  1.9181
  628SOL    HW2 1884   2.339   2.826   2.281  1.5631  2.4344 -2.1900
  629SOL     OW 1885   0.865   0.008   2.585  0.2576  0.4624  0.0725
  629SOL    HW1 1886   0.924   0.017   2.499  1.4197  0.7695 -0.5973
  629SOL    HW2 1887   0.901   0.067   2.659  0.3031  0.2008  0.8733
  630SOL     OW 1888   1.090   0.325   2.599  0.1031  0.1598  0.0722
  630SOL    HW1 1889   1.168   0.284   2.545  0.1018 -1.2754 -0.3007
  630SOL    HW2 1890   1.057   0.255   2.664  0.9396  1.8204 -1.4912
  631SOL     OW 1891   2.025   1.369   0.696  0.2167  0.4905  0.0425
  631SOL    HW1 1892   1.977   1.335   0.778 -1.5123  0.6377 -1.0756
  631SOL    HW2 1893   2.122   1.399   0.717 -0.6211 -0.6569 -1.4893
  632SOL     OW 1894   2.060   0.930   1.804 -0.3893 -0.7635 -0.1547
  632SOL    HW1 1895   2.158   0.941   1.783 -0.8415 -3.0960  0.8874
  632SOL    HW2 1896   2.005   0.878   1.734 -1.2902 -3.2212 -0.6862
  633SOL     OW 1897   1.226   1.723   0.156 -0.0122  0.1631 -0.3755
  633SOL    HW1 1898   1.178   1.696   0.074  2.1529 -1.0816  1.7331
  633SOL    HW2 1899   1.280   1.807   0.144 -0.1457  1.2869 -0.1622
  634SOL     OW 1900   2.450   3.042   1.723  0.0849  0.5896 -0.1535
  634SOL    HW1 1901   2.383   3.108   1.768 -0.5306  0.6959  2.1301
  634SOL    HW2 1902   2.539   3.094   1.714 -0.5882  0.1278 -2.1724
  635SOL     OW 1903   1.724   0.412   0.822  0.1815 -0.4030  0.3893
  635SOL    HW1 1904   1.771   0.458   0.898 -1.2345  1.6628 -2.6797
  635SOL    HW2 1905   1.703   0.314   0.841  0.0164 -0.8300  1.5725
  636SOL     OW 1906   0.871   1.076   0.116 -0.0806  0.1190 -0.3882
  636SOL    HW1 1907   0.934   1.153   0.136 -0.3415  0.3183 -0.6687
  636SOL    HW2 1908   0.925   0.998   0.075  0.3396 -1.6595 -1.5471
  637SOL     OW 1909   2.807   2.152   3.059 -0.1457  0.3701  0.5024
  637SOL    HW1 1910   2.818   2.139   0.038  0.0021 -1.4137  3.1493
  637SOL    HW2 1911   2.899   2.157   3.006  3.0452  2.1507 -0.0247
  638SOL     OW 1912   1.486   2.502   2.902  0.7990 -0.5593 -0.1046
  638SOL    HW1 1913   1.481   2.594   2.857 -1.8708  1.1575  1.1862
  638SOL    HW2 1914   1.533   2.440   2.839  2.0326  1.0306  2.7306
  639SOL     OW 1915   1.578   1.653   1.031 -0.0066  0.2458  0.0574
  639SOL    HW1 1916   1.510   1.734   1.027 -1.1627  0.5577  0.6331
  639SOL    HW2 1917   1.676   1.676   1.029  0.5735  1.6604 -1.1920
  640SOL     OW 1918   2.038   2.795   0.526 -0.0253 -0.1104  0.2641
  640SOL    HW1 1919   2.109   2.840   0.456  1.7392  1.7992  1.7694
  640SOL    HW2 1920   2.052   2.692   0.531 -2.0060 -2.7978  2.3343
  641SOL     OW 1921   2.962   0.181   2.909  0.1339  0.2128  0.3949
  641SOL    HW1 1922   2.868   0.224   2.910 -2.3345  0.8411 -0.6969
  641SOL    HW2 1923   2.987   0.127   2.989 -1.5382 -1.5902 -0.3597
  642SOL     OW 1924   2.886   0.814   1.328 -0.1466 -0.1234 -0.3096
  642SOL    HW1 1925   2.833   0.887   1.282  1.7690  0.7425  1.6538
  642SOL    HW2 1926   2.931   0.855   1.411 -0.6724 -1.0444  1.7462
  643SOL     OW 1927   0.636   1.843   2.187 -0.0522 -0.4700  0.3922
  643SOL    HW1 1928   0.577   1.928   2.171 -1.2747 -0.8172 -0.6442
  643SOL    HW2 1929   0.735   1.869   2.164  1.3142  1.3600  0.0140
  644SOL     OW 1930   2.011   2.329   0.849  0.3698  0.3919  0.1580
  644SOL    HW1 1931   2.101   2.370   0.825  2.8716 -0.5957 -0.8750
  644SOL    HW2 1932   1.935   2.372   0.789 -1.2614  2.3191 -0.6197
  645SOL     OW 1933   1.977   2.075   0.978  0.4211  0.5113 -0.6270
  645SOL    HW1 1934   1.998   2.158   0.924  0.4571 -2.6644 -0.5107
  645SOL    HW2 1935   1.873   2.064   0.991 -1.3794  3.1711 -0.0232
  646SOL     OW 1936   1.077   2.373   2.732 -0.5676 -0.2996 -0.0704
  646SOL    HW1 1937   1.144   2.337   2.801  1.8965 -0.2800 -0.3438
  646SOL    HW2 1938   0.983   2.374   2.770  1.1342  3.8104  0.4459
  647SOL     OW 1939   0.771   2.827   1.697  0.1386 -0.0722 -0.2068
  647SOL    HW1 1940   0.817   2.770   1.761 -0.7792  0.0427  0.2313
  647SOL    HW2 1941   0.833   2.908   1.674  0.2616  0.6543  1.7883
  648SOL     OW 1942   1.546   0.374   1.713  0.2470 -0.8141  0.0720
  648SOL    HW1 1943   1.595   0.313   1.650 -3.0391  2.1307  1.5269
  648SOL    HW2 1944   1.456   0.336   1.732  1.3090 -0.0194 -2.2579
  649SOL     OW 1945   1.725   2.115   0.253 -0.0072  0.3957 -0.8651
  649SOL    HW1 1946   1.699   2.184   0.183  0.7091  0.4444 -1.5261
  649SOL    HW2 1947   1.678   2.025   0.242 -3.1151 -1.4967  1.1349
  650SOL     OW 1948   2.175   1.669   1.589  0.2682 -0.3279 -0.0043
  650SOL    HW1 1949   2.098   1.609   1.570  2.2629  1.2478  1.9012
  650SOL    HW2 1950   2.153   1.731   1.668  0.5688  1.7993  0.1709
  651SOL     OW 1951   1.853   2.587   0.276 -0.4089  0.9434 -0.3893
  651SOL    HW1 1952   1.840   2.684   0.305  0.6224 -0.4515 -0.6665
  651SOL    HW2 1953   1.888   2.580   0.180  1.3447 -0.6455  4.0070
  652SOL     OW 1954   0.504   2.017   0.152 -0.1055 -0.1176 -0.3281
  652SOL    HW1 1955   0.451   1.974   0.229  1.1391  1.6733  0.5047
  652SOL    HW2 1956   0.552   1.946   0.102 -1.6361 -1.5202  2.3688
  653SOL     OW 1957   2.533   2.593   1.336 -0.0179  0.0631 -0.1525
  653SOL    HW1 1958   2.474   2.553   1.409 -0.3702  0.8590 -0.5378
  653SOL    HW2 1959   2.501   2.562   1.246  2.3612 -0.5340  2.6265
  654SOL     OW 1960   2.793   2.861   1.666  0.0432 -0.0650  0.3020
  654SOL    HW1 1961   2.873   2.928   1.662  1.7415  1.9981 -1.3585
  654SOL    HW2 1962   2.728   2.883   1.586 -1.8115  1.1620  0.2385
  655SOL     OW 1963   2.954   2.026   0.973 -0.0597 -0.1720 -0.6531
  655SOL    HW1 1964   3.020   1.970   0.917  1.8205  0.8684 -0.4282
  655SOL    HW2 1965   3.012   2.077   1.045  2.1125  1.9344 -0.9188
  656SOL     OW 1966   2.962   3.102   2.364 -0.2942  0.4358 -0.3479
  656SOL    HW1 1967   3.024   0.064   2.344  2.5047  1.5385 -1.0040
  656SOL    HW2 1968   2.870   3.108   2.320  0.6074  2.3171 -1.3459
  657SOL     OW 1969   2.711   1.416   3.001  0.4475  0.3304 -0.2037
  657SOL    HW1 1970   2.682   1.318   3.006  1.0605 -0.3387 -0.0807
  657SOL    HW2 1971   2.648   1.467   3.064 -1.1650  1.0084 -3.1952
  658SOL     OW 1972   2.154   1.894   1.027  0.2871  0.1663  0.3018
  658SOL    HW1 1973   2.086   1.972   1.007 -1.2627  2.7432 -0.8662
  658SOL    HW2 1974   2.109   1.805   1.010  0.3558 -0.5501  0.1327
  659SOL     OW 1975   1.472   0.604   0.881  0.0404  0.2887 -0.1638
  659SOL    HW1 1976   1.428   0.669   0.948 -0.6226 -2.0452 -0.4800
  659SOL    HW2 1977   1.569   0.589   0.899 -2.8872 -0.4164 -0.3234
  660SOL     OW 1978   1.636   1.319   3.036  0.2447  0.2323  0.2222
  660SOL    HW1 1979   1.701   1.235   3.034  1.7506 -3.8961 -1.3990
  660SOL    HW2 1980   1.632   1.368   0.009 -0.6005  0.8006  3.5080
  661SOL     OW 1981   0.362   2.211   0.606 -0.1002 -0.6082 -0.0757
  661SOL    HW1 1982   0.321   2.266   0.533 -1.3443  1.1405 -0.2865
  661SOL    HW2 1983   0.451   2.255   0.624 -3.8336 -1.6645  1.1685
  662SOL     OW 1984   0.049   0.677   2.327 -0.3166 -0.4139 -0.7196
  662SOL    HW1 1985   0.040   0.714   2.424 -0.8022 -1.2791  0.3044
  662SOL    HW2 1986   0.111   0.598   2.315  1.2723 -1.0684 -4.8671
  663SOL     OW 1987   1.906   1.251   0.916 -0.8134  0.5608 -0.3861
  663SOL    HW1 1988   1.828   1.188   0.909 -1.5149 -0.4461  0.5695
  663SOL    HW2 1989   1.964   1.217   0.991  0.4966  3.0646 -0.6980
  664SOL     OW 1990   0.992   0.890   1.205  0.2864  0.0269 -0.2994
  664SOL    HW1 1991   0.970   0.874   1.303  0.9202 -1.1229  4.3566
  664SOL    HW2 1992   0.910   0.918   1.155 -0.0418 -1.4976  2.5238
  665SOL     OW 1993   1.195   2.759   2.753  0.7395 -0.1621 -0.3435
  665SOL    HW1 1994   1.138   2.836   2.780  0.9030  0.4146 -2.9484
  665SOL    HW2 1995   1.287   2.764   2.800  0.9517 -1.4732 -0.2471
  666SOL     OW 1996   2.663   0.018   2.502  0.0597  0.1173  0.1660
  666SOL    HW1 1997   2.714   3.073   2.560  0.4623  1.4415 -4.6523
  666SOL    HW2 1998   2.701   0.111   2.502 -3.0908  0.7647  1.4859
  667SOL     OW 1999   2.488   1.404   1.810 -0.2902  0.3228  0.3510
  667SOL    HW1 2000   2.435   1.453   1.738 -0.0778  1.1963  2.2248
  667SOL    HW2 2001   2.442   1.317   1.832 -0.6424 -0.9049  1.5903
  668SOL     OW 2002   0.317   1.126   2.616 -0.1244 -0.1073 -0.7032
  668SOL    HW1 2003   0.341   1.192   2.690  2.0468 -0.4891 -1.5379
  668SOL    HW2 2004   0.282   1.184   2.539  1.4480 -0.7611  0.2829
  669SOL     OW 2005   2.057   2.328   2.531 -1.0297 -0.2170 -0.2315
  669SOL    HW1 2006   1.999   2.246   2.536  1.2849  1.8868 -0.7905
  669SOL    HW2 2007   2.156   2.295   2.525  1.9703 -2.5196 -1.8335
  670SOL     OW 2008   2.438   1.101   2.103 -0.0450  0.8566 -0.3862
  670SOL    HW1 2009   2.512   1.135   2.162 -0.5198  0.9418 -0.9527
  670SOL    HW2 2010   2.436   1.002   2.107  1.7395 -0.5750  0.2600
  671SOL     OW 2011   2.553   1.538   0.072  0.0489 -0.5175 -0.0659
  671SOL    HW1 2012   2.595   1.523   0.162 -2.2335  0.4212 -1.3999
  671SOL    HW2 2013   2.542   1.636   0.059  1.2846 -3.1911 -1.2618
  672SOL     OW 2014   2.813   1.141   2.058  0.8913  0.4884  0.4715
  672SOL    HW1 2015   2.815   1.186   1.967  1.0393  1.2811 -1.2925
  672SOL    HW2 2016   2.759   1.196   2.120 -0.4041  2.0615 -2.0772
  673SOL     OW 2017   2.548   0.885   1.619 -0.1758  0.2722 -0.4437
  673SOL    HW1 2018   2.617   0.937   1.676  1.1878  0.1934  1.6102
  673SOL    HW2 2019   2.556   0.781   1.623 -2.5983 -0.1651  0.1527
  674SOL     OW 2020   2.102   1.858   1.812 -0.1892  0.2030 -0.1969
  674SOL    HW1 2021   2.157   1.903   1.885  0.0277 -0.4726 -1.6451
  674SOL    HW2 2022   2.009   1.910   1.803 -2.9179  1.0238 -0.0926
  675SOL     OW 2023   0.397   0.718   0.980  0.1490 -0.0818  0.5984
  675SOL    HW1 2024   0.412   0.773   1.063 -1.2382 -0.8760 -0.9895
  675SOL    HW2 2025   0.308   0.740   0.937 -0.6474  0.5233 -1.2485
  676SOL     OW 2026   1.686   1.175   1.255 -0.1115  0.5135 -0.2154
  676SOL    HW1 2027   1.659   1.271   1.218  1.8021 -2.7657  0.4880
  676SOL    HW2 2028   1.775   1.172   1.302  1.2031 -0.2823 -0.9336
  677SOL     OW 2029   2.468   1.438   2.136  0.2204  0.6475 -0.0351
  677SOL    HW1 2030   2.446   1.448   2.040  0.9857 -1.5001  0.0938
  677SOL    HW2 2031   2.469   1.530   2.178  3.1802 -1.8432 -0.1181
  678SOL     OW 2032   0.104   1.490   0.617  0.0029  0.3707 -0.1108
  678SOL    HW1 2033   0.110   1.401   0.572 -0.7461 -0.4454  0.4786
  678SOL    HW2 2034   0.010   1.490   0.668  0.8618  0.2302  0.1232
  679SOL     OW 2035   2.823   2.836   0.450 -0.2867  0.6637 -0.0758
  679SOL    HW1 2036   2.784   2.803   0.365 -0.5612  1.9655  1.8443
  679SOL    HW2 2037   2.925   2.846   0.440 -0.1670 -1.7426 -1.7998
  680SOL     OW 2038   3.053   2.422   1.272  0.3026  0.6310  0.2483
  680SOL    HW1 2039   0.030   2.407   1.311 -0.3120  1.9736 -1.1554
  680SOL    HW2 2040   2.978   2.395   1.332  0.3815  0.5239  0.0013
  681SOL     OW 2041   0.418   1.464   1.348 -0.3347  0.2399  0.1419
  681SOL    HW1 2042   0.514   1.455   1.381 -0.0337 -0.9927 -0.3292
  681SOL    HW2 2043   0.361   1.454   1.429  2.8723 -1.9509 -2.0439
  682SOL     OW 2044   1.530   2.486   0.930 -0.3615 -0.3135 -0.2178
  682SOL    HW1 2045   1.456   2.479   0.997  0.1572 -0.4195 -0.8720
  682SOL    HW2 2046   1.618   2.445   0.973  1.7633 -2.3021  3.3229
  683SOL     OW 2047   2.303   1.594   0.924  0.1402 -0.1315  0.2319
  683SOL    HW1 2048   2.400   1.584   0.946  0.3354 -0.5504 -0.2548
  683SOL    HW2 2049   2.289   1.669   0.852 -1.6151  0.5220 -1.7713
  684SOL     OW 2050   0.574   2.102   1.968  0.0997  0.2624 -0.3553
  684SOL    HW1 2051   0.636   2.181   1.961 -0.4412  2.8491  1.1781
  684SOL    HW2 2052   0.601   2.027   1.907 -0.2710  0.6085  2.1202
  685SOL     OW 2053   2.212   1.497   0.219 -0.5023 -0.5728 -0.3503
  685SOL    HW1 2054   2.254   1.487   0.129 -0.4636  1.3510 -3.9915
  685SOL    HW2 2055   2.120   1.549   0.216 -0.7728  1.8364  1.3760
  686SOL     OW 2056   2.903   0.313   0.587 -0.5135 -0.1281 -0.5764
  686SOL    HW1 2057   2.886   0.291   0.682  1.6456  2.3867 -3.6764
  686SOL    HW2 2058   2.987   0.370   0.584  0.5987  0.6175 -1.4174
  687SOL     OW 2059   1.462   2.675   0.200  0.2777  0.0308 -0.7155
  687SOL    HW1 2060   1.402   2.706   0.281  0.6519 -0.1569  1.9452
  687SOL    HW2 2061   1.507   2.583   0.221 -1.8537 -1.3800  0.5863
  688SOL     OW 2062   2.074   1.673   2.095 -0.3758 -0.2140  0.0269
  688SOL    HW1 2063   2.058   1.605   2.171 -1.8201 -1.8567  0.9888
  688SOL    HW2 2064   1.981   1.703   2.053 -2.4156  0.0320  0.2729
  689SOL     OW 2065   2.505   0.821   2.130  0.1169 -0.3353  0.5794
  689SOL    HW1 2066   2.567   0.779   2.054  1.6913 -1.1497 -3.3643
  689SOL    HW2 2067   2.552   0.817   2.222 -1.2028 -0.2449 -1.5515
  690SOL     OW 2068   1.819   0.536   1.323 -0.4040 -0.4193  0.4091
  690SOL    HW1 2069   1.758   0.545   1.404 -0.0441  1.5192  0.6897
  690SOL    HW2 2070   1.890   0.470   1.339 -1.3351  0.5520 -3.2902
  691SOL     OW 2071   1.097   1.858   1.630  0.6034  0.4205 -0.5384
  691SOL    HW1 2072   1.030   1.829   1.558 -2.1095  0.0737  2.4257
  691SOL    HW2 2073   1.187   1.815   1.618 -2.3563 -0.5004  0.1119
  692SOL     OW 2074   1.514   0.317   2.021 -0.4154 -0.5261 -0.1427
  692SOL    HW1 2075   1.559   0.403   1.986  0.9215  0.4705  0.0526
  692SOL    HW2 2076   1.452   0.281   1.949  1.7796 -0.0482 -1.7478
  693SOL     OW 2077   0.563   1.127   2.899 -0.4486  0.3869 -0.2424
  693SOL    HW1 2078   0.580   1.123   2.998  2.5291  1.9135 -0.5787
  693SOL    HW2 2079   0.572   1.034   2.861  0.3449  1.2291  0.0505
  694SOL     OW 2080   2.055   2.929   1.124 -0.2788 -0.3390  0.4285
  694SOL    HW1 2081   2.006   2.859   1.072  0.8573 -0.0068 -0.6244
  694SOL    HW2 2082   1.992   2.994   1.175  0.7152 -1.2277 -0.5294
  695SOL     OW 2083   1.683   1.493   2.305 -0.5495 -0.1139 -0.3124
  695SOL    HW1 2084   1.677   1.582   2.256  0.3578  1.7604 -0.4011
  695SOL    HW2 2085   1.617   1.491   2.382 -1.2428 -0.3172 -1.9527
  696SOL     OW 2086   1.496   0.240   1.296  0.3572 -0.2577  0.1193
  696SOL    HW1 2087   1.406   0.197   1.276 -1.4360  0.2461 -1.0905
  696SOL    HW2 2088   1.476   0.339   1.307  0.7162  3.3276 -0.7522
  697SOL     OW 2089   1.330   0.204   1.822  0.0129  0.1696 -0.3706
  697SOL    HW1 2090   1.341   0.115   1.780 -0.8853  4.3938  0.5246
  697SOL    HW2 2091   1.262   0.195   1.899  1.4950  1.1965  0.2215
  698SOL     OW 2092   1.879   1.296   2.368  0.5496 -0.0264  0.4867
  698SOL    HW1 2093   1.909   1.249   2.286 -0.5194  0.8203  1.6244
  698SOL    HW2 2094   1.818   1.372   2.343 -0.9863 -0.7415 -2.6530
  699SOL     OW 2095   1.474   1.034   1.401  0.1855 -0.4623  0.1746
  699SOL    HW1 2096   1.540   1.087   1.343 -0.0859 -2.1201 -1.5555
  699SOL    HW2 2097   1.391   1.095   1.416 -1.4996  2.1040  0.1099
  700SOL     OW 2098   1.586   3.098   0.174  0.2877 -0.1697 -0.3026
  700SOL    HW1 2099   1.640   0.039   0.106  0.1797 -1.3411 -0.8565
  700SOL    HW2 2100   1.494   0.013   0.201  2.3753 -0.9289  1.3841
  701SOL     OW 2101   0.228   0.132   1.616 -0.6637 -0.1834 -0.4567
  701SOL    HW1 2102   0.184   0.078   1.690  0.1603 -0.4416  1.8491
  701SOL    HW2 2103   0.222   0.085   1.526  0.8773 -0.6952 -1.5489
  702SOL     OW 2104   1.351   2.740   0.458  0.3480 -0.2813 -0.1352
  702SOL    HW1 2105   1.377   2.839   0.474 -1.7586  3.0370 -1.1586
  702SOL    HW2 2106   1.426   2.671   0.462 -0.1527 -4.0490  2.8660
  703SOL     OW 2107   2.334   3.058   2.102  0.6542 -0.6219  0.2272
  703SOL    HW1 2108   2.301   3.058   2.007  0.6352 -0.4253  1.1381
  703SOL    HW2 2109   2.375   0.030   2.128  0.2431 -0.0326 -0.9569
  704SOL     OW 2110   1.178   2.086   0.881  0.1872 -0.4488  0.1344
  704SOL    HW1 2111   1.134   2.068   0.970 -2.1253  0.3654  0.6322
  704SOL    HW2 2112   1.252   2.156   0.888  0.9587  1.0322  0.1424
  705SOL     OW 2113   2.993   1.393   1.919 -0.0825  0.2296 -0.0210
  705SOL    HW1 2114   2.924   1.427   1.983 -1.9266  0.5347  0.8526
  705SOL    HW2 2115   2.944   1.337   1.849 -0.4874  0.7845 -0.0079
  706SOL     OW 2116   1.401   3.007   0.465  0.0528  0.0201  0.0635
  706SOL    HW1 2117   1.374   3.045   0.376  0.7580 -0.3314  2.0206
  706SOL    HW2 2118   1.371   3.076   0.535  0.8834  1.9544 -3.5992
  707SOL     OW 2119   1.127   2.284   2.271 -0.3222  0.3011 -0.0715
  707SOL    HW1 2120   1.067   2.367   2.277  0.7311  1.8551 -2.1055
  707SOL    HW2 2121   1.126   2.225   2.353  1.8484  0.0514  0.2421
  708SOL     OW 2122   0.181   2.392   1.435  0.2861  0.2506  0.1738
  708SOL    HW1 2123   0.206   2.288   1.432  1.8916 -2.6308  3.4035
  708SOL    HW2 2124   0.262   2.441   1.398  0.9866  1.2264  1.1337
  709SOL     OW 2125   1.950   0.391   2.055 -1.2212  0.0603 -0.5169
  709SOL    HW1 2126   2.042   0.355   2.086  1.3727 -1.2223 -0.6228
  709SOL    HW2 2127   1.883   0.399   2.130  2.0576 -0.3294 -1.3003
  710SOL     OW 2128   2.737   0.442   1.433  0.0136  0.1517 -0.1043
  710SOL    HW1 2129   2.683   0.359   1.423 -0.4568 -1.3642  0.4828
  710SOL    HW2 2130   2.706   0.507   1.361 -0.6471  2.7345  0.5558
  711SOL     OW 2131   0.204   2.741   0.864  0.1578 -0.2891 -0.1746
  711SOL    HW1 2132   0.253   2.652   0.849  0.0633 -2.0141 -0.7971
  711SOL    HW2 2133   0.104   2.720   0.858  0.1675  0.4636 -0.9983
  712SOL     OW 2134   0.459   2.473   2.373 -0.4730  0.2078  0.0226
  712SOL    HW1 2135   0.466   2.463   2.270  1.5660 -1.1906  2.1060
  712SOL    HW2 2136   0.395   2.548   2.396  4.2579 -2.1069  2.8595
  713SOL     OW 2137   1.548   0.681   0.049  0.5174  0.6054 -0.0658
  713SOL    HW1 2138   1.559   0.727   0.140  1.0754  0.9325  1.3701
  713SOL    HW2 2139   1.638   0.639   0.029 -1.5859 -1.6164  0.2792
  714SOL     OW 2140   1.657   1.640   0.346  0.1482  0.3758 -0.0680
  714SOL    HW1 2141   1.634   1.606   0.248  2.0193  0.5206  0.1276
  714SOL    HW2 2142   1.588   1.704   0.385 -0.8935  0.2776 -1.4815
  715SOL     OW 2143   2.710   0.147   0.448  0.0075  0.7007 -0.0135
  715SOL    HW1 2144   2.654   0.075   0.496 -0.4575 -2.2914  2.0490
  715SOL    HW2 2145   2.804   0.156   0.491  1.0834  2.1387 -0.5721
  716SOL     OW 2146   0.541   0.243   2.391 -0.4218  0.0356  0.5759
  716SOL    HW1 2147   0.579   0.281   2.476 -0.4266  1.0509 -1.3869
  716SOL    HW2 2148   0.579   0.149   2.382  0.6865  0.7925  2.0722
  717SOL     OW 2149   0.282   0.460   2.706  0.0522 -0.0515  0.0315
  717SOL    HW1 2150   0.319   0.424   2.797  1.1517  0.1368  2.6726
  717SOL    HW2 2151   0.265   0.385   2.643 -1.0325 -1.2076 -0.6325
  718SOL     OW 2152   1.100   0.568   0.497  0.1364  0.5899 -0.3842
  718SOL    HW1 2153   1.133   0.509   0.572 -1.4551 -0.4840 -1.9785
  718SOL    HW2 2154   1.174   0.592   0.437  0.5859 -1.0009 -0.8325
  719SOL     OW 2155   2.733   2.426   2.925 -0.2643 -0.0185 -0.8391
  719SOL    HW1 2156   2.651   2.404   2.875  2.1437  1.2752  1.1059
  719SOL    HW2 2157   2.814   2.371   2.891  2.9733  1.7209 -0.0212
  720SOL     OW 2158   1.618   0.582   1.513 -0.2083 -0.3423 -0.3607
  720SOL    HW1 2159   1.578   0.515   1.580  0.0623 -0.6144  0.1042
  720SOL    HW2 2160   1.613   0.678   1.551 -1.1773 -1.5158  0.2082
  721SOL     OW 2161   2.835   0.780   0.789  0.0584 -0.5702 -0.6332
  721SOL    HW1 2162   2.777   0.713   0.739  0.7959 -0.6375  0.3376
  721SOL    HW2 2163   2.921   0.734   0.819 -0.9759 -1.3397  0.7718
  722SOL     OW 2164   1.262   1.943   2.492  0.8373 -0.2567 -0.0353
  722SOL    HW1 2165   1.191   2.016   2.501  2.9283  0.4762  0.1380
  722SOL    HW2 2166   1.279   1.909   2.588  1.7423  1.7144  1.1723
  723SOL     OW 2167   0.702   0.508   0.668 -0.4117 -0.5842  0.1312
  723SOL    HW1 2168   0.748   0.488   0.580 -4.2779 -2.3702  0.6249
  723SOL    HW2 2169   0.639   0.587   0.663  2.6318  1.4499 -0.1077
  724SOL     OW 2170   1.232   1.933   1.900 -0.2077 -0.3840  0.0266
  724SOL    HW1 2171   1.209   1.907   1.805 -0.3377  0.5028 -2.1483
  724SOL    HW2 2172   1.152   1.980   1.941 -0.4543 -0.7697  0.2359
  725SOL     OW 2173   0.191   0.995   1.498 -0.1248 -0.3369 -0.1466
  725SOL    HW1 2174   0.202   1.039   1.407  1.1478  0.2652 -0.3506
  725SOL    HW2 2175   0.276   1.019   1.550 -1.3697  2.8760 -1.4343
  726SOL     OW 2176   1.707   0.583   0.624  0.0763 -0.0877 -0.1144
  726SOL    HW1 2177   1.731   0.509   0.691 -1.3319 -1.5562 -0.6407
  726SOL    HW2 2178   1.695   0.551   0.531  0.8713  1.4150  0.1470
  727SOL     OW 2179   1.693   0.922   2.278  0.2954 -0.5950 -0.4030
  727SOL    HW1 2180   1.686   0.918   2.176  0.4060  1.8563  2.3336
  727SOL    HW2 2181   1.655   1.012   2.315  1.5692 -2.6010 -0.3496
  728SOL     OW 2182   1.696   2.594   1.353 -0.2456 -0.1485 -0.1716
  728SOL    HW1 2183   1.702   2.622   1.450  1.7011 -2.1809  0.7171
  728SOL    HW2 2184   1.603   2.562   1.325 -0.8992 -0.5508 -0.7430
  729SOL     OW 2185   1.259   0.476   1.626 -0.2456 -0.1961 -0.3600
  729SOL    HW1 2186   1.186   0.405   1.638  1.2977  0.1157 -0.4869
  729SOL    HW2 2187   1.298   0.511   1.715 -1.9822 -0.5575  0.8016
  730SOL     OW 2188   0.944   2.007   1.801  0.5118 -0.3454  0.1552
  730SOL    HW1 2189   0.944   2.105   1.779 -1.2151 -0.2337  0.0305
  730SOL    HW2 2190   1.007   1.959   1.733 -1.6491 -2.0982 -2.9183
  731SOL     OW 2191   0.593   0.199   0.137  0.9349  0.4299  0.1532
  731SOL    HW1 2192   0.494   0.182   0.107 -2.1374  1.2723  1.5759
  731SOL    HW2 2193   0.636   0.109   0.155 -0.1767 -0.3331 -1.6094
  732SOL     OW 2194   0.621   0.770   0.105  0.5138  0.0986  0.3996
  732SOL    HW1 2195   0.693   0.748   0.170 -0.5732  0.0748 -2.0662
  732SOL    HW2 2196   0.530   0.727   0.134  0.2794 -2.4308  0.0543
  733SOL     OW 2197   1.448   1.525   1.765  0.1227 -0.1889 -0.4191
  733SOL    HW1 2198   1.545   1.530   1.731  3.4417  1.1261 -1.9642
  733SOL    HW2 2199   1.385   1.467   1.706 -1.6238  1.5384  0.8059
  734SOL     OW 2200   2.993   2.827   2.319 -0.8903  0.0054  0.7139
  734SOL    HW1 2201   2.983   2.920   2.351  1.9576 -1.9556  3.4310
  734SOL    HW2 2202   3.093   2.815   2.299  0.6063 -1.1143  0.5285
  735SOL     OW 2203   0.887   2.739   0.959  0.3518  0.1849 -0.1136
  735SOL    HW1 2204   0.927   2.825   0.920  0.6920  0.8689  0.0550
  735SOL    HW2 2205   0.953   2.660   0.950  2.5448 -2.2293 -1.8990
  736SOL     OW 2206   1.476   0.821   2.657  0.2178 -0.7513 -0.1234
  736SOL    HW1 2207   1.464   0.721   2.630 -1.1242  0.5244 -1.4705
  736SOL    HW2 2208   1.389   0.867   2.638 -1.5494 -1.3712 -0.2653
  737SOL     OW 2209   3.061   0.929   0.404 -0.3109 -0.0761 -0.4182
  737SOL    HW1 2210   0.035   0.906   0.426 -1.8012  1.2077  1.8798
  737SOL    HW2 2211   3.051   1.022   0.369 -0.3150  1.3530 -1.6664
  738SOL     OW 2212   0.142   2.838   1.347 -0.2733  0.3809  0.3479
  738SOL    HW1 2213   0.058   2.808   1.401  0.1037 -1.8725 -1.7601
  738SOL    HW2 2214   0.174   2.757   1.299 -1.1604 -0.0349  1.4040
  739SOL     OW 2215   1.564   2.907   0.672 -0.2198  0.5540 -0.4965
  739SOL    HW1 2216   1.483   2.907   0.735  0.3145 -1.7978 -0.5160
  739SOL    HW2 2217   1.543   2.916   0.573  1.6422  2.2736 -0.0559
  740SOL     OW 2218   1.404   2.835   1.126 -0.0337  0.0188 -0.1772
  740SOL    HW1 2219   1.493   2.881   1.142 -2.0100 -1.4351  0.2545
  740SOL    HW2 2220   1.347   2.836   1.207  1.5088 -1.3427  0.9406
  741SOL     OW 2221   1.925   0.774   0.554 -0.2298 -0.5918  0.1649
  741SOL    HW1 2222   1.858   0.701   0.583  0.8979  0.1224 -0.1567
  741SOL    HW2 2223   1.974   0.743   0.465 -0.2073  1.9966 -2.5050
  742SOL     OW 2224   1.220   2.280   1.669  0.3038  0.1981 -0.0276
  742SOL    HW1 2225   1.258   2.327   1.755 -0.5353 -0.8932 -0.8681
  742SOL    HW2 2226   1.283   2.198   1.646  0.2266 -1.8070 -2.1503
  743SOL     OW 2227   2.289   0.689   2.207 -0.7696 -0.3748  0.9260
  743SOL    HW1 2228   2.225   0.736   2.268  1.9973  1.0333  0.3828
  743SOL    HW2 2229   2.362   0.759   2.183 -0.7858 -0.1318 -1.5625
  744SOL     OW 2230   2.155   0.399   0.645 -0.4805 -0.0934 -0.3131
  744SOL    HW1 2231   2.136   0.448   0.557 -1.8142  1.3698  0.9573
  744SOL    HW2 2232   2.199   0.464   0.713  0.3464  1.0188  1.3417
  745SOL     OW 2233   2.267   1.549   1.935  0.2318  0.1008 -0.1391
  745SOL    HW1 2234   2.193   1.603   1.982 -0.5028 -1.5951  2.0191
  745SOL    HW2 2235   2.334   1.608   1.882 -0.1719  0.7030 -0.7467
  746SOL     OW 2236   1.223   1.779   0.829  0.2688 -0.1826  0.1240
  746SOL    HW1 2237   1.143   1.843   0.818  0.4268 -0.0580 -0.2358
  746SOL    HW2 2238   1.270   1.803   0.919 -0.9269  0.4316 -0.4373
  747SOL     OW 2239   2.075   1.132   1.105  0.4890 -0.3463  0.2601
  747SOL    HW1 2240   2.034   1.139   1.201 -2.1653 -0.0670  2.4069
  747SOL    HW2 2241   2.071   1.034   1.073  0.3869  1.0650  0.2682
  748SOL     OW 2242   0.148   3.041   0.099  0.6248  0.1775 -0.6618
  748SOL    HW1 2243   0.175   3.097   0.179  0.4518 -2.3036  0.8077
  748SOL    HW2 2244   0.151   2.943   0.136  2.1735 -2.5261  1.1199
  749SOL     OW 2245   0.193   0.235   2.118 -0.1316 -0.1586  0.0727
  749SOL    HW1 2246   0.136   0.209   2.042 -0.0499  0.9094 -0.9743
  749SOL    HW2 2247   0.137   0.228   2.201  0.9377  0.2478 -0.8690
  750SOL     OW 2248   1.719   2.718   1.623 -0.3478  0.3563 -0.5688
  750SOL    HW1 2249   1.799   2.669   1.661 -1.3028  1.0270  2.2193
  750SOL    HW2 2250   1.632   2.672   1.642  0.5291 -1.2328  0.3426
  751SOL     OW 2251   2.762   0.517   0.512  0.1277  0.0157 -0.4090
  751SOL    HW1 2252   2.804   0.576   0.443  0.9771 -0.5788  1.3390
  751SOL    HW2 2253   2.827   0.440   0.536  3.1312 -1.4384  1.4514
  752SOL     OW 2254   0.219   3.070   0.863  0.2278 -0.6111  0.1965
  752SOL    HW1 2255   0.237   2.968   0.871 -1.2985 -0.0572  0.1294
  752SOL    HW2 2256   0.295   3.118   0.806 -1.2256  1.7811 -0.8182
  753SOL     OW 2257   0.926   0.302   1.390  0.2720  0.1294 -0.3334
  753SOL    HW1 2258   0.844   0.240   1.398 -2.4067  1.0349  1.1861
  753SOL    HW2 2259   0.975   0.300   1.480  0.7376  0.5148  0.2701
  754SOL     OW 2260   0.867   2.726   2.236  0.0374 -0.1856  0.1970
  754SOL    HW1 2261   0.773   2.730   2.284 -2.3138  0.4730 -1.3178
  754SOL    HW2 2262   0.890   2.806   2.176  0.7648 -1.5372  1.2812
  755SOL     OW 2263   2.344   1.597   0.434 -0.3215 -0.4785  0.4908
  755SOL    HW1 2264   2.433   1.621   0.400 -1.2872 -0.4781  1.8926
  755SOL    HW2 2265   2.286   1.560   0.355 -3.6413  1.7391 -0.7213
  756SOL     OW 2266   2.136   2.064   2.722 -0.1001 -0.1521  0.4458
  756SOL    HW1 2267   2.105   2.122   2.801 -2.2864  0.5887 -0.0820
  756SOL    HW2 2268   2.218   2.104   2.676 -1.2542  1.4247 -0.6324
  757SOL     OW 2269   1.721   0.177   1.116  0.1806  0.7403  0.0336
  757SOL    HW1 2270   1.643   0.185   1.178  0.4141  0.8644 -1.0339
  757SOL    HW2 2271   1.679   0.156   1.023 -2.8462  0.0300 -3.5614
  758SOL     OW 2272   1.509   2.422   0.671  0.1639  0.7551  0.2554
  758SOL    HW1 2273   1.500   2.444   0.770  0.8449 -0.5629 -0.5903
  758SOL    HW2 2274   1.540   2.504   0.617  1.8121  1.4259  3.9817
  759SOL     OW 2275   2.474   0.390   1.079 -0.0503  0.2479 -0.0663
  759SOL    HW1 2276   2.554   0.452   1.082 -0.2577 -2.0708 -1.8497
  759SOL    HW2 2277   2.405   0.408   1.152 -1.2032  1.1282  2.6892
  760SOL     OW 2278   2.317   1.052   1.304 -0.4875 -0.3170 -0.1150
  760SOL    HW1 2279   2.301   1.095   1.397 -0.8339  2.6780  1.0309
  760SOL    HW2 2280   2.327   1.126   1.233  0.5839 -4.1869  1.0005
  761SOL     OW 2281   0.492   0.701   0.659 -0.1228  0.4020 -0.5574
  761SOL    HW1 2282   0.427   0.741   0.589 -0.0955  3.0864 -2.0500
  761SOL    HW2 2283   0.445   0.680   0.747 -0.1558  1.8076  0.5010
  762SOL     OW 2284   1.672   1.847   1.264 -0.2825  0.0237  0.2857
  762SOL    HW1 2285   1.765   1.812   1.306  0.6882 -0.6327  2.4759
  762SOL    HW2 2286   1.663   1.946   1.264  0.6082 -0.0655  0.9966
  763SOL     OW 2287   1.053   1.305   1.793 -0.0579  0.1035  0.2436
  763SOL    HW1 2288   1.010   1.226   1.742 -0.9690 -0.4693  0.8657
  763SOL    HW2 2289   0.974   1.368   1.825 -1.3161 -0.7004  2.4007
  764SOL     OW 2290   3.088   1.879   2.126  0.4325  0.0836  0.3779
  764SOL    HW1 2291   2.993   1.851   2.088 -0.8992 -2.4338 -1.5410
  764SOL    HW2 2292   0.038   1.871   2.057  2.0696 -1.2730 -0.1361
  765SOL     OW 2293   1.403   2.281   1.218  0.2370  0.0173 -0.1943
  765SOL    HW1 2294   1.331   2.243   1.283 -0.6037 -3.1017 -0.1008
  765SOL    HW2 2295   1.412   2.378   1.231 -1.5812 -0.9146  0.2372
  766SOL     OW 2296   0.252   2.653   2.406  0.1456  0.3530 -0.3658
  766SOL    HW1 2297   0.221   2.745   2.446 -0.6240  2.0753 -2.1513
  766SOL    HW2 2298   0.165   2.606   2.367 -2.1070 -1.3648 -3.3080
  767SOL     OW 2299   1.411   0.574   2.579 -0.0818  0.0017 -0.1855
  767SOL    HW1 2300   1.441   0.485   2.616 -1.0394 -0.0522 -1.2980
  767SOL    HW2 2301   1.314   0.585   2.570  1.8730  0.2154  0.5790
  768SOL     OW 2302   1.358   2.290   3.042 -0.2653  0.3412 -0.1924
  768SOL    HW1 2303   1.407   2.370   3.001 -2.1076  2.0991 -4.5505
  768SOL    HW2 2304   1.309   2.244   2.967 -0.4053 -1.2018 -1.3113
  769SOL     OW 2305   0.331   2.730   1.120  0.0297 -0.2464  0.2981
  769SOL    HW1 2306   0.280   2.759   1.038  1.2783  0.7591 -0.9477
  769SOL    HW2 2307   0.412   2.790   1.140 -0.9605 -0.4872 -1.7810
  770SOL     OW 2308   1.469   0.906   3.011 -0.1651  0.2186 -0.7178
  770SOL    HW1 2309   1.548   0.882   2.955 -0.1159 -1.8205  1.2711
  770SOL    HW2 2310   1.470   0.848   3.095 -0.6353 -0.9305 -0.9840
  771SOL     OW 2311   0.258   0.188   2.473  0.0977 -0.1829 -0.1507
  771SOL    HW1 2312   0.281   0.100   2.517  2.2830 -1.1789  2.3630
  771SOL    HW2 2313   0.340   0.237   2.446 -2.0325 -0.2657 -0.3437
  772SOL     OW 2314   1.937   2.883   2.090  0.6811  0.1544  0.3457
  772SOL    HW1 2315   1.973   2.977   2.085  0.4114 -1.4291  0.1164
  772SOL    HW2 2316   1.965   2.841   2.001 -0.5451 -1.5680 -1.4142
  773SOL     OW 2317   0.776   2.323   1.950 -0.3636 -0.1232  0.2165
  773SOL    HW1 2318   0.852   2.306   1.887 -1.6601 -4.0911 -2.0181
  773SOL    HW2 2319   0.792   2.403   2.008 -0.1369 -4.0594 -0.5579
  774SOL     OW 2320   1.179   0.192   2.040 -0.7277 -0.3052 -0.0170
  774SOL    HW1 2321   1.207   0.098   2.072  1.4109  0.8977 -0.2861
  774SOL    HW2 2322   1.204   0.258   2.118  0.0391  1.4915  1.1752
  775SOL     OW 2323   2.144   2.431   0.008 -0.5796  0.2386 -0.5957
  775SOL    HW1 2324   2.162   2.389   0.102 -0.2169 -1.3055 -3.5843
  775SOL    HW2 2325   2.078   2.511   0.014  1.1218 -0.7154 -2.5440
  776SOL     OW 2326   2.385   0.459   2.337 -0.8296  0.5590  0.2351
  776SOL    HW1 2327   2.434   0.475   2.422 -1.4754 -0.5128 -2.3694
  776SOL    HW2 2328   2.351   0.548   2.298 -2.3752 -0.1535 -0.0472
  777SOL     OW 2329   2.471   1.218   2.502  0.4009 -0.3543  0.5919
  777SOL    HW1 2330   2.428   1.238   2.592 -0.5224 -0.0944  0.7137
  777SOL    HW2 2331   2.573   1.236   2.497  1.7590 -1.7255 -1.5202
  778SOL     OW 2332   2.118   0.903   2.305  0.1112 -0.2484 -0.2681
  778SOL    HW1 2333   2.074   0.918   2.212 -0.3969  1.2633 -2.6191
  778SOL    HW2 2334   2.078   0.963   2.376  2.9586 -1.1109  2.7952
  779SOL     OW 2335   3.087   0.270   0.256 -0.7446  0.3249 -0.2530
  779SOL    HW1 2336   0.067   0.280   0.253 -1.4093  2.2768  1.0020
  779SOL    HW2 2337   3.062   0.243   0.348  0.5005  1.5171 -0.6816
  780SOL     OW 2338   2.799   0.410   2.854  0.6812 -0.0386  0.0924
  780SOL    HW1 2339   2.832   0.465   2.773  0.3375 -3.3399  3.3026
  780SOL    HW2 2340   2.838   0.449   2.936 -1.3219  1.7455 -4.9198
  781SOL     OW 2341   0.234   3.083   1.381 -0.2318  0.3746 -0.3668
  781SOL    HW1 2342   0.199   0.025   1.307  1.1112 -2.7857  1.3404
  781SOL    HW2 2343   0.193   2.992   1.356 -2.4425  0.8332  0.5187
  782SOL     OW 2344   1.833   2.484   0.717  0.9132  0.3524  0.1845
  782SOL    HW1 2345   1.788   2.570   0.746 -0.0688 -0.8548 -1.6698
  782SOL    HW2 2346   1.890   2.490   0.629  2.6450 -0.4206  0.8394
  783SOL     OW 2347   0.672   1.439   1.461 -0.1683  0.1546  0.2965
  783SOL    HW1 2348   0.736   1.471   1.385  1.0535 -0.2169 -1.3981
  783SOL    HW2 2349   0.706   1.440   1.559  1.1565 -0.1175  2.1094
  784SOL     OW 2350   1.433   0.320   2.664  0.0270  0.3288  0.8391
  784SOL    HW1 2351   1.405   0.228   2.637  0.4672 -2.7097  0.4581
  784SOL    HW2 2352   1.437   0.334   2.767 -1.2150  0.7318  1.1470
  785SOL     OW 2353   2.532   0.106   1.161 -0.4106 -0.0783 -0.1596
  785SOL    HW1 2354   2.522   0.202   1.140  1.6641 -2.6648  2.3401
  785SOL    HW2 2355   2.465   0.046   1.108 -1.0594  0.7992 -0.7938
  786SOL     OW 2356   1.236   2.695   1.537 -0.4580 -0.1605 -0.1487
  786SOL    HW1 2357   1.335   2.675   1.559  0.3581  1.4740  0.8211
  786SOL    HW2 2358   1.188   2.605   1.546  0.9033 -2.5311  0.2519
  787SOL     OW 2359   1.659   0.190   1.556  0.6791  0.3092  0.0106
  787SOL    HW1 2360   1.623   0.214   1.466  1.1762  1.4267 -2.4757
  787SOL    HW2 2361   1.652   0.090   1.564 -0.1317 -0.7885 -3.7923
  788SOL     OW 2362   0.015   1.237   0.314 -1.0518 -0.6212 -0.1146
  788SOL    HW1 2363   0.083   1.225   0.394  0.0977 -0.5250  1.8559
  788SOL    HW2 2364   3.118   1.334   0.294 -1.8909 -2.1017  0.9995
  789SOL     OW 2365   0.692   1.905   1.814 -0.0183 -0.2751  0.2887
  789SOL    HW1 2366   0.787   1.938   1.827  0.8342 -1.6855  1.9209
  789SOL    HW2 2367   0.676   1.816   1.861  1.1731  0.7181 -0.5757
  790SOL     OW 2368   0.729   0.691   2.520  0.1553  0.2203  0.4032
  790SOL    HW1 2369   0.798   0.647   2.582  1.6301 -1.2427  0.5235
  790SOL    HW2 2370   0.635   0.676   2.561 -0.5942 -2.0513  2.0075
  791SOL     OW 2371   2.192   0.763   0.611  0.0936  0.5511  0.3149
  791SOL    HW1 2372   2.092   0.777   0.597 -0.6237 -0.3753 -1.6396
  791SOL    HW2 2373   2.211   0.710   0.695  0.9611  0.5637 -1.1992
  792SOL     OW 2374   1.194   2.899   1.686  0.5907  0.0206  0.1496
  792SOL    HW1 2375   1.158   2.844   1.765  1.7371 -0.0272 -1.5458
  792SOL    HW2 2376   1.218   2.840   1.610 -0.3336  1.2957  1.2201
  793SOL     OW 2377   0.436   0.060   0.738 -0.0551 -0.7299  0.4830
  793SOL    HW1 2378   0.490   0.145   0.764  0.8977  1.3161 -0.3343
  793SOL    HW2 2379   0.437   0.048   0.635 -1.2387  0.0498 -1.8555
  794SOL     OW 2380   0.112   0.952   1.990 -0.3049  0.5550  0.6015
  794SOL    HW1 2381   0.070   1.032   2.040 -1.9576  0.8281  3.1847
  794SOL    HW2 2382   0.038   0.903   1.941  1.0392 -2.9460 -1.3016
  795SOL     OW 2383   0.658   2.299   2.346 -0.5064 -0.5181 -0.6380
  795SOL    HW1 2384   0.590   2.372   2.367  0.5496 -1.4467 -1.9032
  795SOL    HW2 2385   0.613   2.223   2.301  0.4151  1.0861 -2.7428
  796SOL     OW 2386   2.409   0.212   2.211 -0.8161  0.3377  0.0289
  796SOL    HW1 2387   2.416   0.295   2.269  2.2681  0.0689 -0.1200
  796SOL    HW2 2388   2.489   0.204   2.148  1.0070 -1.9033 -0.1873
  797SOL     OW 2389   2.428   2.526   2.686  0.4912 -0.1980 -0.1269
  797SOL    HW1 2390   2.421   2.430   2.710 -1.9906  2.0010 -0.8269
  797SOL    HW2 2391   2.344   2.576   2.715 -1.3124  2.1559 -0.6561
  798SOL     OW 2392   3.047   0.125   2.045 -0.0482  0.0668 -0.1770
  798SOL    HW1 2393   3.036   0.201   1.978  0.7786 -0.6407 -1.2392
  798SOL    HW2 2394   2.992   0.043   2.018  2.0516  1.6484  2.0827
  799SOL     OW 2395   0.463   2.466   2.093  0.7431  0.4961 -0.2985
  799SOL    HW1 2396   0.382   2.409   2.060 -0.3076  0.6238  2.7954
  799SOL    HW2 2397   0.543   2.462   2.031  0.9363 -0.6391 -2.3098
  800SOL     OW 2398   0.129   2.062   0.147 -0.1540 -0.1402  0.0861
  800SOL    HW1 2399   0.184   2.150   0.138  1.9963  1.2601  2.6745
  800SOL    HW2 2400   0.149   2.019   0.236  3.2643 -1.3830  0.2039
  801SOL     OW 2401   1.586   1.416   1.185 -0.1019  0.0341 -0.4590
  801SOL    HW1 2402   1.519   1.451   1.254  1.0839 -0.2192 -0.7039
  801SOL    HW2 2403   1.580   1.487   1.116  2.1093 -1.2580 -0.1035
  802SOL     OW 2404   2.923   0.706   0.338  0.3497 -0.3325  0.5218
  802SOL    HW1 2405   2.975   0.788   0.371  1.0337  0.8233 -0.9751
  802SOL    HW2 2406   2.841   0.729   0.285  1.0132 -1.1325  2.1332
  803SOL     OW 2407   1.283   1.354   2.128 -0.4306 -0.1296 -0.4309
  803SOL    HW1 2408   1.331   1.442   2.111 -0.5697 -1.1655  0.8823
  803SOL    HW2 2409   1.279   1.293   2.048  0.0853  1.8144  1.4862
  804SOL     OW 2410   1.858   1.445   1.097 -0.2666  0.7069 -0.1928
  804SOL    HW1 2411   1.760   1.460   1.120 -0.7006 -0.2013  0.6629
  804SOL    HW2 2412   1.874   1.371   1.030 -0.5865 -0.1829  1.1400
  805SOL     OW 2413   2.819   1.864   2.732 -0.3345 -0.1550  0.1778
  805SOL    HW1 2414   2.843   1.897   2.635  1.9541  0.0716 -5.3450
  805SOL    HW2 2415   2.764   1.778   2.720  0.1494 -4.4255  0.2932
  806SOL     OW 2416   0.455   2.499   0.126 -0.0607 -0.2713  0.2694
  806SOL    HW1 2417   0.546   2.453   0.129 -2.8372  1.8502  0.3220
  806SOL    HW2 2418   0.462   2.602   0.125  1.2689  2.8193  0.6993
  807SOL     OW 2419   2.315   1.654   2.861  0.0060  0.3426  0.1925
  807SOL    HW1 2420   2.377   1.726   2.891 -1.6548  0.5054 -4.1826
  807SOL    HW2 2421   2.227   1.696   2.835  3.0815 -0.1880 -3.3781
  808SOL     OW 2422   1.266   1.903   1.226 -0.5374  0.6290 -0.1030
  808SOL    HW1 2423   1.186   1.914   1.167  1.2319  1.8405  1.3922
  808SOL    HW2 2424   1.273   1.983   1.285  0.2460 -0.4438 -0.8140
  809SOL     OW 2425   0.052   0.635   0.240  0.3085  0.1912 -0.1352
  809SOL    HW1 2426   3.074   0.656   0.267 -0.2533  0.6238  0.2415
  809SOL    HW2 2427   0.085   0.545   0.276 -0.5678  0.3172 -0.3365
  810SOL     OW 2428   0.968   1.328   0.158 -0.3362  0.1927  0.2587
  810SOL    HW1 2429   1.061   1.308   0.193 -0.5434  0.8317 -2.1954
  810SOL    HW2 2430   0.972   1.421   0.133  0.2289 -0.7656  0.2580
  811SOL     OW 2431   1.784   2.369   1.063  0.3325 -0.1503 -0.4840
  811SOL    HW1 2432   1.842   2.366   0.979  2.5721 -1.2683  2.6727
  811SOL    HW2 2433   1.829   2.437   1.127  1.9107  2.1110  0.7187
  812SOL     OW 2434   1.242   2.867   1.325  0.0769 -0.0529 -0.0882
  812SOL    HW1 2435   1.233   2.786   1.381 -0.9449 -1.5855  1.1830
  812SOL    HW2 2436   1.160   2.930   1.325  0.0270  4.6545 -1.0439
  813SOL     OW 2437   0.815   3.099   1.687  0.6290  0.6975  1.2013
  813SOL    HW1 2438   0.763   0.050   1.645  0.2251 -0.5749  0.0932
  813SOL    HW2 2439   0.779   3.068   1.777 -0.3066  1.8843 -0.4574
  814SOL     OW 2440   1.065   2.510   2.027  0.2103  0.2771  0.2917
  814SOL    HW1 2441   1.146   2.556   2.064  1.1517 -2.1993  0.0852
  814SOL    HW2 2442   1.005   2.471   2.099 -0.1747 -1.7173  0.9888
  815SOL     OW 2443   0.458   2.897   3.007 -0.2727 -0.2912 -0.4574
  815SOL    HW1 2444   0.458   2.803   2.970 -0.2060 -0.1351  0.6826
  815SOL    HW2 2445   0.363   2.937   2.986 -2.8103 -1.3823 -0.2070
  816SOL     OW 2446   2.288   0.631   0.032  0.0565 -0.3293 -0.2173
  816SOL    HW1 2447   2.232   0.544   0.054 -0.7377 -1.8129 -1.7506
  816SOL    HW2 2448   2.307   0.676   0.125  0.8779 -0.1392 -0.5466
  817SOL     OW 2449   2.506   2.456   2.222  0.2814 -0.0020 -0.5785
  817SOL    HW1 2450   2.462   2.497   2.140  0.4230  0.6194 -2.1765
  817SOL    HW2 2451   2.455   2.488   2.307  0.0749 -1.3348 -0.7446
  818SOL     OW 2452   0.968   0.851   0.474 -0.1261 -0.5379  0.2305
  818SOL    HW1 2453   0.976   0.753   0.464 -0.7618  1.1351  0.8987
  818SOL    HW2 2454   0.885   0.891   0.425 -1.0354  1.8398 -1.1141
  819SOL     OW 2455   1.990   1.184   2.901  0.4799  0.5025 -0.2064
  819SOL    HW1 2456   2.007   1.223   2.810 -0.5960  1.2226  0.3613
  819SOL    HW2 2457   1.990   1.257   2.965 -1.3784 -2.7779 -2.4967
  820SOL     OW 2458   0.132   1.369   2.819 -0.3831 -0.5357  0.2922
  820SOL    HW1 2459   0.103   1.460   2.793 -2.0357 -1.5226  1.6677
  820SOL    HW2 2460   0.226   1.370   2.856 -0.3921  0.9973  0.3311
  821SOL     OW 2461   0.463   0.095   0.465 -0.5871  0.0312 -0.1009
  821SOL    HW1 2462   0.553   0.135   0.435  0.2759 -0.0363  0.4149
  821SOL    HW2 2463   0.469   3.112   0.473  1.4695 -0.6044 -0.2566
  822SOL     OW 2464   2.456   2.772   3.032 -0.4639  0.4758 -0.3377
  822SOL    HW1 2465   2.456   2.681   3.076  3.5631 -1.8892  0.9251
  822SOL    HW2 2466   2.547   2.773   2.981  1.9285 -1.5765  3.5932
  823SOL     OW 2467   1.620   3.063   2.693 -0.5361  0.6364  0.8114
  823SOL    HW1 2468   1.672   2.992   2.749  2.2182  0.5795 -2.0522
  823SOL    HW2 2469   1.676   0.024   2.674 -0.3634 -0.6433 -0.2769
  824SOL     OW 2470   2.806   2.548   2.062 -0.1987 -0.0415  0.2573
  824SOL    HW1 2471   2.755   2.621   2.110 -0.4914 -0.3990 -2.2595
  824SOL    HW2 2472   2.824   2.469   2.124  1.2811  0.3236 -0.6510
  825SOL     OW 2473   2.935   1.983   2.478  0.0455  0.1050 -0.1723
  825SOL    HW1 2474   3.020   1.942   2.447 -3.6335  0.7904  1.7489
  825SOL    HW2 2475   2.889   2.043   2.409  2.2805 -0.1629  1.3684
  826SOL     OW 2476   2.066   0.810   0.047  0.0393  0.4972 -0.3187
  826SOL    HW1 2477   2.098   0.907   0.039  1.8407  3.1646 -0.6830
  826SOL    HW2 2478   2.138   0.746   0.023  2.8718  0.2987 -0.1401
  827SOL     OW 2479   2.964   1.809   1.694 -0.0883 -0.4524 -0.1022
  827SOL    HW1 2480   2.930   1.759   1.611 -0.8785  0.8444  0.2444
  827SOL    HW2 2481   2.936   1.763   1.785 -0.7944 -0.4483  0.5351
  828SOL     OW 2482   3.018   0.205   1.189  0.4197  1.0376 -0.9486
  828SOL    HW1 2483   3.112   0.175   1.165  0.2689  1.1041 -1.1754
  828SOL    HW2 2484   2.951   0.131   1.163 -0.0383 -0.1205  1.7360
  829SOL     OW 2485   0.803   1.972   2.512 -0.0251 -0.2274  0.0414
  829SOL    HW1 2486   0.816   2.070   2.482 -0.2788  1.7566 -1.8851
  829SOL    HW2 2487   0.705   1.948   2.503 -1.3747  0.2023 -0.8158
  830SOL     OW 2488   0.513   0.863   1.514 -0.9778  0.2962 -0.5247
  830SOL    HW1 2489   0.605   0.871   1.559 -1.6910  0.1662 -0.9255
  830SOL    HW2 2490   0.507   0.776   1.461  0.3378 -0.9507  1.7840
  831SOL     OW 2491   2.494   1.876   2.814  0.3575 -0.1741  0.4527
  831SOL    HW1 2492   2.563   1.807   2.779 -3.6840 -1.9518  0.9718
  831SOL    HW2 2493   2.529   1.928   2.893 -1.0923 -0.6622 -1.1315
  832SOL     OW 2494   1.951   2.604   0.009 -0.8208  0.1018 -0.0670
  832SOL    HW1 2495   1.885   2.577   3.060  2.0090 -2.2863  1.4096
  832SOL    HW2 2496   2.009   2.683   3.096  3.4809  3.4686 -1.3903
  833SOL     OW 2497   0.726   0.267   2.040  0.1761 -0.7053 -0.3230
  833SOL    HW1 2498   0.726   0.172   2.076  0.8435  0.2783 -1.6592
  833SOL    HW2 2499   0.682   0.327   2.109  1.2603 -2.4497  1.6487
  834SOL     OW 2500   2.985   0.307   1.465 -0.5159  0.0785  0.1319
  834SOL    HW1 2501   3.009   0.266   1.377 -1.2310  1.6135 -0.2627
  834SOL    HW2 2502   2.895   0.353   1.456  0.1126 -1.3696  0.2829
  835SOL     OW 2503   2.540   0.367   0.450 -0.2357 -0.2524  0.4021
  835SOL    HW1 2504   2.603   0.444   0.475  0.7080 -2.2740  1.2821
  835SOL    HW2 2505   2.588   0.280   0.463 -0.7207  1.0651 -1.3203
  836SOL     OW 2506   1.422   1.911   0.171 -0.0580  0.3285 -0.4504
  836SOL    HW1 2507   1.442   1.889   0.269 -2.6026 -0.2180 -2.8170
  836SOL    HW2 2508   1.374   1.998   0.169 -1.0678  0.9378 -0.9995
  837SOL     OW 2509   2.029   1.771   0.576 -0.4569 -0.4289  0.6687
  837SOL    HW1 2510   2.103   1.713   0.614  1.3493 -1.9492  0.4279
  837SOL    HW2 2511   2.069   1.863   0.549  1.9105  2.6191 -1.6622
  838SOL     OW 2512   1.574   0.630   2.371  0.0616 -0.2150 -0.0320
  838SOL    HW1 2513   1.535   0.590   2.456 -0.0773  0.7758 -2.5071
  838SOL    HW2 2514   1.650   0.703   2.382 -0.0521  0.4506  2.1649
  839SOL     OW 2515   0.525   1.420   2.488  0.4099  0.4263 -0.4685
  839SOL    HW1 2516   0.587   1.359   2.538 -1.7832  3.4214 -1.9561
  839SOL    HW2 2517   0.565   1.478   2.415 -1.6003  3.1921 -0.6845
  840SOL     OW 2518   0.826   1.544   0.393 -0.6156 -0.4658  0.2341
  840SOL    HW1 2519   0.897   1.615   0.397  2.3999 -1.6905  2.4293
  840SOL    HW2 2520   0.859   1.454   0.359 -0.2162  3.6008  1.0189
  841SOL     OW 2521   1.716   2.192   0.727  0.5814 -0.0944 -0.1786
  841SOL    HW1 2522   1.732   2.151   0.819  1.2694  1.9965 -2.7830
  841SOL    HW2 2523   1.740   2.289   0.726 -0.5727 -0.7181 -1.6916
  842SOL     OW 2524   0.412   0.572   3.072  0.4991 -0.1146 -0.4716
  842SOL    HW1 2525   0.370   0.587   0.047 -0.8084  1.1862  0.4246
  842SOL    HW2 2526   0.504   0.532   3.089 -0.7362  0.6254 -0.4033
  843SOL     OW 2527   0.582   0.301   0.800 -0.0303  0.6359 -0.3583
  843SOL    HW1 2528   0.671   0.258   0.817  0.7001  0.6527 -0.3011
  843SOL    HW2 2529   0.602   0.383   0.747  0.0740 -0.9033 -2.4959
  844SOL     OW 2530   2.061   0.130   2.368 -0.4274 -0.0851  0.6019
  844SOL    HW1 2531   2.104   0.056   2.315 -2.4114 -1.3735  2.3429
  844SOL    HW2 2532   1.962   0.109   2.374  2.2508  0.3788  2.4420
  845SOL     OW 2533   0.172   2.530   1.884  0.1275 -0.4588  0.2631
  845SOL    HW1 2534   0.090   2.494   1.936  2.4062  0.5614 -1.2980
  845SOL    HW2 2535   0.148   2.540   1.784  1.4804  0.3814 -0.4162
  846SOL     OW 2536   2.010   1.312   2.636 -0.4994  0.2042  0.3395
  846SOL    HW1 2537   2.100   1.365   2.636  0.7285 -1.9985 -0.7210
  846SOL    HW2 2538   1.987   1.276   2.545 -2.5965 -0.5165  2.7544
  847SOL     OW 2539   0.637   0.875   2.071  0.0899 -0.2779  0.3019
  847SOL    HW1 2540   0.586   0.820   2.000  1.7911 -1.7073  1.2505
  847SOL    HW2 2541   0.728   0.836   2.071 -2.9938 -0.9394 -0.0602
  848SOL     OW 2542   2.414   2.963   2.788 -0.1983  0.1816 -0.5461
  848SOL    HW1 2543   2.414   2.863   2.806  0.2288 -1.0668  1.1619
  848SOL    HW2 2544   2.507   2.999   2.806 -0.3478 -2.2484  0.2102
  849SOL     OW 2545   0.387   2.778   0.288 -0.2483 -0.6837  0.2649
  849SOL    HW1 2546   0.294   2.781   0.242 -0.4561  0.6062  0.2430
  849SOL    HW2 2547   0.456   2.792   0.219 -2.8969 -0.2923  1.2160
  850SOL     OW 2548   1.155   2.503   0.711 -0.3063 -0.6577 -0.1490
  850SOL    HW1 2549   1.125   2.490   0.806 -1.7863  2.0172 -0.9688
  850SOL    HW2 2550   1.190   2.424   0.666  1.1714  2.8058  5.2104
  851SOL     OW 2551   2.147   0.432   2.672  0.4499 -0.1444  0.0335
  851SOL    HW1 2552   2.137   0.392   2.581 -1.0890 -0.5196 -1.7822
  851SOL    HW2 2553   2.126   0.531   2.666  1.1392 -0.2327  2.6679
  852SOL     OW 2554   1.550   3.103   2.406  0.2154  0.2007  0.2608
  852SOL    HW1 2555   1.615   3.060   2.466  1.0293  3.7105  0.3701
  852SOL    HW2 2556   1.481   0.031   2.465 -0.0815 -1.6564  0.8962
  853SOL     OW 2557   3.030   2.549   0.424 -0.6461  0.0008 -0.1516
  853SOL    HW1 2558   2.975   2.501   0.494  0.4003  1.9487  0.3776
  853SOL    HW2 2559   3.025   2.650   0.435  2.0133 -1.4303  0.6269
  854SOL     OW 2560   1.999   0.636   2.341  0.3375 -0.1280  0.5348
  854SOL    HW1 2561   2.006   0.725   2.396  1.4896  1.6885 -1.2171
  854SOL    HW2 2562   2.039   0.555   2.385 -0.6527  1.0029 -1.3620
  855SOL     OW 2563   0.410   2.583   0.479  0.1527 -0.0014 -0.0153
  855SOL    HW1 2564   0.477   2.632   0.536 -0.5200 -1.3762  0.5151
  855SOL    HW2 2565   0.392   2.634   0.396  2.1218 -0.8280  3.0754
  856SOL     OW 2566   0.179   3.100   2.682  0.2394 -0.1278 -0.3808
  856SOL    HW1 2567   0.091   0.011   2.644  0.5926  0.1729  0.3465
  856SOL    HW2 2568   0.192   3.106   2.784 -1.3535  1.3133  0.0116
  857SOL     OW 2569   1.065   3.115   1.601  0.1344  0.1232  0.4959
  857SOL    HW1 2570   1.105   3.029   1.633  0.7663  0.7110 -1.0361
  857SOL    HW2 2571   0.971   0.003   1.639  2.8148 -2.0062  1.2505
  858SOL     OW 2572   2.798   2.279   1.677  0.1009  0.1551  0.5957
  858SOL    HW1 2573   2.864   2.206   1.677 -1.0033  3.3598  1.8260
  858SOL    HW2 2574   2.704   2.240   1.674  0.7331  0.1691  0.6910
  859SOL     OW 2575   1.950   2.201   1.930  0.2646  0.1226 -0.1907
  859SOL    HW1 2576   1.857   2.177   1.972 -2.0989  0.5801 -0.0463
  859SOL    HW2 2577   2.017   2.125   1.938 -0.7114 -2.2771 -0.1047
  860SOL     OW 2578   1.686   0.551   0.332 -0.5275  0.1077 -0.3671
  860SOL    HW1 2579   1.702   0.652   0.321  1.8593  2.7316  0.0177
  860SOL    HW2 2580   1.742   0.493   0.269  0.9569  1.0568  3.2424
  861SOL     OW 2581   2.641   0.531   0.756  0.3182  0.0607  0.5494
  861SOL    HW1 2582   2.696   0.528   0.670  1.8494 -0.4404  1.0868
  861SOL    HW2 2583   2.601   0.438   0.767 -1.8047  2.8093 -0.8483
  862SOL     OW 2584   1.218   2.934   2.488  0.1286  0.4304  0.1940
  862SOL    HW1 2585   1.273   2.910   2.569 -0.3266 -0.2126 -1.2321
  862SOL    HW2 2586   1.131   2.887   2.500  1.9804  3.4037  1.0892
  863SOL     OW 2587   0.504   0.878   1.189  0.3579 -0.4252  0.0925
  863SOL    HW1 2588   0.494   0.803   1.254  0.0358  3.5100 -3.1946
  863SOL    HW2 2589   0.524   0.962   1.240 -2.1657  3.2236 -0.8693
  864SOL     OW 2590   2.869   3.059   1.967 -0.2157  0.3712 -0.4063
  864SOL    HW1 2591   2.869   2.993   1.888 -1.7204  0.7147 -3.7906
  864SOL    HW2 2592   2.776   3.071   2.003 -0.5927 -0.6128  1.5399
  865SOL     OW 2593   0.886   1.213   2.931  0.1471  0.2017  0.6345
  865SOL    HW1 2594   0.841   1.204   3.020 -2.1075 -2.3973 -1.4838
  865SOL    HW2 2595   0.817   1.260   2.873  0.9415  0.1073 -3.3289
  866SOL     OW 2596   3.027   0.068   0.056 -0.4068  0.1986  0.0709
  866SOL    HW1 2597   3.054   0.161   0.092 -1.1910 -1.6694  2.1698
  866SOL    HW2 2598   3.099   3.118   0.067  0.1743  0.4562 -0.6527
  867SOL     OW 2599   2.870   3.003   2.666 -0.2196  0.4421 -0.1157
  867SOL    HW1 2600   2.909   3.038   2.580 -1.9973 -2.0703  1.6580
  867SOL    HW2 2601   2.938   2.934   2.708 -1.4438 -0.7769 -1.8183
  868SOL     OW 2602   1.395   1.171   0.027 -0.8679 -0.2588  0.3414
  868SOL    HW1 2603   1.464   1.243   3.115 -0.4995 -0.7350  2.3352
  868SOL    HW2 2604   1.425   1.080   3.111 -2.1368  4.0828  1.6345
  869SOL     OW 2605   0.320   1.611   0.474  0.0602  0.3655 -0.0187
  869SOL    HW1 2606   0.389   1.614   0.552  0.3697  0.2878 -0.3070
  869SOL    HW2 2607   0.235   1.568   0.513 -1.1572 -0.4048  0.3198
  870SOL     OW 2608   2.312   1.742   0.681  0.1060 -0.0957  0.4374
  870SOL    HW1 2609   2.331   1.841   0.674  0.3142  1.8409 -1.2941
  870SOL    HW2 2610   2.357   1.697   0.601 -3.9185  0.1452 -0.2654
  871SOL     OW 2611   0.998   1.244   1.069  0.0875 -0.5181 -0.4026
  871SOL    HW1 2612   1.026   1.186   0.993 -0.4958  1.8113  2.7277
  871SOL    HW2 2613   0.898   1.254   1.062  0.7706 -1.3044 -1.0247
  872SOL     OW 2614   1.381   1.618   2.021 -0.2124 -0.2322  0.2293
  872SOL    HW1 2615   1.403   1.600   1.923  0.0864 -1.6382 -1.4175
  872SOL    HW2 2616   1.420   1.708   2.055  0.7465  3.4126 -1.1176
  873SOL     OW 2617   0.907   1.802   2.350  0.8619 -0.2752  0.5757
  873SOL    HW1 2618   0.867   1.877   2.408  2.7841 -0.8533 -0.3944
  873SOL    HW2 2619   0.887   1.818   2.253 -3.2478  0.5198  0.5826
  874SOL     OW 2620   0.950   2.281   0.853  0.4317 -0.4883 -0.2771
  874SOL    HW1 2621   1.023   2.216   0.831  1.4809  1.0615  1.7338
  874SOL    HW2 2622   0.866   2.229   0.857  0.5790  1.0395  0.3205
  875SOL     OW 2623   2.563   0.285   0.835 -0.2450  0.2656 -0.3901
  875SOL    HW1 2624   2.498   0.256   0.766  4.2888  1.9689  0.0362
  875SOL    HW2 2625   2.516   0.314   0.922 -0.9573 -1.7282 -2.1710
  876SOL     OW 2626   0.799   0.577   0.181  0.4669 -0.2230  0.3085
  876SOL    HW1 2627   0.802   0.533   0.274 -0.0937 -0.3547  0.0855
  876SOL    HW2 2628   0.889   0.620   0.154  0.9205 -1.6712 -0.7971
  877SOL     OW 2629   2.675   0.625   1.259  0.5158 -0.4547 -0.1097
  877SOL    HW1 2630   2.632   0.661   1.175 -0.3603  3.7359  1.7857
  877SOL    HW2 2631   2.731   0.692   1.308  0.0801  0.2188  1.9442
  878SOL     OW 2632   2.291   2.303   0.990 -0.2037 -0.7570  0.6029
  878SOL    HW1 2633   2.213   2.314   1.055 -0.6444  0.7881  2.2482
  878SOL    HW2 2634   2.327   2.209   0.995 -0.7891  1.0642  0.7687
  879SOL     OW 2635   2.666   1.712   1.520  0.2958  0.3198  0.0953
  879SOL    HW1 2636   2.649   1.808   1.488  0.0777 -1.6449 -1.5739
  879SOL    HW2 2637   2.614   1.644   1.460  0.8697  0.0444  0.6872
  880SOL     OW 2638   1.405   2.572   1.223 -0.5163 -0.4211  0.3144
  880SOL    HW1 2639   1.435   2.651   1.166 -3.2546 -0.4903  1.8881
  880SOL    HW2 2640   1.303   2.565   1.229  0.4771  0.7923  0.1642
  881SOL     OW 2641   0.690   2.390   0.142 -0.5832  0.3869  0.9694
  881SOL    HW1 2642   0.681   2.333   0.229 -0.0380  0.2668 -1.3866
  881SOL    HW2 2643   0.768   2.348   0.085  4.3428 -0.8686 -1.8717
  882SOL     OW 2644   1.877   1.125   1.793  0.4247  0.0060  0.5908
  882SOL    HW1 2645   1.794   1.087   1.742 -0.7374  0.9128  2.4796
  882SOL    HW2 2646   1.950   1.055   1.804  4.5182  2.7766 -0.0426
  883SOL     OW 2647   1.209   3.061   2.139  0.2330  0.2673 -0.4744
  883SOL    HW1 2648   1.173   3.044   2.230 -2.4260  1.1573 -3.1880
  883SOL    HW2 2649   1.291   3.005   2.110  0.7733 -1.5381 -3.1576
  884SOL     OW 2650   2.886   0.600   3.058 -0.2155  0.2898  0.2176
  884SOL    HW1 2651   2.982   0.635   3.047 -0.5398  1.8476  0.1728
  884SOL    HW2 2652   2.817   0.667   3.026  0.3067 -2.3323  2.3271
  885SOL     OW 2653   1.146   1.211   2.967 -0.0836 -0.3538  0.6182
  885SOL    HW1 2654   1.194   1.184   3.053  0.6889 -2.1748  0.3312
  885SOL    HW2 2655   1.048   1.204   2.968  3.4303  1.1893 -1.3402
  886SOL     OW 2656   1.482   1.371   2.830  0.8291 -0.0316  1.1067
  886SOL    HW1 2657   1.562   1.342   2.889 -0.2377  2.5212 -1.2753
  886SOL    HW2 2658   1.431   1.286   2.801 -2.3081 -2.5031  2.6159
  887SOL     OW 2659   1.039   0.598   1.877  0.5785 -0.1423  0.2026
  887SOL    HW1 2660   1.007   0.502   1.903  0.7230 -1.3653 -2.2760
  887SOL    HW2 2661   1.135   0.603   1.842  1.5177 -0.3394  0.9074
  888SOL     OW 2662   2.636   0.637   1.882 -0.0532 -0.1375 -0.5226
  888SOL    HW1 2663   2.559   0.602   1.932 -0.3776  1.7459  0.2620
  888SOL    HW2 2664   2.614   0.644   1.782 -0.9390 -1.2756  0.0751
  889SOL     OW 2665   0.200   2.867   0.585 -0.1821  0.2997  0.3148
  889SOL    HW1 2666   0.213   2.807   0.667 -1.8521  3.2001 -0.6003
  889SOL    HW2 2667   0.284   2.908   0.552 -0.3300  1.9462  1.0278
  890SOL     OW 2668   3.040   2.176   0.360  0.2107 -0.3233  0.1339
  890SOL    HW1 2669   3.004   2.141   0.450 -1.8984  1.3562 -1.1330
  890SOL    HW2 2670   0.019   2.166   0.355 -3.0486 -0.1176  2.0553
  891SOL     OW 2671   1.133   1.663   3.039 -0.1390 -0.0722  0.1928
  891SOL    HW1 2672   1.077   1.702   2.966  2.5968 -1.1786  2.4140
  891SOL    HW2 2673   1.225   1.632   3.002  0.7858  0.7244 -3.0009
  892SOL     OW 2674   2.901   3.117   0.892 -0.0422 -0.2651 -0.3288
  892SOL    HW1 2675   2.876   3.118   0.993  1.4457  3.4048  0.7658
  892SOL    HW2 2676   2.871   3.027   0.864 -0.2599  1.0553 -1.9020
  893SOL     OW 2677   1.010   2.995   1.361 -0.0769  0.1284  0.4994
  893SOL    HW1 2678   1.018   3.050   1.446 -0.2801 -0.2013 -0.5712
  893SOL    HW2 2679   0.951   3.045   1.297 -0.5989 -2.0199  3.1927
  894SOL     OW 2680   2.908   1.014   0.620 -0.3635 -0.1607 -0.0243
  894SOL    HW1 2681   2.963   0.954   0.557  0.9213 -0.3293 -3.0230
  894SOL    HW2 2682   2.897   0.976   0.715 -0.1489  0.8916  0.7203
  895SOL     OW 2683   2.355   2.571   2.020  0.1602 -0.0932 -0.2419
  895SOL    HW1 2684   2.254   2.544   2.039 -3.3636  0.5069 -1.0672
  895SOL    HW2 2685   2.376   2.664   2.062 -0.6644 -1.2423  0.0636
  896SOL     OW 2686   1.048   0.268   1.640  0.1340  0.6665  0.2335
  896SOL    HW1 2687   1.087   0.170   1.624 -0.0780 -2.1650 -2.1073
  896SOL    HW2 2688   1.023   0.284   1.737  1.5840  0.7987  0.1004
  897SOL     OW 2689   1.056   1.658   1.973 -0.0941 -0.1303 -0.0604
  897SOL    HW1 2690   1.134   1.681   1.912  0.4730  2.0308  2.0883
  897SOL    HW2 2691   1.089   1.677   2.065 -1.9763 -0.8311 -1.2215
  898SOL     OW 2692   1.780   2.366   1.779  0.2802  0.0598  0.4279
  898SOL    HW1 2693   1.826   2.455   1.749 -1.1437  1.3910  1.4999
  898SOL    HW2 2694   1.844   2.306   1.835 -1.6627 -1.5087 -1.4989
  899SOL     OW 2695   1.048   0.505   1.001  0.7230  0.3570  0.2585
  899SOL    HW1 2696   1.082   0.479   1.098  0.8608  1.8138 -1.1731
  899SOL    HW2 2697   1.047   0.607   0.991  1.4785  0.8799  0.3691
  900SOL     OW 2698   1.890   2.465   2.695  0.3752 -0.6128 -0.0906
  900SOL    HW1 2699   1.789   2.448   2.671 -0.2984  0.6358  1.6374
  900SOL    HW2 2700   1.955   2.424   2.633  1.1283 -0.5873  1.5893
  901SOL     OW 2701   0.862   2.283   2.512 -0.0837  0.3138 -0.0306
  901SOL    HW1 2702   0.847   2.331   2.597  1.6406 -2.2230  0.5725
  901SOL    HW2 2703   0.780   2.297   2.449  1.3366  0.5127  2.6581
  902SOL     OW 2704   2.273   1.269   0.355  0.0915 -0.0114  0.3528
  902SOL    HW1 2705   2.259   1.356   0.305 -0.1435  0.5667  3.2493
  902SOL    HW2 2706   2.197   1.242   0.415  4.8127  1.9981 -1.1679
  903SOL     OW 2707   1.854   0.990   0.443 -0.5720  0.0397 -0.1053
  903SOL    HW1 2708   1.879   1.002   0.339  0.1409  1.2721 -3.2132
  903SOL    HW2 2709   1.880   0.893   0.475 -0.2567  0.5364  0.6830
  904SOL     OW 2710   0.757   0.783   2.983  0.0583 -0.4408 -0.1737
  904SOL    HW1 2711   0.717   0.768   3.079 -1.2130  2.0811 -0.0553
  904SOL    HW2 2712   0.685   0.797   2.913  0.8470 -2.0864  0.1570
  905SOL     OW 2713   2.056   0.247   0.844 -0.6539 -0.1388 -0.2568
  905SOL    HW1 2714   1.963   0.214   0.820  1.6260  0.1430  0.5454
  905SOL    HW2 2715   2.098   0.291   0.760 -0.6669 -0.6352 -0.5554
  906SOL     OW 2716   2.838   2.379   1.438  0.1866  0.0989  0.3973
  906SOL    HW1 2717   2.836   2.338   1.533  1.3388  0.4494  2.0057
  906SOL    HW2 2718   2.800   2.473   1.443 -1.5719  2.3235  0.4565
  907SOL     OW 2719   1.050   0.673   0.144 -0.0162  0.5239 -0.0354
  907SOL    HW1 2720   1.141   0.656   0.192  1.6843 -1.1930  3.2581
  907SOL    HW2 2721   1.046   0.757   0.090  0.5904 -2.6740  2.6019
  908SOL     OW 2722   1.900   2.980   1.348  0.6391  0.0121 -0.7663
  908SOL    HW1 2723   1.982   2.932   1.375 -3.4773  0.8911  1.3280
  908SOL    HW2 2724   1.917   3.074   1.320 -1.4119  0.9526  1.7386
  909SOL     OW 2725   2.307   0.783   1.313  0.4156 -0.6732 -0.4630
  909SOL    HW1 2726   2.272   0.760   1.408  2.7765 -1.1875 -2.3696
  909SOL    HW2 2727   2.315   0.886   1.310 -2.6181  0.8028  1.3983
  910SOL     OW 2728   1.189   2.800   1.950 -0.0492  0.2143  0.8038
  910SOL    HW1 2729   1.276   2.853   1.938  1.0933 -0.6725 -1.9870
  910SOL    HW2 2730   1.185   2.750   2.040  1.7589  0.9583 -1.9466
  911SOL     OW 2731   2.723   0.298   2.436  0.0039  0.8708 -0.5013
  911SOL    HW1 2732   2.688   0.389   2.466  0.7076 -0.1433  1.9831
  911SOL    HW2 2733   2.748   0.296   2.339  1.0244 -0.0958  1.6799
  912SOL     OW 2734   2.895   1.338   1.523 -0.3414  0.3840  0.1472
  912SOL    HW1 2735   2.912   1.435   1.525 -1.9108 -2.7184  0.9532
  912SOL    HW2 2736   2.975   1.282   1.550  1.3189  0.5087  0.4618
  913SOL     OW 2737   2.992   2.078   1.596 -0.1991 -1.0600 -0.2195
  913SOL    HW1 2738   2.964   1.990   1.644 -0.7058  2.1303 -0.0182
  913SOL    HW2 2739   3.081   2.110   1.635 -1.2945  0.8453  1.0812
  914SOL     OW 2740   1.948   1.100   1.363 -0.0093 -0.5681 -0.3095
  914SOL    HW1 2741   1.954   1.005   1.332  0.3939 -0.2974 -1.2394
  914SOL    HW2 2742   1.985   1.104   1.459  3.6990 -0.8828  3.7919
  915SOL     OW 2743   1.366   0.498   1.359  0.4093  0.1008  0.5689
  915SOL    HW1 2744   1.346   0.503   1.457  1.2503 -0.7953 -1.9625
  915SOL    HW2 2745   1.425   0.572   1.326 -1.3556 -2.1970  1.8104
  916SOL     OW 2746   2.772   2.636   1.469  0.1859  0.0875 -0.1779
  916SOL    HW1 2747   2.680   2.623   1.425 -2.1393  1.0478  0.7062
  916SOL    HW2 2748   2.766   2.630   1.570  0.8391 -2.4082  1.2545
  917SOL     OW 2749   2.450   2.115   0.229  0.3545 -0.2465 -0.3926
  917SOL    HW1 2750   2.369   2.101   0.169 -0.2983  0.9175 -2.0332
  917SOL    HW2 2751   2.474   2.213   0.250 -0.5791  2.5863 -0.7765
  918SOL     OW 2752   1.960   2.732   2.608 -0.1518  0.1734  0.1213
  918SOL    HW1 2753   1.955   2.761   2.510 -0.7233 -1.8374  0.8559
  918SOL    HW2 2754   1.928   2.636   2.625  0.2600  0.2348 -0.8260
  919SOL     OW 2755   1.233   2.133   1.381  0.1891 -0.1515 -0.3279
  919SOL    HW1 2756   1.280   2.112   1.468  1.4470  1.8625  0.3720
  919SOL    HW2 2757   1.135   2.129   1.398  2.8379  0.1172  0.4373
  920SOL     OW 2758   0.226   0.459   2.257  0.0653 -0.0368 -0.2297
  920SOL    HW1 2759   0.191   0.393   2.189  1.5546  1.2809 -1.3684
  920SOL    HW2 2760   0.313   0.488   2.224 -2.1967 -1.0273  0.2783
  921SOL     OW 2761   3.013   0.799   1.903 -0.4558  0.1874 -0.0695
  921SOL    HW1 2762   2.980   0.750   1.987 -1.1749 -1.8022  0.8245
  921SOL    HW2 2763   3.018   0.733   1.828 -0.7987  1.0297 -0.1932
  922SOL     OW 2764   2.089   2.030   0.502 -0.2706 -0.2229  0.1943
  922SOL    HW1 2765   2.006   2.084   0.521  3.5806 -2.1011 -2.4121
  922SOL    HW2 2766   2.169   2.095   0.481  4.4770  0.4181 -2.2998
  923SOL     OW 2767   0.861   1.967   2.771 -0.0263  0.3254 -0.2323
  923SOL    HW1 2768   0.863   1.950   2.667 -2.2705  0.1947 -0.8635
  923SOL    HW2 2769   0.795   2.041   2.796 -3.9662  0.8629  0.2086
  924SOL     OW 2770   1.007   0.274   0.278 -0.4873 -0.6004 -0.8572
  924SOL    HW1 2771   0.945   0.216   0.222 -0.2996 -0.5920  5.0248
  924SOL    HW2 2772   1.082   0.313   0.222  0.3066  1.3102 -0.6816
  925SOL     OW 2773   2.469   0.673   0.500 -0.5402  0.4977  0.3283
  925SOL    HW1 2774   2.380   0.689   0.551 -2.6030  2.2361 -0.7505
  925SOL    HW2 2775   2.531   0.609   0.551  0.1174  0.2117  0.8825
  926SOL     OW 2776   0.087   0.883   1.140 -0.6569  0.0074  0.2571
  926SOL    HW1 2777   0.104   0.974   1.181  0.0511  1.0096  1.0446
  926SOL    HW2 2778   0.039   0.821   1.202 -0.5144  1.1437 -1.3089
  927SOL     OW 2779   3.060   1.265   2.996  1.0281  0.2405  0.2055
  927SOL    HW1 2780   0.016   1.299   2.933  3.2366  0.3131  0.2937
  927SOL    HW2 2781   3.004   1.342   3.026  0.9567  1.1360  0.3668
  928SOL     OW 2782   2.658   0.573   2.517  0.6229 -0.2316  0.5148
  928SOL    HW1 2783   2.573   0.560   2.575 -0.5842  1.5509 -1.5914
  928SOL    HW2 2784   2.745   0.592   2.570 -0.7595 -0.1701 -0.9472
  929SOL     OW 2785   2.799   0.029   1.166 -0.1319 -0.5173 -0.1592
  929SOL    HW1 2786   2.708   0.073   1.156  1.4075  0.7256 -0.1094
  929SOL    HW2 2787   2.794   3.049   1.177  2.0531  1.1796  1.4336
  930SOL     OW 2788   2.052   1.236   1.590 -0.0979  0.1933  0.4149
  930SOL    HW1 2789   1.990   1.178   1.647 -1.7048 -0.2748  1.5848
  930SOL    HW2 2790   2.020   1.332   1.576  1.4034  1.6240 -4.3138
  931SOL     OW 2791   1.546   1.311   0.656 -0.5853  0.1812 -0.2316
  931SOL    HW1 2792   1.585   1.261   0.568  2.6268 -3.0652 -5.1703
  931SOL    HW2 2793   1.572   1.408   0.657 -1.8712 -1.6921 -0.9583
  932SOL     OW 2794   2.740   1.232   0.934 -1.0532 -0.1026 -0.3319
  932SOL    HW1 2795   2.738   1.280   0.843 -2.1374  0.6894 -2.3935
  932SOL    HW2 2796   2.732   1.130   0.918  0.7581 -0.0263 -1.9841
  933SOL     OW 2797   2.554   1.972   1.413 -0.0727  0.3675  0.0731
  933SOL    HW1 2798   2.485   1.937   1.343 -1.4613 -1.4103 -2.4662
  933SOL    HW2 2799   2.596   2.052   1.369  0.7785  3.4372 -0.2559
  934SOL     OW 2800   1.672   0.105   2.101 -0.0912  0.0672  0.3100
  934SOL    HW1 2801   1.712   0.135   2.188  0.6784 -1.7735 -1.1463
  934SOL    HW2 2802   1.617   0.176   2.060  3.5230 -2.9241 -1.3309
  935SOL     OW 2803   0.243   1.503   0.864  0.3733 -0.4957 -0.1888
  935SOL    HW1 2804   0.172   1.508   0.790  1.0269 -0.4455  1.4734
  935SOL    HW2 2805   0.301   1.584   0.867 -2.1098 -2.1451  0.1168
  936SOL     OW 2806   0.336   0.848   0.500 -0.3376  0.3812  0.3089
  936SOL    HW1 2807   0.237   0.835   0.489  0.6592 -0.7649 -1.2105
  936SOL    HW2 2808   0.366   0.929   0.443  2.4351  2.9343 -3.9334
  937SOL     OW 2809   2.376   3.098   0.988  0.1812 -0.2244  0.4036
  937SOL    HW1 2810   2.449   3.033   1.002 -2.5768  0.9755  0.2709
  937SOL    HW2 2811   2.305   3.056   0.926 -2.6502 -0.1517 -0.3040
  938SOL     OW 2812   2.566   2.187   0.532  0.0295 -0.2174  0.8926
  938SOL    HW1 2813   2.606   2.110   0.477 -1.1082 -0.0667  1.0663
  938SOL    HW2 2814   2.594   2.280   0.501  0.3703 -1.0107 -2.3767
  939SOL     OW 2815   0.933   1.964   0.293  0.1317  0.0154  0.1741
  939SOL    HW1 2816   0.883   1.885   0.250  0.0972  0.4109  3.1617
  939SOL    HW2 2817   0.967   1.944   0.388 -2.0674 -2.0709  2.0170
  940SOL     OW 2818   2.664   3.053   2.843 -0.0673  0.4350  0.5375
  940SOL    HW1 2819   2.734   3.040   2.766  0.6802  0.1420 -0.8346
  940SOL    HW2 2820   2.635   0.028   2.843  2.7025 -0.3916  0.3283
  941SOL     OW 2821   1.497   0.350   2.924 -0.0724  0.4897 -0.6760
  941SOL    HW1 2822   1.471   0.257   2.957  0.7428  0.6149 -0.9378
  941SOL    HW2 2823   1.455   0.428   2.976 -0.4239 -0.3661 -2.5861
  942SOL     OW 2824   1.268   0.805   1.302  0.1916 -0.0775  0.3134
  942SOL    HW1 2825   1.303   0.891   1.341  1.6525 -2.6076  0.1510
  942SOL    HW2 2826   1.176   0.814   1.256 -0.9011 -0.6402  1.3964
  943SOL     OW 2827   1.536   1.218   1.786 -0.7330  0.2031  0.3470
  943SOL    HW1 2828   1.558   1.230   1.887  1.2661  0.4100  1.4981
  943SOL    HW2 2829   1.468   1.142   1.775 -3.6851  1.2531  2.1656
  944SOL     OW 2830   1.391   0.814   1.993 -0.3965 -0.2137 -0.2764
  944SOL    HW1 2831   1.327   0.887   2.021  1.5121  0.2310 -3.7112
  944SOL    HW2 2832   1.482   0.858   1.989  1.4678 -0.8390 -0.1994
  945SOL     OW 2833   2.920   3.085   0.358 -0.4002 -0.5971 -0.0260
  945SOL    HW1 2834   2.864   3.023   0.413  1.4754  0.3454 -1.7546
  945SOL    HW2 2835   2.886   3.102   0.266  1.6539 -1.4324 -1.0337
  946SOL     OW 2836   2.833   0.508   2.024 -0.1649  0.2628 -0.1936
  946SOL    HW1 2837   2.886   0.586   2.065  0.3678  2.5113 -0.6506
  946SOL    HW2 2838   2.757   0.542   1.967  0.8250  0.9848  2.6562
  947SOL     OW 2839   0.430   2.944   0.491 -0.0834 -0.4287 -0.0600
  947SOL    HW1 2840   0.479   2.896   0.563  0.9793  1.9977  1.1114
  947SOL    HW2 2841   0.411   2.885   0.408  3.1365 -2.2461  1.0211
  948SOL     OW 2842   2.338   1.194   1.878  0.3217 -0.1696 -0.1976
  948SOL    HW1 2843   2.380   1.160   1.969 -0.8353  0.6910  0.6764
  948SOL    HW2 2844   2.269   1.268   1.897 -2.1358 -0.6923 -0.9347
  949SOL     OW 2845   0.529   0.869   2.853 -0.1459  0.1009 -0.1091
  949SOL    HW1 2846   0.495   0.842   2.763 -2.9007 -1.9378  1.0528
  949SOL    HW2 2847   0.470   0.830   2.926  0.2995  0.6140 -0.4499
  950SOL     OW 2848   0.688   0.207   1.091 -0.2626 -0.3454  0.3289
  950SOL    HW1 2849   0.661   0.117   1.043 -1.8783 -2.6342 -0.2557
  950SOL    HW2 2850   0.758   0.249   1.034 -0.3477 -0.7969  2.8020
  951SOL     OW 2851   0.799   1.569   2.418  0.1305  0.5895 -0.3166
  951SOL    HW1 2852   0.840   1.659   2.407 -1.0576 -1.5509 -1.5275
  951SOL    HW2 2853   0.859   1.492   2.392 -1.3921 -0.1519  1.4521
  952SOL     OW 2854   0.971   1.578   0.097  0.3606  0.1968  0.2511
  952SOL    HW1 2855   1.032   1.606   0.018 -1.0147 -4.0223  0.8693
  952SOL    HW2 2856   0.894   1.648   0.112 -3.5241 -1.4974 -0.6567
  953SOL     OW 2857   2.389   0.014   2.405 -0.1278 -0.2293  0.4560
  953SOL    HW1 2858   2.397   0.087   2.336 -0.0676 -1.3177  2.0612
  953SOL    HW2 2859   2.483   3.117   2.440 -2.1854  0.0000  0.2456
  954SOL     OW 2860   1.649   1.126   0.845 -0.3037 -0.0517 -1.1559
  954SOL    HW1 2861   1.678   1.060   0.774 -1.6574  0.7319 -1.4141
  954SOL    HW2 2862   1.599   1.206   0.803 -0.0862 -1.6340  1.9552
  955SOL     OW 2863   0.239   2.229   2.379  0.2849  0.3762  0.4718
  955SOL    HW1 2864   0.222   2.317   2.329  0.1962  0.9016  1.6869
  955SOL    HW2 2865   0.271   2.241   2.474 -1.6906  2.0365  3.1253
  956SOL     OW 2866   1.638   0.559   1.954  0.1978  0.3656 -0.3652
  956SOL    HW1 2867   1.680   0.540   1.862  1.2130 -0.1734 -2.3971
  956SOL    HW2 2868   1.708   0.604   2.018 -2.2453  1.3050  0.8839
  957SOL     OW 2869   1.759   2.018   2.854  0.3089 -0.3296 -0.0570
  957SOL    HW1 2870   1.754   1.916   2.869 -0.9103  1.5321  0.6966
  957SOL    HW2 2871   1.773   2.058   2.945  1.8983  0.9247  0.5418
  958SOL     OW 2872   0.962   2.297   1.738 -0.6473  0.4181 -0.1883
  958SOL    HW1 2873   1.054   2.274   1.701  2.7574 -3.1156  0.9537
  958SOL    HW2 2874   0.904   2.365   1.682 -0.8244 -0.0718  1.4168
  959SOL     OW 2875   2.047   2.253   2.904 -0.2069 -0.1803 -0.2386
  959SOL    HW1 2876   1.977   2.301   2.843 -0.8889  1.9576 -1.2226
  959SOL    HW2 2877   2.092   2.316   2.973  1.0729  1.1156  1.5345
  960SOL     OW 2878   0.050   0.558   2.619 -0.2695 -0.0674  0.5310
  960SOL    HW1 2879   0.072   0.654   2.604  0.4792 -0.4029  1.4395
  960SOL    HW2 2880   0.131   0.506   2.657  1.1404 -2.6523 -0.2590
  961SOL     OW 2881   0.877   0.906   2.433  0.2870  0.0978 -0.9606
  961SOL    HW1 2882   0.822   0.837   2.485 -1.6539 -1.8456  0.8218
  961SOL    HW2 2883   0.959   0.868   2.384 -0.7188 -0.2997 -0.0069
  962SOL     OW 2884   0.672   1.276   2.703  0.1106 -0.1121  0.2056
  962SOL    HW1 2885   0.610   1.217   2.764 -0.2039  1.9073  0.5065
  962SOL    HW2 2886   0.739   1.224   2.644 -0.2092  0.0284 -1.8715
  963SOL     OW 2887   2.494   2.375   0.233  0.1816  0.6538 -0.2696
  963SOL    HW1 2888   2.570   2.388   0.166 -4.0055  0.6499  0.7168
  963SOL    HW2 2889   2.506   2.431   0.321  1.6795 -0.8786  1.0157
  964SOL     OW 2890   1.109   2.528   1.245 -0.1511 -0.5695  0.4951
  964SOL    HW1 2891   1.110   2.487   1.340 -0.7146 -1.5275  0.4152
  964SOL    HW2 2892   1.041   2.611   1.243 -2.1848  3.0538  0.7556
  965SOL     OW 2893   1.353   1.581   0.653 -0.4116 -0.1943  0.3440
  965SOL    HW1 2894   1.453   1.582   0.661 -0.0524  2.0768 -1.9243
  965SOL    HW2 2895   1.314   1.663   0.694 -0.7951 -2.0294  0.5732
  966SOL     OW 2896   0.399   1.709   0.211  0.4017  0.2178  0.0528
  966SOL    HW1 2897   0.381   1.670   0.301 -1.1723 -1.6161 -0.7735
  966SOL    HW2 2898   0.316   1.725   0.156  0.8726  1.4441  1.0631
  967SOL     OW 2899   1.860   0.286   1.822 -0.4236  0.0563 -0.2400
  967SOL    HW1 2900   1.880   0.330   1.915  0.7109  1.0710 -2.3309
  967SOL    HW2 2901   1.760   0.287   1.796 -0.6573 -0.4089  0.1710
  968SOL     OW 2902   1.682   0.953   0.651  0.5947  0.1045  0.4712
  968SOL    HW1 2903   1.750   0.947   0.577 -1.1321  1.8428 -0.5849
  968SOL    HW2 2904   1.590   0.907   0.626 -4.8175 -0.3452 -1.1635
  969SOL     OW 2905   0.281   1.280   2.403 -0.0928  0.2751 -0.2182
  969SOL    HW1 2906   0.304   1.187   2.365 -1.5090 -0.6908  0.7031
  969SOL    HW2 2907   0.362   1.339   2.416  0.4242  0.0740 -1.6816
  970SOL     OW 2908   2.268   1.506   1.214  0.7193 -0.1801  0.5280
  970SOL    HW1 2909   2.268   1.405   1.209  0.5449  2.5213  0.5973
  970SOL    HW2 2910   2.293   1.547   1.126 -2.4723 -0.5576  1.4257
  971SOL     OW 2911   0.142   0.078   1.119 -0.1772  0.4638  0.2517
  971SOL    HW1 2912   0.172   0.171   1.098  0.5771 -2.0721  0.5770
  971SOL    HW2 2913   0.170   0.014   1.042 -2.2336 -1.5401 -0.9246
  972SOL     OW 2914   0.249   0.772   2.966  0.4459 -0.6353 -0.5722
  972SOL    HW1 2915   0.313   0.707   2.999 -0.0409  1.0783  0.2185
  972SOL    HW2 2916   0.162   0.745   3.013 -2.9058 -0.4732  0.5240
  973SOL     OW 2917   3.046   0.645   0.868  0.0133  0.2627  0.2475
  973SOL    HW1 2918   3.073   0.609   0.777 -0.8336  1.6393  1.1360
  973SOL    HW2 2919   3.059   0.572   0.941 -0.3059  1.1751  0.7648
  974SOL     OW 2920   2.168   0.617   1.961 -0.4016 -0.0171  0.2442
  974SOL    HW1 2921   2.176   0.643   2.057 -1.2654 -1.1985 -2.2870
  974SOL    HW2 2922   2.075   0.596   1.931 -1.1486  2.3262 -1.3457
  975SOL     OW 2923   2.632   0.155   0.195 -0.0144 -0.7009  0.5682
  975SOL    HW1 2924   2.671   0.145   0.288  0.2022 -0.5931  1.2720
  975SOL    HW2 2925   2.685   0.224   0.135 -0.0461  3.0419 -4.7613
  976SOL     OW 2926   0.288   1.488   1.578  0.4592 -0.4216  0.2130
  976SOL    HW1 2927   0.329   1.472   1.670  1.1279 -0.9112  1.0107
  976SOL    HW2 2928   0.293   1.587   1.551  0.1214 -1.2995  1.8282
  977SOL     OW 2929   1.015   2.466   0.067  0.3240  0.1335 -0.3545
  977SOL    HW1 2930   1.062   2.449   0.157  2.2526 -0.5068 -0.3657
  977SOL    HW2 2931   0.975   2.381   0.027 -1.6891 -1.2621 -1.1779
  978SOL     OW 2932   0.378   1.324   2.924 -0.2482  0.1950  0.1782
  978SOL    HW1 2933   0.324   1.318   3.010 -1.1557 -2.5167  0.2145
  978SOL    HW2 2934   0.455   1.255   2.923  1.6886 -2.4273  1.0648
  979SOL     OW 2935   1.918   1.774   1.396 -0.3935  0.4401  0.5504
  979SOL    HW1 2936   1.928   1.680   1.362 -2.8805  0.8323  0.6127
  979SOL    HW2 2937   2.008   1.822   1.406 -1.7403 -2.7937 -0.4762
  980SOL     OW 2938   0.384   1.502   1.838  0.1963 -0.0085 -0.4157
  980SOL    HW1 2939   0.281   1.521   1.844 -1.7488  0.6231  2.7286
  980SOL    HW2 2940   0.412   1.476   1.932 -0.3122 -1.1242 -2.9432
  981SOL     OW 2941   2.945   1.518   0.358  0.0860  0.3977  0.0454
  981SOL    HW1 2942   2.981   1.607   0.391 -2.0548  0.2341  0.5530
  981SOL    HW2 2943   2.966   1.441   0.424  2.2248 -2.3939  0.0074
  982SOL     OW 2944   2.423   2.810   2.132  0.0011 -0.4144  0.1698
  982SOL    HW1 2945   2.385   2.900   2.105 -0.1334 -1.0023 -0.0684
  982SOL    HW2 2946   2.523   2.806   2.122 -2.5215  0.3946  0.9575
  983SOL     OW 2947   1.237   0.174   1.114 -0.5717  0.1622  0.0257
  983SOL    HW1 2948   1.249   0.117   1.199 -0.2754 -0.4311  1.5919
  983SOL    HW2 2949   1.204   0.269   1.140  2.0332  1.3799 -0.3741
  984SOL     OW 2950   1.326   2.675   3.078  0.6150 -0.0739  0.2431
  984SOL    HW1 2951   1.375   2.643   2.995 -3.9828  1.8119 -1.1742
  984SOL    HW2 2952   1.358   2.644   0.050  0.4702 -0.8941  0.7519
  985SOL     OW 2953   1.868   2.176   1.468  0.4064  0.1913  0.2687
  985SOL    HW1 2954   1.824   2.096   1.521  0.6346 -1.8936  2.6622
  985SOL    HW2 2955   1.939   2.145   1.400  1.9623 -0.8270  0.1986
  986SOL     OW 2956   2.237   3.115   2.651 -0.8340  0.4189  0.0794
  986SOL    HW1 2957   2.282   0.036   2.567 -0.5211  1.1529  3.0969
  986SOL    HW2 2958   2.299   3.045   2.686  1.1827  2.2355 -0.2604
  987SOL     OW 2959   2.850   0.918   2.255 -0.1739 -0.1958  0.8784
  987SOL    HW1 2960   2.762   0.903   2.302 -2.3446 -1.4495 -1.0446
  987SOL    HW2 2961   2.848   0.983   2.170  1.1141  3.5770  0.8295
  988SOL     OW 2962   2.377   0.917   2.699  0.0133 -0.0908  0.2289
  988SOL    HW1 2963   2.321   0.852   2.751  0.7789 -1.1464 -0.1406
  988SOL    HW2 2964   2.363   0.901   2.603  1.6578 -0.6193  1.3034
  989SOL     OW 2965   2.066   1.356   1.901 -0.3571 -0.3959 -0.5750
  989SOL    HW1 2966   2.074   1.282   1.833 -0.4818 -1.0913  1.9089
  989SOL    HW2 2967   2.142   1.430   1.887 -0.3559  1.0596  1.7586
  990SOL     OW 2968   0.340   1.084   0.073 -0.0627 -0.5329  0.8226
  990SOL    HW1 2969   0.436   1.053   0.069 -0.0576 -2.0802 -0.3756
  990SOL    HW2 2970   0.284   1.002   0.073  0.3134 -0.2666  1.7046
  991SOL     OW 2971   0.253   1.971   2.868 -0.3896 -0.4437  0.4676
  991SOL    HW1 2972   0.230   1.873   2.881 -2.3093 -0.4096  0.0183
  991SOL    HW2 2973   0.239   1.998   2.773  2.3936  0.6487 -0.2097
  992SOL     OW 2974   2.549   2.040   1.982  0.3579 -0.7076 -0.0320
  992SOL    HW1 2975   2.509   2.100   2.053 -1.9107 -0.4207 -2.1098
  992SOL    HW2 2976   2.481   2.012   1.915  0.0621 -2.3752 -0.0330
  993SOL     OW 2977   0.222   0.044   0.344 -0.1649  0.5877  0.2981
  993SOL    HW1 2978   0.317   0.062   0.383  0.0940  0.1079  0.9021
  993SOL    HW2 2979   0.143   0.051   0.414  0.1614 -0.0760 -1.5494
  994SOL     OW 2980   0.299   1.761   1.533 -0.3848 -0.7843  0.2862
  994SOL    HW1 2981   0.223   1.774   1.598 -1.9151 -0.8092 -0.5318
  994SOL    HW2 2982   0.379   1.823   1.547  2.0853 -0.8215  0.8157
  995SOL     OW 2983   2.085   1.796   2.820  0.1257 -0.5969  0.1480
  995SOL    HW1 2984   2.010   1.743   2.778  0.4719  0.3543 -1.0178
  995SOL    HW2 2985   2.095   1.886   2.772  0.6896  0.0025 -1.3228
  996SOL     OW 2986   1.868   1.550   2.986 -0.1354  0.0018  0.0946
  996SOL    HW1 2987   1.806   1.473   3.003 -0.0698 -1.1270  1.2186
  996SOL    HW2 2988   1.823   1.620   2.927  1.4024  1.2579  2.5362
  997SOL     OW 2989   1.289   1.388   1.606 -0.5793  0.5037 -0.7502
  997SOL    HW1 2990   1.207   1.371   1.662  0.7406  0.0763 -2.6263
  997SOL    HW2 2991   1.303   1.303   1.547 -0.4172 -0.2678 -0.0358
  998SOL     OW 2992   2.582   2.326   1.107  0.0662 -0.2846  0.7632
  998SOL    HW1 2993   2.540   2.416   1.091  3.9765  1.9026  0.5920
  998SOL    HW2 2994   2.653   2.313   1.036  0.6005  0.5669  1.7353
  999SOL     OW 2995   2.171   2.367   0.287 -0.6649  0.0642  0.1145
  999SOL    HW1 2996   2.106   2.433   0.335  0.1479  0.8177 -2.8202
  999SOL    HW2 2997   2.242   2.329   0.350  0.1357 -0.8048  0.8411
 1000SOL     OW 2998   0.955   2.958   3.033 -0.4295 -0.0497 -0.1284
 1000SOL    HW1 2999   0.968   2.856   3.045 -1.2133  2.7825  1.9120
 1000SOL    HW2 3000   0.860   2.984   3.002  0.8606  1.0405 -0.7801
   3.11962   3.11962   3.11962
