1000 SPC/Fw water molecules t= 100.00000 step= 100000
 3000
    1SOL     OW    1   1.967   2.437   0.537  0.2601  0.5390  0.0091
    1SOL    HW1    2   1.902   2.368   0.503  1.6093 -0.0030  1.3989
    1SOL    HW2    3   1.921   2.504   0.603 -1.7064  1.3335  0.1262
    2SOL     OW    4   1.270   1.192   2.102  0.5287  0.6856 -0.1794
    2SOL    HW1    5   1.236   1.258   2.173  1.1626 -0.1182  3.6319
    2SOL    HW2    6   1.218   1.210   2.017 -0.0865  0.6686  1.4235
    3SOL     OW    7   1.405   2.469   2.326  0.3964 -0.0570  0.1849
    3SOL    HW1    8   1.443   2.451   2.238  0.3655  0.4388  2.3961
    3SOL    HW2    9   1.313   2.433   2.331  0.9634  2.1685 -1.2782
    4SOL     OW   10   1.312   2.064   2.146  0.0069 -0.2058 -0.1898
    4SOL    HW1   11   1.413   2.062   2.160 -0.5619  0.1803 -1.8382
    4SOL    HW2   12   1.279   2.156   2.118 -1.5239 -0.8565  1.6432
    5SOL     OW   13   0.482   0.736   1.729  0.5594  0.2127 -0.6077
    5SOL    HW1   14   0.533   0.748   1.819  1.1585  0.2674 -1.7032
    5SOL    HW2   15   0.540   0.737   1.643  0.0152 -0.5535  0.1044
    6SOL     OW   16   2.057   0.841   2.819 -0.0411  0.3888 -0.3992
    6SOL    HW1   17   2.055   0.934   2.783 -0.2457 -2.8085  0.0450
    6SOL    HW2   18   2.127   0.790   2.770  0.0764  1.7288  2.6896
    7SOL     OW   19   0.615   0.317   1.586 -0.5270 -0.1767 -0.1782
    7SOL    HW1   20   0.563   0.365   1.664 -1.4865  2.7822  1.7339
    7SOL    HW2   21   0.658   0.387   1.531 -4.2135 -0.2818  1.0072
    8SOL     OW   22   1.870   2.965   1.946  0.2372 -0.5949  0.0794
    8SOL    HW1   23   1.958   2.993   1.988  0.4458 -1.3398  0.2862
    8SOL    HW2   24   1.883   2.961   1.845 -3.3592  2.9716 -0.5668
    9SOL     OW   25   0.157   0.529   0.466  0.2755  0.4049 -0.3699
    9SOL    HW1   26   0.169   0.446   0.520 -0.0661  2.6982  3.1724
    9SOL    HW2   27   0.172   0.606   0.531  2.2091 -0.5543  1.1476
   10SOL     OW   28   0.629   2.068   2.477  0.4328 -0.4166  0.0150
   10SOL    HW1   29   0.570   2.138   2.431  2.9219 -0.0496  1.9926
   10SOL    HW2   30   0.601   2.056   2.575  1.6377  3.1460  0.6697
   11SOL     OW   31   0.861   1.651   0.142  0.1920  0.3491 -0.1866
   11SOL    HW1   32   0.960   1.660   0.156 -2.0277  0.2527  1.7825
   11SOL    HW2   33   0.827   1.570   0.194 -1.3995 -2.1727  3.6155
   12SOL     OW   34   0.042   2.763   1.355  0.1087  0.0028  0.1412
   12SOL    HW1   35   0.070   2.847   1.406  0.5094 -0.2229  1.3821
   12SOL    HW2   36   0.036   2.790   1.255  1.7804  1.5422  1.7007
   13SOL     OW   37   0.771   2.949   0.516  0.0983 -0.0850  0.2497
   13SOL    HW1   38   0.854   2.889   0.500  2.0415  3.4527 -1.8548
   13SOL    HW2   39   0.750   2.993   0.425  1.0608  1.3143 -0.2495
   14SOL     OW   40   1.867   1.622   0.644  0.2218  0.1080 -0.3748
   14SOL    HW1   41   1.921   1.698   0.681 -0.1256  0.2974 -1.2003
   14SOL    HW2   42   1.906   1.536   0.687  0.2248 -0.4737  1.8949
   15SOL     OW   43   2.833   1.507   2.483 -0.0254  0.5710 -0.2292
   15SOL    HW1   44   2.766   1.490   2.555 -1.2336 -1.3346 -1.5407
   15SOL    HW2   45   2.844   1.607   2.447  1.2862  0.3627 -2.9913
   16SOL     OW   46   1.477   0.313   2.556  0.7587 -0.3417  0.2457
   16SOL    HW1   47   1.398   0.376   2.582 -1.9502  1.9707  1.6096
   16SOL    HW2   48   1.433   0.233   2.512 -1.0428 -0.2734 -0.0477
   17SOL     OW   49   0.248   2.158   2.166  0.0525  0.0856 -0.1071
   17SOL    HW1   50   0.256   2.068   2.220 -0.3966 -0.8317  2.0948
   17SOL    HW2   51   0.157   2.204   2.185 -1.6826  1.9564  0.8895
   18SOL     OW   52   1.243   1.236   0.280 -0.4500 -0.1102 -0.5024
   18SOL    HW1   53   1.333   1.275   0.309 -1.4582 -0.9932 -3.1355
   18SOL    HW2   54   1.237   1.142   0.320  0.7019 -1.3989 -3.0184
   19SOL     OW   55   2.294   1.435   2.513  0.2869 -0.3614  0.2513
   19SOL    HW1   56   2.346   1.394   2.592 -2.9822 -0.7931  1.3965
   19SOL    HW2   57   2.195   1.430   2.532  0.6612 -1.3672 -0.8861
   20SOL     OW   58   2.489   2.105   2.430  0.0565  0.2551 -0.0126
   20SOL    HW1   59   2.483   2.132   2.331  0.8514  0.6501  1.4338
   20SOL    HW2   60   2.527   2.183   2.484  0.1962  0.0138  0.4403
   21SOL     OW   61   0.956   2.259   0.089 -0.4280  0.7352  0.0216
   21SOL    HW1   62   0.972   2.352   0.054  1.4648 -1.5670  3.2006
   21SOL    HW2   63   0.990   2.184   0.024  1.4142 -0.6099 -1.8845
   22SOL     OW   64   2.117   2.284   1.391  0.3715  0.3268 -0.1353
   22SOL    HW1   65   2.162   2.368   1.427 -1.0750  1.8552  0.1530
   22SOL    HW2   66   2.131   2.283   1.292  0.3946  0.4194  4.1329
   23SOL     OW   67   0.248   1.202   1.619  0.4195 -0.2605  0.5237
   23SOL    HW1   68   0.297   1.201   1.715  1.4870 -0.6997  2.1739
   23SOL    HW2   69   0.279   1.129   1.565  0.6478  5.2891  0.5548
   24SOL     OW   70   2.181   1.835   1.981 -0.6092 -0.0584 -0.2926
   24SOL    HW1   71   2.090   1.793   2.005  0.8513 -0.5232  0.7389
   24SOL    HW2   72   2.260   1.791   2.026  0.0557  1.1987  2.7488
   25SOL     OW   73   1.839   0.663   2.295 -0.2664  0.3822  0.6006
   25SOL    HW1   74   1.817   0.643   2.196 -3.2887  0.7364  2.3452
   25SOL    HW2   75   1.792   0.601   2.362 -1.2528 -0.4434  2.5447
   26SOL     OW   76   1.567   0.195   0.705 -0.2938 -0.6779 -0.1822
   26SOL    HW1   77   1.527   0.243   0.787 -3.5022  2.8465  2.6057
   26SOL    HW2   78   1.522   0.241   0.623  1.0391 -1.1671 -0.8336
   27SOL     OW   79   0.780   1.913   0.453 -0.5386  0.1845 -0.4625
   27SOL    HW1   80   0.763   1.910   0.353  1.8530 -2.5205 -0.3284
   27SOL    HW2   81   0.748   1.825   0.500  1.0265  0.0688  1.0378
   28SOL     OW   82   2.647   1.744   1.118 -0.3452  0.3523  0.7091
   28SOL    HW1   83   2.714   1.688   1.168 -1.6724  2.5610 -1.2609
   28SOL    HW2   84   2.566   1.754   1.180  0.8028  1.4897 -2.5453
   29SOL     OW   85   2.242   2.734   1.889  0.1322  0.5159 -0.1389
   29SOL    HW1   86   2.201   2.825   1.913 -0.8406 -0.6502  0.1076
   29SOL    HW2   87   2.340   2.739   1.853  2.2824  0.0186 -2.9081
   30SOL     OW   88   0.766   2.946   1.337  0.5601 -0.1914 -0.0995
   30SOL    HW1   89   0.861   2.921   1.314  0.5010  0.9507  0.0359
   30SOL    HW2   90   0.759   3.039   1.375 -1.1042  1.0473  0.9098
   31SOL     OW   91   2.840   2.207   1.972 -0.2917  0.0582  0.0844
   31SOL    HW1   92   2.909   2.180   2.042 -0.8543 -0.3155  0.1988
   31SOL    HW2   93   2.783   2.287   2.002  0.9289  0.6311 -1.5934
   32SOL     OW   94   1.395   1.332   1.527 -0.1225  0.1413  0.1255
   32SOL    HW1   95   1.318   1.395   1.509  0.1540  0.6649  1.4007
   32SOL    HW2   96   1.483   1.388   1.524  1.4901 -0.3954  0.5937
   33SOL     OW   97   0.323   0.157   2.846  0.2442  0.2940 -0.4500
   33SOL    HW1   98   0.421   0.176   2.828  0.0613  1.8442  0.3926
   33SOL    HW2   99   0.305   0.097   2.930 -1.8496 -3.4119  1.7807
   34SOL     OW  100   2.106   0.178   1.079 -0.1537 -0.1533  0.6781
   34SOL    HW1  101   2.173   0.243   1.116 -0.8089 -1.5596 -2.2377
   34SOL    HW2  102   2.130   0.084   1.109  0.3396 -0.8374  2.2630
   35SOL     OW  103   2.518   0.009   1.496  0.3570  0.3187 -0.0532
   35SOL    HW1  104   2.509   0.053   1.590  0.8263  2.7217 -0.3412
   35SOL    HW2  105   2.606   3.020   1.485 -1.7151 -1.0636 -0.0386
   36SOL     OW  106   2.599   2.890   2.550  0.4685 -0.5333 -0.1900
   36SOL    HW1  107   2.548   2.888   2.637  1.7429  0.0352  0.5098
   36SOL    HW2  108   2.668   2.817   2.555 -2.1004  1.7261  0.9394
   37SOL     OW  109   1.080   2.886   2.911 -0.3456  0.0038  0.2323
   37SOL    HW1  110   1.158   2.944   2.917 -1.8977  0.9865  1.5044
   37SOL    HW2  111   1.104   2.790   2.933 -0.8475  2.1345 -0.0675
   38SOL     OW  112   2.690   1.078   2.898 -0.1549  0.5253  0.3015
   38SOL    HW1  113   2.758   1.107   2.972  0.5751  0.5688  1.3616
   38SOL    HW2  114   2.589   1.077   2.921  2.5835 -1.7914 -1.2933
   39SOL     OW  115   2.280   2.087   1.965 -0.2980 -0.6554  0.0050
   39SOL    HW1  116   2.270   1.986   1.984 -1.0254 -0.5879 -0.6920
   39SOL    HW2  117   2.194   2.136   1.977 -1.2970  1.0729  0.9616
   40SOL     OW  118   0.519   0.185   2.593 -0.3687  0.5304  0.5126
   40SOL    HW1  119   0.501   0.087   2.617 -0.1340 -1.0686  0.4263
   40SOL    HW2  120   0.605   0.196   2.545 -0.5894 -1.3423  1.5733
   41SOL     OW  121   1.357   1.075   1.467 -0.6941 -0.1472  0.0158
   41SOL    HW1  122   1.364   1.172   1.494  0.0289  3.0971  1.7968
   41SOL    HW2  123   1.365   1.014   1.543  0.8970 -0.9796 -0.5882
   42SOL     OW  124   0.176   0.226   1.929 -0.2543 -0.4128 -0.3418
   42SOL    HW1  125   0.266   0.212   1.895 -2.0443 -0.4137  1.3341
   42SOL    HW2  126   0.140   0.315   1.901  0.0813  3.5412  0.8753
   43SOL     OW  127   1.573   1.405   1.826 -0.2249 -0.2672 -0.2407
   43SOL    HW1  128   1.534   1.401   1.923 -1.2805  2.5319  1.1196
   43SOL    HW2  129   1.498   1.405   1.762  0.1280  0.8594  0.5256
   44SOL     OW  130   2.982   3.007   3.049 -0.3138  0.5260  0.3256
   44SOL    HW1  131   2.964   2.981   2.950 -2.4230 -0.3093 -0.9820
   44SOL    HW2  132   2.951   2.934   0.052  1.5318  0.8442  0.5595
   45SOL     OW  133   0.787   1.864   1.131  0.5432 -0.1097  0.2894
   45SOL    HW1  134   0.877   1.857   1.176 -2.2742  0.5612 -0.5752
   45SOL    HW2  135   0.712   1.857   1.204  0.9875  3.6726 -0.5128
   46SOL     OW  136   2.507   2.760   1.805 -0.0304 -0.3690 -0.2451
   46SOL    HW1  137   2.576   2.798   1.867  0.2344 -0.4549 -1.5702
   46SOL    HW2  138   2.531   2.663   1.781 -0.9921 -1.8137  2.1875
   47SOL     OW  139   1.017   1.874   1.261 -0.1314  0.5687 -0.4350
   47SOL    HW1  140   1.011   1.972   1.228  0.4145  0.0182 -0.3516
   47SOL    HW2  141   1.016   1.870   1.362 -0.4985 -1.3785 -0.8227
   48SOL     OW  142   0.226   2.571   0.384 -0.3710  0.1315  0.0354
   48SOL    HW1  143   0.233   2.609   0.479  0.0500  2.6176 -1.0019
   48SOL    HW2  144   0.265   2.639   0.319  1.3949  0.2554  0.9933
   49SOL     OW  145   2.842   1.567   1.891 -0.4359  0.0457  0.5191
   49SOL    HW1  146   2.849   1.578   1.990 -1.7528 -1.2572 -0.7030
   49SOL    HW2  147   2.745   1.556   1.863 -0.9995 -0.8116 -2.4670
   50SOL     OW  148   2.035   0.823   0.482 -0.5835 -0.0721 -0.0175
   50SOL    HW1  149   2.006   0.835   0.387 -0.2731 -1.5123  0.3423
   50SOL    HW2  150   1.958   0.806   0.542  2.1963 -0.1446 -2.3390
   51SOL     OW  151   1.219   0.754   0.935  0.5597 -0.7399  0.8088
   51SOL    HW1  152   1.287   0.741   1.007 -1.3099 -1.9627  0.3805
   51SOL    HW2  153   1.134   0.797   0.978 -1.2810 -0.8237 -1.2348
   52SOL     OW  154   1.123   1.371   0.083 -0.3075 -0.3071 -0.4721
   52SOL    HW1  155   1.180   1.319   0.154  1.8077  0.1907  1.0047
   52SOL    HW2  156   1.122   1.466   0.105 -1.2432  0.0298 -1.1180
   53SOL     OW  157   1.017   2.421   2.552 -0.5907 -0.3450 -0.2818
   53SOL    HW1  158   1.006   2.321   2.546 -0.2685  3.2027  0.3334
   53SOL    HW2  159   1.108   2.454   2.593  3.1441  0.4908  0.8198
   54SOL     OW  160   1.634   0.675   1.627 -0.1846  0.2006 -0.2798
   54SOL    HW1  161   1.722   0.634   1.650 -2.6473 -0.0757 -1.7931
   54SOL    HW2  162   1.633   0.716   1.532 -0.1929  2.6970  1.8386
   55SOL     OW  163   2.516   2.625   0.235  0.4780  0.0073  0.3204
   55SOL    HW1  164   2.484   2.545   0.291 -1.2801 -0.0549 -0.1489
   55SOL    HW2  165   2.518   2.715   0.284  3.2443 -0.4416 -0.2988
   56SOL     OW  166   0.588   2.393   1.840  0.1816  0.0338 -0.2491
   56SOL    HW1  167   0.496   2.382   1.886  0.4778 -1.0224 -0.5946
   56SOL    HW2  168   0.580   2.427   1.744  1.0926 -0.9473  1.8108
   57SOL     OW  169   1.706   0.958   2.368  0.5148  0.2432  0.7933
   57SOL    HW1  170   1.669   0.895   2.297  2.0885  0.3678 -2.4967
   57SOL    HW2  171   1.712   0.915   2.457  2.4186 -1.0214 -2.3303
   58SOL     OW  172   2.875   1.092   1.889  0.2591  0.2527  0.4325
   58SOL    HW1  173   2.950   1.105   1.820 -0.0550 -1.0589  0.8703
   58SOL    HW2  174   2.822   1.178   1.881  3.2385 -2.5489  0.0878
   59SOL     OW  175   0.607   2.877   2.245 -0.5436  0.6563 -0.3748
   59SOL    HW1  176   0.679   2.819   2.200  3.5032 -1.1494  2.2025
   59SOL    HW2  177   0.516   2.835   2.237  0.9206 -0.7669 -0.8641
   60SOL     OW  178   2.580   2.086   0.517  0.3460  0.1909  0.2992
   60SOL    HW1  179   2.618   1.994   0.495  0.7904 -1.7350  0.7845
   60SOL    HW2  180   2.635   2.157   0.462  1.3155  0.8050 -1.1327
   61SOL     OW  181   0.663   2.612   0.425 -0.3628 -0.4444  0.0276
   61SOL    HW1  182   0.699   2.573   0.338 -1.2576 -4.0015  0.1272
   61SOL    HW2  183   0.728   2.592   0.500 -1.7102  1.1838 -1.3142
   62SOL     OW  184   1.987   2.556   2.662  0.1446 -0.5090  0.1478
   62SOL    HW1  185   1.926   2.538   2.582  0.4515  1.6489 -2.0685
   62SOL    HW2  186   2.067   2.612   2.636 -1.3030 -0.7346  1.7723
   63SOL     OW  187   1.957   0.501   3.010 -0.6360  0.1369  0.3126
   63SOL    HW1  188   2.040   0.493   2.946  1.4259  0.2227 -1.4886
   63SOL    HW2  189   1.881   0.435   2.987 -2.9441 -0.8490  1.0773
   64SOL     OW  190   0.827   1.036   2.671 -0.1909 -0.3193 -0.4597
   64SOL    HW1  191   0.884   1.039   2.755 -1.9814  0.2546  0.3060
   64SOL    HW2  192   0.728   1.028   2.706 -2.6615  0.7850 -0.6615
   65SOL     OW  193   1.485   0.059   0.442 -0.6038 -0.5266 -0.0496
   65SOL    HW1  194   1.489   3.018   0.464 -0.3726  1.2638 -1.1774
   65SOL    HW2  195   1.558   0.109   0.494  2.4515  2.0838  0.1818
   66SOL     OW  196   0.435   1.513   1.722 -0.3129 -0.0118 -0.0374
   66SOL    HW1  197   0.382   1.516   1.810 -1.0045 -0.0370  4.0725
   66SOL    HW2  198   0.500   1.430   1.721 -0.8033 -2.5457 -0.7645
   67SOL     OW  199   2.183   2.782   2.318 -0.2369  0.5120  0.5829
   67SOL    HW1  200   2.159   2.723   2.236 -1.2821 -0.8447 -1.2655
   67SOL    HW2  201   2.271   2.833   2.313 -0.3184 -1.8251 -2.9087
   68SOL     OW  202   0.619   0.748   1.499 -0.1925 -0.1735 -0.3539
   68SOL    HW1  203   0.695   0.807   1.545  1.1770  4.2491  0.5545
   68SOL    HW2  204   0.661   0.664   1.464  1.2955  2.1670 -1.0565
   69SOL     OW  205   2.050   2.825   0.325 -0.5669  0.2343 -0.1920
   69SOL    HW1  206   2.114   2.869   0.389 -0.3275 -3.3754 -3.5667
   69SOL    HW2  207   2.075   2.861   0.232 -0.0856  1.5725  2.1534
   70SOL     OW  208   2.524   0.648   2.657 -0.2074 -0.3324 -0.0896
   70SOL    HW1  209   2.572   0.730   2.697 -0.8298 -3.0416  2.9812
   70SOL    HW2  210   2.526   0.574   2.733 -0.9587  2.1253  0.5882
   71SOL     OW  211   2.861   2.071   0.241  0.2879 -0.3580 -0.3679
   71SOL    HW1  212   2.917   1.986   0.232 -0.5601  0.7555 -0.2564
   71SOL    HW2  213   2.878   2.127   0.160 -0.3289  2.2565  2.8701
   72SOL     OW  214   3.036   1.775   0.529 -0.2520 -0.1966  0.3141
   72SOL    HW1  215   2.981   1.858   0.551  0.3449  0.3931  0.2051
   72SOL    HW2  216   3.046   1.714   0.607 -1.2316  0.4364 -1.1020
   73SOL     OW  217   0.877   0.785   0.506  0.2926  0.0097 -0.0118
   73SOL    HW1  218   0.783   0.804   0.466 -2.4748  0.8741 -1.4024
   73SOL    HW2  219   0.928   0.873   0.521  0.2279  2.1559 -0.2405
   74SOL     OW  220   0.126   1.863   2.071 -0.0058  0.5310 -0.2508
   74SOL    HW1  221   0.156   1.771   2.102 -0.0966  1.8398 -1.8122
   74SOL    HW2  222   0.192   1.914   2.010  1.9654  1.7355 -1.0420
   75SOL     OW  223   1.797   1.532   1.320  0.1845  0.6297  0.3686
   75SOL    HW1  224   1.893   1.499   1.332 -0.6375  2.2140 -1.8781
   75SOL    HW2  225   1.790   1.554   1.222 -0.6691  1.7063 -0.0415
   76SOL     OW  226   1.881   1.908   0.823  0.0205  0.2042  0.2267
   76SOL    HW1  227   1.853   1.871   0.914  1.5922  1.8075  0.3094
   76SOL    HW2  228   1.981   1.909   0.819 -0.0411  1.0285  1.0230
   77SOL     OW  229   2.367   1.627   1.825  0.6355 -0.1691 -0.3921
   77SOL    HW1  230   2.359   1.610   1.925  1.0335  1.9947  0.7826
   77SOL    HW2  231   2.327   1.715   1.800  1.7691 -0.8650  3.1261
   78SOL     OW  232   1.438   0.934   0.638 -0.4387  0.7632  0.0390
   78SOL    HW1  233   1.388   0.845   0.628 -0.8640 -1.5545  2.9169
   78SOL    HW2  234   1.522   0.939   0.583  0.5449 -0.1356  0.5659
   79SOL     OW  235   2.138   1.785   1.523 -0.8417  0.1937  0.5624
   79SOL    HW1  236   2.186   1.833   1.449 -2.3123  0.5667 -2.6713
   79SOL    HW2  237   2.180   1.811   1.613 -0.0780 -2.0005  0.8663
   80SOL     OW  238   1.090   0.477   1.333  0.3218  0.1178  0.9488
   80SOL    HW1  239   1.064   0.452   1.426 -0.0516  3.1945 -1.3903
   80SOL    HW2  240   1.133   0.404   1.288 -1.7638  3.8700 -0.4704
   81SOL     OW  241   0.473   2.145   0.684 -0.9629  0.2037 -0.3163
   81SOL    HW1  242   0.462   2.138   0.785 -1.5391 -0.0124  3.7126
   81SOL    HW2  243   0.564   2.110   0.661  0.6146 -2.1400  0.1046
   82SOL     OW  244   1.238   0.224   1.609  0.6691  0.5362 -0.4606
   82SOL    HW1  245   1.228   0.197   1.705 -1.1307  0.4706 -0.1609
   82SOL    HW2  246   1.259   0.325   1.598 -2.0130 -0.9170  1.3113
   83SOL     OW  247   0.831   1.716   0.720  0.0251 -0.1123 -0.4898
   83SOL    HW1  248   0.760   1.726   0.795 -1.0811  0.6378  2.1283
   83SOL    HW2  249   0.785   1.715   0.631 -1.3839  2.4618 -0.3961
   84SOL     OW  250   2.650   1.303   0.111  0.2148 -0.6133 -0.2556
   84SOL    HW1  251   2.564   1.296   0.059  0.4235  4.1388  2.1775
   84SOL    HW2  252   2.711   1.362   0.055 -0.6755 -2.4380  1.0836
   85SOL     OW  253   0.134   2.372   1.221 -0.4301  0.1893 -0.2070
   85SOL    HW1  254   0.039   2.356   1.255 -0.5680 -1.2098  0.4500
   85SOL    HW2  255   0.163   2.312   1.141  0.7371 -1.7809  2.1047
   86SOL     OW  256   1.815   2.588   0.990  0.4907  0.2969 -0.1130
   86SOL    HW1  257   1.755   2.510   1.019  1.2381 -1.4451 -2.3098
   86SOL    HW2  258   1.899   2.551   0.949  0.5258  1.0079  0.9134
   87SOL     OW  259   0.045   1.602   0.714 -0.5515 -0.3155  0.1137
   87SOL    HW1  260   0.034   1.618   0.816  2.7221 -0.7445 -2.9662
   87SOL    HW2  261   0.076   1.507   0.693  1.3524 -0.7888 -1.7619
   88SOL     OW  262   0.762   0.539   1.434 -0.2342  0.3260  0.3596
   88SOL    HW1  263   0.809   0.553   1.343 -0.7685  0.4731 -0.4354
   88SOL    HW2  264   0.835   0.519   1.502 -1.5324 -1.6118  1.3594
   89SOL     OW  265   0.760   2.652   1.924 -0.2386 -0.5028 -0.2143
   89SOL    HW1  266   0.762   2.705   1.836 -0.4549  0.8424 -1.0778
   89SOL    HW2  267   0.669   2.610   1.932  2.6480 -0.2458 -0.3659
   90SOL     OW  268   0.013   1.771   1.281 -0.1107 -0.1912 -0.6582
   90SOL    HW1  269   0.099   1.828   1.264 -1.9689 -0.7105  1.8346
   90SOL    HW2  270   2.987   1.828   1.263 -2.5697  2.3818  0.1359
   91SOL     OW  271   1.060   2.144   0.838 -0.9017  0.2186  0.5873
   91SOL    HW1  272   1.128   2.206   0.786  0.1946  0.0403 -1.5799
   91SOL    HW2  273   1.049   2.059   0.779  1.3355  0.1026  1.7442
   92SOL     OW  274   2.842   2.707   1.479 -0.3937 -0.4647 -0.2921
   92SOL    HW1  275   2.809   2.795   1.516  2.6048  1.5020 -1.0928
   92SOL    HW2  276   2.915   2.722   1.410  2.2149 -0.4085 -1.0142
   93SOL     OW  277   3.019   1.314   3.020  0.0321  0.1388 -0.3689
   93SOL    HW1  278   0.035   1.317   2.953 -0.0496  1.1362 -1.1214
   93SOL    HW2  279   3.003   1.216   3.057 -2.8042 -1.0230  2.6125
   94SOL     OW  280   2.691   2.857   1.994 -0.4452 -0.2586  0.0195
   94SOL    HW1  281   2.752   2.805   1.931 -3.1118  1.4295  1.1564
   94SOL    HW2  282   2.733   2.899   2.079 -1.3642  2.0169  2.5535
   95SOL     OW  283   1.450   0.572   1.832 -0.2269  0.2853  0.3756
   95SOL    HW1  284   1.486   0.539   1.924  2.2486  0.5475  3.7065
   95SOL    HW2  285   1.531   0.601   1.773  3.8014 -0.1449 -0.4282
   96SOL     OW  286   2.664   0.225   1.899 -0.3601 -0.0282 -0.2436
   96SOL    HW1  287   2.714   0.223   1.807 -2.8169  1.6758 -2.1449
   96SOL    HW2  288   2.700   0.303   1.951  0.7713  1.5893  2.1897
   97SOL     OW  289   2.104   2.906   1.476  0.0940  0.0880  0.0834
   97SOL    HW1  290   2.187   2.875   1.535  1.8018  0.2521  2.8623
   97SOL    HW2  291   2.020   2.926   1.527 -2.1020  1.5073 -1.2835
   98SOL     OW  292   2.043   2.732   1.271  0.1895  0.7358 -0.0043
   98SOL    HW1  293   2.051   2.798   1.356  2.1925  2.6938  0.4479
   98SOL    HW2  294   1.989   2.650   1.304  1.2480 -1.3610  0.0447
   99SOL     OW  295   2.955   0.214   2.056 -0.3339 -0.1462 -0.2354
   99SOL    HW1  296   3.052   0.198   2.026  1.2921 -2.5840  1.2073
   99SOL    HW2  297   2.908   0.289   1.998 -2.6401  0.0762 -0.8472
  100SOL     OW  298   2.065   1.492   1.717 -0.2468 -0.2858  0.0499
  100SOL    HW1  299   2.004   1.574   1.705 -0.7886 -0.8357  3.6797
  100SOL    HW2  300   2.074   1.472   1.817  1.2159  0.4583 -0.4373
  101SOL     OW  301   1.694   0.262   0.426  0.3111  0.4703  0.3078
  101SOL    HW1  302   1.790   0.274   0.460 -2.0524 -1.6912 -2.4889
  101SOL    HW2  303   1.694   0.182   0.355 -0.5249 -2.3782 -1.8363
  102SOL     OW  304   0.399   0.796   1.313 -0.3646 -0.1156 -0.4004
  102SOL    HW1  305   0.345   0.713   1.298  3.2590  1.5141 -0.4404
  102SOL    HW2  306   0.471   0.772   1.384  1.3592  0.4285 -0.7058
  103SOL     OW  307   2.434   0.158   2.775  0.4492  0.1741  0.2052
  103SOL    HW1  308   2.535   0.171   2.779 -3.7873  0.3089 -0.1344
  103SOL    HW2  309   2.387   0.212   2.851 -0.7924  0.9258  5.4940
  104SOL     OW  310   2.851   3.034   1.723 -0.1262  0.4992  0.3537
  104SOL    HW1  311   2.949   3.044   1.728 -1.1593 -2.0731  2.0061
  104SOL    HW2  312   2.807   0.036   1.787  2.3686 -2.1159 -1.5246
  105SOL     OW  313   1.524   0.919   2.118  0.1402  0.0732  0.1168
  105SOL    HW1  314   1.442   0.935   2.065  0.9479 -2.5510 -2.2307
  105SOL    HW2  315   1.570   0.830   2.096  1.7965 -3.0043  1.6511
  106SOL     OW  316   1.764   0.384   0.809 -0.1402  0.0348 -0.3385
  106SOL    HW1  317   1.858   0.342   0.807 -1.3149 -1.8637  0.6609
  106SOL    HW2  318   1.697   0.309   0.792 -0.9691  0.2860 -0.3556
  107SOL     OW  319   0.752   1.050   1.063  0.1266  0.9403 -0.2890
  107SOL    HW1  320   0.666   0.998   1.076  1.6205  2.8742 -0.9703
  107SOL    HW2  321   0.762   1.061   0.964  1.8576 -0.3134 -0.4067
  108SOL     OW  322   3.042   0.547   2.656 -0.2303 -0.3256 -0.0136
  108SOL    HW1  323   3.006   0.461   2.693 -0.9074 -0.2345 -1.8457
  108SOL    HW2  324   0.067   0.530   2.601  0.7970 -1.3976  1.2432
  109SOL     OW  325   1.753   0.133   0.198 -0.7821  0.3704  0.2584
  109SOL    HW1  326   1.698   0.051   0.175 -2.4243 -2.2175  2.5845
  109SOL    HW2  327   1.847   0.104   0.232  2.6237  1.7634  0.5542
  110SOL     OW  328   3.023   1.855   2.823  0.0556 -0.3514 -0.1404
  110SOL    HW1  329   3.032   1.945   2.871  0.9042  0.0612 -1.8145
  110SOL    HW2  330   3.042   1.775   2.884  2.1225  0.7174 -1.3908
  111SOL     OW  331   2.323   0.212   2.289  0.0543  0.3003  0.6052
  111SOL    HW1  332   2.320   0.146   2.214  0.8758 -1.0434  0.8766
  111SOL    HW2  333   2.412   0.204   2.343  0.3119 -3.4692  1.9713
  112SOL     OW  334   2.226   3.039   1.233  0.5678 -0.0426  0.5992
  112SOL    HW1  335   2.308   3.002   1.188  0.0731 -1.4288 -0.7237
  112SOL    HW2  336   2.215   3.005   1.328  0.2870  2.1794 -3.2813
  113SOL     OW  337   2.365   2.451   2.028  0.7253  0.5679 -0.1994
  113SOL    HW1  338   2.308   2.429   1.945  2.1076  0.8188 -2.1270
  113SOL    HW2  339   2.325   2.420   2.116 -0.2304 -0.6520  0.7633
  114SOL     OW  340   2.865   0.002   0.667 -0.3210  0.1130 -0.1311
  114SOL    HW1  341   2.870   0.102   0.690  0.5929  0.3760  1.4674
  114SOL    HW2  342   2.780   3.039   0.611 -2.4723 -4.5217 -3.4300
  115SOL     OW  343   2.809   1.644   0.138  0.1078  0.4482 -0.2673
  115SOL    HW1  344   2.869   1.724   0.158 -1.8039 -0.4982  0.7105
  115SOL    HW2  345   2.803   1.581   0.218 -0.8550  1.5070  2.3175
  116SOL     OW  346   0.062   1.339   1.995  0.3375  0.1505  0.1021
  116SOL    HW1  347   0.039   1.430   1.949  1.0655 -0.5394 -1.9252
  116SOL    HW2  348   0.027   1.262   1.935 -0.8805 -0.9811 -0.9323
  117SOL     OW  349   2.443   2.911   1.113 -0.0206  0.2587  0.1376
  117SOL    HW1  350   2.537   2.880   1.098 -1.3189 -0.9614  1.6298
  117SOL    HW2  351   2.375   2.835   1.096 -0.1495 -4.1920 -1.4223
  118SOL     OW  352   0.331   2.233   1.704  0.7373 -0.1785 -0.3100
  118SOL    HW1  353   0.245   2.221   1.646 -3.0589  1.0861 -1.1275
  118SOL    HW2  354   0.408   2.264   1.649 -0.9248 -3.1369  0.5087
  119SOL     OW  355   1.298   2.100   1.140  0.0911  0.2280  0.6349
  119SOL    HW1  356   1.194   2.116   1.140  1.2899  0.0328  1.8524
  119SOL    HW2  357   1.333   2.074   1.048  1.1702  0.0121 -0.9175
  120SOL     OW  358   0.300   1.884   1.667  0.0879 -0.2302 -0.3536
  120SOL    HW1  359   0.251   1.801   1.695  2.1885  0.6815 -3.8347
  120SOL    HW2  360   0.286   1.962   1.737  2.5351  2.4340  0.8302
  121SOL     OW  361   2.490   1.474   0.920  0.3702  0.2033  0.2922
  121SOL    HW1  362   2.513   1.465   1.021  0.4785 -1.2628  1.2455
  121SOL    HW2  363   2.488   1.572   0.895 -1.9067  0.0088 -0.1199
  122SOL     OW  364   2.009   1.686   2.336  0.0506 -0.5336 -1.0866
  122SOL    HW1  365   2.083   1.756   2.340 -1.1618  0.3238  0.2852
  122SOL    HW2  366   2.046   1.592   2.313 -1.2973  0.5403 -1.0430
  123SOL     OW  367   2.624   2.730   0.711  0.0369 -0.4166 -0.0427
  123SOL    HW1  368   2.699   2.656   0.705  1.4513 -0.4872  0.6789
  123SOL    HW2  369   2.634   2.779   0.801 -2.2367  1.9854  2.0001
  124SOL     OW  370   1.378   1.167   2.715 -0.3729 -0.4297  0.2930
  124SOL    HW1  371   1.343   1.173   2.811 -1.5792  3.1819  1.5940
  124SOL    HW2  372   1.438   1.245   2.691  0.8653  0.9772 -0.9893
  125SOL     OW  373   0.244   1.547   2.773 -0.5974  1.0032 -0.4053
  125SOL    HW1  374   0.210   1.601   2.695  1.6364  0.2346 -1.0896
  125SOL    HW2  375   0.207   1.449   2.772 -0.6212 -1.6478 -0.3958
  126SOL     OW  376   2.806   2.259   0.448 -0.1712 -0.3954  0.0269
  126SOL    HW1  377   2.904   2.285   0.465 -1.9088 -1.6261 -1.5468
  126SOL    HW2  378   2.803   2.190   0.373  0.0237 -0.4583  1.9430
  127SOL     OW  379   0.284   1.611   1.059 -0.2019 -0.1755 -0.5102
  127SOL    HW1  380   0.289   1.534   0.995  0.3574  1.5366  1.2297
  127SOL    HW2  381   0.218   1.675   1.025  2.6448 -1.0497  3.7230
  128SOL     OW  382   1.324   0.977   0.075 -0.3475  0.1338 -0.3685
  128SOL    HW1  383   1.381   1.032   0.141  2.2758  1.7962  0.1337
  128SOL    HW2  384   1.386   0.910   0.023  0.7520 -0.8488  1.5462
  129SOL     OW  385   2.230   1.727   1.151  0.3569 -0.0237  0.3000
  129SOL    HW1  386   2.191   1.813   1.116  1.3309 -1.2703  1.6323
  129SOL    HW2  387   2.307   1.742   1.215  0.1787 -0.6570  1.3958
  130SOL     OW  388   1.841   1.244   0.293 -0.0389  0.3037  0.2538
  130SOL    HW1  389   1.934   1.210   0.282 -1.0240  0.5762 -2.8337
  130SOL    HW2  390   1.811   1.246   0.391 -0.1798  3.8446  0.8987
  131SOL     OW  391   2.751   1.186   2.655  0.0491 -0.6280  0.0245
  131SOL    HW1  392   2.726   1.138   2.743 -0.5999 -0.5078 -0.3767
  131SOL    HW2  393   2.727   1.286   2.667  0.7507 -0.3933  1.3308
  132SOL     OW  394   1.887   1.736   1.721  0.4883 -0.1885  0.1032
  132SOL    HW1  395   1.884   1.813   1.790  1.3040  2.3373  0.4157
  132SOL    HW2  396   1.886   1.770   1.627  3.3664 -0.1502  1.4688
  133SOL     OW  397   0.275   1.107   2.956  0.2324 -0.0342 -0.0834
  133SOL    HW1  398   0.273   1.006   2.978 -3.7764  1.5434  0.9247
  133SOL    HW2  399   0.342   1.158   3.013 -1.7818 -1.5268 -0.0079
  134SOL     OW  400   2.674   1.103   0.618 -0.2634 -0.0947 -0.5196
  134SOL    HW1  401   2.638   1.193   0.652 -0.8438  2.0220  2.2874
  134SOL    HW2  402   2.715   1.106   0.527  0.1556  0.1183 -0.9705
  135SOL     OW  403   2.496   0.901   0.218 -0.0938 -0.3431 -0.4068
  135SOL    HW1  404   2.453   0.991   0.193 -0.8279 -0.2117 -0.9690
  135SOL    HW2  405   2.419   0.835   0.237  0.3128 -0.2573 -0.0319
  136SOL     OW  406   1.834   1.799   1.442  0.0470 -0.5164  0.1847
  136SOL    HW1  407   1.881   1.852   1.365 -0.2417 -0.2525 -1.1920
  136SOL    HW2  408   1.819   1.703   1.414  0.2898 -2.3959  1.1719
  137SOL     OW  409   2.491   2.178   0.774  0.0338 -0.1991  0.0414
  137SOL    HW1  410   2.517   2.140   0.683  0.4308 -0.0827  0.1685
  137SOL    HW2  411   2.574   2.230   0.805  1.5042  0.7476 -0.6407
  138SOL     OW  412   2.224   0.158   1.850  0.5557 -0.0729  0.3582
  138SOL    HW1  413   2.205   0.201   1.757 -1.6002  0.8884 -0.0344
  138SOL    HW2  414   2.251   0.232   1.917 -0.4662  1.4553  3.2952
  139SOL     OW  415   2.679   0.297   0.182  0.4185 -0.4014 -0.3134
  139SOL    HW1  416   2.672   0.202   0.148 -1.0050  2.1079  0.7766
  139SOL    HW2  417   2.758   0.298   0.251 -1.0340  2.5581  0.9522
  140SOL     OW  418   1.176   1.812   2.432 -0.2533  0.4213  0.2855
  140SOL    HW1  419   1.220   1.724   2.405  1.5304  0.8668  1.2750
  140SOL    HW2  420   1.083   1.799   2.469 -2.3686  0.0247 -0.5974
  141SOL     OW  421   0.558   0.839   1.969 -0.5158 -0.3976  0.3915
  141SOL    HW1  422   0.538   0.822   2.070 -0.9231  0.2587  3.3827
  141SOL    HW2  423   0.613   0.923   1.943 -1.1826  1.4343 -0.1235
  142SOL     OW  424   2.103   2.669   3.011  0.1041  0.0790 -0.3158
  142SOL    HW1  425   2.189   2.650   0.006 -2.3614  1.2358  1.0419
  142SOL    HW2  426   2.072   2.768   3.013  1.4881 -0.4804 -0.9191
  143SOL     OW  427   1.023   2.005   0.403  0.5138  0.3674  0.0705
  143SOL    HW1  428   1.031   2.106   0.401 -0.3605 -0.4575 -3.2243
  143SOL    HW2  429   0.919   1.981   0.410  1.1209 -0.5097  0.6167
  144SOL     OW  430   1.123   2.555   0.342  0.3721 -0.0232  0.4028
  144SOL    HW1  431   1.113   2.513   0.253 -1.5958  0.7541  2.6400
  144SOL    HW2  432   1.210   2.517   0.384 -0.2929 -0.0885 -1.0882
  145SOL     OW  433   1.661   1.924   2.588 -0.0594  0.4182  0.2455
  145SOL    HW1  434   1.667   1.956   2.683  2.4899  1.6347 -0.5566
  145SOL    HW2  435   1.599   1.841   2.590  0.6643 -0.7379 -0.1406
  146SOL     OW  436   2.592   2.459   3.006  0.1728 -0.0825 -0.3002
  146SOL    HW1  437   2.557   2.548   2.965 -1.3723 -0.3159 -0.2139
  146SOL    HW2  438   2.515   2.396   3.032 -0.8842 -0.2737  0.7678
  147SOL     OW  439   3.040   1.228   1.338  0.2746  0.2149  0.5964
  147SOL    HW1  440   0.006   1.327   1.327  0.3807  0.9524 -2.1996
  147SOL    HW2  441   2.940   1.217   1.363  3.3497  0.3170  0.6523
  148SOL     OW  442   1.625   2.934   0.117 -0.4535  0.1854  0.7032
  148SOL    HW1  443   1.670   2.856   0.066  0.5098  2.4044 -0.4384
  148SOL    HW2  444   1.533   2.960   0.076 -2.0999 -0.3908 -2.0948
  149SOL     OW  445   0.659   1.757   2.948 -0.3040  0.1075  0.6839
  149SOL    HW1  446   0.570   1.705   2.930  0.9910  0.7348  0.9251
  149SOL    HW2  447   0.742   1.699   2.939 -1.3817  1.3747 -0.7390
  150SOL     OW  448   0.239   2.218   0.571  0.4299  0.4459 -0.3432
  150SOL    HW1  449   0.243   2.204   0.469  0.6550 -0.2676  1.0960
  150SOL    HW2  450   0.329   2.190   0.606  0.1123  2.7585 -2.5328
  151SOL     OW  451   0.518   1.494   0.282 -0.0853  0.4753 -0.5685
  151SOL    HW1  452   0.448   1.435   0.328  1.3688  1.1706 -0.7728
  151SOL    HW2  453   0.482   1.562   0.214  1.0240 -0.0272  1.3385
  152SOL     OW  454   2.699   1.671   0.653  0.4958  0.4311 -0.1684
  152SOL    HW1  455   2.617   1.689   0.711  2.2406 -0.2911  1.3461
  152SOL    HW2  456   2.699   1.731   0.570  0.0665  3.0566 -0.7476
  153SOL     OW  457   2.180   2.572   0.409 -0.0509 -0.3351 -0.0972
  153SOL    HW1  458   2.144   2.637   0.336 -1.0890  2.3606 -0.4693
  153SOL    HW2  459   2.100   2.530   0.456  0.6654  2.4763  2.8730
  154SOL     OW  460   0.800   2.710   0.837 -0.1406  0.7142 -0.1105
  154SOL    HW1  461   0.776   2.807   0.832 -0.7878 -0.4977  0.9184
  154SOL    HW2  462   0.717   2.648   0.859 -1.2955 -1.6652  0.6475
  155SOL     OW  463   0.116   1.817   0.982  0.0287 -0.2869  0.2988
  155SOL    HW1  464   0.128   1.867   1.072  0.1958  2.0784  2.1142
  155SOL    HW2  465   0.116   1.888   0.904 -0.2650  2.6708 -1.1208
  156SOL     OW  466   2.343   2.321   0.056  0.2710 -0.3903 -0.2260
  156SOL    HW1  467   2.389   2.234   0.044 -3.0525  2.3639 -3.3326
  156SOL    HW2  468   2.354   2.350   0.154  1.4596  0.8350  1.1510
  157SOL     OW  469   0.732   1.774   1.547 -0.1961 -0.4145  0.2724
  157SOL    HW1  470   0.665   1.780   1.626 -1.4443 -1.6922  0.7344
  157SOL    HW2  471   0.680   1.764   1.454  1.5585 -1.8215 -0.7593
  158SOL     OW  472   1.416   0.761   2.955 -0.0136  0.6736  0.1628
  158SOL    HW1  473   1.381   0.673   2.933  1.3332  0.8059 -0.1752
  158SOL    HW2  474   1.507   0.744   3.003 -0.9277  1.7323 -1.3447
  159SOL     OW  475   1.222   0.902   2.842  0.3270  0.3861 -0.2926
  159SOL    HW1  476   1.223   0.908   2.739 -1.6953  0.2030  4.0284
  159SOL    HW2  477   1.290   0.840   2.883 -3.0764  0.1439 -0.4250
  160SOL     OW  478   1.097   1.403   0.451  0.2692 -0.5640 -0.5819
  160SOL    HW1  479   1.067   1.500   0.450  1.7914  0.1717  0.5085
  160SOL    HW2  480   1.152   1.378   0.368  1.2784  1.7087 -2.2790
  161SOL     OW  481   0.200   2.263   2.662 -1.1087 -0.3609 -0.1432
  161SOL    HW1  482   0.100   2.268   2.672 -0.2992  0.2387  0.4698
  161SOL    HW2  483   0.238   2.235   2.754 -0.7136 -0.5971 -0.0503
  162SOL     OW  484   0.209   2.260   0.993  0.1506  0.0744  0.2547
  162SOL    HW1  485   0.145   2.236   0.914 -0.7232 -1.2745 -2.0479
  162SOL    HW2  486   0.303   2.219   0.986  0.4053  0.1080 -1.6806
  163SOL     OW  487   2.967   0.729   2.818  0.5465 -0.7504  0.6970
  163SOL    HW1  488   2.993   0.648   2.761 -2.2119 -0.6210 -0.9481
  163SOL    HW2  489   2.935   0.701   2.910 -0.9141 -2.3445  1.2943
  164SOL     OW  490   0.467   2.977   2.646  0.5126 -0.4601  0.0555
  164SOL    HW1  491   0.467   3.006   2.743  1.6328 -1.4033 -4.9335
  164SOL    HW2  492   0.556   2.932   2.618  1.5130 -2.6052  2.5023
  165SOL     OW  493   2.323   0.413   1.960  0.1662 -0.1016 -0.2805
  165SOL    HW1  494   2.243   0.426   2.023 -0.7646 -1.9992  2.0176
  165SOL    HW2  495   2.409   0.459   1.994  0.8584  1.0811  1.2707
  166SOL     OW  496   1.982   2.413   1.620  0.0099 -0.2343  1.1515
  166SOL    HW1  497   1.972   2.317   1.643  2.5090  2.5766 -0.0453
  166SOL    HW2  498   1.894   2.466   1.629  0.6992 -1.1087 -0.8235
  167SOL     OW  499   1.200   0.785   2.001 -0.4188  0.4086 -0.4879
  167SOL    HW1  500   1.303   0.799   1.989  0.6498  2.3198  0.5222
  167SOL    HW2  501   1.172   0.686   2.014  0.3143 -1.1361 -0.9279
  168SOL     OW  502   2.377   3.029   2.121  0.1743 -0.3500 -0.1578
  168SOL    HW1  503   2.439   0.029   2.075 -1.2544 -3.8798  0.6635
  168SOL    HW2  504   2.425   2.979   2.198  2.3686  1.8874  0.4856
  169SOL     OW  505   0.284   1.062   0.274 -0.0724 -0.2667  0.3886
  169SOL    HW1  506   0.252   0.965   0.248  1.8493 -1.6425 -1.7440
  169SOL    HW2  507   0.227   1.135   0.229 -0.0128 -0.3568  0.4422
  170SOL     OW  508   3.018   1.472   1.704 -0.2652 -0.1607 -0.2933
  170SOL    HW1  509   3.000   1.482   1.609  3.4477  1.3706  1.7555
  170SOL    HW2  510   2.941   1.516   1.756 -1.8453 -1.8075  2.5263
  171SOL     OW  511   0.943   2.221   2.155  0.9219  0.1873  0.1016
  171SOL    HW1  512   0.853   2.269   2.148 -1.7097 -3.2950 -1.5449
  171SOL    HW2  513   0.930   2.136   2.209 -0.7645  2.8117  0.2518
  172SOL     OW  514   0.706   2.342   2.107 -0.3438  0.6062 -0.1610
  172SOL    HW1  515   0.688   2.369   2.010 -1.5904  0.6962  0.6749
  172SOL    HW2  516   0.662   2.409   2.166 -1.1511 -3.1874 -1.6006
  173SOL     OW  517   1.309   2.582   0.787  0.0977 -0.3328 -0.0138
  173SOL    HW1  518   1.345   2.611   0.879  0.2761  0.5788 -1.7357
  173SOL    HW2  519   1.371   2.625   0.714 -1.5091  2.5760 -0.1402
  174SOL     OW  520   1.947   0.225   0.537  0.3273  0.3388  0.1214
  174SOL    HW1  521   1.970   0.225   0.639  1.3381  0.0300  2.5681
  174SOL    HW2  522   2.012   0.279   0.483 -2.1247 -0.3976  0.5952
  175SOL     OW  523   1.077   1.675   0.446 -0.1811  0.5640 -0.7346
  175SOL    HW1  524   1.161   1.694   0.501  1.2394  0.0553  3.6814
  175SOL    HW2  525   1.029   1.759   0.423  0.1789 -2.4968 -0.7618
  176SOL     OW  526   1.188   1.368   0.699  0.6453 -0.3132  0.7288
  176SOL    HW1  527   1.191   1.466   0.733  1.1018 -4.4987 -1.8389
  176SOL    HW2  528   1.166   1.367   0.595  0.6915 -2.7186 -0.3644
  177SOL     OW  529   1.367   0.613   1.121  0.3478 -0.8532 -0.1765
  177SOL    HW1  530   1.403   0.574   1.213 -0.9503 -2.1509  2.1611
  177SOL    HW2  531   1.444   0.614   1.058  0.2910  2.3185 -0.8224
  178SOL     OW  532   2.735   1.468   0.329 -0.3347 -0.3566  0.2199
  178SOL    HW1  533   2.814   1.440   0.389  1.3017 -1.6062  2.1104
  178SOL    HW2  534   2.722   1.406   0.246  0.5039  0.3514 -2.7300
  179SOL     OW  535   0.535   2.314   0.159 -0.0730 -0.1317 -0.1664
  179SOL    HW1  536   0.517   2.253   0.238 -0.5165 -2.2474 -0.3003
  179SOL    HW2  537   0.594   2.390   0.200  1.7527 -2.0876  0.8896
  180SOL     OW  538   1.600   1.531   1.499  0.4234  0.1381 -0.4659
  180SOL    HW1  539   1.537   1.606   1.473  2.6155  4.3365 -2.2258
  180SOL    HW2  540   1.669   1.513   1.422 -0.0966  0.9299  0.3617
  181SOL     OW  541   0.791   1.050   2.184  0.0605 -0.1314 -0.3903
  181SOL    HW1  542   0.770   1.062   2.084 -0.0812 -0.9897 -3.8785
  181SOL    HW2  543   0.893   1.027   2.196 -0.4116 -1.1683  1.2317
  182SOL     OW  544   2.822   1.028   2.258 -0.4333  0.3704 -0.6071
  182SOL    HW1  545   2.755   1.091   2.300 -0.8073  0.0845  0.6667
  182SOL    HW2  546   2.773   0.985   2.181  1.0875  0.8127 -1.2548
  183SOL     OW  547   1.645   0.666   2.072 -0.5009 -0.5110  0.0761
  183SOL    HW1  548   1.711   0.662   1.995 -3.8259 -0.7643 -0.6567
  183SOL    HW2  549   1.608   0.569   2.093 -1.9413 -2.7654  0.4026
  184SOL     OW  550   0.181   0.679   1.726 -0.1213  0.7368  0.4955
  184SOL    HW1  551   0.177   0.624   1.810 -2.5299 -0.7046 -0.8134
  184SOL    HW2  552   0.267   0.737   1.735  2.0050  1.8558 -0.3179
  185SOL     OW  553   2.364   1.714   0.553 -0.1446  0.5026 -0.5773
  185SOL    HW1  554   2.442   1.712   0.488  0.3685 -0.0270  0.8852
  185SOL    HW2  555   2.294   1.640   0.539 -0.5059 -0.3143 -2.3360
  186SOL     OW  556   0.510   1.984   3.010 -0.4985  0.5989  1.2271
  186SOL    HW1  557   0.544   1.901   2.959  0.8111  0.4194 -2.2024
  186SOL    HW2  558   0.585   2.035   3.054  1.2962  0.0250 -1.3238
  187SOL     OW  559   2.364   1.763   3.017 -0.3473  0.1749  0.6210
  187SOL    HW1  560   2.347   1.730   2.919  1.0297  0.5290 -3.7576
  187SOL    HW2  561   2.463   1.787   3.030  0.2928 -1.2084 -2.7755
  188SOL     OW  562   1.038   2.604   0.723 -0.1357 -0.3317 -0.1656
  188SOL    HW1  563   1.136   2.597   0.755 -1.2372 -0.3355  1.2256
  188SOL    HW2  564   0.976   2.640   0.794  1.2900 -1.9397 -1.9018
  189SOL     OW  565   1.944   1.070   2.396  0.2795 -0.5584  0.0718
  189SOL    HW1  566   1.853   1.024   2.381  0.0716 -0.2634 -2.3818
  189SOL    HW2  567   1.940   1.166   2.365 -2.0555 -4.4045  0.0253
  190SOL     OW  568   0.907   2.009   2.322 -0.4143 -0.1269  0.1502
  190SOL    HW1  569   0.808   1.974   2.317 -1.6719  1.8696 -2.1671
  190SOL    HW2  570   0.930   2.038   2.417 -0.3019  1.2093 -2.6488
  191SOL     OW  571   2.322   0.627   1.620 -0.0959 -0.1262 -0.8771
  191SOL    HW1  572   2.239   0.575   1.652  0.0621 -1.7848 -2.0248
  191SOL    HW2  573   2.382   0.569   1.556  2.8701 -2.7701  0.0246
  192SOL     OW  574   2.238   0.470   2.365  0.8090  0.2531  0.1165
  192SOL    HW1  575   2.321   0.522   2.362 -1.7471 -1.2644 -1.9026
  192SOL    HW2  576   2.257   0.367   2.375  0.0426 -2.7514  0.2721
  193SOL     OW  577   0.605   0.364   0.719  0.4265  0.4761  0.1407
  193SOL    HW1  578   0.647   0.325   0.638 -0.8689  0.0366  1.1143
  193SOL    HW2  579   0.530   0.301   0.754 -1.3075  0.1226 -0.9315
  194SOL     OW  580   1.317   2.326   1.611 -0.2848 -0.0806  0.0094
  194SOL    HW1  581   1.240   2.355   1.666  1.5059  0.1316 -1.3323
  194SOL    HW2  582   1.329   2.224   1.610 -0.2645 -0.2888  0.6424
  195SOL     OW  583   2.656   0.765   0.852  0.2878 -0.3700 -0.2118
  195SOL    HW1  584   2.589   0.808   0.924 -2.5302  0.4760  2.9176
  195SOL    HW2  585   2.696   0.850   0.814 -0.0922  1.6977  0.7433
  196SOL     OW  586   1.145   1.775   1.692  0.2835  0.4377 -0.4155
  196SOL    HW1  587   1.088   1.806   1.614 -0.9054 -1.3703  4.4664
  196SOL    HW2  588   1.101   1.815   1.777 -1.1629 -1.5448  1.1523
  197SOL     OW  589   0.347   0.627   2.342 -0.4342 -0.0017 -0.4732
  197SOL    HW1  590   0.307   0.698   2.280  0.1010  2.3362 -0.5691
  197SOL    HW2  591   0.276   0.584   2.397 -1.7701 -0.7658  2.3159
  198SOL     OW  592   1.560   1.303   0.663  0.1172 -0.5645  0.0864
  198SOL    HW1  593   1.500   1.240   0.709  0.4644  1.1661 -2.8550
  198SOL    HW2  594   1.544   1.401   0.692  1.3495  1.2065  3.5673
  199SOL     OW  595   2.541   0.474   2.114 -0.0583  0.0446  0.3053
  199SOL    HW1  596   2.622   0.416   2.141  1.0101 -1.2837  3.2536
  199SOL    HW2  597   2.518   0.525   2.199  2.0154  1.1406  0.2678
  200SOL     OW  598   2.257   2.319   2.457 -0.2379  0.3465  0.6535
  200SOL    HW1  599   2.357   2.298   2.466  0.6647 -1.2035 -0.0578
  200SOL    HW2  600   2.194   2.257   2.512 -2.0067  1.0525  1.3946
  201SOL     OW  601   2.126   0.183   1.573 -0.2728  0.1731  0.4347
  201SOL    HW1  602   2.039   0.236   1.572 -0.5468  0.4872  0.7470
  201SOL    HW2  603   2.118   0.084   1.550  2.2744  0.4181 -0.4356
  202SOL     OW  604   2.159   2.949   0.123  0.1375  0.4739  0.3058
  202SOL    HW1  605   2.235   3.018   0.113  1.0701  0.7667 -1.5828
  202SOL    HW2  606   2.105   2.948   0.039 -1.6251  0.5116 -0.5639
  203SOL     OW  607   0.776   1.886   2.672 -0.1581 -0.3009  0.0642
  203SOL    HW1  608   0.706   1.865   2.742  0.0111  2.3513 -2.6724
  203SOL    HW2  609   0.736   1.947   2.601 -0.7708 -2.5709 -1.0710
  204SOL     OW  610   0.861   1.244   2.522  0.0235 -0.0793 -0.5955
  204SOL    HW1  611   0.811   1.318   2.569 -0.2555  0.6112 -0.2298
  204SOL    HW2  612   0.869   1.164   2.580 -0.5959 -0.5987 -0.2997
  205SOL     OW  613   0.924   0.889   1.359  0.2429  0.2948  0.5342
  205SOL    HW1  614   0.997   0.823   1.335  2.0456 -0.7423 -0.9961
  205SOL    HW2  615   0.842   0.882   1.297 -0.4311  0.2711  2.8001
  206SOL     OW  616   0.441   0.454   2.589  0.8215  0.1427 -0.5187
  206SOL    HW1  617   0.376   0.463   2.513  2.5027 -2.2512  2.3904
  206SOL    HW2  618   0.480   0.362   2.585 -4.3257 -0.9371  0.8342
  207SOL     OW  619   1.821   2.365   1.932  0.3402 -0.1454 -0.8296
  207SOL    HW1  620   1.829   2.455   1.973 -0.4115 -0.8771  0.8761
  207SOL    HW2  621   1.807   2.376   1.834 -1.6793  0.6312  1.0353
  208SOL     OW  622   0.946   2.641   1.119  0.3841 -0.2009  0.7243
  208SOL    HW1  623   0.845   2.643   1.106 -1.6915  2.4251  1.2467
  208SOL    HW2  624   0.994   2.572   1.065  0.6736  1.0454  1.3196
  209SOL     OW  625   1.324   1.478   2.774 -0.0386 -0.0187 -0.5790
  209SOL    HW1  626   1.349   1.513   2.865 -2.2169  1.6628  0.6140
  209SOL    HW2  627   1.397   1.465   2.709 -1.0385  1.1671  0.0523
  210SOL     OW  628   2.312   0.670   0.842  0.3528  0.1163 -0.3041
  210SOL    HW1  629   2.361   0.741   0.888 -0.7668  2.4228 -0.3438
  210SOL    HW2  630   2.302   0.684   0.739  1.9060 -0.6407 -1.1105
  211SOL     OW  631   0.974   2.757   0.506  0.2705  0.2270  0.1382
  211SOL    HW1  632   0.991   2.684   0.576 -1.9388 -2.6412 -0.5455
  211SOL    HW2  633   0.999   2.711   0.419  1.3730  0.3589  3.4916
  212SOL     OW  634   2.202   1.927   0.579 -0.6730 -0.3509  0.0403
  212SOL    HW1  635   2.265   1.850   0.569 -3.4549  0.1895 -0.5568
  212SOL    HW2  636   2.229   2.010   0.525  0.6938  1.7691  1.8472
  213SOL     OW  637   1.781   0.541   2.723 -0.2596  0.0117  0.4984
  213SOL    HW1  638   1.702   0.502   2.773  1.7151  0.9883 -0.1984
  213SOL    HW2  639   1.825   0.605   2.786  0.9603 -1.4284  0.4034
  214SOL     OW  640   1.018   1.903   1.886  0.2959 -0.3886 -0.1844
  214SOL    HW1  641   0.919   1.902   1.915 -1.7464 -1.9846  2.2552
  214SOL    HW2  642   1.071   1.893   1.972 -3.2068 -2.1544 -0.1314
  215SOL     OW  643   0.638   1.681   0.490  0.6717 -0.6347 -0.3951
  215SOL    HW1  644   0.620   1.622   0.410 -1.4540 -0.0910  1.1960
  215SOL    HW2  645   0.549   1.714   0.532 -0.2169 -2.0940 -0.3268
  216SOL     OW  646   0.044   0.020   2.311 -0.1659  0.0886 -0.6184
  216SOL    HW1  647   0.033   2.978   2.325 -0.3827 -0.3792 -1.4159
  216SOL    HW2  648   0.117   0.034   2.238 -1.6533 -1.5502  1.4731
  217SOL     OW  649   2.332   0.785   1.263  0.4680 -0.2422 -0.1455
  217SOL    HW1  650   2.286   0.695   1.270 -1.1538  1.5229  2.4414
  217SOL    HW2  651   2.400   0.786   1.338  0.7675  3.6373  0.3525
  218SOL     OW  652   1.405   1.846   2.028 -0.0547  0.3758 -0.2470
  218SOL    HW1  653   1.395   1.858   1.929  2.0249  0.0940  0.6574
  218SOL    HW2  654   1.367   1.930   2.074 -0.2152 -1.2919  0.7509
  219SOL     OW  655   1.776   1.583   2.994 -0.1239 -0.0632  0.3567
  219SOL    HW1  656   1.848   1.656   3.010  0.8525 -1.0941  0.1452
  219SOL    HW2  657   1.698   1.630   2.947 -0.0727  1.9079 -0.1527
  220SOL     OW  658   1.956   0.847   0.238  0.3939 -0.1126 -0.3607
  220SOL    HW1  659   1.929   0.946   0.234  0.0504  0.5812 -0.8895
  220SOL    HW2  660   1.951   0.811   0.140  1.1094  0.6006 -1.6351
  221SOL     OW  661   0.100   0.552   2.989  0.1257 -0.0843 -0.8285
  221SOL    HW1  662   0.177   0.588   2.925  3.9964 -0.1945  0.1205
  221SOL    HW2  663   0.071   0.456   2.970 -1.6505 -0.0224  0.5174
  222SOL     OW  664   1.573   1.833   0.651 -0.0269  0.2417 -0.1102
  222SOL    HW1  665   1.631   1.793   0.577 -0.2013  1.2700 -1.0223
  222SOL    HW2  666   1.577   1.934   0.656 -0.5730 -0.7952  1.8748
  223SOL     OW  667   0.970   0.136   2.958  0.0146 -0.1002 -0.0261
  223SOL    HW1  668   0.957   0.108   0.001  0.5321  0.0515  1.1355
  223SOL    HW2  669   1.069   0.155   2.939 -1.9562 -1.2746 -1.7939
  224SOL     OW  670   1.730   2.979   1.429  0.0943  0.0369  0.4481
  224SOL    HW1  671   1.718   2.878   1.425  3.7594 -0.2829 -0.2904
  224SOL    HW2  672   1.808   3.014   1.375  0.2889 -1.7375  0.8675
  225SOL     OW  673   0.563   2.116   1.179  0.5873 -0.4923  0.2669
  225SOL    HW1  674   0.595   2.047   1.246  1.7883  0.1717  1.3288
  225SOL    HW2  675   0.593   2.216   1.196 -0.7837  0.3050 -0.7158
  226SOL     OW  676   1.125   1.617   0.179  0.1061  0.0382  0.9627
  226SOL    HW1  677   1.181   1.692   0.136  0.8970 -1.0541  0.4931
  226SOL    HW2  678   1.116   1.622   0.279 -0.7084  1.9253 -0.5973
  227SOL     OW  679   1.125   1.756   1.045  0.4643 -0.4385  0.1975
  227SOL    HW1  680   1.069   1.670   1.025  0.1735 -2.3511 -1.5647
  227SOL    HW2  681   1.092   1.789   1.134  1.1675  2.2699  0.9445
  228SOL     OW  682   0.395   1.743   0.612 -0.0760 -0.4619  0.4361
  228SOL    HW1  683   0.344   1.661   0.609  2.4339  3.0057 -0.3493
  228SOL    HW2  684   0.363   1.818   0.549 -2.0599  0.4942  0.7896
  229SOL     OW  685   2.012   0.330   2.646 -0.2474 -0.3431  0.3836
  229SOL    HW1  686   2.043   0.272   2.566  0.8396 -1.7725  1.1835
  229SOL    HW2  687   1.960   0.413   2.614 -1.6911 -0.5045  1.5556
  230SOL     OW  688   1.771   1.183   2.760  0.0057 -0.3417  0.2984
  230SOL    HW1  689   1.808   1.280   2.771 -1.5554  2.0307 -0.0962
  230SOL    HW2  690   1.697   1.169   2.827  2.5523 -0.4862  0.4218
  231SOL     OW  691   0.951   1.719   2.523  0.3929  0.1415 -0.5020
  231SOL    HW1  692   0.910   1.668   2.450  2.4614  0.3220 -0.8008
  231SOL    HW2  693   0.881   1.777   2.572  1.5293 -1.9852 -0.1292
  232SOL     OW  694   2.328   2.145   0.453 -0.8097  0.2328  0.1972
  232SOL    HW1  695   2.420   2.109   0.479  0.2567  1.8770  1.0545
  232SOL    HW2  696   2.300   2.120   0.353  0.1087 -0.4757 -4.9920
  233SOL     OW  697   2.658   2.473   0.488  0.5174  0.0116 -0.3017
  233SOL    HW1  698   2.724   2.395   0.471  0.5901 -0.6796 -0.4987
  233SOL    HW2  699   2.565   2.439   0.460 -3.1707 -0.8156  0.0490
  234SOL     OW  700   0.624   0.395   2.805  0.2929  0.3551  0.0336
  234SOL    HW1  701   0.570   0.391   2.723 -0.5408 -0.7315  2.3581
  234SOL    HW2  702   0.681   0.481   2.806  1.1462 -0.1821  0.4867
  235SOL     OW  703   2.689   0.174   2.784 -1.3542  0.2344 -0.1074
  235SOL    HW1  704   2.733   0.254   2.829 -1.0214 -0.8891 -1.5451
  235SOL    HW2  705   2.752   0.094   2.757 -0.4635 -1.5409 -1.5454
  236SOL     OW  706   1.872   2.311   1.145  0.2275 -0.3013 -0.0388
  236SOL    HW1  707   1.870   2.233   1.206 -1.5236  0.1989 -1.6487
  236SOL    HW2  708   1.974   2.325   1.123  1.4783  2.6697  0.2745
  237SOL     OW  709   0.700   1.787   2.209 -0.4334 -0.1792 -0.3331
  237SOL    HW1  710   0.730   1.824   2.117  0.9195  3.4540 -1.6265
  237SOL    HW2  711   0.772   1.735   2.257 -1.4918  0.9130  1.5414
  238SOL     OW  712   1.355   0.103   2.463 -0.3481 -0.1679  0.1339
  238SOL    HW1  713   1.392   0.022   2.509 -3.4021 -0.3346  0.9400
  238SOL    HW2  714   1.354   0.087   2.364  3.5760 -1.0186  2.0044
  239SOL     OW  715   0.315   2.023   1.917  0.4774  0.3916  0.1390
  239SOL    HW1  716   0.292   2.069   2.006  3.1072 -0.4636  0.5515
  239SOL    HW2  717   0.331   2.098   1.846 -0.9957  0.5103 -1.3943
  240SOL     OW  718   2.397   2.428   0.394  0.4359 -0.1020 -0.0824
  240SOL    HW1  719   2.311   2.477   0.418  1.2993 -0.1836  1.7319
  240SOL    HW2  720   2.396   2.331   0.423 -0.3303 -0.1980  0.9159
  241SOL     OW  721   2.425   0.858   1.006 -0.2612  0.0483  0.4510
  241SOL    HW1  722   2.389   0.836   1.101  0.1146 -0.0266  0.9003
  241SOL    HW2  723   2.415   0.959   0.989 -2.0259  1.9202 -1.1199
  242SOL     OW  724   2.174   2.372   2.201  0.3229  0.0669  0.3399
  242SOL    HW1  725   2.117   2.312   2.146 -0.8195 -0.5687  0.4204
  242SOL    HW2  726   2.196   2.339   2.295  2.6582 -1.3251 -1.6289
  243SOL     OW  727   0.600   2.493   1.594  0.1683  0.0440 -0.2497
  243SOL    HW1  728   0.696   2.518   1.569 -1.2070 -2.0321  0.3951
  243SOL    HW2  729   0.538   2.568   1.552 -1.3412  2.5038 -1.2415
  244SOL     OW  730   2.166   0.469   2.820 -0.0710  0.3890  0.4100
  244SOL    HW1  731   2.123   0.398   2.765  3.3110  0.7384 -0.0106
  244SOL    HW2  732   2.186   0.548   2.752 -0.2358  2.4200 -2.3276
  245SOL     OW  733   1.464   0.265   1.300  0.2300 -0.6417 -0.6264
  245SOL    HW1  734   1.366   0.260   1.267 -1.2627 -2.1872 -1.4264
  245SOL    HW2  735   1.525   0.222   1.233 -1.1514 -0.4776 -0.2946
  246SOL     OW  736   1.793   2.669   3.021 -0.3182  0.0492 -0.1179
  246SOL    HW1  737   1.781   2.579   2.977  0.5227  0.5924 -1.4591
  246SOL    HW2  738   1.870   2.714   2.972  3.8410 -0.5392  0.8921
  247SOL     OW  739   1.208   0.512   2.191  0.0961  0.1458 -0.0222
  247SOL    HW1  740   1.140   0.519   2.270 -0.6566  2.6009  0.5370
  247SOL    HW2  741   1.286   0.573   2.215  2.1222 -0.8507  1.0898
  248SOL     OW  742   0.546   1.788   1.756 -0.2845 -0.0030 -0.3288
  248SOL    HW1  743   0.465   1.846   1.733 -2.4550 -3.0677  0.2257
  248SOL    HW2  744   0.519   1.689   1.750  1.1136 -1.2731 -1.2811
  249SOL     OW  745   2.334   0.266   0.557  0.1302  0.0162 -0.0357
  249SOL    HW1  746   2.264   0.248   0.486  0.1434  0.0633  0.2181
  249SOL    HW2  747   2.297   0.329   0.631 -0.9838  1.1804 -0.5388
  250SOL     OW  748   2.792   0.378   2.921 -0.1006  0.0282 -0.0800
  250SOL    HW1  749   2.831   0.331   3.001 -0.6951  2.1712 -1.5434
  250SOL    HW2  750   2.799   0.478   2.940 -0.3080  2.8124 -0.1362
  251SOL     OW  751   1.335   0.530   2.887  0.4891 -0.3586  0.1159
  251SOL    HW1  752   1.307   0.494   2.795 -2.1286 -1.2002 -2.7530
  251SOL    HW2  753   1.283   0.491   2.970  0.8707  1.3001  2.1400
  252SOL     OW  754   1.845   1.973   1.869 -0.3257  0.2095 -0.7090
  252SOL    HW1  755   1.740   1.987   1.868 -1.2117 -0.5775  2.2176
  252SOL    HW2  756   1.875   1.993   1.963 -0.2098 -0.6900  0.6099
  253SOL     OW  757   2.321   2.527   1.247 -0.4545  0.2167  0.3392
  253SOL    HW1  758   2.293   2.620   1.207 -1.0308  0.7292  1.0313
  253SOL    HW2  759   2.327   2.535   1.351  0.0788  2.3582  3.0334
  254SOL     OW  760   2.715   1.247   1.092  0.0203 -0.2262 -0.1169
  254SOL    HW1  761   2.668   1.328   1.135  0.0509  2.3438  0.2992
  254SOL    HW2  762   2.791   1.284   1.029  1.6462  2.3554 -0.9968
  255SOL     OW  763   1.577   0.161   1.064  0.5477 -0.5388 -0.7742
  255SOL    HW1  764   1.595   0.070   1.032 -1.1472  3.4459 -2.3809
  255SOL    HW2  765   1.510   0.213   1.007 -0.9455  1.5758 -2.6375
  256SOL     OW  766   1.409   2.315   1.252 -0.0058  0.4459 -0.4191
  256SOL    HW1  767   1.337   2.376   1.290  2.3325 -2.9571  2.6742
  256SOL    HW2  768   1.369   2.229   1.208 -0.7972 -1.2014  0.0517
  257SOL     OW  769   0.667   2.880   2.509  0.4147  0.1582  0.4735
  257SOL    HW1  770   0.756   2.933   2.531  0.9994  2.6163 -1.0379
  257SOL    HW2  771   0.643   2.885   2.408 -0.6420 -0.2745 -0.8882
  258SOL     OW  772   0.850   2.450   0.601 -0.3369  0.5974 -0.0824
  258SOL    HW1  773   0.939   2.498   0.631  1.8552  1.0885  2.1198
  258SOL    HW2  774   0.822   2.382   0.668  1.8211  0.1711 -0.2502
  259SOL     OW  775   1.659   2.953   2.755  0.1971  0.1677 -0.7614
  259SOL    HW1  776   1.686   3.049   2.769 -2.1109 -2.5588 -1.2264
  259SOL    HW2  777   1.740   2.891   2.757  0.9404 -0.7388 -0.4696
  260SOL     OW  778   2.354   0.246   1.427  0.0670  0.1049  0.4326
  260SOL    HW1  779   2.276   0.233   1.489  2.1616 -1.8064  1.0319
  260SOL    HW2  780   2.414   0.163   1.434  1.2552 -0.3820 -0.0594
  261SOL     OW  781   0.730   0.490   2.301  0.0723  0.3005  0.4202
  261SOL    HW1  782   0.663   0.558   2.330  4.2786 -4.1422 -0.6153
  261SOL    HW2  783   0.824   0.530   2.284 -2.2643  0.6412  0.7506
  262SOL     OW  784   0.472   2.241   2.320 -0.2961 -0.1002  0.2125
  262SOL    HW1  785   0.392   2.197   2.266 -1.0469  0.9626 -0.3225
  262SOL    HW2  786   0.493   2.331   2.273  0.5156  2.9876 -0.0907
  263SOL     OW  787   0.149   1.670   2.554  0.0236  0.5418  0.4239
  263SOL    HW1  788   0.116   1.762   2.567  1.6708 -1.2323  2.2355
  263SOL    HW2  789   0.084   1.613   2.493 -0.2139 -1.1709 -0.9666
  264SOL     OW  790   1.342   1.171   0.805  0.4306  0.4026 -0.1658
  264SOL    HW1  791   1.287   1.085   0.794  0.7601  2.4293 -2.1928
  264SOL    HW2  792   1.296   1.248   0.760 -1.2499 -2.7611  0.7246
  265SOL     OW  793   1.494   2.876   0.581  0.7567  0.2807  0.1800
  265SOL    HW1  794   1.482   2.776   0.595 -1.6734 -1.0076  0.6015
  265SOL    HW2  795   1.585   2.912   0.619  2.1330  2.6153  0.8411
  266SOL     OW  796   1.596   0.823   1.379 -0.0912 -0.5345 -0.1378
  266SOL    HW1  797   1.517   0.857   1.322  0.5187 -2.7003 -0.3094
  266SOL    HW2  798   1.685   0.875   1.348  0.0997  2.2130  0.4037
  267SOL     OW  799   2.426   1.305   2.704 -0.8309  0.1822 -0.1256
  267SOL    HW1  800   2.414   1.207   2.693 -0.4565  0.4524 -0.5738
  267SOL    HW2  801   2.520   1.327   2.675  0.6953  1.3278  0.2948
  268SOL     OW  802   1.206   0.409   0.024 -0.1769 -0.3866 -0.5425
  268SOL    HW1  803   1.244   0.390   0.117  0.1653 -0.4548 -0.0735
  268SOL    HW2  804   1.106   0.418   0.027 -2.1333 -0.3221  0.3568
  269SOL     OW  805   2.867   0.878   2.528  0.1729  0.0657  0.0998
  269SOL    HW1  806   2.938   0.874   2.603  1.5981 -0.6262  3.1628
  269SOL    HW2  807   2.849   0.970   2.500  0.9073 -2.7569  0.4433
  270SOL     OW  808   0.162   1.291   0.164 -0.0423  0.1093 -0.5455
  270SOL    HW1  809   0.198   1.358   0.235  0.8768  0.9150 -2.9981
  270SOL    HW2  810   0.110   1.336   0.094  4.7342  0.5595 -0.9281
  271SOL     OW  811   2.420   1.008   2.958  0.1175  0.0535 -0.2724
  271SOL    HW1  812   2.407   1.006   2.853 -1.7090  0.9925 -0.4995
  271SOL    HW2  813   2.439   0.912   2.997 -2.6722 -0.4965  2.8698
  272SOL     OW  814   2.836   2.473   2.214 -0.2408 -0.2946  0.0861
  272SOL    HW1  815   2.809   2.572   2.211  0.1859  1.5111  0.0768
  272SOL    HW2  816   2.852   2.445   2.311  1.7233 -1.2574  1.1761
  273SOL     OW  817   0.152   0.123   0.421 -0.3172 -0.5535 -0.2553
  273SOL    HW1  818   0.058   0.152   0.387 -1.2005 -0.3423  2.6229
  273SOL    HW2  819   0.172   0.186   0.499  1.7870  2.8140  1.5782
  274SOL     OW  820   0.818   2.075   0.930 -0.3530  0.5852  0.0190
  274SOL    HW1  821   0.808   2.003   1.006  0.6449 -1.7406  1.1367
  274SOL    HW2  822   0.921   2.099   0.905  1.5609 -0.9615 -1.5457
  275SOL     OW  823   2.271   0.734   0.572 -0.2045 -0.1506  0.1755
  275SOL    HW1  824   2.183   0.771   0.542  1.8702 -0.1037  3.0725
  275SOL    HW2  825   2.358   0.770   0.524  1.3637  0.1541 -1.2974
  276SOL     OW  826   2.451   1.497   1.419  0.1427 -0.3197 -0.1359
  276SOL    HW1  827   2.382   1.452   1.480  2.5218  0.1701  0.6827
  276SOL    HW2  828   2.547   1.469   1.453  2.5686 -1.0350  2.5474
  277SOL     OW  829   2.346   3.014   0.870 -0.4055 -0.0363  0.3655
  277SOL    HW1  830   2.301   0.028   0.922 -0.0968 -0.4594  0.1714
  277SOL    HW2  831   2.393   2.950   0.931  1.4607  0.7429 -2.7809
  278SOL     OW  832   1.464   2.916   2.150  0.3841 -0.1754 -0.3341
  278SOL    HW1  833   1.479   2.841   2.086  0.5586  1.4161  3.9866
  278SOL    HW2  834   1.503   2.897   2.243 -1.0230 -1.3892 -2.6456
  279SOL     OW  835   1.441   2.623   1.035  0.2085 -0.3268 -0.4540
  279SOL    HW1  836   1.499   2.703   1.066  0.3091  0.9778  1.8520
  279SOL    HW2  837   1.495   2.536   1.041  0.1478  0.7565 -3.7864
  280SOL     OW  838   0.662   1.025   0.786 -0.4052  0.4505  0.2608
  280SOL    HW1  839   0.568   1.065   0.786  1.7750 -2.0552  0.4899
  280SOL    HW2  840   0.728   1.068   0.722  1.4736 -0.2400  1.1094
  281SOL     OW  841   2.293   1.445   2.900 -0.1206  0.3231  0.5216
  281SOL    HW1  842   2.318   1.370   2.834 -0.4431 -0.6751 -1.7904
  281SOL    HW2  843   2.301   1.540   2.856  1.7538 -0.1826  1.9867
  282SOL     OW  844   0.336   1.335   0.404  0.3735 -0.1708 -0.2889
  282SOL    HW1  845   0.344   1.235   0.392  0.0997  1.9941  1.5267
  282SOL    HW2  846   0.338   1.360   0.503 -0.3681  2.9633 -0.8990
  283SOL     OW  847   1.881   2.809   2.757  0.2251 -0.5315 -0.6308
  283SOL    HW1  848   1.930   2.877   2.698 -0.0323  3.3791  0.2514
  283SOL    HW2  849   1.905   2.712   2.733 -1.2834 -1.6870 -0.7419
  284SOL     OW  850   0.966   0.147   0.191  0.5015 -0.0326  0.2720
  284SOL    HW1  851   1.044   0.089   0.224  2.7051 -0.0297  1.2178
  284SOL    HW2  852   0.983   0.241   0.222 -1.4326 -2.5512 -0.4450
  285SOL     OW  853   2.025   1.352   2.597 -0.0951  0.0015 -0.0598
  285SOL    HW1  854   1.983   1.360   2.502  0.0520  0.3060 -0.8494
  285SOL    HW2  855   1.965   1.383   2.676 -1.9577 -1.1987  1.7199
  286SOL     OW  856   1.671   2.474   0.715 -0.0881  0.0976  0.2638
  286SOL    HW1  857   1.706   2.463   0.812  0.9542 -1.5384  3.0266
  286SOL    HW2  858   1.717   2.401   0.652  1.3789 -3.1575 -3.2753
  287SOL     OW  859   1.571   0.994   0.861 -0.3959  0.3485  0.1440
  287SOL    HW1  860   1.517   1.062   0.915 -0.5103  0.7426 -1.1101
  287SOL    HW2  861   1.514   0.957   0.785  1.7110  0.3292 -0.3854
  288SOL     OW  862   0.621   2.614   2.489  0.0663  0.0877  0.3985
  288SOL    HW1  863   0.581   2.551   2.559  0.8114 -0.7527 -0.1906
  288SOL    HW2  864   0.599   2.712   2.509 -2.4280  0.8703 -0.4309
  289SOL     OW  865   0.312   1.386   0.903  0.3376 -0.0511  0.2061
  289SOL    HW1  866   0.367   1.358   0.982  0.8890  3.5174  0.5804
  289SOL    HW2  867   0.211   1.364   0.918 -1.2971  0.0014  0.6480
  290SOL     OW  868   1.223   2.326   0.746 -0.2997 -0.3842  0.4000
  290SOL    HW1  869   1.234   2.421   0.781 -1.9177 -1.4845  1.4511
  290SOL    HW2  870   1.198   2.325   0.642  0.1515 -1.9813 -2.6137
  291SOL     OW  871   1.375   0.126   0.215 -0.3607 -0.2813 -0.5713
  291SOL    HW1  872   1.422   0.102   0.302 -0.5341 -1.8162 -1.0415
  291SOL    HW2  873   1.364   0.225   0.216  3.9658 -2.8988  2.6738
  292SOL     OW  874   0.438   0.439   2.172 -0.1694 -0.1219  0.4568
  292SOL    HW1  875   0.418   0.355   2.220  0.0937  1.2549  0.5042
  292SOL    HW2  876   0.439   0.524   2.228 -0.8760  0.3496 -0.8169
  293SOL     OW  877   2.812   1.634   0.900 -0.1216 -0.1332  0.0130
  293SOL    HW1  878   2.779   1.636   0.804  2.2023  3.1224  0.3714
  293SOL    HW2  879   2.741   1.679   0.959  0.8352 -1.7287  2.4798
  294SOL     OW  880   0.857   0.187   2.127 -0.2114 -0.3284 -0.0224
  294SOL    HW1  881   0.761   0.167   2.132  0.6246  0.3208 -0.3943
  294SOL    HW2  882   0.907   0.113   2.075 -0.5260  0.1229 -0.7416
  295SOL     OW  883   1.178   1.610   0.802  0.0382  0.1398  0.2229
  295SOL    HW1  884   1.252   1.631   0.871 -0.4153  0.2111 -2.0957
  295SOL    HW2  885   1.083   1.603   0.841  1.8730 -0.8863  1.1074
  296SOL     OW  886   2.511   1.677   0.321 -0.0762  0.7658 -0.2617
  296SOL    HW1  887   2.420   1.685   0.269 -1.0720  1.2069 -3.1049
  296SOL    HW2  888   2.540   1.577   0.321  0.3776 -0.9157 -0.8863
  297SOL     OW  889   2.637   0.037   0.129  0.0462  0.0157 -0.5753
  297SOL    HW1  890   2.710   0.000   0.195 -0.0913 -1.4221  0.5778
  297SOL    HW2  891   2.624   3.031   0.054  1.7227  0.1570  0.9590
  298SOL     OW  892   1.039   0.378   2.680 -0.5523  0.0345  0.0136
  298SOL    HW1  893   1.035   0.275   2.669  0.5774 -1.9796 -2.0571
  298SOL    HW2  894   0.973   0.409   2.753 -0.7726  2.3778  0.1869
  299SOL     OW  895   0.533   2.480   2.246 -0.3295  0.8974  0.0934
  299SOL    HW1  896   0.508   2.551   2.175  0.9369  1.9524  1.8281
  299SOL    HW2  897   0.566   2.523   2.331  1.1651 -0.0939 -1.5896
  300SOL     OW  898   2.802   3.054   2.162  0.2963  0.0907 -0.1386
  300SOL    HW1  899   2.745   0.005   2.248  0.5697  1.0789  0.9555
  300SOL    HW2  900   2.850   0.084   2.140  0.3746  3.1249 -0.2286
  301SOL     OW  901   1.530   0.281   1.714 -0.6776 -0.0768 -0.1373
  301SOL    HW1  902   1.452   0.336   1.669 -0.5300  1.7528 -1.2652
  301SOL    HW2  903   1.572   0.220   1.640  0.4117  0.7325 -1.2942
  302SOL     OW  904   0.166   2.350   0.133  0.5177  0.0574 -0.4096
  302SOL    HW1  905   0.198   2.427   0.194  0.4458 -0.4479 -1.1101
  302SOL    HW2  906   0.189   2.371   0.032 -0.1437 -2.6184 -1.1838
  303SOL     OW  907   1.890   2.135   1.363  0.4550 -0.0314  0.6522
  303SOL    HW1  908   1.802   2.135   1.414  1.2396  1.9027  1.4776
  303SOL    HW2  909   1.962   2.195   1.398 -1.4112 -0.4819 -0.9969
  304SOL     OW  910   2.566   0.803   1.403 -0.1541  0.0601 -0.1644
  304SOL    HW1  911   2.645   0.794   1.338  2.7252 -0.0872 -3.6243
  304SOL    HW2  912   2.591   0.783   1.496  1.0852  1.5169  1.2220
  305SOL     OW  913   0.660   1.434   0.638 -0.1186 -0.4384  0.4725
  305SOL    HW1  914   0.694   1.409   0.729 -0.3185  2.5501  2.5515
  305SOL    HW2  915   0.645   1.535   0.623 -0.1042  0.1916 -3.9953
  306SOL     OW  916   0.556   1.322   2.759  0.1253  0.1828 -0.3578
  306SOL    HW1  917   0.506   1.269   2.823  0.6875  1.7899 -0.4152
  306SOL    HW2  918   0.524   1.316   2.662  1.7751  3.9836 -2.5557
  307SOL     OW  919   1.041   0.115   1.456 -0.1182  0.0649  0.0108
  307SOL    HW1  920   1.088   0.157   1.534 -0.6327  1.3935 -0.1476
  307SOL    HW2  921   1.050   0.011   1.452 -0.9024 -2.5823  2.0731
  308SOL     OW  922   0.161   0.814   1.110  0.0173 -0.0655  0.2376
  308SOL    HW1  923   0.073   0.785   1.060 -2.2374 -2.3899  0.0185
  308SOL    HW2  924   0.243   0.773   1.055  0.3408 -3.1300 -1.1512
  309SOL     OW  925   2.443   1.134   1.039  0.3022 -0.2377 -0.5508
  309SOL    HW1  926   2.403   1.200   0.975  1.0512  0.7945  0.8056
  309SOL    HW2  927   2.541   1.153   1.060  1.5053  1.7667 -2.5381
  310SOL     OW  928   0.466   1.846   2.722 -0.4583 -0.4534 -0.7997
  310SOL    HW1  929   0.459   1.747   2.701  1.2512  0.2397  1.6864
  310SOL    HW2  930   0.389   1.901   2.686  1.0302 -1.2767 -0.3946
  311SOL     OW  931   2.573   2.562   2.396  0.4084  0.3220 -0.0522
  311SOL    HW1  932   2.583   2.584   2.299  2.2501 -0.9325  0.9158
  311SOL    HW2  933   2.479   2.581   2.424 -2.2551 -0.4676 -1.1343
  312SOL     OW  934   2.275   2.004   2.979  0.2468 -0.3192 -0.1929
  312SOL    HW1  935   2.274   1.907   3.005  0.1179 -1.4089 -0.3590
  312SOL    HW2  936   2.345   2.020   2.909 -0.9662  0.7489 -0.0303
  313SOL     OW  937   0.426   0.170   0.691  0.0728  0.0901 -0.2158
  313SOL    HW1  938   0.467   0.192   0.601 -0.8698 -0.9385  2.5525
  313SOL    HW2  939   0.399   0.073   0.705  0.0063 -0.3131  2.2532
  314SOL     OW  940   2.029   1.119   2.775 -0.3414 -0.3229 -0.1922
  314SOL    HW1  941   1.926   1.119   2.777 -0.8683 -0.8896 -1.6460
  314SOL    HW2  942   2.068   1.198   2.719  0.9535  2.3655 -0.4562
  315SOL     OW  943   1.696   0.143   2.485 -0.3587 -0.2965 -0.0608
  315SOL    HW1  944   1.642   0.217   2.524  1.2417 -2.1025 -0.6011
  315SOL    HW2  945   1.763   0.177   2.415  0.2092  2.6300 -0.6406
  316SOL     OW  946   0.092   1.057   0.760 -0.6403 -0.0101 -0.0339
  316SOL    HW1  947   3.049   1.040   0.749  0.3848 -3.3457 -0.1002
  316SOL    HW2  948   0.124   1.039   0.856  0.9858 -1.4053 -0.4942
  317SOL     OW  949   0.473   2.616   2.949 -0.2518 -0.1511 -0.6635
  317SOL    HW1  950   0.426   2.699   2.905 -1.9686 -0.1040  0.1122
  317SOL    HW2  951   0.545   2.644   3.019  1.4882  1.8578  2.9559
  318SOL     OW  952   2.502   2.491   0.851  0.2838 -0.3254  0.3558
  318SOL    HW1  953   2.407   2.494   0.815 -1.8352 -1.5715  1.1225
  318SOL    HW2  954   2.565   2.554   0.804 -1.3717 -3.5295  0.3718
  319SOL     OW  955   1.138   1.848   2.856 -0.2226 -0.2544  0.8146
  319SOL    HW1  956   1.167   1.907   2.776  0.6750 -0.0685 -3.3417
  319SOL    HW2  957   1.132   1.753   2.822 -1.3994  0.7227  0.1360
  320SOL     OW  958   0.604   1.827   1.306 -0.7119 -0.4817  0.1132
  320SOL    HW1  959   0.572   1.738   1.272  1.4471  0.5572  2.3767
  320SOL    HW2  960   0.535   1.855   1.375  0.2761 -2.6788  3.5198
  321SOL     OW  961   1.046   2.556   1.972 -0.1591 -0.2647 -0.0678
  321SOL    HW1  962   0.949   2.555   1.948  0.9031 -1.0939  2.3264
  321SOL    HW2  963   1.063   2.648   2.021  1.2756 -1.4234  1.9269
  322SOL     OW  964   2.368   1.669   2.109 -0.0070 -0.2928  0.3764
  322SOL    HW1  965   2.352   1.579   2.153 -2.1135  1.0084  0.8422
  322SOL    HW2  966   2.458   1.703   2.139 -0.5817  0.4084 -0.2969
  323SOL     OW  967   2.838   0.272   0.720 -0.3445 -0.1275 -0.3389
  323SOL    HW1  968   2.740   0.302   0.697 -2.3246 -2.3355 -3.4821
  323SOL    HW2  969   2.891   0.341   0.777 -0.0649 -0.4043 -0.2263
  324SOL     OW  970   2.744   2.684   2.556  0.2700  0.0165  0.0181
  324SOL    HW1  971   2.768   2.633   2.644 -1.0848  1.0230 -1.8231
  324SOL    HW2  972   2.704   2.621   2.486  1.2816 -0.2102 -0.1905
  325SOL     OW  973   1.112   0.138   2.578  0.3322  0.2450 -0.5436
  325SOL    HW1  974   1.204   0.119   2.536 -2.0658  0.1143  3.1421
  325SOL    HW2  975   1.042   0.126   2.509 -0.3775  1.9594  0.5876
  326SOL     OW  976   2.212   2.442   1.804 -0.0063 -0.1505  0.2991
  326SOL    HW1  977   2.185   2.525   1.859 -0.6052  0.2410  0.2254
  326SOL    HW2  978   2.133   2.414   1.747 -0.8743  0.6939  2.3561
  327SOL     OW  979   2.032   0.089   0.279  0.4533  0.0261 -0.4425
  327SOL    HW1  980   2.083   0.180   0.288 -1.1612 -1.1760 -0.4971
  327SOL    HW2  981   2.092   0.022   0.232 -1.3770  1.0969  0.5797
  328SOL     OW  982   0.347   1.180   1.913 -0.3211 -0.4018  0.0376
  328SOL    HW1  983   0.436   1.193   1.962  0.2239 -1.4659 -1.0077
  328SOL    HW2  984   0.284   1.259   1.922  1.7887 -1.1588 -1.6615
  329SOL     OW  985   2.114   0.510   1.735 -0.2814 -0.1027 -0.0789
  329SOL    HW1  986   2.016   0.483   1.745  0.7429  0.1107  2.7369
  329SOL    HW2  987   2.174   0.480   1.809  1.8679  1.1220 -1.1723
  330SOL     OW  988   0.226   1.031   0.989 -0.1719 -0.0323 -0.3089
  330SOL    HW1  989   0.189   1.109   1.043 -0.5401 -2.6623 -0.7148
  330SOL    HW2  990   0.216   0.937   1.034  0.6438  0.0305 -0.3307
  331SOL     OW  991   0.630   1.549   2.032 -1.4448  0.5993 -0.0672
  331SOL    HW1  992   0.719   1.557   1.976  1.6723 -0.2044  0.3801
  331SOL    HW2  993   0.635   1.604   2.114  0.7004  0.4507 -1.0835
  332SOL     OW  994   0.254   2.629   1.455  0.5159  0.0809  0.1599
  332SOL    HW1  995   0.164   2.665   1.421  0.5330  2.4479 -0.3019
  332SOL    HW2  996   0.297   2.571   1.386 -0.1300  0.3466 -2.4122
  333SOL     OW  997   2.394   0.263   0.938 -0.0376 -0.0588  0.3373
  333SOL    HW1  998   2.490   0.235   0.945  0.5032  0.9523  1.4528
  333SOL    HW2  999   2.360   0.289   1.030  0.1548 -1.7318  2.7145
  334SOL     OW 1000   0.372   1.439   0.652  0.5389 -0.0497 -0.3826
  334SOL    HW1 1001   0.465   1.392   0.633  1.9699  0.2718  0.2409
  334SOL    HW2 1002   0.348   1.419   0.751 -0.2167 -3.2107  5.1466
  335SOL     OW 1003   0.075   2.559   2.776 -0.0166  0.1557 -0.1276
  335SOL    HW1 1004   0.125   2.641   2.738  0.4881 -2.5231 -1.3170
  335SOL    HW2 1005   0.136   2.508   2.843  2.5805 -1.3080  1.1134
  336SOL     OW 1006   2.786   2.776   2.290 -0.0262 -0.0101 -0.4757
  336SOL    HW1 1007   2.830   2.756   2.378 -2.3849 -1.2096  1.0288
  336SOL    HW2 1008   2.815   2.868   2.257  1.4022  0.8997 -0.3952
  337SOL     OW 1009   1.980   2.161   1.706  0.6770  0.0723 -0.3783
  337SOL    HW1 1010   1.915   2.095   1.754 -1.5278 -0.1002  0.8691
  337SOL    HW2 1011   2.071   2.126   1.689 -1.9899  1.7904 -3.2529
  338SOL     OW 1012   0.787   0.174   2.766 -0.0864 -0.1581  0.6893
  338SOL    HW1 1013   0.873   0.182   2.822  1.5989  1.6031 -1.1338
  338SOL    HW2 1014   0.726   0.255   2.769  1.1774  0.8877  0.2812
  339SOL     OW 1015   0.590   1.275   2.045  0.3295  0.0471  0.2748
  339SOL    HW1 1016   0.546   1.280   2.137 -0.2353 -3.9021 -2.0488
  339SOL    HW2 1017   0.628   1.362   2.011 -0.3960  4.9624 -0.7271
  340SOL     OW 1018   1.712   2.976   0.948  0.1663  0.6286  0.1127
  340SOL    HW1 1019   1.797   2.922   0.983 -1.5678 -0.1347  0.4222
  340SOL    HW2 1020   1.711   2.986   0.843  0.7796  0.2371 -2.2770
  341SOL     OW 1021   1.838   1.078   0.814 -1.3919 -0.0576  0.3402
  341SOL    HW1 1022   1.749   1.065   0.859  1.5769  2.6353  0.4648
  341SOL    HW2 1023   1.913   1.094   0.881  0.2527  0.1279 -0.7043
  342SOL     OW 1024   2.373   2.689   0.018  0.3354 -0.0021 -0.3072
  342SOL    HW1 1025   2.399   2.781   3.041  2.0162 -1.1360 -0.3719
  342SOL    HW2 1026   2.437   2.668   0.096 -3.1797  0.0439 -0.1911
  343SOL     OW 1027   1.059   2.260   1.456  0.0599  0.2743 -0.2116
  343SOL    HW1 1028   1.066   2.243   1.553 -0.0820 -2.5866 -1.4987
  343SOL    HW2 1029   1.117   2.336   1.428  0.6298 -1.2776  3.5680
  344SOL     OW 1030   2.299   2.443   1.511 -0.6131  0.5871 -0.3777
  344SOL    HW1 1031   2.275   2.508   1.580  1.1608 -3.6712  1.3538
  344SOL    HW2 1032   2.382   2.385   1.536  1.1414 -2.6001 -0.6575
  345SOL     OW 1033   2.625   1.789   3.052 -0.0522 -0.3064 -0.0621
  345SOL    HW1 1034   2.675   1.819   2.968 -0.7648  1.3574 -0.6206
  345SOL    HW2 1035   2.678   1.716   0.039 -0.2658  1.6251 -0.9273
  346SOL     OW 1036   2.157   1.874   0.824  0.8949  0.7634 -0.1697
  346SOL    HW1 1037   2.215   1.929   0.888 -1.4123 -1.4806 -0.1102
  346SOL    HW2 1038   2.194   1.889   0.724  0.3124  0.4155 -3.7843
  347SOL     OW 1039   1.520   1.838   0.927 -0.0387 -0.1287 -0.2468
  347SOL    HW1 1040   1.539   1.813   0.830  0.0201 -0.4390 -0.9473
  347SOL    HW2 1041   1.445   1.902   0.946  0.6023  0.0768 -0.4869
  348SOL     OW 1042   0.443   1.732   2.278  0.5000 -0.0440 -0.1680
  348SOL    HW1 1043   0.459   1.662   2.349 -0.9212  2.4960 -1.1433
  348SOL    HW2 1044   0.534   1.769   2.251  1.4584  1.2955 -2.5032
  349SOL     OW 1045   2.083   1.267   0.586  0.1806  0.0447 -0.1099
  349SOL    HW1 1046   2.131   1.179   0.608  1.1618  0.1676 -1.2810
  349SOL    HW2 1047   1.983   1.255   0.572  1.2422  1.3935 -1.7460
  350SOL     OW 1048   2.806   2.508   0.722 -0.1594  0.0723  0.0085
  350SOL    HW1 1049   2.778   2.427   0.776  1.6941 -0.4325  0.2460
  350SOL    HW2 1050   2.761   2.492   0.630 -1.2689 -1.6848  0.3542
  351SOL     OW 1051   0.444   2.818   1.591 -0.1694 -0.0545 -0.1139
  351SOL    HW1 1052   0.523   2.793   1.536 -5.0932  1.2884  0.8352
  351SOL    HW2 1053   0.364   2.771   1.550  2.8391 -1.4732  3.0994
  352SOL     OW 1054   0.598   1.440   1.432  0.1423 -0.0212  0.2247
  352SOL    HW1 1055   0.633   1.351   1.396 -0.2184 -1.2794  0.7026
  352SOL    HW2 1056   0.507   1.437   1.481  3.1328  0.2892 -1.0176
  353SOL     OW 1057   1.169   1.300   2.323  0.0236  0.0669  0.2804
  353SOL    HW1 1058   1.073   1.304   2.292  2.7915  1.5902 -1.2239
  353SOL    HW2 1059   1.173   1.227   2.398  1.1162 -0.9944  2.5577
  354SOL     OW 1060   1.303   2.983   1.822 -0.2011 -0.0439  0.2354
  354SOL    HW1 1061   1.320   2.976   1.719  2.0037 -0.9863 -1.3546
  354SOL    HW2 1062   1.276   0.020   1.849  0.9180  1.1475  1.3756
  355SOL     OW 1063   2.450   0.980   0.524  0.3807  0.2123  0.1213
  355SOL    HW1 1064   2.536   1.015   0.564 -1.2304  2.5396 -0.4437
  355SOL    HW2 1065   2.439   1.016   0.426 -0.2660  2.7125 -1.1508
  356SOL     OW 1066   2.793   1.686   1.483 -0.8206  0.3057  0.5005
  356SOL    HW1 1067   2.711   1.744   1.485  0.0342 -0.9545 -0.4549
  356SOL    HW2 1068   2.870   1.726   1.538  1.3255 -0.7081  1.1943
  357SOL     OW 1069   0.553   2.621   1.159 -0.4856 -0.3115  0.3460
  357SOL    HW1 1070   0.476   2.552   1.159 -3.8745 -0.7785 -3.1631
  357SOL    HW2 1071   0.522   2.704   1.112  0.5266 -0.5466  0.7268
  358SOL     OW 1072   2.600   1.500   1.778  0.0836  0.0001  0.6447
  358SOL    HW1 1073   2.627   1.480   1.682 -0.4128 -1.3330 -1.3002
  358SOL    HW2 1074   2.510   1.551   1.785 -0.5811 -0.2718 -2.8350
  359SOL     OW 1075   2.194   2.749   2.622 -0.3526 -0.3049  0.3685
  359SOL    HW1 1076   2.238   2.703   2.539 -0.3799  1.4823  0.8046
  359SOL    HW2 1077   2.138   2.823   2.598  3.3303 -2.8284  2.3944
  360SOL     OW 1078   0.798   0.453   0.929 -0.1876 -0.6159 -0.4460
  360SOL    HW1 1079   0.869   0.500   0.876 -0.2797 -0.7460 -0.0504
  360SOL    HW2 1080   0.727   0.411   0.867 -2.0548  3.2195  0.5313
  361SOL     OW 1081   1.999   0.253   0.808  0.3281 -0.2559  0.2455
  361SOL    HW1 1082   1.994   0.189   0.887 -0.5455  0.4752 -1.5304
  361SOL    HW2 1083   2.087   0.297   0.800 -3.0655 -1.2261  2.5195
  362SOL     OW 1084   1.898   1.192   1.205 -0.4116 -0.6728 -0.0396
  362SOL    HW1 1085   1.928   1.238   1.117  1.5202  3.5944 -0.7549
  362SOL    HW2 1086   1.966   1.224   1.273  1.0994 -0.5327  2.2039
  363SOL     OW 1087   2.104   1.466   2.204 -0.0384 -0.2291 -0.2910
  363SOL    HW1 1088   2.206   1.458   2.212  1.9804  1.6440  0.7626
  363SOL    HW2 1089   2.081   1.423   2.116 -1.0575  2.5870  0.0602
  364SOL     OW 1090   0.316   2.841   1.254  0.1952 -0.1204 -0.0011
  364SOL    HW1 1091   0.260   2.754   1.258 -1.8858  0.8879  0.7532
  364SOL    HW2 1092   0.276   2.915   1.312 -2.6661  0.0731  0.8549
  365SOL     OW 1093   0.691   3.039   2.950 -0.4109  0.2366  0.5844
  365SOL    HW1 1094   0.742   0.045   2.892  0.2731 -1.7552  1.4529
  365SOL    HW2 1095   0.726   2.952   2.920 -2.9395  3.5930  0.5631
  366SOL     OW 1096   1.850   2.439   2.893  0.0330 -0.2644  0.3278
  366SOL    HW1 1097   1.910   2.469   2.814  0.6240 -1.0133  2.1846
  366SOL    HW2 1098   1.906   2.398   2.963  0.4346  0.2536  0.4368
  367SOL     OW 1099   2.807   2.322   2.925 -0.3446  0.0958  0.1060
  367SOL    HW1 1100   2.732   2.377   2.967  1.4175  0.5212 -1.0221
  367SOL    HW2 1101   2.855   2.260   2.996  0.4050 -2.7732 -0.1350
  368SOL     OW 1102   0.236   1.157   1.268  0.4335  0.2842 -0.6940
  368SOL    HW1 1103   0.146   1.186   1.309  1.0204  0.0643 -0.4925
  368SOL    HW2 1104   0.288   1.124   1.348 -1.8989 -1.1145  0.5222
  369SOL     OW 1105   0.823   2.809   2.872  0.0416 -0.5443 -0.4566
  369SOL    HW1 1106   0.917   2.852   2.890  2.7084  0.7973  1.2862
  369SOL    HW2 1107   0.798   2.803   2.777 -2.6869  1.6391 -0.4976
  370SOL     OW 1108   2.643   0.723   0.375 -0.6001 -1.0256  0.2032
  370SOL    HW1 1109   2.749   0.738   0.373  2.8830 -0.6245  0.2783
  370SOL    HW2 1110   2.600   0.803   0.328 -0.5525  2.0383  0.3163
  371SOL     OW 1111   1.727   2.276   0.525 -0.0872  0.2713 -0.0589
  371SOL    HW1 1112   1.676   2.206   0.575  3.4387  3.1174 -1.8292
  371SOL    HW2 1113   1.684   2.294   0.431  2.1357  0.3155 -3.2287
  372SOL     OW 1114   3.053   0.987   2.859  0.2291  0.3973 -0.1966
  372SOL    HW1 1115   3.029   0.890   2.838  0.2976  0.2776  1.6129
  372SOL    HW2 1116   3.043   1.044   2.782  1.2279 -2.2980  2.2558
  373SOL     OW 1117   2.804   1.579   1.237 -0.0352  0.3045 -0.6018
  373SOL    HW1 1118   2.781   1.596   1.335 -2.4615  1.4535 -0.4485
  373SOL    HW2 1119   2.887   1.525   1.229 -4.8533  0.4945 -1.2813
  374SOL     OW 1120   0.686   2.731   0.048  0.0141  0.4245 -0.3010
  374SOL    HW1 1121   0.666   2.818   0.095 -1.6559  0.9745  1.3761
  374SOL    HW2 1122   0.723   2.739   3.010 -1.1567 -1.1750  2.1552
  375SOL     OW 1123   0.187   3.029   0.004  0.4522 -0.5003 -0.0107
  375SOL    HW1 1124   0.216   3.057   0.095 -0.1612 -1.0290 -1.5406
  375SOL    HW2 1125   0.087   3.030   3.056  2.4760  0.8472  0.9009
  376SOL     OW 1126   0.121   2.200   1.537  0.1871 -0.1153  0.9036
  376SOL    HW1 1127   0.023   2.174   1.561 -3.5492  0.5102 -0.3536
  376SOL    HW2 1128   0.138   2.173   1.438  0.2647 -0.1464  1.0503
  377SOL     OW 1129   1.616   2.396   2.480  0.8255 -0.5890  0.4535
  377SOL    HW1 1130   1.625   2.297   2.468  0.5066 -0.6416 -0.0825
  377SOL    HW2 1131   1.530   2.429   2.441  2.4627  1.2862  1.4449
  378SOL     OW 1132   0.614   0.292   3.056  0.0129 -0.0462  0.6211
  378SOL    HW1 1133   0.621   0.329   2.958 -0.0379 -0.2726 -2.0664
  378SOL    HW2 1134   0.701   0.254   0.026 -1.7903  2.9537 -2.4944
  379SOL     OW 1135   0.685   1.019   0.425 -0.2308 -0.1713 -0.4425
  379SOL    HW1 1136   0.772   1.067   0.460  2.5325 -1.3835 -0.0917
  379SOL    HW2 1137   0.678   1.038   0.323  1.2672  1.2613 -0.2628
  380SOL     OW 1138   2.990   1.789   1.895  0.5340 -0.5911 -0.1539
  380SOL    HW1 1139   2.926   1.712   1.909  0.0392  0.1885  0.4494
  380SOL    HW2 1140   3.054   1.804   1.971 -2.4890 -2.1986 -0.2181
  381SOL     OW 1141   0.284   0.904   1.937 -0.1137 -0.0801 -0.5045
  381SOL    HW1 1142   0.290   1.008   1.942  1.4537 -0.9717 -0.8779
  381SOL    HW2 1143   0.378   0.868   1.908  3.4885  0.5313  0.1042
  382SOL     OW 1144   2.259   1.963   0.232  0.4703 -0.4263  0.3193
  382SOL    HW1 1145   2.266   1.863   0.239 -2.2616 -1.5245 -1.1922
  382SOL    HW2 1146   2.253   1.989   0.133 -0.1723 -2.5304  0.3597
  383SOL     OW 1147   2.739   1.858   2.792 -0.2652  0.3590  0.6122
  383SOL    HW1 1148   2.833   1.829   2.799  0.4463 -1.0210 -1.8867
  383SOL    HW2 1149   2.730   1.955   2.767  0.1467  1.3732  0.8645
  384SOL     OW 1150   0.390   2.396   2.540  0.3609  0.3424 -0.5579
  384SOL    HW1 1151   0.301   2.354   2.567 -0.0788  0.1514 -2.4485
  384SOL    HW2 1152   0.435   2.335   2.470  3.6915 -2.4421  0.4084
  385SOL     OW 1153   0.064   1.313   0.989  0.4339 -0.6550  0.1796
  385SOL    HW1 1154   0.041   1.403   1.032  1.3555 -3.1907 -1.3281
  385SOL    HW2 1155   3.038   1.280   0.939 -2.2636 -0.8379 -0.2872
  386SOL     OW 1156   2.101   1.556   1.352  0.2005  0.0241 -0.1843
  386SOL    HW1 1157   2.127   1.629   1.412 -0.9655  0.2559 -2.3772
  386SOL    HW2 1158   2.127   1.587   1.257  1.2237 -0.2560 -2.0503
  387SOL     OW 1159   2.668   1.280   1.929  0.7360 -0.0244 -0.1500
  387SOL    HW1 1160   2.611   1.225   1.865  1.6725 -0.8972 -1.6076
  387SOL    HW2 1161   2.656   1.379   1.915  0.4893 -1.2588 -0.0694
  388SOL     OW 1162   2.646   1.336   2.199  0.8709 -0.2152 -1.0167
  388SOL    HW1 1163   2.639   1.280   2.287  0.8003 -0.2930  1.1857
  388SOL    HW2 1164   2.636   1.279   2.114  0.6267  0.3914  2.2280
  389SOL     OW 1165   2.134   1.339   1.964  0.2258  0.1100  0.5577
  389SOL    HW1 1166   2.039   1.304   1.956  2.3643  1.5736  1.0567
  389SOL    HW2 1167   2.194   1.275   1.911 -0.9706 -1.6253  2.0509
  390SOL     OW 1168   1.831   2.698   0.395  0.1035  0.1035 -0.1865
  390SOL    HW1 1169   1.928   2.728   0.365  0.6340 -0.6210  1.0867
  390SOL    HW2 1170   1.824   2.693   0.500  1.4505  0.2244  4.5949
  391SOL     OW 1171   2.418   1.980   0.928 -0.0052 -0.6500  0.6621
  391SOL    HW1 1172   2.430   2.020   1.023  3.2282  0.5175  1.0581
  391SOL    HW2 1173   2.458   2.048   0.861  0.3558 -0.3174 -0.8384
  392SOL     OW 1174   2.930   2.582   1.036  0.4326 -0.2758 -0.3129
  392SOL    HW1 1175   2.974   2.578   0.945 -2.3050 -1.9394  3.8176
  392SOL    HW2 1176   2.980   2.641   1.102 -1.1188  2.2655 -2.0347
  393SOL     OW 1177   1.789   2.015   2.845 -0.3073 -0.1283 -0.3866
  393SOL    HW1 1178   1.879   2.060   2.869  0.8477 -1.5696  0.7707
  393SOL    HW2 1179   1.776   1.940   2.914 -1.3626  2.4022  0.1366
  394SOL     OW 1180   0.194   0.165   2.581 -0.4080  0.2078 -0.2204
  394SOL    HW1 1181   0.186   0.078   2.534 -0.6736 -0.1343 -0.0355
  394SOL    HW2 1182   0.248   0.163   2.668  2.3929  2.1799 -0.2878
  395SOL     OW 1183   0.875   0.749   0.800  0.3736  0.1920  0.4976
  395SOL    HW1 1184   0.892   0.694   0.717 -0.0907 -1.1761 -0.9408
  395SOL    HW2 1185   0.904   0.848   0.791  4.1931  4.9389  0.7960
  396SOL     OW 1186   1.199   0.981   0.389  0.1978  0.1613  0.3750
  396SOL    HW1 1187   1.126   0.991   0.455  0.5435 -0.1104 -4.5987
  396SOL    HW2 1188   1.239   0.888   0.390 -0.0967  0.0020  0.4499
  397SOL     OW 1189   0.200   0.769   2.140  0.3883  0.5694  0.4127
  397SOL    HW1 1190   0.211   0.818   2.053  1.5274  1.4703  0.2330
  397SOL    HW2 1191   0.141   0.684   2.131 -1.3391 -0.3209  1.1619
  398SOL     OW 1192   1.202   0.211   0.635 -0.2935 -0.0358  0.3026
  398SOL    HW1 1193   1.262   0.157   0.694  1.4421  2.2350 -3.9469
  398SOL    HW2 1194   1.170   0.158   0.554 -0.2995 -0.7155 -0.2659
  399SOL     OW 1195   1.901   2.908   1.673 -0.2807  0.2602 -0.1027
  399SOL    HW1 1196   1.883   2.811   1.699  1.6592 -0.1334  0.0687
  399SOL    HW2 1197   1.826   2.947   1.613 -0.6398  0.9046  0.6212
  400SOL     OW 1198   1.060   1.634   2.098  0.7545  0.5113  0.0616
  400SOL    HW1 1199   1.070   1.732   2.120  3.2322 -2.7579  0.6394
  400SOL    HW2 1200   1.150   1.587   2.087  0.1140 -1.2446 -0.7015
  401SOL     OW 1201   0.567   0.986   2.736  0.2502  0.1242  0.2515
  401SOL    HW1 1202   0.554   0.907   2.797 -1.0630 -1.2709 -1.2717
  401SOL    HW2 1203   0.485   0.991   2.681  1.7656 -1.3140  0.2134
  402SOL     OW 1204   2.848   1.960   1.197 -0.2730 -0.6427  0.1986
  402SOL    HW1 1205   2.798   2.017   1.267 -0.4104 -0.2178 -0.0829
  402SOL    HW2 1206   2.791   1.888   1.166  1.0330  0.3157  1.2951
  403SOL     OW 1207   3.040   0.870   1.959  0.1110  0.0035  0.5437
  403SOL    HW1 1208   0.071   0.884   1.914 -0.2087  0.0207 -3.5991
  403SOL    HW2 1209   2.980   0.951   1.948  1.1087  2.1870 -1.2044
  404SOL     OW 1210   0.063   2.552   1.668 -0.2149  0.1840 -0.5478
  404SOL    HW1 1211   0.121   2.561   1.587 -1.8051  0.3880 -1.6719
  404SOL    HW2 1212   3.028   2.509   1.642  0.8443 -0.0681  0.3884
  405SOL     OW 1213   0.655   0.491   2.026  0.0595 -0.1521  0.4972
  405SOL    HW1 1214   0.740   0.445   2.058 -0.8352 -2.3866 -0.4946
  405SOL    HW2 1215   0.573   0.469   2.090 -2.0814  0.6299  2.6298
  406SOL     OW 1216   1.571   2.032   2.195 -0.0033 -0.0811 -0.2566
  406SOL    HW1 1217   1.640   2.108   2.188  0.6635  0.4959  0.6150
  406SOL    HW2 1218   1.616   1.942   2.185  1.2732 -1.4510 -0.8086
  407SOL     OW 1219   1.299   1.538   2.346  0.3354  0.0235 -0.1278
  407SOL    HW1 1220   1.322   1.563   2.250  0.4624  2.1733  1.2152
  407SOL    HW2 1221   1.234   1.460   2.347 -0.8735 -1.4627  0.2342
  408SOL     OW 1222   0.974   0.144   2.358 -0.2792  0.1655 -0.1096
  408SOL    HW1 1223   0.932   0.183   2.272  2.3147 -0.1897  0.0340
  408SOL    HW2 1224   1.006   0.047   2.344 -0.9488  0.6681  0.5162
  409SOL     OW 1225   0.453   2.011   0.286 -0.4216  0.2904  0.3151
  409SOL    HW1 1226   0.480   1.922   0.252  2.5672  1.2266 -0.4203
  409SOL    HW2 1227   0.528   2.044   0.345  0.2626 -2.8440 -1.6457
  410SOL     OW 1228   2.811   1.098   0.391  0.3821 -0.2806  0.3119
  410SOL    HW1 1229   2.897   1.055   0.353  0.3768 -1.2384 -0.5507
  410SOL    HW2 1230   2.757   1.147   0.314  1.2771 -0.7668 -2.9731
  411SOL     OW 1231   2.810   0.034   0.953  0.4128  0.6111  0.3643
  411SOL    HW1 1232   2.744   0.111   0.960  0.1711  1.4194  0.7440
  411SOL    HW2 1233   2.879   0.045   0.878  2.0548 -2.0659 -1.2701
  412SOL     OW 1234   1.401   0.957   1.237 -0.0320  0.2144  0.2270
  412SOL    HW1 1235   1.438   1.009   1.156 -1.9118 -1.4864  1.8684
  412SOL    HW2 1236   1.390   1.008   1.326  0.1806  0.5397 -2.8071
  413SOL     OW 1237   0.625   2.716   1.408  0.5353 -0.3351  0.9330
  413SOL    HW1 1238   0.693   2.782   1.368  2.9034  1.9433  1.0998
  413SOL    HW2 1239   0.587   2.663   1.330  1.4953 -1.0276  0.9648
  414SOL     OW 1240   2.669   1.440   2.728 -0.1436  0.0519 -0.1187
  414SOL    HW1 1241   2.639   1.527   2.683 -0.1729 -0.5446 -0.0606
  414SOL    HW2 1242   2.685   1.455   2.828 -2.3289  1.4198 -0.5542
  415SOL     OW 1243   0.253   2.425   2.937 -0.0568  0.3448 -0.4747
  415SOL    HW1 1244   0.284   2.329   2.933 -2.9082  0.0271  0.7709
  415SOL    HW2 1245   0.326   2.493   2.948 -1.6288 -1.6594 -0.7813
  416SOL     OW 1246   1.905   3.008   0.514 -0.6087  0.1570  0.4130
  416SOL    HW1 1247   1.943   0.035   0.471  0.9591  0.4273  0.1579
  416SOL    HW2 1248   1.936   2.933   0.451 -2.4598  0.3038  0.5161
  417SOL     OW 1249   0.323   0.723   0.902  0.8019  0.0385 -0.2712
  417SOL    HW1 1250   0.415   0.769   0.893  1.1632 -0.6199  2.6372
  417SOL    HW2 1251   0.332   0.626   0.937 -0.3240 -0.0531 -0.7790
  418SOL     OW 1252   2.472   0.492   1.438 -0.0297  0.7277 -0.1449
  418SOL    HW1 1253   2.551   0.481   1.502 -1.3785  1.2981 -0.3490
  418SOL    HW2 1254   2.414   0.408   1.437  0.0454  3.3556 -0.5118
  419SOL     OW 1255   2.998   0.285   0.317 -0.6431 -0.1807  0.1835
  419SOL    HW1 1256   3.028   0.374   0.274  0.1041  2.5355 -2.2003
  419SOL    HW2 1257   2.927   0.309   0.386  0.2351 -1.8451 -0.1616
  420SOL     OW 1258   0.308   1.448   1.460  0.6200  0.1342  0.4272
  420SOL    HW1 1259   0.292   1.505   1.544  1.3845  2.0077  0.4545
  420SOL    HW2 1260   0.287   1.353   1.489  2.3918 -1.3161  0.5372
  421SOL     OW 1261   1.133   2.975   0.603  0.2240 -0.8012  0.8590
  421SOL    HW1 1262   1.066   2.895   0.593  1.0904 -0.9169  1.3679
  421SOL    HW2 1263   1.168   3.001   0.508 -0.7912  2.3568 -2.6881
  422SOL     OW 1264   0.205   0.476   1.535 -0.0260  0.1676  0.0664
  422SOL    HW1 1265   0.214   0.536   1.611 -0.5679  0.1207 -2.2767
  422SOL    HW2 1266   0.217   0.525   1.448  1.7482 -1.6594  0.9242
  423SOL     OW 1267   1.112   1.064   1.261 -0.0958 -0.1898 -0.5188
  423SOL    HW1 1268   1.172   1.000   1.207  0.1791 -0.1930  0.8063
  423SOL    HW2 1269   1.031   1.018   1.295 -0.1192 -0.5234  0.3934
  424SOL     OW 1270   1.868   1.436   2.793  0.1321 -0.0039 -0.1357
  424SOL    HW1 1271   1.841   1.464   2.886  1.0175 -1.0840  1.2531
  424SOL    HW2 1272   1.846   1.519   2.737 -0.7635  2.4021 -1.9133
  425SOL     OW 1273   0.030   0.511   2.167 -0.5005 -0.6743  0.3375
  425SOL    HW1 1274   0.008   0.436   2.230  0.0679 -1.6911 -1.6900
  425SOL    HW2 1275   3.001   0.556   2.135 -3.1735 -0.3047 -0.4984
  426SOL     OW 1276   0.332   2.838   2.896  0.0130  0.0656  0.9038
  426SOL    HW1 1277   0.305   2.888   2.977  3.1302 -1.6649 -3.9816
  426SOL    HW2 1278   0.273   2.849   2.813 -0.0807  0.0273 -4.8795
  427SOL     OW 1279   1.034   0.879   2.539  0.0881 -0.6766 -0.3064
  427SOL    HW1 1280   1.132   0.905   2.549  1.4377 -2.2661  2.1674
  427SOL    HW2 1281   0.973   0.908   2.620 -3.3993 -1.6877  2.5006
  428SOL     OW 1282   2.553   1.089   1.764 -0.6118 -0.3359 -0.2014
  428SOL    HW1 1283   2.522   1.005   1.814 -0.0171 -0.4743 -1.3579
  428SOL    HW2 1284   2.539   1.077   1.661 -0.5097 -1.9214 -1.9075
  429SOL     OW 1285   2.363   2.696   0.647  0.6577  0.0636  0.0939
  429SOL    HW1 1286   2.455   2.728   0.672 -0.3056  2.9121  1.5233
  429SOL    HW2 1287   2.351   2.679   0.545 -0.0643  0.6638 -1.0275
  430SOL     OW 1288   0.903   1.308   2.237  0.2513 -0.1725 -0.0998
  430SOL    HW1 1289   0.852   1.244   2.177 -0.0054 -1.7531 -0.9989
  430SOL    HW2 1290   0.890   1.279   2.335  2.4242  0.8620  2.3823
  431SOL     OW 1291   2.676   1.424   1.532 -0.0557  0.2820 -0.0781
  431SOL    HW1 1292   2.753   1.487   1.553  1.8974 -2.4394  1.9759
  431SOL    HW2 1293   2.713   1.329   1.505 -0.7772  0.6891  0.9920
  432SOL     OW 1294   1.140   2.675   2.302  0.0204 -0.1650 -0.0900
  432SOL    HW1 1295   1.185   2.639   2.218 -1.3961 -1.0282  0.3845
  432SOL    HW2 1296   1.058   2.618   2.330 -0.0970 -0.4953  1.5620
  433SOL     OW 1297   2.062   0.198   2.419  0.7545 -0.6426 -0.3669
  433SOL    HW1 1298   2.138   0.205   2.356  0.9137  1.2752  0.2646
  433SOL    HW2 1299   1.971   0.191   2.370  1.4644  0.5738 -1.9262
  434SOL     OW 1300   0.350   2.745   2.279  0.0002  0.0647  0.1502
  434SOL    HW1 1301   0.288   2.682   2.329  2.3544  0.5851 -2.5153
  434SOL    HW2 1302   0.359   2.712   2.181 -1.6588  0.1516 -5.5286
  435SOL     OW 1303   2.816   2.681   0.393 -0.0559  0.3251  0.2816
  435SOL    HW1 1304   2.882   2.713   0.464 -0.4013  0.5292  0.6076
  435SOL    HW2 1305   2.734   2.637   0.439 -0.6959 -3.2625  0.5233
  436SOL     OW 1306   0.814   0.728   1.901 -0.8697  0.5140 -0.0234
  436SOL    HW1 1307   0.716   0.747   1.920  0.4197 -1.6233 -1.6497
  436SOL    HW2 1308   0.841   0.635   1.926  0.9665 -0.6391  1.3695
  437SOL     OW 1309   0.019   2.778   2.323  0.1661  0.3988  0.5101
  437SOL    HW1 1310   0.073   2.746   2.403 -3.8064  1.1057 -1.4942
  437SOL    HW2 1311   0.059   2.751   2.237  0.4551  0.6226  0.1867
  438SOL     OW 1312   0.686   1.334   1.704  0.1453  0.0344  0.3526
  438SOL    HW1 1313   0.766   1.313   1.771  1.8654  1.5036 -1.2104
  438SOL    HW2 1314   0.709   1.416   1.653  3.0105 -0.7230  0.2292
  439SOL     OW 1315   2.253   0.984   2.138  0.0252  0.1624 -0.2549
  439SOL    HW1 1316   2.221   1.000   2.234  0.7274  0.1085  0.0938
  439SOL    HW2 1317   2.298   1.068   2.103  0.5049  0.4078  1.0863
  440SOL     OW 1318   0.211   0.809   0.198 -0.0897  0.0966  0.1081
  440SOL    HW1 1319   0.217   0.823   0.097  0.8469 -0.0470  2.2788
  440SOL    HW2 1320   0.281   0.742   0.238  1.0424 -0.6754 -1.5895
  441SOL     OW 1321   0.875   2.530   1.353  0.0679  0.0124  0.3360
  441SOL    HW1 1322   0.924   2.573   1.272  3.0573  0.1595 -0.6126
  441SOL    HW2 1323   0.820   2.450   1.325 -1.9093 -2.1758  1.0464
  442SOL     OW 1324   2.580   1.361   0.679  0.5045 -0.0645  0.0611
  442SOL    HW1 1325   2.522   1.401   0.752 -3.2150  2.0386  2.3357
  442SOL    HW2 1326   2.678   1.395   0.668  1.1670 -0.4676  2.1179
  443SOL     OW 1327   2.579   1.841   2.407 -0.2399 -0.7924  0.2807
  443SOL    HW1 1328   2.560   1.941   2.417 -1.2451 -0.0487 -1.6047
  443SOL    HW2 1329   2.580   1.809   2.311 -1.3605 -0.5188  0.2942
  444SOL     OW 1330   1.602   1.216   2.970 -0.3990 -0.0678 -0.1238
  444SOL    HW1 1331   1.663   1.263   3.039  1.7422 -0.1012  0.2070
  444SOL    HW2 1332   1.501   1.210   2.990  0.0694 -0.8102 -1.2429
  445SOL     OW 1333   2.519   2.676   2.137  0.4627  0.3067  0.1407
  445SOL    HW1 1334   2.454   2.630   2.081  3.6447 -2.1935 -0.4462
  445SOL    HW2 1335   2.577   2.747   2.083  0.8545  0.6961 -2.1824
  446SOL     OW 1336   0.382   1.028   1.449  0.0704 -0.6492  0.6254
  446SOL    HW1 1337   0.374   0.941   1.391  0.3646 -2.0668  0.9527
  446SOL    HW2 1338   0.479   1.046   1.466 -1.4592 -3.5840  1.7754
  447SOL     OW 1339   0.782   1.275   0.864 -0.0563  0.3485  0.5663
  447SOL    HW1 1340   0.880   1.265   0.892 -2.1957 -0.3231 -2.9640
  447SOL    HW2 1341   0.742   1.349   0.919 -1.8165  1.3978  0.9990
  448SOL     OW 1342   1.079   1.147   1.564 -0.3853 -0.3037  0.0041
  448SOL    HW1 1343   1.133   1.088   1.626  3.3347  2.8157 -0.6735
  448SOL    HW2 1344   1.075   1.119   1.466  0.8839 -0.5633 -2.5772
  449SOL     OW 1345   3.006   1.969   2.243 -0.2808  0.6208 -0.1300
  449SOL    HW1 1346   3.008   2.067   2.257 -0.4476 -0.9314  0.3207
  449SOL    HW2 1347   0.016   1.940   2.175 -3.2651  1.0113  0.7461
  450SOL     OW 1348   2.732   1.941   1.981 -0.6648  0.0782 -0.1497
  450SOL    HW1 1349   2.764   2.032   2.015  1.1488  1.8767 -1.1636
  450SOL    HW2 1350   2.804   1.901   1.922 -0.4446  1.9316  1.0484
  451SOL     OW 1351   2.151   0.972   1.325  0.3333  0.2936  0.3321
  451SOL    HW1 1352   2.080   0.929   1.388 -2.6565  0.0513  0.6673
  451SOL    HW2 1353   2.222   0.903   1.309 -0.9576  1.9007 -0.7458
  452SOL     OW 1354   0.424   1.316   1.124  0.4344  0.3863 -0.1039
  452SOL    HW1 1355   0.512   1.295   1.166 -1.5724 -0.4119  1.2517
  452SOL    HW2 1356   0.353   1.275   1.181  1.4985  0.7626  0.0786
  453SOL     OW 1357   0.661   1.494   1.002  0.5435 -0.1370 -0.2567
  453SOL    HW1 1358   0.611   1.489   1.091  0.8243  1.9914  0.8687
  453SOL    HW2 1359   0.652   1.582   0.959  1.0990 -3.5708  1.0309
  454SOL     OW 1360   0.476   1.710   0.110 -0.3031 -0.1420  0.7829
  454SOL    HW1 1361   0.560   1.766   0.119 -1.0870 -0.3129 -0.9519
  454SOL    HW2 1362   0.474   1.679   0.012 -1.4870 -0.5230 -1.7060
  455SOL     OW 1363   1.834   0.825   0.694 -0.2564 -0.2544  0.8776
  455SOL    HW1 1364   1.857   0.757   0.768 -3.0328  0.0171  3.2449
  455SOL    HW2 1365   1.833   0.919   0.732 -2.7968  3.1195  2.0899
  456SOL     OW 1366   2.011   2.467   0.857  0.3260  0.6609  0.4599
  456SOL    HW1 1367   2.090   2.533   0.844 -2.0437  0.1639 -2.6544
  456SOL    HW2 1368   2.031   2.381   0.799  1.9026 -2.4897  0.6813
  457SOL     OW 1369   2.009   2.952   2.566  0.1578 -0.2980  0.1472
  457SOL    HW1 1370   1.990   3.040   2.609 -1.1641 -0.2391  0.3172
  457SOL    HW2 1371   1.988   2.963   2.469  2.2919 -2.8624  4.0176
  458SOL     OW 1372   2.177   0.311   0.326 -0.3729 -0.4155  0.0515
  458SOL    HW1 1373   2.264   0.308   0.276 -0.9812  0.3418  0.9286
  458SOL    HW2 1374   2.125   0.394   0.298 -1.4820  0.3584  0.9010
  459SOL     OW 1375   3.043   1.126   2.371 -0.4189  0.1732 -0.6898
  459SOL    HW1 1376   2.966   1.089   2.310  0.9202 -1.1032  0.4502
  459SOL    HW2 1377   0.040   1.200   2.332 -2.6291 -1.5725  3.4636
  460SOL     OW 1378   0.285   0.835   2.983 -0.2545 -0.6566 -0.5209
  460SOL    HW1 1379   0.245   0.777   2.906  1.3551 -2.8784  0.2790
  460SOL    HW2 1380   0.390   0.818   2.987  3.1946 -2.3824 -0.1957
  461SOL     OW 1381   2.748   2.273   0.860  0.3900 -0.1256 -0.1350
  461SOL    HW1 1382   2.749   2.312   0.953 -0.5805 -0.3690 -0.6465
  461SOL    HW2 1383   2.757   2.170   0.865 -0.8023 -1.1711  1.2532
  462SOL     OW 1384   0.405   0.210   1.800  0.0005  0.3278  0.4173
  462SOL    HW1 1385   0.437   0.306   1.796 -2.2291 -0.1370  0.0486
  462SOL    HW2 1386   0.431   0.153   1.715  1.0097 -0.3647 -1.9335
  463SOL     OW 1387   2.032   2.191   2.027 -0.3578 -0.7745  0.2597
  463SOL    HW1 1388   1.978   2.122   2.073  2.2255  1.8662 -0.8382
  463SOL    HW2 1389   1.974   2.228   1.947 -2.0402  0.4583  0.2382
  464SOL     OW 1390   0.456   0.040   1.601 -0.0206 -0.3777 -0.0791
  464SOL    HW1 1391   0.524   0.068   1.531  1.9843 -0.1799 -1.1039
  464SOL    HW2 1392   0.444   2.998   1.590 -0.0815  2.3466  1.7166
  465SOL     OW 1393   0.773   0.158   1.432  0.1268 -0.1304  0.6858
  465SOL    HW1 1394   0.874   0.159   1.452 -0.5362 -2.1685 -2.0725
  465SOL    HW2 1395   0.724   0.215   1.498  1.9436 -0.0605 -0.9761
  466SOL     OW 1396   1.412   1.862   1.740 -0.2130 -0.3980  0.6691
  466SOL    HW1 1397   1.472   1.834   1.666 -1.7710 -0.1373  1.6431
  466SOL    HW2 1398   1.319   1.815   1.735 -1.2633  0.1762  2.0941
  467SOL     OW 1399   0.267   1.865   1.220 -0.6165 -0.3153  0.2910
  467SOL    HW1 1400   0.311   1.780   1.179  1.3240 -1.5491  0.3010
  467SOL    HW2 1401   0.326   1.898   1.299 -1.8019 -1.8663  2.7447
  468SOL     OW 1402   2.352   1.980   2.611  0.5130 -0.1748 -0.1988
  468SOL    HW1 1403   2.406   2.032   2.536  2.1898  1.8412 -0.8282
  468SOL    HW2 1404   2.268   1.934   2.574 -2.4283  2.8501 -2.3043
  469SOL     OW 1405   1.191   2.292   0.487 -0.2000 -0.2669 -0.1379
  469SOL    HW1 1406   1.101   2.295   0.441  1.7090 -1.7833  0.2045
  469SOL    HW2 1407   1.263   2.284   0.415  0.5396 -2.2000 -1.3575
  470SOL     OW 1408   2.218   1.486   1.031 -0.3925 -0.1792 -0.2624
  470SOL    HW1 1409   2.227   1.578   1.081 -0.4063  1.5754  0.9087
  470SOL    HW2 1410   2.307   1.458   0.987  0.8870  0.9577 -1.0066
  471SOL     OW 1411   0.459   2.419   0.438 -0.2201  0.3777 -0.6156
  471SOL    HW1 1412   0.375   2.448   0.397  2.2394 -0.3765  2.2702
  471SOL    HW2 1413   0.527   2.489   0.427 -4.1588  0.1529  0.4342
  472SOL     OW 1414   2.630   1.752   2.138 -0.0734  0.5108  0.1066
  472SOL    HW1 1415   2.706   1.695   2.167  0.0418 -0.4503  3.5899
  472SOL    HW2 1416   2.661   1.833   2.080  1.5094  1.4893 -0.2732
  473SOL     OW 1417   1.283   3.038   0.814 -0.5497 -0.2094  0.2573
  473SOL    HW1 1418   1.377   2.989   0.802  0.6462 -0.5761 -1.2822
  473SOL    HW2 1419   1.225   3.007   0.734  0.0391 -3.0238  0.1091
  474SOL     OW 1420   2.918   3.050   1.190 -0.6985  0.2847 -0.0018
  474SOL    HW1 1421   2.859   0.009   1.108  1.3125  0.3899  3.2174
  474SOL    HW2 1422   2.960   0.075   1.226  1.3920 -1.0449 -0.5851
  475SOL     OW 1423   1.720   2.470   1.652  0.4491 -0.3350  0.0439
  475SOL    HW1 1424   1.688   2.373   1.649 -3.3348 -0.6964  1.9050
  475SOL    HW2 1425   1.645   2.521   1.603  0.3646 -0.0607 -0.0744
  476SOL     OW 1426   0.270   0.465   1.023 -0.3296  0.8602 -0.8628
  476SOL    HW1 1427   0.371   0.439   1.039  4.3222 -1.6709 -1.0497
  476SOL    HW2 1428   0.203   0.388   1.006 -1.4365 -0.1827  0.8080
  477SOL     OW 1429   1.008   2.353   1.020  0.5303 -0.1568  0.1559
  477SOL    HW1 1430   0.906   2.361   1.004 -1.6977  0.1044  0.9481
  477SOL    HW2 1431   1.048   2.284   0.956 -0.3142  3.1341  1.6026
  478SOL     OW 1432   0.573   2.488   2.722  0.0438 -0.2085 -0.0563
  478SOL    HW1 1433   0.495   2.439   2.675  0.6223 -0.1895 -1.0648
  478SOL    HW2 1434   0.532   2.540   2.806 -2.9558 -0.3035  1.6530
  479SOL     OW 1435   0.231   0.498   1.984  0.2190  0.1154  0.5513
  479SOL    HW1 1436   0.149   0.502   2.041  1.5869  0.6110 -1.5330
  479SOL    HW2 1437   0.313   0.487   2.044 -0.5092 -3.4723 -0.3527
  480SOL     OW 1438   0.016   2.074   2.975  0.2230 -0.7310 -0.1774
  480SOL    HW1 1439   3.035   2.160   3.021  0.9751  1.8986  2.0253
  480SOL    HW2 1440   0.114   2.069   3.009  2.4841  0.8203 -0.8711
  481SOL     OW 1441   1.501   2.382   2.093  0.3192 -0.1276  0.1353
  481SOL    HW1 1442   1.592   2.347   2.122  1.6071 -1.4004 -1.2540
  481SOL    HW2 1443   1.472   2.341   2.003  0.7556 -1.4495 -7.1938
  482SOL     OW 1444   1.433   2.178   2.692 -0.0072  0.4250  0.0263
  482SOL    HW1 1445   1.506   2.200   2.759 -3.0650  0.2716 -1.1502
  482SOL    HW2 1446   1.451   2.221   2.603 -2.0889 -2.6866 -2.1997
  483SOL     OW 1447   0.842   2.474   2.798 -0.3154 -0.1995 -0.1674
  483SOL    HW1 1448   0.741   2.477   2.772 -3.0226  0.2090  2.4278
  483SOL    HW2 1449   0.898   2.498   2.714  0.2085  3.0565 -2.0391
  484SOL     OW 1450   0.060   0.022   0.828 -0.0054 -0.1694  0.2638
  484SOL    HW1 1451   0.029   0.009   0.732 -1.4120  1.3793 -1.3688
  484SOL    HW2 1452   0.155   3.040   0.838  2.4099 -1.4349 -0.5426
  485SOL     OW 1453   1.631   0.784   0.517  0.4109 -0.6627  0.0546
  485SOL    HW1 1454   1.703   0.804   0.589 -0.4375  1.2666  0.9096
  485SOL    HW2 1455   1.614   0.685   0.511  0.9187  1.2682  0.7310
  486SOL     OW 1456   1.839   2.614   2.041 -0.1329 -0.2112  0.4047
  486SOL    HW1 1457   1.943   2.618   2.048  0.8559 -0.8227 -2.3323
  486SOL    HW2 1458   1.792   2.666   2.119  0.4964  0.7227  1.8030
  487SOL     OW 1459   1.624   2.104   0.704  0.4306 -0.1165  0.4518
  487SOL    HW1 1460   1.542   2.148   0.746  2.5278 -0.6760  0.5611
  487SOL    HW2 1461   1.684   2.072   0.776 -0.5025  2.4875 -1.6368
  488SOL     OW 1462   1.649   0.750   0.015 -0.0766 -0.1560  0.2751
  488SOL    HW1 1463   1.639   0.758   0.115  0.4276  0.7785 -0.8153
  488SOL    HW2 1464   1.746   0.728   0.003 -1.1405  1.7121  0.0037
  489SOL     OW 1465   2.429   0.012   0.613 -0.1756  0.3849  0.1423
  489SOL    HW1 1466   2.391   3.052   0.706  2.2846  2.8144 -0.3842
  489SOL    HW2 1467   2.397   0.107   0.574  1.8306  3.6616 -1.1964
  490SOL     OW 1468   1.493   2.798   2.912 -0.4706 -0.3413  0.4894
  490SOL    HW1 1469   1.441   2.868   2.969 -0.5209 -0.9927 -2.1870
  490SOL    HW2 1470   1.555   2.846   2.845 -0.8587  0.7349 -1.4543
  491SOL     OW 1471   0.862   0.568   1.168  0.5545 -0.3638 -0.1042
  491SOL    HW1 1472   0.840   0.533   1.074  0.1710  0.0097  0.9964
  491SOL    HW2 1473   0.955   0.536   1.202  0.6439 -1.5798 -0.6131
  492SOL     OW 1474   1.632   0.436   0.148 -0.5324 -0.6970  0.0724
  492SOL    HW1 1475   1.660   0.336   0.153 -0.5134 -0.3552 -1.6284
  492SOL    HW2 1476   1.706   0.500   0.182  0.4351  1.6900  0.0188
  493SOL     OW 1477   2.033   2.123   2.868  0.2161 -0.7070  0.2502
  493SOL    HW1 1478   2.020   2.223   2.879 -2.1545  1.7683 -1.0387
  493SOL    HW2 1479   2.092   2.081   2.934 -1.3014  1.6849 -0.6585
  494SOL     OW 1480   0.406   1.106   0.777 -0.0604  0.0869  0.1457
  494SOL    HW1 1481   0.365   1.085   0.691 -2.9773  0.0969  0.6960
  494SOL    HW2 1482   0.335   1.109   0.849 -2.0646 -1.4967  0.1474
  495SOL     OW 1483   0.135   2.979   1.482 -0.5911  0.4755 -0.1509
  495SOL    HW1 1484   0.173   0.011   1.452  1.2613 -2.3638 -2.5284
  495SOL    HW2 1485   0.123   2.976   1.584  1.0379  1.0915  0.7742
  496SOL     OW 1486   2.831   2.765   1.785  0.3420  0.1947 -0.0491
  496SOL    HW1 1487   2.846   2.704   1.710 -1.4796  0.5225 -0.8077
  496SOL    HW2 1488   2.826   2.864   1.749 -1.7521  3.0185 -1.1150
  497SOL     OW 1489   1.485   1.689   2.522 -1.0773  0.5655 -0.1130
  497SOL    HW1 1490   1.442   1.774   2.485 -0.2033  0.0812 -1.0547
  497SOL    HW2 1491   1.454   1.607   2.465 -2.5457  0.3184  0.2261
  498SOL     OW 1492   0.374   1.852   0.856 -0.4167  0.1889  0.1574
  498SOL    HW1 1493   0.384   1.848   0.752 -1.0247 -1.4918 -2.0977
  498SOL    HW2 1494   0.292   1.800   0.890 -0.2032  1.5269  2.8309
  499SOL     OW 1495   0.038   1.507   1.362 -0.4044 -0.1446 -0.1135
  499SOL    HW1 1496   0.135   1.482   1.379 -0.0394 -2.0083 -1.8928
  499SOL    HW2 1497   0.035   1.608   1.344 -1.9818 -0.6793  2.0037
  500SOL     OW 1498   1.381   2.484   0.369  1.0610  0.4708  0.0910
  500SOL    HW1 1499   1.406   2.399   0.319  1.6497 -1.6129  0.6899
  500SOL    HW2 1500   1.433   2.570   0.344  0.7694  1.4528 -0.7711
  501SOL     OW 1501   2.172   2.328   1.142  0.4136  0.1291 -0.3887
  501SOL    HW1 1502   2.223   2.408   1.183  1.6537 -0.4006 -0.2053
  501SOL    HW2 1503   2.202   2.308   1.047 -2.7763 -0.2943  0.6978
  502SOL     OW 1504   0.059   0.900   1.624 -0.4991  0.4275 -0.4466
  502SOL    HW1 1505   0.068   0.911   1.520 -0.4763  1.5694  1.7329
  502SOL    HW2 1506   0.101   0.813   1.651 -0.8305  0.8124  1.4499
  503SOL     OW 1507   2.477   0.121   1.733  0.3173  0.3185  0.3314
  503SOL    HW1 1508   2.392   0.115   1.789 -0.6878 -3.5004 -2.1724
  503SOL    HW2 1509   2.552   0.167   1.783  2.8731 -1.6991  3.1737
  504SOL     OW 1510   1.874   0.722   1.906 -0.3302 -0.0584  0.0106
  504SOL    HW1 1511   1.845   0.815   1.889  0.5120  0.3853 -2.5681
  504SOL    HW2 1512   1.971   0.720   1.938 -0.6599 -0.9406 -1.4531
  505SOL     OW 1513   1.125   2.937   2.359  0.1873 -0.1380  0.3178
  505SOL    HW1 1514   1.106   2.911   2.457 -2.0387  0.4540 -1.0983
  505SOL    HW2 1515   1.134   2.848   2.311  0.1495  1.6525  0.9160
  506SOL     OW 1516   0.501   0.461   1.791 -0.5212  0.3114 -0.7209
  506SOL    HW1 1517   0.560   0.467   1.874 -1.1151  0.4521 -0.4949
  506SOL    HW2 1518   0.471   0.552   1.760 -1.5890 -1.0064 -2.2073
  507SOL     OW 1519   1.621   0.250   2.778 -0.1209 -0.0367 -0.1536
  507SOL    HW1 1520   1.625   0.339   2.830 -3.7703  1.3170 -2.6849
  507SOL    HW2 1521   1.574   0.260   2.690 -0.3545 -1.7716  0.6902
  508SOL     OW 1522   2.462   0.610   2.351  0.0114  0.0337  0.2312
  508SOL    HW1 1523   2.527   0.612   2.429  0.4403  0.5530 -3.6724
  508SOL    HW2 1524   2.480   0.694   2.297  0.0313 -1.5223  0.9440
  509SOL     OW 1525   0.885   1.558   1.912  0.2607  0.1775 -0.9931
  509SOL    HW1 1526   0.948   1.604   1.970 -0.6187 -1.1229 -2.7012
  509SOL    HW2 1527   0.885   1.592   1.817  0.4408 -1.6182  2.2064
  510SOL     OW 1528   2.995   0.717   0.921  0.0160  0.4677 -0.6292
  510SOL    HW1 1529   3.006   0.715   0.818 -0.7706  2.1938 -2.0363
  510SOL    HW2 1530   2.901   0.744   0.953 -0.1505 -2.4216  3.1123
  511SOL     OW 1531   1.609   1.556   0.815  0.4324  0.0967 -0.0022
  511SOL    HW1 1532   1.528   1.559   0.880  1.4518  1.8878  2.2290
  511SOL    HW2 1533   1.622   1.635   0.749  1.1200  3.0014  0.6696
  512SOL     OW 1534   0.786   1.436   0.265 -0.8001  0.1756  0.1791
  512SOL    HW1 1535   0.687   1.450   0.283  1.1216  0.5212  0.1507
  512SOL    HW2 1536   0.816   1.351   0.306 -0.6506  3.7707 -0.6244
  513SOL     OW 1537   0.217   2.502   0.662 -0.5686 -0.1273 -0.1324
  513SOL    HW1 1538   0.273   2.547   0.730  1.0522  0.7550 -1.3997
  513SOL    HW2 1539   0.266   2.423   0.618  1.2491  2.1723  1.3322
  514SOL     OW 1540   0.251   1.993   0.027  0.4120  0.4225  0.2136
  514SOL    HW1 1541   0.351   1.971   0.023 -1.9408  1.9166  1.7218
  514SOL    HW2 1542   0.198   1.934   0.093 -2.4269 -2.5913  0.9718
  515SOL     OW 1543   2.433   0.526   0.409  0.3463 -0.0241 -0.3952
  515SOL    HW1 1544   2.354   0.509   0.469 -2.0542  1.0700 -0.4722
  515SOL    HW2 1545   2.498   0.586   0.462  0.2077 -0.2248  0.6959
  516SOL     OW 1546   2.267   2.729   1.066  0.4997  0.2663 -0.0794
  516SOL    HW1 1547   2.183   2.760   1.115 -1.8175  2.3753 -0.2934
  516SOL    HW2 1548   2.239   2.705   0.973 -2.0701  1.5279  2.3874
  517SOL     OW 1549   1.417   1.694   3.002  0.2288 -0.0523  0.5235
  517SOL    HW1 1550   1.461   1.642   0.018 -0.8390  2.1852 -1.3390
  517SOL    HW2 1551   1.370   1.778   3.042 -1.3297  2.9931  0.5082
  518SOL     OW 1552   1.343   0.477   1.605 -0.0169  0.3212 -0.9556
  518SOL    HW1 1553   1.383   0.518   1.519 -2.0774  0.8076 -0.1742
  518SOL    HW2 1554   1.380   0.523   1.689 -1.1754 -2.5427 -1.1428
  519SOL     OW 1555   2.917   2.030   0.595  0.3995 -0.1596  0.0729
  519SOL    HW1 1556   2.991   2.042   0.664 -2.4821 -0.4727 -0.4542
  519SOL    HW2 1557   2.891   2.116   0.547  0.0633 -2.0466 -0.0766
  520SOL     OW 1558   2.410   2.260   1.795 -0.0196  0.0215 -1.0138
  520SOL    HW1 1559   2.381   2.186   1.865 -1.8087 -0.6530  4.0252
  520SOL    HW2 1560   2.343   2.334   1.787  1.3948  2.2716  1.0732
  521SOL     OW 1561   1.089   2.857   2.622 -0.3409 -0.1215  0.1287
  521SOL    HW1 1562   1.183   2.809   2.611  0.7313  0.6279 -0.9844
  521SOL    HW2 1563   1.063   2.855   2.719 -1.0500  0.7066 -0.9462
  522SOL     OW 1564   2.766   0.350   2.218 -0.1821  0.4950 -0.5299
  522SOL    HW1 1565   2.852   0.297   2.197 -2.6329 -1.1356  0.1541
  522SOL    HW2 1566   2.741   0.346   2.318  1.2835 -2.2980  2.7062
  523SOL     OW 1567   1.322   2.076   1.583 -0.2262 -0.1056  0.0695
  523SOL    HW1 1568   1.361   2.020   1.659 -0.2247  0.9621 -0.5040
  523SOL    HW2 1569   1.360   2.039   1.495 -1.1522  0.5171  1.1917
  524SOL     OW 1570   1.949   1.994   0.272 -1.1402 -0.0488 -1.0200
  524SOL    HW1 1571   1.933   1.981   0.372  1.1634 -1.4304 -0.6808
  524SOL    HW2 1572   2.049   1.980   0.244  1.3108 -1.0157 -0.7556
  525SOL     OW 1573   2.914   0.728   0.379  0.0514 -0.2365  0.3706
  525SOL    HW1 1574   2.933   0.821   0.333 -2.9728  0.5629 -0.0337
  525SOL    HW2 1575   2.977   0.654   0.355  0.3088  1.1333 -1.5225
  526SOL     OW 1576   1.019   2.891   1.209 -0.1287 -0.0559 -0.0790
  526SOL    HW1 1577   1.071   2.945   1.144 -0.2259 -3.1890  2.0996
  526SOL    HW2 1578   1.008   2.794   1.178  2.5138 -1.1765  1.3811
  527SOL     OW 1579   2.832   1.439   0.638  0.1587 -0.3119  0.8771
  527SOL    HW1 1580   2.782   1.522   0.625  0.9812 -2.1781 -0.7818
  527SOL    HW2 1581   2.915   1.434   0.580 -0.2260  1.8292 -1.6063
  528SOL     OW 1582   0.598   0.723   2.364 -0.6440 -0.0828 -0.1702
  528SOL    HW1 1583   0.616   0.817   2.401  1.5567 -0.6399 -1.7470
  528SOL    HW2 1584   0.502   0.699   2.373  1.7978 -0.0929 -2.2798
  529SOL     OW 1585   1.083   1.600   2.749 -0.1968  0.1258  0.3166
  529SOL    HW1 1586   1.149   1.527   2.741 -3.6249  2.4760  1.7731
  529SOL    HW2 1587   1.056   1.640   2.660 -0.3241  1.1110 -3.5478
  530SOL     OW 1588   1.502   1.368   2.087 -0.2815  0.5893 -0.2162
  530SOL    HW1 1589   1.438   1.293   2.093  0.4396  3.0560 -0.1574
  530SOL    HW2 1590   1.543   1.381   2.178 -1.2289 -1.8739  0.3027
  531SOL     OW 1591   0.810   2.186   2.824  0.3677  0.2329 -0.1390
  531SOL    HW1 1592   0.868   2.138   2.889  0.2153  2.8765 -0.2794
  531SOL    HW2 1593   0.819   2.286   2.835 -1.1598 -0.9600 -0.0249
  532SOL     OW 1594   2.284   0.726   0.277 -0.2748 -0.1025  0.0509
  532SOL    HW1 1595   2.332   0.649   0.323  3.7518 -1.9655 -0.3677
  532SOL    HW2 1596   2.185   0.706   0.274  1.0546  1.6000  0.5742
  533SOL     OW 1597   3.047   0.298   1.655  0.3124 -0.2956  0.1615
  533SOL    HW1 1598   0.056   0.358   1.607  1.0907  1.8373  1.2308
  533SOL    HW2 1599   3.017   0.340   1.742  1.0837  1.1236 -3.3197
  534SOL     OW 1600   1.600   0.472   2.920 -0.5357  0.8922  0.5603
  534SOL    HW1 1601   1.508   0.512   2.908  1.3212 -1.6572  0.8354
  534SOL    HW2 1602   1.622   0.459   3.015 -0.7564  1.5590 -1.6437
  535SOL     OW 1603   0.729   0.044   0.297  0.0683 -0.2150  0.2082
  535SOL    HW1 1604   0.811   0.101   0.274 -0.4714  1.0658 -0.5169
  535SOL    HW2 1605   0.678   0.024   0.211  0.9534  1.0473 -1.4104
  536SOL     OW 1606   0.339   1.540   1.957 -0.4427 -0.4689 -0.3889
  536SOL    HW1 1607   0.280   1.567   2.034  2.4843  0.6982 -2.5902
  536SOL    HW2 1608   0.439   1.550   1.982 -0.2349  1.9905 -0.0421
  537SOL     OW 1609   0.322   2.382   1.993  0.2259 -0.0091 -0.1403
  537SOL    HW1 1610   0.266   2.387   1.906 -1.3358  2.0917  1.7989
  537SOL    HW2 1611   0.327   2.287   2.040  1.0940 -0.2993  1.7598
  538SOL     OW 1612   2.996   1.850   0.244  0.1562  0.3619  0.0966
  538SOL    HW1 1613   0.023   1.813   0.195 -0.2510  0.4735  0.8598
  538SOL    HW2 1614   3.008   1.835   0.342 -0.1492  1.1126  1.0440
  539SOL     OW 1615   2.549   0.477   2.868 -0.0166 -0.3307 -0.4230
  539SOL    HW1 1616   2.469   0.419   2.894 -2.5557 -1.6826  1.9929
  539SOL    HW2 1617   2.636   0.432   2.896  0.6194  2.5766  0.1040
  540SOL     OW 1618   1.471   0.716   2.531 -0.1164  0.2737  0.0378
  540SOL    HW1 1619   1.564   0.742   2.553 -0.1539 -1.3040  0.6901
  540SOL    HW2 1620   1.403   0.784   2.572 -0.0768 -0.9807  0.9741
  541SOL     OW 1621   0.902   0.301   1.754  0.1526 -0.0070 -0.6634
  541SOL    HW1 1622   0.851   0.212   1.753 -0.7088 -0.8940 -0.8660
  541SOL    HW2 1623   0.887   0.348   1.844  1.5106 -1.4209 -0.8208
  542SOL     OW 1624   1.853   2.530   2.423 -0.3007 -0.3021  0.1414
  542SOL    HW1 1625   1.758   2.489   2.429  0.7898 -0.0032  0.6527
  542SOL    HW2 1626   1.854   2.608   2.356 -0.1040  0.0968  1.7705
  543SOL     OW 1627   0.533   2.850   0.933  0.0627  0.0221 -0.3702
  543SOL    HW1 1628   0.522   2.909   1.013 -2.1272 -1.4308  3.5201
  543SOL    HW2 1629   0.597   2.893   0.871 -1.0968 -1.0966 -0.0699
  544SOL     OW 1630   2.832   1.575   2.150  0.5029  0.3877  0.3476
  544SOL    HW1 1631   2.801   1.480   2.169 -2.3522 -0.9860  0.4972
  544SOL    HW2 1632   2.888   1.614   2.224  2.4027 -0.3099 -1.5544
  545SOL     OW 1633   1.948   1.891   1.219  0.2649  0.6889  0.2282
  545SOL    HW1 1634   1.917   1.983   1.255 -0.8404  3.9688 -0.7009
  545SOL    HW2 1635   1.877   1.851   1.154  2.8257  0.1161  0.5502
  546SOL     OW 1636   0.363   0.215   2.304 -0.0008 -0.0905 -0.3937
  546SOL    HW1 1637   0.311   0.154   2.239  1.3127  0.7175 -2.3376
  546SOL    HW2 1638   0.362   0.188   2.401 -0.4307  1.3216  0.0992
  547SOL     OW 1639   1.481   0.368   0.908  0.4026 -0.1306  0.1870
  547SOL    HW1 1640   1.553   0.425   0.963  0.7293 -0.2969 -1.3448
  547SOL    HW2 1641   1.425   0.428   0.849  1.3120  2.3427  1.9643
  548SOL     OW 1642   1.225   2.448   2.764 -0.0877  0.0057 -0.3030
  548SOL    HW1 1643   1.216   2.353   2.795  0.5587  0.5882  1.1375
  548SOL    HW2 1644   1.322   2.474   2.749 -1.6428 -0.4966  2.1647
  549SOL     OW 1645   2.259   0.652   2.648  0.4171  0.2585  0.9705
  549SOL    HW1 1646   2.359   0.644   2.625 -1.0391 -2.7915  0.3661
  549SOL    HW2 1647   2.204   0.666   2.559 -3.0428 -0.7969 -1.3731
  550SOL     OW 1648   2.693   1.858   0.411  0.0233  0.3495  0.1566
  550SOL    HW1 1649   2.639   1.793   0.350 -2.7947 -0.8544  1.4867
  550SOL    HW2 1650   2.733   1.930   0.358  0.0426  0.0235  1.3940
  551SOL     OW 1651   1.186   2.858   2.021  0.2592 -0.7173 -0.3826
  551SOL    HW1 1652   1.231   2.887   1.936 -1.9682  1.2423 -0.7821
  551SOL    HW2 1653   1.234   2.782   2.057 -2.6007 -0.1677 -2.9339
  552SOL     OW 1654   2.988   2.188   2.645  0.1466 -0.0510  0.2012
  552SOL    HW1 1655   3.056   2.111   2.639 -0.1438 -0.1849 -3.7256
  552SOL    HW2 1656   2.901   2.150   2.684 -2.4428 -1.6242 -2.2503
  553SOL     OW 1657   0.243   2.548   1.018 -0.0833  0.4789 -0.0056
  553SOL    HW1 1658   0.222   2.469   0.958  0.9320  0.4541 -2.1883
  553SOL    HW2 1659   0.199   2.537   1.106  3.4627  0.4238 -2.9275
  554SOL     OW 1660   2.249   1.890   1.741  0.4364  0.0728  0.1664
  554SOL    HW1 1661   2.203   1.870   1.828 -1.4768 -0.0880 -0.8004
  554SOL    HW2 1662   2.251   1.990   1.705  4.0218  0.4790  1.0138
  555SOL     OW 1663   1.588   2.046   1.835  0.4474 -0.3802 -0.7960
  555SOL    HW1 1664   1.526   1.974   1.803  0.0076  2.0974  2.4292
  555SOL    HW2 1665   1.537   2.123   1.886  1.4476 -0.9836  0.5120
  556SOL     OW 1666   1.398   1.592   0.979 -0.1845  0.2136  0.0470
  556SOL    HW1 1667   1.400   1.533   1.068 -1.3799 -1.7712  3.3065
  556SOL    HW2 1668   1.438   1.686   0.997 -0.9293 -1.5404  1.2888
  557SOL     OW 1669   1.355   3.000   1.563 -0.0425  0.2253  0.5884
  557SOL    HW1 1670   1.352   0.047   1.563 -0.2448  1.3687 -0.7340
  557SOL    HW2 1671   1.265   2.960   1.538  3.4780 -0.3613  0.7818
  558SOL     OW 1672   0.576   0.035   1.933 -0.8476 -0.2881  0.0831
  558SOL    HW1 1673   0.579   0.041   2.033 -0.1514  1.8209 -2.2382
  558SOL    HW2 1674   0.509   0.100   1.891  0.8324 -0.7575  1.1815
  559SOL     OW 1675   2.212   2.909   0.518 -0.7494  0.3318 -0.1096
  559SOL    HW1 1676   2.260   2.992   0.550  0.5740 -1.2670  1.0833
  559SOL    HW2 1677   2.221   2.840   0.592 -1.9458  1.6556 -0.3932
  560SOL     OW 1678   1.483   2.613   0.593  0.2922 -0.0624 -0.2005
  560SOL    HW1 1679   1.429   2.556   0.524  0.9797 -3.2245 -1.1170
  560SOL    HW2 1680   1.549   2.555   0.643  1.0989  1.1136  0.1296
  561SOL     OW 1681   0.994   0.385   0.281  0.0105  0.6129  0.1638
  561SOL    HW1 1682   0.911   0.418   0.239  1.3572  1.8965  0.9238
  561SOL    HW2 1683   1.022   0.441   0.360  2.3374  1.1024  0.5178
  562SOL     OW 1684   0.434   1.335   2.285  0.4727  0.0360 -0.4961
  562SOL    HW1 1685   0.456   1.274   2.367  0.2493  1.2404  0.3712
  562SOL    HW2 1686   0.474   1.428   2.294 -1.0502 -1.3364 -0.6567
  563SOL     OW 1687   1.571   2.123   2.438 -0.0440  0.5187 -0.4826
  563SOL    HW1 1688   1.566   2.088   2.346  0.1651  3.1453  2.8188
  563SOL    HW2 1689   1.609   2.056   2.508  0.6538 -2.8039 -1.3834
  564SOL     OW 1690   2.782   0.961   1.036  0.0871 -0.0319 -0.9235
  564SOL    HW1 1691   2.769   1.053   1.081 -0.1993  0.4546  1.9076
  564SOL    HW2 1692   2.829   0.972   0.947  2.2077 -1.3114  1.7597
  565SOL     OW 1693   0.596   0.780   0.065  0.0007 -0.2757  0.2963
  565SOL    HW1 1694   0.603   0.754   3.024 -0.6061  1.2569  1.8547
  565SOL    HW2 1695   0.654   0.713   0.115 -2.0862  0.0666 -0.2814
  566SOL     OW 1696   2.403   2.949   2.744 -0.6905  1.2783  0.4962
  566SOL    HW1 1697   2.406   3.048   2.736 -0.8919 -1.0596  0.5570
  566SOL    HW2 1698   2.321   2.901   2.708  0.4721 -0.4889  0.2910
  567SOL     OW 1699   1.469   1.138   1.058 -0.0342 -0.2883  0.6245
  567SOL    HW1 1700   1.418   1.180   0.982 -0.1112 -0.0149  1.9551
  567SOL    HW2 1701   1.520   1.204   1.119  3.7076 -0.6314  0.0668
  568SOL     OW 1702   1.565   1.717   2.787 -0.1973 -0.2301 -0.0297
  568SOL    HW1 1703   1.513   1.694   2.702  0.3582 -0.9630  2.2642
  568SOL    HW2 1704   1.506   1.715   2.877  0.0135  1.5799  2.5346
  569SOL     OW 1705   2.081   1.540   3.055 -0.3019  0.1156  0.5127
  569SOL    HW1 1706   2.153   1.495   3.001  2.1420 -3.1898 -2.9771
  569SOL    HW2 1707   2.067   1.500   0.092 -0.2813  0.9616  1.1544
  570SOL     OW 1708   0.054   2.346   1.870 -0.0513 -0.0518  0.0599
  570SOL    HW1 1709   0.038   2.435   1.826 -3.2970  1.3212 -0.7096
  570SOL    HW2 1710   0.023   2.271   1.817 -0.9465  2.2265  1.7065
  571SOL     OW 1711   2.607   1.865   1.518  0.3098 -0.3272  0.0677
  571SOL    HW1 1712   2.637   1.942   1.462 -0.5505 -2.9640  0.5318
  571SOL    HW2 1713   2.553   1.896   1.598  0.3249 -2.6922 -1.8131
  572SOL     OW 1714   1.823   2.128   0.080 -0.6194 -0.2369  0.0743
  572SOL    HW1 1715   1.759   2.193   0.125  0.2974  1.9964 -1.8633
  572SOL    HW2 1716   1.881   2.076   0.149  1.4850  0.8426  0.9008
  573SOL     OW 1717   1.662   2.272   0.263 -0.3491  0.3909 -0.1390
  573SOL    HW1 1718   1.563   2.275   0.245  0.9761  1.9846  0.2892
  573SOL    HW2 1719   1.706   2.361   0.243 -1.6316 -1.4350  0.8600
  574SOL     OW 1720   1.210   0.216   1.219 -0.0485  0.0700 -0.5335
  574SOL    HW1 1721   1.180   0.168   1.307 -3.0627 -1.9415  0.2054
  574SOL    HW2 1722   1.169   0.173   1.135 -0.2123  1.4725  0.7046
  575SOL     OW 1723   0.643   1.105   1.535  0.0446  0.0086  0.3475
  575SOL    HW1 1724   0.651   1.180   1.601 -0.4487 -1.8294 -1.4188
  575SOL    HW2 1725   0.704   1.031   1.572 -1.1657  0.5560 -0.1751
  576SOL     OW 1726   2.729   0.249   1.640 -0.0509  0.4879 -0.2109
  576SOL    HW1 1727   2.729   0.181   1.565 -0.0964 -1.7761 -1.6079
  576SOL    HW2 1728   2.756   0.339   1.606  1.6966 -2.2169 -1.2219
  577SOL     OW 1729   1.279   0.956   2.570 -0.1488 -0.6322  0.4839
  577SOL    HW1 1730   1.315   1.036   2.623 -1.4776  0.5629 -1.1166
  577SOL    HW2 1731   1.304   0.971   2.474 -0.5776  1.2993  1.3404
  578SOL     OW 1732   1.921   1.365   2.353 -0.2921  0.1768  0.5606
  578SOL    HW1 1733   1.823   1.369   2.324 -1.7788  0.4795  0.1589
  578SOL    HW2 1734   1.979   1.419   2.285 -1.3481  1.6213 -0.5036
  579SOL     OW 1735   1.379   1.937   1.323 -0.2423  0.0470 -0.2007
  579SOL    HW1 1736   1.323   1.972   1.243 -2.0072  0.8590  3.1121
  579SOL    HW2 1737   1.389   1.835   1.320  1.1328  1.0340  0.2154
  580SOL     OW 1738   1.387   2.267   0.189 -0.1359 -0.3236  0.2197
  580SOL    HW1 1739   1.389   2.300   0.095 -0.0489 -2.8304  2.0636
  580SOL    HW2 1740   1.352   2.169   0.199  0.6177  2.4499  3.8982
  581SOL     OW 1741   0.984   0.930   1.909  0.7377 -0.9968  0.0779
  581SOL    HW1 1742   0.900   0.871   1.893  0.7525 -0.2736 -0.4858
  581SOL    HW2 1743   1.044   0.892   1.984  1.9991  1.5474  0.5664
  582SOL     OW 1744   0.822   0.908   1.599  0.3080  0.2388  0.2626
  582SOL    HW1 1745   0.890   0.856   1.657  2.0244 -1.2424  0.8057
  582SOL    HW2 1746   0.863   0.915   1.509 -1.5001 -0.7294  0.3624
  583SOL     OW 1747   0.867   1.272   1.882 -0.3897  0.3291  0.1916
  583SOL    HW1 1748   0.956   1.228   1.844  2.7311 -0.9268 -2.0013
  583SOL    HW2 1749   0.891   1.361   1.927  1.5211  2.4720 -2.0173
  584SOL     OW 1750   2.271   2.315   0.888 -0.5782  0.3874  0.0523
  584SOL    HW1 1751   2.364   2.271   0.864 -2.6168  1.6261 -0.6931
  584SOL    HW2 1752   2.216   2.308   0.803  0.6665 -1.1468 -0.2100
  585SOL     OW 1753   1.914   0.095   2.725  0.2796 -0.4290  0.1669
  585SOL    HW1 1754   1.826   0.103   2.675  0.0068  1.7505 -0.9648
  585SOL    HW2 1755   1.950   0.189   2.727 -1.4445 -2.7501  0.1210
  586SOL     OW 1756   3.032   2.212   0.819 -0.0043 -0.1034 -0.5259
  586SOL    HW1 1757   2.982   2.295   0.787 -2.9186  0.3459  3.6248
  586SOL    HW2 1758   3.007   2.186   0.917 -0.1856 -1.7007  3.3208
  587SOL     OW 1759   1.705   1.892   0.030 -0.1099 -0.4842 -0.0825
  587SOL    HW1 1760   1.754   1.982   0.036  0.1304  1.1945 -2.9244
  587SOL    HW2 1761   1.608   1.893   0.068 -3.2434  0.8581 -0.3440
  588SOL     OW 1762   0.142   0.250   0.955  0.7418 -0.1687  0.0379
  588SOL    HW1 1763   0.132   0.242   1.056  1.7200 -3.6691 -1.7935
  588SOL    HW2 1764   0.105   0.159   0.922  0.4462 -1.6272  0.8937
  589SOL     OW 1765   1.312   0.567   0.765 -0.4282  0.3039  0.2899
  589SOL    HW1 1766   1.280   0.644   0.826 -1.4282  0.1361 -0.2650
  589SOL    HW2 1767   1.334   0.600   0.673 -4.2435 -0.9136  0.1174
  590SOL     OW 1768   1.292   1.196   2.980 -0.1502 -0.2215  0.0313
  590SOL    HW1 1769   1.236   1.266   3.033 -2.8369  0.3806  0.7540
  590SOL    HW2 1770   1.282   1.107   3.032  1.4728  1.3014  0.4377
  591SOL     OW 1771   2.528   2.329   2.565 -0.3182 -0.3009  0.5143
  591SOL    HW1 1772   2.506   2.357   2.660  1.2949  1.5274 -3.3568
  591SOL    HW2 1773   2.540   2.413   2.506  4.2437  0.1464  0.0810
  592SOL     OW 1774   1.573   2.138   1.380 -0.0325  0.1790 -0.1583
  592SOL    HW1 1775   1.513   2.218   1.378  2.3590  0.3925 -0.8777
  592SOL    HW2 1776   1.531   2.063   1.328 -2.3409  0.8967  0.8329
  593SOL     OW 1777   0.811   0.168   0.969  0.4985 -0.9570  0.1972
  593SOL    HW1 1778   0.746   0.178   1.046  1.0986  1.3661 -1.5339
  593SOL    HW2 1779   0.819   0.261   0.922  0.3364  0.7715 -0.6325
  594SOL     OW 1780   2.754   0.626   2.523 -0.1612 -0.2315  0.6772
  594SOL    HW1 1781   2.800   0.714   2.532 -1.2039 -1.4340  0.3489
  594SOL    HW2 1782   2.667   0.640   2.575 -0.5383  1.0158  3.8216
  595SOL     OW 1783   0.656   2.384   1.206  0.9409  0.3353 -0.5951
  595SOL    HW1 1784   0.685   2.356   1.110  1.5940 -1.8787 -0.9937
  595SOL    HW2 1785   0.637   2.486   1.209 -0.1187 -0.1476 -2.7816
  596SOL     OW 1786   0.027   0.922   1.358 -0.2791  0.2368 -0.5490
  596SOL    HW1 1787   3.046   1.013   1.352  1.1665 -2.9566  0.8769
  596SOL    HW2 1788   0.077   0.903   1.272  0.8905  1.3054  3.7456
  597SOL     OW 1789   1.484   1.856   0.274 -0.3343 -0.3009  0.3477
  597SOL    HW1 1790   1.522   1.769   0.240  3.3377 -0.8115 -1.5109
  597SOL    HW2 1791   1.554   1.909   0.333  0.1495  0.3289  3.4857
  598SOL     OW 1792   0.502   2.809   1.848 -0.1384  0.3615  0.3355
  598SOL    HW1 1793   0.481   2.818   1.750 -0.8097 -0.0295  1.0925
  598SOL    HW2 1794   0.547   2.895   1.872  1.3888 -0.8144 -3.4246
  599SOL     OW 1795   2.299   1.687   2.767  0.2500 -0.4201  0.0026
  599SOL    HW1 1796   2.203   1.705   2.750  2.3477  0.4733 -4.3268
  599SOL    HW2 1797   2.361   1.735   2.709 -2.0871 -0.4107  0.1888
  600SOL     OW 1798   0.808   0.993   0.147  0.1325 -0.1087  0.2216
  600SOL    HW1 1799   0.723   0.943   0.117  1.8599  0.0916  0.2274
  600SOL    HW2 1800   0.823   1.078   0.087  2.1661 -2.1955 -1.4114
  601SOL     OW 1801   0.594   0.772   0.826 -0.3632  0.1743 -0.7305
  601SOL    HW1 1802   0.616   0.870   0.804 -0.1822 -1.8929 -0.7517
  601SOL    HW2 1803   0.674   0.725   0.871  0.1379  1.1019  0.4810
  602SOL     OW 1804   1.714   3.018   0.687  0.3536  0.6019  0.2982
  602SOL    HW1 1805   1.782   3.007   0.609  0.9876 -1.0311  0.7817
  602SOL    HW2 1806   1.675   0.054   0.681 -2.8284 -2.4639 -1.9673
  603SOL     OW 1807   0.846   2.750   2.150  0.1238  0.3954 -0.5778
  603SOL    HW1 1808   0.876   2.678   2.218 -2.4037 -0.7138 -0.7280
  603SOL    HW2 1809   0.816   2.714   2.060  1.1969  2.4707  1.4053
  604SOL     OW 1810   2.931   3.043   2.529  0.3935  0.2973 -0.0611
  604SOL    HW1 1811   3.002   3.036   2.455  2.4906  1.3681  0.9127
  604SOL    HW2 1812   2.846   0.024   2.487 -2.4449 -2.1990  1.4964
  605SOL     OW 1813   2.556   1.465   1.174 -0.1154 -0.5550  0.2828
  605SOL    HW1 1814   2.497   1.468   1.259 -1.7389  0.0977 -0.4762
  605SOL    HW2 1815   2.645   1.510   1.188  1.5221 -0.7963  1.2095
  606SOL     OW 1816   0.732   1.490   2.633  0.3792 -0.2950  0.6939
  606SOL    HW1 1817   0.798   1.527   2.695 -1.4616  3.1690 -0.2440
  606SOL    HW2 1818   0.649   1.456   2.678 -1.4648 -1.9995  0.6178
  607SOL     OW 1819   0.583   0.198   0.478 -0.4379 -0.1971 -0.4929
  607SOL    HW1 1820   0.646   0.133   0.435 -0.6568 -1.8883 -0.6906
  607SOL    HW2 1821   0.550   0.253   0.398  1.7848  2.7557  0.4253
  608SOL     OW 1822   1.742   1.604   1.899  0.3825  0.0659  0.2048
  608SOL    HW1 1823   1.665   1.544   1.864 -1.7825 -0.9210  1.1819
  608SOL    HW2 1824   1.807   1.637   1.825  1.0986  4.3667 -0.9771
  609SOL     OW 1825   2.658   0.263   1.002  0.2628 -0.1596 -0.0199
  609SOL    HW1 1826   2.670   0.237   1.097 -1.8120  1.0640 -0.9944
  609SOL    HW2 1827   2.636   0.362   0.984 -0.4526 -0.4471 -2.9795
  610SOL     OW 1828   0.460   2.639   0.757  0.9583  0.2185 -0.3777
  610SOL    HW1 1829   0.476   2.681   0.668 -1.4780  0.1596  1.2763
  610SOL    HW2 1830   0.477   2.707   0.826  1.8297 -1.9289 -2.8379
  611SOL     OW 1831   1.550   0.952   2.800 -0.0709  0.2339 -0.3192
  611SOL    HW1 1832   1.499   1.040   2.812  0.1373 -0.8797 -2.1596
  611SOL    HW2 1833   1.502   0.875   2.848 -1.9435 -0.2423 -0.7921
  612SOL     OW 1834   0.656   2.081   2.111 -0.1115  0.9467 -0.4305
  612SOL    HW1 1835   0.612   2.060   2.199  2.6750  0.4151  0.0486
  612SOL    HW2 1836   0.670   2.177   2.101 -1.2147 -0.3808 -0.7044
  613SOL     OW 1837   0.548   2.392   0.782 -0.0586  0.9381 -0.1605
  613SOL    HW1 1838   0.530   2.321   0.710 -0.5111 -3.3809 -3.9027
  613SOL    HW2 1839   0.504   2.479   0.760  1.0357 -0.2583 -0.0932
  614SOL     OW 1840   2.365   2.867   1.602  0.5511  0.3714  0.3159
  614SOL    HW1 1841   2.420   2.825   1.676  0.0422  0.9121 -0.7588
  614SOL    HW2 1842   2.409   2.941   1.546 -1.3654 -1.6731  1.4567
  615SOL     OW 1843   1.531   1.092   0.207  0.0519  0.6022 -0.5239
  615SOL    HW1 1844   1.520   1.168   0.272  0.0803 -1.7281 -0.5877
  615SOL    HW2 1845   1.620   1.109   0.160  2.8480  2.2522 -1.6883
  616SOL     OW 1846   1.619   0.839   0.266  0.5614 -0.1163  0.4536
  616SOL    HW1 1847   1.643   0.847   0.363  1.3075  0.2046 -3.8438
  616SOL    HW2 1848   1.565   0.921   0.240  0.3289 -2.9269 -1.3829
  617SOL     OW 1849   0.985   1.007   2.893 -0.1765  0.0372  0.5182
  617SOL    HW1 1850   1.081   0.974   2.887 -1.5627  2.0459  3.0852
  617SOL    HW2 1851   0.969   1.080   2.965 -0.0587  1.0443 -1.1885
  618SOL     OW 1852   0.800   0.045   1.777  0.1833 -0.0892  0.1036
  618SOL    HW1 1853   0.854   0.008   1.858  1.6866 -0.2541  1.1430
  618SOL    HW2 1854   0.708   0.080   1.810 -4.1646  2.4158  0.5839
  619SOL     OW 1855   2.760   1.175   1.464 -0.4962 -0.0747 -0.1351
  619SOL    HW1 1856   2.802   1.119   1.538  0.0064 -1.4252 -0.5174
  619SOL    HW2 1857   2.665   1.139   1.443 -0.1360 -2.1639  0.7691
  620SOL     OW 1858   2.371   1.026   2.673  0.7835 -0.4011  0.2583
  620SOL    HW1 1859   2.428   1.014   2.588 -1.0818  3.0387 -0.0456
  620SOL    HW2 1860   2.278   0.980   2.666 -3.5143  0.2541  0.1069
  621SOL     OW 1861   2.548   2.289   1.525 -0.1744  0.1423  0.1858
  621SOL    HW1 1862   2.602   2.371   1.504 -1.3047 -0.9189 -0.8097
  621SOL    HW2 1863   2.566   2.244   1.616 -2.1590 -0.9104 -1.1791
  622SOL     OW 1864   0.850   0.682   2.501 -0.3656 -0.0576  0.3467
  622SOL    HW1 1865   0.766   0.707   2.450  1.7695 -3.1296  1.1521
  622SOL    HW2 1866   0.920   0.761   2.502  0.0108  3.2329  0.3739
  623SOL     OW 1867   1.049   0.497   2.426  0.1179 -0.1437 -0.2911
  623SOL    HW1 1868   1.028   0.416   2.490  0.0119  0.4182  0.4154
  623SOL    HW2 1869   0.982   0.570   2.447 -1.1937 -2.7850 -0.4100
  624SOL     OW 1870   1.919   0.768   3.044  0.4462  0.3694  0.1445
  624SOL    HW1 1871   1.965   0.809   2.962  2.4068 -0.7552 -0.1401
  624SOL    HW2 1872   1.950   0.673   3.050 -1.2995  0.2019  0.5309
  625SOL     OW 1873   1.038   1.273   0.910  0.3139  0.0968 -0.5287
  625SOL    HW1 1874   1.091   1.315   0.833 -0.3341 -0.2144  0.5182
  625SOL    HW2 1875   1.082   1.284   1.002 -0.3508  0.5713  0.8186
  626SOL     OW 1876   1.662   1.198   2.489  0.8963 -0.2832 -0.0293
  626SOL    HW1 1877   1.645   1.113   2.438  0.0783  1.1497  2.1112
  626SOL    HW2 1878   1.753   1.193   2.534 -0.0503  1.4830 -0.7189
  627SOL     OW 1879   0.860   3.032   2.601 -0.2035  0.3439 -0.2609
  627SOL    HW1 1880   0.951   2.995   2.630  2.7192 -1.9274 -1.4635
  627SOL    HW2 1881   0.839   0.062   2.648  2.0385  0.6433  0.0905
  628SOL     OW 1882   2.516   0.235   2.494 -0.4627  0.0367  0.5428
  628SOL    HW1 1883   2.464   0.229   2.581 -2.1412  1.4919  1.5355
  628SOL    HW2 1884   2.610   0.275   2.510  1.9635  0.5809 -0.1604
  629SOL     OW 1885   0.766   0.631   2.762 -0.3084 -0.1555 -0.2974
  629SOL    HW1 1886   0.805   0.634   2.670 -0.4290 -1.9500  0.4680
  629SOL    HW2 1887   0.805   0.698   2.831 -0.7778  0.7889  0.6517
  630SOL     OW 1888   1.271   0.278   2.066 -0.2101 -0.2497 -0.1388
  630SOL    HW1 1889   1.222   0.359   2.106 -0.1926  0.3355  0.3666
  630SOL    HW2 1890   1.253   0.190   2.122  1.4407 -0.8034  0.6921
  631SOL     OW 1891   2.849   0.966   0.771  0.6754  0.1516 -0.1085
  631SOL    HW1 1892   2.787   1.019   0.712  2.4574 -1.4173 -1.3996
  631SOL    HW2 1893   2.902   0.887   0.724  2.8326 -1.8297 -0.3179
  632SOL     OW 1894   1.972   0.850   1.473 -0.1084 -0.3018  0.0288
  632SOL    HW1 1895   1.990   0.894   1.564  0.8106  0.2617 -0.2683
  632SOL    HW2 1896   1.978   0.749   1.483  0.6218 -2.4087  1.9442
  633SOL     OW 1897   1.106   0.982   0.808  0.6067  0.2729 -0.6365
  633SOL    HW1 1898   1.153   0.893   0.820  1.1865 -1.2351 -1.9114
  633SOL    HW2 1899   1.082   1.021   0.902  1.2330  0.6651  0.8589
  634SOL     OW 1900   1.919   2.846   1.036  0.1376 -0.5106  0.0981
  634SOL    HW1 1901   1.951   2.879   1.124 -0.3099 -1.4203  2.0789
  634SOL    HW2 1902   1.888   2.749   1.044  0.4537  0.5806 -0.0509
  635SOL     OW 1903   1.702   0.816   1.056 -0.2916 -0.3510  0.6688
  635SOL    HW1 1904   1.658   0.892   1.007  2.0764 -1.3524  2.2691
  635SOL    HW2 1905   1.759   0.847   1.135 -0.9231 -0.8523 -1.3160
  636SOL     OW 1906   0.984   1.029   0.567  0.4774  0.3030  0.0222
  636SOL    HW1 1907   0.943   1.117   0.529 -1.0379  0.8911  2.4854
  636SOL    HW2 1908   1.027   1.044   0.660 -2.9983 -1.6539 -0.7976
  637SOL     OW 1909   2.570   2.105   0.018  0.3751 -0.3668  0.2153
  637SOL    HW1 1910   2.582   2.010   0.056  3.0248  2.5452 -0.2408
  637SOL    HW2 1911   2.544   2.097   2.971 -1.3818 -1.0363 -3.1869
  638SOL     OW 1912   1.293   2.706   2.545 -0.3671 -0.0933 -0.2544
  638SOL    HW1 1913   1.241   2.673   2.464  0.1685 -1.0855  1.4093
  638SOL    HW2 1914   1.354   2.627   2.573 -0.4342  0.0733  0.3360
  639SOL     OW 1915   1.027   2.142   1.218 -0.1281  0.2801 -0.0966
  639SOL    HW1 1916   1.033   2.181   1.314  0.9377 -0.0555 -1.4868
  639SOL    HW2 1917   1.006   2.218   1.155 -1.1690 -2.9211 -1.5278
  640SOL     OW 1918   2.454   2.867   0.327 -0.6878  0.0112 -0.6423
  640SOL    HW1 1919   2.501   2.922   0.398 -0.1140  0.6653 -0.2289
  640SOL    HW2 1920   2.372   2.909   0.285 -0.0683  0.6893 -1.0067
  641SOL     OW 1921   0.480   0.320   0.231 -0.4452 -0.4806 -0.0037
  641SOL    HW1 1922   0.421   0.399   0.250 -0.9402  0.6809 -0.4347
  641SOL    HW2 1923   0.516   0.308   0.132  1.7807  0.5454 -2.6028
  642SOL     OW 1924   2.776   0.765   1.245 -0.4335  0.2496  0.3168
  642SOL    HW1 1925   2.760   0.666   1.237 -0.4409  2.0499 -2.1691
  642SOL    HW2 1926   2.781   0.814   1.154 -0.5141  0.6973 -0.0891
  643SOL     OW 1927   0.753   1.898   1.946 -0.5522 -0.2294 -0.6985
  643SOL    HW1 1928   0.688   1.868   1.878  2.3119  1.5080  2.2527
  643SOL    HW2 1929   0.705   1.980   1.993 -1.0248  3.2582 -1.1096
  644SOL     OW 1930   1.459   2.607   0.042 -0.0519  0.1833 -0.4215
  644SOL    HW1 1931   1.483   2.680   3.032  0.9234  1.3888 -2.4531
  644SOL    HW2 1932   1.478   2.648   0.138  0.3949  1.1786 -0.1378
  645SOL     OW 1933   2.129   2.251   0.681 -0.1503  0.1333 -0.9689
  645SOL    HW1 1934   2.202   2.194   0.635 -1.5899  1.7854 -0.0809
  645SOL    HW2 1935   2.050   2.275   0.617  0.2263  1.6464 -2.2961
  646SOL     OW 1936   1.213   2.809   0.227 -0.6114  0.8120 -0.4525
  646SOL    HW1 1937   1.189   2.717   0.261  0.6167 -1.5764  0.1259
  646SOL    HW2 1938   1.196   2.813   0.128 -0.2774 -1.0059 -2.0976
  647SOL     OW 1939   0.429   2.631   2.051 -0.3588  0.3822  0.2127
  647SOL    HW1 1940   0.440   2.685   1.964  0.3468 -0.5228 -1.0315
  647SOL    HW2 1941   0.390   2.538   2.034 -0.3140  0.6817  1.6617
  648SOL     OW 1942   1.816   0.939   1.266 -0.1755 -0.3608  0.2311
  648SOL    HW1 1943   1.834   1.041   1.252 -0.3000  0.5619  1.7602
  648SOL    HW2 1944   1.876   0.900   1.337 -0.1382 -1.6065 -3.5471
  649SOL     OW 1945   1.468   2.527   2.677 -0.1971 -0.0774 -0.7840
  649SOL    HW1 1946   1.534   2.485   2.610  1.6722  1.0777  1.2815
  649SOL    HW2 1947   1.513   2.598   2.736  1.1931  1.9782  1.8437
  650SOL     OW 1948   2.300   1.438   1.620  0.1424 -0.5910 -0.4504
  650SOL    HW1 1949   2.337   1.484   1.705  2.1899 -0.2468  0.4059
  650SOL    HW2 1950   2.200   1.463   1.610  0.7331  2.3766  1.2441
  651SOL     OW 1951   1.242   2.210   2.879 -0.0117 -0.3915  0.1207
  651SOL    HW1 1952   1.288   2.280   2.944  0.1169  2.7605  0.8892
  651SOL    HW2 1953   1.314   2.184   2.810  1.7439 -1.5103 -0.3811
  652SOL     OW 1954   0.997   2.514   0.033 -0.1275  0.3386 -0.4593
  652SOL    HW1 1955   1.071   2.575   3.058 -2.3218 -1.0725 -0.7217
  652SOL    HW2 1956   0.920   2.509   3.025  0.0555 -1.5483  0.7233
  653SOL     OW 1957   2.446   2.129   1.160 -0.0184  1.3527 -0.1087
  653SOL    HW1 1958   2.445   2.227   1.160  0.5100 -1.9885 -1.0043
  653SOL    HW2 1959   2.358   2.091   1.144  1.0658  1.3089 -0.0641
  654SOL     OW 1960   2.847   2.475   1.620  0.2076  0.1595  0.0634
  654SOL    HW1 1961   2.824   2.552   1.553 -0.2605 -2.0557 -1.2445
  654SOL    HW2 1962   2.845   2.386   1.570 -3.3113 -1.2208 -1.5219
  655SOL     OW 1963   2.986   2.152   1.084  0.1516  0.0087 -0.6751
  655SOL    HW1 1964   2.944   2.064   1.129 -0.3444 -3.3509  2.6745
  655SOL    HW2 1965   2.917   2.232   1.092 -1.4142  1.2694 -1.1438
  656SOL     OW 1966   0.143   2.841   2.713  0.2560  0.0850  0.1318
  656SOL    HW1 1967   0.174   2.863   2.619 -1.0068  0.3849 -1.2881
  656SOL    HW2 1968   0.052   2.883   2.720  0.6621  2.7940 -1.1869
  657SOL     OW 1969   3.033   0.981   0.294 -0.0998  0.3164  0.5055
  657SOL    HW1 1970   3.024   1.012   0.200 -1.5161 -2.2902  0.9908
  657SOL    HW2 1971   0.070   0.946   0.315 -1.4901  1.9436  2.6547
  658SOL     OW 1972   2.101   1.607   0.804 -0.5979 -0.6309  0.0292
  658SOL    HW1 1973   2.135   1.550   0.884  1.1315  0.9568  1.7974
  658SOL    HW2 1974   2.124   1.707   0.820 -0.3683  2.1747  0.8068
  659SOL     OW 1975   1.464   0.535   1.365 -0.5629  0.9949 -0.3400
  659SOL    HW1 1976   1.563   0.568   1.360  1.9595  3.1442  0.8961
  659SOL    HW2 1977   1.461   0.434   1.351  0.9111  2.4867 -1.3275
  660SOL     OW 1978   1.530   1.574   0.161  0.1459 -0.1321 -0.1362
  660SOL    HW1 1979   1.588   1.499   0.119 -0.1600 -0.8565 -0.9125
  660SOL    HW2 1980   1.481   1.551   0.245  3.9413  0.7731 -2.7190
  661SOL     OW 1981   0.214   1.916   0.506  0.3251  0.5667 -0.0554
  661SOL    HW1 1982   0.235   1.966   0.419  1.3857  1.3472  0.8433
  661SOL    HW2 1983   0.137   1.847   0.495  1.0814 -0.6552 -1.0865
  662SOL     OW 1984   2.885   0.669   2.025  0.2738  0.4275 -0.2124
  662SOL    HW1 1985   2.846   0.696   2.115  0.8119 -1.2169 -2.0684
  662SOL    HW2 1986   2.947   0.742   1.987  0.2611  2.0040 -0.8046
  663SOL     OW 1987   2.027   1.306   1.015 -1.0054 -0.1314 -0.2120
  663SOL    HW1 1988   2.078   1.248   0.950 -1.3854  1.8068  0.5619
  663SOL    HW2 1989   2.093   1.384   1.039  0.3428  1.2036  0.5015
  664SOL     OW 1990   0.555   0.437   1.072 -1.3128  0.1784 -0.0293
  664SOL    HW1 1991   0.647   0.456   1.031  1.8983 -1.5535 -2.0876
  664SOL    HW2 1992   0.555   0.367   1.144 -0.5641  1.3358 -2.8392
  665SOL     OW 1993   1.276   0.018   2.810 -0.1341 -0.5306 -0.0498
  665SOL    HW1 1994   1.291   3.044   2.715  0.1023 -1.7548 -0.0894
  665SOL    HW2 1995   1.260   0.119   2.812  2.1882  2.5771  1.8512
  666SOL     OW 1996   0.166   0.424   2.492  0.5247 -0.1148  0.5033
  666SOL    HW1 1997   0.185   0.333   2.538 -1.5613 -0.9514 -2.2402
  666SOL    HW2 1998   0.093   0.397   2.427  0.5963  0.7136  1.4475
  667SOL     OW 1999   1.953   1.696   2.051  0.6336  0.1493 -0.5398
  667SOL    HW1 2000   1.980   1.655   2.142 -0.2589 -1.7034 -0.1556
  667SOL    HW2 2001   1.884   1.638   2.002 -2.8588 -1.3755 -1.4362
  668SOL     OW 2002   0.039   1.636   2.950 -0.5918 -0.3117  0.6684
  668SOL    HW1 2003   0.122   1.631   2.892  0.5410  0.2572  1.0070
  668SOL    HW2 2004   0.012   1.544   2.983 -0.7797  0.0655 -0.5131
  669SOL     OW 2005   2.294   2.573   2.439  0.6229  0.0707 -0.2457
  669SOL    HW1 2006   2.255   2.476   2.427  0.2909 -2.6005 -3.2122
  669SOL    HW2 2007   2.237   2.636   2.382 -0.9448  0.6561 -1.0759
  670SOL     OW 2008   2.436   0.968   2.414 -0.4520  0.3996 -0.0980
  670SOL    HW1 2009   2.468   0.919   2.334 -0.1888  2.3062  2.6809
  670SOL    HW2 2010   2.336   0.950   2.429  1.0688  0.2840  1.9362
  671SOL     OW 2011   2.394   1.167   0.266  0.1571  0.5927 -0.0678
  671SOL    HW1 2012   2.395   1.196   0.170  0.4315  0.1159  3.1765
  671SOL    HW2 2013   2.404   1.252   0.324 -1.0798 -0.6222  0.1644
  672SOL     OW 2014   2.642   1.170   2.413 -0.4655 -0.7331  0.0778
  672SOL    HW1 2015   2.694   1.172   2.503  0.6221  2.1906 -1.9004
  672SOL    HW2 2016   2.550   1.123   2.424 -0.8999  0.0133 -2.2663
  673SOL     OW 2017   2.502   1.063   1.479 -0.6301 -0.4153 -0.6387
  673SOL    HW1 2018   2.437   1.121   1.428  1.3478  0.8181 -1.4411
  673SOL    HW2 2019   2.525   0.971   1.434  0.8049 -0.7061 -0.6510
  674SOL     OW 2020   1.569   1.832   1.529 -0.4010  0.5393 -0.0353
  674SOL    HW1 2021   1.673   1.840   1.512  2.7798 -0.6175 -1.5084
  674SOL    HW2 2022   1.520   1.862   1.446 -0.6649  0.3093  0.5306
  675SOL     OW 2023   3.003   0.430   0.867  0.0791 -0.3957 -0.6688
  675SOL    HW1 2024   3.017   0.526   0.905 -0.9502 -1.8413  0.6759
  675SOL    HW2 2025   0.026   0.375   0.885 -2.7544  1.7491 -1.2610
  676SOL     OW 2026   2.083   0.969   1.052  0.6170  0.2064 -0.4000
  676SOL    HW1 2027   2.109   0.968   1.153  1.2538 -1.3458  1.9166
  676SOL    HW2 2028   2.070   0.868   1.031  0.3550 -1.2336  2.0218
  677SOL     OW 2029   1.665   1.795   2.119 -0.1063 -0.0946  0.1642
  677SOL    HW1 2030   1.563   1.797   2.086 -3.7939  3.4770 -1.9560
  677SOL    HW2 2031   1.715   1.752   2.040  2.3923  0.8743 -1.7582
  678SOL     OW 2032   3.033   1.557   1.038 -0.4557  0.2701 -0.6309
  678SOL    HW1 2033   0.010   1.627   1.104  3.2377 -1.9448 -0.1861
  678SOL    HW2 2034   2.943   1.591   0.999  0.7506 -0.8280 -0.2333
  679SOL     OW 2035   2.945   2.806   0.655  0.0624 -0.0001 -0.0968
  679SOL    HW1 2036   2.914   2.903   0.664 -1.3365 -1.1464  1.0755
  679SOL    HW2 2037   2.989   2.769   0.734 -0.8192  1.5213  1.7818
  680SOL     OW 2038   0.113   2.098   1.283 -0.1627  0.2650  0.1353
  680SOL    HW1 2039   0.189   2.037   1.244 -0.4080 -0.2134 -3.7989
  680SOL    HW2 2040   0.061   2.138   1.205  1.2997 -0.1561  0.9956
  681SOL     OW 2041   0.729   0.799   1.210  0.3942  0.5752  0.2773
  681SOL    HW1 2042   0.630   0.815   1.215  0.8113  3.7737 -0.0805
  681SOL    HW2 2043   0.745   0.699   1.192  0.9902 -3.8919  2.3996
  682SOL     OW 2044   1.860   2.694   0.652  0.1884  0.0367 -0.2107
  682SOL    HW1 2045   1.920   2.767   0.697  0.3647 -0.4568 -1.7270
  682SOL    HW2 2046   1.799   2.646   0.720 -1.7087 -1.6338 -0.3959
  683SOL     OW 2047   2.113   1.296   1.387 -0.1320 -0.0869  0.0800
  683SOL    HW1 2048   2.114   1.401   1.387  0.7096 -0.0038  0.4741
  683SOL    HW2 2049   2.198   1.264   1.340  2.0659  2.4625 -0.2496
  684SOL     OW 2050   0.174   1.646   1.693 -0.1042 -0.1392  0.2105
  684SOL    HW1 2051   0.260   1.610   1.721 -0.3062  0.2824 -1.1195
  684SOL    HW2 2052   0.094   1.586   1.714 -2.6612 -3.1653 -2.4779
  685SOL     OW 2053   2.267   1.681   0.202  0.4227 -0.1956  0.0499
  685SOL    HW1 2054   2.213   1.594   0.206  1.7932  1.6068  0.1098
  685SOL    HW2 2055   2.305   1.703   0.111 -3.0322 -2.4847 -0.1366
  686SOL     OW 2056   2.817   0.418   0.455 -0.1245  0.5475 -0.5777
  686SOL    HW1 2057   2.748   0.371   0.521  0.2903  0.1650  1.1813
  686SOL    HW2 2058   2.791   0.512   0.440  1.0281  1.3485  0.9592
  687SOL     OW 2059   1.382   3.013   3.058  0.9897 -0.3320  0.0498
  687SOL    HW1 2060   1.396   0.041   0.063 -1.7232  3.7743 -1.0574
  687SOL    HW2 2061   1.358   3.043   2.965  1.4401  0.6115 -0.4920
  688SOL     OW 2062   1.938   1.965   2.155 -0.2044 -0.1019  0.5625
  688SOL    HW1 2063   1.901   1.880   2.120 -1.7879  2.7382 -1.7569
  688SOL    HW2 2064   1.911   1.982   2.248 -0.0339 -1.4746 -2.4508
  689SOL     OW 2065   2.670   0.971   2.042 -0.3579  0.2619  0.3683
  689SOL    HW1 2066   2.582   0.993   1.996 -0.4259  0.2487 -2.4312
  689SOL    HW2 2067   2.748   1.010   1.989 -1.3582 -0.1241 -0.2023
  690SOL     OW 2068   2.169   1.149   0.869 -0.1646  0.0243  0.0051
  690SOL    HW1 2069   2.189   1.108   0.775  1.3168  0.6487 -0.0568
  690SOL    HW2 2070   2.145   1.081   0.943 -1.4280 -1.6861  3.0153
  691SOL     OW 2071   1.122   1.313   1.172 -0.2592 -0.2978  0.0812
  691SOL    HW1 2072   1.125   1.221   1.219  1.6191 -1.7519  0.1450
  691SOL    HW2 2073   1.029   1.356   1.179  1.0501  0.4225  2.0973
  692SOL     OW 2074   1.843   0.185   2.246  0.3351  0.8935 -0.2309
  692SOL    HW1 2075   1.798   0.122   2.183  0.8123  0.0368  2.6913
  692SOL    HW2 2076   1.851   0.275   2.197  0.3608  0.8944 -0.1758
  693SOL     OW 2077   0.151   1.302   2.810  0.2620 -0.3361  0.7411
  693SOL    HW1 2078   0.205   1.230   2.859  2.0229  1.3406  1.9773
  693SOL    HW2 2079   0.092   1.263   2.732 -0.9134  0.2634 -1.0046
  694SOL     OW 2080   2.172   2.681   0.828  0.2040 -0.1486 -0.0033
  694SOL    HW1 2081   2.254   2.698   0.767  2.0426 -1.0040 -1.7340
  694SOL    HW2 2082   2.093   2.743   0.814  0.2020 -0.7519 -0.4122
  695SOL     OW 2083   1.579   1.385   2.648 -0.1701  0.8297  0.1058
  695SOL    HW1 2084   1.615   1.300   2.600  0.1997  1.1127 -0.4051
  695SOL    HW2 2085   1.646   1.463   2.652 -1.4132  1.4007  2.5118
  696SOL     OW 2086   1.881   0.305   1.588  0.2081  0.4708 -0.2534
  696SOL    HW1 2087   1.856   0.382   1.653  2.2118  1.6422  0.5696
  696SOL    HW2 2088   1.802   0.241   1.575 -2.5789 -0.9154  0.9949
  697SOL     OW 2089   1.721   0.265   1.909 -0.2103 -0.1123 -0.0126
  697SOL    HW1 2090   1.726   0.188   1.978  0.8729  0.3579 -3.2155
  697SOL    HW2 2091   1.645   0.250   1.841  1.5660  1.2978 -1.5684
  698SOL     OW 2092   1.655   1.452   2.313  0.7151 -0.1392  0.0780
  698SOL    HW1 2093   1.645   1.399   2.401 -0.4096 -0.0254  1.2146
  698SOL    HW2 2094   1.662   1.556   2.328 -0.8700  1.2132 -1.1990
  699SOL     OW 2095   1.795   1.182   0.573  0.0263  0.3699  0.1584
  699SOL    HW1 2096   1.706   1.229   0.604 -3.3949 -0.6877  1.9878
  699SOL    HW2 2097   1.817   1.122   0.651  0.8674  1.8019 -1.5699
  700SOL     OW 2098   1.494   2.721   0.288 -0.8019 -0.2391  0.2790
  700SOL    HW1 2099   1.566   2.792   0.269 -0.8382 -1.6872  1.4198
  700SOL    HW2 2100   1.409   2.762   0.329 -1.2363  3.3696 -2.0643
  701SOL     OW 2101   0.215   0.195   1.457 -0.4499  0.2299  0.5365
  701SOL    HW1 2102   0.217   0.293   1.482 -0.4378 -1.2528 -0.7255
  701SOL    HW2 2103   0.287   0.147   1.508  1.0838  1.7243 -0.5405
  702SOL     OW 2104   1.680   2.729   1.361 -0.0433  0.3185  0.1462
  702SOL    HW1 2105   1.744   2.651   1.361 -0.7114  1.8103  0.2867
  702SOL    HW2 2106   1.584   2.708   1.386  0.6091 -0.5718  0.7411
  703SOL     OW 2107   2.457   2.863   2.324  0.7047  0.0364  0.0520
  703SOL    HW1 2108   2.497   2.847   2.412 -1.0290 -0.2922 -2.7101
  703SOL    HW2 2109   2.488   2.789   2.257  2.2516 -0.4015  0.1818
  704SOL     OW 2110   1.423   2.195   0.881 -0.3948  0.1250 -0.4180
  704SOL    HW1 2111   1.484   2.262   0.938 -0.4423  1.0860  0.9781
  704SOL    HW2 2112   1.344   2.241   0.843  0.3509 -2.4941  3.3508
  705SOL     OW 2113   0.224   1.610   2.195 -0.0820 -0.3461  0.2766
  705SOL    HW1 2114   0.298   1.661   2.237 -4.1411 -0.0770 -0.8439
  705SOL    HW2 2115   0.154   1.583   2.267  0.0978  3.0926 -0.0107
  706SOL     OW 2116   1.834   0.249   3.015  0.0089 -0.0504  0.6315
  706SOL    HW1 2117   1.764   0.206   2.954 -3.4696 -1.0540  0.0760
  706SOL    HW2 2118   1.822   0.215   0.052 -0.6414  0.0840 -1.4979
  707SOL     OW 2119   1.327   2.615   2.068  0.3445  0.0338  0.0035
  707SOL    HW1 2120   1.375   2.525   2.073 -0.4175  0.8848  0.0438
  707SOL    HW2 2121   1.387   2.680   2.014  0.7523  0.8238  1.2511
  708SOL     OW 2122   0.750   2.069   1.433 -0.2259 -0.5097 -0.6716
  708SOL    HW1 2123   0.759   1.971   1.447  2.6256 -0.4034  2.3661
  708SOL    HW2 2124   0.845   2.110   1.429  0.6961  2.1426  1.1065
  709SOL     OW 2125   2.641   0.629   1.913 -0.1430 -0.3070 -0.4576
  709SOL    HW1 2126   2.590   0.572   1.979 -1.1164 -0.1386  1.4742
  709SOL    HW2 2127   2.726   0.662   1.958 -3.1753 -0.6573  0.0839
  710SOL     OW 2128   2.891   0.172   1.423  0.1554  0.1221 -0.3325
  710SOL    HW1 2129   2.911   0.262   1.381 -1.1793  0.2096  1.1554
  710SOL    HW2 2130   2.927   0.164   1.520 -3.4219  2.7619 -2.6925
  711SOL     OW 2131   0.003   2.323   0.522 -0.3624  0.1485 -0.0960
  711SOL    HW1 2132   0.090   2.272   0.549  0.5813 -1.4336 -0.9001
  711SOL    HW2 2133   0.027   2.421   0.505  0.3522 -3.5584 -0.3982
  712SOL     OW 2134   0.258   2.944   2.471 -0.0446 -0.8731  0.0236
  712SOL    HW1 2135   0.338   2.951   2.536  2.2454 -1.2706  3.2628
  712SOL    HW2 2136   0.281   2.884   2.397 -0.5212  3.6685  2.7185
  713SOL     OW 2137   2.065   0.532   0.227 -0.1632 -0.3288 -0.4318
  713SOL    HW1 2138   2.043   0.492   0.138 -0.3309 -0.4869  2.9782
  713SOL    HW2 2139   1.993   0.591   0.260  1.2871 -0.3951  0.4508
  714SOL     OW 2140   1.674   2.009   0.418 -0.2541 -0.2077  0.0825
  714SOL    HW1 2141   1.679   2.103   0.381 -2.6408 -1.3255  1.5244
  714SOL    HW2 2142   1.753   1.979   0.468 -2.4564  4.0069 -0.6822
  715SOL     OW 2143   0.012   0.539   0.237 -0.6065  0.1324 -0.1644
  715SOL    HW1 2144   0.069   0.575   0.156  2.1150 -0.0834  1.3909
  715SOL    HW2 2145   0.067   0.530   0.328 -0.2428 -0.8796  0.5998
  716SOL     OW 2146   0.923   3.000   2.025  0.1566 -0.1870  0.3910
  716SOL    HW1 2147   1.019   2.970   2.006  0.3507  0.4299  2.4935
  716SOL    HW2 2148   0.878   2.930   2.084  0.8427  1.1025 -2.0929
  717SOL     OW 2149   0.300   0.633   2.756 -0.0642 -0.2459 -0.0130
  717SOL    HW1 2150   0.347   0.559   2.698  0.6557 -0.4278 -0.6076
  717SOL    HW2 2151   0.253   0.703   2.699  1.9426  1.2936 -0.5002
  718SOL     OW 2152   1.334   0.654   0.493  0.0537 -0.3393 -0.4824
  718SOL    HW1 2153   1.374   0.693   0.408 -0.8606 -2.8673  0.3745
  718SOL    HW2 2154   1.232   0.637   0.490 -0.9821  1.1829 -1.6320
  719SOL     OW 2155   2.446   2.123   2.809 -0.2417 -0.3161  0.4743
  719SOL    HW1 2156   2.428   2.069   2.724  0.1996 -0.3326 -0.2461
  719SOL    HW2 2157   2.407   2.215   2.798 -1.7164 -0.7441 -2.7523
  720SOL     OW 2158   1.419   0.849   1.800  0.0629  0.2497 -0.3430
  720SOL    HW1 2159   1.496   0.870   1.740  0.4993 -0.6223 -1.0517
  720SOL    HW2 2160   1.419   0.747   1.825 -0.2608 -1.3186  0.7055
  721SOL     OW 2161   0.020   2.823   1.090  0.1756  0.2961 -0.1789
  721SOL    HW1 2162   3.017   2.902   1.101  1.1907  0.1754 -1.3896
  721SOL    HW2 2163   0.091   2.839   1.020  0.5028 -1.8650 -0.9091
  722SOL     OW 2164   1.210   1.997   2.631  0.4760 -0.2136  0.0992
  722SOL    HW1 2165   1.289   2.063   2.640 -1.0282  1.5612  1.7608
  722SOL    HW2 2166   1.211   1.950   2.542 -2.6863  0.7672  0.6289
  723SOL     OW 2167   1.691   0.501   0.545 -0.1127 -0.2383  0.0403
  723SOL    HW1 2168   1.680   0.417   0.484  1.1519 -1.3033 -1.6766
  723SOL    HW2 2169   1.703   0.474   0.642 -0.6597 -0.5781 -1.6583
  724SOL     OW 2170   0.559   2.098   2.740 -0.5103  0.0357 -0.1893
  724SOL    HW1 2171   0.527   2.005   2.753  0.2928  4.0848 -0.9300
  724SOL    HW2 2172   0.655   2.118   2.771  0.3512  2.8288 -3.8187
  725SOL     OW 2173   2.989   0.634   1.387 -0.7977  0.0148  0.6933
  725SOL    HW1 2174   2.907   0.676   1.340 -0.6358 -0.9507 -2.5719
  725SOL    HW2 2175   3.042   0.708   1.434  0.5295 -2.1638  1.1229
  726SOL     OW 2176   2.006   2.896   0.743  0.1999  0.4646 -0.3833
  726SOL    HW1 2177   2.010   2.959   0.666 -0.4415 -1.4481  0.9750
  726SOL    HW2 2178   1.979   2.945   0.830 -0.2353 -1.9402 -0.7441
  727SOL     OW 2179   1.857   1.331   1.936  0.5402  0.3110 -0.2502
  727SOL    HW1 2180   1.779   1.393   1.906 -2.1122 -2.2920 -0.7608
  727SOL    HW2 2181   1.818   1.239   1.944 -1.3029 -2.9390 -1.5631
  728SOL     OW 2182   1.409   2.745   1.427 -0.2461 -0.9033 -0.7555
  728SOL    HW1 2183   1.417   2.840   1.469 -2.7427 -0.9847  4.0409
  728SOL    HW2 2184   1.340   2.741   1.357  0.9518 -0.2875  1.2079
  729SOL     OW 2185   1.851   0.416   2.104 -0.2862  0.0109  0.5375
  729SOL    HW1 2186   1.945   0.451   2.107 -0.2674 -1.4111  0.9565
  729SOL    HW2 2187   1.824   0.384   2.010  0.0688 -0.1682 -2.3138
  730SOL     OW 2188   0.486   0.961   1.120 -0.1014  0.2601  0.3579
  730SOL    HW1 2189   0.450   0.923   1.209 -2.4178  0.4628  0.8224
  730SOL    HW2 2190   0.432   1.039   1.088  1.2761 -0.1460  0.8990
  731SOL     OW 2191   0.323   0.089   0.236 -0.3394 -0.2656  0.1681
  731SOL    HW1 2192   0.254   0.094   0.311  2.2280  3.2192  0.5626
  731SOL    HW2 2193   0.384   0.172   0.234  1.2759  3.2809  0.2567
  732SOL     OW 2194   0.636   0.685   0.381  0.0316 -0.0699 -0.9169
  732SOL    HW1 2195   0.624   0.633   0.472  0.2996 -2.3677  3.1114
  732SOL    HW2 2196   0.578   0.769   0.381  0.7058  0.0893 -0.2011
  733SOL     OW 2197   1.331   1.595   2.090 -0.0477  0.6529 -0.0239
  733SOL    HW1 2198   1.366   1.689   2.073 -0.4489 -2.8410 -1.1814
  733SOL    HW2 2199   1.399   1.523   2.068 -2.5269 -1.8343 -1.2701
  734SOL     OW 2200   3.052   2.286   2.128  0.2111 -0.2308  0.5017
  734SOL    HW1 2201   0.028   2.323   2.038  0.1045 -1.4534  0.7358
  734SOL    HW2 2202   3.001   2.359   2.180  0.7035 -0.0723 -0.1072
  735SOL     OW 2203   1.840   0.259   1.141  0.6435 -0.2493 -0.8481
  735SOL    HW1 2204   1.924   0.225   1.093 -2.0479  0.4438  0.7563
  735SOL    HW2 2205   1.754   0.225   1.103  4.3366 -0.6215  2.3603
  736SOL     OW 2206   0.893   1.226   0.029 -0.1314  0.0673  0.5094
  736SOL    HW1 2207   0.806   1.289   0.032 -2.5363  1.3716  1.7668
  736SOL    HW2 2208   0.978   1.279   0.042 -0.5981 -3.2289 -2.5194
  737SOL     OW 2209   3.042   0.797   0.612  0.2126  0.4962  0.3579
  737SOL    HW1 2210   0.085   0.774   0.606 -1.3528  1.6377 -0.6962
  737SOL    HW2 2211   2.989   0.769   0.533  3.3237  0.1163 -1.2363
  738SOL     OW 2212   0.532   2.255   1.462  0.3234 -0.3113  0.6022
  738SOL    HW1 2213   0.583   2.333   1.502  2.3172  0.1918 -1.4529
  738SOL    HW2 2214   0.605   2.195   1.425  1.2583  3.2346  0.6245
  739SOL     OW 2215   1.199   2.662   2.974  0.3547 -0.0925  0.3204
  739SOL    HW1 2216   1.180   2.592   2.899 -0.5947 -2.6202 -0.4646
  739SOL    HW2 2217   1.292   2.642   3.017  2.0193  1.1523 -0.4851
  740SOL     OW 2218   1.911   2.529   1.364 -0.0781 -0.1163 -0.0250
  740SOL    HW1 2219   1.948   2.503   1.457  2.5786 -0.0429  1.0660
  740SOL    HW2 2220   1.887   2.447   1.306 -0.2125  0.1543 -1.1462
  741SOL     OW 2221   2.225   0.410   0.760 -0.5752 -0.1137  0.3949
  741SOL    HW1 2222   2.224   0.515   0.776  0.6925  2.8130 -0.9266
  741SOL    HW2 2223   2.285   0.362   0.825 -1.4448  0.3158  0.9347
  742SOL     OW 2224   1.126   2.403   2.301 -0.1933  0.3538  0.4879
  742SOL    HW1 2225   1.074   2.371   2.217  1.3202  0.6296 -1.3498
  742SOL    HW2 2226   1.066   2.423   2.381  3.3202 -3.1187 -0.5654
  743SOL     OW 2227   2.485   0.864   1.889 -0.0143 -0.6826 -0.0017
  743SOL    HW1 2228   2.397   0.852   1.837 -2.3082 -2.1851  0.8065
  743SOL    HW2 2229   2.527   0.772   1.895 -1.2309  1.7462 -0.6068
  744SOL     OW 2230   2.088   0.704   1.016 -0.3383  0.7290  0.3637
  744SOL    HW1 2231   2.170   0.688   0.964 -0.7626  0.3819  0.5976
  744SOL    HW2 2232   2.009   0.678   0.954  1.2016 -0.3645 -2.2465
  745SOL     OW 2233   2.310   1.208   1.778 -0.7001 -0.3191 -0.3171
  745SOL    HW1 2234   2.300   1.288   1.717 -0.9934 -1.2239 -0.1332
  745SOL    HW2 2235   2.392   1.153   1.748  0.5181 -1.9659  0.0283
  746SOL     OW 2236   1.306   1.741   0.589 -0.0428  0.6660  0.3838
  746SOL    HW1 2237   1.385   1.801   0.605 -0.2987  0.6295 -1.0158
  746SOL    HW2 2238   1.268   1.698   0.667  1.9197 -0.2266 -2.6032
  747SOL     OW 2239   1.769   1.775   1.045  0.6432 -0.0306 -0.6071
  747SOL    HW1 2240   1.681   1.789   0.999  1.0276  1.5518  2.1612
  747SOL    HW2 2241   1.778   1.672   1.037  0.8621 -0.1838  0.5774
  748SOL     OW 2242   0.318   2.734   0.198 -0.4720 -0.0326  0.3901
  748SOL    HW1 2243   0.379   2.813   0.208 -1.9897 -1.0442  0.2506
  748SOL    HW2 2244   0.297   2.709   0.100  1.2293 -1.2714 -0.9938
  749SOL     OW 2245   0.142   0.892   2.378 -0.2187 -0.3297 -0.0502
  749SOL    HW1 2246   0.158   0.861   2.285 -0.8481  1.7068  4.0244
  749SOL    HW2 2247   0.070   0.964   2.384 -0.6593  1.3727 -2.2664
  750SOL     OW 2248   1.499   2.767   1.915  0.7969  0.4960  0.6989
  750SOL    HW1 2249   1.445   2.833   1.859 -0.1576 -0.8289 -0.2328
  750SOL    HW2 2250   1.587   2.772   1.870 -1.3344  1.8843 -2.1582
  751SOL     OW 2251   2.636   0.581   0.137  0.0966  0.2548  0.1107
  751SOL    HW1 2252   2.631   0.615   0.232  1.5615  1.2346  1.0330
  751SOL    HW2 2253   2.626   0.483   0.126  1.5296  1.6626 -1.2632
  752SOL     OW 2254   0.125   1.986   0.765 -0.7888  0.3001 -0.9705
  752SOL    HW1 2255   0.180   1.981   0.679  2.2587 -1.9678  1.6106
  752SOL    HW2 2256   0.087   2.076   0.772 -0.3187 -3.3070 -0.0939
  753SOL     OW 2257   1.109   0.091   0.996  0.1300  0.0684 -0.2477
  753SOL    HW1 2258   1.174   0.072   0.915  0.8575  0.8599 -0.9395
  753SOL    HW2 2259   1.018   0.126   0.962  0.0826 -1.0958  1.1681
  754SOL     OW 2260   0.587   0.078   2.184  0.4036 -0.0057 -0.1582
  754SOL    HW1 2261   0.509   0.128   2.227  1.1522 -0.2090  0.7260
  754SOL    HW2 2262   0.600   3.039   2.221  0.6122 -1.3322 -1.5042
  755SOL     OW 2263   1.784   1.018   0.029  0.3625 -0.5727 -0.1524
  755SOL    HW1 2264   1.723   1.058   3.013  0.5476  3.9842  0.5014
  755SOL    HW2 2265   1.802   0.923   0.008 -1.8856  0.9833  1.7163
  756SOL     OW 2266   2.092   2.158   2.586 -0.3243  0.0017  0.2025
  756SOL    HW1 2267   2.094   2.052   2.573 -3.4114 -1.0221 -2.3399
  756SOL    HW2 2268   2.079   2.173   2.689  0.5272 -0.4982  4.5964
  757SOL     OW 2269   1.798   0.615   0.282  0.1578 -1.0644 -0.0773
  757SOL    HW1 2270   1.749   0.699   0.259 -2.9607 -1.4113 -3.4405
  757SOL    HW2 2271   1.782   0.587   0.379 -3.4493 -0.5289  0.8614
  758SOL     OW 2272   1.775   0.419   1.340 -0.1931  0.3719  0.2675
  758SOL    HW1 2273   1.785   0.351   1.263  0.2949  0.9090 -2.3197
  758SOL    HW2 2274   1.815   0.376   1.422 -0.5103  2.4692  0.2157
  759SOL     OW 2275   2.706   0.508   1.218 -0.4781  0.0025 -0.0366
  759SOL    HW1 2276   2.631   0.469   1.277 -1.6378 -1.0847  1.8362
  759SOL    HW2 2277   2.682   0.527   1.119  0.7617  0.9508  2.0345
  760SOL     OW 2278   2.330   1.166   1.285 -0.2713  0.0470  0.0900
  760SOL    HW1 2279   2.364   1.163   1.187 -1.2835  0.7097 -0.0553
  760SOL    HW2 2280   2.271   1.086   1.305  2.4500  1.4622  0.0450
  761SOL     OW 2281   0.347   0.614   0.310 -0.2379 -0.4311  0.2306
  761SOL    HW1 2282   0.443   0.615   0.345  1.5880  1.4720  1.5315
  761SOL    HW2 2283   0.282   0.571   0.371  1.6898  0.5128 -3.1158
  762SOL     OW 2284   1.271   1.934   0.897 -0.1882 -0.3466 -0.7610
  762SOL    HW1 2285   1.206   1.983   0.831 -1.6647 -0.1477 -0.7527
  762SOL    HW2 2286   1.220   1.869   0.954 -1.1279  1.2615  1.8054
  763SOL     OW 2287   1.150   1.251   1.840  0.1681  0.7527  0.4502
  763SOL    HW1 2288   1.125   1.321   1.775  0.1094 -2.5587  1.5496
  763SOL    HW2 2289   1.174   1.162   1.796 -1.4525 -2.5514 -0.3549
  764SOL     OW 2290   0.020   1.922   2.578 -0.7149 -0.4305  0.0068
  764SOL    HW1 2291   3.003   1.942   2.517 -0.2588 -0.6777 -1.9821
  764SOL    HW2 2292   3.048   1.899   2.672  1.7859  2.0204 -0.3129
  765SOL     OW 2293   1.231   2.670   1.207  0.0628 -0.0431 -0.4553
  765SOL    HW1 2294   1.308   2.632   1.152 -0.3057  1.6129  0.0589
  765SOL    HW2 2295   1.223   2.767   1.185  1.8243 -3.6748 -2.6904
  766SOL     OW 2296   2.892   2.428   2.480  0.2334 -0.0646 -0.4165
  766SOL    HW1 2297   2.899   2.503   2.549 -0.9155  1.4516 -0.3923
  766SOL    HW2 2298   2.890   2.339   2.528  0.4136  0.1301 -1.0635
  767SOL     OW 2299   1.045   0.986   2.226 -0.1505  0.4751  0.2439
  767SOL    HW1 2300   1.078   0.951   2.314 -1.0439 -0.6091 -0.1392
  767SOL    HW2 2301   1.127   0.999   2.165 -3.3863 -1.5732  0.5630
  768SOL     OW 2302   1.031   2.075   2.972  0.1078  0.0032  0.4025
  768SOL    HW1 2303   1.109   2.134   2.942 -0.8800 -1.5056  1.5272
  768SOL    HW2 2304   1.043   1.979   2.944 -0.6056  1.0694  1.0014
  769SOL     OW 2305   0.430   2.101   0.941 -0.0227  0.1067  0.0206
  769SOL    HW1 2306   0.393   2.015   0.905  0.7605  1.4590 -0.9649
  769SOL    HW2 2307   0.490   2.093   1.023  0.4178 -1.0991 -0.0717
  770SOL     OW 2308   1.703   0.836   2.609  0.0393 -0.0096 -0.2837
  770SOL    HW1 2309   1.793   0.794   2.638 -1.5131 -2.3151  2.4739
  770SOL    HW2 2310   1.652   0.878   2.690 -2.5089  0.0563  0.5716
  771SOL     OW 2311   0.241   0.052   2.112 -0.0331  0.0597  0.3239
  771SOL    HW1 2312   0.260   3.022   2.060  1.5949  0.0438  0.6098
  771SOL    HW2 2313   0.208   0.116   2.037 -1.0983 -0.8991 -2.4651
  772SOL     OW 2314   2.104   2.612   2.082 -0.5753  0.0617  0.4509
  772SOL    HW1 2315   2.129   2.520   2.116 -2.1218 -0.4472  0.9380
  772SOL    HW2 2316   2.153   2.648   2.002 -1.1987  0.5522  1.9151
  773SOL     OW 2317   0.978   1.891   1.522 -1.1488 -0.2129  0.3509
  773SOL    HW1 2318   0.894   1.834   1.534 -0.5618  0.0970  2.3178
  773SOL    HW2 2319   0.993   1.960   1.591 -0.4529  0.6994 -1.5818
  774SOL     OW 2320   1.144   0.178   1.839  0.1891 -0.1222 -0.1077
  774SOL    HW1 2321   1.164   0.207   1.933 -2.4979  1.5696  0.7906
  774SOL    HW2 2322   1.060   0.222   1.802 -0.2935  0.8526  2.3964
  775SOL     OW 2323   2.001   2.968   2.950 -0.2185  0.1066  0.2558
  775SOL    HW1 2324   1.994   3.054   2.899 -0.5951  4.4918 -1.1310
  775SOL    HW2 2325   1.947   2.899   2.900 -1.4872  0.9269  0.3140
  776SOL     OW 2326   2.801   0.744   2.274  0.1500  0.0988 -0.5569
  776SOL    HW1 2327   2.792   0.693   2.360  1.9648 -1.3941  1.9724
  776SOL    HW2 2328   2.814   0.844   2.288 -0.2351 -1.8497 -2.3464
  777SOL     OW 2329   2.455   2.158   2.162  0.0687  0.0122 -0.1109
  777SOL    HW1 2330   2.378   2.136   2.099  1.2204 -1.0747 -0.5388
  777SOL    HW2 2331   2.526   2.222   2.119 -0.0592  2.8366 -1.8359
  778SOL     OW 2332   1.668   1.126   2.004  0.3182  0.5887  0.1768
  778SOL    HW1 2333   1.636   1.218   2.033 -1.1937 -1.4279 -1.9129
  778SOL    HW2 2334   1.604   1.056   2.053 -1.5218 -0.4412 -0.7862
  779SOL     OW 2335   2.596   0.366   0.651  0.0188 -0.0224 -0.0864
  779SOL    HW1 2336   2.513   0.310   0.625 -0.5492  0.0347  0.2323
  779SOL    HW2 2337   2.573   0.466   0.657  2.6454  0.1844  0.7079
  780SOL     OW 2338   2.404   0.358   0.181 -0.4064 -0.8093  0.8283
  780SOL    HW1 2339   2.492   0.309   0.167 -0.4987  0.5356  2.5282
  780SOL    HW2 2340   2.414   0.429   0.256 -2.2785  0.0651 -0.8872
  781SOL     OW 2341   0.373   2.448   1.297 -0.3243 -0.0508 -0.1630
  781SOL    HW1 2342   0.447   2.376   1.320  2.5946 -0.0885 -2.4759
  781SOL    HW2 2343   0.281   2.404   1.286 -1.4279 -3.5522  0.0963
  782SOL     OW 2344   2.111   2.396   2.999 -0.5277 -0.5560  0.3271
  782SOL    HW1 2345   2.095   2.496   3.004 -2.0462 -1.4765  0.7554
  782SOL    HW2 2346   2.198   2.367   3.043 -0.4844 -4.8854 -0.9909
  783SOL     OW 2347   0.665   1.221   1.261  0.6718 -0.5834 -0.2644
  783SOL    HW1 2348   0.700   1.165   1.183 -1.9991  0.9725 -0.0614
  783SOL    HW2 2349   0.661   1.158   1.342  3.8701 -0.8282 -0.9654
  784SOL     OW 2350   1.304   0.502   2.612 -0.4986 -0.0258 -0.0035
  784SOL    HW1 2351   1.212   0.494   2.565  0.8087 -1.9875  0.4932
  784SOL    HW2 2352   1.362   0.577   2.574 -1.6150  3.6355 -0.1372
  785SOL     OW 2353   2.274   0.350   1.189 -0.2197  0.2727 -0.3000
  785SOL    HW1 2354   2.320   0.309   1.270 -0.5100  0.4103  0.7346
  785SOL    HW2 2355   2.236   0.445   1.204 -0.6350 -1.7055  0.0431
  786SOL     OW 2356   1.066   2.099   1.697  0.6616  0.6052 -0.6687
  786SOL    HW1 2357   1.064   2.044   1.782  0.0792  1.2106  2.2918
  786SOL    HW2 2358   1.153   2.085   1.647 -0.6738  2.1568  2.2983
  787SOL     OW 2359   1.647   0.522   1.082  0.0928  0.2229  0.6807
  787SOL    HW1 2360   1.664   0.619   1.075 -1.6617  0.5407  3.0536
  787SOL    HW2 2361   1.672   0.492   1.178 -0.0927 -0.1363  1.2493
  788SOL     OW 2362   0.252   0.734   0.629  0.2336  0.2164  0.1208
  788SOL    HW1 2363   0.273   0.716   0.727  1.1575 -0.1493  1.8250
  788SOL    HW2 2364   0.327   0.787   0.587 -1.0142  0.4621  2.6265
  789SOL     OW 2365   0.394   1.962   1.430 -0.5370  0.8682  0.4028
  789SOL    HW1 2366   0.416   2.059   1.433 -0.1835  0.9199 -2.0039
  789SOL    HW2 2367   0.333   1.939   1.505  1.0863  1.1849 -0.5043
  790SOL     OW 2368   0.926   0.692   2.156 -0.2395 -0.4405  0.1032
  790SOL    HW1 2369   0.962   0.760   2.221  1.9316 -0.0048 -0.2686
  790SOL    HW2 2370   0.889   0.734   2.068 -2.4759 -0.9971 -2.3420
  791SOL     OW 2371   1.857   0.625   0.902  0.0366  0.6283  0.5112
  791SOL    HW1 2372   1.778   0.688   0.928 -1.6508  1.6568 -1.3259
  791SOL    HW2 2373   1.832   0.531   0.860  0.1901 -4.3937  0.3692
  792SOL     OW 2374   1.149   2.297   1.982 -0.4892 -0.7258 -0.0110
  792SOL    HW1 2375   1.129   2.398   1.984  1.6864  0.8171  3.9093
  792SOL    HW2 2376   1.069   2.241   2.018 -1.4913  0.1711  0.3867
  793SOL     OW 2377   1.048   0.566   0.511  0.5580 -0.0322 -0.0983
  793SOL    HW1 2378   1.003   0.657   0.500  2.7337  0.6268 -2.0670
  793SOL    HW2 2379   1.034   0.520   0.602  1.5558 -2.0811  1.3817
  794SOL     OW 2380   0.685   1.055   1.919  0.0789  0.2494  0.5557
  794SOL    HW1 2381   0.635   1.140   1.948 -1.8085  0.4198 -1.1181
  794SOL    HW2 2382   0.779   1.078   1.884  2.8470 -1.1155 -0.5633
  795SOL     OW 2383   0.255   2.011   2.602 -0.1488  0.3162  0.1907
  795SOL    HW1 2384   0.161   1.969   2.581 -0.4327  0.2027 -2.5791
  795SOL    HW2 2385   0.247   2.112   2.604  0.7336 -0.2550 -1.9912
  796SOL     OW 2386   2.500   0.830   2.197 -0.3002 -0.0367 -0.1958
  796SOL    HW1 2387   2.416   0.840   2.139 -0.3803 -0.5570 -0.9280
  796SOL    HW2 2388   2.583   0.863   2.142 -0.8731 -2.4389 -2.2595
  797SOL     OW 2389   2.726   2.140   2.731 -0.5116  0.3839 -0.9214
  797SOL    HW1 2390   2.627   2.167   2.719 -2.1264  0.7581 -1.3015
  797SOL    HW2 2391   2.774   2.205   2.797  1.3998  1.1054 -0.8039
  798SOL     OW 2392   0.115   2.616   2.127  0.0293  0.0238  0.0239
  798SOL    HW1 2393   0.075   2.656   2.041  2.3886 -0.2038 -2.5534
  798SOL    HW2 2394   0.137   2.516   2.124  1.8031 -1.7659  0.2232
  799SOL     OW 2395   0.169   2.589   2.476  0.0583 -0.8309  0.0107
  799SOL    HW1 2396   0.255   2.537   2.500  1.9523  0.2049 -1.4528
  799SOL    HW2 2397   0.083   2.535   2.478 -1.2795  0.1057 -1.4721
  800SOL     OW 2398   0.239   2.149   0.306 -0.2958 -0.1424  0.0490
  800SOL    HW1 2399   0.213   2.210   0.227 -0.0449  1.6735 -1.4466
  800SOL    HW2 2400   0.329   2.097   0.280  1.0890  0.1866 -1.6718
  801SOL     OW 2401   1.811   1.510   1.020  0.0667 -0.4321  0.1675
  801SOL    HW1 2402   1.763   1.521   0.927  0.1558  1.0200 -2.7514
  801SOL    HW2 2403   1.868   1.423   1.023 -1.3501 -0.4478 -1.6446
  802SOL     OW 2404   0.089   1.331   0.665 -0.0924 -0.4670  0.3126
  802SOL    HW1 2405   0.185   1.364   0.658  0.9881  0.2020  1.4071
  802SOL    HW2 2406   0.088   1.237   0.699  0.7565  2.1375  1.1383
  803SOL     OW 2407   1.078   1.896   2.146 -0.1597  0.3717  0.4708
  803SOL    HW1 2408   1.169   1.949   2.162  0.6321  0.4433  0.1404
  803SOL    HW2 2409   1.014   1.929   2.220  1.4637  0.6683  0.4033
  804SOL     OW 2410   1.436   1.554   0.417 -0.3934 -0.1116  0.0943
  804SOL    HW1 2411   1.533   1.579   0.423 -1.1549 -1.3919  2.1630
  804SOL    HW2 2412   1.394   1.612   0.492 -1.7363  2.1908 -0.9830
  805SOL     OW 2413   2.381   1.251   0.006  0.0057 -0.3499  0.1986
  805SOL    HW1 2414   2.339   1.324   3.008 -2.0525 -1.8200  1.5678
  805SOL    HW2 2415   2.390   1.163   3.014 -1.7216  0.3471  2.1819
  806SOL     OW 2416   0.503   2.824   0.545 -0.3798  0.1596 -0.3769
  806SOL    HW1 2417   0.585   2.888   0.542  1.2413 -0.6659 -0.5939
  806SOL    HW2 2418   0.535   2.732   0.515 -0.1494 -2.6538  0.9250
  807SOL     OW 2419   2.046   1.775   2.783 -0.2480 -0.2460 -0.2790
  807SOL    HW1 2420   2.038   1.796   2.884  1.6437 -1.7383  0.2819
  807SOL    HW2 2421   1.958   1.734   2.745 -1.7717  0.4700 -4.2417
  808SOL     OW 2422   0.948   1.555   0.922  0.3494 -0.2461 -0.3447
  808SOL    HW1 2423   0.911   1.463   0.908 -0.6369  2.8871  1.5809
  808SOL    HW2 2424   0.914   1.620   0.848 -0.2252  3.3319  2.2991
  809SOL     OW 2425   2.569   0.642   0.616 -0.2973 -0.5917 -0.4681
  809SOL    HW1 2426   2.607   0.659   0.706 -0.4205  0.6428 -4.1343
  809SOL    HW2 2427   2.628   0.688   0.546 -2.8347 -1.3597  2.0375
  810SOL     OW 2428   0.864   1.273   0.484  0.5002  0.1687  0.5053
  810SOL    HW1 2429   0.801   1.314   0.556 -2.3114  1.2985  0.1427
  810SOL    HW2 2430   0.951   1.331   0.468  0.5191  2.2301 -1.9742
  811SOL     OW 2431   1.602   2.403   1.065 -0.2873 -0.3802 -0.4249
  811SOL    HW1 2432   1.699   2.373   1.095  2.0373 -2.0628  1.2969
  811SOL    HW2 2433   1.535   2.382   1.135  0.1327 -1.5026  0.2073
  812SOL     OW 2434   1.101   2.470   1.708 -0.3215  0.2612 -0.1466
  812SOL    HW1 2435   1.138   2.521   1.789  0.2590 -2.7836 -0.7180
  812SOL    HW2 2436   1.017   2.415   1.727 -2.9565 -0.3308  3.9479
  813SOL     OW 2437   0.786   2.823   1.704  0.4171  0.4973  0.6152
  813SOL    HW1 2438   0.789   2.924   1.717 -1.7322  1.5733  1.8436
  813SOL    HW2 2439   0.871   2.784   1.668  0.4919  0.0405  2.5717
  814SOL     OW 2440   0.874   2.573   2.372 -0.3318  0.0623 -0.2928
  814SOL    HW1 2441   0.908   2.509   2.442  0.1626  0.8957 -0.8055
  814SOL    HW2 2442   0.784   2.607   2.413  0.4560 -1.4633  1.7336
  815SOL     OW 2443   0.730   0.257   2.444  0.0619  0.4767 -0.1615
  815SOL    HW1 2444   0.815   0.201   2.427  2.4946 -2.2339 -0.3534
  815SOL    HW2 2445   0.706   0.329   2.370  4.5732  1.5575 -1.3165
  816SOL     OW 2446   2.344   0.333   2.974  0.2053  0.0004  0.0648
  816SOL    HW1 2447   2.262   0.383   2.939  2.0061  0.1298 -0.3105
  816SOL    HW2 2448   2.357   0.359   0.016  0.9003 -0.3311  0.0161
  817SOL     OW 2449   2.130   3.020   2.016  0.1426  0.0880 -0.6810
  817SOL    HW1 2450   2.217   3.012   2.068 -0.3236  0.0562  0.0044
  817SOL    HW2 2451   2.147   0.025   1.937 -1.0505  0.2652 -1.3120
  818SOL     OW 2452   1.256   0.756   0.216  0.3961 -0.3783  0.7130
  818SOL    HW1 2453   1.302   0.832   0.159  2.1373  0.0663 -1.3389
  818SOL    HW2 2454   1.267   0.671   0.170 -1.9068 -1.1573 -1.1934
  819SOL     OW 2455   1.748   1.701   2.344  0.7072  0.7366 -0.0937
  819SOL    HW1 2456   1.713   1.746   2.259 -1.8518 -1.9425 -1.2815
  819SOL    HW2 2457   1.850   1.699   2.335 -1.2874 -3.0761  1.3604
  820SOL     OW 2458   0.160   1.741   0.110 -0.0266  0.3741 -1.1603
  820SOL    HW1 2459   0.125   1.694   0.028  1.4547  1.6092  1.8258
  820SOL    HW2 2460   0.262   1.727   0.116  3.2764 -2.0961 -0.2483
  821SOL     OW 2461   0.295   2.950   0.681 -0.0461  0.0391 -0.0374
  821SOL    HW1 2462   0.358   2.910   0.613  1.7965  1.1795  0.9205
  821SOL    HW2 2463   0.287   2.896   0.766 -0.9150 -0.8213  1.5422
  822SOL     OW 2464   2.339   2.373   2.773  0.4469 -0.3779  0.3234
  822SOL    HW1 2465   2.238   2.385   2.786  1.1184 -0.5502  2.1455
  822SOL    HW2 2466   2.383   2.463   2.786  2.5273 -0.0392  1.8347
  823SOL     OW 2467   1.259   0.046   2.198  0.1778  0.3881 -0.5985
  823SOL    HW1 2468   1.325   3.043   2.147  1.4855  0.2341 -0.6343
  823SOL    HW2 2469   1.197   3.054   2.263 -0.1794 -0.1941  0.7940
  824SOL     OW 2470   2.648   2.377   2.054  0.0290 -0.0590 -0.5765
  824SOL    HW1 2471   2.701   2.419   2.132  1.8672 -1.7792  1.2757
  824SOL    HW2 2472   2.558   2.427   2.048 -1.5325  1.4804  0.0325
  825SOL     OW 2473   2.854   1.774   2.400 -0.0063  0.1582 -0.0210
  825SOL    HW1 2474   2.760   1.811   2.396  0.2898 -0.5808 -1.2613
  825SOL    HW2 2475   2.914   1.840   2.351 -0.8722 -3.1899  2.0727
  826SOL     OW 2476   2.176   0.938   2.466 -0.3267  0.0607 -0.1704
  826SOL    HW1 2477   2.128   0.851   2.455  0.8573  0.1467 -2.5687
  826SOL    HW2 2478   2.115   1.019   2.462  0.5545 -1.4467  2.0648
  827SOL     OW 2479   2.638   2.096   1.347 -0.2589  0.0090 -0.5998
  827SOL    HW1 2480   2.624   2.167   1.421  1.6742  1.1234  0.5965
  827SOL    HW2 2481   2.558   2.094   1.281  1.7509 -0.8602  1.0935
  828SOL     OW 2482   0.070   0.030   1.746  0.0597 -0.4599 -0.0165
  828SOL    HW1 2483   0.131   3.031   1.808  5.3949 -0.5220  3.1110
  828SOL    HW2 2484   0.102   0.126   1.731 -1.5390  1.6180  0.9773
  829SOL     OW 2485   0.956   2.136   2.576 -0.1681  0.3938  0.2278
  829SOL    HW1 2486   1.042   2.086   2.596 -1.1306  3.1111 -1.0581
  829SOL    HW2 2487   0.889   2.133   2.653 -3.4354 -0.0358  0.0491
  830SOL     OW 2488   0.992   0.891   1.052  0.2827  0.6057  0.3159
  830SOL    HW1 2489   0.936   0.810   1.069 -0.8030  0.8255  0.0119
  830SOL    HW2 2490   0.944   0.962   1.106  2.4529 -1.1304 -1.3607
  831SOL     OW 2491   2.770   1.448   3.001 -0.2575  0.2775 -0.2065
  831SOL    HW1 2492   2.764   1.535   3.055 -0.2480  1.4958  1.1750
  831SOL    HW2 2493   2.862   1.404   3.015  0.6586  0.9669 -0.4502
  832SOL     OW 2494   1.740   2.248   2.178 -0.5264  0.1315  0.8253
  832SOL    HW1 2495   1.811   2.255   2.253 -1.8561  0.6704  1.2671
  832SOL    HW2 2496   1.782   2.275   2.090  0.5938  0.5036  0.0767
  833SOL     OW 2497   0.957   0.441   2.028  0.5162 -0.4231  0.8007
  833SOL    HW1 2498   0.965   0.519   2.095 -1.2984  1.0434  2.1157
  833SOL    HW2 2499   0.936   0.353   2.077 -0.4931 -1.8713  3.7471
  834SOL     OW 2500   0.101   0.199   1.221 -0.2872 -0.0828  0.2365
  834SOL    HW1 2501   0.028   0.269   1.233  1.9708 -0.8709 -2.0797
  834SOL    HW2 2502   0.157   0.197   1.305 -2.5995 -1.5527 -2.3653
  835SOL     OW 2503   2.488   0.752   3.030  0.3534 -0.2053  0.3756
  835SOL    HW1 2504   2.540   0.700   0.043  1.2219  2.4319  0.2498
  835SOL    HW2 2505   2.475   0.689   2.948 -2.0633 -1.9082  0.1294
  836SOL     OW 2506   1.277   2.048   0.293 -0.0376  0.1400  0.7746
  836SOL    HW1 2507   1.356   1.985   0.308 -0.8059  0.3137  0.8717
  836SOL    HW2 2508   1.198   2.019   0.349 -0.9817 -1.2823  1.2632
  837SOL     OW 2509   1.681   1.648   0.454 -0.5470  0.2357  0.0109
  837SOL    HW1 2510   1.758   1.640   0.517 -1.0280 -0.7913 -1.4971
  837SOL    HW2 2511   1.707   1.641   0.355 -0.6699  0.1482 -1.0942
  838SOL     OW 2512   1.333   1.012   2.312 -0.3598 -0.2843 -0.4183
  838SOL    HW1 2513   1.418   0.958   2.294  0.4043  0.1571 -0.5878
  838SOL    HW2 2514   1.315   1.084   2.244 -0.3690 -1.3394  0.4112
  839SOL     OW 2515   0.857   1.580   2.286 -0.7268 -0.0512 -0.2267
  839SOL    HW1 2516   0.869   1.482   2.288 -0.0184  3.4598 -1.0177
  839SOL    HW2 2517   0.923   1.611   2.210  0.2292  0.8499 -0.2833
  840SOL     OW 2518   0.744   2.094   0.669  0.2258  0.1775 -0.0677
  840SOL    HW1 2519   0.768   2.082   0.769  1.4381  1.7472  2.3945
  840SOL    HW2 2520   0.779   2.019   0.616  0.2614  2.2561  4.1616
  841SOL     OW 2521   1.749   2.527   0.217  0.3609 -0.1151 -0.1293
  841SOL    HW1 2522   1.791   2.586   0.290  0.0632 -1.4098  1.3165
  841SOL    HW2 2523   1.762   2.574   0.127 -1.0504  2.4466 -1.6629
  842SOL     OW 2524   0.529   0.739   2.852 -0.0702  0.0367 -0.3312
  842SOL    HW1 2525   0.604   0.725   2.789 -0.7412 -0.3030 -0.5598
  842SOL    HW2 2526   0.447   0.685   2.831  1.3444  0.6864  1.1877
  843SOL     OW 2527   1.050   0.426   0.757  0.6541  0.7142  0.2264
  843SOL    HW1 2528   1.067   0.334   0.727 -2.1107  1.0679  1.0817
  843SOL    HW2 2529   1.137   0.477   0.776 -2.4748 -2.1584 -0.0414
  844SOL     OW 2530   2.575   2.928   2.969  1.1089  0.0583  0.4778
  844SOL    HW1 2531   2.506   2.962   2.899 -3.0020 -0.9314  0.1672
  844SOL    HW2 2532   2.648   2.867   2.929  2.6460 -0.1438 -2.0471
  845SOL     OW 2533   2.925   2.056   1.503  0.2506 -0.1938 -0.2512
  845SOL    HW1 2534   2.861   2.057   1.590 -2.8891 -1.8794  3.4060
  845SOL    HW2 2535   2.962   1.964   1.498 -2.7555  1.5633  0.3986
  846SOL     OW 2536   2.400   1.453   2.263  0.6449  0.1614 -0.0352
  846SOL    HW1 2537   2.389   1.454   2.363 -0.2707 -3.6124 -2.6740
  846SOL    HW2 2538   2.495   1.461   2.229  0.8127  0.3388  1.3324
  847SOL     OW 2539   1.123   0.731   1.596  0.1299  0.3648 -0.0531
  847SOL    HW1 2540   1.154   0.804   1.665 -1.0062 -0.4675  1.9245
  847SOL    HW2 2541   1.123   0.754   1.500  2.7881  1.3477  3.8044
  848SOL     OW 2542   2.434   2.626   2.817 -0.3447  0.4368  0.1892
  848SOL    HW1 2543   2.389   2.648   2.907 -0.8686  0.1582  5.4312
  848SOL    HW2 2544   2.456   2.709   2.759  1.3097  0.3060 -2.9651
  849SOL     OW 2545   0.530   2.995   0.128 -0.6385 -0.0835 -0.3274
  849SOL    HW1 2546   0.466   0.003   0.170  1.1770 -0.0529 -0.7982
  849SOL    HW2 2547   0.567   3.025   0.037 -0.7737 -2.2896 -1.0183
  850SOL     OW 2548   1.298   2.944   1.158  0.3597 -0.0181  0.4828
  850SOL    HW1 2549   1.397   2.923   1.155 -2.3902 -0.8613 -0.0226
  850SOL    HW2 2550   1.277   3.030   1.107 -0.6264  1.3215 -0.4727
  851SOL     OW 2551   2.782   0.341   2.498  0.4502 -0.4163  0.2036
  851SOL    HW1 2552   2.768   0.441   2.502 -2.5569  1.3581  2.8739
  851SOL    HW2 2553   2.852   0.317   2.568 -0.9154  0.4845 -1.6415
  852SOL     OW 2554   1.443   0.666   2.270  0.4942 -0.2987 -0.3840
  852SOL    HW1 2555   1.462   0.662   2.372  0.9000  1.9241 -1.3233
  852SOL    HW2 2556   1.533   0.674   2.217  2.0501 -0.0955 -2.9858
  853SOL     OW 2557   3.054   2.970   0.440 -0.5341 -0.2700 -0.0489
  853SOL    HW1 2558   3.027   2.908   0.515 -1.3460 -1.6593 -1.1166
  853SOL    HW2 2559   0.082   3.022   0.464 -0.5786  0.5335  3.1818
  854SOL     OW 2560   2.401   1.206   2.046 -0.2183  0.1392 -0.6932
  854SOL    HW1 2561   2.425   1.300   2.077  1.3251  0.6892 -2.4774
  854SOL    HW2 2562   2.383   1.205   1.948  2.1138  1.0674  1.2937
  855SOL     OW 2563   0.745   2.492   0.200 -0.5441  0.2317 -0.4873
  855SOL    HW1 2564   0.737   2.571   0.136 -1.4210 -1.5449  2.2233
  855SOL    HW2 2565   0.834   2.446   0.187 -1.9439 -1.1333  0.2640
  856SOL     OW 2566   2.946   2.937   2.775  0.2859 -0.5085 -0.1905
  856SOL    HW1 2567   2.924   2.967   2.682  0.9088 -3.2809  0.3561
  856SOL    HW2 2568   2.883   2.859   2.805 -1.4688 -2.0156 -0.9403
  857SOL     OW 2569   0.980   2.671   1.567  0.6374 -0.2793 -0.0062
  857SOL    HW1 2570   0.936   2.630   1.487 -0.4580 -0.7948  2.7890
  857SOL    HW2 2571   1.029   2.604   1.625 -0.6260  1.2055  2.6283
  858SOL     OW 2572   2.751   2.087   1.733 -0.1258  0.0606  0.2945
  858SOL    HW1 2573   2.786   2.137   1.810 -1.3129  1.1067  0.4105
  858SOL    HW2 2574   2.651   2.056   1.748 -0.6896  0.9045 -1.6145
  859SOL     OW 2575   1.667   2.204   1.640  0.0387 -0.7587 -0.1784
  859SOL    HW1 2576   1.640   2.174   1.550  2.4432  0.3325  0.5129
  859SOL    HW2 2577   1.650   2.138   1.713  0.5389  1.7922 -1.9317
  860SOL     OW 2578   2.361   0.078   0.072  0.0237 -0.0089 -0.4243
  860SOL    HW1 2579   2.460   0.061   0.100  1.4048  0.1232 -1.2663
  860SOL    HW2 2580   2.356   0.161   0.012 -0.1071  0.3603  1.5137
  861SOL     OW 2581   2.654   2.953   0.544  0.4730 -0.4630  0.7169
  861SOL    HW1 2582   2.655   2.864   0.595  0.4255 -1.0790 -2.1501
  861SOL    HW2 2583   2.561   3.003   0.558 -1.1195 -0.1642  2.0286
  862SOL     OW 2584   1.598   2.942   2.389 -0.1391 -0.2405  0.4338
  862SOL    HW1 2585   1.523   2.915   2.452 -1.2893  1.8473 -0.8880
  862SOL    HW2 2586   1.639   3.035   2.419  1.6790  2.0443  0.0230
  863SOL     OW 2587   0.207   0.583   1.280  0.7581 -0.1702  0.4916
  863SOL    HW1 2588   0.151   0.665   1.262  2.6970  1.9409  0.7708
  863SOL    HW2 2589   0.219   0.535   1.191 -1.4063  1.0580 -2.2645
  864SOL     OW 2590   0.225   2.904   1.916 -0.1745 -0.4422 -0.2913
  864SOL    HW1 2591   0.306   2.848   1.892  4.4587 -0.1422 -1.4539
  864SOL    HW2 2592   0.145   2.843   1.909  3.2081  0.3538 -0.3769
  865SOL     OW 2593   0.474   1.236   3.049  0.0800 -0.2981  0.2959
  865SOL    HW1 2594   0.541   1.313   3.048 -1.4075  1.6532 -0.6725
  865SOL    HW2 2595   0.502   1.156   0.049 -1.3634  1.1376 -2.2632
  866SOL     OW 2596   2.885   0.598   3.047  0.0115 -0.1848  0.0419
  866SOL    HW1 2597   2.985   0.586   0.012 -0.0830 -1.7604  1.3108
  866SOL    HW2 2598   2.817   0.587   0.069  0.4327  2.9063  0.2067
  867SOL     OW 2599   2.768   2.727   2.925  0.1892 -0.1169 -0.4156
  867SOL    HW1 2600   2.798   2.744   3.020  1.8400  3.3646 -3.3994
  867SOL    HW2 2601   2.808   2.646   2.877  0.3618 -1.8777  0.1587
  868SOL     OW 2602   1.371   0.397   0.257 -0.6848  0.0896 -0.0742
  868SOL    HW1 2603   1.382   0.384   0.357 -1.6605 -0.1779  0.7387
  868SOL    HW2 2604   1.455   0.422   0.207  1.3001 -0.8037 -0.8492
  869SOL     OW 2605   2.407   1.396   0.432 -0.3986 -0.0631  0.2698
  869SOL    HW1 2606   2.334   1.453   0.474 -2.5489  0.7032 -0.0753
  869SOL    HW2 2607   2.480   1.369   0.499  0.1633  0.8529  3.1293
  870SOL     OW 2608   2.185   1.506   0.548  0.0172 -0.4245  0.1049
  870SOL    HW1 2609   2.143   1.412   0.553 -1.6708  2.1233 -2.2767
  870SOL    HW2 2610   2.158   1.556   0.633 -1.9394 -2.0551  0.5867
  871SOL     OW 2611   1.379   1.425   1.212  0.3246 -0.0693 -0.4530
  871SOL    HW1 2612   1.302   1.374   1.169  0.9649 -0.6601  1.0047
  871SOL    HW2 2613   1.438   1.361   1.266 -0.5609  2.2390  0.9680
  872SOL     OW 2614   1.238   1.563   1.541  0.0064 -0.0487 -0.4279
  872SOL    HW1 2615   1.154   1.506   1.521 -2.0564  0.9461 -1.2573
  872SOL    HW2 2616   1.221   1.626   1.618  0.0997  0.1296 -0.3738
  873SOL     OW 2617   0.599   1.526   2.383  0.0371 -0.1060  0.1841
  873SOL    HW1 2618   0.637   1.500   2.476  0.0011 -2.1160  0.9187
  873SOL    HW2 2619   0.673   1.559   2.320 -1.8299 -0.6295 -1.1980
  874SOL     OW 2620   0.856   1.427   1.221 -0.0278 -0.1691 -0.5212
  874SOL    HW1 2621   0.820   1.503   1.164  1.4270  2.6682  0.0332
  874SOL    HW2 2622   0.778   1.360   1.245 -0.9968 -0.2660 -1.2275
  875SOL     OW 2623   2.155   0.568   1.258 -0.6214 -0.0764  0.3062
  875SOL    HW1 2624   2.124   0.612   1.166 -0.5558 -1.1511 -3.8502
  875SOL    HW2 2625   2.080   0.573   1.327  3.2855  0.7049 -2.1380
  876SOL     OW 2626   0.923   0.761   2.946 -0.0359  0.4114 -0.0348
  876SOL    HW1 2627   0.924   0.754   3.047 -1.3782  0.4674 -0.8906
  876SOL    HW2 2628   0.964   0.844   2.911 -0.5619 -3.3378  0.6024
  877SOL     OW 2629   2.973   0.399   1.263  0.0980  0.5600  0.4324
  877SOL    HW1 2630   2.878   0.412   1.229 -1.4085 -3.3401 -0.1420
  877SOL    HW2 2631   3.014   0.484   1.303 -3.2455 -0.3446 -0.1852
  878SOL     OW 2632   1.415   2.365   3.007 -0.4447 -0.0845 -0.4364
  878SOL    HW1 2633   1.418   2.454   3.056 -1.3092 -1.5157  0.3708
  878SOL    HW2 2634   1.501   2.350   2.956  3.2063 -1.3863 -2.9056
  879SOL     OW 2635   2.220   2.114   1.592  0.6702  0.1178 -0.3570
  879SOL    HW1 2636   2.180   2.150   1.505  3.1802 -0.9319  0.6140
  879SOL    HW2 2637   2.293   2.178   1.623 -0.7348 -0.6510  0.3357
  880SOL     OW 2638   1.114   2.894   1.475 -0.2702  0.5398  0.2507
  880SOL    HW1 2639   1.063   2.815   1.519 -0.9325 -0.2439 -0.0773
  880SOL    HW2 2640   1.096   2.887   1.374 -0.9042  0.3291  0.1556
  881SOL     OW 2641   1.250   1.882   0.051  0.1463 -0.2135  0.0900
  881SOL    HW1 2642   1.190   1.867   3.030  1.1049  1.1504  2.4728
  881SOL    HW2 2643   1.228   1.977   0.086  1.3497  1.9774 -2.4058
  882SOL     OW 2644   2.135   0.773   1.994  0.4565  0.0416  0.4958
  882SOL    HW1 2645   2.175   0.831   2.067  2.7245  1.4483 -0.0867
  882SOL    HW2 2646   2.191   0.790   1.911  1.7003  1.0384  1.2661
  883SOL     OW 2647   1.498   0.417   2.065  0.2285 -0.1877  0.0573
  883SOL    HW1 2648   1.563   0.339   2.059 -0.1014  0.1484  1.7607
  883SOL    HW2 2649   1.402   0.386   2.060  0.1388 -1.0480  3.2872
  884SOL     OW 2650   2.948   0.209   0.053  0.0786  0.1524 -0.4765
  884SOL    HW1 2651   2.939   0.110   0.030 -0.1129  1.3380 -1.7999
  884SOL    HW2 2652   2.985   0.214   0.149 -1.6883 -0.4098  0.2809
  885SOL     OW 2653   0.647   2.205   0.433  0.4181  0.0388 -0.2853
  885SOL    HW1 2654   0.701   2.181   0.515  0.1892  2.9514  1.3144
  885SOL    HW2 2655   0.576   2.276   0.452 -0.8848  2.0121 -2.6616
  886SOL     OW 2656   1.827   1.682   2.646 -0.0385 -0.4249  0.1163
  886SOL    HW1 2657   1.813   1.689   2.547 -0.9315  1.2093 -2.2252
  886SOL    HW2 2658   1.757   1.719   2.704 -2.1369 -0.4250 -0.2776
  887SOL     OW 2659   1.828   0.497   1.770  0.4456  0.4711 -0.1926
  887SOL    HW1 2660   1.837   0.580   1.831 -0.4901  1.5374 -0.1877
  887SOL    HW2 2661   1.775   0.416   1.813  0.4951 -1.8035  0.0767
  888SOL     OW 2662   2.686   0.733   1.652 -0.0170  0.6908  0.1682
  888SOL    HW1 2663   2.633   0.702   1.732 -1.3623 -2.7060 -0.6369
  888SOL    HW2 2664   2.733   0.824   1.665  0.9989  1.1992 -2.9097
  889SOL     OW 2665   3.053   2.573   0.801  0.2145 -0.5067  0.1796
  889SOL    HW1 2666   2.965   2.567   0.754  4.8832 -0.3998  3.0919
  889SOL    HW2 2667   0.069   2.536   0.738  0.4894 -0.6549 -2.4538
  890SOL     OW 2668   2.866   2.519   2.734 -0.0910 -0.7864  0.1054
  890SOL    HW1 2669   2.853   2.438   2.797 -1.0763 -0.1288  0.5720
  890SOL    HW2 2670   2.964   2.546   2.748 -0.7935 -0.3193  0.8645
  891SOL     OW 2671   0.870   1.586   2.932  0.6913 -0.1096 -0.4358
  891SOL    HW1 2672   0.887   1.626   3.025  1.0543 -2.2526  1.2202
  891SOL    HW2 2673   0.959   1.567   2.886 -0.9971  0.6621  1.1018
  892SOL     OW 2674   0.273   2.792   0.907  0.1415 -0.1964 -0.0159
  892SOL    HW1 2675   0.364   2.820   0.944  0.1531 -1.3880  0.4414
  892SOL    HW2 2676   0.249   2.693   0.928  0.3275 -0.3960  0.0960
  893SOL     OW 2677   0.552   2.956   1.170 -0.1000  0.3989  0.4100
  893SOL    HW1 2678   0.464   2.922   1.208  1.9022  2.9741 -0.5592
  893SOL    HW2 2679   0.635   2.921   1.224  2.8980 -0.9568  0.5139
  894SOL     OW 2680   2.875   1.268   0.859  0.1670 -0.2903 -0.2113
  894SOL    HW1 2681   2.857   1.185   0.804  0.2455  0.9254  1.0205
  894SOL    HW2 2682   2.862   1.354   0.803 -1.6221  2.4844 -1.8434
  895SOL     OW 2683   2.602   2.502   1.768 -0.0900  0.1171 -0.3131
  895SOL    HW1 2684   2.565   2.412   1.792  1.7741 -1.0777 -0.5881
  895SOL    HW2 2685   2.699   2.498   1.743 -1.2088  0.0432 -0.1526
  896SOL     OW 2686   0.984   0.475   1.591  0.2149 -0.7010  0.3430
  896SOL    HW1 2687   0.948   0.400   1.656  1.1794 -0.3786 -0.8913
  896SOL    HW2 2688   1.044   0.541   1.638  0.8575 -1.7957 -0.8902
  897SOL     OW 2689   0.844   1.553   1.641 -0.2273 -0.3682 -0.6233
  897SOL    HW1 2690   0.909   1.500   1.587 -3.2451 -0.6673  1.5481
  897SOL    HW2 2691   0.804   1.636   1.602 -0.4573 -2.3655 -0.4237
  898SOL     OW 2692   1.468   2.547   1.581  0.2868  0.5719 -0.2439
  898SOL    HW1 2693   1.403   2.468   1.587 -2.2207 -0.9055  1.7154
  898SOL    HW2 2694   1.435   2.619   1.513 -1.6503  2.3296  3.2020
  899SOL     OW 2695   0.798   0.565   0.181  0.0961  0.0827  0.1426
  899SOL    HW1 2696   0.734   0.582   0.256 -0.0955  1.8995 -2.0076
  899SOL    HW2 2697   0.872   0.635   0.178 -0.5382 -3.0040  1.3743
  900SOL     OW 2698   1.399   2.243   1.862 -0.6662 -0.3516 -0.1628
  900SOL    HW1 2699   1.306   2.231   1.892  1.5726  0.9918 -2.3957
  900SOL    HW2 2700   1.399   2.286   1.770  0.6422 -0.1148  0.1350
  901SOL     OW 2701   0.956   2.268   0.361 -0.9324 -0.5757  0.0480
  901SOL    HW1 2702   0.892   2.317   0.421  2.2478  0.3866 -0.1798
  901SOL    HW2 2703   0.935   2.274   0.262 -2.8381  1.5372  1.5652
  902SOL     OW 2704   1.712   1.368   0.091 -0.9034 -0.4153  0.5651
  902SOL    HW1 2705   1.774   1.435   0.041  2.9036  1.5674  1.4878
  902SOL    HW2 2706   1.769   1.329   0.165 -1.4399 -1.9906 -0.0750
  903SOL     OW 2707   2.113   1.167   0.249 -0.5618  0.0600 -0.4242
  903SOL    HW1 2708   2.213   1.138   0.255  1.1898 -0.5671 -1.4812
  903SOL    HW2 2709   2.083   1.167   0.154 -2.1024  1.0739  3.2862
  904SOL     OW 2710   0.680   1.415   0.002 -0.6764 -0.3657 -0.6035
  904SOL    HW1 2711   0.737   1.463   2.988  0.9317  0.7126 -0.2493
  904SOL    HW2 2712   0.689   1.465   0.093 -1.4214  1.5185 -1.3447
  905SOL     OW 2713   1.922   0.055   1.286  0.6123 -0.4832  0.3965
  905SOL    HW1 2714   1.890   0.145   1.247  1.2869  1.7205  1.9780
  905SOL    HW2 2715   2.023   0.054   1.275  0.5157  0.1292  2.0385
  906SOL     OW 2716   2.805   2.367   1.135  0.0059 -0.3655 -0.1127
  906SOL    HW1 2717   2.847   2.454   1.102 -2.6112 -0.5611 -2.2396
  906SOL    HW2 2718   2.701   2.373   1.141 -1.4728 -0.1764  1.3364
  907SOL     OW 2719   0.981   0.761   0.157  0.1039 -0.2580 -1.2480
  907SOL    HW1 2720   0.938   0.850   0.185 -0.5808  0.6186 -0.7345
  907SOL    HW2 2721   1.083   0.764   0.180  1.7737  0.3432  0.3750
  908SOL     OW 2722   1.559   2.858   1.119  0.6464  0.1209  0.0802
  908SOL    HW1 2723   1.621   2.905   1.055  0.4391  2.0980  1.6263
  908SOL    HW2 2724   1.617   2.821   1.196  2.7945 -0.5335  1.0303
  909SOL     OW 2725   2.016   1.234   1.620 -0.1269  0.0458  0.4527
  909SOL    HW1 2726   2.020   1.320   1.675 -2.2925 -0.3021  0.2262
  909SOL    HW2 2727   2.077   1.243   1.535  2.0186 -0.5802 -2.6732
  910SOL     OW 2728   1.676   0.044   2.089 -0.1499  0.4208  0.4332
  910SOL    HW1 2729   1.586   0.001   2.105  0.6000 -2.3406 -0.1464
  910SOL    HW2 2730   1.737   3.037   2.042  1.0385 -1.6892  1.2247
  911SOL     OW 2731   2.682   0.807   2.793  0.6118 -0.4350  0.1354
  911SOL    HW1 2732   2.669   0.890   2.846  1.0363 -1.8241 -1.3805
  911SOL    HW2 2733   2.779   0.779   2.798 -1.1284 -1.3853  2.7846
  912SOL     OW 2734   0.012   1.217   1.755 -0.2639 -0.2026  0.3677
  912SOL    HW1 2735   3.050   1.313   1.716 -2.8564 -0.4023  0.7646
  912SOL    HW2 2736   0.083   1.165   1.703  0.6348 -3.3310  3.1590
  913SOL     OW 2737   2.854   2.302   1.424  0.5993  0.1554  0.3908
  913SOL    HW1 2738   2.875   2.203   1.416 -2.2057  1.7147  3.1204
  913SOL    HW2 2739   2.823   2.337   1.336  2.6225 -0.1719  0.8214
  914SOL     OW 2740   1.632   0.991   1.598  0.1459 -0.2155  0.0792
  914SOL    HW1 2741   1.620   0.924   1.524  0.7398  0.0792  0.0906
  914SOL    HW2 2742   1.618   1.088   1.569  0.2276  0.6631 -1.3398
  915SOL     OW 2743   1.955   0.581   1.468 -0.3970 -0.5092  0.1845
  915SOL    HW1 2744   2.013   0.516   1.526  1.2247 -1.1045  2.0679
  915SOL    HW2 2745   1.879   0.539   1.423  3.8955  1.1804 -1.9358
  916SOL     OW 2746   2.520   2.390   1.103  0.9891 -0.1587  0.0551
  916SOL    HW1 2747   2.447   2.427   1.173 -2.9093  0.4156  2.9352
  916SOL    HW2 2748   2.485   2.402   1.008 -1.7011 -0.7719 -1.2558
  917SOL     OW 2749   1.654   2.265   2.852  0.1226 -0.3005 -0.6845
  917SOL    HW1 2750   1.719   2.346   2.861  1.4443  2.4919  3.9128
  917SOL    HW2 2751   1.701   2.184   2.893 -0.3951  2.1424 -0.6047
  918SOL     OW 2752   1.781   2.756   2.295  0.9701  0.8130  0.0691
  918SOL    HW1 2753   1.845   2.826   2.255 -3.0416 -1.7240  1.2989
  918SOL    HW2 2754   1.693   2.801   2.326  1.6744 -0.7870 -0.8149
  919SOL     OW 2755   1.192   2.466   1.375 -0.0510 -0.2440  0.3005
  919SOL    HW1 2756   1.186   2.520   1.288 -1.1895  0.1230 -3.0646
  919SOL    HW2 2757   1.167   2.522   1.460  1.4197  1.9457 -2.4574
  920SOL     OW 2758   3.047   0.283   2.337 -0.2394  0.1917 -0.2576
  920SOL    HW1 2759   0.016   0.184   2.328  0.5175  2.5623  1.8592
  920SOL    HW2 2760   2.952   0.290   2.382 -3.6744  0.4823  1.0051
  921SOL     OW 2761   2.836   0.963   1.655 -0.0666  0.2090 -0.6143
  921SOL    HW1 2762   2.827   1.001   1.751 -0.8086  3.6642 -2.2375
  921SOL    HW2 2763   2.928   0.923   1.629  1.0792 -0.5141  2.8238
  922SOL     OW 2764   1.923   1.934   0.529  0.3272 -0.2035 -0.1154
  922SOL    HW1 2765   2.023   1.914   0.524  2.4936  0.1186  0.6011
  922SOL    HW2 2766   1.890   1.939   0.630 -0.5104 -1.4497  1.3194
  923SOL     OW 2767   0.689   1.861   0.192 -0.1554  0.0236  0.2085
  923SOL    HW1 2768   0.752   1.781   0.181  0.1696 -3.2592 -2.4112
  923SOL    HW2 2769   0.729   1.946   0.145  1.8475  4.1258 -0.9688
  924SOL     OW 2770   0.936   0.485   2.998  0.4857 -0.1603 -0.5918
  924SOL    HW1 2771   0.926   0.575   2.953  1.0798 -1.9098 -0.7026
  924SOL    HW2 2772   0.884   0.482   0.026 -0.4099  0.1778  2.4485
  925SOL     OW 2773   2.584   0.522   0.980  0.2764 -0.1329  0.6692
  925SOL    HW1 2774   2.627   0.606   0.939  2.3943  0.4463 -0.2525
  925SOL    HW2 2775   2.490   0.521   0.946 -0.4927 -1.4798 -0.5439
  926SOL     OW 2776   0.620   0.184   1.204  0.0818  0.1723  0.0307
  926SOL    HW1 2777   0.571   0.095   1.190 -0.3674 -2.5473  0.5815
  926SOL    HW2 2778   0.675   0.175   1.291 -0.1545 -1.2387  0.4345
  927SOL     OW 2779   0.027   1.517   2.370  0.1940 -0.3406  0.1818
  927SOL    HW1 2780   2.991   1.494   2.410 -1.0055 -2.1623  0.6012
  927SOL    HW2 2781   0.080   1.434   2.347 -0.0956 -0.0114 -0.4214
  928SOL     OW 2782   2.999   0.284   2.688  0.7719 -0.5564  1.0366
  928SOL    HW1 2783   3.031   0.317   2.780  2.9656 -2.2311  1.3516
  928SOL    HW2 2784   0.009   0.218   2.654 -0.5943 -3.4014  1.9048
  929SOL     OW 2785   2.653   0.195   1.274 -0.4280  0.0990  0.1407
  929SOL    HW1 2786   2.741   0.202   1.322 -1.4359  2.1858  1.6603
  929SOL    HW2 2787   2.582   0.149   1.322 -0.1741  2.5520  0.7838
  930SOL     OW 2788   1.763   0.946   1.821  0.1234  0.0920  0.2652
  930SOL    HW1 2789   1.717   0.955   1.729 -0.6144  1.0987  0.4708
  930SOL    HW2 2790   1.724   1.018   1.884  0.8611 -1.2456 -3.6634
  931SOL     OW 2791   2.038   1.136   3.054  0.0407 -0.2316 -0.4078
  931SOL    HW1 2792   2.038   1.156   2.955 -0.4121 -1.0761  1.6818
  931SOL    HW2 2793   1.941   1.097   0.013  0.6586 -0.4512 -0.5198
  932SOL     OW 2794   2.196   1.019   0.640 -0.3585  0.2867  0.2948
  932SOL    HW1 2795   2.286   0.985   0.606 -0.0849 -0.3312 -1.2975
  932SOL    HW2 2796   2.120   0.967   0.596  0.7738 -2.1802 -1.2867
  933SOL     OW 2797   2.501   1.732   0.826  0.1393  0.4716  0.2183
  933SOL    HW1 2798   2.448   1.733   0.736  1.1360  0.3429  0.5919
  933SOL    HW2 2799   2.486   1.827   0.867 -0.9800  0.8539  0.4307
  934SOL     OW 2800   2.080   0.683   2.408 -0.1968 -0.0658 -0.1857
  934SOL    HW1 2801   2.121   0.594   2.394  2.9883  0.4266  1.0803
  934SOL    HW2 2802   1.983   0.673   2.369 -2.5084 -1.8203 -1.3413
  935SOL     OW 2803   0.258   1.079   0.551  0.0617  0.8033 -0.6001
  935SOL    HW1 2804   0.212   1.088   0.458  1.4883 -0.1340 -0.0274
  935SOL    HW2 2805   0.185   1.052   0.623 -2.0506  1.5636  1.5373
  936SOL     OW 2806   0.184   0.304   0.635  0.3016 -0.6554  0.2469
  936SOL    HW1 2807   0.277   0.276   0.664 -1.6005  0.0632 -1.1101
  936SOL    HW2 2808   0.129   0.328   0.718  0.6057 -1.6551 -0.1144
  937SOL     OW 2809   2.771   2.970   1.481 -0.0166 -0.1637  0.0574
  937SOL    HW1 2810   2.837   3.003   1.408 -0.7748 -1.3247 -1.1939
  937SOL    HW2 2811   2.799   3.002   1.572  0.3918  0.2404  0.3017
  938SOL     OW 2812   2.954   2.292   0.091 -0.6622 -0.0086 -0.4852
  938SOL    HW1 2813   2.896   2.354   0.145  0.5047 -0.8227 -2.5733
  938SOL    HW2 2814   3.054   2.315   0.100 -4.5440  0.2178 -0.9705
  939SOL     OW 2815   0.648   1.757   0.913  0.0106 -0.1830  0.1230
  939SOL    HW1 2816   0.697   1.813   0.984 -0.2266 -0.1811  0.6994
  939SOL    HW2 2817   0.555   1.794   0.900  0.0011  0.0523  0.0657
  940SOL     OW 2818   0.058   0.300   2.928  0.3762 -0.4502  0.2523
  940SOL    HW1 2819   3.046   0.270   2.999 -3.9544 -0.1760  1.0831
  940SOL    HW2 2820   0.137   0.234   2.926 -1.4833 -1.8659  0.2683
  941SOL     OW 2821   1.710   0.471   2.467  0.0294 -0.3904  0.1493
  941SOL    HW1 2822   1.619   0.436   2.475  1.5858  1.5723 -0.2674
  941SOL    HW2 2823   1.747   0.490   2.557 -0.6810 -0.1952  0.2220
  942SOL     OW 2824   1.137   0.737   1.299 -0.2126 -0.6334  0.4881
  942SOL    HW1 2825   1.231   0.743   1.256  2.9130  0.7434  0.1475
  942SOL    HW2 2826   1.120   0.639   1.310  0.1198  3.8902 -2.1817
  943SOL     OW 2827   1.192   0.980   1.751  0.4833  0.2891 -0.1034
  943SOL    HW1 2828   1.273   0.921   1.768  0.1557 -0.8905 -1.2348
  943SOL    HW2 2829   1.123   0.963   1.823  1.9623  1.3380 -5.1585
  944SOL     OW 2830   2.010   0.971   1.711 -0.1324 -0.3285 -0.2451
  944SOL    HW1 2831   1.932   0.952   1.779 -0.0372 -0.0437  4.0023
  944SOL    HW2 2832   2.022   1.071   1.684 -1.8830  2.7602 -0.1470
  945SOL     OW 2833   2.795   2.995   0.305  0.3914 -0.2798 -0.3173
  945SOL    HW1 2834   2.729   2.964   0.377  0.2900  2.4092 -1.5579
  945SOL    HW2 2835   2.887   3.001   0.342 -0.1710 -1.8317 -3.4011
  946SOL     OW 2836   2.924   0.435   1.874  0.1076  0.1046 -0.2484
  946SOL    HW1 2837   2.936   0.503   1.950  0.9736  0.0188  1.6176
  946SOL    HW2 2838   2.855   0.462   1.805 -2.3188 -3.1433  0.2516
  947SOL     OW 2839   1.163   0.002   0.340 -0.0904  0.5369  0.6250
  947SOL    HW1 2840   1.228   0.059   0.287 -4.1218 -1.0036  1.6055
  947SOL    HW2 2841   1.181   2.960   0.322 -0.4905  0.1101  0.6824
  948SOL     OW 2842   2.455   1.743   1.328  0.4560 -0.3808 -0.3665
  948SOL    HW1 2843   2.505   1.812   1.385 -0.5231 -0.0067  0.4058
  948SOL    HW2 2844   2.457   1.649   1.367 -4.2582 -1.6699 -2.3618
  949SOL     OW 2845   0.460   1.600   2.918  0.0493 -0.0278  0.0023
  949SOL    HW1 2846   0.366   1.596   2.872  0.5645 -1.0040  0.4518
  949SOL    HW2 2847   0.494   1.501   2.912 -1.5432 -1.3868  2.0469
  950SOL     OW 2848   0.737   2.324   0.958  0.4688 -0.4678  1.1299
  950SOL    HW1 2849   0.661   2.337   0.889 -0.4264 -0.3283  0.0299
  950SOL    HW2 2850   0.759   2.227   0.960  0.9303 -2.2193 -1.4194
  951SOL     OW 2851   0.681   0.974   2.426  0.0840 -0.1080 -0.0254
  951SOL    HW1 2852   0.738   1.007   2.509  3.3690  0.8244  1.5722
  951SOL    HW2 2853   0.721   1.011   2.339  0.9753  2.9672  0.3857
  952SOL     OW 2854   0.445   0.892   0.453  0.0445  0.1470 -0.1580
  952SOL    HW1 2855   0.530   0.938   0.489 -0.4502  1.4461  1.7278
  952SOL    HW2 2856   0.372   0.958   0.417 -0.9912  0.0915  0.5113
  953SOL     OW 2857   2.687   0.035   2.412  0.1542 -0.3267 -0.0755
  953SOL    HW1 2858   2.624   0.104   2.448 -0.2451 -2.3805 -0.2665
  953SOL    HW2 2859   2.661   2.999   2.453  0.8193  1.0863  0.2006
  954SOL     OW 2860   1.484   1.292   0.407 -0.5666 -0.9126 -0.0334
  954SOL    HW1 2861   1.460   1.388   0.426 -0.7982 -0.3053 -1.4896
  954SOL    HW2 2862   1.517   1.250   0.491  0.4621 -0.9690  1.7637
  955SOL     OW 2863   0.711   2.134   0.063  0.6285 -0.0687  0.2217
  955SOL    HW1 2864   0.803   2.175   0.054  0.8473  2.2233  0.0520
  955SOL    HW2 2865   0.643   2.209   0.084 -2.0171 -0.2031 -0.8482
  956SOL     OW 2866   2.110   0.525   2.115 -0.2048 -0.3924 -0.3368
  956SOL    HW1 2867   2.147   0.506   2.207 -0.5208 -0.0058 -0.0614
  956SOL    HW2 2868   2.128   0.621   2.086  1.9931  0.1462  1.7798
  957SOL     OW 2869   1.910   2.270   2.391 -0.4733 -0.4163  0.0513
  957SOL    HW1 2870   1.879   2.364   2.417  0.1066 -1.0479  0.6319
  957SOL    HW2 2871   1.987   2.240   2.450 -0.1830 -0.0332 -0.4924
  958SOL     OW 2872   1.615   1.267   1.275 -0.1544 -0.0964 -0.8191
  958SOL    HW1 2873   1.701   1.243   1.230  1.4062 -0.7021  0.5739
  958SOL    HW2 2874   1.627   1.265   1.373 -0.6251 -0.0354 -1.8960
  959SOL     OW 2875   1.881   2.007   2.431  0.2629  0.5007 -0.9193
  959SOL    HW1 2876   1.893   2.112   2.425  0.4090  0.5539 -0.6010
  959SOL    HW2 2877   1.802   1.982   2.493 -1.0060 -0.4907  1.1271
  960SOL     OW 2878   0.130   0.790   2.611  0.2475  0.1581  0.3588
  960SOL    HW1 2879   0.151   0.831   2.518 -2.0394  2.4606  0.8422
  960SOL    HW2 2880   0.041   0.738   2.603 -0.8567  1.6087 -0.1215
  961SOL     OW 2881   0.280   1.003   2.700 -0.9225 -0.7201  0.1947
  961SOL    HW1 2882   0.208   0.940   2.666 -0.0172 -1.2080  0.2280
  961SOL    HW2 2883   0.276   1.007   2.800 -0.7383  1.2969 -4.2060
  962SOL     OW 2884   0.491   1.139   2.501  0.2871  0.3871  0.1389
  962SOL    HW1 2885   0.401   1.095   2.540 -1.5146 -1.2072 -0.0001
  962SOL    HW2 2886   0.557   1.064   2.477  2.0453 -1.2917  0.7243
  963SOL     OW 2887   2.576   2.255   0.234  0.3266  1.2928  0.3263
  963SOL    HW1 2888   2.622   2.340   0.211  0.2864 -2.0567  0.2418
  963SOL    HW2 2889   2.588   2.187   0.156  1.5415 -3.0848 -1.4805
  964SOL     OW 2890   0.860   2.369   1.771  0.2735  0.6708  0.3476
  964SOL    HW1 2891   0.898   2.293   1.829  0.7623  3.6187 -0.4339
  964SOL    HW2 2892   0.758   2.373   1.774  0.3749  0.3159 -0.3553
  965SOL     OW 2893   1.814   1.704   0.221 -0.4913 -0.4973 -0.0776
  965SOL    HW1 2894   1.818   1.799   0.262  2.1049 -2.1162 -0.6236
  965SOL    HW2 2895   1.756   1.703   0.137 -2.4853 -1.6317  2.0355
  966SOL     OW 2896   2.988   1.354   0.424  0.0198 -0.1676  0.1686
  966SOL    HW1 2897   3.055   1.335   0.498 -0.3131 -1.3665 -1.1025
  966SOL    HW2 2898   3.021   1.345   0.330 -0.0117  2.8872 -1.0858
  967SOL     OW 2899   1.753   2.715   1.780  0.4073 -0.1802 -0.0461
  967SOL    HW1 2900   1.734   2.643   1.714  2.4035  1.6299  1.3121
  967SOL    HW2 2901   1.778   2.677   1.873  0.1229  3.0453 -2.7897
  968SOL     OW 2902   1.414   0.365   0.527  0.1888  0.3184 -0.0773
  968SOL    HW1 2903   1.333   0.303   0.539 -2.5219  2.3051 -3.2322
  968SOL    HW2 2904   1.393   0.460   0.559 -1.0199 -2.8787 -0.3664
  969SOL     OW 2905   0.151   1.313   2.252 -0.1444  0.1817 -0.6108
  969SOL    HW1 2906   0.255   1.316   2.247 -1.6498 -1.5313  0.8397
  969SOL    HW2 2907   0.113   1.333   2.159  2.1605  1.5973 -0.9816
  970SOL     OW 2908   2.176   2.024   1.150  0.3063  0.0899  0.5551
  970SOL    HW1 2909   2.102   1.961   1.180 -3.4877 -0.1096  0.8489
  970SOL    HW2 2910   2.129   2.111   1.129  0.6983 -0.9057  1.6200
  971SOL     OW 2911   2.685   2.835   0.958 -0.2372 -0.8502 -0.5690
  971SOL    HW1 2912   2.764   2.776   0.973 -1.1729  0.4680  1.9817
  971SOL    HW2 2913   2.719   2.931   0.940  1.7070  3.9818 -0.1043
  972SOL     OW 2914   3.026   1.150   2.657  0.7150  0.3414  0.1041
  972SOL    HW1 2915   3.039   1.155   2.555 -2.0273  1.1662 -1.9852
  972SOL    HW2 2916   2.930   1.176   2.678  1.5337  1.6487  3.0767
  973SOL     OW 2917   0.538   0.612   0.620  0.5343  0.1785 -0.4359
  973SOL    HW1 2918   0.568   0.686   0.684 -0.7264 -0.0169 -1.1802
  973SOL    HW2 2919   0.543   0.522   0.669 -0.8160 -1.2805  1.3227
  974SOL     OW 2920   2.255   0.853   1.757  0.1860 -0.6276 -0.3982
  974SOL    HW1 2921   2.184   0.925   1.730 -4.8293  1.0193 -0.3262
  974SOL    HW2 2922   2.262   0.769   1.696  1.7423 -3.3752  0.4249
  975SOL     OW 2923   2.875   2.764   0.113  0.8473 -0.3205  0.0192
  975SOL    HW1 2924   2.815   2.792   0.192 -0.2136  2.2346  1.3105
  975SOL    HW2 2925   2.949   2.710   0.152 -2.2446  0.0537 -2.5918
  976SOL     OW 2926   0.530   1.596   1.221  0.6033  0.0265 -1.1970
  976SOL    HW1 2927   0.540   1.531   1.299  0.7116  0.2326 -1.2277
  976SOL    HW2 2928   0.440   1.585   1.170 -1.5861  2.8470  1.2332
  977SOL     OW 2929   1.042   1.911   0.701  0.0666 -0.1973 -0.1404
  977SOL    HW1 2930   1.030   1.937   0.604  2.5470  2.3259 -1.8029
  977SOL    HW2 2931   0.984   1.830   0.724  0.0066 -2.4108  0.7356
  978SOL     OW 2932   0.520   1.026   0.150  0.1676  0.2771  0.3533
  978SOL    HW1 2933   0.432   1.029   0.197  0.2965 -0.7125 -0.0401
  978SOL    HW2 2934   0.541   0.931   0.123 -0.9780  0.5977  0.2390
  979SOL     OW 2935   2.109   1.448   0.265 -0.0642 -0.1415 -0.5524
  979SOL    HW1 2936   2.104   1.347   0.256 -2.2547  1.6386 -1.6140
  979SOL    HW2 2937   2.112   1.469   0.365 -1.2716 -1.6267  0.0643
  980SOL     OW 2938   0.292   1.955   2.324 -0.2806 -0.7940  0.1304
  980SOL    HW1 2939   0.355   1.876   2.318  2.5937 -0.5792  0.9873
  980SOL    HW2 2940   0.267   1.978   2.420  2.2937 -0.2399 -0.1465
  981SOL     OW 2941   2.749   0.879   0.107  0.3901  0.4020  0.5507
  981SOL    HW1 2942   2.767   0.782   0.092  0.5665  0.6141 -0.6481
  981SOL    HW2 2943   2.648   0.892   0.121 -2.0749 -0.4555 -0.1537
  982SOL     OW 2944   0.040   2.733   1.861  0.7449 -0.0345  0.1893
  982SOL    HW1 2945   2.996   2.745   1.862  0.0642  2.1209 -2.2579
  982SOL    HW2 2946   0.060   2.664   1.789  1.5366 -0.0550  2.1707
  983SOL     OW 2947   1.620   0.159   1.498 -0.2974  0.5076  0.0442
  983SOL    HW1 2948   1.560   0.204   1.427 -1.3033  2.0246 -0.8900
  983SOL    HW2 2949   1.662   0.074   1.457  0.9401 -1.6285 -0.3582
  984SOL     OW 2950   1.428   2.946   2.593  0.1322  0.3917  0.3010
  984SOL    HW1 2951   1.512   2.951   2.653  3.7908 -1.6355  0.3615
  984SOL    HW2 2952   1.393   2.848   2.578 -2.6228  0.6623  1.5427
  985SOL     OW 2953   1.374   1.665   1.338 -0.3438  0.2150 -0.0284
  985SOL    HW1 2954   1.379   1.586   1.274 -2.4909  1.9718 -1.6915
  985SOL    HW2 2955   1.320   1.638   1.421 -0.9008 -2.4369 -0.3185
  986SOL     OW 2956   1.973   2.954   2.294  0.2082  0.1660 -0.2176
  986SOL    HW1 2957   2.050   2.882   2.299  1.3385 -4.3014 -1.2629
  986SOL    HW2 2958   1.979   3.003   2.204 -0.4619 -0.7230  0.9283
  987SOL     OW 2959   2.617   1.685   2.617  0.0282  0.1115  0.1734
  987SOL    HW1 2960   2.669   1.746   2.676 -2.9712  0.1394 -0.1809
  987SOL    HW2 2961   2.589   1.741   2.531  1.0723  3.2121 -2.6557
  988SOL     OW 2962   2.805   0.508   1.566  0.3875 -0.3536 -0.5879
  988SOL    HW1 2963   2.754   0.593   1.601 -0.9242 -0.9152  0.9494
  988SOL    HW2 2964   2.882   0.531   1.509  0.4076  0.3376  0.4965
  989SOL     OW 2965   1.717   1.270   1.520 -0.3854  0.3151  0.3364
  989SOL    HW1 2966   1.684   1.348   1.577 -0.6972  2.6063 -0.5107
  989SOL    HW2 2967   1.805   1.233   1.553  2.3815 -3.3390 -0.0835
  990SOL     OW 2968   2.950   1.054   0.040  0.5609 -0.3736  0.1263
  990SOL    HW1 2969   2.879   0.993   0.082  0.3080 -1.1971 -0.6244
  990SOL    HW2 2970   2.998   1.012   3.017  2.0168 -0.1529 -0.0442
  991SOL     OW 2971   0.335   2.177   2.877 -0.0851  0.6113  0.0696
  991SOL    HW1 2972   0.311   2.110   2.950  1.5764 -0.6485 -1.2886
  991SOL    HW2 2973   0.423   2.163   2.829 -1.8495  1.5186 -0.0996
  992SOL     OW 2974   2.512   1.958   1.765 -0.1758 -0.3649 -0.1155
  992SOL    HW1 2975   2.423   1.915   1.767  2.5159  0.4230 -1.6065
  992SOL    HW2 2976   2.555   1.940   1.853 -2.7575  0.5279 -3.6076
  993SOL     OW 2977   0.736   2.973   0.799 -0.1872 -0.1565 -0.1865
  993SOL    HW1 2978   0.754   2.977   0.694  1.0708  0.1820  0.5079
  993SOL    HW2 2979   0.763   0.005   0.841  0.1758  2.1743 -1.3083
  994SOL     OW 2980   2.990   1.825   1.619 -0.9313  0.6702 -0.3831
  994SOL    HW1 2981   2.978   1.826   1.722  2.2718 -1.6839  0.1967
  994SOL    HW2 2982   0.026   1.790   1.598  0.8546 -0.0668  0.9810
  995SOL     OW 2983   2.097   1.883   2.522  0.4929 -0.0819  0.2837
  995SOL    HW1 2984   2.091   1.833   2.610  3.3905 -0.7607 -0.8339
  995SOL    HW2 2985   2.001   1.922   2.492 -5.3121  1.3007 -1.2014
  996SOL     OW 2986   1.989   1.793   3.053  0.2210  0.4191  0.0748
  996SOL    HW1 2987   1.933   1.822   0.072 -0.8984  1.5487 -1.8904
  996SOL    HW2 2988   2.051   1.713   0.020 -0.2476  0.3841 -0.7792
  997SOL     OW 2989   1.026   1.402   1.494 -0.0261 -0.1547  0.2107
  997SOL    HW1 2990   1.024   1.303   1.521 -0.7312 -0.6159  1.5061
  997SOL    HW2 2991   0.990   1.419   1.400 -1.5575  2.4321 -2.9985
  998SOL     OW 2992   2.762   2.016   0.830 -0.4998 -0.0621  0.0561
  998SOL    HW1 2993   2.830   2.027   0.752 -2.0690 -1.9775 -1.1259
  998SOL    HW2 2994   2.752   1.918   0.854  0.5735 -0.8900  0.9123
  999SOL     OW 2995   2.768   2.475   0.177  0.6573 -0.4008 -0.4470
  999SOL    HW1 2996   2.693   2.520   0.121  1.6380  0.9648  1.3820
  999SOL    HW2 2997   2.784   2.534   0.259 -1.5123 -1.5959  2.6791
 1000SOL     OW 2998   1.204   0.257   2.854  0.5104 -0.2149  0.6771
 1000SOL    HW1 2999   1.199   0.310   2.941  2.8094 -0.2083  0.0387
 1000SOL    HW2 3000   1.167   0.309   2.773  0.3200  0.2860 -0.6416
   3.05776   3.05776   3.05776
