1000 SPC/Fw water molecules t=  33.00000 step= 33000
 3000
    1SOL     OW    1   1.933   2.640   0.490 -0.1142  0.0028  0.5745
    1SOL    HW1    2   2.021   2.633   0.431  3.7323  1.3744 -5.5910
    1SOL    HW2    3   1.857   2.585   0.454  1.3023  2.1685 -0.1698
    2SOL     OW    4   1.164   0.533   1.883  0.3670  0.6957  0.4933
    2SOL    HW1    5   1.222   0.599   1.938  1.1210  1.9852  0.2418
    2SOL    HW2    6   1.106   0.472   1.945 -0.8992 -1.6926 -1.7764
    3SOL     OW    7   0.940   2.975   2.862 -0.2146 -0.2751 -0.6278
    3SOL    HW1    8   0.871   2.914   2.822  1.0397  2.2332  0.5527
    3SOL    HW2    9   0.904   3.058   2.908  0.8172  1.6389 -1.1596
    4SOL     OW   10   1.217   1.402   3.036 -0.3710  0.0904  0.4166
    4SOL    HW1   11   1.159   1.387   2.952  0.6709  1.3503  0.3711
    4SOL    HW2   12   1.274   1.485   3.035 -1.6325 -1.0764  1.9063
    5SOL     OW   13   0.801   1.148   2.227 -0.5653 -0.2916  0.2235
    5SOL    HW1   14   0.829   1.086   2.153  0.7280 -3.2445  1.8153
    5SOL    HW2   15   0.882   1.185   2.276  0.9406  0.8294 -0.9215
    6SOL     OW   16   1.973   0.841   2.532 -0.1163  0.4563  0.0078
    6SOL    HW1   17   1.973   0.775   2.607 -2.6552  1.6736 -0.4033
    6SOL    HW2   18   2.043   0.810   2.459  1.6674 -1.4821 -2.5571
    7SOL     OW   19   0.360   0.894   1.337 -0.2047 -0.6461  0.1373
    7SOL    HW1   20   0.438   0.848   1.297 -2.2130  2.0526  4.0290
    7SOL    HW2   21   0.327   0.961   1.268  0.6840 -0.8006  1.4584
    8SOL     OW   22   2.044   2.947   1.874  0.1236 -0.2904  0.7581
    8SOL    HW1   23   2.111   3.014   1.855 -1.8118 -1.5826  0.5814
    8SOL    HW2   24   1.950   2.959   1.832 -0.7720 -1.1950  0.6618
    9SOL     OW   25   0.119   2.970   0.683  0.6060 -0.0311  0.1694
    9SOL    HW1   26   0.072   3.060   0.706 -0.8019  2.7323 -1.1954
    9SOL    HW2   27   0.120   2.967   0.582  1.1124  0.8757 -1.1316
   10SOL     OW   28   0.147   2.358   2.463 -0.5376  0.2552  0.1770
   10SOL    HW1   29   0.200   2.328   2.542 -1.8671  1.6844  1.5192
   10SOL    HW2   30   0.168   2.310   2.376  0.5110  1.3326  1.0805
   11SOL     OW   31   0.853   1.637   3.003 -0.3118 -0.1133  0.4149
   11SOL    HW1   32   0.817   1.564   3.061 -1.5494  0.9699 -2.2816
   11SOL    HW2   33   0.942   1.673   3.031 -0.6332  0.8096 -3.2416
   12SOL     OW   34   2.171   2.660   1.244  0.1359 -0.1720 -0.2628
   12SOL    HW1   35   2.222   2.746   1.225  3.2627 -1.5374 -0.0842
   12SOL    HW2   36   2.191   2.589   1.176  2.2084 -0.3906  1.3294
   13SOL     OW   37   0.444   2.977   2.934 -0.2225 -0.0096 -0.3091
   13SOL    HW1   38   0.376   3.052   2.921  0.7118 -0.6276  3.1178
   13SOL    HW2   39   0.538   3.008   2.918 -0.0639  2.3083 -3.4012
   14SOL     OW   40   1.366   1.248   1.501  0.2869  0.1385 -0.8163
   14SOL    HW1   41   1.381   1.313   1.580 -0.4233 -1.0758  1.6288
   14SOL    HW2   42   1.391   1.292   1.417 -0.6400  0.0023 -0.5065
   15SOL     OW   43   0.210   1.471   2.169  0.9940 -0.1698 -0.4758
   15SOL    HW1   44   0.116   1.496   2.141 -0.2533  1.0342  0.8115
   15SOL    HW2   45   0.237   1.385   2.121  0.4025 -1.0874  0.2003
   16SOL     OW   46   1.584   0.675   2.653  0.0275 -0.3616  0.1414
   16SOL    HW1   47   1.497   0.623   2.651  2.5402 -0.9411  2.4630
   16SOL    HW2   48   1.571   0.776   2.672 -1.5279  1.1628  0.6272
   17SOL     OW   49   2.983   2.542   2.253  0.3589 -0.2157 -0.5253
   17SOL    HW1   50   3.003   2.507   2.345  0.3168  2.7753 -1.8950
   17SOL    HW2   51   3.051   2.521   2.185 -2.7073  3.8189  6.0640
   18SOL     OW   52   1.510   1.182   0.496 -0.4997  0.0724 -0.2336
   18SOL    HW1   53   1.575   1.108   0.467  0.6202  0.2313  0.3287
   18SOL    HW2   54   1.466   1.150   0.582  0.9346 -0.8252 -1.1625
   19SOL     OW   55   3.013   1.460   2.106 -0.0281 -0.1410  0.2072
   19SOL    HW1   56   2.994   1.370   2.067  2.8248  4.1566  2.5233
   19SOL    HW2   57   2.969   1.530   2.049  1.2151  1.3929  2.7309
   20SOL     OW   58   2.232   2.284   2.805  0.2944 -0.6544 -0.4957
   20SOL    HW1   59   2.308   2.314   2.872  1.3851  0.6005  0.1488
   20SOL    HW2   60   2.252   2.194   2.767 -1.9613  2.1673  3.6444
   21SOL     OW   61   1.841   1.933   0.789 -0.4375  0.6324 -0.4194
   21SOL    HW1   62   1.849   2.029   0.751  2.4237 -1.7876 -2.1896
   21SOL    HW2   63   1.800   1.930   0.881  1.7886 -1.6780 -4.1957
   22SOL     OW   64   2.333   1.967   1.268 -0.6043 -0.2444 -0.0859
   22SOL    HW1   65   2.334   2.067   1.265 -0.7122  1.2324 -1.3714
   22SOL    HW2   66   2.264   1.930   1.208  2.5631  3.4107 -0.9916
   23SOL     OW   67   0.019   1.196   1.304  0.0595  0.1337  0.1573
   23SOL    HW1   68   3.050   1.237   1.382  0.0085  0.1391 -1.6599
   23SOL    HW2   69   3.031   1.196   1.221  0.7063 -0.8591 -2.0030
   24SOL     OW   70   1.523   1.260   1.927  0.1388  0.3402 -0.2356
   24SOL    HW1   71   1.541   1.160   1.927 -0.3536  0.3369  2.7878
   24SOL    HW2   72   1.606   1.319   1.949  0.2194  1.1262  0.9122
   25SOL     OW   73   1.742   0.062   2.294  0.0776  0.0080  0.6401
   25SOL    HW1   74   1.706   0.108   2.383  0.8257  2.3379  0.7231
   25SOL    HW2   75   1.847   0.060   2.295  0.0106 -1.6646  1.3542
   26SOL     OW   76   0.831   0.191   0.718 -0.1625 -0.3329  0.1494
   26SOL    HW1   77   0.827   0.294   0.710  1.7128 -2.5035  0.0096
   26SOL    HW2   78   0.748   0.156   0.668 -1.8761  2.8646  1.0470
   27SOL     OW   79   1.306   1.282   0.882 -0.8565 -0.3223 -0.1693
   27SOL    HW1   80   1.286   1.360   0.821 -0.3148  1.6119 -0.6312
   27SOL    HW2   81   1.305   1.318   0.977  1.1050 -0.8840  2.5940
   28SOL     OW   82   2.317   2.279   1.263 -0.4270 -0.5339 -0.1539
   28SOL    HW1   83   2.314   2.339   1.348  0.1812  1.1672  0.5389
   28SOL    HW2   84   2.259   2.320   1.192  1.9947 -0.4974 -0.5767
   29SOL     OW   85   1.999   2.997   2.315  0.3184 -0.0964 -0.1255
   29SOL    HW1   86   1.933   2.926   2.342 -0.6298 -0.7252 -1.9513
   29SOL    HW2   87   2.083   2.986   2.372 -0.6585 -1.1720  0.7526
   30SOL     OW   88   0.084   3.064   1.945  0.2003 -0.0839 -0.0466
   30SOL    HW1   89   0.018   0.061   1.938  1.1770 -0.4492  2.6147
   30SOL    HW2   90   0.084   3.011   1.855 -1.4955 -3.2273 -5.0771
   31SOL     OW   91   2.959   1.824   2.162 -0.5410 -0.3578 -0.7158
   31SOL    HW1   92   2.967   1.918   2.131  3.4727  0.8690 -0.9908
   31SOL    HW2   93   2.914   1.765   2.093  2.4790  2.3341  0.6683
   32SOL     OW   94   1.485   2.362   2.227 -0.3999 -0.1523  0.6044
   32SOL    HW1   95   1.501   2.362   2.126  1.4342 -1.4528 -0.6190
   32SOL    HW2   96   1.540   2.435   2.265 -0.2221  1.1578  2.4032
   33SOL     OW   97   0.284   0.145   2.920 -0.6965 -0.1838 -0.3821
   33SOL    HW1   98   0.204   0.104   2.968  1.2595  1.6824 -0.1076
   33SOL    HW2   99   0.259   0.212   2.852 -0.5921 -2.2630  1.3928
   34SOL     OW  100   2.569   0.143   0.291  0.2492  0.0268 -0.5636
   34SOL    HW1  101   2.578   0.131   0.393  0.5983 -0.4439  1.0459
   34SOL    HW2  102   2.662   0.161   0.251 -0.4049 -2.0503  0.3059
   35SOL     OW  103   2.729   2.726   1.711 -0.1449 -0.0152 -0.2205
   35SOL    HW1  104   2.680   2.694   1.797 -0.2572 -0.9410  1.1304
   35SOL    HW2  105   2.667   2.740   1.633  0.3011 -0.0383  2.2990
   36SOL     OW  106   2.373   2.966   2.273 -0.6527  0.2844  0.1209
   36SOL    HW1  107   2.315   2.981   2.357 -0.8029 -1.5618  2.7937
   36SOL    HW2  108   2.376   3.055   2.221 -1.9002 -0.4870  1.0709
   37SOL     OW  109   1.583   3.054   3.058  0.2555  0.5438 -0.0588
   37SOL    HW1  110   1.598   0.017   0.076 -1.2292 -1.2021  0.7968
   37SOL    HW2  111   1.491   3.015   3.047 -0.5396  4.2372 -1.8981
   38SOL     OW  112   0.413   0.466   0.103  0.0708 -0.1881  0.6055
   38SOL    HW1  113   0.463   0.534   0.158 -3.0692 -0.9862  0.9468
   38SOL    HW2  114   0.385   0.505   0.012  0.1948 -0.1911  2.6838
   39SOL     OW  115   0.820   1.797   1.960 -0.2695  0.9233 -0.0561
   39SOL    HW1  116   0.872   1.808   1.872 -2.2541  3.3237  0.9514
   39SOL    HW2  117   0.829   1.883   2.013  1.5860 -0.0004 -0.1793
   40SOL     OW  118   3.042   0.368   2.431  0.6592 -0.0645 -0.0817
   40SOL    HW1  119   3.014   0.462   2.401  0.7694  1.0341  0.3379
   40SOL    HW2  120   0.070   0.356   2.445  3.0739 -1.3032  1.4628
   41SOL     OW  121   1.324   0.858   1.786 -0.5123 -0.0727 -0.3492
   41SOL    HW1  122   1.413   0.905   1.765  0.1979 -0.7926  1.0295
   41SOL    HW2  123   1.349   0.784   1.852 -2.8284 -1.7511 -0.5950
   42SOL     OW  124   2.679   0.195   1.350  0.0842 -0.0813  0.0239
   42SOL    HW1  125   2.697   0.174   1.449 -2.4000 -1.7891 -0.2435
   42SOL    HW2  126   2.625   0.281   1.344 -1.9332  0.0884 -2.3210
   43SOL     OW  127   1.578   0.908   1.681  0.1083 -0.0563  0.2476
   43SOL    HW1  128   1.567   0.956   1.591  1.7259  1.5083 -1.1829
   43SOL    HW2  129   1.604   0.807   1.675  0.6615 -1.3588  2.8681
   44SOL     OW  130   0.015   0.323   3.063 -0.2346  0.1204  0.3885
   44SOL    HW1  131   0.081   0.297   0.062 -0.2842 -0.7877  0.0695
   44SOL    HW2  132   3.006   0.270   3.074 -3.4750 -0.5197  2.0861
   45SOL     OW  133   0.277   1.847   1.702 -0.1578  0.1827  0.3276
   45SOL    HW1  134   0.363   1.810   1.735 -2.6754  1.3930 -1.4241
   45SOL    HW2  135   0.301   1.923   1.630  2.3117  1.1035 -2.6337
   46SOL     OW  136   2.385   2.742   1.755  0.0808  0.2971 -0.5290
   46SOL    HW1  137   2.387   2.829   1.806 -2.0656 -1.7543  1.1435
   46SOL    HW2  138   2.457   2.669   1.784  1.7846 -2.0190  1.5862
   47SOL     OW  139   0.290   1.859   1.305  0.0682 -0.1452 -0.1086
   47SOL    HW1  140   0.350   1.790   1.349  0.8615  0.5303 -1.4602
   47SOL    HW2  141   0.194   1.827   1.291  0.3349 -2.0672  0.5349
   48SOL     OW  142   0.757   2.808   2.754  0.0877  0.3827  0.6453
   48SOL    HW1  143   0.738   2.743   2.675  1.9184  0.9278 -1.2090
   48SOL    HW2  144   0.772   2.746   2.839  1.5632 -1.6016  1.0946
   49SOL     OW  145   2.823   1.404   1.645 -0.1063  0.0887  0.0134
   49SOL    HW1  146   2.922   1.386   1.612  1.6607 -0.3120 -2.1209
   49SOL    HW2  147   2.767   1.428   1.565  1.5970 -0.9775 -1.4827
   50SOL     OW  148   1.201   2.692   0.563 -0.1003 -0.2634  0.1005
   50SOL    HW1  149   1.218   2.657   0.657 -0.4868 -0.5899 -0.2427
   50SOL    HW2  150   1.137   2.769   0.574  0.6081 -0.5690  0.9815
   51SOL     OW  151   1.027   0.099   0.882  0.3709 -0.0660  0.2828
   51SOL    HW1  152   0.941   0.107   0.826 -1.6981  0.6122 -1.4058
   51SOL    HW2  153   1.102   0.166   0.858 -2.1579  2.1403 -2.4592
   52SOL     OW  154   0.580   1.272   0.246  0.2652  0.0182 -0.4702
   52SOL    HW1  155   0.575   1.168   0.224 -0.4008 -0.7106  1.0767
   52SOL    HW2  156   0.596   1.284   0.349 -0.0331  1.3629  2.9984
   53SOL     OW  157   1.118   2.742   2.631  0.7563 -0.3440 -0.1347
   53SOL    HW1  158   1.161   2.792   2.710 -1.5573  0.1505  1.7486
   53SOL    HW2  159   1.191   2.712   2.564  0.5313 -1.5503 -2.7034
   54SOL     OW  160   2.142   0.337   1.803  0.0652 -0.2223 -0.3699
   54SOL    HW1  161   2.101   0.406   1.737 -0.7208  1.5804  0.3713
   54SOL    HW2  162   2.148   0.383   1.894  0.5602 -1.4386 -1.2084
   55SOL     OW  163   2.809   2.381   0.296 -0.2122 -0.3613 -0.7203
   55SOL    HW1  164   2.832   2.363   0.197  2.4541 -1.2666 -2.7120
   55SOL    HW2  165   2.830   2.477   0.320  0.0021 -1.7202 -1.5449
   56SOL     OW  166   0.913   2.927   1.646 -0.1742  0.6994  0.1017
   56SOL    HW1  167   0.861   2.926   1.556  0.8811 -0.3933 -0.8567
   56SOL    HW2  168   0.886   2.850   1.708 -0.0871  0.5706 -0.3842
   57SOL     OW  169   1.784   1.027   2.542 -0.0259 -0.1773 -0.4203
   57SOL    HW1  170   1.851   0.955   2.567  0.9578 -0.7798  1.0324
   57SOL    HW2  171   1.756   1.008   2.446 -0.5367 -2.7854  1.2524
   58SOL     OW  172   2.955   0.894   2.004 -0.4868 -0.3733 -0.3650
   58SOL    HW1  173   2.934   0.801   2.046  1.3171 -1.8805  2.3195
   58SOL    HW2  174   3.056   0.905   1.987 -1.2759 -1.9796 -0.9605
   59SOL     OW  175   0.902   2.498   1.707  0.2267  0.0166 -0.2906
   59SOL    HW1  176   0.856   2.483   1.619  1.9644  0.1034  1.1829
   59SOL    HW2  177   1.005   2.473   1.703 -2.1480  1.6507  1.0482
   60SOL     OW  178   2.152   2.586   0.310 -0.6489  0.4618  0.0873
   60SOL    HW1  179   2.145   2.488   0.319 -1.6913 -0.4985  0.0695
   60SOL    HW2  180   2.075   2.619   0.248  0.4755  0.4907  0.4349
   61SOL     OW  181   1.483   2.462   0.597 -0.1090 -0.6763  0.0172
   61SOL    HW1  182   1.548   2.428   0.666  2.3512 -0.0352 -0.5603
   61SOL    HW2  183   1.407   2.517   0.646 -4.6124 -0.6433 -3.3856
   62SOL     OW  184   1.830   2.953   0.003  0.1977 -1.0094  0.1614
   62SOL    HW1  185   1.730   2.978   0.004 -1.6458 -0.1879 -0.5612
   62SOL    HW2  186   1.887   2.991   0.076 -0.9920  0.1744 -1.1103
   63SOL     OW  187   2.370   0.442   0.113  0.1251 -0.7207  0.4808
   63SOL    HW1  188   2.298   0.510   0.102  1.9279 -1.5492  2.4782
   63SOL    HW2  189   2.445   0.461   0.044 -0.0775  0.4945 -0.4362
   64SOL     OW  190   1.262   0.979   2.909 -0.1559 -0.2392  0.4450
   64SOL    HW1  191   1.262   0.876   2.903  2.5549 -0.8772  0.1541
   64SOL    HW2  192   1.178   1.024   2.877  0.3018 -0.5011  0.7626
   65SOL     OW  193   0.584   2.422   1.278  0.7583 -0.4957 -0.0886
   65SOL    HW1  194   0.593   2.326   1.246  1.5483 -0.0752  1.1414
   65SOL    HW2  195   0.657   2.486   1.246 -0.4271  1.0044 -0.2013
   66SOL     OW  196   1.069   1.431   1.367 -0.0597  0.3631 -0.0481
   66SOL    HW1  197   1.081   1.348   1.428  0.3648 -3.2588 -2.4939
   66SOL    HW2  198   1.130   1.505   1.400 -1.5763  2.8617  1.4353
   67SOL     OW  199   2.343   1.990   1.965  0.2407  0.3043  0.2617
   67SOL    HW1  200   2.430   2.032   1.928 -0.0123  0.0413 -0.9828
   67SOL    HW2  201   2.303   1.931   1.890 -3.5758 -2.7743 -0.5247
   68SOL     OW  202   0.625   1.340   2.039 -0.1164 -0.0376  0.0966
   68SOL    HW1  203   0.554   1.394   2.091 -1.8363 -3.6156 -0.4815
   68SOL    HW2  204   0.703   1.325   2.101 -0.8118  1.7277  0.6224
   69SOL     OW  205   0.061   2.738   0.061  0.2197  0.3668 -0.5601
   69SOL    HW1  206   0.156   2.772   0.051  2.2280  1.1722  0.3991
   69SOL    HW2  207   3.074   2.803   0.106 -1.1094  0.0145  2.7767
   70SOL     OW  208   2.210   0.782   2.376  0.3603  0.3383 -0.2688
   70SOL    HW1  209   2.239   0.861   2.427  0.4373 -0.2925  1.0909
   70SOL    HW2  210   2.294   0.744   2.339  0.9022 -0.8483  2.4054
   71SOL     OW  211   0.501   1.993   0.845  0.2945  0.4422  0.9681
   71SOL    HW1  212   0.579   1.928   0.843  0.1060 -0.2127 -1.2341
   71SOL    HW2  213   0.455   1.996   0.936 -0.9453  0.4078  0.5289
   72SOL     OW  214   2.589   2.083   0.534  0.0996  0.4154  0.1285
   72SOL    HW1  215   2.584   2.179   0.501 -2.7956 -1.0676  0.6551
   72SOL    HW2  216   2.555   2.062   0.631  0.8444  1.3951  1.5212
   73SOL     OW  217   1.220   0.535   0.760 -0.4047 -0.0325 -0.1098
   73SOL    HW1  218   1.185   0.538   0.664 -1.2703  0.9192 -1.2174
   73SOL    HW2  219   1.273   0.618   0.785 -1.1776  0.6921 -0.7218
   74SOL     OW  220   2.537   2.135   1.829  0.2989 -0.2773  0.1638
   74SOL    HW1  221   2.618   2.083   1.800  2.2812 -1.6148 -0.2341
   74SOL    HW2  222   2.477   2.156   1.748 -4.2524  0.9399 -0.2908
   75SOL     OW  223   1.582   1.699   1.921 -0.0804  0.4353 -0.4736
   75SOL    HW1  224   1.480   1.685   1.920  1.6313  2.1076 -3.3750
   75SOL    HW2  225   1.621   1.631   1.983  1.8174  1.3936 -0.8390
   76SOL     OW  226   1.309   1.783   1.055 -0.7554  0.0428  1.0713
   76SOL    HW1  227   1.413   1.787   1.054  1.2816 -1.0666 -0.8374
   76SOL    HW2  228   1.282   1.689   1.022  1.0107  0.4008  1.2881
   77SOL     OW  229   2.699   1.273   1.840 -0.0496 -0.1973  0.3007
   77SOL    HW1  230   2.713   1.316   1.928 -1.3823 -2.5799 -1.0773
   77SOL    HW2  231   2.747   1.321   1.765 -1.4921 -0.8955  2.5472
   78SOL     OW  232   1.735   0.770   0.342 -0.3231  0.0245  0.6038
   78SOL    HW1  233   1.717   0.736   0.247 -1.7579  1.0288 -2.2242
   78SOL    HW2  234   1.799   0.708   0.394  2.2734 -0.4101  1.0337
   79SOL     OW  235   1.205   1.432   2.158  0.1466 -0.3767 -0.7223
   79SOL    HW1  236   1.267   1.354   2.134  1.3089  1.5441 -0.3878
   79SOL    HW2  237   1.111   1.420   2.117  0.7345  2.0898  0.0422
   80SOL     OW  238   0.929   0.332   1.464  0.1208 -0.8896 -0.0682
   80SOL    HW1  239   0.949   0.429   1.423  0.8527 -0.1326  1.1421
   80SOL    HW2  240   1.007   0.298   1.521  0.0683  2.2739 -1.3114
   81SOL     OW  241   0.509   2.497   0.287  0.2969 -0.4759  0.0761
   81SOL    HW1  242   0.481   2.522   0.195  0.7692 -0.6082 -0.3285
   81SOL    HW2  243   0.520   2.396   0.293 -0.6838 -0.6480  1.1505
   82SOL     OW  244   1.104   0.247   1.692 -0.1097 -0.7717 -0.4185
   82SOL    HW1  245   1.157   0.173   1.655 -1.0899  1.9972  1.5442
   82SOL    HW2  246   1.104   0.241   1.791  0.8251  2.5432  2.8213
   83SOL     OW  247   0.504   2.209   1.127  0.0441 -0.1131 -0.4834
   83SOL    HW1  248   0.477   2.271   1.046 -0.6762 -1.7032 -0.5473
   83SOL    HW2  249   0.444   2.121   1.130  1.1314 -0.7525 -0.1058
   84SOL     OW  250   2.992   1.624   0.528  0.1231  0.6371  0.4302
   84SOL    HW1  251   2.915   1.561   0.500 -0.8893 -0.7597 -1.3177
   84SOL    HW2  252   3.066   1.622   0.460  0.2905  0.3464  0.6849
   85SOL     OW  253   2.481   1.748   1.341 -0.1315  0.6894  0.4265
   85SOL    HW1  254   2.440   1.835   1.306  1.1203 -2.1320  1.8023
   85SOL    HW2  255   2.479   1.680   1.265  0.3596 -0.7742  0.7490
   86SOL     OW  256   1.464   2.403   1.642  0.2027 -0.1319 -0.2303
   86SOL    HW1  257   1.372   2.421   1.676  0.0340 -0.1190  0.4095
   86SOL    HW2  258   1.473   2.305   1.617 -0.1245 -1.6217  0.5014
   87SOL     OW  259   2.234   1.461   0.435 -0.1172  0.4735 -0.1562
   87SOL    HW1  260   2.147   1.504   0.464 -0.7314  1.2620  2.6134
   87SOL    HW2  261   2.291   1.523   0.380 -3.2180 -0.7226  1.7613
   88SOL     OW  262   0.522   0.042   0.828 -0.3265  0.4354  0.2471
   88SOL    HW1  263   0.534   0.069   0.734 -3.6469 -2.0469  1.1138
   88SOL    HW2  264   0.570   0.104   0.893  2.4901 -0.2124  1.8200
   89SOL     OW  265   0.743   0.428   1.654  0.4553  0.1242  0.6795
   89SOL    HW1  266   0.745   0.526   1.631 -1.0787 -0.6099  1.5804
   89SOL    HW2  267   0.805   0.376   1.597 -0.1920 -0.0032 -0.4112
   90SOL     OW  268   0.137   1.995   0.470  0.0463  0.7395  0.1210
   90SOL    HW1  269   0.194   1.988   0.554 -0.3775 -2.1632  0.8968
   90SOL    HW2  270   0.059   2.055   0.493  1.2392 -0.8374 -1.9292
   91SOL     OW  271   1.114   1.542   0.696 -0.4122  0.4591  0.6571
   91SOL    HW1  272   1.118   1.567   0.794  2.2991 -1.3264  0.7580
   91SOL    HW2  273   1.197   1.582   0.661 -2.7952 -1.6488  3.5886
   92SOL     OW  274   2.241   3.039   1.619  0.0489  0.3158  0.4169
   92SOL    HW1  275   2.317   3.029   1.688 -1.1750 -0.0014  1.8628
   92SOL    HW2  276   2.223   2.946   1.572 -0.1766 -3.2065 -1.1958
   93SOL     OW  277   0.378   1.196   2.895 -0.5248 -0.6922  0.2119
   93SOL    HW1  278   0.438   1.218   2.973 -1.4026 -0.7764 -1.4647
   93SOL    HW2  279   0.416   1.222   2.805  0.8578 -2.7958  0.6809
   94SOL     OW  280   2.424   3.010   1.826  0.1791 -0.9140 -0.5309
   94SOL    HW1  281   2.361   3.066   1.887 -2.1884 -0.7852 -0.7565
   94SOL    HW2  282   2.519   3.022   1.838 -3.9124 -1.5480 -0.7124
   95SOL     OW  283   1.934   0.703   1.709  0.1188 -0.2750  0.0881
   95SOL    HW1  284   1.885   0.758   1.635 -0.8417 -0.4532  0.6577
   95SOL    HW2  285   2.004   0.646   1.659 -2.3173  0.5813 -1.6036
   96SOL     OW  286   2.757   0.292   2.009 -0.8633 -0.1326 -0.6422
   96SOL    HW1  287   2.765   0.353   2.089 -0.3399 -2.0717  0.1175
   96SOL    HW2  288   2.666   0.296   1.969 -1.7418  0.9427  0.9211
   97SOL     OW  289   2.248   0.136   1.404  0.0216 -0.2674 -0.5868
   97SOL    HW1  290   2.173   0.135   1.334  1.1599  1.5922 -1.8877
   97SOL    HW2  291   2.227   0.073   1.479 -2.8637 -0.3175 -0.4714
   98SOL     OW  292   2.151   2.560   1.688  0.0371 -0.5374 -0.1218
   98SOL    HW1  293   2.170   2.478   1.742  0.1696  1.6059 -1.2606
   98SOL    HW2  294   2.210   2.636   1.729 -1.1976  0.2225  2.2766
   99SOL     OW  295   0.593   0.848   1.016 -0.5012  0.0638  0.3303
   99SOL    HW1  296   0.632   0.937   0.978 -0.2532  0.6227 -1.4203
   99SOL    HW2  297   0.505   0.840   0.976  2.9096  1.2704  0.8570
  100SOL     OW  298   2.589   1.698   1.972  0.4161  0.4331 -0.2505
  100SOL    HW1  299   2.499   1.716   2.014  2.3114  2.2680 -0.1974
  100SOL    HW2  300   2.604   1.768   1.900 -1.9481 -1.9652  0.8431
  101SOL     OW  301   2.026   3.016   0.206 -0.1291  0.3490  0.2165
  101SOL    HW1  302   2.078   3.074   0.271 -2.3046  1.3059 -0.0565
  101SOL    HW2  303   2.087   2.982   0.131 -1.7704  0.1553  0.4564
  102SOL     OW  304   0.184   2.979   1.136 -0.0802  0.7301 -0.0029
  102SOL    HW1  305   0.085   3.008   1.128 -0.5146  0.9742 -2.0698
  102SOL    HW2  306   0.218   2.977   1.040  2.7515  0.0291 -1.0520
  103SOL     OW  307   0.132   0.064   2.286 -0.0423 -0.3981 -0.0283
  103SOL    HW1  308   0.049   0.010   2.294  0.8810 -0.5023 -3.0145
  103SOL    HW2  309   0.216   0.007   2.281  0.2866  2.4370  1.8678
  104SOL     OW  310   0.336   2.032   1.512 -0.0897  0.0336 -0.9869
  104SOL    HW1  311   0.340   1.957   1.442 -0.0428 -1.2887  1.4941
  104SOL    HW2  312   0.268   2.096   1.479  2.5944  1.1387  0.3579
  105SOL     OW  313   0.578   1.819   2.148  0.4954 -0.0182  0.1892
  105SOL    HW1  314   0.664   1.832   2.199 -1.8084  0.8738 -3.5156
  105SOL    HW2  315   0.595   1.860   2.053 -1.7439 -0.0239  0.2058
  106SOL     OW  316   2.242   0.345   0.602  0.2663 -0.3402  0.2492
  106SOL    HW1  317   2.220   0.254   0.638  1.5139  1.3331  0.4153
  106SOL    HW2  318   2.204   0.348   0.502 -1.5824 -1.5032 -0.6583
  107SOL     OW  319   0.411   1.266   1.243 -0.7651  0.1485  0.4457
  107SOL    HW1  320   0.418   1.336   1.165 -0.2138  1.6124 -0.4593
  107SOL    HW2  321   0.507   1.225   1.251  3.8964 -0.4606 -0.3330
  108SOL     OW  322   2.752   0.996   2.424  0.3164  0.1298  0.2598
  108SOL    HW1  323   2.824   1.048   2.374  0.5678 -1.7655 -1.1777
  108SOL    HW2  324   2.757   0.900   2.387 -0.1011 -1.1963  0.7054
  109SOL     OW  325   1.947   2.948   2.841 -0.0416 -0.4132  0.0370
  109SOL    HW1  326   1.900   3.017   2.787  0.7884 -1.0693  0.5636
  109SOL    HW2  327   1.913   2.953   2.939 -1.0227 -0.2404 -0.0941
  110SOL     OW  328   0.298   2.086   0.022  0.2584  0.1635  0.0453
  110SOL    HW1  329   0.221   2.123   0.081 -1.6477  1.4139  1.4721
  110SOL    HW2  330   0.327   2.002   0.061 -2.8843 -1.4540 -1.2475
  111SOL     OW  331   2.680   0.761   2.308 -0.6059 -0.0959  0.4634
  111SOL    HW1  332   2.700   0.665   2.278  1.3614 -0.5658  0.5242
  111SOL    HW2  333   2.627   0.766   2.397 -0.2997  1.4519  3.6428
  112SOL     OW  334   1.900   2.631   1.343  0.1232  1.4795  0.2005
  112SOL    HW1  335   1.870   2.727   1.339  3.4150  0.2747 -0.5032
  112SOL    HW2  336   1.996   2.627   1.298  0.1577  1.2328 -1.8830
  113SOL     OW  337   2.074   2.057   2.350 -0.0127  0.5637 -0.1619
  113SOL    HW1  338   2.084   1.959   2.325 -0.8900  0.7578  0.8541
  113SOL    HW2  339   2.163   2.105   2.341  2.1423 -2.2550 -0.6498
  114SOL     OW  340   0.476   0.393   0.401  0.5017  0.7678  0.4023
  114SOL    HW1  341   0.426   0.303   0.412 -1.7342  0.0690 -0.5293
  114SOL    HW2  342   0.476   0.431   0.304  2.6652 -2.4346 -0.7311
  115SOL     OW  343   2.830   1.452   0.018  0.6341 -0.2017 -0.1060
  115SOL    HW1  344   2.916   1.485   3.051  0.7249  1.2543 -1.8387
  115SOL    HW2  345   2.849   1.399   0.107  0.8386  1.5661  0.9660
  116SOL     OW  346   2.977   0.719   1.681 -0.1955  0.1876 -0.3487
  116SOL    HW1  347   3.020   0.698   1.590 -2.7570  0.4909  1.7906
  116SOL    HW2  348   2.931   0.808   1.675  0.0142  0.3452 -2.0422
  117SOL     OW  349   2.379   0.268   1.216  0.1781 -0.7531  0.1811
  117SOL    HW1  350   2.466   0.312   1.256 -1.2097  0.6710 -0.6690
  117SOL    HW2  351   2.334   0.205   1.282 -0.0840  0.6703 -0.5174
  118SOL     OW  352   2.704   2.187   2.064  0.3759 -0.4781  0.5161
  118SOL    HW1  353   2.706   2.283   2.097 -1.2881 -0.4827 -0.1737
  118SOL    HW2  354   2.639   2.173   1.993 -0.0286 -0.4999  2.3020
  119SOL     OW  355   0.670   1.773   1.094 -0.6714 -0.0508 -0.4833
  119SOL    HW1  356   0.706   1.868   1.118  0.6060  2.0286  1.4586
  119SOL    HW2  357   0.682   1.720   1.178  3.3277 -0.9975 -0.0329
  120SOL     OW  358   0.315   1.393   1.493  0.2153  0.3142 -0.5051
  120SOL    HW1  359   0.329   1.354   1.396 -0.6811  0.6983 -5.5131
  120SOL    HW2  360   0.293   1.316   1.560 -0.1269 -0.1080  0.5884
  121SOL     OW  361   1.531   0.915   0.844 -0.2386 -0.0178  0.0184
  121SOL    HW1  362   1.506   0.951   0.936  1.4956 -0.3073  0.0350
  121SOL    HW2  363   1.484   0.974   0.775  0.8582 -2.3421 -1.3129
  122SOL     OW  364   2.109   2.559   2.746  0.1688  0.2872  0.1773
  122SOL    HW1  365   2.016   2.520   2.718 -1.4932 -2.5615 -1.8872
  122SOL    HW2  366   2.178   2.485   2.767 -3.5086 -3.5128 -0.8224
  123SOL     OW  367   2.953   2.929   0.405 -0.3779 -0.2538  0.2669
  123SOL    HW1  368   2.907   2.863   0.466  2.2822  1.6385  1.6122
  123SOL    HW2  369   2.920   3.019   0.441 -0.8623 -0.8133 -0.8235
  124SOL     OW  370   1.556   1.354   0.266 -0.0392 -0.0608  0.0562
  124SOL    HW1  371   1.509   1.298   0.196  0.3974  1.4021 -1.0821
  124SOL    HW2  372   1.544   1.314   0.357  1.9103 -1.4709  2.2424
  125SOL     OW  373   0.073   0.808   2.281  0.3317 -0.1245  0.0262
  125SOL    HW1  374   0.091   0.897   2.324  3.1685 -0.2846 -0.6415
  125SOL    HW2  375   0.117   0.808   2.191 -0.2219 -0.5376 -2.1481
  126SOL     OW  376   0.069   2.464   0.139  0.2622 -0.0445 -0.8236
  126SOL    HW1  377   0.080   2.460   0.244 -0.8470  3.2228  1.9419
  126SOL    HW2  378   0.066   2.563   0.112 -0.7300 -0.4317 -2.0099
  127SOL     OW  379   2.843   1.985   0.462 -1.0397 -0.0083  0.4103
  127SOL    HW1  380   2.745   2.015   0.472  0.9726 -1.8140 -0.0074
  127SOL    HW2  381   2.847   1.912   0.392  2.4516 -1.9036 -0.9092
  128SOL     OW  382   1.226   0.875   0.910 -0.0093 -0.1891 -0.2767
  128SOL    HW1  383   1.281   0.918   0.982  0.3961 -2.8701  0.3081
  128SOL    HW2  384   1.277   0.855   0.828  0.0642  3.6387 -0.2131
  129SOL     OW  385   2.731   1.988   1.237 -0.0530  0.6166  0.5071
  129SOL    HW1  386   2.778   2.048   1.166 -0.0166  1.0295  1.7639
  129SOL    HW2  387   2.795   1.955   1.309  0.0737 -1.5773 -1.5513
  130SOL     OW  388   2.044   0.940   0.429  0.2535 -0.1357 -0.0133
  130SOL    HW1  389   2.143   0.950   0.460 -0.0312  0.9639  1.5527
  130SOL    HW2  390   1.997   1.030   0.439  2.6109  0.4840 -0.5039
  131SOL     OW  391   2.947   1.181   2.539  0.4323  0.7279 -0.1769
  131SOL    HW1  392   2.917   1.214   2.631 -1.5825  1.2069 -1.2430
  131SOL    HW2  393   2.924   1.251   2.466 -0.0573 -0.4799  1.9456
  132SOL     OW  394   1.014   1.293   2.039  0.1180  0.0864 -0.1262
  132SOL    HW1  395   1.001   1.230   2.115  0.4450 -0.8876 -0.7118
  132SOL    HW2  396   0.941   1.273   1.964  0.7264 -0.6204  0.4082
  133SOL     OW  397   0.287   1.210   0.187 -0.0891  0.3599  0.1868
  133SOL    HW1  398   0.222   1.272   0.137  0.0439 -3.4910 -3.5562
  133SOL    HW2  399   0.385   1.238   0.171 -1.7299 -0.6111 -0.2997
  134SOL     OW  400   2.602   1.108   0.018  0.8416  0.0665 -0.4179
  134SOL    HW1  401   2.696   1.078   3.065  0.6289  3.2358  1.1641
  134SOL    HW2  402   2.555   1.160   3.022  1.2440 -0.0495 -2.7660
  135SOL     OW  403   1.688   0.653   0.109 -0.0288  0.5977 -0.3581
  135SOL    HW1  404   1.752   0.713   0.051  3.2388  0.5093 -1.7911
  135SOL    HW2  405   1.728   0.557   0.126  0.4988 -0.0252  2.1956
  136SOL     OW  406   2.011   1.744   1.647  0.5248  0.3879  0.1855
  136SOL    HW1  407   2.017   1.735   1.546 -0.2066  0.4412  1.4324
  136SOL    HW2  408   2.012   1.655   1.694  0.2556  0.0031  1.2423
  137SOL     OW  409   2.201   2.415   1.043  0.1816 -1.1547 -0.0964
  137SOL    HW1  410   2.223   2.496   0.987 -1.6432 -4.0652  1.5933
  137SOL    HW2  411   2.119   2.370   1.010  3.5941 -0.6843 -1.1928
  138SOL     OW  412   2.297   0.569   1.625  0.1762  0.2509 -0.3220
  138SOL    HW1  413   2.290   0.666   1.643 -1.7723 -1.6316  1.1286
  138SOL    HW2  414   2.219   0.534   1.574  0.3140  1.2281  0.2183
  139SOL     OW  415   2.450   2.866   2.747  0.3440  0.2232  0.1766
  139SOL    HW1  416   2.348   2.868   2.768 -2.9211 -0.2797 -0.4425
  139SOL    HW2  417   2.504   2.907   2.822  0.5465 -2.3249  1.2811
  140SOL     OW  418   1.442   1.940   2.442 -0.6955  0.3162  0.6178
  140SOL    HW1  419   1.473   1.969   2.351 -0.9289 -0.4344  0.2914
  140SOL    HW2  420   1.354   1.888   2.439  0.8413 -1.2296 -0.8835
  141SOL     OW  421   0.906   0.909   2.437  0.0055  0.4775  0.6272
  141SOL    HW1  422   0.822   0.929   2.487  5.0363 -1.3412 -1.1906
  141SOL    HW2  423   0.989   0.904   2.501  4.2879  0.9292  2.7043
  142SOL     OW  424   2.514   2.573   2.236  0.3282 -0.1767  0.1797
  142SOL    HW1  425   2.546   2.663   2.213 -1.5508 -2.9169  1.6508
  142SOL    HW2  426   2.441   2.543   2.169  0.0086 -2.8537 -2.0693
  143SOL     OW  427   1.063   2.316   0.322  0.1004  0.1616 -0.2749
  143SOL    HW1  428   1.109   2.407   0.316  0.5596 -0.3382  0.0768
  143SOL    HW2  429   1.007   2.303   0.404 -0.7319  2.9856 -0.1656
  144SOL     OW  430   0.846   2.659   0.626 -0.6190  0.2655  0.0407
  144SOL    HW1  431   0.924   2.728   0.625  0.8208  0.5348 -0.2294
  144SOL    HW2  432   0.778   2.679   0.557 -0.2707 -1.3221  2.4572
  145SOL     OW  433   1.643   2.590   2.321 -0.5195 -0.3938 -0.1602
  145SOL    HW1  434   1.696   2.518   2.372  2.2177 -0.5398  1.0408
  145SOL    HW2  435   1.625   2.674   2.381 -0.0796  1.8482 -1.1862
  146SOL     OW  436   2.196   2.936   0.006 -0.0449 -0.1315 -0.2693
  146SOL    HW1  437   2.180   3.011   3.020 -2.4128 -1.5059 -1.2807
  146SOL    HW2  438   2.135   2.860   3.056  2.4465 -1.7322  0.5819
  147SOL     OW  439   0.055   1.554   1.152 -0.0967 -0.2088  0.1348
  147SOL    HW1  440   0.099   1.490   1.088  0.9610  1.3465 -2.7474
  147SOL    HW2  441   3.039   1.525   1.151  0.4381 -0.8719 -1.9386
  148SOL     OW  442   1.906   2.933   0.446  0.6897 -0.3202 -0.5539
  148SOL    HW1  443   1.915   2.831   0.454 -0.1927 -1.1381 -1.9957
  148SOL    HW2  444   1.928   2.965   0.357 -2.2294  0.4629  2.4282
  149SOL     OW  445   0.657   1.879   3.060 -0.3277 -0.2344 -0.3244
  149SOL    HW1  446   0.682   1.777   3.051 -0.4961  1.3491 -1.1775
  149SOL    HW2  447   0.631   1.911   2.965 -0.4080 -0.6760  0.1098
  150SOL     OW  448   0.358   2.713   1.074 -0.2136  0.6429 -0.4032
  150SOL    HW1  449   0.327   2.775   1.146 -1.5173 -2.8995  2.3142
  150SOL    HW2  450   0.354   2.760   0.985  0.0848 -0.1473 -0.2672
  151SOL     OW  451   0.181   1.015   2.989 -0.3510  0.2766  0.8162
  151SOL    HW1  452   0.217   1.109   2.972 -0.9787  2.3778  2.0689
  151SOL    HW2  453   0.101   0.995   2.923  2.5567 -1.1458 -0.0782
  152SOL     OW  454   3.029   1.904   0.966 -0.3188 -0.1769  0.0231
  152SOL    HW1  455   2.966   1.957   0.904  0.7897  1.8990 -2.0881
  152SOL    HW2  456   0.000   1.828   0.920 -1.1833  1.1158  0.8248
  153SOL     OW  457   1.656   2.295   0.741  0.0227  0.3109  0.7802
  153SOL    HW1  458   1.726   2.241   0.689 -0.7536  1.3963 -2.8457
  153SOL    HW2  459   1.588   2.245   0.799 -0.7570  2.2545  0.3941
  154SOL     OW  460   0.720   2.828   1.496 -0.1642 -0.2180 -0.2339
  154SOL    HW1  461   0.687   2.922   1.496  1.4988 -2.8448  1.8287
  154SOL    HW2  462   0.718   2.786   1.406 -0.5124  0.9833  0.2471
  155SOL     OW  463   2.835   2.093   0.822 -0.7926  0.1944  0.0597
  155SOL    HW1  464   2.873   2.138   0.739 -0.0122 -3.8261  2.5321
  155SOL    HW2  465   2.736   2.107   0.829  1.2918 -0.4496  2.8280
  156SOL     OW  466   2.521   2.036   0.094 -0.3257  0.0362 -0.0431
  156SOL    HW1  467   2.623   2.017   0.071  4.4949  2.7644  0.5005
  156SOL    HW2  468   2.497   1.985   0.183  0.1520  0.1098 -0.6581
  157SOL     OW  469   0.268   2.493   1.865  0.5141  0.5709  0.1195
  157SOL    HW1  470   0.221   2.406   1.834 -0.6661  0.0504  0.2526
  157SOL    HW2  471   0.330   2.477   1.942 -2.4261  1.3961 -0.2773
  158SOL     OW  472   1.414   0.410   1.031  0.6752 -0.5904  0.1247
  158SOL    HW1  473   1.397   0.314   1.011  0.2506  2.8017  1.1299
  158SOL    HW2  474   1.436   0.423   1.125 -0.4590 -0.1403 -0.1551
  159SOL     OW  475   1.667   1.031   0.184  0.4623 -0.0786  0.1537
  159SOL    HW1  476   1.701   0.937   0.207 -2.3216  1.5318  1.0012
  159SOL    HW2  477   1.604   1.025   0.108  2.2330 -1.1820  3.4027
  160SOL     OW  478   1.277   1.901   0.395 -0.1339 -0.0120  0.0632
  160SOL    HW1  479   1.249   1.998   0.377 -0.6431  0.4800 -1.0055
  160SOL    HW2  480   1.224   1.830   0.342  0.3146  1.2806  0.2842
  161SOL     OW  481   2.523   2.219   2.463  0.0048  0.2064 -0.1179
  161SOL    HW1  482   2.611   2.173   2.438 -1.2333  1.1390  0.0116
  161SOL    HW2  483   2.528   2.321   2.450  2.0340 -0.6516  0.5376
  162SOL     OW  484   0.204   2.204   1.360 -0.2255  0.0082 -0.0329
  162SOL    HW1  485   0.120   2.192   1.305 -1.4502  0.3153 -0.1933
  162SOL    HW2  486   0.252   2.287   1.328 -2.7648  1.6347  1.5873
  163SOL     OW  487   0.217   0.338   2.722 -0.5158  0.2936  0.0465
  163SOL    HW1  488   0.243   0.321   2.626 -0.5214  1.0882 -0.8129
  163SOL    HW2  489   0.198   0.438   2.740  0.3739 -0.0577 -1.3701
  164SOL     OW  490   0.106   2.692   2.845  0.2424  0.1992 -0.4449
  164SOL    HW1  491   0.188   2.728   2.804 -3.7178  1.9712  0.9374
  164SOL    HW2  492   0.124   2.679   2.943  0.0705 -0.5081  1.4841
  165SOL     OW  493   2.968   0.796   1.263  0.3727 -0.1210 -0.7694
  165SOL    HW1  494   2.873   0.758   1.267  2.2605 -2.2449  0.7196
  165SOL    HW2  495   3.031   0.736   1.214  0.7200  0.3135 -0.0878
  166SOL     OW  496   2.061   1.701   1.390 -0.4527 -0.0266 -0.1270
  166SOL    HW1  497   2.116   1.615   1.385 -0.0159 -0.3205  1.9485
  166SOL    HW2  498   2.087   1.757   1.308  1.4473  1.6272 -0.3346
  167SOL     OW  499   0.394   0.598   2.387  0.1879  0.2516  0.3471
  167SOL    HW1  500   0.368   0.616   2.288  0.3901 -0.4721  0.6427
  167SOL    HW2  501   0.320   0.610   2.456 -0.7527 -1.3186 -0.1050
  168SOL     OW  502   2.164   0.102   2.220 -0.3882 -0.2690 -0.2109
  168SOL    HW1  503   2.101   0.028   2.250 -1.3746 -0.6192  0.4424
  168SOL    HW2  504   2.234   0.133   2.290  1.5588  1.6699  0.9831
  169SOL     OW  505   0.495   0.943   3.016 -0.0847  0.1775 -0.9673
  169SOL    HW1  506   0.404   0.984   2.985 -1.7848 -2.1682  1.3496
  169SOL    HW2  507   0.574   0.974   2.958  0.4184 -0.7014 -1.0848
  170SOL     OW  508   0.800   1.410   1.423 -0.2871 -0.2103  0.0959
  170SOL    HW1  509   0.890   1.426   1.384 -0.1133  1.7992  0.9426
  170SOL    HW2  510   0.805   1.359   1.507 -1.3280  2.0231 -1.0513
  171SOL     OW  511   1.102   2.668   1.503 -0.9753 -0.5579  0.5007
  171SOL    HW1  512   1.032   2.741   1.515  0.8717  1.4125  0.3183
  171SOL    HW2  513   1.101   2.640   1.404  1.2160  0.1013 -0.8539
  172SOL     OW  514   1.130   3.013   1.995  0.2981  0.4922  0.3458
  172SOL    HW1  515   1.057   2.995   2.062  1.1842  1.6324  0.1721
  172SOL    HW2  516   1.165   0.026   2.007 -1.6021 -4.4840 -1.6194
  173SOL     OW  517   1.077   2.533   0.928 -0.0089  0.2643 -0.0227
  173SOL    HW1  518   0.982   2.560   0.904  0.7406 -0.7958 -0.8660
  173SOL    HW2  519   1.095   2.443   0.881  1.9266 -0.3453 -0.0682
  174SOL     OW  520   2.160   3.073   0.585 -0.5568 -0.0284  0.7106
  174SOL    HW1  521   2.070   0.039   0.592  0.1639 -2.2197  0.2083
  174SOL    HW2  522   2.201   0.019   0.493  0.7548  1.2662 -2.8801
  175SOL     OW  523   1.383   1.099   0.709 -0.6767  0.7148  0.0999
  175SOL    HW1  524   1.361   1.162   0.783  2.2438 -0.2582 -0.6489
  175SOL    HW2  525   1.298   1.068   0.679  6.2290  1.1577 -0.2270
  176SOL     OW  526   0.887   1.504   0.545 -0.0540  0.2089 -0.5116
  176SOL    HW1  527   0.985   1.510   0.584  3.3658  0.6985 -0.5923
  176SOL    HW2  528   0.863   1.416   0.501  1.6026  0.2467  2.3148
  177SOL     OW  529   1.688   1.423   1.026 -0.1007  0.1914  0.4729
  177SOL    HW1  530   1.658   1.438   0.929  0.4529 -1.7763  1.2959
  177SOL    HW2  531   1.785   1.389   1.030 -1.0508  0.6496 -1.2960
  178SOL     OW  532   2.162   1.657   0.117 -0.4034  0.3022 -0.2983
  178SOL    HW1  533   2.199   1.735   0.064 -1.0067 -3.2606  2.0976
  178SOL    HW2  534   2.239   1.619   0.167  2.9688  2.6721  2.7179
  179SOL     OW  535   1.375   2.873   0.008  0.0962  0.3807 -0.5870
  179SOL    HW1  536   1.396   2.785   0.047 -2.2765  1.3571 -0.3601
  179SOL    HW2  537   1.275   2.875   3.072  2.7955 -2.6939 -0.3705
  180SOL     OW  538   2.092   1.317   1.499 -0.3141 -0.0683  0.3139
  180SOL    HW1  539   2.071   1.301   1.599  0.9037 -1.6305 -0.7289
  180SOL    HW2  540   2.177   1.374   1.497  1.2611 -0.7590  0.1287
  181SOL     OW  541   0.964   0.729   1.787  0.2786  0.2454 -0.6332
  181SOL    HW1  542   1.008   0.643   1.818 -0.1083 -0.5305 -0.2035
  181SOL    HW2  543   0.874   0.740   1.832  0.2117  0.7618  0.3677
  182SOL     OW  544   0.115   1.087   2.303  0.1675  0.2307  0.7714
  182SOL    HW1  545   0.013   1.070   2.286  0.2538  2.0747 -0.4612
  182SOL    HW2  546   0.155   1.114   2.211  1.3367  0.3181  0.4506
  183SOL     OW  547   1.392   0.630   2.310  0.3628 -0.1862  0.6404
  183SOL    HW1  548   1.479   0.586   2.279 -0.6085  1.9806 -1.1873
  183SOL    HW2  549   1.343   0.563   2.373  1.9218  1.1572 -2.5096
  184SOL     OW  550   0.541   0.313   1.171  0.4157 -0.2418 -0.2884
  184SOL    HW1  551   0.598   0.324   1.254 -1.0881  0.4030  1.2220
  184SOL    HW2  552   0.447   0.303   1.198  2.4601 -0.8969 -1.0014
  185SOL     OW  553   2.346   1.361   0.651  0.5470 -0.4661 -0.8044
  185SOL    HW1  554   2.440   1.383   0.665  2.6825  0.1479  3.4907
  185SOL    HW2  555   2.307   1.419   0.574 -0.9464  1.2279 -1.0844
  186SOL     OW  556   0.409   2.001   0.375 -0.1818  0.0958  0.7472
  186SOL    HW1  557   0.409   1.947   0.288 -1.4109 -3.0295  1.1524
  186SOL    HW2  558   0.315   2.000   0.412 -2.5522  1.4338  1.0146
  187SOL     OW  559   2.017   2.258   3.001  0.3872  0.2973 -0.1001
  187SOL    HW1  560   1.994   2.158   3.001 -1.9415 -4.7063 -0.7607
  187SOL    HW2  561   2.093   2.277   2.939  0.0495 -1.1007  0.1009
  188SOL     OW  562   1.477   2.137   1.566 -0.4363 -0.4893  0.4406
  188SOL    HW1  563   1.524   2.079   1.498  0.5149  0.4028 -1.6152
  188SOL    HW2  564   1.374   2.130   1.549 -2.0491 -2.2348 -0.8539
  189SOL     OW  565   2.254   1.368   2.597 -0.5142 -0.2093 -0.0944
  189SOL    HW1  566   2.193   1.340   2.670  2.7474 -0.9415 -1.4808
  189SOL    HW2  567   2.221   1.450   2.548  0.3438 -3.0093  0.9797
  190SOL     OW  568   0.836   2.517   2.158 -0.0444  0.5332  0.4787
  190SOL    HW1  569   0.921   2.531   2.221  0.4579  1.4184  1.1871
  190SOL    HW2  570   0.756   2.562   2.196  0.9370  0.1062  0.9051
  191SOL     OW  571   2.673   1.072   1.164  0.1726  0.2745 -0.1952
  191SOL    HW1  572   2.633   1.029   1.250  0.7032 -2.4992  0.7109
  191SOL    HW2  573   2.695   1.014   1.085  1.1469  0.2829  0.9757
  192SOL     OW  574   2.569   0.658   1.645 -0.2151 -0.6200  0.3299
  192SOL    HW1  575   2.479   0.607   1.651 -0.6447 -1.1421  0.0427
  192SOL    HW2  576   2.610   0.660   1.738  0.5836 -0.3062  2.1912
  193SOL     OW  577   1.047   0.396   0.065 -0.2854 -0.3150  0.4682
  193SOL    HW1  578   1.061   0.300   0.047 -0.6802  2.7387 -0.5165
  193SOL    HW2  579   0.980   0.429   3.071 -2.7929 -1.8897  0.0440
  194SOL     OW  580   1.159   2.402   1.386  0.1256  0.2891  0.2529
  194SOL    HW1  581   1.233   2.391   1.452  2.2526  2.3206 -1.3819
  194SOL    HW2  582   1.193   2.466   1.311  0.7766 -2.4163  1.8537
  195SOL     OW  583   2.592   1.238   0.389 -0.1203 -0.0055  0.1464
  195SOL    HW1  584   2.607   1.157   0.447 -1.5705 -2.8310 -1.0157
  195SOL    HW2  585   2.492   1.255   0.388 -3.2553  0.3901  2.5745
  196SOL     OW  586   0.527   2.185   1.653  0.5025 -0.6300 -0.7062
  196SOL    HW1  587   0.455   2.132   1.606  0.5706  1.7490  2.0957
  196SOL    HW2  588   0.529   2.283   1.617 -3.2947 -0.7081  0.6340
  197SOL     OW  589   2.912   0.670   2.104  0.2756  0.5017  0.5549
  197SOL    HW1  590   2.997   0.618   2.088 -1.3121  0.9300  0.1688
  197SOL    HW2  591   2.837   0.605   2.105  2.2754 -0.8803 -2.8002
  198SOL     OW  592   1.951   1.222   0.433  0.1974 -0.1321  0.0423
  198SOL    HW1  593   1.926   1.246   0.335 -2.5045  1.9468 -0.3643
  198SOL    HW2  594   1.923   1.290   0.500  0.6787  0.2843 -1.2696
  199SOL     OW  595   2.394   0.284   1.658  0.8172 -0.0707 -0.1654
  199SOL    HW1  596   2.347   0.372   1.636 -0.6419 -0.9860 -0.6897
  199SOL    HW2  597   2.378   0.217   1.583 -1.1269 -1.2966 -1.5396
  200SOL     OW  598   2.212   0.116   2.977 -1.0806  0.1658  0.3636
  200SOL    HW1  599   2.292   0.133   3.037  0.8732 -0.7171 -1.6024
  200SOL    HW2  600   2.217   0.184   2.901  2.1432  1.0358 -1.2142
  201SOL     OW  601   2.524   0.100   0.948  1.0789  0.6047 -0.0442
  201SOL    HW1  602   2.619   0.119   0.915  2.9615 -1.0293  1.5769
  201SOL    HW2  603   2.458   0.174   0.923 -1.2008 -0.5197  1.4755
  202SOL     OW  604   2.926   2.620   0.374  0.1785 -0.0073  0.0487
  202SOL    HW1  605   2.997   2.552   0.405 -1.6543 -1.9184 -1.5014
  202SOL    HW2  606   2.887   2.668   0.454 -1.2104  0.9568 -2.5976
  203SOL     OW  607   1.548   1.841   0.418  0.1082 -0.1984 -0.0797
  203SOL    HW1  608   1.454   1.870   0.421  1.7211 -1.1787 -0.4134
  203SOL    HW2  609   1.594   1.825   0.510 -0.1704 -1.0702  1.4619
  204SOL     OW  610   0.351   1.864   2.398  0.1602 -0.2081 -0.7505
  204SOL    HW1  611   0.408   1.855   2.317 -0.4518 -0.4992 -0.8969
  204SOL    HW2  612   0.253   1.838   2.382 -1.3043  1.3539 -3.4818
  205SOL     OW  613   0.844   0.461   0.682 -0.1906 -0.1593  0.7778
  205SOL    HW1  614   0.861   0.518   0.761 -0.1612 -3.3135 -3.1478
  205SOL    HW2  615   0.864   0.510   0.597  3.4538 -0.4550  0.8218
  206SOL     OW  616   0.376   0.526   2.908  0.1004  0.3715  0.3731
  206SOL    HW1  617   0.321   0.599   2.865  3.5291  0.7103 -0.3693
  206SOL    HW2  618   0.358   0.438   2.858  0.0985  0.5739 -4.7393
  207SOL     OW  619   1.169   2.452   2.018 -0.6443  0.0184  0.3131
  207SOL    HW1  620   1.072   2.435   1.998 -1.1593  1.2051 -0.3956
  207SOL    HW2  621   1.202   2.403   2.101 -1.1637  4.0574 -2.1645
  208SOL     OW  622   2.777   0.034   1.600 -0.2897 -0.3592  0.2816
  208SOL    HW1  623   2.830   3.072   1.679  0.5091  0.4424  2.5390
  208SOL    HW2  624   2.765   3.036   1.530 -0.9141 -3.4625  0.4168
  209SOL     OW  625   1.764   0.994   0.756  0.4049 -0.0721 -0.0400
  209SOL    HW1  626   1.681   0.976   0.812  1.0177  1.2942 -2.5034
  209SOL    HW2  627   1.742   1.020   0.662  1.0001 -1.1294  2.2152
  210SOL     OW  628   2.635   0.915   0.267  0.3749 -0.2644 -0.3929
  210SOL    HW1  629   2.544   0.887   0.290 -0.3204  1.9786 -2.6954
  210SOL    HW2  630   2.627   0.989   0.192  1.5573  0.8602 -0.5937
  211SOL     OW  631   1.253   3.022   0.225  0.4157  0.4695  0.5454
  211SOL    HW1  632   1.288   0.026   0.181 -0.6133 -2.4772  0.9206
  211SOL    HW2  633   1.321   2.944   0.224 -0.5000  0.8574  3.8204
  212SOL     OW  634   1.869   2.154   0.638  0.0778  0.1504  0.5211
  212SOL    HW1  635   1.967   2.153   0.662  0.6577  0.8794 -2.0389
  212SOL    HW2  636   1.855   2.179   0.537 -3.0394  0.4440 -1.5315
  213SOL     OW  637   2.395   0.188   0.079  0.2830  0.1947  0.4643
  213SOL    HW1  638   2.462   0.159   0.147 -0.6725 -0.3437 -0.5630
  213SOL    HW2  639   2.380   0.288   0.094 -0.7351 -2.9176  1.0629
  214SOL     OW  640   0.860   2.026   2.104  0.5562 -0.1813 -0.5795
  214SOL    HW1  641   0.952   2.072   2.109 -1.2337 -1.2915  0.8345
  214SOL    HW2  642   0.794   2.103   2.098 -0.8681 -1.8111  4.7721
  215SOL     OW  643   0.467   1.152   0.875  0.4755 -0.1550 -0.1513
  215SOL    HW1  644   0.459   1.249   0.903  0.1346 -0.3783  0.7603
  215SOL    HW2  645   0.502   1.150   0.780 -0.6520 -1.3251  0.5056
  216SOL     OW  646   0.087   2.422   2.766 -0.3407  0.5688  0.1631
  216SOL    HW1  647   0.171   2.363   2.743  0.6267  0.6609 -0.9995
  216SOL    HW2  648   0.105   2.503   2.820  0.8108 -1.0877  0.1508
  217SOL     OW  649   2.915   1.204   1.099  0.0542 -0.1069  0.1151
  217SOL    HW1  650   2.948   1.124   1.047 -0.5322  0.5194 -1.2785
  217SOL    HW2  651   2.816   1.198   1.126 -0.6918  1.2973  2.6180
  218SOL     OW  652   0.873   2.361   1.924  0.6749 -0.2202 -0.5906
  218SOL    HW1  653   0.871   2.415   1.837 -0.1534  1.5372  2.9317
  218SOL    HW2  654   0.856   2.426   2.000  2.3894 -0.8519  1.2472
  219SOL     OW  655   1.991   1.617   0.496  0.6414  0.2246 -0.0398
  219SOL    HW1  656   1.979   1.672   0.408 -1.8228 -2.5910  0.2429
  219SOL    HW2  657   2.015   1.666   0.578 -0.9136 -1.8941 -4.9000
  220SOL     OW  658   2.074   0.687   0.336 -0.2464  0.3183 -0.3623
  220SOL    HW1  659   2.064   0.784   0.370 -1.8087 -2.1440  1.3905
  220SOL    HW2  660   2.004   0.629   0.385 -1.8881  1.8296 -1.3027
  221SOL     OW  661   2.936   0.747   3.034 -0.0321 -0.3622 -0.3048
  221SOL    HW1  662   2.903   0.752   0.054  0.2470  0.9683 -0.0139
  221SOL    HW2  663   3.027   0.703   3.026  1.9757 -1.9926 -0.4961
  222SOL     OW  664   1.602   1.514   0.768 -0.3429  0.1460 -0.3794
  222SOL    HW1  665   1.521   1.476   0.717  0.0996 -0.1021  0.1823
  222SOL    HW2  666   1.612   1.617   0.748  0.0253  0.0793  0.9955
  223SOL     OW  667   1.170   0.065   2.854  0.3900  0.2085  0.3385
  223SOL    HW1  668   1.248   0.024   2.797  1.4120 -2.2453 -0.9476
  223SOL    HW2  669   1.089   0.006   2.851 -1.7762  1.7777 -0.7343
  224SOL     OW  670   0.789   2.827   1.228 -0.0586 -0.4379 -0.2455
  224SOL    HW1  671   0.737   2.908   1.189  0.8547 -1.9994 -0.1540
  224SOL    HW2  672   0.882   2.854   1.267  0.6236 -1.6153 -2.0609
  225SOL     OW  673   0.579   2.711   1.963 -1.0022  0.0626  0.2190
  225SOL    HW1  674   0.575   2.611   1.982 -0.1840 -0.5222 -0.9489
  225SOL    HW2  675   0.486   2.754   1.961  2.0921 -1.9055  0.5687
  226SOL     OW  676   1.400   1.604   0.267  0.0254 -0.2354  0.1301
  226SOL    HW1  677   1.424   1.683   0.329  1.3987 -1.9918 -0.4176
  226SOL    HW2  678   1.475   1.534   0.270  1.0357 -1.1346 -1.3982
  227SOL     OW  679   0.497   1.641   0.930 -0.0237  0.9341 -0.3257
  227SOL    HW1  680   0.549   1.697   0.997  1.0867 -2.0912 -1.4950
  227SOL    HW2  681   0.564   1.613   0.853 -0.9965 -0.1805 -1.3675
  228SOL     OW  682   0.268   2.047   0.689  0.0887  0.6372 -0.3605
  228SOL    HW1  683   0.349   2.041   0.754  1.4942 -1.6073  2.2259
  228SOL    HW2  684   0.197   2.121   0.708 -1.3185 -0.9800 -1.7104
  229SOL     OW  685   2.841   0.149   2.996  0.0481  0.6812  0.0124
  229SOL    HW1  686   2.776   0.191   2.934  1.0066  0.4442  1.4399
  229SOL    HW2  687   2.899   0.075   2.946 -1.0224 -0.8743 -2.6035
  230SOL     OW  688   2.307   1.000   0.473 -0.0616 -0.2874 -0.2177
  230SOL    HW1  689   2.326   1.080   0.414 -1.9129  0.9390  0.3963
  230SOL    HW2  690   2.306   1.016   0.576  1.4856 -0.4238 -0.6808
  231SOL     OW  691   1.776   1.464   0.009  0.2379 -0.8126  0.4937
  231SOL    HW1  692   1.762   1.527   0.089 -1.2575 -0.9604 -2.3773
  231SOL    HW2  693   1.798   1.516   3.000 -0.3998 -1.6397  2.1218
  232SOL     OW  694   2.465   1.970   1.003  0.8774  0.1422 -0.1209
  232SOL    HW1  695   2.507   1.876   0.983  1.6899 -1.7902  2.7364
  232SOL    HW2  696   2.527   2.026   1.060  0.1548 -0.1916 -0.5195
  233SOL     OW  697   0.243   2.630   1.455  0.1212 -0.4388 -0.8112
  233SOL    HW1  698   0.232   2.667   1.552 -0.1551 -1.0179  2.1657
  233SOL    HW2  699   0.150   2.629   1.418 -1.0809 -1.2113  0.1626
  234SOL     OW  700   0.820   0.128   2.469 -0.2490  0.0788  0.3839
  234SOL    HW1  701   0.920   0.096   2.475  1.0202  2.5840 -0.2147
  234SOL    HW2  702   0.760   0.053   2.502 -0.8394  0.9330  0.0222
  235SOL     OW  703   2.931   1.071   2.199  0.1214 -0.1504  0.2185
  235SOL    HW1  704   2.869   1.125   2.142  0.2935  0.8401 -2.1219
  235SOL    HW2  705   2.943   0.986   2.142 -1.2889 -1.4776 -1.5960
  236SOL     OW  706   1.139   2.790   1.841  0.0083 -0.4379  0.4933
  236SOL    HW1  707   1.128   2.873   1.895 -1.8800 -0.8654 -0.3446
  236SOL    HW2  708   1.044   2.754   1.822  2.0157 -0.3379  0.6685
  237SOL     OW  709   0.451   1.301   2.631 -0.0452 -0.1373 -0.5171
  237SOL    HW1  710   0.403   1.234   2.571 -0.4382 -0.8637 -0.4344
  237SOL    HW2  711   0.500   1.370   2.574 -1.1087 -0.1568 -0.7166
  238SOL     OW  712   1.059   0.438   2.343  0.4789 -0.5946 -0.2197
  238SOL    HW1  713   1.024   0.495   2.267 -0.5164  0.3951  0.2679
  238SOL    HW2  714   0.995   0.436   2.425 -1.0193  1.5261  0.9828
  239SOL     OW  715   0.476   2.146   2.055 -0.4491  0.1392 -0.3751
  239SOL    HW1  716   0.520   2.082   1.992  0.8803  0.0897  2.9078
  239SOL    HW2  717   0.544   2.170   2.125  0.6136 -0.0221 -0.6854
  240SOL     OW  718   2.541   2.897   0.473 -0.0961  0.0993 -0.4535
  240SOL    HW1  719   2.499   2.968   0.534 -0.6717  0.2006 -1.2702
  240SOL    HW2  720   2.468   2.840   0.440 -2.0198 -0.7837  2.2724
  241SOL     OW  721   0.145   0.826   0.088  0.1952  0.3265  0.4091
  241SOL    HW1  722   0.134   0.737   0.038  0.1817  1.3525 -0.5576
  241SOL    HW2  723   0.152   0.900   0.016 -0.5884 -1.8934 -2.1472
  242SOL     OW  724   1.617   2.624   1.704 -0.0792 -0.4310 -0.4537
  242SOL    HW1  725   1.711   2.608   1.668  1.1757  0.3969  0.6492
  242SOL    HW2  726   1.561   2.535   1.702 -1.1471  1.4565  1.2643
  243SOL     OW  727   0.508   2.433   2.039  0.3325  0.3404  0.1927
  243SOL    HW1  728   0.490   2.334   2.026 -1.2711  1.9101  0.1436
  243SOL    HW2  729   0.509   2.448   2.145  1.3393  0.1452  1.4797
  244SOL     OW  730   2.232   0.499   2.399 -0.4127 -0.2652 -0.5079
  244SOL    HW1  731   2.147   0.439   2.384 -1.6312 -3.1040 -0.6258
  244SOL    HW2  732   2.211   0.596   2.395 -1.1644 -1.6485 -2.0792
  245SOL     OW  733   1.548   2.917   1.109 -0.5372  0.0670 -0.0185
  245SOL    HW1  734   1.608   2.997   1.089  1.9049  0.6955 -0.8936
  245SOL    HW2  735   1.465   2.905   1.050 -1.7983  0.3095  2.2646
  246SOL     OW  736   1.416   2.868   0.498  0.2180  0.4804  0.3208
  246SOL    HW1  737   1.492   2.861   0.433 -1.2465  2.4980 -0.2403
  246SOL    HW2  738   1.361   2.782   0.504 -0.8244 -0.2923  0.2394
  247SOL     OW  739   1.841   0.543   1.932 -0.5255  0.1508 -0.1881
  247SOL    HW1  740   1.758   0.486   1.915  1.6854  1.0656  2.2823
  247SOL    HW2  741   1.865   0.594   1.848 -0.2274 -2.4947  1.5842
  248SOL     OW  742   2.932   2.017   1.779  0.2010  0.7283  0.0861
  248SOL    HW1  743   2.957   2.022   1.878  0.5184 -1.3422  2.0293
  248SOL    HW2  744   2.997   1.956   1.732  1.2290 -0.2441  0.4045
  249SOL     OW  745   2.980   0.369   0.280 -0.2352  0.6782  0.6545
  249SOL    HW1  746   2.993   0.378   0.384  0.8789 -1.3520  0.2381
  249SOL    HW2  747   3.052   0.424   0.232  1.4788 -1.7090 -1.3315
  250SOL     OW  748   2.597   0.142   2.425 -0.1677  0.1856  0.3570
  250SOL    HW1  749   2.577   0.055   2.469  1.0643  1.7629 -0.3086
  250SOL    HW2  750   2.547   0.149   2.337  1.3854 -1.1306  2.3642
  251SOL     OW  751   1.411   0.692   0.179 -0.2997  0.2133  0.1912
  251SOL    HW1  752   1.351   0.615   0.152 -2.3803  0.4627 -0.5351
  251SOL    HW2  753   1.506   0.671   0.157  0.5289 -0.3135 -2.6469
  252SOL     OW  754   1.054   2.535   2.302  0.1054  0.4530  0.2620
  252SOL    HW1  755   1.112   2.450   2.288 -0.0186 -1.9998  1.5533
  252SOL    HW2  756   1.106   2.621   2.291 -0.6832 -0.6196 -1.7003
  253SOL     OW  757   2.213   2.643   0.930 -0.5245 -0.2617 -0.9735
  253SOL    HW1  758   2.158   2.613   0.849 -0.7854  1.7620  1.0565
  253SOL    HW2  759   2.236   2.741   0.925 -0.4066  0.1563 -1.1338
  254SOL     OW  760   2.520   1.321   1.169 -0.4608  0.2263 -0.0318
  254SOL    HW1  761   2.430   1.276   1.174 -1.0123 -3.4377 -0.1756
  254SOL    HW2  762   2.585   1.250   1.154 -0.3935  1.7036 -0.4999
  255SOL     OW  763   0.783   2.549   1.150  0.1653  0.2883  0.3628
  255SOL    HW1  764   0.773   2.649   1.172 -2.9725  1.0266  0.4868
  255SOL    HW2  765   0.828   2.535   1.060 -0.9307 -3.0772  3.4318
  256SOL     OW  766   2.210   1.993   1.541  0.4000  0.0910  0.2998
  256SOL    HW1  767   2.260   1.955   1.462 -1.9703  0.4789  1.4242
  256SOL    HW2  768   2.220   1.925   1.617 -1.5743 -2.1642 -0.5381
  257SOL     OW  769   0.317   2.293   2.675  0.0629  0.4949 -0.0634
  257SOL    HW1  770   0.357   2.226   2.614 -0.1179  0.1112  0.8595
  257SOL    HW2  771   0.375   2.380   2.679  1.9873  1.7462 -1.0659
  258SOL     OW  772   0.637   2.800   0.926 -0.4208  0.0352  0.4789
  258SOL    HW1  773   0.669   2.711   0.965 -0.0290 -0.5250  1.9264
  258SOL    HW2  774   0.614   2.875   0.993 -0.9310  1.7554 -0.2558
  259SOL     OW  775   1.320   0.560   2.698  0.1210 -0.2559  0.4274
  259SOL    HW1  776   1.277   0.470   2.722  0.6120  0.0640  0.8142
  259SOL    HW2  777   1.298   0.630   2.766 -1.1766  1.1103 -0.4939
  260SOL     OW  778   0.167   0.881   1.025  0.1090  0.5708 -0.5710
  260SOL    HW1  779   0.180   0.968   1.078  0.1624  0.5179  0.8325
  260SOL    HW2  780   0.240   0.886   0.954  3.2250 -1.0749  2.6506
  261SOL     OW  781   0.438   0.230   2.106  0.1733 -0.1844  0.4135
  261SOL    HW1  782   0.476   0.313   2.062 -1.9097 -1.0586  0.6317
  261SOL    HW2  783   0.493   0.202   2.191 -0.8756 -1.6767  0.1683
  262SOL     OW  784   0.864   2.740   1.828  0.0721  0.0433 -0.2798
  262SOL    HW1  785   0.860   2.648   1.784  0.4609 -1.4774 -1.7009
  262SOL    HW2  786   0.817   2.750   1.918 -0.3597 -0.1678 -0.9130
  263SOL     OW  787   0.736   2.286   2.983  0.0036 -0.4078 -0.1303
  263SOL    HW1  788   0.816   2.309   3.045 -0.7874 -0.2867 -0.5869
  263SOL    HW2  789   0.657   2.265   3.040 -2.0495  1.7056 -1.5180
  264SOL     OW  790   1.169   1.549   0.979 -0.2464 -0.0117 -0.0682
  264SOL    HW1  791   1.216   1.502   1.055 -2.0322 -0.0982 -1.7907
  264SOL    HW2  792   1.070   1.556   0.999  2.0296  1.9098 -1.0482
  265SOL     OW  793   0.923   2.371   0.559 -0.4267  0.0429 -0.6022
  265SOL    HW1  794   1.004   2.350   0.623 -2.0851 -0.6129  0.1831
  265SOL    HW2  795   0.893   2.469   0.566 -3.6219 -0.6967  0.3060
  266SOL     OW  796   2.720   0.917   0.930  0.1325  0.0928  0.0910
  266SOL    HW1  797   2.636   0.902   0.874  0.1586  1.2945  2.1806
  266SOL    HW2  798   2.741   0.822   0.955  0.2385 -0.3612  2.1165
  267SOL     OW  799   0.036   1.300   2.830  0.6666  0.0441  0.5699
  267SOL    HW1  800   0.064   1.291   2.928  3.1741  3.0036  0.2368
  267SOL    HW2  801   0.085   1.379   2.788  0.8149  1.1514  0.6939
  268SOL     OW  802   1.623   0.088   0.223  0.4977  0.2931 -0.5370
  268SOL    HW1  803   1.609   3.073   0.264 -0.2517 -3.0874  1.6188
  268SOL    HW2  804   1.629   0.163   0.295 -2.1660  2.2427  2.1714
  269SOL     OW  805   2.965   0.654   2.408 -0.1202  0.2419 -0.4813
  269SOL    HW1  806   2.996   0.717   2.340 -1.4667 -2.3927  0.8618
  269SOL    HW2  807   2.872   0.625   2.373 -2.2757  1.0269 -2.2722
  270SOL     OW  808   3.036   1.070   0.182  0.6959 -0.0709  0.2990
  270SOL    HW1  809   2.989   1.033   0.268 -0.2451 -0.1209  0.1159
  270SOL    HW2  810   0.052   1.029   0.167  1.7737  1.7757 -0.1887
  271SOL     OW  811   2.849   1.626   2.504 -0.1873  0.4544 -0.2445
  271SOL    HW1  812   2.820   1.589   2.596 -1.8241  0.5532 -0.2659
  271SOL    HW2  813   2.925   1.696   2.504  1.6823  0.5097 -0.4631
  272SOL     OW  814   2.579   2.593   1.893  0.1292  0.5046 -0.4755
  272SOL    HW1  815   2.652   2.522   1.875  1.6354 -0.9216 -2.1605
  272SOL    HW2  816   2.509   2.565   1.959  1.3227  0.2770 -2.1920
  273SOL     OW  817   0.071   2.450   0.410 -0.0111  0.2431  0.8679
  273SOL    HW1  818   0.165   2.458   0.453  1.0720 -1.4696 -1.2634
  273SOL    HW2  819   0.035   2.352   0.411 -0.4752 -1.0168  1.9013
  274SOL     OW  820   0.730   2.309   0.911  0.8596 -0.1627  0.4329
  274SOL    HW1  821   0.681   2.278   0.827  0.3646 -0.2800  1.7350
  274SOL    HW2  822   0.797   2.248   0.944 -0.7725  1.0791 -0.9123
  275SOL     OW  823   1.745   1.844   2.807  0.8944 -0.0440  0.3792
  275SOL    HW1  824   1.843   1.859   2.825  2.4017 -0.0743  0.6132
  275SOL    HW2  825   1.709   1.910   2.737 -0.3706 -0.6604 -0.8729
  276SOL     OW  826   2.493   1.244   1.705  0.5644  0.0002  0.2591
  276SOL    HW1  827   2.417   1.221   1.768 -0.9360 -2.4096  3.8137
  276SOL    HW2  828   2.579   1.257   1.758  0.7322  0.0472  2.5968
  277SOL     OW  829   2.389   0.369   0.970  0.5219 -0.5886 -0.4075
  277SOL    HW1  830   2.366   0.467   0.959 -0.7530 -0.3736 -0.1093
  277SOL    HW2  831   2.380   0.340   1.068 -1.6591 -1.2888  0.0356
  278SOL     OW  832   1.696   0.462   2.560  0.0753  0.0966  0.4498
  278SOL    HW1  833   1.662   0.554   2.600 -1.1974  0.9206  2.6222
  278SOL    HW2  834   1.791   0.448   2.582 -1.9285  1.8975 -2.8337
  279SOL     OW  835   1.067   2.932   1.006 -0.1084  0.2018 -0.1256
  279SOL    HW1  836   1.034   2.919   1.100 -2.4857  1.1196  0.1641
  279SOL    HW2  837   1.065   3.033   0.977 -1.6748  2.4207 -2.8316
  280SOL     OW  838   1.259   1.221   0.337  0.4174 -0.0392 -0.4020
  280SOL    HW1  839   1.345   1.183   0.369 -3.8865 -0.7103  1.5681
  280SOL    HW2  840   1.266   1.221   0.234 -0.2050  3.2399 -1.1528
  281SOL     OW  841   2.392   1.568   0.245 -0.5594  0.4939  0.1448
  281SOL    HW1  842   2.450   1.644   0.279  0.0736 -1.0315 -0.1711
  281SOL    HW2  843   2.452   1.489   0.221  0.4904 -1.1055  0.0593
  282SOL     OW  844   2.573   1.386   0.149  0.0326  0.1495  0.1341
  282SOL    HW1  845   2.567   1.302   0.203  0.2108  0.3267 -1.2661
  282SOL    HW2  846   2.670   1.402   0.116  2.9572 -0.5715 -0.7857
  283SOL     OW  847   1.761   2.743   2.760 -0.7456 -0.5234 -0.5366
  283SOL    HW1  848   1.758   2.819   2.688  0.7726  2.3243 -2.3577
  283SOL    HW2  849   1.787   2.776   2.852  1.4675 -1.8829 -1.6856
  284SOL     OW  850   0.842   0.141   3.001  0.0557  0.7101 -0.1457
  284SOL    HW1  851   0.853   0.241   2.971 -1.7922  1.1443  0.5503
  284SOL    HW2  852   0.907   0.127   0.004  0.5006  0.7360  1.4080
  285SOL     OW  853   2.027   1.860   2.760 -0.1435  0.6619  0.7091
  285SOL    HW1  854   2.114   1.809   2.738  2.2112 -0.7265 -2.0882
  285SOL    HW2  855   1.992   1.905   2.675  1.4811  1.4078  0.3248
  286SOL     OW  856   1.587   1.758   1.073  0.6316  0.2895 -0.4639
  286SOL    HW1  857   1.640   1.845   1.076  3.0005 -0.3681  0.0368
  286SOL    HW2  858   1.648   1.680   1.057  1.5655 -1.0037  1.2520
  287SOL     OW  859   1.622   0.184   1.540 -0.5817  0.7063  0.9137
  287SOL    HW1  860   1.680   0.105   1.571  2.9030  0.8845  1.9821
  287SOL    HW2  861   1.522   0.162   1.550 -3.2601  1.1608 -1.6527
  288SOL     OW  862   0.608   2.670   2.286  0.7261  0.3301 -0.2381
  288SOL    HW1  863   0.583   2.766   2.266 -2.5794 -1.4200  0.4216
  288SOL    HW2  864   0.527   2.606   2.284  2.3332 -0.0033  0.2219
  289SOL     OW  865   0.373   1.408   0.650 -0.2809 -0.1475  0.0318
  289SOL    HW1  866   0.302   1.336   0.628 -1.6061  0.0771  0.7422
  289SOL    HW2  867   0.381   1.429   0.751 -0.3373  1.5526  0.4415
  290SOL     OW  868   1.213   1.881   1.614  0.4292  0.2620 -0.4594
  290SOL    HW1  869   1.250   1.891   1.516 -1.9432  0.3456  1.7252
  290SOL    HW2  870   1.249   1.955   1.669 -1.3622 -2.4181 -3.1696
  291SOL     OW  871   1.857   0.045   0.632 -0.3224  0.7541 -0.1583
  291SOL    HW1  872   1.826   0.009   0.720  0.1035 -2.2886 -0.9977
  291SOL    HW2  873   1.880   3.045   0.563 -2.4407 -2.3782 -1.0815
  292SOL     OW  874   0.265   0.277   1.281  0.1425  0.3959  0.1062
  292SOL    HW1  875   0.185   0.231   1.233 -1.3580 -0.5087 -0.9218
  292SOL    HW2  876   0.237   0.366   1.317 -0.1984  1.9107 -0.7990
  293SOL     OW  877   2.471   1.788   0.759 -0.4194 -0.2593 -0.3626
  293SOL    HW1  878   2.537   1.750   0.690 -0.0582 -1.2120 -3.4117
  293SOL    HW2  879   2.401   1.715   0.789  0.6053 -1.9346 -0.5977
  294SOL     OW  880   0.157   0.269   2.095  0.4700 -0.3788  0.5896
  294SOL    HW1  881   0.119   0.199   2.161  0.8917 -1.7250  2.1161
  294SOL    HW2  882   0.254   0.245   2.074 -1.2469  0.7211  0.1581
  295SOL     OW  883   0.905   1.268   0.418 -0.3180 -0.2102 -0.3455
  295SOL    HW1  884   0.964   1.297   0.340  2.8136  1.1774 -3.4479
  295SOL    HW2  885   0.834   1.203   0.382 -0.2197 -2.3909 -0.7268
  296SOL     OW  886   2.145   1.785   1.151 -0.0554 -0.4532 -0.0979
  296SOL    HW1  887   2.139   1.717   1.075  0.7193  2.1902 -2.5616
  296SOL    HW2  888   2.103   1.879   1.120  1.3140  1.9513 -1.5626
  297SOL     OW  889   1.763   0.609   2.885 -0.1973 -0.1512 -0.1561
  297SOL    HW1  890   1.799   0.701   2.922 -1.5993  1.0665  0.7543
  297SOL    HW2  891   1.690   0.619   2.814  1.1557  1.2302  2.1709
  298SOL     OW  892   1.344   0.010   2.643 -0.6801 -0.5416  0.4240
  298SOL    HW1  893   1.368   2.989   2.642 -1.5109 -0.1534 -1.9676
  298SOL    HW2  894   1.425   0.071   2.633  0.1499 -0.1602  2.1392
  299SOL     OW  895   0.898   0.238   2.004 -0.3511 -0.0986 -0.1548
  299SOL    HW1  896   0.993   0.259   2.034 -0.8167  1.1866 -0.6377
  299SOL    HW2  897   0.902   0.167   1.925  0.1870 -3.7387  0.7217
  300SOL     OW  898   2.644   0.355   1.642  0.0042 -0.1193  0.1628
  300SOL    HW1  899   2.701   0.367   1.722 -3.2519 -2.8018  0.2974
  300SOL    HW2  900   2.549   0.318   1.671 -3.7856 -1.0443  0.6671
  301SOL     OW  901   2.073   0.887   1.866 -0.1560  0.8052  0.0533
  301SOL    HW1  902   2.162   0.890   1.820 -2.1255  0.4432  1.4276
  301SOL    HW2  903   2.011   0.816   1.821 -1.4761 -1.0218 -0.7935
  302SOL     OW  904   0.657   2.839   0.147  0.4786 -0.5155 -0.3195
  302SOL    HW1  905   0.621   2.935   0.151 -0.2540 -0.9016 -0.0408
  302SOL    HW2  906   0.648   2.793   0.235 -1.7826  2.4669 -0.7093
  303SOL     OW  907   1.952   1.904   1.860  0.3584 -0.3450  0.0278
  303SOL    HW1  908   1.951   1.835   1.788 -0.8532  2.8915  0.8602
  303SOL    HW2  909   2.043   1.947   1.864 -0.5158 -1.0178  0.5149
  304SOL     OW  910   0.199   0.162   0.839  0.2652  0.3675  0.0621
  304SOL    HW1  911   0.245   0.073   0.863  1.6826 -1.2941  1.3811
  304SOL    HW2  912   0.263   0.236   0.854 -4.6270 -2.5794  1.3892
  305SOL     OW  913   0.920   0.942   0.478 -0.2020  0.0653  0.0322
  305SOL    HW1  914   0.862   0.995   0.412  2.2859 -0.6583  1.1008
  305SOL    HW2  915   0.855   0.889   0.539  0.6873  3.2848 -1.4517
  306SOL     OW  916   0.535   1.331   3.069  0.4931 -0.2218 -0.5802
  306SOL    HW1  917   0.554   1.333   0.094 -0.1842  0.5506  1.4207
  306SOL    HW2  918   0.447   1.384   3.051 -1.5975  2.8193 -0.8910
  307SOL     OW  919   0.745   0.427   1.924 -0.3095 -0.1192 -0.2261
  307SOL    HW1  920   0.751   0.410   1.822  1.0289 -2.3966 -0.4018
  307SOL    HW2  921   0.807   0.363   1.965 -0.5857 -1.1288  1.1653
  308SOL     OW  922   0.700   0.204   0.967 -0.3696  0.3403  0.1130
  308SOL    HW1  923   0.657   0.243   1.049 -2.9079 -1.2151 -0.4698
  308SOL    HW2  924   0.756   0.273   0.918  0.9886  1.5932  0.2891
  309SOL     OW  925   2.331   1.230   0.305 -0.0950 -0.1258 -0.6760
  309SOL    HW1  926   2.309   1.312   0.360  0.0958 -0.9505  0.8355
  309SOL    HW2  927   2.252   1.202   0.248 -0.9351 -2.5766 -2.9036
  310SOL     OW  928   1.003   1.342   0.128  0.4217  0.1181  0.6883
  310SOL    HW1  929   1.087   1.376   0.081 -0.3825 -1.6285 -4.7492
  310SOL    HW2  930   0.938   1.411   0.160 -0.1734 -0.8935 -0.0969
  311SOL     OW  931   1.920   2.562   2.003 -0.0702  0.3986 -0.1599
  311SOL    HW1  932   1.914   2.469   1.955 -3.0522 -0.7477  1.0934
  311SOL    HW2  933   1.824   2.596   2.027 -1.6546 -1.0139  1.2736
  312SOL     OW  934   2.428   2.875   0.115 -0.1630  0.2718  0.3963
  312SOL    HW1  935   2.354   2.918   0.057 -0.3257  0.6256 -0.5185
  312SOL    HW2  936   2.388   2.815   0.189 -0.2895  0.8287  1.6275
  313SOL     OW  937   0.634   0.587   2.954  0.0212 -0.5147 -0.2080
  313SOL    HW1  938   0.668   0.650   3.024  0.7109 -2.7185  0.4628
  313SOL    HW2  939   0.540   0.557   2.973 -0.7389  1.3821 -0.9417
  314SOL     OW  940   2.634   1.418   2.785  0.3428 -0.3753  0.2765
  314SOL    HW1  941   2.586   1.429   2.876  0.2124  2.6590  1.5243
  314SOL    HW2  942   2.708   1.486   2.782  0.2522  0.7927 -0.5540
  315SOL     OW  943   1.652   0.742   2.084  0.1838 -0.6376  0.6836
  315SOL    HW1  944   1.733   0.714   2.030 -1.2128 -1.0488 -1.9524
  315SOL    HW2  945   1.670   0.740   2.183 -1.2523  1.6150 -0.7130
  316SOL     OW  946   2.882   1.007   0.376  0.7767  0.3130  0.1373
  316SOL    HW1  947   2.782   0.997   0.345 -1.9594 -1.0938  0.8710
  316SOL    HW2  948   2.898   0.936   0.448  0.1578 -1.4181  0.3746
  317SOL     OW  949   0.568   0.045   0.213  0.1676  0.5328  0.6580
  317SOL    HW1  950   0.526   0.094   0.128 -0.7886  0.0257 -5.0431
  317SOL    HW2  951   0.657   0.088   0.230 -1.6714 -1.8373  0.0758
  318SOL     OW  952   1.761   2.545   1.033  0.2953  0.4226  0.1076
  318SOL    HW1  953   1.744   2.501   1.123 -3.7863 -2.0559  1.3740
  318SOL    HW2  954   1.823   2.485   0.972 -1.2636 -1.6661  2.1887
  319SOL     OW  955   1.193   1.479   0.361  0.0253  0.6700  0.2597
  319SOL    HW1  956   1.205   1.376   0.360  1.2905  2.3334  1.1403
  319SOL    HW2  957   1.278   1.524   0.318  0.0559 -2.0283  1.3516
  320SOL     OW  958   0.713   2.048   1.162  0.3221  0.5595  0.1832
  320SOL    HW1  959   0.634   2.105   1.140  0.6548 -1.2847  1.1367
  320SOL    HW2  960   0.732   2.077   1.256 -0.7884  1.4868  1.3449
  321SOL     OW  961   2.349   2.523   2.033  0.2069  0.2158 -0.0414
  321SOL    HW1  962   2.313   2.427   2.037 -0.6275 -2.8949 -2.0272
  321SOL    HW2  963   2.266   2.586   2.020 -2.0602  0.3280  1.1621
  322SOL     OW  964   2.293   2.237   2.330  0.2366  0.1075 -0.6906
  322SOL    HW1  965   2.374   2.215   2.390  2.7299  3.0028  4.3935
  322SOL    HW2  966   2.241   2.320   2.358 -1.7776  3.1183 -1.8672
  323SOL     OW  967   2.517   0.865   0.781  0.0744  0.1585  0.0083
  323SOL    HW1  968   2.424   0.897   0.754 -0.8358 -0.0273 -0.1853
  323SOL    HW2  969   2.542   0.790   0.715  0.4557  2.8906  2.2410
  324SOL     OW  970   2.262   2.229   2.067  0.1224  0.0118 -0.6035
  324SOL    HW1  971   2.264   2.244   2.170 -1.3637 -1.2147 -2.2175
  324SOL    HW2  972   2.286   2.134   2.047 -0.6321  1.3634  1.7206
  325SOL     OW  973   1.296   0.424   2.458 -0.4523  0.2828  0.2888
  325SOL    HW1  974   1.203   0.427   2.413 -1.2130  1.5681  0.2321
  325SOL    HW2  975   1.293   0.465   2.551  1.1781 -1.0085  2.2543
  326SOL     OW  976   2.583   2.300   1.165 -0.5485 -0.6909 -0.6290
  326SOL    HW1  977   2.573   2.401   1.141 -2.1190 -0.0803  2.3828
  326SOL    HW2  978   2.503   2.268   1.212 -3.0104  0.8266 -2.1882
  327SOL     OW  979   2.672   2.987   0.119 -0.2405  0.1422 -0.3103
  327SOL    HW1  980   2.586   2.930   0.122  0.6831 -2.5256 -1.1972
  327SOL    HW2  981   2.664   3.049   0.199 -3.0151  0.0152 -1.2588
  328SOL     OW  982   0.764   0.769   0.639  0.0529  0.2823 -0.3244
  328SOL    HW1  983   0.791   0.747   0.735  1.7483  0.1125  1.9102
  328SOL    HW2  984   0.661   0.775   0.637 -1.6317 -0.2175 -0.2935
  329SOL     OW  985   1.929   0.732   1.282  0.2228 -0.5193  0.7245
  329SOL    HW1  986   1.898   0.726   1.183  0.6149 -0.4466  0.4093
  329SOL    HW2  987   2.031   0.734   1.289 -4.0890 -0.8597  0.0499
  330SOL     OW  988   0.881   0.646   0.429 -0.4061 -0.7304  0.7906
  330SOL    HW1  989   0.934   0.706   0.366  1.3285  1.7083  2.9146
  330SOL    HW2  990   0.838   0.698   0.506 -1.4178  2.0500 -0.5141
  331SOL     OW  991   0.531   1.723   1.722  0.4533 -0.3010  0.0017
  331SOL    HW1  992   0.549   1.644   1.780  1.2701  1.3067 -0.3083
  331SOL    HW2  993   0.612   1.737   1.660 -0.7270  0.9375 -0.2647
  332SOL     OW  994   1.925   2.334   1.853 -0.1137 -0.2551 -0.2039
  332SOL    HW1  995   2.025   2.352   1.833 -0.9334 -0.5642 -3.0001
  332SOL    HW2  996   1.880   2.306   1.766 -0.3515  2.9062 -0.1698
  333SOL     OW  997   2.997   2.997   1.092  0.0338 -0.2028 -0.6688
  333SOL    HW1  998   2.940   3.074   1.133 -0.3720 -0.8289 -2.2142
  333SOL    HW2  999   2.935   2.913   1.075 -2.9152 -0.3947 -2.4333
  334SOL     OW 1000   0.043   1.648   0.790 -0.2103 -0.1180  0.2349
  334SOL    HW1 1001   3.069   1.651   0.702  0.9679  0.2579  0.2665
  334SOL    HW2 1002   0.136   1.676   0.775 -1.8268  0.5380 -0.8976
  335SOL     OW 1003   0.443   2.543   2.692 -0.3701 -0.0896  0.3518
  335SOL    HW1 1004   0.505   2.513   2.766 -0.5648  0.4864  0.0871
  335SOL    HW2 1005   0.395   2.632   2.714  1.3166  1.6229  2.6390
  336SOL     OW 1006   0.132   2.573   2.096 -0.3436  0.1421  0.5334
  336SOL    HW1 1007   0.182   2.539   2.014  2.3732 -1.5496  2.4138
  336SOL    HW2 1008   0.101   2.670   2.083 -0.7451 -1.6306 -2.4818
  337SOL     OW 1009   1.332   2.146   1.940  0.0700  0.0000  0.1547
  337SOL    HW1 1010   1.405   2.217   1.926  1.6048  1.4058  0.7444
  337SOL    HW2 1011   1.375   2.054   1.954  0.7579  0.5191 -1.5306
  338SOL     OW 1012   1.051   0.014   2.506  0.9043  0.2676  0.5593
  338SOL    HW1 1013   1.030   2.990   2.503 -0.0312 -0.3606 -0.5248
  338SOL    HW2 1014   1.108   0.036   2.589 -3.2652  1.3961 -2.3554
  339SOL     OW 1015   0.137   0.716   2.529  0.2903  0.2479 -0.2073
  339SOL    HW1 1016   0.105   0.733   2.434  2.9575 -1.5641 -0.8304
  339SOL    HW2 1017   0.173   0.810   2.558 -0.3087  4.6669 -2.7044
  340SOL     OW 1018   2.185   0.474   1.316 -0.1341  0.2129 -0.1621
  340SOL    HW1 1019   2.157   0.508   1.229  0.2651 -2.1630  3.4917
  340SOL    HW2 1020   2.265   0.413   1.301 -1.1643 -3.3536  1.7679
  341SOL     OW 1021   2.092   1.248   1.230 -0.2494  0.0629  0.1238
  341SOL    HW1 1022   2.093   1.279   1.326 -1.2221  0.5986 -2.3239
  341SOL    HW2 1023   2.184   1.234   1.184  1.4672  0.8597 -1.4768
  342SOL     OW 1024   2.157   2.830   2.704 -0.0250  0.1991  0.1373
  342SOL    HW1 1025   2.079   2.881   2.754  0.6052 -0.7527 -0.7683
  342SOL    HW2 1026   2.146   2.731   2.710 -0.5981 -0.1733 -2.6525
  343SOL     OW 1027   2.992   2.536   1.027  0.1608 -0.1729  0.0374
  343SOL    HW1 1028   0.009   2.514   1.000 -0.2361  1.9451  1.2366
  343SOL    HW2 1029   2.961   2.492   1.116  3.2238  0.2336 -1.9039
  344SOL     OW 1030   2.208   2.992   0.953  0.5261 -0.5613 -0.0848
  344SOL    HW1 1031   2.216   0.013   0.919 -0.7331  0.7673  1.6966
  344SOL    HW2 1032   2.119   2.951   0.923  0.1563 -0.2250 -2.1261
  345SOL     OW 1033   2.578   2.319   0.422 -0.7650 -0.1541 -0.4480
  345SOL    HW1 1034   2.662   2.340   0.371 -1.1851  1.8547 -0.9069
  345SOL    HW2 1035   2.544   2.400   0.468  0.4197 -3.3349 -0.8494
  346SOL     OW 1036   1.647   2.122   1.794 -0.0919  0.0359  0.3950
  346SOL    HW1 1037   1.623   2.061   1.874 -2.2323 -0.5877 -1.6596
  346SOL    HW2 1038   1.590   2.105   1.713 -1.0121 -1.7608  1.3719
  347SOL     OW 1039   1.368   1.857   1.358 -0.0699 -1.1202  0.0561
  347SOL    HW1 1040   1.339   1.837   1.260 -0.3676 -0.3879  0.9245
  347SOL    HW2 1041   1.470   1.858   1.375  3.0683 -1.3693  0.0889
  348SOL     OW 1042   0.742   1.749   1.554 -0.0293 -0.2745  0.0058
  348SOL    HW1 1043   0.717   1.730   1.454 -1.3288  1.6061 -0.0885
  348SOL    HW2 1044   0.805   1.829   1.566  1.8164  1.5049 -0.5285
  349SOL     OW 1045   1.687   1.485   1.671  0.2175 -0.1922 -0.0655
  349SOL    HW1 1046   1.601   1.437   1.677  2.3957  1.4305  2.8315
  349SOL    HW2 1047   1.673   1.587   1.670  0.7836  1.7029  0.8740
  350SOL     OW 1048   2.273   2.380   0.614 -0.6013  0.2099 -0.1201
  350SOL    HW1 1049   2.362   2.433   0.599  0.9552  1.1665 -0.6275
  350SOL    HW2 1050   2.267   2.321   0.532  0.8817 -2.6028 -0.8147
  351SOL     OW 1051   0.093   2.940   1.712 -0.1023  0.1258 -0.1036
  351SOL    HW1 1052   0.151   2.853   1.698 -0.7676 -1.2480 -0.2521
  351SOL    HW2 1053   0.075   2.989   1.627 -0.1871 -0.8281 -0.8833
  352SOL     OW 1054   0.609   1.060   0.631  0.7388 -0.1649  0.2296
  352SOL    HW1 1055   0.677   1.043   0.708  1.3029  0.1150  0.0793
  352SOL    HW2 1056   0.569   0.976   0.590 -1.1642 -0.3817  1.0384
  353SOL     OW 1057   1.142   1.811   2.706 -0.2450  0.1595  0.0592
  353SOL    HW1 1058   1.160   1.860   2.795  1.3364  0.1622  0.3608
  353SOL    HW2 1059   1.071   1.744   2.726  0.7666 -1.5081  0.6471
  354SOL     OW 1060   1.771   2.829   1.821 -0.4714 -0.9565 -0.0668
  354SOL    HW1 1061   1.761   2.793   1.919  0.1248  0.3896  1.5956
  354SOL    HW2 1062   1.727   2.768   1.755  2.1618 -0.2415  1.2617
  355SOL     OW 1063   2.135   1.193   0.119  0.0127  0.3924 -0.2277
  355SOL    HW1 1064   2.151   1.272   0.057 -0.5330 -1.6044 -2.3604
  355SOL    HW2 1065   2.033   1.185   0.140 -4.1962  0.6468 -0.9580
  356SOL     OW 1066   0.343   2.003   1.057 -0.0703 -0.4096  0.0503
  356SOL    HW1 1067   0.264   2.062   1.025 -0.5436 -1.8152  1.3176
  356SOL    HW2 1068   0.319   1.949   1.142  1.5702 -0.6848 -0.4092
  357SOL     OW 1069   2.908   2.926   1.776  0.1083  0.3378  0.2523
  357SOL    HW1 1070   2.866   2.832   1.767 -0.3991 -1.5918 -0.5330
  357SOL    HW2 1071   3.008   2.919   1.760 -2.2770  0.4633  0.5901
  358SOL     OW 1072   2.395   1.649   1.653 -0.0260 -0.7985 -0.3021
  358SOL    HW1 1073   2.461   1.691   1.586 -0.0270 -0.3399 -2.3458
  358SOL    HW2 1074   2.368   1.559   1.617 -1.5983 -0.3206 -1.2059
  359SOL     OW 1075   2.013   2.717   2.407 -0.3325  0.0407  0.8252
  359SOL    HW1 1076   2.105   2.728   2.364 -0.1083  0.4716 -2.2362
  359SOL    HW2 1077   1.975   2.627   2.380  2.6452 -0.3465 -0.7287
  360SOL     OW 1078   0.883   2.904   0.822  0.3221  0.8304  0.0713
  360SOL    HW1 1079   0.802   2.864   0.864  3.4068 -0.7290 -0.0745
  360SOL    HW2 1080   0.961   2.893   0.890 -1.9020  2.0276 -1.2047
  361SOL     OW 1081   1.809   0.317   0.634  0.3640 -0.2249 -0.3300
  361SOL    HW1 1082   1.840   0.224   0.649 -0.6483  0.3717 -0.3996
  361SOL    HW2 1083   1.787   0.368   0.723  0.7398  2.6556  0.7400
  362SOL     OW 1084   1.382   0.710   1.328  0.1029  0.0503 -0.0725
  362SOL    HW1 1085   1.447   0.784   1.324 -1.6417 -3.1554 -1.4308
  362SOL    HW2 1086   1.287   0.752   1.337  0.6051 -0.1252 -2.8451
  363SOL     OW 1087   1.921   1.478   2.130 -0.1269 -0.4187  0.1937
  363SOL    HW1 1088   1.895   1.441   2.221  1.0545  1.3593  0.5959
  363SOL    HW2 1089   2.024   1.484   2.120 -1.1173  1.2424  2.8040
  364SOL     OW 1090   0.568   0.747   1.263  0.0027 -0.1912  0.6044
  364SOL    HW1 1091   0.587   0.768   1.165 -2.6524 -1.1615 -1.3371
  364SOL    HW2 1092   0.623   0.667   1.283 -1.1447  2.5781 -2.1428
  365SOL     OW 1093   0.526   0.324   2.396  0.1042  0.5096 -0.6562
  365SOL    HW1 1094   0.500   0.420   2.378  1.9461  0.2815  0.0884
  365SOL    HW2 1095   0.592   0.294   2.327 -0.0843  1.3866 -1.4285
  366SOL     OW 1096   2.266   1.811   2.644 -0.5477  0.4611  0.0834
  366SOL    HW1 1097   2.351   1.769   2.683 -0.5005 -0.2832  2.5997
  366SOL    HW2 1098   2.284   1.909   2.623  1.5805 -1.1773 -0.3919
  367SOL     OW 1099   2.759   2.583   2.829 -0.1662 -0.2175  0.2782
  367SOL    HW1 1100   2.785   2.639   2.908 -1.4452 -2.0236  0.5466
  367SOL    HW2 1101   2.656   2.573   2.808 -1.5053 -3.5427 -1.7670
  368SOL     OW 1102   0.114   1.414   0.922  0.3995  0.2445 -0.1873
  368SOL    HW1 1103   0.073   1.326   0.884 -1.9229  2.2304 -1.2884
  368SOL    HW2 1104   0.081   1.497   0.875  3.6118 -0.8242 -1.3335
  369SOL     OW 1105   0.601   2.951   2.304  0.3398 -0.0591 -0.3890
  369SOL    HW1 1106   0.631   2.981   2.393  0.8155  0.7151  2.0011
  369SOL    HW2 1107   0.671   2.978   2.234 -0.4778  0.5235  0.6314
  370SOL     OW 1108   2.976   0.411   0.560 -0.1483 -0.0291 -0.5376
  370SOL    HW1 1109   2.988   0.491   0.499 -0.2048 -2.0593 -0.7105
  370SOL    HW2 1110   2.885   0.411   0.608  1.0878  2.5191 -1.2143
  371SOL     OW 1111   1.170   2.486   1.719  0.2913  0.0323  0.3291
  371SOL    HW1 1112   1.186   2.564   1.656 -0.2943 -2.5608 -0.7477
  371SOL    HW2 1113   1.178   2.507   1.816  0.1467  1.9645 -2.6739
  372SOL     OW 1114   2.810   0.284   2.291 -0.0322 -0.0046  0.3252
  372SOL    HW1 1115   2.745   0.240   2.356 -1.2462  1.0108  1.5588
  372SOL    HW2 1116   2.901   0.271   2.332  1.2254  1.7825 -1.3279
  373SOL     OW 1117   0.095   2.253   0.732  0.1302 -0.4113 -0.8138
  373SOL    HW1 1118   0.153   2.335   0.745  1.2554  0.1697  1.0769
  373SOL    HW2 1119   3.074   2.280   0.732 -0.0494 -1.8273  0.9490
  374SOL     OW 1120   0.313   2.994   2.552  0.1759  0.0362  0.7208
  374SOL    HW1 1121   0.343   0.012   2.579 -0.4826 -0.1730  1.1745
  374SOL    HW2 1122   0.322   2.978   2.450 -0.8002 -1.6744  0.3318
  375SOL     OW 1123   0.456   0.123   2.621 -0.0743  0.2545 -0.1003
  375SOL    HW1 1124   0.507   0.141   2.706 -1.6656  0.7705 -0.6249
  375SOL    HW2 1125   0.478   0.194   2.552 -0.6964  3.2518  1.9624
  376SOL     OW 1126   2.943   2.301   1.672  0.0459  0.4077  0.3494
  376SOL    HW1 1127   2.937   2.203   1.696  1.1250 -2.3006 -0.4005
  376SOL    HW2 1128   2.880   2.319   1.593  2.2670  0.7953 -0.3845
  377SOL     OW 1129   1.356   2.811   2.775  0.3334 -0.4077  0.0697
  377SOL    HW1 1130   1.374   2.828   2.870 -1.6113  0.4951 -2.0633
  377SOL    HW2 1131   1.410   2.728   2.747  0.0689 -1.6776  1.6226
  378SOL     OW 1132   2.960   0.211   2.619 -0.3624 -0.4276  0.2844
  378SOL    HW1 1133   2.990   0.266   2.534  1.7993  0.5165 -0.6532
  378SOL    HW2 1134   3.011   0.123   2.628 -0.5733 -2.5789 -0.7802
  379SOL     OW 1135   0.552   1.016   0.189  0.5433  0.3523  0.1989
  379SOL    HW1 1136   0.533   0.979   0.097  0.5401  2.7590 -1.4540
  379SOL    HW2 1137   0.491   0.969   0.259  0.0676 -1.5790 -0.5313
  380SOL     OW 1138   0.151   1.572   1.710 -0.0801 -0.0129 -0.1447
  380SOL    HW1 1139   0.193   1.657   1.672 -0.9617 -0.5239  0.3931
  380SOL    HW2 1140   0.223   1.529   1.767 -1.4932  1.0596  0.8356
  381SOL     OW 1141   0.207   1.212   2.077 -0.4028  0.6387 -0.2958
  381SOL    HW1 1142   0.293   1.178   2.034  0.4645  0.6071 -0.6234
  381SOL    HW2 1143   0.130   1.179   2.018 -3.0056  2.4001 -1.8260
  382SOL     OW 1144   2.201   1.959   0.405 -0.5827 -0.0240  0.4175
  382SOL    HW1 1145   2.288   1.937   0.358 -2.5292 -2.4054  1.0561
  382SOL    HW2 1146   2.215   1.951   0.504 -0.3458 -0.1045 -1.8411
  383SOL     OW 1147   0.435   1.868   0.135 -0.2503 -0.4400  0.0572
  383SOL    HW1 1148   0.417   1.771   0.164  1.1135  0.3882  0.7373
  383SOL    HW2 1149   0.519   1.866   0.074  0.6246 -2.5949 -2.2128
  384SOL     OW 1150   0.722   2.054   2.494  0.6234 -0.1407  0.0310
  384SOL    HW1 1151   0.771   2.113   2.563 -0.7987 -0.4722  0.1074
  384SOL    HW2 1152   0.788   2.015   2.427 -3.2275  1.4231  0.4770
  385SOL     OW 1153   2.249   1.913   0.664  0.1255 -0.4724 -0.1108
  385SOL    HW1 1154   2.344   1.886   0.698  0.9384  0.6442  0.0151
  385SOL    HW2 1155   2.229   2.006   0.701  0.1533  1.7640 -2.0857
  386SOL     OW 1156   2.327   0.977   1.342  0.5667  0.2413 -0.1680
  386SOL    HW1 1157   2.347   0.932   1.251  1.3127 -0.5397 -0.7812
  386SOL    HW2 1158   2.411   1.023   1.375  2.2503 -0.5669 -1.3770
  387SOL     OW 1159   2.747   1.302   2.121  0.3717 -0.7476  0.0889
  387SOL    HW1 1160   2.665   1.362   2.126  1.1786  2.1394  1.5510
  387SOL    HW2 1161   2.801   1.312   2.205 -1.3326 -1.8627 -1.5429
  388SOL     OW 1162   0.485   1.543   2.165  0.3936 -1.3566 -0.1004
  388SOL    HW1 1163   0.499   1.644   2.140 -1.5810  0.7662 -1.9188
  388SOL    HW2 1164   0.389   1.512   2.142 -0.5568 -1.8687  0.4583
  389SOL     OW 1165   0.898   0.967   2.013 -0.1421  0.4873 -0.2536
  389SOL    HW1 1166   0.847   0.884   1.985 -3.1055 -1.4928  0.4644
  389SOL    HW2 1167   0.991   0.965   1.977  1.3133 -0.7359 -0.1706
  390SOL     OW 1168   2.414   3.048   0.679 -0.7783  0.3751  0.3343
  390SOL    HW1 1169   2.318   3.067   0.655  2.4506  1.6870 -0.7983
  390SOL    HW2 1170   2.429   3.034   0.779  1.6157 -0.4803 -0.6348
  391SOL     OW 1171   1.703   1.546   1.283 -0.2361  0.3881 -0.1718
  391SOL    HW1 1172   1.759   1.490   1.352 -0.8014 -0.0806  0.6977
  391SOL    HW2 1173   1.694   1.489   1.196  0.2206  1.2560 -1.7185
  392SOL     OW 1174   2.778   2.689   0.019 -0.1828  0.1974  0.4227
  392SOL    HW1 1175   2.808   2.760   3.024  1.9545 -0.1391 -3.3193
  392SOL    HW2 1176   2.844   2.681   0.092 -1.2236 -0.3910  1.0910
  393SOL     OW 1177   1.798   2.386   2.935 -0.1951  0.1862 -0.2502
  393SOL    HW1 1178   1.817   2.434   2.849 -0.2660  2.4056 -0.6250
  393SOL    HW2 1179   1.884   2.351   2.978 -2.0959  0.2406 -1.5011
  394SOL     OW 1180   2.997   2.467   2.515  0.5582  0.0296  0.4981
  394SOL    HW1 1181   2.983   2.545   2.577 -0.2140  0.0440  0.3181
  394SOL    HW2 1182   0.011   2.427   2.525 -2.1510  1.0431  0.4515
  395SOL     OW 1183   0.112   0.187   0.571 -0.0196 -0.4373 -0.0268
  395SOL    HW1 1184   0.013   0.184   0.554 -0.0734 -0.9606 -0.9442
  395SOL    HW2 1185   0.126   0.207   0.673  3.4624 -0.2908  1.0769
  396SOL     OW 1186   1.889   0.561   0.489  0.3748  0.1204 -0.3209
  396SOL    HW1 1187   1.848   0.612   0.570  2.4268  1.5361  0.5870
  396SOL    HW2 1188   1.867   0.459   0.496 -0.6348 -0.9033  1.7832
  397SOL     OW 1189   0.306   0.604   2.103 -0.0396  0.1431 -0.2051
  397SOL    HW1 1190   0.334   0.547   2.021 -2.9517 -0.5320  0.9097
  397SOL    HW2 1191   0.207   0.604   2.103  3.8584 -0.0181 -2.2559
  398SOL     OW 1192   1.014   2.948   0.303 -0.1543 -0.3145  0.0627
  398SOL    HW1 1193   1.109   2.963   0.279 -3.1539  0.8579  0.5293
  398SOL    HW2 1194   0.959   3.032   0.296  0.8093  0.2359 -0.8375
  399SOL     OW 1195   2.173   0.432   2.052 -0.0236  0.7552  0.2871
  399SOL    HW1 1196   2.146   0.401   2.140  5.3952  2.7082 -3.2496
  399SOL    HW2 1197   2.166   0.530   2.039 -2.6834 -3.2960  0.0188
  400SOL     OW 1198   0.977   2.192   2.576 -0.0172 -0.5613  0.2528
  400SOL    HW1 1199   0.924   2.165   2.659  0.9089  0.0612 -4.9145
  400SOL    HW2 1200   0.949   2.284   2.543  1.7279 -1.6323 -1.0069
  401SOL     OW 1201   0.666   0.929   2.564 -0.2803  0.4850 -0.2334
  401SOL    HW1 1202   0.626   0.852   2.621 -1.0617 -0.4058  0.9192
  401SOL    HW2 1203   0.612   0.947   2.480  1.7465 -0.6144  0.6541
  402SOL     OW 1204   0.321   2.458   0.510  0.3653  0.0172  0.3402
  402SOL    HW1 1205   0.394   2.486   0.442  0.8169 -1.0416  0.2069
  402SOL    HW2 1206   0.365   2.445   0.598  0.4686 -0.8776 -3.5348
  403SOL     OW 1207   0.020   1.171   1.874  0.1236  0.0176  0.1229
  403SOL    HW1 1208   0.091   1.229   1.840 -1.8144 -1.6414  0.6107
  403SOL    HW2 1209   3.063   1.098   1.812 -3.0751 -0.1644 -0.0743
  404SOL     OW 1210   2.748   2.409   2.451  0.6453  0.0123  0.1206
  404SOL    HW1 1211   2.684   2.487   2.464 -2.2546  5.1087  0.8229
  404SOL    HW2 1212   2.840   2.426   2.489 -2.1016  0.2982 -0.8624
  405SOL     OW 1213   0.096   0.406   1.720  0.1734  0.3088 -0.3789
  405SOL    HW1 1214   0.176   0.341   1.724 -0.0120 -1.5559  0.0188
  405SOL    HW2 1215   0.008   0.357   1.701  0.3275 -3.4581  0.2986
  406SOL     OW 1216   1.309   1.405   2.565  0.2096  0.7802 -0.4971
  406SOL    HW1 1217   1.365   1.471   2.625 -0.3126  0.0442 -2.8875
  406SOL    HW2 1218   1.237   1.458   2.517  0.4517 -3.3609  0.8236
  407SOL     OW 1219   1.503   0.965   2.605  0.3172  0.3129 -0.6611
  407SOL    HW1 1220   1.447   1.034   2.655 -0.2067 -2.2017 -0.9445
  407SOL    HW2 1221   1.578   1.005   2.554  0.0203 -2.2149  1.8997
  408SOL     OW 1222   0.351   2.984   2.281 -0.0761  0.5712  0.4889
  408SOL    HW1 1223   0.452   2.963   2.285 -0.0096  0.4899  0.0651
  408SOL    HW2 1224   0.312   2.933   2.200 -1.5612 -1.0017 -1.9346
  409SOL     OW 1225   0.114   2.126   1.006  0.2182  0.1330  0.3165
  409SOL    HW1 1226   0.072   2.048   0.954  0.7433 -0.4039 -0.7227
  409SOL    HW2 1227   0.067   2.154   1.094  1.7635  3.0212  0.4095
  410SOL     OW 1228   2.627   1.706   0.329  0.0512 -0.2814  0.0465
  410SOL    HW1 1229   2.635   1.626   0.394 -2.3959 -1.0166  0.8204
  410SOL    HW2 1230   2.724   1.739   0.302  1.5673 -1.5195 -1.3052
  411SOL     OW 1231   2.838   0.151   1.134  0.4963  0.1893 -0.2995
  411SOL    HW1 1232   2.763   0.163   1.206 -0.9678  2.2531  0.1489
  411SOL    HW2 1233   2.815   0.186   1.042  1.5525  2.4164  0.5149
  412SOL     OW 1234   2.049   0.507   1.539  0.8189  0.2338  0.0086
  412SOL    HW1 1235   1.957   0.464   1.534  0.8937  3.6539  0.6483
  412SOL    HW2 1236   2.104   0.490   1.454  2.7290 -0.3331  0.1050
  413SOL     OW 1237   0.486   0.466   1.904  0.1899  0.0053 -0.3453
  413SOL    HW1 1238   0.477   0.430   1.808 -1.3465 -1.2137  0.3204
  413SOL    HW2 1239   0.582   0.453   1.938 -2.9236 -1.0915 -1.5954
  414SOL     OW 1240   2.862   1.248   2.777 -0.4219  0.2778  0.1985
  414SOL    HW1 1241   2.959   1.262   2.808 -0.9331 -0.1368 -0.5230
  414SOL    HW2 1242   2.804   1.332   2.799 -0.7969  2.8781  1.7715
  415SOL     OW 1243   0.763   2.717   3.000 -0.3404 -0.1374  0.4774
  415SOL    HW1 1244   0.857   2.686   3.026 -0.7561  2.0639 -0.4333
  415SOL    HW2 1245   0.715   2.744   0.005 -1.2585 -2.3563 -1.3865
  416SOL     OW 1246   1.397   0.192   2.368  0.0400  0.4795  0.1163
  416SOL    HW1 1247   1.328   0.129   2.329 -4.4288 -1.9752 -1.3625
  416SOL    HW2 1248   1.357   0.275   2.398  0.7025 -3.4304  2.1033
  417SOL     OW 1249   0.313   0.577   0.623  0.6407 -0.0248 -0.3888
  417SOL    HW1 1250   0.373   0.501   0.596 -1.2778  3.0401  2.6170
  417SOL    HW2 1251   0.227   0.543   0.673 -0.3378  0.0660  1.4543
  418SOL     OW 1252   2.625   0.122   0.588  0.3761  0.2253 -0.2055
  418SOL    HW1 1253   2.550   0.070   0.627 -0.2311 -0.9525 -1.8384
  418SOL    HW2 1254   2.607   0.222   0.593  0.9673  1.0960  1.5145
  419SOL     OW 1255   0.141   2.974   0.413  0.3613  0.3714  0.6565
  419SOL    HW1 1256   0.191   3.014   0.330  1.2759  0.1746 -1.4601
  419SOL    HW2 1257   0.047   2.943   0.397  2.6456  1.3634 -0.7591
  420SOL     OW 1258   0.263   1.258   1.759 -0.7676  0.0498  0.5975
  420SOL    HW1 1259   0.250   1.191   1.680  2.0986 -1.1680 -2.1261
  420SOL    HW2 1260   0.359   1.268   1.786 -1.9173 -0.7877  0.2495
  421SOL     OW 1261   1.921   2.380   0.890  0.0793 -0.1369 -0.1291
  421SOL    HW1 1262   1.997   2.412   0.832 -2.4464  0.3164  1.1697
  421SOL    HW2 1263   1.838   2.359   0.833  1.7808 -0.5177  1.4783
  422SOL     OW 1264   0.187   0.514   1.386  0.3490  0.2013  0.0889
  422SOL    HW1 1265   0.168   0.576   1.307  2.6745 -2.1182  3.7647
  422SOL    HW2 1266   0.266   0.548   1.439  0.1042  1.3005 -1.8364
  423SOL     OW 1267   0.878   1.558   1.677  0.2274  0.0092  0.1274
  423SOL    HW1 1268   0.853   1.618   1.597  0.3239  0.8353  0.0650
  423SOL    HW2 1269   0.801   1.560   1.741 -0.9032  1.5917 -0.2622
  424SOL     OW 1270   1.740   2.214   0.401  0.2117 -0.0342 -0.2680
  424SOL    HW1 1271   1.796   2.165   0.333 -0.8528  0.9383  1.4631
  424SOL    HW2 1272   1.638   2.233   0.372 -0.9581 -0.0182 -0.0423
  425SOL     OW 1273   2.694   2.978   1.912 -0.0521 -0.2443 -0.2083
  425SOL    HW1 1274   2.717   3.024   2.000  0.4382 -1.1805 -1.4383
  425SOL    HW2 1275   2.772   2.953   1.857 -1.3472 -0.9531  0.7273
  426SOL     OW 1276   2.972   2.694   2.671  0.1380  0.1085  0.3597
  426SOL    HW1 1277   3.043   2.708   2.739 -0.4321 -1.3781 -1.6771
  426SOL    HW2 1278   2.883   2.680   2.718 -0.2617  1.2125  0.4570
  427SOL     OW 1279   1.307   0.503   3.071 -0.4440  0.5181  0.3994
  427SOL    HW1 1280   1.243   0.441   0.041 -2.3214  0.9993  0.7759
  427SOL    HW2 1281   1.376   0.446   3.028 -1.0434  1.7750  1.4763
  428SOL     OW 1282   2.912   0.508   1.216 -0.1677  0.5995 -0.3662
  428SOL    HW1 1283   2.959   0.424   1.242 -0.0934  2.3182 -1.4179
  428SOL    HW2 1284   2.858   0.532   1.295 -1.0205  1.9281  0.8943
  429SOL     OW 1285   1.989   2.943   1.212 -0.0094  0.0198  0.4993
  429SOL    HW1 1286   1.958   2.880   1.140  2.7299  2.4825  0.4640
  429SOL    HW2 1287   2.082   2.923   1.243 -0.5292  0.8127  0.5600
  430SOL     OW 1288   0.877   1.447   2.499 -0.3180 -0.0746  0.0649
  430SOL    HW1 1289   0.894   1.517   2.571 -1.4844 -1.4827 -0.1847
  430SOL    HW2 1290   0.778   1.435   2.472 -1.7659 -0.5351  2.6509
  431SOL     OW 1291   2.668   1.763   1.091 -0.1639 -0.0171 -0.2656
  431SOL    HW1 1292   2.580   1.717   1.109  1.0706  0.6991  0.6406
  431SOL    HW2 1293   2.689   1.838   1.162  0.8857  0.0120  1.3411
  432SOL     OW 1294   1.304   2.702   2.430  0.0938  0.1993  0.1623
  432SOL    HW1 1295   1.318   2.747   2.337 -0.9103 -1.8064 -0.6936
  432SOL    HW2 1296   1.389   2.711   2.483  1.8791 -1.9799  1.8545
  433SOL     OW 1297   1.612   0.457   2.297 -0.2049  0.2774  0.1133
  433SOL    HW1 1298   1.624   0.452   2.400 -0.7544  2.3532  0.3124
  433SOL    HW2 1299   1.708   0.472   2.257  1.0109 -0.9687 -0.3809
  434SOL     OW 1300   0.497   2.364   2.319 -0.0905 -0.1446 -0.2593
  434SOL    HW1 1301   0.431   2.438   2.316  2.2705 -1.4829  2.9658
  434SOL    HW2 1302   0.482   2.296   2.393 -0.2561 -3.9243  1.2647
  435SOL     OW 1303   0.338   0.170   0.434 -0.2138 -0.1892 -0.3106
  435SOL    HW1 1304   0.369   0.078   0.467 -1.9806 -0.9730 -1.5743
  435SOL    HW2 1305   0.250   0.187   0.481  1.1966 -1.3505 -0.4058
  436SOL     OW 1306   0.524   0.809   2.097  0.0823 -0.3702  0.4055
  436SOL    HW1 1307   0.595   0.805   2.172 -0.2508 -0.6830 -0.7630
  436SOL    HW2 1308   0.451   0.740   2.111 -0.6824  0.4731  0.2312
  437SOL     OW 1309   0.686   2.629   2.569  0.0580 -0.1687 -0.2830
  437SOL    HW1 1310   0.671   2.666   2.476  1.2264 -1.9702  0.6366
  437SOL    HW2 1311   0.600   2.580   2.599 -0.5258  1.4547 -0.3330
  438SOL     OW 1312   1.024   1.153   1.067 -0.1729  0.3863 -0.0798
  438SOL    HW1 1313   1.099   1.201   1.109 -3.3620  1.0768 -2.1527
  438SOL    HW2 1314   1.051   1.110   0.980 -2.4719  0.4165 -4.1638
  439SOL     OW 1315   2.604   1.566   2.371 -0.1412  0.2828 -0.1305
  439SOL    HW1 1316   2.683   1.603   2.420 -0.5533 -0.0984 -2.2861
  439SOL    HW2 1317   2.573   1.481   2.418 -0.1685  0.0081 -0.7022
  440SOL     OW 1318   0.113   0.579   2.778 -0.2093  0.2732 -0.4534
  440SOL    HW1 1319   0.094   0.631   2.692 -4.0461  1.8894  2.5608
  440SOL    HW2 1320   0.035   0.523   2.805 -0.2762  0.2594 -1.4984
  441SOL     OW 1321   1.210   2.163   1.536 -0.1111  0.9418 -0.2556
  441SOL    HW1 1322   1.144   2.127   1.469 -1.3714  2.6675  1.9304
  441SOL    HW2 1323   1.167   2.189   1.623  0.1758 -3.9424 -0.7590
  442SOL     OW 1324   1.970   1.367   1.016  0.0250  0.3547 -0.3633
  442SOL    HW1 1325   2.022   1.316   1.092 -1.6500 -1.5394  2.2374
  442SOL    HW2 1326   1.957   1.311   0.928 -1.2253 -4.2364 -1.0932
  443SOL     OW 1327   2.528   2.095   2.883  0.0469  0.0237  0.1505
  443SOL    HW1 1328   2.525   2.064   2.977 -0.1610  2.1169 -3.6209
  443SOL    HW2 1329   2.527   2.198   2.879 -0.9753 -1.5782 -0.6593
  444SOL     OW 1330   1.764   1.564   2.800  0.6220 -0.0565  0.8153
  444SOL    HW1 1331   1.781   1.523   2.710 -1.6884  2.3487 -1.0915
  444SOL    HW2 1332   1.771   1.668   2.788 -0.2637  0.6399 -1.0325
  445SOL     OW 1333   0.034   2.265   2.040  0.1885  0.1718 -0.3183
  445SOL    HW1 1334   0.100   2.254   2.119  0.5340 -1.1141 -0.1188
  445SOL    HW2 1335   0.086   2.278   1.953 -0.2100 -0.9119 -1.0149
  446SOL     OW 1336   1.108   0.916   1.650  0.2566 -0.8244 -0.3322
  446SOL    HW1 1337   1.193   0.908   1.705 -0.9857  0.7324 -0.4534
  446SOL    HW2 1338   1.037   0.856   1.692  1.2919  1.5251 -0.6314
  447SOL     OW 1339   1.037   1.052   0.827  0.0956  0.1119  0.4914
  447SOL    HW1 1340   1.114   0.987   0.830  0.8301 -0.7861 -0.3465
  447SOL    HW2 1341   1.056   1.130   0.768  3.1762  1.2596  1.7855
  448SOL     OW 1342   1.008   1.290   2.339  0.2926  0.3330  0.2244
  448SOL    HW1 1343   1.101   1.325   2.337 -1.8226 -0.9518  1.0645
  448SOL    HW2 1344   0.949   1.330   2.413  0.8139 -1.3174  2.7113
  449SOL     OW 1345   0.057   2.056   2.315 -0.4720 -0.1576 -0.2296
  449SOL    HW1 1346   3.032   2.075   2.324 -2.9141  1.0337  0.2186
  449SOL    HW2 1347   0.065   1.959   2.342  1.5310 -0.9226  0.3201
  450SOL     OW 1348   2.193   1.572   2.031 -0.6198 -0.4429 -0.2010
  450SOL    HW1 1349   2.231   1.483   2.056  0.6055  1.1042  0.3574
  450SOL    HW2 1350   2.268   1.643   2.050  2.7042  0.6432 -0.9715
  451SOL     OW 1351   2.703   1.469   1.412  0.0759 -0.1071 -0.3741
  451SOL    HW1 1352   2.695   1.571   1.432  2.0259 -0.7840  1.0262
  451SOL    HW2 1353   2.754   1.462   1.327  0.5771  1.7074  0.1742
  452SOL     OW 1354   0.676   1.222   1.263  0.1953  0.6260  0.5665
  452SOL    HW1 1355   0.700   1.124   1.292 -1.2736  0.4743  0.5243
  452SOL    HW2 1356   0.733   1.282   1.324  2.0100  0.0893  1.5095
  453SOL     OW 1357   0.668   1.536   0.737 -0.7998  0.3126 -0.1809
  453SOL    HW1 1358   0.706   1.552   0.643 -2.5288 -0.9819  2.0636
  453SOL    HW2 1359   0.693   1.441   0.764 -0.9090  1.3497 -1.5142
  454SOL     OW 1360   1.082   1.749   0.287 -0.0705 -0.0723  0.5259
  454SOL    HW1 1361   1.056   1.748   0.188  0.7429  1.6080 -0.5781
  454SOL    HW2 1362   1.101   1.658   0.325 -0.6099  1.0273 -1.4940
  455SOL     OW 1363   1.481   0.479   1.297 -0.6074 -0.1343 -0.0808
  455SOL    HW1 1364   1.585   0.491   1.303 -0.2318  1.5973  0.3473
  455SOL    HW2 1365   1.437   0.575   1.298 -0.5092 -2.0321 -2.0102
  456SOL     OW 1366   1.796   2.814   1.050 -0.7633 -0.1692  0.7782
  456SOL    HW1 1367   1.704   2.838   1.087  1.3743 -2.4862 -0.7219
  456SOL    HW2 1368   1.810   2.716   1.041 -1.1368  4.0991  0.9322
  457SOL     OW 1369   1.981   0.633   2.712 -0.2897 -0.6765  0.2702
  457SOL    HW1 1370   1.895   0.632   2.759  2.4753 -1.0590 -0.2169
  457SOL    HW2 1371   1.997   0.533   2.683  0.5007 -2.6118 -1.4083
  458SOL     OW 1372   2.490   0.738   2.518 -0.1109  0.0944  0.1832
  458SOL    HW1 1373   2.452   0.813   2.574 -0.9192 -0.6931 -0.8176
  458SOL    HW2 1374   2.544   0.675   2.580  0.6715 -0.0454 -0.0232
  459SOL     OW 1375   2.530   1.470   2.130 -0.0536 -0.0154 -0.2525
  459SOL    HW1 1376   2.560   1.537   2.060 -1.1222 -1.2123  0.4213
  459SOL    HW2 1377   2.547   1.505   2.224 -1.5405  2.6108 -0.4966
  460SOL     OW 1378   0.778   0.751   0.063  0.3950 -0.3885  0.2084
  460SOL    HW1 1379   0.808   0.819   3.071  1.2335  1.3657  0.3416
  460SOL    HW2 1380   0.856   0.730   0.127 -0.3059  0.2792 -1.5569
  461SOL     OW 1381   0.232   2.378   3.020 -0.1300  0.5582 -0.0060
  461SOL    HW1 1382   0.162   2.402   0.014  0.2830 -0.6250 -1.1646
  461SOL    HW2 1383   0.245   2.280   3.003  0.0877 -0.0175  0.1306
  462SOL     OW 1384   0.343   2.854   1.988  0.6186 -0.6360  0.3616
  462SOL    HW1 1385   0.245   2.822   1.982 -1.2507 -1.0696  2.2811
  462SOL    HW2 1386   0.341   2.957   1.983 -1.3616 -0.1968  0.8513
  463SOL     OW 1387   1.522   2.334   1.955 -0.0260  0.3016 -0.4463
  463SOL    HW1 1388   1.597   2.290   1.908 -0.8972  1.5460  1.1697
  463SOL    HW2 1389   1.496   2.433   1.935  0.5804  1.5281  3.4337
  464SOL     OW 1390   2.610   2.562   1.097 -0.1460 -0.1075 -0.0785
  464SOL    HW1 1391   2.684   2.607   1.153 -0.7484  1.5682  0.3542
  464SOL    HW2 1392   2.596   2.605   1.006 -0.7771  1.7219  0.2588
  465SOL     OW 1393   0.129   0.063   1.523 -0.2661 -0.1511  0.5810
  465SOL    HW1 1394   0.071   0.126   1.470 -4.0722  0.8761  0.1874
  465SOL    HW2 1395   0.191   0.116   1.579 -2.2882 -0.9237 -0.0866
  466SOL     OW 1396   1.231   2.335   2.287 -0.5162 -0.1695  0.2879
  466SOL    HW1 1397   1.327   2.342   2.259 -2.4015  0.1817 -2.7016
  466SOL    HW2 1398   1.229   2.306   2.385  1.2454  0.3109 -1.0298
  467SOL     OW 1399   2.987   2.199   0.426  0.7254 -0.6129  0.0716
  467SOL    HW1 1400   2.923   2.259   0.371 -2.5043  0.3298 -0.6821
  467SOL    HW2 1401   2.930   2.115   0.449 -1.1742 -1.0705 -2.3549
  468SOL     OW 1402   2.058   1.990   3.021  0.1986  0.4390 -0.5662
  468SOL    HW1 1403   2.058   1.931   2.937  1.8746  1.0950 -1.3126
  468SOL    HW2 1404   2.148   1.964   3.066  2.5659 -2.4260  0.0238
  469SOL     OW 1405   1.109   2.315   0.778 -0.5318 -0.0036  0.8397
  469SOL    HW1 1406   1.051   2.230   0.778 -1.5833 -1.7640  0.9961
  469SOL    HW2 1407   1.207   2.286   0.749  2.6738 -0.3956 -2.0932
  470SOL     OW 1408   1.930   0.766   0.996  0.2930  0.2978  0.1817
  470SOL    HW1 1409   1.933   0.865   1.000  1.7866 -2.9984  1.4251
  470SOL    HW2 1410   1.916   0.734   0.897  1.8270 -1.3140 -0.6863
  471SOL     OW 1411   0.541   2.227   0.076  0.8665 -0.3651 -0.0332
  471SOL    HW1 1412   0.554   2.230   0.178  2.6578  0.6129 -0.4324
  471SOL    HW2 1413   0.459   2.169   0.049 -3.4220 -1.5541  0.7918
  472SOL     OW 1414   2.504   1.702   2.727 -0.1064  0.4905 -0.5385
  472SOL    HW1 1415   2.577   1.767   2.695  0.9330  1.2830 -2.2418
  472SOL    HW2 1416   2.526   1.608   2.693 -1.4440 -0.0314  0.3073
  473SOL     OW 1417   1.428   1.979   0.720  0.5763 -0.1816  0.6516
  473SOL    HW1 1418   1.382   2.051   0.660 -2.5743 -0.9491 -0.3440
  473SOL    HW2 1419   1.457   2.015   0.811 -0.3097 -1.5429 -1.7719
  474SOL     OW 1420   2.773   0.190   0.860 -0.7063  0.0664 -0.3632
  474SOL    HW1 1421   2.856   0.138   0.834 -1.0657 -0.3321  0.9186
  474SOL    HW2 1422   2.766   0.279   0.813  1.6618 -0.0045  0.9709
  475SOL     OW 1423   2.115   2.809   1.488 -0.4178 -0.5185 -0.5377
  475SOL    HW1 1424   2.091   2.745   1.561 -3.0531 -3.1383 -2.2683
  475SOL    HW2 1425   2.113   2.762   1.402  0.0049  0.5131 -1.5156
  476SOL     OW 1426   0.577   0.486   0.659 -0.4543  0.1840 -0.2213
  476SOL    HW1 1427   0.556   0.440   0.573 -1.9357 -0.6838  1.7663
  476SOL    HW2 1428   0.673   0.482   0.683  1.1752 -1.6919  2.2607
  477SOL     OW 1429   1.185   2.199   1.181 -0.4137  0.3123  0.3687
  477SOL    HW1 1430   1.179   2.272   1.245  2.2466 -1.2867 -1.2531
  477SOL    HW2 1431   1.124   2.126   1.212 -0.6417  1.9635  2.1641
  478SOL     OW 1432   1.214   2.314   2.815  0.2308  0.4302  0.0545
  478SOL    HW1 1433   1.147   2.386   2.782 -1.0009  1.5601  0.4998
  478SOL    HW2 1434   1.212   2.231   2.757 -1.1687  1.4285 -3.1258
  479SOL     OW 1435   2.739   0.997   1.864  0.3869 -0.8681 -0.5290
  479SOL    HW1 1436   2.734   1.096   1.842  0.2527 -0.6723  1.0462
  479SOL    HW2 1437   2.826   0.962   1.900 -3.2145  0.0274  0.1449
  480SOL     OW 1438   2.891   2.355   2.834 -0.3614  0.1828  0.2946
  480SOL    HW1 1439   2.991   2.373   2.808  2.3980  1.8938 -2.6329
  480SOL    HW2 1440   2.837   2.442   2.825  0.8364 -1.3429  2.9587
  481SOL     OW 1441   1.539   0.095   2.105 -0.2238  0.3759  0.0176
  481SOL    HW1 1442   1.615   0.087   2.171 -2.6883  0.4694 -0.1951
  481SOL    HW2 1443   1.497   0.186   2.106  2.7437  1.0654 -0.5822
  482SOL     OW 1444   1.594   2.194   2.859  0.0032 -0.6585 -0.6388
  482SOL    HW1 1445   1.664   2.257   2.897  2.0517 -0.1417  2.1710
  482SOL    HW2 1446   1.640   2.132   2.795 -0.5529  1.2623 -0.3437
  483SOL     OW 1447   1.042   2.521   2.785  0.4765  0.4698  0.4591
  483SOL    HW1 1448   0.955   2.471   2.763 -1.3809  1.0893  0.7850
  483SOL    HW2 1449   1.064   2.595   2.722 -2.2142  0.1215 -0.2491
  484SOL     OW 1450   3.032   2.668   1.392 -0.5857  0.2833  0.2366
  484SOL    HW1 1451   3.015   2.636   1.487 -0.5155 -0.4712  2.7625
  484SOL    HW2 1452   0.017   2.746   1.391 -0.4058  1.2961 -0.8409
  485SOL     OW 1453   2.324   0.707   0.436 -0.6478  0.5759  0.1098
  485SOL    HW1 1454   2.245   0.664   0.385 -0.9890 -1.9918 -1.1856
  485SOL    HW2 1455   2.304   0.805   0.446 -1.2146  1.1831  0.7432
  486SOL     OW 1456   2.252   2.732   2.251  0.0931 -0.3165 -0.7268
  486SOL    HW1 1457   2.312   2.815   2.256  1.4296  3.5103 -0.4276
  486SOL    HW2 1458   2.230   2.717   2.156  0.8161  3.2725  3.7850
  487SOL     OW 1459   1.290   0.799   0.665  0.1422 -0.0649 -0.0907
  487SOL    HW1 1460   1.350   0.741   0.608 -0.1873 -1.0428 -0.1425
  487SOL    HW2 1461   1.259   0.884   0.616 -0.1347  2.8192 -2.1568
  488SOL     OW 1462   2.566   2.918   2.486 -0.0506  0.0688  0.7737
  488SOL    HW1 1463   2.494   2.912   2.419  0.1868  0.4721  3.6941
  488SOL    HW2 1464   2.542   2.875   2.578  0.0068 -1.4327 -0.7565
  489SOL     OW 1465   1.632   2.918   0.305  0.4149 -0.2313 -0.5340
  489SOL    HW1 1466   1.623   2.825   0.266  2.6295  1.5235 -0.6126
  489SOL    HW2 1467   1.720   2.930   0.358 -0.6384  1.0787  2.0877
  490SOL     OW 1468   1.778   0.339   2.975 -0.0082  0.0869  0.3201
  490SOL    HW1 1469   1.769   0.335   3.076 -1.3808  1.5554 -0.5034
  490SOL    HW2 1470   1.761   0.431   2.948 -1.7708  0.0518 -0.1980
  491SOL     OW 1471   0.628   3.019   1.111  0.4231 -0.2614  0.1961
  491SOL    HW1 1472   0.560   3.071   1.160  2.0461 -2.0605 -0.9380
  491SOL    HW2 1473   0.670   0.004   1.039 -1.8392  1.9866 -1.7095
  492SOL     OW 1474   1.507   2.989   0.716  0.2707  0.1095 -0.0665
  492SOL    HW1 1475   1.602   2.955   0.736 -1.8732  0.6682 -0.6696
  492SOL    HW2 1476   1.467   2.937   0.638  0.8929  0.2137  0.8531
  493SOL     OW 1477   1.185   2.190   3.056 -0.2531  0.0042 -0.4727
  493SOL    HW1 1478   1.256   2.115   3.061  0.2282 -0.7632  0.0253
  493SOL    HW2 1479   1.206   2.233   2.968  0.9884 -0.7346  5.0638
  494SOL     OW 1480   0.769   1.008   0.856  0.3773 -0.6348 -0.3198
  494SOL    HW1 1481   0.784   1.108   0.840 -2.2567  0.4724 -0.4703
  494SOL    HW2 1482   0.852   0.963   0.893 -1.3977  0.5062  0.6078
  495SOL     OW 1483   2.732   0.549   1.454 -0.2338 -0.8077 -0.0176
  495SOL    HW1 1484   2.742   0.459   1.500 -0.1071 -0.0395  0.4214
  495SOL    HW2 1485   2.711   0.615   1.528  0.8134  0.2400 -2.0209
  496SOL     OW 1486   2.197   2.480   2.355 -0.3687  0.5107  0.4728
  496SOL    HW1 1487   2.227   2.570   2.323  1.1605 -0.4211  0.2509
  496SOL    HW2 1488   2.094   2.476   2.334 -3.1930  2.0494  3.3122
  497SOL     OW 1489   1.609   1.279   2.913 -0.0131  0.2822 -0.3116
  497SOL    HW1 1490   1.682   1.251   2.852 -0.4663 -2.2910  0.0751
  497SOL    HW2 1491   1.639   1.362   2.965  0.5926 -0.0158 -1.6934
  498SOL     OW 1492   0.869   2.059   0.922  1.0003  0.3517  0.2266
  498SOL    HW1 1493   0.966   2.032   0.933 -0.7667 -1.6139 -0.7038
  498SOL    HW2 1494   0.814   2.044   1.009 -2.2031 -1.0930 -2.4264
  499SOL     OW 1495   0.301   1.755   0.743  0.3132  0.0196 -0.2813
  499SOL    HW1 1496   0.295   1.849   0.717  0.7587  0.5950 -2.5928
  499SOL    HW2 1497   0.365   1.733   0.819 -0.7625 -0.1966 -1.2611
  500SOL     OW 1498   1.144   2.575   0.325 -1.0135 -0.0578  0.4611
  500SOL    HW1 1499   1.055   2.613   0.294  3.0057  0.2895  2.8900
  500SOL    HW2 1500   1.184   2.625   0.404  0.2156 -0.3551 -0.7350
  501SOL     OW 1501   1.790   2.724   0.714  0.2427 -0.5017 -0.1730
  501SOL    HW1 1502   1.733   2.670   0.772 -0.9712  0.5105  0.5417
  501SOL    HW2 1503   1.837   2.674   0.642 -2.4259  2.6785 -0.2684
  502SOL     OW 1504   0.149   0.433   0.995  0.0533  0.0667  0.3650
  502SOL    HW1 1505   0.123   0.366   1.065  1.5003 -0.7124  1.2261
  502SOL    HW2 1506   0.243   0.415   0.957  1.9835 -0.0161 -0.9650
  503SOL     OW 1507   2.025   0.102   1.687  0.7331 -0.2588  0.2950
  503SOL    HW1 1508   2.058   0.193   1.723  0.0349  0.7023  1.1056
  503SOL    HW2 1509   2.102   0.052   1.644 -0.1039  2.1640 -0.1990
  504SOL     OW 1510   1.897   1.075   1.934 -0.3223 -0.4277  0.2864
  504SOL    HW1 1511   1.956   1.007   1.892  1.4092 -1.3495  1.6801
  504SOL    HW2 1512   1.798   1.052   1.931 -2.2135  2.2436  1.9497
  505SOL     OW 1513   1.551   2.826   2.465 -0.5897 -0.1373  0.2232
  505SOL    HW1 1514   1.641   2.864   2.493 -2.3480  0.0183 -0.2085
  505SOL    HW2 1515   1.503   2.885   2.395 -1.5087 -1.1670 -2.4068
  506SOL     OW 1516   0.370   0.624   1.595 -0.2769  0.5127 -0.8057
  506SOL    HW1 1517   0.291   0.636   1.660  1.3899  0.7579  0.5045
  506SOL    HW2 1518   0.431   0.705   1.600  0.9181  1.5109 -0.5979
  507SOL     OW 1519   1.787   0.401   0.177  0.5044  0.3980  0.5819
  507SOL    HW1 1520   1.744   0.369   0.261  0.3564 -2.2444 -0.0068
  507SOL    HW2 1521   1.881   0.363   0.161 -2.4927  1.3924  1.1612
  508SOL     OW 1522   2.173   0.718   2.047 -0.0164  0.4185  0.4685
  508SOL    HW1 1523   2.177   0.765   2.137 -0.4420  1.2766  2.5664
  508SOL    HW2 1524   2.139   0.780   1.972  0.3356  0.9364  2.9231
  509SOL     OW 1525   0.744   1.771   2.499  0.1847  0.0581  0.0091
  509SOL    HW1 1526   0.666   1.839   2.505 -0.6708 -1.0499  0.7675
  509SOL    HW2 1527   0.803   1.794   2.415  1.2231  0.0028  1.3786
  510SOL     OW 1528   2.884   0.770   0.632 -0.0288  1.3045  0.1006
  510SOL    HW1 1529   2.942   0.717   0.563  1.4976 -2.4854 -3.1616
  510SOL    HW2 1530   2.934   0.779   0.724  0.8333 -1.6517  2.5566
  511SOL     OW 1531   1.830   1.356   1.438  0.0488  0.2685  0.7548
  511SOL    HW1 1532   1.800   1.396   1.527  2.7949  0.6206 -0.1290
  511SOL    HW2 1533   1.929   1.346   1.420 -3.3381 -0.7507 -2.3683
  512SOL     OW 1534   0.599   1.842   0.518  0.4624 -0.2162  0.2273
  512SOL    HW1 1535   0.563   1.922   0.477  0.8292 -1.1192 -1.7505
  512SOL    HW2 1536   0.680   1.866   0.573  0.7290  0.1543  0.6740
  513SOL     OW 1537   0.481   2.483   1.020 -0.1748 -0.1128 -0.3045
  513SOL    HW1 1538   0.448   2.570   1.057  1.8975 -1.0066 -0.5505
  513SOL    HW2 1539   0.568   2.457   1.063 -0.3847 -0.1236 -1.7508
  514SOL     OW 1540   0.548   2.230   0.714 -0.8612 -0.2207  0.2449
  514SOL    HW1 1541   0.548   2.147   0.773  3.0705 -0.4156  3.1805
  514SOL    HW2 1542   0.606   2.213   0.628 -1.2394  1.6832 -2.0826
  515SOL     OW 1543   0.103   0.026   0.037 -0.2910 -0.5348 -0.6865
  515SOL    HW1 1544   0.196   0.009   0.080  1.7408  2.0291  1.3142
  515SOL    HW2 1545   0.028   3.044   0.075 -3.3359 -1.3621 -0.0697
  516SOL     OW 1546   2.000   0.115   1.253 -0.3643 -0.0970  0.2133
  516SOL    HW1 1547   1.920   0.166   1.281  0.8638  1.9397 -2.1070
  516SOL    HW2 1548   1.982   0.018   1.240  1.0616  0.2978  0.4968
  517SOL     OW 1549   1.633   1.779   0.709 -0.3704  0.5497  0.5071
  517SOL    HW1 1550   1.548   1.836   0.694 -0.2878  2.2794 -0.9338
  517SOL    HW2 1551   1.715   1.831   0.748  0.0904  1.5448  0.1393
  518SOL     OW 1552   1.357   2.959   0.951 -0.1794 -0.3805 -0.1776
  518SOL    HW1 1553   1.258   2.944   0.948  1.2933  1.2310  1.4340
  518SOL    HW2 1554   1.404   2.973   0.862 -0.7222  2.7242 -0.0075
  519SOL     OW 1555   2.910   2.379   0.038  0.4217 -0.3028 -0.1668
  519SOL    HW1 1556   2.988   2.436   0.071  1.7923  0.2608  1.6727
  519SOL    HW2 1557   2.894   2.394   3.018  0.5155  2.2097 -0.8027
  520SOL     OW 1558   1.845   2.188   2.278 -0.5292 -0.0815  0.4273
  520SOL    HW1 1559   1.935   2.148   2.311 -0.1335  0.2937  0.8086
  520SOL    HW2 1560   1.825   2.156   2.182 -2.2300 -1.8036  1.7225
  521SOL     OW 1561   0.967   2.923   2.198  0.1631 -0.2070  0.4394
  521SOL    HW1 1562   0.886   2.956   2.149 -1.8788  0.7275  0.9198
  521SOL    HW2 1563   0.943   2.891   2.291 -1.3241  0.0872  0.7917
  522SOL     OW 1564   0.353   2.583   2.263 -0.2198  0.8236 -0.0850
  522SOL    HW1 1565   0.278   2.555   2.198 -2.0133  1.4233 -0.8699
  522SOL    HW2 1566   0.318   2.622   2.350  0.2892 -1.4706 -1.9962
  523SOL     OW 1567   1.102   2.147   1.787  0.7521 -0.0486 -0.5466
  523SOL    HW1 1568   1.017   2.173   1.837  0.2603 -1.0037 -0.9599
  523SOL    HW2 1569   1.184   2.144   1.847 -0.3000 -0.6398  0.5635
  524SOL     OW 1570   2.496   2.310   0.152  0.0803 -0.4514  1.3215
  524SOL    HW1 1571   2.501   2.211   0.131 -0.7652 -1.2382  0.0882
  524SOL    HW2 1572   2.501   2.325   0.252  2.0597  1.1400  0.2554
  525SOL     OW 1573   2.793   0.563   2.893  0.3060 -0.1309 -0.2569
  525SOL    HW1 1574   2.833   0.625   2.962 -0.0261 -2.5898 -1.6711
  525SOL    HW2 1575   2.864   0.499   2.860  0.0579 -0.7951 -1.3683
  526SOL     OW 1576   0.314   2.973   0.881 -0.2725 -0.7086 -0.5460
  526SOL    HW1 1577   0.264   2.949   0.796  1.7444  1.0843 -0.4977
  526SOL    HW2 1578   0.395   3.028   0.855 -1.7523  0.2241 -0.0081
  527SOL     OW 1579   2.983   1.234   0.499  0.2020  0.1925 -0.0880
  527SOL    HW1 1580   2.933   1.158   0.448 -2.0421  0.8182  0.6354
  527SOL    HW2 1581   2.925   1.286   0.568  1.1398 -1.6676  2.7249
  528SOL     OW 1582   0.739   0.765   2.285  0.3442  0.4014  0.4700
  528SOL    HW1 1583   0.726   0.688   2.352  0.0171 -0.6882  1.6570
  528SOL    HW2 1584   0.804   0.835   2.322  0.5320  1.0738  0.2841
  529SOL     OW 1585   0.761   1.469   0.164  0.2102  0.1203  0.5270
  529SOL    HW1 1586   0.761   1.542   0.240 -2.8721  0.4396  0.0087
  529SOL    HW2 1587   0.717   1.387   0.202 -1.5698  1.7430  0.5699
  530SOL     OW 1588   1.163   0.954   2.003  0.0652 -0.3810 -0.4207
  530SOL    HW1 1589   1.201   0.893   1.931 -2.1383 -2.6662  1.0951
  530SOL    HW2 1590   1.137   0.903   2.091 -1.5441 -0.5132  1.9135
  531SOL     OW 1591   0.952   2.294   0.069  0.1803 -0.3893  0.1026
  531SOL    HW1 1592   1.039   2.264   0.025  0.4151  3.2789 -2.5140
  531SOL    HW2 1593   0.964   2.315   0.167 -0.4598  1.4612 -3.4335
  532SOL     OW 1594   2.305   0.995   2.545 -0.0539 -0.0512  0.0630
  532SOL    HW1 1595   2.380   1.053   2.526  0.1565 -2.9650  0.9475
  532SOL    HW2 1596   2.258   1.017   2.635  0.6516 -2.4109  0.8743
  533SOL     OW 1597   2.996   0.199   1.938  0.1876  0.0111 -0.4042
  533SOL    HW1 1598   3.063   0.233   2.002 -0.0035 -1.1576  0.6783
  533SOL    HW2 1599   2.905   0.238   1.957 -0.5944 -0.7705  2.8905
  534SOL     OW 1600   2.271   0.057   0.339  0.3796  0.1687 -0.2861
  534SOL    HW1 1601   2.352   3.076   0.308  3.1075 -1.2800 -1.7249
  534SOL    HW2 1602   2.286   0.163   0.335 -0.3481 -1.7502 -1.0940
  535SOL     OW 1603   0.481   0.211   3.075  0.3280  0.2404 -0.3103
  535SOL    HW1 1604   0.463   0.304   0.035  1.5546  1.7939  1.5482
  535SOL    HW2 1605   0.394   0.181   3.026 -0.3420 -2.7468  1.1241
  536SOL     OW 1606   0.931   1.938   1.630  0.3121  0.0464 -0.0594
  536SOL    HW1 1607   1.030   1.925   1.648 -0.7144 -0.8457 -3.5172
  536SOL    HW2 1608   0.897   2.025   1.674 -0.1209  2.7267 -1.0409
  537SOL     OW 1609   2.970   2.571   1.640  0.2921 -0.2275 -0.1953
  537SOL    HW1 1610   2.883   2.609   1.675  2.5873  0.9061  2.2130
  537SOL    HW2 1611   2.987   2.482   1.666  0.1680  1.9474  0.9198
  538SOL     OW 1612   0.530   2.236   0.348  1.0195  0.3511  0.4305
  538SOL    HW1 1613   0.600   2.231   0.417 -1.0000  1.5627 -2.5733
  538SOL    HW2 1614   0.464   2.155   0.366  2.0296 -0.9435 -0.2673
  539SOL     OW 1615   2.208   1.145   2.295  0.0484 -0.6042  0.8215
  539SOL    HW1 1616   2.203   1.110   2.392 -0.1694 -1.1237  1.5091
  539SOL    HW2 1617   2.265   1.087   2.236 -0.2563 -1.4859  2.7247
  540SOL     OW 1618   1.831   0.841   2.983 -0.0175  0.3868 -0.3984
  540SOL    HW1 1619   1.929   0.863   2.978  0.3393 -2.2100 -2.4488
  540SOL    HW2 1620   1.776   0.927   2.979  2.3378 -0.6711  2.0462
  541SOL     OW 1621   0.644   0.585   2.509  0.0222  0.0327 -0.5011
  541SOL    HW1 1622   0.552   0.593   2.461 -0.2308 -0.2438 -0.5207
  541SOL    HW2 1623   0.632   0.636   2.597  0.0636 -0.2628  2.3002
  542SOL     OW 1624   1.404   2.587   1.953  0.0505 -0.1661 -0.5643
  542SOL    HW1 1625   1.322   2.536   1.981  0.8689  1.7858 -2.3140
  542SOL    HW2 1626   1.391   2.638   1.871 -0.5303  2.5282  0.5904
  543SOL     OW 1627   0.645   2.700   0.409 -0.3956 -0.5069  0.1136
  543SOL    HW1 1628   0.586   2.629   0.369 -1.6636  2.1250  1.9763
  543SOL    HW2 1629   0.591   2.744   0.486 -4.1399 -3.6324 -1.7363
  544SOL     OW 1630   2.760   1.878   2.366  0.4374  0.6905 -0.3525
  544SOL    HW1 1631   2.758   1.979   2.361  1.0902  0.8040 -0.2400
  544SOL    HW2 1632   2.822   1.849   2.294 -1.8034  1.5957  2.6527
  545SOL     OW 1633   1.336   1.607   1.940 -0.2273  0.0141  0.2980
  545SOL    HW1 1634   1.282   1.562   2.018  0.6868  2.1087  0.5134
  545SOL    HW2 1635   1.271   1.633   1.866  1.6491  0.3355  0.9574
  546SOL     OW 1636   0.247   0.276   2.457  0.3013 -0.3024  0.3743
  546SOL    HW1 1637   0.338   0.306   2.423  1.4885 -0.7649 -1.6195
  546SOL    HW2 1638   0.216   0.189   2.417 -0.4325  0.4239  0.2861
  547SOL     OW 1639   1.223   0.254   0.824  0.0585  0.3909  0.0061
  547SOL    HW1 1640   1.207   0.351   0.794  0.4194 -0.7964  0.7501
  547SOL    HW2 1641   1.307   0.219   0.773 -0.7281 -0.1707 -1.7226
  548SOL     OW 1642   1.449   2.031   3.014 -0.2448 -0.3677  0.0145
  548SOL    HW1 1643   1.497   2.010   0.023 -2.5028 -0.6900 -2.9197
  548SOL    HW2 1644   1.479   2.117   2.966 -1.1680  0.3939 -1.8152
  549SOL     OW 1645   2.342   0.978   0.032  0.1253 -0.0271 -0.5954
  549SOL    HW1 1646   2.262   1.032   0.062  1.8217 -1.3205 -2.8082
  549SOL    HW2 1647   2.428   1.029   0.044  0.8987  0.2936 -0.0219
  550SOL     OW 1648   2.545   2.096   0.794 -0.3790  0.2867 -0.0543
  550SOL    HW1 1649   2.543   2.198   0.807  0.2094 -4.3486 -0.9630
  550SOL    HW2 1650   2.495   2.046   0.867  0.0489 -0.0990  1.4983
  551SOL     OW 1651   0.712   0.515   1.318 -0.3624  0.7085 -0.9377
  551SOL    HW1 1652   0.794   0.517   1.258 -2.2272 -0.4890  0.7341
  551SOL    HW2 1653   0.741   0.544   1.412 -0.7737 -1.1154 -2.8553
  552SOL     OW 1654   3.049   1.574   2.918  0.8758  0.1618  0.7827
  552SOL    HW1 1655   0.036   1.556   2.835  1.4191 -0.9332 -0.3504
  552SOL    HW2 1656   0.015   1.640   2.980 -0.0018 -0.5767  2.7313
  553SOL     OW 1657   2.502   2.545   0.561 -0.1329  0.0708  0.2237
  553SOL    HW1 1658   2.520   2.584   0.653  1.6620  2.3036 -2.3768
  553SOL    HW2 1659   2.477   2.611   0.496  2.6406 -1.8798  1.8805
  554SOL     OW 1660   2.097   1.009   1.472  0.3291  0.3751 -0.3878
  554SOL    HW1 1661   2.180   1.003   1.409  2.8643  2.0464 -3.9777
  554SOL    HW2 1662   2.089   1.104   1.510  0.7211 -0.2624  1.0243
  555SOL     OW 1663   1.115   2.131   2.106 -0.4359 -0.2921 -0.2663
  555SOL    HW1 1664   1.194   2.141   2.040  0.0032  1.0873 -1.5373
  555SOL    HW2 1665   1.137   2.177   2.191 -2.9895 -0.1358 -1.2715
  556SOL     OW 1666   0.881   1.282   1.654  0.0896 -0.0089 -0.3746
  556SOL    HW1 1667   0.977   1.251   1.626  0.0010  1.3380 -1.1947
  556SOL    HW2 1668   0.886   1.385   1.666 -0.1887 -0.6684 -0.6508
  557SOL     OW 1669   1.368   0.118   1.697 -0.3902  0.0522  0.0724
  557SOL    HW1 1670   1.308   0.052   1.653 -0.1874  2.1606  2.8369
  557SOL    HW2 1671   1.430   0.072   1.765  0.3517  0.4759  1.9684
  558SOL     OW 1672   0.725   0.259   2.220 -0.3821  0.2684  0.7106
  558SOL    HW1 1673   0.786   0.232   2.299  0.4579 -1.3367  0.1753
  558SOL    HW2 1674   0.780   0.265   2.136 -0.1014  0.4525  2.3327
  559SOL     OW 1675   1.598   2.654   0.219  0.7036  0.1529 -0.4652
  559SOL    HW1 1676   1.504   2.621   0.189 -1.1103 -1.2110  2.2276
  559SOL    HW2 1677   1.651   2.583   0.271  1.5332 -0.1955  1.9978
  560SOL     OW 1678   1.514   2.236   0.256 -0.3432  0.4192 -0.6984
  560SOL    HW1 1679   1.554   2.145   0.226  1.4765 -0.5134  1.4793
  560SOL    HW2 1680   1.541   2.309   0.192 -0.8082 -1.9509  0.3039
  561SOL     OW 1681   1.419   0.182   0.678  0.2961  0.4768  0.1639
  561SOL    HW1 1682   1.490   0.110   0.699  1.3972  1.8368  0.0557
  561SOL    HW2 1683   1.452   0.243   0.603 -2.8970  1.3547 -0.2848
  562SOL     OW 1684   0.391   1.013   1.979 -0.2859 -0.2913  0.0203
  562SOL    HW1 1685   0.443   1.058   1.903  0.7887 -1.3497  0.6247
  562SOL    HW2 1686   0.448   0.935   2.009  0.3148  1.1510  2.1808
  563SOL     OW 1687   1.490   2.319   2.615  0.5250 -0.8427  0.2189
  563SOL    HW1 1688   1.400   2.288   2.571 -2.1514 -2.5419 -1.4096
  563SOL    HW2 1689   1.519   2.260   2.691 -0.3838  1.9420 -0.1909
  564SOL     OW 1690   2.828   0.624   0.989  0.2221  0.7499  0.2800
  564SOL    HW1 1691   2.871   0.586   1.076 -1.3042  0.0135  2.1948
  564SOL    HW2 1692   2.896   0.643   0.910  0.5708  1.1408 -3.3401
  565SOL     OW 1693   1.051   1.065   0.066  0.2429  0.2728  0.2659
  565SOL    HW1 1694   1.057   1.161   0.078  2.3249 -2.8081 -0.2245
  565SOL    HW2 1695   1.132   1.012   0.099 -1.3501 -0.6615 -0.1661
  566SOL     OW 1696   2.317   2.640   0.010  0.0357  0.1493  0.3077
  566SOL    HW1 1697   2.365   2.558   0.036  0.8335  1.3487 -1.5508
  566SOL    HW2 1698   2.384   2.716   0.021 -0.8719  0.5604  0.8256
  567SOL     OW 1699   1.454   1.004   1.396  0.2068 -0.2299 -0.2216
  567SOL    HW1 1700   1.403   1.085   1.426  0.4023 -1.3756 -0.6962
  567SOL    HW2 1701   1.555   1.030   1.383  3.0722  0.4652 -1.1160
  568SOL     OW 1702   1.401   1.192   2.728 -0.0604 -0.0920 -0.8821
  568SOL    HW1 1703   1.376   1.258   2.658 -0.6366 -1.0661  0.9699
  568SOL    HW2 1704   1.455   1.231   2.807  0.2623  1.2211  2.2183
  569SOL     OW 1705   2.035   1.760   0.728  0.2495 -0.1684 -0.1532
  569SOL    HW1 1706   2.110   1.821   0.696  1.4866  0.7719 -0.6344
  569SOL    HW2 1707   1.954   1.820   0.749 -1.9511  2.0062  1.5806
  570SOL     OW 1708   2.750   2.147   2.329 -0.1007 -0.1202 -0.1183
  570SOL    HW1 1709   2.731   2.147   2.230 -1.5293 -1.6777 -0.6203
  570SOL    HW2 1710   2.765   2.244   2.358  0.7181  3.1102 -2.7027
  571SOL     OW 1711   2.708   1.866   1.770 -0.1852  0.4349  0.3763
  571SOL    HW1 1712   2.689   1.818   1.685  3.0484  1.0560 -1.3159
  571SOL    HW2 1713   2.798   1.919   1.760 -3.7043 -0.2254 -0.7303
  572SOL     OW 1714   1.347   2.598   0.121  0.1123  0.1048  0.2860
  572SOL    HW1 1715   1.257   2.584   0.164  0.1162 -1.9964 -2.7799
  572SOL    HW2 1716   1.354   2.536   0.044  1.8933  3.5165  0.4356
  573SOL     OW 1717   1.822   1.784   1.292 -0.1558 -0.3086 -0.3493
  573SOL    HW1 1718   1.916   1.755   1.323  2.7590  0.5079 -1.1382
  573SOL    HW2 1719   1.759   1.701   1.278 -0.3741  0.3706 -2.6165
  574SOL     OW 1720   1.027   2.918   1.282  0.2373  0.3146 -0.0867
  574SOL    HW1 1721   1.007   3.010   1.306 -1.1164 -2.3049 -0.3043
  574SOL    HW2 1722   1.123   2.887   1.306  3.1121  1.8851 -1.2640
  575SOL     OW 1723   0.799   0.679   0.891 -0.1460 -0.2844  0.1653
  575SOL    HW1 1724   0.882   0.690   0.950  0.4505 -0.7201  1.1187
  575SOL    HW2 1725   0.722   0.723   0.943 -1.4458 -0.1251 -0.1599
  576SOL     OW 1726   2.569   0.446   1.280  0.0084  0.1216  0.1957
  576SOL    HW1 1727   2.573   0.491   1.188  0.2133  0.6762 -0.0826
  576SOL    HW2 1728   2.631   0.493   1.353  0.8140 -1.0998  1.6683
  577SOL     OW 1729   2.393   0.406   2.610 -0.1972  0.0802 -0.0070
  577SOL    HW1 1730   2.465   0.477   2.635  0.9890  0.4761 -0.2410
  577SOL    HW2 1731   2.323   0.437   2.546 -0.2039  1.0655  2.4876
  578SOL     OW 1732   1.900   1.754   2.123 -0.4903  0.8833 -0.2480
  578SOL    HW1 1733   1.890   1.651   2.101  2.0748 -0.5921  0.5018
  578SOL    HW2 1734   1.892   1.811   2.040 -0.5345  0.8100 -2.4975
  579SOL     OW 1735   0.924   1.592   1.092 -0.5225 -0.7825 -0.0407
  579SOL    HW1 1736   0.896   1.638   1.007 -1.3716  2.2077 -0.4922
  579SOL    HW2 1737   0.861   1.512   1.121 -2.5298 -1.4131 -0.5200
  580SOL     OW 1738   1.384   2.427   2.978  0.0772 -0.0505  0.2846
  580SOL    HW1 1739   1.335   2.378   2.903  0.0727 -0.6397  1.8952
  580SOL    HW2 1740   1.437   2.501   2.937  2.5977 -1.0288 -0.5682
  581SOL     OW 1741   0.729   0.711   1.936  0.2090 -0.4058  0.2386
  581SOL    HW1 1742   0.645   0.745   1.975  0.3187  0.8300 -1.5443
  581SOL    HW2 1743   0.743   0.611   1.964 -1.5710  0.4950  1.3641
  582SOL     OW 1744   0.480   0.783   0.646 -0.3820  0.4634  0.2367
  582SOL    HW1 1745   0.447   0.688   0.633 -0.8723  0.3153 -1.3260
  582SOL    HW2 1746   0.416   0.826   0.717 -2.3672  1.7636  0.8235
  583SOL     OW 1747   0.695   1.564   1.885  0.3940 -0.2734 -0.2184
  583SOL    HW1 1748   0.750   1.630   1.941 -0.5257 -3.2155 -2.4362
  583SOL    HW2 1749   0.663   1.482   1.940 -2.6959 -0.9317  1.7231
  584SOL     OW 1750   2.388   2.723   0.349 -0.3952  0.2658 -0.1614
  584SOL    HW1 1751   2.308   2.668   0.338  3.0778  1.3191  1.6774
  584SOL    HW2 1752   2.466   2.698   0.286 -1.3908 -0.5486  1.1433
  585SOL     OW 1753   2.082   0.488   3.009 -0.0792  0.0273 -0.2301
  585SOL    HW1 1754   2.010   0.544   2.961 -0.0194 -0.2236  0.1344
  585SOL    HW2 1755   2.128   0.553   3.073  0.3435 -1.3362  1.9568
  586SOL     OW 1756   0.422   1.582   0.218 -0.0217  0.3219 -0.3313
  586SOL    HW1 1757   0.389   1.610   0.310 -0.4731 -1.4484 -0.9334
  586SOL    HW2 1758   0.522   1.556   0.222 -1.0686 -2.4701 -1.2127
  587SOL     OW 1759   1.543   2.136   0.924 -0.2194 -0.5703 -0.0845
  587SOL    HW1 1760   1.623   2.106   0.974 -0.8180  0.4695 -3.1143
  587SOL    HW2 1761   1.486   2.191   0.992  0.4321  0.4607  3.6223
  588SOL     OW 1762   0.404   0.383   0.893 -0.0108  0.1705 -0.1665
  588SOL    HW1 1763   0.467   0.346   0.964 -0.1732  0.4626 -1.3636
  588SOL    HW2 1764   0.460   0.421   0.816 -0.0712 -0.4506 -0.6474
  589SOL     OW 1765   1.403   0.106   1.088  0.2432 -0.5451 -0.2092
  589SOL    HW1 1766   1.383   0.019   1.034  2.2997  2.0917  0.7392
  589SOL    HW2 1767   1.344   0.118   1.169  0.0018  1.0707 -3.7928
  590SOL     OW 1768   1.464   0.707   0.463 -0.2816 -0.6394  0.0485
  590SOL    HW1 1769   1.552   0.756   0.478  0.6162 -2.2557 -1.5091
  590SOL    HW2 1770   1.450   0.698   0.362 -1.6122  1.1309 -0.7270
  591SOL     OW 1771   2.202   2.311   1.807 -1.0370 -0.4234  0.1312
  591SOL    HW1 1772   2.214   2.276   1.907  0.1131 -1.2580  0.5976
  591SOL    HW2 1773   2.261   2.256   1.744 -0.0441  1.5953  0.8363
  592SOL     OW 1774   1.620   1.904   1.450  0.0040 -0.3525 -0.3520
  592SOL    HW1 1775   1.641   1.872   1.541 -1.0691 -0.2612  0.2380
  592SOL    HW2 1776   1.690   1.877   1.382 -0.5126  2.5395  1.1388
  593SOL     OW 1777   0.970   0.103   0.497 -0.5572  0.0158  0.5948
  593SOL    HW1 1778   0.942   0.138   0.586  2.7216 -1.2756  0.0289
  593SOL    HW2 1779   1.069   0.073   0.497 -1.7706  0.7830  0.9943
  594SOL     OW 1780   0.189   0.855   1.995  0.3810 -0.3889  0.4428
  594SOL    HW1 1781   0.203   0.775   1.928 -2.1963  0.0603 -2.3499
  594SOL    HW2 1782   0.262   0.928   1.984  1.5793  1.6856 -0.9566
  595SOL     OW 1783   2.603   2.883   0.915 -0.1957 -0.3124 -0.2560
  595SOL    HW1 1784   2.593   2.985   0.937  1.6050  3.5863  1.2482
  595SOL    HW2 1785   2.692   2.844   0.953  0.4734  0.7552  0.8056
  596SOL     OW 1786   0.010   0.313   1.438 -0.3763  0.0125  0.0917
  596SOL    HW1 1787   0.068   0.392   1.420  0.6775  0.3506 -1.4581
  596SOL    HW2 1788   3.032   0.326   1.519  2.3223 -1.6508 -4.9326
  597SOL     OW 1789   2.163   1.214   0.825 -0.1096 -0.4974 -0.6818
  597SOL    HW1 1790   2.212   1.265   0.751  2.6070  0.5002  0.1954
  597SOL    HW2 1791   2.064   1.209   0.814 -1.1034  0.1381 -1.8453
  598SOL     OW 1792   0.558   0.014   1.734 -0.0042 -0.1431 -0.1672
  598SOL    HW1 1793   0.550   2.999   1.686  1.4931 -1.8194 -0.1416
  598SOL    HW2 1794   0.483   0.023   1.804 -0.9863  0.1055  1.1771
  599SOL     OW 1795   2.704   1.689   0.026  0.4454 -0.3697  0.1800
  599SOL    HW1 1796   2.747   1.602   3.073  1.9183 -0.5923  0.3706
  599SOL    HW2 1797   2.622   1.713   3.045 -2.0127  2.9428 -2.7539
  600SOL     OW 1798   0.856   0.968   2.995  0.5158 -0.0473 -0.3619
  600SOL    HW1 1799   0.800   1.033   2.942 -0.9979 -0.7307 -0.9404
  600SOL    HW2 1800   0.936   1.012   3.042  1.5693  2.1975  1.2328
  601SOL     OW 1801   1.099   1.158   2.745 -0.1031  0.6356 -0.3488
  601SOL    HW1 1802   1.195   1.191   2.736 -0.7815  0.0262 -0.4593
  601SOL    HW2 1803   1.038   1.237   2.760 -1.2334 -1.2595 -0.1177
  602SOL     OW 1804   1.294   2.884   1.404  0.1766 -0.0937  0.5357
  602SOL    HW1 1805   1.359   2.814   1.445 -0.6280 -0.9399  1.0022
  602SOL    HW2 1806   1.335   2.934   1.324 -0.6198 -1.3253 -3.7612
  603SOL     OW 1807   0.922   2.842   2.458  0.2389 -0.5166  0.5796
  603SOL    HW1 1808   0.833   2.855   2.508 -0.9922  1.2767 -1.4496
  603SOL    HW2 1809   0.986   2.783   2.514 -2.1296 -2.5304 -1.3506
  604SOL     OW 1810   2.720   0.041   2.134  0.5059 -0.2682 -0.2880
  604SOL    HW1 1811   2.744   0.132   2.098  0.3201 -0.7922  2.4854
  604SOL    HW2 1812   2.780   0.006   2.208 -0.3554 -2.3673 -1.1188
  605SOL     OW 1813   2.275   2.469   1.437  0.4864 -0.2310 -0.0576
  605SOL    HW1 1814   2.227   2.481   1.528  1.3538 -1.3215  4.2436
  605SOL    HW2 1815   2.236   2.531   1.364 -0.3100  1.2619 -3.6758
  606SOL     OW 1816   0.085   1.778   3.066 -0.1765  0.5532 -0.5116
  606SOL    HW1 1817   0.160   1.809   3.008 -0.5336 -1.1544  1.6311
  606SOL    HW2 1818   0.076   1.823   0.081  1.3660 -0.6455 -2.8127
  607SOL     OW 1819   1.128   0.495   0.442 -0.1965  0.2732 -0.1786
  607SOL    HW1 1820   1.131   0.397   0.417 -0.6482 -2.3759  2.4148
  607SOL    HW2 1821   1.038   0.544   0.431 -1.5800  0.4504  0.5319
  608SOL     OW 1822   1.532   1.319   2.402 -0.2499 -0.6077 -0.3283
  608SOL    HW1 1823   1.499   1.234   2.360  1.0829  0.9168  3.2168
  608SOL    HW2 1824   1.467   1.364   2.461  3.2276  1.4466 -1.7012
  609SOL     OW 1825   2.744   0.432   0.699  0.1122 -0.0742 -0.0263
  609SOL    HW1 1826   2.762   0.522   0.750 -0.2966  2.6406 -0.1781
  609SOL    HW2 1827   2.654   0.431   0.651 -0.4806  0.0843  2.6731
  610SOL     OW 1828   0.615   2.516   2.887 -0.4605 -0.0494  0.8075
  610SOL    HW1 1829   0.661   2.591   2.929  2.6283 -3.2455  1.5785
  610SOL    HW2 1830   0.678   2.438   2.884  0.5974  1.3636  0.3450
  611SOL     OW 1831   1.809   1.416   0.610  0.4034  0.1027  0.0764
  611SOL    HW1 1832   1.851   1.492   0.562 -1.1283 -1.0261 -1.1389
  611SOL    HW2 1833   1.732   1.456   0.664 -1.9821 -3.8878 -2.4085
  612SOL     OW 1834   0.895   2.452   2.529  0.2828  0.3096  0.2266
  612SOL    HW1 1835   0.954   2.495   2.461 -2.2043 -1.5107 -1.0564
  612SOL    HW2 1836   0.808   2.507   2.536  2.4097 -1.9292 -0.6553
  613SOL     OW 1837   1.335   1.650   3.044 -0.4283  0.6850  0.0057
  613SOL    HW1 1838   1.362   1.656   0.067  1.3140 -0.5533  5.0097
  613SOL    HW2 1839   1.412   1.681   2.984 -0.4186 -1.8864  0.6871
  614SOL     OW 1840   2.765   2.399   1.865 -0.1522 -0.1412  0.0279
  614SOL    HW1 1841   2.793   2.412   1.964  0.2252  1.8126  1.5352
  614SOL    HW2 1842   2.830   2.342   1.811 -2.0342 -3.0284  1.3146
  615SOL     OW 1843   2.170   1.437   3.044  0.1737 -1.3545 -0.1587
  615SOL    HW1 1844   2.126   1.518   0.017 -0.8452  1.5904  0.9749
  615SOL    HW2 1845   2.272   1.452   3.033  1.3699 -0.7272 -0.2419
  616SOL     OW 1846   1.662   0.134   1.078  0.6395  0.4158  0.1124
  616SOL    HW1 1847   1.700   0.179   1.157 -0.7885  1.0151 -0.9810
  616SOL    HW2 1848   1.559   0.134   1.080 -0.1574 -0.9345 -0.8972
  617SOL     OW 1849   0.672   1.102   2.816 -0.4048  0.1274  0.3427
  617SOL    HW1 1850   0.688   1.077   2.717  2.2682 -0.4869 -0.8949
  617SOL    HW2 1851   0.656   1.205   2.828  1.5027  1.8947  1.2408
  618SOL     OW 1852   0.523   0.857   1.598  0.1082 -0.3939  0.0593
  618SOL    HW1 1853   0.457   0.864   1.519  0.4516 -1.5453 -2.3424
  618SOL    HW2 1854   0.581   0.939   1.614  1.0934  1.7441 -0.9803
  619SOL     OW 1855   0.100   0.841   1.467 -0.3790  0.2627 -0.0244
  619SOL    HW1 1856   0.193   0.850   1.426  1.1709  1.0011  2.1125
  619SOL    HW2 1857   0.039   0.856   1.388  0.7472 -0.5058 -0.7411
  620SOL     OW 1858   1.857   1.244   0.170  0.5126 -0.4490  0.1441
  620SOL    HW1 1859   1.784   1.176   0.184  2.3658 -0.6536 -1.2480
  620SOL    HW2 1860   1.817   1.326   0.119 -2.8450 -0.6717 -2.1945
  621SOL     OW 1861   2.557   3.038   1.196 -0.4092  0.2231  0.0544
  621SOL    HW1 1862   2.525   3.067   1.100 -0.3978  0.9881 -1.4412
  621SOL    HW2 1863   2.574   0.047   1.245  1.4621  0.8329 -0.6406
  622SOL     OW 1864   1.396   0.709   2.026  0.2717  0.0431 -0.1369
  622SOL    HW1 1865   1.497   0.717   2.017 -2.8277  2.4347 -0.4392
  622SOL    HW2 1866   1.368   0.682   2.119  0.7044  1.7629 -0.7667
  623SOL     OW 1867   0.979   0.490   2.710  0.1403  0.1950  0.3710
  623SOL    HW1 1868   0.924   0.452   2.628  0.2970  1.0829 -0.7750
  623SOL    HW2 1869   0.959   0.585   2.731 -0.1845 -1.7729  0.6453
  624SOL     OW 1870   1.628   0.271   0.415  0.5154 -0.2192 -0.5063
  624SOL    HW1 1871   1.548   0.333   0.428 -0.3853  0.7027 -1.1324
  624SOL    HW2 1872   1.690   0.271   0.496  2.1922  0.5363 -2.3819
  625SOL     OW 1873   1.049   1.283   0.658  0.0041 -0.3433 -0.1985
  625SOL    HW1 1874   1.085   1.377   0.665 -3.0750 -4.5891  0.8320
  625SOL    HW2 1875   0.998   1.269   0.574  2.7972  2.1525  3.1542
  626SOL     OW 1876   1.518   1.030   3.020 -0.3845 -0.4307 -0.0037
  626SOL    HW1 1877   1.443   1.009   2.965  1.9229  0.7619 -4.2570
  626SOL    HW2 1878   1.553   1.122   2.989 -0.8905  0.5693 -0.7585
  627SOL     OW 1879   0.830   0.054   1.831  0.0526 -0.1769  0.5155
  627SOL    HW1 1880   0.869   3.052   1.775  1.5792 -0.2400  0.7980
  627SOL    HW2 1881   0.741   0.077   1.796  3.4135  3.4431  1.4604
  628SOL     OW 1882   2.457   0.488   2.249 -0.3402 -0.0728  0.3465
  628SOL    HW1 1883   2.434   0.502   2.151  0.5093  0.9120 -3.8134
  628SOL    HW2 1884   2.375   0.476   2.310 -0.7437 -0.8155  0.4964
  629SOL     OW 1885   0.806   1.340   2.980 -0.4870  0.0529  0.6544
  629SOL    HW1 1886   0.877   1.332   3.054  2.4288 -0.5539 -0.7232
  629SOL    HW2 1887   0.713   1.346   3.013 -0.1598 -1.6245  0.6028
  630SOL     OW 1888   1.117   0.186   2.286  0.2868 -0.0491 -0.2480
  630SOL    HW1 1889   1.085   0.278   2.321 -0.6491 -0.0949 -0.7572
  630SOL    HW2 1890   1.088   0.117   2.352  2.3194  1.0900  0.0939
  631SOL     OW 1891   2.703   1.187   0.835  0.4391 -0.2454  0.2828
  631SOL    HW1 1892   2.787   1.240   0.836 -0.1820  1.2365  0.1303
  631SOL    HW2 1893   2.709   1.097   0.880  1.5754 -1.8883  0.9644
  632SOL     OW 1894   2.606   1.414   0.730  0.0289 -0.9234 -0.4765
  632SOL    HW1 1895   2.619   1.322   0.773  0.4470  1.0813  1.1376
  632SOL    HW2 1896   2.651   1.487   0.792  0.6376  0.6995 -0.7073
  633SOL     OW 1897   1.402   0.991   1.103 -0.1425  0.0175 -0.2288
  633SOL    HW1 1898   1.460   1.073   1.083  2.3857  1.0595 -1.5416
  633SOL    HW2 1899   1.381   0.980   1.201 -2.6806  1.4971  0.5303
  634SOL     OW 1900   1.753   3.029   0.881  0.5568  0.2912 -0.4959
  634SOL    HW1 1901   1.752   0.020   0.957  1.1450  0.4219 -1.2857
  634SOL    HW2 1902   1.776   2.941   0.929  1.4839  1.9798  0.5139
  635SOL     OW 1903   1.757   0.509   1.315  0.2132  0.1801 -0.0941
  635SOL    HW1 1904   1.823   0.582   1.281  1.1530  2.2590  0.0957
  635SOL    HW2 1905   1.776   0.474   1.407  0.7484 -0.6512 -1.9662
  636SOL     OW 1906   1.173   1.023   0.555  0.6421 -0.2717 -0.3734
  636SOL    HW1 1907   1.197   1.092   0.483  0.8202  1.5359  1.2608
  636SOL    HW2 1908   1.067   1.012   0.550 -0.4357 -1.8014  0.8637
  637SOL     OW 1909   1.597   2.392   0.052 -0.3490  0.1135 -0.0034
  637SOL    HW1 1910   1.506   2.412   0.009  1.4221  2.0189 -0.2884
  637SOL    HW2 1911   1.664   2.389   3.054  0.1000 -1.3005  0.0241
  638SOL     OW 1912   1.094   2.859   3.062  0.2693 -0.4579 -0.1193
  638SOL    HW1 1913   1.060   2.785   0.042  0.1754  2.4893 -2.8516
  638SOL    HW2 1914   1.018   2.901   3.002 -0.8191 -0.9084 -0.9798
  639SOL     OW 1915   1.017   2.061   1.340 -0.5182 -0.4184 -0.2832
  639SOL    HW1 1916   1.028   1.976   1.282 -1.0331  0.3701 -2.1028
  639SOL    HW2 1917   0.917   2.071   1.358 -1.2213  1.9202 -1.8565
  640SOL     OW 1918   0.309   3.019   0.189 -0.0854  0.1118  0.6970
  640SOL    HW1 1919   0.318   2.925   0.149 -0.1491 -1.8812 -2.4918
  640SOL    HW2 1920   0.401   3.060   0.213 -0.1955  1.5003 -2.7262
  641SOL     OW 1921   0.221   0.288   0.165 -0.4524  0.1907  0.6393
  641SOL    HW1 1922   0.248   0.229   0.243  2.7453 -0.3113  0.9162
  641SOL    HW2 1923   0.295   0.355   0.148  0.3204  0.1183  0.9096
  642SOL     OW 1924   0.409   1.401   0.981  0.3049  0.2521 -0.1204
  642SOL    HW1 1925   0.447   1.490   0.963  0.3364 -3.6252 -2.0734
  642SOL    HW2 1926   0.309   1.404   0.967  2.3170  0.4857 -0.1796
  643SOL     OW 1927   0.907   1.857   2.310 -0.5626  0.3499 -0.0130
  643SOL    HW1 1928   1.005   1.858   2.336  4.6032  1.5833 -0.0031
  643SOL    HW2 1929   0.891   1.924   2.235  4.3635  1.0216  0.5876
  644SOL     OW 1930   1.709   2.480   0.438  0.7080  0.1338  0.1968
  644SOL    HW1 1931   1.748   2.389   0.417 -1.3068 -1.6230  0.0143
  644SOL    HW2 1932   1.617   2.478   0.474  3.1546 -1.0682  0.7464
  645SOL     OW 1933   1.821   2.272   1.606 -0.1525 -0.0339  0.0938
  645SOL    HW1 1934   1.757   2.221   1.671 -0.7256  0.2666 -0.8095
  645SOL    HW2 1935   1.800   2.371   1.593  1.8337  1.1499  1.4877
  646SOL     OW 1936   0.920   2.687   0.277  0.0444  0.5177 -0.1267
  646SOL    HW1 1937   0.941   2.783   0.298  0.4718  1.4998 -2.2464
  646SOL    HW2 1938   0.828   2.661   0.311 -0.9279 -1.8385  0.1599
  647SOL     OW 1939   0.349   0.041   1.912  0.0082  0.1350 -0.4785
  647SOL    HW1 1940   0.247   0.033   1.905 -2.3614  2.9563  0.4379
  647SOL    HW2 1941   0.378   0.114   1.976 -1.1073  0.5704 -0.5704
  648SOL     OW 1942   2.605   1.065   0.610  0.2487 -0.1923  0.1901
  648SOL    HW1 1943   2.569   0.979   0.649  0.2478  0.6641  1.1606
  648SOL    HW2 1944   2.635   1.125   0.684 -1.0742  0.6973  1.9248
  649SOL     OW 1945   1.851   2.479   2.679 -0.9560 -0.1402 -0.3932
  649SOL    HW1 1946   1.826   2.417   2.605  1.4491  0.3887  1.3062
  649SOL    HW2 1947   1.823   2.575   2.657  0.4980 -0.2535 -2.2062
  650SOL     OW 1948   2.277   1.197   1.871 -0.0653 -0.7314  0.0911
  650SOL    HW1 1949   2.278   1.261   1.952  4.0311  0.4823 -0.8674
  650SOL    HW2 1950   2.266   1.100   1.902 -2.5661 -0.5890  1.5723
  651SOL     OW 1951   1.472   1.552   2.721 -0.0481 -0.5444  0.1862
  651SOL    HW1 1952   1.572   1.544   2.746  1.7292 -0.8479  1.3005
  651SOL    HW2 1953   1.430   1.628   2.773 -2.9398  0.5631  2.2119
  652SOL     OW 1954   0.665   3.010   2.582 -0.0506 -0.0142 -0.2403
  652SOL    HW1 1955   0.690   2.945   2.654 -1.8577 -1.3716  1.1508
  652SOL    HW2 1956   0.577   3.061   2.591 -0.2903 -1.4414 -3.6188
  653SOL     OW 1957   2.240   2.116   0.994  0.1372  0.2475 -0.5098
  653SOL    HW1 1958   2.329   2.063   1.001  0.8332 -0.1698  2.2139
  653SOL    HW2 1959   2.192   2.115   1.084 -2.3956  2.5342  2.9028
  654SOL     OW 1960   2.584   2.814   2.126  0.1064 -0.0143 -0.9463
  654SOL    HW1 1961   2.516   2.881   2.160 -0.9031 -0.5399 -1.0217
  654SOL    HW2 1962   2.620   2.839   2.035  2.6431 -0.8483 -0.6350
  655SOL     OW 1963   2.584   2.144   1.424  0.3075  0.8851 -0.3691
  655SOL    HW1 1964   2.627   2.096   1.348  1.0091  3.0846  1.1082
  655SOL    HW2 1965   2.627   2.235   1.431  1.6104  1.0763  0.5956
  656SOL     OW 1966   3.027   1.971   2.955 -0.5142  0.0928  0.2008
  656SOL    HW1 1967   3.076   1.892   2.997  2.4451  0.5231  2.9311
  656SOL    HW2 1968   3.062   1.987   2.857  0.7978  1.1873  0.2062
  657SOL     OW 1969   0.260   1.037   0.384  0.1309  0.8363 -0.2475
  657SOL    HW1 1970   0.290   1.095   0.307 -1.8154 -0.5524 -1.4768
  657SOL    HW2 1971   0.289   0.940   0.369 -0.2180 -1.7816  0.3016
  658SOL     OW 1972   1.422   1.452   1.284  0.1866 -0.0014 -0.1697
  658SOL    HW1 1973   1.519   1.491   1.287  2.7545  1.0742  2.6726
  658SOL    HW2 1974   1.349   1.497   1.345 -2.8040 -0.2370  0.0707
  659SOL     OW 1975   0.951   0.234   1.108 -0.5699 -0.2580 -0.0888
  659SOL    HW1 1976   1.004   0.193   1.034  1.1786  0.7510 -0.2025
  659SOL    HW2 1977   0.882   0.168   1.139  0.0190 -1.0603  0.9831
  660SOL     OW 1978   2.304   1.194   1.055  0.4143  1.0545  0.1380
  660SOL    HW1 1979   2.261   1.208   0.965 -2.7807 -0.3659  0.4699
  660SOL    HW2 1980   2.312   1.096   1.090  0.0700  2.8359 -2.7230
  661SOL     OW 1981   0.310   1.481   3.068 -0.9238 -0.0540  0.9233
  661SOL    HW1 1982   0.342   1.511   0.079  0.2497 -1.7483 -0.5074
  661SOL    HW2 1983   0.217   1.454   3.071  3.6487 -1.0011  0.5356
  662SOL     OW 1984   2.598   0.820   2.053 -0.7051  0.4901  0.5455
  662SOL    HW1 1985   2.652   0.810   2.143  1.8427  1.0423  1.1795
  662SOL    HW2 1986   2.624   0.902   2.003 -1.0688 -2.6211  1.0235
  663SOL     OW 1987   2.271   1.526   1.374  0.0793 -0.4720  0.7898
  663SOL    HW1 1988   2.312   1.596   1.303  3.5152  1.5537 -1.3631
  663SOL    HW2 1989   2.354   1.486   1.416 -0.3059  0.6023 -1.4934
  664SOL     OW 1990   0.427   0.025   1.286  1.1220  0.6542 -0.6872
  664SOL    HW1 1991   0.390   3.006   1.279  1.1036  0.2943  0.3162
  664SOL    HW2 1992   0.353   0.087   1.285  1.8061 -0.2221  2.2963
  665SOL     OW 1993   1.617   0.126   2.840  0.2539 -0.5455 -0.0468
  665SOL    HW1 1994   1.677   0.203   2.868 -1.6464 -2.2899 -2.0946
  665SOL    HW2 1995   1.590   0.061   2.912 -2.3671  1.5339 -2.3921
  666SOL     OW 1996   0.294   0.189   1.689  0.8735 -0.7935 -0.5277
  666SOL    HW1 1997   0.368   0.243   1.647 -2.9450 -0.4041 -0.4543
  666SOL    HW2 1998   0.329   0.118   1.747 -3.1520  3.0454 -1.1584
  667SOL     OW 1999   1.750   1.395   1.935  0.2614 -0.1257  0.1176
  667SOL    HW1 2000   1.755   1.454   1.853 -0.3434 -1.4517  0.8259
  667SOL    HW2 2001   1.818   1.418   2.011 -0.7809  1.6897 -0.8166
  668SOL     OW 2002   0.126   1.536   2.442  0.1888 -0.5990 -0.3266
  668SOL    HW1 2003   0.196   1.491   2.384  0.9815  0.9790 -0.7168
  668SOL    HW2 2004   0.042   1.485   2.442  0.3234 -0.2529 -1.1215
  669SOL     OW 2005   2.597   2.996   2.929 -0.4035 -0.4846  0.3289
  669SOL    HW1 2006   2.559   0.013   2.905  1.1971  1.0115 -2.0450
  669SOL    HW2 2007   2.636   2.999   3.025  2.9738  1.1455 -2.0416
  670SOL     OW 2008   2.506   1.122   2.391  0.4198  0.5584  0.6115
  670SOL    HW1 2009   2.591   1.070   2.402 -1.9976 -0.0360  0.2408
  670SOL    HW2 2010   2.512   1.218   2.426 -2.2441 -3.4624 -1.1178
  671SOL     OW 2011   2.468   1.914   0.339  0.2340  0.5039 -0.2783
  671SOL    HW1 2012   2.520   1.828   0.319 -2.2828 -1.0353  1.2349
  671SOL    HW2 2013   2.520   1.975   0.404  2.8850 -0.5036 -0.0945
  672SOL     OW 2014   1.304   1.181   2.082  0.1038 -0.1089 -0.4333
  672SOL    HW1 2015   1.371   1.218   2.014  3.4122 -1.2929  3.4162
  672SOL    HW2 2016   1.240   1.108   2.051  1.2045 -0.7403  2.0132
  673SOL     OW 2017   2.932   1.897   1.415  0.9068 -0.2263 -0.2936
  673SOL    HW1 2018   2.986   1.860   1.335 -0.2602  3.4314 -2.5381
  673SOL    HW2 2019   2.982   1.871   1.499 -0.6480 -1.3803 -1.6456
  674SOL     OW 2020   1.154   1.633   1.720  0.1747 -0.5916  0.1967
  674SOL    HW1 2021   1.053   1.607   1.728 -3.4666  3.1672 -1.6161
  674SOL    HW2 2022   1.164   1.734   1.701  1.4946  0.0801  1.6268
  675SOL     OW 2023   3.052   0.727   0.849 -0.2919 -0.3935 -0.2580
  675SOL    HW1 2024   0.044   0.790   0.886  1.7484  1.7300  0.4851
  675SOL    HW2 2025   0.012   0.644   0.807  0.6662  0.0436 -0.2058
  676SOL     OW 2026   0.016   1.202   0.810  0.1079  0.0584 -0.1561
  676SOL    HW1 2027   0.088   1.174   0.743  1.0195 -1.4064 -1.4131
  676SOL    HW2 2028   3.047   1.116   0.840 -1.1826  2.6888 -0.3974
  677SOL     OW 2029   1.756   1.816   2.349  0.3438  0.2312 -0.5857
  677SOL    HW1 2030   1.813   1.808   2.265 -0.8278  1.3789 -2.0134
  677SOL    HW2 2031   1.712   1.728   2.382 -0.8309  1.5289  0.6794
  678SOL     OW 2032   2.773   1.585   0.929 -0.2349 -0.1232 -0.5026
  678SOL    HW1 2033   2.778   1.617   0.831 -1.2164  3.2303 -3.1114
  678SOL    HW2 2034   2.745   1.666   0.984 -0.5526 -0.3404 -1.8364
  679SOL     OW 2035   0.537   2.774   0.674 -0.7800 -0.1447 -0.2268
  679SOL    HW1 2036   0.498   2.681   0.683  0.9152 -0.0197 -0.5272
  679SOL    HW2 2037   0.588   2.796   0.763  1.4397  0.2578  0.8543
  680SOL     OW 2038   0.016   1.804   1.223 -0.5260  0.1270 -0.6204
  680SOL    HW1 2039   0.015   1.854   1.135  1.8782 -0.7448 -2.7474
  680SOL    HW2 2040   0.035   1.704   1.219 -0.0738  2.1181  1.6630
  681SOL     OW 2041   1.127   0.475   1.081  0.5134  0.0365  0.4652
  681SOL    HW1 2042   1.058   0.405   1.071  1.1511  0.7963  2.1435
  681SOL    HW2 2043   1.214   0.446   1.045 -3.0131  0.1316  0.0535
  682SOL     OW 2044   1.514   2.719   1.462  0.1189 -0.7388 -0.0145
  682SOL    HW1 2045   1.520   2.699   1.563 -1.7056 -0.8649  1.0265
  682SOL    HW2 2046   1.604   2.745   1.426 -0.4966  1.7856  1.3362
  683SOL     OW 2047   2.460   1.411   1.502 -0.0855  0.3066  0.0306
  683SOL    HW1 2048   2.448   1.342   1.578 -2.9641 -1.2390  1.5709
  683SOL    HW2 2049   2.552   1.409   1.455 -1.7163  1.3554 -0.3817
  684SOL     OW 2050   2.969   1.626   1.755 -0.1720  0.4076  0.6938
  684SOL    HW1 2051   2.905   1.553   1.724  1.8968  1.6355  0.3409
  684SOL    HW2 2052   3.067   1.605   1.745  0.8768  2.3125 -0.7165
  685SOL     OW 2053   2.029   1.788   0.297 -0.0104 -0.3859  0.2148
  685SOL    HW1 2054   2.089   1.855   0.345 -0.6381 -0.2397  2.1855
  685SOL    HW2 2055   2.078   1.742   0.223  0.1121 -1.0939  1.6773
  686SOL     OW 2056   0.123   0.662   1.174  0.0216  0.3608  0.5137
  686SOL    HW1 2057   0.159   0.754   1.154 -0.5591  1.2375 -3.6383
  686SOL    HW2 2058   0.105   0.606   1.090  2.0497 -0.6898 -0.3551
  687SOL     OW 2059   1.839   0.070   2.629  0.4199 -0.2356 -0.6004
  687SOL    HW1 2060   1.882   0.127   2.698 -2.4899 -1.3990 -1.8898
  687SOL    HW2 2061   1.751   0.113   2.601 -0.9483  1.1193  1.3583
  688SOL     OW 2062   1.247   2.176   2.502 -0.6162 -0.1520 -0.1007
  688SOL    HW1 2063   1.298   2.094   2.481  0.9016  1.9674  0.7828
  688SOL    HW2 2064   1.153   2.159   2.531  1.9515  1.9903  0.0866
  689SOL     OW 2065   2.041   1.263   1.761  0.2178 -0.6918 -0.2776
  689SOL    HW1 2066   2.130   1.230   1.799  0.1384 -2.2038 -0.3969
  689SOL    HW2 2067   1.969   1.245   1.832  0.1286  1.0608  3.1449
  690SOL     OW 2068   1.959   2.095   1.435  0.0586 -0.1358 -0.7423
  690SOL    HW1 2069   1.896   2.160   1.484  0.5925  0.0522 -1.4421
  690SOL    HW2 2070   2.031   2.051   1.489 -2.7731  0.0116 -1.2385
  691SOL     OW 2071   0.395   1.647   0.490 -0.4998 -0.4929  0.5602
  691SOL    HW1 2072   0.468   1.709   0.526 -1.4716  0.1477 -2.7479
  691SOL    HW2 2073   0.385   1.562   0.546  1.7437  0.3614 -1.6664
  692SOL     OW 2074   2.865   2.919   2.521  0.2737 -0.1679  0.0064
  692SOL    HW1 2075   2.767   2.902   2.492  2.5539 -0.6173 -2.3348
  692SOL    HW2 2076   2.902   2.837   2.565  0.7116  0.3568 -0.7491
  693SOL     OW 2077   2.899   1.391   2.361 -0.1172 -0.1230 -0.2255
  693SOL    HW1 2078   2.875   1.472   2.415 -2.6904  0.6690  0.2699
  693SOL    HW2 2079   2.942   1.420   2.274 -0.2829  2.4472  1.8055
  694SOL     OW 2080   2.216   0.106   1.946  0.2560 -0.5678 -0.2675
  694SOL    HW1 2081   2.201   0.197   1.907 -0.4239  2.0881 -1.3207
  694SOL    HW2 2082   2.181   0.099   2.042  2.1289 -2.4351  0.2450
  695SOL     OW 2083   0.948   0.627   2.171 -0.3817 -0.3081  0.2756
  695SOL    HW1 2084   0.860   0.680   2.161  0.5028 -1.5066 -0.3769
  695SOL    HW2 2085   1.031   0.690   2.191  1.6414  1.3972 -1.1564
  696SOL     OW 2086   1.798   3.052   1.603  0.3228  0.3436 -0.9607
  696SOL    HW1 2087   1.876   0.037   1.621 -0.0956 -2.4441  0.3048
  696SOL    HW2 2088   1.795   2.982   1.679  2.3307 -1.3437  2.1163
  697SOL     OW 2089   1.453   0.350   2.076 -0.1982  0.2139 -0.3345
  697SOL    HW1 2090   1.507   0.354   2.166 -1.8482 -0.4192  1.6709
  697SOL    HW2 2091   1.478   0.425   2.011  0.1572  2.5029 -1.1642
  698SOL     OW 2092   2.136   1.607   2.506 -0.2340 -0.0294  0.2219
  698SOL    HW1 2093   2.185   1.664   2.580 -0.4082 -0.1779  2.7813
  698SOL    HW2 2094   2.134   1.668   2.423  1.0672 -0.5493  0.4486
  699SOL     OW 2095   2.215   0.672   0.104  0.2394 -0.0667  0.1444
  699SOL    HW1 2096   2.156   0.684   0.189  3.2173  1.5298 -1.3215
  699SOL    HW2 2097   2.236   0.767   0.068 -0.3861 -0.9401  0.6036
  700SOL     OW 2098   1.242   0.051   0.519  0.6765 -0.2019  0.6693
  700SOL    HW1 2099   1.302   0.093   0.588  1.2445  0.5707 -0.2943
  700SOL    HW2 2100   1.277   3.032   0.503 -0.6146 -0.9256 -1.8629
  701SOL     OW 2101   0.117   0.934   0.653  0.6351 -0.5300  0.1024
  701SOL    HW1 2102   0.118   0.861   0.580 -2.0460 -0.3456  1.5279
  701SOL    HW2 2103   0.081   1.019   0.618 -2.4379 -0.2896  1.2951
  702SOL     OW 2104   1.738   0.197   1.874  0.4062  0.0530 -0.1802
  702SOL    HW1 2105   1.835   0.175   1.867 -0.4034 -1.7713 -0.4129
  702SOL    HW2 2106   1.683   0.118   1.838  2.4160 -0.7763  0.5019
  703SOL     OW 2107   2.997   0.984   0.969  0.3893  0.1709  0.2046
  703SOL    HW1 2108   2.902   0.943   0.967  1.5782  2.3891 -1.3485
  703SOL    HW2 2109   3.067   0.917   1.001  1.1612 -0.1307  2.5158
  704SOL     OW 2110   0.882   2.386   1.389 -0.2434 -0.5368 -0.1309
  704SOL    HW1 2111   0.984   2.390   1.389 -1.9709  0.3339  2.2550
  704SOL    HW2 2112   0.850   2.451   1.317 -0.6932  0.6617 -0.6086
  705SOL     OW 2113   0.401   1.558   2.799 -0.1987  0.0456 -0.1247
  705SOL    HW1 2114   0.422   1.469   2.762  5.7205  2.2885 -0.1660
  705SOL    HW2 2115   0.382   1.560   2.899 -1.8748  1.1947 -0.6617
  706SOL     OW 2116   2.968   2.941   0.125  0.0152  0.2293  0.3219
  706SOL    HW1 2117   2.875   2.954   0.082  1.4153  1.5684  2.1192
  706SOL    HW2 2118   2.960   2.942   0.222  0.2619 -1.2283 -2.6218
  707SOL     OW 2119   1.396   2.979   2.269 -0.7883 -0.2725  0.3141
  707SOL    HW1 2120   1.448   3.056   2.220  0.4821  0.7734  0.6856
  707SOL    HW2 2121   1.334   2.925   2.210  0.0282  1.6545 -0.0720
  708SOL     OW 2122   0.259   2.719   1.721  0.2252 -0.1919 -0.3510
  708SOL    HW1 2123   0.352   2.765   1.734  0.2111 -0.0856 -0.8646
  708SOL    HW2 2124   0.256   2.624   1.764  1.3521  1.3302 -0.4725
  709SOL     OW 2125   2.788   0.633   1.854 -0.2255  0.7290 -0.0366
  709SOL    HW1 2126   2.866   0.651   1.788 -1.8384 -0.3149 -0.5698
  709SOL    HW2 2127   2.804   0.685   1.940  2.5307 -3.9100 -2.8482
  710SOL     OW 2128   0.322   0.924   0.815  0.4376 -0.2610  0.1516
  710SOL    HW1 2129   0.362   1.018   0.835 -0.1161  1.2558  0.9663
  710SOL    HW2 2130   0.252   0.934   0.741 -2.2996  1.6940  3.2918
  711SOL     OW 2131   2.698   2.920   1.388  1.0010 -0.0015  0.0729
  711SOL    HW1 2132   2.646   2.865   1.455  0.8758 -0.5263  4.0338
  711SOL    HW2 2133   2.639   2.971   1.317 -0.3651  0.5608 -2.4510
  712SOL     OW 2134   0.216   2.707   2.467  0.2334  0.6217 -0.3762
  712SOL    HW1 2135   0.201   2.634   2.539 -0.6683  0.3563  1.4361
  712SOL    HW2 2136   0.139   2.718   2.403 -0.8742 -0.0023  0.1661
  713SOL     OW 2137   2.508   0.382   0.587  0.4538  0.0470 -0.5905
  713SOL    HW1 2138   2.407   0.371   0.601 -1.0181 -1.9127 -2.1969
  713SOL    HW2 2139   2.532   0.451   0.516  0.8374  1.7005 -0.0957
  714SOL     OW 2140   1.668   2.026   2.633 -0.2357 -0.0797 -0.4678
  714SOL    HW1 2141   1.593   2.003   2.568 -0.2006  0.2335  1.4632
  714SOL    HW2 2142   1.755   1.988   2.592  0.4731  2.0977  1.8664
  715SOL     OW 2143   0.101   0.482   0.714 -0.6267 -0.4892  1.3951
  715SOL    HW1 2144   0.086   0.472   0.810 -1.2244  2.0675 -3.3967
  715SOL    HW2 2145   0.028   0.431   0.657 -0.1921 -0.7726  0.5794
  716SOL     OW 2146   0.778   0.684   1.561  0.4941 -0.2793 -0.0206
  716SOL    HW1 2147   0.852   0.713   1.625  2.8900 -1.5728  1.4253
  716SOL    HW2 2148   0.699   0.746   1.562 -1.9666  1.5536 -2.3545
  717SOL     OW 2149   0.840   0.388   2.509 -0.1319  0.1283 -0.3183
  717SOL    HW1 2150   0.822   0.285   2.488  1.8080 -0.2151  1.3859
  717SOL    HW2 2151   0.753   0.444   2.509 -0.7280  0.5678 -0.1612
  718SOL     OW 2152   1.198   0.249   0.322  0.1032  0.4051  0.0625
  718SOL    HW1 2153   1.270   0.264   0.251  2.2691 -3.3245 -0.6641
  718SOL    HW2 2154   1.229   0.182   0.392 -0.7682  2.0578 -3.3620
  719SOL     OW 2155   3.038   2.073   2.676  0.0123 -0.0506 -0.7684
  719SOL    HW1 2156   2.938   2.106   2.684 -2.1488  2.4156 -2.1861
  719SOL    HW2 2157   0.020   2.156   2.671  0.8217  1.4900  1.0713
  720SOL     OW 2158   1.006   0.565   1.300  0.0568 -0.3509  0.6538
  720SOL    HW1 2159   1.053   0.625   1.361  2.3860 -0.6351 -3.3710
  720SOL    HW2 2160   1.054   0.554   1.208  0.2572 -1.1678 -4.4985
  721SOL     OW 2161   2.843   2.803   1.006 -0.2584 -0.0175  0.3182
  721SOL    HW1 2162   2.923   2.757   0.969 -1.6187  2.8234 -1.3157
  721SOL    HW2 2163   2.824   2.761   1.099  0.5475 -1.9802  2.0793
  722SOL     OW 2164   1.028   1.421   2.838  0.1692 -0.0227  0.3946
  722SOL    HW1 2165   0.942   1.405   2.877  2.9349 -2.4057  1.1266
  722SOL    HW2 2166   1.028   1.498   2.770 -0.4717 -1.0496 -0.3375
  723SOL     OW 2167   2.679   0.781   1.264 -0.1274  0.3451 -0.1099
  723SOL    HW1 2168   2.612   0.727   1.208 -2.7608 -2.3740 -0.4633
  723SOL    HW2 2169   2.649   0.803   1.357  1.8875 -0.0192 -2.0933
  724SOL     OW 2170   0.913   1.974   0.448 -0.0995  0.1980  0.5710
  724SOL    HW1 2171   0.859   2.019   0.377  1.1264  1.4584 -0.8944
  724SOL    HW2 2172   0.974   1.901   0.408 -0.9566 -0.9244 -0.1840
  725SOL     OW 2173   0.233   1.103   1.533  0.3062  0.4662  0.3611
  725SOL    HW1 2174   0.145   1.082   1.479 -2.8148 -2.3039  0.1458
  725SOL    HW2 2175   0.310   1.040   1.500 -1.2038 -2.7520 -1.4514
  726SOL     OW 2176   2.439   1.167   2.888 -0.2871 -0.2649 -0.4053
  726SOL    HW1 2177   2.496   1.167   2.800 -0.8843  1.6989 -3.7768
  726SOL    HW2 2178   2.359   1.111   2.876  2.1277  3.6471  2.0939
  727SOL     OW 2179   1.760   1.233   2.714  0.1694  0.1097 -0.2010
  727SOL    HW1 2180   1.827   1.299   2.672 -1.8943  2.9199  0.0717
  727SOL    HW2 2181   1.722   1.173   2.647  4.0085  3.8566  3.7019
  728SOL     OW 2182   1.485   2.459   1.378  0.0867 -0.4724  0.0789
  728SOL    HW1 2183   1.454   2.554   1.408 -0.6660 -0.6534 -0.0959
  728SOL    HW2 2184   1.494   2.409   1.466  0.3612 -3.9736  0.8667
  729SOL     OW 2185   1.836   0.791   2.304  0.9960 -0.4169  0.2896
  729SOL    HW1 2186   1.877   0.797   2.395 -2.8874 -1.1978  0.1554
  729SOL    HW2 2187   1.810   0.886   2.266  0.5328  0.7819  0.0031
  730SOL     OW 2188   1.031   0.719   1.012 -0.5866  0.4918  0.1333
  730SOL    HW1 2189   1.110   0.767   0.971 -0.8416 -1.5534  0.0843
  730SOL    HW2 2190   1.066   0.622   1.035 -0.4031 -0.1797  2.0081
  731SOL     OW 2191   0.857   0.414   2.950 -0.8178  0.4588 -0.1670
  731SOL    HW1 2192   0.889   0.436   2.854 -3.8375 -0.1387  0.6510
  731SOL    HW2 2193   0.778   0.472   2.977  1.6520  0.7333  0.2469
  732SOL     OW 2194   0.577   0.654   0.210  0.0088 -0.2809 -0.3304
  732SOL    HW1 2195   0.615   0.611   0.293 -0.6864 -0.9875  0.7462
  732SOL    HW2 2196   0.654   0.707   0.165  0.9462  0.8001 -0.2341
  733SOL     OW 2197   1.625   1.602   2.435 -0.3625 -0.1293 -0.2521
  733SOL    HW1 2198   1.556   1.612   2.508  1.2537 -0.4733 -0.8807
  733SOL    HW2 2199   1.615   1.514   2.385 -1.7684 -0.5361 -2.1191
  734SOL     OW 2200   0.351   2.087   2.840 -0.2258  0.0083  0.7117
  734SOL    HW1 2201   0.318   2.089   2.937 -0.8450 -0.3144 -0.4666
  734SOL    HW2 2202   0.330   2.167   2.784  2.5253 -2.9954  0.0752
  735SOL     OW 2203   2.321   0.629   0.931  0.6058 -0.2534 -0.0193
  735SOL    HW1 2204   2.314   0.628   0.828  0.3441 -1.6958  2.0430
  735SOL    HW2 2205   2.228   0.612   0.970  2.5366 -2.0026  0.5890
  736SOL     OW 2206   1.915   1.459   2.593  0.1882  0.1147 -0.3829
  736SOL    HW1 2207   1.872   1.439   2.501 -2.2081  2.0124 -0.5637
  736SOL    HW2 2208   1.991   1.524   2.584  1.0951  0.4749 -1.3004
  737SOL     OW 2209   3.011   0.652   0.432  0.2395 -0.0731 -0.1589
  737SOL    HW1 2210   2.967   0.692   0.351  0.2988  0.9682  2.4495
  737SOL    HW2 2211   0.037   0.669   0.436 -2.8718  2.6429  1.0974
  738SOL     OW 2212   0.784   2.156   1.773  0.3031  0.3736  0.5850
  738SOL    HW1 2213   0.808   2.229   1.841  1.4150 -0.9575 -0.9397
  738SOL    HW2 2214   0.695   2.171   1.722  0.7442 -1.2732 -2.0582
  739SOL     OW 2215   1.240   2.742   2.165  0.2101  0.6727  0.2261
  739SOL    HW1 2216   1.319   2.718   2.109 -0.7411  0.3666  2.9737
  739SOL    HW2 2217   1.161   2.786   2.112 -2.2681 -0.3383 -0.5157
  740SOL     OW 2218   1.737   2.428   1.278 -0.0777 -0.0826  0.1785
  740SOL    HW1 2219   1.649   2.415   1.332 -1.7257 -0.4813  2.1049
  740SOL    HW2 2220   1.804   2.491   1.324 -1.9564 -1.9997 -1.2797
  741SOL     OW 2221   2.218   0.329   0.340  0.0736 -0.1092  0.1258
  741SOL    HW1 2222   2.137   0.338   0.275  0.2465 -1.1170 -0.7467
  741SOL    HW2 2223   2.302   0.359   0.293 -2.4367  1.6003 -3.9052
  742SOL     OW 2224   0.996   2.578   3.043  0.0694  0.0372 -0.5732
  742SOL    HW1 2225   1.048   2.563   2.955  1.0575 -0.9944 -1.5495
  742SOL    HW2 2226   0.982   2.489   0.017 -1.6291  0.3885  2.0502
  743SOL     OW 2227   2.385   1.016   2.144 -0.5846  0.4782  0.1689
  743SOL    HW1 2228   2.458   1.072   2.192  0.6656  0.5080  0.8468
  743SOL    HW2 2229   2.431   0.940   2.097 -0.3905  0.2207 -1.4788
  744SOL     OW 2230   2.628   0.694   0.610 -0.1134  0.2196 -0.6111
  744SOL    HW1 2231   2.588   0.669   0.517 -0.4900 -0.5743 -0.1535
  744SOL    HW2 2232   2.729   0.713   0.601 -0.7074 -1.8508  1.5429
  745SOL     OW 2233   2.585   1.042   1.427  0.1238 -0.3240  0.5304
  745SOL    HW1 2234   2.574   0.979   1.507  2.5614  1.4576 -0.4279
  745SOL    HW2 2235   2.576   1.141   1.461  1.2062 -0.8200  2.6784
  746SOL     OW 2236   1.387   1.466   0.624  0.6359 -0.0088 -0.1597
  746SOL    HW1 2237   1.386   1.561   0.581  1.5051  0.5345 -2.3266
  746SOL    HW2 2238   1.329   1.394   0.574 -2.8089 -0.6730  1.1141
  747SOL     OW 2239   1.270   1.614   1.477 -0.4312 -0.5365  0.3731
  747SOL    HW1 2240   1.241   1.628   1.575 -1.7467  0.0885 -0.3890
  747SOL    HW2 2241   1.311   1.700   1.444  0.5517 -2.1805  1.0651
  748SOL     OW 2242   0.332   2.798   0.040 -0.2258 -0.2143 -0.0670
  748SOL    HW1 2243   0.369   2.864   3.043 -0.5548 -0.9574  0.6717
  748SOL    HW2 2244   0.379   2.706   0.030  0.9910 -0.5055  2.0018
  749SOL     OW 2245   0.231   0.957   2.616 -0.4644 -0.4596  0.2274
  749SOL    HW1 2246   0.290   1.011   2.546  1.2710 -2.1934 -1.7957
  749SOL    HW2 2247   0.173   1.017   2.676  1.0721 -0.1682 -1.4403
  750SOL     OW 2248   1.626   0.980   1.930 -0.0518 -0.0976 -0.1857
  750SOL    HW1 2249   1.600   0.941   1.838 -0.0044 -1.1609 -0.3415
  750SOL    HW2 2250   1.638   0.903   1.992  0.7225  0.3018 -1.6243
  751SOL     OW 2251   2.848   0.741   0.233  0.5553 -0.0501  0.2420
  751SOL    HW1 2252   2.806   0.652   0.204 -2.1812 -0.0529 -0.3958
  751SOL    HW2 2253   2.773   0.806   0.266  0.4364 -0.1292 -1.4478
  752SOL     OW 2254   2.795   2.705   1.241  0.1175  0.5052  0.2989
  752SOL    HW1 2255   2.883   2.678   1.279 -1.4815  0.2133 -1.6187
  752SOL    HW2 2256   2.761   2.785   1.289  1.6591 -3.5976 -0.2939
  753SOL     OW 2257   0.764   2.147   1.425 -0.2016 -0.1232  0.2820
  753SOL    HW1 2258   0.795   2.246   1.417  0.7298 -0.4025 -1.8821
  753SOL    HW2 2259   0.734   2.116   1.518  0.0075 -0.0211  0.4635
  754SOL     OW 2260   0.051   2.823   2.064  0.0241  0.0024 -0.0360
  754SOL    HW1 2261   3.027   2.804   2.085 -0.6670  2.7318  0.7125
  754SOL    HW2 2262   0.059   2.925   2.044 -0.6296 -0.2079  1.8858
  755SOL     OW 2263   2.556   0.572   0.378  1.2948 -0.6639  0.0083
  755SOL    HW1 2264   2.590   0.547   0.288 -0.6077  1.3365  1.3011
  755SOL    HW2 2265   2.460   0.612   0.374  0.9054  1.2209  0.4025
  756SOL     OW 2266   2.460   2.357   2.924  0.3581 -0.1247  0.8622
  756SOL    HW1 2267   2.477   2.447   2.883  1.8876 -0.8608 -3.5092
  756SOL    HW2 2268   2.492   2.348   3.018 -3.3500  2.3093 -2.1283
  757SOL     OW 2269   2.252   0.596   0.677 -0.2866 -0.1636 -0.2312
  757SOL    HW1 2270   2.277   0.637   0.584 -0.3036  0.2915 -0.5166
  757SOL    HW2 2271   2.250   0.494   0.671 -1.5365 -0.5053 -0.0682
  758SOL     OW 2272   2.283   0.905   1.687 -0.5348  0.5028 -0.5959
  758SOL    HW1 2273   2.248   0.935   1.595  0.0903 -0.7292  0.8328
  758SOL    HW2 2274   2.386   0.896   1.687 -0.4686  2.7611  0.8889
  759SOL     OW 2275   2.567   0.603   1.069 -0.0723  0.4669  0.2427
  759SOL    HW1 2276   2.652   0.585   1.022 -1.0919  3.7457  0.0356
  759SOL    HW2 2277   2.492   0.617   1.003 -1.9253 -0.2102 -0.8439
  760SOL     OW 2278   2.860   1.459   1.153 -0.2902 -0.0353  0.2241
  760SOL    HW1 2279   2.907   1.370   1.145 -0.5606  0.8498  1.0939
  760SOL    HW2 2280   2.821   1.499   1.068 -1.2514 -0.7818  0.2844
  761SOL     OW 2281   1.003   0.812   0.259  0.0298  0.5307 -0.2249
  761SOL    HW1 2282   0.990   0.862   0.348 -2.3599  2.3495  1.0562
  761SOL    HW2 2283   1.073   0.846   0.196 -2.7028 -3.5728 -1.6883
  762SOL     OW 2284   0.891   1.682   0.839  0.0546 -0.2509 -0.1390
  762SOL    HW1 2285   0.839   1.768   0.813  0.9544  0.0128  1.4247
  762SOL    HW2 2286   0.846   1.606   0.791  3.0897  2.8847 -0.2994
  763SOL     OW 2287   1.138   0.788   1.377 -0.3001  0.6185 -0.6491
  763SOL    HW1 2288   1.132   0.838   1.469  0.1971 -0.2735  1.8050
  763SOL    HW2 2289   1.084   0.833   1.303  1.1074 -1.5129  1.1551
  764SOL     OW 2290   0.581   1.944   2.818  0.5514 -0.5909 -0.2052
  764SOL    HW1 2291   0.573   1.882   2.734  0.1480 -1.3534 -3.2944
  764SOL    HW2 2292   0.496   1.999   2.825 -1.7851  1.2232  2.2002
  765SOL     OW 2293   0.552   2.822   1.705 -0.5229  0.6158  0.1706
  765SOL    HW1 2294   0.580   2.783   1.795 -0.7315  2.5143  0.1595
  765SOL    HW2 2295   0.631   2.827   1.642 -1.7278  3.2905  2.9861
  766SOL     OW 2296   2.462   1.808   2.374  0.0637  0.2602  0.2271
  766SOL    HW1 2297   2.479   1.861   2.457  0.5275  1.7437 -1.5794
  766SOL    HW2 2298   2.532   1.735   2.366  0.8468 -0.4993 -0.0624
  767SOL     OW 2299   1.454   1.094   2.281  0.1126  0.8010 -0.2721
  767SOL    HW1 2300   1.418   1.011   2.329  2.4099  1.7480 -2.4624
  767SOL    HW2 2301   1.386   1.122   2.210  1.0843  1.2067  1.6850
  768SOL     OW 2302   1.592   1.998   0.183  0.4751 -0.0555 -0.0886
  768SOL    HW1 2303   1.556   1.932   0.248 -1.7041 -1.4977  0.5235
  768SOL    HW2 2304   1.691   1.995   0.169 -2.3937  0.9578  1.7498
  769SOL     OW 2305   0.817   1.308   0.786 -0.2934  0.0018  0.2939
  769SOL    HW1 2306   0.902   1.323   0.732  1.3149  2.2352 -2.2973
  769SOL    HW2 2307   0.833   1.318   0.887 -0.2685 -0.0675  3.0883
  770SOL     OW 2308   1.369   0.873   2.396  0.5892  0.0664 -0.2420
  770SOL    HW1 2309   1.436   0.889   2.472 -0.2893 -0.9794  0.6959
  770SOL    HW2 2310   1.371   0.776   2.366 -0.3860 -0.2128 -3.0378
  771SOL     OW 2311   2.964   2.989   2.278  0.6419 -0.3240 -0.2981
  771SOL    HW1 2312   2.945   2.966   2.377 -0.0760 -0.3267  2.4351
  771SOL    HW2 2313   2.948   2.906   2.219  0.2972  0.0213  1.3371
  772SOL     OW 2314   2.105   1.778   2.297  0.5242  0.7545  0.3157
  772SOL    HW1 2315   2.017   1.766   2.248  1.8552  0.3950  0.8273
  772SOL    HW2 2316   2.189   1.756   2.241 -0.2294  1.4937 -0.8824
  773SOL     OW 2317   0.415   1.645   1.474  0.7723 -0.3449  0.2573
  773SOL    HW1 2318   0.456   1.670   1.566  1.7058 -1.5673 -1.3751
  773SOL    HW2 2319   0.372   1.552   1.473 -0.9092 -3.3766 -1.5000
  774SOL     OW 2320   1.216   0.723   2.886 -0.0552  0.3488 -0.3148
  774SOL    HW1 2321   1.117   0.716   2.874  1.2820  4.3061 -0.5598
  774SOL    HW2 2322   1.249   0.668   2.962 -1.3027  0.7782  2.8505
  775SOL     OW 2323   1.904   2.653   0.164 -0.5473 -0.4812 -0.1179
  775SOL    HW1 2324   1.805   2.668   0.161  4.2824  1.3766  2.2577
  775SOL    HW2 2325   1.950   2.714   0.092  0.2128  2.2160 -0.9022
  776SOL     OW 2326   0.152   0.651   1.795  0.2928 -0.1121  0.2230
  776SOL    HW1 2327   0.154   0.555   1.768  2.7792  0.6291  1.2981
  776SOL    HW2 2328   0.074   0.695   1.754  0.5621 -1.8075  2.0750
  777SOL     OW 2329   2.346   1.767   2.120  0.3110 -0.3214 -0.1954
  777SOL    HW1 2330   2.395   1.769   2.211  1.6375  0.3119 -2.6162
  777SOL    HW2 2331   2.332   1.860   2.073 -1.7190  2.2575 -0.8393
  778SOL     OW 2332   1.710   1.018   2.257  0.0198 -0.2786  0.3904
  778SOL    HW1 2333   1.620   1.062   2.245  1.1820  0.0224  0.2759
  778SOL    HW2 2334   1.786   1.088   2.245  2.7924  1.6707 -0.5647
  779SOL     OW 2335   2.849   1.015   3.072 -0.3122 -0.1299  0.5692
  779SOL    HW1 2336   2.892   0.933   3.025  4.1356 -1.2173 -0.9403
  779SOL    HW2 2337   2.908   1.055   0.072  0.2032 -1.0002  3.8767
  780SOL     OW 2338   2.329   0.130   2.610  0.6336  0.2270 -0.7970
  780SOL    HW1 2339   2.345   0.069   2.692 -0.4721  1.1711 -0.4148
  780SOL    HW2 2340   2.375   0.221   2.609  1.2487 -1.3842  1.5677
  781SOL     OW 2341   3.073   1.852   1.615 -0.2351  0.0286 -0.5341
  781SOL    HW1 2342   0.099   1.854   1.640  0.1498 -1.4830 -1.9622
  781SOL    HW2 2343   3.036   1.756   1.617  1.6130 -0.5629 -0.2793
  782SOL     OW 2344   2.761   2.103   2.755  0.2972  0.0093  0.3853
  782SOL    HW1 2345   2.797   2.198   2.780  0.0833  2.5994 -1.1044
  782SOL    HW2 2346   2.672   2.094   2.801  1.3806 -0.4204 -0.0066
  783SOL     OW 2347   0.810   1.313   1.055  0.0158 -0.7356  0.1771
  783SOL    HW1 2348   0.736   1.282   1.121 -1.2785  2.0773  0.8305
  783SOL    HW2 2349   0.899   1.259   1.062  2.7584 -1.0955  1.5290
  784SOL     OW 2350   2.373   0.816   2.897 -0.0130  0.1332  0.1073
  784SOL    HW1 2351   2.464   0.825   2.844  2.4400  0.2365 -0.3130
  784SOL    HW2 2352   2.367   0.883   2.976  2.3022  0.7806  0.0882
  785SOL     OW 2353   2.078   2.520   0.720  0.2375 -0.1872  0.5685
  785SOL    HW1 2354   2.047   2.593   0.668  1.3100 -4.4841  3.4205
  785SOL    HW2 2355   2.161   2.475   0.672  3.9695 -1.2266 -4.4516
  786SOL     OW 2356   0.468   2.119   2.483  1.1893 -0.1392  0.4249
  786SOL    HW1 2357   0.567   2.105   2.483 -3.2412 -2.6381 -1.6491
  786SOL    HW2 2358   0.408   2.038   2.471 -0.2545  2.8756 -0.6183
  787SOL     OW 2359   1.200   0.359   1.332 -0.4642  0.0034  0.2813
  787SOL    HW1 2360   1.140   0.402   1.260 -0.7518 -0.4072  4.1375
  787SOL    HW2 2361   1.286   0.412   1.346  0.6527 -0.0413  1.9611
  788SOL     OW 2362   0.346   0.814   0.259 -0.8680 -0.1209 -0.2342
  788SOL    HW1 2363   0.417   0.745   0.236 -2.9986  1.8792  0.1569
  788SOL    HW2 2364   0.281   0.830   0.187  0.4752  0.9286  1.4414
  789SOL     OW 2365   3.036   2.142   1.222  0.0584 -0.2027  0.3746
  789SOL    HW1 2366   3.020   2.067   1.291 -2.8708  0.0814 -0.3258
  789SOL    HW2 2367   2.944   2.167   1.181  1.1543 -1.0894 -3.0311
  790SOL     OW 2368   1.364   0.428   1.713  0.3475 -0.1157  0.0402
  790SOL    HW1 2369   1.291   0.467   1.779 -0.8891 -1.1011 -0.3490
  790SOL    HW2 2370   1.342   0.339   1.687  0.9666  0.8143  0.0103
  791SOL     OW 2371   1.394   0.420   0.475 -0.1643 -0.5208 -0.3011
  791SOL    HW1 2372   1.432   0.513   0.460  0.9104 -0.2370 -0.8863
  791SOL    HW2 2373   1.293   0.429   0.459  1.1131 -0.6671  0.3198
  792SOL     OW 2374   1.395   2.803   1.750  0.2782 -0.2759 -0.0282
  792SOL    HW1 2375   1.292   2.792   1.763 -1.8364  0.6605  1.5138
  792SOL    HW2 2376   1.430   2.883   1.800 -0.9831 -1.7966 -1.9063
  793SOL     OW 2377   0.607   0.100   0.573  0.0001 -0.3756  0.7297
  793SOL    HW1 2378   0.650   0.116   0.482 -0.0531 -0.5322  0.6657
  793SOL    HW2 2379   0.541   0.020   0.576 -0.1702 -1.4164  1.8684
  794SOL     OW 2380   0.564   1.032   2.303 -0.3455 -0.0454  0.0257
  794SOL    HW1 2381   0.654   1.079   2.288  0.9251  0.4886 -0.7804
  794SOL    HW2 2382   0.537   0.981   2.220 -0.5793  1.8503 -1.2964
  795SOL     OW 2383   0.062   1.786   2.365 -0.4937 -0.1481 -0.5814
  795SOL    HW1 2384   3.076   1.793   2.288  3.0167 -0.2994 -0.9217
  795SOL    HW2 2385   0.092   1.690   2.375  0.4593  0.0314  0.5253
  796SOL     OW 2386   1.937   1.167   2.202  0.1995  0.5433 -0.1095
  796SOL    HW1 2387   1.933   1.146   2.102 -3.0514  0.3674  0.0131
  796SOL    HW2 2388   2.037   1.186   2.230  2.0879  1.9622  1.7858
  797SOL     OW 2389   0.008   3.050   2.615 -0.4721  0.1553  0.1758
  797SOL    HW1 2390   0.102   3.012   2.601  0.5916  1.8476 -0.0708
  797SOL    HW2 2391   3.012   2.994   2.565  0.1956  0.5005 -2.2174
  798SOL     OW 2392   2.945   2.068   2.039  0.1967  0.2592  0.5026
  798SOL    HW1 2393   2.858   2.114   2.033  0.0642 -2.3561 -1.4813
  798SOL    HW2 2394   3.017   2.140   2.043 -0.0540 -0.3410  1.4142
  799SOL     OW 2395   0.016   2.166   0.037  0.0037  0.5818  0.1280
  799SOL    HW1 2396   3.038   2.249   0.032  0.2227 -1.3651  1.0551
  799SOL    HW2 2397   3.061   2.096   3.046 -2.3160 -1.0413 -0.9982
  800SOL     OW 2398   1.342   1.740   0.585  0.4875  0.5482 -0.2760
  800SOL    HW1 2399   1.293   1.788   0.506  2.0519 -4.5125 -0.0831
  800SOL    HW2 2400   1.352   1.807   0.660  1.4468  0.0813 -1.2041
  801SOL     OW 2401   2.065   0.792   0.721 -0.4628 -0.0883  0.2335
  801SOL    HW1 2402   1.977   0.771   0.676 -0.5806  2.4571 -0.1048
  801SOL    HW2 2403   2.130   0.710   0.716  2.0895 -3.1836 -0.0544
  802SOL     OW 2404   2.880   1.307   0.238  0.5244 -0.2652 -0.0306
  802SOL    HW1 2405   2.939   1.367   0.298  1.5923 -0.7237  0.4398
  802SOL    HW2 2406   2.937   1.224   0.220  0.5178 -2.3651  0.1691
  803SOL     OW 2407   1.472   1.797   2.873 -0.2453 -0.3531 -0.1357
  803SOL    HW1 2408   1.574   1.793   2.867  0.0863 -0.0403  0.5735
  803SOL    HW2 2409   1.447   1.885   2.915  0.0684  0.4528  1.4666
  804SOL     OW 2410   1.854   1.983   0.148  0.0406  0.2156 -0.2966
  804SOL    HW1 2411   1.881   1.921   0.225 -2.5061 -0.3715  0.4407
  804SOL    HW2 2412   1.908   1.969   0.061 -0.4038  2.3551 -2.6795
  805SOL     OW 2413   2.440   1.692   2.986 -0.3597  0.0544 -0.2417
  805SOL    HW1 2414   2.458   1.698   2.887 -0.8238  1.6047 -0.6647
  805SOL    HW2 2415   2.442   1.593   3.010  1.2621  2.2638 -2.2924
  806SOL     OW 2416   0.764   0.178   0.354 -0.2318 -0.2091 -0.1429
  806SOL    HW1 2417   0.752   0.273   0.320 -0.6490 -0.0106 -1.0543
  806SOL    HW2 2418   0.853   0.161   0.409 -0.4591  0.4751  1.5405
  807SOL     OW 2419   2.084   1.318   2.816 -0.1585  0.0306 -0.5003
  807SOL    HW1 2420   2.105   1.359   2.906 -1.6435  0.2427 -0.1330
  807SOL    HW2 2421   2.014   1.368   2.766  1.4442 -1.1033  0.6208
  808SOL     OW 2422   0.151   1.703   0.373  0.1614  0.3150  0.1193
  808SOL    HW1 2423   0.232   1.661   0.424 -1.2901  1.2769 -2.4575
  808SOL    HW2 2424   0.138   1.799   0.396  1.1099 -1.7686  0.8147
  809SOL     OW 2425   2.629   0.829   2.804 -0.2932 -0.4225  0.1486
  809SOL    HW1 2426   2.644   0.920   2.755 -0.2633  0.7826  0.1925
  809SOL    HW2 2427   2.708   0.814   2.867  1.4880  2.5168  2.0844
  810SOL     OW 2428   0.815   1.046   0.258 -0.3304 -0.6400  0.4204
  810SOL    HW1 2429   0.874   1.066   0.178 -1.0597  0.5397 -1.0074
  810SOL    HW2 2430   0.727   1.024   0.218  1.0259  3.0157  1.3309
  811SOL     OW 2431   1.210   2.571   1.187 -0.2233 -0.0797  0.3344
  811SOL    HW1 2432   1.158   2.572   1.102  0.5459 -0.5483 -0.3472
  811SOL    HW2 2433   1.307   2.600   1.169 -1.4747 -1.1116 -1.2657
  812SOL     OW 2434   0.544   2.436   1.573 -0.4331 -0.2528 -0.4594
  812SOL    HW1 2435   0.542   2.413   1.474 -0.4873  0.7495  0.1697
  812SOL    HW2 2436   0.482   2.510   1.608 -3.4757  1.0039  0.7656
  813SOL     OW 2437   1.174   0.273   2.035 -0.1175 -0.3553  0.3686
  813SOL    HW1 2438   1.270   0.310   2.038 -0.8681 -2.5232 -1.0095
  813SOL    HW2 2439   1.149   0.235   2.126 -3.1170 -2.4832  2.4910
  814SOL     OW 2440   1.523   2.590   2.760  0.3483 -0.0275  0.3485
  814SOL    HW1 2441   1.603   2.645   2.747 -1.6696 -0.9542 -2.4840
  814SOL    HW2 2442   1.539   2.508   2.705  2.5644  0.5780  0.1774
  815SOL     OW 2443   0.483   0.364   1.639 -0.3616 -1.0865 -0.4123
  815SOL    HW1 2444   0.429   0.442   1.596 -1.3727 -0.4466 -0.9056
  815SOL    HW2 2445   0.582   0.383   1.620  0.5143  0.4593 -0.9201
  816SOL     OW 2446   2.273   0.340   2.843  0.2580  0.1070  0.3362
  816SOL    HW1 2447   2.301   0.366   2.753  1.3737 -1.8435  1.0123
  816SOL    HW2 2448   2.226   0.409   2.896  2.3727 -1.6176 -0.4233
  817SOL     OW 2449   1.959   0.373   2.630 -0.1050  0.1641  0.0782
  817SOL    HW1 2450   1.996   0.325   2.549 -1.7864 -0.9979  1.1575
  817SOL    HW2 2451   1.983   0.326   2.716 -1.4844  0.4077  0.8971
  818SOL     OW 2452   2.033   0.286   0.119  0.7530  0.2166 -0.0194
  818SOL    HW1 2453   2.047   0.186   0.091 -1.1785 -3.7123 -1.1183
  818SOL    HW2 2454   2.064   0.351   0.045  1.0240  1.6375  1.7440
  819SOL     OW 2455   2.298   1.894   0.002  0.0725 -0.1302  0.1427
  819SOL    HW1 2456   2.362   1.973   0.019 -1.1095 -2.4250  1.1160
  819SOL    HW2 2457   2.342   1.831   3.011  0.3170  0.4116 -0.6355
  820SOL     OW 2458   0.048   1.935   0.209 -0.0164  0.3047 -0.3456
  820SOL    HW1 2459   0.084   1.955   0.302  1.4405 -0.2362 -0.4252
  820SOL    HW2 2460   0.019   2.024   0.164 -1.0808  3.4480 -2.3593
  821SOL     OW 2461   0.188   2.399   1.031 -0.5021 -0.2776 -0.1965
  821SOL    HW1 2462   0.170   2.300   1.012  0.7611 -2.3481 -2.1710
  821SOL    HW2 2463   0.242   2.410   1.118  0.5749 -0.4851  1.6889
  822SOL     OW 2464   2.497   2.590   2.744 -0.5071 -0.0402  0.7111
  822SOL    HW1 2465   2.491   2.691   2.746  0.4352  0.6341 -1.6135
  822SOL    HW2 2466   2.485   2.556   2.649  1.3437 -1.1425  0.0485
  823SOL     OW 2467   1.623   0.195   2.525 -0.4141 -0.5145  0.0093
  823SOL    HW1 2468   1.546   0.191   2.458  1.3603  0.1414  1.2693
  823SOL    HW2 2469   1.655   0.292   2.549  0.1747  0.5507  1.0731
  824SOL     OW 2470   2.701   1.740   1.490  0.0496  0.0593  0.5651
  824SOL    HW1 2471   2.625   1.770   1.433  0.0357 -1.8943 -1.0471
  824SOL    HW2 2472   2.781   1.800   1.472  2.0256 -0.5445  0.0058
  825SOL     OW 2473   2.692   1.859   2.626 -0.6089  0.4284 -0.7737
  825SOL    HW1 2474   2.727   1.943   2.672  2.3093 -1.5574 -0.9572
  825SOL    HW2 2475   2.711   1.855   2.530  1.0056  1.5113  3.2486
  826SOL     OW 2476   2.275   1.334   2.110  0.0628  0.0306  0.0332
  826SOL    HW1 2477   2.254   1.270   2.190 -2.4768 -3.3312  1.4202
  826SOL    HW2 2478   2.358   1.390   2.122 -2.5060 -2.8143 -0.6454
  827SOL     OW 2479   2.052   2.051   1.200 -0.8831  0.0093  0.2614
  827SOL    HW1 2480   1.986   2.103   1.137 -0.9571  0.4494 -2.6689
  827SOL    HW2 2481   2.020   2.064   1.295  1.7865  0.4988 -0.1296
  828SOL     OW 2482   2.551   2.750   1.518  0.1099  0.5351 -0.4250
  828SOL    HW1 2483   2.549   2.669   1.456 -1.0712  0.3851  1.2361
  828SOL    HW2 2484   2.472   2.749   1.584 -0.9767  0.9349 -0.9343
  829SOL     OW 2485   1.702   2.359   2.456 -0.7728 -0.0130  0.5256
  829SOL    HW1 2486   1.618   2.328   2.500  0.5584 -1.1648 -3.8222
  829SOL    HW2 2487   1.728   2.291   2.384  1.8739  2.3363 -1.4405
  830SOL     OW 2488   1.581   0.597   0.904 -0.2530  0.1181  0.0357
  830SOL    HW1 2489   1.559   0.689   0.940 -1.5191 -2.3246  0.6143
  830SOL    HW2 2490   1.509   0.527   0.929 -0.8672 -1.1409 -2.1467
  831SOL     OW 2491   2.437   1.423   3.002 -0.3208 -0.3023  0.1240
  831SOL    HW1 2492   2.484   1.414   0.014 -2.2735 -0.0823 -0.6500
  831SOL    HW2 2493   2.424   1.330   2.954 -0.0397 -1.1375 -3.9835
  832SOL     OW 2494   1.534   1.973   1.974  0.0984  0.0782  0.1346
  832SOL    HW1 2495   1.558   1.877   1.956  0.1193  1.7289  0.1282
  832SOL    HW2 2496   1.530   1.994   2.076 -1.6415  0.0258 -1.4108
  833SOL     OW 2497   2.877   2.769   2.130 -0.5689 -0.3007 -0.1203
  833SOL    HW1 2498   2.900   2.688   2.190  0.7886 -0.1972  1.8757
  833SOL    HW2 2499   2.780   2.788   2.115  0.1872  0.5111 -1.4710
  834SOL     OW 2500   0.711   1.084   1.607  0.0691  0.5888 -0.2893
  834SOL    HW1 2501   0.769   1.170   1.628  2.3609  1.6355  0.0393
  834SOL    HW2 2502   0.746   1.032   1.525 -0.5714  1.3101 -0.9906
  835SOL     OW 2503   2.916   0.777   2.633  0.5018 -0.4018 -0.1191
  835SOL    HW1 2504   2.951   0.723   2.553  1.5862 -0.4785  0.6502
  835SOL    HW2 2505   2.816   0.792   2.627 -0.6035 -0.3668 -0.4268
  836SOL     OW 2506   1.168   2.044   0.922  0.0614  0.4691  0.1988
  836SOL    HW1 2507   1.172   2.104   1.000 -0.9961  1.7532 -2.1182
  836SOL    HW2 2508   1.214   1.955   0.944  0.5467  1.0574 -1.8094
  837SOL     OW 2509   1.940   1.042   1.031  0.0664 -0.3701 -0.2458
  837SOL    HW1 2510   1.930   1.079   1.124  1.0688  0.2326  0.9201
  837SOL    HW2 2511   2.017   1.086   0.980  3.1197  0.8731 -0.1652
  838SOL     OW 2512   1.171   1.828   2.447 -0.0329 -0.2124 -0.1717
  838SOL    HW1 2513   1.167   1.735   2.400  0.4809 -2.7385  1.1583
  838SOL    HW2 2514   1.163   1.824   2.549  0.7404  0.7346  0.0714
  839SOL     OW 2515   0.795   2.122   2.765 -0.2605  0.5463 -0.0935
  839SOL    HW1 2516   0.727   2.049   2.767  0.3744  0.3103  0.2252
  839SOL    HW2 2517   0.777   2.192   2.838  0.7831 -0.6320  2.9882
  840SOL     OW 2518   0.423   2.543   0.023 -0.1149  0.4220  0.7735
  840SOL    HW1 2519   0.355   2.471   0.006  2.6773  0.8846 -1.0603
  840SOL    HW2 2520   0.500   2.527   3.033  1.4339 -3.2197 -1.2675
  841SOL     OW 2521   1.925   2.358   0.186  0.1446 -0.2840  0.0184
  841SOL    HW1 2522   1.956   2.321   0.097 -0.5076 -1.5144 -1.6340
  841SOL    HW2 2523   1.877   2.445   0.167 -1.5951 -0.8290 -1.9426
  842SOL     OW 2524   0.918   0.751   2.786  0.0445 -0.2136 -0.0188
  842SOL    HW1 2525   0.883   0.805   2.871 -2.2099 -0.3392  4.6564
  842SOL    HW2 2526   0.917   0.818   2.706  0.7875  0.2649  1.0862
  843SOL     OW 2527   1.002   2.869   0.574  0.3100  0.4766  0.9624
  843SOL    HW1 2528   0.997   2.934   0.492 -1.2724 -0.3429 -2.3747
  843SOL    HW2 2529   0.947   2.903   0.650  1.6550 -0.6377 -1.1172
  844SOL     OW 2530   2.214   3.015   2.485  0.5497  0.1513 -0.3678
  844SOL    HW1 2531   2.247   0.027   2.518  0.4809 -3.1547  0.7929
  844SOL    HW2 2532   2.197   2.958   2.564 -0.1176 -2.7063  1.6471
  845SOL     OW 2533   2.544   2.520   1.370 -0.2807 -0.0788 -0.0111
  845SOL    HW1 2534   2.453   2.475   1.385 -1.4611 -4.0538 -2.3462
  845SOL    HW2 2535   2.561   2.529   1.271 -0.2187 -1.9058 -3.8982
  846SOL     OW 2536   0.112   1.846   2.635  0.0396  0.3083  0.1236
  846SOL    HW1 2537   0.064   1.935   2.650 -1.6585 -1.5451 -3.4385
  846SOL    HW2 2538   0.086   1.809   2.540  0.1788 -1.6160  1.6416
  847SOL     OW 2539   1.544   0.649   1.581  0.2358  0.4035 -0.8799
  847SOL    HW1 2540   1.492   0.710   1.517  1.4174 -2.3859 -1.1707
  847SOL    HW2 2541   1.483   0.567   1.594 -1.4267 -1.8806  0.2104
  848SOL     OW 2542   2.775   0.224   0.168  0.1698 -0.3387  0.4771
  848SOL    HW1 2543   2.801   0.175   0.085 -0.8490 -1.7810  1.7974
  848SOL    HW2 2544   2.852   0.275   0.209  1.9713  1.3805 -0.3122
  849SOL     OW 2545   0.614   0.103   2.864 -0.2184  0.3196  0.0617
  849SOL    HW1 2546   0.706   0.118   2.903 -1.6715  1.2260 -0.2844
  849SOL    HW2 2547   0.547   0.152   2.926  2.3412  1.4219 -0.5272
  850SOL     OW 2548   0.818   2.553   0.856 -0.2920 -0.3657 -0.1111
  850SOL    HW1 2549   0.764   2.467   0.850  0.9656 -1.0278  2.3604
  850SOL    HW2 2550   0.829   2.599   0.764 -0.4088  0.9606 -2.0303
  851SOL     OW 2551   2.472   0.145   2.167 -0.2459  0.3487 -0.2726
  851SOL    HW1 2552   2.460   0.226   2.103  0.1957  0.5720  0.4804
  851SOL    HW2 2553   2.565   0.107   2.157  0.6387 -0.9627  0.0562
  852SOL     OW 2554   1.796   1.335   2.354  0.0762 -0.5119 -0.2617
  852SOL    HW1 2555   1.695   1.314   2.357  0.7698 -0.6283  1.3554
  852SOL    HW2 2556   1.852   1.250   2.333  1.2698 -2.3182  1.0872
  853SOL     OW 2557   2.582   2.635   0.812  0.4474 -0.1741 -0.5201
  853SOL    HW1 2558   2.678   2.624   0.797 -3.4760  1.2155 -1.1729
  853SOL    HW2 2559   2.558   2.734   0.830  2.8243  0.8431  0.2669
  854SOL     OW 2560   2.392   0.923   1.071  0.5494 -0.0891  0.4159
  854SOL    HW1 2561   2.472   0.955   1.021 -0.9748 -2.6731  0.5842
  854SOL    HW2 2562   2.358   0.835   1.036 -0.5871 -0.0256  2.5507
  855SOL     OW 2563   1.328   2.236   0.620  0.0563  0.1715 -0.1088
  855SOL    HW1 2564   1.296   2.203   0.529  2.5114  0.7703  3.0424
  855SOL    HW2 2565   1.406   2.301   0.606 -1.9168 -2.4135 -0.0058
  856SOL     OW 2566   2.975   0.388   2.822  0.0889  0.2449  0.2977
  856SOL    HW1 2567   2.964   0.317   2.753 -0.2966 -0.1749  2.3619
  856SOL    HW2 2568   3.020   0.349   2.901 -0.3554  0.5765  0.8892
  857SOL     OW 2569   1.568   3.056   1.870 -0.0042 -0.6075  0.0175
  857SOL    HW1 2570   1.633   2.977   1.864  2.3146 -2.6619 -1.6453
  857SOL    HW2 2571   1.561   0.025   1.963  1.6473 -0.6233 -0.9753
  858SOL     OW 2572   2.378   2.190   1.623  0.3415  0.1310 -0.3850
  858SOL    HW1 2573   2.462   2.184   1.561  3.1714 -0.3228 -1.7548
  858SOL    HW2 2574   2.313   2.120   1.594 -0.1281  1.4411  1.2941
  859SOL     OW 2575   1.445   2.297   1.135 -0.1419  0.3910 -0.2807
  859SOL    HW1 2576   1.367   2.239   1.152  1.7321  2.7222 -0.7264
  859SOL    HW2 2577   1.475   2.348   1.222  1.2265  1.1761  2.7986
  860SOL     OW 2578   2.555   2.595   0.176  0.9186  0.1650 -0.0766
  860SOL    HW1 2579   2.630   2.623   0.114 -0.7835 -0.2273  2.3831
  860SOL    HW2 2580   2.531   2.498   0.167  0.1996  2.7445  0.1814
  861SOL     OW 2581   1.468   2.556   1.029 -0.2430  0.1118 -0.3938
  861SOL    HW1 2582   1.444   2.462   1.061 -0.8881  1.6744  1.3559
  861SOL    HW2 2583   1.568   2.570   1.045  1.0840  2.3269  1.3787
  862SOL     OW 2584   1.797   2.881   2.542 -0.0400  0.3529 -0.1315
  862SOL    HW1 2585   1.882   2.828   2.530 -1.2980  1.9526 -0.9668
  862SOL    HW2 2586   1.808   2.980   2.572  0.4056  0.9358 -1.6997
  863SOL     OW 2587   0.178   0.726   0.455 -0.1182  0.1899  0.4324
  863SOL    HW1 2588   0.244   0.684   0.521  1.0062 -0.0371 -0.2722
  863SOL    HW2 2589   0.229   0.743   0.366 -0.2315 -4.1212 -1.5199
  864SOL     OW 2590   2.747   2.442   2.146 -0.6836  0.4104 -0.0657
  864SOL    HW1 2591   2.817   2.484   2.206 -0.9045 -1.2200 -3.4078
  864SOL    HW2 2592   2.649   2.473   2.165  1.3855  4.2370 -0.3828
  865SOL     OW 2593   0.257   1.831   2.858 -0.3011  0.1792  0.2289
  865SOL    HW1 2594   0.225   1.796   2.771 -0.8080  2.4207  1.5528
  865SOL    HW2 2595   0.304   1.921   2.837  0.6858 -0.3593  0.7883
  866SOL     OW 2596   2.640   0.545   2.671 -0.1638 -0.6364 -0.1075
  866SOL    HW1 2597   2.674   0.457   2.631  0.5686  2.6319 -0.6264
  866SOL    HW2 2598   2.705   0.578   2.744 -0.1380  4.0432 -1.0929
  867SOL     OW 2599   0.342   2.795   2.736 -0.6749 -0.1783  0.1777
  867SOL    HW1 2600   0.417   2.819   2.796 -1.2206 -0.1427 -1.0843
  867SOL    HW2 2601   0.337   2.863   2.662  1.0242 -2.8708 -0.8269
  868SOL     OW 2602   1.330   2.585   0.794  0.5355 -0.2151 -0.0626
  868SOL    HW1 2603   1.393   2.584   0.873 -3.2918  2.0172 -1.4860
  868SOL    HW2 2604   1.238   2.541   0.816 -0.5607 -0.2694  0.9545
  869SOL     OW 2605   1.576   1.204   1.156  0.4054  0.5663  0.3439
  869SOL    HW1 2606   1.620   1.287   1.119  0.2938 -0.0082  1.3543
  869SOL    HW2 2607   1.619   1.176   1.241  0.0360  2.7821 -0.8697
  870SOL     OW 2608   1.782   1.982   1.073  0.0858  0.2103 -0.1577
  870SOL    HW1 2609   1.805   2.081   1.091  3.7098 -1.9714  1.1265
  870SOL    HW2 2610   1.815   1.917   1.146 -0.3213  0.4798 -0.0305
  871SOL     OW 2611   1.054   1.849   1.166 -0.6134 -0.3197 -0.5238
  871SOL    HW1 2612   1.000   1.765   1.140  0.9318 -2.1066 -1.6877
  871SOL    HW2 2613   1.151   1.845   1.121  2.9514 -0.3467  1.1293
  872SOL     OW 2614   1.227   1.336   1.140 -0.3466 -0.2366  0.5085
  872SOL    HW1 2615   1.141   1.363   1.185  1.0274  1.9874 -0.8540
  872SOL    HW2 2616   1.303   1.351   1.206  0.0452  0.5745 -1.1366
  873SOL     OW 2617   1.114   0.838   2.243  0.0127 -0.0364 -0.0822
  873SOL    HW1 2618   1.029   0.886   2.275 -2.4335  1.1991 -0.1971
  873SOL    HW2 2619   1.187   0.844   2.310 -0.6297 -1.6325 -0.8436
  874SOL     OW 2620   0.232   1.086   1.203  0.9004  0.0388  0.6619
  874SOL    HW1 2621   0.137   1.109   1.234 -1.5852  0.6524  0.5281
  874SOL    HW2 2622   0.291   1.170   1.208 -1.4790 -0.1629 -0.9782
  875SOL     OW 2623   2.774   2.803   0.562 -0.3902 -0.2613  0.0888
  875SOL    HW1 2624   2.763   2.780   0.661  1.2237  2.1539 -0.6892
  875SOL    HW2 2625   2.684   2.842   0.526 -0.2309  0.4829 -1.6741
  876SOL     OW 2626   1.191   0.342   2.800  0.0646 -0.0914 -0.3538
  876SOL    HW1 2627   1.180   0.241   2.812 -1.1460  3.7299  1.0431
  876SOL    HW2 2628   1.106   0.388   2.773  3.0641 -2.2116 -1.5925
  877SOL     OW 2629   0.122   2.894   1.391  0.6428  0.1817 -0.6516
  877SOL    HW1 2630   0.153   2.976   1.440  0.4786 -1.4620  0.3177
  877SOL    HW2 2631   0.125   2.908   1.294  1.2362 -2.5135 -0.7980
  878SOL     OW 2632   2.056   2.701   3.020 -0.7463 -0.8905  0.3186
  878SOL    HW1 2633   2.039   2.695   2.919 -0.7413 -0.7430  2.3554
  878SOL    HW2 2634   2.153   2.681   3.050 -2.2976 -1.2209  2.1434
  879SOL     OW 2635   2.234   1.830   1.779 -0.4971  0.6053  0.0171
  879SOL    HW1 2636   2.311   1.772   1.747  0.9803  1.1732  0.2363
  879SOL    HW2 2637   2.144   1.794   1.741 -0.5559  0.7248 -1.7682
  880SOL     OW 2638   0.746   0.967   1.368 -0.3246 -0.2460 -0.0509
  880SOL    HW1 2639   0.841   0.964   1.330 -1.7009  0.2457  0.8829
  880SOL    HW2 2640   0.704   0.874   1.349  1.6817 -1.8585  2.8566
  881SOL     OW 2641   1.089   1.730   0.006 -0.1682  0.1228  0.1519
  881SOL    HW1 2642   1.094   1.824   3.049  0.7739 -0.8076  1.3943
  881SOL    HW2 2643   1.175   1.681   3.070 -1.1094 -2.3317  1.0107
  882SOL     OW 2644   1.774   0.380   0.941  0.1000 -0.2960 -0.4067
  882SOL    HW1 2645   1.711   0.460   0.937 -2.9563  3.2607  0.0049
  882SOL    HW2 2646   1.727   0.298   0.981 -1.1802 -0.8219  0.9050
  883SOL     OW 2647   1.861   0.519   2.193 -0.1568 -0.2284  0.3446
  883SOL    HW1 2648   1.864   0.603   2.254 -0.8551 -0.4529  0.8777
  883SOL    HW2 2649   1.864   0.535   2.093  1.1458  2.7097 -0.9192
  884SOL     OW 2650   2.683   0.501   0.132 -0.6423 -0.4378  0.0605
  884SOL    HW1 2651   2.702   0.401   0.143  2.5392 -4.5759 -1.7753
  884SOL    HW2 2652   2.632   0.518   0.044 -0.7149  1.6955  2.0327
  885SOL     OW 2653   0.795   1.931   0.684  0.3805 -0.1828 -0.5552
  885SOL    HW1 2654   0.866   1.929   0.608 -2.6509 -0.0971 -1.4438
  885SOL    HW2 2655   0.825   1.977   0.770  0.4506  1.2998  2.7928
  886SOL     OW 2656   1.717   1.586   0.250 -0.2198 -0.5518  0.3827
  886SOL    HW1 2657   1.658   1.505   0.245  0.7682  1.5266  0.2849
  886SOL    HW2 2658   1.699   1.641   0.335  0.2945 -0.1535 -0.7200
  887SOL     OW 2659   1.766   0.413   1.574 -0.2807 -0.4748 -0.5071
  887SOL    HW1 2660   1.703   0.340   1.560  0.5098  0.7457  0.4993
  887SOL    HW2 2661   1.725   0.468   1.649  1.6029 -2.2220  2.3387
  888SOL     OW 2662   2.845   0.974   1.451  0.4989  0.4197  0.3947
  888SOL    HW1 2663   2.745   0.991   1.440  0.7028 -1.5846  4.6529
  888SOL    HW2 2664   2.885   0.944   1.365 -0.8194  1.9442  2.0491
  889SOL     OW 2665   2.859   2.586   0.790 -0.3533 -0.3058 -0.1835
  889SOL    HW1 2666   2.932   2.653   0.762  2.0519 -2.7942  0.4716
  889SOL    HW2 2667   2.882   2.551   0.884  0.3385  0.6508  2.2071
  890SOL     OW 2668   0.223   2.217   2.210  0.2049 -0.0750  0.3190
  890SOL    HW1 2669   0.160   2.148   2.254 -1.5285 -0.0144 -0.0301
  890SOL    HW2 2670   0.298   2.168   2.158  0.1412  2.3284 -0.0920
  891SOL     OW 2671   0.710   1.621   0.371  0.4960 -0.0335 -0.4460
  891SOL    HW1 2672   0.686   1.722   0.376 -2.5520 -0.1224 -0.3472
  891SOL    HW2 2673   0.766   1.595   0.449 -1.2658 -0.5401 -0.6897
  892SOL     OW 2674   2.991   2.422   1.305  0.7252  0.3208  0.5437
  892SOL    HW1 2675   3.025   2.517   1.332  2.2142  2.0299 -0.3732
  892SOL    HW2 2676   3.063   2.352   1.300 -1.1370  0.5890  0.3841
  893SOL     OW 2677   2.945   0.261   1.685 -0.2152  0.3214 -0.0289
  893SOL    HW1 2678   2.980   0.233   1.776 -2.2769  0.0908  0.2483
  893SOL    HW2 2679   2.879   0.194   1.643 -1.4721 -0.2852 -0.1583
  894SOL     OW 2680   2.789   1.726   0.689 -0.1641 -0.0205 -0.0356
  894SOL    HW1 2681   2.863   1.690   0.623 -0.5932 -0.8104 -1.8514
  894SOL    HW2 2682   2.799   1.828   0.687 -0.3565  1.2107  0.1911
  895SOL     OW 2683   1.871   2.559   1.617 -0.3543 -0.3258 -0.0216
  895SOL    HW1 2684   1.955   2.535   1.670  1.9676 -0.0432  1.7809
  895SOL    HW2 2685   1.888   2.594   1.523  3.6172  3.3590 -1.8993
  896SOL     OW 2686   0.653   0.022   1.477  0.0322  0.0654  0.0547
  896SOL    HW1 2687   0.578   0.040   1.408  1.5414  0.2028 -0.1897
  896SOL    HW2 2688   0.630   0.053   1.572 -1.1362  0.5595  1.7871
  897SOL     OW 2689   1.113   1.197   1.554  0.5304  0.1021  0.3928
  897SOL    HW1 2690   1.088   1.095   1.568 -0.8907 -1.0777  2.9935
  897SOL    HW2 2691   1.207   1.209   1.522 -0.4553  1.6363  1.0952
  898SOL     OW 2692   1.184   3.046   1.579 -0.0735 -0.2691 -0.6445
  898SOL    HW1 2693   1.094   3.011   1.610 -0.2299  0.2784 -0.5272
  898SOL    HW2 2694   1.227   2.979   1.513 -2.1042 -2.3754 -0.4550
  899SOL     OW 2695   1.441   0.320   2.930  0.3541 -0.4320  0.1436
  899SOL    HW1 2696   1.497   0.258   2.872 -1.2692 -1.5960  0.4394
  899SOL    HW2 2697   1.363   0.352   2.880 -2.0885 -1.3328 -2.5206
  900SOL     OW 2698   0.740   2.972   2.060  0.0083 -0.0812  0.0815
  900SOL    HW1 2699   0.683   2.902   2.018 -2.0269 -3.1361  2.0574
  900SOL    HW2 2700   0.745   3.060   2.000  1.4610  0.1391 -5.8294
  901SOL     OW 2701   0.735   2.191   0.518 -0.2544  0.4524 -0.3500
  901SOL    HW1 2702   0.814   2.259   0.527 -0.5194  0.8237 -1.8220
  901SOL    HW2 2703   0.770   2.097   0.524 -1.0324  0.5759 -0.6447
  902SOL     OW 2704   2.092   0.559   1.051 -0.4157 -0.0666 -0.3211
  902SOL    HW1 2705   2.032   0.639   1.024 -1.1968 -1.0516  0.1639
  902SOL    HW2 2706   2.056   0.463   1.031  0.8934 -1.3609  0.3475
  903SOL     OW 2707   2.684   1.075   2.677 -0.0448 -0.6794 -0.2556
  903SOL    HW1 2708   2.738   1.137   2.736  0.5051 -2.5416 -2.2109
  903SOL    HW2 2709   2.735   1.065   2.586  1.3451 -1.3581 -3.1969
  904SOL     OW 2710   1.326   1.205   0.091  0.4082  0.2666 -0.1037
  904SOL    HW1 2711   1.338   1.116   0.042 -2.6785  1.9863 -0.3574
  904SOL    HW2 2712   1.287   1.278   0.030  0.2682 -0.4155 -1.1457
  905SOL     OW 2713   1.749   2.853   1.385  0.2725 -0.1042 -0.0248
  905SOL    HW1 2714   1.755   2.916   1.466 -1.5230  1.6406  1.8438
  905SOL    HW2 2715   1.796   2.895   1.303 -1.5182 -1.5336 -0.1132
  906SOL     OW 2716   2.288   2.883   1.186  0.1846 -0.0845 -0.4571
  906SOL    HW1 2717   2.379   2.922   1.214 -0.4728  1.0657 -1.0662
  906SOL    HW2 2718   2.258   2.926   1.097  0.6000  3.5403  0.6978
  907SOL     OW 2719   1.746   1.044   0.473  0.1670  0.0375 -0.0272
  907SOL    HW1 2720   1.788   0.961   0.431 -1.1478  0.9476 -1.1374
  907SOL    HW2 2721   1.809   1.126   0.481 -0.7415 -0.3199 -1.3595
  908SOL     OW 2722   1.751   0.239   1.307  0.0119  0.3544 -0.0237
  908SOL    HW1 2723   1.705   0.204   1.390 -1.0993  2.6671 -0.3664
  908SOL    HW2 2724   1.727   0.337   1.290  1.3595  2.2561  1.6250
  909SOL     OW 2725   2.197   0.189   0.857 -0.7130 -0.0848  0.2502
  909SOL    HW1 2726   2.129   0.213   0.928  0.2054  0.3882 -0.6593
  909SOL    HW2 2727   2.277   0.250   0.877 -0.8069 -0.9601 -2.0497
  910SOL     OW 2728   2.443   0.589   1.996 -0.0570  0.4488  0.2240
  910SOL    HW1 2729   2.488   0.680   2.006 -0.9970 -1.1297 -1.9689
  910SOL    HW2 2730   2.341   0.590   2.000 -2.7787 -0.5833 -0.8328
  911SOL     OW 2731   2.518   0.173   2.831 -0.5024  0.1106 -0.3048
  911SOL    HW1 2732   2.461   0.241   2.884 -0.4790  3.0206  2.0744
  911SOL    HW2 2733   2.561   0.212   2.745  1.9750 -2.3744 -1.9728
  912SOL     OW 2734   0.532   1.179   1.812 -0.4426 -0.1859  0.3767
  912SOL    HW1 2735   0.580   1.158   1.722  0.5520  0.2428 -0.7520
  912SOL    HW2 2736   0.587   1.225   1.884 -0.1541  1.1014  1.6021
  913SOL     OW 2737   2.761   2.366   1.454 -0.2008  0.1573 -0.6184
  913SOL    HW1 2738   2.844   2.364   1.394 -1.7113  1.1026  0.6515
  913SOL    HW2 2739   2.713   2.454   1.452 -0.5546 -1.7550  2.3024
  914SOL     OW 2740   1.872   0.882   1.491  0.5997  0.3190  0.2808
  914SOL    HW1 2741   1.947   0.948   1.500 -0.2739  1.0527  0.5969
  914SOL    HW2 2742   1.889   0.812   1.413  1.7623 -3.4990 -3.0180
  915SOL     OW 2743   2.887   1.366   0.749 -0.1230  0.2858  0.1339
  915SOL    HW1 2744   2.871   1.448   0.806 -0.1496  1.2502 -1.1922
  915SOL    HW2 2745   2.982   1.331   0.766 -0.9217  2.5883 -0.0129
  916SOL     OW 2746   1.848   2.235   1.092 -0.0195 -0.3814 -0.0508
  916SOL    HW1 2747   1.807   2.301   1.161  0.0784  0.0287  1.2099
  916SOL    HW2 2748   1.893   2.286   1.015 -1.7778 -1.6655  0.2012
  917SOL     OW 2749   1.677   2.673   2.047 -0.3071 -0.3806 -0.6811
  917SOL    HW1 2750   1.664   2.655   2.147 -1.0997  0.9985  0.3753
  917SOL    HW2 2751   1.593   2.652   1.989 -0.4862 -2.3916 -2.0415
  918SOL     OW 2752   1.929   2.469   2.287  0.0263 -0.1392 -1.2571
  918SOL    HW1 2753   1.908   2.505   2.195 -0.2065  0.5167 -1.0020
  918SOL    HW2 2754   1.882   2.380   2.306 -1.0665 -0.9209  1.6914
  919SOL     OW 2755   0.898   0.081   1.351  0.0719  0.2380  0.0061
  919SOL    HW1 2756   0.811   0.043   1.391  0.1073 -1.5924  1.0806
  919SOL    HW2 2757   0.918   0.176   1.380 -0.6165 -0.2788  1.4022
  920SOL     OW 2758   2.719   0.507   2.213  0.3122 -0.2756  0.0622
  920SOL    HW1 2759   2.616   0.511   2.227 -0.8332  0.3941  1.3067
  920SOL    HW2 2760   2.753   0.419   2.249 -0.6177 -0.7759  2.4654
  921SOL     OW 2761   3.032   1.037   1.627  0.1117 -0.0830 -0.1805
  921SOL    HW1 2762   0.012   0.962   1.596 -0.9218  0.7988 -0.6010
  921SOL    HW2 2763   2.935   1.030   1.585 -1.6261 -1.3421  0.4565
  922SOL     OW 2764   2.540   2.363   0.863  0.4474 -0.1022  0.1649
  922SOL    HW1 2765   2.534   2.462   0.843  1.9661 -0.5715  2.1767
  922SOL    HW2 2766   2.498   2.351   0.953 -1.3348 -0.7609 -2.2058
  923SOL     OW 2767   0.433   2.482   0.753  0.3979 -0.2414  0.7337
  923SOL    HW1 2768   0.483   2.389   0.741  3.1604  0.9696 -1.8296
  923SOL    HW2 2769   0.442   2.511   0.847  0.0654  1.4753 -2.8609
  924SOL     OW 2770   1.128   0.929   2.615 -0.4340 -0.5434  0.1413
  924SOL    HW1 2771   1.113   1.023   2.649  1.5345  0.4429  0.0411
  924SOL    HW2 2772   1.224   0.898   2.607 -0.0242 -0.2659 -3.7711
  925SOL     OW 2773   2.692   1.481   0.480 -0.3640 -0.1438 -0.0582
  925SOL    HW1 2774   2.658   1.463   0.572 -0.2967  0.1153 -0.6379
  925SOL    HW2 2775   2.678   1.400   0.417 -1.3137  1.2283  0.4277
  926SOL     OW 2776   2.994   0.046   0.833 -0.2040  0.3770  0.2532
  926SOL    HW1 2777   0.013   0.079   0.847 -0.4319  0.2999 -1.1894
  926SOL    HW2 2778   2.972   3.048   0.898  0.1602 -0.5801 -0.2008
  927SOL     OW 2779   0.499   1.752   2.637 -0.1806 -0.4800  0.0641
  927SOL    HW1 2780   0.459   1.704   2.718  0.3011 -1.7539  0.1755
  927SOL    HW2 2781   0.435   1.761   2.561  0.8966 -0.9648 -0.7438
  928SOL     OW 2782   0.038   0.509   2.023 -0.4913  0.4208 -0.0594
  928SOL    HW1 2783   0.093   0.426   2.042  0.7658 -2.9655  1.9557
  928SOL    HW2 2784   0.065   0.555   1.938 -0.1714 -2.3225  1.7015
  929SOL     OW 2785   2.817   2.193   1.081  0.1488 -0.1053  0.3243
  929SOL    HW1 2786   2.835   2.171   0.983 -0.7898 -0.0270 -0.4141
  929SOL    HW2 2787   2.729   2.251   1.097 -0.5884  0.6519 -0.1736
  930SOL     OW 2788   2.040   0.330   2.322  0.4775  0.3214  0.3981
  930SOL    HW1 2789   1.969   0.396   2.274 -0.4093 -0.0744 -0.9135
  930SOL    HW2 2790   2.062   0.250   2.262  1.5198  1.2474  1.1195
  931SOL     OW 2791   2.179   1.064   2.776 -0.1273 -0.5506 -0.3624
  931SOL    HW1 2792   2.117   1.148   2.780  0.1857 -1.4097 -1.2327
  931SOL    HW2 2793   2.139   0.981   2.823 -1.8961 -0.1399  0.9297
  932SOL     OW 2794   1.904   1.216   0.777 -0.1573  0.6946  0.3029
  932SOL    HW1 2795   1.848   1.132   0.769  0.8626  1.3163 -0.0735
  932SOL    HW2 2796   1.856   1.290   0.724 -0.3391 -1.7924 -1.0178
  933SOL     OW 2797   2.336   1.581   0.838 -0.5567  0.1763  0.8623
  933SOL    HW1 2798   2.238   1.590   0.874 -0.0461 -0.7925  1.0168
  933SOL    HW2 2799   2.358   1.484   0.815  1.5722  0.6817  0.0585
  934SOL     OW 2800   2.099   0.822   2.875 -0.1698 -0.3388 -0.3704
  934SOL    HW1 2801   2.055   0.752   2.818 -0.6046  2.5449  0.3350
  934SOL    HW2 2802   2.201   0.803   2.880 -2.1487  0.2144 -2.7925
  935SOL     OW 2803   0.164   1.226   0.560 -0.1108  0.1575 -0.2973
  935SOL    HW1 2804   0.206   1.167   0.493  0.3545  0.7906  2.0747
  935SOL    HW2 2805   0.068   1.247   0.541  0.3928 -0.8616  1.9381
  936SOL     OW 2806   0.003   2.777   0.820 -0.0475 -0.0198 -0.2140
  936SOL    HW1 2807   0.048   2.848   0.764  0.9651 -0.6051  1.4620
  936SOL    HW2 2808   0.065   2.705   0.850 -1.5602 -0.7092 -0.1584
  937SOL     OW 2809   0.136   2.267   1.795 -0.6455  0.6740  0.1002
  937SOL    HW1 2810   0.051   2.269   1.735 -1.7877  0.7194 -1.1520
  937SOL    HW2 2811   0.160   2.170   1.827  1.3250 -2.3516 -2.1879
  938SOL     OW 2812   2.796   2.027   0.026 -0.4822 -0.3398 -0.7430
  938SOL    HW1 2813   2.804   2.122   0.058 -0.4594 -0.1427 -1.0487
  938SOL    HW2 2814   2.863   2.007   3.033  0.1643  1.4176  1.9304
  939SOL     OW 2815   0.973   0.899   1.208 -0.1904  0.6584  0.1969
  939SOL    HW1 2816   0.968   0.983   1.152 -1.7425 -0.4413 -0.8203
  939SOL    HW2 2817   0.976   0.815   1.150  0.4486 -0.1327  0.4731
  940SOL     OW 2818   2.692   0.275   2.623  0.1463 -0.0951  0.1000
  940SOL    HW1 2819   2.637   0.233   2.542 -1.7672 -0.9186 -0.8254
  940SOL    HW2 2820   2.788   0.243   2.614  2.8610 -0.4481  0.4317
  941SOL     OW 2821   2.427   2.514   2.482 -0.5308 -0.2281  0.0469
  941SOL    HW1 2822   2.459   2.565   2.403  1.2564 -2.7844  1.2645
  941SOL    HW2 2823   2.332   2.493   2.461 -0.5284  0.8156 -1.1679
  942SOL     OW 2824   1.239   0.102   1.310  0.4182 -0.2078 -0.4305
  942SOL    HW1 2825   1.238   0.074   1.408  0.6171 -1.1706  1.4855
  942SOL    HW2 2826   1.208   0.196   1.313  1.1687 -1.4693  1.5189
  943SOL     OW 2827   0.609   1.542   2.431 -0.0628 -0.2646  1.0618
  943SOL    HW1 2828   0.546   1.578   2.359 -0.0468 -0.2598 -0.5354
  943SOL    HW2 2829   0.632   1.621   2.493 -0.7893  2.1556  0.6121
  944SOL     OW 2830   2.267   0.966   0.736 -0.2991  0.5694 -0.3300
  944SOL    HW1 2831   2.182   0.908   0.742  0.1315 -0.2519  0.1685
  944SOL    HW2 2832   2.256   1.048   0.788  1.5311 -0.3653 -1.7038
  945SOL     OW 2833   3.011   3.058   2.878  0.2604 -0.5791 -0.3311
  945SOL    HW1 2834   3.052   3.061   2.787 -0.6050  1.0182  3.2854
  945SOL    HW2 2835   0.004   0.008   2.951  0.2935  1.3418  1.8759
  946SOL     OW 2836   3.059   1.326   1.565  0.0592 -0.0142 -0.8988
  946SOL    HW1 2837   0.066   1.381   1.582  1.2315 -3.5165 -0.4700
  946SOL    HW2 2838   3.066   1.237   1.609 -1.3608 -0.7786 -0.6837
  947SOL     OW 2839   1.054   0.117   0.093 -0.3468  0.1745 -0.5959
  947SOL    HW1 2840   1.082   0.027   0.051 -0.5763  0.1729  0.2754
  947SOL    HW2 2841   1.114   0.132   0.171  0.1872  1.6772 -3.3900
  948SOL     OW 2842   2.448   1.590   1.111 -0.6423 -0.0373 -0.3429
  948SOL    HW1 2843   2.473   1.494   1.137  0.5905 -0.1720 -1.9856
  948SOL    HW2 2844   2.423   1.586   1.013  1.0981 -2.6739  0.3913
  949SOL     OW 2845   0.335   0.797   2.820  0.5058  0.2289 -0.0859
  949SOL    HW1 2846   0.321   0.846   2.909 -0.4886  0.7050  0.8533
  949SOL    HW2 2847   0.300   0.860   2.744 -0.0307  1.6767 -0.8675
  950SOL     OW 2848   0.321   2.445   1.277 -0.2555  0.3590  0.0652
  950SOL    HW1 2849   0.304   2.515   1.347 -3.0157  1.4577  0.6746
  950SOL    HW2 2850   0.423   2.427   1.278  2.2492 -0.4501  0.5130
  951SOL     OW 2851   0.913   1.655   2.714  0.8356  0.0140  0.0109
  951SOL    HW1 2852   0.866   1.654   2.806  1.2392 -0.8371 -0.8627
  951SOL    HW2 2853   0.851   1.703   2.649 -0.2016 -1.2899  1.4571
  952SOL     OW 2854   0.595   1.307   0.506  0.2569 -0.1755  0.4394
  952SOL    HW1 2855   0.620   1.216   0.549  0.5431 -1.4074 -0.7145
  952SOL    HW2 2856   0.506   1.344   0.546  0.4503  0.8128 -1.5358
  953SOL     OW 2857   2.388   2.074   2.656  0.1253  0.2262 -0.2718
  953SOL    HW1 2858   2.432   2.137   2.585 -0.6014  0.4948 -2.3952
  953SOL    HW2 2859   2.453   2.062   2.733  2.2991 -0.8136 -0.6576
  954SOL     OW 2860   1.814   0.741   0.698  0.1369 -0.1279 -0.0364
  954SOL    HW1 2861   1.735   0.691   0.740 -0.1175  2.1038 -3.0674
  954SOL    HW2 2862   1.797   0.842   0.713  0.7822  1.5482 -1.5381
  955SOL     OW 2863   0.792   2.033   0.180 -0.4990 -0.5735 -0.3809
  955SOL    HW1 2864   0.830   2.110   0.128 -0.0584  2.3800  0.8679
  955SOL    HW2 2865   0.724   1.974   0.127  0.4890 -2.3644  0.2696
  956SOL     OW 2866   2.494   0.280   1.929  0.2012  0.4119  0.7796
  956SOL    HW1 2867   2.444   0.234   1.848  1.3105 -1.4822 -1.8311
  956SOL    HW2 2868   2.480   0.383   1.923 -1.1508 -2.6766  2.9330
  957SOL     OW 2869   1.852   2.097   2.031  0.4540 -0.0225 -0.2022
  957SOL    HW1 2870   1.876   2.174   1.967  0.9228  0.6859  0.7818
  957SOL    HW2 2871   1.875   2.014   1.980 -2.8981  2.5946 -2.0771
  958SOL     OW 2872   1.709   1.113   1.375 -0.3599 -0.6461  0.5193
  958SOL    HW1 2873   1.742   1.208   1.387  3.6498 -2.5125 -1.7187
  958SOL    HW2 2874   1.766   1.052   1.436  0.6611  0.3639  2.0130
  959SOL     OW 2875   1.589   2.020   2.234  0.2317 -0.1298  0.7010
  959SOL    HW1 2876   1.656   1.960   2.280 -2.6396  0.8621  0.8563
  959SOL    HW2 2877   1.620   2.113   2.209 -0.0669 -1.0206  0.1885
  960SOL     OW 2878   0.577   0.718   2.718 -0.1437 -0.4522  0.1562
  960SOL    HW1 2879   0.480   0.737   2.750 -0.8888 -0.8115 -0.6200
  960SOL    HW2 2880   0.631   0.677   2.791 -0.6212 -0.0165 -1.5344
  961SOL     OW 2881   0.015   0.996   2.775 -0.2441 -0.2667 -0.1011
  961SOL    HW1 2882   3.049   0.911   2.737  0.5392 -1.9866 -0.4178
  961SOL    HW2 2883   3.033   1.077   2.756  2.1453  0.5756 -0.8252
  962SOL     OW 2884   1.094   1.967   2.934 -0.0675 -0.5553 -0.2881
  962SOL    HW1 2885   1.041   1.987   2.847  0.3781  1.2604 -1.5173
  962SOL    HW2 2886   1.103   2.053   2.990  1.4796 -1.1365 -1.4266
  963SOL     OW 2887   2.865   1.779   0.234 -0.1115  0.5078 -0.3689
  963SOL    HW1 2888   2.822   1.746   0.149 -1.8034 -1.1929  2.8847
  963SOL    HW2 2889   2.950   1.838   0.218  1.4838  0.8214 -0.9160
  964SOL     OW 2890   0.707   2.248   2.178 -0.2837  0.5115 -0.3171
  964SOL    HW1 2891   0.664   2.319   2.236  0.2862 -0.9958  1.0760
  964SOL    HW2 2892   0.802   2.277   2.152  2.2300 -1.3400  0.9124
  965SOL     OW 2893   1.721   1.762   1.661  0.3087  0.6504  0.8612
  965SOL    HW1 2894   1.815   1.763   1.619 -0.1338  2.1098 -0.8028
  965SOL    HW2 2895   1.729   1.792   1.758  1.5513  3.0810  0.9047
  966SOL     OW 2896   3.069   1.548   0.202 -0.3925  0.1238 -0.1372
  966SOL    HW1 2897   0.062   1.595   0.262 -0.5299  1.5241  0.7702
  966SOL    HW2 2898   2.987   1.602   0.181  0.1300 -1.8658 -0.0763
  967SOL     OW 2899   2.146   2.699   1.987  0.4307 -0.2590  0.2212
  967SOL    HW1 2900   2.064   2.643   1.995  3.9415  2.1226 -0.8662
  967SOL    HW2 2901   2.119   2.791   1.953  0.8024 -3.1871  2.3506
  968SOL     OW 2902   1.263   0.900   0.121  0.6686  0.1181  0.1236
  968SOL    HW1 2903   1.245   0.904   0.021 -0.3414  0.7227  0.3781
  968SOL    HW2 2904   1.335   0.827   0.133  3.1195  0.8891 -0.2716
  969SOL     OW 2905   0.350   1.136   2.444  0.0423 -0.1115 -0.1344
  969SOL    HW1 2906   0.425   1.111   2.383 -1.5703 -0.6882 -0.1297
  969SOL    HW2 2907   0.264   1.135   2.390  1.3861 -1.1525 -0.1114
  970SOL     OW 2908   2.023   2.845   0.791 -0.0031 -0.6438 -0.4171
  970SOL    HW1 2909   2.072   2.897   0.721 -1.3034 -3.6225 -0.3859
  970SOL    HW2 2910   1.938   2.807   0.766  1.7007  3.1845  1.0757
  971SOL     OW 2911   2.167   2.158   0.741  0.7773 -0.1869 -0.1354
  971SOL    HW1 2912   2.194   2.136   0.835 -1.8857  1.4506 -2.3102
  971SOL    HW2 2913   2.218   2.239   0.704 -1.1283 -2.4164 -0.3088
  972SOL     OW 2914   0.141   1.538   2.721  0.2437 -0.2847  0.4100
  972SOL    HW1 2915   0.149   1.546   2.620  0.1853 -0.2890 -1.8876
  972SOL    HW2 2916   0.223   1.579   2.771  2.5539 -1.3778 -0.8106
  973SOL     OW 2917   0.826   0.438   0.256 -0.4138  0.5588  0.3535
  973SOL    HW1 2918   0.921   0.418   0.221  0.7145 -1.7350  2.5091
  973SOL    HW2 2919   0.833   0.510   0.324  1.1411 -0.4182  2.3183
  974SOL     OW 2920   2.569   0.906   1.668 -0.3853 -0.6974  0.3387
  974SOL    HW1 2921   2.575   0.802   1.652 -2.3291 -1.3841 -0.9196
  974SOL    HW2 2922   2.637   0.935   1.737  1.4463  1.3430  0.6198
  975SOL     OW 2923   2.897   0.060   0.562  0.0524  0.3398  0.0576
  975SOL    HW1 2924   2.919   0.019   0.652  0.8797  2.3376  0.8560
  975SOL    HW2 2925   2.798   0.091   0.556 -1.6350  2.5474 -1.3464
  976SOL     OW 2926   0.648   1.639   1.334  0.2294 -0.0452 -0.5073
  976SOL    HW1 2927   0.552   1.633   1.369  2.2012  0.1980 -1.7696
  976SOL    HW2 2928   0.696   1.554   1.356 -1.0495  1.0224 -1.5509
  977SOL     OW 2929   1.278   2.176   0.365  0.1833  0.2694 -0.5944
  977SOL    HW1 2930   1.372   2.206   0.337 -1.0097  0.4345  0.0781
  977SOL    HW2 2931   1.209   2.244   0.349  2.2019 -1.5943  1.7799
  978SOL     OW 2932   0.106   0.594   3.040  0.3407  0.4914 -0.6184
  978SOL    HW1 2933   0.126   0.595   2.941  0.9699 -1.1189 -0.5950
  978SOL    HW2 2934   0.080   0.498   3.065 -0.4708 -0.5667  1.3775
  979SOL     OW 2935   2.092   1.594   0.933 -0.3614  0.1460  0.4886
  979SOL    HW1 2936   2.042   1.511   0.958 -1.2880  0.1371 -0.3814
  979SOL    HW2 2937   2.036   1.655   0.871  0.0552 -0.7720  0.9777
  980SOL     OW 2938   0.584   1.966   1.883 -0.1676 -0.6632 -0.3842
  980SOL    HW1 2939   0.544   1.893   1.828 -1.5707  2.1261  1.5091
  980SOL    HW2 2940   0.652   2.030   1.839  0.6023 -0.4245 -0.7200
  981SOL     OW 2941   2.514   1.359   2.524 -0.1952 -0.3414 -0.2770
  981SOL    HW1 2942   2.567   1.335   2.608  1.4673 -1.1013  2.1523
  981SOL    HW2 2943   2.417   1.366   2.548  0.8021 -0.6231 -3.3223
  982SOL     OW 2944   0.243   2.041   1.917 -0.3107  0.6133 -0.0697
  982SOL    HW1 2945   0.249   1.966   1.849 -1.9412 -0.6665  0.3323
  982SOL    HW2 2946   0.335   2.071   1.949 -1.3244  1.0420  0.0395
  983SOL     OW 2947   1.612   0.432   1.834 -0.4211 -0.0412  0.1080
  983SOL    HW1 2948   1.537   0.429   1.767 -2.2508 -0.9960  0.6347
  983SOL    HW2 2949   1.640   0.332   1.847 -1.0233  0.0515  0.2281
  984SOL     OW 2950   2.823   2.870   2.899 -0.5881 -0.2142  0.2571
  984SOL    HW1 2951   2.903   2.929   2.906  2.1927  1.4711 -1.4896
  984SOL    HW2 2952   2.738   2.925   2.894 -3.6066  3.1374  0.2081
  985SOL     OW 2953   1.429   1.409   1.726 -0.6698  0.6099  0.2982
  985SOL    HW1 2954   1.360   1.473   1.766 -0.5682  0.0064  0.7452
  985SOL    HW2 2955   1.470   1.355   1.799 -0.8960 -1.7682 -2.0761
  986SOL     OW 2956   1.956   0.201   2.829  0.0936 -0.5510 -0.1163
  986SOL    HW1 2957   2.017   0.144   2.889  1.6817 -1.4404  1.2709
  986SOL    HW2 2958   1.886   0.254   2.885 -0.2598 -2.2072 -2.1620
  987SOL     OW 2959   2.799   1.621   2.765 -0.3234  0.1156 -0.4196
  987SOL    HW1 2960   2.885   1.602   2.815 -2.1250  1.0264 -1.9067
  987SOL    HW2 2961   2.788   1.718   2.741 -2.4186  1.5942 -1.0068
  988SOL     OW 2962   0.029   0.210   1.193  0.4303 -0.0445  0.2399
  988SOL    HW1 2963   3.027   0.162   1.152 -2.1604 -3.0038 -1.5539
  988SOL    HW2 2964   0.011   0.243   1.287  1.7283 -1.1276 -3.2495
  989SOL     OW 2965   2.021   0.282   1.021  0.7417  0.6511 -0.2066
  989SOL    HW1 2966   1.928   0.299   0.988  0.9220 -1.2860  0.0317
  989SOL    HW2 2967   2.025   0.241   1.115 -2.1117  0.8533  0.9831
  990SOL     OW 2968   2.533   0.530   2.976  0.0059  0.2837  0.5874
  990SOL    HW1 2969   2.620   0.523   2.925  2.4320 -2.4562 -0.4045
  990SOL    HW2 2970   2.476   0.605   2.935  2.5357 -1.4553 -0.0257
  991SOL     OW 2971   0.060   1.321   0.054 -0.1153  0.1724  0.2832
  991SOL    HW1 2972   0.016   1.245   0.105  1.1316  0.5181 -0.5736
  991SOL    HW2 2973   0.027   1.408   0.093 -1.6020  2.4112  0.8530
  992SOL     OW 2974   2.031   1.535   1.802 -0.7658 -0.3421  0.1707
  992SOL    HW1 2975   2.094   1.534   1.881  0.0308 -2.6813 -1.5722
  992SOL    HW2 2976   2.027   1.439   1.767  0.8246  1.1349  1.6701
  993SOL     OW 2977   0.178   2.591   0.844 -0.7535  0.1015  0.7209
  993SOL    HW1 2978   0.209   2.532   0.923  0.1923 -1.7081  1.1349
  993SOL    HW2 2979   0.246   2.600   0.771 -0.0450  1.9245  2.3756
  994SOL     OW 2980   2.857   1.649   1.996 -0.3431  0.4553  0.5516
  994SOL    HW1 2981   2.757   1.672   1.985  0.3060  0.7879 -0.1383
  994SOL    HW2 2982   2.900   1.651   1.902 -2.1166  1.4457  0.5723
  995SOL     OW 2983   1.905   1.964   2.534 -0.7573 -0.5286 -0.3076
  995SOL    HW1 2984   1.970   2.020   2.485  0.0711  2.3882  0.3459
  995SOL    HW2 2985   1.852   1.902   2.468  0.8762 -2.7850 -0.6148
  996SOL     OW 2986   2.189   2.252   0.380  0.0229  0.1161 -0.3222
  996SOL    HW1 2987   2.115   2.273   0.313 -0.8333 -1.0421  0.3938
  996SOL    HW2 2988   2.204   2.150   0.400  0.4180 -1.9426 -0.4125
  997SOL     OW 2989   1.123   1.576   2.372 -0.1359  0.4086 -0.2479
  997SOL    HW1 2990   1.024   1.563   2.399 -0.7503  1.8177  0.9842
  997SOL    HW2 2991   1.157   1.524   2.291  3.6642  2.6248  2.2338
  998SOL     OW 2992   2.927   2.335   0.665 -0.0671  0.0912 -0.4007
  998SOL    HW1 2993   2.913   2.434   0.682  1.7308 -1.0687 -1.0713
  998SOL    HW2 2994   2.957   2.309   0.573  0.5914 -0.8274 -1.1964
  999SOL     OW 2995   0.425   2.990   0.543 -0.3020 -0.3131  0.2097
  999SOL    HW1 2996   0.343   2.962   0.482 -2.2273 -1.6025 -0.8697
  999SOL    HW2 2997   0.460   2.911   0.596  1.6632  0.7485  0.7992
 1000SOL     OW 2998   1.398   0.218   0.100 -0.0202  0.2213 -0.3554
 1000SOL    HW1 2999   1.479   0.168   0.143  1.7963  1.6456  0.1852
 1000SOL    HW2 3000   1.414   0.230   0.002 -0.9394  2.0679 -0.2359
   3.07652   3.07652   3.07652
