1000 SPC/Fw water molecules t= 458.00000 step= 458000
 3000
    1SOL     OW    1   2.945   2.891   1.401  0.2032  0.3813  0.2206
    1SOL    HW1    2   2.916   2.916   1.306 -2.4810  3.4907 -1.5078
    1SOL    HW2    3   2.883   2.826   1.456 -0.4466 -1.5572  3.7722
    2SOL     OW    4   2.748   0.219   0.109  0.3845  0.1383  0.0181
    2SOL    HW1    5   2.802   0.146   0.077 -4.3296  3.2777 -3.3189
    2SOL    HW2    6   2.651   0.186   0.134 -1.6410 -1.5371 -1.5921
    3SOL     OW    7   1.355   2.676   0.217 -0.8211  0.0215  0.2580
    3SOL    HW1    8   1.320   2.593   0.166  0.3419  2.5519  0.0899
    3SOL    HW2    9   1.458   2.684   0.209  3.0213 -0.4289 -1.9752
    4SOL     OW   10   1.424   2.503   2.474  0.1962  0.2254  0.1066
    4SOL    HW1   11   1.495   2.481   2.540 -1.5328  1.7481  1.7024
    4SOL    HW2   12   1.329   2.484   2.510 -0.7048 -1.4692  2.3272
    5SOL     OW   13   2.157   0.305   2.113  0.2172 -0.2745 -0.8850
    5SOL    HW1   14   2.199   0.236   2.056  0.4304  0.2111  1.1242
    5SOL    HW2   15   2.207   0.393   2.113  0.7996 -1.3252  4.3783
    6SOL     OW   16   2.621   1.791   1.118 -0.3988 -0.4235  0.3853
    6SOL    HW1   17   2.612   1.693   1.128  1.9361  2.7772 -0.6936
    6SOL    HW2   18   2.530   1.831   1.125  0.1351 -0.6277 -3.3775
    7SOL     OW   19   1.116   2.111   0.569  0.2438 -0.0827 -0.2883
    7SOL    HW1   20   1.078   2.058   0.653  0.5108 -0.0865  2.1024
    7SOL    HW2   21   1.104   2.070   0.481  1.4738 -0.1751  1.1273
    8SOL     OW   22   0.085   0.628   0.474  0.3945 -0.3900  0.0811
    8SOL    HW1   23   0.174   0.677   0.481 -1.1967  1.2531 -1.6788
    8SOL    HW2   24   0.029   0.657   0.397 -0.6078  1.8203  1.4844
    9SOL     OW   25   0.260   2.901   1.491 -0.2727 -0.0794 -0.2017
    9SOL    HW1   26   0.315   2.817   1.478  1.4985  0.7052 -2.1539
    9SOL    HW2   27   0.182   2.888   1.560  0.2766  1.3032  2.3414
   10SOL     OW   28   1.228   2.354   0.601 -0.0570 -0.2849 -0.3477
   10SOL    HW1   29   1.189   2.259   0.588  2.2324  1.5496  1.0149
   10SOL    HW2   30   1.167   2.429   0.625  0.2705 -1.9025  0.1131
   11SOL     OW   31   2.141   1.037   1.330 -0.2754  0.4628  0.2630
   11SOL    HW1   32   2.197   0.949   1.325 -0.2552 -1.5422 -0.0812
   11SOL    HW2   33   2.086   1.056   1.418  0.7054 -1.3396 -0.7324
   12SOL     OW   34   0.324   0.739   2.126  0.4212 -0.1778  0.5246
   12SOL    HW1   35   0.339   0.771   2.025 -1.3867 -1.7625 -2.5912
   12SOL    HW2   36   0.414   0.691   2.154  3.6958  0.1509  0.0282
   13SOL     OW   37   2.081   0.258   0.283 -0.6206  0.2966  0.5924
   13SOL    HW1   38   2.129   0.237   0.198  2.0670 -2.6722  1.0273
   13SOL    HW2   39   1.981   0.249   0.262  1.5113 -1.7896  1.4466
   14SOL     OW   40   1.832   2.074   0.066  0.3367 -0.4723 -0.2192
   14SOL    HW1   41   1.911   2.022   0.100  2.5449  2.7290  1.6769
   14SOL    HW2   42   1.766   2.017   0.017 -0.0144 -0.6364  3.1678
   15SOL     OW   43   0.173   2.895   2.449  0.1456 -0.6952 -0.3376
   15SOL    HW1   44   0.108   2.882   2.374  2.4046 -2.2682  0.9256
   15SOL    HW2   45   0.164   2.991   2.488 -1.4178  2.3137 -0.3598
   16SOL     OW   46   2.891   0.597   1.056 -0.1309 -0.4583  0.0677
   16SOL    HW1   47   2.920   0.570   0.960 -1.0480  1.2278 -0.3591
   16SOL    HW2   48   2.871   0.519   1.120 -0.5748  1.3388 -0.5381
   17SOL     OW   49   0.688   0.254   0.870 -0.0962  0.3956  0.1487
   17SOL    HW1   50   0.727   0.208   0.951 -2.9889  2.2170 -0.2689
   17SOL    HW2   51   0.763   0.266   0.801 -0.1126  1.0069  1.6374
   18SOL     OW   52   0.078   0.193   0.588  0.2738  0.0170  0.3623
   18SOL    HW1   53   0.028   0.170   0.674 -0.9785  0.2798  0.3766
   18SOL    HW2   54   0.150   0.129   0.571  0.0955  2.1054 -1.1604
   19SOL     OW   55   1.474   1.045   1.160 -0.0146 -0.4426 -0.1087
   19SOL    HW1   56   1.487   1.103   1.078 -0.4574 -0.2032  2.9295
   19SOL    HW2   57   1.382   1.021   1.187  1.6199  0.3746  1.3189
   20SOL     OW   58   2.394   1.823   2.454  0.5512 -0.0424 -0.2000
   20SOL    HW1   59   2.431   1.915   2.474 -0.3017 -1.2655 -2.2983
   20SOL    HW2   60   2.421   1.761   2.526  3.2823 -0.3000 -1.2260
   21SOL     OW   61   1.299   2.904   0.449  0.4513 -0.0197 -0.1333
   21SOL    HW1   62   1.376   2.852   0.494 -0.6017  0.9737 -0.5957
   21SOL    HW2   63   1.325   2.935   0.355  0.7386 -0.6785 -0.4218
   22SOL     OW   64   2.465   0.892   0.126 -0.4375  0.2386  0.3947
   22SOL    HW1   65   2.450   0.993   0.122  0.3607 -0.0247 -1.6363
   22SOL    HW2   66   2.478   0.861   0.225 -0.2624 -0.4714  1.0518
   23SOL     OW   67   1.030   0.327   2.014  0.1035 -0.1028 -0.3052
   23SOL    HW1   68   1.010   0.232   1.990  0.2109 -2.3131 -1.5749
   23SOL    HW2   69   1.114   0.345   2.070  0.2552  0.5335  0.8697
   24SOL     OW   70   1.907   2.318   0.870  0.1027  0.0202 -0.2138
   24SOL    HW1   71   2.001   2.337   0.850  1.3256  0.3619 -1.1556
   24SOL    HW2   72   1.853   2.401   0.864 -0.4297 -1.0219 -0.2188
   25SOL     OW   73   1.648   0.034   2.743 -0.3357  0.1368 -0.3952
   25SOL    HW1   74   1.604   0.123   2.731  0.7802 -0.1984  1.1202
   25SOL    HW2   75   1.613   3.074   2.829 -1.3179  0.6755  0.8524
   26SOL     OW   76   1.258   2.956   2.683 -0.2823  0.4250  0.5082
   26SOL    HW1   77   1.323   2.906   2.625 -1.7921 -2.2893  3.8853
   26SOL    HW2   78   1.194   2.886   2.726 -0.3825  0.2085 -0.2182
   27SOL     OW   79   1.189   0.380   1.220 -0.8713 -0.0542 -0.2316
   27SOL    HW1   80   1.175   0.329   1.134 -1.4075  1.4810 -0.1621
   27SOL    HW2   81   1.184   0.317   1.299 -0.1841  0.4747 -1.0557
   28SOL     OW   82   0.249   1.879   0.991  0.2286  0.7598 -0.6658
   28SOL    HW1   83   0.349   1.862   0.977  1.1786  0.5483  2.5968
   28SOL    HW2   84   0.225   1.884   1.090 -1.3972  1.5629  1.0601
   29SOL     OW   85   2.553   1.067   1.175 -0.0190  0.2084 -0.4314
   29SOL    HW1   86   2.527   0.970   1.157 -1.9376  0.1809  1.8163
   29SOL    HW2   87   2.564   1.081   1.274 -2.5230  1.3420 -0.4978
   30SOL     OW   88   1.772   2.881   1.449 -0.3760 -0.4079 -0.4119
   30SOL    HW1   89   1.724   2.805   1.397 -0.8191  1.7433  0.0820
   30SOL    HW2   90   1.705   2.948   1.490  0.8759 -1.2026 -1.4340
   31SOL     OW   91   1.394   2.816   1.263  0.1103 -0.1260 -0.1370
   31SOL    HW1   92   1.379   2.821   1.163 -0.6741  0.0382  1.5890
   31SOL    HW2   93   1.375   2.715   1.285  1.1616 -3.3911 -1.0347
   32SOL     OW   94   2.221   1.413   1.908  0.5590 -0.1396 -0.2634
   32SOL    HW1   95   2.267   1.462   1.827  3.2977  1.3577 -2.7436
   32SOL    HW2   96   2.133   1.364   1.881 -2.2038 -2.3000 -0.8717
   33SOL     OW   97   2.235   2.959   2.415 -0.2186  0.4773 -0.3169
   33SOL    HW1   98   2.210   3.015   2.496  2.6919  0.0813  1.5916
   33SOL    HW2   99   2.259   3.019   2.338  2.0098 -1.2385  1.1339
   34SOL     OW  100   2.037   0.926   0.714  0.5027 -0.3748 -0.1528
   34SOL    HW1  101   2.059   0.848   0.646  1.0279 -1.5919 -1.0910
   34SOL    HW2  102   1.955   0.907   0.771  0.7146 -1.4647 -0.3124
   35SOL     OW  103   0.170   1.469   1.838  0.0645 -0.3417 -0.5896
   35SOL    HW1  104   0.143   1.502   1.930 -3.1873 -2.9719  0.0959
   35SOL    HW2  105   0.100   1.488   1.768 -2.9934 -2.1146  0.3321
   36SOL     OW  106   2.555   2.486   2.821  0.3706 -0.6440  0.0886
   36SOL    HW1  107   2.464   2.511   2.860 -0.0452 -0.2731  0.9021
   36SOL    HW2  108   2.530   2.446   2.733 -1.2908  2.1542  1.6062
   37SOL     OW  109   1.430   2.472   1.945  0.2042 -0.0688 -0.7299
   37SOL    HW1  110   1.502   2.527   1.993  2.6008 -0.7865 -1.5516
   37SOL    HW2  111   1.348   2.528   1.937  3.5706 -0.5277 -0.1465
   38SOL     OW  112   0.824   1.032   2.318 -0.1081 -0.2403 -0.2404
   38SOL    HW1  113   0.833   0.952   2.378 -1.3540  3.1509 -1.5273
   38SOL    HW2  114   0.901   1.046   2.256  1.6445  1.1470 -0.7880
   39SOL     OW  115   1.842   0.711   1.903  0.1809 -0.4443 -0.4815
   39SOL    HW1  116   1.789   0.645   1.846 -0.6707 -0.4873  1.8053
   39SOL    HW2  117   1.901   0.665   1.976  1.2303 -1.2624  3.2037
   40SOL     OW  118   0.839   2.328   0.725 -0.2036 -0.2371  0.4448
   40SOL    HW1  119   0.783   2.396   0.775 -0.3014  0.8670  0.0566
   40SOL    HW2  120   0.872   2.251   0.786  1.0493 -1.8159 -0.2449
   41SOL     OW  121   2.376   1.964   1.109 -0.3227  0.0919 -0.8152
   41SOL    HW1  122   2.322   1.921   1.185  2.2564 -0.7252  0.1129
   41SOL    HW2  123   2.387   2.066   1.128  1.5376 -0.3782  0.7740
   42SOL     OW  124   2.431   0.552   0.307 -0.1474  0.1970  0.0536
   42SOL    HW1  125   2.460   0.521   0.215 -0.7984 -2.0627  0.6760
   42SOL    HW2  126   2.452   0.481   0.380 -1.6979 -1.8753 -3.2538
   43SOL     OW  127   0.696   1.255   2.408 -0.5199 -0.3813 -0.0788
   43SOL    HW1  128   0.609   1.266   2.361 -0.5280  0.6187  3.7359
   43SOL    HW2  129   0.741   1.174   2.366  1.9602  0.8391  1.8973
   44SOL     OW  130   1.668   2.678   1.287  0.0832 -0.1353 -0.4701
   44SOL    HW1  131   1.574   2.640   1.271 -1.3450 -0.7355  2.3902
   44SOL    HW2  132   1.734   2.595   1.297  4.0046 -0.3242  0.3820
   45SOL     OW  133   0.568   2.428   2.818 -0.6535 -0.4472 -0.1107
   45SOL    HW1  134   0.487   2.409   2.871  1.3214  1.5692 -0.6328
   45SOL    HW2  135   0.586   2.531   2.810  1.2189  2.2039  1.0412
   46SOL     OW  136   0.489   2.684   2.029 -0.6163 -0.1539  0.2725
   46SOL    HW1  137   0.563   2.713   1.964 -0.1606 -0.4618 -0.9209
   46SOL    HW2  138   0.527   2.660   2.121 -0.2985 -0.4747  2.4520
   47SOL     OW  139   0.414   1.649   0.752  0.6073 -0.3421 -0.0764
   47SOL    HW1  140   0.481   1.584   0.717 -1.1631  0.1014 -0.7409
   47SOL    HW2  141   0.452   1.713   0.825 -2.1079  0.3192  0.7395
   48SOL     OW  142   0.694   2.967   1.366 -0.1490 -0.4057  0.0337
   48SOL    HW1  143   0.709   2.976   1.469  0.8156  2.0298  0.2492
   48SOL    HW2  144   0.638   3.046   1.342  1.8956 -2.6541  2.3260
   49SOL     OW  145   0.034   3.014   3.032  0.2070  0.6256 -0.0517
   49SOL    HW1  146   0.094   3.071   0.020  1.2011 -0.6309  0.0006
   49SOL    HW2  147   3.014   3.021   3.073 -1.8098  1.7856  1.7445
   50SOL     OW  148   1.381   1.028   0.287  0.4429 -0.3152  0.1215
   50SOL    HW1  149   1.293   0.977   0.307  1.6107 -0.9660  0.9832
   50SOL    HW2  150   1.353   1.126   0.269 -1.6253  0.3845 -0.8959
   51SOL     OW  151   1.862   0.108   0.447 -0.0766  0.0692 -0.5047
   51SOL    HW1  152   1.786   0.126   0.383  1.0621 -0.8727 -1.6136
   51SOL    HW2  153   1.864   0.167   0.528 -1.3567  1.5132 -3.3999
   52SOL     OW  154   0.216   1.417   1.009  0.1731 -0.5085  0.0920
   52SOL    HW1  155   0.315   1.416   0.989 -0.1059  3.9215 -0.5205
   52SOL    HW2  156   0.160   1.447   0.928  0.0074 -0.5826 -1.0073
   53SOL     OW  157   0.258   0.988   2.921  0.1635  0.1366  0.1923
   53SOL    HW1  158   0.207   1.057   2.975 -0.4476 -1.8256  0.0090
   53SOL    HW2  159   0.325   0.936   2.977 -0.6973 -2.1042  0.2919
   54SOL     OW  160   2.658   2.253   2.943 -0.2709  0.4752  0.2274
   54SOL    HW1  161   2.699   2.273   3.035  1.7273 -1.1876  2.6407
   54SOL    HW2  162   2.604   2.331   2.903  0.3504  0.1598 -1.2810
   55SOL     OW  163   2.537   2.239   1.148  0.2627 -0.2504 -0.8972
   55SOL    HW1  164   2.627   2.233   1.199  1.7799  0.4232 -0.3546
   55SOL    HW2  165   2.463   2.244   1.218  1.4113 -0.1207 -0.7602
   56SOL     OW  166   1.821   0.448   1.117  0.1701  0.3761 -0.0276
   56SOL    HW1  167   1.786   0.366   1.075  1.8512  2.5306  1.1270
   56SOL    HW2  168   1.833   0.521   1.047 -0.4538  1.0313 -0.6571
   57SOL     OW  169   1.966   1.908   1.155 -0.0174 -0.1192  0.5538
   57SOL    HW1  170   1.933   1.846   1.081  0.4790  2.1433  0.4517
   57SOL    HW2  171   1.956   2.005   1.126 -0.4012  0.1782 -0.6101
   58SOL     OW  172   2.601   0.392   2.151  0.5050 -0.0056  0.6236
   58SOL    HW1  173   2.640   0.418   2.241  0.4959 -2.8172  0.6125
   58SOL    HW2  174   2.500   0.412   2.146 -0.5968  2.4321 -0.6974
   59SOL     OW  175   1.395   2.209   1.973  0.1401 -0.0382  0.7774
   59SOL    HW1  176   1.310   2.184   2.021 -0.6932  1.1107  0.3039
   59SOL    HW2  177   1.407   2.309   1.954  0.5560  0.8150  0.2696
   60SOL     OW  178   0.846   2.373   2.859  0.1402  0.2325  0.3852
   60SOL    HW1  179   0.838   2.272   2.866 -1.6192  1.9588 -2.2121
   60SOL    HW2  180   0.766   2.419   2.899  1.1631  1.4191 -0.5693
   61SOL     OW  181   0.586   2.036   0.294  0.1865  0.1226  0.1185
   61SOL    HW1  182   0.649   2.080   0.227 -1.2988  3.1918 -1.8095
   61SOL    HW2  183   0.513   1.978   0.249 -0.0382 -3.1792 -0.5160
   62SOL     OW  184   1.208   1.390   1.734  0.2830 -0.6033  0.0387
   62SOL    HW1  185   1.122   1.369   1.777 -0.1710  0.4540 -2.4908
   62SOL    HW2  186   1.211   1.346   1.645  1.3961  0.2910  0.7251
   63SOL     OW  187   1.050   1.920   0.772 -0.0443 -0.0042 -0.4427
   63SOL    HW1  188   0.970   1.863   0.780  0.9174  2.7265  0.9392
   63SOL    HW2  189   1.115   1.872   0.712 -0.3724  1.8574  0.3462
   64SOL     OW  190   1.355   1.392   2.712 -0.3138  0.3706 -0.5291
   64SOL    HW1  191   1.453   1.369   2.689  1.1536 -0.4633  1.7287
   64SOL    HW2  192   1.342   1.487   2.740 -1.3394  0.4512  0.1084
   65SOL     OW  193   1.674   1.844   1.785 -0.0517 -0.3611  0.2334
   65SOL    HW1  194   1.734   1.915   1.744  0.3984 -0.2907 -0.1592
   65SOL    HW2  195   1.599   1.889   1.836 -0.3021 -0.3292 -3.6325
   66SOL     OW  196   0.048   0.938   0.928  0.2952  0.0326 -0.4276
   66SOL    HW1  197   3.028   0.913   0.942  1.8710  0.7891 -2.9721
   66SOL    HW2  198   0.085   0.859   0.872 -1.1853  1.6367 -2.7849
   67SOL     OW  199   2.149   2.464   0.852 -0.8287 -0.3266 -0.6250
   67SOL    HW1  200   2.233   2.414   0.822 -0.6093 -0.7646 -1.2315
   67SOL    HW2  201   2.157   2.565   0.835  2.2363  1.5699 -0.3260
   68SOL     OW  202   2.301   2.574   1.592  0.5475  0.1265  0.9441
   68SOL    HW1  203   2.282   2.643   1.516 -1.8484 -0.1386 -0.4071
   68SOL    HW2  204   2.362   2.614   1.661  0.6955  0.2585 -1.1091
   69SOL     OW  205   2.420   2.776   2.986 -0.4209  0.4210 -0.1858
   69SOL    HW1  206   2.380   2.786   2.894 -2.5539 -1.0621 -0.0206
   69SOL    HW2  207   2.398   2.864   3.037  0.5016  0.0374  3.1434
   70SOL     OW  208   0.643   1.489   2.592  0.1236  0.0106 -0.4572
   70SOL    HW1  209   0.668   1.392   2.607 -1.7650 -0.5218 -0.9461
   70SOL    HW2  210   0.556   1.487   2.541 -0.0420  3.5092  4.1405
   71SOL     OW  211   0.737   1.432   2.015  0.5308 -0.7765  0.7291
   71SOL    HW1  212   0.668   1.357   1.990 -1.1903 -1.8889 -0.3259
   71SOL    HW2  213   0.703   1.525   2.029  0.2584  0.3565 -0.8904
   72SOL     OW  214   2.931   1.251   1.576  0.1646 -0.4119 -0.0538
   72SOL    HW1  215   2.893   1.338   1.529 -2.4935  1.2639 -1.3010
   72SOL    HW2  216   2.861   1.211   1.643 -1.1462 -0.1660  3.0726
   73SOL     OW  217   0.716   2.373   2.430  0.4119 -0.0893 -0.7032
   73SOL    HW1  218   0.650   2.304   2.467 -2.1307  2.4617 -3.5418
   73SOL    HW2  219   0.750   2.351   2.340  2.5111  0.2418  1.3575
   74SOL     OW  220   1.469   3.055   1.967  0.0673  0.2145 -0.0631
   74SOL    HW1  221   1.474   2.970   1.919 -0.5512  2.5446  0.1962
   74SOL    HW2  222   1.526   3.053   2.051 -2.1724  1.4347 -0.7545
   75SOL     OW  223   1.117   3.048   0.623  0.2591  0.2232 -0.4061
   75SOL    HW1  224   1.154   0.063   0.601 -0.8517  1.4537 -2.9941
   75SOL    HW2  225   1.188   2.980   0.593  1.7423 -1.2785 -0.3523
   76SOL     OW  226   0.506   1.979   2.670 -0.1366 -0.0733  0.1183
   76SOL    HW1  227   0.603   1.948   2.657  1.0307  0.6186 -0.9214
   76SOL    HW2  228   0.435   1.916   2.630  1.9258  0.9306 -0.4717
   77SOL     OW  229   0.549   2.469   1.248  0.4272  0.2404 -0.6939
   77SOL    HW1  230   0.573   2.378   1.205  1.2494 -2.0876  0.3813
   77SOL    HW2  231   0.530   2.548   1.186  0.0420  0.6335 -1.7474
   78SOL     OW  232   2.466   1.172   0.193 -0.1808  0.3782 -0.0688
   78SOL    HW1  233   2.453   1.274   0.176 -2.2299  0.9912  0.9560
   78SOL    HW2  234   2.469   1.152   0.293 -1.2413  0.1042 -1.1607
   79SOL     OW  235   0.623   1.610   2.842  0.0621  0.2342  0.4620
   79SOL    HW1  236   0.677   1.552   2.910  0.7634 -1.4189 -0.8579
   79SOL    HW2  237   0.648   1.586   2.745  0.8666  1.8556  0.4661
   80SOL     OW  238   1.793   1.538   1.636 -0.5231  0.2313  0.2247
   80SOL    HW1  239   1.780   1.505   1.729 -0.8223  0.8341  1.9068
   80SOL    HW2  240   1.831   1.468   1.572 -2.0693 -1.5036  0.6629
   81SOL     OW  241   2.074   0.985   2.357 -0.1989  0.1256  0.4012
   81SOL    HW1  242   2.025   0.913   2.302 -0.3826  2.4746 -0.5168
   81SOL    HW2  243   2.171   0.980   2.327 -0.2132  1.4963  2.6490
   82SOL     OW  244   1.672   1.784   1.486  0.2812  0.8585  0.3441
   82SOL    HW1  245   1.577   1.818   1.475  3.1261 -1.3431  1.3192
   82SOL    HW2  246   1.691   1.754   1.580  1.5795  0.4968 -0.6107
   83SOL     OW  247   2.905   3.028   2.649  0.0176 -0.0231  0.3471
   83SOL    HW1  248   2.934   3.061   2.556  1.2579 -1.4700  2.2033
   83SOL    HW2  249   2.860   2.930   2.639 -2.3826 -3.5404 -0.1636
   84SOL     OW  250   0.995   0.816   0.637 -0.2024 -0.3721 -0.2032
   84SOL    HW1  251   0.955   0.891   0.574  1.6149  0.6402 -1.8028
   84SOL    HW2  252   1.000   0.839   0.738  2.0092 -1.9909 -0.1347
   85SOL     OW  253   2.212   1.786   1.260 -0.0175  0.8897  0.7034
   85SOL    HW1  254   2.121   1.828   1.239  1.7019 -0.9777 -3.1600
   85SOL    HW2  255   2.213   1.686   1.225 -0.2815 -1.3954 -1.9237
   86SOL     OW  256   0.782   0.932   1.381  0.1047 -0.1369  0.6087
   86SOL    HW1  257   0.721   0.987   1.325 -0.0169 -2.3544  1.2627
   86SOL    HW2  258   0.731   0.892   1.457 -0.2760  5.5656 -0.1289
   87SOL     OW  259   2.999   2.286   2.388 -0.1127  0.3987  1.0415
   87SOL    HW1  260   2.960   2.226   2.311  1.5643  1.0708 -1.0311
   87SOL    HW2  261   2.931   2.358   2.408  1.2156 -2.6445 -0.6459
   88SOL     OW  262   0.075   2.844   0.368 -0.4571 -0.1683 -0.2096
   88SOL    HW1  263   0.027   2.929   0.342 -1.2927  1.0349 -1.2324
   88SOL    HW2  264   0.175   2.862   0.379  1.0035 -1.4091  0.0614
   89SOL     OW  265   1.306   0.189   0.556 -0.4188 -0.2396 -0.0168
   89SOL    HW1  266   1.383   0.119   0.565  1.9168 -0.3293  1.5980
   89SOL    HW2  267   1.345   0.276   0.521 -2.2684  2.9316 -0.7835
   90SOL     OW  268   2.655   1.006   2.108 -0.4491 -0.1742 -0.1184
   90SOL    HW1  269   2.610   1.030   2.199 -1.5504  0.9379  0.3848
   90SOL    HW2  270   2.592   0.947   2.049  0.7816  0.9432 -1.6559
   91SOL     OW  271   2.000   2.905   0.941  0.3227  0.1736 -0.1134
   91SOL    HW1  272   1.927   2.864   0.997 -0.0252 -0.8165  0.6886
   91SOL    HW2  273   2.032   2.836   0.875 -0.4210  0.7448 -0.0666
   92SOL     OW  274   1.656   1.733   0.539  0.2447  0.3278 -0.0039
   92SOL    HW1  275   1.698   1.651   0.585  2.8236  0.5890 -0.6870
   92SOL    HW2  276   1.720   1.782   0.473  0.1443 -1.1371 -3.7569
   93SOL     OW  277   0.397   1.541   0.434 -0.4234 -0.3403  0.5607
   93SOL    HW1  278   0.368   1.622   0.487 -0.8507  2.0668  0.3013
   93SOL    HW2  279   0.478   1.557   0.376 -2.1656 -0.4248  0.7151
   94SOL     OW  280   0.741   2.495   1.453 -0.6067  0.3036  0.1894
   94SOL    HW1  281   0.797   2.410   1.437  1.0747 -1.8636 -1.0678
   94SOL    HW2  282   0.668   2.499   1.381  3.5676 -1.6256  1.2565
   95SOL     OW  283   0.149   0.779   0.724 -0.2340 -0.0315  0.0399
   95SOL    HW1  284   0.210   0.705   0.762  2.8319 -0.3904 -0.6311
   95SOL    HW2  285   0.111   0.742   0.640 -1.1405  0.3670  1.6414
   96SOL     OW  286   0.673   2.727   1.837 -0.1881  0.0795  0.4203
   96SOL    HW1  287   0.605   2.789   1.792 -0.4926  0.1149 -2.2428
   96SOL    HW2  288   0.670   2.631   1.793 -1.0141 -4.1289 -1.1422
   97SOL     OW  289   2.467   0.868   0.871  0.1905 -0.4869  0.5799
   97SOL    HW1  290   2.460   0.827   0.966  2.6939  0.8194 -0.4075
   97SOL    HW2  291   2.383   0.924   0.852 -0.4592 -0.5736 -0.5471
   98SOL     OW  292   0.199   2.133   1.950  0.0033  0.1795 -0.3903
   98SOL    HW1  293   0.236   2.046   1.914 -0.9737 -0.2744 -1.7504
   98SOL    HW2  294   0.102   2.144   1.924 -1.6543 -0.4957  0.2401
   99SOL     OW  295   2.963   0.370   1.464  0.0705  0.3497  0.2614
   99SOL    HW1  296   3.005   0.287   1.504  0.5107 -0.0738 -1.9888
   99SOL    HW2  297   2.924   0.435   1.537 -1.6170 -1.1145  0.6418
  100SOL     OW  298   1.981   0.337   2.549  0.1910 -0.3661  0.1626
  100SOL    HW1  299   2.076   0.384   2.545  1.1435  0.4895  1.1580
  100SOL    HW2  300   1.973   0.260   2.478 -2.0884 -0.8900 -2.3246
  101SOL     OW  301   1.036   2.945   2.143  0.2696 -0.2066  0.6565
  101SOL    HW1  302   1.034   2.960   2.243  1.8911 -0.2658  2.3509
  101SOL    HW2  303   0.971   3.003   2.095  0.4455 -1.1781 -1.4163
  102SOL     OW  304   0.943   0.638   1.683 -0.3041 -0.7087 -0.3696
  102SOL    HW1  305   0.854   0.594   1.661  0.8175  0.9052  2.0624
  102SOL    HW2  306   1.019   0.581   1.642  0.3115 -2.1973 -1.1558
  103SOL     OW  307   0.511   0.897   3.052 -0.2442  0.2748  0.0225
  103SOL    HW1  308   0.567   0.944   2.984 -1.3719 -0.7824  0.0508
  103SOL    HW2  309   0.492   0.801   3.022 -2.0552  0.9991 -0.7298
  104SOL     OW  310   0.393   0.402   1.981  0.1447  0.3006 -0.0897
  104SOL    HW1  311   0.435   0.317   1.939  0.7183 -2.0809  0.6307
  104SOL    HW2  312   0.416   0.407   2.081  2.0703  0.7669  1.1264
  105SOL     OW  313   2.667   2.264   1.679 -0.4721  0.1608  0.3331
  105SOL    HW1  314   2.658   2.166   1.663 -1.4245  2.4112  0.4034
  105SOL    HW2  315   2.746   2.307   1.628  0.6760 -0.0141 -0.0820
  106SOL     OW  316   0.863   2.973   0.638 -0.2097 -0.0140 -0.0721
  106SOL    HW1  317   0.851   2.899   0.568 -1.4936  0.0849 -3.3996
  106SOL    HW2  318   0.961   3.000   0.641  0.1789  0.4587 -1.6463
  107SOL     OW  319   2.892   1.890   1.139  0.1576  0.3177  0.1925
  107SOL    HW1  320   2.918   1.891   1.042 -0.8502  2.3810  0.0337
  107SOL    HW2  321   2.799   1.848   1.142  0.5396  2.2010 -0.2020
  108SOL     OW  322   0.219   2.281   0.685 -0.1047 -0.6593  0.2382
  108SOL    HW1  323   0.126   2.318   0.655 -0.5259 -0.1168 -0.5531
  108SOL    HW2  324   0.217   2.240   0.778  0.0927  2.3218  2.8900
  109SOL     OW  325   1.609   2.961   0.772 -0.6989 -0.5390  0.2643
  109SOL    HW1  326   1.711   2.958   0.767 -0.2698  1.7850 -0.7475
  109SOL    HW2  327   1.573   2.946   0.863  2.5579 -1.5984 -5.0099
  110SOL     OW  328   1.836   1.869   0.378  0.2519  0.9260  0.2048
  110SOL    HW1  329   1.785   1.955   0.360  1.7253 -0.4009  0.2148
  110SOL    HW2  330   1.929   1.886   0.416 -2.9010  1.2099  3.0275
  111SOL     OW  331   1.825   2.684   1.876  0.3372 -0.3672  0.1008
  111SOL    HW1  332   1.910   2.671   1.929 -2.4499 -0.8419  0.1643
  111SOL    HW2  333   1.748   2.652   1.931 -1.0116  1.0169 -3.2676
  112SOL     OW  334   1.687   2.266   2.455  0.4579 -0.2730 -0.7119
  112SOL    HW1  335   1.610   2.304   2.394 -1.8442  0.2050 -0.3099
  112SOL    HW2  336   1.763   2.336   2.462  0.1184  0.9575 -3.0055
  113SOL     OW  337   2.446   2.002   2.007  0.0333  0.6518 -0.2068
  113SOL    HW1  338   2.408   1.940   2.074  1.3776  2.6526 -3.5602
  113SOL    HW2  339   2.395   2.086   2.014 -0.4570 -3.4664 -2.0535
  114SOL     OW  340   0.161   1.114   1.093  0.0453  0.6807  0.5255
  114SOL    HW1  341   0.108   1.038   1.049  2.1291 -2.1824 -3.1839
  114SOL    HW2  342   0.102   1.200   1.090 -1.7156  2.2193  1.3098
  115SOL     OW  343   2.616   0.854   2.549  0.4394  0.5073  0.2579
  115SOL    HW1  344   2.680   0.892   2.614 -2.1439 -1.1295  1.0041
  115SOL    HW2  345   2.609   0.912   2.465 -1.0713 -1.6075  1.9186
  116SOL     OW  346   2.830   0.524   2.763  0.2250  0.2227  0.4641
  116SOL    HW1  347   2.739   0.568   2.761 -0.5418  1.2506 -0.9384
  116SOL    HW2  348   2.811   0.424   2.750 -0.3200  1.2020  0.2376
  117SOL     OW  349   2.519   2.651   0.585 -0.2953 -0.4347 -0.3827
  117SOL    HW1  350   2.548   2.658   0.488  0.7074  0.5700 -0.1082
  117SOL    HW2  351   2.602   2.639   0.642 -2.2964  0.1239 -0.6137
  118SOL     OW  352   0.993   2.106   2.268  0.6633  0.3602 -0.0647
  118SOL    HW1  353   1.083   2.079   2.232  0.6640 -0.1596 -1.6317
  118SOL    HW2  354   0.925   2.150   2.202  1.4757  2.1402  0.9749
  119SOL     OW  355   0.603   2.644   0.564  0.5684  0.8212 -0.8615
  119SOL    HW1  356   0.692   2.688   0.542  0.7920 -1.0073 -1.8048
  119SOL    HW2  357   0.566   2.595   0.481 -0.1240  0.6498 -0.8345
  120SOL     OW  358   1.312   0.602   0.804 -0.4043 -0.2291 -0.3428
  120SOL    HW1  359   1.405   0.580   0.839 -0.6261 -0.9026 -0.9692
  120SOL    HW2  360   1.305   0.699   0.774  0.0750  2.6922 -1.9820
  121SOL     OW  361   1.827   0.621   0.908  0.5686 -0.0222  0.0078
  121SOL    HW1  362   1.788   0.715   0.883 -2.4742  3.0804 -0.4601
  121SOL    HW2  363   1.896   0.582   0.845 -0.1093  0.4017  2.6105
  122SOL     OW  364   2.036   1.514   2.338 -0.3410 -0.6455 -0.7205
  122SOL    HW1  365   1.933   1.511   2.325 -3.3397  1.6569  0.0050
  122SOL    HW2  366   2.083   1.463   2.266  0.3940  1.9330  1.2059
  123SOL     OW  367   0.723   1.121   1.072 -0.0055  0.5146  0.0064
  123SOL    HW1  368   0.667   1.037   1.048 -0.5005  0.4664 -3.7301
  123SOL    HW2  369   0.718   1.191   0.996 -2.5867 -0.0477  0.2188
  124SOL     OW  370   0.573   0.344   2.821 -0.1333 -0.4623  0.3207
  124SOL    HW1  371   0.512   0.341   2.901 -0.1580  1.2692  2.6961
  124SOL    HW2  372   0.643   0.269   2.825 -0.2287  0.9573 -1.5054
  125SOL     OW  373   0.707   3.005   0.062  0.0566 -0.1769  0.1011
  125SOL    HW1  374   0.786   3.069   0.079  1.0298 -0.5003  2.0021
  125SOL    HW2  375   0.654   3.039   3.056  1.4727 -1.4260 -1.8205
  126SOL     OW  376   0.831   1.293   0.099 -0.3953 -0.0608 -0.7416
  126SOL    HW1  377   0.828   1.194   0.103 -3.0431  2.3452 -0.9326
  126SOL    HW2  378   0.829   1.337   0.193  1.8839  3.2013  1.1215
  127SOL     OW  379   1.205   2.327   1.087  0.6681 -0.4166  0.4222
  127SOL    HW1  380   1.155   2.406   1.045  2.9676 -1.8215  0.7894
  127SOL    HW2  381   1.305   2.329   1.080 -0.7781  1.4674 -1.0744
  128SOL     OW  382   1.005   1.705   0.017 -0.8380 -0.3851 -0.0594
  128SOL    HW1  383   1.045   1.609   0.033  1.2471 -2.0671  0.2642
  128SOL    HW2  384   1.070   1.775   0.051  5.0869 -2.7749 -1.4017
  129SOL     OW  385   1.851   1.662   1.966  0.4853  0.1677 -0.2608
  129SOL    HW1  386   1.809   1.571   1.942  0.8866 -1.5536 -1.2778
  129SOL    HW2  387   1.808   1.733   1.910 -0.4940 -1.0230 -2.9853
  130SOL     OW  388   2.063   1.732   1.807 -0.1126 -0.4007 -0.2308
  130SOL    HW1  389   2.004   1.673   1.866 -0.6123  1.4284  2.5074
  130SOL    HW2  390   2.036   1.720   1.708 -1.6460 -3.7149  2.0194
  131SOL     OW  391   0.768   2.325   2.124 -0.4032 -0.2645 -0.3520
  131SOL    HW1  392   0.823   2.281   2.060 -1.9225  3.6620  0.3972
  131SOL    HW2  393   0.680   2.352   2.077 -0.5624  0.6172 -1.4470
  132SOL     OW  394   2.449   1.525   0.662 -0.0117 -0.5543  0.0372
  132SOL    HW1  395   2.525   1.578   0.704 -0.1173  1.0840  0.4554
  132SOL    HW2  396   2.395   1.588   0.609  1.3279 -2.5924  2.2590
  133SOL     OW  397   0.675   1.696   2.051  0.1461  0.9295 -0.4420
  133SOL    HW1  398   0.657   1.704   1.948  1.4682  0.8420  0.3452
  133SOL    HW2  399   0.677   1.789   2.101 -1.2022  2.5509  1.6273
  134SOL     OW  400   0.032   1.435   0.789 -0.1329 -0.8591  1.0836
  134SOL    HW1  401   0.007   1.335   0.795 -0.9202 -1.5291  0.9313
  134SOL    HW2  402   0.018   1.473   0.696  2.3384 -1.6699  2.0197
  135SOL     OW  403   1.933   1.017   2.852 -0.2945  0.0157  0.8172
  135SOL    HW1  404   2.022   1.069   2.845 -2.4885  1.6412 -1.1974
  135SOL    HW2  405   1.913   0.969   2.767 -0.0517 -1.5874  0.0499
  136SOL     OW  406   3.019   1.260   1.110  0.4120 -0.7175  0.5825
  136SOL    HW1  407   2.959   1.184   1.144 -0.4929 -1.7087 -1.7318
  136SOL    HW2  408   2.948   1.319   1.060 -0.8448 -1.6900 -1.3861
  137SOL     OW  409   2.307   1.416   0.408 -0.1013 -0.1498 -0.4073
  137SOL    HW1  410   2.276   1.321   0.394  2.2166  1.3632 -0.5775
  137SOL    HW2  411   2.401   1.414   0.446  3.3269  1.0585  0.3490
  138SOL     OW  412   2.426   0.543   0.606 -0.1998 -0.8621 -0.1143
  138SOL    HW1  413   2.407   0.558   0.703 -0.4173 -2.1511 -1.1349
  138SOL    HW2  414   2.452   0.451   0.576 -2.4985 -1.0291 -2.2886
  139SOL     OW  415   2.749   3.074   2.872 -0.0541 -0.1032 -0.1120
  139SOL    HW1  416   2.798   3.043   2.959  2.1910 -3.5282 -1.4014
  139SOL    HW2  417   2.811   3.065   2.788  2.6868  1.9867  0.1127
  140SOL     OW  418   0.650   1.550   1.149 -0.6379 -0.5132 -0.3827
  140SOL    HW1  419   0.570   1.487   1.128 -2.8018  0.3867  0.9429
  140SOL    HW2  420   0.633   1.644   1.182  0.9385 -1.6069 -1.0520
  141SOL     OW  421   1.258   1.383   0.664 -0.1329  0.6131  0.0109
  141SOL    HW1  422   1.231   1.360   0.759 -0.8911  0.8111 -3.8384
  141SOL    HW2  423   1.310   1.307   0.620  0.1560 -1.9802 -0.2388
  142SOL     OW  424   1.619   0.814   1.095  0.0892 -0.3738  0.0432
  142SOL    HW1  425   1.653   0.756   1.169 -1.5417  2.2330  0.7585
  142SOL    HW2  426   1.575   0.891   1.138 -0.8103 -1.9699  1.4189
  143SOL     OW  427   0.412   0.644   2.956 -0.0248  0.4728  0.3093
  143SOL    HW1  428   0.431   0.661   2.857  1.7152  1.5541 -1.2941
  143SOL    HW2  429   0.386   0.548   2.972  1.6152 -1.9042 -2.1997
  144SOL     OW  430   2.516   0.155   0.188 -0.3092 -0.1692  0.8192
  144SOL    HW1  431   2.433   0.202   0.147  0.6577  2.4217 -0.5501
  144SOL    HW2  432   2.493   0.130   0.283  1.9803 -0.3399  1.5622
  145SOL     OW  433   2.153   0.042   2.651 -0.4588 -0.0126  0.4978
  145SOL    HW1  434   2.174   0.140   2.645 -0.6196 -0.9081 -1.3846
  145SOL    HW2  435   2.053   0.032   2.666 -1.8632 -3.3831  0.2762
  146SOL     OW  436   2.710   2.759   0.380 -0.0735  0.0398  0.2946
  146SOL    HW1  437   2.649   2.775   0.300  2.5505  1.6823  2.0941
  146SOL    HW2  438   2.740   2.849   0.423  2.2190  0.0233  3.3310
  147SOL     OW  439   1.441   0.784   2.768 -0.7699  0.8753 -0.1767
  147SOL    HW1  440   1.381   0.708   2.800 -0.9755  1.8981 -0.8567
  147SOL    HW2  441   1.388   0.872   2.773 -0.2339 -0.5301  2.1883
  148SOL     OW  442   1.099   0.035   0.309 -0.4796  0.5174 -0.5060
  148SOL    HW1  443   1.103   3.075   0.403 -2.2473  1.2778 -1.4198
  148SOL    HW2  444   1.134   3.044   0.241  1.0094  0.2390  1.2754
  149SOL     OW  445   1.428   0.760   2.423 -0.1172 -0.0591  0.2061
  149SOL    HW1  446   1.421   0.763   2.525  2.0243 -1.0074 -0.5313
  149SOL    HW2  447   1.372   0.835   2.383 -0.0818 -0.0144  0.5507
  150SOL     OW  448   1.565   3.060   3.002 -0.3577 -0.0792  1.0473
  150SOL    HW1  449   1.649   3.015   3.040  0.1913 -0.4090 -0.2640
  150SOL    HW2  450   1.572   0.089   3.010  0.5710  3.9593 -2.8756
  151SOL     OW  451   0.689   1.488   3.064 -0.3924 -0.1092 -0.2628
  151SOL    HW1  452   0.745   1.423   0.039  1.4778  0.9871 -2.7985
  151SOL    HW2  453   0.641   1.553   0.047 -0.0822 -1.0643 -1.6069
  152SOL     OW  454   0.873   0.365   1.275 -0.4416  0.3004 -0.3688
  152SOL    HW1  455   0.795   0.428   1.295  1.7862  0.5101 -1.3427
  152SOL    HW2  456   0.918   0.336   1.363  1.0777 -0.4911 -0.2641
  153SOL     OW  457   2.503   3.041   1.918  0.2582 -0.2544 -0.3350
  153SOL    HW1  458   2.528   0.040   1.989  0.6785  2.4799 -0.1966
  153SOL    HW2  459   2.504   2.941   1.950  0.9374 -0.9161 -0.4935
  154SOL     OW  460   2.118   2.961   1.918  0.4209 -0.0688  0.1028
  154SOL    HW1  461   2.057   2.927   1.992  1.4479 -2.1120  1.2964
  154SOL    HW2  462   2.067   2.943   1.833  0.2367 -0.8106  0.0536
  155SOL     OW  463   0.114   1.180   0.408  0.1386  0.0799 -0.0890
  155SOL    HW1  464   0.068   1.095   0.366 -0.5987 -3.5245 -2.8422
  155SOL    HW2  465   0.137   1.163   0.506  0.3726  0.6336  0.8593
  156SOL     OW  466   1.954   1.087   0.292 -0.2771 -1.0862 -0.4557
  156SOL    HW1  467   2.032   1.027   0.313 -3.2941  2.1847 -0.7747
  156SOL    HW2  468   1.976   1.160   0.225  0.4924  0.0817  1.3478
  157SOL     OW  469   0.678   2.715   2.922 -0.1004  0.0081  0.3927
  157SOL    HW1  470   0.711   2.659   3.004  0.8346  0.2984  2.2180
  157SOL    HW2  471   0.579   2.737   2.934 -0.3845 -0.1554  1.5616
  158SOL     OW  472   1.956   0.980   1.527  0.2812  0.5104 -0.0174
  158SOL    HW1  473   1.981   0.917   1.603  0.8319 -0.9299  2.2719
  158SOL    HW2  474   1.905   1.058   1.570  0.4276 -2.5095 -0.2613
  159SOL     OW  475   0.044   0.220   0.232  0.0886 -0.4674 -0.1586
  159SOL    HW1  476   0.118   0.156   0.197 -0.2564 -3.1587 -1.2966
  159SOL    HW2  477   0.082   0.306   0.268 -0.2479  1.4096 -1.4101
  160SOL     OW  478   2.469   2.031   1.749 -0.0161 -0.1771 -0.8914
  160SOL    HW1  479   2.563   2.025   1.720  0.0707  0.7106 -0.3088
  160SOL    HW2  480   2.467   2.014   1.850 -1.7669 -1.2055  2.8503
  161SOL     OW  481   0.150   0.479   0.174 -0.3508  0.4275 -0.3056
  161SOL    HW1  482   0.210   0.558   0.147 -1.9494  0.4303  0.9864
  161SOL    HW2  483   0.101   0.440   0.096 -0.0579 -2.2627  0.0293
  162SOL     OW  484   0.682   0.543   1.679  0.2046  0.1209 -0.2748
  162SOL    HW1  485   0.602   0.556   1.745 -2.0928  2.9694  2.7124
  162SOL    HW2  486   0.688   0.442   1.658  1.4338 -0.6094  0.0399
  163SOL     OW  487   2.552   2.948   2.321  0.6143  0.1508 -0.0055
  163SOL    HW1  488   2.527   2.915   2.413  0.4231 -1.7662 -0.6250
  163SOL    HW2  489   2.479   3.014   2.279 -1.1786  3.1021 -2.2348
  164SOL     OW  490   2.239   1.582   0.219 -1.0254  0.1853  0.0735
  164SOL    HW1  491   2.150   1.553   0.185  0.9714  0.0167  0.3889
  164SOL    HW2  492   2.263   1.533   0.306  1.5477 -1.2138 -0.2966
  165SOL     OW  493   0.274   2.916   0.718  0.6814 -0.1738  0.4419
  165SOL    HW1  494   0.309   2.986   0.647  2.1372  1.3656 -1.8769
  165SOL    HW2  495   0.333   2.834   0.720 -1.3351  2.2114 -3.8042
  166SOL     OW  496   2.909   0.609   3.027 -0.1519  0.3828  0.4900
  166SOL    HW1  497   2.825   0.607   0.013 -1.5063 -0.2078  0.1669
  166SOL    HW2  498   2.877   0.573   2.934 -1.1675  3.6635 -3.2424
  167SOL     OW  499   2.179   0.468   0.430  0.1591 -0.1247 -0.1738
  167SOL    HW1  500   2.270   0.504   0.395 -1.1397 -1.0117 -1.9483
  167SOL    HW2  501   2.134   0.425   0.348 -1.1845  0.8057  0.9985
  168SOL     OW  502   1.431   0.267   2.309  0.3844  0.4266 -0.1061
  168SOL    HW1  503   1.394   0.229   2.395  2.3509  1.0145  0.8109
  168SOL    HW2  504   1.490   0.349   2.326  0.8865  0.1815  0.1327
  169SOL     OW  505   0.504   1.837   0.988  0.0539 -0.0844 -0.0249
  169SOL    HW1  506   0.545   1.807   1.075  0.5466  1.1464  1.5855
  169SOL    HW2  507   0.568   1.894   0.933 -0.4538  0.7351  0.3408
  170SOL     OW  508   0.354   0.076   1.452 -0.0787 -0.5823  0.1319
  170SOL    HW1  509   0.338   0.121   1.544 -1.5848  0.4609 -0.5245
  170SOL    HW2  510   0.326   3.056   1.459 -0.2351 -0.0284  2.5251
  171SOL     OW  511   2.370   1.341   2.340 -0.6480 -0.3534 -0.4859
  171SOL    HW1  512   2.292   1.322   2.277  0.2992  1.6706  1.1093
  171SOL    HW2  513   2.450   1.384   2.294  0.2838  0.2022 -1.9521
  172SOL     OW  514   1.053   1.603   0.859 -0.4573  0.1251 -0.4574
  172SOL    HW1  515   0.956   1.580   0.874  2.0088  2.5349 -1.8027
  172SOL    HW2  516   1.113   1.523   0.876 -0.3141  1.9283  0.4643
  173SOL     OW  517   1.986   2.307   3.049 -0.0478  0.9975  0.0934
  173SOL    HW1  518   2.069   2.301   0.035  1.9591  0.1823  0.2873
  173SOL    HW2  519   1.923   2.230   3.057 -0.7450  0.5323  0.1430
  174SOL     OW  520   1.792   0.805   0.190 -0.4107  0.3580  0.1008
  174SOL    HW1  521   1.833   0.790   0.097  0.6977  2.2118 -1.1605
  174SOL    HW2  522   1.746   0.898   0.188 -2.3482  2.1242  1.6307
  175SOL     OW  523   0.628   1.713   1.768  0.4070 -0.3171 -0.3778
  175SOL    HW1  524   0.544   1.665   1.733  0.6785 -3.0498 -0.4870
  175SOL    HW2  525   0.627   1.809   1.737 -3.4127 -1.9838 -1.7084
  176SOL     OW  526   0.717   0.160   0.408  0.2288  0.4949 -0.0359
  176SOL    HW1  527   0.791   0.188   0.349 -1.9008 -4.0394  1.5779
  176SOL    HW2  528   0.739   0.178   0.505  0.2274 -0.2457 -0.7333
  177SOL     OW  529   0.148   1.459   0.002  0.2361  0.1405  0.5897
  177SOL    HW1  530   0.140   1.368   3.031 -0.3626 -0.7167 -1.2492
  177SOL    HW2  531   0.229   1.458   0.066 -0.3063 -0.0825  1.5214
  178SOL     OW  532   2.829   2.343   1.950 -0.6195  0.0411 -0.5449
  178SOL    HW1  533   2.739   2.366   1.915 -0.0060 -1.4659  2.0685
  178SOL    HW2  534   2.862   2.415   2.012  0.0300 -0.2906  1.4503
  179SOL     OW  535   2.263   0.097   2.981 -0.2376 -0.5899  0.6049
  179SOL    HW1  536   2.339   0.111   2.915 -0.1125  0.9200  2.2144
  179SOL    HW2  537   2.167   0.111   2.953  0.2679 -1.0081  0.0491
  180SOL     OW  538   2.436   0.570   0.878 -0.4785 -0.0086 -0.0481
  180SOL    HW1  539   2.344   0.590   0.911  4.6580  1.3648  1.9311
  180SOL    HW2  540   2.500   0.645   0.895  0.7867 -1.9008  1.4258
  181SOL     OW  541   2.999   0.058   2.417 -0.0350  0.3831 -0.2625
  181SOL    HW1  542   3.015   0.149   2.376  0.5761 -0.9280 -1.4191
  181SOL    HW2  543   2.984   3.057   2.352 -0.0475  1.4091  2.8524
  182SOL     OW  544   2.574   2.254   2.222  0.3823  0.1919  0.0466
  182SOL    HW1  545   2.636   2.329   2.256  1.2836  1.2395  0.7731
  182SOL    HW2  546   2.495   2.296   2.177  0.1418 -1.3416 -0.6217
  183SOL     OW  547   2.622   1.067   1.467 -0.2656  0.0842  0.4926
  183SOL    HW1  548   2.696   1.137   1.442  1.3850 -2.1722 -0.2912
  183SOL    HW2  549   2.544   1.107   1.516  0.0987  0.3619 -1.5581
  184SOL     OW  550   2.896   1.474   0.981  0.3356 -0.0064  0.2016
  184SOL    HW1  551   2.940   1.537   1.048 -2.7348 -0.0208  1.8956
  184SOL    HW2  552   2.956   1.455   0.898  0.3461  0.7389  0.1910
  185SOL     OW  553   0.236   2.943   0.972 -0.2585 -0.1678  0.0530
  185SOL    HW1  554   0.245   2.926   0.869  0.0235 -1.6776 -0.8080
  185SOL    HW2  555   0.327   2.960   1.016  0.0512  1.1249  0.1050
  186SOL     OW  556   2.131   2.528   2.219 -0.2321  0.8101  0.6469
  186SOL    HW1  557   2.146   2.594   2.296  0.6913  1.4126 -0.6491
  186SOL    HW2  558   2.220   2.495   2.189  1.2601  0.8886 -3.3694
  187SOL     OW  559   0.389   1.274   0.575 -0.6944  0.6609  0.6271
  187SOL    HW1  560   0.366   1.359   0.522 -1.6544 -0.1643  0.6327
  187SOL    HW2  561   0.314   1.208   0.600 -0.4106  0.1171 -0.3594
  188SOL     OW  562   1.655   1.904   3.023 -0.3001 -0.0756  0.5085
  188SOL    HW1  563   1.584   1.945   2.961  0.6262  1.2017 -1.8779
  188SOL    HW2  564   1.606   1.828   3.076 -0.6117 -0.8720  1.2462
  189SOL     OW  565   0.091   1.549   2.803  0.2067 -0.2633 -0.7368
  189SOL    HW1  566   0.078   1.516   2.897 -0.9411 -0.5096 -2.1202
  189SOL    HW2  567   0.003   1.598   2.775  0.1969  3.0545  0.3366
  190SOL     OW  568   2.340   0.717   2.512  0.3676  0.2966 -0.5393
  190SOL    HW1  569   2.292   0.787   2.568 -0.2618  1.9624  0.2470
  190SOL    HW2  570   2.442   0.722   2.514 -1.4543  2.0233 -0.5271
  191SOL     OW  571   0.860   1.076   1.949  0.2500 -0.1425 -0.1544
  191SOL    HW1  572   0.884   1.031   1.861  0.0152  0.4390  0.2942
  191SOL    HW2  573   0.769   1.129   1.933  1.6128  1.3220 -2.2436
  192SOL     OW  574   1.677   1.151   2.044 -0.1113 -0.3331 -0.1183
  192SOL    HW1  575   1.582   1.181   2.028 -0.0943 -0.3323  0.6119
  192SOL    HW2  576   1.698   1.070   1.984 -0.0123  1.4512 -0.8555
  193SOL     OW  577   1.308   2.810   0.994 -0.3397 -0.1230 -0.3878
  193SOL    HW1  578   1.331   2.727   0.937  1.2670  0.4654 -1.5660
  193SOL    HW2  579   1.212   2.832   0.987  1.1325  0.6884  0.3846
  194SOL     OW  580   1.297   1.424   1.966 -0.2042  0.1288 -0.1569
  194SOL    HW1  581   1.361   1.503   1.980  0.1201  3.4875  1.5350
  194SOL    HW2  582   1.264   1.417   1.871  1.9809  1.3260  0.5091
  195SOL     OW  583   1.923   0.267   0.672 -0.3082 -0.3292 -0.2599
  195SOL    HW1  584   1.965   0.354   0.701 -1.1118 -1.0378  0.2749
  195SOL    HW2  585   1.938   0.192   0.740 -0.6852 -0.2366  0.1196
  196SOL     OW  586   0.883   1.328   2.219  0.4102 -0.3285 -0.1915
  196SOL    HW1  587   0.829   1.353   2.140  3.4682 -1.2174  1.8152
  196SOL    HW2  588   0.826   1.318   2.305  1.7149  1.9337 -0.8804
  197SOL     OW  589   0.433   0.374   2.247 -0.0983 -0.4650 -0.5969
  197SOL    HW1  590   0.396   0.457   2.296 -1.5498 -1.7441 -0.0352
  197SOL    HW2  591   0.405   0.288   2.295  0.5561  0.3921 -1.0194
  198SOL     OW  592   2.840   1.068   1.167  0.0840  0.1321  0.1337
  198SOL    HW1  593   2.744   1.106   1.166 -0.6233 -4.2172  1.3339
  198SOL    HW2  594   2.831   0.976   1.116 -1.8887 -1.6486  0.1600
  199SOL     OW  595   0.437   2.079   1.308  0.7299  0.0947  0.2626
  199SOL    HW1  596   0.373   2.002   1.315  1.4939  0.0411  2.2831
  199SOL    HW2  597   0.446   2.118   1.214  2.1252 -1.6891 -1.3196
  200SOL     OW  598   2.389   2.071   2.715  0.5592 -0.1287 -0.2008
  200SOL    HW1  599   2.371   1.987   2.769 -0.4451 -1.0483 -3.2877
  200SOL    HW2  600   2.387   2.153   2.775 -0.0489 -0.2056  1.0487
  201SOL     OW  601   0.794   2.244   1.339 -0.0250  0.2740 -0.1388
  201SOL    HW1  602   0.896   2.230   1.345 -0.1006  0.9941 -2.3650
  201SOL    HW2  603   0.768   2.274   1.242 -2.5650  1.2644  1.0375
  202SOL     OW  604   0.818   2.151   0.169 -0.0769 -1.0908 -0.2796
  202SOL    HW1  605   0.897   2.202   0.209 -1.6205 -0.6908  0.3239
  202SOL    HW2  606   0.844   2.105   0.081 -1.2912 -1.1547  0.0720
  203SOL     OW  607   1.967   0.116   2.427  0.6480  0.0917  0.0153
  203SOL    HW1  608   1.978   0.083   2.330 -0.6967 -1.8474 -4.3213
  203SOL    HW2  609   1.899   0.053   2.471 -1.3471 -0.4656  1.4152
  204SOL     OW  610   0.392   1.280   1.692 -0.1422  0.2433  0.0002
  204SOL    HW1  611   0.328   1.341   1.744 -1.0690  0.5136  2.2707
  204SOL    HW2  612   0.487   1.325   1.697  0.3651  0.4565  2.3001
  205SOL     OW  613   2.229   1.490   2.513 -0.4673  0.1432 -0.6221
  205SOL    HW1  614   2.298   1.447   2.450  0.0005 -0.7019 -1.1022
  205SOL    HW2  615   2.136   1.488   2.472 -1.5478  4.7757  2.0661
  206SOL     OW  616   3.014   2.160   2.644  0.1030 -0.9329 -0.8441
  206SOL    HW1  617   3.019   2.187   2.545  0.2175  2.3943 -0.6689
  206SOL    HW2  618   3.067   2.074   2.657  0.7236  1.1429  0.0865
  207SOL     OW  619   0.453   2.853   1.723 -0.2352 -0.3479  0.5083
  207SOL    HW1  620   0.374   2.906   1.766 -0.7007  0.5236 -1.4388
  207SOL    HW2  621   0.425   2.794   1.645  2.2244  0.0636  0.3278
  208SOL     OW  622   0.278   2.485   1.326 -0.0202 -0.6849  0.2617
  208SOL    HW1  623   0.372   2.487   1.288 -0.9538 -1.1515  1.8668
  208SOL    HW2  624   0.255   2.397   1.375 -1.3100  3.0357 -0.0162
  209SOL     OW  625   1.028   2.623   2.402 -0.4737 -0.5274  0.1830
  209SOL    HW1  626   1.107   2.560   2.398  1.3297  1.4206  0.0869
  209SOL    HW2  627   0.970   2.598   2.478 -1.7903  0.1692  1.8921
  210SOL     OW  628   2.860   1.148   2.003  0.0094 -0.5679  0.0766
  210SOL    HW1  629   2.909   1.185   2.080 -0.4124 -2.6897 -1.8616
  210SOL    HW2  630   2.786   1.081   2.023  0.8488 -0.3192  2.1645
  211SOL     OW  631   1.245   2.801   2.083 -0.8859  0.4272 -0.1645
  211SOL    HW1  632   1.292   2.838   2.001 -1.6810 -0.9495  0.9028
  211SOL    HW2  633   1.178   2.868   2.114  0.9532  0.4049  0.9018
  212SOL     OW  634   1.597   2.446   1.709  0.9288  0.3980  0.1754
  212SOL    HW1  635   1.534   2.456   1.791 -1.1628  1.5658  1.1221
  212SOL    HW2  636   1.639   2.533   1.687  0.0927 -4.3148  1.0211
  213SOL     OW  637   2.513   0.573   1.583  0.5111 -0.3773 -0.4455
  213SOL    HW1  638   2.478   0.528   1.500 -1.2384  0.3734  3.9330
  213SOL    HW2  639   2.564   0.658   1.560 -0.2120  0.7510 -0.7667
  214SOL     OW  640   0.804   2.330   1.101  0.0785 -0.2151  0.3641
  214SOL    HW1  641   0.886   2.281   1.067  2.8012  0.5280  2.1226
  214SOL    HW2  642   0.781   2.404   1.041 -0.4289 -3.6291  2.3875
  215SOL     OW  643   2.491   1.875   0.678 -0.0677 -0.4313  0.0386
  215SOL    HW1  644   2.552   1.875   0.764  2.0481  0.6705  2.5410
  215SOL    HW2  645   2.540   1.924   0.602  1.3211 -0.5763  1.7142
  216SOL     OW  646   0.186   0.766   1.658 -0.2206  0.3709  0.1999
  216SOL    HW1  647   0.133   0.815   1.585  0.5721  1.2366 -3.3010
  216SOL    HW2  648   0.126   0.694   1.702  1.1525 -0.1826  2.8269
  217SOL     OW  649   2.298   0.279   1.166  0.3961  0.4130  0.2222
  217SOL    HW1  650   2.366   0.201   1.147  1.7940 -3.6379 -1.1857
  217SOL    HW2  651   2.265   0.300   1.075 -1.7753  0.4293  2.8092
  218SOL     OW  652   1.633   2.150   1.177 -0.9176  0.0993  0.3088
  218SOL    HW1  653   1.726   2.188   1.171  0.2981 -0.1612 -0.3639
  218SOL    HW2  654   1.602   2.139   1.273  0.2543 -0.2806 -1.3202
  219SOL     OW  655   1.469   2.296   2.977 -0.2102 -0.3600  0.4160
  219SOL    HW1  656   1.540   2.365   2.953 -1.3883 -0.9824 -1.3872
  219SOL    HW2  657   1.477   2.284   0.002 -1.6371 -1.8750  0.5454
  220SOL     OW  658   1.630   2.496   2.927  0.4438  0.3750 -0.1386
  220SOL    HW1  659   1.601   2.596   2.923 -2.3513  1.4746 -1.6028
  220SOL    HW2  660   1.724   2.493   2.957 -0.6120  0.5641 -1.8146
  221SOL     OW  661   0.242   2.388   1.869  0.1023 -0.2569  0.7395
  221SOL    HW1  662   0.216   2.467   1.931 -0.7931  0.7659  0.5326
  221SOL    HW2  663   0.213   2.293   1.895 -1.4479 -0.9286  2.4093
  222SOL     OW  664   1.895   2.170   1.116 -0.3186 -0.1887 -0.2140
  222SOL    HW1  665   1.955   2.206   1.189 -1.6633  1.3036 -0.5378
  222SOL    HW2  666   1.909   2.217   1.027 -1.5918 -0.8923  1.4389
  223SOL     OW  667   0.963   2.515   1.749 -0.2882 -0.5965 -0.2711
  223SOL    HW1  668   0.885   2.468   1.793  1.2035 -0.1856  1.9558
  223SOL    HW2  669   1.036   2.550   1.810 -0.4679 -1.0660  0.9109
  224SOL     OW  670   2.738   2.258   1.340 -0.0344 -0.2527  0.1276
  224SOL    HW1  671   2.817   2.284   1.400  0.0834 -0.8632  0.3647
  224SOL    HW2  672   2.652   2.292   1.382  1.7090 -0.6104 -2.2262
  225SOL     OW  673   2.312   2.153   0.541  0.2927  0.0363  0.3220
  225SOL    HW1  674   2.255   2.075   0.518  0.3917 -1.6814 -0.9497
  225SOL    HW2  675   2.368   2.174   0.458 -4.1322  0.0890  2.7844
  226SOL     OW  676   1.459   2.564   0.433  0.4883  0.3637 -0.0328
  226SOL    HW1  677   1.398   2.590   0.356  1.1367  0.5809 -0.3489
  226SOL    HW2  678   1.468   2.640   0.504  2.6597 -0.1317  0.2205
  227SOL     OW  679   2.118   1.287   0.838 -0.2850 -0.0062  0.0518
  227SOL    HW1  680   2.039   1.315   0.896 -4.2396 -1.4882 -2.2924
  227SOL    HW2  681   2.082   1.251   0.747  0.5369  0.3719 -1.2028
  228SOL     OW  682   1.519   0.291   2.746 -0.2217 -0.2173 -0.0146
  228SOL    HW1  683   1.533   0.291   2.845  0.6509 -1.3586  0.3009
  228SOL    HW2  684   1.540   0.384   2.711  0.1751  0.6232 -3.3870
  229SOL     OW  685   0.045   1.262   2.933  0.3270 -0.1011  0.2088
  229SOL    HW1  686   0.028   1.182   2.992  2.3073  1.4965 -2.3151
  229SOL    HW2  687   0.053   1.233   2.836 -1.3492  0.2122  0.3576
  230SOL     OW  688   0.492   1.340   1.041 -0.3110 -0.1756 -0.1885
  230SOL    HW1  689   0.478   1.274   1.114 -2.2525 -0.2991 -1.1280
  230SOL    HW2  690   0.490   1.289   0.950  0.6739  1.8847 -0.0538
  231SOL     OW  691   2.459   0.070   2.533 -0.1241 -0.3760 -0.3829
  231SOL    HW1  692   2.374   0.121   2.498  0.8518  0.7955 -3.0582
  231SOL    HW2  693   2.542   0.104   2.483 -2.6295 -0.3150 -0.2723
  232SOL     OW  694   0.110   2.148   0.266  0.4468  0.7229 -0.1725
  232SOL    HW1  695   0.090   2.206   0.180  0.9059  0.2935  0.4376
  232SOL    HW2  696   0.037   2.076   0.274 -3.2186  0.3717  1.6550
  233SOL     OW  697   1.531   2.317   2.227  0.2568 -0.1183  0.3528
  233SOL    HW1  698   1.461   2.369   2.174  0.5658  0.3609 -1.4033
  233SOL    HW2  699   1.612   2.293   2.166  2.6448  1.6185  0.9744
  234SOL     OW  700   1.240   1.526   1.400  0.0011  0.1777 -0.5188
  234SOL    HW1  701   1.340   1.520   1.416  0.1970  0.0340  0.2210
  234SOL    HW2  702   1.227   1.608   1.346  0.6372  0.9462 -0.4810
  235SOL     OW  703   0.986   1.901   1.871 -0.4800  0.2565  0.0712
  235SOL    HW1  704   0.942   1.942   1.792 -0.2398 -0.2144  3.0281
  235SOL    HW2  705   0.977   1.797   1.876  0.5513  0.4679 -0.9688
  236SOL     OW  706   1.301   3.005   2.942  0.2075 -0.3780  0.2268
  236SOL    HW1  707   1.392   3.050   2.962  1.3361  0.1278 -2.3376
  236SOL    HW2  708   1.289   2.981   2.842 -0.3912  0.1820 -1.2552
  237SOL     OW  709   1.187   0.191   1.410 -0.0993  0.4762 -0.9072
  237SOL    HW1  710   1.162   0.105   1.357  0.6460  0.0621 -0.7690
  237SOL    HW2  711   1.289   0.191   1.425 -0.0419 -2.8718 -0.7739
  238SOL     OW  712   1.034   0.784   0.100  0.0280  0.5239  0.3257
  238SOL    HW1  713   1.056   0.857   0.031 -1.2075  0.4228  1.0747
  238SOL    HW2  714   0.958   0.717   0.071 -1.6858 -2.8113  1.1251
  239SOL     OW  715   2.842   0.925   2.737  0.1730  0.3817  0.0352
  239SOL    HW1  716   2.822   1.019   2.705 -0.4084 -0.4078  1.0320
  239SOL    HW2  717   2.872   0.930   2.834 -1.8887  1.4885  2.7662
  240SOL     OW  718   2.362   2.279   0.772  0.3684 -0.8361  0.2365
  240SOL    HW1  719   2.445   2.242   0.820 -1.3757  1.7434  2.4622
  240SOL    HW2  720   2.347   2.230   0.684 -0.9061 -0.2179 -0.0698
  241SOL     OW  721   1.017   1.216   1.086 -0.8589 -0.0941 -0.2493
  241SOL    HW1  722   1.004   1.300   1.135 -0.6969 -2.4032  0.0493
  241SOL    HW2  723   0.933   1.166   1.069 -0.7428  0.1935  1.4724
  242SOL     OW  724   0.609   0.500   0.972  0.6129  0.0108  0.4499
  242SOL    HW1  725   0.699   0.547   0.962  0.3400 -2.2067  0.4797
  242SOL    HW2  726   0.608   0.415   0.921 -0.6490  1.0434 -0.0627
  243SOL     OW  727   0.266   0.409   1.102 -0.1224  0.0212 -0.4145
  243SOL    HW1  728   0.241   0.486   1.165 -1.9140 -0.7598 -0.6931
  243SOL    HW2  729   0.366   0.386   1.116 -0.9733  3.7097  0.3888
  244SOL     OW  730   0.923   0.247   0.277 -0.2789 -1.2411 -0.4107
  244SOL    HW1  731   0.999   0.179   0.258  0.9726  3.0348 -0.8636
  244SOL    HW2  732   0.973   0.325   0.322  2.7745 -2.2639 -1.5471
  245SOL     OW  733   2.059   0.709   0.554 -0.5822  0.5156  0.2876
  245SOL    HW1  734   2.117   0.634   0.514 -0.6279  0.9351 -1.5028
  245SOL    HW2  735   1.968   0.712   0.506 -0.2912 -3.7174  2.2932
  246SOL     OW  736   0.269   0.481   1.587  0.2295 -0.3783  0.2673
  246SOL    HW1  737   0.188   0.501   1.650  3.6675  0.7464  1.1762
  246SOL    HW2  738   0.353   0.528   1.622 -0.4089  1.6465 -0.4880
  247SOL     OW  739   0.859   0.051   2.000 -0.1142 -0.0240 -0.2572
  247SOL    HW1  740   0.765   0.077   1.994 -2.1655 -0.4502 -1.2349
  247SOL    HW2  741   0.898   0.041   1.905  2.0236 -0.9752  0.3587
  248SOL     OW  742   0.680   1.554   2.279  0.1980 -0.0414 -0.8054
  248SOL    HW1  743   0.680   1.609   2.190 -0.5172  0.1525  0.3742
  248SOL    HW2  744   0.715   1.608   2.357 -0.2810 -0.6446 -0.3480
  249SOL     OW  745   0.451   2.698   0.159  0.0482 -0.7956 -0.6090
  249SOL    HW1  746   0.418   2.719   0.065 -1.0383 -0.0480 -0.5582
  249SOL    HW2  747   0.406   2.609   0.190 -1.6554 -1.1307 -1.3756
  250SOL     OW  748   0.663   0.244   2.268 -0.4025  0.0100 -0.1821
  250SOL    HW1  749   0.576   0.301   2.266  0.4116 -2.9556  2.2408
  250SOL    HW2  750   0.654   0.166   2.202  0.3142 -0.3049 -1.4254
  251SOL     OW  751   2.782   1.965   1.417 -0.5865  0.1857  0.3198
  251SOL    HW1  752   2.737   1.916   1.341 -0.6818  0.8939 -2.1989
  251SOL    HW2  753   2.785   2.071   1.404  1.9715  1.5079  0.1193
  252SOL     OW  754   1.847   0.039   1.729  0.1855 -0.0677  0.2877
  252SOL    HW1  755   1.826   0.059   1.826 -0.1040  2.4506 -0.0799
  252SOL    HW2  756   1.880   3.021   1.726 -0.8338  0.5103 -1.2099
  253SOL     OW  757   2.163   1.981   2.452  0.0769 -0.5841  0.0586
  253SOL    HW1  758   2.074   1.940   2.421 -3.8361 -1.2166 -1.6048
  253SOL    HW2  759   2.229   1.907   2.467  0.3789  0.1310 -1.4547
  254SOL     OW  760   0.646   1.447   1.431  0.3420 -0.3674 -0.5852
  254SOL    HW1  761   0.650   1.349   1.402  2.2065 -2.4343  0.6605
  254SOL    HW2  762   0.689   1.507   1.362  2.1305 -1.5306  0.5036
  255SOL     OW  763   0.662   0.010   1.645 -0.0450 -0.4576  0.4346
  255SOL    HW1  764   0.743   3.059   1.693 -1.1369 -1.9796 -0.8997
  255SOL    HW2  765   0.600   3.008   1.639  1.5904  1.1888  2.4895
  256SOL     OW  766   0.151   2.625   0.689 -0.5344  0.4368  0.1452
  256SOL    HW1  767   0.082   2.551   0.684  1.7903  1.8809 -0.4840
  256SOL    HW2  768   0.218   2.596   0.760  1.1464 -0.3645  1.9799
  257SOL     OW  769   0.558   2.611   2.273  0.5502  0.4847 -0.1588
  257SOL    HW1  770   0.660   2.600   2.274  0.7423  1.7062  1.9335
  257SOL    HW2  771   0.522   2.622   2.366  0.0551  1.1188  0.6109
  258SOL     OW  772   1.244   1.696   1.722 -0.1730 -0.7255 -0.5504
  258SOL    HW1  773   1.334   1.665   1.701  0.0507  0.4991  1.1357
  258SOL    HW2  774   1.170   1.631   1.742  1.5118 -1.6706  1.0650
  259SOL     OW  775   1.064   1.090   2.137  0.1145 -0.4380 -0.8516
  259SOL    HW1  776   0.987   1.120   2.083  2.9417  0.1074 -0.2400
  259SOL    HW2  777   1.130   1.166   2.151  3.0040 -0.1489  0.6253
  260SOL     OW  778   2.321   0.743   2.247  0.1203  0.0862  0.3879
  260SOL    HW1  779   2.314   0.726   2.346  1.5572  1.6395 -1.1656
  260SOL    HW2  780   2.332   0.842   2.224  0.8008 -1.3904 -1.8722
  261SOL     OW  781   0.763   1.286   0.826  0.0756  0.0072  0.2302
  261SOL    HW1  782   0.684   1.238   0.789 -1.1208  0.6759 -0.3108
  261SOL    HW2  783   0.850   1.259   0.776  1.6975 -1.2365  1.4458
  262SOL     OW  784   2.206   2.263   2.510  0.2123 -0.2266 -0.3668
  262SOL    HW1  785   2.222   2.164   2.517 -2.3847  2.9808  0.4913
  262SOL    HW2  786   2.163   2.293   2.600 -1.7184 -0.6617 -0.0354
  263SOL     OW  787   1.053   2.571   0.996  0.2027 -0.0718  0.1260
  263SOL    HW1  788   1.083   2.660   0.952 -1.0448  1.7332  1.8967
  263SOL    HW2  789   1.024   2.602   1.087  0.2535 -3.5653 -0.8034
  264SOL     OW  790   0.279   2.077   0.516 -0.3528  0.0047 -0.2177
  264SOL    HW1  791   0.276   2.133   0.600  1.6379  0.2520  1.8343
  264SOL    HW2  792   0.224   2.115   0.444 -0.5963  1.9404  2.3096
  265SOL     OW  793   1.472   1.129   2.438  0.4593  0.0142 -0.4377
  265SOL    HW1  794   1.438   1.101   2.343 -1.0602 -0.3508  0.1993
  265SOL    HW2  795   1.386   1.138   2.496 -0.9763  0.4032  0.2160
  266SOL     OW  796   1.185   2.019   2.024 -0.1440  0.9238 -0.1981
  266SOL    HW1  797   1.273   1.982   2.063 -1.0706  0.4263  1.0033
  266SOL    HW2  798   1.139   1.957   1.958  0.1054  1.4763 -0.0658
  267SOL     OW  799   2.403   1.163   2.541 -0.1544 -0.1083  0.2055
  267SOL    HW1  800   2.454   1.202   2.620  1.7345 -2.6978  1.8572
  267SOL    HW2  801   2.365   1.234   2.474  1.5288  2.7296 -0.4735
  268SOL     OW  802   0.887   1.085   2.793 -0.7517  0.3852  0.0236
  268SOL    HW1  803   0.788   1.077   2.824 -0.3780  0.7137 -1.0444
  268SOL    HW2  804   0.896   1.137   2.708 -0.3399 -2.5303 -0.7992
  269SOL     OW  805   2.963   1.646   2.260 -0.2203 -0.1564 -0.1142
  269SOL    HW1  806   2.907   1.695   2.188 -0.5219 -0.1025  2.5300
  269SOL    HW2  807   2.972   1.713   2.336 -1.1233 -0.5930  1.8971
  270SOL     OW  808   0.230   2.119   3.046 -0.9790 -0.2118 -0.2873
  270SOL    HW1  809   0.224   2.186   2.968  3.7561 -0.7026  1.9862
  270SOL    HW2  810   0.214   2.021   3.023 -2.0489  1.3448 -0.8984
  271SOL     OW  811   0.252   0.348   0.397  0.0032  0.5329 -0.1565
  271SOL    HW1  812   0.172   0.318   0.455 -0.9061 -0.0678  0.4291
  271SOL    HW2  813   0.225   0.410   0.323  3.0724 -0.0525 -0.2987
  272SOL     OW  814   3.012   3.066   0.332 -0.1378 -0.2359  0.4872
  272SOL    HW1  815   3.053   0.079   0.307 -2.3647 -1.2554  1.0802
  272SOL    HW2  816   2.988   3.067   0.433  2.6396 -0.7813 -0.8823
  273SOL     OW  817   0.203   2.915   1.859  0.3116 -0.6222  0.3113
  273SOL    HW1  818   0.206   3.004   1.913  1.9647  2.2351  0.9367
  273SOL    HW2  819   0.125   2.924   1.797  3.4695 -1.4169  0.6283
  274SOL     OW  820   0.025   0.724   1.181 -0.4048  0.2008 -0.6909
  274SOL    HW1  821   3.041   0.690   1.110  0.0796 -0.4120 -1.2661
  274SOL    HW2  822   0.057   0.644   1.242  0.8915 -0.3691  2.6183
  275SOL     OW  823   0.827   1.513   0.946  0.0173 -0.3618  0.0021
  275SOL    HW1  824   0.800   1.416   0.920 -1.5128  1.9633 -2.6457
  275SOL    HW2  825   0.764   1.542   1.023 -0.6820 -2.2687 -0.6328
  276SOL     OW  826   0.491   1.076   1.801 -0.5509 -0.2164 -0.6076
  276SOL    HW1  827   0.538   1.113   1.884 -1.1218  1.0267  0.6859
  276SOL    HW2  828   0.440   1.144   1.743  0.7162  0.3931 -1.3320
  277SOL     OW  829   1.268   1.956   1.675 -0.2423 -0.4286  0.1004
  277SOL    HW1  830   1.180   2.004   1.658  1.5504  0.3359 -2.1714
  277SOL    HW2  831   1.252   1.856   1.699  1.4077 -0.4125 -0.4885
  278SOL     OW  832   2.307   2.735   1.911  0.2184 -0.0462 -0.3317
  278SOL    HW1  833   2.276   2.820   1.862 -1.1866  1.6025  0.7047
  278SOL    HW2  834   2.230   2.674   1.916  0.6257  1.3455 -0.4101
  279SOL     OW  835   1.335   1.638   2.793 -0.3286 -0.5511  0.2907
  279SOL    HW1  836   1.429   1.646   2.835 -3.9129  0.1294 -1.3483
  279SOL    HW2  837   1.280   1.714   2.835 -1.9840  2.4206 -0.0712
  280SOL     OW  838   1.391   0.440   0.450  0.4821 -0.0537 -0.2907
  280SOL    HW1  839   1.479   0.489   0.466 -2.9709 -1.5680 -0.8635
  280SOL    HW2  840   1.315   0.493   0.493 -0.4637  0.6161  1.7025
  281SOL     OW  841   0.682   0.533   1.388  0.4843 -0.4478  0.7683
  281SOL    HW1  842   0.663   0.624   1.344 -0.5566  0.2432  2.4999
  281SOL    HW2  843   0.688   0.553   1.488 -1.4554  0.8644 -0.3805
  282SOL     OW  844   3.002   2.779   0.637 -0.2092 -0.1995  0.6757
  282SOL    HW1  845   0.010   2.720   0.650 -0.3574 -0.2021  2.0216
  282SOL    HW2  846   3.020   2.845   0.561  0.6762  0.6349  1.2357
  283SOL     OW  847   1.429   1.879   1.430 -0.1270  0.1859 -0.1903
  283SOL    HW1  848   1.365   1.839   1.358 -0.2334 -0.6709  1.6716
  283SOL    HW2  849   1.375   1.899   1.520 -1.4676 -1.3907  4.7358
  284SOL     OW  850   2.627   2.638   1.302 -0.1425 -0.2004 -0.0142
  284SOL    HW1  851   2.727   2.628   1.284  0.4756 -1.2726 -0.5773
  284SOL    HW2  852   2.572   2.600   1.220 -1.4086  0.4356  0.3894
  285SOL     OW  853   0.549   2.392   0.861  0.1843  0.1844 -0.4178
  285SOL    HW1  854   0.611   2.477   0.862 -1.5231  1.2256  1.2764
  285SOL    HW2  855   0.528   2.363   0.764  2.3252 -0.2093 -0.1536
  286SOL     OW  856   0.452   2.696   1.168  0.0022  0.5590 -0.4432
  286SOL    HW1  857   0.491   2.786   1.153  1.3507 -4.2602 -0.6952
  286SOL    HW2  858   0.352   2.698   1.194 -0.6792 -0.3607 -0.5279
  287SOL     OW  859   0.500   1.188   0.808  0.2514  0.2110 -0.2196
  287SOL    HW1  860   0.474   1.219   0.712 -2.1119  0.0430 -2.3571
  287SOL    HW2  861   0.444   1.105   0.828  2.0549 -0.0807  0.9945
  288SOL     OW  862   1.211   1.850   2.545  0.3947 -0.3572  0.6620
  288SOL    HW1  863   1.186   1.793   2.622 -1.4137  0.8091 -1.9095
  288SOL    HW2  864   1.285   1.803   2.493 -2.2240  1.2070  1.0930
  289SOL     OW  865   2.472   1.442   0.134  0.1443  0.0919  0.8055
  289SOL    HW1  866   2.396   1.509   0.145  0.4145 -0.6066  1.3859
  289SOL    HW2  867   2.563   1.479   0.107  1.0247 -1.1098  1.4322
  290SOL     OW  868   1.186   1.376   0.928 -0.1059  0.4536  0.1613
  290SOL    HW1  869   1.266   1.404   0.984 -0.0093 -0.2410  0.6080
  290SOL    HW2  870   1.117   1.323   0.981 -2.7474  1.9780 -0.1842
  291SOL     OW  871   1.073   0.962   2.951 -0.6109  0.2232  0.2929
  291SOL    HW1  872   1.167   0.980   2.904  1.4769  2.4287  0.9093
  291SOL    HW2  873   0.996   1.004   2.898 -1.0547 -1.1230 -1.9278
  292SOL     OW  874   1.529   1.763   0.143 -0.1061 -0.2120  0.2010
  292SOL    HW1  875   1.491   1.851   0.171 -0.6661 -2.5974 -2.5572
  292SOL    HW2  876   1.498   1.683   0.196  0.2432 -0.8243 -0.1476
  293SOL     OW  877   1.553   2.949   1.031 -0.2363 -0.6204 -0.2147
  293SOL    HW1  878   1.542   3.042   1.079  0.5679  0.1794  1.8096
  293SOL    HW2  879   1.463   2.906   1.013  1.6496 -1.2026  1.8609
  294SOL     OW  880   2.166   0.911   0.291  0.5965  0.4683 -0.0520
  294SOL    HW1  881   2.248   0.888   0.236  0.2490  0.8754 -1.5662
  294SOL    HW2  882   2.096   0.842   0.263 -3.9902 -3.1561 -0.7944
  295SOL     OW  883   1.867   1.820   2.864 -0.0915 -0.4538 -0.0278
  295SOL    HW1  884   1.787   1.855   2.920  0.4747  2.5850 -2.8282
  295SOL    HW2  885   1.902   1.889   2.800 -2.0728 -0.7072  0.4089
  296SOL     OW  886   1.575   1.166   1.397  0.5404  0.3206  0.1251
  296SOL    HW1  887   1.548   1.111   1.314 -0.0173  0.2160 -0.3923
  296SOL    HW2  888   1.507   1.136   1.469 -1.6890  0.1383 -0.1632
  297SOL     OW  889   0.214   0.952   2.281  0.1927  0.2266 -0.2347
  297SOL    HW1  890   0.253   0.872   2.239 -0.8338  2.2633 -1.3627
  297SOL    HW2  891   0.177   0.921   2.374 -1.2846 -0.0505  1.7714
  298SOL     OW  892   1.575   2.124   1.439  0.1831 -0.5401 -0.1648
  298SOL    HW1  893   1.554   2.027   1.433  3.7022  0.2663  1.1444
  298SOL    HW2  894   1.522   2.184   1.503  1.2842 -2.9735 -2.0686
  299SOL     OW  895   1.070   0.349   2.518  0.0328 -0.1801 -0.4845
  299SOL    HW1  896   1.161   0.302   2.518 -3.1826 -0.3327  0.3059
  299SOL    HW2  897   0.995   0.282   2.528  1.3337  1.7765 -0.8537
  300SOL     OW  898   2.335   1.753   0.513  0.4025  0.2887  0.2113
  300SOL    HW1  899   2.351   1.778   0.415  2.8085 -0.7330 -0.4677
  300SOL    HW2  900   2.398   1.799   0.574  1.0568  0.8234  1.2087
  301SOL     OW  901   2.231   0.469   2.546  0.3435  0.0815 -0.4739
  301SOL    HW1  902   2.268   0.558   2.508  0.2074 -0.4108 -1.1056
  301SOL    HW2  903   2.275   0.456   2.635 -1.8327  2.6032 -2.3976
  302SOL     OW  904   2.572   2.035   2.485  0.5954  0.3869 -0.5981
  302SOL    HW1  905   2.540   2.070   2.575  2.1339 -1.3597 -1.0035
  302SOL    HW2  906   2.571   2.100   2.409 -0.8096 -2.8527  1.8704
  303SOL     OW  907   0.252   2.650   2.376 -0.0197 -0.6537  0.4848
  303SOL    HW1  908   0.335   2.609   2.423  3.2947 -1.2169  0.9029
  303SOL    HW2  909   0.224   2.741   2.414 -0.9982  1.6931  0.7791
  304SOL     OW  910   2.992   1.604   1.390 -0.1478 -0.0495 -0.2504
  304SOL    HW1  911   3.051   1.606   1.310 -0.2646  1.0537  2.6508
  304SOL    HW2  912   2.991   1.697   1.432 -0.1496 -3.3683 -1.8823
  305SOL     OW  913   0.118   0.412   1.975 -0.2110  0.1826 -0.2916
  305SOL    HW1  914   0.219   0.425   1.981 -0.1014 -0.5643 -0.9446
  305SOL    HW2  915   0.090   0.313   1.986 -0.6555 -1.7019  1.8024
  306SOL     OW  916   1.199   1.528   0.435  0.1816  0.2293  0.3066
  306SOL    HW1  917   1.242   1.460   0.500 -0.2594  0.7410  0.3838
  306SOL    HW2  918   1.269   1.558   0.371 -1.0227 -1.7241  1.2085
  307SOL     OW  919   3.025   2.916   0.880 -0.2814 -0.0676 -0.5748
  307SOL    HW1  920   0.047   2.939   0.914  2.9290  0.4778  0.5049
  307SOL    HW2  921   3.019   2.881   0.786 -0.1338  1.6954  0.8135
  308SOL     OW  922   3.004   1.211   2.269  0.1399  0.3434 -0.2822
  308SOL    HW1  923   3.023   1.234   2.369  2.8924  0.1933 -0.3285
  308SOL    HW2  924   0.015   1.191   2.219 -0.3267  0.9303  2.6713
  309SOL     OW  925   2.705   1.818   2.803 -0.9170  0.2680  0.4429
  309SOL    HW1  926   2.619   1.767   2.834 -1.8782 -0.4368 -0.4743
  309SOL    HW2  927   2.740   1.885   2.879  2.2460  0.7646  2.6341
  310SOL     OW  928   2.127   0.466   0.050 -0.0518 -0.1260 -0.6831
  310SOL    HW1  929   2.155   0.563   0.068  1.1350  2.1173  0.0258
  310SOL    HW2  930   2.024   0.459   0.044 -1.4103  0.4185  0.3228
  311SOL     OW  931   1.921   0.790   3.013 -0.0294 -0.6656 -0.6536
  311SOL    HW1  932   1.925   0.882   2.963  1.3565 -1.2424 -1.4953
  311SOL    HW2  933   1.988   0.722   2.983  3.2682 -0.8879  0.0973
  312SOL     OW  934   1.247   1.731   2.131  0.0320  0.6342 -0.1596
  312SOL    HW1  935   1.319   1.777   2.176 -1.1902 -3.0841 -3.7357
  312SOL    HW2  936   1.225   1.641   2.165 -1.0041  3.0631  0.4498
  313SOL     OW  937   3.033   0.694   0.244  0.1962  0.2689  0.3609
  313SOL    HW1  938   0.005   0.618   0.199 -1.2572  0.0237 -0.4855
  313SOL    HW2  939   2.932   0.678   0.252  0.2176 -0.9454 -0.1426
  314SOL     OW  940   0.415   1.846   1.463  0.1244 -0.2921 -0.1962
  314SOL    HW1  941   0.389   1.874   1.559 -3.4300  1.2368  1.8750
  314SOL    HW2  942   0.415   1.747   1.455  0.1932  3.3236  0.6419
  315SOL     OW  943   0.893   1.635   1.731 -0.3035 -0.0502 -0.3917
  315SOL    HW1  944   0.926   1.541   1.758  2.2108 -2.4892 -0.1640
  315SOL    HW2  945   0.793   1.642   1.751  0.8896 -2.2773 -1.1066
  316SOL     OW  946   0.481   2.284   0.633  0.7441 -0.6145  0.1345
  316SOL    HW1  947   0.380   2.298   0.643 -2.2879  0.1846  0.3426
  316SOL    HW2  948   0.498   2.184   0.604  0.0430 -0.8970 -0.3772
  317SOL     OW  949   2.476   0.106   1.089  0.7076  0.5777  0.7059
  317SOL    HW1  950   2.565   0.081   1.134 -1.8474  0.3613  0.9574
  317SOL    HW2  951   2.493   0.162   1.009 -6.0320 -3.3167  0.9875
  318SOL     OW  952   1.486   2.991   0.223  0.2033  0.8852  0.0902
  318SOL    HW1  953   1.412   3.021   0.162  4.4636  3.4783  1.2569
  318SOL    HW2  954   1.530   2.907   0.190 -1.0815 -0.3271 -3.4861
  319SOL     OW  955   1.612   0.566   2.737 -0.0317  0.1239  0.0537
  319SOL    HW1  956   1.708   0.603   2.749  0.8344  1.0219  1.2281
  319SOL    HW2  957   1.538   0.633   2.762  0.0995 -0.2364  0.2747
  320SOL     OW  958   2.942   1.908   1.848  0.4048  0.4161 -0.6287
  320SOL    HW1  959   2.901   1.878   1.939 -1.5999 -0.0697  2.2935
  320SOL    HW2  960   3.015   1.850   1.814 -1.8306  0.8458 -1.1834
  321SOL     OW  961   3.041   2.480   2.897 -0.1587 -0.6537  0.2099
  321SOL    HW1  962   2.989   2.556   2.944 -0.6553 -1.7589  3.9811
  321SOL    HW2  963   2.977   2.421   2.843  0.5893 -0.0477 -0.8847
  322SOL     OW  964   2.540   0.770   1.994 -0.0847 -0.0478  0.2064
  322SOL    HW1  965   2.468   0.729   2.054 -1.9054 -0.0347  0.1735
  322SOL    HW2  966   2.589   0.695   1.943  0.8291 -1.2328 -0.2696
  323SOL     OW  967   1.968   1.228   0.621  0.1752 -0.2664  0.0035
  323SOL    HW1  968   2.012   1.144   0.580 -1.6859  0.9743  0.5514
  323SOL    HW2  969   1.919   1.212   0.711 -0.1117  1.0022 -0.0155
  324SOL     OW  970   0.158   0.172   1.302  0.0610  0.2682 -0.6389
  324SOL    HW1  971   0.235   0.143   1.363  0.0851 -1.3493 -0.8576
  324SOL    HW2  972   0.173   0.258   1.262 -1.1672  1.3515  0.3213
  325SOL     OW  973   2.566   3.007   1.664 -0.0656  0.0377 -0.1406
  325SOL    HW1  974   2.623   0.015   1.645 -1.0668 -1.5765  0.6218
  325SOL    HW2  975   2.513   3.010   1.756  0.5035 -0.1221 -0.2678
  326SOL     OW  976   1.630   2.740   0.176  0.1851 -0.1193  0.4611
  326SOL    HW1  977   1.669   2.651   0.202 -0.6756  0.1664  1.4335
  326SOL    HW2  978   1.696   2.791   0.120 -1.2496 -1.6693  0.5888
  327SOL     OW  979   1.696   2.091   0.296 -0.6178  0.2168 -0.3799
  327SOL    HW1  980   1.622   2.158   0.323  0.9102  0.8934  1.1591
  327SOL    HW2  981   1.737   2.114   0.206  1.5204 -0.0801 -2.8173
  328SOL     OW  982   3.011   2.158   1.840  0.1615 -0.5254  0.0725
  328SOL    HW1  983   2.974   2.068   1.869  1.6306 -0.0710 -1.7777
  328SOL    HW2  984   2.954   2.236   1.869  3.6757 -2.5543 -2.7829
  329SOL     OW  985   2.976   2.169   1.224 -0.3493 -0.2328 -0.1114
  329SOL    HW1  986   2.890   2.219   1.207  1.6016 -0.6088  0.8003
  329SOL    HW2  987   2.963   2.072   1.200 -1.1873  0.4885 -0.1760
  330SOL     OW  988   2.251   0.937   2.641  0.5373  0.0773  1.2088
  330SOL    HW1  989   2.154   0.940   2.627  0.1587 -0.5983 -0.7902
  330SOL    HW2  990   2.297   1.026   2.625  1.8314  2.1029 -1.9503
  331SOL     OW  991   2.175   1.646   0.879  0.0512  0.1776  0.3656
  331SOL    HW1  992   2.129   1.632   0.783 -1.7379  0.7658 -3.4538
  331SOL    HW2  993   2.217   1.739   0.882  2.3591  0.4328 -2.6468
  332SOL     OW  994   0.138   2.535   1.056 -0.6390 -0.1753 -0.1383
  332SOL    HW1  995   0.212   2.553   0.990 -3.0603  0.5509  1.0386
  332SOL    HW2  996   0.145   2.596   1.136 -0.6042  0.4629 -1.1681
  333SOL     OW  997   2.982   1.855   2.474  0.0470 -0.1109  0.0729
  333SOL    HW1  998   3.031   1.857   2.560  0.1146 -1.9495 -0.2453
  333SOL    HW2  999   2.883   1.874   2.492 -0.4034  1.2740  1.6115
  334SOL     OW 1000   0.597   0.867   0.998  0.5006  0.0653  0.2629
  334SOL    HW1 1001   0.501   0.894   0.972 -0.1610 -4.2215  1.8930
  334SOL    HW2 1002   0.593   0.795   1.070 -1.8954 -0.6150  1.1276
  335SOL     OW 1003   0.100   1.566   2.111  0.0445 -0.1219 -0.3215
  335SOL    HW1 1004   0.021   1.616   2.157 -0.1010  0.1673 -2.4268
  335SOL    HW2 1005   0.145   1.501   2.177  3.1191  0.9652 -2.4020
  336SOL     OW 1006   1.987   2.887   2.147 -0.3388  0.3108  0.4461
  336SOL    HW1 1007   1.996   2.844   2.237 -0.1913 -0.5143 -2.4953
  336SOL    HW2 1008   1.956   2.987   2.155  0.1984  0.5159 -2.0986
  337SOL     OW 1009   0.912   0.754   1.208  0.2195  0.0685  0.0714
  337SOL    HW1 1010   0.884   0.821   1.276  1.9619 -2.2181  0.4347
  337SOL    HW2 1011   0.980   0.800   1.147  0.3315 -1.8198  1.8859
  338SOL     OW 1012   1.635   1.902   1.084 -0.1050 -0.3592  0.0797
  338SOL    HW1 1013   1.640   2.002   1.118  0.8198  3.1844  5.1719
  338SOL    HW2 1014   1.646   1.835   1.159  0.3066  1.2926 -0.4737
  339SOL     OW 1015   0.207   1.898   1.254 -0.4883 -0.2943  0.8400
  339SOL    HW1 1016   0.273   1.826   1.283  0.3454 -1.6797  0.8821
  339SOL    HW2 1017   0.126   1.893   1.317 -0.6910  0.3189 -1.7029
  340SOL     OW 1018   0.586   0.017   2.051  0.2209  0.4136  0.4988
  340SOL    HW1 1019   0.644   3.020   2.092 -2.4854 -1.0692 -1.4520
  340SOL    HW2 1020   0.482   3.072   2.055 -0.3118 -1.4196 -2.0286
  341SOL     OW 1021   1.826   1.511   0.625 -0.5105 -0.8896  0.2027
  341SOL    HW1 1022   1.907   1.570   0.595  2.9380  3.0010  0.7824
  341SOL    HW2 1023   1.842   1.409   0.610 -1.5521 -0.6869  0.5818
  342SOL     OW 1024   1.737   1.408   0.334 -0.3811 -0.2481 -0.1948
  342SOL    HW1 1025   1.700   1.355   0.258  1.8671  0.9424  1.4193
  342SOL    HW2 1026   1.782   1.496   0.303  1.7859 -0.2899  2.0179
  343SOL     OW 1027   1.957   0.093   0.896 -0.0413 -0.1141  0.1355
  343SOL    HW1 1028   1.891   0.111   0.969  0.2701 -2.6726 -2.8863
  343SOL    HW2 1029   1.983   3.069   0.900 -1.2726 -1.7799 -0.3765
  344SOL     OW 1030   2.630   0.325   2.985  0.5653 -0.4096 -0.5172
  344SOL    HW1 1031   2.695   0.289   3.058 -0.2572 -0.0914  0.7205
  344SOL    HW2 1032   2.561   0.257   2.953 -1.6228  2.3461  0.7053
  345SOL     OW 1033   1.148   2.576   1.570 -0.1429  0.5120 -0.5886
  345SOL    HW1 1034   1.150   2.677   1.561 -0.8360  0.0338 -0.1498
  345SOL    HW2 1035   1.068   2.544   1.633 -3.4221  1.2707 -1.3399
  346SOL     OW 1036   2.309   2.191   1.302  0.1211 -0.0507 -0.1756
  346SOL    HW1 1037   2.211   2.213   1.279 -0.5414 -0.6506  1.1947
  346SOL    HW2 1038   2.323   2.172   1.402  1.4632 -1.0013  2.2658
  347SOL     OW 1039   2.246   2.943   1.026  0.2165 -0.0181 -0.2706
  347SOL    HW1 1040   2.276   3.032   0.995 -3.0124 -1.0177  1.1621
  347SOL    HW2 1041   2.149   2.927   1.011 -0.4610  0.8880  0.9148
  348SOL     OW 1042   0.949   1.169   1.389  1.0333 -0.5402  0.2553
  348SOL    HW1 1043   0.899   1.081   1.368 -0.8256 -0.2949 -0.7588
  348SOL    HW2 1044   0.909   1.235   1.324 -3.2036  0.8118 -0.2661
  349SOL     OW 1045   2.374   0.405   2.797  0.2116  0.3979  0.3932
  349SOL    HW1 1046   2.431   0.487   2.814  0.5292 -0.0307 -1.8387
  349SOL    HW2 1047   2.422   0.318   2.820  3.0887 -0.1144  0.8533
  350SOL     OW 1048   2.099   2.291   2.788 -0.2532 -0.7268 -0.0469
  350SOL    HW1 1049   2.051   2.292   2.876  0.5833  3.5256 -0.5178
  350SOL    HW2 1050   2.197   2.261   2.805  0.2623 -2.0357 -1.0472
  351SOL     OW 1051   1.077   0.310   0.714  0.6786 -0.4335 -0.7278
  351SOL    HW1 1052   1.153   0.306   0.644 -0.1406  0.4996  0.2855
  351SOL    HW2 1053   1.043   0.403   0.737  0.9816  2.7041  2.6397
  352SOL     OW 1054   1.690   2.008   2.362  0.1794  0.2536 -0.0329
  352SOL    HW1 1055   1.675   2.097   2.408 -1.9225  0.9462 -1.5324
  352SOL    HW2 1056   1.770   2.015   2.296  2.5058  2.5826 -4.5260
  353SOL     OW 1057   0.313   0.687   0.148  0.1897  0.3813  0.2621
  353SOL    HW1 1058   0.356   0.698   0.056  0.2136 -0.8572  0.3879
  353SOL    HW2 1059   0.300   0.780   0.188 -1.2395  2.4851  0.5565
  354SOL     OW 1060   0.882   2.482   2.611  0.0936  0.4314  0.0979
  354SOL    HW1 1061   0.825   2.438   2.544  1.7419  2.0319  1.0218
  354SOL    HW2 1062   0.875   2.429   2.699 -0.3087 -0.2384  0.7359
  355SOL     OW 1063   2.731   2.784   1.549 -0.1170  0.2404  0.0427
  355SOL    HW1 1064   2.668   2.855   1.582  1.2378 -0.6000  1.1055
  355SOL    HW2 1065   2.685   2.729   1.477  2.0880 -3.8605  0.3686
  356SOL     OW 1066   2.568   1.102   0.821  0.4803  0.4883 -0.6818
  356SOL    HW1 1067   2.550   1.005   0.851 -2.2681 -1.5760 -2.5188
  356SOL    HW2 1068   2.481   1.152   0.812  0.7492 -0.9280  2.5383
  357SOL     OW 1069   2.739   0.178   1.150  0.2269  0.6848 -0.2370
  357SOL    HW1 1070   2.786   0.083   1.156 -1.0709 -3.2830  0.0950
  357SOL    HW2 1071   2.733   0.225   1.053 -0.7149 -0.1637 -0.4764
  358SOL     OW 1072   1.099   2.212   1.326  0.1238  0.3131 -0.2292
  358SOL    HW1 1073   1.151   2.250   1.250  1.4819 -0.1693  1.1092
  358SOL    HW2 1074   1.139   2.227   1.419  1.5583  0.6201 -1.9684
  359SOL     OW 1075   3.033   2.683   2.565 -0.5477 -1.0524 -0.0184
  359SOL    HW1 1076   0.026   2.627   2.617 -0.3232 -1.2351  0.4265
  359SOL    HW2 1077   0.002   2.732   2.492 -1.2393 -1.2748 -2.3672
  360SOL     OW 1078   1.242   0.915   1.687 -0.1387 -0.0026 -0.0461
  360SOL    HW1 1079   1.165   0.918   1.753  0.3925 -2.7174 -1.5500
  360SOL    HW2 1080   1.259   0.819   1.656  1.0862  0.0716 -1.5426
  361SOL     OW 1081   2.553   0.323   0.479  0.3801 -0.1214  0.1017
  361SOL    HW1 1082   2.615   0.253   0.439 -2.9422  0.5945  0.1069
  361SOL    HW2 1083   2.480   0.279   0.530  0.5923  3.7202 -0.8412
  362SOL     OW 1084   0.328   0.039   0.541 -0.4256 -0.2944  0.1137
  362SOL    HW1 1085   0.404   0.021   0.477  1.2402  2.1742 -1.5545
  362SOL    HW2 1086   0.362   0.097   0.618  2.1669  1.5979 -1.3194
  363SOL     OW 1087   0.804   1.384   0.343 -0.3608 -0.4279 -0.2118
  363SOL    HW1 1088   0.735   1.312   0.373  2.0439 -2.4480  1.2354
  363SOL    HW2 1089   0.835   1.434   0.424  2.0011  2.1559 -1.2237
  364SOL     OW 1090   0.644   0.808   1.588  0.4936 -0.4552  0.5839
  364SOL    HW1 1091   0.639   0.715   1.631 -0.7096 -1.3508  1.4852
  364SOL    HW2 1092   0.552   0.849   1.572 -1.6384  0.3285 -1.5027
  365SOL     OW 1093   2.740   1.323   0.622  0.9830  0.7912 -0.2686
  365SOL    HW1 1094   2.747   1.245   0.688  0.1462 -2.3307 -0.1255
  365SOL    HW2 1095   2.679   1.393   0.666  0.1873  1.4015  1.9864
  366SOL     OW 1096   2.693   1.600   0.809 -0.5467  0.5209 -0.5700
  366SOL    HW1 1097   2.772   1.549   0.853  1.0399 -2.0583  0.6674
  366SOL    HW2 1098   2.726   1.682   0.759 -1.8744 -0.3620 -0.2388
  367SOL     OW 1099   2.317   1.819   2.175  0.0495 -0.4307 -0.0213
  367SOL    HW1 1100   2.363   1.813   2.268  2.0148  1.8551  2.2470
  367SOL    HW2 1101   2.215   1.821   2.181  1.9616 -0.2142  1.7239
  368SOL     OW 1102   2.665   1.520   1.132  0.3512  0.0897  0.1767
  368SOL    HW1 1103   2.762   1.510   1.113  0.5723  1.4378 -0.5604
  368SOL    HW2 1104   2.605   1.443   1.097 -2.0808 -0.7931  1.1507
  369SOL     OW 1105   2.300   2.588   2.741  0.0127 -0.4139  1.0888
  369SOL    HW1 1106   2.330   2.516   2.680  0.9983 -1.0940  0.7244
  369SOL    HW2 1107   2.295   2.680   2.699 -0.3107  3.8090 -0.6478
  370SOL     OW 1108   0.073   3.072   1.133 -0.4184  0.3217 -0.3360
  370SOL    HW1 1109   0.115   0.061   1.195 -3.3247 -0.4611 -1.2291
  370SOL    HW2 1110   0.145   3.037   1.067  3.0265  1.2723  1.7113
  371SOL     OW 1111   0.844   1.761   2.888 -0.1771 -0.1118  0.2530
  371SOL    HW1 1112   0.904   1.729   2.971 -0.2919  0.1494 -0.6835
  371SOL    HW2 1113   0.753   1.716   2.888 -0.5838  1.1658 -0.8972
  372SOL     OW 1114   1.149   0.858   0.340 -0.1094  0.5791  0.4181
  372SOL    HW1 1115   1.214   0.786   0.369  1.4744 -1.6948  0.1074
  372SOL    HW2 1116   1.095   0.826   0.256 -0.5576  0.4906 -0.5445
  373SOL     OW 1117   1.622   2.526   2.650  0.1508  0.6177 -0.1712
  373SOL    HW1 1118   1.710   2.558   2.615 -0.2792 -1.5388  0.6030
  373SOL    HW2 1119   1.619   2.509   2.749 -2.7077  0.4001 -0.5352
  374SOL     OW 1120   0.373   2.251   0.232 -0.2674  0.7414 -0.1538
  374SOL    HW1 1121   0.450   2.201   0.278 -2.7790  1.5145 -2.6016
  374SOL    HW2 1122   0.293   2.191   0.199 -1.7428 -2.1544 -0.0401
  375SOL     OW 1123   0.663   1.331   1.681 -0.2045  0.0283 -0.3916
  375SOL    HW1 1124   0.669   1.401   1.611 -1.6709 -1.3082  1.0883
  375SOL    HW2 1125   0.750   1.278   1.680  0.0161  0.1256  0.3778
  376SOL     OW 1126   0.543   2.384   1.974  0.1335  0.7863 -0.6863
  376SOL    HW1 1127   0.530   2.427   1.886  1.5592 -3.4546  2.6616
  376SOL    HW2 1128   0.461   2.400   2.035  0.7949 -2.4193  1.5332
  377SOL     OW 1129   2.869   1.430   2.180  0.1009  0.4853 -0.4310
  377SOL    HW1 1130   2.914   1.518   2.208  1.3683  0.0647  0.2947
  377SOL    HW2 1131   2.913   1.344   2.217  1.5232 -0.9266 -1.1976
  378SOL     OW 1132   1.198   2.922   0.150  0.4694  0.0655  0.1495
  378SOL    HW1 1133   1.120   2.906   0.086 -2.9380 -0.6708  0.1692
  378SOL    HW2 1134   1.272   2.851   0.138  1.3165  2.0029  0.6304
  379SOL     OW 1135   2.025   0.523   0.747 -0.0980  0.1943  0.4037
  379SOL    HW1 1136   2.038   0.598   0.674 -2.4969 -0.6257 -0.8983
  379SOL    HW2 1137   2.102   0.531   0.810  1.4186  0.8951  0.5803
  380SOL     OW 1138   0.000   1.878   1.432  0.2134 -0.1764  0.0979
  380SOL    HW1 1139   0.027   1.853   1.528 -0.0317  4.0595 -2.7478
  380SOL    HW2 1140   2.979   1.900   1.430  0.5508 -0.0393  1.9039
  381SOL     OW 1141   2.016   1.777   2.174 -0.0487  0.4169 -0.3212
  381SOL    HW1 1142   2.045   1.705   2.237  0.8360  0.7298  0.3045
  381SOL    HW2 1143   1.967   1.734   2.094  0.6517 -0.0712 -2.5581
  382SOL     OW 1144   0.015   0.329   2.644  0.3246 -0.3090 -0.4903
  382SOL    HW1 1145   2.999   0.327   2.682  0.0563  0.2242 -0.7006
  382SOL    HW2 1146   0.039   0.408   2.580  2.3811  0.2100  0.5177
  383SOL     OW 1147   1.607   1.339   2.612  0.2489 -0.4613  0.2133
  383SOL    HW1 1148   1.685   1.291   2.657  1.6526  1.3246  1.3765
  383SOL    HW2 1149   1.600   1.319   2.512 -1.4966  1.0336 -0.3408
  384SOL     OW 1150   1.256   1.739   1.235 -0.0311  0.0878  0.3822
  384SOL    HW1 1151   1.318   1.702   1.162  0.1923  2.4963 -1.8418
  384SOL    HW2 1152   1.202   1.820   1.210  0.5565 -0.0448 -2.0592
  385SOL     OW 1153   1.784   2.567   0.840 -0.8973  0.3469 -0.0032
  385SOL    HW1 1154   1.775   2.625   0.922 -1.6980 -0.0288 -0.3134
  385SOL    HW2 1155   1.799   2.624   0.755  2.1617 -1.6199  2.5898
  386SOL     OW 1156   1.829   1.764   0.924 -0.1378 -0.0207 -0.6894
  386SOL    HW1 1157   1.816   1.664   0.902  2.4547 -1.7788 -1.2401
  386SOL    HW2 1158   1.738   1.802   0.954  1.4172 -2.7731 -0.0484
  387SOL     OW 1159   0.247   2.271   1.479  0.2260 -0.2496 -0.4507
  387SOL    HW1 1160   0.291   2.220   1.405  0.0454  3.2751 -0.6390
  387SOL    HW2 1161   0.184   2.209   1.530 -2.2827  1.1755 -1.9780
  388SOL     OW 1162   2.847   0.519   1.651 -0.0898  0.0102  0.2673
  388SOL    HW1 1163   2.866   0.618   1.633  0.7760  1.2828  1.0634
  388SOL    HW2 1164   2.805   0.507   1.741  2.4691 -0.7881 -1.6498
  389SOL     OW 1165   1.752   0.981   0.412  0.6807 -0.4560  0.2366
  389SOL    HW1 1166   1.765   0.890   0.459  1.1238 -1.9107  3.8483
  389SOL    HW2 1167   1.830   1.005   0.352  0.1893  1.2147 -1.2986
  390SOL     OW 1168   1.010   2.036   2.533  0.1497 -0.1031  0.0407
  390SOL    HW1 1169   0.992   2.062   2.436  0.7690  1.9970 -0.3237
  390SOL    HW2 1170   1.088   1.974   2.537 -1.0064  1.4245  0.1688
  391SOL     OW 1171   0.635   2.145   2.869 -0.5574 -0.0778  0.4753
  391SOL    HW1 1172   0.627   2.246   2.856 -0.0447  1.5286 -1.2090
  391SOL    HW2 1173   0.546   2.102   2.837 -1.2078 -4.6301  1.4021
  392SOL     OW 1174   0.005   2.848   1.644  0.2194  0.3498 -0.9577
  392SOL    HW1 1175   3.027   2.857   1.558 -0.5356 -0.5750  0.1269
  392SOL    HW2 1176   3.021   2.875   1.724 -0.9143  2.1718  1.7320
  393SOL     OW 1177   1.677   2.491   0.287  0.1037  0.2632 -0.7407
  393SOL    HW1 1178   1.767   2.478   0.334 -0.9699  3.2330  1.3288
  393SOL    HW2 1179   1.603   2.516   0.356 -1.1208 -1.7674  2.0756
  394SOL     OW 1180   0.811   0.486   2.129  0.1087  0.4165  0.2033
  394SOL    HW1 1181   0.819   0.411   2.060  0.5573 -2.3983 -0.1581
  394SOL    HW2 1182   0.838   0.447   2.219  0.0124 -0.3902  0.4917
  395SOL     OW 1183   0.409   1.163   1.239  0.3530  0.0939  0.2561
  395SOL    HW1 1184   0.328   1.155   1.179  2.8625  3.6331  1.7298
  395SOL    HW2 1185   0.374   1.155   1.335 -1.0797  1.2183 -1.6258
  396SOL     OW 1186   1.693   1.272   2.302 -0.0036  0.5698 -0.2370
  396SOL    HW1 1187   1.707   1.236   2.206  1.9809  0.5024 -4.1854
  396SOL    HW2 1188   1.628   1.214   2.358 -0.1835 -0.1935 -0.4499
  397SOL     OW 1189   0.795   0.361   0.063  0.4218  0.3460  0.4744
  397SOL    HW1 1190   0.832   0.326   0.153 -0.9545  1.4004  0.8157
  397SOL    HW2 1191   0.703   0.324   0.050  1.4205 -0.0262  1.2216
  398SOL     OW 1192   0.794   1.919   2.649 -0.3796  0.6564 -0.1721
  398SOL    HW1 1193   0.816   1.878   2.738  0.4517 -1.4829 -3.0790
  398SOL    HW2 1194   0.866   1.984   2.615  1.1198  0.3413  0.6025
  399SOL     OW 1195   2.652   1.547   2.504 -0.0165 -0.1169  0.2681
  399SOL    HW1 1196   2.632   1.534   2.405 -1.2396 -0.8714 -0.5990
  399SOL    HW2 1197   2.671   1.647   2.519 -1.9415  0.9002 -0.2870
  400SOL     OW 1198   2.330   1.187   1.469 -0.1478 -0.6743  0.1148
  400SOL    HW1 1199   2.383   1.265   1.425 -0.9592  0.0709 -1.4003
  400SOL    HW2 1200   2.257   1.156   1.405 -0.4006 -0.5350 -0.6190
  401SOL     OW 1201   1.200   1.731   0.663 -0.3259 -0.0582 -0.0253
  401SOL    HW1 1202   1.176   1.674   0.747  0.7226  0.0813 -0.9759
  401SOL    HW2 1203   1.187   1.665   0.586  1.0071  0.3193  1.2150
  402SOL     OW 1204   0.082   2.629   2.171 -0.3512 -0.2387 -0.1751
  402SOL    HW1 1205   0.158   2.626   2.241  0.4235  2.1132 -0.4586
  402SOL    HW2 1206   0.122   2.631   2.078 -1.5183 -0.0584  1.4669
  403SOL     OW 1207   0.365   1.386   2.521 -0.0294  0.4871 -0.0869
  403SOL    HW1 1208   0.338   1.460   2.584 -0.3968  1.5321 -1.5405
  403SOL    HW2 1209   0.412   1.307   2.570  0.0212 -0.7825 -1.8445
  404SOL     OW 1210   2.008   2.223   1.374  0.1761 -0.0758  0.2773
  404SOL    HW1 1211   2.049   2.263   1.459  0.1880 -1.4272  0.1249
  404SOL    HW2 1212   1.951   2.144   1.401 -0.1821 -0.4552  0.9566
  405SOL     OW 1213   2.829   0.262   2.708  0.7437  0.5511  0.0008
  405SOL    HW1 1214   2.790   0.247   2.612 -1.6551  0.1654 -1.1684
  405SOL    HW2 1215   2.800   0.184   2.771  0.7291 -1.7222 -0.8285
  406SOL     OW 1216   0.828   1.035   0.180  0.5449  0.2663  0.0362
  406SOL    HW1 1217   0.867   0.941   0.168 -1.2787  0.4592  1.3837
  406SOL    HW2 1218   0.726   1.034   0.192 -1.5928  0.0539  0.4017
  407SOL     OW 1219   1.949   2.540   2.750  0.1321 -0.7245 -0.0872
  407SOL    HW1 1220   2.001   2.454   2.743  0.4776 -1.2861  0.0382
  407SOL    HW2 1221   1.960   2.579   2.844  0.1893  3.7881  0.7236
  408SOL     OW 1222   2.884   3.053   0.070  0.2031  0.0407 -0.2734
  408SOL    HW1 1223   2.847   2.956   0.066  2.7806 -0.9557 -0.0247
  408SOL    HW2 1224   2.920   3.073   0.164 -0.1223 -1.7128 -0.1462
  409SOL     OW 1225   2.178   1.544   1.138  0.2681  1.3184  0.5035
  409SOL    HW1 1226   2.191   1.591   1.051 -0.6690 -0.4924  0.5547
  409SOL    HW2 1227   2.187   1.444   1.118 -2.6654 -3.0374  0.3755
  410SOL     OW 1228   2.581   1.980   0.145  0.3742 -0.6907 -0.1996
  410SOL    HW1 1229   2.490   1.977   0.100  0.0485 -0.9453  0.4214
  410SOL    HW2 1230   2.648   1.959   0.073 -1.3168  0.7520  1.0355
  411SOL     OW 1231   0.209   1.088   0.646  0.4578 -0.1232 -0.1392
  411SOL    HW1 1232   0.125   1.134   0.683 -0.2315  2.1930  2.0118
  411SOL    HW2 1233   0.211   0.989   0.660 -2.0976  2.9145  0.0282
  412SOL     OW 1234   1.950   2.481   0.423  0.1986  0.0735 -0.2114
  412SOL    HW1 1235   2.015   2.498   0.350 -0.4312 -0.2995 -0.6050
  412SOL    HW2 1236   1.988   2.410   0.485  0.4781 -0.5303 -3.9628
  413SOL     OW 1237   2.049   0.867   2.062 -0.2247  0.0178  0.2733
  413SOL    HW1 1238   1.988   0.807   2.122 -1.7936 -2.6866 -0.9267
  413SOL    HW2 1239   2.130   0.814   2.020  0.6392  2.3650  0.1335
  414SOL     OW 1240   2.742   0.117   0.445  0.1422  0.1405 -0.3640
  414SOL    HW1 1241   2.811   0.068   0.500  1.4857  2.7400 -1.3758
  414SOL    HW2 1242   2.743   0.080   0.348  1.0633 -1.4189 -1.3412
  415SOL     OW 1243   1.021   1.649   1.493  0.4779  0.3983 -0.4652
  415SOL    HW1 1244   1.120   1.618   1.490  3.2731 -1.2424 -0.6088
  415SOL    HW2 1245   0.987   1.657   1.588  2.2319  0.0370 -1.6739
  416SOL     OW 1246   0.310   0.076   2.874  0.1481 -0.2854  0.8793
  416SOL    HW1 1247   0.256   0.164   2.875  0.8130 -2.6588  2.5045
  416SOL    HW2 1248   0.269   0.009   2.809  2.2366 -1.2738  1.4333
  417SOL     OW 1249   2.514   0.315   0.896 -0.2190 -0.1616  0.2377
  417SOL    HW1 1250   2.476   0.409   0.876 -0.2307  1.9100  3.6157
  417SOL    HW2 1251   2.610   0.321   0.916 -1.9488  0.6348  1.6120
  418SOL     OW 1252   0.189   0.631   2.716  0.3808  0.4972  0.1964
  418SOL    HW1 1253   0.091   0.649   2.688  1.0038 -0.3538  1.3584
  418SOL    HW2 1254   0.201   0.531   2.712  4.8589 -1.6072  0.8404
  419SOL     OW 1255   0.277   1.130   1.469 -0.2679  0.0976 -0.9459
  419SOL    HW1 1256   0.309   1.197   1.541  1.4140  1.8607  0.8303
  419SOL    HW2 1257   0.189   1.156   1.428  0.0543  0.1285  1.8999
  420SOL     OW 1258   0.653   1.527   0.688 -0.1015  0.7004  1.0074
  420SOL    HW1 1259   0.701   1.617   0.681 -1.6804  1.1874  1.6100
  420SOL    HW2 1260   0.714   1.470   0.742 -0.5456 -1.3228 -2.0962
  421SOL     OW 1261   2.436   2.405   2.589  0.1743 -0.1413  0.2973
  421SOL    HW1 1262   2.400   2.328   2.537  0.8034 -0.3645  2.4468
  421SOL    HW2 1263   2.464   2.485   2.532 -0.7860  1.2424  3.0185
  422SOL     OW 1264   2.986   0.724   2.645  0.0676 -0.5512 -0.2761
  422SOL    HW1 1265   2.949   0.636   2.678 -0.3926  0.5217  1.8019
  422SOL    HW2 1266   2.918   0.799   2.657 -0.7035  3.0470 -2.1145
  423SOL     OW 1267   1.468   1.974   0.900 -0.6461  0.0105 -0.4015
  423SOL    HW1 1268   1.537   1.949   0.974 -0.6186 -0.7956  0.5158
  423SOL    HW2 1269   1.451   1.900   0.832 -1.0977  0.4119 -2.6775
  424SOL     OW 1270   0.557   1.975   1.738  0.1468  0.4148 -0.2581
  424SOL    HW1 1271   0.571   2.046   1.667  0.4091  1.4375 -0.1319
  424SOL    HW2 1272   0.570   2.009   1.834  3.1037  1.4917  0.2384
  425SOL     OW 1273   3.032   2.843   2.279 -0.5801  0.0755  0.0089
  425SOL    HW1 1274   3.052   2.753   2.236  1.2843 -2.1939  0.4465
  425SOL    HW2 1275   2.932   2.866   2.268  0.5754 -0.0024 -0.8859
  426SOL     OW 1276   1.588   0.761   0.613  0.0955  0.1959 -0.2953
  426SOL    HW1 1277   1.494   0.769   0.571 -2.7423  1.5133  0.9571
  426SOL    HW2 1278   1.585   0.786   0.712 -0.3635  0.0281  2.1207
  427SOL     OW 1279   0.547   0.979   0.247 -0.1782  0.2179  0.3644
  427SOL    HW1 1280   0.464   0.984   0.301  1.4022 -1.7510  2.0209
  427SOL    HW2 1281   0.534   0.950   0.151 -1.3749 -0.4406 -0.6343
  428SOL     OW 1282   1.349   1.204   3.050 -0.7918  0.1818 -0.7357
  428SOL    HW1 1283   1.343   1.218   0.078  0.1665 -1.4246  2.9395
  428SOL    HW2 1284   1.254   1.206   3.018 -0.5892 -0.8335  1.7089
  429SOL     OW 1285   2.860   2.542   0.427  0.0269  0.1350  0.5683
  429SOL    HW1 1286   2.957   2.564   0.400 -1.4778  1.1991  0.2413
  429SOL    HW2 1287   2.799   2.620   0.400  1.7422  1.1387 -0.4769
  430SOL     OW 1288   0.500   2.889   2.745  0.6793  0.0861  0.6666
  430SOL    HW1 1289   0.527   2.929   2.836 -0.8804 -0.1018 -1.4910
  430SOL    HW2 1290   0.397   2.861   2.744  0.0971 -0.9143 -0.7792
  431SOL     OW 1291   2.813   1.079   0.751 -0.1458  0.3028 -0.0343
  431SOL    HW1 1292   2.717   1.084   0.798 -1.8129 -1.7557  1.4323
  431SOL    HW2 1293   2.840   0.983   0.738 -2.9681 -1.0495 -3.3222
  432SOL     OW 1294   2.071   2.609   1.967 -1.3442  0.1505  0.3226
  432SOL    HW1 1295   2.098   2.590   2.062  1.8886 -1.3146 -0.3923
  432SOL    HW2 1296   2.068   2.528   1.906 -1.8408  3.3895  2.2411
  433SOL     OW 1297   1.526   2.442   0.749 -0.4067 -0.6352 -0.2003
  433SOL    HW1 1298   1.525   2.350   0.711  1.4935  2.1005 -0.8233
  433SOL    HW2 1299   1.620   2.474   0.767 -2.0830  1.0364  0.2051
  434SOL     OW 1300   0.463   2.117   1.962  0.2640  0.0595 -0.1176
  434SOL    HW1 1301   0.498   2.210   1.939  2.8802  0.3386  2.4264
  434SOL    HW2 1302   0.365   2.119   1.979 -1.4406 -1.6887 -0.1828
  435SOL     OW 1303   0.011   1.056   0.026  0.6137  0.0163 -0.3938
  435SOL    HW1 1304   0.005   1.043   0.125  2.8938  2.9051 -1.4315
  435SOL    HW2 1305   3.017   0.998   3.054 -1.4584 -0.8783  0.4591
  436SOL     OW 1306   0.222   2.653   1.939  0.1597 -0.0781  0.0610
  436SOL    HW1 1307   0.200   2.752   1.905 -0.5318  2.9431  0.1550
  436SOL    HW2 1308   0.314   2.651   1.979 -0.8867 -1.0683  0.1802
  437SOL     OW 1309   1.664   2.723   1.669  0.3572 -0.1472 -0.1819
  437SOL    HW1 1310   1.694   2.788   1.593  4.0124  2.9545 -1.9096
  437SOL    HW2 1311   1.742   2.709   1.730  1.3362 -1.0726 -0.7430
  438SOL     OW 1312   0.374   1.830   0.532 -0.5306  0.0114 -0.2271
  438SOL    HW1 1313   0.362   1.796   0.623  0.8731  0.4559 -1.4472
  438SOL    HW2 1314   0.348   1.926   0.530  1.0708 -3.0470  0.9108
  439SOL     OW 1315   0.112   0.466   0.776  0.2176 -0.5971  0.7164
  439SOL    HW1 1316   0.189   0.520   0.821 -0.7776  0.0957 -0.1551
  439SOL    HW2 1317   0.129   0.374   0.803  0.8112  3.4845 -0.0819
  440SOL     OW 1318   0.246   2.787   2.751  0.2999 -0.9615  0.3768
  440SOL    HW1 1319   0.221   2.694   2.741 -0.7097  0.7231 -0.9626
  440SOL    HW2 1320   0.169   2.858   2.735 -4.0618  4.9435 -1.2816
  441SOL     OW 1321   2.837   0.799   0.736  0.2752 -0.1491 -0.3503
  441SOL    HW1 1322   2.888   0.709   0.751 -0.2728  0.2580 -0.0106
  441SOL    HW2 1323   2.744   0.781   0.691 -1.7973 -1.7811  0.1420
  442SOL     OW 1324   1.313   2.140   2.589  0.3012 -0.1387  0.6790
  442SOL    HW1 1325   1.258   2.071   2.537  0.1219 -0.0334 -2.5312
  442SOL    HW2 1326   1.407   2.110   2.610 -0.0833 -0.6879  0.9494
  443SOL     OW 1327   0.731   0.515   0.581  0.1352 -0.1098 -0.1585
  443SOL    HW1 1328   0.798   0.502   0.659  0.3818 -1.9415  1.1438
  443SOL    HW2 1329   0.781   0.503   0.494  2.1417  0.4218  1.0053
  444SOL     OW 1330   1.544   1.650   2.282  0.5880 -0.2012  0.1014
  444SOL    HW1 1331   1.471   1.587   2.312  2.2968  0.7990  0.1705
  444SOL    HW2 1332   1.524   1.743   2.323 -0.9927  0.5457  0.6581
  445SOL     OW 1333   2.986   0.416   0.498  0.5612 -0.0263  0.6123
  445SOL    HW1 1334   3.053   0.488   0.512 -0.8774 -0.9681 -1.3507
  445SOL    HW2 1335   3.030   0.330   0.517  0.9044  1.7191 -2.0623
  446SOL     OW 1336   2.023   0.707   1.202 -0.3360  0.4629  0.0695
  446SOL    HW1 1337   1.948   0.761   1.241  1.0494 -3.0752  2.0456
  446SOL    HW2 1338   2.038   0.625   1.258 -2.3043 -1.0676 -2.5945
  447SOL     OW 1339   3.069   0.960   0.295 -0.1181 -0.1902  0.3735
  447SOL    HW1 1340   3.045   0.868   0.258  2.4986  0.2728 -0.4464
  447SOL    HW2 1341   2.987   0.990   0.346 -1.9855 -2.5842  0.9561
  448SOL     OW 1342   1.813   2.052   1.713  0.2060 -0.9554  0.1270
  448SOL    HW1 1343   1.812   2.149   1.749  0.9300  0.0757  0.7135
  448SOL    HW2 1344   1.831   2.049   1.613 -1.4014  1.3742  1.2838
  449SOL     OW 1345   0.930   1.604   0.477 -0.2057 -0.1545 -0.2667
  449SOL    HW1 1346   1.030   1.594   0.481 -0.2132 -0.2525  0.0418
  449SOL    HW2 1347   0.891   1.631   0.565 -0.6440 -0.4358  0.0315
  450SOL     OW 1348   2.774   2.732   1.965  0.1328 -0.6930  0.0795
  450SOL    HW1 1349   2.678   2.758   1.993 -1.2600 -0.4476 -1.4970
  450SOL    HW2 1350   2.772   2.659   1.893  1.6011  0.1344 -0.2012
  451SOL     OW 1351   2.577   1.133   2.930  0.4394 -0.0870 -0.0860
  451SOL    HW1 1352   2.632   1.142   3.014  0.0060  0.5583 -1.6273
  451SOL    HW2 1353   2.490   1.198   2.937 -6.2487  0.4186  1.0395
  452SOL     OW 1354   1.980   1.030   1.092 -0.2983  0.2799  0.2319
  452SOL    HW1 1355   1.929   0.946   1.116  2.2215 -1.8414  0.3385
  452SOL    HW2 1356   2.035   1.055   1.175 -0.5564  2.5289  0.9648
  453SOL     OW 1357   2.170   0.600   1.579  0.0159 -0.0680  0.2804
  453SOL    HW1 1358   2.109   0.679   1.596  0.8636  0.0425  0.8827
  453SOL    HW2 1359   2.140   0.520   1.631 -0.0066  1.5860 -0.0883
  454SOL     OW 1360   2.865   1.378   3.053 -0.7984 -0.0055 -0.3444
  454SOL    HW1 1361   2.941   1.358   2.983  1.0686 -3.7907 -2.5423
  454SOL    HW2 1362   2.821   1.294   0.016  1.3508  0.0645  0.2743
  455SOL     OW 1363   2.569   1.639   1.470 -0.2852  0.2184  0.3064
  455SOL    HW1 1364   2.518   1.554   1.452  0.9360  0.4857  1.3151
  455SOL    HW2 1365   2.515   1.721   1.438 -0.6485  0.9362 -0.1843
  456SOL     OW 1366   1.193   0.048   1.684 -0.5111  0.1784 -0.5041
  456SOL    HW1 1367   1.272   0.096   1.640 -0.8606 -0.9214 -1.0534
  456SOL    HW2 1368   1.201   0.059   1.786  0.8506 -0.3202  0.2017
  457SOL     OW 1369   1.788   2.800   1.067 -0.2748  0.0514 -0.1393
  457SOL    HW1 1370   1.771   2.734   1.144 -1.4790  1.1188 -1.9352
  457SOL    HW2 1371   1.704   2.858   1.057 -2.1799 -0.7591 -0.9349
  458SOL     OW 1372   2.929   3.063   0.601 -0.2202 -0.0212  0.2417
  458SOL    HW1 1373   2.847   3.021   0.641  1.8416  1.6283 -0.0147
  458SOL    HW2 1374   2.967   0.058   0.664  1.5293  2.2495  0.7543
  459SOL     OW 1375   1.635   1.006   0.155  0.5201  0.4476 -0.4477
  459SOL    HW1 1376   1.556   1.032   0.217 -2.2391  1.0862  0.9704
  459SOL    HW2 1377   1.593   0.972   0.066  1.0428  0.3684  1.0390
  460SOL     OW 1378   0.141   2.541   2.709  0.1350  0.0914 -0.7858
  460SOL    HW1 1379   0.088   2.500   2.788  0.3917 -2.9714 -1.5868
  460SOL    HW2 1380   0.211   2.480   2.668 -0.6200  0.4368 -0.0022
  461SOL     OW 1381   0.542   1.637   0.178  0.1659 -0.1829  0.0873
  461SOL    HW1 1382   0.634   1.644   0.213 -3.2984  0.8572 -0.8863
  461SOL    HW2 1383   0.500   1.732   0.147 -0.9668  1.6704  0.1200
  462SOL     OW 1384   2.006   1.926   0.804  0.2935 -0.1937  0.0584
  462SOL    HW1 1385   2.098   1.916   0.842  0.0640  0.2408  3.1910
  462SOL    HW2 1386   1.943   1.860   0.849  1.6734  0.9075 -1.8054
  463SOL     OW 1387   2.866   0.430   0.235 -0.2307 -0.1820  0.1025
  463SOL    HW1 1388   2.939   0.390   0.296  1.8293 -1.8886  0.5753
  463SOL    HW2 1389   2.806   0.355   0.192 -3.8556 -1.2921 -0.4408
  464SOL     OW 1390   0.846   2.365   0.449  0.1593 -0.4816  0.4423
  464SOL    HW1 1391   0.914   2.314   0.394 -1.7890 -2.0244 -1.6868
  464SOL    HW2 1392   0.838   2.347   0.550  1.5174 -1.1580  1.1960
  465SOL     OW 1393   2.183   0.281   0.900  0.9604 -0.2421  0.1077
  465SOL    HW1 1394   2.094   0.228   0.917  1.7271 -1.2582  2.4171
  465SOL    HW2 1395   2.229   0.253   0.812  3.6570 -1.3102 -0.4670
  466SOL     OW 1396   2.173   0.093   0.463  0.5320  0.3544 -0.3906
  466SOL    HW1 1397   2.115   0.012   0.493  0.6445 -0.7667 -2.1510
  466SOL    HW2 1398   2.111   0.157   0.410  0.2183  0.4510 -0.4119
  467SOL     OW 1399   1.277   0.351   2.099 -0.0094  0.5955  0.6051
  467SOL    HW1 1400   1.302   0.443   2.138  0.7972 -0.1123  0.1499
  467SOL    HW2 1401   1.326   0.288   2.162 -0.4928  2.6785  0.9831
  468SOL     OW 1402   2.651   0.529   1.902  0.3758  0.4159  0.6516
  468SOL    HW1 1403   2.613   0.453   1.844  0.0130  1.5705 -0.5818
  468SOL    HW2 1404   2.640   0.502   1.999 -0.9911 -2.3520  0.2078
  469SOL     OW 1405   0.949   2.204   1.956  0.2674 -0.8210 -0.5055
  469SOL    HW1 1406   0.992   2.120   1.994  0.4796 -1.0032  0.2333
  469SOL    HW2 1407   0.972   2.201   1.857  0.7344 -1.2075  0.5981
  470SOL     OW 1408   2.004   1.267   1.851  0.6560 -0.2151 -0.7036
  470SOL    HW1 1409   2.069   1.213   1.792 -1.0286  2.3133  0.0530
  470SOL    HW2 1410   1.973   1.209   1.927 -1.5476 -0.1902 -2.0349
  471SOL     OW 1411   2.692   1.574   0.028 -0.2388  0.3543 -0.3902
  471SOL    HW1 1412   2.757   1.497   0.013  0.8728  2.0298  1.8623
  471SOL    HW2 1413   2.746   1.648   0.071  2.3294 -0.1038 -0.4706
  472SOL     OW 1414   0.587   2.398   0.409  0.1722 -1.0015 -0.0331
  472SOL    HW1 1415   0.528   2.388   0.494 -0.6128  2.4871 -1.1933
  472SOL    HW2 1416   0.685   2.389   0.435  1.3875  0.4834  0.1569
  473SOL     OW 1417   1.138   2.351   2.121  0.1899 -0.5321 -0.0320
  473SOL    HW1 1418   1.068   2.312   2.061 -0.7187 -1.6256  2.0594
  473SOL    HW2 1419   1.168   2.280   2.190 -0.7218 -2.8592 -0.1153
  474SOL     OW 1420   1.098   0.073   2.642 -0.1922 -0.2767  0.5927
  474SOL    HW1 1421   1.002   0.039   2.637  1.5745 -3.5882 -1.3921
  474SOL    HW2 1422   1.167   3.072   2.660 -2.0732 -0.7820  0.3459
  475SOL     OW 1423   1.057   2.248   0.309 -0.2221 -0.0842  0.1215
  475SOL    HW1 1424   1.149   2.278   0.338 -0.5855  0.0269 -0.4884
  475SOL    HW2 1425   1.050   2.147   0.319  0.1345  1.7429 -1.9066
  476SOL     OW 1426   0.509   0.377   1.190 -0.1293 -0.4486 -0.0292
  476SOL    HW1 1427   0.532   0.429   1.276  1.3960  0.8103  1.0226
  476SOL    HW2 1428   0.558   0.432   1.120 -1.3638  0.2183 -1.2650
  477SOL     OW 1429   1.889   1.961   1.422 -0.0290 -0.1143 -0.0629
  477SOL    HW1 1430   1.922   1.943   1.326 -3.1948  2.6929  3.0811
  477SOL    HW2 1431   1.795   1.925   1.434  0.2144 -2.8788 -1.0305
  478SOL     OW 1432   2.899   0.876   3.020 -0.1174 -0.0603  0.0925
  478SOL    HW1 1433   2.854   0.885   0.032  0.5892 -0.5010  1.2818
  478SOL    HW2 1434   2.926   0.780   2.997  1.4851 -0.0125  0.5425
  479SOL     OW 1435   0.745   2.894   0.896 -0.0129 -0.6192  0.0127
  479SOL    HW1 1436   0.803   2.870   0.978 -1.1801 -0.5538  1.3425
  479SOL    HW2 1437   0.800   2.934   0.820 -2.5376  1.2889 -0.1360
  480SOL     OW 1438   2.441   2.499   0.271  0.0289 -0.0302  0.0526
  480SOL    HW1 1439   2.433   2.399   0.282  0.5490  1.8872 -1.6113
  480SOL    HW2 1440   2.364   2.544   0.320  2.1019 -1.8209  1.9494
  481SOL     OW 1441   2.801   0.416   1.247 -0.1683  0.5230  0.0782
  481SOL    HW1 1442   2.773   0.321   1.215 -0.5488 -1.5141 -1.2743
  481SOL    HW2 1443   2.864   0.412   1.331  2.9102  1.9014  3.1620
  482SOL     OW 1444   1.028   2.830   0.895  0.3529 -0.2431  0.3035
  482SOL    HW1 1445   1.000   2.838   0.799  1.5984 -1.5582 -1.4367
  482SOL    HW2 1446   1.027   2.920   0.937 -2.1786  2.9680  0.0810
  483SOL     OW 1447   0.532   1.221   3.054 -0.5631  0.1445 -0.4493
  483SOL    HW1 1448   0.442   1.210   0.023  0.8373 -1.5812  0.6377
  483SOL    HW2 1449   0.568   1.315   3.069  3.0611  1.6953 -2.4243
  484SOL     OW 1450   1.532   1.530   2.031 -0.0496  0.1418 -0.2761
  484SOL    HW1 1451   1.614   1.470   2.010 -0.1854 -1.3326 -0.3052
  484SOL    HW2 1452   1.534   1.557   2.133 -0.4378  0.0754  0.5157
  485SOL     OW 1453   0.184   0.091   2.587  1.1734 -0.4652 -0.3337
  485SOL    HW1 1454   0.118   0.167   2.574 -3.2360 -2.0908 -0.9397
  485SOL    HW2 1455   0.153   0.022   2.651  0.5659  0.2479 -1.2901
  486SOL     OW 1456   1.584   0.074   0.587  0.1374  0.4981  0.3843
  486SOL    HW1 1457   1.583   3.068   0.647 -1.2488  2.1469  1.5379
  486SOL    HW2 1458   1.654   0.069   0.514 -0.8332  0.4472  2.3006
  487SOL     OW 1459   1.671   0.325   0.688  0.0647 -0.4926 -0.1689
  487SOL    HW1 1460   1.772   0.313   0.697  1.0147 -0.3124 -2.5377
  487SOL    HW2 1461   1.627   0.232   0.678  0.8955 -1.6005  0.7884
  488SOL     OW 1462   2.257   1.037   0.871 -0.0464  0.0259 -0.1475
  488SOL    HW1 1463   2.260   1.142   0.867  0.3788  4.7153 -1.7524
  488SOL    HW2 1464   2.159   1.002   0.891 -1.3979 -2.7957 -0.5605
  489SOL     OW 1465   1.137   3.042   1.254  0.0771  0.3534 -0.1352
  489SOL    HW1 1466   1.203   2.962   1.263  2.8941 -1.7737  0.4564
  489SOL    HW2 1467   1.114   3.062   1.155  0.2091  1.8881 -2.4318
  490SOL     OW 1468   0.930   0.541   0.770 -0.6643  0.7097  0.3010
  490SOL    HW1 1469   0.923   0.546   0.872 -2.0948  0.0753  0.3558
  490SOL    HW2 1470   0.934   0.635   0.725 -0.6860  3.5808 -1.8677
  491SOL     OW 1471   1.090   2.738   0.420 -0.1423  0.5110  0.3832
  491SOL    HW1 1472   1.155   2.816   0.432  2.5098  0.0127 -1.7712
  491SOL    HW2 1473   1.138   2.669   0.362 -1.8606  0.2694 -0.9055
  492SOL     OW 1474   0.935   1.369   1.818 -0.1587  0.2337 -0.0371
  492SOL    HW1 1475   0.878   1.394   1.898  1.9993 -0.2606 -0.1416
  492SOL    HW2 1476   0.907   1.282   1.777  3.1784  2.9851  0.2508
  493SOL     OW 1477   0.186   1.728   0.303 -0.4465 -0.0162 -0.0132
  493SOL    HW1 1478   0.242   1.771   0.376  2.6166 -0.2124 -0.5648
  493SOL    HW2 1479   0.193   1.627   0.295 -0.8172 -0.1038 -1.0692
  494SOL     OW 1480   1.770   1.639   0.228  0.1075  0.6142 -0.0448
  494SOL    HW1 1481   1.807   1.715   0.283 -1.2454 -1.4713  2.3035
  494SOL    HW2 1482   1.687   1.673   0.173 -0.2945  1.1912 -1.0122
  495SOL     OW 1483   0.497   1.006   2.343  0.5782 -0.2034 -0.2797
  495SOL    HW1 1484   0.400   0.999   2.310 -0.0970  1.1922  0.1474
  495SOL    HW2 1485   0.558   0.968   2.271 -2.8912 -0.9170 -0.5687
  496SOL     OW 1486   0.342   0.148   2.363  0.0712  0.4827  0.3558
  496SOL    HW1 1487   0.292   0.110   2.446 -0.4688  0.8840 -2.2033
  496SOL    HW2 1488   0.303   0.109   2.278 -3.6296  1.6296 -0.5009
  497SOL     OW 1489   1.655   1.227   0.521 -0.1530  0.2456  0.1049
  497SOL    HW1 1490   1.678   1.311   0.461 -0.7675  4.9356 -0.1126
  497SOL    HW2 1491   1.707   1.147   0.489 -2.0579  1.2289 -0.5727
  498SOL     OW 1492   2.777   2.812   0.020  1.0126 -0.1235 -0.0000
  498SOL    HW1 1493   2.856   2.745   0.037  2.3214 -2.1662 -0.8072
  498SOL    HW2 1494   2.695   2.773   0.073 -0.7864 -0.6855  0.0869
  499SOL     OW 1495   1.898   2.679   0.615  0.2890 -0.1225  0.7573
  499SOL    HW1 1496   1.858   2.770   0.583 -1.8121 -1.4325  0.5977
  499SOL    HW2 1497   1.882   2.599   0.549 -3.4445 -1.9884 -0.2382
  500SOL     OW 1498   0.702   0.620   2.829  0.2111  0.2983 -0.9382
  500SOL    HW1 1499   0.635   0.680   2.795 -0.1740 -1.2783 -1.0623
  500SOL    HW2 1500   0.659   0.526   2.825  0.1488 -1.4071 -0.9892
  501SOL     OW 1501   1.431   2.831   1.806  0.0705 -0.4143  0.2003
  501SOL    HW1 1502   1.501   2.795   1.739  2.3663  1.9449  0.0076
  501SOL    HW2 1503   1.337   2.808   1.768  0.5535 -1.2784  0.0313
  502SOL     OW 1504   0.105   0.158   2.015 -0.1909  0.0209  0.3793
  502SOL    HW1 1505   0.098   0.083   2.089  0.9101 -1.1573  1.5949
  502SOL    HW2 1506   0.076   0.117   1.922  2.6631 -0.6432 -1.5862
  503SOL     OW 1507   1.765   2.258   2.079  0.4670  0.0106  0.1599
  503SOL    HW1 1508   1.806   2.339   2.126 -1.8232  0.1136  0.3382
  503SOL    HW2 1509   1.815   2.172   2.094 -1.9446  1.9327 -0.7418
  504SOL     OW 1510   2.052   0.165   1.597 -0.5139 -0.1625 -0.4465
  504SOL    HW1 1511   2.075   0.125   1.506  1.3539  1.4889  2.4297
  504SOL    HW2 1512   1.973   0.113   1.634 -0.8428 -1.9213  0.0258
  505SOL     OW 1513   2.689   1.722   1.718  0.0768 -0.3442  0.3556
  505SOL    HW1 1514   2.718   1.819   1.728 -1.4126 -2.9200 -0.2971
  505SOL    HW2 1515   2.654   1.699   1.627  2.9429 -0.6912  2.9845
  506SOL     OW 1516   0.228   1.384   2.286  0.6708  0.2298 -0.1172
  506SOL    HW1 1517   0.264   1.380   2.380  1.1379  2.8365 -0.3482
  506SOL    HW2 1518   0.212   1.288   2.255  0.4796  3.8706  0.3360
  507SOL     OW 1519   0.183   2.778   1.208 -0.0935  0.3314 -0.2756
  507SOL    HW1 1520   0.195   2.848   1.134 -1.5997  2.1661 -1.5766
  507SOL    HW2 1521   0.160   2.825   1.297 -1.7202 -0.3160  6.0063
  508SOL     OW 1522   1.261   0.636   1.617  0.9083  0.6007 -0.0990
  508SOL    HW1 1523   1.240   0.658   1.518  1.3289 -0.6125 -1.3186
  508SOL    HW2 1524   1.339   0.569   1.619  1.1136  0.5365 -1.9578
  509SOL     OW 1525   1.812   2.302   1.823 -0.1004 -0.0711 -0.4731
  509SOL    HW1 1526   1.736   2.348   1.775  1.0355 -0.6919  0.2284
  509SOL    HW2 1527   1.789   2.306   1.924 -0.6215  0.1312 -3.4238
  510SOL     OW 1528   2.386   1.306   2.968 -0.0965  0.3891  0.1018
  510SOL    HW1 1529   2.406   1.359   3.053 -0.4393 -1.2043  0.8016
  510SOL    HW2 1530   2.339   1.363   2.899  1.8100  2.1759 -0.9804
  511SOL     OW 1531   0.420   1.589   1.458 -0.3175  0.1282  0.6717
  511SOL    HW1 1532   0.348   1.535   1.414  2.9508  0.3615  0.7691
  511SOL    HW2 1533   0.506   1.529   1.473  0.6719 -1.3288 -0.6428
  512SOL     OW 1534   2.634   1.953   0.450 -0.0631  0.1078  0.5018
  512SOL    HW1 1535   2.717   2.010   0.433  1.0090  2.0710  0.3200
  512SOL    HW2 1536   2.581   1.937   0.362 -0.7875  0.0308 -0.3467
  513SOL     OW 1537   0.734   1.879   2.263 -0.1066  0.8191 -0.2427
  513SOL    HW1 1538   0.830   1.905   2.252 -2.2448  0.5756  0.8380
  513SOL    HW2 1539   0.723   1.805   2.335  0.2170  0.1298  0.1834
  514SOL     OW 1540   0.182   2.254   2.369  0.7449 -0.2157 -0.2522
  514SOL    HW1 1541   0.181   2.156   2.348 -0.3927 -0.2507  1.9776
  514SOL    HW2 1542   0.082   2.284   2.376 -0.4371  3.1093 -0.7221
  515SOL     OW 1543   1.767   1.412   1.896 -0.4660 -0.2165  0.4886
  515SOL    HW1 1544   1.871   1.397   1.897  1.9489 -0.5639 -0.2440
  515SOL    HW2 1545   1.720   1.321   1.891 -3.5034 -1.8897 -0.3236
  516SOL     OW 1546   2.113   2.518   0.208 -0.1266 -0.4915  0.1164
  516SOL    HW1 1547   2.112   2.602   0.150  0.4475 -0.4873 -0.9709
  516SOL    HW2 1548   2.142   2.435   0.158 -0.6777  2.0834  0.7134
  517SOL     OW 1549   0.822   1.674   0.217  0.5316  0.6029 -0.5636
  517SOL    HW1 1550   0.895   1.693   0.146  2.1073 -0.7621 -1.7260
  517SOL    HW2 1551   0.860   1.612   0.290 -0.5134 -0.2628  2.5147
  518SOL     OW 1552   1.965   2.698   1.496  0.3461 -0.3554  0.1259
  518SOL    HW1 1553   1.894   2.770   1.488  2.7334 -0.1699  1.3785
  518SOL    HW2 1554   1.931   2.614   1.455  1.1765  0.1394  0.4192
  519SOL     OW 1555   2.020   2.536   1.085 -0.0193 -0.3898  0.1421
  519SOL    HW1 1556   2.106   2.576   1.129  2.0602 -0.8011  2.0413
  519SOL    HW2 1557   2.041   2.490   0.998  0.4472 -1.4013 -1.2388
  520SOL     OW 1558   2.968   2.150   2.170 -0.1001  0.1055  0.1478
  520SOL    HW1 1559   2.880   2.114   2.133 -0.5418 -1.2418  1.1652
  520SOL    HW2 1560   3.017   2.206   2.095  3.5036  1.4246 -1.1228
  521SOL     OW 1561   2.579   1.071   2.368 -0.3588 -0.2705  0.7434
  521SOL    HW1 1562   2.657   1.129   2.390 -2.7348  0.4187 -3.2034
  521SOL    HW2 1563   2.504   1.094   2.429 -0.7239 -1.4147 -1.3864
  522SOL     OW 1564   0.821   0.746   2.329  0.3810  0.0397  0.0019
  522SOL    HW1 1565   0.901   0.688   2.361 -3.3514 -0.5439 -2.0466
  522SOL    HW2 1566   0.834   0.766   2.232  1.0810 -1.4347  1.5088
  523SOL     OW 1567   0.184   2.138   0.914  0.5182  0.3474 -0.4183
  523SOL    HW1 1568   0.207   2.043   0.937  0.8928  2.1305  0.0527
  523SOL    HW2 1569   0.166   2.185   1.000  0.1126 -0.7495  0.3499
  524SOL     OW 1570   2.084   2.771   0.108  0.3045  0.0792 -0.3456
  524SOL    HW1 1571   2.065   2.845   0.176 -3.0626  0.9148 -1.7864
  524SOL    HW2 1572   2.087   2.809   0.015 -0.4801 -1.0422 -1.8876
  525SOL     OW 1573   2.467   0.415   1.355  0.4177 -0.3553 -0.1571
  525SOL    HW1 1574   2.531   0.485   1.310 -0.6841 -1.7265 -1.7263
  525SOL    HW2 1575   2.413   0.367   1.286  1.8605  0.2251  0.4392
  526SOL     OW 1576   1.044   2.548   0.642 -0.0716  0.5095  0.9850
  526SOL    HW1 1577   0.968   2.484   0.611  0.8829 -0.3680 -1.0700
  526SOL    HW2 1578   1.052   2.623   0.574  1.3595 -0.0256  0.0413
  527SOL     OW 1579   2.163   2.890   0.493 -0.4053  0.4344 -0.0773
  527SOL    HW1 1580   2.217   2.906   0.580  1.7699 -0.2512 -1.3911
  527SOL    HW2 1581   2.215   2.820   0.438 -0.9357 -0.4367  0.2500
  528SOL     OW 1582   1.425   0.766   0.370  0.2545  0.1562 -0.5049
  528SOL    HW1 1583   1.459   0.863   0.355 -0.3540  0.3362 -0.3644
  528SOL    HW2 1584   1.466   0.704   0.301  1.8564  0.5303  0.6168
  529SOL     OW 1585   1.331   1.481   2.376  0.9258 -0.3432 -0.3255
  529SOL    HW1 1586   1.285   1.467   2.465 -0.9041 -1.6680 -1.7574
  529SOL    HW2 1587   1.295   1.422   2.297 -1.7907  0.8331  0.8911
  530SOL     OW 1588   2.287   0.267   0.094 -0.1169  0.6304  0.2582
  530SOL    HW1 1589   2.226   0.348   0.099  0.9468 -2.2716 -2.2171
  530SOL    HW2 1590   2.264   0.209   0.013  0.6889  1.4002  3.6011
  531SOL     OW 1591   1.617   0.870   2.975  0.1031 -0.1071  0.0281
  531SOL    HW1 1592   1.717   0.849   2.982  2.4340  0.2193 -0.9056
  531SOL    HW2 1593   1.578   0.840   2.887 -1.5404  0.1245 -1.9453
  532SOL     OW 1594   1.575   0.511   0.849 -0.5261  0.4714 -0.5422
  532SOL    HW1 1595   1.605   0.444   0.776  1.6826 -0.3956 -4.4444
  532SOL    HW2 1596   1.655   0.559   0.881 -0.5375 -2.1480  1.4757
  533SOL     OW 1597   0.458   0.714   2.711  0.9781 -0.7297 -0.6052
  533SOL    HW1 1598   0.496   0.688   2.620  2.2229 -0.2499 -1.0688
  533SOL    HW2 1599   0.351   0.703   2.721 -3.9767 -0.5380 -0.5841
  534SOL     OW 1600   1.538   0.261   3.046  0.3057 -0.4034  0.1907
  534SOL    HW1 1601   1.437   0.270   3.023  0.1636  0.0814  1.3161
  534SOL    HW2 1602   1.549   0.309   0.058 -0.1431 -0.5493  1.0848
  535SOL     OW 1603   0.405   2.692   2.973  0.5527 -0.3071 -0.1696
  535SOL    HW1 1604   0.399   2.589   2.978  0.3981  0.1189  0.1360
  535SOL    HW2 1605   0.326   2.726   2.919  1.2335  0.5151  2.5071
  536SOL     OW 1606   0.572   3.001   0.429  0.8874  0.4123  0.4207
  536SOL    HW1 1607   0.647   3.074   0.422  0.7636  2.3155  3.4211
  536SOL    HW2 1608   0.606   2.909   0.453 -1.3676 -1.3294 -1.6474
  537SOL     OW 1609   1.572   0.378   0.220 -0.0154  0.7348  0.2494
  537SOL    HW1 1610   1.537   0.471   0.188  1.5281  2.8791 -1.8423
  537SOL    HW2 1611   1.603   0.390   0.315 -3.5524 -0.9012  1.1742
  538SOL     OW 1612   2.736   2.003   3.005  0.2503 -0.0454 -0.2812
  538SOL    HW1 1613   2.837   2.019   3.017 -3.4505  2.6882  0.7137
  538SOL    HW2 1614   2.689   2.089   2.978 -0.1859  0.5522  2.5791
  539SOL     OW 1615   2.304   2.028   0.015  0.4430  0.0178  0.0784
  539SOL    HW1 1616   2.283   1.986   3.001 -1.1930 -1.4240 -0.3264
  539SOL    HW2 1617   2.312   1.953   0.084 -2.0927 -0.2831  0.1089
  540SOL     OW 1618   0.940   2.810   1.899 -0.3285 -0.2154 -0.2318
  540SOL    HW1 1619   0.953   2.805   1.999  0.6068 -0.8419 -1.3204
  540SOL    HW2 1620   0.844   2.777   1.882 -1.0069 -1.1101  0.5047
  541SOL     OW 1621   2.360   0.051   2.211  0.1742 -0.2968  0.0929
  541SOL    HW1 1622   2.391   0.129   2.272  2.9227  1.2655 -0.1436
  541SOL    HW2 1623   2.336   0.083   2.117 -0.9547  1.8259  0.6424
  542SOL     OW 1624   0.104   0.887   2.535  0.1624  0.1562  0.2974
  542SOL    HW1 1625   0.193   0.879   2.583  1.1124  0.1038  0.3446
  542SOL    HW2 1626   0.031   0.845   2.593 -0.6711 -1.6307 -2.2555
  543SOL     OW 1627   0.283   0.717   1.070 -0.1976 -0.6995 -0.5129
  543SOL    HW1 1628   0.287   0.648   0.991  3.1306  1.3209 -3.0875
  543SOL    HW2 1629   0.184   0.744   1.089 -0.0170  0.3459 -0.9598
  544SOL     OW 1630   2.626   0.620   1.271  0.2799  0.1208 -0.1013
  544SOL    HW1 1631   2.703   0.557   1.255 -1.9973  0.5886 -1.7531
  544SOL    HW2 1632   2.644   0.687   1.348 -0.8662  2.6142  1.0654
  545SOL     OW 1633   1.379   2.029   0.509 -0.0228  0.2672 -0.0561
  545SOL    HW1 1634   1.283   2.014   0.535  1.1956 -2.3396  0.0711
  545SOL    HW2 1635   1.434   2.078   0.578 -1.7856  0.2221 -0.8646
  546SOL     OW 1636   2.228   2.760   1.427  0.2354  0.0332 -0.1677
  546SOL    HW1 1637   2.130   2.746   1.456 -0.0283  1.4607  2.5064
  546SOL    HW2 1638   2.248   2.736   1.327  0.4766  1.3113 -1.0510
  547SOL     OW 1639   0.473   2.588   2.525 -0.1319 -0.1101  0.5728
  547SOL    HW1 1640   0.417   2.516   2.567  1.7450  0.7208 -1.8562
  547SOL    HW2 1641   0.565   2.591   2.574 -1.4524 -1.1944  0.5594
  548SOL     OW 1642   1.310   0.572   2.900 -0.2228 -0.7096 -0.2622
  548SOL    HW1 1643   1.348   0.527   2.985  2.3093 -2.0331 -0.2694
  548SOL    HW2 1644   1.232   0.522   2.864  4.1389  1.0704  2.0321
  549SOL     OW 1645   2.791   0.920   0.176 -0.2656  0.3115  0.4056
  549SOL    HW1 1646   2.735   0.835   0.177 -0.9144  0.4998  0.7359
  549SOL    HW2 1647   2.791   0.964   0.269 -1.1137  0.2318 -2.9984
  550SOL     OW 1648   2.120   1.593   0.578  0.5387 -0.0579  0.6231
  550SOL    HW1 1649   2.201   1.655   0.555  1.2218 -2.2720  1.8138
  550SOL    HW2 1650   2.129   1.510   0.525 -0.1412  4.1461  0.8288
  551SOL     OW 1651   1.171   0.258   0.963  0.6657  0.1162  0.2615
  551SOL    HW1 1652   1.263   0.226   0.962 -0.8765 -0.0116 -0.2383
  551SOL    HW2 1653   1.143   0.272   0.863 -3.1505 -2.3515 -1.4079
  552SOL     OW 1654   2.514   2.788   2.089 -0.0058  0.4727 -0.0043
  552SOL    HW1 1655   2.420   2.761   2.055 -2.4200 -1.4290  1.4844
  552SOL    HW2 1656   2.507   2.835   2.178 -1.1376 -2.2952 -2.6281
  553SOL     OW 1657   0.388   2.934   2.128 -0.3911 -0.1236  0.1732
  553SOL    HW1 1658   0.408   2.846   2.080  1.3252  1.1518 -0.7921
  553SOL    HW2 1659   0.438   2.924   2.221  4.6628  0.0005  4.5850
  554SOL     OW 1660   0.489   2.985   1.066  0.3269 -0.2090  0.2232
  554SOL    HW1 1661   0.479   3.059   1.133 -0.5404 -1.4565 -2.7478
  554SOL    HW2 1662   0.571   2.994   1.001 -0.0740  0.5802  1.9472
  555SOL     OW 1663   2.708   2.049   2.091  0.6331  0.2289  0.2659
  555SOL    HW1 1664   2.632   1.998   2.052  0.8378  1.4606 -0.2535
  555SOL    HW2 1665   2.670   2.132   2.144 -1.2183 -0.6847  0.6189
  556SOL     OW 1666   0.998   0.265   2.950  0.2471 -0.1721 -0.6736
  556SOL    HW1 1667   0.929   0.296   3.022  0.4012 -1.8847  0.8890
  556SOL    HW2 1668   1.024   0.339   2.884  0.5771  0.0734  0.6946
  557SOL     OW 1669   0.303   1.868   2.300 -0.0271  0.2731 -0.3875
  557SOL    HW1 1670   0.207   1.903   2.309  0.5823  0.4118  0.3108
  557SOL    HW2 1671   0.371   1.944   2.280  1.2262  2.9213  2.0074
  558SOL     OW 1672   2.284   0.740   2.834  0.3978  0.2055 -1.0019
  558SOL    HW1 1673   2.263   0.823   2.784  0.3525 -1.6729  4.0167
  558SOL    HW2 1674   2.383   0.736   2.869  3.1544 -0.2864 -1.5968
  559SOL     OW 1675   2.328   1.772   1.819 -0.2090  0.0421 -0.4007
  559SOL    HW1 1676   2.354   1.868   1.795 -0.7511 -0.5071  0.4546
  559SOL    HW2 1677   2.227   1.759   1.819  1.9420 -2.0535 -1.1903
  560SOL     OW 1678   2.255   0.820   1.872  0.0989  0.4285 -0.2140
  560SOL    HW1 1679   2.276   0.719   1.867  0.2736 -1.0456 -1.2102
  560SOL    HW2 1680   2.334   0.877   1.870 -3.8054 -2.2307  0.6404
  561SOL     OW 1681   0.087   2.996   2.776 -0.2649 -0.1391 -0.2681
  561SOL    HW1 1682   3.068   3.002   2.733 -0.7683 -1.5474 -0.2337
  561SOL    HW2 1683   0.077   3.008   2.877 -1.0643  0.9335  1.3526
  562SOL     OW 1684   1.191   1.272   1.462  0.1088 -0.3978 -0.5025
  562SOL    HW1 1685   1.203   1.375   1.434 -0.2024  2.2258 -0.4385
  562SOL    HW2 1686   1.099   1.235   1.423  1.0374  1.7294  0.0914
  563SOL     OW 1687   1.031   0.011   2.998 -0.3064 -0.2244  0.0697
  563SOL    HW1 1688   1.129   3.056   2.986 -0.9544  0.7958  1.0036
  563SOL    HW2 1689   1.028   0.112   2.986  0.6791  0.8409  0.1233
  564SOL     OW 1690   3.003   2.113   0.779  0.4250  0.1940 -0.0835
  564SOL    HW1 1691   0.011   2.144   0.828 -0.7418  2.1718 -1.0551
  564SOL    HW2 1692   2.929   2.184   0.795  0.0081  1.4247  2.2591
  565SOL     OW 1693   0.632   1.799   1.263  0.5461 -0.0653  0.1439
  565SOL    HW1 1694   0.570   1.846   1.328  0.1725 -2.6633 -0.2114
  565SOL    HW2 1695   0.729   1.815   1.283  0.1499 -1.8954 -0.3315
  566SOL     OW 1696   1.398   2.639   2.244 -0.0821  0.0142  0.0175
  566SOL    HW1 1697   1.306   2.665   2.201 -4.0451 -1.6160  0.5548
  566SOL    HW2 1698   1.380   2.593   2.331 -2.9439  1.7037 -2.1346
  567SOL     OW 1699   2.336   2.849   0.698  0.0799  0.8072  0.1559
  567SOL    HW1 1700   2.378   2.884   0.784 -0.8071  1.0491 -2.4860
  567SOL    HW2 1701   2.390   2.778   0.648 -0.2518  0.8857 -2.5213
  568SOL     OW 1702   1.631   1.142   0.796  0.5467  0.6583  0.1206
  568SOL    HW1 1703   1.546   1.168   0.842 -0.0132 -2.7687  0.2375
  568SOL    HW2 1704   1.653   1.190   0.710  3.2556  0.6791 -0.1265
  569SOL     OW 1705   2.914   1.618   2.742 -0.9789 -0.0934  0.3326
  569SOL    HW1 1706   2.853   1.694   2.760  0.4774 -0.3084  1.5540
  569SOL    HW2 1707   2.872   1.527   2.771  1.0573 -1.1140 -0.3429
  570SOL     OW 1708   3.031   0.090   1.493 -0.3285 -0.0177 -0.1088
  570SOL    HW1 1709   3.074   0.127   1.406 -0.5246 -1.0416  1.2921
  570SOL    HW2 1710   2.983   0.006   1.466  1.2572 -0.9396  0.2319
  571SOL     OW 1711   0.300   0.206   1.683  0.5633 -0.1499  0.6810
  571SOL    HW1 1712   0.355   0.211   1.770 -0.8183  0.8820  1.2422
  571SOL    HW2 1713   0.290   0.300   1.643  0.8871  0.1687 -1.2367
  572SOL     OW 1714   0.037   2.560   1.407 -0.3073 -0.2179  0.8317
  572SOL    HW1 1715   0.132   2.545   1.370 -0.5396 -1.0657 -1.8668
  572SOL    HW2 1716   0.035   2.563   1.508 -0.7645  1.3371 -3.3662
  573SOL     OW 1717   0.869   0.605   3.076 -0.1331 -0.2058 -0.4341
  573SOL    HW1 1718   0.818   0.625   2.989  0.7300 -0.6263  0.3070
  573SOL    HW2 1719   0.835   0.516   0.036  3.3146  0.4697  0.7738
  574SOL     OW 1720   2.397   2.996   0.055  0.2820  0.3908 -0.6657
  574SOL    HW1 1721   2.335   3.061   3.076 -0.1810 -0.2979 -0.7596
  574SOL    HW2 1722   2.471   3.049   0.104 -0.9112 -0.3408  2.8274
  575SOL     OW 1723   1.416   2.537   1.267  0.1635 -0.4325 -0.1015
  575SOL    HW1 1724   1.342   2.522   1.334 -0.2946 -0.9220 -0.0757
  575SOL    HW2 1725   1.433   2.450   1.217 -2.5118  1.7913 -0.2547
  576SOL     OW 1726   1.050   0.022   0.992  0.1188  0.0008  0.2628
  576SOL    HW1 1727   1.095   0.101   0.950 -0.6625  0.2155  1.0924
  576SOL    HW2 1728   0.965   0.062   1.034  1.1700  3.0279 -0.5925
  577SOL     OW 1729   2.393   1.317   0.823 -0.1208  0.3980  0.4067
  577SOL    HW1 1730   2.425   1.387   0.754 -0.1706 -0.4574 -2.8750
  577SOL    HW2 1731   2.295   1.342   0.842  0.4612  2.0204  0.1640
  578SOL     OW 1732   1.670   0.476   0.465 -0.3037  0.0152 -0.3067
  578SOL    HW1 1733   1.656   0.425   0.550 -1.8112  2.6692 -0.5051
  578SOL    HW2 1734   1.761   0.521   0.469  1.5606  0.4905  1.5714
  579SOL     OW 1735   2.061   0.578   2.862  0.0866  0.6965  0.5948
  579SOL    HW1 1736   2.132   0.646   2.837 -1.5306  0.7203  1.0115
  579SOL    HW2 1737   2.103   0.489   2.895  0.8800  0.7384  1.6435
  580SOL     OW 1738   1.882   0.730   2.256 -0.7397 -0.2308 -0.0692
  580SOL    HW1 1739   1.879   0.695   2.350  0.5617 -2.0796 -2.0692
  580SOL    HW2 1740   1.803   0.796   2.238  1.7890  0.2511 -0.7822
  581SOL     OW 1741   0.356   0.580   0.840  0.5987  0.1090  0.3668
  581SOL    HW1 1742   0.446   0.590   0.890 -0.5114 -0.0687 -1.3388
  581SOL    HW2 1743   0.380   0.548   0.749  2.6539  1.8280  1.8627
  582SOL     OW 1744   2.859   0.117   1.854  0.1064 -0.4624  0.1116
  582SOL    HW1 1745   2.800   0.110   1.770 -2.0504  0.1092 -0.3078
  582SOL    HW2 1746   2.940   0.170   1.827 -0.4608 -0.0612  3.3805
  583SOL     OW 1747   0.572   0.630   2.178 -0.1040  0.3811 -0.1871
  583SOL    HW1 1748   0.588   0.661   2.270 -0.9846 -0.9410 -0.0223
  583SOL    HW2 1749   0.649   0.580   2.133  2.2866  1.5279 -1.4240
  584SOL     OW 1750   1.478   2.053   2.865 -0.0046  0.0080 -0.3548
  584SOL    HW1 1751   1.548   2.058   2.793 -1.9457 -0.4626  0.3257
  584SOL    HW2 1752   1.479   2.138   2.920 -0.1032 -4.1822 -2.0635
  585SOL     OW 1753   0.399   2.404   3.021 -0.0327  0.0831 -0.4698
  585SOL    HW1 1754   0.321   2.366   3.069  2.5007  2.8266 -4.1529
  585SOL    HW2 1755   0.481   2.398   0.004  2.2757  0.4678 -1.6887
  586SOL     OW 1756   1.930   2.008   2.675 -0.3479  0.7527 -0.1305
  586SOL    HW1 1757   2.013   2.063   2.653 -2.1084  1.3657  0.2102
  586SOL    HW2 1758   1.913   1.933   2.604 -0.6296 -2.9466  1.2973
  587SOL     OW 1759   2.344   2.267   2.907  0.3667  0.7303  0.0870
  587SOL    HW1 1760   2.355   2.362   2.949  0.5090  0.3400 -1.4253
  587SOL    HW2 1761   2.354   2.197   2.983 -1.1608 -1.1849 -1.1290
  588SOL     OW 1762   2.930   0.537   0.777  0.2462  0.1677  0.5771
  588SOL    HW1 1763   2.856   0.476   0.740  0.3403 -4.4559 -2.2605
  588SOL    HW2 1764   3.023   0.498   0.750 -0.2460  0.4651  0.2326
  589SOL     OW 1765   1.058   0.503   0.332 -0.2938  0.5371 -0.0531
  589SOL    HW1 1766   0.969   0.556   0.324 -3.2616  2.3112 -2.9615
  589SOL    HW2 1767   1.114   0.538   0.411 -0.4679  0.3340 -1.0527
  590SOL     OW 1768   2.025   2.158   0.376 -0.4805 -0.1308 -0.4398
  590SOL    HW1 1769   1.926   2.179   0.396 -1.5416  0.0016 -0.7786
  590SOL    HW2 1770   2.063   2.090   0.437 -1.2391 -2.1238  0.6659
  591SOL     OW 1771   0.447   2.243   1.088  0.0384  0.7825  0.4067
  591SOL    HW1 1772   0.355   2.283   1.111 -1.8810 -0.2623  0.0905
  591SOL    HW2 1773   0.478   2.281   0.999  1.2647 -1.6254 -0.1175
  592SOL     OW 1774   1.472   0.654   1.327 -0.5672  0.2999  0.2933
  592SOL    HW1 1775   1.417   0.645   1.241  2.9435  0.8022  1.8397
  592SOL    HW2 1776   1.458   0.737   1.380  1.9472 -2.2376 -1.2920
  593SOL     OW 1777   0.900   1.811   1.316 -0.4577  0.2368 -0.1087
  593SOL    HW1 1778   0.944   1.745   1.379 -1.6970  0.2798  2.8950
  593SOL    HW2 1779   0.970   1.862   1.265 -0.7852  0.2742 -0.1945
  594SOL     OW 1780   1.060   1.993   0.327 -0.1988  0.1160 -0.1978
  594SOL    HW1 1781   1.086   1.957   0.230 -1.2145 -1.1321 -1.6402
  594SOL    HW2 1782   0.972   1.952   0.349 -1.9893 -1.2890 -0.6738
  595SOL     OW 1783   1.732   0.656   1.591 -0.4511 -0.1285 -0.5579
  595SOL    HW1 1784   1.769   0.562   1.583 -1.5360  0.9296 -0.6310
  595SOL    HW2 1785   1.643   0.657   1.644 -2.1181  0.7877  0.6378
  596SOL     OW 1786   2.911   0.770   1.589 -0.1309 -0.4349 -0.3418
  596SOL    HW1 1787   2.939   0.801   1.682  0.8972 -2.5663 -3.7024
  596SOL    HW2 1788   2.981   0.791   1.519  0.3215 -1.1237 -1.1886
  597SOL     OW 1789   0.813   2.597   2.233 -0.2945  0.2445 -0.0194
  597SOL    HW1 1790   0.799   2.518   2.167  0.4617 -0.4038 -3.0538
  597SOL    HW2 1791   0.907   2.600   2.271 -0.0764  1.9937 -0.5778
  598SOL     OW 1792   2.368   1.523   1.696  0.1603  0.0998 -0.5500
  598SOL    HW1 1793   2.385   1.623   1.713  0.3683 -0.3037 -1.0640
  598SOL    HW2 1794   2.458   1.476   1.715  1.8100 -0.7950  1.0922
  599SOL     OW 1795   0.696   2.769   0.246  0.0044 -0.1673  0.3348
  599SOL    HW1 1796   0.610   2.727   0.208 -1.4173  0.3281 -3.7002
  599SOL    HW2 1797   0.718   2.847   0.180  1.1841  3.0774 -2.3508
  600SOL     OW 1798   3.056   2.288   0.053 -0.0444 -0.3554  0.1593
  600SOL    HW1 1799   3.056   2.194   0.019 -0.6781 -0.3614 -1.8007
  600SOL    HW2 1800   3.069   2.350   3.046 -0.7010 -1.7306  0.9429
  601SOL     OW 1801   0.507   0.739   1.223  0.0523 -0.1129  0.2938
  601SOL    HW1 1802   0.415   0.716   1.186 -0.3881  3.7308 -0.4036
  601SOL    HW2 1803   0.490   0.798   1.308  0.6067 -0.5225  2.7144
  602SOL     OW 1804   0.456   0.198   0.735 -0.3416 -0.0072  0.4482
  602SOL    HW1 1805   0.534   0.186   0.795 -1.3172  1.0024 -2.8625
  602SOL    HW2 1806   0.457   0.290   0.700 -1.3929 -1.4529  0.5032
  603SOL     OW 1807   0.356   0.377   2.639  0.5192  0.2188  0.3097
  603SOL    HW1 1808   0.315   0.282   2.637  2.6294  1.0985 -2.9197
  603SOL    HW2 1809   0.432   0.383   2.705  0.2157  0.1583  1.0000
  604SOL     OW 1810   0.822   2.767   1.588  0.3371 -0.5782  0.4602
  604SOL    HW1 1811   0.848   2.725   1.679  1.4900  0.6201  1.9401
  604SOL    HW2 1812   0.768   2.704   1.527 -3.2239 -1.3731 -0.8101
  605SOL     OW 1813   1.415   1.017   2.194  0.0620  0.3145 -0.2972
  605SOL    HW1 1814   1.338   0.961   2.234  1.6098  1.6311  0.6381
  605SOL    HW2 1815   1.392   1.081   2.121  0.0931  0.0939  5.2604
  606SOL     OW 1816   2.067   2.866   2.934 -0.0718 -0.0676  0.2099
  606SOL    HW1 1817   1.995   2.925   2.893  2.9156 -0.9374 -3.5411
  606SOL    HW2 1818   2.129   2.844   2.860 -2.5235  0.5266  1.9146
  607SOL     OW 1819   0.979   0.321   1.523  0.0758 -0.1050 -0.2066
  607SOL    HW1 1820   1.012   0.366   1.606  2.7317 -1.1554 -4.0297
  607SOL    HW2 1821   1.056   0.269   1.480 -0.2693 -2.1415  0.3973
  608SOL     OW 1822   0.056   1.921   2.702  0.1317  0.2544 -0.2153
  608SOL    HW1 1823   0.125   1.871   2.644  1.3413  0.2248  0.3053
  608SOL    HW2 1824   0.069   1.899   2.800 -2.0579  1.5708 -1.4770
  609SOL     OW 1825   1.052   1.102   0.318  0.4933  0.0606  0.5897
  609SOL    HW1 1826   0.965   1.095   0.264 -0.7026 -0.3952 -1.9837
  609SOL    HW2 1827   1.089   1.007   0.337 -0.0965 -2.6540  2.3312
  610SOL     OW 1828   0.212   0.216   0.905 -0.2727  0.0561 -0.4185
  610SOL    HW1 1829   0.304   0.205   0.864 -1.3838  0.2023  2.1077
  610SOL    HW2 1830   0.231   0.271   0.994  0.8544  0.3011  1.5203
  611SOL     OW 1831   1.202   1.079   0.734  0.6633 -0.4327  0.7293
  611SOL    HW1 1832   1.115   1.089   0.680 -2.2574  1.3136 -0.5946
  611SOL    HW2 1833   1.284   1.094   0.675 -0.8620 -0.1351  3.1084
  612SOL     OW 1834   2.014   1.552   0.073 -0.3878  0.1889 -0.1727
  612SOL    HW1 1835   1.928   1.590   0.109  1.5537 -1.3650  0.4465
  612SOL    HW2 1836   2.004   1.452   0.066 -1.9124 -0.0252 -0.3212
  613SOL     OW 1837   1.730   1.256   0.067 -1.1399  0.3611 -0.0207
  613SOL    HW1 1838   1.673   1.291   3.067 -0.1804  3.5917  1.4856
  613SOL    HW2 1839   1.693   1.171   0.106 -0.4078 -0.3995  1.4976
  614SOL     OW 1840   2.700   0.152   2.434  0.1942  0.2663 -0.3254
  614SOL    HW1 1841   2.745   0.235   2.409  0.2165 -1.9703 -0.1003
  614SOL    HW2 1842   2.741   0.069   2.394 -2.0579  1.1630  1.1013
  615SOL     OW 1843   0.790   1.776   0.661 -0.2907 -0.0598  0.2234
  615SOL    HW1 1844   0.817   1.810   0.568 -1.6972  0.4426  0.8795
  615SOL    HW2 1845   0.746   1.852   0.711 -0.7133 -0.9965 -2.9828
  616SOL     OW 1846   1.672   0.935   2.564 -0.0950 -0.4350  0.2668
  616SOL    HW1 1847   1.610   1.007   2.522  0.0754  1.2013 -0.7898
  616SOL    HW2 1848   1.622   0.875   2.630  1.5725  0.4827  0.8601
  617SOL     OW 1849   1.275   0.304   0.237  0.1002 -0.4570 -0.0535
  617SOL    HW1 1850   1.338   0.360   0.283 -2.5691 -2.4306 -0.2450
  617SOL    HW2 1851   1.221   0.248   0.307 -2.7219 -2.2331  1.0052
  618SOL     OW 1852   2.720   1.814   2.528 -0.0069  0.1573 -0.3761
  618SOL    HW1 1853   2.661   1.890   2.495  1.8135 -0.2377  1.4810
  618SOL    HW2 1854   2.729   1.803   2.631  0.0729  0.1171  1.1209
  619SOL     OW 1855   2.286   1.885   0.871 -0.1062 -0.0230  0.1144
  619SOL    HW1 1856   2.313   1.920   0.962  0.3830 -1.9417 -2.6339
  619SOL    HW2 1857   2.361   1.894   0.803  1.4696  0.0778  2.9137
  620SOL     OW 1858   2.400   2.966   1.413 -0.2017 -0.0797 -0.1644
  620SOL    HW1 1859   2.338   2.884   1.421  0.8245 -2.0394 -1.2963
  620SOL    HW2 1860   2.461   2.982   1.491  1.9677  2.9415 -1.4185
  621SOL     OW 1861   2.980   1.864   0.857 -0.1072  0.1578  0.2547
  621SOL    HW1 1862   3.062   1.809   0.832 -1.1671  2.3598  1.7954
  621SOL    HW2 1863   2.986   1.961   0.821  3.0649 -0.4394 -1.3386
  622SOL     OW 1864   0.754   1.717   2.472 -0.4329 -0.4473 -0.2549
  622SOL    HW1 1865   0.701   1.649   2.527  2.3826  1.0829 -0.1718
  622SOL    HW2 1866   0.777   1.799   2.533  2.6725  1.7785 -1.1510
  623SOL     OW 1867   2.798   2.797   2.624 -0.0641 -0.2920  0.3888
  623SOL    HW1 1868   2.884   2.752   2.592 -0.2536 -0.4594  3.0527
  623SOL    HW2 1869   2.776   2.754   2.715  2.5009  0.5953  3.3570
  624SOL     OW 1870   0.810   1.908   0.387 -0.1418 -0.1993  0.4053
  624SOL    HW1 1871   0.810   1.819   0.341  0.7070 -1.2338  0.5062
  624SOL    HW2 1872   0.727   1.958   0.347 -1.9501  1.5121 -2.2123
  625SOL     OW 1873   0.522   2.030   2.239 -0.0032 -0.2600  0.3652
  625SOL    HW1 1874   0.605   1.970   2.248  2.9531  1.4787  1.5113
  625SOL    HW2 1875   0.512   2.075   2.150  1.2979 -0.1486  1.0013
  626SOL     OW 1876   0.301   2.497   0.250 -0.0587 -0.4045  0.9376
  626SOL    HW1 1877   0.315   2.395   0.234 -0.7300 -3.1806 -0.7538
  626SOL    HW2 1878   0.334   2.527   0.341 -0.0550  0.4742 -1.5434
  627SOL     OW 1879   1.147   1.323   2.887 -0.0378  0.4772 -0.5894
  627SOL    HW1 1880   1.217   1.355   2.820  0.3548  1.1308  0.2914
  627SOL    HW2 1881   1.062   1.300   2.842  1.3446  2.4220 -1.8160
  628SOL     OW 1882   1.531   2.160   0.698 -0.2783 -0.0989 -0.0604
  628SOL    HW1 1883   1.486   2.120   0.778 -0.0872 -1.4876 -2.0564
  628SOL    HW2 1884   1.633   2.147   0.710  1.7177 -0.2001 -1.5427
  629SOL     OW 1885   0.703   0.263   1.630  0.1401 -0.2494  0.4671
  629SOL    HW1 1886   0.677   0.163   1.619 -0.0820  0.3419 -1.6948
  629SOL    HW2 1887   0.793   0.275   1.575  3.4442  2.8474 -0.3316
  630SOL     OW 1888   2.539   0.354   1.732  0.3150 -0.4219  0.7416
  630SOL    HW1 1889   2.465   0.286   1.733  2.2192  1.1759  0.2480
  630SOL    HW2 1890   2.524   0.431   1.665  1.5484  0.2606 -0.4825
  631SOL     OW 1891   1.446   0.347   1.022 -0.1192 -0.0591  0.0025
  631SOL    HW1 1892   1.487   0.399   0.946  4.0437 -0.2354  0.5614
  631SOL    HW2 1893   1.410   0.411   1.090 -1.0614  0.7810  0.7079
  632SOL     OW 1894   2.656   0.895   1.766 -0.0192  1.1421 -0.0636
  632SOL    HW1 1895   2.728   0.848   1.817 -0.2788  1.6808  0.4626
  632SOL    HW2 1896   2.639   0.872   1.666 -0.0700 -2.7219  0.2107
  633SOL     OW 1897   1.315   1.024   2.824  0.3477  0.1538  0.9297
  633SOL    HW1 1898   1.362   1.060   2.908 -1.0107 -0.5137  1.4573
  633SOL    HW2 1899   1.290   1.095   2.753  1.2911  0.3167 -0.5646
  634SOL     OW 1900   0.645   2.361   0.134 -0.3085  0.0349 -0.0468
  634SOL    HW1 1901   0.613   2.381   0.227 -1.0246 -1.6603  1.8648
  634SOL    HW2 1902   0.702   2.278   0.143  3.1546  1.5260  2.9373
  635SOL     OW 1903   2.882   1.453   1.898  0.1186  0.1469 -0.4068
  635SOL    HW1 1904   2.806   1.511   1.876  2.5391 -2.2417  2.5988
  635SOL    HW2 1905   2.873   1.433   1.997 -0.2830 -1.0156  0.2815
  636SOL     OW 1906   0.016   1.677   0.094 -0.2736  0.0647  0.7521
  636SOL    HW1 1907   0.023   1.578   0.072 -2.7496 -1.3655 -0.1658
  636SOL    HW2 1908   0.067   1.710   0.176 -2.8492  2.2741  0.7955
  637SOL     OW 1909   3.028   2.398   0.642  0.3815 -0.0859 -0.2284
  637SOL    HW1 1910   2.978   2.339   0.705  1.6932 -2.7481 -1.9635
  637SOL    HW2 1911   2.965   2.442   0.572 -0.0871 -2.5802 -0.8529
  638SOL     OW 1912   2.558   2.715   0.146 -0.1301 -0.0958  0.0981
  638SOL    HW1 1913   2.536   2.622   0.175  1.7156  1.5318  0.8130
  638SOL    HW2 1914   2.521   2.732   0.050 -0.6089 -3.6067 -1.3229
  639SOL     OW 1915   1.261   0.625   0.136  0.1880 -0.1361  0.3720
  639SOL    HW1 1916   1.221   0.553   0.196  0.1788 -0.1070  1.6592
  639SOL    HW2 1917   1.197   0.703   0.115  1.5356  0.2189  0.8265
  640SOL     OW 1918   2.275   2.109   1.565 -0.0767 -0.2923  0.0934
  640SOL    HW1 1919   2.352   2.085   1.625 -0.4383  0.2024 -0.4714
  640SOL    HW2 1920   2.207   2.169   1.613 -0.3233 -1.4359  1.2743
  641SOL     OW 1921   2.880   2.999   1.109 -0.5264 -0.7449 -0.2699
  641SOL    HW1 1922   2.868   2.947   1.020 -1.6345 -0.6024 -0.7882
  641SOL    HW2 1923   2.975   3.037   1.112  2.9979  1.1351  0.0852
  642SOL     OW 1924   1.638   0.900   1.614 -0.0625  0.0514 -0.2836
  642SOL    HW1 1925   1.707   0.829   1.590 -1.8613 -0.0670 -1.8002
  642SOL    HW2 1926   1.675   0.998   1.623  1.4062 -0.6003  0.9373
  643SOL     OW 1927   0.982   1.811   2.122  0.0882  0.2044  0.2682
  643SOL    HW1 1928   1.080   1.799   2.137 -1.4212  0.1381 -2.2321
  643SOL    HW2 1929   0.962   1.861   2.036 -2.8990  3.6972 -0.1959
  644SOL     OW 1930   1.761   0.136   1.987  0.1297 -0.7379  0.0602
  644SOL    HW1 1931   1.706   0.099   2.062  0.2572  1.1010  1.6027
  644SOL    HW2 1932   1.724   0.234   1.976 -0.9919  2.1920  4.4233
  645SOL     OW 1933   1.539   1.210   1.747 -0.7336  0.5443 -0.0885
  645SOL    HW1 1934   1.457   1.176   1.705  1.3786  3.4241  2.1971
  645SOL    HW2 1935   1.619   1.216   1.680 -0.2495  1.8637 -3.9224
  646SOL     OW 1936   1.281   2.500   0.024  0.3370 -0.1162  0.0101
  646SOL    HW1 1937   1.199   2.497   3.040  2.5077  1.0684 -0.4552
  646SOL    HW2 1938   1.358   2.447   3.061 -0.1740  0.9922  0.6611
  647SOL     OW 1939   1.477   2.361   1.068 -0.4527  0.1730 -0.0967
  647SOL    HW1 1940   1.483   2.415   0.981 -1.1680 -1.1589  0.5999
  647SOL    HW2 1941   1.548   2.283   1.057  1.8246 -3.7238 -0.5656
  648SOL     OW 1942   2.953   2.303   1.491 -0.0262  0.8110 -0.3913
  648SOL    HW1 1943   3.025   2.236   1.475 -3.7261  0.2777  0.5551
  648SOL    HW2 1944   2.995   2.394   1.502  0.8555 -0.9511  0.8873
  649SOL     OW 1945   1.172   2.402   2.517 -0.5672  0.0517  0.3649
  649SOL    HW1 1946   1.206   2.307   2.521  0.1084 -0.1355 -0.7373
  649SOL    HW2 1947   1.083   2.408   2.563  2.7470  1.6491 -1.2461
  650SOL     OW 1948   3.003   2.020   0.016  0.3353  0.2014 -0.3560
  650SOL    HW1 1949   2.969   1.972   0.102 -1.7668 -0.6688  1.3643
  650SOL    HW2 1950   0.013   1.977   3.060  1.1241  0.3968  2.1734
  651SOL     OW 1951   2.361   2.343   2.057 -0.1324 -0.2755 -0.3056
  651SOL    HW1 1952   2.294   2.267   2.033  3.0618 -2.4332 -1.6793
  651SOL    HW2 1953   2.415   2.376   1.974  1.1176  2.8255 -2.8265
  652SOL     OW 1954   2.118   2.720   0.793  0.2855 -0.1720 -0.4045
  652SOL    HW1 1955   2.187   2.765   0.736 -0.0401 -2.1585  0.8092
  652SOL    HW2 1956   2.047   2.688   0.728 -1.6035 -0.5831  0.4109
  653SOL     OW 1957   3.075   1.116   1.400 -0.2019 -0.1836 -0.2626
  653SOL    HW1 1958   3.001   1.166   1.449 -1.3961  2.3203  1.7254
  653SOL    HW2 1959   3.072   1.122   1.296  1.6963  1.9784  0.8960
  654SOL     OW 1960   1.087   0.468   2.754  0.1774  0.6204 -0.1366
  654SOL    HW1 1961   1.077   0.420   2.668 -1.7033  0.6960 -0.4855
  654SOL    HW2 1962   1.042   0.555   2.754 -4.0096 -2.5228  0.7787
  655SOL     OW 1963   1.152   0.862   1.141  1.1132  0.8644 -0.0455
  655SOL    HW1 1964   1.176   0.952   1.181  3.2179 -2.8488 -4.3972
  655SOL    HW2 1965   1.221   0.789   1.164 -0.9651  1.0774 -1.2856
  656SOL     OW 1966   1.159   2.561   1.966  0.3872  0.7007 -0.9233
  656SOL    HW1 1967   1.155   2.486   2.034  1.4711  0.0635 -1.3816
  656SOL    HW2 1968   1.174   2.650   2.008  0.0153 -0.0984 -0.6869
  657SOL     OW 1969   1.989   1.243   0.036  0.8542  0.3891 -0.1026
  657SOL    HW1 1970   2.002   1.184   3.032  0.6943  2.3494  1.3005
  657SOL    HW2 1971   1.888   1.254   0.058 -0.0609 -0.0587 -0.5729
  658SOL     OW 1972   1.461   2.209   1.677 -0.3029  0.2312 -0.3814
  658SOL    HW1 1973   1.536   2.277   1.685 -0.1478 -1.3157 -0.0538
  658SOL    HW2 1974   1.463   2.131   1.739 -3.3110  1.2047 -2.0590
  659SOL     OW 1975   2.832   1.744   0.167  0.0440 -0.5086  0.0097
  659SOL    HW1 1976   2.833   1.693   0.258  0.9366 -0.3282  0.9078
  659SOL    HW2 1977   2.922   1.733   0.126 -0.8074  1.4403 -1.6469
  660SOL     OW 1978   0.848   0.170   0.659  0.1528 -0.0130  0.9155
  660SOL    HW1 1979   0.840   0.067   0.677  0.4783  0.6948  1.1570
  660SOL    HW2 1980   0.929   0.210   0.702 -0.7967  1.4369 -2.4469
  661SOL     OW 1981   1.862   0.516   0.154  0.2461  0.2085 -0.1461
  661SOL    HW1 1982   1.852   0.612   0.192  0.5784  0.3329  2.5031
  661SOL    HW2 1983   1.777   0.463   0.173  1.0877 -1.2326  0.7053
  662SOL     OW 1984   0.419   0.434   0.609 -1.1523  0.4410 -0.4316
  662SOL    HW1 1985   0.346   0.401   0.547  0.3917  1.4722 -0.6058
  662SOL    HW2 1986   0.514   0.454   0.571  3.7435  1.0454  2.6174
  663SOL     OW 1987   1.520   2.872   2.340 -0.2534 -0.5336 -0.9023
  663SOL    HW1 1988   1.435   2.930   2.348  0.5350  1.2156  1.0205
  663SOL    HW2 1989   1.496   2.782   2.299 -1.0224 -0.6994 -0.5627
  664SOL     OW 1990   0.629   2.497   1.691 -0.4840 -0.5775 -0.1279
  664SOL    HW1 1991   0.524   2.477   1.692 -2.7777  0.4039  0.0192
  664SOL    HW2 1992   0.670   2.476   1.599  1.4543  0.0066 -1.6253
  665SOL     OW 1993   1.199   2.307   1.563  0.2437  0.1523 -1.0616
  665SOL    HW1 1994   1.209   2.404   1.543 -1.2194 -5.5494  0.1939
  665SOL    HW2 1995   1.290   2.268   1.598  0.4294  0.3748 -0.7728
  666SOL     OW 1996   0.822   2.997   2.599 -0.1715 -0.5932 -0.3374
  666SOL    HW1 1997   0.840   2.960   2.693 -1.4743  1.1154  1.8625
  666SOL    HW2 1998   0.733   2.961   2.566  0.3159 -2.0229 -1.9897
  667SOL     OW 1999   2.656   0.802   1.480  0.0988 -0.4057 -0.1405
  667SOL    HW1 2000   2.630   0.902   1.465 -1.2638 -1.6333 -0.3061
  667SOL    HW2 2001   2.756   0.798   1.510  0.3695  0.6253  0.4698
  668SOL     OW 2002   1.452   0.148   1.386  0.4139  0.2516 -0.2726
  668SOL    HW1 2003   1.499   0.067   1.420 -1.3790  1.3221 -0.4876
  668SOL    HW2 2004   1.509   0.232   1.395 -2.4102 -0.4976  0.0991
  669SOL     OW 2005   2.508   2.518   1.087  0.3860 -0.2739 -0.8744
  669SOL    HW1 2006   2.501   2.421   1.118  0.2970 -1.2742  0.9329
  669SOL    HW2 2007   2.486   2.524   0.984  1.7717 -0.3566 -2.5739
  670SOL     OW 2008   1.240   2.280   2.829  0.0439  0.1276  0.1580
  670SOL    HW1 2009   1.316   2.299   2.894  0.1582 -1.8704 -1.1941
  670SOL    HW2 2010   1.269   2.227   2.749 -3.8663  0.1857  2.3467
  671SOL     OW 2011   0.608   1.222   0.370 -0.0419 -0.2028  0.1638
  671SOL    HW1 2012   0.558   1.183   0.288  0.1084  0.8667  0.2176
  671SOL    HW2 2013   0.541   1.242   0.447  2.0383 -0.4127  0.0720
  672SOL     OW 2014   2.725   1.167   0.083 -0.5701  0.8271  0.1521
  672SOL    HW1 2015   2.771   1.072   0.107  1.3787 -6.1378  2.6064
  672SOL    HW2 2016   2.639   1.175   0.140  0.0924 -2.0455  2.3586
  673SOL     OW 2017   0.091   1.811   1.676  0.0264 -0.4433 -0.1176
  673SOL    HW1 2018   0.071   1.716   1.684  1.7332  1.8571 -1.5640
  673SOL    HW2 2019   0.168   1.836   1.745  2.6488  2.5143 -1.0249
  674SOL     OW 2020   1.026   2.146   1.702  0.0050 -0.2111 -0.1279
  674SOL    HW1 2021   0.945   2.107   1.653 -2.9012 -0.2105 -0.5925
  674SOL    HW2 2022   1.070   2.220   1.647  1.8662  0.4902  2.4165
  675SOL     OW 2023   1.188   1.088   1.253  0.2298  0.1086  0.6678
  675SOL    HW1 2024   1.229   1.155   1.314  0.2476  1.3505 -2.8767
  675SOL    HW2 2025   1.123   1.138   1.197 -0.3896  0.5986 -0.4496
  676SOL     OW 2026   2.156   0.592   0.985 -0.0120  0.1308  0.0085
  676SOL    HW1 2027   2.096   0.658   1.033 -0.9655  1.6289 -1.6733
  676SOL    HW2 2028   2.154   0.495   1.019 -1.3529 -0.1778  1.7831
  677SOL     OW 2029   2.491   0.503   0.042 -0.4252 -0.1786  0.9774
  677SOL    HW1 2030   2.402   0.461   0.028 -1.0509 -1.5035 -0.0378
  677SOL    HW2 2031   2.556   0.438   0.001  0.9760 -0.1188  1.9075
  678SOL     OW 2032   2.408   1.425   1.344  0.2797  0.3140 -0.1469
  678SOL    HW1 2033   2.436   1.445   1.243 -0.5933 -0.8868  0.2589
  678SOL    HW2 2034   2.326   1.478   1.381  2.8038  1.4448 -1.3450
  679SOL     OW 2035   2.562   0.645   2.764  0.4351 -0.5434 -0.4158
  679SOL    HW1 2036   2.577   0.697   2.680  1.4650 -1.1968  2.9753
  679SOL    HW2 2037   2.570   0.710   2.838  0.4926  0.1889 -0.4381
  680SOL     OW 2038   0.621   1.193   2.039 -0.4779  0.1489 -0.3607
  680SOL    HW1 2039   0.629   1.092   2.064  0.4909 -2.0509  1.2448
  680SOL    HW2 2040   0.557   1.239   2.108  0.8539  3.0597 -0.1845
  681SOL     OW 2041   2.731   1.989   1.679 -0.7084 -0.5692  0.0318
  681SOL    HW1 2042   2.808   2.008   1.743  1.7971  0.7002  0.5817
  681SOL    HW2 2043   2.751   1.979   1.577 -0.6613  0.8372 -0.0105
  682SOL     OW 2044   0.410   1.816   2.913 -0.2593 -0.2439  0.3633
  682SOL    HW1 2045   0.460   1.877   2.845  0.9538  1.2575  2.1906
  682SOL    HW2 2046   0.459   1.729   2.925 -1.1471 -0.3302 -2.2548
  683SOL     OW 2047   2.584   2.147   0.878  0.0145  0.0450 -0.1574
  683SOL    HW1 2048   2.630   2.053   0.876  1.3280 -2.3953 -1.5579
  683SOL    HW2 2049   2.536   2.180   0.963 -0.1921  1.2599 -0.5693
  684SOL     OW 2050   2.439   1.024   1.865 -0.1702  0.5347  0.2229
  684SOL    HW1 2051   2.527   0.971   1.841  0.2693  1.7050 -0.9259
  684SOL    HW2 2052   2.452   1.106   1.920 -2.0946 -0.2093  1.0665
  685SOL     OW 2053   1.290   0.613   1.092 -0.4947 -0.0596  0.3119
  685SOL    HW1 2054   1.280   0.625   0.989  1.2959  1.4818 -0.0229
  685SOL    HW2 2055   1.249   0.526   1.119 -1.8141 -1.0533 -1.2279
  686SOL     OW 2056   0.553   0.226   0.045 -0.1373  0.1236 -0.1283
  686SOL    HW1 2057   0.546   0.133   0.002  1.1124 -2.8993  0.0307
  686SOL    HW2 2058   0.528   0.229   0.141  3.6751 -0.6382  1.0192
  687SOL     OW 2059   0.320   2.361   2.581  0.1212 -0.5379  0.3008
  687SOL    HW1 2060   0.257   2.333   2.501 -3.9462  0.0572 -3.0076
  687SOL    HW2 2061   0.413   2.321   2.570  1.2984  1.6093 -1.2329
  688SOL     OW 2062   2.169   0.487   1.318 -0.4965 -0.5085  0.7618
  688SOL    HW1 2063   2.215   0.500   1.406  0.8435  1.1966 -0.9952
  688SOL    HW2 2064   2.215   0.420   1.255 -0.1153 -0.0331  1.5501
  689SOL     OW 2065   1.717   0.854   0.864  0.1962  0.2700  0.2180
  689SOL    HW1 2066   1.685   0.947   0.834  2.1513  1.4137 -0.1019
  689SOL    HW2 2067   1.675   0.839   0.961 -0.9506 -0.1334  2.7490
  690SOL     OW 2068   0.046   0.853   1.430 -0.4697 -0.1049 -0.1614
  690SOL    HW1 2069   0.031   0.953   1.440 -0.0563  2.1342 -0.0748
  690SOL    HW2 2070   0.028   0.822   1.337  0.0987 -0.9965  0.3422
  691SOL     OW 2071   3.071   1.046   1.701  0.1451  0.5376  0.8063
  691SOL    HW1 2072   3.050   1.117   1.630 -0.9626  0.4246 -1.2302
  691SOL    HW2 2073   0.044   1.095   1.775 -1.3618 -0.8224 -0.7856
  692SOL     OW 2074   0.991   0.655   1.962  0.0412  0.8947  0.3854
  692SOL    HW1 2075   0.987   0.564   2.014  0.5304 -0.7396  1.9504
  692SOL    HW2 2076   0.941   0.644   1.873 -0.7689 -0.3751  0.8795
  693SOL     OW 2077   0.488   1.352   2.219  0.4086 -0.4211  0.0853
  693SOL    HW1 2078   0.555   1.426   2.240 -1.8744  1.3713  1.2191
  693SOL    HW2 2079   0.395   1.382   2.251 -0.0920 -1.0333 -1.1989
  694SOL     OW 2080   1.474   1.604   0.374 -1.1311  0.1240  0.6875
  694SOL    HW1 2081   1.520   1.510   0.391  2.4835 -2.9911  1.6518
  694SOL    HW2 2082   1.523   1.671   0.432 -0.1053  0.2480 -0.4779
  695SOL     OW 2083   0.665   1.205   1.312 -0.0717  0.2215  0.0788
  695SOL    HW1 2084   0.692   1.191   1.215 -0.2586 -3.2237 -1.7855
  695SOL    HW2 2085   0.568   1.192   1.314  0.4227 -0.6693  1.1074
  696SOL     OW 2086   0.356   2.524   0.516 -0.1157 -0.2063 -0.5716
  696SOL    HW1 2087   0.270   2.547   0.566 -3.5596 -0.4426  0.0399
  696SOL    HW2 2088   0.434   2.517   0.576  1.7565 -1.2789  2.1649
  697SOL     OW 2089   1.587   0.412   1.384  0.0122 -0.2172 -0.3775
  697SOL    HW1 2090   1.686   0.420   1.370 -0.9580 -0.0826 -0.9903
  697SOL    HW2 2091   1.547   0.508   1.375 -1.2569 -1.0947  0.0298
  698SOL     OW 2092   1.504   1.510   1.528  0.3974  0.6580 -0.0414
  698SOL    HW1 2093   1.453   1.474   1.610 -2.4359 -1.3349 -2.2765
  698SOL    HW2 2094   1.590   1.557   1.555 -3.6018  0.2428 -1.1604
  699SOL     OW 2095   0.047   0.526   2.456  0.3616 -0.6315 -0.0237
  699SOL    HW1 2096   3.043   0.584   2.421  0.3311 -1.9766 -1.5615
  699SOL    HW2 2097   0.133   0.577   2.442  0.0024  0.9312 -0.3141
  700SOL     OW 2098   1.492   2.776   0.597 -0.3715 -0.1749 -0.1154
  700SOL    HW1 2099   1.432   2.728   0.662 -0.2486 -1.0123 -1.2507
  700SOL    HW2 2100   1.558   2.843   0.638  0.3104 -1.6357  0.0137
  701SOL     OW 2101   0.345   1.602   2.694 -0.8476  0.9627 -0.3967
  701SOL    HW1 2102   0.270   1.575   2.755  0.5455 -0.7152 -0.7856
  701SOL    HW2 2103   0.433   1.585   2.746  0.6398  0.3138  2.4445
  702SOL     OW 2104   0.358   0.397   3.020 -0.1065  0.0282  0.1994
  702SOL    HW1 2105   0.282   0.374   2.954 -0.1415  0.4178 -1.2572
  702SOL    HW2 2106   0.370   0.325   0.019  0.7915  0.2212  2.2889
  703SOL     OW 2107   1.716   3.017   2.468  0.1154 -0.5734  0.0994
  703SOL    HW1 2108   1.679   3.042   2.560  0.6321 -0.7480  0.4937
  703SOL    HW2 2109   1.638   2.986   2.404  0.8037 -1.5533  0.7372
  704SOL     OW 2110   2.804   1.773   0.606 -0.2669  0.1056 -0.2955
  704SOL    HW1 2111   2.727   1.814   0.553 -3.2453  0.2952 -0.6694
  704SOL    HW2 2112   2.897   1.807   0.581  4.4746  0.7025 -1.6716
  705SOL     OW 2113   2.831   1.790   2.074  0.5697  0.0525  0.4410
  705SOL    HW1 2114   2.767   1.724   2.028 -1.6331 -1.2127  1.0081
  705SOL    HW2 2115   2.786   1.873   2.096  0.7790  1.4569  0.2027
  706SOL     OW 2116   2.793   2.587   0.741  0.1180 -0.5600  0.4145
  706SOL    HW1 2117   2.872   2.644   0.781 -0.1008  2.8151  0.6378
  706SOL    HW2 2118   2.810   2.578   0.641  0.9220 -0.7353  0.2469
  707SOL     OW 2119   0.819   2.763   0.477 -0.2649  0.0260 -0.1838
  707SOL    HW1 2120   0.913   2.737   0.450 -1.3742 -0.1855  2.8352
  707SOL    HW2 2121   0.765   2.761   0.394 -1.2520  3.5984  1.5138
  708SOL     OW 2122   0.622   2.134   1.535  0.2484 -0.2362  0.9130
  708SOL    HW1 2123   0.538   2.121   1.477 -0.4345  0.4819 -1.0695
  708SOL    HW2 2124   0.686   2.193   1.474  0.0725  0.1878 -3.6224
  709SOL     OW 2125   1.593   0.067   2.191  0.0113 -0.2291  0.0124
  709SOL    HW1 2126   1.526   0.136   2.224  0.9374  0.2788 -0.2565
  709SOL    HW2 2127   1.603   3.070   2.259 -1.2107 -0.5675  1.4898
  710SOL     OW 2128   1.482   2.769   2.615 -0.7916  0.0970  0.8354
  710SOL    HW1 2129   1.477   2.667   2.601  1.1378  1.1126 -1.5565
  710SOL    HW2 2130   1.516   2.814   2.533  0.0957 -0.2501  1.1172
  711SOL     OW 2131   1.078   2.503   2.878 -0.2379 -0.1751 -0.3682
  711SOL    HW1 2132   0.982   2.461   2.888 -4.2523 -0.3383 -0.7396
  711SOL    HW2 2133   1.146   2.423   2.855 -0.7950 -0.3482 -1.5847
  712SOL     OW 2134   1.030   2.063   2.793  0.4382 -0.2068  0.0169
  712SOL    HW1 2135   1.076   2.152   2.808  1.3038  0.0369 -1.1950
  712SOL    HW2 2136   1.012   2.053   2.693 -2.5176 -1.6244  0.0999
  713SOL     OW 2137   1.352   1.134   1.595 -0.4063 -0.1775  0.3314
  713SOL    HW1 2138   1.277   1.188   1.542 -2.7018  3.4615 -2.5821
  713SOL    HW2 2139   1.302   1.062   1.649 -0.1825  1.4805  1.3574
  714SOL     OW 2140   1.396   1.442   1.067 -0.5978  0.3435 -0.9248
  714SOL    HW1 2141   1.451   1.410   1.152 -0.6224 -0.7526  2.8552
  714SOL    HW2 2142   1.432   1.531   1.032 -1.2966 -1.4973 -2.3970
  715SOL     OW 2143   2.514   0.075   0.707  0.1756  0.1284  0.6083
  715SOL    HW1 2144   2.525   3.070   0.761 -1.0978  0.8612 -2.7202
  715SOL    HW2 2145   2.486   0.158   0.761  0.5665  2.3433  0.1717
  716SOL     OW 2146   0.506   2.763   0.791 -0.0916  0.0619  0.1852
  716SOL    HW1 2147   0.562   2.704   0.725  1.2320  0.8982  0.6216
  716SOL    HW2 2148   0.569   2.831   0.830 -3.5427 -0.3131  0.9090
  717SOL     OW 2149   3.036   0.383   3.060 -0.5207  0.2728  0.1415
  717SOL    HW1 2150   2.975   0.460   3.047  2.4238 -1.6836  0.3848
  717SOL    HW2 2151   3.000   0.319   0.051  0.3264  4.0312 -1.0199
  718SOL     OW 2152   1.623   1.679   1.234  0.0144  0.2388  0.4016
  718SOL    HW1 2153   1.636   1.705   1.330 -0.4711  1.2602  0.3132
  718SOL    HW2 2154   1.612   1.578   1.234 -0.7240 -0.2284 -0.6578
  719SOL     OW 2155   2.749   2.297   0.368  0.3938 -0.2124  0.3996
  719SOL    HW1 2156   2.769   2.216   0.424  0.8770 -0.9314 -0.2959
  719SOL    HW2 2157   2.782   2.385   0.403 -2.9603  0.4079 -0.2058
  720SOL     OW 2158   1.033   0.920   0.875 -0.3643  0.3462 -0.2482
  720SOL    HW1 2159   1.066   0.880   0.963 -0.1582 -0.6637  2.7083
  720SOL    HW2 2160   1.108   0.972   0.831 -1.0893  1.0304 -1.7872
  721SOL     OW 2161   1.520   0.116   1.118 -0.5749  0.1639 -0.3368
  721SOL    HW1 2162   1.509   0.207   1.070  0.9838 -1.5540  0.5053
  721SOL    HW2 2163   1.501   0.131   1.216  0.4939 -0.6017  0.8725
  722SOL     OW 2164   1.196   1.326   2.180 -0.4202  0.1641 -0.6428
  722SOL    HW1 2165   1.245   1.364   2.097  3.1809  0.4047 -2.0830
  722SOL    HW2 2166   1.106   1.373   2.204  1.0787 -0.9122  3.7071
  723SOL     OW 2167   0.938   3.030   1.736  0.3813  0.0937  0.3343
  723SOL    HW1 2168   1.029   3.045   1.697 -1.0132 -0.5686 -0.8421
  723SOL    HW2 2169   0.932   2.936   1.779  0.3771  1.0826  1.9971
  724SOL     OW 2170   2.050   1.987   1.888 -0.0333 -0.6504  0.0860
  724SOL    HW1 2171   1.977   2.035   1.832 -2.0642  2.9662  0.4715
  724SOL    HW2 2172   2.050   1.888   1.870 -0.4048  4.4445  0.5000
  725SOL     OW 2173   0.967   2.609   1.239 -0.3724 -0.3439  0.2855
  725SOL    HW1 2174   0.987   2.678   1.316 -0.4086  0.4881  3.4699
  725SOL    HW2 2175   0.922   2.529   1.275  1.0929  0.7981 -1.9549
  726SOL     OW 2176   1.768   2.865   3.037  0.0731  0.3360 -0.7524
  726SOL    HW1 2177   1.705   2.838   2.962 -2.5652 -1.6127 -1.5057
  726SOL    HW2 2178   1.862   2.822   3.042  2.8511  0.6827 -1.1867
  727SOL     OW 2179   1.476   1.767   0.745 -0.4033  0.2855 -0.0766
  727SOL    HW1 2180   1.383   1.757   0.701 -0.3559  0.5271  0.7941
  727SOL    HW2 2181   1.551   1.773   0.678 -1.1680 -2.3144  1.6442
  728SOL     OW 2182   1.947   2.823   2.417  0.3134  0.7136  0.0434
  728SOL    HW1 2183   1.874   2.893   2.438 -1.7982 -0.1233  1.0097
  728SOL    HW2 2184   2.040   2.846   2.445  1.5662  0.9231 -0.4111
  729SOL     OW 2185   2.416   1.854   1.406 -0.2006  0.0463  0.2272
  729SOL    HW1 2186   2.386   1.920   1.472 -0.8930  0.9806 -0.7460
  729SOL    HW2 2187   2.332   1.829   1.353  2.2242  0.9084  0.9273
  730SOL     OW 2188   1.823   0.581   2.483 -0.0830  0.3631  0.3188
  730SOL    HW1 2189   1.864   0.485   2.482  0.6527  1.6846 -0.9995
  730SOL    HW2 2190   1.823   0.625   2.573  1.1516  0.0440  1.6883
  731SOL     OW 2191   0.550   0.099   1.262  0.4354 -0.5367  0.2209
  731SOL    HW1 2192   0.475   0.113   1.330  2.5288  0.9221 -1.3309
  731SOL    HW2 2193   0.582   0.192   1.228  0.2139  1.4777 -0.4661
  732SOL     OW 2194   1.783   0.148   1.087  0.1519 -0.0334  0.6566
  732SOL    HW1 2195   1.687   0.132   1.100  2.3269  1.0137 -1.1861
  732SOL    HW2 2196   1.838   0.081   1.138 -0.5884  2.6415 -0.5527
  733SOL     OW 2197   1.000   1.444   1.209 -0.4426  0.0198 -0.1368
  733SOL    HW1 2198   0.973   1.505   1.131 -1.7346 -0.1368 -2.6577
  733SOL    HW2 2199   1.026   1.503   1.288  2.2133 -0.8368  0.1754
  734SOL     OW 2200   2.369   1.811   0.225  0.0272 -0.1586  0.0516
  734SOL    HW1 2201   2.315   1.724   0.225  0.0335 -1.8266  0.5365
  734SOL    HW2 2202   2.465   1.801   0.195 -3.8692 -0.6792  1.2193
  735SOL     OW 2203   0.391   0.715   0.464 -0.2078 -0.0427  0.2432
  735SOL    HW1 2204   0.411   0.632   0.415 -0.4240  2.3108  0.7451
  735SOL    HW2 2205   0.468   0.750   0.522 -1.6745  0.5525 -0.1799
  736SOL     OW 2206   1.888   2.558   2.500  0.2160  0.8046 -0.0661
  736SOL    HW1 2207   1.941   2.554   2.585  1.3357  1.5824  0.5344
  736SOL    HW2 2208   1.895   2.656   2.474 -0.0185  0.9597  1.4375
  737SOL     OW 2209   1.091   1.963   1.205 -0.3864 -0.1378  0.7497
  737SOL    HW1 2210   1.118   1.981   1.111 -2.6646 -0.3722  0.0019
  737SOL    HW2 2211   1.107   2.049   1.255 -2.4104  2.3922 -1.9333
  738SOL     OW 2212   1.608   2.606   2.102 -0.2757  0.6382  0.2420
  738SOL    HW1 2213   1.525   2.622   2.163  1.1902 -0.2211 -2.4445
  738SOL    HW2 2214   1.684   2.556   2.151 -0.0565  0.2582 -1.0881
  739SOL     OW 2215   1.298   2.110   2.287  0.4469 -0.4439 -0.3285
  739SOL    HW1 2216   1.331   2.025   2.252 -1.1740  2.0607 -0.4719
  739SOL    HW2 2217   1.362   2.188   2.286  0.9037  0.1752  1.7278
  740SOL     OW 2218   2.070   2.361   1.867 -0.7374 -0.0166 -0.2684
  740SOL    HW1 2219   2.106   2.286   1.927 -0.4689 -1.5490  3.9621
  740SOL    HW2 2220   1.969   2.348   1.859 -0.0637  1.1016 -1.0912
  741SOL     OW 2221   2.316   1.842   2.856  0.1731 -0.3986 -0.3376
  741SOL    HW1 2222   2.226   1.792   2.873  1.5977 -0.9243 -1.4483
  741SOL    HW2 2223   2.393   1.776   2.866 -1.6408  1.0659  0.7538
  742SOL     OW 2224   0.616   1.074   2.856  0.7390 -0.0632  0.0203
  742SOL    HW1 2225   0.587   1.128   2.938 -0.9179 -0.1260  1.8293
  742SOL    HW2 2226   0.547   1.083   2.781  1.9361  1.6013  0.1069
  743SOL     OW 2227   1.953   0.894   2.610 -0.4500 -0.1081  0.0115
  743SOL    HW1 2228   2.008   0.916   2.530  0.5158 -0.3393  1.4065
  743SOL    HW2 2229   1.861   0.923   2.585  2.6071  1.0854  0.4697
  744SOL     OW 2230   2.204   0.101   1.357 -0.5928  0.1326 -0.6777
  744SOL    HW1 2231   2.255   0.162   1.289  0.5353  0.9926 -1.2197
  744SOL    HW2 2232   2.266   0.018   1.386  1.9077 -1.2694 -0.2842
  745SOL     OW 2233   2.506   1.326   1.061  0.0046  0.2000 -0.3741
  745SOL    HW1 2234   2.545   1.242   1.093 -1.2944  1.8862 -0.6721
  745SOL    HW2 2235   2.472   1.326   0.961  4.3014  0.2316  1.4493
  746SOL     OW 2236   2.685   1.908   0.876  0.1831 -0.0171  0.0279
  746SOL    HW1 2237   2.667   1.874   0.970  1.2139 -0.1820 -1.1377
  746SOL    HW2 2238   2.780   1.876   0.862  1.0006  1.0219  1.2285
  747SOL     OW 2239   2.022   2.984   0.254 -0.3656  0.2083  0.2025
  747SOL    HW1 2240   2.108   3.015   0.304  1.5303  1.8432  2.0227
  747SOL    HW2 2241   1.953   2.937   0.313  2.4510  1.2741 -1.4381
  748SOL     OW 2242   0.849   2.065   2.998 -0.4344 -0.3064  0.0612
  748SOL    HW1 2243   0.910   2.011   2.931  1.2019  1.0599 -3.7210
  748SOL    HW2 2244   0.755   2.083   2.951 -4.4544  0.0284  0.0404
  749SOL     OW 2245   2.796   0.421   2.355 -0.3257  0.0496  0.6533
  749SOL    HW1 2246   2.851   0.373   2.284  0.5396  0.6000 -0.7082
  749SOL    HW2 2247   2.817   0.520   2.350  0.5974 -0.6075  0.3123
  750SOL     OW 2248   1.146   0.400   1.723 -0.4444  0.5849  0.1904
  750SOL    HW1 2249   1.159   0.362   1.814 -1.5713 -0.8683 -3.5849
  750SOL    HW2 2250   1.203   0.481   1.705 -0.0817  0.5255  0.1715
  751SOL     OW 2251   2.571   2.420   1.867  0.2813  0.1751 -0.5160
  751SOL    HW1 2252   2.607   2.347   1.810  0.8034 -0.5494  0.1865
  751SOL    HW2 2253   2.525   2.500   1.822  2.0534  2.9871 -2.3648
  752SOL     OW 2254   1.926   1.567   1.255 -0.0196  0.1390 -0.4870
  752SOL    HW1 2255   1.868   1.582   1.177  2.7764 -0.2273 -0.5649
  752SOL    HW2 2256   2.025   1.578   1.231  2.1642 -2.2493  0.4862
  753SOL     OW 2257   1.649   0.862   2.260  0.9233  0.2928  0.4455
  753SOL    HW1 2258   1.594   0.948   2.247 -0.1641  0.7426 -0.2489
  753SOL    HW2 2259   1.609   0.801   2.331 -2.1854  0.1723  2.3450
  754SOL     OW 2260   0.179   2.262   1.163 -0.1324  0.4366  0.2759
  754SOL    HW1 2261   0.169   2.355   1.137 -0.8097 -1.8229  3.0915
  754SOL    HW2 2262   0.086   2.229   1.207 -1.8144 -3.8658  1.7143
  755SOL     OW 2263   2.553   2.873   1.219  0.1158  0.2092  0.0011
  755SOL    HW1 2264   2.500   2.923   1.289 -1.3319 -0.1026 -1.5011
  755SOL    HW2 2265   2.567   2.779   1.256  0.8226  1.5589  1.8192
  756SOL     OW 2266   1.775   1.535   2.312 -0.2191 -1.1598 -0.3369
  756SOL    HW1 2267   1.757   1.435   2.309  2.6619 -0.7369 -2.6692
  756SOL    HW2 2268   1.688   1.589   2.301  2.5619  0.3965  1.2355
  757SOL     OW 2269   2.958   2.927   1.887 -0.4063  0.0825  0.3908
  757SOL    HW1 2270   2.902   2.851   1.932 -0.1201 -0.9634 -0.5000
  757SOL    HW2 2271   2.903   3.014   1.880  1.9628  1.1133 -0.3793
  758SOL     OW 2272   0.407   2.669   1.517  0.3550  0.1061 -0.1909
  758SOL    HW1 2273   0.459   2.663   1.429 -0.7474 -0.1957 -2.0067
  758SOL    HW2 2274   0.389   2.579   1.563 -2.5389 -0.5626 -0.0786
  759SOL     OW 2275   2.228   1.286   1.129  1.0783  0.0916 -0.0247
  759SOL    HW1 2276   2.195   1.186   1.142 -1.8350 -3.0432 -0.5390
  759SOL    HW2 2277   2.320   1.300   1.090  0.0015 -2.0784 -1.0517
  760SOL     OW 2278   1.693   0.224   1.611  0.3552  0.1814 -0.4770
  760SOL    HW1 2279   1.752   0.155   1.658 -0.9543  0.1849  0.7773
  760SOL    HW2 2280   1.727   0.256   1.521  2.1355  0.6195 -1.1923
  761SOL     OW 2281   2.292   0.277   0.620 -0.4493  0.0527  0.5387
  761SOL    HW1 2282   2.258   0.188   0.581 -1.5386  0.1014 -1.4238
  761SOL    HW2 2283   2.229   0.347   0.589 -2.2485 -0.7940 -0.3044
  762SOL     OW 2284   2.284   2.725   0.297 -0.3229  0.7170  0.4882
  762SOL    HW1 2285   2.218   2.715   0.216 -1.5646 -2.1933 -3.8599
  762SOL    HW2 2286   2.352   2.798   0.272  0.3775  0.5312  1.1214
  763SOL     OW 2287   1.114   0.645   1.347  0.3929 -0.1302  0.6786
  763SOL    HW1 2288   1.132   0.552   1.301  3.9080 -1.4309 -0.3260
  763SOL    HW2 2289   1.041   0.690   1.289 -0.9555  0.3255 -1.9761
  764SOL     OW 2290   2.514   2.604   2.416 -0.1121 -0.1623 -0.0109
  764SOL    HW1 2291   2.579   2.579   2.346  1.7750 -1.8768 -1.2590
  764SOL    HW2 2292   2.538   2.689   2.464 -1.8900 -1.3902  0.2779
  765SOL     OW 2293   0.055   1.140   2.678 -0.4870  0.0452  0.0904
  765SOL    HW1 2294   0.061   1.065   2.615 -0.4926 -1.0573 -1.1857
  765SOL    HW2 2295   0.035   1.227   2.626  0.3044  1.3979  1.7011
  766SOL     OW 2296   2.851   1.371   2.603  0.2372  0.1636  0.3113
  766SOL    HW1 2297   2.786   1.440   2.561  0.1042 -0.9678 -1.6040
  766SOL    HW2 2298   2.940   1.385   2.557 -1.5793  1.0631  2.1316
  767SOL     OW 2299   0.080   2.111   1.594 -0.3898  0.4125  0.0266
  767SOL    HW1 2300   0.077   2.009   1.575 -1.0766  1.4432 -1.7956
  767SOL    HW2 2301   0.003   2.130   1.658 -0.1201  1.6247  0.2522
  768SOL     OW 2302   0.926   0.750   2.765 -0.9104  0.1678 -0.1898
  768SOL    HW1 2303   0.845   0.689   2.782  0.7472 -1.1943  1.2595
  768SOL    HW2 2304   0.945   0.815   2.843  2.6180 -2.8561 -0.0096
  769SOL     OW 2305   1.565   2.793   2.876 -0.5612  0.0832 -0.2309
  769SOL    HW1 2306   1.527   2.798   2.780 -0.5131  1.1043 -0.8721
  769SOL    HW2 2307   1.507   2.853   2.935  0.6456  0.2144 -0.5057
  770SOL     OW 2308   0.822   0.197   2.513 -0.4271 -0.5651  0.4623
  770SOL    HW1 2309   0.764   0.242   2.444  0.2913  1.9136 -0.4775
  770SOL    HW2 2310   0.818   0.099   2.495 -0.1967  2.7932  1.5344
  771SOL     OW 2311   0.766   2.559   0.919 -0.1741  0.1298 -0.1058
  771SOL    HW1 2312   0.741   2.643   0.967 -0.9700 -1.4846  0.2553
  771SOL    HW2 2313   0.858   2.562   0.877  0.4527  1.4986  0.4009
  772SOL     OW 2314   2.828   1.061   0.396  0.2016 -0.5086 -0.7742
  772SOL    HW1 2315   2.840   1.164   0.409 -0.2233  4.5183  3.4767
  772SOL    HW2 2316   2.729   1.047   0.422 -0.0160  2.0399  1.1431
  773SOL     OW 2317   1.690   0.923   1.890  0.4256  0.4059 -0.2405
  773SOL    HW1 2318   1.733   0.834   1.911  0.0282  1.8511 -0.6939
  773SOL    HW2 2319   1.630   0.903   1.812  0.4118 -2.0109  1.6401
  774SOL     OW 2320   0.633   0.772   0.578  0.2095 -0.0818  0.3747
  774SOL    HW1 2321   0.683   0.804   0.662  0.5580  2.5702 -0.1332
  774SOL    HW2 2322   0.641   0.671   0.560 -2.4012 -0.6939  1.2017
  775SOL     OW 2323   1.649   0.121   0.291 -0.1753  0.0129  0.8146
  775SOL    HW1 2324   1.585   0.042   0.270 -0.9716  1.0258 -1.6127
  775SOL    HW2 2325   1.601   0.201   0.252 -1.1724  0.0570  1.8964
  776SOL     OW 2326   2.276   0.229   2.407  0.6662  0.2642  0.6661
  776SOL    HW1 2327   2.264   0.326   2.431  2.9290 -1.3274 -0.3667
  776SOL    HW2 2328   2.204   0.197   2.337 -1.1929 -2.0045 -0.4535
  777SOL     OW 2329   1.071   1.436   0.042  0.5919 -0.4230  0.1116
  777SOL    HW1 2330   1.107   1.407   3.028  0.3538 -2.2338  0.0795
  777SOL    HW2 2331   0.988   1.385   0.071 -0.8494  3.0931 -0.6967
  778SOL     OW 2332   0.041   2.589   0.307  0.8626 -0.0411  0.0520
  778SOL    HW1 2333   0.128   2.539   0.295  0.4537 -0.6861  0.1223
  778SOL    HW2 2334   0.056   2.693   0.324  3.2018  0.1217 -0.8207
  779SOL     OW 2335   0.324   1.149   0.134 -0.2095  0.1644  0.4521
  779SOL    HW1 2336   0.230   1.182   0.118 -1.2245 -1.5265 -1.6984
  779SOL    HW2 2337   0.323   1.098   0.221 -1.3634  0.4464 -2.9165
  780SOL     OW 2338   1.966   0.076   2.162 -0.7256 -0.3334  0.5261
  780SOL    HW1 2339   2.036   0.148   2.138  1.0506  1.5593 -0.6698
  780SOL    HW2 2340   1.890   0.075   2.093 -0.2092  0.1857  3.7849
  781SOL     OW 2341   1.758   1.194   1.593  0.3369 -0.1360 -0.1851
  781SOL    HW1 2342   1.698   1.179   1.509 -1.9278 -1.9197  0.2412
  781SOL    HW2 2343   1.833   1.255   1.574 -0.2342 -0.6488  0.7924
  782SOL     OW 2344   1.899   2.027   2.203  0.5015 -0.2441 -0.3008
  782SOL    HW1 2345   1.969   2.088   2.244  1.0763  1.3277 -1.7725
  782SOL    HW2 2346   1.936   1.933   2.183  0.9597 -0.2615 -0.9676
  783SOL     OW 2347   1.210   0.007   1.951  0.0113 -0.2263 -0.3714
  783SOL    HW1 2348   1.167   3.026   2.025 -0.0865  0.9654  0.2661
  783SOL    HW2 2349   1.309   0.013   1.974 -0.4159 -0.8868  1.1038
  784SOL     OW 2350   1.934   1.195   2.466 -0.8610  0.4218 -0.3665
  784SOL    HW1 2351   2.004   1.131   2.436 -0.7326  2.0894  2.4827
  784SOL    HW2 2352   1.868   1.211   2.392 -2.5637 -1.5539 -2.0890
  785SOL     OW 2353   1.805   0.725   0.455  0.2221  0.4347  0.1691
  785SOL    HW1 2354   1.779   0.741   0.358 -1.6913 -2.2730  1.3970
  785SOL    HW2 2355   1.729   0.744   0.514  1.2061 -2.4745 -3.6564
  786SOL     OW 2356   3.065   1.776   0.511 -0.1525  0.3084  0.3768
  786SOL    HW1 2357   0.037   1.789   0.600 -1.9665  1.3034 -1.2952
  786SOL    HW2 2358   0.004   1.681   0.474  0.6301  1.3565  0.0809
  787SOL     OW 2359   1.396   2.022   0.242  0.0401 -0.5050  0.0408
  787SOL    HW1 2360   1.409   2.026   0.345  2.5280 -2.8692  0.7563
  787SOL    HW2 2361   1.442   2.104   0.194  0.9172  4.6490  2.2634
  788SOL     OW 2362   1.992   1.738   1.518 -0.5019 -0.3085  0.1198
  788SOL    HW1 2363   1.958   1.824   1.480 -1.0541  0.0208  2.8226
  788SOL    HW2 2364   1.915   1.671   1.532 -1.0841 -0.5693  1.2333
  789SOL     OW 2365   0.027   1.417   2.525  0.0489  0.1502  0.7917
  789SOL    HW1 2366   0.059   1.466   2.606  0.2143 -3.3958 -3.7210
  789SOL    HW2 2367   0.068   1.455   2.438  0.4232 -0.3363 -0.2004
  790SOL     OW 2368   0.568   0.020   2.925 -0.4276 -0.0795  0.4287
  790SOL    HW1 2369   0.642   0.060   2.864  3.0384 -1.6340 -0.5185
  790SOL    HW2 2370   0.471   0.048   2.902  0.1861 -0.2628  0.4351
  791SOL     OW 2371   0.871   2.898   2.851 -0.3727 -0.1988  1.0271
  791SOL    HW1 2372   0.793   2.851   2.896 -2.5114  0.0658  0.7862
  791SOL    HW2 2373   0.919   2.960   2.916  1.5311  0.0981  0.8743
  792SOL     OW 2374   1.701   0.400   1.973 -0.0297  0.3856  0.1190
  792SOL    HW1 2375   1.681   0.422   2.070  1.1887  0.0905 -0.2149
  792SOL    HW2 2376   1.638   0.449   1.909 -0.2914 -0.3611  1.3349
  793SOL     OW 2377   2.672   0.129   2.069  0.1170  0.0150 -0.2003
  793SOL    HW1 2378   2.727   0.115   1.986 -0.4166 -0.4933  0.0124
  793SOL    HW2 2379   2.641   0.226   2.074 -0.3180 -0.4901 -0.1759
  794SOL     OW 2380   0.438   0.583   1.777  0.5311  0.2988 -0.3040
  794SOL    HW1 2381   0.430   0.533   1.869  1.0688 -1.1376  0.6945
  794SOL    HW2 2382   0.395   0.675   1.790 -1.9674  1.0700  1.7589
  795SOL     OW 2383   3.063   1.472   0.500 -0.8157 -0.6485 -0.2229
  795SOL    HW1 2384   3.011   1.388   0.515  1.0140  0.8804 -0.2927
  795SOL    HW2 2385   0.059   1.460   0.428  1.1127  1.5163  1.2454
  796SOL     OW 2386   2.753   2.664   2.866 -0.0616 -0.4578 -0.0197
  796SOL    HW1 2387   2.737   2.738   2.938 -3.2276  0.8157 -1.6711
  796SOL    HW2 2388   2.682   2.590   2.852 -1.2153 -1.3507  1.0464
  797SOL     OW 2389   2.486   2.196   0.318 -0.1707 -0.0161  0.1529
  797SOL    HW1 2390   2.523   2.140   0.239 -1.6877 -0.5755  0.2447
  797SOL    HW2 2391   2.550   2.249   0.380 -0.2410  1.2887  2.8762
  798SOL     OW 2392   0.404   0.898   1.506 -0.5200 -0.5841 -0.2817
  798SOL    HW1 2393   0.350   0.829   1.554 -0.3607  2.2126  1.3929
  798SOL    HW2 2394   0.352   0.977   1.481 -2.1924  0.3800 -0.2706
  799SOL     OW 2395   2.934   0.660   2.296 -0.0679 -0.0086  0.2380
  799SOL    HW1 2396   2.920   0.750   2.338  0.3641 -0.1563 -1.5829
  799SOL    HW2 2397   3.006   0.672   2.225  2.3231 -1.0795  3.1344
  800SOL     OW 2398   2.863   2.095   0.521 -0.7032  0.1551  0.5449
  800SOL    HW1 2399   2.948   2.076   0.471  2.7626  0.3017 -0.0262
  800SOL    HW2 2400   2.880   2.102   0.619  2.2307 -1.2150 -1.7372
  801SOL     OW 2401   1.393   1.189   0.935 -0.0996  0.5421  0.2815
  801SOL    HW1 2402   1.307   1.165   0.884 -1.1843  0.8408 -1.2996
  801SOL    HW2 2403   1.387   1.273   0.987  2.0298 -0.4675 -2.4528
  802SOL     OW 2404   1.446   1.686   0.994 -0.1681  0.0906 -0.1357
  802SOL    HW1 2405   1.493   1.758   1.047 -1.4454  1.0300 -0.4835
  802SOL    HW2 2406   1.455   1.707   0.893 -0.7847  0.8408  1.1558
  803SOL     OW 2407   2.987   1.939   0.296 -0.1439  0.4820 -0.7435
  803SOL    HW1 2408   3.024   1.885   0.374  0.9771 -2.6720  0.3770
  803SOL    HW2 2409   2.907   1.894   0.251  1.4896  0.4183 -0.0881
  804SOL     OW 2410   1.294   2.624   0.754  0.4985  0.6636 -0.1558
  804SOL    HW1 2411   1.195   2.597   0.750 -0.0013 -1.4447 -1.5809
  804SOL    HW2 2412   1.359   2.548   0.736 -1.3606  2.2000 -0.2760
  805SOL     OW 2413   1.667   1.666   2.577  0.0180  0.3766 -0.2562
  805SOL    HW1 2414   1.646   1.649   2.672 -2.4647  1.0951  0.4765
  805SOL    HW2 2415   1.680   1.583   2.519 -0.7567 -0.3934  2.8989
  806SOL     OW 2416   1.538   2.970   1.532 -0.6387 -0.1515 -0.1400
  806SOL    HW1 2417   1.493   2.996   1.618  0.5508  2.0236 -2.3273
  806SOL    HW2 2418   1.484   2.917   1.470  2.8953  1.6916 -0.2466
  807SOL     OW 2419   1.911   0.005   2.737 -0.2494  0.0821  0.6970
  807SOL    HW1 2420   1.814   3.072   2.701  0.5993  1.1714  0.8500
  807SOL    HW2 2421   1.918   0.062   2.817 -0.0732 -0.7778 -2.6704
  808SOL     OW 2422   0.187   1.418   0.316 -0.5384  0.2644 -0.0498
  808SOL    HW1 2423   0.176   1.325   0.355  0.2173  0.7527  0.0908
  808SOL    HW2 2424   0.277   1.466   0.337  2.0897  1.6539 -0.0661
  809SOL     OW 2425   2.292   0.998   2.160 -0.0107  0.3731  0.0944
  809SOL    HW1 2426   2.362   1.074   2.150  1.5292 -0.7060  2.1872
  809SOL    HW2 2427   2.236   0.999   2.080  0.9365  0.6420  1.1809
  810SOL     OW 2428   3.023   0.293   2.269  0.3991 -0.0120  0.2402
  810SOL    HW1 2429   3.038   0.370   2.332  0.1842  1.6319 -2.6639
  810SOL    HW2 2430   0.021   0.288   2.199  0.0418  0.0234 -2.3126
  811SOL     OW 2431   2.110   2.373   1.588  0.3198  0.3373  0.1484
  811SOL    HW1 2432   2.086   2.364   1.692 -0.7887 -0.3440  4.7370
  811SOL    HW2 2433   2.172   2.449   1.578 -1.2248 -1.7852  2.2815
  812SOL     OW 2434   1.514   0.622   0.083  0.1133  0.3212 -0.1065
  812SOL    HW1 2435   1.418   0.637   0.055 -1.8366  0.0819 -1.2483
  812SOL    HW2 2436   1.583   0.673   0.026  0.9593 -0.9488  1.0463
  813SOL     OW 2437   1.965   0.434   1.999 -0.2713 -0.0360 -0.2314
  813SOL    HW1 2438   1.865   0.417   1.988 -0.3418  0.2536 -0.3258
  813SOL    HW2 2439   2.005   0.382   2.077 -1.7695 -0.3271  1.0389
  814SOL     OW 2440   1.948   1.379   1.466 -0.1831 -0.1026  0.0894
  814SOL    HW1 2441   2.039   1.422   1.485 -3.1862  0.5881 -2.6715
  814SOL    HW2 2442   1.915   1.422   1.379 -0.2308  0.1882 -3.6124
  815SOL     OW 2443   0.745   1.016   0.490  0.4193  0.0255  0.0195
  815SOL    HW1 2444   0.683   0.934   0.497 -1.2483 -2.4984  0.7018
  815SOL    HW2 2445   0.710   1.088   0.429  0.6468 -1.6707  2.9662
  816SOL     OW 2446   1.675   2.079   2.677 -0.1511 -0.4154  0.1948
  816SOL    HW1 2447   1.772   2.049   2.704  4.3728  1.4197  0.2682
  816SOL    HW2 2448   1.687   2.140   2.595 -0.0007 -0.4544 -1.6736
  817SOL     OW 2449   3.001   2.636   0.948 -0.1846 -0.1173  0.4458
  817SOL    HW1 2450   3.019   2.731   0.920 -0.0687 -1.5651  0.2819
  817SOL    HW2 2451   0.014   2.601   0.977  2.7524  2.6539 -1.1952
  818SOL     OW 2452   1.277   0.328   3.026  0.5082 -0.2183  0.1204
  818SOL    HW1 2453   1.191   0.292   2.983 -1.6185 -1.4332 -2.4930
  818SOL    HW2 2454   1.277   0.316   0.053  2.9675  2.1287  3.9299
  819SOL     OW 2455   0.767   0.833   0.810 -0.5033 -0.0634 -0.4010
  819SOL    HW1 2456   0.698   0.832   0.889  0.9376 -1.9298  0.3625
  819SOL    HW2 2457   0.854   0.867   0.842  1.9638  0.4098  1.3377
  820SOL     OW 2458   2.267   0.804   1.289 -0.2322  0.1076 -0.1871
  820SOL    HW1 2459   2.184   0.799   1.228 -0.1667 -0.0598  0.2705
  820SOL    HW2 2460   2.255   0.756   1.378  0.3831  0.7046 -0.0996
  821SOL     OW 2461   2.435   0.044   0.425 -0.4651 -0.5464 -0.0370
  821SOL    HW1 2462   2.476   0.035   0.515 -0.1418  1.3448  0.3881
  821SOL    HW2 2463   2.339   0.069   0.436 -0.7495 -0.7436  0.0454
  822SOL     OW 2464   0.580   2.883   2.485 -0.6009  0.0202 -0.5127
  822SOL    HW1 2465   0.505   2.887   2.557 -0.9667 -1.2770  2.9122
  822SOL    HW2 2466   0.628   2.798   2.499  0.1372  0.9668  0.9960
  823SOL     OW 2467   3.032   1.569   1.672  0.1653  0.0385 -0.6985
  823SOL    HW1 2468   2.970   1.529   1.742  1.1116  1.0033 -1.2387
  823SOL    HW2 2469   3.008   1.540   1.574 -0.4300  3.4585  1.2196
  824SOL     OW 2470   0.701   2.866   2.181  0.2011  0.0493  0.2315
  824SOL    HW1 2471   0.686   2.905   2.275 -1.6715  0.3722 -0.2337
  824SOL    HW2 2472   0.722   2.766   2.180 -1.2709 -3.8487  1.4870
  825SOL     OW 2473   1.193   1.916   0.100  0.1962 -0.3208  0.0950
  825SOL    HW1 2474   1.229   1.934   0.005  0.4902 -4.3133 -2.5429
  825SOL    HW2 2475   1.267   1.943   0.165  0.4148 -2.4495  1.7895
  826SOL     OW 2476   1.103   2.761   2.774  0.6142  0.3461 -0.2261
  826SOL    HW1 2477   1.010   2.791   2.805 -2.2222 -3.9282 -0.6627
  826SOL    HW2 2478   1.122   2.674   2.829 -0.0631 -1.7422  1.9044
  827SOL     OW 2479   0.283   1.878   1.836 -0.1407  0.1320 -0.5323
  827SOL    HW1 2480   0.297   1.815   1.917 -1.1967 -1.2578  0.2300
  827SOL    HW2 2481   0.369   1.931   1.817  0.0878 -1.5381  3.0164
  828SOL     OW 2482   0.011   1.680   1.115  0.1243  0.9550  0.0992
  828SOL    HW1 2483   0.098   1.702   1.068  0.2505 -0.4079  1.3720
  828SOL    HW2 2484   3.048   1.767   1.149 -1.2266 -0.4876  1.4564
  829SOL     OW 2485   2.933   2.629   0.093  0.0412  0.8617 -0.1245
  829SOL    HW1 2486   2.996   2.619   0.166  0.0109  0.1626 -0.1134
  829SOL    HW2 2487   2.879   2.543   0.085  1.4591  0.4515 -0.2226
  830SOL     OW 2488   1.194   0.601   0.554  0.6766  0.1164  0.4507
  830SOL    HW1 2489   1.221   0.578   0.651 -2.1635  1.1617  1.5564
  830SOL    HW2 2490   1.147   0.693   0.552  0.3526 -2.1654 -0.9967
  831SOL     OW 2491   2.799   2.313   0.089  0.7784  0.2928  0.9307
  831SOL    HW1 2492   2.775   2.307   0.186 -0.3188 -0.3845  1.8679
  831SOL    HW2 2493   2.898   2.299   0.074  0.3474 -4.5572  0.3005
  832SOL     OW 2494   1.347   2.275   0.371  1.1731 -0.5200  0.1580
  832SOL    HW1 2495   1.342   2.176   0.402  1.4500 -0.6739 -0.1339
  832SOL    HW2 2496   1.341   2.344   0.448 -0.8043  2.5996  2.7580
  833SOL     OW 2497   0.581   0.746   2.435 -0.2719  0.5792 -0.0310
  833SOL    HW1 2498   0.677   0.733   2.412  0.5589  0.2145 -1.7714
  833SOL    HW2 2499   0.561   0.845   2.432  0.9191  0.5559  2.4341
  834SOL     OW 2500   2.545   0.780   0.629 -0.3483 -0.3854  0.0972
  834SOL    HW1 2501   2.505   0.692   0.614  1.3156 -0.7277  0.1943
  834SOL    HW2 2502   2.508   0.816   0.717 -0.1071  1.4289 -1.0600
  835SOL     OW 2503   2.353   0.503   2.124 -0.1183 -0.4567  0.1585
  835SOL    HW1 2504   2.341   0.505   2.020  1.1020 -0.7255 -2.9141
  835SOL    HW2 2505   2.334   0.594   2.170  2.5551  1.5968  0.1653
  836SOL     OW 2506   0.704   1.977   0.847 -0.3508  0.0263 -0.0883
  836SOL    HW1 2507   0.687   2.056   0.782 -0.0313  1.0697 -1.1807
  836SOL    HW2 2508   0.701   2.006   0.945  0.4806 -0.7470 -1.2188
  837SOL     OW 2509   2.383   1.591   2.053 -0.5075 -0.2185 -0.2232
  837SOL    HW1 2510   2.364   1.687   2.084  3.6353  3.7293  0.3758
  837SOL    HW2 2511   2.300   1.544   2.011  0.3130  0.5435  1.5453
  838SOL     OW 2512   0.161   1.180   2.157  0.6746  0.0420 -0.0141
  838SOL    HW1 2513   0.181   1.093   2.210  0.6255 -0.6507  0.7888
  838SOL    HW2 2514   0.170   1.172   2.057 -2.4797 -2.7711  1.6914
  839SOL     OW 2515   0.257   0.069   0.102  0.1061 -0.7913 -0.1341
  839SOL    HW1 2516   0.286   0.059   0.004 -0.3107  1.4366 -1.1822
  839SOL    HW2 2517   0.294   3.072   0.165 -0.2767 -2.3005  1.0347
  840SOL     OW 2518   2.882   0.963   2.287  0.0519 -0.4475  0.0776
  840SOL    HW1 2519   2.907   1.059   2.258  0.1237  1.4433 -1.1428
  840SOL    HW2 2520   2.807   0.928   2.223 -1.2443 -1.5113 -1.2451
  841SOL     OW 2521   0.525   2.185   2.476 -0.1306 -0.3022  0.3494
  841SOL    HW1 2522   0.503   2.130   2.555  0.8339  0.7459 -1.8417
  841SOL    HW2 2523   0.518   2.134   2.391  1.4687 -0.7803  1.6139
  842SOL     OW 2524   0.808   0.153   1.097  0.0580  0.6308  0.0106
  842SOL    HW1 2525   0.759   0.081   1.147  0.0393 -1.4177 -2.7592
  842SOL    HW2 2526   0.849   0.223   1.161  0.5531  3.0837  0.1673
  843SOL     OW 2527   0.287   1.820   2.564  0.7916 -0.0895  0.2874
  843SOL    HW1 2528   0.302   1.825   2.468 -1.7341  2.8183 -0.1948
  843SOL    HW2 2529   0.331   1.737   2.616 -0.6985 -0.4983  2.5372
  844SOL     OW 2530   1.470   1.931   2.159  0.4804 -0.1119  0.1787
  844SOL    HW1 2531   1.500   1.952   2.063  2.1749  1.6975  0.9381
  844SOL    HW2 2532   1.545   1.949   2.226  0.1824 -1.3296  1.0287
  845SOL     OW 2533   2.292   2.892   2.731  0.0111  0.2856 -0.0689
  845SOL    HW1 2534   2.379   2.883   2.675  1.1346  0.1390 -2.8054
  845SOL    HW2 2535   2.251   2.983   2.725  3.6407 -0.7939  0.6442
  846SOL     OW 2536   2.098   1.669   2.930  0.1313  0.0581 -0.6724
  846SOL    HW1 2537   2.009   1.708   2.901  1.1269  0.0623 -1.9300
  846SOL    HW2 2538   2.076   1.633   3.025 -1.3402 -1.9593 -0.1350
  847SOL     OW 2539   2.497   0.140   2.834 -0.3508  0.2733 -0.1333
  847SOL    HW1 2540   2.571   0.072   2.848 -0.6430 -2.1677  0.7251
  847SOL    HW2 2541   2.485   0.153   2.735  0.8637 -1.1512  4.2502
  848SOL     OW 2542   2.742   0.633   0.149 -0.1121  0.0598  0.0942
  848SOL    HW1 2543   2.648   0.605   0.118  1.3601 -0.3479  0.7687
  848SOL    HW2 2544   2.799   0.553   0.175 -0.7716  3.1065 -0.8120
  849SOL     OW 2545   1.313   0.206   2.552 -1.0154  0.0972  0.5354
  849SOL    HW1 2546   1.241   0.148   2.588  1.9941  0.4426  1.1433
  849SOL    HW2 2547   1.369   0.244   2.631 -0.8751  0.2537 -1.0635
  850SOL     OW 2548   2.542   0.777   0.347 -0.4196  0.4042 -0.3219
  850SOL    HW1 2549   2.520   0.679   0.324 -2.5183  4.0471 -0.5516
  850SOL    HW2 2550   2.603   0.787   0.429  3.0148  2.3837  2.3110
  851SOL     OW 2551   0.360   0.954   0.963 -0.5381 -0.1534  0.2558
  851SOL    HW1 2552   0.320   0.865   0.993 -1.0291  1.5646 -1.1715
  851SOL    HW2 2553   0.309   1.027   1.005  2.8808 -3.4911  2.1114
  852SOL     OW 2554   1.167   0.872   2.006  0.2436 -0.3187  0.4017
  852SOL    HW1 2555   1.121   0.933   2.074  0.4397 -0.5053 -1.2537
  852SOL    HW2 2556   1.108   0.788   1.989 -3.2735 -0.4167  2.3405
  853SOL     OW 2557   1.732   1.212   2.834 -0.2383  0.1524 -0.0325
  853SOL    HW1 2558   1.816   1.262   2.808 -0.6473 -1.1058  3.3569
  853SOL    HW2 2559   1.758   1.119   2.864  0.6263  0.2011 -1.7391
  854SOL     OW 2560   1.404   1.176   1.977 -0.0972  0.0098  0.1679
  854SOL    HW1 2561   1.459   1.160   1.889  4.1888 -1.2688 -1.4794
  854SOL    HW2 2562   1.350   1.259   1.967  0.6759 -2.8294 -1.3845
  855SOL     OW 2563   0.364   2.427   2.170 -0.3351 -0.0315 -0.3124
  855SOL    HW1 2564   0.315   2.386   2.252 -0.2595 -0.0205  4.7387
  855SOL    HW2 2565   0.415   2.512   2.193  0.3025  1.8403  0.1748
  856SOL     OW 2566   1.207   0.927   2.340 -0.4122 -0.2079 -0.1736
  856SOL    HW1 2567   1.164   0.914   2.431 -1.4069  0.3071  1.5990
  856SOL    HW2 2568   1.141   0.963   2.272  0.3564 -1.1284 -0.0473
  857SOL     OW 2569   1.088   0.879   2.589  1.0553  0.3596 -0.2343
  857SOL    HW1 2570   1.147   0.945   2.639  0.9920 -2.3864 -0.7313
  857SOL    HW2 2571   1.028   0.833   2.660 -1.6795  0.4199 -0.3621
  858SOL     OW 2572   0.055   0.528   1.729 -0.3754  0.2335 -0.0861
  858SOL    HW1 2573   3.032   0.530   1.712 -0.7871 -1.3475 -1.5424
  858SOL    HW2 2574   0.077   0.494   1.826 -0.0326  0.6331 -0.2401
  859SOL     OW 2575   2.507   2.946   0.891 -0.1156  0.3045 -0.0255
  859SOL    HW1 2576   2.577   2.876   0.920 -1.9679  2.2035  2.4687
  859SOL    HW2 2577   2.441   2.959   0.970 -1.3361  0.1765 -2.0968
  860SOL     OW 2578   1.413   0.430   1.609 -0.3995  0.1721  0.5875
  860SOL    HW1 2579   1.403   0.340   1.651  1.3178 -0.4144  1.6377
  860SOL    HW2 2580   1.478   0.427   1.530  0.8795  2.5231 -1.9250
  861SOL     OW 2581   1.834   0.818   1.350  0.4149 -0.1138  0.3974
  861SOL    HW1 2582   1.781   0.761   1.411  3.5447  0.3405 -3.2127
  861SOL    HW2 2583   1.890   0.889   1.396  0.6077  2.5236 -0.5939
  862SOL     OW 2584   1.028   2.904   2.434 -0.7867 -0.1015 -0.1598
  862SOL    HW1 2585   1.002   2.814   2.400 -0.4716  2.1187 -1.6866
  862SOL    HW2 2586   0.947   2.944   2.483 -2.9450  1.3692  0.1129
  863SOL     OW 2587   2.714   0.149   1.623  0.2861  0.6758  0.0917
  863SOL    HW1 2588   2.672   0.229   1.662  1.1359 -0.2156 -1.7032
  863SOL    HW2 2589   2.741   0.159   1.526  0.4969  1.3509  1.6370
  864SOL     OW 2590   2.798   3.034   2.241 -0.5974  0.0355  0.2925
  864SOL    HW1 2591   2.713   2.991   2.276 -0.4396 -0.2207  1.8793
  864SOL    HW2 2592   2.785   3.074   2.149 -1.3489  0.7917 -0.2845
  865SOL     OW 2593   0.912   1.259   2.575  0.0313  0.2280  0.2181
  865SOL    HW1 2594   0.823   1.252   2.522 -1.7114  0.0673  0.1576
  865SOL    HW2 2595   0.964   1.347   2.554  1.4861  0.0739 -0.2951
  866SOL     OW 2596   2.731   2.772   0.973  0.9319  0.0429  0.6480
  866SOL    HW1 2597   2.762   2.682   0.962 -2.1918  2.0926  0.9851
  866SOL    HW2 2598   2.731   2.800   1.070 -0.3211 -1.7426 -2.8648
  867SOL     OW 2599   2.873   2.627   1.248  0.1204  0.2659 -0.5016
  867SOL    HW1 2600   2.908   2.625   1.153  1.5767 -0.9716 -0.4923
  867SOL    HW2 2601   2.950   2.614   1.310 -1.5247  2.0193 -0.1453
  868SOL     OW 2602   2.784   1.451   1.437 -0.4014 -0.1360 -0.7605
  868SOL    HW1 2603   2.870   1.488   1.393 -0.8229  1.6895  1.4959
  868SOL    HW2 2604   2.703   1.513   1.415 -1.5099 -0.9325 -1.1135
  869SOL     OW 2605   2.018   2.239   2.314  0.5333 -0.2117  0.2052
  869SOL    HW1 2606   1.985   2.335   2.294 -2.0830 -0.5643 -2.3745
  869SOL    HW2 2607   2.095   2.245   2.382 -0.3874 -0.9464 -2.5926
  870SOL     OW 2608   1.402   0.880   0.869 -0.1767 -0.2974 -0.8146
  870SOL    HW1 2609   1.447   0.875   0.959  0.3707  1.9940 -0.0746
  870SOL    HW2 2610   1.360   0.971   0.855 -2.3613 -0.2345  1.4716
  871SOL     OW 2611   2.653   1.626   1.965  0.2887 -0.8664 -0.1175
  871SOL    HW1 2612   2.555   1.592   1.977 -0.5754 -0.7900  0.9259
  871SOL    HW2 2613   2.662   1.658   1.869 -0.3148  1.6033 -0.4885
  872SOL     OW 2614   1.040   1.664   2.711 -0.0432 -0.3929  0.5427
  872SOL    HW1 2615   0.975   1.720   2.764  3.0185 -2.0460  0.2286
  872SOL    HW2 2616   1.120   1.640   2.769 -1.4587  1.0119  1.8084
  873SOL     OW 2617   0.903   1.151   1.650 -0.0884 -0.0705 -0.5880
  873SOL    HW1 2618   0.899   1.051   1.678 -2.6856 -2.0737  0.7991
  873SOL    HW2 2619   0.934   1.158   1.551  0.5798 -0.6994 -1.4056
  874SOL     OW 2620   1.434   0.892   1.442  0.1346 -0.3289  0.4062
  874SOL    HW1 2621   1.488   0.880   1.528 -1.6059 -0.1166  2.4294
  874SOL    HW2 2622   1.352   0.951   1.465 -1.9176  1.0115  0.5450
  875SOL     OW 2623   2.541   2.874   2.581  0.5065 -0.2053 -0.0255
  875SOL    HW1 2624   2.529   2.971   2.607  1.4728  2.2232 -2.0419
  875SOL    HW2 2625   2.637   2.848   2.591 -1.2164 -0.3109  2.0361
  876SOL     OW 2626   0.953   1.140   0.584 -0.1215  0.3470 -0.0374
  876SOL    HW1 2627   0.879   1.074   0.549  1.0463 -2.2563  0.6799
  876SOL    HW2 2628   0.969   1.215   0.515 -2.1195  0.0090 -0.9823
  877SOL     OW 2629   1.901   2.941   0.544 -0.2785 -0.5190  0.1661
  877SOL    HW1 2630   1.880   3.033   0.508 -0.8546  0.4979  4.5525
  877SOL    HW2 2631   1.999   2.919   0.538 -2.0476 -1.0880 -0.5659
  878SOL     OW 2632   2.163   2.226   0.145 -0.2468 -0.1810 -0.3105
  878SOL    HW1 2633   2.225   2.160   0.095  0.7997 -2.3462 -0.9454
  878SOL    HW2 2634   2.142   2.196   0.242 -2.5844 -2.9081  2.2497
  879SOL     OW 2635   0.387   2.431   1.653  0.7431 -0.2134 -0.6067
  879SOL    HW1 2636   0.339   2.427   1.745  0.6294 -1.6133  2.6986
  879SOL    HW2 2637   0.343   2.368   1.587  1.9431  2.6862 -0.1356
  880SOL     OW 2638   0.152   1.785   0.761  0.0421 -0.1738  0.4332
  880SOL    HW1 2639   0.194   1.818   0.849  1.2111 -3.7477 -1.0072
  880SOL    HW2 2640   0.195   1.697   0.738  0.9596  1.5820 -0.5980
  881SOL     OW 2641   1.296   3.013   2.395 -0.7966  0.1767  0.7179
  881SOL    HW1 2642   1.217   2.967   2.441  2.3786 -0.0111 -1.1307
  881SOL    HW2 2643   1.292   0.036   2.423 -1.2821  2.0350  1.2921
  882SOL     OW 2644   2.570   1.118   0.442  0.0410  0.0945 -0.1244
  882SOL    HW1 2645   2.501   1.062   0.494 -0.8562  0.2175 -1.0812
  882SOL    HW2 2646   2.615   1.187   0.511  0.6603 -0.7294  2.3707
  883SOL     OW 2647   1.407   0.596   2.184 -0.0790  0.8895  0.1735
  883SOL    HW1 2648   1.364   0.633   2.268 -1.5956  1.5349  0.7320
  883SOL    HW2 2649   1.422   0.662   2.112 -0.5955  1.2172  0.2005
  884SOL     OW 2650   0.065   0.104   1.750  0.4793  0.3305  0.1403
  884SOL    HW1 2651   0.007   0.087   1.668  2.6754 -0.7373 -0.6558
  884SOL    HW2 2652   0.158   0.132   1.722  0.7017 -1.6107  0.3694
  885SOL     OW 2653   1.924   1.319   2.705  0.0138  0.0209  0.5576
  885SOL    HW1 2654   2.002   1.387   2.725  1.8637  0.0922  0.9818
  885SOL    HW2 2655   1.940   1.269   2.617 -2.6375  0.0917  3.2191
  886SOL     OW 2656   1.843   0.318   2.803 -0.0728  0.7399  0.0807
  886SOL    HW1 2657   1.897   0.286   2.724  1.5551 -0.3864 -1.4344
  886SOL    HW2 2658   1.776   0.389   2.782 -1.8391  0.9380  0.3803
  887SOL     OW 2659   1.000   2.821   1.390  0.0407 -0.3694 -0.1971
  887SOL    HW1 2660   1.011   2.913   1.349  2.1044  1.3239 -0.0518
  887SOL    HW2 2661   0.937   2.825   1.470  0.1436  2.0383  2.7046
  888SOL     OW 2662   2.186   1.515   1.475 -0.3371 -0.4875 -0.0908
  888SOL    HW1 2663   2.134   1.602   1.450 -2.2191  0.2050 -1.2994
  888SOL    HW2 2664   2.248   1.536   1.558  0.7120  2.2744  1.8524
  889SOL     OW 2665   1.866   2.502   1.310 -0.4665  0.2896  0.4002
  889SOL    HW1 2666   1.919   2.523   1.225 -0.8134  2.9790  1.6555
  889SOL    HW2 2667   1.895   2.413   1.337 -0.7581  4.1173 -1.2759
  890SOL     OW 2668   0.991   2.178   0.938 -0.0922 -0.5292  0.2616
  890SOL    HW1 2669   1.006   2.083   0.890  0.2507 -3.0128 -2.1156
  890SOL    HW2 2670   1.083   2.215   0.964 -0.2877  0.7243  0.8641
  891SOL     OW 2671   2.877   1.337   0.278 -0.2330 -1.1070 -0.1510
  891SOL    HW1 2672   2.901   1.361   0.183  1.1959 -1.4931  0.0163
  891SOL    HW2 2673   2.786   1.366   0.314 -0.3082  1.3215  0.5119
  892SOL     OW 2674   2.440   1.579   2.664 -0.1594  0.0140  0.0053
  892SOL    HW1 2675   2.526   1.557   2.608  4.3956  1.4755 -0.4145
  892SOL    HW2 2676   2.359   1.549   2.606  1.3398 -1.0919 -3.5461
  893SOL     OW 2677   2.270   2.701   1.169  0.3086  0.1550  0.0292
  893SOL    HW1 2678   2.271   2.793   1.131 -0.1908  0.5476 -1.2294
  893SOL    HW2 2679   2.357   2.659   1.129  1.0293 -0.4547  0.7366
  894SOL     OW 2680   2.765   0.353   0.644 -0.4677  0.5074  0.2333
  894SOL    HW1 2681   2.675   0.346   0.599  0.3835  0.9715  0.0291
  894SOL    HW2 2682   2.835   0.373   0.573 -1.3022 -1.8808 -3.0135
  895SOL     OW 2683   2.714   2.474   2.295 -0.6231 -0.5190 -0.1564
  895SOL    HW1 2684   2.761   2.499   2.210  2.9083  1.4735  2.1390
  895SOL    HW2 2685   2.778   2.475   2.375 -0.5900 -0.7174 -1.8194
  896SOL     OW 2686   2.247   2.697   2.395  0.7369 -0.2065  0.0750
  896SOL    HW1 2687   2.341   2.663   2.405  0.5281  3.5763 -2.6201
  896SOL    HW2 2688   2.247   2.799   2.398  0.1203 -1.2378 -0.3497
  897SOL     OW 2689   0.299   1.732   2.058  0.0283  0.5742  0.0071
  897SOL    HW1 2690   0.228   1.662   2.050 -0.8898 -0.2549  1.8018
  897SOL    HW2 2691   0.313   1.770   2.155  3.9696  0.3072  2.9228
  898SOL     OW 2692   0.071   2.001   2.325 -0.1804  0.1487 -0.8049
  898SOL    HW1 2693   0.002   1.950   2.380 -0.6096 -0.4189  0.2874
  898SOL    HW2 2694   0.018   2.059   2.262 -0.2063 -2.2891 -0.9291
  899SOL     OW 2695   1.904   3.054   1.253 -0.3274  0.7845  0.3326
  899SOL    HW1 2696   1.851   2.997   1.320  0.7038  0.3735  0.2811
  899SOL    HW2 2697   2.008   3.049   1.265  1.1652 -1.5769  2.1994
  900SOL     OW 2698   1.398   1.130   0.558  0.0307  0.8651 -0.4035
  900SOL    HW1 2699   1.492   1.165   0.566 -1.2020 -1.7144  0.0079
  900SOL    HW2 2700   1.384   1.093   0.462  1.9261  3.3947 -1.4011
  901SOL     OW 2701   1.235   1.174   2.620  0.7295 -0.2026  0.0679
  901SOL    HW1 2702   1.143   1.174   2.570 -2.4352  0.2731 -1.5708
  901SOL    HW2 2703   1.268   1.272   2.644  0.4810 -0.2735 -0.1785
  902SOL     OW 2704   2.815   2.310   0.814  0.4239 -0.5481 -0.1111
  902SOL    HW1 2705   2.812   2.410   0.815 -0.4853 -3.1348  0.8708
  902SOL    HW2 2706   2.728   2.267   0.851 -1.3438  0.4612  1.5677
  903SOL     OW 2707   0.077   1.227   1.906 -0.0105 -0.1316 -0.2864
  903SOL    HW1 2708   0.140   1.299   1.872  1.8089 -2.5508 -3.8161
  903SOL    HW2 2709   3.062   1.263   1.925  0.1839 -1.7581  0.8917
  904SOL     OW 2710   1.264   1.281   0.234  0.2581 -0.6456  0.0529
  904SOL    HW1 2711   1.269   1.381   0.234  0.9319 -1.8151 -1.4236
  904SOL    HW2 2712   1.171   1.244   0.263  0.1416 -1.5214 -2.4853
  905SOL     OW 2713   2.517   2.368   1.471 -0.4311  0.1051  0.5496
  905SOL    HW1 2714   2.453   2.449   1.473  2.7349  3.2863 -0.3481
  905SOL    HW2 2715   2.539   2.328   1.560 -0.2818 -2.4257  0.0172
  906SOL     OW 2716   1.925   2.591   3.033  0.3991  0.3412  0.2085
  906SOL    HW1 2717   1.941   2.490   3.037 -0.2056 -1.5234  1.5791
  906SOL    HW2 2718   1.978   2.645   0.022  0.7986  0.3856  0.6308
  907SOL     OW 2719   0.335   2.560   0.885  0.1976 -0.8604 -0.2056
  907SOL    HW1 2720   0.387   2.474   0.881 -0.0872  1.2156 -0.3220
  907SOL    HW2 2721   0.397   2.643   0.877 -1.5662 -0.5198 -0.5334
  908SOL     OW 2722   0.513   0.204   1.861  0.1176  0.4360 -0.2891
  908SOL    HW1 2723   0.554   0.151   1.937 -0.6455  2.6222 -0.7494
  908SOL    HW2 2724   0.573   0.203   1.778  1.2960  0.4658 -0.8937
  909SOL     OW 2725   1.872   0.379   1.370 -0.5098 -0.5134 -0.1475
  909SOL    HW1 2726   1.972   0.379   1.388 -2.1592 -0.3794 -0.9895
  909SOL    HW2 2727   1.856   0.383   1.273  2.7732  2.9691  2.1794
  910SOL     OW 2728   0.762   0.612   0.280 -0.8486 -0.1491 -0.0566
  910SOL    HW1 2729   0.791   0.654   0.195  1.0440 -0.8903  1.6109
  910SOL    HW2 2730   0.663   0.603   0.292  0.7970 -1.8702 -1.3288
  911SOL     OW 2731   0.144   0.307   2.867 -0.2630 -1.1023  0.4608
  911SOL    HW1 2732   0.080   0.324   2.941  1.0485 -0.5925 -1.8194
  911SOL    HW2 2733   0.092   0.313   2.779 -0.7176  1.1682 -0.4917
  912SOL     OW 2734   2.856   2.511   2.515 -0.0495  0.1625  0.0866
  912SOL    HW1 2735   2.937   2.571   2.540 -0.1456  2.0147  0.4897
  912SOL    HW2 2736   2.828   2.458   2.599  1.1533 -0.9687  0.6196
  913SOL     OW 2737   2.369   2.499   3.047 -0.0113 -0.3485 -0.5182
  913SOL    HW1 2738   2.354   2.502   0.073  0.4344  1.5744  2.9136
  913SOL    HW2 2739   2.368   2.597   3.013 -1.7934  0.2630 -2.3751
  914SOL     OW 2740   1.528   1.625   1.784 -0.2063  0.1583  0.2314
  914SOL    HW1 2741   1.515   1.575   1.873  1.2192  1.5259  5.4202
  914SOL    HW2 2742   1.596   1.703   1.793  0.5368  1.6596 -0.7054
  915SOL     OW 2743   2.913   2.542   2.121  0.4528  0.2872 -0.0258
  915SOL    HW1 2744   3.013   2.563   2.156  2.7785  1.5644 -0.5813
  915SOL    HW2 2745   2.881   2.616   2.068  0.1933  1.3046  1.0260
  916SOL     OW 2746   2.958   0.844   1.853  0.0156  0.0243  0.2621
  916SOL    HW1 2747   2.963   0.943   1.828  1.7215 -0.4963  2.9189
  916SOL    HW2 2748   3.017   0.828   1.934  2.2127 -0.6020  1.3689
  917SOL     OW 2749   1.986   0.159   2.962 -0.3179 -0.3140  0.4221
  917SOL    HW1 2750   1.970   0.160   3.063  0.2450 -0.9319  0.2072
  917SOL    HW2 2751   1.923   0.226   2.913  2.0490  1.6875  1.0850
  918SOL     OW 2752   1.831   2.473   2.237  0.0232 -0.1293  0.0918
  918SOL    HW1 2753   1.814   2.482   2.337  0.6079  2.3246  0.5578
  918SOL    HW2 2754   1.926   2.512   2.219  1.7994  1.1525  0.2512
  919SOL     OW 2755   2.203   2.142   2.042 -0.1327 -0.3255  0.2398
  919SOL    HW1 2756   2.213   2.132   2.145  1.3441  0.9745 -0.4666
  919SOL    HW2 2757   2.141   2.071   2.001  2.7022 -1.3554  0.1927
  920SOL     OW 2758   0.283   0.932   0.318  0.2733  0.4999 -0.3169
  920SOL    HW1 2759   0.313   0.875   0.399  1.9446  0.8674  0.7525
  920SOL    HW2 2760   0.184   0.933   0.307  0.9782 -0.1124  1.4554
  921SOL     OW 2761   2.680   1.170   2.674  0.4246  0.1135  0.3279
  921SOL    HW1 2762   2.642   1.164   2.769 -0.9116 -0.6416 -0.8094
  921SOL    HW2 2763   2.751   1.243   2.657  1.0318  0.9575 -1.2568
  922SOL     OW 2764   0.410   1.867   0.148  0.1212 -0.3248  0.2175
  922SOL    HW1 2765   0.406   1.872   0.046 -0.8757  1.3612 -0.5315
  922SOL    HW2 2766   0.315   1.871   0.192 -0.1678  0.4236  1.8789
  923SOL     OW 2767   0.588   0.921   2.093  0.1787 -0.1133  0.2707
  923SOL    HW1 2768   0.527   0.877   2.020 -1.5633  0.8325 -1.3658
  923SOL    HW2 2769   0.674   0.864   2.108  1.0596 -2.2495 -1.1757
  924SOL     OW 2770   0.706   2.693   2.626  0.7107 -0.0269 -0.1308
  924SOL    HW1 2771   0.773   2.617   2.632 -1.1010  0.6382  1.7197
  924SOL    HW2 2772   0.683   2.728   2.719  1.4262 -0.2311 -1.2452
  925SOL     OW 2773   1.777   1.503   0.900  0.1973  0.0653  0.5713
  925SOL    HW1 2774   1.755   1.413   0.938 -0.0460  0.9085 -0.2572
  925SOL    HW2 2775   1.776   1.513   0.797 -1.3026 -0.8184  0.1631
  926SOL     OW 2776   1.636   0.484   2.260 -0.3382 -0.2678 -0.2004
  926SOL    HW1 2777   1.546   0.533   2.228 -3.7093  2.9633  1.1996
  926SOL    HW2 2778   1.692   0.543   2.320 -0.3951  1.8222  0.6142
  927SOL     OW 2779   2.825   2.582   1.724  0.2590 -0.2847 -0.1961
  927SOL    HW1 2780   2.924   2.561   1.729 -0.6982  1.6074  0.8311
  927SOL    HW2 2781   2.814   2.635   1.634  0.5530  2.9776 -3.1429
  928SOL     OW 2782   0.350   0.957   2.672 -0.2098 -0.4255 -0.2859
  928SOL    HW1 2783   0.292   0.971   2.758 -0.4769 -0.9623  0.3288
  928SOL    HW2 2784   0.402   0.871   2.680  0.4441  0.1471 -1.1977
  929SOL     OW 2785   3.027   0.129   0.841  0.2828  0.1101  0.2383
  929SOL    HW1 2786   3.016   0.030   0.859  0.1348  0.1741 -0.5525
  929SOL    HW2 2787   0.025   0.164   0.898  0.1058  2.6925 -2.0776
  930SOL     OW 2788   2.260   0.116   1.966 -0.8869  0.2673 -0.0511
  930SOL    HW1 2789   2.221   0.022   1.978 -1.8676  0.4717 -1.5793
  930SOL    HW2 2790   2.288   0.132   1.868  1.3546 -2.9971  0.0151
  931SOL     OW 2791   2.152   1.175   2.883 -0.1491  0.1628  0.1449
  931SOL    HW1 2792   2.231   1.156   2.948 -0.3470 -2.2990  0.8512
  931SOL    HW2 2793   2.147   1.270   2.850 -2.0070 -0.3841 -0.3066
  932SOL     OW 2794   2.622   1.427   1.734  0.5385  0.1875 -0.4358
  932SOL    HW1 2795   2.634   1.461   1.644  1.8286 -0.3336  2.3853
  932SOL    HW2 2796   2.682   1.351   1.763 -0.0582 -1.8368  0.7373
  933SOL     OW 2797   0.034   2.574   1.683 -0.6995  0.4762  0.7090
  933SOL    HW1 2798   0.104   2.533   1.746  0.4098 -0.1227  0.5101
  933SOL    HW2 2799   0.035   2.677   1.681 -0.8769 -1.5356  0.9695
  934SOL     OW 2800   0.814   2.822   1.139 -0.1486 -0.0319 -0.5312
  934SOL    HW1 2801   0.869   2.743   1.168  0.6841 -0.7949 -1.8966
  934SOL    HW2 2802   0.766   2.867   1.222 -0.6413  1.0324  3.6847
  935SOL     OW 2803   2.440   1.246   2.004  0.0763 -0.3529  0.8798
  935SOL    HW1 2804   2.537   1.265   2.024 -1.1372 -0.5137  0.8048
  935SOL    HW2 2805   2.394   1.319   1.947 -1.3321 -1.0512  0.0801
  936SOL     OW 2806   2.217   1.146   1.730  0.0321 -0.3978 -0.1303
  936SOL    HW1 2807   2.263   1.142   1.636 -0.7085  0.5281 -3.3255
  936SOL    HW2 2808   2.249   1.086   1.803 -0.8189  0.6604  0.2931
  937SOL     OW 2809   1.959   1.127   2.072 -0.6304  0.0383 -0.1968
  937SOL    HW1 2810   1.861   1.120   2.085 -0.0721 -1.3225  0.7171
  937SOL    HW2 2811   1.999   1.033   2.078  2.5934 -1.0927 -0.6073
  938SOL     OW 2812   0.793   2.592   0.071 -0.2881  0.4366 -0.0862
  938SOL    HW1 2813   0.744   2.503   0.095  1.8611 -1.1583  0.4014
  938SOL    HW2 2814   0.800   2.658   0.146  0.4596 -0.3445  0.4351
  939SOL     OW 2815   2.526   0.874   2.925 -0.5361  0.1133 -0.2480
  939SOL    HW1 2816   2.564   0.969   2.910  0.1304  0.7042 -1.0927
  939SOL    HW2 2817   2.499   0.866   3.022 -0.0967 -1.8696 -0.5480
  940SOL     OW 2818   1.212   1.989   0.975 -0.0121  0.3602 -1.2225
  940SOL    HW1 2819   1.171   1.956   0.889 -0.0271 -1.3539  1.0533
  940SOL    HW2 2820   1.311   2.004   0.957 -0.1782 -0.6595 -0.4748
  941SOL     OW 2821   0.846   1.989   1.568  0.2543 -0.0359 -0.1214
  941SOL    HW1 2822   0.863   1.926   1.489  0.3642  1.4383 -0.0163
  941SOL    HW2 2823   0.769   2.053   1.545  0.1332  0.7253  2.7263
  942SOL     OW 2824   0.184   2.237   2.797  0.5476 -0.2122  0.1068
  942SOL    HW1 2825   0.084   2.226   2.772 -0.8633 -0.5666  0.1333
  942SOL    HW2 2826   0.236   2.256   2.716 -1.3224  0.4227 -0.1556
  943SOL     OW 2827   1.966   2.868   1.729  0.6900 -0.1051 -0.3553
  943SOL    HW1 2828   1.904   2.809   1.780 -1.6399 -0.8736 -1.1599
  943SOL    HW2 2829   1.996   2.821   1.646  0.2586 -0.1806 -0.2223
  944SOL     OW 2830   1.245   1.914   2.903 -0.2576  0.0192 -0.3917
  944SOL    HW1 2831   1.330   1.962   2.873  0.9509  0.5190  0.7514
  944SOL    HW2 2832   1.164   1.964   2.872  3.0179 -0.5055 -0.0565
  945SOL     OW 2833   2.417   2.541   0.816  0.1459  0.3216 -0.0926
  945SOL    HW1 2834   2.463   2.586   0.737 -0.4708 -0.1056 -0.6670
  945SOL    HW2 2835   2.401   2.443   0.794 -1.0042 -0.2992 -0.9428
  946SOL     OW 2836   1.062   1.490   2.512 -0.6866 -0.5347  0.0317
  946SOL    HW1 2837   1.073   1.528   2.421 -2.9782 -0.4534  0.4346
  946SOL    HW2 2838   1.056   1.564   2.584 -0.6383  1.5808  1.3840
  947SOL     OW 2839   0.057   0.636   2.112 -0.2821 -0.2965 -0.4374
  947SOL    HW1 2840   0.159   0.657   2.134  0.4115 -0.9333  2.5149
  947SOL    HW2 2841   0.046   0.555   2.051 -1.1937  1.9703  0.6745
  948SOL     OW 2842   3.075   1.149   0.791 -0.2980 -0.5904 -0.2254
  948SOL    HW1 2843   0.047   1.082   0.849 -0.4503 -0.7835  0.6613
  948SOL    HW2 2844   2.978   1.132   0.785 -0.1573  0.3628 -0.3689
  949SOL     OW 2845   0.838   0.832   2.069  0.4228  0.0359 -0.0845
  949SOL    HW1 2846   0.895   0.749   2.048  4.2333 -1.3323 -2.0791
  949SOL    HW2 2847   0.853   0.904   1.998 -1.6728  1.6032  0.6143
  950SOL     OW 2848   0.121   0.492   1.347 -0.4221 -0.6319  0.7908
  950SOL    HW1 2849   0.187   0.477   1.424  0.1574 -1.1516 -1.6133
  950SOL    HW2 2850   0.030   0.453   1.368  0.3960 -0.0182  0.5469
  951SOL     OW 2851   0.504   1.167   2.624  0.0777 -0.3568 -0.1727
  951SOL    HW1 2852   0.550   1.163   2.536 -4.4997  1.5646  1.8262
  951SOL    HW2 2853   0.430   1.096   2.635 -2.5408  0.5058  2.8680
  952SOL     OW 2854   1.797   2.115   0.728 -0.1601  0.6006 -0.2526
  952SOL    HW1 2855   1.814   2.202   0.781  1.7353 -1.8482  2.5178
  952SOL    HW2 2856   1.874   2.048   0.747  0.2745  2.4713 -0.1340
  953SOL     OW 2857   0.488   0.280   0.296 -0.2471 -0.5850  0.4032
  953SOL    HW1 2858   0.558   0.221   0.346  0.3211  2.3668  2.3513
  953SOL    HW2 2859   0.400   0.292   0.346  0.3371  0.4136  0.8776
  954SOL     OW 2860   2.487   0.813   1.125 -0.0906 -0.4546 -0.4830
  954SOL    HW1 2861   2.402   0.824   1.184  1.3430  1.3951  1.6771
  954SOL    HW2 2862   2.536   0.738   1.170 -3.2130  1.5652  0.8333
  955SOL     OW 2863   1.545   1.362   2.948 -0.1239 -0.0303  0.1530
  955SOL    HW1 2864   1.596   1.317   2.872 -0.6374  0.8375 -0.2887
  955SOL    HW2 2865   1.462   1.310   2.973  1.6072 -0.9107 -0.2570
  956SOL     OW 2866   1.051   0.625   2.449  0.4652  0.0579 -0.3152
  956SOL    HW1 2867   1.080   0.684   2.522 -0.2127  1.7728 -1.2732
  956SOL    HW2 2868   1.068   0.528   2.458 -2.2689  1.9399 -2.5537
  957SOL     OW 2869   1.474   0.160   1.749 -0.2987  0.2773 -0.0635
  957SOL    HW1 2870   1.477   0.115   1.840  0.2140  0.6071  2.5528
  957SOL    HW2 2871   1.569   0.172   1.706  0.4004  1.7397 -1.8876
  958SOL     OW 2872   0.581   2.046   0.565  0.4807 -0.2683 -0.6610
  958SOL    HW1 2873   0.597   2.081   0.472  1.7516 -0.3353  3.2176
  958SOL    HW2 2874   0.541   1.953   0.569 -0.3113  1.2881 -0.0160
  959SOL     OW 2875   2.022   0.806   1.719 -0.3402 -0.8225 -0.2411
  959SOL    HW1 2876   2.104   0.825   1.772  0.0743 -0.9376 -0.3431
  959SOL    HW2 2877   1.940   0.791   1.777 -1.8323 -2.6341  1.2883
  960SOL     OW 2878   0.142   1.872   2.990  0.1156  0.2500 -0.5528
  960SOL    HW1 2879   0.231   1.858   2.941  0.7559  2.9185  0.8918
  960SOL    HW2 2880   0.106   1.784   3.026 -1.3809 -1.4665 -0.0266
  961SOL     OW 2881   0.745   2.041   1.130 -0.2692 -0.5618  0.0824
  961SOL    HW1 2882   0.835   2.039   1.170 -1.4336  0.7750 -1.1766
  961SOL    HW2 2883   0.668   2.056   1.202  1.5925 -0.7235  2.1510
  962SOL     OW 2884   0.249   1.426   1.284 -0.0409  0.0454  0.9864
  962SOL    HW1 2885   0.191   1.446   1.201 -1.9325  0.1597 -1.2772
  962SOL    HW2 2886   0.301   1.341   1.274 -0.1317 -3.0497  0.1885
  963SOL     OW 2887   1.496   1.842   2.460  0.4151 -0.1268 -0.0635
  963SOL    HW1 2888   1.556   1.786   2.522  0.1625 -0.7320 -2.6565
  963SOL    HW2 2889   1.544   1.930   2.439 -0.4968 -0.2382 -1.5612
  964SOL     OW 2890   0.141   3.042   2.183  0.0280  0.0229  0.4602
  964SOL    HW1 2891   0.077   2.964   2.192 -1.2802 -1.2547 -0.5262
  964SOL    HW2 2892   0.240   3.012   2.174 -0.2370  1.4631 -0.9518
  965SOL     OW 2893   2.850   2.335   2.761 -0.4498  0.1618  0.0805
  965SOL    HW1 2894   2.772   2.306   2.813  0.0090 -1.5145  1.5007
  965SOL    HW2 2895   2.900   2.251   2.729  0.5356 -1.4825 -1.2937
  966SOL     OW 2896   2.506   1.673   2.927  0.5839 -0.0918  0.6497
  966SOL    HW1 2897   2.483   1.604   2.855  2.7414 -0.0874 -0.7153
  966SOL    HW2 2898   2.581   1.642   2.984 -0.2699  1.7670 -1.0355
  967SOL     OW 2899   1.885   0.139   0.125 -0.1957  0.1080  0.1209
  967SOL    HW1 2900   1.931   0.055   0.159 -1.0040  1.6023  3.0489
  967SOL    HW2 2901   1.795   0.155   0.164  0.1487  2.6749 -1.1528
  968SOL     OW 2902   2.731   2.924   0.702  0.2716  0.5773 -0.2908
  968SOL    HW1 2903   2.736   2.836   0.758  0.5098 -0.5099  1.8636
  968SOL    HW2 2904   2.653   2.973   0.736  1.3462 -0.6906  0.4382
  969SOL     OW 2905   0.362   0.828   1.852  0.0382 -0.5900  0.4159
  969SOL    HW1 2906   0.402   0.917   1.826  0.3614  1.6438 -0.9716
  969SOL    HW2 2907   0.288   0.805   1.785  0.5792 -1.5083  2.0066
  970SOL     OW 2908   1.605   1.628   2.827 -0.0146 -0.0480  0.1659
  970SOL    HW1 2909   1.592   1.531   2.863  0.3202 -1.4953 -0.4264
  970SOL    HW2 2910   1.696   1.668   2.868  1.5389 -2.5101  1.9366
  971SOL     OW 2911   2.306   0.169   1.716 -0.3331 -0.0520  0.0118
  971SOL    HW1 2912   2.210   0.185   1.689  0.8132  0.0116 -0.2531
  971SOL    HW2 2913   2.361   0.113   1.649  1.8129  2.8264  1.6329
  972SOL     OW 2914   2.787   0.265   0.912 -0.1922 -0.3817 -0.3065
  972SOL    HW1 2915   2.771   0.276   0.810 -0.6563 -1.3023 -1.3421
  972SOL    HW2 2916   2.882   0.221   0.916  2.0150 -0.9397  0.7201
  973SOL     OW 2917   0.320   0.619   2.435 -0.0917 -0.6301 -0.0636
  973SOL    HW1 2918   0.420   0.660   2.440  4.5509 -0.3685 -1.2782
  973SOL    HW2 2919   0.319   0.546   2.507  0.6058 -0.5456  0.5105
  974SOL     OW 2920   2.760   1.169   1.759  0.4726 -0.2266 -0.2840
  974SOL    HW1 2921   2.711   1.077   1.755 -0.6856  0.5598  1.1967
  974SOL    HW2 2922   2.808   1.176   1.848 -0.2896 -0.5365  2.5991
  975SOL     OW 2923   1.179   2.819   1.744  0.4439  0.4184  0.0952
  975SOL    HW1 2924   1.177   2.916   1.719 -1.4836 -3.1542  3.2095
  975SOL    HW2 2925   1.103   2.791   1.804  1.3607 -0.7141  0.7800
  976SOL     OW 2926   1.554   1.410   1.271 -0.1253 -0.8272 -0.2560
  976SOL    HW1 2927   1.515   1.434   1.362 -0.6193 -0.1280  1.0632
  976SOL    HW2 2928   1.612   1.326   1.280 -1.4589 -1.9704  2.0013
  977SOL     OW 2929   0.350   2.926   0.267  0.2667  0.2405  0.0592
  977SOL    HW1 2930   0.421   2.951   0.334 -0.2090  1.6155 -0.8074
  977SOL    HW2 2931   0.388   2.842   0.220 -1.2975  2.0326  0.8961
  978SOL     OW 2932   2.162   1.313   2.156 -0.3112 -0.1041  0.3941
  978SOL    HW1 2933   2.205   1.364   2.079 -1.5960 -2.5465 -3.7406
  978SOL    HW2 2934   2.140   1.220   2.127  0.5205 -2.0534  0.0771
  979SOL     OW 2935   1.420   0.770   1.957 -0.2644  0.5322 -0.8064
  979SOL    HW1 2936   1.320   0.786   1.940 -0.8361 -1.4045 -2.1902
  979SOL    HW2 2937   1.473   0.856   1.966 -1.2981  0.0131 -2.0786
  980SOL     OW 2938   1.911   1.815   2.471  0.5641 -0.1224 -0.1259
  980SOL    HW1 2939   1.849   1.857   2.410 -1.0461 -1.0844 -1.2761
  980SOL    HW2 2940   1.884   1.721   2.498  2.2870 -0.3691  1.7353
  981SOL     OW 2941   1.551   0.589   1.791 -1.0353 -0.0143 -0.3656
  981SOL    HW1 2942   1.488   0.548   1.723  3.2494  0.0497  2.8298
  981SOL    HW2 2943   1.503   0.654   1.852  2.6428 -2.0828 -0.0119
  982SOL     OW 2944   0.492   0.548   0.299  0.3220  0.5718 -0.5810
  982SOL    HW1 2945   0.501   0.448   0.272  1.2414  0.2684 -2.8659
  982SOL    HW2 2946   0.454   0.601   0.225  1.2344  0.4433 -0.8565
  983SOL     OW 2947   2.255   0.733   0.051 -0.4642 -0.0766  0.1791
  983SOL    HW1 2948   2.346   0.769   0.080 -0.4766  2.2685 -0.0694
  983SOL    HW2 2949   2.243   0.750   3.029  1.1960  0.7065  0.0395
  984SOL     OW 2950   0.780   0.125   2.815 -0.2467 -0.5011 -0.1755
  984SOL    HW1 2951   0.797   0.134   2.719 -0.9504 -2.6191  1.5430
  984SOL    HW2 2952   0.862   0.158   2.862 -4.1571 -1.0782  1.1081
  985SOL     OW 2953   1.453   1.983   1.854  0.4760 -0.4424  0.1163
  985SOL    HW1 2954   1.385   1.962   1.779 -0.6315  0.2660  0.8054
  985SOL    HW2 2955   1.427   2.074   1.901  0.1511  1.3714 -2.0507
  986SOL     OW 2956   2.511   2.657   1.753  0.2679  0.0574 -0.2938
  986SOL    HW1 2957   2.607   2.694   1.759  0.3099 -2.0400  0.9491
  986SOL    HW2 2958   2.449   2.696   1.822 -0.9307  2.6678 -1.1301
  987SOL     OW 2959   1.862   1.221   0.913 -0.0839  0.3472 -0.1046
  987SOL    HW1 2960   1.903   1.139   0.955 -3.6386  0.1928 -2.3421
  987SOL    HW2 2961   1.773   1.198   0.874 -2.0260  1.6248 -1.2400
  988SOL     OW 2962   2.571   1.470   2.231  0.8233 -0.1106  0.0678
  988SOL    HW1 2963   2.662   1.452   2.190  0.4550 -2.4154 -0.4522
  988SOL    HW2 2964   2.516   1.531   2.171  2.9668  1.6058 -1.6721
  989SOL     OW 2965   1.507   2.295   0.179  0.3098 -0.7021 -0.0860
  989SOL    HW1 2966   1.434   2.293   0.252  0.6775 -1.0131  1.0473
  989SOL    HW2 2967   1.575   2.368   0.203 -0.1408 -1.8851 -0.8283
  990SOL     OW 2968   1.861   0.684   2.744 -0.0767 -0.2265  0.4281
  990SOL    HW1 2969   1.908   0.763   2.698  0.9187  1.2579 -0.6000
  990SOL    HW2 2970   1.928   0.633   2.805  0.0983 -1.4958 -1.5992
  991SOL     OW 2971   0.902   0.538   1.034 -0.0523  0.2049 -0.6511
  991SOL    HW1 2972   0.903   0.608   1.108 -0.3445  1.0703 -0.6111
  991SOL    HW2 2973   0.902   0.445   1.077 -0.2039 -0.9116  0.8927
  992SOL     OW 2974   2.841   0.858   1.002 -0.2318 -0.0787  0.2241
  992SOL    HW1 2975   2.838   0.844   0.899 -0.7473  0.4348 -1.5022
  992SOL    HW2 2976   2.839   0.769   1.052  2.3969  0.0737  0.9681
  993SOL     OW 2977   2.342   0.546   1.856 -0.4483  0.5901 -0.1209
  993SOL    HW1 2978   2.273   0.575   1.782 -0.2261  2.6395 -0.5953
  993SOL    HW2 2979   2.431   0.524   1.819 -0.9469  1.6781  1.5431
  994SOL     OW 2980   1.026   1.544   2.240 -0.5778  0.3863 -0.4249
  994SOL    HW1 2981   0.961   1.471   2.204  0.7961 -1.3504 -0.8532
  994SOL    HW2 2982   0.997   1.637   2.210  3.4543  1.2215  2.0796
  995SOL     OW 2983   2.151   1.448   2.785  0.6113 -0.2599  0.3546
  995SOL    HW1 2984   2.175   1.475   2.688 -1.5049 -0.1434 -2.2485
  995SOL    HW2 2985   2.145   1.527   2.851  1.3830 -2.0383 -1.6702
  996SOL     OW 2986   2.117   1.940   0.551  0.1350  0.3840 -0.8011
  996SOL    HW1 2987   2.072   1.935   0.642 -2.7296 -0.7548 -1.6392
  996SOL    HW2 2988   2.187   1.868   0.537  1.8959 -1.0571 -1.3015
  997SOL     OW 2989   2.093   0.412   1.756 -0.7188 -0.3852 -0.4046
  997SOL    HW1 2990   2.050   0.437   1.846  0.1823  0.0346 -0.7197
  997SOL    HW2 2991   2.070   0.312   1.740  0.2695 -1.1539 -1.9799
  998SOL     OW 2992   2.312   1.061   0.563 -0.3677 -0.0758 -0.5091
  998SOL    HW1 2993   2.275   0.979   0.520  2.6754  2.8622 -2.8304
  998SOL    HW2 2994   2.265   1.093   0.645 -1.9221 -1.2362  0.3235
  999SOL     OW 2995   2.808   1.591   0.392  0.3793 -0.1328  0.3737
  999SOL    HW1 2996   2.829   1.637   0.481 -0.2069 -1.2590 -2.5610
  999SOL    HW2 2997   2.861   1.505   0.397  1.5302  0.9585 -0.0676
 1000SOL     OW 2998   0.854   0.877   1.747  0.6792  0.3568 -0.2584
 1000SOL    HW1 2999   0.903   0.791   1.743 -2.1010  3.5656  1.6350
 1000SOL    HW2 3000   0.772   0.876   1.683 -1.5830 -0.9737 -1.2264
   3.07638   3.07638   3.07638
