1000 SPC/Fw water molecules t= 164.00000 step= 164000
 3000
    1SOL     OW    1   2.826   2.710   0.648  0.1126  0.4521  0.2250
    1SOL    HW1    2   2.919   2.675   0.658 -1.5202 -0.4093 -1.0520
    1SOL    HW2    3   2.760   2.652   0.703  1.1525  0.3147 -1.8199
    2SOL     OW    4   1.264   1.906   2.217  0.3463 -0.5384 -0.2328
    2SOL    HW1    5   1.195   1.837   2.190 -1.1764 -0.3754 -0.7360
    2SOL    HW2    6   1.344   1.905   2.150 -2.6168 -0.9443 -2.6316
    3SOL     OW    7   1.716   2.353   2.142 -0.3247  0.3536 -0.6314
    3SOL    HW1    8   1.768   2.428   2.098 -2.6868  1.4777 -1.5220
    3SOL    HW2    9   1.693   2.367   2.240  0.9516 -1.3071  0.1277
    4SOL     OW   10   1.955   2.047   2.209 -0.2948 -0.5550 -0.2727
    4SOL    HW1   11   1.994   2.025   2.299  2.7328  0.5396 -0.6502
    4SOL    HW2   12   1.973   1.974   2.143 -1.0148  0.9704  2.3406
    5SOL     OW   13   0.799   0.817   1.676 -0.3559  0.2557  0.3090
    5SOL    HW1   14   0.895   0.857   1.682  2.3971 -0.2533 -1.5587
    5SOL    HW2   15   0.791   0.731   1.737 -0.1056 -0.9375  0.3131
    6SOL     OW   16   2.366   0.954   2.874  0.0815  0.0452  0.1557
    6SOL    HW1   17   2.365   1.001   2.785 -0.0662 -0.5923  0.0296
    6SOL    HW2   18   2.281   0.986   2.918  1.8326  0.9867  0.8446
    7SOL     OW   19   1.042   0.500   1.229 -0.0261  0.1251  0.2819
    7SOL    HW1   20   1.140   0.498   1.227 -1.2776  1.7741 -0.9364
    7SOL    HW2   21   1.006   0.594   1.248 -2.0079 -0.3980  2.5428
    8SOL     OW   22   1.011   2.383   1.328 -0.1666  0.0192  0.4381
    8SOL    HW1   23   0.956   2.322   1.385  1.6410  2.6680  2.7761
    8SOL    HW2   24   1.007   2.476   1.364 -0.6196 -0.4254  1.8041
    9SOL     OW   25   0.732   1.148   0.278  0.3398 -0.2460  0.2704
    9SOL    HW1   26   0.713   1.112   0.372 -0.5691 -0.6485 -0.0411
    9SOL    HW2   27   0.832   1.136   0.256  2.4885  2.0706 -0.4906
   10SOL     OW   28   0.279   2.958   3.077 -0.1240  0.7540 -0.0037
   10SOL    HW1   29   0.235   2.976   2.989 -3.1488  0.6884  1.5370
   10SOL    HW2   30   0.343   2.876   3.078  2.0893  0.9424 -0.8411
   11SOL     OW   31   0.115   1.268   2.858  0.0391 -0.2211 -0.0481
   11SOL    HW1   32   0.168   1.353   2.829 -0.4353  2.6518  0.2239
   11SOL    HW2   33   0.139   1.250   2.955 -0.7501  0.3458  0.2790
   12SOL     OW   34   0.663   0.032   1.443 -0.2930 -0.0196  0.7670
   12SOL    HW1   35   0.642   3.087   1.354 -1.4956 -1.8309  2.1641
   12SOL    HW2   36   0.594   0.017   1.513  0.7873  2.5162 -0.4730
   13SOL     OW   37   0.585   2.901   0.618 -0.2414  0.6643  0.4323
   13SOL    HW1   38   0.646   2.819   0.606  0.5016 -1.5725 -2.5144
   13SOL    HW2   39   0.609   2.978   0.551  0.9510 -0.1752 -0.7325
   14SOL     OW   40   1.393   1.877   0.862 -0.3491  0.7453  0.1833
   14SOL    HW1   41   1.426   1.973   0.854 -2.2063 -2.6181 -0.9791
   14SOL    HW2   42   1.393   1.850   0.964  1.2843  1.9109  1.7583
   15SOL     OW   43   2.509   0.904   2.306  0.4593 -0.4465  0.1299
   15SOL    HW1   44   2.488   0.881   2.403 -1.0304 -0.8356  2.4905
   15SOL    HW2   45   2.430   0.949   2.261  1.5226 -0.3793 -0.0491
   16SOL     OW   46   1.382   3.005   2.933 -0.0682  0.1804  0.0979
   16SOL    HW1   47   1.409   2.930   3.003 -1.4828 -2.6395  2.5302
   16SOL    HW2   48   1.367   2.962   2.842  1.6019 -1.8003  2.3258
   17SOL     OW   49   0.716   2.771   1.810  0.0710 -0.0279 -0.8453
   17SOL    HW1   50   0.725   2.777   1.911 -1.1693  1.7700  0.0737
   17SOL    HW2   51   0.779   2.841   1.770 -0.7057  1.0130 -0.3821
   18SOL     OW   52   1.368   0.804   0.169 -0.0506  0.2386 -0.1789
   18SOL    HW1   53   1.416   0.815   0.081  0.1232  1.8805  1.2975
   18SOL    HW2   54   1.381   0.712   0.214 -0.8853 -0.0003 -0.5680
   19SOL     OW   55   2.182   1.871   2.968 -0.4790 -0.1879  0.1088
   19SOL    HW1   56   2.117   1.954   2.960 -2.0370  3.3347 -0.4879
   19SOL    HW2   57   2.236   1.851   2.882  1.0337 -1.9478 -1.6592
   20SOL     OW   58   2.140   1.824   1.820  0.0750 -0.2874 -0.4538
   20SOL    HW1   59   2.215   1.791   1.878 -1.6726 -3.3974 -2.5836
   20SOL    HW2   60   2.053   1.791   1.859  0.6697 -1.3201  4.3867
   21SOL     OW   61   0.248   1.502   2.841  0.0348 -0.3800 -0.3156
   21SOL    HW1   62   0.305   1.475   2.923  2.2084  1.0400  1.1512
   21SOL    HW2   63   0.311   1.522   2.758 -0.5713 -1.0295 -3.4776
   22SOL     OW   64   2.569   2.990   1.484 -0.0251  0.2594 -0.3817
   22SOL    HW1   65   2.645   2.961   1.419  0.0700  0.6123 -2.8891
   22SOL    HW2   66   2.504   2.910   1.502 -3.0320 -1.6018  0.6102
   23SOL     OW   67   2.929   1.098   1.707 -0.4827  0.5591 -0.1708
   23SOL    HW1   68   2.838   1.058   1.679 -2.0447  0.9770 -0.5990
   23SOL    HW2   69   3.007   1.033   1.676  2.2304  0.5986  0.1271
   24SOL     OW   70   2.663   1.885   1.415  0.0079  0.5159 -0.8406
   24SOL    HW1   71   2.602   1.924   1.491 -1.6111  0.7177  0.4106
   24SOL    HW2   72   2.716   1.806   1.456  3.4200 -1.5313  0.6743
   25SOL     OW   73   1.937   0.062   2.557 -0.6876 -0.5020 -0.5844
   25SOL    HW1   74   2.002   0.012   2.501 -3.1119  3.8050  2.8018
   25SOL    HW2   75   1.875   3.090   2.605 -0.3494  0.1250 -2.3506
   26SOL     OW   76   1.415   3.048   0.510 -0.1854 -0.3339 -0.0672
   26SOL    HW1   77   1.458   0.038   0.546 -2.8750 -0.6857 -1.5783
   26SOL    HW2   78   1.481   2.988   0.459 -1.9594  2.1301  0.0612
   27SOL     OW   79   0.689   1.991   3.051  0.0897 -0.3774  0.6588
   27SOL    HW1   80   0.668   2.023   0.049 -1.1735  0.9144 -1.7290
   27SOL    HW2   81   0.696   1.885   3.057  1.4088  0.3358  2.5395
   28SOL     OW   82   2.902   1.583   1.078  0.7652 -0.7831 -0.0291
   28SOL    HW1   83   2.832   1.648   1.045  2.7426 -0.6407  1.8062
   28SOL    HW2   84   2.892   1.495   1.028  0.2960 -0.2698 -0.9644
   29SOL     OW   85   2.481   1.987   2.114  0.0040  0.1466  0.3708
   29SOL    HW1   86   2.429   2.074   2.101  0.4738 -1.3001 -1.3395
   29SOL    HW2   87   2.581   2.003   2.111  1.1064 -0.9073  0.0106
   30SOL     OW   88   0.955   2.960   0.948 -0.4099  0.6219  0.2928
   30SOL    HW1   89   0.989   2.968   0.853  0.4372  2.3496 -0.1381
   30SOL    HW2   90   0.911   3.041   0.975  1.9529 -1.5795 -3.9051
   31SOL     OW   91   0.066   2.185   1.743  0.1495  0.2611 -0.4720
   31SOL    HW1   92   0.110   2.265   1.793  1.0800  1.4890 -0.6668
   31SOL    HW2   93   0.137   2.124   1.707 -1.0352  0.8254  0.3550
   32SOL     OW   94   1.377   0.897   1.888 -0.0601  0.2057  0.1962
   32SOL    HW1   95   1.416   0.929   1.798 -1.9549 -0.5325 -3.4983
   32SOL    HW2   96   1.451   0.897   1.957 -0.0668 -1.0152  0.4712
   33SOL     OW   97   0.651   2.834   2.644 -0.0628 -0.0732  0.2260
   33SOL    HW1   98   0.708   2.905   2.595  2.9387  0.8529 -0.7798
   33SOL    HW2   99   0.665   2.845   2.745 -2.0440  2.4202 -1.3831
   34SOL     OW  100   1.799   2.998   1.249  0.1898 -0.2566 -0.0298
   34SOL    HW1  101   1.698   2.982   1.258 -1.4967 -1.1511  2.3149
   34SOL    HW2  102   1.839   2.997   1.153  2.6887  0.7596  1.6886
   35SOL     OW  103   2.347   0.667   1.139  0.0723 -0.1234  0.5115
   35SOL    HW1  104   2.253   0.654   1.107  1.9890 -1.2691  2.6645
   35SOL    HW2  105   2.354   0.673   1.242  1.6464 -3.8044  1.3289
   36SOL     OW  106   2.123   2.648   2.131  0.8890  0.3924  0.4079
   36SOL    HW1  107   2.143   2.551   2.162  2.7452  0.1651  1.9843
   36SOL    HW2  108   2.215   2.688   2.110 -1.1856  0.7208 -0.4823
   37SOL     OW  109   1.000   2.494   2.271  0.0021 -0.1382  0.2905
   37SOL    HW1  110   1.077   2.438   2.312 -0.2817 -0.8216 -0.0715
   37SOL    HW2  111   0.915   2.469   2.318 -1.1045  1.0773  0.6745
   38SOL     OW  112   2.448   0.416   0.014 -0.1544  0.2544  0.4043
   38SOL    HW1  113   2.389   0.372   0.085  0.7745 -0.7969  0.1679
   38SOL    HW2  114   2.402   0.457   3.032 -1.5149  1.9527  0.4542
   39SOL     OW  115   2.009   1.721   2.465  0.1373  0.3092 -0.0337
   39SOL    HW1  116   1.967   1.790   2.526  0.2604  1.7618 -0.0984
   39SOL    HW2  117   1.936   1.650   2.448  0.8960 -0.0541 -0.4857
   40SOL     OW  118   0.051   2.974   2.360 -0.1285  0.3462  0.6970
   40SOL    HW1  119   3.065   3.027   2.391  0.3493 -0.9783 -2.7768
   40SOL    HW2  120   0.032   2.876   2.342 -1.0563 -4.6915  0.8922
   41SOL     OW  121   1.689   0.412   1.332  0.5772 -0.3506  0.8715
   41SOL    HW1  122   1.651   0.360   1.408 -0.2094  1.8947 -1.9267
   41SOL    HW2  123   1.760   0.353   1.288 -1.4466  0.2626  2.1791
   42SOL     OW  124   0.584   0.235   1.717  0.0968 -0.0161  0.5829
   42SOL    HW1  125   0.580   0.324   1.661  0.5730  1.3776 -2.4040
   42SOL    HW2  126   0.512   0.163   1.692  0.0535 -1.1882 -0.9435
   43SOL     OW  127   1.713   0.264   2.061  0.1634 -0.4290 -0.3316
   43SOL    HW1  128   1.696   0.257   2.166 -1.2073 -0.8322  2.7713
   43SOL    HW2  129   1.805   0.303   2.042 -2.6210  2.6615 -1.1338
   44SOL     OW  130   0.157   3.003   2.849  0.3376 -0.1546 -0.0482
   44SOL    HW1  131   0.207   2.942   2.781  0.1049  0.0624 -1.0638
   44SOL    HW2  132   0.057   3.006   2.837  1.1139  1.0145  0.3549
   45SOL     OW  133   0.261   2.386   1.544  0.0261 -0.1682 -0.3610
   45SOL    HW1  134   0.263   2.385   1.647  1.7828 -0.0445  1.0434
   45SOL    HW2  135   0.357   2.378   1.511  0.7392 -1.9186  1.0482
   46SOL     OW  136   2.148   2.029   2.404  0.5239 -0.6267 -0.0010
   46SOL    HW1  137   2.148   2.019   2.505  0.8969 -2.0411 -3.3337
   46SOL    HW2  138   2.244   2.041   2.369 -0.5387  0.2537 -0.3846
   47SOL     OW  139   1.823   1.827   1.624  0.0174 -0.4610  0.0752
   47SOL    HW1  140   1.838   1.924   1.655 -0.6633 -2.4223 -0.6231
   47SOL    HW2  141   1.828   1.753   1.692  0.8329  1.4620 -0.0404
   48SOL     OW  142   0.478   1.675   0.260  0.1106 -0.1420 -0.0520
   48SOL    HW1  143   0.559   1.735   0.261 -1.6558  0.4175 -1.2983
   48SOL    HW2  144   0.466   1.633   0.353 -0.6124  1.1345 -0.4663
   49SOL     OW  145   2.751   0.448   2.409 -0.0388 -0.7180  0.0237
   49SOL    HW1  146   2.679   0.477   2.471 -0.8301 -1.7788  0.6291
   49SOL    HW2  147   2.768   0.522   2.342 -0.1676  1.7591 -0.4470
   50SOL     OW  148   1.984   0.628   0.846  0.7718 -0.1714 -0.6891
   50SOL    HW1  149   1.990   0.716   0.900  0.9312  0.2058  0.0203
   50SOL    HW2  150   1.908   0.630   0.779 -0.4083  0.5016  1.6376
   51SOL     OW  151   1.241   0.628   1.050 -0.2218  0.0208  0.0939
   51SOL    HW1  152   1.169   0.684   1.093 -1.0506 -3.3969 -0.0217
   51SOL    HW2  153   1.300   0.684   0.990  0.2413 -1.4685 -0.3570
   52SOL     OW  154   1.310   1.160   0.024 -0.0593 -0.2086 -0.4983
   52SOL    HW1  155   1.346   1.134   0.114 -0.1627 -0.5953  3.7372
   52SOL    HW2  156   1.266   1.254   0.023  3.3465  1.7616  0.4857
   53SOL     OW  157   1.186   2.086   2.865 -0.1509  0.3505 -0.5410
   53SOL    HW1  158   1.109   2.030   2.907 -2.0748 -2.2084  3.0223
   53SOL    HW2  159   1.174   2.187   2.882 -1.3391 -0.3165 -1.4687
   54SOL     OW  160   1.959   0.330   1.189  0.3292 -0.2376 -0.2558
   54SOL    HW1  161   1.963   0.236   1.230  0.8484 -4.3463 -0.2462
   54SOL    HW2  162   2.031   0.394   1.225  0.1421 -0.5009 -3.0172
   55SOL     OW  163   2.306   2.668   0.662 -0.1325  0.1437  0.6703
   55SOL    HW1  164   2.349   2.684   0.572  0.4640 -1.1287 -2.7266
   55SOL    HW2  165   2.208   2.677   0.645  1.0564 -1.0795  1.6485
   56SOL     OW  166   0.774   2.807   1.250 -0.3271 -0.7789  0.1028
   56SOL    HW1  167   0.871   2.832   1.228  6.3226  0.1683 -2.7492
   56SOL    HW2  168   0.761   2.776   1.349 -0.9795 -1.1742  3.8179
   57SOL     OW  169   1.859   1.255   0.471  0.0229 -0.0151  0.1656
   57SOL    HW1  170   1.792   1.239   0.396  0.6798 -0.6521 -0.9861
   57SOL    HW2  171   1.953   1.235   0.443 -2.1135 -0.6466  2.1299
   58SOL     OW  172   0.407   1.145   2.229 -0.2930 -0.3073 -0.6684
   58SOL    HW1  173   0.381   1.246   2.235 -1.7063  2.4319  1.1884
   58SOL    HW2  174   0.325   1.100   2.259  2.9582  3.4961  0.1264
   59SOL     OW  175   0.684   2.723   2.942 -0.0203 -0.2739 -0.1268
   59SOL    HW1  176   0.685   2.765   3.033 -1.2947 -0.5309 -0.8708
   59SOL    HW2  177   0.779   2.700   2.914 -1.0547 -2.5314 -0.9270
   60SOL     OW  178   2.504   2.533   1.023  0.7072  0.6436  0.2360
   60SOL    HW1  179   2.406   2.514   1.019  1.0985  1.2456 -0.5735
   60SOL    HW2  180   2.521   2.616   1.079 -0.0894  2.0129  0.7189
   61SOL     OW  181   1.181   2.158   0.546  0.4718  0.1458 -0.7362
   61SOL    HW1  182   1.116   2.116   0.616  0.6129 -1.4245  0.8956
   61SOL    HW2  183   1.272   2.146   0.590  1.3277  0.5729 -0.4460
   62SOL     OW  184   2.046   2.698   2.792 -0.0241  0.4494  0.2529
   62SOL    HW1  185   2.064   2.649   2.881  2.5739 -0.5628 -2.5698
   62SOL    HW2  186   2.068   2.795   2.807  2.8944 -3.2769  0.5692
   63SOL     OW  187   2.008   0.488   0.022 -0.0496  0.2847  0.0099
   63SOL    HW1  188   1.920   0.469   0.071  0.7286 -3.0203  0.2448
   63SOL    HW2  189   2.068   0.544   0.088 -0.3268  0.0377 -0.6057
   64SOL     OW  190   1.003   1.169   2.830  0.0857  0.2522  0.5185
   64SOL    HW1  191   1.034   1.266   2.795  0.8099  1.4021 -1.3402
   64SOL    HW2  192   0.934   1.178   2.904  1.3725 -0.7645 -2.3224
   65SOL     OW  193   1.490   2.456   0.577 -0.4234  0.3927  0.1902
   65SOL    HW1  194   1.451   2.493   0.490 -2.8779 -0.7056 -0.7293
   65SOL    HW2  195   1.477   2.352   0.581 -0.6339 -2.0102 -0.6759
   66SOL     OW  196   0.686   1.255   1.670 -0.3316  0.1152  0.0368
   66SOL    HW1  197   0.755   1.183   1.695  1.0801 -0.5542  0.2436
   66SOL    HW2  198   0.622   1.269   1.751 -0.1330 -0.1294  2.1877
   67SOL     OW  199   2.410   3.048   2.326  0.0038 -0.4686 -0.0094
   67SOL    HW1  200   2.323   3.088   2.287 -1.9433  1.7081 -2.6758
   67SOL    HW2  201   2.477   0.028   2.359  0.8464  4.1121  1.4567
   68SOL     OW  202   0.948   1.225   1.156  0.0595  0.6648  0.3155
   68SOL    HW1  203   0.981   1.146   1.211  1.7138 -1.1336 -1.6029
   68SOL    HW2  204   0.863   1.204   1.109  1.0322 -1.4595 -1.6543
   69SOL     OW  205   1.785   2.409   0.375  0.2303 -0.4138 -0.6508
   69SOL    HW1  206   1.701   2.464   0.369  1.0035  1.7497  0.1158
   69SOL    HW2  207   1.828   2.403   0.467  1.5776  1.3533 -0.3998
   70SOL     OW  208   2.765   0.986   2.338 -0.5961 -0.1353  0.0331
   70SOL    HW1  209   2.847   0.919   2.345 -1.8505  0.9553 -0.4844
   70SOL    HW2  210   2.690   0.937   2.293  2.2190 -2.1190 -0.0741
   71SOL     OW  211   3.004   1.582   2.904  0.3768  0.1511 -1.0083
   71SOL    HW1  212   2.982   1.485   2.874  0.7285 -2.6974 -0.6869
   71SOL    HW2  213   2.942   1.589   2.991 -1.3704 -0.8669  0.2448
   72SOL     OW  214   2.840   2.326   0.571  0.6606 -0.0716  0.1752
   72SOL    HW1  215   2.794   2.405   0.524 -0.4652  2.1150 -2.1878
   72SOL    HW2  216   2.855   2.250   0.503  0.2129 -2.3680 -4.9181
   73SOL     OW  217   0.777   1.432   0.501 -0.4890  0.4786 -0.1628
   73SOL    HW1  218   0.704   1.415   0.430  0.8134  0.2406 -1.5197
   73SOL    HW2  219   0.795   1.529   0.507 -0.0791  0.0256 -0.2407
   74SOL     OW  220   0.110   1.691   2.336 -0.9504 -0.2776  0.0374
   74SOL    HW1  221   0.210   1.692   2.355 -1.1493 -1.7238 -2.1984
   74SOL    HW2  222   0.062   1.650   2.420  0.4639  3.0926 -0.8867
   75SOL     OW  223   1.595   1.475   1.719  0.1497  0.3656  0.6527
   75SOL    HW1  224   1.571   1.569   1.686  0.1521  3.2691 -0.8543
   75SOL    HW2  225   1.574   1.464   1.823 -2.5339 -3.0576  1.3663
   76SOL     OW  226   1.938   2.730   1.517 -0.0855 -0.2236  0.0955
   76SOL    HW1  227   1.974   2.676   1.594  2.3087 -1.1596  0.3275
   76SOL    HW2  228   1.932   2.827   1.544 -2.0585 -3.5137 -0.2076
   77SOL     OW  229   2.626   0.921   1.291  0.3840 -0.2572  0.5136
   77SOL    HW1  230   2.713   0.910   1.344 -1.6076 -0.2121 -0.6673
   77SOL    HW2  231   2.639   0.979   1.205  1.7164  0.0238 -0.3350
   78SOL     OW  232   1.355   0.999   0.507  0.1641  0.3188  0.0400
   78SOL    HW1  233   1.343   1.081   0.569  2.3088 -0.4018 -0.8021
   78SOL    HW2  234   1.446   0.955   0.524  0.2365 -1.0323  0.7517
   79SOL     OW  235   0.013   1.436   1.763  0.2678 -0.0695 -0.3400
   79SOL    HW1  236   0.064   1.360   1.720  0.5170 -1.5532 -0.7087
   79SOL    HW2  237   3.020   1.400   1.787 -2.2293 -0.4498 -2.3906
   80SOL     OW  238   1.193   0.654   1.613  0.1651  0.8128  0.5865
   80SOL    HW1  239   1.215   0.658   1.712  0.0190  2.3356  0.8724
   80SOL    HW2  240   1.240   0.575   1.567  1.5391 -0.0506 -0.9456
   81SOL     OW  241   0.728   0.079   1.075  0.0329 -0.6401  0.4948
   81SOL    HW1  242   0.696   0.142   1.005  0.4524  0.2919  0.7824
   81SOL    HW2  243   0.656   0.020   1.116 -1.6833 -1.4518 -0.5670
   82SOL     OW  244   1.410   2.745   1.639 -0.6371 -0.2209  0.3512
   82SOL    HW1  245   1.324   2.733   1.695 -2.4284  1.7971  0.2027
   82SOL    HW2  246   1.392   2.721   1.541 -0.1151 -4.1647 -3.2627
   83SOL     OW  247   1.049   2.087   0.762 -0.3927  0.3187 -0.4311
   83SOL    HW1  248   1.063   2.184   0.777 -0.8214 -2.4015  0.5252
   83SOL    HW2  249   1.080   2.040   0.843 -4.1942  3.9002  0.5153
   84SOL     OW  250   0.423   1.499   2.629  0.2871  0.6623  0.0711
   84SOL    HW1  251   0.375   1.424   2.576  0.5718 -0.3518 -2.4024
   84SOL    HW2  252   0.522   1.491   2.610  0.8266 -0.6528 -0.7511
   85SOL     OW  253   0.150   2.254   1.335 -0.1783 -0.2432 -0.3357
   85SOL    HW1  254   0.045   2.274   1.335 -1.6097  1.0950 -1.4230
   85SOL    HW2  255   0.188   2.289   1.424 -0.2706  0.0270 -0.5782
   86SOL     OW  256   2.411   2.129   1.369  0.0030 -0.2497  0.1102
   86SOL    HW1  257   2.335   2.066   1.378  0.8318  2.8435  0.6573
   86SOL    HW2  258   2.430   2.172   1.458 -3.1674  0.0521 -0.5779
   87SOL     OW  259   2.945   2.158   0.404  0.3420 -0.0929 -0.5876
   87SOL    HW1  260   2.899   2.069   0.370 -0.1652  0.8228 -0.8776
   87SOL    HW2  261   2.995   2.209   0.333 -0.4575 -1.0464  0.2661
   88SOL     OW  262   0.824   1.448   1.367  0.2591 -0.0410  0.1566
   88SOL    HW1  263   0.783   1.353   1.363 -1.4161 -1.0196 -1.4083
   88SOL    HW2  264   0.894   1.458   1.294 -0.2284 -0.2651  1.7055
   89SOL     OW  265   1.056   3.063   1.972  0.5948  0.1691  0.1077
   89SOL    HW1  266   0.971   3.022   2.014  1.1723  0.7072  1.4931
   89SOL    HW2  267   1.082   3.016   1.882  0.5796 -0.5454 -1.7800
   90SOL     OW  268   3.084   1.816   1.159  0.6317 -0.5889  0.3729
   90SOL    HW1  269   0.008   1.825   1.258  2.3400  0.2666  0.5362
   90SOL    HW2  270   3.051   1.720   1.134 -0.9901  0.6417  2.0862
   91SOL     OW  271   1.412   1.806   1.136  0.0203 -0.3365 -0.1202
   91SOL    HW1  272   1.351   1.846   1.203  0.4249  0.4010  0.4177
   91SOL    HW2  273   1.504   1.789   1.178 -0.0444  1.6859  0.3089
   92SOL     OW  274   2.455   2.288   1.571 -0.1810  0.4552  0.2006
   92SOL    HW1  275   2.465   2.273   1.670 -0.2975 -1.3728  1.1545
   92SOL    HW2  276   2.550   2.287   1.531  2.5386 -1.7658  1.3506
   93SOL     OW  277   2.860   1.545   2.605  0.4264 -0.0119  0.1474
   93SOL    HW1  278   2.787   1.508   2.544 -0.1628 -2.2561  2.5655
   93SOL    HW2  279   2.894   1.463   2.654 -1.0564  1.0074  1.7181
   94SOL     OW  280   2.830   2.820   2.171  0.3835  0.2364  0.1315
   94SOL    HW1  281   2.814   2.905   2.220 -1.0081 -2.9342  1.7693
   94SOL    HW2  282   2.921   2.813   2.125  1.7901  0.1847 -1.0946
   95SOL     OW  283   1.646   0.179   1.798  0.3195  0.6659  0.6136
   95SOL    HW1  284   1.687   0.212   1.889  0.7933  0.1032  2.2994
   95SOL    HW2  285   1.552   0.138   1.805  0.1589 -1.9509 -0.1337
   96SOL     OW  286   2.973   0.116   1.566 -0.2216 -0.2796 -0.7134
   96SOL    HW1  287   2.946   0.214   1.577 -0.5316 -1.0370 -0.9827
   96SOL    HW2  288   2.945   0.077   1.479 -2.7925 -0.1777  1.6150
   97SOL     OW  289   2.253   0.077   1.441  0.1183  0.2242  0.3312
   97SOL    HW1  290   2.248   0.007   1.510  0.2430  4.9018 -0.2318
   97SOL    HW2  291   2.319   0.145   1.474  0.9685  0.1243  1.1481
   98SOL     OW  292   1.602   2.523   1.623 -0.3797 -0.2458  0.1489
   98SOL    HW1  293   1.657   2.570   1.555 -0.6993 -0.2588  2.2589
   98SOL    HW2  294   1.586   2.591   1.698  0.9628  0.0070 -0.7526
   99SOL     OW  295   2.977   3.030   2.040  0.1957  0.5179  0.1813
   99SOL    HW1  296   2.949   2.986   1.952  1.3591  1.1745 -0.4972
   99SOL    HW2  297   3.078   3.014   2.040  1.0135 -1.4413  2.0421
  100SOL     OW  298   2.825   1.145   2.100 -0.4417 -0.0500  0.0832
  100SOL    HW1  299   2.845   1.243   2.110 -0.8156 -4.4624  0.7705
  100SOL    HW2  300   2.798   1.103   2.189  2.1959  0.6043 -3.3589
  101SOL     OW  301   1.501   0.620   0.653 -0.2522 -0.2920 -0.0234
  101SOL    HW1  302   1.433   0.558   0.603  0.1144 -1.8208  0.2338
  101SOL    HW2  303   1.471   0.626   0.748 -3.0004  0.3599 -0.1505
  102SOL     OW  304   0.283   0.590   1.586  0.5109  0.8609 -0.4382
  102SOL    HW1  305   0.332   0.540   1.659  0.5812  0.9561 -0.4380
  102SOL    HW2  306   0.188   0.605   1.618  2.7827 -0.7464 -0.4447
  103SOL     OW  307   2.118   0.716   2.887  0.7126  0.0626 -0.1574
  103SOL    HW1  308   2.071   0.658   2.956  0.7657 -0.5950  0.0943
  103SOL    HW2  309   2.099   0.815   2.900  1.0203  2.2824 -0.6053
  104SOL     OW  310   0.089   0.403   2.183 -0.5448  0.3788 -0.2788
  104SOL    HW1  311   0.183   0.430   2.142 -0.8597 -1.5136  0.1403
  104SOL    HW2  312   0.100   0.359   2.272  1.6949 -1.0744 -1.4895
  105SOL     OW  313   1.947   0.740   1.631  0.2589  0.2228  0.0039
  105SOL    HW1  314   1.866   0.804   1.624  0.5227  2.8381  0.9698
  105SOL    HW2  315   2.018   0.765   1.564 -1.3568 -1.9331 -3.7159
  106SOL     OW  316   1.594   3.049   0.910 -0.1135  0.1094  0.1678
  106SOL    HW1  317   1.498   3.041   0.936  4.3214 -0.9135  0.9729
  106SOL    HW2  318   1.636   0.030   0.966 -0.1489 -0.3194 -0.1113
  107SOL     OW  319   0.184   1.273   0.711 -0.0008  0.1795 -0.0711
  107SOL    HW1  320   0.189   1.240   0.612  1.6169 -1.7511 -2.6150
  107SOL    HW2  321   0.087   1.258   0.733  2.8474  0.1157  0.4335
  108SOL     OW  322   0.048   0.251   2.440  0.0843 -0.4393  0.0777
  108SOL    HW1  323   3.059   0.197   2.431  0.9940  3.5573 -0.3581
  108SOL    HW2  324   0.108   0.208   2.513 -2.0495  1.3485  1.7663
  109SOL     OW  325   2.267   0.365   0.585 -0.0007  0.6459  0.3806
  109SOL    HW1  326   2.339   0.407   0.521  4.4496  3.0292 -0.9385
  109SOL    HW2  327   2.267   0.424   0.671  2.0370  0.2381 -0.7331
  110SOL     OW  328   0.306   2.517   2.898 -0.2546 -0.1708 -0.7603
  110SOL    HW1  329   0.205   2.507   2.873 -2.5311  1.1129  1.2783
  110SOL    HW2  330   0.354   2.580   2.836 -0.8987 -1.1540  0.6939
  111SOL     OW  331   1.828   3.057   2.105  0.2533  0.1917 -0.1625
  111SOL    HW1  332   1.868   0.050   2.080 -0.2089  5.1604 -1.3597
  111SOL    HW2  333   1.840   2.980   2.037 -1.6012 -1.2556 -1.1746
  112SOL     OW  334   2.071   2.553   3.020 -0.1129 -0.2603  0.0370
  112SOL    HW1  335   2.018   2.604   3.089 -0.8868  0.7809  0.1300
  112SOL    HW2  336   2.169   2.546   3.060  1.6995 -1.9693  1.8772
  113SOL     OW  337   2.743   2.021   1.765  0.1256  0.3182  0.3332
  113SOL    HW1  338   2.830   2.019   1.711  0.5857  0.2872 -0.8260
  113SOL    HW2  339   2.708   2.118   1.759  2.5103 -1.2317  2.4128
  114SOL     OW  340   2.758   0.879   0.902  0.5459 -0.3562 -0.0504
  114SOL    HW1  341   2.662   0.859   0.868  0.1307 -0.0169 -0.0857
  114SOL    HW2  342   2.815   0.794   0.916  0.1451  0.4721  1.6118
  115SOL     OW  343   2.919   1.729   0.092 -0.5147 -0.0607 -0.1944
  115SOL    HW1  344   2.923   1.740   0.190 -0.2760 -0.8103 -3.1057
  115SOL    HW2  345   2.985   1.792   0.045  2.7488  4.5675 -0.6654
  116SOL     OW  346   0.143   1.611   1.965  0.6114 -0.1129 -0.5519
  116SOL    HW1  347   0.135   1.547   1.890  1.4698  3.2575  0.6076
  116SOL    HW2  348   0.068   1.680   1.962 -1.5926  1.1154 -0.3360
  117SOL     OW  349   2.719   3.006   0.859 -0.0695 -0.2582  0.1143
  117SOL    HW1  350   2.663   2.923   0.855  0.9663  1.7948  0.8052
  117SOL    HW2  351   2.739   3.043   0.770  2.6278  0.1592  1.8798
  118SOL     OW  352   0.526   2.144   1.672 -0.1483  0.0420  0.0521
  118SOL    HW1  353   0.456   2.177   1.736  1.8114 -0.3401  0.5246
  118SOL    HW2  354   0.526   2.204   1.589 -0.6282 -2.3679  1.2946
  119SOL     OW  355   1.689   2.040   0.470  0.0076  0.2207 -0.6575
  119SOL    HW1  356   1.664   1.943   0.448  0.6847  0.1518  0.6302
  119SOL    HW2  357   1.790   2.060   0.456  0.3369 -0.2912 -1.4684
  120SOL     OW  358   3.037   2.023   2.360  0.2510 -0.1863 -0.0719
  120SOL    HW1  359   0.038   2.002   2.380  1.7496 -1.2314 -1.2740
  120SOL    HW2  360   3.012   2.116   2.397 -1.4508 -0.6692  1.6043
  121SOL     OW  361   2.164   2.007   1.408 -0.5589 -0.5994  0.5739
  121SOL    HW1  362   2.086   1.947   1.384 -0.1232 -0.5682 -0.7603
  121SOL    HW2  363   2.130   2.104   1.411  1.2418 -0.1166 -0.0783
  122SOL     OW  364   2.185   1.760   2.236  0.2383 -0.3523  0.4968
  122SOL    HW1  365   2.282   1.773   2.268  4.2507  2.5835  1.0967
  122SOL    HW2  366   2.116   1.797   2.304 -0.9046  0.7343 -0.6838
  123SOL     OW  367   0.154   2.923   0.763 -0.0283  0.1151  0.3389
  123SOL    HW1  368   0.089   2.980   0.706 -0.5468 -2.1717 -0.6090
  123SOL    HW2  369   0.103   2.838   0.786 -0.0736 -2.5700  0.9112
  124SOL     OW  370   1.649   0.714   2.431  0.2451  0.2489 -0.7691
  124SOL    HW1  371   1.728   0.764   2.394  0.1237 -0.5626  0.2735
  124SOL    HW2  372   1.589   0.787   2.466  1.8411  0.0120  2.6427
  125SOL     OW  373   0.637   1.476   3.052  0.0660  0.0466 -0.1409
  125SOL    HW1  374   0.663   1.571   3.028  2.3546  1.9324  1.1145
  125SOL    HW2  375   0.542   1.458   3.040  3.0746  0.1340  0.8769
  126SOL     OW  376   2.574   1.968   0.355 -0.2416 -0.2782  0.1395
  126SOL    HW1  377   2.520   2.048   0.318 -0.8700 -1.6510 -0.4913
  126SOL    HW2  378   2.549   1.964   0.453  1.0334  0.6980 -2.7864
  127SOL     OW  379   0.449   1.677   1.244  0.3011  0.0028  0.0926
  127SOL    HW1  380   0.437   1.779   1.238  1.1720  0.5890 -0.2645
  127SOL    HW2  381   0.431   1.631   1.154  1.7768 -0.9697 -1.1022
  128SOL     OW  382   0.924   0.709   0.074  0.1310  0.1082 -0.1944
  128SOL    HW1  383   0.920   0.703   3.068  0.2637 -4.2805  2.5951
  128SOL    HW2  384   0.997   0.773   0.110 -1.1348  0.3501 -3.8829
  129SOL     OW  385   2.233   1.446   0.800  0.0764 -0.0537  0.2303
  129SOL    HW1  386   2.151   1.421   0.747 -1.8651 -1.6296 -0.0094
  129SOL    HW2  387   2.256   1.368   0.860  0.1270 -2.2263 -0.5252
  130SOL     OW  388   2.288   1.695   1.066  0.2045 -0.0190  0.3791
  130SOL    HW1  389   2.330   1.782   1.097  2.3852 -2.1789 -0.3939
  130SOL    HW2  390   2.186   1.700   1.049  0.4230 -0.8669  0.8968
  131SOL     OW  391   2.758   1.129   2.772  0.2186  0.1980  0.0259
  131SOL    HW1  392   2.696   1.109   2.852 -1.5774  0.9573  0.2551
  131SOL    HW2  393   2.846   1.080   2.791 -1.6664 -1.2935  0.0631
  132SOL     OW  394   2.708   1.539   1.770 -0.1441 -0.1230  0.4185
  132SOL    HW1  395   2.730   1.615   1.830 -1.6123 -0.2039 -1.6400
  132SOL    HW2  396   2.770   1.459   1.771 -0.5506  0.7637 -1.2212
  133SOL     OW  397   2.995   0.633   0.220 -0.3030  0.0381  0.7567
  133SOL    HW1  398   2.955   0.540   0.206  1.8560 -2.5279  1.0730
  133SOL    HW2  399   3.042   0.639   0.310 -0.5936 -0.3645 -0.6767
  134SOL     OW  400   0.368   1.085   0.036  0.0932  0.2955  0.0710
  134SOL    HW1  401   0.284   1.135   0.055  3.2236 -0.2304  0.6331
  134SOL    HW2  402   0.357   1.022   3.050 -1.1171 -0.4749 -2.7878
  135SOL     OW  403   2.259   1.755   0.785 -0.0254  0.0201 -0.1770
  135SOL    HW1  404   2.279   1.736   0.881 -1.0354 -2.1811 -1.3150
  135SOL    HW2  405   2.183   1.692   0.744  0.1980 -1.9279 -1.1838
  136SOL     OW  406   2.023   1.327   1.077 -0.0412 -0.8444  0.8407
  136SOL    HW1  407   2.059   1.311   1.169 -0.2625  1.3534 -2.5445
  136SOL    HW2  408   2.097   1.305   1.011 -0.7180  0.1311 -2.0201
  137SOL     OW  409   2.486   1.496   0.734 -0.1728  0.1871 -0.1059
  137SOL    HW1  410   2.390   1.478   0.742  0.0739 -0.9596  0.4227
  137SOL    HW2  411   2.516   1.547   0.816 -0.2296  0.3521  4.2778
  138SOL     OW  412   1.174   0.290   1.687 -0.2674 -0.3070  0.0785
  138SOL    HW1  413   1.222   0.349   1.618  0.6983  1.7123  0.2731
  138SOL    HW2  414   1.147   0.199   1.641 -3.0430 -2.2388 -0.3234
  139SOL     OW  415   2.073   0.090   0.120 -0.6585 -0.0965 -0.2316
  139SOL    HW1  416   2.073   0.149   0.037  1.9586 -2.2223 -0.2682
  139SOL    HW2  417   2.057   0.144   0.209 -0.3655 -0.2881  1.4226
  140SOL     OW  418   1.523   2.170   2.494  0.0875  0.2730 -0.3042
  140SOL    HW1  419   1.428   2.163   2.453 -1.7546 -0.5708 -2.0820
  140SOL    HW2  420   1.600   2.138   2.429  1.7808 -3.4788 -3.4147
  141SOL     OW  421   0.899   1.114   1.746 -0.1501  0.5155  0.4004
  141SOL    HW1  422   0.941   1.194   1.793 -0.4516 -2.1485  0.2923
  141SOL    HW2  423   0.976   1.054   1.714 -2.1013  0.4655 -2.3822
  142SOL     OW  424   2.662   0.263   3.015  0.0574 -0.0782 -0.2307
  142SOL    HW1  425   2.587   0.312   3.072 -3.7581  1.2051  0.8159
  142SOL    HW2  426   2.691   0.183   3.063 -1.3691  1.6043  1.3230
  143SOL     OW  427   0.976   2.373   2.894 -0.1010  0.1807  0.3027
  143SOL    HW1  428   1.007   2.420   2.972 -2.3407 -2.6413 -5.1116
  143SOL    HW2  429   1.004   2.430   2.816  1.4707 -2.0228 -0.8472
  144SOL     OW  430   1.094   2.748   2.467  0.4655 -0.3183  0.0828
  144SOL    HW1  431   1.097   2.660   2.519  0.4740 -3.1438 -1.0881
  144SOL    HW2  432   1.183   2.797   2.471 -0.0480 -0.8812 -1.6028
  145SOL     OW  433   2.497   1.501   0.046 -0.8739  0.3840 -0.1200
  145SOL    HW1  434   2.570   1.433   0.041 -1.1573  3.1448 -1.4154
  145SOL    HW2  435   2.527   1.597   0.059 -1.3570 -1.6277 -0.5040
  146SOL     OW  436   2.693   2.955   3.016 -0.2153 -0.6480 -0.1300
  146SOL    HW1  437   2.682   3.029   3.084 -1.6202 -1.2404  0.2748
  146SOL    HW2  438   2.785   2.914   3.019  1.0615  2.5409 -0.9090
  147SOL     OW  439   2.356   2.292   1.139 -0.1489  0.6764 -0.7892
  147SOL    HW1  440   2.283   2.360   1.164 -1.1313 -0.0027  0.4239
  147SOL    HW2  441   2.385   2.225   1.216 -1.7250 -4.8144  1.8120
  148SOL     OW  442   1.724   0.045   0.134 -0.3783  0.2217 -0.2929
  148SOL    HW1  443   1.732   0.108   0.217  0.8023  0.3141  1.6557
  148SOL    HW2  444   1.736   0.095   0.047 -1.1044  0.2106  0.1418
  149SOL     OW  445   1.082   1.461   2.773 -0.1016  0.0355  0.5581
  149SOL    HW1  446   1.180   1.433   2.751  1.0568  0.1270 -0.6675
  149SOL    HW2  447   1.038   1.489   2.684  1.2056 -1.4943  1.1091
  150SOL     OW  448   0.778   2.720   0.555 -0.4443 -0.1208 -0.0110
  150SOL    HW1  449   0.877   2.687   0.561 -1.0930 -2.1724 -1.5151
  150SOL    HW2  450   0.742   2.676   0.473 -0.7989 -1.0127  0.0303
  151SOL     OW  451   0.409   1.872   2.934  0.1164 -1.1280 -0.0653
  151SOL    HW1  452   0.358   1.902   2.849  0.6337  0.1796  0.0256
  151SOL    HW2  453   0.497   1.830   2.907 -0.9490  1.7670 -1.6473
  152SOL     OW  454   2.915   1.014   0.430 -0.7253  0.0136 -0.2478
  152SOL    HW1  455   2.990   0.978   0.491 -3.1631  0.2236  2.7706
  152SOL    HW2  456   2.836   0.955   0.444  0.9805 -1.5528  0.4139
  153SOL     OW  457   2.354   2.509   3.046  0.1908  0.9144  0.0618
  153SOL    HW1  458   2.339   2.463   0.043 -3.3149 -0.2498 -0.7761
  153SOL    HW2  459   2.403   2.596   3.045 -1.3400  0.7720 -0.7672
  154SOL     OW  460   0.584   2.991   1.244 -0.0539  0.4307  0.5359
  154SOL    HW1  461   0.656   2.921   1.251 -1.0118  0.6694  1.2497
  154SOL    HW2  462   0.490   2.949   1.241  1.3043 -0.3251 -0.8011
  155SOL     OW  463   0.392   1.932   1.173  0.3137 -0.0577 -0.2245
  155SOL    HW1  464   0.367   1.957   1.081 -0.3676 -0.7478  2.9440
  155SOL    HW2  465   0.318   1.964   1.238  2.7946 -0.6056  0.5271
  156SOL     OW  466   2.374   2.320   2.832 -0.1235  0.5786 -0.2368
  156SOL    HW1  467   2.422   2.244   2.879  1.4997  2.7829  1.4607
  156SOL    HW2  468   2.378   2.399   2.894  0.2037 -2.1768 -0.4614
  157SOL     OW  469   0.976   2.346   1.066 -0.5623 -0.4680  0.4033
  157SOL    HW1  470   0.879   2.332   1.066  3.9750  0.4802  0.2354
  157SOL    HW2  471   1.000   2.342   1.161 -1.9779  0.1114 -2.2951
  158SOL     OW  472   1.844   0.892   2.734 -0.2130  0.1448  0.5449
  158SOL    HW1  473   1.840   0.792   2.714  1.4067 -1.0899  1.7833
  158SOL    HW2  474   1.752   0.932   2.704 -1.2084  1.9243 -2.4008
  159SOL     OW  475   0.950   0.448   2.424 -0.5966 -0.3958 -0.0898
  159SOL    HW1  476   0.979   0.530   2.368 -2.6903 -1.6582 -0.5061
  159SOL    HW2  477   1.022   0.394   2.464 -0.1811 -2.3666 -1.0255
  160SOL     OW  478   1.176   1.871   0.450 -0.1005 -0.4013  0.4621
  160SOL    HW1  479   1.180   1.974   0.434  0.2047  1.1674  3.2022
  160SOL    HW2  480   1.162   1.824   0.362  1.1131  1.1807  0.5445
  161SOL     OW  481   0.005   2.185   3.063 -0.5130 -0.1842 -0.1517
  161SOL    HW1  482   0.026   2.082   3.063  1.3534 -2.5125  1.2670
  161SOL    HW2  483   3.079   2.213   0.061  1.0126  0.5052 -0.1344
  162SOL     OW  484   0.645   2.646   1.030 -0.1227 -0.4960  0.0426
  162SOL    HW1  485   0.711   2.663   0.959 -2.5083 -0.6429 -1.3436
  162SOL    HW2  486   0.675   2.686   1.120  0.5512  0.6005  0.5434
  163SOL     OW  487   2.522   0.875   3.093  0.5858 -0.3054  0.0650
  163SOL    HW1  488   2.457   0.880   3.013 -0.5814  0.8161 -0.1263
  163SOL    HW2  489   2.552   0.777   0.009  0.0725  0.4879 -0.3775
  164SOL     OW  490   0.070   2.834   0.071 -0.2321  0.0270  0.7887
  164SOL    HW1  491   0.118   2.740   0.071  0.5874 -1.2179  0.5776
  164SOL    HW2  492   0.141   2.903   0.045 -0.3215  1.2255  1.8520
  165SOL     OW  493   2.114   0.485   1.324  0.0696  0.3137 -0.4218
  165SOL    HW1  494   2.074   0.453   1.413 -1.5682 -1.5357  0.1516
  165SOL    HW2  495   2.181   0.560   1.331  1.3624  1.7419  0.1187
  166SOL     OW  496   2.021   0.048   1.022  0.1248 -0.1980  0.0529
  166SOL    HW1  497   2.078   0.128   0.993  1.6569  1.6604 -2.4231
  166SOL    HW2  498   2.042   3.069   0.958  0.9082  0.3537  2.3767
  167SOL     OW  499   0.442   0.630   1.837  0.4095 -0.1074  0.1846
  167SOL    HW1  500   0.383   0.543   1.840 -1.5694 -0.2708  0.8211
  167SOL    HW2  501   0.416   0.701   1.906 -2.0656  4.0135  0.2251
  168SOL     OW  502   2.796   3.095   2.211 -0.6047 -0.5474 -0.0142
  168SOL    HW1  503   2.722   0.063   2.183  0.8534  0.6512  1.2723
  168SOL    HW2  504   2.867   3.076   2.137 -0.2137 -1.7131 -0.9130
  169SOL     OW  505   0.015   1.414   0.415  0.3443  0.3128 -0.0354
  169SOL    HW1  506   0.081   1.338   0.410  0.9495 -1.5828 -0.1753
  169SOL    HW2  507   3.028   1.372   0.466  0.3784  1.1878  1.6343
  170SOL     OW  508   0.003   0.896   1.634  0.2958  0.2753 -0.4441
  170SOL    HW1  509   0.103   0.917   1.652 -2.5013 -0.7143  0.3045
  170SOL    HW2  510   3.090   0.793   1.630  1.7306 -0.4678 -0.0129
  171SOL     OW  511   1.194   2.001   1.876  0.3445 -0.3385  0.2610
  171SOL    HW1  512   1.167   2.066   1.947 -1.1018 -0.1351  0.1699
  171SOL    HW2  513   1.111   1.957   1.833  0.4068  0.0667 -1.1039
  172SOL     OW  514   0.536   2.329   1.466  0.2285  0.3371 -0.7125
  172SOL    HW1  515   0.576   2.417   1.444  0.4304  0.8694  0.4290
  172SOL    HW2  516   0.512   2.283   1.379  0.1765  0.8105 -1.8283
  173SOL     OW  517   1.179   0.049   0.456 -0.4358 -0.0946 -0.4746
  173SOL    HW1  518   1.098   3.083   0.471 -2.0844 -0.6881  0.7985
  173SOL    HW2  519   1.267   0.015   0.493 -0.8452  0.6205 -1.0960
  174SOL     OW  520   0.652   2.828   0.128 -0.0691  0.1494  0.0825
  174SOL    HW1  521   0.552   2.823   0.109  2.9140  0.9658 -0.7157
  174SOL    HW2  522   0.677   2.917   0.165 -1.3134  0.2449 -2.8942
  175SOL     OW  523   1.206   1.006   2.931 -0.1694 -0.1642 -0.0369
  175SOL    HW1  524   1.257   1.056   3.009  2.3600 -3.3176  5.1203
  175SOL    HW2  525   1.137   1.068   2.885  0.4336 -0.2469  0.3843
  176SOL     OW  526   1.471   0.425   0.098 -0.0328  0.1141 -0.0617
  176SOL    HW1  527   1.413   0.406   0.015  0.2164  0.8716 -1.1555
  176SOL    HW2  528   1.422   0.478   0.166  2.4415 -1.2718 -0.4934
  177SOL     OW  529   1.296   1.144   0.853 -0.4792  0.4608  0.1525
  177SOL    HW1  530   1.199   1.174   0.841  0.1915  1.0564  1.6267
  177SOL    HW2  531   1.349   1.195   0.784  1.1199 -2.2716  3.7379
  178SOL     OW  532   2.808   1.805   2.563  0.0140  0.4089 -0.3228
  178SOL    HW1  533   2.836   1.714   2.591 -1.5399 -0.2370 -0.9038
  178SOL    HW2  534   2.825   1.818   2.464  1.8170 -1.2192 -1.3634
  179SOL     OW  535   0.468   3.091   2.840  0.6025  0.3324 -0.2117
  179SOL    HW1  536   0.394   0.047   2.881  0.8966  1.2162  0.3389
  179SOL    HW2  537   0.553   3.094   2.896 -1.3017 -1.0382 -2.2516
  180SOL     OW  538   1.826   1.456   1.444  0.5600 -0.4106  0.0343
  180SOL    HW1  539   1.876   1.369   1.423 -0.6489  2.9795  1.9021
  180SOL    HW2  540   1.888   1.530   1.478 -1.5172 -0.1289 -1.0020
  181SOL     OW  541   1.189   1.394   2.219  0.5170 -0.1517 -0.2526
  181SOL    HW1  542   1.138   1.308   2.218 -0.5266  0.6850  2.6870
  181SOL    HW2  543   1.250   1.394   2.299 -0.6431 -2.3246 -1.1980
  182SOL     OW  544   3.031   0.782   2.886 -0.0632 -0.0461 -0.2571
  182SOL    HW1  545   3.041   0.873   2.839 -0.9132 -3.0462  1.0447
  182SOL    HW2  546   2.982   0.793   2.977 -2.2602  2.9915  0.8972
  183SOL     OW  547   1.574   3.076   2.519 -0.3121 -0.1632  0.1091
  183SOL    HW1  548   1.643   3.055   2.592 -1.3918  1.9560  2.5748
  183SOL    HW2  549   1.608   3.048   2.425  0.8572 -1.0111 -2.2423
  184SOL     OW  550   0.565   0.479   1.566  0.3314 -0.1380  0.1920
  184SOL    HW1  551   0.550   0.556   1.632 -1.7782  3.1209  1.7383
  184SOL    HW2  552   0.658   0.485   1.529 -2.3485  1.8352  0.1849
  185SOL     OW  553   2.623   1.268   0.840 -0.0561  0.0490 -0.3871
  185SOL    HW1  554   2.584   1.353   0.807 -4.4374 -1.6181  2.2102
  185SOL    HW2  555   2.702   1.286   0.898  3.0102 -1.4076 -3.2066
  186SOL     OW  556   0.233   2.190   2.892  0.2991  0.2764  0.1369
  186SOL    HW1  557   0.303   2.247   2.941 -1.2697 -2.8041 -1.0299
  186SOL    HW2  558   0.151   2.172   2.954 -3.3728 -1.0432 -1.5297
  187SOL     OW  559   2.689   1.311   0.045  0.4279  0.3169 -0.4794
  187SOL    HW1  560   2.781   1.338   0.085  2.5817  1.1007 -0.0674
  187SOL    HW2  561   2.692   1.208   0.029  1.8235  1.2623 -1.9117
  188SOL     OW  562   0.472   1.983   0.575 -0.3102 -0.0157  0.6121
  188SOL    HW1  563   0.572   2.002   0.557  2.5422  0.8511  1.0865
  188SOL    HW2  564   0.413   1.969   0.495 -1.6753  0.3470 -0.8344
  189SOL     OW  565   2.549   0.942   0.251 -0.3362  0.3724  0.0219
  189SOL    HW1  566   2.544   0.927   0.148  1.0407 -0.5798  0.3684
  189SOL    HW2  567   2.574   1.044   0.267  0.9427  1.0667  1.7144
  190SOL     OW  568   1.244   1.633   2.096 -0.8749  0.5167  0.3387
  190SOL    HW1  569   1.206   1.540   2.127 -0.6966  0.8092  0.9214
  190SOL    HW2  570   1.174   1.688   2.038 -2.7768  2.7872 -0.9182
  191SOL     OW  571   2.846   0.484   1.380  0.4330  0.9134  0.1919
  191SOL    HW1  572   2.756   0.538   1.368 -1.4149  3.2496 -0.5740
  191SOL    HW2  573   2.841   0.433   1.468  3.6298 -1.2716  0.9658
  192SOL     OW  574   2.255   0.330   1.921 -0.4215 -0.2749  0.1609
  192SOL    HW1  575   2.214   0.235   1.918 -0.5009 -2.0134  3.0951
  192SOL    HW2  576   2.290   0.355   2.014 -1.9418  2.7477  0.3820
  193SOL     OW  577   0.502   0.633   0.507 -0.2792 -0.3592  0.2448
  193SOL    HW1  578   0.459   0.635   0.603  1.2976 -0.9024  1.9519
  193SOL    HW2  579   0.548   0.719   0.481 -0.2370  0.6184 -1.8662
  194SOL     OW  580   1.345   2.450   1.696  0.4087 -1.1043 -0.0497
  194SOL    HW1  581   1.321   2.352   1.695 -0.1607 -2.5481 -2.0886
  194SOL    HW2  582   1.430   2.464   1.637 -0.5491 -2.0035 -0.3977
  195SOL     OW  583   2.241   0.567   0.784  0.2693  0.0918 -0.2456
  195SOL    HW1  584   2.287   0.656   0.771 -0.3778  0.4838 -0.0701
  195SOL    HW2  585   2.143   0.586   0.808 -3.7372 -1.0437  1.5803
  196SOL     OW  586   1.816   1.936   1.948  0.4606 -0.3220  0.2215
  196SOL    HW1  587   1.784   1.839   1.938 -0.5936  1.3683  2.4714
  196SOL    HW2  588   1.750   1.995   1.893 -1.5398 -1.9348 -1.4438
  197SOL     OW  589   0.450   0.250   0.037  0.0361  0.1733 -0.4098
  197SOL    HW1  590   0.424   0.154   0.073 -0.9342 -1.8936  2.3147
  197SOL    HW2  591   0.375   0.286   3.073  1.9932  1.1008 -0.2400
  198SOL     OW  592   1.026   1.195   0.834 -0.1613  0.1103 -0.5016
  198SOL    HW1  593   0.991   1.213   0.739 -1.0696 -1.3829  4.0664
  198SOL    HW2  594   1.025   1.280   0.888 -0.1159  0.7497 -0.6974
  199SOL     OW  595   2.517   0.793   1.908 -0.1147  0.6881  0.1075
  199SOL    HW1  596   2.572   0.719   1.935 -3.0203  5.3604  0.5482
  199SOL    HW2  597   2.568   0.878   1.910  0.8935  0.0273  0.5091
  200SOL     OW  598   2.716   2.577   2.173  0.2875  0.0554  0.3280
  200SOL    HW1  599   2.772   2.662   2.154  0.3411 -0.4262  1.0914
  200SOL    HW2  600   2.674   2.583   2.265 -3.8294 -0.8728 -0.9829
  201SOL     OW  601   2.734   0.238   1.230 -0.0517 -0.5598 -0.3373
  201SOL    HW1  602   2.749   0.336   1.254  1.3871 -0.1506 -0.2668
  201SOL    HW2  603   2.730   0.221   1.128 -0.2969 -0.1360  0.1823
  202SOL     OW  604   1.908   0.267   0.587 -0.2909  0.0122 -0.3753
  202SOL    HW1  605   1.816   0.229   0.615 -1.9894 -1.8473  1.1588
  202SOL    HW2  606   1.982   0.200   0.612  2.5658 -1.6778 -0.8545
  203SOL     OW  607   1.702   1.746   2.199  0.2046 -0.2345  0.0728
  203SOL    HW1  608   1.625   1.679   2.183 -0.5358 -1.5310  0.7807
  203SOL    HW2  609   1.696   1.790   2.291  0.9393  1.2678  0.1283
  204SOL     OW  610   0.788   1.658   2.164  0.3683 -0.6045 -1.0000
  204SOL    HW1  611   0.860   1.589   2.149 -0.7850  0.3291  0.7444
  204SOL    HW2  612   0.831   1.733   2.223  2.7866  0.7295  0.6119
  205SOL     OW  613   0.821   1.779   1.559  0.4024 -0.1002  0.0527
  205SOL    HW1  614   0.823   1.711   1.638  2.5915  0.8947  1.8311
  205SOL    HW2  615   0.726   1.802   1.532  1.0248 -0.1051 -1.0629
  206SOL     OW  616   2.945   0.463   3.023  0.4735  0.1659 -0.0055
  206SOL    HW1  617   3.033   0.519   3.021  0.3195 -0.2378  0.7053
  206SOL    HW2  618   2.876   0.513   2.972 -0.6318 -0.7693 -0.7287
  207SOL     OW  619   1.762   2.659   1.938  0.5715 -0.1536  0.4047
  207SOL    HW1  620   1.821   2.741   1.953  4.0889  1.6965 -1.0309
  207SOL    HW2  621   1.819   2.580   1.911 -1.5104 -0.2680  1.1490
  208SOL     OW  622   0.574   2.169   1.188 -0.2450 -0.5886  0.0482
  208SOL    HW1  623   0.509   2.105   1.134 -0.8665 -1.8701 -2.3937
  208SOL    HW2  624   0.640   2.227   1.130  1.6617  0.9612  0.1272
  209SOL     OW  625   1.510   1.267   2.237  0.2455  0.4263 -0.4054
  209SOL    HW1  626   1.494   1.308   2.144 -2.5479  1.5711 -1.1055
  209SOL    HW2  627   1.455   1.315   2.305  0.6994 -2.3429  1.2667
  210SOL     OW  628   1.905   0.802   1.215  0.3946 -0.6426  0.3001
  210SOL    HW1  629   1.925   0.841   1.123 -2.3060 -0.5660 -0.7102
  210SOL    HW2  630   1.830   0.732   1.207 -1.3453 -1.2357 -0.7152
  211SOL     OW  631   0.708   0.001   0.480  0.2718  0.2652 -0.5606
  211SOL    HW1  632   0.699   0.001   0.381 -0.1769 -1.9325  2.1271
  211SOL    HW2  633   0.674   0.091   0.518 -0.8588  1.5790 -0.2740
  212SOL     OW  634   1.771   1.474   0.148  0.0748 -0.6229  0.2658
  212SOL    HW1  635   1.753   1.567   0.098  1.8588  2.3341 -0.7276
  212SOL    HW2  636   1.858   1.431   0.111 -0.3759 -1.7127  1.2124
  213SOL     OW  637   1.416   0.201   2.620  0.3117 -0.0438 -0.4924
  213SOL    HW1  638   1.473   0.129   2.579  1.7096  1.7805  0.6608
  213SOL    HW2  639   1.433   0.207   2.718  0.3205 -2.5232 -2.1457
  214SOL     OW  640   1.487   1.593   2.188  0.4128 -0.2112  0.0303
  214SOL    HW1  641   1.491   1.612   2.289  0.3574 -0.0657 -0.0738
  214SOL    HW2  642   1.394   1.618   2.153 -0.7279  3.8376 -0.3870
  215SOL     OW  643   0.717   1.836   0.298  0.2048 -0.3184 -0.1366
  215SOL    HW1  644   0.731   1.935   0.282 -0.3600  1.7468  1.2321
  215SOL    HW2  645   0.772   1.810   0.381  1.2218  0.7604  0.2196
  216SOL     OW  646   0.484   2.935   2.356 -0.0607 -0.1268 -0.4256
  216SOL    HW1  647   0.559   3.006   2.366 -1.1138 -0.6918 -1.7208
  216SOL    HW2  648   0.399   2.981   2.318 -0.2374  1.9067 -1.3221
  217SOL     OW  649   2.377   1.044   0.819 -0.4264 -0.1547 -0.1892
  217SOL    HW1  650   2.450   1.085   0.763  0.2290  0.1919  0.4142
  217SOL    HW2  651   2.295   1.024   0.763  0.6206 -1.4582 -2.1859
  218SOL     OW  652   1.851   1.666   1.837  0.4076 -0.4091  0.1841
  218SOL    HW1  653   1.868   1.634   1.932 -1.1563  1.0131 -2.2391
  218SOL    HW2  654   1.812   1.586   1.792  0.9197 -0.0258  0.1287
  219SOL     OW  655   1.839   1.236   3.063 -0.4752  0.2704  0.2999
  219SOL    HW1  656   1.859   1.255   2.964 -1.6498  1.4859 -0.0971
  219SOL    HW2  657   1.747   1.264   3.084 -0.0448 -0.0282  0.7881
  220SOL     OW  658   1.378   1.510   1.105 -0.5352 -0.2485 -0.0152
  220SOL    HW1  659   1.387   1.607   1.102  1.5911 -2.3877 -0.2182
  220SOL    HW2  660   1.463   1.461   1.063  0.2991  0.3302 -1.4022
  221SOL     OW  661   0.918   0.657   2.896  0.1768 -0.8751  0.1936
  221SOL    HW1  662   0.922   0.753   2.857 -3.3536  1.0836  0.9422
  221SOL    HW2  663   0.850   0.597   2.846 -1.0666 -2.0126 -1.4942
  222SOL     OW  664   0.765   1.426   0.973  0.8514 -0.5722  0.4968
  222SOL    HW1  665   0.728   1.454   0.876 -0.8904  1.0112 -1.9368
  222SOL    HW2  666   0.741   1.500   1.041 -0.0316 -0.2520 -1.4795
  223SOL     OW  667   0.946   3.050   2.972  0.5389  0.1349 -0.0442
  223SOL    HW1  668   0.976   3.001   2.891 -0.3371 -1.2362 -0.4716
  223SOL    HW2  669   0.854   3.088   2.957 -1.4370  0.7717 -1.7704
  224SOL     OW  670   2.541   0.156   1.420 -0.1502  0.1161  0.3526
  224SOL    HW1  671   2.529   0.058   1.444  2.8725  2.6895  0.1064
  224SOL    HW2  672   2.589   0.171   1.331 -0.7621  0.4063 -1.3010
  225SOL     OW  673   0.937   0.445   1.482 -0.1016  0.3092 -0.0130
  225SOL    HW1  674   1.006   0.433   1.411 -1.0820  0.7051  1.5761
  225SOL    HW2  675   0.967   0.518   1.548 -1.8209  0.3605  0.1477
  226SOL     OW  676   1.494   1.727   2.823 -0.3378 -0.0462  0.0648
  226SOL    HW1  677   1.470   1.808   2.771  0.4552 -2.7120  3.8557
  226SOL    HW2  678   1.425   1.693   2.891 -0.1443  1.0493  1.2873
  227SOL     OW  679   1.269   1.903   1.376 -0.2813 -0.0739  0.1219
  227SOL    HW1  680   1.254   1.805   1.412  2.4970 -0.8539  2.1766
  227SOL    HW2  681   1.196   1.971   1.413  2.9475  0.2353 -0.8143
  228SOL     OW  682   0.382   1.604   0.529 -0.2468 -0.6690 -0.0338
  228SOL    HW1  683   0.284   1.633   0.527 -1.0858 -1.0362  2.5361
  228SOL    HW2  684   0.399   1.549   0.611  1.2968  2.0602  0.3010
  229SOL     OW  685   1.271   0.330   3.041  0.3221  0.3911  0.0557
  229SOL    HW1  686   1.236   0.406   2.980  2.7359  0.4592  1.6647
  229SOL    HW2  687   1.348   0.280   2.998  1.3610  1.9540 -0.9801
  230SOL     OW  688   1.277   0.619   2.209  0.1736 -0.2527 -0.7438
  230SOL    HW1  689   1.282   0.579   2.116  0.5592 -0.6063 -0.0946
  230SOL    HW2  690   1.187   0.591   2.246 -3.4789  2.4390 -1.6793
  231SOL     OW  691   0.935   1.866   2.316  0.1195  0.3104  0.1171
  231SOL    HW1  692   0.968   1.848   2.416  0.8962  0.3337  0.5710
  231SOL    HW2  693   0.923   1.964   2.290 -0.0251 -1.6175  1.6153
  232SOL     OW  694   2.422   1.952   1.049  0.1249  0.1319 -0.0140
  232SOL    HW1  695   2.452   2.049   1.036 -0.3056  0.8046 -0.4938
  232SOL    HW2  696   2.494   1.886   1.069 -1.7312 -0.6169 -0.6632
  233SOL     OW  697   2.283   2.892   0.222  0.7356 -0.4786 -0.3843
  233SOL    HW1  698   2.189   2.929   0.236  1.4545 -2.0101  2.7377
  233SOL    HW2  699   2.298   2.856   0.129  1.7166  1.3409  2.8955
  234SOL     OW  700   0.791   0.273   2.782 -0.1315 -0.6976 -0.0458
  234SOL    HW1  701   0.767   0.266   2.882  0.2193 -0.8555  0.1049
  234SOL    HW2  702   0.725   0.224   2.722 -0.5282  0.9909 -1.2507
  235SOL     OW  703   2.299   0.005   2.757 -0.7040  0.0031 -0.2127
  235SOL    HW1  704   2.371   0.076   2.783 -3.6767 -0.7867  1.5876
  235SOL    HW2  705   2.345   3.035   2.690  2.2829 -3.3324 -2.2209
  236SOL     OW  706   2.194   2.415   2.273 -0.1450  0.2468 -0.3194
  236SOL    HW1  707   2.250   2.469   2.339 -1.5706 -0.8018 -0.9132
  236SOL    HW2  708   2.118   2.369   2.326 -0.3246 -0.1925 -4.2512
  237SOL     OW  709   0.938   1.437   2.121 -0.3923 -0.2266  0.0990
  237SOL    HW1  710   0.951   1.458   2.019  2.4256 -0.4973  0.7782
  237SOL    HW2  711   1.024   1.438   2.174 -1.0308 -1.9568  2.7662
  238SOL     OW  712   1.877   0.263   2.378  0.3153 -0.3567  0.4629
  238SOL    HW1  713   1.885   0.168   2.416  2.6589  0.9292 -0.9879
  238SOL    HW2  714   1.892   0.329   2.455 -2.2938  3.2169  2.0671
  239SOL     OW  715   0.298   1.770   1.773 -0.7962 -0.0823  0.3247
  239SOL    HW1  716   0.353   1.681   1.769 -0.3181 -1.8956 -0.5174
  239SOL    HW2  717   0.195   1.750   1.768 -4.5725  0.9076 -0.3116
  240SOL     OW  718   3.095   2.601   0.610 -0.6865  0.0980 -0.1806
  240SOL    HW1  719   0.025   2.500   0.606  2.8472  0.6226  0.5552
  240SOL    HW2  720   3.085   2.637   0.515 -0.7997 -0.7120 -1.5381
  241SOL     OW  721   2.063   1.678   0.605  0.2532  0.2181 -0.7185
  241SOL    HW1  722   2.099   1.608   0.537 -0.2303 -3.6646 -0.6472
  241SOL    HW2  723   2.011   1.752   0.554 -0.0272 -1.8612  0.5617
  242SOL     OW  724   1.394   1.981   2.714  0.1978  0.0760  0.5985
  242SOL    HW1  725   1.408   2.040   2.633 -0.9624  0.1611 -1.8256
  242SOL    HW2  726   1.327   2.020   2.779  0.0703  0.9867 -2.8014
  243SOL     OW  727   0.684   2.619   2.486  0.3267  0.0400  0.4544
  243SOL    HW1  728   0.621   2.628   2.406 -3.1378  0.3048 -1.0915
  243SOL    HW2  729   0.676   2.703   2.548  0.7586  0.5324 -0.5696
  244SOL     OW  730   2.093   0.198   2.730 -0.3192 -0.3634 -0.0426
  244SOL    HW1  731   2.022   0.143   2.679 -0.3616  1.6862  0.2721
  244SOL    HW2  732   2.183   0.148   2.733  1.4232 -0.8950  3.5743
  245SOL     OW  733   1.592   2.777   0.773 -0.3548  0.2954  0.1488
  245SOL    HW1  734   1.625   2.860   0.823  1.2512  1.4928 -0.2159
  245SOL    HW2  735   1.491   2.766   0.796 -1.5821  1.2034  0.9032
  246SOL     OW  736   1.370   2.672   0.377 -0.1668 -0.0530  0.0955
  246SOL    HW1  737   1.465   2.643   0.358  1.8689  1.2579  3.9355
  246SOL    HW2  738   1.334   2.742   0.316 -0.0738  4.4959 -1.4656
  247SOL     OW  739   1.001   0.591   2.211  0.1690  0.3841  0.1787
  247SOL    HW1  740   0.942   0.670   2.184 -2.5068  1.3683  0.9168
  247SOL    HW2  741   0.987   0.511   2.152 -1.8380 -1.9278 -0.8766
  248SOL     OW  742   0.554   1.488   2.122  0.0196 -0.0501 -0.1294
  248SOL    HW1  743   0.616   1.424   2.175  3.0530 -0.0634 -0.5121
  248SOL    HW2  744   0.602   1.576   2.098 -2.5516 -2.6775 -1.0864
  249SOL     OW  745   2.152   0.583   0.228  0.9354 -0.1654 -0.3368
  249SOL    HW1  746   2.212   0.550   0.305 -0.6985  1.2744 -1.5258
  249SOL    HW2  747   2.056   0.577   0.264  0.4046  0.0505  0.9909
  250SOL     OW  748   0.631   0.189   0.843  0.7485 -0.1841  0.2586
  250SOL    HW1  749   0.613   0.088   0.836 -0.8719 -0.7093  0.4030
  250SOL    HW2  750   0.654   0.223   0.747 -0.5926  3.5623  2.4238
  251SOL     OW  751   1.655   0.412   2.826 -0.0174  0.3312  0.1550
  251SOL    HW1  752   1.713   0.491   2.804 -1.8168 -2.7873  1.7443
  251SOL    HW2  753   1.581   0.397   2.759  2.3777  0.1911  0.1821
  252SOL     OW  754   1.918   1.649   2.074 -0.2999 -0.0484  0.7474
  252SOL    HW1  755   1.995   1.641   2.137 -3.8088 -3.7802 -2.0642
  252SOL    HW2  756   1.830   1.679   2.126  1.3140  0.1202  0.1026
  253SOL     OW  757   2.672   2.283   1.749 -0.0975 -0.5155  0.4591
  253SOL    HW1  758   2.641   2.326   1.836  0.3270  0.0449  0.4757
  253SOL    HW2  759   2.691   2.354   1.669 -1.0873  1.1111 -3.9610
  254SOL     OW  760   0.190   1.406   1.187  0.0803 -0.0952  0.3375
  254SOL    HW1  761   0.141   1.422   1.271  2.4970  1.4601 -3.9435
  254SOL    HW2  762   0.155   1.325   1.144  0.7942  0.9308  2.2557
  255SOL     OW  763   0.772   0.902   1.415 -0.4958 -0.0701 -0.1586
  255SOL    HW1  764   0.702   0.843   1.371 -1.4136 -1.3764 -0.9698
  255SOL    HW2  765   0.779   0.887   1.522  0.1809 -0.9472  2.9451
  256SOL     OW  766   2.072   2.608   1.754 -0.2921  0.1704 -0.2105
  256SOL    HW1  767   2.137   2.672   1.801  0.0081 -1.3418 -1.8092
  256SOL    HW2  768   2.112   2.515   1.731 -0.2323  0.7949  0.5372
  257SOL     OW  769   0.432   2.727   0.008 -0.7407  0.2670  0.3889
  257SOL    HW1  770   0.482   2.707   3.019 -0.4061  1.1250  1.9300
  257SOL    HW2  771   0.416   2.641   0.057  1.8270  0.1799 -2.9439
  258SOL     OW  772   0.790   2.595   0.165 -0.1259 -0.0635 -0.2203
  258SOL    HW1  773   0.735   2.539   0.234 -0.3542 -1.2254  1.2837
  258SOL    HW2  774   0.740   2.675   0.135 -3.0181 -0.7208 -0.3547
  259SOL     OW  775   1.101   0.107   2.215 -0.0536  0.3208  0.5645
  259SOL    HW1  776   1.109   0.087   2.118  0.5101 -0.8795  1.4561
  259SOL    HW2  777   1.191   0.103   2.259 -1.2386  0.0993  2.3833
  260SOL     OW  778   1.795   0.463   1.004 -0.2593  0.4040 -0.1856
  260SOL    HW1  779   1.851   0.412   1.070  0.4811 -1.5517 -1.9611
  260SOL    HW2  780   1.846   0.501   0.927  0.7221 -0.1470  0.7705
  261SOL     OW  781   0.463   0.547   2.427 -0.4512 -0.2113 -0.0135
  261SOL    HW1  782   0.408   0.564   2.513  1.8755  1.6790 -0.8609
  261SOL    HW2  783   0.566   0.560   2.437  0.3173 -0.5366  1.7526
  262SOL     OW  784   0.097   2.434   2.114 -0.3880  0.2016  0.4509
  262SOL    HW1  785   0.008   2.430   2.161  4.8544  0.8089 -1.2200
  262SOL    HW2  786   0.128   2.344   2.082 -2.2591 -0.3714  0.4664
  263SOL     OW  787   2.992   1.616   2.175 -0.0673  0.3969  0.0252
  263SOL    HW1  788   3.034   1.572   2.096 -0.4135  1.8816  2.0385
  263SOL    HW2  789   3.068   1.666   2.223  1.9737 -2.1884 -0.0731
  264SOL     OW  790   0.344   1.080   0.868  0.4307  0.7636  0.2495
  264SOL    HW1  791   0.308   1.164   0.825  0.7822 -0.7996  2.0512
  264SOL    HW2  792   0.271   1.047   0.934 -0.5718 -1.3011  0.2342
  265SOL     OW  793   1.262   2.516   0.729  0.9902  0.2854  0.3073
  265SOL    HW1  794   1.355   2.493   0.703  0.8027  0.2252  3.6712
  265SOL    HW2  795   1.233   2.450   0.800  0.0378  2.0494 -2.7603
  266SOL     OW  796   1.619   0.882   1.048  0.3682 -0.2579  0.6057
  266SOL    HW1  797   1.647   0.788   1.082 -0.7491 -2.0047  0.3639
  266SOL    HW2  798   1.670   0.910   0.965  3.5079 -0.0845  1.1482
  267SOL     OW  799   2.722   1.052   3.060  0.2188 -0.0981 -0.2331
  267SOL    HW1  800   2.807   1.016   0.006 -2.5644 -0.2367 -0.9068
  267SOL    HW2  801   2.646   0.984   3.076 -0.5449 -0.9766  1.9412
  268SOL     OW  802   1.778   0.382   0.144  0.0911  0.4949  0.3719
  268SOL    HW1  803   1.780   0.302   0.210 -2.1741  0.2676 -0.7360
  268SOL    HW2  804   1.682   0.406   0.117  2.6653  0.2925  0.1738
  269SOL     OW  805   2.068   0.994   2.884  0.6946 -0.1068  0.6162
  269SOL    HW1  806   1.975   0.984   2.847  1.4550  0.3736  1.1660
  269SOL    HW2  807   2.120   1.053   2.817 -1.2676 -1.0110  0.5232
  270SOL     OW  808   0.098   0.887   0.040 -0.0285  0.1214 -0.0257
  270SOL    HW1  809   0.151   0.928   3.058  1.1990 -0.1151 -0.1930
  270SOL    HW2  810   0.156   0.817   0.083  1.6583 -1.1410 -0.9524
  271SOL     OW  811   2.671   0.700   0.283  0.5031 -0.2751 -0.2860
  271SOL    HW1  812   2.627   0.793   0.280  0.3513 -0.5206  1.5699
  271SOL    HW2  813   2.727   0.692   0.374  2.0505  0.9652  4.1570
  272SOL     OW  814   0.039   2.473   3.038  0.5412 -0.2713 -0.5268
  272SOL    HW1  815   3.051   2.513   3.006  2.3876 -2.5258  2.4686
  272SOL    HW2  816   0.021   2.375   3.068 -0.9525 -1.5767 -0.1491
  273SOL     OW  817   2.457   0.002   0.263  0.4900  0.1342 -0.0886
  273SOL    HW1  818   2.438   0.026   0.361 -3.2640  1.5948  1.2532
  273SOL    HW2  819   2.398   3.018   0.233 -1.1849  0.7102 -1.3160
  274SOL     OW  820   0.714   2.355   1.032 -0.0732  0.1520  0.3917
  274SOL    HW1  821   0.693   2.449   1.064  0.0508 -0.0001  1.7875
  274SOL    HW2  822   0.692   2.359   0.929 -0.0486  1.0582  0.3058
  275SOL     OW  823   2.779   1.567   0.282 -0.0003  0.0474 -0.0140
  275SOL    HW1  824   2.852   1.502   0.265 -1.3054  0.8347 -0.8733
  275SOL    HW2  825   2.768   1.630   0.203 -0.6247  0.5917  1.0579
  276SOL     OW  826   3.051   1.054   1.937 -0.1335  0.1360 -0.2542
  276SOL    HW1  827   2.980   1.078   2.004 -0.9626 -2.1688  1.6807
  276SOL    HW2  828   3.016   1.045   1.842 -0.7027  3.0081 -0.5684
  277SOL     OW  829   2.291   2.875   1.229  0.2169  0.4457  0.1628
  277SOL    HW1  830   2.226   2.818   1.181  1.2558 -0.0375 -1.2173
  277SOL    HW2  831   2.257   2.968   1.224  1.3956 -0.7431  2.5924
  278SOL     OW  832   1.287   2.418   1.976  0.0296 -0.4869  0.0957
  278SOL    HW1  833   1.328   2.417   1.880  0.9721 -2.0439 -2.7219
  278SOL    HW2  834   1.283   2.511   2.016  1.2210  2.0618  2.8761
  279SOL     OW  835   1.615   1.766   0.447  0.0493  0.1315  0.4489
  279SOL    HW1  836   1.645   1.671   0.435 -0.4044 -0.2274 -1.3946
  279SOL    HW2  837   1.540   1.797   0.391 -1.1560  0.4775 -0.0861
  280SOL     OW  838   0.343   1.566   1.021  0.0208  0.0430  0.0547
  280SOL    HW1  839   0.291   1.648   0.995  1.1416  0.4121  0.6155
  280SOL    HW2  840   0.280   1.507   1.071 -0.5696 -0.2684 -1.5031
  281SOL     OW  841   2.971   0.826   2.350  0.2637  0.2668 -0.3211
  281SOL    HW1  842   3.010   0.743   2.306 -2.2890 -0.7948 -0.2924
  281SOL    HW2  843   3.019   0.849   2.438 -0.6891 -0.4320  1.2168
  282SOL     OW  844   0.668   1.449   0.745  0.3708 -0.5054 -0.2113
  282SOL    HW1  845   0.566   1.453   0.731  0.8507 -2.8410  0.5728
  282SOL    HW2  846   0.717   1.441   0.657 -1.4278  3.1638  0.4636
  283SOL     OW  847   1.979   2.185   0.179 -0.2039 -0.0109  0.3047
  283SOL    HW1  848   1.977   2.288   0.179  0.2372  2.4529  1.1895
  283SOL    HW2  849   1.988   2.145   0.271 -3.0408  0.4620 -2.0159
  284SOL     OW  850   1.131   0.370   0.170 -0.2571  0.4922  0.2131
  284SOL    HW1  851   1.176   0.340   0.086  0.9392  0.0118  3.0649
  284SOL    HW2  852   1.049   0.419   0.161  0.5134 -3.9988 -0.4347
  285SOL     OW  853   2.218   1.198   2.788  0.2347 -0.0644  0.2379
  285SOL    HW1  854   2.289   1.173   2.716  0.5649  1.1817 -0.4857
  285SOL    HW2  855   2.252   1.270   2.852 -0.4839  1.8506 -1.4532
  286SOL     OW  856   1.852   2.372   1.391  0.1160  0.1320 -0.1091
  286SOL    HW1  857   1.780   2.322   1.335  0.8358  4.2663  1.2617
  286SOL    HW2  858   1.829   2.470   1.403  2.3810  0.1633  2.0178
  287SOL     OW  859   0.997   0.802   0.611  0.4381  0.3483 -0.2281
  287SOL    HW1  860   0.937   0.865   0.557 -0.3802 -1.4062 -0.0401
  287SOL    HW2  861   0.994   0.833   0.708  1.5845 -2.0576 -0.9908
  288SOL     OW  862   1.098   2.521   0.017 -0.1777  0.1720 -0.4002
  288SOL    HW1  863   1.147   2.498   0.103 -2.9787 -1.3516  0.3611
  288SOL    HW2  864   1.036   2.600   0.033 -0.6427 -3.2296  0.8821
  289SOL     OW  865   0.035   1.497   1.454 -0.2457  0.5011 -0.1626
  289SOL    HW1  866   0.106   1.568   1.442  1.6002 -1.2490 -1.5254
  289SOL    HW2  867   0.048   1.438   1.535 -1.3424  2.2132  3.6839
  290SOL     OW  868   1.497   2.145   0.865  0.0150 -0.5783 -0.0683
  290SOL    HW1  869   1.459   2.172   0.959 -2.3000 -0.7332  0.3921
  290SOL    HW2  870   1.596   2.128   0.875  0.7639 -0.2737 -1.2637
  291SOL     OW  871   1.854   3.086   2.935  0.5813  0.2157 -0.1234
  291SOL    HW1  872   1.801   0.073   2.914 -0.4523  0.8751  0.5434
  291SOL    HW2  873   1.870   3.081   3.035 -1.5646  0.9782  2.7350
  292SOL     OW  874   0.850   0.414   2.015  0.3910 -0.4658  0.4113
  292SOL    HW1  875   0.917   0.345   1.986 -2.7987  1.6453  0.6714
  292SOL    HW2  876   0.782   0.396   2.088 -1.0516 -0.9206  3.9020
  293SOL     OW  877   2.197   2.296   0.836 -0.3752  0.1559  1.0151
  293SOL    HW1  878   2.117   2.256   0.885  0.6817  0.7000  0.5328
  293SOL    HW2  879   2.265   2.219   0.813  3.9474 -2.7428  2.0868
  294SOL     OW  880   0.466   0.872   2.376  0.0916  0.1831  0.2788
  294SOL    HW1  881   0.380   0.825   2.380 -1.5296  3.3483  1.1773
  294SOL    HW2  882   0.453   0.968   2.343 -1.2748  2.1819 -0.2505
  295SOL     OW  883   1.646   1.488   0.966 -0.1029  0.6646  0.2781
  295SOL    HW1  884   1.680   1.391   0.951  0.6409  0.2157 -2.7396
  295SOL    HW2  885   1.717   1.553   0.934 -0.0985 -2.7436  1.8016
  296SOL     OW  886   2.550   1.770   0.181  0.5201  0.8145  0.0194
  296SOL    HW1  887   2.450   1.784   0.160  2.4958 -0.3680  1.4099
  296SOL    HW2  888   2.583   1.847   0.240  1.0008 -1.3178 -1.9581
  297SOL     OW  889   2.033   2.941   0.261  0.2920  0.1516 -0.0946
  297SOL    HW1  890   1.996   3.013   0.194  0.0149  1.1225 -3.2277
  297SOL    HW2  891   2.040   2.979   0.351 -2.2369 -3.0141 -2.3873
  298SOL     OW  892   0.938   2.698   2.798 -0.1426 -0.4300 -0.0119
  298SOL    HW1  893   0.989   2.634   2.739  0.8019  3.9837  0.0397
  298SOL    HW2  894   0.918   2.780   2.743 -0.7280 -0.7788  0.9817
  299SOL     OW  895   1.092   2.247   2.023 -0.2262  0.3647 -0.0988
  299SOL    HW1  896   1.158   2.321   2.010 -1.5500 -0.0256 -1.7226
  299SOL    HW2  897   1.003   2.260   1.976 -0.8083 -0.8360  0.7523
  300SOL     OW  898   2.476   0.219   2.794  0.2905 -0.0101  0.2144
  300SOL    HW1  899   2.543   0.235   2.869 -0.7934  1.6492  0.9678
  300SOL    HW2  900   2.417   0.296   2.773  3.7515 -1.8177  1.5780
  301SOL     OW  901   1.233   1.150   1.962 -0.3762  0.2475  0.2437
  301SOL    HW1  902   1.277   1.226   1.905  2.2798  1.0980 -1.0219
  301SOL    HW2  903   1.281   1.061   1.957 -1.0800 -1.3588  3.3566
  302SOL     OW  904   2.615   2.716   0.321  0.9770  0.7365 -0.3985
  302SOL    HW1  905   2.624   2.788   0.391 -3.0297 -0.0403  0.5012
  302SOL    HW2  906   2.680   2.640   0.332  1.1907 -1.1544  1.1566
  303SOL     OW  907   2.603   2.468   1.948 -0.0721 -0.2540 -0.0554
  303SOL    HW1  908   2.502   2.467   1.948  0.8848  1.2091  0.8015
  303SOL    HW2  909   2.626   2.515   2.036  1.0322  2.4607 -0.4952
  304SOL     OW  910   2.866   0.619   1.759  0.3444  0.0374  0.4318
  304SOL    HW1  911   2.805   0.601   1.842 -1.2012  0.6523  1.1379
  304SOL    HW2  912   2.826   0.680   1.688 -0.3980 -1.3499  1.2744
  305SOL     OW  913   0.559   1.549   1.441  0.0896 -0.0915 -0.1907
  305SOL    HW1  914   0.653   1.529   1.414 -3.5669 -0.3094  2.2313
  305SOL    HW2  915   0.509   1.600   1.373  0.8493 -0.8576  1.7957
  306SOL     OW  916   0.259   1.096   1.820 -0.2124 -0.0181 -0.4672
  306SOL    HW1  917   0.341   1.079   1.872 -1.2643  1.1197  0.5801
  306SOL    HW2  918   0.182   1.059   1.875  1.0898 -0.1006 -2.9870
  307SOL     OW  919   1.091   0.943   1.648  0.4233 -0.2085 -0.5554
  307SOL    HW1  920   1.151   0.891   1.584  1.5352  0.8362  0.2112
  307SOL    HW2  921   1.108   0.899   1.740 -0.3465 -0.6629  1.7658
  308SOL     OW  922   3.005   1.159   1.134  0.1004 -0.1524  0.1135
  308SOL    HW1  923   3.030   1.096   1.055  1.1350  2.8117 -1.8919
  308SOL    HW2  924   3.032   1.126   1.226 -1.3454  0.0955 -0.3362
  309SOL     OW  925   2.366   1.045   1.335  0.1671  0.1456 -0.1002
  309SOL    HW1  926   2.387   1.106   1.256 -1.5713 -0.7909 -1.2639
  309SOL    HW2  927   2.432   0.966   1.344  0.0525  0.9805  1.4670
  310SOL     OW  928   2.791   2.310   2.591 -0.0006  0.3453 -0.1474
  310SOL    HW1  929   2.813   2.216   2.624 -1.1860  4.8796 -0.1202
  310SOL    HW2  930   2.693   2.309   2.573  1.6657  2.2424 -0.4755
  311SOL     OW  931   2.630   3.041   2.741  0.3608  0.5446 -0.4565
  311SOL    HW1  932   2.678   3.017   2.828 -0.4874  3.0464 -1.5014
  311SOL    HW2  933   2.547   2.982   2.722 -1.1054 -1.9516 -0.9010
  312SOL     OW  934   2.297   1.820   0.118  0.3044 -0.3947  0.3313
  312SOL    HW1  935   2.292   1.910   0.163 -2.2080  0.3361 -0.1623
  312SOL    HW2  936   2.256   1.832   0.023  0.5131  1.5070  0.1228
  313SOL     OW  937   2.668   2.877   0.522  0.0299 -0.6988  0.7069
  313SOL    HW1  938   2.735   2.812   0.565 -1.8153  2.6266  0.9061
  313SOL    HW2  939   2.698   2.971   0.533  1.7059 -0.2667  0.3110
  314SOL     OW  940   1.635   1.209   0.296 -0.0634  0.2789 -0.5558
  314SOL    HW1  941   1.572   1.129   0.272  1.2277 -1.3961 -1.2197
  314SOL    HW2  942   1.575   1.292   0.309  1.4507 -0.7056  1.5092
  315SOL     OW  943   1.399   2.994   2.036 -0.0690 -0.1155  0.4640
  315SOL    HW1  944   1.312   3.003   2.087 -1.9732  0.3932  1.4217
  315SOL    HW2  945   1.385   3.009   1.937 -0.2744  0.5604  0.7977
  316SOL     OW  946   2.862   0.755   0.002  0.4095 -0.4532  0.2898
  316SOL    HW1  947   2.907   0.722   0.086  0.2681 -1.4119  1.3730
  316SOL    HW2  948   2.765   0.719   3.087 -2.1759  0.3194 -3.5684
  317SOL     OW  949   0.415   0.006   0.152 -0.5970 -0.6886  0.3621
  317SOL    HW1  950   0.412   3.066   0.248 -3.8751 -0.2818 -0.9692
  317SOL    HW2  951   0.347   3.052   0.095 -0.8384  1.0864 -0.6700
  318SOL     OW  952   2.232   2.576   0.917 -0.0738  0.0322  0.0915
  318SOL    HW1  953   2.214   2.478   0.895  2.8859 -1.6698 -0.1759
  318SOL    HW2  954   2.292   2.612   0.842 -1.8093  0.4612 -0.1369
  319SOL     OW  955   0.984   1.938   2.984 -0.1384 -0.8521  0.0981
  319SOL    HW1  956   0.896   1.987   2.996  2.0006  2.3356 -0.8406
  319SOL    HW2  957   0.980   1.834   2.974  0.6952  0.0863 -0.8343
  320SOL     OW  958   0.354   2.222   1.878  0.2510 -0.5355 -0.2435
  320SOL    HW1  959   0.408   2.313   1.879 -0.7384 -3.2158  0.3492
  320SOL    HW2  960   0.278   2.215   1.946  0.2544 -0.6181  1.3985
  321SOL     OW  961   1.322   2.886   2.453 -0.7397 -0.8264  0.5370
  321SOL    HW1  962   1.383   2.954   2.502 -0.5656  2.7152  1.2380
  321SOL    HW2  963   1.376   2.822   2.393  1.7209  3.7564 -0.4377
  322SOL     OW  964   2.837   1.405   2.116  0.5484 -0.5539  0.1615
  322SOL    HW1  965   2.875   1.491   2.157 -2.0661  0.3219  0.3859
  322SOL    HW2  966   2.737   1.404   2.143 -0.7986  1.3083 -1.2917
  323SOL     OW  967   2.138   1.030   1.097  0.3404 -0.0273  0.8025
  323SOL    HW1  968   2.161   1.113   1.038  0.6477  2.0152  0.0421
  323SOL    HW2  969   2.213   0.995   1.154 -2.3287  2.3722 -3.0503
  324SOL     OW  970   2.947   0.069   2.427  0.2700 -0.2153  0.3105
  324SOL    HW1  971   2.884   0.058   2.348 -0.1207  1.2457  0.8678
  324SOL    HW2  972   2.884   0.074   2.507 -1.1302 -0.9766  3.2517
  325SOL     OW  973   1.256   0.685   2.566  0.0947 -0.1504 -0.2828
  325SOL    HW1  974   1.256   0.587   2.544 -2.2595 -0.3143  0.7559
  325SOL    HW2  975   1.170   0.728   2.541  1.2606  1.1935 -0.7222
  326SOL     OW  976   1.919   2.870   1.925 -0.0475  0.0565 -0.2627
  326SOL    HW1  977   1.904   2.884   1.825 -0.8846 -3.7451 -1.7993
  326SOL    HW2  978   2.013   2.845   1.945 -3.8578  0.6831 -1.7221
  327SOL     OW  979   2.119   0.247   0.349 -0.0176 -0.3131  0.0460
  327SOL    HW1  980   2.079   0.328   0.393  1.5728  2.2920  0.0087
  327SOL    HW2  981   2.208   0.260   0.300 -0.8591  0.9232 -0.8368
  328SOL     OW  982   0.244   1.378   2.426 -0.1312  0.2244  0.3202
  328SOL    HW1  983   0.259   1.408   2.331  0.3746  0.8437  1.1690
  328SOL    HW2  984   0.170   1.431   2.471  1.2465  0.1039  0.3979
  329SOL     OW  985   2.225   0.043   1.918  0.4330 -0.5054 -0.4356
  329SOL    HW1  986   2.171   0.009   1.841 -0.1579  2.4886 -1.0813
  329SOL    HW2  987   2.316   3.095   1.928 -1.6804 -0.8384  0.0753
  330SOL     OW  988   3.017   1.387   0.715  0.4330 -0.0900  0.4726
  330SOL    HW1  989   3.045   1.483   0.705  0.4850 -0.2365  1.2426
  330SOL    HW2  990   2.951   1.367   0.633  1.8171 -1.6259 -2.3339
  331SOL     OW  991   0.357   1.742   2.452  0.3041 -0.1644 -0.7371
  331SOL    HW1  992   0.388   1.689   2.534 -0.9977 -1.0169 -0.1529
  331SOL    HW2  993   0.430   1.804   2.420  0.9430  1.1635 -1.6994
  332SOL     OW  994   0.152   3.075   1.625 -0.9150  0.0596 -0.0521
  332SOL    HW1  995   0.090   2.998   1.608  1.4209  0.7345  1.7926
  332SOL    HW2  996   0.125   0.054   1.568  2.4052 -0.7666  3.8304
  333SOL     OW  997   2.359   3.035   0.800  0.7316  0.2439  0.2364
  333SOL    HW1  998   2.256   3.024   0.803 -2.0166 -1.0440 -1.9326
  333SOL    HW2  999   2.396   0.018   0.846  0.3356  0.0707 -1.8858
  334SOL     OW 1000   0.591   2.055   0.822  0.1633 -0.4963 -0.5710
  334SOL    HW1 1001   0.551   2.012   0.738 -2.4256 -0.4612  0.6715
  334SOL    HW2 1002   0.670   2.006   0.859 -1.9107  3.5032  2.0697
  335SOL     OW 1003   0.199   2.593   0.132  0.1127 -0.2269 -0.5494
  335SOL    HW1 1004   0.182   2.567   0.038 -2.1726  3.4150  1.0391
  335SOL    HW2 1005   0.286   2.549   0.167  2.0679 -0.7646 -3.2501
  336SOL     OW 1006   0.264   3.059   2.227 -0.1997 -0.2013  0.5085
  336SOL    HW1 1007   0.176   3.039   2.274  0.4525 -1.1628  1.9458
  336SOL    HW2 1008   0.251   3.041   2.127  1.8893 -1.0315 -0.2479
  337SOL     OW 1009   2.496   2.309   2.579  0.0808  0.3565  0.0156
  337SOL    HW1 1010   2.450   2.379   2.519  0.2609  0.7162 -1.5590
  337SOL    HW2 1011   2.449   2.298   2.675  0.1351  0.6501  4.4659
  338SOL     OW 1012   0.802   0.824   1.036 -0.1243 -0.3423 -0.4985
  338SOL    HW1 1013   0.763   0.791   0.943  0.0560 -2.7430 -0.0130
  338SOL    HW2 1014   0.733   0.816   1.109  0.4209  0.5988 -0.6538
  339SOL     OW 1015   0.136   0.925   2.070  0.3338 -0.3563  0.1129
  339SOL    HW1 1016   0.143   0.963   2.164 -1.8169  0.3345 -0.3680
  339SOL    HW2 1017   0.055   0.974   2.024  0.1283 -0.4932 -0.2696
  340SOL     OW 1018   1.631   2.626   0.327 -0.2314 -0.9237  0.1032
  340SOL    HW1 1019   1.653   2.706   0.388 -0.6916  0.8639 -1.8492
  340SOL    HW2 1020   1.650   2.655   0.226  0.2465  2.2202 -2.7517
  341SOL     OW 1021   1.975   0.862   0.951  0.0450  0.6293  0.3274
  341SOL    HW1 1022   1.905   0.906   0.889  1.5583 -0.9207 -2.5260
  341SOL    HW2 1023   2.035   0.937   0.988  0.1990  0.0244 -1.1252
  342SOL     OW 1024   2.271   2.839   3.046 -0.2762  0.6587 -0.3532
  342SOL    HW1 1025   2.207   2.884   2.984  1.7410 -1.9015  2.1357
  342SOL    HW2 1026   2.358   2.810   3.008 -2.3386 -0.2868  0.8332
  343SOL     OW 1027   1.636   2.130   1.860  0.1909  0.5396 -0.1808
  343SOL    HW1 1028   1.703   2.194   1.819 -1.4371 -2.9672  2.1218
  343SOL    HW2 1029   1.603   2.159   1.953 -0.7420  1.2876 -0.9795
  344SOL     OW 1030   2.204   2.492   1.249 -0.2351 -0.5300 -0.1820
  344SOL    HW1 1031   2.146   2.569   1.222  0.2068  0.9339 -1.1070
  344SOL    HW2 1032   2.254   2.517   1.332 -0.5017  1.1991 -3.1600
  345SOL     OW 1033   2.776   2.354   0.023 -0.1184  0.2603 -1.0466
  345SOL    HW1 1034   2.764   2.265   3.076  3.9388  1.8855 -2.1424
  345SOL    HW2 1035   2.719   2.369   0.106  1.0159 -3.0283  0.8245
  346SOL     OW 1036   2.735   1.672   0.526 -0.2550 -0.2081  0.5491
  346SOL    HW1 1037   2.743   1.624   0.435  1.1708 -0.0066  0.7156
  346SOL    HW2 1038   2.639   1.700   0.551 -0.4377  1.2763  0.4363
  347SOL     OW 1039   1.984   2.069   1.740  0.0341  0.1392 -0.3132
  347SOL    HW1 1040   1.956   2.011   1.819 -0.9729 -0.6911  0.8585
  347SOL    HW2 1041   2.084   2.057   1.726  1.2441  0.4753 -1.8706
  348SOL     OW 1042   0.702   1.716   2.948  0.7246 -0.1131 -0.2734
  348SOL    HW1 1043   0.669   1.705   2.852 -0.5369 -1.1465 -0.5458
  348SOL    HW2 1044   0.801   1.707   2.946 -1.1486  0.9217  0.6065
  349SOL     OW 1045   2.526   1.268   1.507 -0.0984 -0.2184 -0.2806
  349SOL    HW1 1046   2.502   1.356   1.472  1.2765 -0.9087 -0.3272
  349SOL    HW2 1047   2.601   1.230   1.452 -1.5545 -3.3828  1.7129
  350SOL     OW 1048   2.890   2.519   1.239 -0.1771  0.0987  1.0432
  350SOL    HW1 1049   2.947   2.482   1.320  0.7402  2.4979 -1.4721
  350SOL    HW2 1050   2.794   2.488   1.245 -1.0796  0.6345  0.8314
  351SOL     OW 1051   0.614   0.427   2.199  0.3090 -0.4840  0.1342
  351SOL    HW1 1052   0.614   0.528   2.194 -2.6882 -0.9333 -2.2059
  351SOL    HW2 1053   0.535   0.402   2.253  0.6480  1.2809 -0.2949
  352SOL     OW 1054   0.739   1.659   1.156 -0.2188 -0.0407  0.2093
  352SOL    HW1 1055   0.830   1.682   1.205  1.9085  0.6134 -2.5665
  352SOL    HW2 1056   0.654   1.665   1.214  1.5428 -2.3166 -1.2949
  353SOL     OW 1057   1.261   1.706   2.448  0.4771 -0.1642 -0.2909
  353SOL    HW1 1058   1.238   1.769   2.374  0.7263 -2.2095 -1.2203
  353SOL    HW2 1059   1.359   1.682   2.457  1.1916 -3.7779  1.4772
  354SOL     OW 1060   0.971   0.401   0.851  0.1961  0.0435  0.0310
  354SOL    HW1 1061   0.919   0.409   0.942  1.9183  1.3156  2.7002
  354SOL    HW2 1062   1.068   0.376   0.866 -2.2366 -1.7473 -1.2307
  355SOL     OW 1063   2.623   0.855   0.572  0.1085  0.0725  0.0980
  355SOL    HW1 1064   2.572   0.943   0.590 -0.2212  3.9520 -1.1359
  355SOL    HW2 1065   2.572   0.806   0.500  1.0813  0.2902 -0.2450
  356SOL     OW 1066   2.428   1.792   2.381 -0.9416  0.6690 -0.1043
  356SOL    HW1 1067   2.405   1.736   2.463  0.3775  1.9903  1.2231
  356SOL    HW2 1068   2.399   1.886   2.402  0.9507 -1.2771  0.2043
  357SOL     OW 1069   0.592   2.578   1.378 -0.3240  0.5777 -1.0105
  357SOL    HW1 1070   0.503   2.633   1.387  1.1064  0.7843 -1.1691
  357SOL    HW2 1071   0.660   2.640   1.423  0.5297  3.3020  2.1866
  358SOL     OW 1072   2.493   0.733   1.638 -0.1668  0.1296 -0.6021
  358SOL    HW1 1073   2.589   0.773   1.625  0.6844 -0.2425 -2.1695
  358SOL    HW2 1074   2.463   0.755   1.731  1.4217  2.1964  1.5602
  359SOL     OW 1075   2.179   2.731   2.538  0.5229  0.8099 -0.4603
  359SOL    HW1 1076   2.095   2.761   2.493  1.2175  0.2706  0.3004
  359SOL    HW2 1077   2.154   2.689   2.625  1.5655  2.5663 -1.0257
  360SOL     OW 1078   1.249   0.399   0.892  0.4334  0.7677  0.2296
  360SOL    HW1 1079   1.242   0.494   0.929 -1.9586  0.6864 -4.0757
  360SOL    HW2 1080   1.339   0.376   0.860 -0.6473 -0.2176 -3.8510
  361SOL     OW 1081   2.251   0.063   1.166  0.6059  0.0598  0.2728
  361SOL    HW1 1082   2.234   0.082   1.264  0.1508 -3.0334 -0.9694
  361SOL    HW2 1083   2.164   0.049   1.112 -1.0015  1.6574 -0.8673
  362SOL     OW 1084   1.194   1.282   0.449  0.3224  0.3224 -0.1540
  362SOL    HW1 1085   1.188   1.349   0.531 -0.2955 -0.0866  1.6502
  362SOL    HW2 1086   1.280   1.297   0.399 -3.4646 -3.3217  2.4510
  363SOL     OW 1087   2.258   1.675   2.554  0.5326 -0.0350 -0.8650
  363SOL    HW1 1088   2.253   1.606   2.633 -0.5704  2.8786 -0.2197
  363SOL    HW2 1089   2.164   1.684   2.507 -3.7982  0.7316 -3.2311
  364SOL     OW 1090   0.885   0.158   1.535 -0.1672  0.0028  0.5470
  364SOL    HW1 1091   0.890   0.258   1.530  0.6326  0.0181  1.8093
  364SOL    HW2 1092   0.790   0.120   1.527 -0.5093  1.9058  1.5635
  365SOL     OW 1093   0.288   2.894   0.342 -0.5675 -0.3163  0.1875
  365SOL    HW1 1094   0.292   2.822   0.268  0.1884 -1.7618  0.0501
  365SOL    HW2 1095   0.311   2.849   0.429  0.5906 -2.9094  1.8429
  366SOL     OW 1096   2.672   1.801   3.018  0.1237  0.0188  0.2846
  366SOL    HW1 1097   2.630   1.802   0.015 -0.1386 -0.5735 -1.2825
  366SOL    HW2 1098   2.770   1.781   3.024  1.3165 -0.4902  0.2128
  367SOL     OW 1099   2.702   2.659   2.476  0.1005  0.3611  0.1998
  367SOL    HW1 1100   2.658   2.750   2.473  1.0056 -1.4644 -0.9222
  367SOL    HW2 1101   2.791   2.669   2.524  3.5310  1.2413  1.2782
  368SOL     OW 1102   0.158   1.800   0.964  0.2843 -0.7563  0.1292
  368SOL    HW1 1103   0.097   1.804   1.046 -0.3692 -1.8625  1.5895
  368SOL    HW2 1104   0.203   1.891   0.945 -0.1674  1.5384  0.5533
  369SOL     OW 1105   0.971   2.801   3.047 -0.4844  0.5324  0.0207
  369SOL    HW1 1106   0.949   2.899   3.047  1.0949 -1.0412 -0.3858
  369SOL    HW2 1107   0.968   2.762   2.955 -0.2675 -0.5202  0.2806
  370SOL     OW 1108   0.220   0.893   0.682  0.4863  1.3141 -0.2394
  370SOL    HW1 1109   0.281   0.810   0.706  2.9461 -2.5634  0.0962
  370SOL    HW2 1110   0.273   0.978   0.700  2.3764 -1.1771 -1.6828
  371SOL     OW 1111   1.903   2.778   0.770  0.0947 -0.1239 -0.0980
  371SOL    HW1 1112   1.882   2.869   0.718 -2.4720 -2.8370 -2.0095
  371SOL    HW2 1113   1.944   2.712   0.705  2.6294  0.3984 -1.6440
  372SOL     OW 1114   0.070   0.907   2.575  0.1548 -0.2424  0.3177
  372SOL    HW1 1115   0.165   0.939   2.603  1.5872  0.4329  1.2538
  372SOL    HW2 1116   0.051   0.818   2.616  0.7113  2.8599  2.0514
  373SOL     OW 1117   2.816   1.968   0.742  0.0552 -0.4580  0.3381
  373SOL    HW1 1118   2.909   1.979   0.706 -2.8669  0.2929  0.0929
  373SOL    HW2 1119   2.808   1.881   0.788  0.1855  0.4050  0.7581
  374SOL     OW 1120   0.210   2.380   0.387  0.4933 -0.1154 -0.2555
  374SOL    HW1 1121   0.129   2.377   0.447  0.9967  0.5277  0.5662
  374SOL    HW2 1122   0.276   2.448   0.410 -0.3272  0.4915 -0.3313
  375SOL     OW 1123   0.546   0.566   0.130  0.1110  0.4688  0.4403
  375SOL    HW1 1124   0.572   0.662   0.142 -2.9411 -2.4872 -1.4568
  375SOL    HW2 1125   0.497   0.531   0.210  1.0198 -0.9653 -2.2059
  376SOL     OW 1126   0.499   2.432   2.151  0.0361  1.1731 -0.0046
  376SOL    HW1 1127   0.468   2.450   2.054 -0.0443  0.0201 -0.0630
  376SOL    HW2 1128   0.522   2.515   2.204 -0.2683 -2.2824 -1.4760
  377SOL     OW 1129   1.195   2.378   2.413  0.2126 -0.3496 -0.5181
  377SOL    HW1 1130   1.278   2.432   2.434  0.6159 -1.8809  0.3679
  377SOL    HW2 1131   1.214   2.278   2.414  1.7306 -0.4639 -0.1252
  378SOL     OW 1132   1.214   0.782   0.441  0.3979 -0.0987 -0.0472
  378SOL    HW1 1133   1.135   0.796   0.503  2.3517  2.0574  0.7650
  378SOL    HW2 1134   1.264   0.868   0.459  0.6290  1.3592 -0.9639
  379SOL     OW 1135   0.848   1.757   0.500 -0.1891  0.2206 -0.1285
  379SOL    HW1 1136   0.853   1.821   0.577 -0.1170 -0.8757 -4.2977
  379SOL    HW2 1137   0.942   1.738   0.467 -1.2314 -1.5201 -0.2043
  380SOL     OW 1138   0.196   1.986   1.348 -0.2566  0.7321 -0.5225
  380SOL    HW1 1139   0.107   1.938   1.359 -0.7548  2.5376 -0.6898
  380SOL    HW2 1140   0.180   2.085   1.355  0.3822 -1.0561  0.7568
  381SOL     OW 1141   0.311   0.953   1.590 -0.3883 -0.2420  0.0719
  381SOL    HW1 1142   0.304   1.017   1.665 -1.5169 -3.9464 -1.0855
  381SOL    HW2 1143   0.399   0.898   1.590  0.2672 -0.9208 -0.1448
  382SOL     OW 1144   2.223   2.138   0.458  0.1000 -0.3640  0.2066
  382SOL    HW1 1145   2.233   2.226   0.512 -1.9625  1.1531 -3.8714
  382SOL    HW2 1146   2.291   2.138   0.383  2.7403 -1.4070  1.3561
  383SOL     OW 1147   2.645   1.729   2.210  0.0994  0.1485  0.1064
  383SOL    HW1 1148   2.553   1.749   2.261 -2.1613  1.0798  3.7347
  383SOL    HW2 1149   2.725   1.764   2.267 -0.4249 -0.5822  2.2123
  384SOL     OW 1150   0.179   2.173   2.071  0.7349  0.0900  0.0841
  384SOL    HW1 1151   0.113   2.097   2.083  0.4464 -0.4952 -0.3973
  384SOL    HW2 1152   0.241   2.186   2.151  1.9804 -0.1004 -1.7384
  385SOL     OW 1153   2.899   2.340   0.838  0.0450  0.2257  0.4912
  385SOL    HW1 1154   2.888   2.334   0.736 -0.2465 -1.0449 -0.7331
  385SOL    HW2 1155   2.972   2.275   0.869 -3.4620  0.3750 -1.4076
  386SOL     OW 1156   1.772   0.649   0.670 -0.2846 -0.5272  0.4035
  386SOL    HW1 1157   1.791   0.728   0.609  2.0001 -1.8440  2.0152
  386SOL    HW2 1158   1.673   0.636   0.687  0.8336 -0.5492 -1.1153
  387SOL     OW 1159   0.409   0.836   2.036 -0.5715 -0.6921 -0.5460
  387SOL    HW1 1160   0.311   0.832   2.062  0.3727  0.9939  0.5846
  387SOL    HW2 1161   0.436   0.935   2.014  1.3708  2.9078 -0.2867
  388SOL     OW 1162   2.191   1.154   2.465  0.3480  0.2229 -0.3278
  388SOL    HW1 1163   2.144   1.243   2.489 -2.2705 -1.6035 -0.3224
  388SOL    HW2 1164   2.121   1.079   2.466 -0.0601  3.2156  0.7184
  389SOL     OW 1165   1.904   1.400   1.712 -0.0700 -0.0885  0.0576
  389SOL    HW1 1166   1.819   1.416   1.660 -0.5699  1.5854  0.0215
  389SOL    HW2 1167   1.985   1.389   1.649 -0.2348  0.7903 -0.9406
  390SOL     OW 1168   1.932   2.712   0.090  0.4209 -0.7574  0.2414
  390SOL    HW1 1169   1.975   2.789   0.138  3.8791  0.5163 -1.8869
  390SOL    HW2 1170   1.834   2.733   0.072 -0.6965  2.6410 -0.1530
  391SOL     OW 1171   2.124   2.282   1.408  0.1784  0.3262  0.2390
  391SOL    HW1 1172   2.161   2.350   1.344 -0.9692  0.7407 -1.8073
  391SOL    HW2 1173   2.024   2.304   1.408 -1.8403  2.5826 -1.0666
  392SOL     OW 1174   3.056   2.471   1.021 -0.1516  0.3664 -0.5071
  392SOL    HW1 1175   2.982   2.490   1.092 -4.6257  0.8303  2.6354
  392SOL    HW2 1176   3.014   2.419   0.942  1.9022 -1.2113  1.8448
  393SOL     OW 1177   2.089   1.656   0.167 -0.4976  0.7750  0.4990
  393SOL    HW1 1178   2.078   1.568   0.114  1.1453  0.5369  1.6400
  393SOL    HW2 1179   2.172   1.713   0.134 -0.5090  0.3605 -0.5414
  394SOL     OW 1180   3.041   0.190   3.008  0.1274 -0.3565  0.1614
  394SOL    HW1 1181   2.965   0.259   2.999 -1.7723 -0.9134  0.2561
  394SOL    HW2 1182   3.055   0.132   2.923 -0.3232  0.1216  1.2215
  395SOL     OW 1183   1.206   1.132   1.097 -0.5430 -0.0848 -0.0336
  395SOL    HW1 1184   1.250   1.133   1.004 -1.1039  0.5593  0.4273
  395SOL    HW2 1185   1.110   1.159   1.080  0.2440 -0.5615  0.1193
  396SOL     OW 1186   1.480   0.847   3.012  0.2610  0.5499  0.2909
  396SOL    HW1 1187   1.460   0.944   2.993  0.9773  0.7521 -3.0650
  396SOL    HW2 1188   1.443   0.795   2.931  2.3211  1.9841  0.2963
  397SOL     OW 1189   0.011   0.670   2.645 -0.0044  0.4004 -0.1486
  397SOL    HW1 1190   3.055   0.597   2.595  0.1325  0.8445 -1.5519
  397SOL    HW2 1191   3.060   0.681   2.732  1.2487 -1.2533 -2.9807
  398SOL     OW 1192   0.901   0.168   0.135 -0.0485  0.5344 -0.1809
  398SOL    HW1 1193   0.914   0.247   0.197 -1.3598 -0.6989 -1.2892
  398SOL    HW2 1194   0.991   0.132   0.106  0.7553  0.2380 -0.3530
  399SOL     OW 1195   2.622   2.807   1.977  0.6670 -0.0815  0.3796
  399SOL    HW1 1196   2.638   2.765   1.886 -0.8145  1.8894  0.7773
  399SOL    HW2 1197   2.710   2.821   2.029  1.0742 -0.5113 -0.6543
  400SOL     OW 1198   0.317   1.832   2.095  0.0768 -0.3740 -1.0642
  400SOL    HW1 1199   0.296   1.790   2.001 -3.5339 -0.4685 -2.5141
  400SOL    HW2 1200   0.227   1.828   2.150 -2.2905  2.2354 -1.5984
  401SOL     OW 1201   0.753   0.587   2.540 -0.8024  0.4856 -0.4214
  401SOL    HW1 1202   0.725   0.566   2.635 -0.3617  1.1513  3.9354
  401SOL    HW2 1203   0.816   0.515   2.502  0.2607 -3.1971 -0.5057
  402SOL     OW 1204   0.244   2.026   1.620  0.4379  0.2512 -0.1009
  402SOL    HW1 1205   0.267   1.948   1.684 -0.9666 -1.2004  4.6733
  402SOL    HW2 1206   0.265   2.004   1.524 -0.8970 -1.2242  1.4564
  403SOL     OW 1207   0.742   1.193   1.411  0.3872  1.1238  0.1815
  403SOL    HW1 1208   0.754   1.094   1.399  0.3823  0.6809 -1.6450
  403SOL    HW2 1209   0.713   1.218   1.506 -0.7660  0.0297  2.7421
  404SOL     OW 1210   2.728   2.399   1.502  0.4732 -0.4235 -0.1208
  404SOL    HW1 1211   2.695   2.493   1.521  1.6867  3.9691 -0.0991
  404SOL    HW2 1212   2.704   2.377   1.402 -1.2284  4.1673  0.5032
  405SOL     OW 1213   0.062   0.310   1.738 -0.1389  0.7658  0.0122
  405SOL    HW1 1214   0.058   0.266   1.644 -0.8516 -0.1135  0.8556
  405SOL    HW2 1215   3.085   0.267   1.795 -2.4253  1.1396 -2.0254
  406SOL     OW 1216   1.684   2.360   0.114  0.0548  0.1720 -0.9317
  406SOL    HW1 1217   1.745   2.369   0.196  0.1938  0.8886  1.7188
  406SOL    HW2 1218   1.728   2.352   0.026 -1.8495 -0.4469  2.4885
  407SOL     OW 1219   1.576   1.232   1.581  0.1338 -0.4999 -0.5892
  407SOL    HW1 1220   1.608   1.310   1.639  0.7268 -0.1039  1.1330
  407SOL    HW2 1221   1.548   1.261   1.488 -2.1573 -3.0778 -0.1964
  408SOL     OW 1222   0.625   0.118   2.641 -0.2086 -0.0106  0.1381
  408SOL    HW1 1223   0.546   0.070   2.683 -1.4908  0.4378  0.6563
  408SOL    HW2 1224   0.664   0.055   2.570  0.4365 -1.8201 -0.3117
  409SOL     OW 1225   0.015   2.342   0.564  0.2337  0.6303 -0.0156
  409SOL    HW1 1226   3.010   2.328   0.571  2.0281  0.9309  0.8979
  409SOL    HW2 1227   0.062   2.284   0.629  2.4036  0.1249 -1.7912
  410SOL     OW 1228   2.444   1.608   0.378  0.2368 -0.0811  0.2063
  410SOL    HW1 1229   2.479   1.677   0.447  1.1719  0.0398 -0.5012
  410SOL    HW2 1230   2.472   1.631   0.281 -0.9552  1.5984  0.9722
  411SOL     OW 1231   0.078   0.727   0.936  0.0440 -0.0466  0.6586
  411SOL    HW1 1232   0.111   0.645   0.886 -0.4074  0.7037 -0.3940
  411SOL    HW2 1233   0.096   0.721   1.037 -1.1874 -0.1559  1.2030
  412SOL     OW 1234   1.385   0.811   0.880 -0.1994 -0.2332 -0.1506
  412SOL    HW1 1235   1.472   0.812   0.935 -0.5448 -0.4531  0.0879
  412SOL    HW2 1236   1.331   0.898   0.881 -0.5272 -1.1403  1.6633
  413SOL     OW 1237   0.844   0.363   1.103 -0.2851  0.3089 -0.7912
  413SOL    HW1 1238   0.854   0.268   1.146 -0.0830  0.3258 -0.3157
  413SOL    HW2 1239   0.911   0.414   1.164 -3.0819 -0.1504  1.0090
  414SOL     OW 1240   0.112   1.747   2.814  0.0417 -0.5126  0.3688
  414SOL    HW1 1241   0.024   1.702   2.844  0.3676  0.7817 -1.1909
  414SOL    HW2 1242   0.177   1.669   2.817 -0.7034 -1.6166 -1.3610
  415SOL     OW 1243   0.448   2.313   3.006  0.1539 -0.7196  0.0181
  415SOL    HW1 1244   0.544   2.299   2.978 -0.2991 -1.5399  2.1873
  415SOL    HW2 1245   0.408   2.394   2.958 -0.1740  1.3626 -1.4094
  416SOL     OW 1246   1.574   0.847   0.533 -0.1607  0.3406  0.0121
  416SOL    HW1 1247   1.525   0.771   0.582  3.1229 -0.3965 -0.1051
  416SOL    HW2 1248   1.628   0.811   0.454 -2.7808 -1.9303 -0.2514
  417SOL     OW 1249   0.325   0.986   0.296 -0.2018 -0.0677 -0.0754
  417SOL    HW1 1250   0.342   1.017   0.203 -3.0283  0.6060  3.5482
  417SOL    HW2 1251   0.299   0.887   0.293  1.2067  1.6569  0.9700
  418SOL     OW 1252   2.643   1.452   2.485 -0.0832 -0.3545 -0.9612
  418SOL    HW1 1253   2.574   1.490   2.423  0.2996 -0.5927 -1.8638
  418SOL    HW2 1254   2.646   1.352   2.482  1.1448  1.9835  1.6082
  419SOL     OW 1255   0.486   0.517   2.977 -1.1532 -0.0128  0.1719
  419SOL    HW1 1256   0.524   0.493   3.067  0.6790  1.7794  1.4864
  419SOL    HW2 1257   0.452   0.432   2.931 -1.1345 -1.0265 -0.3733
  420SOL     OW 1258   0.401   1.446   0.749 -0.5397  0.3416  0.2215
  420SOL    HW1 1259   0.403   1.503   0.835 -2.1398 -0.0723 -3.3983
  420SOL    HW2 1260   0.313   1.395   0.738 -2.0581  0.7648  1.4386
  421SOL     OW 1261   0.593   2.324   0.758 -0.5713 -0.5967 -0.0788
  421SOL    HW1 1262   0.645   2.355   0.676  0.1269 -0.1779 -2.5132
  421SOL    HW2 1263   0.590   2.226   0.758  2.7190  4.5740  3.0046
  422SOL     OW 1264   2.895   0.886   1.398  0.1111  0.1101  0.3570
  422SOL    HW1 1265   2.958   0.964   1.405 -4.2398 -0.0409 -4.3014
  422SOL    HW2 1266   2.923   0.818   1.320  1.9546 -1.2400 -1.7426
  423SOL     OW 1267   1.605   1.365   1.319 -0.3903  0.3463  0.5305
  423SOL    HW1 1268   1.684   1.391   1.381  1.0794 -1.0808 -1.7314
  423SOL    HW2 1269   1.620   1.271   1.277 -0.0442 -1.0724 -1.4886
  424SOL     OW 1270   1.833   1.011   0.293  0.5335  0.1870  0.1838
  424SOL    HW1 1271   1.762   1.089   0.293 -1.8253  0.7559  1.8640
  424SOL    HW2 1272   1.876   1.001   0.201  2.5802 -2.0470 -1.0172
  425SOL     OW 1273   2.980   0.289   2.052  0.2336  0.2577 -0.4641
  425SOL    HW1 1274   3.051   0.345   2.099 -2.5669  0.7284 -0.6877
  425SOL    HW2 1275   3.009   0.192   2.035  2.4412  0.2012 -1.2343
  426SOL     OW 1276   2.382   2.933   2.567  0.2653  0.0844 -0.2273
  426SOL    HW1 1277   2.344   2.839   2.566  0.7582  1.5418  0.3056
  426SOL    HW2 1278   2.410   2.962   2.472  3.1471 -1.4070 -4.5653
  427SOL     OW 1279   1.196   0.870   2.312 -0.2840  0.0780 -0.2583
  427SOL    HW1 1280   1.219   0.778   2.274 -0.4199  1.6323 -0.7026
  427SOL    HW2 1281   1.256   0.944   2.273 -1.2477  2.4056 -2.5860
  428SOL     OW 1282   2.180   1.295   2.206 -0.4883  0.1693 -0.4565
  428SOL    HW1 1283   2.236   1.301   2.294  2.1108  2.0950 -2.1469
  428SOL    HW2 1284   2.224   1.362   2.140 -0.2693 -1.8200  1.1488
  429SOL     OW 1285   2.815   0.032   0.615 -0.5100  0.0979  0.2832
  429SOL    HW1 1286   2.839   0.119   0.571  0.1365  0.3742 -1.1753
  429SOL    HW2 1287   2.897   3.068   0.611  0.8460  1.9237 -2.3069
  430SOL     OW 1288   1.922   1.325   2.194  0.7879  0.4189  0.3305
  430SOL    HW1 1289   2.025   1.310   2.208 -0.7746 -0.8414  1.5389
  430SOL    HW2 1290   1.896   1.319   2.096  1.5474  1.3480 -0.1503
  431SOL     OW 1291   2.903   2.029   1.124 -0.2217  0.1015  0.2492
  431SOL    HW1 1292   2.873   2.055   1.217 -1.6874  1.7270 -1.7076
  431SOL    HW2 1293   2.966   1.952   1.132 -2.4058 -0.2488  0.1052
  432SOL     OW 1294   1.593   2.995   2.241 -0.1935 -0.5622  0.5670
  432SOL    HW1 1295   1.514   2.996   2.175 -0.9143  0.3666  0.2635
  432SOL    HW2 1296   1.666   3.045   2.191  0.9737 -0.2836 -1.3238
  433SOL     OW 1297   1.352   2.998   1.741  0.3486 -0.3446  0.1791
  433SOL    HW1 1298   1.251   2.978   1.740 -1.0592  0.8645 -0.2574
  433SOL    HW2 1299   1.399   2.922   1.694 -1.0259 -1.9732  0.8388
  434SOL     OW 1300   0.484   2.674   2.320  0.2714 -0.1527  0.1189
  434SOL    HW1 1301   0.484   2.777   2.333  1.0780  1.0285 -0.8399
  434SOL    HW2 1302   0.388   2.638   2.321  1.5576 -1.8468 -1.6661
  435SOL     OW 1303   0.368   1.926   0.335  0.1898  0.4638 -0.1715
  435SOL    HW1 1304   0.350   1.955   0.239  2.4351 -0.2732 -1.5126
  435SOL    HW2 1305   0.412   1.840   0.337 -1.3870  3.8371 -1.1522
  436SOL     OW 1306   0.769   1.059   2.003  0.0864  0.2213 -0.0466
  436SOL    HW1 1307   0.822   1.095   1.927 -3.4530 -1.3004 -1.1101
  436SOL    HW2 1308   0.671   1.060   1.982 -0.4744  2.3954  0.8916
  437SOL     OW 1309   0.612   0.089   2.268  0.4297 -0.2250 -0.2178
  437SOL    HW1 1310   0.695   0.143   2.279 -1.9283 -0.2211 -0.7428
  437SOL    HW2 1311   0.527   0.147   2.258 -2.1682  1.3940 -0.4341
  438SOL     OW 1312   0.535   1.892   1.551 -0.3308 -0.0164  0.0015
  438SOL    HW1 1313   0.536   1.971   1.621 -1.4567 -1.6551  0.6403
  438SOL    HW2 1314   0.498   1.807   1.592 -0.2307  0.6499 -1.1209
  439SOL     OW 1315   1.836   0.710   3.043  0.0153  0.1514 -0.3382
  439SOL    HW1 1316   1.824   0.808   3.044 -0.5297 -3.4589  0.0989
  439SOL    HW2 1317   1.816   0.671   2.955  1.7372  1.2845  2.8706
  440SOL     OW 1318   0.745   0.496   0.408  0.1146  0.6999  0.1312
  440SOL    HW1 1319   0.791   0.518   0.492 -1.5825  0.9235 -0.8430
  440SOL    HW2 1320   0.652   0.537   0.400  2.1505  1.2624  0.6625
  441SOL     OW 1321   0.883   2.241   1.535  0.3559  0.1504 -0.0373
  441SOL    HW1 1322   0.861   2.322   1.600 -0.6360  0.9149 -0.5849
  441SOL    HW2 1323   0.807   2.175   1.518  0.7905 -1.9430 -1.9203
  442SOL     OW 1324   2.819   1.901   0.387 -0.3492 -0.4248 -0.4906
  442SOL    HW1 1325   2.719   1.924   0.365 -0.7625  0.1595 -2.4141
  442SOL    HW2 1326   2.816   1.811   0.435 -2.4620  0.3876 -2.4797
  443SOL     OW 1327   2.865   2.031   2.692  0.1871 -0.6635  0.2983
  443SOL    HW1 1328   2.849   1.936   2.659 -0.2470  3.2379  0.1976
  443SOL    HW2 1329   2.962   2.046   2.706 -1.3803  1.1665 -2.0756
  444SOL     OW 1330   1.431   1.044   0.253 -0.3755 -0.0974 -0.3418
  444SOL    HW1 1331   1.422   0.954   0.212 -1.8489  2.7375  0.4569
  444SOL    HW2 1332   1.393   1.032   0.345  1.2647 -1.8074 -1.3793
  445SOL     OW 1333   2.703   2.614   1.764  0.2022  0.0249 -0.1169
  445SOL    HW1 1334   2.799   2.644   1.787  1.2560 -0.9764  0.3272
  445SOL    HW2 1335   2.668   2.558   1.842  2.4219 -0.8294  1.1559
  446SOL     OW 1336   2.864   1.325   0.497 -0.8447  0.1018  0.7070
  446SOL    HW1 1337   2.868   1.229   0.467 -0.9712 -0.4484  0.2245
  446SOL    HW2 1338   2.766   1.351   0.518  0.7330 -1.0392 -0.3985
  447SOL     OW 1339   1.121   1.994   1.002  0.5488 -0.3297 -0.1178
  447SOL    HW1 1340   1.209   1.943   1.012 -0.1115  1.3200  2.4910
  447SOL    HW2 1341   1.061   2.005   1.088  0.7834  1.5093 -1.8001
  448SOL     OW 1342   1.542   1.731   1.635  0.1838  0.0876 -0.0817
  448SOL    HW1 1343   1.623   1.786   1.624 -4.8144 -1.3677  1.4453
  448SOL    HW2 1344   1.482   1.767   1.711  0.9313 -0.5376 -1.2769
  449SOL     OW 1345   3.032   2.264   2.472  0.4252  0.5889 -0.1491
  449SOL    HW1 1346   2.935   2.282   2.497 -0.5770 -0.5354 -0.5011
  449SOL    HW2 1347   3.094   2.283   2.553  1.9551  1.3728 -2.7940
  450SOL     OW 1348   3.016   1.781   1.923 -0.2390  0.1630 -0.4947
  450SOL    HW1 1349   3.045   1.867   1.972  1.1624  1.5264  0.2090
  450SOL    HW2 1350   2.918   1.766   1.940  1.4033 -2.5760  0.5328
  451SOL     OW 1351   2.325   0.692   1.408 -0.0201 -0.5388  0.1228
  451SOL    HW1 1352   2.247   0.760   1.420  0.3124 -0.6413 -0.4482
  451SOL    HW2 1353   2.387   0.705   1.492 -0.9653 -1.2466 -0.0475
  452SOL     OW 1354   0.725   1.143   1.001  0.3440 -0.0540  0.2597
  452SOL    HW1 1355   0.702   1.107   0.911  0.6434 -0.4760 -3.1006
  452SOL    HW2 1356   0.744   1.244   0.989  2.0441 -1.8293  1.8603
  453SOL     OW 1357   1.464   2.176   0.582  0.3212  0.2359 -0.2948
  453SOL    HW1 1358   1.459   2.159   0.683  2.2721 -1.1941 -0.4425
  453SOL    HW2 1359   1.542   2.122   0.543 -0.2329  0.3198 -1.8931
  454SOL     OW 1360   0.285   1.671   0.080 -0.2470 -0.6225 -0.0420
  454SOL    HW1 1361   0.358   1.697   0.143 -1.2765  0.0103 -1.5353
  454SOL    HW2 1362   0.291   1.731   0.005  0.8387 -1.0799  2.9912
  455SOL     OW 1363   0.998   1.116   0.250  0.4834  0.4364 -0.2730
  455SOL    HW1 1364   1.040   1.034   0.210 -0.1790  0.0815 -0.0024
  455SOL    HW2 1365   1.066   1.156   0.310 -2.1959 -0.6379  1.6484
  456SOL     OW 1366   1.826   2.645   1.005  0.0216  0.1945 -0.0716
  456SOL    HW1 1367   1.867   2.703   0.930  2.3544 -0.3231 -0.6272
  456SOL    HW2 1368   1.864   2.551   1.008 -2.0921 -1.4017 -2.4129
  457SOL     OW 1369   1.527   2.951   0.131  0.4275 -0.3423  0.6180
  457SOL    HW1 1370   1.597   3.026   0.136  1.6052  0.4772  1.1857
  457SOL    HW2 1371   1.431   2.987   0.144 -1.2073 -0.3746 -3.0351
  458SOL     OW 1372   2.369   0.762   0.443 -0.4198  0.8879 -0.8593
  458SOL    HW1 1373   2.291   0.759   0.510 -1.5433 -1.4107  1.4688
  458SOL    HW2 1374   2.359   0.840   0.378 -0.1705  1.1788  0.8813
  459SOL     OW 1375   2.455   0.386   2.409  0.2780  0.0765  0.8314
  459SOL    HW1 1376   2.354   0.399   2.405 -0.4716  1.3694  0.1820
  459SOL    HW2 1377   2.489   0.446   2.483  0.7747  0.1379 -0.9071
  460SOL     OW 1378   2.560   0.553   2.596  0.2171 -0.2199  0.3694
  460SOL    HW1 1379   2.619   0.546   2.676  2.2985 -0.6264 -0.7041
  460SOL    HW2 1380   2.551   0.649   2.561  0.4281  0.6095 -2.4937
  461SOL     OW 1381   0.168   2.190   0.743  0.3214 -0.2073  0.2358
  461SOL    HW1 1382   0.098   2.137   0.788  0.1966  0.0030 -0.5961
  461SOL    HW2 1383   0.201   2.127   0.669  0.5951  2.0025  1.2976
  462SOL     OW 1384   0.017   2.641   1.672 -0.3865 -0.4113 -0.3955
  462SOL    HW1 1385   3.077   2.693   1.751 -1.6732  1.0562  0.4448
  462SOL    HW2 1386   0.031   2.705   1.595 -0.8670 -3.7474 -0.2878
  463SOL     OW 1387   2.328   1.814   2.757 -0.1792  0.0902 -0.2778
  463SOL    HW1 1388   2.430   1.814   2.782  0.8786  0.6757  2.4528
  463SOL    HW2 1389   2.308   1.752   2.676 -2.0486 -2.3713 -0.7595
  464SOL     OW 1390   0.761   2.709   1.527 -0.2102  0.1941 -0.4276
  464SOL    HW1 1391   0.849   2.661   1.514  1.0232  1.9502 -2.0424
  464SOL    HW2 1392   0.755   2.751   1.620  1.0145  0.8604 -0.4906
  465SOL     OW 1393   0.843   2.956   1.665  0.0981  0.7234  0.0215
  465SOL    HW1 1394   0.805   2.987   1.578 -0.9743  1.3821 -0.8019
  465SOL    HW2 1395   0.816   3.025   1.734  0.8886 -3.2478  0.6103
  466SOL     OW 1396   1.511   2.746   1.997 -0.5894 -0.6210  0.0197
  466SOL    HW1 1397   1.611   2.718   1.995 -1.0978  0.1615 -0.8357
  466SOL    HW2 1398   1.496   2.850   2.013 -1.7547  1.5501  0.2591
  467SOL     OW 1399   0.947   1.981   1.228  0.2481 -0.3051 -0.2659
  467SOL    HW1 1400   0.972   1.889   1.264  0.8314 -0.4869  0.2361
  467SOL    HW2 1401   0.873   2.028   1.282  2.2661  2.1014  1.8259
  468SOL     OW 1402   2.861   1.831   2.302 -0.7386  0.2402 -0.0037
  468SOL    HW1 1403   2.914   1.911   2.329 -0.7336 -0.9794 -0.0280
  468SOL    HW2 1404   2.912   1.761   2.245  2.7906 -2.5928 -1.1470
  469SOL     OW 1405   0.859   1.900   0.717 -0.2716  0.0790  0.0439
  469SOL    HW1 1406   0.929   1.968   0.745 -0.3346 -0.5861  1.9355
  469SOL    HW2 1407   0.836   1.849   0.804  1.8595 -0.2494  0.8124
  470SOL     OW 1408   2.313   1.249   1.660 -0.6632  0.4973  0.2589
  470SOL    HW1 1409   2.232   1.311   1.635 -0.3777  1.8064 -0.4551
  470SOL    HW2 1410   2.381   1.241   1.586  1.6586 -2.3040  2.6600
  471SOL     OW 1411   0.437   2.466   0.138 -0.0653  0.3412  0.2962
  471SOL    HW1 1412   0.513   2.438   0.197 -0.3640  1.0812  2.0182
  471SOL    HW2 1413   0.419   2.398   0.066  0.6283 -0.0414 -0.2786
  472SOL     OW 1414   2.947   2.154   1.906 -0.2462  0.3834  0.1577
  472SOL    HW1 1415   2.871   2.141   1.842 -1.4503  0.1954 -2.0007
  472SOL    HW2 1416   3.028   2.187   1.855 -0.8905  2.5410 -1.6294
  473SOL     OW 1417   0.959   2.822   0.229 -0.4159 -0.1203  0.3597
  473SOL    HW1 1418   0.903   2.737   0.249  1.3291 -1.1268 -0.4528
  473SOL    HW2 1419   0.970   2.830   0.126  1.3082  0.6440  0.1490
  474SOL     OW 1420   2.692   2.515   0.792 -0.2169  0.3858  0.1600
  474SOL    HW1 1421   2.647   2.522   0.884  1.5306 -1.3647 -2.0943
  474SOL    HW2 1422   2.770   2.452   0.807 -0.5886 -2.7303 -0.7991
  475SOL     OW 1423   2.198   2.974   1.641  0.7508  0.1864 -0.2777
  475SOL    HW1 1424   2.257   2.944   1.566 -2.8559  0.4962  1.7160
  475SOL    HW2 1425   2.097   2.947   1.627 -2.3668 -2.5508 -1.2448
  476SOL     OW 1426   0.760   1.050   0.550 -0.1787  0.2951 -0.5802
  476SOL    HW1 1427   0.828   1.127   0.559  0.9506 -0.2008  1.8056
  476SOL    HW2 1428   0.714   1.033   0.642  0.6134 -2.9995 -0.2947
  477SOL     OW 1429   0.338   2.009   0.927  0.3103 -0.0870 -0.0787
  477SOL    HW1 1430   0.294   2.101   0.936  0.7211 -0.5716 -2.0299
  477SOL    HW2 1431   0.424   2.019   0.874 -0.4996 -1.2877 -0.9891
  478SOL     OW 1432   0.233   2.610   2.297 -0.5554  0.1848 -0.2379
  478SOL    HW1 1433   0.160   2.660   2.351  0.6295 -1.8302  1.3216
  478SOL    HW2 1434   0.192   2.548   2.228  0.8522 -0.6995  0.0445
  479SOL     OW 1435   0.143   0.206   1.489 -0.4341 -0.1811 -0.4253
  479SOL    HW1 1436   0.240   0.242   1.462  0.9999 -0.8632 -1.9820
  479SOL    HW2 1437   0.076   0.268   1.444  0.0360 -0.8768  3.7475
  480SOL     OW 1438   2.870   2.564   2.972 -0.3352  0.6281 -0.3498
  480SOL    HW1 1439   2.907   2.520   2.891  0.9441 -0.2361  1.2649
  480SOL    HW2 1440   2.825   2.503   3.043 -0.9934 -0.7946  1.3648
  481SOL     OW 1441   2.261   2.033   1.681  0.7985 -0.4836 -0.3031
  481SOL    HW1 1442   2.251   1.951   1.746 -0.6440 -2.2965  2.3537
  481SOL    HW2 1443   2.226   2.008   1.589  4.0145 -1.1719  0.7913
  482SOL     OW 1444   1.663   2.336   2.663 -0.0544 -0.2478 -0.4126
  482SOL    HW1 1445   1.584   2.273   2.655 -1.6646  2.0920  0.8244
  482SOL    HW2 1446   1.715   2.339   2.575 -1.5872 -0.5609  2.4740
  483SOL     OW 1447   0.474   1.974   2.341 -0.6049  0.0539  0.5677
  483SOL    HW1 1448   0.451   1.921   2.253  0.2090  3.2897 -0.0051
  483SOL    HW2 1449   0.501   2.071   2.328  0.2862 -1.6404  2.2163
  484SOL     OW 1450   3.085   0.337   1.312  0.0520 -0.7503  0.1859
  484SOL    HW1 1451   3.065   0.300   1.220 -1.0124  2.5261 -1.4916
  484SOL    HW2 1452   3.008   0.402   1.336 -0.2943 -1.9827 -2.0838
  485SOL     OW 1453   2.149   1.080   0.632  0.1276 -0.6032  0.0492
  485SOL    HW1 1454   2.173   1.142   0.555 -0.6309 -0.5843 -0.5686
  485SOL    HW2 1455   2.088   1.134   0.697 -1.6866  0.2681  1.3269
  486SOL     OW 1456   1.366   0.101   2.317 -0.1262 -0.1650 -0.0096
  486SOL    HW1 1457   1.403   0.019   2.364  1.8011 -1.3514 -2.3098
  486SOL    HW2 1458   1.445   0.163   2.292  1.1808 -0.8919  0.4764
  487SOL     OW 1459   0.968   1.726   1.325  0.4942 -0.2126 -0.6338
  487SOL    HW1 1460   0.924   1.725   1.417 -2.7862 -0.0546  1.5019
  487SOL    HW2 1461   1.008   1.636   1.303  1.8331  2.2940  2.3292
  488SOL     OW 1462   2.341   1.427   2.891  0.6084  0.1150  0.3697
  488SOL    HW1 1463   2.418   1.457   2.827  0.6420 -0.9593  0.7006
  488SOL    HW2 1464   2.381   1.428   2.985 -0.2658  2.1223 -1.8874
  489SOL     OW 1465   2.092   0.011   0.475  0.3341  0.5394 -0.0850
  489SOL    HW1 1466   2.179   3.077   0.519  0.2456 -1.2698 -4.1237
  489SOL    HW2 1467   2.109   0.100   0.425  1.1007  1.1643  1.0156
  490SOL     OW 1468   1.215   2.468   0.249  0.2992 -0.2434  0.3047
  490SOL    HW1 1469   1.277   2.393   0.275 -1.2849  1.1263  1.6745
  490SOL    HW2 1470   1.256   2.552   0.296  1.7983 -0.0505  1.1970
  491SOL     OW 1471   0.981   0.923   0.852 -0.0515  0.3467  0.0670
  491SOL    HW1 1472   0.928   0.883   0.925  0.2799  1.9207 -1.7634
  491SOL    HW2 1473   1.004   1.021   0.853  0.0578 -2.0430 -1.3951
  492SOL     OW 1474   1.159   0.075   2.657  0.2996 -0.0462  0.0570
  492SOL    HW1 1475   1.247   0.125   2.652  0.1846 -0.5241  2.5644
  492SOL    HW2 1476   1.090   0.136   2.697  0.3912  2.0936  1.0270
  493SOL     OW 1477   1.846   1.905   0.114 -0.1038  0.5819 -0.4232
  493SOL    HW1 1478   1.836   1.854   0.205 -0.3083 -1.5724  0.4071
  493SOL    HW2 1479   1.884   1.996   0.131  0.5998 -1.8861  0.5666
  494SOL     OW 1480   0.340   1.384   0.318  0.3217  0.7574  0.1346
  494SOL    HW1 1481   0.337   1.473   0.363  0.5405 -0.0436 -0.5731
  494SOL    HW2 1482   0.435   1.354   0.298 -1.2005 -0.2109  0.0253
  495SOL     OW 1483   0.019   2.707   0.852 -0.5463  0.6342 -0.4404
  495SOL    HW1 1484   0.040   2.622   0.909  1.7017 -1.2079 -0.3066
  495SOL    HW2 1485   0.019   2.686   0.757 -1.4027 -1.5310  1.7278
  496SOL     OW 1486   2.659   3.087   1.720 -0.2366  0.1628 -0.2579
  496SOL    HW1 1487   2.615   3.033   1.641  2.1199 -1.3899 -2.6891
  496SOL    HW2 1488   2.649   0.095   1.709  1.8215  3.5789  0.2524
  497SOL     OW 1489   2.066   1.385   2.525 -0.0817 -0.3666 -0.2387
  497SOL    HW1 1490   2.096   1.423   2.614 -1.3574  0.2462 -0.9603
  497SOL    HW2 1491   1.994   1.445   2.492 -0.4630  3.5341  1.0739
  498SOL     OW 1492   0.840   1.834   0.985 -0.2416  0.2471  0.0602
  498SOL    HW1 1493   0.889   1.901   1.043  3.9284  1.9107 -2.1379
  498SOL    HW2 1494   0.790   1.759   1.037  1.3283  3.2167  2.9044
  499SOL     OW 1495   0.713   2.056   1.404 -0.7481  0.4571 -0.5430
  499SOL    HW1 1496   0.646   2.007   1.460  1.4376  0.9845  1.2921
  499SOL    HW2 1497   0.675   2.097   1.316 -2.0466  1.9744 -0.1942
  500SOL     OW 1498   0.709   2.105   0.206 -0.3470  0.2141  0.4949
  500SOL    HW1 1499   0.684   2.142   0.298  1.2837  2.0634 -0.7544
  500SOL    HW2 1500   0.786   2.160   0.161 -0.9028  0.0147  2.5047
  501SOL     OW 1501   2.736   2.839   1.318 -0.2526  0.1259 -0.1474
  501SOL    HW1 1502   2.667   2.827   1.244  0.5391 -0.0208 -0.2534
  501SOL    HW2 1503   2.829   2.814   1.281  0.0086  1.1083 -2.0225
  502SOL     OW 1504   0.041   0.581   1.724  0.9943  0.4201 -0.2820
  502SOL    HW1 1505   0.035   0.480   1.717 -1.3387  0.0671 -1.2773
  502SOL    HW2 1506   3.039   0.612   1.753 -4.2851  0.0424 -1.0049
  503SOL     OW 1507   2.257   0.868   1.951 -0.2881  0.4007 -0.6988
  503SOL    HW1 1508   2.353   0.858   1.915 -0.2104 -0.3956 -2.1488
  503SOL    HW2 1509   2.224   0.960   1.914  0.2241  1.1774 -1.1818
  504SOL     OW 1510   1.127   0.833   1.890 -0.8419  0.0390  0.7100
  504SOL    HW1 1511   1.097   0.752   1.943  1.2981  2.3139 -0.4599
  504SOL    HW2 1512   1.224   0.861   1.918  2.7614 -0.3413  1.0285
  505SOL     OW 1513   0.799   3.012   2.453 -0.3339  0.2969 -0.2291
  505SOL    HW1 1514   0.824   2.940   2.387  1.2551 -0.7927 -0.5548
  505SOL    HW2 1515   0.821   0.012   2.417 -0.8782  0.1031  0.2009
  506SOL     OW 1516   0.151   0.474   0.772 -0.2837  0.2566 -0.1202
  506SOL    HW1 1517   0.065   0.441   0.723  0.7913  1.2898  0.1286
  506SOL    HW2 1518   0.181   0.403   0.843  0.6677 -1.4540  2.6136
  507SOL     OW 1519   1.458   0.179   2.896  0.6119 -0.1366 -0.1805
  507SOL    HW1 1520   1.545   0.188   2.943 -2.4350  2.1700 -1.6918
  507SOL    HW2 1521   1.415   0.084   2.903  1.5564  0.9164  2.8885
  508SOL     OW 1522   1.588   0.249   2.308  0.1358 -0.4367 -0.0129
  508SOL    HW1 1523   1.558   0.349   2.312  1.8894  2.3122 -0.7932
  508SOL    HW2 1524   1.647   0.223   2.383  1.8256  0.7297  0.9056
  509SOL     OW 1525   0.744   1.335   2.274 -0.0344 -0.1875  0.2943
  509SOL    HW1 1526   0.813   1.370   2.207  2.0213 -0.9653 -1.1137
  509SOL    HW2 1527   0.752   1.237   2.281 -1.1147  4.4712  2.1757
  510SOL     OW 1528   3.056   0.866   0.629 -0.0811  0.2527  0.2910
  510SOL    HW1 1529   2.991   0.891   0.704  0.8677  0.1975  1.8450
  510SOL    HW2 1530   0.058   0.885   0.659 -0.7047  0.3382  1.2543
  511SOL     OW 1531   1.886   2.035   1.124 -0.3177  0.3382  0.0945
  511SOL    HW1 1532   1.830   2.126   1.133 -3.7163  3.3125  1.2021
  511SOL    HW2 1533   1.981   2.051   1.097  0.9437  1.6966  2.1906
  512SOL     OW 1534   0.081   1.702   0.508  0.1998 -0.4794 -0.1575
  512SOL    HW1 1535   0.047   1.727   0.603  0.5141 -0.2150  0.1712
  512SOL    HW2 1536   0.060   1.606   0.479  0.2065 -0.0197  0.1099
  513SOL     OW 1537   0.180   2.100   0.441 -0.1977 -0.0474 -0.2504
  513SOL    HW1 1538   0.249   2.022   0.420  2.2851 -1.5059 -0.1657
  513SOL    HW2 1539   0.220   2.192   0.414  1.0815  0.5936  0.1983
  514SOL     OW 1540   2.420   2.060   2.375  0.1313 -0.1345  1.1041
  514SOL    HW1 1541   2.476   2.139   2.401 -3.5403  0.4786 -0.7851
  514SOL    HW2 1542   2.453   2.011   2.288  0.9506 -1.2964  0.4939
  515SOL     OW 1543   2.295   1.104   0.248 -0.1095 -0.1040 -0.7978
  515SOL    HW1 1544   2.259   1.013   0.209 -1.1783 -3.6273  0.4916
  515SOL    HW2 1545   2.395   1.098   0.227 -2.2621  1.2121 -2.5199
  516SOL     OW 1546   1.852   3.002   0.597 -0.7450 -0.1016 -0.4812
  516SOL    HW1 1547   1.779   3.075   0.623 -1.8683  0.6760 -0.2853
  516SOL    HW2 1548   1.941   3.048   0.576 -0.5062  0.0733 -0.0777
  517SOL     OW 1549   1.151   2.071   0.212 -0.5031  0.1206 -0.1141
  517SOL    HW1 1550   1.084   2.141   0.172  0.3435  0.9913  0.7038
  517SOL    HW2 1551   1.118   1.981   0.191  0.6589 -1.0295 -0.2478
  518SOL     OW 1552   0.755   0.609   1.840 -0.2385  0.2886 -0.5086
  518SOL    HW1 1553   0.790   0.531   1.886 -2.7185 -0.4297 -1.0201
  518SOL    HW2 1554   0.671   0.648   1.879  1.1295 -0.5320  0.4132
  519SOL     OW 1555   2.939   1.369   0.137 -0.5868  0.1629 -0.0406
  519SOL    HW1 1556   3.020   1.424   0.131 -1.2566 -1.1289 -1.7510
  519SOL    HW2 1557   2.955   1.266   0.158  3.5714 -1.6006  2.8749
  520SOL     OW 1558   2.507   1.942   1.639 -0.2068 -0.0620 -0.6299
  520SOL    HW1 1559   2.417   1.990   1.652  0.6136  0.5026  1.2175
  520SOL    HW2 1560   2.586   1.991   1.684  1.8042  0.1251 -0.1443
  521SOL     OW 1561   0.883   2.795   2.321 -0.0115  0.4032 -0.2595
  521SOL    HW1 1562   0.981   2.779   2.346  1.1132 -1.0869  0.8711
  521SOL    HW2 1563   0.823   2.719   2.352 -0.5194  0.0163  0.4045
  522SOL     OW 1564   2.039   0.343   2.180  0.1297  0.0059  0.3833
  522SOL    HW1 1565   1.972   0.313   2.252  1.2988  1.3168 -0.3622
  522SOL    HW2 1566   2.056   0.446   2.178 -0.5753  0.4268  0.8498
  523SOL     OW 1567   1.874   1.779   1.217  0.2648  0.1698  0.1991
  523SOL    HW1 1568   1.867   1.870   1.179  3.3735 -1.2945 -0.1023
  523SOL    HW2 1569   1.789   1.741   1.259 -1.2274  0.7687 -1.0882
  524SOL     OW 1570   1.039   2.604   0.574  0.3904 -0.1748  0.0707
  524SOL    HW1 1571   1.020   2.509   0.549 -1.2713  1.8923 -0.9817
  524SOL    HW2 1572   1.129   2.613   0.618 -0.7310 -2.4906 -0.4386
  525SOL     OW 1573   2.890   0.372   0.187 -0.3092  0.3707 -0.3409
  525SOL    HW1 1574   2.885   0.413   0.092 -1.0555  1.4059 -1.1114
  525SOL    HW2 1575   2.940   0.285   0.188  0.7273 -1.0392  0.3793
  526SOL     OW 1576   0.964   2.977   0.459  0.3816  0.4519 -0.1818
  526SOL    HW1 1577   0.879   3.031   0.470  1.0946 -1.7086  2.4356
  526SOL    HW2 1578   0.948   2.919   0.377  0.3738  0.0763  0.5509
  527SOL     OW 1579   2.554   2.025   0.679  0.0287 -0.2139  0.3761
  527SOL    HW1 1580   2.653   2.015   0.686 -0.3897  1.1530 -0.7815
  527SOL    HW2 1581   2.521   2.107   0.729  0.6079 -0.8168  0.3335
  528SOL     OW 1582   3.085   0.644   2.202  0.1696 -0.4745 -0.3575
  528SOL    HW1 1583   0.014   0.545   2.200 -0.2146  0.7330 -0.6465
  528SOL    HW2 1584   3.076   0.686   2.107  0.0515  1.6265  0.1927
  529SOL     OW 1585   0.999   1.792   2.583 -0.6203  0.8630  0.4180
  529SOL    HW1 1586   1.078   1.731   2.560  0.7712 -1.7192  1.6131
  529SOL    HW2 1587   1.022   1.883   2.611 -2.0254 -3.3750  0.4990
  530SOL     OW 1588   1.744   1.130   2.290  0.5641  0.4676 -0.0642
  530SOL    HW1 1589   1.662   1.181   2.251 -0.5834  2.9149 -2.6938
  530SOL    HW2 1590   1.832   1.182   2.276 -0.6488  1.2402 -2.0787
  531SOL     OW 1591   0.619   1.978   2.579  0.1352 -0.1554 -0.6405
  531SOL    HW1 1592   0.591   1.960   2.479 -0.8574 -4.4803 -1.9629
  531SOL    HW2 1593   0.547   2.005   2.642  0.9291  0.5257 -2.8292
  532SOL     OW 1594   2.117   1.234   0.409  0.2415  0.3322 -0.6239
  532SOL    HW1 1595   2.174   1.194   0.334  0.3951  0.7551  2.2288
  532SOL    HW2 1596   2.124   1.336   0.407 -1.2001  4.8203 -1.3481
  533SOL     OW 1597   0.139   0.005   1.909  0.1357 -0.0909  0.5145
  533SOL    HW1 1598   0.236   0.018   1.940  2.8080 -4.2828  0.6980
  533SOL    HW2 1599   0.140   3.076   1.808 -0.8985 -0.5219 -0.2517
  534SOL     OW 1600   0.709   0.268   3.050  0.2330  0.2275 -0.4082
  534SOL    HW1 1601   0.610   0.280   3.068  0.6955 -0.7034 -2.0339
  534SOL    HW2 1602   0.773   0.294   0.035 -1.8835 -1.2330  0.8151
  535SOL     OW 1603   0.098   0.296   0.320  0.5431 -0.2810 -0.0996
  535SOL    HW1 1604   0.091   0.248   0.409 -1.3545 -1.8292  2.7377
  535SOL    HW2 1605   0.194   0.324   0.305 -1.3594 -3.9675  0.9792
  536SOL     OW 1606   0.361   1.363   1.503 -0.0229  0.4391  0.0388
  536SOL    HW1 1607   0.397   1.309   1.429  3.7048  0.1397 -1.3543
  536SOL    HW2 1608   0.409   1.452   1.504 -0.7611 -0.6898  0.0981
  537SOL     OW 1609   1.173   2.663   1.769 -0.4808 -0.4612  0.4853
  537SOL    HW1 1610   1.097   2.668   1.837 -0.6498  1.4784 -3.1753
  537SOL    HW2 1611   1.235   2.583   1.784  0.2852  1.8061  0.4808
  538SOL     OW 1612   3.078   1.852   0.300 -0.1680  0.2759  0.0839
  538SOL    HW1 1613   0.026   1.792   0.370  1.2728  0.5900 -0.3189
  538SOL    HW2 1614   2.992   1.892   0.337  0.0201 -2.4492  0.7427
  539SOL     OW 1615   2.665   1.180   2.522  0.0591  0.1571 -0.2083
  539SOL    HW1 1616   2.703   1.166   2.618  0.7033 -0.9638 -0.8715
  539SOL    HW2 1617   2.709   1.119   2.453  2.2655  0.9369 -2.3206
  540SOL     OW 1618   1.832   1.031   1.871 -0.3603  0.4031 -0.1591
  540SOL    HW1 1619   1.930   1.028   1.868  1.9070 -1.3344  0.2007
  540SOL    HW2 1620   1.795   1.118   1.899  0.4760 -0.8927 -2.2567
  541SOL     OW 1621   0.826   0.793   2.135 -0.2294 -0.0420 -0.0750
  541SOL    HW1 1622   0.734   0.748   2.129 -0.8228  3.2863 -0.1830
  541SOL    HW2 1623   0.823   0.882   2.089  0.5959 -1.6171 -0.0366
  542SOL     OW 1624   2.094   0.255   3.016  0.2378  0.0802  0.3927
  542SOL    HW1 1625   2.089   0.352   3.047  0.8348 -0.7294  0.8691
  542SOL    HW2 1626   2.088   0.245   2.917  0.3734 -0.5200  4.5141
  543SOL     OW 1627   1.308   0.009   0.193 -0.2213 -0.5905  0.3878
  543SOL    HW1 1628   1.244   0.029   0.113 -1.4403  1.0804 -1.1195
  543SOL    HW2 1629   1.266   0.050   0.276  0.9276  1.5319 -4.2146
  544SOL     OW 1630   2.876   1.334   1.832 -0.3428  0.0511  0.3316
  544SOL    HW1 1631   2.849   1.341   1.930  1.5284 -0.3615  2.7353
  544SOL    HW2 1632   2.888   1.235   1.807  0.2465 -2.7155  1.1776
  545SOL     OW 1633   1.881   2.439   1.845 -0.3916  0.2211 -0.5026
  545SOL    HW1 1634   1.833   2.386   1.772  1.0235  0.6776 -1.4565
  545SOL    HW2 1635   1.962   2.494   1.802  2.8847  3.2597 -1.6419
  546SOL     OW 1636   0.171   0.137   2.651  0.0802 -0.3421 -0.5563
  546SOL    HW1 1637   0.185   0.045   2.682 -1.5571 -0.6520  0.5195
  546SOL    HW2 1638   0.261   0.178   2.633 -3.3190 -0.8630 -0.7969
  547SOL     OW 1639   1.781   1.002   0.861  0.1300 -0.2131 -0.1243
  547SOL    HW1 1640   1.754   1.024   0.767  0.7416 -1.4177  4.9880
  547SOL    HW2 1641   1.794   1.090   0.911 -1.1159  0.6229  1.0807
  548SOL     OW 1642   1.680   1.862   2.454  0.9441  0.8845  0.4479
  548SOL    HW1 1643   1.717   1.880   2.549 -1.7479 -0.1110  0.5106
  548SOL    HW2 1644   1.689   1.952   2.404  0.3574  0.1395 -1.2758
  549SOL     OW 1645   1.991   0.492   0.452 -0.5422 -0.3793  0.2225
  549SOL    HW1 1646   1.963   0.572   0.502 -1.6945 -3.1869  1.0110
  549SOL    HW2 1647   1.977   0.408   0.511 -1.7774  0.9807 -0.7484
  550SOL     OW 1648   2.483   1.770   0.620 -0.4885 -0.3424 -0.5920
  550SOL    HW1 1649   2.499   1.866   0.648  0.8895 -1.2137 -1.5730
  550SOL    HW2 1650   2.404   1.736   0.675 -1.7728 -2.4988 -2.6002
  551SOL     OW 1651   1.209   2.660   2.126  0.0346  0.0675 -0.3705
  551SOL    HW1 1652   1.229   2.757   2.149 -0.6308 -1.0651  0.9783
  551SOL    HW2 1653   1.155   2.616   2.197  0.6354  0.0050 -2.5576
  552SOL     OW 1654   2.977   2.461   2.737 -0.1536  0.2629 -0.2363
  552SOL    HW1 1655   2.898   2.402   2.706 -1.2332 -2.0871 -0.4025
  552SOL    HW2 1656   3.062   2.410   2.716 -1.6553 -0.2226 -0.2128
  553SOL     OW 1657   0.202   0.290   0.972  0.3121 -0.2433 -0.1783
  553SOL    HW1 1658   0.242   0.208   0.929 -0.1573  3.0514 -0.9556
  553SOL    HW2 1659   0.109   0.273   1.012 -2.3436 -1.2372  0.8328
  554SOL     OW 1660   2.339   2.440   1.938 -0.6896 -0.4447  0.4029
  554SOL    HW1 1661   2.279   2.413   1.863 -1.2376 -0.6160  1.1136
  554SOL    HW2 1662   2.328   2.392   2.024 -0.0276 -0.3905  1.8756
  555SOL     OW 1663   1.486   2.210   2.080  0.1999 -0.2687 -0.0453
  555SOL    HW1 1664   1.406   2.270   2.058 -1.4987  2.6493  2.7616
  555SOL    HW2 1665   1.569   2.258   2.113 -0.3728  2.4224 -0.3654
  556SOL     OW 1666   1.297   1.658   1.516  0.1094 -0.2951 -0.6595
  556SOL    HW1 1667   1.283   1.561   1.491 -2.5279 -0.4205  2.7573
  556SOL    HW2 1668   1.398   1.688   1.525  2.6870  0.7351 -1.5111
  557SOL     OW 1669   1.780   2.367   2.417 -0.1163  0.0240 -0.0081
  557SOL    HW1 1670   1.873   2.349   2.454 -2.0704  1.0113 -2.8745
  557SOL    HW2 1671   1.768   2.465   2.391 -0.1681 -0.4388 -2.4073
  558SOL     OW 1672   0.269   2.742   1.964 -0.1128  0.0040  0.3616
  558SOL    HW1 1673   0.270   2.766   1.863  1.0816 -1.3841 -0.3747
  558SOL    HW2 1674   0.355   2.771   2.009 -1.0181  0.6911  1.0019
  559SOL     OW 1675   2.518   2.813   0.856 -0.8600  0.7765 -0.0949
  559SOL    HW1 1676   2.510   2.725   0.803  0.4360  0.1809  0.1445
  559SOL    HW2 1677   2.433   2.873   0.846  0.8227 -1.1240  0.5998
  560SOL     OW 1678   1.912   2.408   0.620  1.3095  0.2086  0.0103
  560SOL    HW1 1679   1.838   2.440   0.684 -0.0657  1.7004 -1.1796
  560SOL    HW2 1680   1.933   2.308   0.635  0.5911  0.1863  3.2470
  561SOL     OW 1681   0.939   0.229   0.642 -0.2007 -0.2502  0.0784
  561SOL    HW1 1682   0.986   0.261   0.555  0.6404  2.6420 -0.6699
  561SOL    HW2 1683   0.943   0.282   0.729  3.4375 -3.6172  1.3326
  562SOL     OW 1684   0.718   0.845   2.452 -0.0795 -0.5735  0.6694
  562SOL    HW1 1685   0.728   0.752   2.492 -1.9527 -0.9785  0.1310
  562SOL    HW2 1686   0.617   0.864   2.437 -2.9107  1.5952  3.4769
  563SOL     OW 1687   1.707   1.541   2.789 -1.3725  0.3794 -0.2922
  563SOL    HW1 1688   1.637   1.611   2.787  0.7201  1.2096 -0.3340
  563SOL    HW2 1689   1.795   1.585   2.804  0.0777  0.8357  1.6612
  564SOL     OW 1690   2.617   0.614   1.322  0.0551 -0.5553  0.1458
  564SOL    HW1 1691   2.537   0.557   1.295  0.1461 -1.0907 -1.0633
  564SOL    HW2 1692   2.591   0.704   1.359  0.3901  2.2377 -0.3098
  565SOL     OW 1693   1.179   0.539   2.899 -0.0605  0.2251 -0.1747
  565SOL    HW1 1694   1.239   0.619   2.877  1.9552 -2.1394  1.0525
  565SOL    HW2 1695   1.077   0.560   2.891  2.7510 -0.4881  0.3322
  566SOL     OW 1696   1.943   0.406   2.596 -0.4257  0.2082 -0.1079
  566SOL    HW1 1697   2.016   0.474   2.580 -1.9637 -0.4588  2.1292
  566SOL    HW2 1698   1.987   0.319   2.627 -0.2201 -2.7117  2.4423
  567SOL     OW 1699   2.168   1.528   0.406  0.3164  0.2329 -0.6072
  567SOL    HW1 1700   2.268   1.540   0.415 -0.9365  0.4648 -1.4041
  567SOL    HW2 1701   2.144   1.532   0.307 -2.1115 -0.9690 -0.1336
  568SOL     OW 1702   1.721   1.701   3.089  0.0913 -0.1367  0.4321
  568SOL    HW1 1703   1.670   1.728   3.006  0.1851  2.3377  0.0972
  568SOL    HW2 1704   1.795   1.769   0.018 -2.0666 -2.6452 -0.1998
  569SOL     OW 1705   1.952   0.996   0.038  0.5661  0.5497  0.1100
  569SOL    HW1 1706   1.901   1.084   0.030 -0.0154  1.8429  1.7601
  569SOL    HW2 1707   2.008   0.988   3.048  0.9899  0.8084 -0.1904
  570SOL     OW 1708   0.474   2.478   1.886  0.3563 -0.2173  0.1076
  570SOL    HW1 1709   0.566   2.441   1.870  0.2676  0.0101  1.5844
  570SOL    HW2 1710   0.481   2.582   1.871 -0.8146 -3.3647 -0.4810
  571SOL     OW 1711   0.470   1.104   1.992 -0.2808  0.5721  0.0554
  571SOL    HW1 1712   0.476   1.198   1.945 -0.4775  0.4142 -1.3089
  571SOL    HW2 1713   0.440   1.115   2.090  1.0041 -0.7660 -0.0902
  572SOL     OW 1714   1.050   1.580   0.408  0.0672  0.1631 -0.1751
  572SOL    HW1 1715   1.069   1.552   0.505 -0.3665 -1.1933  1.3632
  572SOL    HW2 1716   1.046   1.509   0.334  2.4266  0.0155 -0.8458
  573SOL     OW 1717   1.641   2.011   3.054  0.3766  0.1966 -0.3623
  573SOL    HW1 1718   1.559   2.021   0.020  0.7118  0.8070 -1.5038
  573SOL    HW2 1719   1.709   1.953   0.003 -0.3834  0.6078  0.1897
  574SOL     OW 1720   0.944   0.119   1.228  0.2210  0.5762 -0.4210
  574SOL    HW1 1721   0.866   0.104   1.160  0.1235 -0.9293  2.7614
  574SOL    HW2 1722   0.914   0.102   1.322  2.5312 -0.3277  0.8865
  575SOL     OW 1723   0.230   1.084   1.361  0.4493 -0.1146 -0.2054
  575SOL    HW1 1724   0.243   1.027   1.446  1.6577 -3.2349 -0.3928
  575SOL    HW2 1725   0.313   1.130   1.324  0.7959  1.9856  3.2561
  576SOL     OW 1726   2.540   2.809   1.136  0.1467  0.3976  0.2508
  576SOL    HW1 1727   2.441   2.830   1.167 -1.3033 -1.9433  1.5309
  576SOL    HW2 1728   2.544   2.816   1.034 -0.3950 -0.8659 -0.0334
  577SOL     OW 1729   1.076   1.134   2.204  0.6774 -1.0174  0.6400
  577SOL    HW1 1730   1.117   1.136   2.114 -0.4365 -0.3834  1.6675
  577SOL    HW2 1731   1.051   1.039   2.222  0.0483  4.5525 -2.6798
  578SOL     OW 1732   2.024   0.946   2.519  0.1248  0.5495 -0.1792
  578SOL    HW1 1733   1.970   0.937   2.431  0.2051  2.5013 -1.0858
  578SOL    HW2 1734   1.959   0.950   2.600 -1.5699 -1.1582  1.2141
  579SOL     OW 1735   2.169   2.359   1.743  0.9205  0.3553 -0.1068
  579SOL    HW1 1736   2.111   2.335   1.827 -0.7780  0.9898  2.6066
  579SOL    HW2 1737   2.193   2.277   1.682  2.2687  0.2989 -0.6031
  580SOL     OW 1738   1.526   1.645   2.459  0.2234 -0.2472  0.0030
  580SOL    HW1 1739   1.574   1.732   2.478 -0.1136 -0.8252 -2.3866
  580SOL    HW2 1740   1.591   1.566   2.464 -1.1875 -1.0328  0.0134
  581SOL     OW 1741   1.355   1.395   2.422  0.1493  0.4759 -0.6937
  581SOL    HW1 1742   1.322   1.355   2.509 -0.3306  0.8385  0.4618
  581SOL    HW2 1743   1.428   1.464   2.447  0.0898  0.5992  1.8615
  582SOL     OW 1744   0.990   1.565   1.865 -0.8897 -0.3404  0.5775
  582SOL    HW1 1745   0.946   1.514   1.792 -0.8843 -3.1388 -2.5376
  582SOL    HW2 1746   1.092   1.576   1.844  2.4643  2.3167 -2.0475
  583SOL     OW 1747   1.473   0.969   1.641 -0.0151 -0.2216 -0.0488
  583SOL    HW1 1748   1.401   0.954   1.565 -0.1644 -0.0681 -1.1223
  583SOL    HW2 1749   1.519   1.060   1.642 -0.1718 -1.7139  2.1539
  584SOL     OW 1750   2.056   2.637   0.568 -0.0959  0.3621  0.1379
  584SOL    HW1 1751   2.027   2.539   0.559  0.4739 -0.8057  1.0452
  584SOL    HW2 1752   2.080   2.678   0.475 -1.0899  4.4449 -3.5671
  585SOL     OW 1753   1.776   2.981   2.697  0.1248  0.5235 -0.1593
  585SOL    HW1 1754   1.775   2.880   2.685 -0.7538 -0.6037  2.1514
  585SOL    HW2 1755   1.812   3.000   2.790  1.6646 -1.6385 -1.1143
  586SOL     OW 1756   2.719   2.169   0.967  0.1284 -0.1361 -0.4029
  586SOL    HW1 1757   2.751   2.190   0.874  2.0650  0.6619 -1.8547
  586SOL    HW2 1758   2.782   2.108   1.020 -1.3344  0.7798 -2.0698
  587SOL     OW 1759   1.257   1.853   3.038 -0.5822 -0.4286  0.0342
  587SOL    HW1 1760   1.320   1.932   3.055 -0.8395  0.6843  0.7568
  587SOL    HW2 1761   1.192   1.880   2.964 -0.4417 -0.4156 -1.0106
  588SOL     OW 1762   0.363   0.381   1.176 -0.6534  0.4034  0.3336
  588SOL    HW1 1763   0.455   0.393   1.131 -0.2171  4.1025  2.9337
  588SOL    HW2 1764   0.295   0.362   1.096 -2.1843  0.3124 -2.7722
  589SOL     OW 1765   1.093   0.304   0.441  0.2351 -0.0467  0.1118
  589SOL    HW1 1766   1.108   0.327   0.344 -0.8744  0.0766  0.6108
  589SOL    HW2 1767   1.118   0.206   0.459  0.1628  1.4426 -3.6738
  590SOL     OW 1768   1.290   0.764   2.822 -0.2146 -0.4626 -0.2693
  590SOL    HW1 1769   1.259   0.742   2.729  2.2393 -0.9581  3.6965
  590SOL    HW2 1770   1.256   0.859   2.853  0.5131  1.0576  3.2175
  591SOL     OW 1771   2.665   2.219   2.082 -0.8639 -0.0055  0.3528
  591SOL    HW1 1772   2.620   2.299   2.049 -0.5611 -2.3133 -0.8996
  591SOL    HW2 1773   2.754   2.213   2.029  0.8481  1.7498  1.2565
  592SOL     OW 1774   2.501   1.312   1.837 -0.2927  0.0229 -0.9048
  592SOL    HW1 1775   2.443   1.297   1.756 -2.6800 -1.2121  1.6699
  592SOL    HW2 1776   2.563   1.394   1.830  1.2507  2.1701 -0.2125
  593SOL     OW 1777   1.297   0.874   1.458  0.3372 -0.3583  0.2524
  593SOL    HW1 1778   1.313   0.886   1.355  2.1523 -2.7504 -2.2294
  593SOL    HW2 1779   1.268   0.779   1.482  1.7842  1.2783  0.6177
  594SOL     OW 1780   2.517   1.528   2.713  0.5932 -0.6515 -0.0458
  594SOL    HW1 1781   2.532   1.627   2.718  0.5789 -1.0021  0.0905
  594SOL    HW2 1782   2.574   1.483   2.641  3.5444  1.0461  0.7451
  595SOL     OW 1783   0.090   0.222   0.568  0.1220  0.1941 -0.0348
  595SOL    HW1 1784   0.189   0.227   0.595  1.6936 -0.6030  1.8589
  595SOL    HW2 1785   0.025   0.276   0.621 -0.4423  1.8070 -0.8407
  596SOL     OW 1786   2.890   1.338   0.954  0.6782 -0.6735  0.2559
  596SOL    HW1 1787   2.940   1.273   1.016 -2.7328  0.3756 -1.2066
  596SOL    HW2 1788   2.941   1.348   0.865  2.7513  0.1510 -2.3988
  597SOL     OW 1789   1.305   1.714   0.663 -0.0976 -1.0708 -0.6432
  597SOL    HW1 1790   1.320   1.776   0.744 -0.8328 -0.4268  0.5271
  597SOL    HW2 1791   1.256   1.764   0.589 -0.5617 -1.7545  0.2187
  598SOL     OW 1792   0.425   2.755   1.727 -0.2192  0.2864 -0.2152
  598SOL    HW1 1793   0.522   2.767   1.747  0.3212  0.6260 -0.0792
  598SOL    HW2 1794   0.410   2.716   1.636 -1.1774  1.7535  2.3654
  599SOL     OW 1795   0.018   1.532   2.536 -0.1495  0.4226 -0.1213
  599SOL    HW1 1796   3.019   1.515   2.524  2.9118  0.0289  2.2151
  599SOL    HW2 1797   0.039   1.548   2.634  1.9204 -1.2452 -2.9713
  600SOL     OW 1798   0.281   0.933   2.915 -0.4556  0.1863 -0.1463
  600SOL    HW1 1799   0.317   0.839   2.911 -0.6499 -0.3407  0.2507
  600SOL    HW2 1800   0.277   0.965   2.820 -0.8995 -0.8314  1.6505
  601SOL     OW 1801   0.580   0.793   1.245  0.4593  0.1484 -0.2993
  601SOL    HW1 1802   0.558   0.876   1.191  0.4255 -1.3077  1.1524
  601SOL    HW2 1803   0.495   0.754   1.293 -3.3874  1.1291  1.6887
  602SOL     OW 1804   1.082   2.883   0.697  0.3649  0.0136  0.0416
  602SOL    HW1 1805   1.177   2.886   0.657  0.5503  0.6137 -0.2692
  602SOL    HW2 1806   1.021   2.908   0.617  0.7960  0.9030 -1.4886
  603SOL     OW 1807   1.743   2.103   2.361  0.2709 -0.2776 -0.1620
  603SOL    HW1 1808   1.812   2.087   2.289 -0.2160 -0.5975  2.8710
  603SOL    HW2 1809   1.741   2.207   2.379  0.5859  1.3412 -1.2632
  604SOL     OW 1810   0.395   0.300   2.843  0.5295 -0.6062 -0.7910
  604SOL    HW1 1811   0.305   0.282   2.892 -1.7853  0.4613  2.3631
  604SOL    HW2 1812   0.386   0.293   2.744 -0.5432 -3.0366  0.2003
  605SOL     OW 1813   2.645   1.053   1.659  0.0893  0.8062  0.1627
  605SOL    HW1 1814   2.615   1.056   1.757 -0.4427 -4.4267 -4.0240
  605SOL    HW2 1815   2.585   1.100   1.594  1.4715 -5.6955 -1.3913
  606SOL     OW 1816   0.746   1.758   2.650 -0.0328  0.2419 -0.8446
  606SOL    HW1 1817   0.844   1.763   2.632 -3.3148  0.1231  1.9229
  606SOL    HW2 1818   0.690   1.832   2.610 -0.3790 -0.0585 -3.6363
  607SOL     OW 1819   0.674   0.258   0.532  0.1104  0.1134  0.5407
  607SOL    HW1 1820   0.692   0.330   0.463  0.1487 -0.8296  1.2225
  607SOL    HW2 1821   0.763   0.234   0.575 -1.8728 -0.5850  1.3106
  608SOL     OW 1822   2.785   1.663   1.512  0.0597  0.3271  0.4448
  608SOL    HW1 1823   2.775   1.643   1.615 -0.1558 -2.6042 -1.5488
  608SOL    HW2 1824   2.831   1.583   1.467  1.2060 -1.6071 -1.6701
  609SOL     OW 1825   2.828   0.397   0.879 -0.1271  0.0240  0.3649
  609SOL    HW1 1826   2.788   0.317   0.932  0.2823  0.5556  0.2399
  609SOL    HW2 1827   2.752   0.443   0.827  2.1687  0.5068 -1.9613
  610SOL     OW 1828   0.137   2.595   1.341 -0.3701  0.1708 -0.2071
  610SOL    HW1 1829   0.175   2.530   1.409 -1.8804 -0.1797  1.0788
  610SOL    HW2 1830   0.138   2.560   1.243 -0.4196  0.0446 -0.5552
  611SOL     OW 1831   1.483   1.598   0.182  0.1921 -0.3268 -0.8437
  611SOL    HW1 1832   1.569   1.592   0.125 -1.1607  0.7892 -1.9643
  611SOL    HW2 1833   1.455   1.694   0.200 -2.5194 -0.0894  2.8658
  612SOL     OW 1834   0.841   2.923   2.058  0.5191  0.1488  0.1534
  612SOL    HW1 1835   0.862   2.895   2.152 -3.2837  0.2305 -1.7073
  612SOL    HW2 1836   0.749   2.964   2.057 -1.9465  1.0077  1.3642
  613SOL     OW 1837   0.403   2.619   0.907 -0.2481  0.0077  0.2598
  613SOL    HW1 1838   0.398   2.568   0.817  1.2651 -0.1327 -3.1299
  613SOL    HW2 1839   0.499   2.635   0.939 -1.7161 -0.4914  1.7766
  614SOL     OW 1840   2.175   0.095   2.196  0.7289 -0.2307 -0.6191
  614SOL    HW1 1841   2.122   0.181   2.208  0.0573  0.9362  0.3390
  614SOL    HW2 1842   2.193   0.080   2.096  0.8644  0.3992  0.5091
  615SOL     OW 1843   1.431   1.402   0.368 -0.3425 -0.3722 -0.7212
  615SOL    HW1 1844   1.434   1.469   0.294  1.1252  2.7220 -0.6327
  615SOL    HW2 1845   1.459   1.449   0.454  1.6497  1.6782 -0.1548
  616SOL     OW 1846   1.766   1.536   0.414  0.0136  0.2015  0.1324
  616SOL    HW1 1847   1.774   1.501   0.319  0.0236  1.5770  1.1462
  616SOL    HW2 1848   1.798   1.469   0.482 -1.9637 -0.3485 -0.5265
  617SOL     OW 1849   1.245   1.132   2.543 -0.0765  0.0497  0.1346
  617SOL    HW1 1850   1.165   1.172   2.488 -2.6863 -0.0936  1.1203
  617SOL    HW2 1851   1.231   1.031   2.555 -3.9968 -1.6507 -2.0123
  618SOL     OW 1852   0.584   3.034   2.063  0.2159 -0.3487 -0.2738
  618SOL    HW1 1853   0.488   3.057   2.023  0.1918  1.7721 -1.5517
  618SOL    HW2 1854   0.600   3.081   2.154  1.6896 -0.8431 -1.6414
  619SOL     OW 1855   2.888   1.480   1.338  0.4171 -0.0939  0.1569
  619SOL    HW1 1856   2.988   1.471   1.371  0.7060 -2.7030  1.9508
  619SOL    HW2 1857   2.872   1.519   1.243  1.9616 -0.0092  0.6416
  620SOL     OW 1858   2.268   0.411   2.708 -0.2125 -0.2767  0.1422
  620SOL    HW1 1859   2.260   0.478   2.623 -1.3791  1.2265 -0.3449
  620SOL    HW2 1860   2.195   0.335   2.708 -0.4808  0.0139  0.9136
  621SOL     OW 1861   2.137   2.016   2.680  0.1841 -0.6321  1.0210
  621SOL    HW1 1862   2.182   1.932   2.714 -0.5924 -0.3434 -2.1441
  621SOL    HW2 1863   2.163   2.101   2.728  0.8572 -0.6651  0.1989
  622SOL     OW 1864   1.026   0.825   2.521  0.0801  0.1348  0.4975
  622SOL    HW1 1865   0.928   0.814   2.494  1.9553  0.2149 -2.9225
  622SOL    HW2 1866   1.085   0.848   2.438  0.5677 -0.5793  0.0945
  623SOL     OW 1867   0.809   1.061   2.327  0.0543  0.6568 -0.9336
  623SOL    HW1 1868   0.762   0.975   2.368 -1.4233 -2.0776 -0.5389
  623SOL    HW2 1869   0.831   1.035   2.230 -2.1137 -0.0475  1.2580
  624SOL     OW 1870   2.867   0.400   0.458 -0.0182  0.3191  0.2022
  624SOL    HW1 1871   2.866   0.396   0.354  1.5335 -1.3732 -2.3616
  624SOL    HW2 1872   2.829   0.491   0.488  0.4058  0.4927 -0.5247
  625SOL     OW 1873   0.930   2.441   0.818  0.1652 -0.1120  0.1469
  625SOL    HW1 1874   0.925   2.537   0.836 -0.7484 -2.6354  0.3000
  625SOL    HW2 1875   0.943   2.397   0.912  2.4651  0.0533  2.1216
  626SOL     OW 1876   2.222   0.785   2.609  0.1415  0.2903 -0.6194
  626SOL    HW1 1877   2.194   0.789   2.708 -0.6811  0.6952  1.6643
  626SOL    HW2 1878   2.162   0.849   2.554  0.9728 -1.0781  0.2541
  627SOL     OW 1879   1.257   2.499   2.861 -0.3415 -0.2790  0.6433
  627SOL    HW1 1880   1.358   2.512   2.852  0.4169  0.9860  1.2073
  627SOL    HW2 1881   1.226   2.526   2.956 -0.7835 -2.6541 -2.2388
  628SOL     OW 1882   2.675   2.905   2.445  0.1638  0.2562  0.4722
  628SOL    HW1 1883   2.658   2.968   2.364  1.1828  1.5489  2.2953
  628SOL    HW2 1884   2.707   2.956   2.530  1.0135  1.2256  1.5589
  629SOL     OW 1885   1.160   2.918   2.232 -0.1023  0.3204 -0.8102
  629SOL    HW1 1886   1.213   2.907   2.321  0.4718  2.5259  2.5173
  629SOL    HW2 1887   1.102   3.003   2.232 -1.4241  1.2676  0.3560
  630SOL     OW 1888   0.860   0.206   2.309 -0.1451 -0.4897 -0.2261
  630SOL    HW1 1889   0.863   0.299   2.350 -1.5471 -1.2922  1.6011
  630SOL    HW2 1890   0.952   0.178   2.273 -1.0424  1.4418  0.1610
  631SOL     OW 1891   1.986   1.279   0.745  0.1997 -0.5733  0.2048
  631SOL    HW1 1892   1.923   1.291   0.669 -3.2541 -2.0271  2.1726
  631SOL    HW2 1893   1.938   1.296   0.833  0.3580  1.2084  2.1361
  632SOL     OW 1894   2.596   0.234   1.675 -0.2565  0.1113 -0.3944
  632SOL    HW1 1895   2.545   0.315   1.716  2.9665  0.8621  1.3292
  632SOL    HW2 1896   2.582   0.225   1.577  3.3187  0.4434 -1.4557
  633SOL     OW 1897   1.175   1.774   0.182 -0.2346  0.1398  0.1828
  633SOL    HW1 1898   1.176   1.806   0.084 -0.1464  1.0623  0.4747
  633SOL    HW2 1899   1.122   1.688   0.188 -1.0899 -1.3305  0.3285
  634SOL     OW 1900   2.905   2.994   1.736 -0.3210  0.3275  0.1337
  634SOL    HW1 1901   2.815   3.040   1.727  1.2368 -0.4465  0.4653
  634SOL    HW2 1902   2.972   3.049   1.680  0.5663 -1.1460 -0.1660
  635SOL     OW 1903   1.538   0.374   0.936 -0.0373 -0.1376 -0.2889
  635SOL    HW1 1904   1.624   0.395   0.973 -2.3379  0.8188 -0.9000
  635SOL    HW2 1905   1.506   0.294   0.991  1.9347  1.0705 -1.7120
  636SOL     OW 1906   0.812   1.239   3.011  0.8517  0.7408  0.1121
  636SOL    HW1 1907   0.752   1.158   3.039  0.3863  0.3740  1.3389
  636SOL    HW2 1908   0.748   1.319   3.013 -0.1069 -0.2472  0.7047
  637SOL     OW 1909   2.823   2.127   2.981  0.3895  0.1869 -0.1501
  637SOL    HW1 1910   2.828   2.097   2.881 -2.0609 -0.7920 -1.9556
  637SOL    HW2 1911   2.923   2.144   3.010  0.6681 -3.4063 -1.4416
  638SOL     OW 1912   1.376   2.540   2.489  0.3782 -0.2115 -0.0901
  638SOL    HW1 1913   1.405   2.604   2.415  1.0803  1.1086  0.2134
  638SOL    HW2 1914   1.440   2.553   2.566  0.2025  0.0546 -2.1308
  639SOL     OW 1915   1.639   1.785   0.735  0.4393 -0.2133 -0.6648
  639SOL    HW1 1916   1.548   1.797   0.777  1.8532  1.3205 -2.0507
  639SOL    HW2 1917   1.626   1.767   0.638  0.5453  1.9469  2.1130
  640SOL     OW 1918   2.358   2.700   0.392 -0.2531  0.0501  0.4123
  640SOL    HW1 1919   2.328   2.784   0.340  3.0048  2.2728 -0.9891
  640SOL    HW2 1920   2.460   2.684   0.383  1.0380 -1.4505 -1.2397
  641SOL     OW 1921   2.707   0.490   2.850  0.3174 -0.1687  0.2710
  641SOL    HW1 1922   2.691   0.565   2.919  0.1155 -1.9139 -1.7457
  641SOL    HW2 1923   2.699   0.398   2.895  2.2465 -1.0585  0.8745
  642SOL     OW 1924   0.355   0.652   1.319 -0.1023 -0.2965 -0.2830
  642SOL    HW1 1925   0.331   0.635   1.418  1.0307 -1.1694  1.6740
  642SOL    HW2 1926   0.357   0.566   1.265 -0.3665 -0.5217 -2.3519
  643SOL     OW 1927   0.657   1.386   2.525 -0.0555 -0.0636  0.7980
  643SOL    HW1 1928   0.726   1.424   2.588 -0.4479 -0.8426 -1.3762
  643SOL    HW2 1929   0.690   1.380   2.426 -1.4026  0.1793  0.6880
  644SOL     OW 1930   1.961   2.169   0.748  0.4402  0.2782  0.4121
  644SOL    HW1 1931   2.054   2.129   0.743 -1.4195 -2.2938  2.2076
  644SOL    HW2 1932   1.888   2.096   0.771 -2.3403  0.2655  0.8384
  645SOL     OW 1933   1.845   2.333   0.924  0.3787  0.1599 -0.3137
  645SOL    HW1 1934   1.889   2.269   0.856  0.2118  0.1386  1.1209
  645SOL    HW2 1935   1.804   2.413   0.873  2.2677 -0.1724 -0.3709
  646SOL     OW 1936   0.719   2.248   2.920 -0.1700  0.3437  0.3342
  646SOL    HW1 1937   0.717   2.156   2.964 -0.3871 -1.2945 -0.2195
  646SOL    HW2 1938   0.811   2.291   2.906  1.0777 -0.0663  1.2797
  647SOL     OW 1939   1.029   2.601   1.500  0.6109  0.0535  0.1443
  647SOL    HW1 1940   1.123   2.630   1.473  0.3282 -0.3452 -0.9268
  647SOL    HW2 1941   1.013   2.570   1.597 -0.9678 -2.9659  1.8168
  648SOL     OW 1942   1.422   0.227   1.138 -0.4927 -0.1535  0.5382
  648SOL    HW1 1943   1.443   0.177   1.226 -3.4145  0.6412  2.1316
  648SOL    HW2 1944   1.336   0.187   1.092 -3.8067 -2.2915 -3.6234
  649SOL     OW 1945   1.407   2.097   0.104  0.2259 -0.3712  0.0334
  649SOL    HW1 1946   1.306   2.089   0.127 -0.0853  0.7877 -1.6516
  649SOL    HW2 1947   1.449   2.171   0.162  1.0018  0.2106 -0.7263
  650SOL     OW 1948   2.425   1.529   1.423 -0.1188  0.6161  0.3179
  650SOL    HW1 1949   2.447   1.589   1.502  1.6223 -2.6645  0.4503
  650SOL    HW2 1950   2.331   1.540   1.391  3.4650  1.2723  0.3397
  651SOL     OW 1951   1.659   2.731   0.080 -0.4074  0.2628 -0.1444
  651SOL    HW1 1952   1.598   2.811   0.107 -1.3441 -0.9948 -0.8173
  651SOL    HW2 1953   1.607   2.658   0.033  1.8966  1.6590  2.2100
  652SOL     OW 1954   0.104   1.912   0.051  0.5765  0.1809 -0.1714
  652SOL    HW1 1955   0.079   1.884   0.147  1.0872  0.0940  0.0441
  652SOL    HW2 1956   0.198   1.952   0.039  2.5332 -0.6589 -1.1819
  653SOL     OW 1957   2.951   2.877   0.994  0.0492  0.2142 -0.2611
  653SOL    HW1 1958   3.005   2.816   0.933 -1.4715 -0.6756  0.7973
  653SOL    HW2 1959   2.869   2.913   0.945 -0.5342  2.7453  3.4404
  654SOL     OW 1960   2.952   2.758   1.849  0.1786 -0.3986 -0.6117
  654SOL    HW1 1961   3.023   2.777   1.924  2.3567  3.1600  4.6205
  654SOL    HW2 1962   2.922   2.851   1.816  0.1279  0.9136 -0.1279
  655SOL     OW 1963   3.074   2.169   0.953 -0.3057 -0.2787 -0.1154
  655SOL    HW1 1964   3.026   2.095   1.010 -1.4915  2.3168  2.4190
  655SOL    HW2 1965   0.073   2.178   0.995  1.1278 -0.6297 -0.1886
  656SOL     OW 1966   3.068   2.714   2.348 -0.2737  0.3001 -0.6036
  656SOL    HW1 1967   3.037   2.640   2.288  0.8832  1.4553  2.2634
  656SOL    HW2 1968   3.015   2.719   2.439 -1.4540  1.3704  3.4231
  657SOL     OW 1969   2.930   1.354   2.762 -0.4294 -0.2555 -0.1084
  657SOL    HW1 1970   3.024   1.314   2.773  0.1779  1.0896  1.2140
  657SOL    HW2 1971   2.857   1.289   2.785  3.9183  0.7941  0.0287
  658SOL     OW 1972   2.605   1.605   0.959  0.0445 -0.1447 -0.3284
  658SOL    HW1 1973   2.629   1.697   0.998 -0.4543  0.1537  3.6149
  658SOL    HW2 1974   2.554   1.555   1.031  1.0221  2.1195 -0.5730
  659SOL     OW 1975   1.705   0.108   0.684  0.6655 -0.0974  0.5380
  659SOL    HW1 1976   1.695   0.044   0.762  0.4554 -3.4594 -0.5998
  659SOL    HW2 1977   1.624   0.159   0.651  1.5524 -2.6244 -0.7386
  660SOL     OW 1978   1.571   1.389   2.975 -0.4693 -0.7568 -0.6772
  660SOL    HW1 1979   1.476   1.434   2.976 -0.8050 -0.0397 -1.5736
  660SOL    HW2 1980   1.629   1.431   2.901 -0.6686 -2.4590 -0.2768
  661SOL     OW 1981   0.216   2.209   1.075  0.5318 -0.1635 -0.2634
  661SOL    HW1 1982   0.247   2.304   1.058  0.8022 -1.4504 -2.0504
  661SOL    HW2 1983   0.228   2.204   1.177 -1.2282  1.1938  2.1058
  662SOL     OW 1984   0.084   0.585   2.979  0.7703 -0.2750  0.0996
  662SOL    HW1 1985   0.165   0.624   3.028  0.0671  3.5556  0.3880
  662SOL    HW2 1986   0.030   0.665   2.946  1.1169 -0.5090 -0.3691
  663SOL     OW 1987   2.019   1.670   1.033 -0.1279 -0.6772 -0.2441
  663SOL    HW1 1988   1.974   1.601   0.972  0.5483 -1.2260 -0.4143
  663SOL    HW2 1989   1.952   1.717   1.095 -0.3881  0.1480  0.6936
  664SOL     OW 1990   1.087   1.492   1.263  0.5413 -0.3300 -0.2125
  664SOL    HW1 1991   1.077   1.388   1.256 -0.9190 -3.8298 -0.0012
  664SOL    HW2 1992   1.187   1.501   1.279 -0.3806 -1.1701  1.9924
  665SOL     OW 1993   1.755   2.625   2.359 -0.3635  0.1895 -0.2126
  665SOL    HW1 1994   1.695   2.707   2.348 -2.0579  0.4834 -0.7087
  665SOL    HW2 1995   1.847   2.651   2.338  0.3226 -0.5799  0.8725
  666SOL     OW 1996   2.958   2.907   2.766  0.1204 -0.1082 -0.3749
  666SOL    HW1 1997   2.944   2.867   2.857  3.7373  0.4226 -1.1836
  666SOL    HW2 1998   2.970   3.009   2.770  0.9307  0.1508  1.3562
  667SOL     OW 1999   2.318   1.458   2.036 -0.0629  0.0026  0.1169
  667SOL    HW1 2000   2.354   1.380   1.977 -1.0208 -0.4693 -1.0074
  667SOL    HW2 2001   2.292   1.539   1.976  0.5576  2.5283 -0.1996
  668SOL     OW 2002   0.438   1.207   2.543 -0.0544 -0.0262  0.0609
  668SOL    HW1 2003   0.350   1.239   2.501 -1.8395  1.8231 -0.8667
  668SOL    HW2 2004   0.510   1.276   2.562 -0.4916 -0.4992 -0.0484
  669SOL     OW 2005   2.050   2.333   2.487  0.6174  0.0170 -0.5351
  669SOL    HW1 2006   2.114   2.259   2.450 -1.2568  0.7667 -1.5095
  669SOL    HW2 2007   2.052   2.331   2.589 -2.4936  1.6382 -0.2628
  670SOL     OW 2008   2.154   1.126   1.860  0.0739 -0.1709  0.0919
  670SOL    HW1 2009   2.113   1.178   1.934  1.8203  2.7623 -0.7018
  670SOL    HW2 2010   2.190   1.183   1.785  1.9527 -1.3216  2.3586
  671SOL     OW 2011   2.578   1.210   0.275  0.3194 -0.4055  0.2704
  671SOL    HW1 2012   2.637   1.247   0.198  0.7234 -0.5420  0.0309
  671SOL    HW2 2013   2.549   1.285   0.338 -0.7645  0.6289  1.4774
  672SOL     OW 2014   2.294   1.007   2.212  0.4173 -0.4962 -0.4618
  672SOL    HW1 2015   2.253   0.971   2.125  1.2570 -2.8381  0.3210
  672SOL    HW2 2016   2.239   1.092   2.243 -1.6560  1.4557  0.2392
  673SOL     OW 2017   2.841   0.362   1.615 -0.2225 -1.1090  0.0313
  673SOL    HW1 2018   2.841   0.449   1.674 -1.6566 -2.4258  2.1490
  673SOL    HW2 2019   2.758   0.307   1.637  1.7809  0.9630 -0.0306
  674SOL     OW 2020   2.007   1.681   1.432  0.1822  0.2610  0.6512
  674SOL    HW1 2021   1.983   1.721   1.341 -1.0073  1.4263 -1.0123
  674SOL    HW2 2022   1.959   1.725   1.509  0.3394 -2.4246 -0.6234
  675SOL     OW 2023   0.675   0.740   0.811  0.2124  0.4114 -0.1630
  675SOL    HW1 2024   0.608   0.712   0.881 -0.3702  0.4202  1.8006
  675SOL    HW2 2025   0.700   0.653   0.763 -0.5610 -0.9774 -0.7521
  676SOL     OW 2026   1.629   1.136   1.195 -0.2610  0.2059  0.5636
  676SOL    HW1 2027   1.537   1.101   1.173 -0.9556 -2.6197 -0.1106
  676SOL    HW2 2028   1.679   1.079   1.259 -0.3469  0.9245 -1.2078
  677SOL     OW 2029   2.565   1.477   2.185 -0.0358 -0.0508 -0.5446
  677SOL    HW1 2030   2.478   1.483   2.135 -0.9289  0.8723  1.2790
  677SOL    HW2 2031   2.610   1.572   2.183  2.0791  2.0913 -3.0915
  678SOL     OW 2032   2.795   1.703   0.786  0.3042 -0.1492 -0.1730
  678SOL    HW1 2033   2.782   1.687   0.684 -0.9945 -0.1631  0.3075
  678SOL    HW2 2034   2.729   1.651   0.840 -1.0777  1.9688 -1.0508
  679SOL     OW 2035   2.306   2.456   0.215 -0.1847 -0.3263 -0.0335
  679SOL    HW1 2036   2.244   2.392   0.267 -2.0514 -1.3247 -0.6792
  679SOL    HW2 2037   2.300   2.543   0.263 -1.8535 -3.5436 -1.1883
  680SOL     OW 2038   2.973   2.012   1.636  0.0343 -0.1518  0.1522
  680SOL    HW1 2039   3.007   1.941   1.572 -0.8192 -0.6388  1.4753
  680SOL    HW2 2040   3.052   2.064   1.669  1.0473 -0.4491  0.0877
  681SOL     OW 2041   0.464   1.204   1.292 -0.4028  0.7125  0.2300
  681SOL    HW1 2042   0.484   1.172   1.194  1.8527  1.0116 -0.0835
  681SOL    HW2 2043   0.545   1.189   1.352  1.6335 -0.8456  1.1817
  682SOL     OW 2044   1.710   2.518   0.753 -0.1033 -0.0635  0.2523
  682SOL    HW1 2045   1.721   2.621   0.748 -0.4351 -2.1950  1.9246
  682SOL    HW2 2046   1.622   2.483   0.712 -1.3545 -2.1219 -1.3809
  683SOL     OW 2047   2.564   1.388   0.506 -0.6348  0.1033  0.5101
  683SOL    HW1 2048   2.539   1.443   0.589 -1.4322 -2.5553  1.4965
  683SOL    HW2 2049   2.549   1.450   0.427  0.6325 -1.9617  0.0637
  684SOL     OW 2050   0.503   2.035   1.994  0.2370 -0.2200 -0.6860
  684SOL    HW1 2051   0.448   2.106   1.945 -2.2590 -0.5315 -0.6408
  684SOL    HW2 2052   0.445   1.953   2.017 -0.6706  1.4319 -2.4217
  685SOL     OW 2053   2.047   1.426   0.025  0.0960  0.4354 -0.5952
  685SOL    HW1 2054   2.134   1.393   0.071 -0.8721 -2.7209 -1.5472
  685SOL    HW2 2055   1.997   1.345   3.080  0.1361 -0.8660 -1.7672
  686SOL     OW 2056   0.359   0.644   0.745  0.0720 -0.0173  0.3355
  686SOL    HW1 2057   0.285   0.574   0.741 -0.1355 -0.5103 -1.0183
  686SOL    HW2 2058   0.389   0.650   0.837 -2.3459 -1.3679 -1.6487
  687SOL     OW 2059   1.097   2.502   2.652  0.8616 -0.0248  0.3403
  687SOL    HW1 2060   1.171   2.501   2.723  0.9617 -1.3792  1.1947
  687SOL    HW2 2061   1.132   2.467   2.564  0.7946 -0.3506  0.8121
  688SOL     OW 2062   2.512   1.663   1.646 -0.4395  0.0952  0.5400
  688SOL    HW1 2063   2.583   1.606   1.699  0.5296 -2.1231  2.0245
  688SOL    HW2 2064   2.531   1.761   1.653 -1.2093  1.7226 -1.0535
  689SOL     OW 2065   2.329   0.681   2.149  0.0603 -0.1616  0.2387
  689SOL    HW1 2066   2.394   0.739   2.192 -2.0393 -1.8749  0.0736
  689SOL    HW2 2067   2.297   0.722   2.060 -2.9584 -2.1457 -2.2714
  690SOL     OW 2068   2.099   0.830   1.416 -0.5039 -0.3755  0.7446
  690SOL    HW1 2069   2.058   0.789   1.334  1.1462 -3.2259 -1.8342
  690SOL    HW2 2070   2.096   0.930   1.417 -0.6138  0.8598 -0.2898
  691SOL     OW 2071   1.109   2.081   1.539 -0.0406  0.5829 -0.3231
  691SOL    HW1 2072   1.097   1.998   1.601  0.2358  0.7420 -1.0077
  691SOL    HW2 2073   1.023   2.130   1.520 -0.7124 -1.8828 -0.9694
  692SOL     OW 2074   1.873   0.130   1.356 -0.5214 -0.0217 -0.8563
  692SOL    HW1 2075   1.887   0.133   1.458  0.9296  0.7529 -0.9239
  692SOL    HW2 2076   1.863   0.032   1.322  1.0729 -2.7373 -0.9837
  693SOL     OW 2077   0.818   1.121   2.592 -0.3097 -0.2645  0.0574
  693SOL    HW1 2078   0.779   1.049   2.648  3.0226  2.9636 -1.8760
  693SOL    HW2 2079   0.764   1.143   2.507 -3.7813  1.3844 -2.8031
  694SOL     OW 2080   1.725   2.618   1.411  0.4106 -1.0247  0.2109
  694SOL    HW1 2081   1.675   2.650   1.326 -0.6241  1.0604 -0.6410
  694SOL    HW2 2082   1.804   2.677   1.429 -2.3491 -1.6615 -2.0468
  695SOL     OW 2083   1.538   1.413   1.999  0.0812  0.1413 -0.5201
  695SOL    HW1 2084   1.453   1.385   1.947 -0.6329  0.0907  0.8771
  695SOL    HW2 2085   1.514   1.473   2.076  0.4211 -2.0165  1.9278
  696SOL     OW 2086   1.758   0.110   1.045 -0.3770 -0.4292 -0.1014
  696SOL    HW1 2087   1.847   0.146   1.010 -0.9195 -0.0254  0.6512
  696SOL    HW2 2088   1.762   0.081   1.145  3.1105 -0.4655  1.0728
  697SOL     OW 2089   1.180   0.144   1.070  0.1974  0.2527  0.3338
  697SOL    HW1 2090   1.104   0.145   1.137  0.9203 -0.2405 -0.5807
  697SOL    HW2 2091   1.178   0.233   1.025  0.3639  1.6490  0.9920
  698SOL     OW 2092   1.784   1.289   1.941  0.3749  0.1331  0.1937
  698SOL    HW1 2093   1.836   1.336   1.866 -1.0717 -0.2622  1.4298
  698SOL    HW2 2094   1.696   1.338   1.957  0.2899 -0.3601 -2.2507
  699SOL     OW 2095   1.233   1.155   1.400 -0.2352 -0.0590 -0.2483
  699SOL    HW1 2096   1.237   1.068   1.448 -1.2851  3.3078 -0.1268
  699SOL    HW2 2097   1.237   1.143   1.299 -3.6414  0.6601 -1.0387
  700SOL     OW 2098   1.466   0.216   0.259 -0.1026  0.3753 -0.0533
  700SOL    HW1 2099   1.482   0.297   0.193 -0.9639  2.3617  0.0375
  700SOL    HW2 2100   1.408   0.136   0.223 -0.5932 -0.0060  0.8677
  701SOL     OW 2101   0.403   0.051   1.889 -0.4531  0.1337  0.2588
  701SOL    HW1 2102   0.435   0.143   1.922  0.7082  0.6990 -1.1510
  701SOL    HW2 2103   0.411   0.046   1.789  0.7985  2.0979  1.7214
  702SOL     OW 2104   1.342   2.825   0.631 -0.6848  0.2423 -0.3676
  702SOL    HW1 2105   1.371   2.915   0.597  0.1887 -1.0044 -1.3160
  702SOL    HW2 2106   1.338   2.757   0.556 -1.8078  0.4675  0.5452
  703SOL     OW 2107   2.543   0.148   2.114 -0.6362  0.0084  0.4166
  703SOL    HW1 2108   2.479   0.227   2.127  1.9706 -1.7991  0.2658
  703SOL    HW2 2109   2.497   0.079   2.061 -2.0646 -0.7083 -0.9180
  704SOL     OW 2110   1.205   2.284   0.874 -0.2475  0.3360 -0.1766
  704SOL    HW1 2111   1.266   2.203   0.903  2.3878 -3.9061  2.9281
  704SOL    HW2 2112   1.134   2.293   0.948 -2.2962 -2.4169 -0.4342
  705SOL     OW 2113   0.191   1.014   2.326  0.2344 -0.4995 -0.1654
  705SOL    HW1 2114   0.170   0.922   2.366 -2.0201  1.9271  2.0543
  705SOL    HW2 2115   0.162   1.094   2.382 -0.0673  3.3230  0.7997
  706SOL     OW 2116   1.506   0.214   0.528 -0.4908 -0.2328 -0.1640
  706SOL    HW1 2117   1.454   0.289   0.577  0.1545  0.4659  2.2975
  706SOL    HW2 2118   1.480   0.212   0.432  3.1630  0.8608  1.3513
  707SOL     OW 2119   1.254   2.118   2.424 -0.1474 -0.0410 -0.3020
  707SOL    HW1 2120   1.166   2.106   2.473 -0.9703  0.0977  0.5149
  707SOL    HW2 2121   1.253   2.049   2.348 -0.7445  0.3747 -0.7610
  708SOL     OW 2122   2.847   2.087   1.373 -0.1200  0.0349 -0.2595
  708SOL    HW1 2123   2.796   2.000   1.384  0.3011 -0.8794  0.6599
  708SOL    HW2 2124   2.865   2.124   1.468  0.8190 -0.3947  0.7302
  709SOL     OW 2125   2.086   0.310   1.704 -0.6857 -0.0097  0.3416
  709SOL    HW1 2126   2.175   0.336   1.751  2.5245  0.9937  0.2988
  709SOL    HW2 2127   2.047   0.384   1.649  1.4188  1.6538 -0.3995
  710SOL     OW 2128   2.887   0.006   1.337  0.1029  0.3586  0.3491
  710SOL    HW1 2129   2.832   0.080   1.290 -3.4545 -2.7536 -0.8625
  710SOL    HW2 2130   2.835   3.012   1.350 -1.6080 -3.1220  1.2629
  711SOL     OW 2131   0.341   2.410   0.714 -0.5797  0.4824 -0.2538
  711SOL    HW1 2132   0.437   2.377   0.734  1.3232 -1.5227  0.5993
  711SOL    HW2 2133   0.279   2.332   0.724  1.8461 -0.4950 -0.1469
  712SOL     OW 2134   0.210   2.052   2.446  0.3017 -0.3456 -0.4625
  712SOL    HW1 2135   0.249   2.129   2.389  1.0488  2.8410  0.0881
  712SOL    HW2 2136   0.270   1.972   2.436 -0.1473  2.2001  2.5070
  713SOL     OW 2137   1.846   0.645   0.208  0.4245 -0.1394  0.4465
  713SOL    HW1 2138   1.808   0.551   0.218 -1.9395 -3.2008 -0.4101
  713SOL    HW2 2139   1.851   0.678   0.115  0.4504  0.2265  1.9953
  714SOL     OW 2140   1.443   1.852   0.257  0.4589 -0.0415  0.2185
  714SOL    HW1 2141   1.350   1.814   0.260  1.6913  0.8473 -0.9183
  714SOL    HW2 2142   1.447   1.935   0.196  0.6821  2.3319 -1.8853
  715SOL     OW 2143   2.381   0.040   0.552  0.0322 -0.6990  0.2961
  715SOL    HW1 2144   2.345   0.134   0.577 -0.9502  0.2922  0.1370
  715SOL    HW2 2145   2.417   3.089   0.631 -2.4963 -0.9831 -3.9700
  716SOL     OW 2146   0.576   0.701   2.189 -0.4328  0.1429  0.1601
  716SOL    HW1 2147   0.531   0.720   2.277  1.3224 -1.2395  0.8769
  716SOL    HW2 2148   0.520   0.748   2.116  0.2456 -1.1267  0.6800
  717SOL     OW 2149   0.192   0.319   3.008  0.0033  0.2738  0.8067
  717SOL    HW1 2150   0.108   0.274   3.046 -1.4173  0.6273 -0.1991
  717SOL    HW2 2151   0.169   0.415   3.000 -0.8759 -0.9660 -0.6064
  718SOL     OW 2152   1.126   0.897   0.108 -0.0384  0.2323 -0.2473
  718SOL    HW1 2153   1.147   0.907   0.008 -0.5025  0.0668 -2.2646
  718SOL    HW2 2154   1.208   0.860   0.153 -2.5475 -0.2620 -1.8899
  719SOL     OW 2155   2.546   2.100   2.941  0.4196  0.1368  0.4386
  719SOL    HW1 2156   2.557   2.019   2.881 -1.7735  0.6886 -2.6014
  719SOL    HW2 2157   2.634   2.113   2.989  0.4501 -0.7426 -0.1792
  720SOL     OW 2158   1.394   0.910   1.190  0.3496 -0.0191  0.2602
  720SOL    HW1 2159   1.333   0.974   1.135 -1.8038 -0.8117 -1.8267
  720SOL    HW2 2160   1.482   0.892   1.138  4.1433 -1.4275 -2.3842
  721SOL     OW 2161   2.839   0.712   0.509 -0.1084  0.5036 -0.2448
  721SOL    HW1 2162   2.774   0.780   0.545  3.0013 -1.1112  0.0953
  721SOL    HW2 2163   2.936   0.745   0.513  0.3282  0.7742  0.4131
  722SOL     OW 2164   1.043   2.060   2.614  0.6007 -0.2871  0.1144
  722SOL    HW1 2165   1.105   2.069   2.695  3.0113  1.6128  0.8322
  722SOL    HW2 2166   0.963   2.118   2.630  1.4817 -1.0298 -0.1185
  723SOL     OW 2167   0.612   0.865   0.432  0.3139  0.3332  0.0375
  723SOL    HW1 2168   0.680   0.926   0.474 -2.1352  0.7283  1.7293
  723SOL    HW2 2169   0.519   0.913   0.432 -0.3910  3.8999 -0.5861
  724SOL     OW 2170   0.959   1.945   1.735 -0.1593 -0.7011 -0.1360
  724SOL    HW1 2171   0.932   1.878   1.667 -0.1339  0.2227  0.3146
  724SOL    HW2 2172   0.869   1.984   1.772 -3.1764 -0.9498  0.0769
  725SOL     OW 2173   3.074   1.101   1.412 -0.0704  0.2180 -0.0818
  725SOL    HW1 2174   0.078   1.086   1.403 -1.2947 -1.3157  1.2592
  725SOL    HW2 2175   3.050   1.154   1.499 -1.6077  0.8997  0.4429
  726SOL     OW 2176   1.755   0.226   0.363 -0.1812 -0.0218  0.2657
  726SOL    HW1 2177   1.665   0.238   0.411 -1.2022  0.1248  1.3264
  726SOL    HW2 2178   1.827   0.257   0.426 -2.3191  1.8667  0.5276
  727SOL     OW 2179   1.429   1.009   2.260 -0.4546  0.0817 -0.0441
  727SOL    HW1 2180   1.458   1.106   2.257  0.4594 -2.5087 -1.4885
  727SOL    HW2 2181   1.497   0.941   2.227  0.6114 -0.6141 -0.6796
  728SOL     OW 2182   1.469   2.430   1.408 -0.4062  0.0658  0.1797
  728SOL    HW1 2183   1.495   2.334   1.441 -0.4245 -0.7307 -0.9448
  728SOL    HW2 2184   1.528   2.492   1.456 -1.3188 -1.7950  0.3567
  729SOL     OW 2185   1.324   0.432   1.518 -0.0748  0.4500  0.2809
  729SOL    HW1 2186   1.322   0.464   1.422 -0.2343  0.3547 -0.4504
  729SOL    HW2 2187   1.399   0.368   1.533 -1.7391 -1.3890 -0.9829
  730SOL     OW 2188   0.724   2.058   1.844  0.2231 -0.4314 -0.2745
  730SOL    HW1 2189   0.676   2.100   1.764  0.0108  1.4729  2.0028
  730SOL    HW2 2190   0.659   2.047   1.917  0.4131  2.3564 -1.9454
  731SOL     OW 2191   0.368   0.338   0.318 -0.1333  0.7210 -0.2380
  731SOL    HW1 2192   0.380   0.276   0.397 -0.2631  0.8356  0.7982
  731SOL    HW2 2193   0.416   0.312   0.233 -0.5283 -1.8915 -1.3343
  732SOL     OW 2194   0.703   0.527   2.797  0.3106 -0.2590  0.4296
  732SOL    HW1 2195   0.725   0.431   2.792  1.0791  2.3176 -0.7386
  732SOL    HW2 2196   0.625   0.546   2.855  0.4673 -0.4052 -1.2233
  733SOL     OW 2197   1.469   2.066   1.352 -0.1728 -0.1269 -0.4131
  733SOL    HW1 2198   1.395   1.996   1.360 -0.7008  0.7343  1.3990
  733SOL    HW2 2199   1.500   2.105   1.439  1.9641 -1.1631  1.6171
  734SOL     OW 2200   2.954   2.689   2.599 -0.4458 -0.2500  0.3945
  734SOL    HW1 2201   2.964   2.605   2.655 -1.3733  0.8768  0.3870
  734SOL    HW2 2202   2.954   2.775   2.657 -0.1044 -0.8180 -0.3209
  735SOL     OW 2203   0.853   2.706   0.863 -0.8859 -0.0732  0.1244
  735SOL    HW1 2204   0.877   2.793   0.914 -1.1962 -0.3620 -0.1947
  735SOL    HW2 2205   0.854   2.721   0.767 -1.3650 -0.6013  0.6490
  736SOL     OW 2206   1.595   0.987   2.710 -0.3375 -0.1259 -0.4062
  736SOL    HW1 2207   1.520   0.941   2.653  0.5337 -1.0600  2.0520
  736SOL    HW2 2208   1.554   1.052   2.774  1.7352  1.7884  0.7637
  737SOL     OW 2209   0.084   0.582   0.458 -0.0151  0.2206 -0.7074
  737SOL    HW1 2210   0.078   0.505   0.396  0.0441  2.7166  1.8630
  737SOL    HW2 2211   0.058   0.564   0.555  0.4826 -0.8339  3.8252
  738SOL     OW 2212   3.005   2.416   1.482  0.0880 -0.3239 -0.4072
  738SOL    HW1 2213   2.922   2.378   1.520 -0.9138 -0.7155  1.0047
  738SOL    HW2 2214   3.039   2.494   1.539  1.6575  1.7823 -2.8668
  739SOL     OW 2215   1.652   2.845   0.487 -0.4107 -0.9013 -0.4990
  739SOL    HW1 2216   1.602   2.806   0.566  0.2368  0.8217 -2.3913
  739SOL    HW2 2217   1.739   2.891   0.520  0.7699 -0.0068 -0.6689
  740SOL     OW 2218   1.521   2.956   1.233  0.6625 -0.0120 -0.6652
  740SOL    HW1 2219   1.459   2.996   1.161 -0.6504  1.9565 -1.1026
  740SOL    HW2 2220   1.548   2.865   1.205  0.3349  3.3466 -1.1470
  741SOL     OW 2221   2.118   0.198   0.796  0.1571 -0.5411  0.1275
  741SOL    HW1 2222   2.057   0.277   0.815  0.6624  1.5558 -0.3036
  741SOL    HW2 2223   2.182   0.213   0.714  1.8834 -0.9365 -2.5906
  742SOL     OW 2224   1.508   1.916   2.086  0.7859  0.1485 -0.0358
  742SOL    HW1 2225   1.595   1.876   2.123 -0.6849 -1.4756  0.9257
  742SOL    HW2 2226   1.509   2.020   2.079  3.9772  2.0972  0.1034
  743SOL     OW 2227   2.442   0.455   1.758  0.1437 -0.8334 -0.3987
  743SOL    HW1 2228   2.382   0.439   1.837  0.7082  2.0207 -0.3639
  743SOL    HW2 2229   2.431   0.542   1.713  1.5345 -0.1891 -0.2094
  744SOL     OW 2230   2.343   0.414   1.016 -0.1750  0.1916  0.1383
  744SOL    HW1 2231   2.318   0.455   0.925 -1.5097 -1.0874 -0.3751
  744SOL    HW2 2232   2.357   0.493   1.079  0.6738 -1.3582  2.8743
  745SOL     OW 2233   2.235   1.616   1.655  0.1672  0.1102 -0.1469
  745SOL    HW1 2234   2.186   1.698   1.693  0.4244  2.5387  0.5798
  745SOL    HW2 2235   2.335   1.621   1.680  0.0151  1.4732  1.5393
  746SOL     OW 2236   1.046   1.434   0.959  0.2099 -0.1204 -0.1692
  746SOL    HW1 2237   0.945   1.454   0.957 -0.8523  0.5555 -0.3492
  746SOL    HW2 2238   1.086   1.457   1.049 -0.4242 -2.1473  1.0154
  747SOL     OW 2239   1.786   1.233   0.986 -0.4008  0.0458  0.1350
  747SOL    HW1 2240   1.720   1.199   1.058  1.8929  0.4693  2.5047
  747SOL    HW2 2241   1.867   1.273   1.035  1.5182  1.2216  0.4338
  748SOL     OW 2242   0.020   2.992   0.321 -0.6454  0.2418  0.3784
  748SOL    HW1 2243   0.009   3.073   0.257 -1.2699  2.9745  0.0019
  748SOL    HW2 2244   0.110   2.947   0.310 -0.5609 -0.7718  1.3269
  749SOL     OW 2245   0.317   0.518   2.136  0.3133 -0.0629  0.1843
  749SOL    HW1 2246   0.360   0.587   2.198  0.5159  2.7778  2.1876
  749SOL    HW2 2247   0.280   0.564   2.050 -0.1101  2.3793  0.3959
  750SOL     OW 2248   1.881   2.963   1.664 -0.5964  0.1863  0.7637
  750SOL    HW1 2249   1.875   3.062   1.641  0.6078 -0.4923 -0.8219
  750SOL    HW2 2250   1.783   2.919   1.673 -1.3888 -1.1363  1.7534
  751SOL     OW 2251   3.014   0.385   0.678  0.2105  0.0181  0.3408
  751SOL    HW1 2252   2.972   0.400   0.588  2.0884 -1.6355  0.5725
  751SOL    HW2 2253   2.945   0.383   0.755  0.3315 -1.4423  2.6500
  752SOL     OW 2254   0.311   2.890   0.970 -0.1675 -0.0084  0.3292
  752SOL    HW1 2255   0.326   2.787   0.967  0.0411  0.4590 -2.4922
  752SOL    HW2 2256   0.248   2.917   0.896  1.4574 -0.7625  0.8084
  753SOL     OW 2257   1.027   0.242   1.938  0.0302 -0.1627  0.4983
  753SOL    HW1 2258   1.044   0.141   1.945 -2.3806  0.0570 -1.9979
  753SOL    HW2 2259   1.069   0.278   1.850  0.0237  0.4864  1.5367
  754SOL     OW 2260   0.995   2.719   1.966  0.1844 -0.5230  0.4155
  754SOL    HW1 2261   1.078   2.699   2.019 -0.8364  1.4392 -0.6431
  754SOL    HW2 2262   0.935   2.790   2.016  0.3873 -0.0235  2.3582
  755SOL     OW 2263   2.550   1.123   0.624 -0.2276  0.2464  0.1677
  755SOL    HW1 2264   2.586   1.164   0.708  0.1190 -0.0335  0.0978
  755SOL    HW2 2265   2.558   1.190   0.552 -0.3382  0.8656  2.0321
  756SOL     OW 2266   1.869   1.911   2.649 -0.3991 -0.1930 -0.7461
  756SOL    HW1 2267   1.806   1.927   2.733  2.5549 -0.2777  1.7286
  756SOL    HW2 2268   1.954   1.966   2.645 -2.9206 -1.1567 -2.1313
  757SOL     OW 2269   2.118   2.918   0.902 -0.0113  0.2057  0.9694
  757SOL    HW1 2270   2.159   2.838   0.955 -4.0507 -0.3704  0.7261
  757SOL    HW2 2271   2.059   2.880   0.828  1.2152  0.4510  0.2109
  758SOL     OW 2272   1.226   2.737   0.876  0.3310 -0.2440  0.4245
  758SOL    HW1 2273   1.172   2.795   0.813  0.9184 -1.8731 -2.2385
  758SOL    HW2 2274   1.258   2.652   0.823  0.4613 -4.6322 -0.9559
  759SOL     OW 2275   2.427   0.396   1.272  0.0070 -0.6368  0.0479
  759SOL    HW1 2276   2.396   0.365   1.184 -1.0456  0.5651  2.6845
  759SOL    HW2 2277   2.459   0.318   1.324  1.8893 -0.0090 -0.3727
  760SOL     OW 2278   2.170   1.112   1.489  0.1542 -0.1954 -0.6183
  760SOL    HW1 2279   2.250   1.085   1.431 -3.0285  0.1295  0.9804
  760SOL    HW2 2280   2.219   1.151   1.569  1.2051  0.6671 -3.0073
  761SOL     OW 2281   0.618   1.006   0.778  0.3515  0.2543  0.1464
  761SOL    HW1 2282   0.527   1.028   0.824 -3.2786 -0.9224 -0.1289
  761SOL    HW2 2283   0.639   0.910   0.802  0.5305  3.9294 -0.7169
  762SOL     OW 2284   2.180   1.524   1.305  0.0351  0.3365 -0.3010
  762SOL    HW1 2285   2.194   1.545   1.207  2.4306  1.7413  2.1051
  762SOL    HW2 2286   2.121   1.593   1.352  1.0061 -1.0735 -0.7756
  763SOL     OW 2287   1.249   1.605   1.769  0.0888 -0.1469 -0.1513
  763SOL    HW1 2288   1.233   1.622   1.665 -2.7203  0.9047  0.3067
  763SOL    HW2 2289   1.304   1.678   1.812  0.1719  0.3704  1.5146
  764SOL     OW 2290   3.068   1.989   2.085 -0.1180 -0.0990  0.1362
  764SOL    HW1 2291   3.011   2.053   2.034  0.9389 -0.9123  3.3132
  764SOL    HW2 2292   3.044   1.993   2.181  1.2336 -0.7188 -0.3758
  765SOL     OW 2293   1.271   2.406   1.228 -0.4076  0.4902  0.2247
  765SOL    HW1 2294   1.186   2.397   1.281  1.5822 -1.3999  1.5920
  765SOL    HW2 2295   1.345   2.406   1.298 -2.2601 -2.1066  0.2263
  766SOL     OW 2296   0.291   2.425   2.515 -0.7450 -0.7648  0.1112
  766SOL    HW1 2297   0.368   2.462   2.566  0.4363  2.3784  1.3423
  766SOL    HW2 2298   0.267   2.498   2.446 -1.7531 -0.7645 -0.1077
  767SOL     OW 2299   1.441   0.890   2.518  1.1571  0.2675 -0.2382
  767SOL    HW1 2300   1.376   0.806   2.516 -1.5777 -2.5541  0.4309
  767SOL    HW2 2301   1.422   0.947   2.432 -2.8291 -0.9766  2.9371
  768SOL     OW 2302   1.351   2.763   3.078  0.2245  0.2278  0.1829
  768SOL    HW1 2303   1.323   2.791   0.073 -2.4396 -1.4257  0.2904
  768SOL    HW2 2304   1.406   2.675   3.080  2.5580  0.7223 -0.4405
  769SOL     OW 2305   0.050   2.855   1.480 -0.2942 -0.4419  0.0312
  769SOL    HW1 2306   3.074   2.844   1.407 -1.2046  1.6360  0.2342
  769SOL    HW2 2307   0.134   2.802   1.453  1.0509 -1.0528 -3.6790
  770SOL     OW 2308   1.063   0.312   2.738  0.7221  0.1566 -0.4050
  770SOL    HW1 2309   0.965   0.288   2.753  0.0469  0.2352  0.7748
  770SOL    HW2 2310   1.102   0.369   2.815  2.0755 -0.5357  0.6817
  771SOL     OW 2311   0.401   0.271   2.249  0.0379  0.5586 -0.1816
  771SOL    HW1 2312   0.338   0.192   2.245  0.5307  0.6877 -2.4439
  771SOL    HW2 2313   0.365   0.351   2.200  0.4482 -0.9393 -0.0656
  772SOL     OW 2314   2.485   3.057   1.933  0.0718 -0.2585  0.7737
  772SOL    HW1 2315   2.552   3.071   1.857  0.4931  1.6997  0.0133
  772SOL    HW2 2316   2.518   2.974   1.978 -2.0937 -1.0842 -0.7666
  773SOL     OW 2317   0.867   2.464   1.702 -0.0240  0.1835 -0.4247
  773SOL    HW1 2318   0.883   2.453   1.800  1.3785  2.3466  0.0148
  773SOL    HW2 2319   0.781   2.512   1.682 -1.6252  0.0786 -0.7412
  774SOL     OW 2320   1.231   0.478   1.970 -0.2670  0.0145 -0.1223
  774SOL    HW1 2321   1.330   0.445   1.979  2.3304  2.6550 -1.6272
  774SOL    HW2 2322   1.172   0.396   1.958 -0.4381 -1.6143 -0.6094
  775SOL     OW 2323   2.100   2.953   2.848 -0.4572 -0.3263 -0.0125
  775SOL    HW1 2324   2.030   3.012   2.894 -1.5997 -0.0285 -0.8483
  775SOL    HW2 2325   2.182   3.008   2.818  1.7317 -0.2985 -2.2245
  776SOL     OW 2326   2.079   0.593   2.217 -0.2257 -0.2552  0.2850
  776SOL    HW1 2327   2.012   0.671   2.199 -0.1585  2.1125 -3.5329
  776SOL    HW2 2328   2.164   0.607   2.169 -1.6991  3.3722 -0.3658
  777SOL     OW 2329   2.413   1.108   2.614 -0.1005 -0.0847 -0.1785
  777SOL    HW1 2330   2.507   1.127   2.579  1.0188 -1.9428  0.7220
  777SOL    HW2 2331   2.343   1.111   2.544  0.8657 -1.2513 -1.4593
  778SOL     OW 2332   1.855   0.713   2.108  0.2894  0.1497 -0.3456
  778SOL    HW1 2333   1.904   0.722   2.019 -1.2036  1.9638 -0.0987
  778SOL    HW2 2334   1.765   0.673   2.085  2.6914  1.8106 -1.5402
  779SOL     OW 2335   3.052   0.111   0.165  0.3106  0.2227  0.4733
  779SOL    HW1 2336   0.020   0.182   0.205 -1.3998  0.1604 -1.9052
  779SOL    HW2 2337   3.045   0.126   0.063 -0.8470 -1.5930  2.1286
  780SOL     OW 2338   2.381   0.592   2.902  0.3263  0.4056  0.0885
  780SOL    HW1 2339   2.354   0.527   2.827  0.3624 -0.6979 -0.3582
  780SOL    HW2 2340   2.309   0.661   2.906 -1.8395  0.5160 -0.4597
  781SOL     OW 2341   0.362   2.708   1.464 -0.0536 -0.2197 -0.5967
  781SOL    HW1 2342   0.346   2.805   1.427 -1.8763  2.7063 -0.5149
  781SOL    HW2 2343   0.286   2.644   1.433  0.8177  0.6232 -0.2413
  782SOL     OW 2344   2.016   2.483   0.261 -0.1805 -0.5361  0.0290
  782SOL    HW1 2345   1.936   2.441   0.307 -0.7029  2.1429  0.6771
  782SOL    HW2 2346   1.987   2.567   0.217  2.2266 -0.4916  0.5780
  783SOL     OW 2347   0.817   1.481   1.633  0.2887 -0.6772 -0.0748
  783SOL    HW1 2348   0.842   1.476   1.535 -1.3005  0.8806  1.0847
  783SOL    HW2 2349   0.753   1.408   1.662  4.2734 -1.8674 -2.0403
  784SOL     OW 2350   1.595   0.895   2.070 -1.1622 -0.0740  0.0827
  784SOL    HW1 2351   1.672   0.953   2.031  1.9575  1.5839 -2.0218
  784SOL    HW2 2352   1.615   0.795   2.083 -2.3882 -2.1907  3.6966
  785SOL     OW 2353   2.687   0.180   0.967 -0.7489 -0.4223 -0.2063
  785SOL    HW1 2354   2.584   0.167   0.959 -1.3225 -0.6715  1.2670
  785SOL    HW2 2355   2.727   0.098   0.918 -0.3120 -1.8616 -2.9310
  786SOL     OW 2356   1.284   2.665   1.401  0.6480  0.1904 -0.6422
  786SOL    HW1 2357   1.334   2.578   1.402 -1.7757 -0.4177  1.8514
  786SOL    HW2 2358   1.262   2.702   1.308  3.1982  2.3065 -2.1777
  787SOL     OW 2359   1.413   0.075   1.361 -0.0858 -0.1242 -0.5347
  787SOL    HW1 2360   1.317   0.069   1.391  1.4936 -3.0073  1.0693
  787SOL    HW2 2361   1.454   3.083   1.333  0.2833  0.7446  0.6831
  788SOL     OW 2362   3.062   1.085   0.152 -0.0130 -0.0722  0.2176
  788SOL    HW1 2363   0.017   1.017   0.098  1.4202  0.0579 -0.5147
  788SOL    HW2 2364   3.026   1.039   0.237  1.0494  1.6783 -1.5123
  789SOL     OW 2365   0.499   1.347   1.870  0.3087 -0.2117  0.1035
  789SOL    HW1 2366   0.512   1.409   1.954  0.2836  3.2934  2.0222
  789SOL    HW2 2367   0.455   1.406   1.801 -0.2089  2.2025  1.0169
  790SOL     OW 2368   0.279   0.610   2.606 -0.2657 -0.3980 -0.4365
  790SOL    HW1 2369   0.346   0.647   2.674  0.1584  2.5351 -2.3107
  790SOL    HW2 2370   0.184   0.607   2.636  2.1658  0.5863  1.1141
  791SOL     OW 2371   2.141   0.821   0.564  0.3833 -0.0403  0.0076
  791SOL    HW1 2372   2.055   0.799   0.510 -0.8580 -1.8849 -1.1642
  791SOL    HW2 2373   2.155   0.921   0.580 -0.8500 -1.6741  2.0150
  792SOL     OW 2374   1.163   2.935   1.440  0.1308  0.2340  0.1499
  792SOL    HW1 2375   1.100   2.929   1.359  1.6833 -1.5143 -2.0848
  792SOL    HW2 2376   1.189   2.838   1.473  2.2201 -2.3870 -1.0652
  793SOL     OW 2377   0.295   2.932   1.264 -0.4809  0.0136  0.3397
  793SOL    HW1 2378   0.290   2.898   1.169  0.2675 -0.3857  0.7650
  793SOL    HW2 2379   0.226   3.011   1.272 -1.3391 -2.0623 -0.2966
  794SOL     OW 2380   0.226   0.739   2.365  0.2103  0.1361  0.3978
  794SOL    HW1 2381   0.249   0.683   2.451 -1.5430 -1.5290  1.0126
  794SOL    HW2 2382   0.145   0.697   2.314 -0.1959 -0.8488  0.3513
  795SOL     OW 2383   0.461   2.657   2.743 -0.5755  0.4290 -0.3863
  795SOL    HW1 2384   0.540   2.647   2.808 -2.0262  1.6604 -1.7327
  795SOL    HW2 2385   0.469   2.745   2.689 -2.4504 -1.8395  0.1069
  796SOL     OW 2386   2.157   0.542   2.464  0.0258 -0.1565 -0.2086
  796SOL    HW1 2387   2.176   0.636   2.500  1.0794  0.4027  0.7800
  796SOL    HW2 2388   2.115   0.542   2.370 -0.4752  1.9568  1.2882
  797SOL     OW 2389   2.393   2.549   2.481  0.1728 -0.0839  0.1057
  797SOL    HW1 2390   2.489   2.588   2.488  3.4323 -0.5495  0.1734
  797SOL    HW2 2391   2.326   2.623   2.497  0.2051  1.8515  3.3893
  798SOL     OW 2392   0.302   0.413   1.823  0.5633 -0.0124  0.7327
  798SOL    HW1 2393   0.344   0.353   1.890 -1.2705  2.2456  0.2904
  798SOL    HW2 2394   0.220   0.374   1.782  2.0455  1.8802  0.5651
  799SOL     OW 2395   0.527   2.766   2.059  0.1934 -0.1480  0.3503
  799SOL    HW1 2396   0.538   2.868   2.055 -0.4851 -1.8624 -2.7519
  799SOL    HW2 2397   0.532   2.722   2.152 -2.3488 -2.0450 -1.1797
  800SOL     OW 2398   3.067   2.326   0.200 -0.2480  0.3562  0.7613
  800SOL    HW1 2399   3.002   2.403   0.223 -1.7173  0.1485 -0.4600
  800SOL    HW2 2400   0.068   2.341   0.237  0.9208 -0.7603 -0.8271
  801SOL     OW 2401   1.844   1.618   0.805  0.2824 -0.1555  0.4267
  801SOL    HW1 2402   1.929   1.638   0.754 -1.5919 -0.0114  0.6367
  801SOL    HW2 2403   1.774   1.682   0.771 -1.3151  1.4625 -2.1022
  802SOL     OW 2404   0.375   0.159   0.538 -0.3221  0.3954 -0.4842
  802SOL    HW1 2405   0.476   0.179   0.544 -0.4181 -1.8300  1.4678
  802SOL    HW2 2406   0.334   0.134   0.631 -0.1324 -0.8625 -0.9910
  803SOL     OW 2407   1.337   1.349   1.804 -0.4753  0.4097  0.4086
  803SOL    HW1 2408   1.394   1.304   1.731 -1.4112  0.0708 -0.4351
  803SOL    HW2 2409   1.302   1.435   1.768  3.2735 -0.1733  1.2003
  804SOL     OW 2410   1.763   2.014   0.848  0.1034  0.0006 -0.3411
  804SOL    HW1 2411   1.791   1.998   0.946 -0.3771  0.0019  3.2830
  804SOL    HW2 2412   1.736   1.926   0.807  1.0956  1.4172  0.7393
  805SOL     OW 2413   0.036   1.997   2.698  0.4673  0.1476  0.8145
  805SOL    HW1 2414   0.040   1.910   2.748  0.5033  1.9048 -2.4499
  805SOL    HW2 2415   0.075   1.986   2.609 -1.7304  1.2601  0.9164
  806SOL     OW 2416   0.646   2.485   0.374 -0.1423 -0.0359 -0.4647
  806SOL    HW1 2417   0.702   2.443   0.454  1.2259  0.7005  1.1300
  806SOL    HW2 2418   0.550   2.496   0.405  1.0636  1.5682 -1.3503
  807SOL     OW 2419   2.142   1.518   2.748 -0.4263 -0.7033 -0.0622
  807SOL    HW1 2420   2.219   1.472   2.800  0.8397 -0.2097 -0.1590
  807SOL    HW2 2421   2.078   1.557   2.816 -1.1743 -0.2453 -1.0802
  808SOL     OW 2422   1.438   2.210   1.129  0.0211  0.1748  0.0794
  808SOL    HW1 2423   1.467   2.146   1.201  1.2288 -2.0765  0.5335
  808SOL    HW2 2424   1.354   2.260   1.158 -0.3421  2.5457  1.2686
  809SOL     OW 2425   0.289   0.694   0.318 -0.4620 -0.0483 -0.2302
  809SOL    HW1 2426   0.370   0.670   0.377  0.2199  0.2881  0.3557
  809SOL    HW2 2427   0.205   0.692   0.371  4.3420 -1.2494 -1.7475
  810SOL     OW 2428   1.350   1.542   3.027 -0.2094  0.4517 -0.0167
  810SOL    HW1 2429   1.269   1.487   3.058 -0.1224  0.7763 -1.6628
  810SOL    HW2 2430   1.398   1.583   0.010  0.3926 -1.2792  0.3866
  811SOL     OW 2431   1.720   2.262   1.157  0.1993  0.1600  0.4277
  811SOL    HW1 2432   1.770   2.294   1.074 -0.3255 -1.6389 -0.0457
  811SOL    HW2 2433   1.622   2.264   1.142  1.5998  0.1318 -0.4000
  812SOL     OW 2434   1.321   3.024   0.987  0.7059 -0.9999  0.2190
  812SOL    HW1 2435   1.270   2.941   0.976  2.0045  1.1288 -1.4456
  812SOL    HW2 2436   1.260   0.006   1.018  1.0369  2.0671 -1.1121
  813SOL     OW 2437   0.748   0.041   1.834 -0.1169  0.6032  0.1388
  813SOL    HW1 2438   0.729   0.141   1.818 -1.2868  0.3953 -1.4913
  813SOL    HW2 2439   0.684   0.009   1.905 -0.2187  1.7832 -0.0467
  814SOL     OW 2440   0.897   2.451   1.983  0.5681 -0.4891  0.3494
  814SOL    HW1 2441   0.922   2.430   2.080  1.5763  1.0590  1.7002
  814SOL    HW2 2442   0.923   2.549   1.965 -0.1411 -0.0472  2.5759
  815SOL     OW 2443   0.402   0.272   2.583  0.1744  0.1852 -0.1897
  815SOL    HW1 2444   0.501   0.244   2.575 -1.3878 -2.6269  1.2417
  815SOL    HW2 2445   0.384   0.349   2.519  0.3313  0.3811  1.1682
  816SOL     OW 2446   2.166   0.883   0.157 -0.7816 -0.1503  0.0113
  816SOL    HW1 2447   2.164   0.783   0.177  4.1542  0.8211 -1.5937
  816SOL    HW2 2448   2.078   0.928   0.135  2.6634 -0.3020  0.4325
  817SOL     OW 2449   2.980   2.429   2.250 -0.8641  0.0509 -0.7894
  817SOL    HW1 2450   2.886   2.432   2.227  3.2103 -1.4865  1.6240
  817SOL    HW2 2451   3.002   2.372   2.334 -0.7056 -0.9231 -2.3765
  818SOL     OW 2452   0.958   1.258   0.583 -1.1797  0.8356 -0.1036
  818SOL    HW1 2453   0.892   1.335   0.557  0.6244  1.6319  0.0347
  818SOL    HW2 2454   1.036   1.249   0.513 -0.7598  1.4134 -0.0092
  819SOL     OW 2455   1.736   1.164   2.556 -0.8720  0.0198  0.1065
  819SOL    HW1 2456   1.726   1.121   2.464  1.3409  1.4370  1.0157
  819SOL    HW2 2457   1.687   1.104   2.627  0.8083 -1.8937  0.9245
  820SOL     OW 2458   0.371   1.426   3.076  0.0468 -0.5769  0.3150
  820SOL    HW1 2459   0.344   1.518   0.017 -2.1710  0.5707 -0.7402
  820SOL    HW2 2460   0.346   1.355   0.046  0.9450  0.7297 -0.7249
  821SOL     OW 2461   0.532   3.032   0.850  0.0071  0.0302 -0.4592
  821SOL    HW1 2462   0.568   2.988   0.768 -0.5385  0.4309  2.2947
  821SOL    HW2 2463   0.475   2.969   0.908 -2.6813 -2.3647 -0.8671
  822SOL     OW 2464   2.100   2.325   2.775  0.4085 -0.4506 -0.2790
  822SOL    HW1 2465   2.192   2.310   2.817 -0.0946 -1.1354  1.5202
  822SOL    HW2 2466   2.067   2.419   2.813  1.5335  1.4587 -0.5272
  823SOL     OW 2467   1.217   0.380   2.520  0.5155 -0.2782 -0.1458
  823SOL    HW1 2468   1.304   0.326   2.521 -0.2130  0.8163  2.6448
  823SOL    HW2 2469   1.159   0.351   2.599 -1.6210  0.7103 -2.7637
  824SOL     OW 2470   2.634   2.645   1.511  0.2229 -0.3750 -0.0815
  824SOL    HW1 2471   2.646   2.656   1.614 -0.6679 -3.8759 -1.0135
  824SOL    HW2 2472   2.668   2.729   1.459 -0.8743  4.5390 -3.6323
  825SOL     OW 2473   0.097   2.330   2.661  0.1604 -0.2428  0.9198
  825SOL    HW1 2474   0.153   2.373   2.584 -1.5985  2.6847  0.2486
  825SOL    HW2 2475   0.158   2.278   2.728 -3.0080 -2.4255  1.1663
  826SOL     OW 2476   1.735   0.222   3.006 -0.2974 -0.4618 -0.1014
  826SOL    HW1 2477   1.764   0.278   3.087 -3.2299  2.1117 -1.6771
  826SOL    HW2 2478   1.718   0.288   2.928  2.4890  1.3858  1.0145
  827SOL     OW 2479   0.037   1.713   1.691 -0.3363  0.8112 -0.2319
  827SOL    HW1 2480   0.007   1.616   1.682 -0.7301  0.4935 -1.0185
  827SOL    HW2 2481   3.095   1.760   1.772  3.3376 -2.6334 -1.2297
  828SOL     OW 2482   0.075   0.011   1.272 -0.1864 -0.3747  0.0681
  828SOL    HW1 2483   0.100   0.102   1.313  0.6713 -1.0422  2.3951
  828SOL    HW2 2484   3.082   3.075   1.307 -0.0734  0.2843 -2.4391
  829SOL     OW 2485   0.778   2.353   2.439  0.3180  0.2109 -0.1391
  829SOL    HW1 2486   0.777   2.278   2.515  0.8771 -3.1385  1.7278
  829SOL    HW2 2487   0.738   2.436   2.481 -3.5605  0.6876 -0.5158
  830SOL     OW 2488   0.534   0.788   1.643  0.4047  0.3735  0.0867
  830SOL    HW1 2489   0.632   0.806   1.669 -2.2769 -3.0028 -0.0509
  830SOL    HW2 2490   0.489   0.737   1.724  1.6968 -0.6890  1.2225
  831SOL     OW 2491   2.602   1.796   2.756  0.8196  0.0359  0.5065
  831SOL    HW1 2492   2.673   1.826   2.689 -0.7114 -1.4027 -0.1584
  831SOL    HW2 2493   2.634   1.801   2.850 -1.8435 -0.2004 -0.3155
  832SOL     OW 2494   1.509   2.525   3.070 -0.4792 -0.4237 -0.3080
  832SOL    HW1 2495   1.524   2.431   0.022 -0.1694 -3.5477  2.6792
  832SOL    HW2 2496   1.552   2.528   2.980 -0.0270 -1.7981  0.3403
  833SOL     OW 2497   0.499   0.285   1.965  0.1393  0.2269 -0.5359
  833SOL    HW1 2498   0.548   0.290   1.870  1.3710  0.8389  0.2247
  833SOL    HW2 2499   0.545   0.342   2.037  0.2393  1.8853  0.4830
  834SOL     OW 2500   0.136   0.766   1.200 -0.0957  0.1810  0.3096
  834SOL    HW1 2501   0.223   0.737   1.248  0.9894 -1.1866  1.7597
  834SOL    HW2 2502   0.060   0.724   1.252  1.1772 -1.7799 -0.0374
  835SOL     OW 2503   2.463   0.507   0.406  0.1562 -0.3270 -0.3521
  835SOL    HW1 2504   2.554   0.514   0.365  0.6909  0.9941  0.5628
  835SOL    HW2 2505   2.417   0.599   0.396  0.4775  2.3066 -1.7494
  836SOL     OW 2506   1.027   2.371   0.418  0.3664  0.2716 -0.1278
  836SOL    HW1 2507   1.087   2.301   0.462 -2.5020  2.0089 -0.2146
  836SOL    HW2 2508   1.084   2.434   0.361  1.2189  1.9420  0.2672
  837SOL     OW 2509   1.925   1.765   0.333  0.4237 -0.0885  0.0301
  837SOL    HW1 2510   1.996   1.717   0.275  0.3662  1.5910  1.1099
  837SOL    HW2 2511   1.858   1.695   0.366 -1.6314  0.4333  0.3884
  838SOL     OW 2512   1.850   0.878   2.326 -0.5294  0.3323  0.4679
  838SOL    HW1 2513   1.849   0.829   2.233 -0.5549 -0.0664 -3.7012
  838SOL    HW2 2514   1.801   0.967   2.311 -1.5230  3.6130  0.4449
  839SOL     OW 2515   0.973   1.478   2.525  0.2675  0.1542  0.0843
  839SOL    HW1 2516   0.995   1.392   2.475  1.1757  2.5713  2.0141
  839SOL    HW2 2517   0.962   1.557   2.464  0.6326 -0.9541 -0.8913
  840SOL     OW 2518   0.942   1.345   0.127  0.0094 -0.4228 -0.1544
  840SOL    HW1 2519   0.967   1.270   0.187 -0.7011  0.6723 -1.6569
  840SOL    HW2 2520   0.888   1.308   0.049  1.7293  0.8630 -0.0283
  841SOL     OW 2521   1.465   2.296   0.277 -0.2511  0.2524 -0.4451
  841SOL    HW1 2522   1.494   2.256   0.365 -1.0969  0.6921  2.4220
  841SOL    HW2 2523   1.539   2.341   0.224 -0.9592 -1.3377  0.3246
  842SOL     OW 2524   0.291   0.683   0.058  0.2330 -0.0942  0.0378
  842SOL    HW1 2525   0.355   0.605   0.037 -0.6189 -0.7710 -0.3679
  842SOL    HW2 2526   0.276   0.686   0.159 -0.3267 -0.1239  0.3595
  843SOL     OW 2527   0.586   0.401   1.019  0.1521 -0.5512  0.4163
  843SOL    HW1 2528   0.584   0.314   0.959  0.2536 -1.1652 -0.8271
  843SOL    HW2 2529   0.677   0.405   1.069 -2.7355  2.4657 -1.1022
  844SOL     OW 2530   1.982   2.787   2.333 -0.4549  1.0315  0.2764
  844SOL    HW1 2531   2.034   2.755   2.251  0.8941 -1.8422 -0.6500
  844SOL    HW2 2532   1.979   2.891   2.341 -0.4101 -2.4848 -1.9559
  845SOL     OW 2533   0.144   2.439   1.821 -0.6458  0.4877 -0.0863
  845SOL    HW1 2534   0.127   2.510   1.750 -0.9729  0.9416  0.1139
  845SOL    HW2 2535   0.119   2.470   1.914  0.7068  0.5819 -1.1930
  846SOL     OW 2536   1.864   1.495   2.411 -0.0236 -0.4571  0.5501
  846SOL    HW1 2537   1.776   1.466   2.448 -0.6887 -0.5258  1.4762
  846SOL    HW2 2538   1.894   1.435   2.333 -2.0803  0.8614  0.0689
  847SOL     OW 2539   0.153   0.649   1.963 -0.4210 -0.2703  0.3148
  847SOL    HW1 2540   0.129   0.610   1.871 -0.6479  1.6424  1.2458
  847SOL    HW2 2541   0.117   0.740   1.969 -0.2377 -0.9121  0.7429
  848SOL     OW 2542   2.526   2.732   2.981 -0.2170  0.1018  0.1707
  848SOL    HW1 2543   2.590   2.810   2.996  0.5823  1.1805 -0.4673
  848SOL    HW2 2544   2.566   2.667   2.914  1.5867  0.3095 -3.7177
  849SOL     OW 2545   0.349   2.797   0.591  0.2132  0.0865 -0.1767
  849SOL    HW1 2546   0.437   2.844   0.613 -0.2939  1.6369  2.6711
  849SOL    HW2 2547   0.273   2.834   0.649  0.5033  0.0373 -1.9537
  850SOL     OW 2548   0.812   2.351   0.571  0.2385  0.2593 -0.5028
  850SOL    HW1 2549   0.890   2.348   0.508 -1.3954 -0.3587  2.3966
  850SOL    HW2 2550   0.843   2.379   0.666  0.4325 -1.9825 -1.3658
  851SOL     OW 2551   1.791   0.607   2.678 -0.1880 -0.0546 -0.1410
  851SOL    HW1 2552   1.747   0.649   2.594 -1.5204  1.9026  0.9833
  851SOL    HW2 2553   1.844   0.529   2.646 -0.2458  2.3013 -1.0856
  852SOL     OW 2554   1.578   2.546   2.787 -0.2327 -0.4170  0.6458
  852SOL    HW1 2555   1.604   2.456   2.750  1.0533 -1.5298 -0.4013
  852SOL    HW2 2556   1.630   2.622   2.751  1.7742  0.3596 -0.2118
  853SOL     OW 2557   3.059   2.600   0.308 -0.4992 -0.4953 -0.1635
  853SOL    HW1 2558   0.016   2.581   0.225  0.9486  0.1890  0.6545
  853SOL    HW2 2559   2.994   2.680   0.293 -2.7653  0.8869  0.0121
  854SOL     OW 2560   1.530   0.499   2.342 -0.2182 -0.2591  0.0614
  854SOL    HW1 2561   1.434   0.534   2.344 -1.9544 -1.8149  1.3359
  854SOL    HW2 2562   1.596   0.572   2.365 -2.2805  1.6649  1.5428
  855SOL     OW 2563   0.417   2.546   0.497 -0.0298  0.5171  0.2798
  855SOL    HW1 2564   0.404   2.491   0.585 -1.6483 -1.8640  1.2214
  855SOL    HW2 2565   0.402   2.643   0.527 -0.0301  0.6962 -2.4783
  856SOL     OW 2566   0.291   2.938   2.592 -0.1914  0.2413 -0.3799
  856SOL    HW1 2567   0.379   2.919   2.541  1.1828  1.1332 -0.5494
  856SOL    HW2 2568   0.223   2.999   2.543 -1.2575  0.0828 -1.4357
  857SOL     OW 2569   1.095   2.922   1.741  0.1093 -0.1538 -0.2169
  857SOL    HW1 2570   1.119   2.822   1.736 -2.0433 -1.2921  1.1266
  857SOL    HW2 2571   1.004   2.944   1.705  0.9597 -1.3351  1.1094
  858SOL     OW 2572   3.044   1.814   1.445  0.3857 -0.3960 -0.2828
  858SOL    HW1 2573   0.013   1.773   1.513 -0.6123 -1.8851 -1.1483
  858SOL    HW2 2574   2.961   1.754   1.436  0.8390  1.1278  0.6266
  859SOL     OW 2575   2.031   2.260   1.998  0.0470  0.0339 -0.0422
  859SOL    HW1 2576   1.980   2.343   1.964  1.2353 -0.5277 -2.0638
  859SOL    HW2 2577   1.996   2.214   2.083 -1.7762  0.8447  1.7722
  860SOL     OW 2578   1.314   0.384   0.619  0.0093 -0.2428  0.2863
  860SOL    HW1 2579   1.255   0.375   0.706  0.2197  0.2747  1.1744
  860SOL    HW2 2580   1.259   0.378   0.533 -0.5197  0.6980  0.4198
  861SOL     OW 2581   2.894   0.654   0.956  0.3989  0.0179  0.5414
  861SOL    HW1 2582   2.837   0.576   0.918  0.5594  2.2685  1.1690
  861SOL    HW2 2583   2.994   0.653   0.933  2.8185  1.6499 -2.1188
  862SOL     OW 2584   1.603   0.609   2.060 -0.2144  0.0991 -0.1608
  862SOL    HW1 2585   1.567   0.539   2.123  0.7886 -2.4242 -2.0482
  862SOL    HW2 2586   1.533   0.632   1.990  0.5172  0.7348  2.6770
  863SOL     OW 2587   0.498   0.659   0.987  0.0643 -0.1601 -0.1785
  863SOL    HW1 2588   0.515   0.559   1.004  3.4669  1.5180 -0.1180
  863SOL    HW2 2589   0.513   0.717   1.072  3.9086 -0.5662 -0.5179
  864SOL     OW 2590   0.017   2.764   2.061 -0.0096  0.6215 -0.0531
  864SOL    HW1 2591   0.116   2.740   2.042  2.3389 -0.5628  0.5433
  864SOL    HW2 2592   3.091   2.711   2.146 -1.4485  1.6031  0.2670
  865SOL     OW 2593   1.019   1.231   2.450  0.1619  0.3707  0.1410
  865SOL    HW1 2594   1.015   1.196   2.352  0.0111 -1.9704 -1.5323
  865SOL    HW2 2595   0.935   1.198   2.493  0.9323 -1.4287 -1.0611
  866SOL     OW 2596   2.908   2.811   0.252 -0.2198 -0.6496  0.5006
  866SOL    HW1 2597   2.991   2.854   0.288 -2.0565 -2.3070 -2.5772
  866SOL    HW2 2598   2.851   2.883   0.200  0.3901  0.0054  1.4141
  867SOL     OW 2599   2.922   2.816   3.018  0.4327  0.1018 -0.7254
  867SOL    HW1 2600   2.906   2.717   3.002 -0.0562  1.6731  1.3427
  867SOL    HW2 2601   2.995   2.830   3.089  1.0913 -1.1010  0.9813
  868SOL     OW 2602   1.494   1.144   2.900  0.0440  0.0176  0.0030
  868SOL    HW1 2603   1.546   1.232   2.915  0.7043  1.5999  0.3837
  868SOL    HW2 2604   1.418   1.149   2.972 -2.7915  1.0052  0.4957
  869SOL     OW 2605   3.064   2.033   0.597 -0.3112 -0.1886  0.6670
  869SOL    HW1 2606   2.994   2.096   0.562 -1.4619  0.5678 -1.5088
  869SOL    HW2 2607   0.052   2.051   0.540 -0.1081  0.0207 -1.5105
  870SOL     OW 2608   2.207   2.019   0.707  0.2984 -0.0694  0.4491
  870SOL    HW1 2609   2.226   1.918   0.708 -2.5297  0.2648 -0.6786
  870SOL    HW2 2610   2.224   2.056   0.613  0.5077  0.8774  1.6401
  871SOL     OW 2611   0.517   1.004   1.079 -0.0680 -0.2543 -0.2269
  871SOL    HW1 2612   0.436   1.023   1.019  0.2002  1.1007  1.6158
  871SOL    HW2 2613   0.595   1.069   1.056  0.8930 -2.2641  1.0518
  872SOL     OW 2614   1.388   1.813   1.843 -0.1606 -0.2234 -0.8051
  872SOL    HW1 2615   1.319   1.891   1.839 -0.2288  2.1057  0.0363
  872SOL    HW2 2616   1.460   1.831   1.917  2.3544 -0.9078  1.6835
  873SOL     OW 2617   0.625   2.211   2.248  0.1521 -0.1219 -0.0642
  873SOL    HW1 2618   0.664   2.276   2.318  1.0229  0.3183 -0.7028
  873SOL    HW2 2619   0.581   2.262   2.174  0.6550 -0.5299  0.5800
  874SOL     OW 2620   1.027   2.870   1.215  0.2150  0.3813  0.4178
  874SOL    HW1 2621   1.097   2.799   1.193  0.4166  0.7478 -1.3368
  874SOL    HW2 2622   0.992   2.913   1.126 -0.4232 -0.7416 -4.2566
  875SOL     OW 2623   3.027   0.274   1.014  0.2522  0.3712 -0.3792
  875SOL    HW1 2624   3.028   0.186   0.968  1.5638  1.4003  2.7165
  875SOL    HW2 2625   2.966   0.343   0.965 -1.3577  4.0513 -2.3103
  876SOL     OW 2626   0.676   0.812   0.161  0.2476  0.0032 -0.3163
  876SOL    HW1 2627   0.658   0.848   0.256 -1.8672 -1.8021 -0.4467
  876SOL    HW2 2628   0.776   0.804   0.146 -0.1070 -0.5313  0.4361
  877SOL     OW 2629   2.959   0.687   1.229  0.2245  0.2947 -0.2049
  877SOL    HW1 2630   2.935   0.677   1.133 -1.1822 -1.6095  1.7013
  877SOL    HW2 2631   2.909   0.619   1.290  0.1216 -2.1163  1.8697
  878SOL     OW 2632   2.572   2.438   0.527  0.1324  0.5275 -0.7719
  878SOL    HW1 2633   2.482   2.390   0.552 -4.2968 -0.7794  0.4047
  878SOL    HW2 2634   2.615   2.468   0.613  1.3363  0.7835  1.4357
  879SOL     OW 2635   2.475   1.229   1.159  0.4134 -0.2873 -0.3429
  879SOL    HW1 2636   2.555   1.172   1.126  0.6499 -1.1744 -1.5418
  879SOL    HW2 2637   2.502   1.326   1.171  1.4222 -0.7162  0.9587
  880SOL     OW 2638   1.595   2.691   1.162 -0.3852 -0.2076 -0.5095
  880SOL    HW1 2639   1.673   2.694   1.096  0.3765 -0.0596  1.4928
  880SOL    HW2 2640   1.521   2.622   1.140 -1.4965 -0.8712  1.3072
  881SOL     OW 2641   0.941   2.239   0.147 -0.2059 -0.0075  0.0529
  881SOL    HW1 2642   0.923   2.294   0.063  2.6169  2.4186  0.0638
  881SOL    HW2 2643   0.978   2.295   0.222  2.6579 -1.3309  0.2528
  882SOL     OW 2644   1.673   0.643   1.164 -0.3049 -0.3084  0.1377
  882SOL    HW1 2645   1.693   0.586   1.078 -0.0197  0.4615 -3.0659
  882SOL    HW2 2646   1.663   0.585   1.250 -0.9256 -2.9419  2.0922
  883SOL     OW 2647   1.447   0.346   2.021  0.0090  0.4184  0.1951
  883SOL    HW1 2648   1.403   0.275   1.963  0.8986  0.1462  0.1970
  883SOL    HW2 2649   1.547   0.340   2.032 -0.6388  1.6240  0.2309
  884SOL     OW 2650   2.630   0.625   0.014 -0.3183 -0.1651  0.4733
  884SOL    HW1 2651   2.559   0.555   3.091  3.7073  2.3115 -1.0127
  884SOL    HW2 2652   2.656   0.627   0.115  1.6413 -0.5379 -0.9246
  885SOL     OW 2653   1.154   1.375   3.049 -0.0457 -0.2302 -0.2913
  885SOL    HW1 2654   1.129   1.407   2.957  0.4284 -0.2926  3.2448
  885SOL    HW2 2655   1.074   1.354   0.017 -0.3600  0.1049  1.3112
  886SOL     OW 2656   1.664   1.426   2.565  0.2547  0.4309 -0.0870
  886SOL    HW1 2657   1.687   1.473   2.655  0.1055  1.2615  1.2461
  886SOL    HW2 2658   1.697   1.331   2.569 -1.2368  2.1898 -1.9069
  887SOL     OW 2659   1.527   0.274   1.527  0.5854  0.4696 -0.3947
  887SOL    HW1 2660   1.499   0.195   1.471 -0.3804  0.6644 -0.6712
  887SOL    HW2 2661   1.568   0.237   1.612  0.5801  0.1650  0.1469
  888SOL     OW 2662   2.719   0.615   2.007  0.2175 -0.4209 -0.6550
  888SOL    HW1 2663   2.705   0.509   2.003 -0.1377 -1.7031  0.0480
  888SOL    HW2 2664   2.756   0.634   2.101 -0.9522 -0.5149  0.8523
  889SOL     OW 2665   0.235   2.469   1.061 -0.2498 -0.2891 -0.2512
  889SOL    HW1 2666   0.138   2.468   1.026  2.5868 -0.1922 -2.2611
  889SOL    HW2 2667   0.291   2.528   0.999 -0.0820  0.6464  1.2089
  890SOL     OW 2668   2.590   2.414   0.233 -0.2593  0.0642 -0.1021
  890SOL    HW1 2669   2.555   2.490   0.174 -0.5705 -0.4571 -2.4366
  890SOL    HW2 2670   2.576   2.430   0.330 -0.0042 -1.4165 -0.4437
  891SOL     OW 2671   0.975   1.674   2.970 -0.0376 -0.8611  0.2848
  891SOL    HW1 2672   1.029   1.608   2.915 -1.4321  0.8113 -0.1066
  891SOL    HW2 2673   0.966   1.646   3.069 -1.6865 -0.9407  0.2050
  892SOL     OW 2674   0.020   0.006   0.991  0.5433  0.2706 -0.0902
  892SOL    HW1 2675   0.063   0.011   1.084  1.2493 -1.6663 -1.6381
  892SOL    HW2 2676   3.053   3.025   0.984  2.2394  0.0414  0.9801
  893SOL     OW 2677   1.170   0.088   1.515 -0.5388 -0.0725 -0.1326
  893SOL    HW1 2678   1.178   3.081   1.508  0.5559 -2.2174 -1.0638
  893SOL    HW2 2679   1.070   0.119   1.507  0.4104  2.0436 -0.4136
  894SOL     OW 2680   2.648   0.577   0.804 -0.3582  0.1000 -0.0758
  894SOL    HW1 2681   2.570   0.623   0.845  1.8635  0.2926  0.8970
  894SOL    HW2 2682   2.675   0.617   0.714  0.5847 -1.0580 -0.1279
  895SOL     OW 2683   2.278   2.212   2.099 -0.2944 -0.3212  0.1848
  895SOL    HW1 2684   2.276   2.287   2.171  0.5764  1.2617 -0.1481
  895SOL    HW2 2685   2.189   2.214   2.054 -1.2216 -0.6921 -1.4230
  896SOL     OW 2686   1.349   0.138   1.853  0.2035 -0.2692 -1.3042
  896SOL    HW1 2687   1.279   0.189   1.796  0.6251  0.4858  0.3052
  896SOL    HW2 2688   1.341   0.042   1.823 -0.6461 -0.4157 -1.1838
  897SOL     OW 2689   0.681   1.753   1.893  0.3781  0.6921  0.2677
  897SOL    HW1 2690   0.709   1.847   1.871  2.3945 -1.0024  2.2867
  897SOL    HW2 2691   0.708   1.726   1.986  0.7222  0.2389  0.6804
  898SOL     OW 2692   2.214   2.816   1.883  0.1213  0.7168 -0.1283
  898SOL    HW1 2693   2.246   2.887   1.813 -2.4272 -0.6366  1.1889
  898SOL    HW2 2694   2.278   2.824   1.962  0.1873 -0.4678 -1.5444
  899SOL     OW 2695   1.039   0.788   1.169  0.1358  0.4718  0.5763
  899SOL    HW1 2696   1.034   0.864   1.238  1.0589 -1.0412  2.1252
  899SOL    HW2 2697   0.971   0.808   1.096 -0.2402  0.7431 -0.2186
  900SOL     OW 2698   1.741   2.282   2.968 -0.1316  0.0568 -0.7883
  900SOL    HW1 2699   1.733   2.180   2.979 -1.7996  0.1364  1.0360
  900SOL    HW2 2700   1.723   2.308   2.871 -1.7782  2.6697  2.3440
  901SOL     OW 2701   0.778   2.182   2.648  0.5357 -0.0215  0.0892
  901SOL    HW1 2702   0.741   2.212   2.741  0.5044 -1.0307  0.1098
  901SOL    HW2 2703   0.726   2.096   2.618 -1.4924  0.2402  0.2380
  902SOL     OW 2704   2.270   1.378   0.171 -0.2793  0.0074  0.5031
  902SOL    HW1 2705   2.346   1.439   0.138  1.2867  2.1607 -0.4412
  902SOL    HW2 2706   2.299   1.285   0.201 -0.8463 -0.3703 -0.9228
  903SOL     OW 2707   1.902   0.791   0.441  0.4830  0.2673 -0.1775
  903SOL    HW1 2708   1.881   0.883   0.392 -1.0687  1.8034 -1.7582
  903SOL    HW2 2709   1.876   0.725   0.368  0.2895  0.8970 -1.1564
  904SOL     OW 2710   0.652   1.029   3.084  0.2904 -0.3115  0.2503
  904SOL    HW1 2711   0.576   1.091   0.018  1.2312  0.5787 -1.9546
  904SOL    HW2 2712   0.662   0.951   0.054  1.7259  1.9493 -1.5806
  905SOL     OW 2713   2.416   0.146   0.958 -0.1119  0.5149 -0.0050
  905SOL    HW1 2714   2.365   0.101   1.034  0.9386 -1.3324  1.4283
  905SOL    HW2 2715   2.395   0.246   0.958 -1.2873 -0.2332  3.0871
  906SOL     OW 2716   2.672   2.347   1.250 -0.2371 -0.4453 -0.3020
  906SOL    HW1 2717   2.716   2.261   1.208  0.9063 -1.4887 -0.1998
  906SOL    HW2 2718   2.583   2.367   1.202 -0.5517  1.0724  0.5299
  907SOL     OW 2719   1.296   0.564   0.279  0.1183  0.2949  0.2641
  907SOL    HW1 2720   1.228   0.494   0.251 -0.0079 -1.2377  2.1773
  907SOL    HW2 2721   1.259   0.639   0.339 -0.2093 -0.0340 -0.4643
  908SOL     OW 2722   2.352   2.826   1.477  0.1491  0.1781  0.4776
  908SOL    HW1 2723   2.318   2.730   1.493 -0.8765  0.6628 -0.8482
  908SOL    HW2 2724   2.330   2.842   1.377  1.3611  0.5340  0.1520
  909SOL     OW 2725   2.755   0.810   1.601 -0.4357 -0.3037  0.1179
  909SOL    HW1 2726   2.823   0.816   1.525  1.4060 -1.5171  0.8486
  909SOL    HW2 2727   2.717   0.906   1.608  1.2821 -0.3730 -1.3343
  910SOL     OW 2728   1.484   2.745   2.274  0.1697 -0.5283  0.2079
  910SOL    HW1 2729   1.492   2.689   2.188  0.8736 -2.6553 -1.8851
  910SOL    HW2 2730   1.508   2.840   2.254 -2.2407 -1.7645  1.4542
  911SOL     OW 2731   2.410   0.404   2.137 -0.1691  0.1522  0.0267
  911SOL    HW1 2732   2.376   0.502   2.128  1.5644  0.2065 -2.2022
  911SOL    HW2 2733   2.444   0.398   2.233 -1.0900 -1.0911 -0.3633
  912SOL     OW 2734   2.754   1.238   1.378  0.0489  0.7483  0.2007
  912SOL    HW1 2735   2.784   1.333   1.374 -1.0822 -2.8586 -1.5819
  912SOL    HW2 2736   2.836   1.176   1.380  0.0550 -2.1099  0.0201
  913SOL     OW 2737   2.656   1.832   1.141 -0.2926 -0.0852 -0.2376
  913SOL    HW1 2738   2.643   1.833   1.244  1.6614 -0.4160  0.4038
  913SOL    HW2 2739   2.734   1.891   1.113 -0.0690  2.2466  0.4638
  914SOL     OW 2740   1.967   1.240   1.355  0.3881 -0.5104 -0.1171
  914SOL    HW1 2741   2.036   1.202   1.420  1.6351  0.9340 -2.0076
  914SOL    HW2 2742   1.915   1.169   1.309  2.1585  1.6587  2.4163
  915SOL     OW 2743   1.012   0.994   1.331  0.0009  0.2395  0.5095
  915SOL    HW1 2744   1.062   1.025   1.416 -1.1185  1.4369  2.8216
  915SOL    HW2 2745   0.914   0.965   1.352 -3.6805 -2.4292  1.5796
  916SOL     OW 2746   2.372   2.536   1.457  0.1126  0.0300  0.2458
  916SOL    HW1 2747   2.371   2.448   1.504 -0.5407  5.0817 -0.9505
  916SOL    HW2 2748   2.466   2.575   1.451 -0.7357  1.6040  1.8109
  917SOL     OW 2749   2.417   2.177   0.264 -0.6707 -0.0597 -0.0916
  917SOL    HW1 2750   2.371   2.171   0.174  0.8468 -0.8227  1.8123
  917SOL    HW2 2751   2.476   2.262   0.261  0.2368  1.4578  0.6348
  918SOL     OW 2752   1.793   2.720   2.656  0.2963  0.4391 -0.3783
  918SOL    HW1 2753   1.777   2.666   2.570  1.8718 -0.6132  0.8786
  918SOL    HW2 2754   1.882   2.702   2.704  1.7527  0.8590 -0.4491
  919SOL     OW 2755   1.548   2.226   1.559 -0.1102 -0.3756 -0.0566
  919SOL    HW1 2756   1.468   2.220   1.627 -1.6026 -0.5729  0.4000
  919SOL    HW2 2757   1.635   2.256   1.601  3.7178  1.6968  0.4710
  920SOL     OW 2758   2.789   0.147   2.645  0.2841 -0.4582  0.7596
  920SOL    HW1 2759   2.735   0.070   2.691  0.4630 -0.4685 -2.1265
  920SOL    HW2 2760   2.758   0.241   2.679  1.3391  0.4991  0.9260
  921SOL     OW 2761   2.725   0.358   2.037 -0.3323  0.1250  0.4330
  921SOL    HW1 2762   2.823   0.332   2.054 -0.1509 -2.6618 -0.5677
  921SOL    HW2 2763   2.665   0.290   2.076  2.1745  0.1199 -0.8500
  922SOL     OW 2764   1.965   2.052   0.437 -0.3402  0.0605  0.2721
  922SOL    HW1 2765   2.060   2.074   0.447  1.0937 -0.9934 -0.9686
  922SOL    HW2 2766   1.950   1.952   0.426 -1.9585  1.0405 -0.6265
  923SOL     OW 2767   0.333   2.018   0.064 -0.3013 -0.2454  0.9225
  923SOL    HW1 2768   0.372   1.966   3.080  2.7437  0.4571  1.4732
  923SOL    HW2 2769   0.384   2.104   0.075  2.5682 -1.5867  0.6702
  924SOL     OW 2770   0.869   0.453   0.187  0.0849 -0.0857  0.5170
  924SOL    HW1 2771   0.821   0.464   0.279 -0.3003 -2.4519  1.8752
  924SOL    HW2 2772   0.885   0.542   0.143 -0.1961 -0.9231  3.0038
  925SOL     OW 2773   2.463   0.783   0.894  0.0159  0.0929  0.3321
  925SOL    HW1 2774   2.423   0.873   0.881 -1.9443  1.6020 -0.2245
  925SOL    HW2 2775   2.435   0.748   0.983 -0.5199  0.4164 -2.7775
  926SOL     OW 2776   3.029   1.000   0.923 -0.2470  0.2870 -0.5233
  926SOL    HW1 2777   2.941   0.954   0.928 -1.4165 -0.3317  1.9630
  926SOL    HW2 2778   0.004   0.927   0.905  0.8682 -1.9015  3.8871
  927SOL     OW 2779   3.024   1.042   2.781 -0.0341 -0.1373  0.2173
  927SOL    HW1 2780   3.062   1.021   2.685  2.3393 -0.8931 -0.3648
  927SOL    HW2 2781   3.080   1.113   2.828  0.1182 -1.7939 -0.0139
  928SOL     OW 2782   3.007   0.461   2.498 -0.1308 -0.1748 -0.1658
  928SOL    HW1 2783   3.059   0.380   2.469 -1.2398  0.1600  1.3075
  928SOL    HW2 2784   2.905   0.441   2.482 -1.1405  0.4079  0.2268
  929SOL     OW 2785   2.985   2.786   1.264 -0.1123 -0.5249  0.0985
  929SOL    HW1 2786   3.014   2.844   1.182  0.4185 -2.3555 -1.3781
  929SOL    HW2 2787   2.971   2.690   1.235  2.0616  0.7833 -1.3151
  930SOL     OW 2788   2.125   1.399   1.551  0.2471 -0.0719 -0.7754
  930SOL    HW1 2789   2.159   1.486   1.598  1.5427 -0.0753 -0.9678
  930SOL    HW2 2790   2.098   1.416   1.454 -3.7546  0.5325 -0.5514
  931SOL     OW 2791   1.483   1.510   0.620 -0.4982 -0.6769 -0.0165
  931SOL    HW1 2792   1.557   1.523   0.690  1.9745 -0.4064 -1.3025
  931SOL    HW2 2793   1.410   1.581   0.632  2.1483 -2.5831 -1.9084
  932SOL     OW 2794   2.692   1.087   1.089 -0.0143 -0.1619 -0.3157
  932SOL    HW1 2795   2.717   1.040   0.999 -0.4564 -0.4177  0.2378
  932SOL    HW2 2796   2.777   1.120   1.136  2.9252  1.8157 -0.2460
  933SOL     OW 2797   2.482   1.507   1.156 -0.0595  0.4207  0.3868
  933SOL    HW1 2798   2.403   1.564   1.120 -0.4130  0.7733 -1.5123
  933SOL    HW2 2799   2.491   1.509   1.259 -1.1632 -2.3240  2.9466
  934SOL     OW 2800   1.654   2.838   1.728  0.1371 -0.2161  0.4426
  934SOL    HW1 2801   1.668   2.777   1.811  1.2115  2.3039  2.5505
  934SOL    HW2 2802   1.571   2.808   1.675  0.5695 -1.6000  3.4331
  935SOL     OW 2803   3.050   1.658   0.747  0.6324 -0.7723  0.0116
  935SOL    HW1 2804   2.952   1.683   0.757 -0.4863  0.3232 -1.5532
  935SOL    HW2 2805   0.008   1.708   0.817 -0.9755 -1.9007 -0.9057
  936SOL     OW 2806   0.182   1.187   0.428 -0.5354 -0.0507 -0.0763
  936SOL    HW1 2807   0.214   1.090   0.409 -0.0366 -1.2020  1.8998
  936SOL    HW2 2808   0.248   1.257   0.387  4.0204  1.4137 -2.6278
  937SOL     OW 2809   2.095   2.725   1.098 -0.5872 -0.0130  0.4180
  937SOL    HW1 2810   1.992   2.723   1.095 -3.3978  1.2301 -0.2945
  937SOL    HW2 2811   2.134   2.652   1.039 -2.2816 -0.4608 -0.7804
  938SOL     OW 2812   2.461   2.212   0.899 -0.0396 -0.3210 -0.4419
  938SOL    HW1 2813   2.422   2.265   0.981  1.5824 -1.4220  0.2377
  938SOL    HW2 2814   2.553   2.178   0.923 -0.6270 -1.4738  0.3294
  939SOL     OW 2815   0.736   2.077   0.539 -0.0656 -0.1597  0.4475
  939SOL    HW1 2816   0.793   2.005   0.577 -2.7239  1.4361 -1.7570
  939SOL    HW2 2817   0.755   2.173   0.563 -0.8988 -1.4736  0.2657
  940SOL     OW 2818   2.700   0.048   0.119 -0.0422  0.3062 -0.3762
  940SOL    HW1 2819   2.773   0.092   0.169 -1.7510 -2.0196 -0.6954
  940SOL    HW2 2820   2.614   0.026   0.172  0.5687  1.3956  0.8337
  941SOL     OW 2821   1.140   0.078   0.007 -0.3457 -0.0762 -0.2153
  941SOL    HW1 2822   1.066   0.033   3.054 -1.2286  3.1343  1.1891
  941SOL    HW2 2823   1.179   0.149   3.040  0.3161 -0.5477  0.6778
  942SOL     OW 2824   1.328   1.405   1.407  0.1535  0.2347 -0.4401
  942SOL    HW1 2825   1.413   1.429   1.353 -2.9228 -0.4009  0.8061
  942SOL    HW2 2826   1.308   1.303   1.396 -0.6957 -1.4678  0.3187
  943SOL     OW 2827   1.804   0.999   1.376  0.1080 -0.6114  0.5802
  943SOL    HW1 2828   1.784   0.973   1.472 -2.7651 -2.0004 -0.0827
  943SOL    HW2 2829   1.835   0.919   1.316  1.1756 -1.2017 -0.5001
  944SOL     OW 2830   1.915   0.484   1.552  0.2772 -0.4197  0.2538
  944SOL    HW1 2831   1.854   0.489   1.475  0.3134 -1.4471  1.2228
  944SOL    HW2 2832   1.915   0.578   1.593 -0.7871  1.5300  0.3358
  945SOL     OW 2833   3.081   3.047   0.597 -0.3420  0.7041  0.5234
  945SOL    HW1 2834   0.026   0.045   0.603 -0.4667  0.3979 -0.7341
  945SOL    HW2 2835   3.083   3.019   0.498  1.5378 -0.7545 -1.2483
  946SOL     OW 2836   0.410   0.280   1.430 -0.5268  0.1421 -0.0187
  946SOL    HW1 2837   0.470   0.344   1.483  0.0211 -0.0471  1.4041
  946SOL    HW2 2838   0.394   0.326   1.339 -1.5318 -1.7439 -1.8864
  947SOL     OW 2839   0.692   0.021   0.205 -0.3590  0.6267  0.2002
  947SOL    HW1 2840   0.621   0.090   0.189 -0.9675  1.3262 -1.1379
  947SOL    HW2 2841   0.782   0.064   0.172  1.3624 -1.3161  1.4565
  948SOL     OW 2842   2.590   1.084   1.940 -0.0740 -0.0081 -0.1284
  948SOL    HW1 2843   2.556   1.176   1.912  0.0085 -0.5646 -0.9710
  948SOL    HW2 2844   2.676   1.100   1.995 -2.6033  1.0331  1.0970
  949SOL     OW 2845   0.653   0.891   2.829  0.3920  0.2259  0.2673
  949SOL    HW1 2846   0.637   0.922   2.921  3.7130 -0.8648 -0.0918
  949SOL    HW2 2847   0.752   0.899   2.809 -2.6062 -2.2650  0.3706
  950SOL     OW 2848   0.850   0.568   0.658  0.1060  0.2170 -0.0428
  950SOL    HW1 2849   0.889   0.500   0.723 -0.3138 -1.7445 -3.1070
  950SOL    HW2 2850   0.911   0.647   0.641  0.4895 -2.7197  0.2420
  951SOL     OW 2851   0.932   2.119   2.225 -0.0787  0.3801 -0.2634
  951SOL    HW1 2852   0.988   2.168   2.153 -1.9240  1.9423  1.0136
  951SOL    HW2 2853   0.850   2.164   2.259 -1.6229 -0.2610  2.1799
  952SOL     OW 2854   0.930   1.629   0.143  0.2457  0.1415 -0.6244
  952SOL    HW1 2855   0.896   1.534   0.116 -1.1564 -2.3054 -2.8461
  952SOL    HW2 2856   0.850   1.680   0.184 -0.8711 -2.1632 -0.1229
  953SOL     OW 2857   1.994   3.046   2.311 -0.0977  0.9030 -0.0289
  953SOL    HW1 2858   1.912   3.056   2.255  2.0966 -0.7640  0.6927
  953SOL    HW2 2859   2.076   0.001   2.270  4.6649 -1.2219 -0.0375
  954SOL     OW 2860   1.488   1.242   0.680 -0.3938  0.5488  0.6981
  954SOL    HW1 2861   1.586   1.211   0.689  1.9113 -0.9508 -0.2048
  954SOL    HW2 2862   1.483   1.334   0.650  0.8638 -1.9143 -0.0502
  955SOL     OW 2863   0.311   2.259   2.301 -0.0840 -0.5798 -0.4531
  955SOL    HW1 2864   0.386   2.304   2.251 -2.8689 -0.1390 -0.3814
  955SOL    HW2 2865   0.288   2.317   2.383  3.0199  2.9022  2.0390
  956SOL     OW 2866   1.861   0.121   1.622  0.4387 -0.3882  0.5260
  956SOL    HW1 2867   1.933   0.191   1.649  2.2961  2.5257 -1.2656
  956SOL    HW2 2868   1.780   0.131   1.687 -4.4811 -0.5493 -0.3861
  957SOL     OW 2869   1.647   1.966   2.791  0.7370 -0.6137 -0.4986
  957SOL    HW1 2870   1.556   1.973   2.744  2.0396 -0.6704  0.4434
  957SOL    HW2 2871   1.630   1.988   2.889 -0.4994  2.6166 -0.3170
  958SOL     OW 2872   1.301   2.187   1.692  0.4953  0.6725  0.0824
  958SOL    HW1 2873   1.308   2.116   1.766 -2.2134 -0.3571  2.8999
  958SOL    HW2 2874   1.216   2.171   1.642 -0.8540 -0.3143  2.4154
  959SOL     OW 2875   2.059   2.120   2.988 -0.5229  0.2347  0.0986
  959SOL    HW1 2876   2.025   2.157   3.081  0.7555 -2.1805  3.4319
  959SOL    HW2 2877   2.031   2.179   2.908  2.3655 -0.8299  3.4552
  960SOL     OW 2878   3.018   0.071   2.760  0.1142 -0.3199  0.5191
  960SOL    HW1 2879   0.011   0.090   2.711  2.5309 -1.5904 -1.6203
  960SOL    HW2 2880   2.942   0.124   2.711 -2.8678  2.1164 -1.3960
  961SOL     OW 2881   0.942   0.889   2.766  0.3229  0.2215 -0.1731
  961SOL    HW1 2882   0.955   0.993   2.773  1.4861 -0.9606 -1.6470
  961SOL    HW2 2883   0.978   0.850   2.682 -1.3176 -0.5006 -2.0573
  962SOL     OW 2884   1.323   1.322   2.718 -0.2077 -0.1783  0.4171
  962SOL    HW1 2885   1.287   1.250   2.657  2.3539  2.6896  0.5622
  962SOL    HW2 2886   1.424   1.323   2.734 -1.2623  0.0755  0.7720
  963SOL     OW 2887   2.319   2.112   0.020 -0.2518  0.0139 -0.5627
  963SOL    HW1 2888   2.394   2.087   3.054  0.0362  0.2753  1.4634
  963SOL    HW2 2889   2.231   2.104   3.068  2.7171  0.3002 -0.3973
  964SOL     OW 2890   1.203   2.662   1.140 -0.5517 -0.1103  0.1521
  964SOL    HW1 2891   1.225   2.565   1.164  0.2342 -1.5826  1.4137
  964SOL    HW2 2892   1.209   2.674   1.035 -1.7934  0.6261 -1.4608
  965SOL     OW 2893   1.158   1.485   0.656  0.1588 -0.3886  0.0043
  965SOL    HW1 2894   1.204   1.568   0.688 -0.9929 -2.4427 -2.0403
  965SOL    HW2 2895   1.123   1.442   0.738  1.9430 -1.0504  0.0371
  966SOL     OW 2896   0.139   1.257   0.058  0.5494  0.0667  0.8493
  966SOL    HW1 2897   0.130   1.361   0.067  1.1365  0.2338  1.9645
  966SOL    HW2 2898   0.072   1.202   0.112 -1.6739 -0.9937 -1.4629
  967SOL     OW 2899   1.980   0.205   1.956  0.6370  0.0354 -0.2445
  967SOL    HW1 2900   2.026   0.256   2.036  0.1144  1.6863  0.5172
  967SOL    HW2 2901   1.988   0.267   1.877  1.2494 -0.7675 -1.8253
  968SOL     OW 2902   1.705   1.081   0.614 -0.7066  0.3036 -0.1300
  968SOL    HW1 2903   1.778   1.141   0.568  2.5005 -0.0497  0.4485
  968SOL    HW2 2904   1.663   1.009   0.549 -0.5648  0.6250  0.3594
  969SOL     OW 2905   0.301   1.416   2.167 -0.3503  0.0127  0.7117
  969SOL    HW1 2906   0.230   1.480   2.129 -3.5492  1.8090 -1.5251
  969SOL    HW2 2907   0.392   1.460   2.171 -2.5750  1.0596  1.8647
  970SOL     OW 2908   2.270   1.239   0.983  0.1567  0.1166  0.2612
  970SOL    HW1 2909   2.335   1.260   1.058  1.3378 -0.6323  1.5500
  970SOL    HW2 2910   2.317   1.183   0.908  0.3955 -3.6137 -0.7188
  971SOL     OW 2911   0.415   0.043   1.605 -0.3289 -0.0287  0.1819
  971SOL    HW1 2912   0.395   0.110   1.526 -0.1204  0.7935 -0.8298
  971SOL    HW2 2913   0.334   3.084   1.628  1.4595 -0.8981 -0.1551
  972SOL     OW 2914   0.436   0.722   2.797 -0.9334  0.1166 -0.1018
  972SOL    HW1 2915   0.456   0.650   2.869  0.2972 -0.1607  1.8912
  972SOL    HW2 2916   0.527   0.777   2.794  2.8932  0.2827 -0.3688
  973SOL     OW 2917   0.212   1.012   1.086 -0.7626 -0.2642  0.1226
  973SOL    HW1 2918   0.216   1.073   1.173 -1.0351  2.6388  2.7626
  973SOL    HW2 2919   0.168   0.923   1.104  1.5531 -0.0306  0.0607
  974SOL     OW 2920   2.031   0.721   1.915  0.1008  0.1839 -0.7151
  974SOL    HW1 2921   2.006   0.716   1.818  1.2473 -1.2216  0.7329
  974SOL    HW2 2922   2.124   0.760   1.927  0.4464 -1.6318  0.2431
  975SOL     OW 2923   2.331   0.207   0.147 -0.8968 -0.2536 -0.0911
  975SOL    HW1 2924   2.250   0.168   0.104 -0.3676 -2.0425  2.0252
  975SOL    HW2 2925   2.396   0.134   0.179  1.0716 -0.9337  0.5985
  976SOL     OW 2926   0.146   1.268   1.634 -0.6295  0.1364 -0.6996
  976SOL    HW1 2927   0.229   1.300   1.580 -1.3158  0.2575  1.1193
  976SOL    HW2 2928   0.177   1.201   1.701 -0.6387  1.7541 -1.6345
  977SOL     OW 2929   1.225   2.852   0.242 -0.2126 -0.3813  0.0458
  977SOL    HW1 2930   1.257   2.950   0.226 -1.5607  3.3747 -1.3156
  977SOL    HW2 2931   1.122   2.846   0.253 -1.0963 -0.6561 -1.3213
  978SOL     OW 2932   0.600   1.383   0.247 -0.0604 -0.0907  0.2216
  978SOL    HW1 2933   0.582   1.425   0.155 -0.0163  1.2647 -1.7700
  978SOL    HW2 2934   0.664   1.302   0.239  1.5168 -1.0896 -0.8146
  979SOL     OW 2935   1.621   1.682   1.287 -0.1162 -0.1622 -0.2961
  979SOL    HW1 2936   1.575   1.704   1.375 -1.2363  2.3989  0.9465
  979SOL    HW2 2937   1.609   1.582   1.266  0.4440  0.6321  1.1711
  980SOL     OW 2938   0.528   1.626   1.718  0.0528 -0.2418  0.2725
  980SOL    HW1 2939   0.591   1.675   1.787  1.6732  0.3730  0.9832
  980SOL    HW2 2940   0.588   1.599   1.640  1.8554  1.7662  0.3928
  981SOL     OW 2941   0.069   1.509   0.147 -0.7946 -0.6282 -0.1755
  981SOL    HW1 2942   0.065   1.494   0.252  0.0248  1.1405  1.0196
  981SOL    HW2 2943   0.142   1.574   0.123  1.1883 -3.2232 -1.5866
  982SOL     OW 2944   2.376   2.786   2.109  0.0844 -0.7035  0.1343
  982SOL    HW1 2945   2.382   2.859   2.180 -1.4154  0.0382 -0.3801
  982SOL    HW2 2946   2.467   2.771   2.060  1.8396 -0.6247  2.5067
  983SOL     OW 2947   1.335   0.457   1.243 -0.0683  0.3646  0.1369
  983SOL    HW1 2948   1.307   0.525   1.172  1.1782  2.8466  1.5716
  983SOL    HW2 2949   1.374   0.374   1.196 -0.7297  2.0142 -0.5390
  984SOL     OW 2950   0.966   2.955   2.681  0.2877  0.1803 -0.1021
  984SOL    HW1 2951   1.053   2.981   2.642 -1.7030 -0.3579  0.6244
  984SOL    HW2 2952   0.893   2.960   2.612 -1.7675 -0.0845  2.2778
  985SOL     OW 2953   1.811   2.259   1.645  0.1256 -0.4432  0.7606
  985SOL    HW1 2954   1.849   2.305   1.563 -2.5543  2.4325  0.8707
  985SOL    HW2 2955   1.870   2.177   1.674  0.8455 -0.5025  1.3082
  986SOL     OW 2956   2.560   0.134   2.435 -0.6785 -0.6210  0.1206
  986SOL    HW1 2957   2.531   0.227   2.404 -2.0519 -1.3315  0.9709
  986SOL    HW2 2958   2.630   0.144   2.509 -1.3000 -1.6479  0.3977
  987SOL     OW 2959   2.743   0.707   2.280  0.2237 -0.0932 -0.0100
  987SOL    HW1 2960   2.831   0.756   2.297  3.6925  0.4709 -1.5308
  987SOL    HW2 2961   2.670   0.776   2.285 -2.5942  3.7206 -1.3399
  988SOL     OW 2962   2.498   0.830   2.579 -0.1308  0.9232  0.4604
  988SOL    HW1 2963   2.405   0.799   2.596  0.8774  0.1092 -1.2110
  988SOL    HW2 2964   2.519   0.924   2.611  0.8933  0.3494 -0.9565
  989SOL     OW 2965   2.319   1.740   2.000 -0.0280  0.5898  0.0187
  989SOL    HW1 2966   2.248   1.735   2.081 -1.2888 -0.0771  1.9507
  989SOL    HW2 2967   2.392   1.815   2.016  2.4044 -0.0721  1.5717
  990SOL     OW 2968   0.323   0.969   2.650 -0.0149  0.3226 -0.0276
  990SOL    HW1 2969   0.377   1.049   2.610 -0.1495  0.5381 -1.7926
  990SOL    HW2 2970   0.375   0.882   2.647 -1.9780 -0.8382 -0.5057
  991SOL     OW 2971   0.345   2.023   2.706  0.4080 -0.0382  0.0398
  991SOL    HW1 2972   0.279   2.022   2.624 -4.4125  0.7438 -3.4036
  991SOL    HW2 2973   0.304   2.089   2.776 -0.5875  0.8649 -0.7170
  992SOL     OW 2974   2.739   1.777   1.931  0.0604 -0.5870  0.6834
  992SOL    HW1 2975   2.734   1.872   1.904 -0.4236 -1.4669 -0.0266
  992SOL    HW2 2976   2.682   1.763   2.015 -0.8465 -0.5546 -0.0137
  993SOL     OW 2977   0.307   0.092   0.789  0.1230  0.4273 -0.2410
  993SOL    HW1 2978   0.404   0.088   0.823  1.1005 -0.7647 -0.3060
  993SOL    HW2 2979   0.265   3.095   0.786  3.6336  2.7685 -0.0193
  994SOL     OW 2980   0.238   1.673   1.444 -0.1714 -0.4522  0.1832
  994SOL    HW1 2981   0.277   1.736   1.513 -1.2390 -1.4106 -1.5346
  994SOL    HW2 2982   0.285   1.681   1.353 -1.2725 -1.3454  0.7134
  995SOL     OW 2983   1.987   1.669   2.945 -0.3552 -0.1297  0.4679
  995SOL    HW1 2984   1.971   1.619   3.029  2.4831 -3.7569 -0.5925
  995SOL    HW2 2985   2.055   1.747   2.967  0.6606  0.0537 -0.5943
  996SOL     OW 2986   1.930   1.289   2.808 -0.5716  0.3832 -0.2115
  996SOL    HW1 2987   2.030   1.285   2.790  0.6669 -0.9409  1.3295
  996SOL    HW2 2988   1.883   1.279   2.721 -1.4546 -0.7381  2.2852
  997SOL     OW 2989   1.724   0.888   1.636 -0.7064  0.3313  0.4906
  997SOL    HW1 2990   1.759   0.929   1.722  0.3035 -0.7431 -0.2142
  997SOL    HW2 2991   1.624   0.901   1.624  2.0271  0.8520 -0.6714
  998SOL     OW 2992   2.150   2.036   1.030 -0.5317  0.2562  0.0419
  998SOL    HW1 2993   2.169   2.013   0.933 -2.2022  2.2524  0.1885
  998SOL    HW2 2994   2.230   2.013   1.089 -0.5142  1.7372  1.6029
  999SOL     OW 2995   2.268   2.372   0.582 -0.3385  0.1861  0.0198
  999SOL    HW1 2996   2.213   2.367   0.665 -0.5574  0.7945 -0.5011
  999SOL    HW2 2997   2.282   2.468   0.563 -1.3558 -3.7895 -0.6827
 1000SOL     OW 2998   0.681   0.012   3.014 -0.0858  0.2417  0.2827
 1000SOL    HW1 2999   0.697   0.111   3.025  0.5051  0.4910 -0.3352
 1000SOL    HW2 3000   0.645   3.067   0.000 -0.7709  0.8454 -1.8680
   3.09612   3.09612   3.09612
