1000 SPC/Fw water molecules t= 176.00000 step= 176000
 3000
    1SOL     OW    1   2.686   3.091   0.953  0.1112 -0.3319  0.5718
    1SOL    HW1    2   2.630   0.030   0.919 -0.7371 -1.8476  0.4456
    1SOL    HW2    3   2.697   3.023   0.873  1.8138  0.7443 -2.9916
    2SOL     OW    4   1.678   1.785   2.088 -0.0362  0.1996 -0.0402
    2SOL    HW1    5   1.603   1.747   2.148  0.1753 -0.5261  1.7921
    2SOL    HW2    6   1.755   1.722   2.072  3.4597  0.0574  2.0467
    3SOL     OW    7   1.712   2.555   2.238 -0.5085 -0.4977 -0.3198
    3SOL    HW1    8   1.785   2.617   2.204 -2.2380 -1.3931  0.1736
    3SOL    HW2    9   1.645   2.612   2.281  2.6203 -0.0567 -1.3300
    4SOL     OW   10   1.922   2.082   1.977 -0.2488  0.8127  0.4054
    4SOL    HW1   11   1.933   2.080   2.081 -1.5721  1.3134 -1.5077
    4SOL    HW2   12   1.961   2.169   1.941 -2.5683  2.3469  0.6691
    5SOL     OW   13   1.089   0.676   1.844  0.8696 -0.0442 -0.2555
    5SOL    HW1   14   1.156   0.703   1.778  1.3906 -1.2971  2.1121
    5SOL    HW2   15   1.017   0.746   1.853 -0.0860 -4.4988  2.0319
    6SOL     OW   16   2.677   0.933   2.939  0.0958  0.5274  0.2611
    6SOL    HW1   17   2.665   0.920   2.838 -0.6688  2.9881 -0.6921
    6SOL    HW2   18   2.596   0.884   2.984 -0.8959 -0.5022 -1.9398
    7SOL     OW   19   1.135   0.988   1.415 -0.4606 -0.3675 -0.0846
    7SOL    HW1   20   1.194   0.911   1.441  0.3905  0.3757 -2.7904
    7SOL    HW2   21   1.068   0.963   1.343  1.1872 -0.7434 -0.9370
    8SOL     OW   22   1.017   0.020   1.115  0.0080  0.3705 -0.2856
    8SOL    HW1   23   1.050   0.060   1.205  2.1267  3.2768  0.7999
    8SOL    HW2   24   0.919   3.129   1.129 -0.4468 -1.7355 -0.7387
    9SOL     OW   25   0.798   0.925   0.082 -1.0216 -0.2086 -0.2651
    9SOL    HW1   26   0.725   0.991   0.070  2.9931 -1.1898  0.4948
    9SOL    HW2   27   0.860   0.942   0.162 -0.9993 -0.4881  0.9579
   10SOL     OW   28   0.487   2.823   0.180 -0.6523 -0.4542  0.0012
   10SOL    HW1   29   0.400   2.863   0.150  1.2988  1.9648 -0.0885
   10SOL    HW2   30   0.510   2.737   0.136  0.6453 -1.2635  1.6895
   11SOL     OW   31   0.318   1.386   0.008 -0.1603 -0.4763 -0.3881
   11SOL    HW1   32   0.391   1.391   3.079 -0.8413 -1.0387  2.6452
   11SOL    HW2   33   0.250   1.464   0.004  1.7389 -1.1006  1.8381
   12SOL     OW   34   0.701   3.027   1.423  0.6730 -0.1569  0.3219
   12SOL    HW1   35   0.779   3.073   1.476 -1.1002  0.6817  0.0437
   12SOL    HW2   36   0.682   2.933   1.462  2.2447 -3.2456  2.2688
   13SOL     OW   37   0.988   2.855   0.552 -0.3300 -0.2503  0.2342
   13SOL    HW1   38   1.066   2.917   0.564  0.9624 -0.7309 -1.0482
   13SOL    HW2   39   0.904   2.909   0.578  0.6944  2.3900  0.1675
   14SOL     OW   40   0.995   2.159   1.149  0.0421 -0.4287  0.5346
   14SOL    HW1   41   0.941   2.106   1.214  2.9778 -0.0538 -1.3985
   14SOL    HW2   42   1.080   2.105   1.132  2.9611 -0.6031  0.3017
   15SOL     OW   43   2.859   0.810   2.271 -0.4535 -0.3308 -0.1206
   15SOL    HW1   44   2.777   0.862   2.307 -1.2199 -2.7385 -2.5076
   15SOL    HW2   45   2.832   0.721   2.228  1.2546 -2.0896  0.3301
   16SOL     OW   46   1.274   2.885   2.745  0.3661 -0.4160  0.1095
   16SOL    HW1   47   1.330   2.837   2.673 -0.1879 -0.9237 -0.6126
   16SOL    HW2   48   1.244   2.818   2.819 -2.6457 -1.7013 -0.0117
   17SOL     OW   49   0.906   3.060   1.585  0.1001 -0.1475  0.1426
   17SOL    HW1   50   0.841   3.094   1.655  1.4791 -1.1933  0.8294
   17SOL    HW2   51   0.982   3.128   1.579 -0.6158  1.9819 -2.2553
   18SOL     OW   52   1.371   0.665   0.329  0.0802 -0.3855 -0.2108
   18SOL    HW1   53   1.385   0.642   0.233  0.2516 -1.2008 -0.5620
   18SOL    HW2   54   1.356   0.578   0.382  0.5227 -0.6100 -0.1031
   19SOL     OW   55   2.217   1.641   2.927 -0.2959  0.0831 -0.1655
   19SOL    HW1   56   2.161   1.598   2.855  1.8955  0.4517  2.1348
   19SOL    HW2   57   2.310   1.596   2.931 -1.3416  0.7477  0.6604
   20SOL     OW   58   1.968   1.640   1.791  0.3280 -0.3422 -0.5568
   20SOL    HW1   59   1.964   1.648   1.892  1.1390  0.1053 -3.3831
   20SOL    HW2   60   1.915   1.712   1.743  1.3152  1.4335  2.2791
   21SOL     OW   61   0.477   1.432   2.927  0.0376 -0.0175 -0.2868
   21SOL    HW1   62   0.536   1.349   2.912  1.2752  1.7843  0.6635
   21SOL    HW2   63   0.404   1.431   2.852  1.8808  0.0137  1.2937
   22SOL     OW   64   2.651   3.067   1.472 -0.0841  0.4159  0.4850
   22SOL    HW1   65   2.571   3.013   1.433  2.2340  1.7374 -0.0454
   22SOL    HW2   66   2.655   0.019   1.421 -0.0468  1.1305 -0.9557
   23SOL     OW   67   2.973   0.872   1.842  0.2386  0.3681 -0.3057
   23SOL    HW1   68   2.929   0.959   1.870 -0.2403  0.8917  1.6252
   23SOL    HW2   69   2.956   0.850   1.746  1.7970 -3.4339 -1.6543
   24SOL     OW   70   2.540   2.146   1.568  0.2303  0.2172 -0.2139
   24SOL    HW1   71   2.560   2.164   1.666  0.7097 -1.1316  2.1103
   24SOL    HW2   72   2.440   2.146   1.548  2.4837  0.0674 -0.1171
   25SOL     OW   73   2.075   2.884   2.598  0.6071 -0.3131  0.0682
   25SOL    HW1   74   2.060   2.918   2.503  1.0855 -1.0922 -0.7080
   25SOL    HW2   75   2.050   2.786   2.608  0.4077 -0.0678 -1.6166
   26SOL     OW   76   1.335   3.090   3.092  0.4102  0.1237  0.0810
   26SOL    HW1   77   1.409   3.043   0.008  0.1690 -0.2442 -0.8310
   26SOL    HW2   78   1.362   3.098   2.991  0.1342 -0.4374  1.1758
   27SOL     OW   79   0.614   2.068   3.032 -0.6208  0.0874  0.0386
   27SOL    HW1   80   0.639   2.097   3.129 -1.1984  0.2755  3.6386
   27SOL    HW2   81   0.522   2.100   3.009  0.9799 -1.4238  0.0526
   28SOL     OW   82   0.045   1.568   1.287  0.4938  0.3967  0.3960
   28SOL    HW1   83   3.095   1.538   1.246  1.6352 -1.5660  0.3718
   28SOL    HW2   84   0.123   1.538   1.226 -4.2052  0.5531  1.3949
   29SOL     OW   85   2.694   2.009   2.205  0.6194 -0.2119  0.3245
   29SOL    HW1   86   2.656   1.937   2.265  2.9420  1.6980 -0.5592
   29SOL    HW2   87   2.791   1.981   2.186 -2.2816  0.6983  1.3215
   30SOL     OW   88   1.142   2.994   0.926 -0.0161 -0.4569  0.1143
   30SOL    HW1   89   1.086   2.911   0.922  1.2228  2.4264  0.1143
   30SOL    HW2   90   1.097   3.066   0.984 -2.4896 -3.9408  0.1259
   31SOL     OW   91   0.002   2.204   2.007 -0.1951 -0.2349 -0.1686
   31SOL    HW1   92   0.010   2.299   1.978 -0.0762 -2.3296 -2.6849
   31SOL    HW2   93   0.085   2.152   1.991 -2.6085  3.4367 -2.3007
   32SOL     OW   94   1.310   1.000   1.706  0.3128  0.3469 -0.1034
   32SOL    HW1   95   1.335   1.067   1.632 -0.8220  0.7502 -0.8184
   32SOL    HW2   96   1.308   1.050   1.797 -1.8785  0.4989  2.4194
   33SOL     OW   97   0.188   2.623   2.244 -0.2156  0.4819 -0.5329
   33SOL    HW1   98   0.155   2.631   2.148  3.1594 -2.1776  0.3346
   33SOL    HW2   99   0.292   2.630   2.252  3.1579 -2.3121 -0.7182
   34SOL     OW  100   2.010   0.110   1.017  0.4070  0.2153  0.0023
   34SOL    HW1  101   1.948   0.085   0.937  0.7056  1.7437 -2.5501
   34SOL    HW2  102   2.080   0.180   0.996 -0.5459  0.1694  0.3073
   35SOL     OW  103   2.234   0.854   1.516  0.1436 -0.3312  0.4429
   35SOL    HW1  104   2.180   0.932   1.480  2.3742  0.1973  1.2248
   35SOL    HW2  105   2.333   0.870   1.514  0.3050 -1.1679 -0.4758
   36SOL     OW  106   2.389   2.442   2.252  0.8899 -0.3975  0.1721
   36SOL    HW1  107   2.469   2.403   2.298  0.7653 -2.0780 -0.7823
   36SOL    HW2  108   2.328   2.373   2.210 -0.6688  2.1096  1.8624
   37SOL     OW  109   0.880   2.361   2.434  0.7381  0.1167 -0.0374
   37SOL    HW1  110   0.980   2.358   2.448 -2.5582 -1.5894 -0.4295
   37SOL    HW2  111   0.838   2.356   2.528 -0.8852  0.4317 -2.0096
   38SOL     OW  112   2.605   0.415   2.905  0.3379 -0.2586  0.5141
   38SOL    HW1  113   2.623   0.321   2.934 -1.0527  0.9557 -1.5692
   38SOL    HW2  114   2.545   0.423   2.821 -1.6130  1.8726 -1.0295
   39SOL     OW  115   1.911   1.632   2.065 -0.0256 -0.1977  0.0011
   39SOL    HW1  116   1.850   1.596   2.143 -3.9377  0.7729  0.0203
   39SOL    HW2  117   2.002   1.656   2.098 -0.8400  0.8101 -2.7371
   40SOL     OW  118   0.006   2.987   2.593 -0.4252 -0.2730 -0.7410
   40SOL    HW1  119   3.067   2.935   2.633 -0.6844 -2.1290 -0.2299
   40SOL    HW2  120   0.070   2.926   2.537  0.6355  0.7866 -0.7667
   41SOL     OW  121   1.795   0.648   1.307  0.1865 -0.1357  0.3336
   41SOL    HW1  122   1.826   0.549   1.321  0.2721 -2.8014  1.2186
   41SOL    HW2  123   1.754   0.659   1.217  1.4861 -1.9560  0.2197
   42SOL     OW  124   0.993   0.168   1.814 -0.0837  0.6982 -0.1815
   42SOL    HW1  125   0.949   0.260   1.800  0.4384 -1.5889  0.4290
   42SOL    HW2  126   0.930   0.107   1.866 -0.6925 -0.6052  1.9262
   43SOL     OW  127   2.028   0.875   1.913  0.0822  0.1438  0.3652
   43SOL    HW1  128   2.131   0.880   1.908 -0.0478 -1.5529 -2.1704
   43SOL    HW2  129   1.981   0.897   1.824  2.7094  0.7147 -1.5385
   44SOL     OW  130   0.224   2.891   0.110 -0.2000 -0.3393  0.3260
   44SOL    HW1  131   0.137   2.840   0.100 -3.1951  0.3755  1.4349
   44SOL    HW2  132   0.214   2.988   0.071 -0.6333  0.4016 -1.0590
   45SOL     OW  133   0.263   2.386   1.814  0.3005 -0.3051  0.7355
   45SOL    HW1  134   0.163   2.403   1.824 -1.8456 -0.4941 -0.5169
   45SOL    HW2  135   0.311   2.462   1.765  0.6566  0.3513  1.4976
   46SOL     OW  136   2.076   2.292   2.330  0.1620 -0.4501 -0.4902
   46SOL    HW1  137   2.166   2.245   2.334 -2.3372 -1.5578 -1.6025
   46SOL    HW2  138   2.083   2.393   2.335  0.8522  0.6228 -0.5705
   47SOL     OW  139   1.602   2.220   1.507 -0.4898 -0.5033 -0.4265
   47SOL    HW1  140   1.654   2.284   1.568  1.1423  1.2128 -1.3618
   47SOL    HW2  141   1.536   2.279   1.455  2.5061 -1.4842  1.9484
   48SOL     OW  142   0.402   1.525   0.499  0.7595 -0.4663  0.2890
   48SOL    HW1  143   0.494   1.562   0.492  1.5758 -0.5638 -1.2081
   48SOL    HW2  144   0.351   1.571   0.576  0.7710 -0.8539  1.8288
   49SOL     OW  145   2.794   0.475   2.584 -0.2071  0.1457 -0.5070
   49SOL    HW1  146   2.786   0.556   2.649  1.7430 -0.0851  1.4717
   49SOL    HW2  147   2.854   0.489   2.501 -0.5314 -3.0980  0.6423
   50SOL     OW  148   1.987   0.807   0.618  0.4545 -0.4855 -0.1827
   50SOL    HW1  149   1.933   0.839   0.693  1.3472  0.6503 -3.3028
   50SOL    HW2  150   2.071   0.867   0.609  1.8893 -0.6998  0.5836
   51SOL     OW  151   1.385   0.661   0.936  0.2082  0.3661 -0.3057
   51SOL    HW1  152   1.331   0.595   0.993  2.4946  2.7973  2.7905
   51SOL    HW2  153   1.370   0.659   0.832 -1.1248 -0.3217 -3.1151
   52SOL     OW  154   1.311   1.271   3.136 -0.3428 -0.2998  0.0345
   52SOL    HW1  155   1.313   1.201   0.070  1.6232  2.1874 -1.3803
   52SOL    HW2  156   1.323   1.364   0.037 -1.5506  0.2051  3.5890
   53SOL     OW  157   1.088   1.940   2.830  0.3390 -0.4873 -0.1008
   53SOL    HW1  158   1.033   1.980   2.901  4.1603 -0.3295 -1.0118
   53SOL    HW2  159   1.172   1.998   2.809 -2.8871 -1.1244  0.5262
   54SOL     OW  160   2.095   0.478   1.218 -0.0629  0.1252 -0.1966
   54SOL    HW1  161   2.151   0.557   1.247 -2.4724 -1.0040 -1.9564
   54SOL    HW2  162   2.039   0.436   1.294 -0.3096 -1.1931  1.3754
   55SOL     OW  163   2.297   2.761   0.616 -0.2517  0.0195  0.4659
   55SOL    HW1  164   2.364   2.825   0.575 -3.0923 -0.1650  1.5628
   55SOL    HW2  165   2.230   2.722   0.550  0.4229  0.7418  1.2225
   56SOL     OW  166   0.641   2.778   1.537 -0.3704 -0.0923  0.0823
   56SOL    HW1  167   0.662   2.719   1.459 -1.6031 -0.1502  2.9664
   56SOL    HW2  168   0.687   2.735   1.616 -1.0657  0.6074 -0.7211
   57SOL     OW  169   1.691   1.371   0.473 -0.2886  0.0478  0.1136
   57SOL    HW1  170   1.642   1.293   0.429 -1.0318 -1.6540  0.2454
   57SOL    HW2  171   1.796   1.372   0.462  0.8261 -1.5172  2.3500
   58SOL     OW  172   0.230   0.875   2.121  1.3709  0.3359  0.0784
   58SOL    HW1  173   0.159   0.946   2.146 -1.4170 -0.2993 -1.1281
   58SOL    HW2  174   0.192   0.782   2.103  0.2639  0.1804  2.0028
   59SOL     OW  175   0.922   2.998   2.373  0.1187 -0.8914 -0.3132
   59SOL    HW1  176   0.998   2.940   2.409 -4.0762 -1.0374  0.8270
   59SOL    HW2  177   0.957   3.093   2.349  0.6319  2.5758 -0.8113
   60SOL     OW  178   2.474   2.633   1.022 -0.1616 -0.6647  0.3798
   60SOL    HW1  179   2.436   2.705   0.961  1.3259 -0.0661  0.0916
   60SOL    HW2  180   2.413   2.628   1.104 -0.8651 -2.5056  0.5078
   61SOL     OW  181   1.088   2.016   0.838 -0.1552 -0.3244 -0.2144
   61SOL    HW1  182   1.004   1.960   0.848 -2.1450  0.0393  1.4418
   61SOL    HW2  183   1.069   2.115   0.829 -0.2811 -1.3947 -0.8069
   62SOL     OW  184   2.280   2.759   2.730  0.1470 -0.5977 -0.3978
   62SOL    HW1  185   2.250   2.720   2.823 -1.0074 -0.8346  1.9766
   62SOL    HW2  186   2.236   2.848   2.710  1.6778  2.6201 -1.1757
   63SOL     OW  187   2.265   0.681   2.932 -0.0773  0.2363  0.1231
   63SOL    HW1  188   2.165   0.692   2.952 -1.8125 -1.1024  3.4113
   63SOL    HW2  189   2.293   0.584   2.937  0.5065  1.2880  1.7236
   64SOL     OW  190   0.934   0.924   2.954 -0.3012  0.3168 -0.0419
   64SOL    HW1  191   0.996   1.005   2.938 -1.0904 -0.4464 -0.6810
   64SOL    HW2  192   0.916   0.911   3.056  1.8938  0.5230  2.9169
   65SOL     OW  193   1.371   2.315   0.480 -0.3372 -0.1932 -0.1380
   65SOL    HW1  194   1.271   2.333   0.495 -0.4928 -1.4202  0.0819
   65SOL    HW2  195   1.423   2.309   0.568  0.6943  0.4622  2.2231
   66SOL     OW  196   0.777   1.262   1.752 -0.2673  0.0422 -0.8563
   66SOL    HW1  197   0.843   1.187   1.735  0.1244  3.6956 -0.5249
   66SOL    HW2  198   0.786   1.287   1.849  1.0134 -0.2842  1.6389
   67SOL     OW  199   2.327   3.037   2.466 -0.1717  0.0905  0.0521
   67SOL    HW1  200   2.249   2.998   2.414 -1.5732 -0.2200 -1.8325
   67SOL    HW2  201   2.401   3.067   2.403  1.9919 -0.4366 -1.9304
   68SOL     OW  202   0.742   1.489   1.293  0.4180 -0.1675 -1.1504
   68SOL    HW1  203   0.833   1.519   1.335 -0.1728  0.5097  1.7761
   68SOL    HW2  204   0.739   1.392   1.273 -3.0716  1.1221  0.1718
   69SOL     OW  205   1.450   2.401   0.217 -0.3799 -0.1387 -0.2691
   69SOL    HW1  206   1.417   2.372   0.310 -1.4199  0.5009 -1.1511
   69SOL    HW2  207   1.385   2.471   0.178  2.3746 -0.8670  1.5647
   70SOL     OW  208   3.137   1.059   2.494 -0.2058  0.5333  0.0112
   70SOL    HW1  209   3.053   1.103   2.533  0.6070  0.7253  1.1666
   70SOL    HW2  210   3.115   0.957   2.474 -1.2380 -2.1562 -0.6574
   71SOL     OW  211   0.005   1.840   2.696 -0.0215  0.4875 -0.1595
   71SOL    HW1  212   0.068   1.798   2.626  1.5663  1.4005  1.8437
   71SOL    HW2  213   0.051   1.823   2.785 -0.6202  0.8745 -0.9065
   72SOL     OW  214   2.910   2.325   0.485  0.1913 -0.0414 -0.5968
   72SOL    HW1  215   2.905   2.249   0.559  1.4883 -1.0907  1.8673
   72SOL    HW2  216   2.873   2.293   0.399  1.1705 -0.6678  2.2073
   73SOL     OW  217   0.623   1.693   0.464  0.0511 -0.5161 -0.5418
   73SOL    HW1  218   0.689   1.747   0.518 -0.0760  1.1375  3.1951
   73SOL    HW2  219   0.678   1.636   0.397 -2.1305 -2.4713  0.5926
   74SOL     OW  220   0.105   1.464   2.641  0.9526  0.0875 -0.5046
   74SOL    HW1  221   0.102   1.561   2.604  2.2690  0.3753  0.1246
   74SOL    HW2  222   0.082   1.404   2.561 -2.0471 -0.8326  0.3259
   75SOL     OW  223   1.683   1.603   1.663 -0.4551  0.1178  0.2083
   75SOL    HW1  224   1.686   1.704   1.642  1.5558  1.3152 -1.5459
   75SOL    HW2  225   1.587   1.568   1.673  1.1942 -0.2714 -0.1713
   76SOL     OW  226   1.844   2.461   1.384 -0.1021  0.7529  0.3340
   76SOL    HW1  227   1.883   2.437   1.293 -1.8978 -1.3744  1.9079
   76SOL    HW2  228   1.744   2.444   1.380  0.8399 -0.4741 -0.9471
   77SOL     OW  229   2.696   1.155   1.200  0.0300 -0.2139 -0.3558
   77SOL    HW1  230   2.777   1.099   1.237  1.7559  0.8689 -0.9656
   77SOL    HW2  231   2.630   1.089   1.163  1.8314 -0.4869  1.8379
   78SOL     OW  232   1.386   1.033   0.608 -0.1141 -0.6073  0.3537
   78SOL    HW1  233   1.363   1.120   0.658 -1.9795  2.3769  0.9105
   78SOL    HW2  234   1.486   1.006   0.628  4.0730 -0.1652  3.2737
   79SOL     OW  235   0.003   1.487   1.883  0.3138  0.0253 -0.2677
   79SOL    HW1  236   3.129   1.450   1.790  0.0952 -0.2236 -2.2954
   79SOL    HW2  237   3.058   1.485   1.938 -1.1303 -1.9656 -4.2685
   80SOL     OW  238   1.607   1.022   1.505 -0.1563 -0.1545  0.0996
   80SOL    HW1  239   1.626   0.966   1.585 -1.8849  0.3659  0.1890
   80SOL    HW2  240   1.536   0.977   1.448 -0.3969  0.4078  0.1665
   81SOL     OW  241   0.657   0.132   0.939 -0.4230 -0.2917 -0.3865
   81SOL    HW1  242   0.672   0.094   0.844 -0.8211 -0.3277 -0.6068
   81SOL    HW2  243   0.568   0.111   0.977  3.9614 -0.4579 -0.4502
   82SOL     OW  244   1.558   2.892   1.580 -0.3190 -0.0590  0.1703
   82SOL    HW1  245   1.532   2.968   1.518  0.5185  2.8314 -0.4611
   82SOL    HW2  246   1.614   2.816   1.537 -0.6305  0.1530 -2.1082
   83SOL     OW  247   0.809   2.239   0.973  0.3726 -0.1985 -0.3668
   83SOL    HW1  248   0.742   2.166   1.001 -1.2652 -1.5940  1.4522
   83SOL    HW2  249   0.888   2.237   1.034 -3.0329 -2.2729 -2.2791
   84SOL     OW  250   0.381   1.438   2.693  0.3315  0.0002 -0.0087
   84SOL    HW1  251   0.285   1.430   2.658  1.2383 -1.5393 -0.7771
   84SOL    HW2  252   0.417   1.523   2.653 -0.7573  2.4366 -1.4270
   85SOL     OW  253   0.128   2.332   1.447 -0.1014  0.0023  0.5455
   85SOL    HW1  254   0.040   2.380   1.445  1.1055  0.7140 -1.2320
   85SOL    HW2  255   0.200   2.401   1.429  0.1112 -4.1990 -2.6324
   86SOL     OW  256   2.401   2.316   1.388 -0.3022  0.1262 -0.2766
   86SOL    HW1  257   2.490   2.283   1.431 -0.0874  0.8426  1.6183
   86SOL    HW2  258   2.375   2.410   1.416  0.1235  1.2461 -1.5173
   87SOL     OW  259   2.761   2.250   0.257 -0.8364  0.4463 -0.2591
   87SOL    HW1  260   2.733   2.205   0.342 -0.3405  0.8729  0.5603
   87SOL    HW2  261   2.797   2.180   0.193  1.4561 -0.1965 -1.3433
   88SOL     OW  262   0.475   1.487   1.191  0.4722  0.2890  0.2307
   88SOL    HW1  263   0.414   1.568   1.198 -0.5680  0.4745  2.1426
   88SOL    HW2  264   0.560   1.497   1.243 -1.4305  2.3292  0.4190
   89SOL     OW  265   1.167   2.888   1.875  0.0884 -0.3098  0.6927
   89SOL    HW1  266   1.237   2.837   1.822 -4.3920  1.2198  3.1863
   89SOL    HW2  267   1.191   2.985   1.872  0.0937 -0.4706  3.0023
   90SOL     OW  268   3.087   1.706   1.483  0.3551 -0.3860  0.0480
   90SOL    HW1  269   2.999   1.668   1.507  2.7644 -1.7061  1.6854
   90SOL    HW2  270   3.124   1.647   1.405  0.8902 -1.4315 -2.3953
   91SOL     OW  271   1.485   2.054   1.156 -0.3413  0.1894 -0.3547
   91SOL    HW1  272   1.396   2.013   1.128  0.6854  1.6657 -0.3718
   91SOL    HW2  273   1.505   2.045   1.257 -0.3706  0.2575 -0.6531
   92SOL     OW  274   2.414   2.612   1.445 -0.1435 -0.2369  0.2256
   92SOL    HW1  275   2.384   2.680   1.513 -0.4401  0.1328  0.2539
   92SOL    HW2  276   2.513   2.601   1.452 -1.7741  1.7669  1.2664
   93SOL     OW  277   2.666   1.611   2.701  0.9609 -0.3124 -0.0866
   93SOL    HW1  278   2.689   1.532   2.642 -0.5986 -0.0047 -2.2114
   93SOL    HW2  279   2.745   1.677   2.708 -1.5981  0.0533  0.7767
   94SOL     OW  280   2.707   2.858   2.163 -0.1492  0.1792 -0.1186
   94SOL    HW1  281   2.664   2.860   2.256 -2.2441 -0.9234  2.0527
   94SOL    HW2  282   2.685   2.773   2.110  1.3699 -1.2425  1.3540
   95SOL     OW  283   1.728   0.222   1.611 -0.0713 -0.1015  0.0700
   95SOL    HW1  284   1.769   0.206   1.706  0.9498 -0.3921  1.4964
   95SOL    HW2  285   1.749   0.146   1.549 -0.3799  1.9073  2.2936
   96SOL     OW  286   3.070   2.832   1.541  0.1603 -0.3079 -0.0792
   96SOL    HW1  287   3.006   2.886   1.481  0.7502 -1.8123 -0.3643
   96SOL    HW2  288   0.001   2.784   1.485 -1.3533 -0.6023  0.7363
   97SOL     OW  289   2.387   0.363   1.447 -0.3483 -0.6220 -0.8285
   97SOL    HW1  290   2.296   0.390   1.472  0.3531 -0.5606  1.0272
   97SOL    HW2  291   2.439   0.336   1.529 -0.3372  0.3676 -2.9329
   98SOL     OW  292   1.333   2.475   1.770 -0.3286 -1.1026 -0.6249
   98SOL    HW1  293   1.312   2.576   1.748 -2.6458 -2.4861  0.2556
   98SOL    HW2  294   1.264   2.414   1.731  2.5817  1.0130 -0.0255
   99SOL     OW  295   0.067   0.020   1.856 -0.1524  0.0583  0.4239
   99SOL    HW1  296   0.078   3.084   1.790 -0.0653 -2.4696 -0.9463
   99SOL    HW2  297   0.044   3.124   1.945  0.6712 -0.5828 -1.8880
  100SOL     OW  298   2.882   1.133   2.238  0.6689 -0.6377 -0.0890
  100SOL    HW1  299   2.924   1.217   2.275  0.3725 -3.3060 -1.8470
  100SOL    HW2  300   2.806   1.101   2.299 -1.8543  2.2630 -1.2981
  101SOL     OW  301   1.814   0.529   0.276 -0.5064 -0.1275 -0.4304
  101SOL    HW1  302   1.890   0.598   0.290  0.8524  1.3537  0.9853
  101SOL    HW2  303   1.855   0.441   0.250  0.4998  0.0171  0.9309
  102SOL     OW  304   3.032   0.660   1.383 -0.5372 -0.1351  0.1617
  102SOL    HW1  305   2.970   0.611   1.322 -0.0223  2.4515  0.3102
  102SOL    HW2  306   3.078   0.741   1.338  2.6498  2.3451 -1.0174
  103SOL     OW  307   2.379   0.866   2.721 -0.4872  0.4560  0.2498
  103SOL    HW1  308   2.350   0.773   2.754 -1.6692 -2.2041  0.9784
  103SOL    HW2  309   2.344   0.940   2.779  2.2552  0.4706 -0.5918
  104SOL     OW  310   0.083   0.104   2.346  0.7988 -0.3991  0.1055
  104SOL    HW1  311   0.012   0.119   2.420 -1.7627 -3.2747 -0.9163
  104SOL    HW2  312   0.176   0.124   2.389  0.3719  0.7292  3.3859
  105SOL     OW  313   2.185   1.105   1.737  0.3245  0.7784 -0.4417
  105SOL    HW1  314   2.137   1.084   1.647  1.2126 -0.2571 -1.5149
  105SOL    HW2  315   2.153   1.194   1.782 -0.9430  1.5369  0.3908
  106SOL     OW  316   1.342   3.095   0.798 -0.3526 -0.3595 -0.1658
  106SOL    HW1  317   1.350   0.055   0.805 -1.1031 -0.8025 -2.9008
  106SOL    HW2  318   1.260   3.055   0.844 -0.2713  2.0196  1.3812
  107SOL     OW  319   0.112   1.459   0.882  0.1916 -0.2770  0.0582
  107SOL    HW1  320   0.098   1.531   0.951  0.1097  2.5320  0.8858
  107SOL    HW2  321   0.196   1.484   0.835 -0.1481 -2.6603  3.5811
  108SOL     OW  322   0.333   0.105   2.521 -0.1520  0.1123  0.5380
  108SOL    HW1  323   0.252   0.091   2.579  2.4934 -1.8494 -2.2114
  108SOL    HW2  324   0.387   0.188   2.540  2.2962 -3.7901 -1.7447
  109SOL     OW  325   2.594   0.385   0.406 -0.5145 -0.1466  0.2395
  109SOL    HW1  326   2.593   0.477   0.358 -0.1359  2.5701 -2.1559
  109SOL    HW2  327   2.654   0.313   0.363 -1.9942 -2.4955  0.2086
  110SOL     OW  328   0.304   2.391   2.742 -0.8567  0.3972  0.0313
  110SOL    HW1  329   0.222   2.341   2.711  0.4503  0.1284 -0.2990
  110SOL    HW2  330   0.354   2.436   2.661  0.1162  0.3771 -0.3796
  111SOL     OW  331   1.839   2.939   2.068 -0.0171  0.2069 -0.4252
  111SOL    HW1  332   1.796   2.935   1.975  3.0031  0.5127  1.0560
  111SOL    HW2  333   1.858   3.036   2.091  1.1042 -0.7199  0.1037
  112SOL     OW  334   1.994   2.688   2.901  0.8287  0.4889 -0.1871
  112SOL    HW1  335   1.943   2.619   2.960 -0.7629  0.0396  0.6503
  112SOL    HW2  336   1.992   2.783   2.939 -0.5661  2.1840  0.9689
  113SOL     OW  337   2.690   2.065   1.917 -0.8858 -0.2715  0.2932
  113SOL    HW1  338   2.687   2.065   2.022  0.9428 -2.1974  3.4715
  113SOL    HW2  339   2.763   2.131   1.888  1.4138 -0.4953  2.6658
  114SOL     OW  340   2.568   0.952   1.087 -0.5585  0.3660 -0.5996
  114SOL    HW1  341   2.473   0.938   1.114 -0.3530 -1.0282 -2.7212
  114SOL    HW2  342   2.579   0.946   0.987 -0.6851  2.3765 -1.1985
  115SOL     OW  343   0.160   1.788   2.925 -0.4810  0.0223 -0.5793
  115SOL    HW1  344   0.255   1.755   2.914 -0.1845 -1.0402  0.9685
  115SOL    HW2  345   0.150   1.889   2.950 -0.6505  0.4890  0.2271
  116SOL     OW  346   0.220   1.364   2.019  0.3246 -0.1775  0.5344
  116SOL    HW1  347   0.303   1.408   1.971  0.2511  2.7320 -0.1426
  116SOL    HW2  348   0.139   1.417   1.993  0.7778  1.0395  0.5107
  117SOL     OW  349   2.560   0.206   0.945  0.8154  0.4610  0.4073
  117SOL    HW1  350   2.496   0.222   1.025 -0.6283 -1.9487 -0.6027
  117SOL    HW2  351   2.530   0.246   0.854 -0.8592  0.5800  1.4829
  118SOL     OW  352   0.512   2.140   1.539 -0.5411 -0.3528  0.7119
  118SOL    HW1  353   0.516   2.158   1.438 -0.8173  0.3484  1.2847
  118SOL    HW2  354   0.578   2.063   1.567  4.0509 -1.8872  0.6249
  119SOL     OW  355   1.749   2.033   0.559 -0.2561 -0.1272 -0.1677
  119SOL    HW1  356   1.841   2.081   0.571  2.9534  1.8623  1.3852
  119SOL    HW2  357   1.751   1.946   0.508 -1.0416 -0.1064  0.6886
  120SOL     OW  358   0.440   1.685   2.591 -0.3410  0.0289 -0.1691
  120SOL    HW1  359   0.409   1.779   2.626 -0.2201  1.0445 -0.6750
  120SOL    HW2  360   0.540   1.679   2.574  0.1734  0.3430 -0.2053
  121SOL     OW  361   2.127   2.155   1.495  0.2140  0.7890 -0.0236
  121SOL    HW1  362   2.131   2.052   1.485  0.1054  1.1229 -0.4750
  121SOL    HW2  363   2.201   2.204   1.444 -1.4363  0.2113  0.7316
  122SOL     OW  364   2.222   1.910   2.199 -0.0854 -0.5671  0.0775
  122SOL    HW1  365   2.223   1.814   2.225  0.2829 -0.3831 -2.0215
  122SOL    HW2  366   2.247   1.924   2.103 -0.2699  1.6705  0.3295
  123SOL     OW  367   3.101   2.884   0.827  0.1412 -0.4308 -0.1611
  123SOL    HW1  368   3.042   2.810   0.793  0.6980  2.7500  0.8075
  123SOL    HW2  369   3.049   2.961   0.868  0.2950 -2.2135 -2.3606
  124SOL     OW  370   1.751   0.681   2.361  0.9293 -0.2404  1.0224
  124SOL    HW1  371   1.718   0.753   2.297  1.0592  2.0376 -0.8284
  124SOL    HW2  372   1.806   0.617   2.303  0.6686  1.1214  1.7927
  125SOL     OW  373   0.218   1.287   0.242 -0.6598 -0.0967 -0.6017
  125SOL    HW1  374   0.257   1.323   0.155 -1.4690  1.1041  2.1536
  125SOL    HW2  375   0.264   1.197   0.257 -1.5060  2.0740  0.7889
  126SOL     OW  376   2.667   2.150   0.487 -0.2788 -0.0846  0.1098
  126SOL    HW1  377   2.573   2.180   0.501  4.4578 -0.8546 -0.0110
  126SOL    HW2  378   2.708   2.123   0.574 -1.6158 -1.0411  0.6708
  127SOL     OW  379   0.293   1.711   1.204  0.4806  0.0768  0.1015
  127SOL    HW1  380   0.207   1.713   1.152 -1.2876  2.2483  0.4344
  127SOL    HW2  381   0.264   1.710   1.304  0.3487  1.7294  0.7957
  128SOL     OW  382   0.793   0.650   0.101  0.2959 -0.1042  0.4792
  128SOL    HW1  383   0.761   0.628   0.006  1.5173  0.7057  2.4526
  128SOL    HW2  384   0.805   0.753   0.111 -0.4216 -0.5725  0.5033
  129SOL     OW  385   2.366   1.573   0.660  0.0413 -0.4269  0.1796
  129SOL    HW1  386   2.360   1.492   0.599  1.6474 -1.0672  1.1327
  129SOL    HW2  387   2.271   1.597   0.686  1.8234 -0.3845 -0.5464
  130SOL     OW  388   2.196   1.783   1.224  0.0576  0.1208 -0.0818
  130SOL    HW1  389   2.265   1.844   1.180 -0.9475  0.9474 -0.6997
  130SOL    HW2  390   2.142   1.735   1.153 -0.6943 -1.2085 -0.9915
  131SOL     OW  391   2.819   1.148   2.850  0.4388  0.0520 -0.4495
  131SOL    HW1  392   2.748   1.071   2.853 -0.9241  0.4202 -0.6034
  131SOL    HW2  393   2.913   1.115   2.884  1.0613 -0.2759 -1.6595
  132SOL     OW  394   2.777   1.699   2.056 -0.0748 -0.0963  0.2149
  132SOL    HW1  395   2.806   1.797   2.054 -0.5119 -0.5965  1.3738
  132SOL    HW2  396   2.857   1.642   2.033 -0.6506  2.4335  0.2337
  133SOL     OW  397   3.077   0.643   0.641 -0.0377  0.0274  0.4053
  133SOL    HW1  398   3.118   0.586   0.717  1.5258  1.9894  1.1074
  133SOL    HW2  399   2.974   0.639   0.641  0.4305 -0.6756  1.4624
  134SOL     OW  400   0.305   1.015   0.231  0.0294 -0.6320  0.3827
  134SOL    HW1  401   0.218   0.970   0.222  1.9293 -0.6381 -1.0450
  134SOL    HW2  402   0.338   1.025   0.132 -1.2892 -0.2905 -1.3083
  135SOL     OW  403   2.100   1.600   0.720 -0.3173  0.2595 -0.3529
  135SOL    HW1  404   2.088   1.499   0.735 -1.4191 -2.0790 -0.0315
  135SOL    HW2  405   2.056   1.631   0.635  3.4577  0.2748  1.2213
  136SOL     OW  406   2.082   1.445   1.092  0.0910  0.2716 -0.0355
  136SOL    HW1  407   2.058   1.444   1.187  0.5585  2.1003 -0.9978
  136SOL    HW2  408   2.069   1.533   1.042 -1.3472 -0.0602 -2.7405
  137SOL     OW  409   2.668   1.714   0.773 -0.5975 -0.1608  0.1333
  137SOL    HW1  410   2.578   1.668   0.780  2.7414  0.5962 -0.9631
  137SOL    HW2  411   2.691   1.757   0.858 -1.0148 -2.9360 -1.7756
  138SOL     OW  412   1.511   0.623   1.827  0.0162  0.5016 -0.4337
  138SOL    HW1  413   1.503   0.706   1.888 -1.2031 -0.9417 -0.1510
  138SOL    HW2  414   1.567   0.644   1.747  0.3210  1.0229 -0.8153
  139SOL     OW  415   2.049   0.086   3.047  0.0002  0.6980  0.3152
  139SOL    HW1  416   2.075   0.117   2.956  0.5366 -3.7705  1.1889
  139SOL    HW2  417   2.124   0.107   3.116  3.9429  1.3808 -1.8814
  140SOL     OW  418   1.318   2.069   2.463  0.0548 -0.5569 -0.2379
  140SOL    HW1  419   1.350   1.972   2.485 -0.7721 -3.0015  0.0781
  140SOL    HW2  420   1.393   2.114   2.416  1.0955 -1.3325  3.0720
  141SOL     OW  421   1.228   1.330   1.714 -0.3596 -0.4300  0.0807
  141SOL    HW1  422   1.261   1.278   1.631 -1.5127  0.4349 -1.2728
  141SOL    HW2  423   1.140   1.370   1.683 -0.0425 -2.2222  0.6900
  142SOL     OW  424   2.662   0.137   3.025 -0.0387  0.0198  0.0967
  142SOL    HW1  425   2.598   0.092   3.087 -1.3487  0.5674  0.6632
  142SOL    HW2  426   2.762   0.123   3.042 -0.1543  0.1428 -0.4224
  143SOL     OW  427   0.646   2.558   2.784 -0.1165  0.7876  0.3915
  143SOL    HW1  428   0.660   2.575   2.881 -3.1761  0.0047 -2.2692
  143SOL    HW2  429   0.666   2.637   2.721  1.1988  1.1713  2.1620
  144SOL     OW  430   0.914   2.918   1.954 -0.1375  0.0281 -0.3486
  144SOL    HW1  431   0.899   2.839   2.014 -1.1679  1.6892 -0.8205
  144SOL    HW2  432   1.003   2.905   1.903  0.9614  1.8595  3.9222
  145SOL     OW  433   2.573   1.480   0.410  0.4030  0.0864  0.2300
  145SOL    HW1  434   2.622   1.419   0.342  3.7249 -2.2396  1.8279
  145SOL    HW2  435   2.632   1.560   0.440 -1.3772 -0.0163  1.2164
  146SOL     OW  436   2.700   2.955   2.828  0.5472 -0.1038 -0.0392
  146SOL    HW1  437   2.671   3.054   2.821  0.0305 -1.3770 -0.3924
  146SOL    HW2  438   2.706   2.928   2.926 -1.9738  0.9675 -1.2078
  147SOL     OW  439   2.714   2.553   1.128  0.6846 -0.4768  0.0886
  147SOL    HW1  440   2.756   2.586   1.209  0.2293  1.5241 -2.4924
  147SOL    HW2  441   2.632   2.604   1.104  2.0618  0.8362  3.7197
  148SOL     OW  442   1.755   0.157   3.069 -0.1867  0.5398 -0.3651
  148SOL    HW1  443   1.730   0.207   0.009 -0.9893 -2.4928 -2.8761
  148SOL    HW2  444   1.856   0.138   3.065  0.0642  1.9845 -0.5202
  149SOL     OW  445   0.929   1.252   2.824  0.5777  0.0964  0.3227
  149SOL    HW1  446   0.970   1.243   2.917 -0.5701  0.3767  0.7007
  149SOL    HW2  447   1.006   1.260   2.758  0.8234  1.1401 -2.5448
  150SOL     OW  448   1.049   2.617   0.670 -0.2340  0.1536  0.2274
  150SOL    HW1  449   1.007   2.699   0.621 -2.5068  0.1850 -0.0067
  150SOL    HW2  450   1.071   2.537   0.599  0.3375 -1.1569 -7.0236
  151SOL     OW  451   0.330   2.045   0.032  0.2724 -0.3799  0.4555
  151SOL    HW1  452   0.347   1.947   0.057 -0.8775 -1.3223 -1.5546
  151SOL    HW2  453   0.338   2.054   3.070 -0.3702  0.6391  3.5330
  152SOL     OW  454   0.048   1.230   0.458  0.2248 -0.0855 -0.1477
  152SOL    HW1  455   0.138   1.223   0.411  0.0508  5.3393 -0.0264
  152SOL    HW2  456   3.121   1.157   0.448  0.3756  1.6083 -2.0703
  153SOL     OW  457   2.621   2.617   3.054 -0.2894 -0.0939  0.1267
  153SOL    HW1  458   2.643   2.571   0.004  0.5846  1.7288  0.0589
  153SOL    HW2  459   2.612   2.549   2.978  0.4283 -2.5880  1.1190
  154SOL     OW  460   0.370   0.211   1.254  0.0566 -0.1433  0.4768
  154SOL    HW1  461   0.388   0.148   1.176 -0.3923  1.1602  3.6121
  154SOL    HW2  462   0.374   0.163   1.346 -1.5468  0.5184  0.9240
  155SOL     OW  463   0.061   2.114   1.065  0.4384  0.1776  0.1799
  155SOL    HW1  464   0.095   2.057   0.985  0.5007 -1.0464 -0.8597
  155SOL    HW2  465   0.010   2.046   1.128  0.6729 -1.0834  0.5422
  156SOL     OW  466   2.356   2.275   2.967 -0.3783  0.0002  0.4221
  156SOL    HW1  467   2.347   2.176   2.971  1.1581 -0.0018  1.4412
  156SOL    HW2  468   2.431   2.305   3.031  0.7573 -0.6974  0.7992
  157SOL     OW  469   0.863   2.622   1.076 -0.2802  0.6607  0.2921
  157SOL    HW1  470   0.804   2.543   1.057 -2.4055  1.0533  1.3594
  157SOL    HW2  471   0.822   2.689   1.143  0.4384  1.1369  3.2680
  158SOL     OW  472   2.024   0.798   2.735  0.4162 -0.9033 -0.1512
  158SOL    HW1  473   2.001   0.747   2.824  0.2586  0.5806 -1.1133
  158SOL    HW2  474   1.935   0.805   2.684 -0.4434 -0.3804 -0.3149
  159SOL     OW  475   0.961   0.353   2.566 -0.0962  0.2195  0.1512
  159SOL    HW1  476   0.956   0.291   2.647  1.2666 -1.0105  0.0487
  159SOL    HW2  477   1.026   0.320   2.496  2.0138  1.1282 -2.3886
  160SOL     OW  478   0.819   1.847   0.598 -0.0095  0.1011  0.0308
  160SOL    HW1  479   0.834   1.829   0.696 -0.7505  1.0060 -0.5701
  160SOL    HW2  480   0.906   1.827   0.550  1.0121 -0.1477  1.3345
  161SOL     OW  481   3.085   2.185   3.132 -0.2479 -0.6920  0.0520
  161SOL    HW1  482   0.030   2.212   0.040 -0.5504  0.6663  1.1930
  161SOL    HW2  483   3.034   2.265   3.101  1.4068 -2.7739 -1.0546
  162SOL     OW  484   0.430   2.638   0.776 -0.5343  0.0515  0.3017
  162SOL    HW1  485   0.421   2.714   0.712 -1.1118  0.9065 -0.7531
  162SOL    HW2  486   0.339   2.612   0.812  0.1479 -1.7361 -1.3219
  163SOL     OW  487   2.451   0.865   3.031  0.2055  0.0532 -0.1147
  163SOL    HW1  488   2.448   0.841   3.127 -0.8889 -1.9029 -2.1616
  163SOL    HW2  489   2.390   0.801   2.975 -0.0095 -0.5393 -2.2301
  164SOL     OW  490   0.108   2.800   0.372 -0.0333  0.0771 -0.1480
  164SOL    HW1  491   0.033   2.729   0.356  0.0463 -1.3065  0.8239
  164SOL    HW2  492   0.162   2.832   0.291  2.5289  1.3227 -1.7692
  165SOL     OW  493   2.532   0.662   1.388 -0.1207 -0.5243 -0.1542
  165SOL    HW1  494   2.512   0.617   1.479 -2.5757  0.4984  2.6350
  165SOL    HW2  495   2.484   0.620   1.310  1.3549 -4.1897 -3.9165
  166SOL     OW  496   2.173   0.340   0.993 -0.2025 -0.1695  0.0449
  166SOL    HW1  497   2.163   0.406   0.919  0.1852 -0.9877  2.3855
  166SOL    HW2  498   2.151   0.386   1.083 -1.2251  1.0180  2.0189
  167SOL     OW  499   0.246   0.626   1.447 -0.1502  0.2181 -0.0233
  167SOL    HW1  500   0.217   0.578   1.535 -0.8183 -0.7617  1.6116
  167SOL    HW2  501   0.253   0.729   1.444  0.0895 -1.2482  0.3978
  168SOL     OW  502   2.729   3.108   2.043  0.1806 -0.1209 -0.0113
  168SOL    HW1  503   2.738   0.052   2.096  1.3433 -0.4433 -3.4694
  168SOL    HW2  504   2.729   3.023   2.101  2.3526  0.7375  0.0778
  169SOL     OW  505   3.040   1.729   0.550  0.4167  0.3012  0.6276
  169SOL    HW1  506   0.000   1.739   0.528  2.2937  1.2687  0.5148
  169SOL    HW2  507   3.019   1.664   0.629  0.5874 -1.1636  2.6654
  170SOL     OW  508   2.886   0.715   1.612 -0.3334  0.2594  0.1044
  170SOL    HW1  509   2.940   0.700   1.527  1.2048  0.2155  0.4536
  170SOL    HW2  510   2.846   0.627   1.642  1.3889  2.7835 -0.0311
  171SOL     OW  511   1.142   2.321   1.663  0.4911  0.1820 -0.5414
  171SOL    HW1  512   1.089   2.400   1.705 -2.0639  3.5858  0.8065
  171SOL    HW2  513   1.151   2.236   1.719 -0.8630 -0.1367 -3.1387
  172SOL     OW  514   0.572   2.446   1.024  0.8129  0.5398  0.0461
  172SOL    HW1  515   0.593   2.351   1.024 -1.0545  3.3818  0.9341
  172SOL    HW2  516   0.555   2.478   0.935  0.4735  1.2447  1.0179
  173SOL     OW  517   1.103   0.048   0.194  0.3845  0.4500  0.6158
  173SOL    HW1  518   1.002   0.069   0.210  0.2190 -1.2864 -2.6378
  173SOL    HW2  519   1.105   3.137   0.101 -0.9230 -0.6774 -3.1187
  174SOL     OW  520   0.751   2.748   2.604 -0.6706 -0.4763  0.3556
  174SOL    HW1  521   0.850   2.726   2.638  2.6670  0.8912  0.3663
  174SOL    HW2  522   0.751   2.849   2.573  2.4086  2.1868 -0.4662
  175SOL     OW  523   1.105   0.590   0.008  0.8181 -1.0802  0.5351
  175SOL    HW1  524   1.205   0.581   0.013 -1.5521 -2.5238  1.5129
  175SOL    HW2  525   1.082   0.680   3.107  0.1825  0.3886 -0.5307
  176SOL     OW  526   1.328   0.420   0.456  0.4406 -0.2142 -0.0220
  176SOL    HW1  527   1.244   0.381   0.406  0.0285 -0.8279  0.3127
  176SOL    HW2  528   1.406   0.358   0.448 -0.7151  0.2654 -0.1157
  177SOL     OW  529   1.328   0.909   1.079  0.1382 -0.0022  0.6779
  177SOL    HW1  530   1.339   0.844   0.999  1.1641 -0.5169 -1.4721
  177SOL    HW2  531   1.285   0.994   1.043  1.9876 -4.3376 -1.2811
  178SOL     OW  532   2.444   1.757   2.601 -0.1989 -0.3656  0.0527
  178SOL    HW1  533   2.529   1.703   2.629 -0.3424 -1.3152 -1.5117
  178SOL    HW2  534   2.434   1.842   2.661  1.0624 -2.0503  1.6869
  179SOL     OW  535   0.415   2.781   2.573 -0.1084 -0.0023  0.2935
  179SOL    HW1  536   0.461   2.689   2.547 -0.5391 -1.0910  1.1352
  179SOL    HW2  537   0.439   2.855   2.509  2.8122  2.0565  0.3131
  180SOL     OW  538   1.859   1.885   1.688 -0.1568  0.3681 -0.1791
  180SOL    HW1  539   1.825   1.936   1.604  0.3792 -0.3605 -1.1027
  180SOL    HW2  540   1.797   1.898   1.769 -1.4524 -0.7883 -0.4950
  181SOL     OW  541   1.549   1.411   2.391  0.3502  0.0114 -0.2932
  181SOL    HW1  542   1.528   1.417   2.493 -0.7851  0.9188  0.9133
  181SOL    HW2  543   1.567   1.313   2.369 -0.9575  0.2882 -0.7903
  182SOL     OW  544   3.076   0.629   2.638 -1.1092  0.2398 -0.0387
  182SOL    HW1  545   2.983   0.651   2.680 -0.8461 -2.9277  1.7046
  182SOL    HW2  546   3.088   0.524   2.657  0.1032 -2.4320  1.5914
  183SOL     OW  547   1.413   0.199   2.667 -0.1990 -0.1962  0.1679
  183SOL    HW1  548   1.438   0.226   2.574  0.6659  2.5233  3.5469
  183SOL    HW2  549   1.476   0.247   2.726  0.1072  0.4946  0.7853
  184SOL     OW  550   0.853   0.546   1.540  0.2310 -0.5010 -0.0298
  184SOL    HW1  551   0.842   0.492   1.624 -2.1292  1.0048  0.5462
  184SOL    HW2  552   0.773   0.603   1.526  0.1115 -0.3010 -1.4930
  185SOL     OW  553   2.866   1.329   0.762  0.5311 -0.0620 -0.2402
  185SOL    HW1  554   2.906   1.424   0.761 -0.2409  3.2512  2.3322
  185SOL    HW2  555   2.796   1.324   0.840 -0.0141 -1.8054  0.8771
  186SOL     OW  556   0.647   1.833   2.845 -0.1684 -0.4213 -0.4978
  186SOL    HW1  557   0.660   1.928   2.893  0.2645  0.4842  0.8686
  186SOL    HW2  558   0.617   1.854   2.749  0.7381 -0.1902 -0.6143
  187SOL     OW  559   2.687   1.354   0.223 -0.2480  0.4606  0.0728
  187SOL    HW1  560   2.766   1.326   0.280  1.5131  2.3441  3.0862
  187SOL    HW2  561   2.670   1.297   0.144  0.6537  0.2612  1.6324
  188SOL     OW  562   0.093   2.348   0.601 -0.4294  0.1082 -0.7683
  188SOL    HW1  563   0.194   2.363   0.583  2.1596  0.1240 -3.2498
  188SOL    HW2  564   0.032   2.372   0.525  0.2912 -1.0027 -0.3243
  189SOL     OW  565   2.599   0.989   0.318  0.0557  0.1242  0.5075
  189SOL    HW1  566   2.649   0.989   0.228  1.0060  1.2808  0.2106
  189SOL    HW2  567   2.667   1.012   0.390 -1.8481  0.9077  0.2619
  190SOL     OW  568   1.442   1.620   2.217 -0.2025 -0.1112 -0.3183
  190SOL    HW1  569   1.484   1.553   2.287  1.3284  0.0787  1.5647
  190SOL    HW2  570   1.343   1.629   2.239 -0.8375 -1.9332  0.0639
  191SOL     OW  571   2.563   0.528   1.626 -0.4239  0.7361  0.3198
  191SOL    HW1  572   2.598   0.435   1.602 -1.3895  4.0620 -0.4131
  191SOL    HW2  573   2.602   0.572   1.711 -0.8948  0.7504 -2.1584
  192SOL     OW  574   2.253   0.202   1.765  0.6467  0.2922  0.5442
  192SOL    HW1  575   2.221   0.119   1.721 -0.5026  0.7499 -0.7114
  192SOL    HW2  576   2.336   0.186   1.823 -0.8803 -2.7007  1.2085
  193SOL     OW  577   0.868   0.719   0.394  0.3165  0.3629 -0.4465
  193SOL    HW1  578   0.889   0.621   0.410 -2.3145 -2.3861 -1.1983
  193SOL    HW2  579   0.775   0.748   0.432 -2.5027  3.4703  0.9614
  194SOL     OW  580   1.016   2.816   1.491 -0.0196  0.0564  0.0317
  194SOL    HW1  581   1.107   2.845   1.459 -0.4149  1.5512  0.8013
  194SOL    HW2  582   0.969   2.893   1.537  1.6404 -0.5287 -1.1189
  195SOL     OW  583   2.296   0.890   1.130 -0.1564  0.1167 -0.4783
  195SOL    HW1  584   2.294   0.878   1.027  0.5509  2.3877  2.0509
  195SOL    HW2  585   2.213   0.943   1.161 -1.2612 -0.6228 -0.7966
  196SOL     OW  586   1.741   2.391   2.008  1.1825 -0.3809 -0.0575
  196SOL    HW1  587   1.660   2.350   1.967  1.4170 -0.1712 -0.8185
  196SOL    HW2  588   1.721   2.421   2.102  0.9755 -0.5064  1.0005
  197SOL     OW  589   0.199   0.186   0.138  0.2640  0.1806 -0.3197
  197SOL    HW1  590   0.270   0.199   0.210 -2.5920 -1.2106 -1.1944
  197SOL    HW2  591   0.208   0.101   0.089  0.1095  0.3752 -1.5274
  198SOL     OW  592   1.340   1.267   0.745 -0.0741 -0.1774  0.2695
  198SOL    HW1  593   1.268   1.324   0.694 -0.9187 -1.1102 -1.3743
  198SOL    HW2  594   1.303   1.241   0.840 -2.0799  0.4482  1.9690
  199SOL     OW  595   2.784   0.973   2.057 -0.1957  0.3465  0.3334
  199SOL    HW1  596   2.798   0.885   2.104 -0.2712  2.1801  1.6770
  199SOL    HW2  597   2.848   1.038   2.103  0.1278  1.0073  2.2084
  200SOL     OW  598   2.801   2.095   2.678 -0.2662 -0.1996 -0.5912
  200SOL    HW1  599   2.747   2.159   2.621 -1.8809  0.3918 -2.2340
  200SOL    HW2  600   2.821   2.133   2.772  2.7540  1.0275 -1.3713
  201SOL     OW  601   2.660   0.169   1.328  0.2946 -0.5012  0.7616
  201SOL    HW1  602   2.750   0.205   1.291 -1.2510  1.3287 -0.9830
  201SOL    HW2  603   2.581   0.196   1.268 -2.6509  0.0275 -0.2301
  202SOL     OW  604   2.017   0.702   0.370 -0.4214 -0.2894 -0.0803
  202SOL    HW1  605   2.009   0.739   0.466  0.3887  2.0994 -2.1718
  202SOL    HW2  606   2.032   0.773   0.300 -3.1529 -2.3136  1.5994
  203SOL     OW  607   1.743   1.981   2.284 -0.3233 -0.2504 -0.2316
  203SOL    HW1  608   1.716   1.908   2.212 -1.0827 -2.0669 -0.8274
  203SOL    HW2  609   1.836   2.019   2.256  1.5220  1.3494 -2.0862
  204SOL     OW  610   0.869   1.822   2.192 -0.0011 -0.0957  0.1315
  204SOL    HW1  611   0.880   1.875   2.102  1.6005  3.0187  1.9023
  204SOL    HW2  612   0.938   1.859   2.257 -1.2192 -1.5627 -0.3370
  205SOL     OW  613   0.951   1.775   1.633  0.0601 -0.5267  0.4183
  205SOL    HW1  614   0.917   1.816   1.546  1.0062 -1.2383 -1.7104
  205SOL    HW2  615   1.053   1.781   1.639  0.7250 -2.6109  0.0453
  206SOL     OW  616   3.078   0.504   3.055 -0.1503  0.4082 -0.1737
  206SOL    HW1  617   3.054   0.406   3.078 -0.5731  0.1845  1.5627
  206SOL    HW2  618   2.994   0.557   3.061 -2.1456 -2.6600  1.8155
  207SOL     OW  619   1.959   2.723   2.174 -0.3288  0.7178  0.3266
  207SOL    HW1  620   1.912   2.804   2.145  0.8681 -3.6592 -1.3784
  207SOL    HW2  621   2.020   2.689   2.095  1.5332 -3.1686 -1.3571
  208SOL     OW  622   0.520   2.112   1.263  0.2305 -0.3159  0.4461
  208SOL    HW1  623   0.534   2.031   1.204 -1.7010  2.0307 -0.8639
  208SOL    HW2  624   0.422   2.134   1.255  0.9783 -0.3495  0.5342
  209SOL     OW  625   1.573   1.144   2.324  0.4492  0.3480  0.2610
  209SOL    HW1  626   1.494   1.100   2.374 -4.6462 -3.4294  0.1872
  209SOL    HW2  627   1.552   1.134   2.226 -0.8468  1.6907  1.2446
  210SOL     OW  628   2.056   1.028   1.212  0.2798 -0.2840 -0.2983
  210SOL    HW1  629   2.025   1.110   1.154  0.0024 -2.7378 -0.7932
  210SOL    HW2  630   1.976   0.965   1.241 -0.1387  0.0453 -2.0789
  211SOL     OW  631   0.439   0.120   0.737 -0.3150  0.4115 -0.4894
  211SOL    HW1  632   0.351   0.111   0.679 -0.8196 -0.3782 -3.0438
  211SOL    HW2  633   0.499   0.195   0.703 -0.5485  0.5544  1.1976
  212SOL     OW  634   1.802   1.646   0.108 -0.0729  0.0173 -1.0782
  212SOL    HW1  635   1.753   1.562   0.146 -1.2855 -0.7684  0.3456
  212SOL    HW2  636   1.741   1.724   0.114  1.1525 -1.2924 -1.1507
  213SOL     OW  637   1.686   0.451   2.480  0.0635 -0.4341 -0.5000
  213SOL    HW1  638   1.691   0.467   2.580  0.0071  3.1553  0.2472
  213SOL    HW2  639   1.718   0.534   2.430  0.9031  3.6058 -2.3157
  214SOL     OW  640   1.796   1.516   2.274  0.3498 -0.4141 -0.6812
  214SOL    HW1  641   1.832   1.560   2.359  1.2795  2.9892  0.5830
  214SOL    HW2  642   1.702   1.478   2.292 -2.8396 -1.3223  1.2638
  215SOL     OW  643   0.402   1.857   0.448 -0.0387  0.1194  0.2843
  215SOL    HW1  644   0.484   1.791   0.447 -0.3596 -0.0087  0.7565
  215SOL    HW2  645   0.422   1.945   0.400  1.7983  1.5879 -0.1474
  216SOL     OW  646   0.579   2.738   2.056  0.0480 -0.1730 -0.4150
  216SOL    HW1  647   0.654   2.768   2.117  1.9370  2.8343 -3.0452
  216SOL    HW2  648   0.517   2.671   2.104 -0.3166 -0.8914 -3.3430
  217SOL     OW  649   2.391   1.037   0.452 -0.2402 -0.4847 -0.0837
  217SOL    HW1  650   2.478   1.017   0.404 -3.1995  0.2044  1.5370
  217SOL    HW2  651   2.324   1.049   0.373 -0.6964  0.8671 -2.8046
  218SOL     OW  652   1.680   1.975   1.896 -0.2604 -0.2074  0.1558
  218SOL    HW1  653   1.773   2.025   1.906  1.5025  0.2521 -0.4204
  218SOL    HW2  654   1.682   1.903   1.964 -0.0151 -2.9298 -1.9926
  219SOL     OW  655   1.946   1.275   0.160 -0.2005  0.6913 -0.1287
  219SOL    HW1  656   2.033   1.323   0.179  0.8078 -2.3713  0.1023
  219SOL    HW2  657   1.871   1.331   0.200  1.9146  0.5816 -1.1967
  220SOL     OW  658   1.286   1.681   1.095 -0.4953 -0.6289 -0.1742
  220SOL    HW1  659   1.278   1.593   1.147 -0.0056 -2.5436  2.8305
  220SOL    HW2  660   1.349   1.664   1.017 -0.7239 -1.4115 -0.6517
  221SOL     OW  661   0.723   0.574   2.994 -0.1088 -0.0314 -0.3687
  221SOL    HW1  662   0.705   0.606   2.897 -1.9227 -1.0142  0.3423
  221SOL    HW2  663   0.670   0.492   3.016 -0.6432  0.6735 -1.2568
  222SOL     OW  664   0.960   1.639   1.358 -0.2931 -0.2191 -0.4652
  222SOL    HW1  665   1.046   1.580   1.373  1.7514 -0.8499 -0.0475
  222SOL    HW2  666   0.971   1.728   1.406 -0.6292  0.0661 -1.0471
  223SOL     OW  667   1.371   3.126   2.823  0.0772 -0.1669  0.1915
  223SOL    HW1  668   1.326   3.040   2.779 -3.5038 -2.5955 -0.4520
  223SOL    HW2  669   1.375   0.064   2.756 -1.5601  0.7774  1.1370
  224SOL     OW  670   2.648   0.673   1.092 -0.1692 -0.0808  0.4732
  224SOL    HW1  671   2.583   0.599   1.118 -3.0930 -0.2929 -0.5738
  224SOL    HW2  672   2.622   0.763   1.132  0.7876 -0.0905 -0.2073
  225SOL     OW  673   0.956   0.723   1.367 -0.1658 -0.2079 -0.0714
  225SOL    HW1  674   0.872   0.778   1.340 -2.3876  0.5526  2.0569
  225SOL    HW2  675   0.928   0.648   1.429  1.3396  1.1674 -2.7470
  226SOL     OW  676   1.611   1.867   3.010 -0.1004 -0.3787 -0.3635
  226SOL    HW1  677   1.519   1.830   3.032  0.3607  0.6679 -2.4913
  226SOL    HW2  678   1.631   1.956   3.052  2.1532 -0.1676  1.0456
  227SOL     OW  679   1.376   1.952   1.441  0.2467 -0.4345  0.2477
  227SOL    HW1  680   1.446   1.876   1.451  1.3960 -0.2630  1.2309
  227SOL    HW2  681   1.286   1.914   1.479  0.0814  2.4262 -0.9945
  228SOL     OW  682   0.538   1.494   0.907 -0.1817 -0.3330  0.1318
  228SOL    HW1  683   0.633   1.525   0.885 -0.0401 -1.5469 -1.7475
  228SOL    HW2  684   0.513   1.503   1.004 -0.7021  0.8534 -2.9665
  229SOL     OW  685   1.378   0.572   0.042  0.5706 -0.0950  0.4907
  229SOL    HW1  686   1.429   0.495   0.087  0.5123  2.7233 -1.2638
  229SOL    HW2  687   1.420   0.578   3.090  1.6971 -4.6175  3.1908
  230SOL     OW  688   1.179   0.468   2.224 -0.2596  0.2330  0.0952
  230SOL    HW1  689   1.241   0.397   2.185 -2.3183  1.9076 -0.6671
  230SOL    HW2  690   1.186   0.457   2.328 -2.2295 -1.3969  3.0188
  231SOL     OW  691   1.200   1.642   2.318  0.0131 -0.2677 -0.4429
  231SOL    HW1  692   1.238   1.610   2.407  1.6143 -0.6108 -0.7361
  231SOL    HW2  693   1.163   1.739   2.320  1.6014  2.3141  1.4150
  232SOL     OW  694   2.366   1.922   1.057 -0.0600  0.7519  0.3616
  232SOL    HW1  695   2.332   1.951   0.965 -2.0273  0.2881  2.1000
  232SOL    HW2  696   2.466   1.900   1.055 -2.9399 -0.6104  0.1032
  233SOL     OW  697   1.886   2.820   0.100  0.1207  0.0834 -0.2531
  233SOL    HW1  698   1.809   2.771   0.056  0.3004 -0.6275 -0.4660
  233SOL    HW2  699   1.918   2.892   0.035  0.9438 -1.2218  0.9880
  234SOL     OW  700   0.735   3.115   2.753  0.2189  0.0124 -0.1436
  234SOL    HW1  701   0.712   3.040   2.820 -0.9750  1.8377  0.1452
  234SOL    HW2  702   0.714   3.085   2.655  0.7680  1.8127 -0.2580
  235SOL     OW  703   2.351   3.107   2.705  0.1265 -0.4451 -0.2780
  235SOL    HW1  704   2.448   0.001   2.732  1.9136  1.6202  0.8554
  235SOL    HW2  705   2.346   3.082   2.608  1.6097 -3.4377  0.7606
  236SOL     OW  706   2.609   2.236   2.298  0.3382 -0.0434 -0.0121
  236SOL    HW1  707   2.669   2.282   2.364  0.4367  0.3112 -2.4551
  236SOL    HW2  708   2.664   2.157   2.258 -2.3710  0.0757  0.3815
  237SOL     OW  709   0.963   1.529   2.091  0.2922  0.2234 -0.2635
  237SOL    HW1  710   1.059   1.550   2.109  0.0684  0.4302  0.4044
  237SOL    HW2  711   0.904   1.554   2.175  0.3109 -0.3660  0.5016
  238SOL     OW  712   2.050   0.233   2.467  0.0847 -0.1627 -0.0463
  238SOL    HW1  713   2.032   0.141   2.506  1.1443  0.0849  0.7012
  238SOL    HW2  714   2.127   0.224   2.400 -3.0446  0.4029 -1.5706
  239SOL     OW  715   0.366   1.739   2.042 -0.0967  0.2076  0.4137
  239SOL    HW1  716   0.462   1.709   2.069 -0.7090 -0.3931 -0.9027
  239SOL    HW2  717   0.318   1.657   2.002  0.3448 -2.5369  2.5634
  240SOL     OW  718   2.747   2.926   0.701  0.2362 -1.0499 -0.4545
  240SOL    HW1  719   2.796   2.840   0.717  0.1736  2.3223 -0.2708
  240SOL    HW2  720   2.794   2.991   0.637 -2.0805 -2.1427  1.4282
  241SOL     OW  721   2.003   1.679   0.476 -0.8291  0.8373  0.8672
  241SOL    HW1  722   2.077   1.740   0.438  2.5957 -2.1213 -0.4055
  241SOL    HW2  723   1.911   1.717   0.464 -2.1699 -2.1119  1.6500
  242SOL     OW  724   1.425   1.788   2.794  0.5029  0.0461 -0.8843
  242SOL    HW1  725   1.502   1.756   2.736 -0.7523  2.5719  0.8510
  242SOL    HW2  726   1.336   1.762   2.751 -0.8989  1.6979 -0.7022
  243SOL     OW  727   0.694   2.559   2.373 -0.1607  0.7474  0.6778
  243SOL    HW1  728   0.724   2.636   2.314  0.2071 -1.2815  2.3456
  243SOL    HW2  729   0.778   2.505   2.396  0.9705  0.5700 -2.5712
  244SOL     OW  730   2.173   0.161   2.788  0.1711  0.7277  0.3078
  244SOL    HW1  731   2.224   0.245   2.754  1.7335  1.3078 -1.5842
  244SOL    HW2  732   2.239   0.079   2.771  1.2884 -0.6003 -1.0717
  245SOL     OW  733   1.254   2.970   0.565 -0.0022  0.1236 -0.2124
  245SOL    HW1  734   1.313   2.987   0.649 -0.3951 -3.1057  2.0113
  245SOL    HW2  735   1.278   3.028   0.486 -0.1727 -1.1422 -3.0210
  246SOL     OW  736   1.055   2.681   0.366 -0.4146  0.2732  0.3917
  246SOL    HW1  737   1.151   2.658   0.392  3.7276  2.1423  0.9242
  246SOL    HW2  738   1.030   2.772   0.413 -3.7863  3.0359 -0.0743
  247SOL     OW  739   0.872   0.645   2.270 -0.6959  0.6560 -0.3101
  247SOL    HW1  740   0.904   0.598   2.181  2.1446  0.6618 -1.3707
  247SOL    HW2  741   0.777   0.674   2.260  1.9841 -1.0400 -0.0451
  248SOL     OW  742   1.075   1.363   2.406  0.2257  0.1937  0.6062
  248SOL    HW1  743   0.988   1.325   2.437  2.8443  0.0156  0.0531
  248SOL    HW2  744   1.072   1.462   2.395  1.9483  0.0236 -2.0450
  249SOL     OW  745   2.293   0.333   0.317 -0.4152  0.0936  0.2678
  249SOL    HW1  746   2.385   0.304   0.353 -0.9776  0.5020 -0.0228
  249SOL    HW2  747   2.241   0.386   0.387  0.0356 -0.4165 -0.5271
  250SOL     OW  748   0.814   0.092   0.519  0.5093 -0.2513  0.1294
  250SOL    HW1  749   0.776   0.008   0.567  0.3819 -1.3212 -2.6260
  250SOL    HW2  750   0.740   0.158   0.501 -2.1424 -0.6153 -0.1945
  251SOL     OW  751   1.628   0.288   2.851  0.2947  0.1001  0.4706
  251SOL    HW1  752   1.679   0.372   2.822 -0.2973 -0.0833  1.1643
  251SOL    HW2  753   1.658   0.260   2.943 -0.3973 -0.0625 -2.7200
  252SOL     OW  754   1.744   1.364   1.804 -0.0409  0.0178 -0.2549
  252SOL    HW1  755   1.811   1.385   1.875 -0.0443 -0.7969 -0.3803
  252SOL    HW2  756   1.721   1.451   1.750 -1.0606 -1.2711 -1.8237
  253SOL     OW  757   2.762   2.350   1.781 -0.0519 -0.0424  0.0453
  253SOL    HW1  758   2.697   2.391   1.847 -2.4689  1.8775 -0.4299
  253SOL    HW2  759   2.840   2.409   1.753 -2.9587 -1.5802  0.3939
  254SOL     OW  760   0.274   1.300   1.287  0.0248 -0.3465  0.0055
  254SOL    HW1  761   0.329   1.215   1.320  0.0959 -2.7503 -0.8343
  254SOL    HW2  762   0.328   1.373   1.239 -0.3115  0.4685 -2.5465
  255SOL     OW  763   0.740   0.864   1.279  0.0900  0.0999  0.4915
  255SOL    HW1  764   0.653   0.850   1.222  1.5110 -0.3286 -1.3168
  255SOL    HW2  765   0.803   0.930   1.235  0.6478  0.4932 -3.6729
  256SOL     OW  766   1.883   2.762   1.694  0.1514  0.4244 -0.1593
  256SOL    HW1  767   1.830   2.726   1.775  0.8838  0.4309 -2.0706
  256SOL    HW2  768   1.966   2.701   1.681  1.1466  0.8653 -0.5931
  257SOL     OW  769   0.309   2.755   3.010 -0.5410  0.1371  0.0630
  257SOL    HW1  770   0.342   2.798   2.923  1.1376 -1.9750  0.2603
  257SOL    HW2  771   0.293   2.828   3.078 -0.8470 -1.3252 -3.4494
  258SOL     OW  772   0.822   2.779   2.189  0.1063 -0.3877  0.0254
  258SOL    HW1  773   0.868   2.865   2.221  3.1910 -1.0219  0.8840
  258SOL    HW2  774   0.897   2.710   2.172  1.5392  0.9391 -0.6067
  259SOL     OW  775   1.307   0.055   2.154  0.5491  0.0389 -0.5465
  259SOL    HW1  776   1.262   0.035   2.066  2.1107 -0.1307 -0.3169
  259SOL    HW2  777   1.409   0.034   2.155  0.0682  1.5116  2.2085
  260SOL     OW  778   1.873   0.581   1.009  0.0526  0.2174  0.4211
  260SOL    HW1  779   1.871   0.520   1.088  2.1854 -1.4230 -1.9539
  260SOL    HW2  780   1.961   0.571   0.956  1.7049  0.9509  1.1357
  261SOL     OW  781   0.476   0.320   2.635 -0.2290  0.1701  0.0786
  261SOL    HW1  782   0.456   0.422   2.651  0.3504  1.8568 -0.3896
  261SOL    HW2  783   0.507   0.273   2.718  2.1066 -1.8273 -0.9664
  262SOL     OW  784   2.905   2.363   2.130 -0.1424  0.5364  0.0069
  262SOL    HW1  785   2.926   2.410   2.220 -3.9523 -0.7279 -0.1888
  262SOL    HW2  786   2.982   2.345   2.069  3.1893 -0.4107 -4.4831
  263SOL     OW  787   2.943   1.635   2.338  0.0220  0.4312 -0.0008
  263SOL    HW1  788   3.019   1.692   2.297  2.5115 -1.0355 -0.6038
  263SOL    HW2  789   2.884   1.692   2.399 -1.3258  0.1539  1.8517
  264SOL     OW  790   0.554   0.815   0.854  0.1568  0.5816 -0.7114
  264SOL    HW1  791   0.488   0.873   0.796  0.2351  1.2317 -0.6626
  264SOL    HW2  792   0.520   0.717   0.853 -1.2697 -1.0346  2.7004
  265SOL     OW  793   0.933   2.139   0.545 -0.5788  0.3386  0.8618
  265SOL    HW1  794   0.907   2.044   0.575  2.0580 -2.3968 -0.7430
  265SOL    HW2  795   0.950   2.199   0.625  0.5613 -0.5824 -2.0702
  266SOL     OW  796   1.623   0.654   1.078 -0.7300  1.1637 -0.3613
  266SOL    HW1  797   1.700   0.642   1.018 -1.2957  0.8194  1.0404
  266SOL    HW2  798   1.532   0.625   1.044 -0.6676  0.9464  2.9637
  267SOL     OW  799   2.762   1.035   0.093 -0.0269 -0.1396  0.3072
  267SOL    HW1  800   2.856   1.072   0.101  1.5576 -1.4891  1.6515
  267SOL    HW2  801   2.742   0.994   3.137  0.4412 -1.2347 -3.2313
  268SOL     OW  802   1.925   0.297   0.180 -0.3388  0.6522 -0.2530
  268SOL    HW1  803   2.020   0.262   0.197 -2.8357  0.7709  2.2803
  268SOL    HW2  804   1.859   0.229   0.223 -3.2687 -0.4042  1.3914
  269SOL     OW  805   2.170   1.019   2.818 -0.2605 -0.1232 -0.8385
  269SOL    HW1  806   2.123   0.938   2.774  1.0318  2.1655  0.6984
  269SOL    HW2  807   2.108   1.053   2.892 -1.3128  0.6693 -0.8662
  270SOL     OW  808   0.117   0.891   2.963  0.0266  0.1117  0.0563
  270SOL    HW1  809   0.156   0.851   2.876 -1.7991  1.2569 -2.2821
  270SOL    HW2  810   0.094   0.818   3.028 -0.3274  0.7645 -1.8277
  271SOL     OW  811   2.877   0.803   0.352  0.1580  0.4708  0.2926
  271SOL    HW1  812   2.869   0.904   0.368 -1.1819  0.1190  0.9594
  271SOL    HW2  813   2.974   0.777   0.374  2.7324  0.3601 -0.2658
  272SOL     OW  814   0.075   2.085   2.890 -0.3090  0.7084 -0.0374
  272SOL    HW1  815   0.029   2.075   2.800  1.1932  0.0587 -0.2604
  272SOL    HW2  816   0.015   2.114   2.969  3.4213 -2.0664  2.0144
  273SOL     OW  817   2.534   0.005   0.387 -0.0461  0.7986  0.7686
  273SOL    HW1  818   2.490   0.032   0.300  0.5793  0.0571  1.9727
  273SOL    HW2  819   2.618   0.068   0.399 -0.4122  2.9226  0.0450
  274SOL     OW  820   0.488   2.115   0.773 -0.2050 -0.3030  0.1133
  274SOL    HW1  821   0.471   2.209   0.741  2.5462 -0.7785  2.5850
  274SOL    HW2  822   0.543   2.063   0.697  1.9963  0.5100 -0.8546
  275SOL     OW  823   2.721   1.693   0.490 -0.4905  0.3547  0.2352
  275SOL    HW1  824   2.723   1.718   0.587  0.2620  0.0225 -2.3518
  275SOL    HW2  825   2.809   1.659   0.452 -0.2367  1.8397  1.0043
  276SOL     OW  826   0.023   1.067   2.167  0.1074  0.6922 -0.3396
  276SOL    HW1  827   0.080   1.124   2.226 -1.1836 -3.9762  1.2816
  276SOL    HW2  828   3.063   1.066   2.192 -0.2739 -2.0619 -0.3229
  277SOL     OW  829   1.833   3.011   1.216  0.1813  0.0614  0.0803
  277SOL    HW1  830   1.831   2.935   1.150 -0.7081  1.0181  0.0896
  277SOL    HW2  831   1.820   3.100   1.168 -0.7737 -0.8670 -2.2949
  278SOL     OW  832   1.287   2.618   2.203 -0.2172 -0.2429  0.0647
  278SOL    HW1  833   1.259   2.523   2.168  0.4595 -0.4131 -0.5202
  278SOL    HW2  834   1.211   2.686   2.209 -2.6006 -0.0142  0.7900
  279SOL     OW  835   1.527   2.042   0.696  0.6562  0.3140  0.3656
  279SOL    HW1  836   1.616   2.053   0.642 -0.3716  0.3143  0.2583
  279SOL    HW2  837   1.464   1.970   0.661  2.0736  0.9064 -0.4938
  280SOL     OW  838   0.070   1.689   1.017  0.3306 -0.3386 -0.1948
  280SOL    HW1  839   0.076   1.765   0.947 -0.0926  1.6237  0.5077
  280SOL    HW2  840   3.112   1.660   1.033  0.0801  0.6234 -0.4432
  281SOL     OW  841   3.087   0.804   2.412  0.6384 -0.2955 -0.1365
  281SOL    HW1  842   3.002   0.813   2.358  0.8439 -0.1041  1.7115
  281SOL    HW2  843   3.082   0.717   2.467 -0.5561 -0.1891  0.7978
  282SOL     OW  844   0.892   1.198   0.682  0.1347 -0.9971 -0.4211
  282SOL    HW1  845   0.793   1.220   0.701  1.5547  0.5804  0.8621
  282SOL    HW2  846   0.925   1.219   0.586  2.4070 -2.5030  2.9166
  283SOL     OW  847   1.908   2.460   0.142  0.6095  0.4266 -0.5012
  283SOL    HW1  848   1.873   2.452   0.236  0.6513 -2.5708 -0.7571
  283SOL    HW2  849   2.011   2.458   0.136  0.5905 -0.2777 -0.3211
  284SOL     OW  850   0.927   0.459   0.201 -0.2086 -0.1375 -0.7406
  284SOL    HW1  851   0.851   0.514   0.172 -0.5018 -1.3167  0.6216
  284SOL    HW2  852   1.006   0.492   0.144  0.2132  2.5384 -0.8202
  285SOL     OW  853   2.320   1.242   2.783 -0.6326  0.1783 -0.3555
  285SOL    HW1  854   2.272   1.324   2.815 -0.9117 -0.4825 -0.8986
  285SOL    HW2  855   2.266   1.159   2.809 -0.2445  3.0692 -0.9263
  286SOL     OW  856   1.572   2.528   1.316 -0.3121  0.0805  0.4202
  286SOL    HW1  857   1.488   2.489   1.273 -0.9310 -1.1435 -1.0636
  286SOL    HW2  858   1.584   2.621   1.276  0.2422  1.4347  1.8296
  287SOL     OW  859   1.010   1.049   0.873  0.1267 -0.6387  0.2210
  287SOL    HW1  860   0.945   0.973   0.884 -1.6138  2.1856 -3.3207
  287SOL    HW2  861   0.978   1.126   0.807 -1.8157 -1.6692  1.7421
  288SOL     OW  862   1.211   2.465   0.089  0.4844  0.5967  0.3726
  288SOL    HW1  863   1.256   2.494   0.005 -2.1747 -2.7663  2.3260
  288SOL    HW2  864   1.208   2.548   0.143 -1.6873 -1.0979 -1.3314
  289SOL     OW  865   0.216   1.427   1.547 -0.0402 -0.3324  0.3094
  289SOL    HW1  866   0.234   1.527   1.523  0.2746 -0.1309  2.1190
  289SOL    HW2  867   0.226   1.384   1.458 -0.3584  1.6683 -0.8386
  290SOL     OW  868   1.697   2.429   0.938  0.5313 -0.0658 -0.5571
  290SOL    HW1  869   1.619   2.373   0.973  0.4280 -1.4056  0.5910
  290SOL    HW2  870   1.677   2.533   0.943 -0.8953  3.2432  1.2367
  291SOL     OW  871   1.956   2.971   3.025  0.6128  0.6055 -0.1394
  291SOL    HW1  872   1.986   3.069   3.033 -0.9614 -0.3502  1.2984
  291SOL    HW2  873   1.896   2.959   2.944 -1.4350 -0.4490  1.7663
  292SOL     OW  874   0.996   0.548   2.062 -0.0746  0.5291 -1.1893
  292SOL    HW1  875   1.032   0.596   1.978  0.1628  0.5803  2.7710
  292SOL    HW2  876   1.078   0.518   2.122 -0.3854  0.8957 -0.3578
  293SOL     OW  877   2.303   2.383   0.801  0.2498 -0.2420 -0.1192
  293SOL    HW1  878   2.222   2.323   0.821 -0.4318 -2.1048 -2.9674
  293SOL    HW2  879   2.365   2.372   0.882 -1.0312 -3.0598 -1.1662
  294SOL     OW  880   0.597   0.719   2.250  0.6082  0.2058 -0.0026
  294SOL    HW1  881   0.564   0.624   2.275  0.8127  1.4566 -0.5177
  294SOL    HW2  882   0.522   0.786   2.258 -1.2762 -0.1797  0.5200
  295SOL     OW  883   1.529   1.697   0.938 -0.5220 -0.0687  0.5137
  295SOL    HW1  884   1.582   1.648   1.015  0.4486  0.1150  2.0442
  295SOL    HW2  885   1.561   1.795   0.930  2.2181  2.7159 -1.4779
  296SOL     OW  886   2.642   1.905   0.308  0.5434  0.5147  0.0133
  296SOL    HW1  887   2.632   1.982   0.363  0.5816  1.1194 -3.6802
  296SOL    HW2  888   2.681   1.823   0.357  1.4145 -0.9387  1.4269
  297SOL     OW  889   2.149   0.027   0.482  0.6218  0.2782 -0.0913
  297SOL    HW1  890   2.222   0.047   0.546  0.1289 -0.5201 -2.8633
  297SOL    HW2  891   2.184   3.122   0.398 -1.5873 -0.2598 -3.2440
  298SOL     OW  892   1.025   2.692   2.681  0.0394  0.0904 -0.0016
  298SOL    HW1  893   1.053   2.602   2.645 -2.0291  1.3253 -1.9409
  298SOL    HW2  894   1.074   2.712   2.769 -0.7839  1.7635 -0.3118
  299SOL     OW  895   1.194   2.368   2.144 -1.0249  0.3511  0.4088
  299SOL    HW1  896   1.188   2.367   2.248  2.2522  0.9230  1.2167
  299SOL    HW2  897   1.266   2.301   2.124  1.1922  0.8353  0.1510
  300SOL     OW  898   2.589   0.077   2.789 -0.4392 -1.0146 -0.1963
  300SOL    HW1  899   2.625   0.094   2.885  3.1194  3.7255  1.9411
  300SOL    HW2  900   2.607   0.160   2.735  0.5243 -0.4374 -0.1445
  301SOL     OW  901   1.313   0.724   2.194 -0.3002 -0.2850 -0.4280
  301SOL    HW1  902   1.277   0.635   2.161 -0.6419 -1.8477  1.1820
  301SOL    HW2  903   1.386   0.757   2.133 -3.1545  1.0094  0.2665
  302SOL     OW  904   2.849   2.829   0.212 -0.3145 -0.2002 -0.8981
  302SOL    HW1  905   2.782   2.777   0.266 -0.0319 -0.7443 -3.3602
  302SOL    HW2  906   2.897   2.897   0.270  1.2221  1.7239  0.3012
  303SOL     OW  907   2.666   2.444   2.061  0.3926 -0.2004  0.3258
  303SOL    HW1  908   2.583   2.417   2.112  0.8221  1.3936  1.1183
  303SOL    HW2  909   2.754   2.426   2.115  0.4093  0.7726  1.3938
  304SOL     OW  910   2.890   0.600   1.931  0.0196 -0.7678 -0.2231
  304SOL    HW1  911   2.884   0.562   1.839  0.7628  0.2951  0.5574
  304SOL    HW2  912   2.890   0.705   1.924 -0.6076  3.0942  0.3433
  305SOL     OW  913   0.632   1.729   1.339 -0.1129  0.4401  0.0153
  305SOL    HW1  914   0.685   1.651   1.306 -2.2328 -0.1450  1.1397
  305SOL    HW2  915   0.585   1.704   1.425 -0.9760  0.0458 -0.5337
  306SOL     OW  916   0.130   1.115   1.885  0.0827  0.1886 -0.1903
  306SOL    HW1  917   0.201   1.187   1.891  1.9265  1.7432 -1.9018
  306SOL    HW2  918   0.102   1.084   1.979  0.5577  0.3120  3.0203
  307SOL     OW  919   1.194   0.431   1.724  0.2562 -0.1591 -0.1098
  307SOL    HW1  920   1.129   0.491   1.771 -0.8975 -0.6956  0.8772
  307SOL    HW2  921   1.178   0.423   1.628  0.6533  1.2356  2.2683
  308SOL     OW  922   2.908   1.007   1.282  0.2729 -0.2793  0.1867
  308SOL    HW1  923   2.971   1.023   1.360  1.3305 -0.1779  1.9998
  308SOL    HW2  924   2.846   0.935   1.306  1.6897 -1.1214  2.7501
  309SOL     OW  925   2.210   1.173   0.890 -0.4808 -0.2240  0.4935
  309SOL    HW1  926   2.121   1.149   0.939  2.8339 -1.6006 -0.0239
  309SOL    HW2  927   2.273   1.225   0.953  1.4479 -0.3568  0.0751
  310SOL     OW  928   3.071   2.076   2.632  0.4918 -0.1291 -0.0773
  310SOL    HW1  929   3.111   1.981   2.646  1.3223 -1.3689 -0.5850
  310SOL    HW2  930   2.970   2.074   2.639 -3.8834 -0.1694 -0.8102
  311SOL     OW  931   2.933   2.857   2.720 -0.2063  0.0763 -0.3076
  311SOL    HW1  932   2.842   2.899   2.735  1.2673  1.0031 -0.4703
  311SOL    HW2  933   2.936   2.764   2.764 -0.0811 -1.3307 -0.4054
  312SOL     OW  934   2.297   2.143   0.148 -0.2626  0.1187 -0.2523
  312SOL    HW1  935   2.385   2.088   0.131  0.5735 -1.6222 -0.9774
  312SOL    HW2  936   2.214   2.084   0.137 -4.1384 -0.7297  3.5756
  313SOL     OW  937   2.544   2.867   0.500 -0.2987  0.0951  0.2323
  313SOL    HW1  938   2.603   2.893   0.582  2.7015 -0.6111 -1.0194
  313SOL    HW2  939   2.520   2.951   0.446 -0.2176 -0.0314  0.8517
  314SOL     OW  940   1.582   1.144   0.341 -0.4846  0.8239 -0.3484
  314SOL    HW1  941   1.582   1.073   0.409  1.1105  3.2671 -3.5603
  314SOL    HW2  942   1.484   1.150   0.306 -2.1172  2.5866 -3.2004
  315SOL     OW  943   1.481   2.725   2.014  0.8257 -0.2144  0.1947
  315SOL    HW1  944   1.424   2.704   2.096 -0.2197  0.3911 -1.5870
  315SOL    HW2  945   1.576   2.750   2.045  2.8818  0.7470  0.0834
  316SOL     OW  946   0.047   0.912   0.198 -0.5168  0.6692  0.2059
  316SOL    HW1  947   0.061   0.835   0.131 -0.0544  0.7070 -0.3466
  316SOL    HW2  948   0.004   0.876   0.288 -0.7537 -0.3245  3.8908
  317SOL     OW  949   0.450   2.996   0.382  0.0237  0.0011  0.2928
  317SOL    HW1  950   0.400   2.962   0.465 -0.1645  0.0957  2.5708
  317SOL    HW2  951   0.473   2.923   0.312  0.5551  4.7643 -0.3891
  318SOL     OW  952   2.165   2.612   0.803  0.1918  0.5352  0.2840
  318SOL    HW1  953   2.214   2.521   0.806  1.3331 -1.8628  0.9139
  318SOL    HW2  954   2.208   2.671   0.735 -0.9259 -1.2851  1.0840
  319SOL     OW  955   1.094   1.699   3.058  0.2772 -0.3036 -0.0434
  319SOL    HW1  956   1.021   1.769   3.091  0.9233 -0.7308 -1.1934
  319SOL    HW2  957   1.073   1.671   2.961  3.8802  1.2252 -1.6284
  320SOL     OW  958   0.364   2.320   2.078 -0.3901  0.1915 -0.0135
  320SOL    HW1  959   0.314   2.229   2.095 -2.5733 -0.9702 -0.1603
  320SOL    HW2  960   0.348   2.347   1.980  0.0199  2.1921 -1.4396
  321SOL     OW  961   1.790   2.976   2.776 -0.2215 -0.2457  0.0649
  321SOL    HW1  962   1.703   3.006   2.823 -0.3618 -2.5376 -0.1889
  321SOL    HW2  963   1.815   3.042   2.707 -0.3122 -1.8309  2.3945
  322SOL     OW  964   3.016   1.375   2.335 -0.1323 -0.4714 -0.4255
  322SOL    HW1  965   3.113   1.375   2.368  0.6873 -2.2464  2.0147
  322SOL    HW2  966   2.970   1.464   2.351  2.8776  1.0673  2.2052
  323SOL     OW  967   2.052   1.351   0.747 -0.1649  0.4490 -0.0721
  323SOL    HW1  968   1.983   1.276   0.728  0.7623  1.1627 -1.5609
  323SOL    HW2  969   2.135   1.314   0.795 -2.9450 -2.2923  0.8953
  324SOL     OW  970   3.019   0.092   2.522  0.4399 -0.6601 -0.0517
  324SOL    HW1  971   2.979   0.148   2.601 -1.1562 -0.8232  2.4794
  324SOL    HW2  972   3.073   0.012   2.559  0.1373  1.2138 -0.2298
  325SOL     OW  973   1.374   0.749   2.715 -0.0117  0.1851  0.1305
  325SOL    HW1  974   1.379   0.753   2.611 -0.5941  0.0141 -1.8967
  325SOL    HW2  975   1.281   0.738   2.756 -1.3109  0.1231 -0.8971
  326SOL     OW  976   2.172   2.605   2.006 -0.0338  0.1690  0.0721
  326SOL    HW1  977   2.155   2.634   1.908 -1.7492  2.6105 -3.1211
  326SOL    HW2  978   2.192   2.507   2.000 -0.2165 -0.7679  1.5973
  327SOL     OW  979   2.199   0.163   0.104 -0.0487 -0.9673  0.7114
  327SOL    HW1  980   2.223   0.075   0.149 -2.7982  0.1342 -0.8709
  327SOL    HW2  981   2.235   0.241   0.162  0.5688  0.5080  1.5700
  328SOL     OW  982   0.115   1.290   2.440  0.5127 -0.2931  0.4914
  328SOL    HW1  983   0.177   1.262   2.362  3.1072 -0.3573 -2.2787
  328SOL    HW2  984   0.063   1.209   2.472  1.9259 -1.9049 -0.2560
  329SOL     OW  985   2.236   3.032   1.742  0.1405  0.4962  0.3412
  329SOL    HW1  986   2.132   3.029   1.753 -0.3433  0.4157 -0.3952
  329SOL    HW2  987   2.277   3.044   1.836  0.1033 -1.6992  2.6302
  330SOL     OW  988   2.991   1.382   1.181 -0.0256  0.4413  0.1384
  330SOL    HW1  989   2.911   1.339   1.133  1.3954 -0.5132 -0.9593
  330SOL    HW2  990   3.059   1.309   1.200 -0.9421 -0.2345 -1.3985
  331SOL     OW  991   0.702   1.750   2.550 -0.4393 -0.2201 -0.6137
  331SOL    HW1  992   0.693   1.827   2.487 -0.0610  1.4812 -0.6271
  331SOL    HW2  993   0.743   1.670   2.499  1.3521  1.3053  1.2446
  332SOL     OW  994   0.133   2.933   1.700 -0.0811 -1.0641 -0.5172
  332SOL    HW1  995   0.210   2.889   1.660 -2.8470 -0.7188 -1.5660
  332SOL    HW2  996   0.054   2.918   1.641  0.1371  0.6699  0.8095
  333SOL     OW  997   2.104   2.972   1.028 -0.2960  0.5430 -0.6492
  333SOL    HW1  998   2.027   2.904   1.025 -0.7128 -1.3128 -0.0243
  333SOL    HW2  999   2.076   3.070   1.006 -0.3088 -1.3324  1.1292
  334SOL     OW 1000   0.802   1.553   0.833  0.6317 -0.0756 -0.6652
  334SOL    HW1 1001   0.869   1.536   0.758  1.5379 -0.1225  1.0421
  334SOL    HW2 1002   0.810   1.648   0.868 -0.5643 -3.5786 -0.6131
  335SOL     OW 1003   0.272   2.474   3.004 -0.2125  0.2737  0.5590
  335SOL    HW1 1004   0.293   2.445   2.912 -1.4259  0.2976 -0.5680
  335SOL    HW2 1005   0.304   2.567   3.032  0.7182 -1.6817  1.7647
  336SOL     OW 1006   0.470   3.043   2.414  0.5284 -0.0819  0.0150
  336SOL    HW1 1007   0.427   3.125   2.450  1.3124 -2.8509 -0.7411
  336SOL    HW2 1008   0.447   3.029   2.315  2.6086  0.1769  0.0119
  337SOL     OW 1009   2.361   2.288   2.687 -1.0003 -0.7031 -0.7864
  337SOL    HW1 1010   2.383   2.308   2.792  1.0563  1.4616  3.3922
  337SOL    HW2 1011   2.348   2.376   2.629 -3.5132  3.8405 -1.8459
  338SOL     OW 1012   1.088   1.276   1.188 -0.6418 -0.7586 -0.2477
  338SOL    HW1 1013   1.035   1.311   1.110  0.3926  1.8664  1.3869
  338SOL    HW2 1014   1.104   1.348   1.260 -0.9184 -0.5392  1.8029
  339SOL     OW 1015   0.060   0.681   1.888  1.2369 -0.0817  0.1637
  339SOL    HW1 1016   0.047   0.681   1.990  0.1343 -0.2540  1.0596
  339SOL    HW2 1017   3.134   0.742   1.841  0.2428 -1.0571  0.4938
  340SOL     OW 1018   1.267   2.722   0.197 -0.3976 -0.1410 -0.2806
  340SOL    HW1 1019   1.268   2.717   0.302  0.1067  0.6735  4.0204
  340SOL    HW2 1020   1.351   2.764   0.157  0.3881  0.6017  1.5833
  341SOL     OW 1021   1.970   1.207   1.042 -0.3123 -0.3593  0.3667
  341SOL    HW1 1022   1.877   1.204   0.993 -1.6883 -1.5253  1.6038
  341SOL    HW2 1023   2.011   1.299   1.025 -0.6490  0.2697 -0.3849
  342SOL     OW 1024   2.460   3.031   3.133  0.2205  0.3632 -0.1518
  342SOL    HW1 1025   2.397   3.000   3.064 -0.1011  1.4946  1.0372
  342SOL    HW2 1026   2.545   2.974   3.129  0.8012  0.2990  0.1954
  343SOL     OW 1027   1.279   2.225   1.439  0.2971  0.2357  0.0071
  343SOL    HW1 1028   1.219   2.255   1.519 -0.1235  0.1154  0.5646
  343SOL    HW2 1029   1.299   2.125   1.441 -1.7619 -0.1698  0.0036
  344SOL     OW 1030   2.062   2.605   1.050  0.0265 -0.0724  0.3723
  344SOL    HW1 1031   2.092   2.616   0.954 -0.6588 -0.0401 -0.4447
  344SOL    HW2 1032   2.144   2.581   1.103 -1.5572  1.0738 -0.0151
  345SOL     OW 1033   2.691   2.470   0.134 -0.2456  0.7006  0.0568
  345SOL    HW1 1034   2.701   2.378   0.181 -2.0263 -1.5753  1.0404
  345SOL    HW2 1035   2.679   2.536   0.209  2.1466 -1.6022 -2.7395
  346SOL     OW 1036   2.868   1.311   0.490  0.1432 -0.3382 -0.8482
  346SOL    HW1 1037   2.929   1.374   0.435 -3.2930  0.6457 -1.6066
  346SOL    HW2 1038   2.874   1.324   0.590 -1.5108  2.3834 -0.8784
  347SOL     OW 1039   2.005   2.381   1.587  0.0354  0.4303  0.1151
  347SOL    HW1 1040   1.973   2.431   1.506  0.5030 -1.0216  1.6683
  347SOL    HW2 1041   2.044   2.287   1.562  0.7733 -1.1363 -3.6386
  348SOL     OW 1042   0.907   1.867   3.135  0.3527 -0.1255 -0.4251
  348SOL    HW1 1043   0.900   1.961   3.100 -0.8686  0.1722 -0.3156
  348SOL    HW2 1044   0.825   1.844   0.054 -1.3302  0.9440  1.4426
  349SOL     OW 1045   2.571   1.496   1.667  0.0175  0.3384  0.3133
  349SOL    HW1 1046   2.571   1.549   1.758 -1.8382 -1.0465 -0.0193
  349SOL    HW2 1047   2.500   1.540   1.600  1.3448  0.7035 -2.4336
  350SOL     OW 1048   2.946   2.545   0.974  0.2606 -0.4121  0.1180
  350SOL    HW1 1049   2.851   2.542   1.003  1.6972 -2.3480 -0.6345
  350SOL    HW2 1050   3.004   2.607   1.034  1.1295 -0.2821 -0.4625
  351SOL     OW 1051   0.545   0.442   2.256 -0.1737 -0.0807  0.0717
  351SOL    HW1 1052   0.576   0.412   2.167 -0.0081  0.0228  1.9402
  351SOL    HW2 1053   0.595   0.385   2.323 -1.7739  0.4698 -0.6751
  352SOL     OW 1054   0.512   1.851   1.143  0.0759 -0.1363 -0.1759
  352SOL    HW1 1055   0.578   1.796   1.204  0.3781 -1.1670 -0.0014
  352SOL    HW2 1056   0.415   1.826   1.159 -0.8081  2.7304 -1.3292
  353SOL     OW 1057   1.626   1.700   2.622 -0.0444 -0.0236  0.4833
  353SOL    HW1 1058   1.698   1.764   2.587  0.8124 -2.3342  3.1417
  353SOL    HW2 1059   1.673   1.617   2.658 -1.3794  2.5174  2.3327
  354SOL     OW 1060   1.059   0.704   1.106 -0.3358  0.5195  0.2594
  354SOL    HW1 1061   1.122   0.624   1.094 -0.1639  2.7883 -1.3105
  354SOL    HW2 1062   1.025   0.708   1.201 -1.0939 -0.5976 -1.1144
  355SOL     OW 1063   2.594   0.946   0.813 -0.0497  0.1459  0.5180
  355SOL    HW1 1064   2.652   0.868   0.787 -1.9944 -1.0112  1.4046
  355SOL    HW2 1065   2.578   1.009   0.734  0.1549 -0.0513 -0.0465
  356SOL     OW 1066   2.603   1.826   2.372 -0.1562  0.3671  0.7425
  356SOL    HW1 1067   2.549   1.835   2.460  1.4785 -1.9216  3.1079
  356SOL    HW2 1068   2.593   1.730   2.336  0.3456 -0.4339 -0.3155
  357SOL     OW 1069   0.557   2.569   1.263 -0.2937 -0.4086  0.1338
  357SOL    HW1 1070   0.622   2.519   1.328 -0.2195 -1.6944  1.0598
  357SOL    HW2 1071   0.556   2.512   1.180  3.1374 -0.5510 -0.8665
  358SOL     OW 1072   2.566   0.917   1.787  0.3191 -0.6257  0.0868
  358SOL    HW1 1073   2.556   0.897   1.687 -2.0289  0.0357 -1.1051
  358SOL    HW2 1074   2.550   1.015   1.813  1.1881  2.9524  1.0181
  359SOL     OW 1075   2.684   2.466   2.847  0.0161 -0.2312 -0.3767
  359SOL    HW1 1076   2.628   2.489   2.767  0.5827  0.1349  1.0879
  359SOL    HW2 1077   2.702   2.367   2.856 -0.3147 -1.8927 -0.1907
  360SOL     OW 1078   1.901   0.543   0.664  0.9039 -0.1250 -0.5841
  360SOL    HW1 1079   1.910   0.630   0.611 -0.5527  0.8750  1.6309
  360SOL    HW2 1080   1.807   0.553   0.707 -0.3953  0.7586 -1.2511
  361SOL     OW 1081   2.412   0.233   1.206  0.4345  0.0317 -0.3484
  361SOL    HW1 1082   2.399   0.292   1.291  2.9798  0.2921 -1.2600
  361SOL    HW2 1083   2.339   0.157   1.199 -1.6384  0.2917 -0.2986
  362SOL     OW 1084   1.171   1.378   0.348  0.6416 -0.3981  0.5952
  362SOL    HW1 1085   1.207   1.421   0.434  1.7734 -2.5178  1.0992
  362SOL    HW2 1086   1.175   1.442   0.269  1.5747  0.1073 -0.0342
  363SOL     OW 1087   2.502   1.592   2.939  0.5813  0.1104  0.1950
  363SOL    HW1 1088   2.578   1.612   3.000 -1.9060 -0.4345  2.3808
  363SOL    HW2 1089   2.529   1.605   2.845  0.2264 -2.6230  2.4145
  364SOL     OW 1090   0.866   0.337   1.353  0.5942 -0.1465  0.0593
  364SOL    HW1 1091   0.892   0.412   1.414  1.3581 -2.4392  0.0339
  364SOL    HW2 1092   0.771   0.304   1.372  1.8139  1.2450  0.5415
  365SOL     OW 1093   0.136   2.930   0.610 -0.1558 -0.0543  0.0133
  365SOL    HW1 1094   0.127   2.882   0.522 -0.3183  2.2374 -0.2814
  365SOL    HW2 1095   0.059   2.912   0.677 -3.8866 -0.9553  0.0604
  366SOL     OW 1096   2.993   1.349   0.072 -0.4250  0.1881  0.5949
  366SOL    HW1 1097   3.075   1.406   0.079  1.4055 -1.6652 -0.0371
  366SOL    HW2 1098   3.012   1.249   0.061 -0.5481  1.7636 -0.1282
  367SOL     OW 1099   2.918   2.612   2.841  0.1738  0.1798  0.1681
  367SOL    HW1 1100   2.829   2.568   2.834  3.0861  3.5670 -2.8291
  367SOL    HW2 1101   2.954   2.591   2.933 -0.0404 -0.8807 -1.1087
  368SOL     OW 1102   0.104   1.936   0.856 -0.3579  0.6944  0.4345
  368SOL    HW1 1103   0.055   1.986   0.786  1.9710 -3.3677 -0.5407
  368SOL    HW2 1104   0.191   1.903   0.814  1.2930 -0.6081 -0.9142
  369SOL     OW 1105   0.731   2.942   0.271  0.5493  0.8266  0.9113
  369SOL    HW1 1106   0.672   2.902   0.193 -0.6968 -1.2436 -4.0402
  369SOL    HW2 1107   0.679   2.948   0.360  1.2943 -0.0020  1.0380
  370SOL     OW 1108   0.295   0.962   0.778  0.7573 -0.3689  0.0471
  370SOL    HW1 1109   0.264   0.907   0.856 -2.1559 -1.1762 -3.0511
  370SOL    HW2 1110   0.255   1.057   0.786 -0.6505  4.2882  1.8602
  371SOL     OW 1111   1.803   2.960   0.689 -0.8287  0.1290  0.5297
  371SOL    HW1 1112   1.836   2.863   0.694  1.6414 -1.3280  0.6433
  371SOL    HW2 1113   1.844   3.007   0.601  1.2018 -0.1500 -2.8253
  372SOL     OW 1114   0.275   0.950   2.538 -0.1675  0.6429  0.4625
  372SOL    HW1 1115   0.192   0.978   2.486 -2.0326 -0.1012  0.0659
  372SOL    HW2 1116   0.287   1.008   2.623  1.5718  2.3770  1.4284
  373SOL     OW 1117   2.912   1.590   0.822 -0.0083  0.3370  0.1177
  373SOL    HW1 1118   2.948   1.614   0.914 -0.4347 -0.1264  0.5338
  373SOL    HW2 1119   2.814   1.618   0.803 -2.3682 -1.3421 -3.6594
  374SOL     OW 1120   0.389   2.516   0.227 -0.0249 -0.0144 -0.4225
  374SOL    HW1 1121   0.380   2.452   0.155 -3.3401  0.1992  4.4148
  374SOL    HW2 1122   0.483   2.524   0.258  1.8780  0.0548  2.4651
  375SOL     OW 1123   0.291   0.556   0.159 -0.3146 -0.0624 -0.0273
  375SOL    HW1 1124   0.375   0.617   0.177  1.2464  0.2482 -0.4832
  375SOL    HW2 1125   0.308   0.479   0.095 -0.1236  0.0782 -0.0815
  376SOL     OW 1126   0.389   2.782   1.876  0.0417  0.1750  0.2517
  376SOL    HW1 1127   0.446   2.787   1.959 -0.4157  0.0259  0.2969
  376SOL    HW2 1128   0.394   2.868   1.830 -0.0169 -1.1969  3.9487
  377SOL     OW 1129   1.172   2.320   2.422  0.3327  0.0886 -0.0689
  377SOL    HW1 1130   1.197   2.356   2.513  1.9334 -0.5417 -2.0314
  377SOL    HW2 1131   1.202   2.222   2.420  0.6529  2.1279 -2.6273
  378SOL     OW 1132   1.139   0.886   0.686  0.4109  0.4210  0.3041
  378SOL    HW1 1133   1.092   0.946   0.748  0.2971 -3.1369 -3.1768
  378SOL    HW2 1134   1.198   0.943   0.620  1.1452  0.5554 -1.9173
  379SOL     OW 1135   0.805   1.583   0.297 -0.1561  0.1053 -0.1110
  379SOL    HW1 1136   0.890   1.570   0.243 -0.5268  1.6917 -2.4988
  379SOL    HW2 1137   0.797   1.500   0.355 -1.7847 -0.9138  3.8269
  380SOL     OW 1138   0.037   1.853   1.694  0.1160  0.5101  0.4121
  380SOL    HW1 1139   3.127   1.790   1.631  0.3172 -1.1389  1.6794
  380SOL    HW2 1140   0.053   1.945   1.645 -0.4876  0.7807 -2.6552
  381SOL     OW 1141   0.127   0.951   1.685  0.0679 -0.1673 -0.0791
  381SOL    HW1 1142   0.100   1.013   1.762 -0.7843  2.6465 -1.4342
  381SOL    HW2 1143   0.176   0.873   1.727  0.2216  1.3646  0.6847
  382SOL     OW 1144   2.604   2.045   0.746 -0.3240  0.1181 -0.0294
  382SOL    HW1 1145   2.511   2.089   0.723 -1.2659  0.0485 -1.8076
  382SOL    HW2 1146   2.602   1.967   0.815  0.5323 -0.5404 -0.8948
  383SOL     OW 1147   2.065   1.885   2.601  0.1479 -0.0887 -0.2089
  383SOL    HW1 1148   2.088   1.900   2.705 -1.3173 -0.9251  1.2594
  383SOL    HW2 1149   2.124   1.947   2.546 -1.6978  3.0134  0.6438
  384SOL     OW 1150   0.681   1.944   2.359  0.6841 -0.0050  0.5379
  384SOL    HW1 1151   0.669   2.041   2.346 -0.1077 -1.7596  0.2701
  384SOL    HW2 1152   0.750   1.904   2.295  0.8493  1.4310 -2.3561
  385SOL     OW 1153   2.996   2.271   0.969  0.1721 -0.0746  0.0655
  385SOL    HW1 1154   3.000   2.373   0.961 -0.3480  0.6597 -0.0625
  385SOL    HW2 1155   3.072   2.230   1.022 -0.1997  2.5648 -0.3823
  386SOL     OW 1156   1.626   0.682   0.448 -0.0125  0.2098 -0.2545
  386SOL    HW1 1157   1.528   0.675   0.426 -0.3797 -1.3749  0.3629
  386SOL    HW2 1158   1.674   0.608   0.393 -0.2127 -0.5443 -1.2381
  387SOL     OW 1159   0.324   0.746   1.763 -0.4507  0.4270  0.3170
  387SOL    HW1 1160   0.252   0.727   1.827 -0.0082 -1.4041 -1.5221
  387SOL    HW2 1161   0.387   0.826   1.786 -0.0819 -1.7452 -0.4882
  388SOL     OW 1162   2.408   0.843   2.307  0.2988 -0.6091 -0.2510
  388SOL    HW1 1163   2.391   0.911   2.234  0.9105 -0.9876 -1.9311
  388SOL    HW2 1164   2.347   0.867   2.389 -0.4252  2.2369 -0.9999
  389SOL     OW 1165   1.529   1.101   2.042 -0.4668 -0.1620  0.3827
  389SOL    HW1 1166   1.592   1.124   1.965  2.0169 -1.1118 -0.1691
  389SOL    HW2 1167   1.437   1.110   2.001  0.3359  3.2361 -1.8976
  390SOL     OW 1168   1.832   2.693   0.347 -0.2982 -0.1671  0.0020
  390SOL    HW1 1169   1.793   2.601   0.339  2.7426 -1.1343  1.0803
  390SOL    HW2 1170   1.862   2.730   0.257 -0.0353  0.2758 -3.1155
  391SOL     OW 1171   1.916   2.389   1.112 -0.1974 -0.2028 -0.2791
  391SOL    HW1 1172   1.957   2.481   1.088 -0.4632 -2.1532  1.5104
  391SOL    HW2 1173   1.825   2.373   1.063  0.2798 -1.5829  0.1167
  392SOL     OW 1174   3.016   2.440   1.442  0.6960 -0.2509  0.3881
  392SOL    HW1 1175   2.963   2.520   1.407 -2.1848 -1.5539  2.9831
  392SOL    HW2 1176   2.966   2.355   1.409  0.4754  2.2866 -1.9213
  393SOL     OW 1177   2.076   2.009   0.112  0.3746 -0.1418 -0.3435
  393SOL    HW1 1178   2.077   1.917   0.153  1.2267 -2.4703  2.4366
  393SOL    HW2 1179   2.037   2.006   0.017 -1.2467  0.2862 -0.6290
  394SOL     OW 1180   0.184   3.101   3.083  0.0932  0.4978 -0.1408
  394SOL    HW1 1181   0.103   3.066   3.031  0.9337 -1.0634 -0.1102
  394SOL    HW2 1182   0.257   3.129   3.024 -3.6085 -0.8169 -0.4656
  395SOL     OW 1183   1.472   1.203   1.273  0.3419  0.3676  0.1905
  395SOL    HW1 1184   1.560   1.252   1.264 -1.8538 -2.7514 -1.2029
  395SOL    HW2 1185   1.481   1.106   1.292  0.2536  1.6029 -0.2739
  396SOL     OW 1186   1.640   0.885   3.101  0.7747 -0.0184  0.1926
  396SOL    HW1 1187   1.657   0.956   0.027 -1.4086 -1.0265 -1.0232
  396SOL    HW2 1188   1.580   0.814   3.138  2.8124 -0.2137 -0.6817
  397SOL     OW 1189   0.166   0.737   2.726  0.2682  0.0724 -0.3462
  397SOL    HW1 1190   0.072   0.702   2.698 -1.8620  1.6159 -0.7635
  397SOL    HW2 1191   0.205   0.798   2.651  0.6795  0.4228  0.0932
  398SOL     OW 1192   1.000   0.215   3.001  0.1044 -0.1877 -0.3760
  398SOL    HW1 1193   0.924   0.256   3.052 -0.3497 -0.9087 -1.3834
  398SOL    HW2 1194   1.084   0.255   3.043  0.1922 -0.7419 -0.6960
  399SOL     OW 1195   2.508   2.862   1.859 -0.0510 -0.5941  0.5711
  399SOL    HW1 1196   2.575   2.920   1.811 -0.0968 -3.3583 -0.6760
  399SOL    HW2 1197   2.544   2.767   1.870 -0.7166 -0.1390 -1.1915
  400SOL     OW 1198   0.170   1.699   2.517 -0.3758  0.2727  0.4423
  400SOL    HW1 1199   0.269   1.668   2.528  0.5771 -2.8592 -1.3156
  400SOL    HW2 1200   0.146   1.727   2.422 -0.0528 -0.6592 -0.0317
  401SOL     OW 1201   0.573   0.181   2.880  0.1003  0.1283  0.3699
  401SOL    HW1 1202   0.604   0.248   2.955  1.0669 -2.8678  1.0939
  401SOL    HW2 1203   0.649   0.122   2.846 -1.4184  1.1025 -0.6646
  402SOL     OW 1204   0.314   2.136   1.731  0.3451  0.2118 -0.2611
  402SOL    HW1 1205   0.372   2.125   1.647 -1.0231 -2.0619 -0.9132
  402SOL    HW2 1206   0.295   2.238   1.747 -0.4719  3.0577 -1.1308
  403SOL     OW 1207   0.628   1.129   1.546  0.0609 -0.5229  0.3025
  403SOL    HW1 1208   0.648   1.028   1.551  0.4045 -0.6469 -2.2760
  403SOL    HW2 1209   0.639   1.181   1.632 -1.6336 -0.3098  1.0321
  404SOL     OW 1210   2.973   2.504   1.708 -0.3400 -0.1122  0.5915
  404SOL    HW1 1211   2.966   2.606   1.711 -1.6501 -0.1335  0.7820
  404SOL    HW2 1212   2.999   2.473   1.614 -0.6787  0.9039 -0.7290
  405SOL     OW 1213   3.025   0.201   1.760  0.1482  0.5722  0.4156
  405SOL    HW1 1214   3.085   0.123   1.791  2.3869  2.9042 -0.8977
  405SOL    HW2 1215   3.055   0.282   1.811  1.0345 -2.1760  1.3990
  406SOL     OW 1216   1.567   2.548   2.823  0.2804  0.0136 -0.1954
  406SOL    HW1 1217   1.610   2.463   2.852 -1.9019  1.9698 -1.0602
  406SOL    HW2 1218   1.640   2.607   2.785  0.1771 -1.6719  0.8483
  407SOL     OW 1219   1.790   1.565   1.428  0.3181  0.6395  0.2206
  407SOL    HW1 1220   1.764   1.484   1.367  0.4510 -1.7745 -1.0014
  407SOL    HW2 1221   1.734   1.560   1.517 -2.2457  0.6924 -0.5459
  408SOL     OW 1222   0.809   0.170   2.240 -0.1073 -0.1118 -0.0384
  408SOL    HW1 1223   0.759   0.189   2.327  1.9464  2.2958  1.1600
  408SOL    HW2 1224   0.913   0.179   2.255  2.5179  1.8197  2.1366
  409SOL     OW 1225   2.833   2.584   0.510  0.1033  0.3961 -0.4029
  409SOL    HW1 1226   2.854   2.486   0.531 -1.2482  1.0290 -1.0903
  409SOL    HW2 1227   2.911   2.626   0.453 -0.9085  2.3248 -1.7730
  410SOL     OW 1228   2.449   1.814   0.527  0.1911 -0.5120 -0.9539
  410SOL    HW1 1229   2.444   1.717   0.563  1.9230 -1.0432 -0.9895
  410SOL    HW2 1230   2.542   1.842   0.504 -1.0853  0.3955  0.3116
  411SOL     OW 1231   3.083   0.643   1.010 -0.6139  0.2553 -0.4283
  411SOL    HW1 1232   3.111   0.542   0.995  0.1091  2.2624  3.3838
  411SOL    HW2 1233   0.023   0.700   1.002 -2.9024 -3.3648  1.2209
  412SOL     OW 1234   1.633   0.622   0.711  0.1774  0.2798  0.5891
  412SOL    HW1 1235   1.571   0.680   0.768  0.7424 -1.7699  2.2731
  412SOL    HW2 1236   1.615   0.650   0.615 -0.9413  1.4153  0.4841
  413SOL     OW 1237   0.812   0.329   1.041 -0.0141  0.3170  0.0459
  413SOL    HW1 1238   0.743   0.260   1.010 -1.2632 -1.2711 -1.3372
  413SOL    HW2 1239   0.836   0.309   1.139  0.8127  2.2112  0.0894
  414SOL     OW 1240   0.506   1.773   0.094 -0.5502  1.1077  0.1320
  414SOL    HW1 1241   0.482   1.755   3.135  2.8820 -1.8313 -0.9150
  414SOL    HW2 1242   0.457   1.703   0.150 -0.1325 -2.1517  2.1542
  415SOL     OW 1243   0.394   2.310   0.035 -0.0754  0.5347 -0.3331
  415SOL    HW1 1244   0.366   2.214   0.041  1.6763  0.5586 -0.7235
  415SOL    HW2 1245   0.339   2.361   3.104 -1.6914 -0.5565 -2.5285
  416SOL     OW 1246   1.650   0.939   0.544  0.3481 -0.2030 -0.0840
  416SOL    HW1 1247   1.645   0.852   0.500 -0.1319 -0.1654  1.2010
  416SOL    HW2 1248   1.728   0.942   0.606 -1.2241 -1.4515  1.6163
  417SOL     OW 1249   0.344   0.829   0.549 -0.2401  0.2990 -0.5212
  417SOL    HW1 1250   0.300   0.866   0.467  2.0017 -0.8489  2.1135
  417SOL    HW2 1251   0.315   0.874   0.630  1.8004 -1.5972 -1.2554
  418SOL     OW 1252   2.643   1.239   2.444  0.2366 -0.4908  0.4988
  418SOL    HW1 1253   2.575   1.284   2.383 -1.3968 -4.4792 -2.0029
  418SOL    HW2 1254   2.644   1.290   2.532 -2.3338  1.8160  0.5689
  419SOL     OW 1255   0.311   0.372   3.108  0.3292  1.0212  0.0184
  419SOL    HW1 1256   0.249   0.296   0.001 -0.2309 -1.1984  3.1173
  419SOL    HW2 1257   0.271   0.431   3.031  1.9125  0.2874  1.8223
  420SOL     OW 1258   0.132   1.181   0.832  0.4911  0.2031 -0.5074
  420SOL    HW1 1259   0.153   1.282   0.839 -3.4977  0.2729  0.1037
  420SOL    HW2 1260   0.045   1.159   0.788 -3.5914  3.2250 -1.9789
  421SOL     OW 1261   0.619   2.030   0.559  0.2897  0.3452  0.7540
  421SOL    HW1 1262   0.621   2.079   0.467  2.8881 -0.1605 -2.7188
  421SOL    HW2 1263   0.685   1.945   0.561  2.1003 -1.0879  3.3078
  422SOL     OW 1264   2.713   0.836   1.437  0.2810  0.0047 -0.4822
  422SOL    HW1 1265   2.777   0.806   1.516  2.3446 -0.6434  1.3283
  422SOL    HW2 1266   2.640   0.764   1.421 -4.3115  0.6687 -0.0832
  423SOL     OW 1267   1.708   1.628   1.112  0.3568  0.1050  0.8841
  423SOL    HW1 1268   1.745   1.534   1.128  0.8779 -0.2706 -1.4454
  423SOL    HW2 1269   1.774   1.702   1.103 -2.0606 -3.9845 -2.2151
  424SOL     OW 1270   1.959   1.101   0.422  0.0038 -0.3508  0.1092
  424SOL    HW1 1271   1.973   1.014   0.375  0.7218  2.5666  0.8855
  424SOL    HW2 1272   1.945   1.176   0.350  1.1920  0.3326 -0.1240
  425SOL     OW 1273   0.028   3.071   2.119 -0.5511  0.2806  0.5844
  425SOL    HW1 1274   0.051   3.114   2.210  2.3220 -0.8104  2.8087
  425SOL    HW2 1275   3.088   3.008   2.142 -1.0748 -0.2624 -0.0678
  426SOL     OW 1276   2.529   2.806   2.664 -0.0061 -0.0359 -0.1995
  426SOL    HW1 1277   2.559   2.892   2.706 -1.1471 -1.8383 -1.1623
  426SOL    HW2 1278   2.425   2.804   2.670 -3.3531  0.0802 -0.7093
  427SOL     OW 1279   1.076   0.809   2.321  0.2568  0.2665 -0.3914
  427SOL    HW1 1280   1.007   0.734   2.308 -1.5329 -0.7889 -0.0956
  427SOL    HW2 1281   1.160   0.788   2.268  1.8810 -1.5266 -2.1827
  428SOL     OW 1282   2.051   0.814   2.335 -0.0698  0.8337  1.0160
  428SOL    HW1 1283   1.957   0.855   2.352 -2.7626 -2.0504 -3.1415
  428SOL    HW2 1284   2.123   0.877   2.364 -2.3771 -0.7884 -0.2968
  429SOL     OW 1285   2.496   0.323   0.684  0.0026 -1.2022  0.5829
  429SOL    HW1 1286   2.555   0.360   0.606 -0.1134  0.4874  2.2774
  429SOL    HW2 1287   2.451   0.401   0.737  1.3993  2.0223  1.1695
  430SOL     OW 1288   2.145   1.430   2.217 -0.1355 -0.3236 -0.0112
  430SOL    HW1 1289   2.101   1.410   2.307  0.6277  0.5668 -2.6875
  430SOL    HW2 1290   2.101   1.384   2.138 -0.8905 -1.7303  1.4277
  431SOL     OW 1291   3.049   1.935   1.231  0.4366 -0.4369  0.1555
  431SOL    HW1 1292   2.969   1.892   1.181  0.8100 -2.2009  0.5230
  431SOL    HW2 1293   3.067   1.887   1.320  1.3272  0.1423  1.9191
  432SOL     OW 1294   1.624   2.900   2.235  0.0568 -0.4591 -0.2145
  432SOL    HW1 1295   1.584   2.995   2.230 -0.3865  0.7176  1.4668
  432SOL    HW2 1296   1.708   2.897   2.171  2.0437  2.4581  1.0968
  433SOL     OW 1297   1.696   2.962   1.830 -0.0159 -0.0251 -0.2886
  433SOL    HW1 1298   1.619   2.938   1.772  1.2664 -1.0833  0.1471
  433SOL    HW2 1299   1.756   3.040   1.799  0.9734 -0.5681  0.6616
  434SOL     OW 1300   0.153   2.370   2.347 -0.1797  0.4166 -0.0053
  434SOL    HW1 1301   0.056   2.336   2.341 -1.4258  0.4346  0.5117
  434SOL    HW2 1302   0.159   2.465   2.309  3.1433 -1.7252 -2.4134
  435SOL     OW 1303   0.158   2.166   0.215 -0.0466  0.3969  0.0006
  435SOL    HW1 1304   0.235   2.121   0.166  0.9633  0.4372  0.3180
  435SOL    HW2 1305   0.129   2.105   0.298 -1.2945 -4.0480  1.9922
  436SOL     OW 1306   0.914   1.044   1.688  0.8236  0.3204  0.0735
  436SOL    HW1 1307   0.971   1.028   1.606 -0.4822  3.4555 -0.5733
  436SOL    HW2 1308   0.908   0.960   1.748  0.5412 -0.2970 -1.9369
  437SOL     OW 1309   0.687   0.302   2.443  0.0139  0.2788  0.2769
  437SOL    HW1 1310   0.781   0.309   2.480  1.4663 -2.8984  2.3374
  437SOL    HW2 1311   0.611   0.303   2.510 -2.0514 -3.3601  0.8680
  438SOL     OW 1312   0.518   1.710   1.584  0.7185  0.0956  0.5870
  438SOL    HW1 1313   0.568   1.794   1.588 -0.2182  0.2412  1.1883
  438SOL    HW2 1314   0.566   1.625   1.620 -2.1121 -0.1323 -0.4852
  439SOL     OW 1315   1.930   0.860   3.107 -0.6692 -0.5334 -0.0060
  439SOL    HW1 1316   1.833   0.868   3.090 -0.3711  0.4826  0.1918
  439SOL    HW2 1317   1.980   0.941   3.080 -0.0838 -0.9578  0.7332
  440SOL     OW 1318   1.005   0.951   0.300  0.0376 -0.4153  0.5575
  440SOL    HW1 1319   1.096   0.947   0.344 -1.5581  0.6552 -2.2261
  440SOL    HW2 1320   0.963   0.863   0.299  3.9149  4.7684 -1.1091
  441SOL     OW 1321   0.587   2.385   1.674 -0.2912  0.1303 -0.1362
  441SOL    HW1 1322   0.662   2.365   1.741  0.4131 -0.1663  1.4094
  441SOL    HW2 1323   0.543   2.297   1.654 -1.2827  4.3130 -0.6914
  442SOL     OW 1324   2.843   2.164   0.728  0.0339 -0.1018  0.5778
  442SOL    HW1 1325   2.876   2.204   0.812  0.8404 -0.1669 -0.1599
  442SOL    HW2 1326   2.755   2.113   0.740 -0.6249  0.8276  0.5327
  443SOL     OW 1327   2.855   1.825   2.684 -0.4043  0.4960 -0.4651
  443SOL    HW1 1328   2.816   1.919   2.687  1.2461  0.6567  0.1922
  443SOL    HW2 1329   2.952   1.824   2.702 -3.4843 -1.8413 -1.6383
  444SOL     OW 1330   1.315   1.158   0.248 -0.5530  0.0231  0.3629
  444SOL    HW1 1331   1.304   1.076   0.308 -0.1456  2.7495 -0.6679
  444SOL    HW2 1332   1.274   1.240   0.290  1.0147 -2.7431  0.3702
  445SOL     OW 1333   2.723   2.666   1.942 -0.1142 -0.1314 -0.5876
  445SOL    HW1 1334   2.821   2.679   1.921  2.5440  3.5810 -2.1892
  445SOL    HW2 1335   2.704   2.573   1.984 -0.2628  0.8015 -0.4772
  446SOL     OW 1336   2.926   1.543   0.353  0.1610  0.0485  0.3164
  446SOL    HW1 1337   2.968   1.519   0.262  0.5487  1.8655  2.1776
  446SOL    HW2 1338   2.991   1.590   0.419  0.0062  1.5744  1.6814
  447SOL     OW 1339   1.000   2.410   1.429 -0.3718  0.1468 -0.7148
  447SOL    HW1 1340   1.081   2.376   1.487 -1.0837 -1.4804  0.9971
  447SOL    HW2 1341   1.032   2.456   1.343  1.8375  2.0477  0.5132
  448SOL     OW 1342   1.443   1.503   1.724  0.5648  0.1211 -0.0282
  448SOL    HW1 1343   1.446   1.551   1.816 -0.6079  0.2090  1.8022
  448SOL    HW2 1344   1.374   1.425   1.720  2.1595 -1.3279 -0.5832
  449SOL     OW 1345   3.099   2.193   2.336  0.3228  0.6353 -0.3411
  449SOL    HW1 1346   3.027   2.163   2.407 -2.5206  0.7148  2.1336
  449SOL    HW2 1347   3.083   2.167   2.238  0.6400  1.1167 -0.3387
  450SOL     OW 1348   0.019   1.770   2.222  0.7256  0.0672 -0.0342
  450SOL    HW1 1349   0.063   1.845   2.271 -1.7736 -1.7929 -1.7758
  450SOL    HW2 1350   0.066   1.758   2.131 -0.8384 -2.2465 -2.5585
  451SOL     OW 1351   2.124   0.628   1.654 -0.2383 -0.1007  0.1932
  451SOL    HW1 1352   2.167   0.706   1.606 -0.4910  3.9289 -1.2434
  451SOL    HW2 1353   2.161   0.625   1.748 -1.1458 -0.6819 -1.7536
  452SOL     OW 1354   0.895   1.345   0.995 -0.2710  0.4922 -0.2104
  452SOL    HW1 1355   0.818   1.276   0.995  2.3417  2.3732  1.5630
  452SOL    HW2 1356   0.864   1.424   0.947  0.9974  0.6075  3.3770
  453SOL     OW 1357   1.206   2.297   0.926 -0.4229  0.3200  0.4616
  453SOL    HW1 1358   1.217   2.399   0.914  0.0010 -1.0218  0.7439
  453SOL    HW2 1359   1.293   2.252   0.961 -3.7401  0.1554 -0.6304
  454SOL     OW 1360   0.098   1.511   0.398 -0.2499 -0.1352  0.2583
  454SOL    HW1 1361   0.076   1.487   0.493 -1.4680 -0.5411  0.4557
  454SOL    HW2 1362   0.134   1.428   0.355  1.9267 -0.0827 -1.2922
  455SOL     OW 1363   0.952   1.202   0.415 -0.0365  0.6054 -0.4237
  455SOL    HW1 1364   0.972   1.106   0.384  0.2673  0.2099 -0.7102
  455SOL    HW2 1365   1.033   1.262   0.392  2.8240 -0.2522 -0.2073
  456SOL     OW 1366   1.887   2.701   0.719 -0.3442  0.1583 -0.1309
  456SOL    HW1 1367   1.982   2.674   0.745 -1.2374  0.4275 -1.0484
  456SOL    HW2 1368   1.832   2.617   0.707 -1.5690  1.2456  0.7680
  457SOL     OW 1369   1.608   3.068   2.942 -0.0492  0.3611  0.2064
  457SOL    HW1 1370   1.658   0.004   2.990 -1.6391  2.9788  0.9382
  457SOL    HW2 1371   1.524   3.099   2.897  0.4150  0.9628  0.5033
  458SOL     OW 1372   2.457   0.823   0.160 -0.4115  0.4002  0.1740
  458SOL    HW1 1373   2.376   0.776   0.206 -2.0847 -0.4914 -0.3247
  458SOL    HW2 1374   2.494   0.905   0.213  0.2080  0.0008  0.8391
  459SOL     OW 1375   2.219   0.231   2.242  0.0895 -0.4009 -0.4075
  459SOL    HW1 1376   2.198   0.280   2.156 -0.0941  1.6830  0.5647
  459SOL    HW2 1377   2.310   0.253   2.285 -0.3084 -1.2694 -0.9290
  460SOL     OW 1378   2.829   0.712   2.742  0.2339 -0.3856 -0.1118
  460SOL    HW1 1379   2.829   0.737   2.840 -1.2589  1.4061  0.6740
  460SOL    HW2 1380   2.780   0.785   2.688  0.5353  0.2238  1.0073
  461SOL     OW 1381   0.188   2.474   0.823 -0.1738  0.1202 -0.5201
  461SOL    HW1 1382   0.238   2.399   0.879  0.4763 -1.9888  0.6004
  461SOL    HW2 1383   0.128   2.439   0.750 -3.7872 -0.5000 -0.4337
  462SOL     OW 1384   2.888   2.670   1.337 -0.1204  0.4619  0.6091
  462SOL    HW1 1385   2.880   2.769   1.368 -1.2377  0.2008  0.0406
  462SOL    HW2 1386   2.966   2.655   1.271 -0.1664  0.9782 -2.2192
  463SOL     OW 1387   2.368   1.744   0.031  0.4271 -0.0386 -0.6784
  463SOL    HW1 1388   2.432   1.826   0.049  0.6328 -0.2439 -0.0859
  463SOL    HW2 1389   2.353   1.730   3.073 -1.1076  0.1997  2.9728
  464SOL     OW 1390   0.689   2.422   1.445  0.2553  0.1050 -0.1312
  464SOL    HW1 1391   0.655   2.408   1.540  0.1541 -0.3256  0.0497
  464SOL    HW2 1392   0.788   2.433   1.441  1.0426  2.0680 -0.7842
  465SOL     OW 1393   1.120   0.064   1.598  0.2139  0.0303 -0.3389
  465SOL    HW1 1394   1.223   0.067   1.602 -0.9515  1.1753 -1.3379
  465SOL    HW2 1395   1.079   0.113   1.673 -0.3646 -0.2318 -1.3820
  466SOL     OW 1396   1.736   2.635   1.881 -0.5426  0.1590 -0.3078
  466SOL    HW1 1397   1.769   2.561   1.947  1.2176 -0.1530  1.8550
  466SOL    HW2 1398   1.633   2.639   1.880 -0.1237 -0.1546  0.1850
  467SOL     OW 1399   0.826   2.158   1.372 -0.1437  0.0092  0.2182
  467SOL    HW1 1400   0.736   2.205   1.381 -0.8302  1.8533  0.9653
  467SOL    HW2 1401   0.903   2.223   1.362  0.6189  1.6832 -0.5218
  468SOL     OW 1402   2.548   1.600   2.233 -0.1257 -0.0797  0.5758
  468SOL    HW1 1403   2.624   1.605   2.166 -0.5404 -0.3167 -0.6455
  468SOL    HW2 1404   2.535   1.505   2.268 -0.9399 -3.7375 -0.3644
  469SOL     OW 1405   0.861   1.841   0.898  0.1473  0.7589  0.2637
  469SOL    HW1 1406   0.807   1.920   0.942 -2.4553 -2.9694  2.2582
  469SOL    HW2 1407   0.919   1.793   0.967 -1.0967  2.4485 -2.8591
  470SOL     OW 1408   1.948   1.301   2.040 -0.0011 -0.5507  0.0196
  470SOL    HW1 1409   1.927   1.207   2.069 -0.8519 -1.5189  0.0977
  470SOL    HW2 1410   1.911   1.369   2.102 -0.1761  1.1397 -1.5103
  471SOL     OW 1411   0.667   2.413   3.105 -0.2366  0.0024 -0.3983
  471SOL    HW1 1412   0.575   2.375   3.115  2.7566  3.3317  0.9463
  471SOL    HW2 1413   0.732   2.375   0.034  0.7339  0.8302  2.9056
  472SOL     OW 1414   0.113   2.705   1.986 -0.1504  0.1735  0.0418
  472SOL    HW1 1415   0.035   2.763   2.002 -1.0326 -4.0897 -0.7867
  472SOL    HW2 1416   0.189   2.743   1.927 -3.2075  2.8976  0.7471
  473SOL     OW 1417   0.690   2.692   3.091  0.2006  0.4004 -0.2158
  473SOL    HW1 1418   0.755   2.727   0.016 -0.1655  2.2069 -2.6603
  473SOL    HW2 1419   0.680   2.590   3.089 -0.0867 -1.3984  0.4879
  474SOL     OW 1420   2.458   3.013   1.084 -0.5910  0.2163 -0.2740
  474SOL    HW1 1421   2.391   2.978   1.017 -0.4188 -0.0351  0.6875
  474SOL    HW2 1422   2.545   3.034   1.033  0.9824  0.4223  2.4212
  475SOL     OW 1423   1.937   3.049   1.689  0.0204  0.0834 -0.3124
  475SOL    HW1 1424   1.913   2.950   1.685  0.8520  1.9539 -1.0576
  475SOL    HW2 1425   1.902   3.082   1.598 -1.0729  0.6968 -0.2205
  476SOL     OW 1426   0.614   1.229   0.787 -0.6242 -0.1964 -0.0298
  476SOL    HW1 1427   0.587   1.308   0.841  1.9716 -4.0288 -1.1125
  476SOL    HW2 1428   0.649   1.157   0.850 -0.3529  1.0827  1.5287
  477SOL     OW 1429   0.340   1.846   0.711  0.3153  0.0062  0.1753
  477SOL    HW1 1430   0.376   1.911   0.781 -0.2014  2.2814 -1.8269
  477SOL    HW2 1431   0.369   1.868   0.615  0.0169  0.2264  0.9182
  478SOL     OW 1432   2.998   2.512   2.328 -0.0853  0.0711  0.1885
  478SOL    HW1 1433   3.004   2.611   2.324  1.6411 -4.1869  0.4251
  478SOL    HW2 1434   3.014   2.475   2.423  0.3748  1.8091 -1.5767
  479SOL     OW 1435   3.010   0.224   1.492  0.4999 -0.5086 -0.1444
  479SOL    HW1 1436   3.000   0.179   1.583 -0.3913 -1.2425 -3.1207
  479SOL    HW2 1437   3.040   0.322   1.509 -1.8149  2.9219  1.6679
  480SOL     OW 1438   2.945   2.388   3.082  0.2491 -0.3538 -0.6359
  480SOL    HW1 1439   3.005   2.464   3.121 -1.2117 -0.4598  0.3995
  480SOL    HW2 1440   2.853   2.400   3.128  3.1207 -0.8319  2.1866
  481SOL     OW 1441   2.208   1.953   1.929  0.7403  0.0860 -0.7006
  481SOL    HW1 1442   2.110   1.979   1.907 -1.8777  1.5149  0.9943
  481SOL    HW2 1443   2.282   2.015   1.897 -0.0402 -3.1977 -0.4218
  482SOL     OW 1444   1.649   2.176   2.624  0.1821  0.1028 -0.3897
  482SOL    HW1 1445   1.714   2.102   2.656  0.9568  0.2137  1.5885
  482SOL    HW2 1446   1.694   2.243   2.563 -1.2458 -2.2402 -1.6786
  483SOL     OW 1447   0.776   1.508   2.315 -0.2767  0.4461  0.2278
  483SOL    HW1 1448   0.754   1.429   2.379  2.1100 -1.6424 -2.4917
  483SOL    HW2 1449   0.692   1.540   2.260 -3.5429  2.4760 -2.5200
  484SOL     OW 1450   3.089   0.472   1.564  0.0367 -0.0376 -0.0786
  484SOL    HW1 1451   3.092   0.537   1.485  0.5168 -1.4455  0.3286
  484SOL    HW2 1452   0.045   0.464   1.605  0.3373 -0.1370 -0.7790
  485SOL     OW 1453   2.244   1.096   0.224 -0.5728  0.3043  0.6897
  485SOL    HW1 1454   2.294   1.104   0.131  0.5551 -1.7335 -1.6930
  485SOL    HW2 1455   2.243   1.192   0.272 -0.9633 -0.1267  0.0583
  486SOL     OW 1456   1.574   0.061   2.202  0.1951 -0.4344 -0.1788
  486SOL    HW1 1457   1.589   0.107   2.113 -0.1690  1.2389 -0.2380
  486SOL    HW2 1458   1.640   0.096   2.268 -1.4308  1.0133 -2.0759
  487SOL     OW 1459   0.857   1.901   1.421 -0.5286  0.4520  0.1095
  487SOL    HW1 1460   0.839   2.001   1.406 -1.9181  1.8729 -2.2819
  487SOL    HW2 1461   0.786   1.845   1.371  0.3736 -1.4767 -1.0634
  488SOL     OW 1462   2.480   1.336   3.033  0.0889 -0.4227 -0.0311
  488SOL    HW1 1463   2.578   1.325   3.054 -1.5279  1.3541 -0.3942
  488SOL    HW2 1464   2.464   1.432   2.997  1.5102 -1.2828 -1.5722
  489SOL     OW 1465   2.370   0.074   0.611  0.1856  0.0902 -0.9145
  489SOL    HW1 1466   2.429   0.023   0.549  0.1141 -0.9890  0.9767
  489SOL    HW2 1467   2.416   0.164   0.639 -0.4251 -0.7598  1.2840
  490SOL     OW 1468   1.179   2.722   2.918 -0.1262  0.4337  0.3397
  490SOL    HW1 1469   1.246   2.647   2.945 -0.5250  1.4679  0.4563
  490SOL    HW2 1470   1.118   2.750   2.999 -4.2611  0.4006 -0.2397
  491SOL     OW 1471   1.238   1.162   0.962 -0.0743  0.0354 -0.2605
  491SOL    HW1 1472   1.206   1.221   1.040 -2.1278  2.8270 -0.7318
  491SOL    HW2 1473   1.160   1.112   0.923 -0.3323  0.1260 -3.3905
  492SOL     OW 1474   1.473   0.308   2.416  0.0160  0.1920  0.5909
  492SOL    HW1 1475   1.559   0.358   2.436 -2.1935  1.0409  1.7135
  492SOL    HW2 1476   1.487   0.248   2.334  1.0821  0.5317 -0.8023
  493SOL     OW 1477   1.826   2.133   0.159 -0.1983  0.1172  0.3316
  493SOL    HW1 1478   1.837   2.226   0.197  0.9024  1.0583 -1.7009
  493SOL    HW2 1479   1.917   2.093   0.131 -0.7163  2.1349  2.3023
  494SOL     OW 1480   0.519   1.274   0.530  0.4758  0.1602 -0.2665
  494SOL    HW1 1481   0.454   1.356   0.526 -0.9545 -2.6618 -2.5404
  494SOL    HW2 1482   0.542   1.250   0.625  0.1600  0.2415 -2.8505
  495SOL     OW 1483   2.919   2.706   0.742  0.3651  0.1875 -0.3920
  495SOL    HW1 1484   2.944   2.645   0.821  0.9411  0.8199  1.5218
  495SOL    HW2 1485   2.874   2.652   0.668 -0.4645  1.4658  1.2324
  496SOL     OW 1486   2.640   0.286   1.579  0.1696  0.1730  0.0863
  496SOL    HW1 1487   2.636   0.241   1.487  0.6141  0.4626  0.3470
  496SOL    HW2 1488   2.690   0.228   1.648 -0.4568 -1.8249  1.5468
  497SOL     OW 1489   2.290   1.224   2.501 -0.2053  0.1007  0.2026
  497SOL    HW1 1490   2.329   1.253   2.591  0.3170 -0.2975  3.7616
  497SOL    HW2 1491   2.200   1.276   2.482 -3.1420 -0.8890  0.6983
  498SOL     OW 1492   0.627   2.008   0.976  0.7393  0.1004  0.6350
  498SOL    HW1 1493   0.578   2.035   0.891 -1.6088 -0.6799  1.6641
  498SOL    HW2 1494   0.576   1.944   1.037  0.0703  0.3511 -0.7259
  499SOL     OW 1495   0.872   2.110   1.645 -0.7782  0.3248  0.4415
  499SOL    HW1 1496   0.856   2.188   1.704  1.9086 -0.0964 -3.8640
  499SOL    HW2 1497   0.867   2.129   1.547  0.3275  1.1128  4.7199
  500SOL     OW 1498   1.022   2.130   0.290  0.8900 -0.2879  0.4180
  500SOL    HW1 1499   0.980   2.136   0.381 -1.1762  1.3019 -2.5838
  500SOL    HW2 1500   1.089   2.055   0.277 -0.4819  1.2062 -0.2782
  501SOL     OW 1501   2.463   2.941   1.335 -0.5011  0.2050 -1.3511
  501SOL    HW1 1502   2.365   2.934   1.365  1.0680 -0.1302  0.6105
  501SOL    HW2 1503   2.469   2.956   1.233  0.2390  3.4046 -2.8189
  502SOL     OW 1504   2.836   0.469   1.672  0.6117 -0.7404 -0.2654
  502SOL    HW1 1505   2.930   0.477   1.629 -0.9495  0.7372 -1.3539
  502SOL    HW2 1506   2.791   0.383   1.657  3.1813  0.8530  0.9600
  503SOL     OW 1507   2.604   1.156   1.966  0.6546 -0.1472 -0.2805
  503SOL    HW1 1508   2.654   1.076   2.001 -2.1190  0.3064  0.5333
  503SOL    HW2 1509   2.667   1.212   1.907  0.0313  3.1039  0.3738
  504SOL     OW 1510   1.309   0.798   1.543  0.4281 -0.2264  0.6553
  504SOL    HW1 1511   1.381   0.722   1.544  2.1484  2.9169 -1.7476
  504SOL    HW2 1512   1.330   0.872   1.612  3.1136 -2.4535 -1.5653
  505SOL     OW 1513   0.791   0.020   1.980  0.3677  0.0639  0.1683
  505SOL    HW1 1514   0.827   3.069   1.999 -1.2485  2.5109 -1.7784
  505SOL    HW2 1515   0.770   0.060   2.071  3.8263 -0.8455 -2.0568
  506SOL     OW 1516   0.044   0.377   0.928 -0.0861 -0.2413 -0.4317
  506SOL    HW1 1517   0.023   0.363   0.830 -0.5646  0.4971  0.4712
  506SOL    HW2 1518   0.043   0.289   0.980 -1.8083  0.7772 -1.8581
  507SOL     OW 1519   2.034   0.409   3.061  0.7068  0.1941 -0.0179
  507SOL    HW1 1520   2.131   0.387   3.058  0.2335 -0.5788 -1.0250
  507SOL    HW2 1521   1.993   0.385   0.009  1.3461  0.0068 -0.3734
  508SOL     OW 1522   1.807   0.213   2.325  0.2576 -0.3983 -0.7860
  508SOL    HW1 1523   1.770   0.305   2.320 -0.4539 -2.4935 -0.0477
  508SOL    HW2 1524   1.883   0.204   2.393  3.4137 -1.2923 -0.9175
  509SOL     OW 1525   0.767   1.353   2.009 -0.4455  0.2409  0.1466
  509SOL    HW1 1526   0.846   1.419   2.028  0.8425 -1.5444  1.8395
  509SOL    HW2 1527   0.766   1.274   2.073 -0.5870  0.3852  0.8078
  510SOL     OW 1528   3.002   1.095   0.793  0.3252  0.0016 -0.7542
  510SOL    HW1 1529   2.967   1.029   0.864  0.6484  1.7189  0.8751
  510SOL    HW2 1530   2.940   1.173   0.781 -1.8359  2.0570 -0.4242
  511SOL     OW 1531   2.110   2.230   1.156  0.3927  0.1973  0.8498
  511SOL    HW1 1532   2.036   2.304   1.151 -0.5934  2.0001 -0.9273
  511SOL    HW2 1533   2.203   2.271   1.172  0.1808  0.6842  0.6007
  512SOL     OW 1534   0.136   1.768   0.431 -0.0226 -0.2278 -0.3282
  512SOL    HW1 1535   0.121   1.670   0.405  0.5014 -1.1821 -0.7969
  512SOL    HW2 1536   0.236   1.782   0.443  1.3174 -0.2442  1.5108
  513SOL     OW 1537   0.014   2.372   0.345  0.5469 -0.1698 -0.2019
  513SOL    HW1 1538   0.074   2.290   0.311  0.9767 -4.7508  0.7770
  513SOL    HW2 1539   3.064   2.352   0.385 -0.6899  0.5608 -1.2385
  514SOL     OW 1540   2.428   2.000   2.780  0.2004  0.0219 -0.1848
  514SOL    HW1 1541   2.426   2.095   2.752  1.1561 -3.4531 -0.6016
  514SOL    HW2 1542   2.335   1.962   2.795  1.5627 -1.8281  0.1462
  515SOL     OW 1543   2.214   1.337   0.339 -0.1813 -0.1475  0.3288
  515SOL    HW1 1544   2.250   1.424   0.295  1.5598  1.0090  0.1746
  515SOL    HW2 1545   2.272   1.321   0.425 -0.7291 -2.7085  2.8993
  516SOL     OW 1546   1.897   3.110   0.492  0.0408  0.6989  0.2002
  516SOL    HW1 1547   1.859   0.059   0.505  1.7795 -2.6780  0.6577
  516SOL    HW2 1548   2.001   3.117   0.498  0.8019 -0.4278  0.2772
  517SOL     OW 1549   0.905   2.114   3.011 -0.4904  0.1880  0.0331
  517SOL    HW1 1550   0.928   2.188   3.080  0.7228 -0.7432 -1.5821
  517SOL    HW2 1551   0.806   2.105   3.012  2.8115 -0.7785  2.5654
  518SOL     OW 1552   0.572   0.497   1.913  0.1872 -0.6978 -0.2224
  518SOL    HW1 1553   0.655   0.460   1.955 -1.0402 -2.4082  1.2453
  518SOL    HW2 1554   0.572   0.598   1.905 -1.1932 -1.6836  2.1968
  519SOL     OW 1555   3.031   1.082   0.042  0.1966 -0.2288  0.0229
  519SOL    HW1 1556   3.030   1.082   3.077 -0.6489 -0.0922 -1.9509
  519SOL    HW2 1557   3.095   1.014   0.083 -1.3433  0.6043  0.4089
  520SOL     OW 1558   2.761   1.847   1.710  1.0202 -0.0535  0.5731
  520SOL    HW1 1559   2.690   1.808   1.770  0.5028 -2.4099 -1.5472
  520SOL    HW2 1560   2.804   1.927   1.749  0.2062 -1.0507  2.1998
  521SOL     OW 1561   0.450   2.562   2.187 -0.0227 -0.2086 -0.2889
  521SOL    HW1 1562   0.529   2.540   2.246 -0.6637 -1.8380 -0.1804
  521SOL    HW2 1563   0.409   2.477   2.156  3.3345  2.9512 -1.5837
  522SOL     OW 1564   1.907   0.087   2.113 -0.3892  0.2297 -0.0266
  522SOL    HW1 1565   2.007   0.065   2.139 -0.3824  1.9628 -0.5788
  522SOL    HW2 1566   1.865   0.140   2.194  3.7530  3.1288  2.3366
  523SOL     OW 1567   1.959   2.023   1.275 -0.7440  0.9077 -0.5593
  523SOL    HW1 1568   2.013   1.982   1.352  2.3732 -0.3614 -1.2627
  523SOL    HW2 1569   2.011   2.101   1.238 -1.4201 -2.4066  0.0953
  524SOL     OW 1570   0.875   2.715   0.176 -0.2055 -0.2379 -0.3299
  524SOL    HW1 1571   0.831   2.790   0.230 -2.1866  0.8561  2.1071
  524SOL    HW2 1572   0.954   2.673   0.225 -0.6837 -2.9330  1.0315
  525SOL     OW 1573   2.946   0.411   0.231 -0.6062  0.3513 -0.1972
  525SOL    HW1 1574   2.884   0.483   0.253 -2.1187 -0.1492  2.5673
  525SOL    HW2 1575   3.038   0.443   0.259 -0.1259 -0.2400 -0.0569
  526SOL     OW 1576   0.703   2.989   0.648  0.0826 -0.0807 -0.2080
  526SOL    HW1 1577   0.716   2.996   0.750  1.1263 -1.1330 -0.7760
  526SOL    HW2 1578   0.610   2.952   0.627  0.9949 -1.0388  1.0283
  527SOL     OW 1579   2.633   1.881   0.990 -0.0450  0.0861  0.3089
  527SOL    HW1 1580   2.648   1.843   1.084 -0.5808  2.1710 -0.3382
  527SOL    HW2 1581   2.699   1.959   0.982 -0.1300 -3.1466 -1.1027
  528SOL     OW 1582   2.938   0.484   2.367 -0.1010 -0.1294 -0.1194
  528SOL    HW1 1583   3.039   0.474   2.359 -1.7827 -0.0653 -1.3000
  528SOL    HW2 1584   2.905   0.453   2.273  1.6809  0.2786 -0.8199
  529SOL     OW 1585   1.295   1.540   2.552 -0.2317 -0.0737 -0.2360
  529SOL    HW1 1586   1.378   1.496   2.587 -1.8814  0.0580  0.5856
  529SOL    HW2 1587   1.255   1.593   2.630 -2.0031  0.1052  0.7416
  530SOL     OW 1588   1.982   1.089   2.515 -0.0094  0.1369 -0.2876
  530SOL    HW1 1589   1.908   1.053   2.457 -0.2189  0.9563 -0.9194
  530SOL    HW2 1590   2.075   1.043   2.503  4.0887  0.4888 -0.7146
  531SOL     OW 1591   0.903   1.937   2.623 -0.3785 -0.0944 -0.2064
  531SOL    HW1 1592   0.847   1.852   2.622  1.7671  2.8933 -0.6907
  531SOL    HW2 1593   0.969   1.944   2.700 -1.9676 -1.1731  1.2345
  532SOL     OW 1594   1.968   1.441   0.370 -0.3112 -0.0735  0.2581
  532SOL    HW1 1595   2.057   1.389   0.381  0.5033  0.9609  2.0692
  532SOL    HW2 1596   1.976   1.538   0.403  1.4237  1.0266 -1.9838
  533SOL     OW 1597   0.327   0.136   1.864 -0.3654 -0.2926 -0.3322
  533SOL    HW1 1598   0.402   0.066   1.860  0.5510 -0.3167  0.2306
  533SOL    HW2 1599   0.232   0.093   1.862 -2.0165 -0.1881 -0.7889
  534SOL     OW 1600   0.734   2.889   2.916 -0.1332  0.1427  0.0712
  534SOL    HW1 1601   0.700   2.818   2.987  1.8817  0.7994  2.1728
  534SOL    HW2 1602   0.835   2.901   2.934  1.1596 -1.6366 -1.4692
  535SOL     OW 1603   0.203   0.053   0.601  0.3093  0.4496 -0.3599
  535SOL    HW1 1604   0.224   0.089   0.509 -2.9031 -1.6688  1.6634
  535SOL    HW2 1605   0.179   3.093   0.599 -2.5413 -1.1512  0.6772
  536SOL     OW 1606   0.381   1.303   1.764 -0.3967 -0.0757  0.1644
  536SOL    HW1 1607   0.413   1.211   1.738 -1.8371 -0.7439  1.2520
  536SOL    HW2 1608   0.330   1.360   1.692 -2.1421  1.1454 -3.5483
  537SOL     OW 1609   1.092   2.605   1.685  0.4495  0.0679  0.1655
  537SOL    HW1 1610   1.095   2.626   1.583 -1.5964  3.6074 -3.0734
  537SOL    HW2 1611   1.120   2.692   1.741  3.4844  1.2450  1.1724
  538SOL     OW 1612   0.063   2.034   0.423 -0.2878  0.3358  0.1193
  538SOL    HW1 1613   0.088   1.934   0.435 -0.8812 -0.0687 -0.3071
  538SOL    HW2 1614   0.046   2.075   0.513  0.1132  0.6916 -0.0014
  539SOL     OW 1615   2.896   1.142   2.580 -0.2201  0.5882  0.4361
  539SOL    HW1 1616   2.877   1.146   2.683 -2.4223 -0.6800 -0.1785
  539SOL    HW2 1617   2.816   1.185   2.531 -0.6077  0.7306 -0.7336
  540SOL     OW 1618   1.709   1.111   1.848 -0.0080 -0.0642  0.3081
  540SOL    HW1 1619   1.787   1.061   1.798  1.3375 -0.8838 -0.5292
  540SOL    HW2 1620   1.704   1.215   1.835 -1.0785  0.2415  3.0342
  541SOL     OW 1621   0.877   0.851   1.892  0.2216 -0.1046  0.2357
  541SOL    HW1 1622   0.782   0.809   1.904 -3.8890 -3.2663  2.1346
  541SOL    HW2 1623   0.908   0.914   1.965 -0.4789  1.0103  1.3564
  542SOL     OW 1624   2.319   0.381   3.000  0.3088  0.6651  0.2065
  542SOL    HW1 1625   2.408   0.367   3.047  1.9658  1.7610  2.0294
  542SOL    HW2 1626   2.311   0.347   2.902 -2.2501  1.1875 -2.2562
  543SOL     OW 1627   1.068   3.082   3.075  0.2075 -0.6658  0.1008
  543SOL    HW1 1628   1.024   0.023   3.032 -1.2306  1.1637 -0.2890
  543SOL    HW2 1629   1.169   3.089   3.073 -1.3258  0.3250 -0.7957
  544SOL     OW 1630   2.931   1.451   2.051  0.1115 -0.1395 -0.5773
  544SOL    HW1 1631   2.950   1.456   2.151 -1.7304 -0.7664  1.7223
  544SOL    HW2 1632   2.868   1.378   2.023  1.5732 -0.3232 -1.5848
  545SOL     OW 1633   1.987   2.358   1.886 -0.2602  0.5444  0.3613
  545SOL    HW1 1634   1.897   2.382   1.927 -0.3453  0.4634 -2.0714
  545SOL    HW2 1635   1.977   2.363   1.789  0.3266 -0.1421  0.4804
  546SOL     OW 1636   0.132   0.070   2.757 -0.2766 -0.6357 -0.2300
  546SOL    HW1 1637   0.074   3.132   2.736  0.3125  2.8253  0.8118
  546SOL    HW2 1638   0.224   0.039   2.789  0.1523  1.3305  2.0974
  547SOL     OW 1639   1.712   1.189   0.948  0.0889 -0.2057 -0.4078
  547SOL    HW1 1640   1.661   1.237   0.874 -2.2807  0.1940 -1.7562
  547SOL    HW2 1641   1.672   1.096   0.960 -0.8258 -0.5981  2.1099
  548SOL     OW 1642   1.806   1.878   2.523 -0.9117  0.3413 -0.5583
  548SOL    HW1 1643   1.795   1.934   2.440  0.0168 -1.4927 -0.5239
  548SOL    HW2 1644   1.904   1.888   2.551 -1.6463  1.2481 -3.1475
  549SOL     OW 1645   2.134   0.479   0.493  0.3432 -0.9496  0.3069
  549SOL    HW1 1646   2.074   0.550   0.456 -0.7033 -0.5895 -1.1607
  549SOL    HW2 1647   2.130   0.471   0.592 -1.6007 -0.4700  2.5379
  550SOL     OW 1648   2.270   1.924   0.786  0.0417 -0.0905 -0.7362
  550SOL    HW1 1649   2.292   1.919   0.687 -0.5762  0.0498  3.3306
  550SOL    HW2 1650   2.279   1.831   0.827  0.8600  1.8738  0.0308
  551SOL     OW 1651   0.885   2.550   1.842 -0.0391  0.3627  0.2531
  551SOL    HW1 1652   0.967   2.562   1.785 -0.6585 -0.5200 -0.4333
  551SOL    HW2 1653   0.833   2.637   1.836  0.7429  0.4643  2.0184
  552SOL     OW 1654   0.106   2.275   2.624  0.5352  0.2472  0.1593
  552SOL    HW1 1655   0.039   2.198   2.630 -2.4323 -0.3399  2.7360
  552SOL    HW2 1656   0.126   2.291   2.525 -0.9206 -2.1526 -1.8628
  553SOL     OW 1657   0.076   0.102   0.978  0.4457  0.3676  0.2236
  553SOL    HW1 1658   0.172   0.063   0.952  0.4133 -0.1786  0.8011
  553SOL    HW2 1659   0.056   0.087   1.074  0.6152  0.4402 -1.5816
  554SOL     OW 1660   2.413   2.117   1.871  0.1046 -0.0807 -0.0734
  554SOL    HW1 1661   2.513   2.121   1.891 -0.5754 -1.4266 -2.9092
  554SOL    HW2 1662   2.366   2.204   1.886  1.3106 -2.5484  3.1334
  555SOL     OW 1663   1.498   2.328   1.912 -0.5932  0.4677  0.6304
  555SOL    HW1 1664   1.465   2.245   1.857 -2.6974 -1.2429  1.9689
  555SOL    HW2 1665   1.452   2.409   1.877  1.0645 -0.3195 -0.1760
  556SOL     OW 1666   1.227   1.742   1.599  0.7396  0.0072 -0.1836
  556SOL    HW1 1667   1.278   1.786   1.672 -2.5419  2.9400 -1.2011
  556SOL    HW2 1668   1.269   1.663   1.553 -0.2238 -0.1408  1.1909
  557SOL     OW 1669   1.784   2.368   2.467 -0.3326  0.1602 -0.8188
  557SOL    HW1 1670   1.884   2.368   2.456 -0.1443  0.0389 -1.2870
  557SOL    HW2 1671   1.733   2.425   2.406  0.0680 -3.5262  1.3232
  558SOL     OW 1672   0.730   2.763   1.814  0.1291  0.1149 -0.3826
  558SOL    HW1 1673   0.648   2.752   1.872 -0.0509 -1.6629  0.3252
  558SOL    HW2 1674   0.784   2.844   1.852  0.4270 -1.3901  2.5849
  559SOL     OW 1675   2.320   2.864   0.910  0.7946 -0.3904  0.3964
  559SOL    HW1 1676   2.296   2.831   0.817  1.1354  0.2773 -1.7341
  559SOL    HW2 1677   2.232   2.887   0.959 -2.3509  1.5550  0.1100
  560SOL     OW 1678   1.821   2.392   0.674  0.3919 -0.0761  0.3977
  560SOL    HW1 1679   1.780   2.404   0.770  1.3380  1.0374  2.6850
  560SOL    HW2 1680   1.887   2.315   0.663 -0.6615 -2.8766  0.2113
  561SOL     OW 1681   1.055   0.238   0.578  0.4367 -0.6671  0.1226
  561SOL    HW1 1682   1.086   0.275   0.487 -2.6352 -0.7147 -0.6489
  561SOL    HW2 1683   0.974   0.177   0.565 -0.3995 -0.8200 -0.9753
  562SOL     OW 1684   0.873   0.625   2.556  0.2703 -0.3230 -0.1414
  562SOL    HW1 1685   0.923   0.542   2.580 -0.3652  0.7492  0.7792
  562SOL    HW2 1686   0.872   0.639   2.459  0.9872 -1.2948  1.6441
  563SOL     OW 1687   1.749   1.628   2.971 -0.2802  0.1533 -0.4224
  563SOL    HW1 1688   1.685   1.708   2.954 -2.1054 -3.3345  0.3767
  563SOL    HW2 1689   1.796   1.637   3.060  1.9420 -2.5799 -0.4258
  564SOL     OW 1690   2.466   1.270   1.309  0.0437 -0.2028  0.1401
  564SOL    HW1 1691   2.469   1.269   1.410  1.2295 -0.9917 -2.5795
  564SOL    HW2 1692   2.559   1.240   1.276  1.0208  0.1840  1.7535
  565SOL     OW 1693   0.974   0.510   2.865  0.0185 -0.0658  0.3540
  565SOL    HW1 1694   1.018   0.431   2.916  0.8270  0.5192  1.8930
  565SOL    HW2 1695   0.879   0.523   2.907 -0.6549 -3.8396 -2.3351
  566SOL     OW 1696   1.957   0.347   2.695  0.5685  0.2964  0.3286
  566SOL    HW1 1697   1.963   0.304   2.600  1.8774 -1.1533 -0.3433
  566SOL    HW2 1698   2.006   0.296   2.760 -1.2453  1.4523 -4.1145
  567SOL     OW 1699   2.204   1.854   0.409  0.0860  0.3546  0.1780
  567SOL    HW1 1700   2.292   1.835   0.456  1.6164  0.9724 -1.6825
  567SOL    HW2 1701   2.207   1.855   0.308  2.7398 -1.7108 -0.5834
  568SOL     OW 1702   1.678   1.897   0.218 -0.1300 -0.2314  0.3199
  568SOL    HW1 1703   1.728   1.979   0.183 -1.0183  2.4623  0.6035
  568SOL    HW2 1704   1.579   1.915   0.208 -0.4964 -0.2306  0.4726
  569SOL     OW 1705   2.049   1.102   3.079 -0.1476 -0.1023  0.1788
  569SOL    HW1 1706   1.991   1.173   3.120  1.6524 -2.5074  1.0465
  569SOL    HW2 1707   2.139   1.102   3.123  0.8627  0.7964  0.7755
  570SOL     OW 1708   0.399   2.569   1.688 -0.3952 -0.3201 -0.3262
  570SOL    HW1 1709   0.393   2.645   1.755  1.6851  0.4600  3.6492
  570SOL    HW2 1710   0.484   2.512   1.694 -2.5229 -0.3677  2.9284
  571SOL     OW 1711   0.412   0.972   1.903 -0.3274  0.2917  0.5018
  571SOL    HW1 1712   0.459   1.051   1.948 -0.0307  2.4130  1.4230
  571SOL    HW2 1713   0.313   0.973   1.923 -0.8517  1.8036  1.5714
  572SOL     OW 1714   0.940   1.531   0.606 -0.1295 -0.0914  0.1943
  572SOL    HW1 1715   0.855   1.483   0.570 -0.7832  1.5693 -1.5179
  572SOL    HW2 1716   0.965   1.599   0.532 -1.1039 -1.0979 -1.7138
  573SOL     OW 1717   1.607   2.151   3.102 -0.1415  0.2207  0.6553
  573SOL    HW1 1718   1.524   2.162   0.015  1.6790 -2.8947 -0.3218
  573SOL    HW2 1719   1.690   2.136   0.023  3.7008  0.3624 -0.5485
  574SOL     OW 1720   1.095   0.266   0.980 -0.1431 -0.1745 -0.5243
  574SOL    HW1 1721   1.096   0.178   1.031  0.9779  1.0444  0.9099
  574SOL    HW2 1722   1.011   0.277   0.922 -2.6441  0.5945 -1.4299
  575SOL     OW 1723   0.257   0.907   1.452  0.6155 -0.1881  0.9911
  575SOL    HW1 1724   0.216   0.928   1.542  0.3334  1.1296 -1.9523
  575SOL    HW2 1725   0.325   0.977   1.414  0.0722 -1.3888  0.5986
  576SOL     OW 1726   2.148   2.862   1.288 -0.4457 -0.2758  0.0784
  576SOL    HW1 1727   2.161   2.942   1.352  0.7302  0.9114  1.5561
  576SOL    HW2 1728   2.122   2.895   1.194 -0.4430  0.3543 -0.3856
  577SOL     OW 1729   0.993   0.995   2.115  0.1674  0.0052 -0.0554
  577SOL    HW1 1730   1.080   1.049   2.106  2.8997 -1.4403  1.1850
  577SOL    HW2 1731   1.003   0.919   2.183 -0.6982 -0.1896  1.9331
  578SOL     OW 1732   1.778   0.775   2.630  0.5635  0.0314  0.1264
  578SOL    HW1 1733   1.783   0.739   2.531  1.3518 -1.8143 -3.2890
  578SOL    HW2 1734   1.711   0.850   2.642  2.1352  1.1969  0.7798
  579SOL     OW 1735   2.126   2.626   1.704 -0.0953 -0.2752 -0.4426
  579SOL    HW1 1736   2.113   2.536   1.663 -0.8227  2.0116  3.7970
  579SOL    HW2 1737   2.209   2.675   1.678 -3.5764  2.9609 -1.1091
  580SOL     OW 1738   1.935   1.646   2.475 -0.5279 -0.0450  0.7947
  580SOL    HW1 1739   2.036   1.650   2.489 -0.5902 -0.4285 -1.1664
  580SOL    HW2 1740   1.907   1.742   2.499  0.0493  0.3117  1.5286
  581SOL     OW 1741   1.508   1.397   2.651  0.0132 -0.2788  0.4125
  581SOL    HW1 1742   1.608   1.417   2.681  0.3007 -1.2749 -0.8510
  581SOL    HW2 1743   1.459   1.340   2.718  0.3420  0.3561 -1.1757
  582SOL     OW 1744   0.803   1.645   1.877  0.3804  0.1435  0.0176
  582SOL    HW1 1745   0.860   1.595   1.943 -0.2927 -0.8382 -0.6033
  582SOL    HW2 1746   0.860   1.667   1.796  1.4958 -0.9047  0.5997
  583SOL     OW 1747   1.760   1.244   1.555  0.4679 -0.1617  0.1341
  583SOL    HW1 1748   1.690   1.182   1.513  0.7062  0.5631  1.7928
  583SOL    HW2 1749   1.748   1.257   1.655 -0.3139 -0.6393  0.4779
  584SOL     OW 1750   2.067   2.579   0.454  0.2546 -0.1442 -0.2927
  584SOL    HW1 1751   1.974   2.611   0.435 -2.1477  2.4248 -0.9722
  584SOL    HW2 1752   2.096   2.488   0.426  0.5027 -1.5268 -1.5245
  585SOL     OW 1753   2.019   0.010   2.612  0.5467  0.6235  0.2615
  585SOL    HW1 1754   2.060   3.057   2.599  1.3896  0.0584  0.1443
  585SOL    HW2 1755   2.061   0.060   2.690 -1.5315 -0.6652  2.9603
  586SOL     OW 1756   2.803   2.284   1.407  0.1619  0.3435  0.1630
  586SOL    HW1 1757   2.832   2.211   1.472 -0.0656  1.4462 -1.2503
  586SOL    HW2 1758   2.780   2.246   1.314  0.2077 -0.8874 -2.9527
  587SOL     OW 1759   1.386   1.899   0.154  0.3405 -0.1817  0.0701
  587SOL    HW1 1760   1.379   1.996   0.117  0.4437  0.6922  1.1854
  587SOL    HW2 1761   1.362   1.836   0.080  0.4169 -0.1078  1.5838
  588SOL     OW 1762   0.327   0.397   1.046 -0.3893  0.4049  0.0113
  588SOL    HW1 1763   0.324   0.323   1.122  0.9601 -3.3921  1.9926
  588SOL    HW2 1764   0.234   0.416   1.005 -1.1614  0.4111  0.4961
  589SOL     OW 1765   1.129   0.294   0.316  0.1053  0.2123  0.6687
  589SOL    HW1 1766   1.049   0.349   0.290  0.7460 -1.9351 -0.6593
  589SOL    HW2 1767   1.133   0.204   0.260 -1.0958 -1.1894 -0.8677
  590SOL     OW 1768   1.489   0.576   2.921 -0.1886  0.6482  0.3439
  590SOL    HW1 1769   1.440   0.632   2.853  1.8837 -2.7209 -0.2387
  590SOL    HW2 1770   1.565   0.522   2.877 -0.5742 -0.9841  0.6851
  591SOL     OW 1771   2.929   1.914   2.140 -0.4537  0.2730  0.2532
  591SOL    HW1 1772   2.959   1.938   2.047 -2.4638  2.0698 -1.0684
  591SOL    HW2 1773   3.006   1.867   2.190  2.5518  0.1507 -1.3383
  592SOL     OW 1774   2.282   1.656   2.211 -0.2991  0.1323 -0.2161
  592SOL    HW1 1775   2.231   1.566   2.204  1.3206 -0.8573  0.5933
  592SOL    HW2 1776   2.376   1.642   2.195 -2.8141 -3.5300 -0.4854
  593SOL     OW 1777   1.290   1.189   1.482  0.1267  0.2274  0.0365
  593SOL    HW1 1778   1.362   1.213   1.415 -0.6381 -2.0447  1.4413
  593SOL    HW2 1779   1.238   1.116   1.438  0.1626  2.4308 -0.8600
  594SOL     OW 1780   2.788   1.359   3.046  0.0471 -0.5990 -0.0902
  594SOL    HW1 1781   2.865   1.363   3.116  1.3268 -2.1115  0.6302
  594SOL    HW2 1782   2.805   1.301   2.966  3.5008 -0.6856 -2.0589
  595SOL     OW 1783   0.404   0.549   0.590 -0.0752 -0.0354 -0.3052
  595SOL    HW1 1784   0.389   0.648   0.586 -2.2260 -2.8679 -0.3927
  595SOL    HW2 1785   0.444   0.520   0.681 -0.8602 -2.3012 -2.9012
  596SOL     OW 1786   0.029   1.197   1.277 -0.2387 -0.4149 -0.1941
  596SOL    HW1 1787   0.008   1.144   1.366  0.6222 -0.7465 -0.1250
  596SOL    HW2 1788   0.128   1.244   1.282  1.6363  2.0521  2.6218
  597SOL     OW 1789   1.244   1.957   1.066  0.0048 -0.5257  0.1927
  597SOL    HW1 1790   1.257   1.862   1.107 -0.6100  0.6559 -0.1489
  597SOL    HW2 1791   1.195   1.945   0.974 -0.3586 -1.2259 -2.1195
  598SOL     OW 1792   0.435   3.026   1.782 -0.1925 -0.3805  0.8588
  598SOL    HW1 1793   0.525   3.057   1.741  0.6914  3.5269 -0.9978
  598SOL    HW2 1794   0.368   3.021   1.704 -2.1393  1.2807  0.2182
  599SOL     OW 1795   0.440   1.720   2.977 -0.0465 -0.2727 -0.2228
  599SOL    HW1 1796   0.436   1.623   2.944  1.6430 -1.3684  1.9705
  599SOL    HW2 1797   0.505   1.776   2.922  1.6102 -0.9384  0.9402
  600SOL     OW 1798   0.325   1.072   3.065  0.1849  0.0554 -0.5681
  600SOL    HW1 1799   0.280   1.165   3.063 -0.4120 -0.3915  0.0502
  600SOL    HW2 1800   0.261   1.004   3.029 -1.2157  1.1641  2.1199
  601SOL     OW 1801   0.467   0.888   1.164 -0.1928 -0.1539  0.6879
  601SOL    HW1 1802   0.463   0.910   1.062 -0.1795  0.0778  1.8134
  601SOL    HW2 1803   0.415   0.801   1.183  3.4090 -1.2864  1.5355
  602SOL     OW 1804   0.837   0.067   0.248 -0.0853 -1.0209 -0.9582
  602SOL    HW1 1805   0.818   0.073   0.350 -0.4550  1.3070 -0.4068
  602SOL    HW2 1806   0.810   3.115   0.216  1.9732 -0.8935  0.3245
  603SOL     OW 1807   1.556   2.164   2.367 -0.6710 -0.2100 -0.3035
  603SOL    HW1 1808   1.631   2.107   2.336 -1.2878 -1.8503 -2.4674
  603SOL    HW2 1809   1.553   2.172   2.470 -0.9048  0.7152  0.6699
  604SOL     OW 1810   0.467   2.892   2.816  0.4786 -0.0736 -0.6538
  604SOL    HW1 1811   0.460   2.867   2.717  0.7600  1.3206 -1.5337
  604SOL    HW2 1812   0.560   2.877   2.847  0.3594  3.1329  1.2170
  605SOL     OW 1813   2.445   1.269   1.581 -0.0140  0.7521  0.6013
  605SOL    HW1 1814   2.499   1.333   1.639 -2.0599 -0.5277  1.2236
  605SOL    HW2 1815   2.364   1.234   1.630  2.4522  5.6655 -0.5267
  606SOL     OW 1816   0.965   1.551   2.812  0.3177  0.0001 -0.1628
  606SOL    HW1 1817   0.983   1.451   2.803  0.6985  1.3237 -1.5890
  606SOL    HW2 1818   0.870   1.555   2.848 -2.0853 -1.3766  3.2521
  607SOL     OW 1819   0.609   0.259   0.576  0.0634  0.3539  0.8064
  607SOL    HW1 1820   0.583   0.308   0.488  0.9583  1.2350 -1.4083
  607SOL    HW2 1821   0.683   0.309   0.619 -2.0052 -1.0491 -0.8917
  608SOL     OW 1822   2.848   1.615   1.576  0.3012 -0.1905 -0.4274
  608SOL    HW1 1823   2.818   1.705   1.608 -0.1775  0.6617 -0.3823
  608SOL    HW2 1824   2.770   1.551   1.576  0.0631 -1.2125 -1.3800
  609SOL     OW 1825   2.438   0.551   0.872 -0.6285 -0.0976  0.2845
  609SOL    HW1 1826   2.446   0.517   0.967 -1.5565 -1.4876 -3.1615
  609SOL    HW2 1827   2.464   0.648   0.874 -2.6857  0.8637  0.6097
  610SOL     OW 1828   0.306   2.528   1.445  0.0941  0.1078  0.0635
  610SOL    HW1 1829   0.319   2.556   1.541  0.7371 -0.7080  0.9080
  610SOL    HW2 1830   0.386   2.538   1.386 -4.3005  0.3501 -0.8411
  611SOL     OW 1831   1.344   1.708   0.343 -0.1607 -0.7949 -0.6768
  611SOL    HW1 1832   1.419   1.698   0.409 -5.9364  1.3434 -3.8910
  611SOL    HW2 1833   1.358   1.787   0.286 -0.3452  0.5571 -0.4991
  612SOL     OW 1834   0.713   0.027   1.732 -0.1635  0.3604 -0.4571
  612SOL    HW1 1835   0.734   0.031   1.831 -1.7164 -0.1545 -2.9560
  612SOL    HW2 1836   0.673   0.114   1.693 -4.0207  1.1256  0.9074
  613SOL     OW 1837   0.464   2.361   0.657  0.1280  0.3945 -0.0497
  613SOL    HW1 1838   0.428   2.348   0.563 -1.0230  0.7915  0.9524
  613SOL    HW2 1839   0.467   2.462   0.689  0.4180  1.4014  1.4461
  614SOL     OW 1840   2.178   3.119   2.149  0.0878  0.6793 -0.5863
  614SOL    HW1 1841   2.203   0.066   2.193 -1.6151 -1.3292  0.5729
  614SOL    HW2 1842   2.263   3.069   2.113  3.3529  0.4173 -0.1740
  615SOL     OW 1843   1.057   1.698   0.416  0.6510  0.1477  0.1656
  615SOL    HW1 1844   1.020   1.655   0.327 -2.8952 -0.4941 -2.5720
  615SOL    HW2 1845   1.157   1.708   0.411 -4.7608 -1.5856  0.1985
  616SOL     OW 1846   1.560   1.622   0.510 -0.4343 -0.1124  0.6597
  616SOL    HW1 1847   1.615   1.535   0.504  1.7636 -1.0060 -1.2843
  616SOL    HW2 1848   1.489   1.615   0.579 -2.0431 -3.3127  1.1490
  617SOL     OW 1849   1.384   1.271   2.864  0.2092  0.4999 -0.0354
  617SOL    HW1 1850   1.460   1.202   2.862 -2.0479  0.4518 -1.8945
  617SOL    HW2 1851   1.345   1.269   2.960  0.8965  1.6275  1.8034
  618SOL     OW 1852   0.781   0.406   2.037 -0.2056  0.0144 -0.7738
  618SOL    HW1 1853   0.859   0.470   2.047  0.0645 -0.0973 -2.6606
  618SOL    HW2 1854   0.795   0.320   2.090  0.6009 -1.1692 -0.7966
  619SOL     OW 1855   3.077   1.437   1.628 -0.0631  0.1432  0.3147
  619SOL    HW1 1856   3.009   1.504   1.588 -0.2426 -0.0166  0.3664
  619SOL    HW2 1857   0.035   1.442   1.594  3.1404  0.5266  0.2105
  620SOL     OW 1858   2.573   0.296   2.589  0.1598  0.2757 -0.5402
  620SOL    HW1 1859   2.652   0.359   2.591  0.1753 -2.3364 -1.3117
  620SOL    HW2 1860   2.560   0.262   2.489 -1.5266 -3.0675 -4.2257
  621SOL     OW 1861   1.971   2.063   2.993 -0.4239  0.0234 -0.0009
  621SOL    HW1 1862   2.019   2.153   2.966 -1.7068  0.8512  1.2281
  621SOL    HW2 1863   1.902   2.045   2.922 -1.1679  1.6483  1.3380
  622SOL     OW 1864   1.112   0.735   2.842 -0.4728  0.0585 -0.0816
  622SOL    HW1 1865   1.074   0.645   2.854 -1.1598  2.7141 -1.0565
  622SOL    HW2 1866   1.041   0.800   2.870  1.3803 -0.5026 -0.7955
  623SOL     OW 1867   0.768   1.147   2.185 -0.2551  0.0078 -0.2117
  623SOL    HW1 1868   0.848   1.090   2.167  0.2307  2.8007 -1.5771
  623SOL    HW2 1869   0.736   1.140   2.284  1.7642  1.8471 -2.1923
  624SOL     OW 1870   2.759   0.176   0.357 -0.3572 -0.0944  0.4440
  624SOL    HW1 1871   2.826   0.206   0.284  0.2296 -0.0559  0.8782
  624SOL    HW2 1872   2.781   0.205   0.451 -0.4844  0.3089  0.0306
  625SOL     OW 1873   1.106   2.389   0.513 -0.1661 -0.3928  0.2010
  625SOL    HW1 1874   1.053   2.371   0.429  0.6050  3.8430  1.4852
  625SOL    HW2 1875   1.055   2.359   0.602 -1.8291  1.1888  2.9664
  626SOL     OW 1876   2.236   0.964   2.486  0.3104  0.3148 -0.3357
  626SOL    HW1 1877   2.271   0.913   2.566  0.2647  2.5681 -1.5067
  626SOL    HW2 1878   2.276   1.060   2.488  0.3666  0.5970 -0.8470
  627SOL     OW 1879   1.342   2.053   2.753 -0.1634  0.0968  0.2534
  627SOL    HW1 1880   1.335   2.070   2.656 -2.3080 -0.0709  1.9582
  627SOL    HW2 1881   1.415   1.980   2.767 -3.9109 -1.3883  1.6242
  628SOL     OW 1882   2.899   2.792   2.445  0.0374  0.0567  0.2620
  628SOL    HW1 1883   2.809   2.752   2.422  0.2773 -3.6295 -1.4527
  628SOL    HW2 1884   2.913   2.794   2.544  1.4331 -1.2609 -2.1429
  629SOL     OW 1885   1.402   2.650   2.634 -0.4861  0.0346  0.4209
  629SOL    HW1 1886   1.453   2.660   2.543 -3.5909 -0.8957  0.0642
  629SOL    HW2 1887   1.460   2.612   2.707 -2.3017  0.5163 -2.7803
  630SOL     OW 1888   1.086   0.123   2.309 -0.1728 -0.5432 -0.2171
  630SOL    HW1 1889   1.124   0.115   2.403  1.0130 -1.0480  0.7072
  630SOL    HW2 1890   1.160   0.110   2.240 -0.2733  1.9103  0.2815
  631SOL     OW 1891   1.874   1.178   0.667 -0.0616  0.2036  0.8106
  631SOL    HW1 1892   1.782   1.213   0.664  1.5109  3.0828 -0.7017
  631SOL    HW2 1893   1.901   1.149   0.572  0.0465 -1.4311  0.0077
  632SOL     OW 1894   2.478   0.170   1.943 -0.0298 -0.2734  0.5618
  632SOL    HW1 1895   2.484   0.262   1.988 -0.7450  0.5645 -2.0294
  632SOL    HW2 1896   2.561   0.143   1.887  1.1768 -1.7679  0.1396
  633SOL     OW 1897   1.041   1.528   0.137 -0.8275 -1.0808  0.3470
  633SOL    HW1 1898   1.060   1.582   0.052  1.7039 -3.9887 -3.2073
  633SOL    HW2 1899   1.019   1.430   0.108 -0.6590 -0.4227  1.7272
  634SOL     OW 1900   2.701   2.988   1.725  0.2322  0.3610 -0.0839
  634SOL    HW1 1901   2.745   3.066   1.773 -0.0622 -1.0432  1.3481
  634SOL    HW2 1902   2.683   3.010   1.625 -0.3866 -0.5028  0.3332
  635SOL     OW 1903   1.586   0.336   0.933  0.2512  0.1602  0.2913
  635SOL    HW1 1904   1.671   0.359   0.988 -2.1486  1.4967  0.5326
  635SOL    HW2 1905   1.565   0.412   0.862 -0.2322  2.0993 -2.6037
  636SOL     OW 1906   0.594   1.078   3.127  0.4694  0.7120  0.2008
  636SOL    HW1 1907   0.492   1.070   3.115 -0.5664  1.9722 -0.6301
  636SOL    HW2 1908   0.621   1.145   3.055  0.9127 -1.7337 -1.3556
  637SOL     OW 1909   2.847   2.075   0.091 -0.2204  0.8589 -0.1753
  637SOL    HW1 1910   2.824   1.979   0.069  1.5916 -1.9821  1.1366
  637SOL    HW2 1911   2.940   2.098   0.049  3.8513  0.2889 -0.1820
  638SOL     OW 1912   1.189   2.465   2.690 -0.3443  0.2073  0.3274
  638SOL    HW1 1913   1.265   2.530   2.677 -1.5610 -2.1617  0.5208
  638SOL    HW2 1914   1.189   2.420   2.786  0.9200 -3.1995  3.4203
  639SOL     OW 1915   1.627   1.975   0.948 -0.5320  0.1538  0.5792
  639SOL    HW1 1916   1.602   2.013   1.038  0.3525 -2.2084 -0.0273
  639SOL    HW2 1917   1.580   2.019   0.870  1.9171 -1.4409  1.2489
  640SOL     OW 1918   2.166   2.832   0.325  0.3136  0.1049  0.4479
  640SOL    HW1 1919   2.242   2.771   0.288  2.3499  0.1492 -1.3739
  640SOL    HW2 1920   2.077   2.782   0.326 -1.6879  0.5789 -4.6576
  641SOL     OW 1921   2.812   0.605   3.061 -0.0141  0.2147  0.7443
  641SOL    HW1 1922   2.770   0.623   0.011  0.5486  0.7778 -0.6427
  641SOL    HW2 1923   2.749   0.567   2.995  1.5221 -0.9789  0.9712
  642SOL     OW 1924   0.315   0.636   1.170 -0.4717  0.6658 -0.2654
  642SOL    HW1 1925   0.300   0.608   1.270 -0.5585  2.4115  2.2989
  642SOL    HW2 1926   0.338   0.550   1.118  1.3610 -2.4728  0.3194
  643SOL     OW 1927   0.795   1.279   2.497 -0.0665 -0.1701 -0.2570
  643SOL    HW1 1928   0.761   1.192   2.462  1.2368  0.1034  0.2534
  643SOL    HW2 1929   0.760   1.294   2.590  0.1468  3.3081  1.5182
  644SOL     OW 1930   2.009   2.178   0.610  0.3206 -0.1855 -0.3889
  644SOL    HW1 1931   2.081   2.210   0.543  1.6734 -1.1363 -2.0544
  644SOL    HW2 1932   2.053   2.188   0.701 -1.7526 -2.1829  0.4870
  645SOL     OW 1933   1.476   2.314   0.747  0.4253 -0.3600  0.4711
  645SOL    HW1 1934   1.469   2.333   0.849 -2.6821  0.1388 -0.7372
  645SOL    HW2 1935   1.483   2.214   0.731  0.8403 -0.8812 -0.6883
  646SOL     OW 1936   0.345   2.150   2.884 -0.5939 -0.2667 -0.2939
  646SOL    HW1 1937   0.354   2.247   2.856  0.8010 -0.2682 -1.8338
  646SOL    HW2 1938   0.245   2.127   2.882 -1.9486 -0.0813  0.5161
  647SOL     OW 1939   1.425   3.086   1.441  0.4006 -0.3496  0.3912
  647SOL    HW1 1940   1.385   3.000   1.396 -1.1301 -0.8922 -0.3479
  647SOL    HW2 1941   1.426   0.031   1.381  1.7795  1.9654 -2.1585
  648SOL     OW 1942   1.222   0.482   1.057 -0.4892  0.2990  0.5308
  648SOL    HW1 1943   1.252   0.441   1.146 -1.5259  1.5200  0.0480
  648SOL    HW2 1944   1.166   0.410   1.016  2.3447  1.6057 -2.1153
  649SOL     OW 1945   1.327   2.040   0.405 -0.1518  0.4131 -0.7068
  649SOL    HW1 1946   1.363   2.132   0.432 -3.1400  0.0913  0.4050
  649SOL    HW2 1947   1.351   2.016   0.312  1.6878  1.9665  3.2550
  650SOL     OW 1948   2.249   1.761   1.725  0.2109 -0.5715 -0.1326
  650SOL    HW1 1949   2.225   1.798   1.816  0.3297 -1.3210 -0.3608
  650SOL    HW2 1950   2.165   1.768   1.663 -0.9622 -1.5572  1.6095
  651SOL     OW 1951   1.651   2.828   3.070  0.1926 -0.6875  0.3035
  651SOL    HW1 1952   1.681   2.926   3.051 -1.4924  0.5993  0.6034
  651SOL    HW2 1953   1.634   2.782   2.982 -1.1443  1.0054  0.3184
  652SOL     OW 1954   3.001   1.833   0.203  0.3820  0.4477  0.0879
  652SOL    HW1 1955   2.967   1.931   0.224 -1.9051 -0.6521 -1.0687
  652SOL    HW2 1956   3.014   1.794   0.296 -0.4974 -1.8617  1.6132
  653SOL     OW 1957   2.877   3.120   1.183  0.5700  0.6780 -0.2483
  653SOL    HW1 1958   2.878   0.077   1.211 -0.1660 -1.0346 -0.0578
  653SOL    HW2 1959   2.807   3.105   1.111 -0.4028 -0.2474  0.1426
  654SOL     OW 1960   2.921   2.773   1.776 -0.8070  0.6447 -0.1217
  654SOL    HW1 1961   2.991   2.796   1.701  2.6129 -1.4300  0.5281
  654SOL    HW2 1962   2.834   2.820   1.772  3.7679  1.3044 -1.3816
  655SOL     OW 1963   0.280   2.254   0.948 -0.3316 -0.1019  0.4674
  655SOL    HW1 1964   0.353   2.190   0.920 -0.5930  2.6768 -0.5257
  655SOL    HW2 1965   0.211   2.210   1.005  1.1143  1.2235  0.2885
  656SOL     OW 1966   2.825   0.008   2.359  0.0112  0.2567  0.0292
  656SOL    HW1 1967   2.904   0.023   2.427 -0.9662  1.2985  0.4410
  656SOL    HW2 1968   2.802   3.049   2.339  1.3273 -3.5638 -0.7927
  657SOL     OW 1969   0.063   1.340   2.855 -0.2194 -0.6256 -0.4400
  657SOL    HW1 1970   0.078   1.385   2.770 -0.2803 -3.9818  2.2651
  657SOL    HW2 1971   0.082   1.406   2.931 -0.6929 -0.5199 -0.3069
  658SOL     OW 1972   2.714   1.793   1.229 -0.3727  0.5985 -0.8113
  658SOL    HW1 1973   2.715   1.820   1.329  0.0179  2.4199  5.1583
  658SOL    HW2 1974   2.669   1.703   1.223 -2.2312  1.5820 -0.5613
  659SOL     OW 1975   1.500   2.947   0.136  0.4164 -0.1586 -0.5871
  659SOL    HW1 1976   1.574   2.970   0.204  2.5070  2.0234  2.4759
  659SOL    HW2 1977   1.551   2.910   0.051  0.7994  1.6248 -0.1505
  660SOL     OW 1978   1.645   1.450   0.185  1.1635  0.7011  0.3808
  660SOL    HW1 1979   1.632   1.383   0.260 -1.2577  1.2913  2.1593
  660SOL    HW2 1980   1.562   1.451   0.120 -1.8973 -3.3421 -0.6928
  661SOL     OW 1981   0.245   2.177   1.249  0.2047 -0.0612 -0.5162
  661SOL    HW1 1982   0.180   2.134   1.184  1.2825  0.4139  2.1086
  661SOL    HW2 1983   0.206   2.237   1.320  0.8168 -0.2257 -0.6609
  662SOL     OW 1984   0.097   0.711   0.023 -0.4528 -0.2509  0.6744
  662SOL    HW1 1985   0.040   0.635   3.136  2.6479  3.2587  0.9894
  662SOL    HW2 1986   0.173   0.672   0.076  1.9595  0.5383 -0.2665
  663SOL     OW 1987   2.047   1.693   0.979  0.1718 -0.3273  0.1139
  663SOL    HW1 1988   2.047   1.692   0.877 -0.1992 -0.0100  1.1236
  663SOL    HW2 1989   1.979   1.762   1.023 -0.7085  2.6954  0.7815
  664SOL     OW 1990   1.149   1.459   1.404 -0.2535 -0.2159  0.5406
  664SOL    HW1 1991   1.232   1.443   1.348 -0.0495 -1.1635 -1.4916
  664SOL    HW2 1992   1.150   1.394   1.485 -1.0898 -0.6039 -2.5913
  665SOL     OW 1993   2.087   2.565   2.365 -0.7589  0.2963 -0.2829
  665SOL    HW1 1994   2.034   2.613   2.291 -0.0742  1.8874  2.2338
  665SOL    HW2 1995   2.078   2.624   2.445 -0.1664 -0.3776 -1.2117
  666SOL     OW 1996   3.056   2.981   2.946  0.2485 -0.0699  0.7041
  666SOL    HW1 1997   3.041   2.920   2.866  0.7206  1.2548 -0.4945
  666SOL    HW2 1998   2.999   3.063   2.941  0.2396 -1.3261  2.7369
  667SOL     OW 1999   2.334   1.003   2.088  0.7373 -0.4636  0.3258
  667SOL    HW1 2000   2.316   0.974   1.991  1.4471 -2.9081 -2.6152
  667SOL    HW2 2001   2.347   1.103   2.094 -0.8652 -0.4714 -0.5977
  668SOL     OW 2002   0.432   0.923   2.326  0.0857 -0.2297 -0.0728
  668SOL    HW1 2003   0.384   0.907   2.410 -0.3107 -1.3715  0.7589
  668SOL    HW2 2004   0.373   0.923   2.239  1.7262  0.2013 -1.2016
  669SOL     OW 2005   2.236   2.084   2.525 -0.1502  0.5030 -0.1569
  669SOL    HW1 2006   2.287   2.080   2.439  1.7075  0.7365  1.4016
  669SOL    HW2 2007   2.275   2.141   2.603  2.4445 -0.5826  2.0872
  670SOL     OW 2008   2.354   1.294   2.038  0.1555  0.5777 -0.1459
  670SOL    HW1 2009   2.427   1.242   1.991  1.7501 -0.0880  1.2483
  670SOL    HW2 2010   2.279   1.310   1.974  1.6615 -2.5119 -0.6127
  671SOL     OW 2011   2.801   1.058   0.516  0.2290 -0.5930 -0.2513
  671SOL    HW1 2012   2.889   1.010   0.534  1.9370  1.7337  0.2935
  671SOL    HW2 2013   2.813   1.158   0.515 -0.0848 -3.4321 -2.4185
  672SOL     OW 2014   2.393   0.567   2.259  0.1443 -0.0929 -0.6818
  672SOL    HW1 2015   2.293   0.542   2.283 -0.2508  0.2515  2.4026
  672SOL    HW2 2016   2.406   0.669   2.275  1.3200  3.4089  0.4698
  673SOL     OW 2017   2.762   0.135   1.800 -0.0247 -0.3666  0.2985
  673SOL    HW1 2018   2.856   0.180   1.795 -1.7883  0.6654  0.0742
  673SOL    HW2 2019   2.759   0.075   1.881 -0.9564  1.6145 -0.7163
  674SOL     OW 2020   1.765   1.995   1.478  0.4484  0.0031  0.4476
  674SOL    HW1 2021   1.845   2.012   1.416 -0.3847  0.0027 -0.4649
  674SOL    HW2 2022   1.703   2.080   1.495 -1.8144 -0.0966 -0.5690
  675SOL     OW 2023   0.835   0.428   0.619  0.4204 -0.4983 -0.3458
  675SOL    HW1 2024   0.826   0.468   0.712  0.2796  0.9914  2.0117
  675SOL    HW2 2025   0.924   0.373   0.607  0.2212 -1.2384 -1.5273
  676SOL     OW 2026   1.690   0.924   1.011  0.2474 -0.7677 -0.3056
  676SOL    HW1 2027   1.621   0.857   1.035  1.1389 -1.0684 -0.9663
  676SOL    HW2 2028   1.753   0.937   1.096 -0.1049  1.7862  1.4426
  677SOL     OW 2029   2.452   1.331   2.290 -0.3388  0.1590 -0.2185
  677SOL    HW1 2030   2.416   1.323   2.194  3.3741  0.0309 -1.3675
  677SOL    HW2 2031   2.385   1.287   2.354 -2.0677  0.7941 -0.3125
  678SOL     OW 2032   2.961   1.632   1.085 -0.0361 -0.1121  0.1069
  678SOL    HW1 2033   2.978   1.532   1.112 -1.3374  0.3375 -0.2527
  678SOL    HW2 2034   2.879   1.678   1.116  0.5611  0.7055 -0.2363
  679SOL     OW 2035   2.349   2.698   3.059  0.6571  0.8250 -0.2025
  679SOL    HW1 2036   2.350   2.772   2.988 -0.2543  0.6688  1.4807
  679SOL    HW2 2037   2.439   2.653   3.051 -0.8539 -0.5708 -1.0264
  680SOL     OW 2038   0.298   2.031   2.007 -0.3024 -0.1248  0.5119
  680SOL    HW1 2039   0.310   1.933   2.026  1.7944  0.5166 -2.2082
  680SOL    HW2 2040   0.310   2.053   1.908  1.3395  0.0302 -1.7196
  681SOL     OW 2041   0.438   1.096   1.348  0.1906 -0.1144  0.2539
  681SOL    HW1 2042   0.468   1.025   1.279 -1.3806 -0.5785  0.3395
  681SOL    HW2 2043   0.514   1.110   1.416  2.6222  3.5479  2.5675
  682SOL     OW 2044   1.212   2.594   0.900  0.2613  0.1723  0.2688
  682SOL    HW1 2045   1.297   2.601   0.844 -2.7513  0.6766 -1.9855
  682SOL    HW2 2046   1.131   2.614   0.840  1.0359  0.7943 -0.1414
  683SOL     OW 2047   2.370   1.328   0.555 -0.0721 -0.2098  0.0812
  683SOL    HW1 2048   2.387   1.226   0.556 -0.0557  1.3072 -0.1070
  683SOL    HW2 2049   2.451   1.370   0.518  0.5932 -0.3707  0.0372
  684SOL     OW 2050   0.644   1.919   1.935 -0.0183  0.2858  0.4294
  684SOL    HW1 2051   0.571   1.983   1.969 -1.1102 -0.0471  0.5921
  684SOL    HW2 2052   0.618   1.823   1.934 -1.7945  2.6700  0.6137
  685SOL     OW 2053   2.128   1.751   0.174 -0.3866  0.1633 -0.7290
  685SOL    HW1 2054   2.207   1.727   0.114 -0.1896  0.8217  1.8958
  685SOL    HW2 2055   2.051   1.684   0.151 -0.5789 -0.3708  0.0252
  686SOL     OW 2056   0.207   0.804   0.990  0.1314  0.0027 -0.0913
  686SOL    HW1 2057   0.151   0.881   1.030 -2.0171  1.9476  1.0970
  686SOL    HW2 2058   0.227   0.731   1.060 -1.1780  1.4772  0.1780
  687SOL     OW 2059   1.053   2.282   2.854 -0.4699 -0.3236  0.2534
  687SOL    HW1 2060   1.001   2.205   2.897  0.5416 -0.1076  0.8592
  687SOL    HW2 2061   0.993   2.330   2.782 -0.0574  0.9119 -1.4352
  688SOL     OW 2062   2.570   1.673   1.882 -0.1473 -0.1347 -0.4627
  688SOL    HW1 2063   2.659   1.662   1.936 -0.6336 -2.3943 -2.2552
  688SOL    HW2 2064   2.508   1.740   1.929  0.1629  0.2724 -0.4765
  689SOL     OW 2065   2.266   0.595   1.880  0.3457  0.6357  0.0756
  689SOL    HW1 2066   2.358   0.547   1.888  0.5021 -3.2330  1.5087
  689SOL    HW2 2067   2.267   0.688   1.903 -0.6605 -3.5535 -1.5210
  690SOL     OW 2068   2.151   1.125   1.461 -0.3701 -0.6303  0.0683
  690SOL    HW1 2069   2.122   1.113   1.367  0.8608  0.2617  0.1365
  690SOL    HW2 2070   2.193   1.220   1.473  0.8661 -0.5529  1.0434
  691SOL     OW 2071   0.659   1.941   1.642 -0.3012 -0.5250  0.0670
  691SOL    HW1 2072   0.661   1.929   1.744  0.2686  2.0100 -0.7343
  691SOL    HW2 2073   0.739   2.002   1.615  2.4967  0.3028 -2.8586
  692SOL     OW 2074   2.083   0.171   1.374 -0.3362 -0.0028  0.1926
  692SOL    HW1 2075   2.100   0.260   1.417  0.8899 -2.3655 -0.2282
  692SOL    HW2 2076   2.051   0.169   1.278  4.0738  1.4956  0.3587
  693SOL     OW 2077   0.687   1.037   2.440 -0.0511  0.0396  0.1991
  693SOL    HW1 2078   0.749   0.966   2.481  0.5581 -1.0777 -0.0724
  693SOL    HW2 2079   0.605   1.003   2.387  1.1984  0.5855 -0.7153
  694SOL     OW 2080   1.887   2.803   1.025 -0.4733 -0.4786 -0.2041
  694SOL    HW1 2081   1.951   2.731   1.060  2.1222 -1.7428  0.9238
  694SOL    HW2 2082   1.829   2.766   0.952 -0.0825 -0.8755  0.5788
  695SOL     OW 2083   1.269   1.181   1.955 -0.4207  0.3871  0.2378
  695SOL    HW1 2084   1.238   1.182   2.049 -2.0180  0.5591 -3.2786
  695SOL    HW2 2085   1.233   1.256   1.896  1.3323 -2.0135  1.3367
  696SOL     OW 2086   1.560   2.928   0.825 -0.3260  0.0076 -0.0095
  696SOL    HW1 2087   1.484   2.988   0.786  0.9179  1.8954 -1.0606
  696SOL    HW2 2088   1.646   2.944   0.771 -0.9858  2.3568 -1.6406
  697SOL     OW 2089   1.278   0.235   0.770 -0.0065 -0.1985  0.2663
  697SOL    HW1 2090   1.215   0.232   0.845  2.0872 -1.0599 -0.5721
  697SOL    HW2 2091   1.226   0.242   0.683  2.4590 -0.5258 -2.6081
  698SOL     OW 2092   1.793   0.956   2.352  0.3744  0.6373  0.1187
  698SOL    HW1 2093   1.846   0.964   2.263  2.4964 -0.1117  0.3660
  698SOL    HW2 2094   1.727   1.034   2.363 -2.6479 -1.3945 -4.7013
  699SOL     OW 2095   1.366   1.452   1.238  0.2226  0.3222 -0.1019
  699SOL    HW1 2096   1.393   1.356   1.226 -3.4082  0.9798 -2.3143
  699SOL    HW2 2097   1.429   1.505   1.294  0.7151 -0.9517  0.3086
  700SOL     OW 2098   1.496   0.186   0.411 -0.5542 -0.0775 -0.0393
  700SOL    HW1 2099   1.454   0.096   0.399 -0.4817  0.5917 -0.8118
  700SOL    HW2 2100   1.533   0.183   0.509  3.0168  0.3491  0.7533
  701SOL     OW 2101   0.611   0.257   1.633  0.2591 -0.0287 -0.4259
  701SOL    HW1 2102   0.604   0.259   1.534 -0.3256  0.1528 -0.1035
  701SOL    HW2 2103   0.524   0.296   1.673  1.1155  2.1011 -2.8991
  702SOL     OW 2104   1.351   3.100   0.330  0.3615  0.6302 -0.0819
  702SOL    HW1 2105   1.268   0.007   0.293  0.1554  0.8743  3.3446
  702SOL    HW2 2106   1.373   3.020   0.272  2.5099 -1.4889 -0.7275
  703SOL     OW 2107   2.576   2.794   2.395  0.1310  0.3404 -0.3676
  703SOL    HW1 2108   2.559   2.798   2.497  0.1482 -0.5686 -3.1116
  703SOL    HW2 2109   2.493   2.765   2.345  2.5163 -0.6118  1.2027
  704SOL     OW 2110   0.998   2.291   0.754  0.6118  0.4664 -0.0384
  704SOL    HW1 2111   0.916   2.298   0.817 -1.4799 -0.3012  0.4001
  704SOL    HW2 2112   1.085   2.293   0.808 -0.0207  1.2914 -1.8611
  705SOL     OW 2113   0.026   0.670   2.165 -0.4198 -0.2922 -0.2081
  705SOL    HW1 2114   0.080   0.591   2.210  1.7986 -2.0586  0.1981
  705SOL    HW2 2115   0.008   0.733   2.241  1.0915 -0.2985 -1.1096
  706SOL     OW 2116   1.709   0.129   0.250  0.3190  0.1210  0.2833
  706SOL    HW1 2117   1.706   0.029   0.248 -1.0994  3.3277 -0.3680
  706SOL    HW2 2118   1.639   0.162   0.316  1.9915  1.2098 -0.8509
  707SOL     OW 2119   1.444   1.823   2.437  0.3844  0.1414  0.1613
  707SOL    HW1 2120   1.521   1.779   2.488  0.3113  2.3483  0.3345
  707SOL    HW2 2121   1.428   1.776   2.349 -1.0997 -1.7896 -1.4713
  708SOL     OW 2122   2.911   2.155   1.614 -0.2029  0.3515  0.1645
  708SOL    HW1 2123   2.859   2.223   1.674  0.5508  0.1384 -2.1664
  708SOL    HW2 2124   3.008   2.134   1.636  0.9392 -0.4751 -2.5182
  709SOL     OW 2125   2.142   0.370   1.575  0.1588 -0.6073  0.2021
  709SOL    HW1 2126   2.174   0.313   1.654  2.3513  0.5588  1.3010
  709SOL    HW2 2127   2.146   0.469   1.607  2.3227  0.3325 -0.1707
  710SOL     OW 2128   2.869   2.936   1.392  0.2856 -0.3670 -0.0752
  710SOL    HW1 2129   2.795   2.990   1.433  0.9117 -0.5468 -1.0385
  710SOL    HW2 2130   2.901   2.984   1.311 -0.3979 -4.0023  1.4268
  711SOL     OW 2131   0.335   2.320   0.404  0.3912 -0.0853 -0.6985
  711SOL    HW1 2132   0.336   2.406   0.348  0.2720  0.8954 -2.6956
  711SOL    HW2 2133   0.301   2.239   0.351  2.6745 -0.1726  0.5177
  712SOL     OW 2134   0.673   2.218   2.297  0.1992  0.2734  0.3216
  712SOL    HW1 2135   0.583   2.254   2.320  1.9679  1.1371  0.2632
  712SOL    HW2 2136   0.748   2.270   2.348  0.5578  0.0888 -0.5106
  713SOL     OW 2137   2.001   0.655   2.956  0.0049 -0.1088 -0.0879
  713SOL    HW1 2138   2.014   0.561   2.997  0.0933 -0.9248  1.0661
  713SOL    HW2 2139   1.963   0.721   3.028 -0.3268  0.7700  0.9454
  714SOL     OW 2140   1.216   1.862   0.631 -0.2972 -0.1524 -0.1268
  714SOL    HW1 2141   1.184   1.929   0.700 -4.1752 -0.0391 -0.0095
  714SOL    HW2 2142   1.250   1.911   0.551  0.6187  1.3960  2.0262
  715SOL     OW 2143   1.921   0.241   0.591 -0.5679 -0.3103  0.2186
  715SOL    HW1 2144   1.869   0.328   0.607 -0.4608  4.9015 -3.8637
  715SOL    HW2 2145   2.015   0.255   0.551 -2.7549 -0.9753 -1.6427
  716SOL     OW 2146   0.620   0.760   1.943 -0.1531  0.4541 -0.1835
  716SOL    HW1 2147   0.635   0.725   2.038 -1.4810 -0.0626 -1.3718
  716SOL    HW2 2148   0.555   0.844   1.944 -0.5030 -0.2825  0.9876
  717SOL     OW 2149   0.177   0.524   2.923 -0.5160 -0.1625 -0.6079
  717SOL    HW1 2150   0.188   0.594   2.849 -0.5121 -0.6937  3.9097
  717SOL    HW2 2151   0.087   0.527   2.971  1.1257  0.6455 -0.6144
  718SOL     OW 2152   1.263   0.932   0.393  0.0156 -0.0560  0.1478
  718SOL    HW1 2153   1.318   0.958   0.475  1.2035 -1.0065 -1.6789
  718SOL    HW2 2154   1.273   0.829   0.373 -0.4790 -0.4566 -2.4520
  719SOL     OW 2155   2.851   1.806   3.121 -0.3843 -0.5793 -0.6116
  719SOL    HW1 2156   2.779   1.734   3.129 -0.9778  0.8959  1.7381
  719SOL    HW2 2157   2.931   1.788   0.043  0.0821  1.2264  0.3653
  720SOL     OW 2158   1.455   0.901   1.316  0.0557 -0.5193 -0.1661
  720SOL    HW1 2159   1.398   0.899   1.229  1.4936  0.2127 -1.6160
  720SOL    HW2 2160   1.406   0.852   1.387  0.1170 -0.3156  0.3479
  721SOL     OW 2161   2.769   0.593   0.633 -0.2108  0.9592  0.1345
  721SOL    HW1 2162   2.690   0.633   0.582  2.3376  1.3052  2.6432
  721SOL    HW2 2163   2.775   0.649   0.721  1.9911  1.3839  1.0933
  722SOL     OW 2164   1.160   1.705   2.732  0.1374 -0.0165 -0.0494
  722SOL    HW1 2165   1.147   1.802   2.771 -1.4579  0.1744 -0.5354
  722SOL    HW2 2166   1.081   1.641   2.753 -2.3286 -2.4019 -2.1271
  723SOL     OW 2167   0.611   0.827   0.435 -0.4719  0.4692 -0.3150
  723SOL    HW1 2168   0.628   0.924   0.405  1.7694  3.0541  2.5328
  723SOL    HW2 2169   0.525   0.818   0.490  0.6535 -1.1912  4.5670
  724SOL     OW 2170   1.079   2.004   1.811  0.7783 -0.0094 -0.8117
  724SOL    HW1 2171   1.000   1.988   1.748 -1.3831  1.7572 -1.4160
  724SOL    HW2 2172   1.040   2.014   1.907 -0.6204 -2.7934  3.8757
  725SOL     OW 2173   3.072   1.075   1.492 -0.5649 -0.1092  0.2329
  725SOL    HW1 2174   0.003   1.009   1.522  2.3057  0.1717  2.2097
  725SOL    HW2 2175   3.049   1.133   1.575 -0.8194 -2.3992  0.8224
  726SOL     OW 2176   1.741   3.018   0.282  0.3045 -0.0420  0.2547
  726SOL    HW1 2177   1.784   3.045   0.370 -1.4377 -2.6736  1.8991
  726SOL    HW2 2178   1.780   2.935   0.245  1.9710  1.4984  2.0072
  727SOL     OW 2179   1.375   1.012   2.486  0.5913  0.4139  0.0904
  727SOL    HW1 2180   1.311   1.021   2.565 -1.3843  1.8524  2.1353
  727SOL    HW2 2181   1.401   0.912   2.460  2.7937 -2.7250 -1.6000
  728SOL     OW 2182   1.297   2.778   1.369 -0.2431  0.1250  0.1348
  728SOL    HW1 2183   1.296   2.814   1.276 -2.6786  2.8450  2.0757
  728SOL    HW2 2184   1.378   2.725   1.389 -2.2609  0.8124  0.4387
  729SOL     OW 2185   1.480   0.607   1.381  0.5690  1.0258 -0.0543
  729SOL    HW1 2186   1.518   0.514   1.407 -1.1106 -1.0168  0.4426
  729SOL    HW2 2187   1.491   0.639   1.284 -0.7542 -0.6269  1.2286
  730SOL     OW 2188   0.919   2.017   2.020 -0.2550 -0.1185 -0.2043
  730SOL    HW1 2189   0.931   2.107   2.070 -1.7483 -2.6743 -0.7512
  730SOL    HW2 2190   0.839   2.004   1.961  3.6103 -0.8824  2.2132
  731SOL     OW 2191   0.366   0.137   0.374  0.1490 -0.2478  0.1777
  731SOL    HW1 2192   0.404   0.233   0.388 -1.0153  0.5688  0.3330
  731SOL    HW2 2193   0.428   0.058   0.360 -0.8305 -2.2094 -0.4224
  732SOL     OW 2194   0.580   0.362   3.073  0.1681  0.0690 -0.0831
  732SOL    HW1 2195   0.640   0.337   0.012 -0.7760  1.0265  1.1461
  732SOL    HW2 2196   0.480   0.384   3.102 -0.0081 -1.6789  0.5793
  733SOL     OW 2197   1.316   2.409   1.238 -0.4326  0.2957 -0.5938
  733SOL    HW1 2198   1.305   2.338   1.311 -1.4222  1.8007 -0.9882
  733SOL    HW2 2199   1.226   2.453   1.217  1.1893 -2.8316 -0.2898
  734SOL     OW 2200   3.032   2.454   2.601 -0.0863 -0.2367 -0.2190
  734SOL    HW1 2201   3.115   2.395   2.606 -1.4262  1.3708  0.3161
  734SOL    HW2 2202   3.017   2.510   2.685 -2.1164 -1.3550 -1.6332
  735SOL     OW 2203   0.788   2.969   0.889  0.0607  0.1196  0.0004
  735SOL    HW1 2204   0.788   2.994   0.989 -0.5598 -1.8720  0.3016
  735SOL    HW2 2205   0.865   2.900   0.872  1.3268 -0.6230  0.3562
  736SOL     OW 2206   1.589   1.071   2.913 -0.0439 -0.3658 -0.2210
  736SOL    HW1 2207   1.607   1.027   2.824  2.1200 -0.7275 -0.1913
  736SOL    HW2 2208   1.580   1.003   2.985  0.6176  1.0961 -1.3487
  737SOL     OW 2209   0.030   0.278   0.639  0.4279 -0.2877 -0.4031
  737SOL    HW1 2210   0.086   0.193   0.631 -0.7611  1.8857  0.3789
  737SOL    HW2 2211   3.069   0.254   0.634  0.1342  0.8259 -1.3323
  738SOL     OW 2212   2.676   2.515   1.473  0.4832 -0.3464  0.3486
  738SOL    HW1 2213   2.715   2.421   1.465  0.2370  0.9345  0.1201
  738SOL    HW2 2214   2.751   2.582   1.463  2.2656 -0.9344  1.4612
  739SOL     OW 2215   1.297   2.697   0.474 -0.0264 -0.0826 -0.8186
  739SOL    HW1 2216   1.270   2.790   0.511  1.0078  3.1439 -2.0636
  739SOL    HW2 2217   1.324   2.634   0.553  1.9714 -0.6108  1.0813
  740SOL     OW 2218   1.661   0.081   1.050  0.7373  0.0201  0.3012
  740SOL    HW1 2219   1.607   3.136   1.070  2.3885  2.1601 -2.1919
  740SOL    HW2 2220   1.676   0.101   0.948 -0.3450 -0.9853 -1.0113
  741SOL     OW 2221   2.124   0.499   0.787  0.1634 -0.1542 -0.3615
  741SOL    HW1 2222   2.180   0.583   0.788 -0.2257  0.1553  1.7766
  741SOL    HW2 2223   2.027   0.515   0.759  3.4663 -0.5054 -0.6638
  742SOL     OW 2224   1.408   2.194   2.136 -0.1275  0.2856  0.4143
  742SOL    HW1 2225   1.472   2.178   2.214  1.4788  0.8429 -1.4593
  742SOL    HW2 2226   1.452   2.251   2.065  2.7350 -0.2461 -1.3860
  743SOL     OW 2227   2.482   0.455   2.030  0.1227 -0.1670 -0.2693
  743SOL    HW1 2228   2.540   0.512   1.966 -0.1008 -1.5496  0.2587
  743SOL    HW2 2229   2.474   0.490   2.124  0.9042 -0.5809  2.3158
  744SOL     OW 2230   2.239   0.686   1.291 -0.2896 -0.0728 -0.6944
  744SOL    HW1 2231   2.229   0.716   1.389  2.8501 -4.1896  2.8441
  744SOL    HW2 2232   2.278   0.761   1.234 -0.6995  0.3665  0.0019
  745SOL     OW 2233   2.150   1.370   1.867 -0.0616 -0.0124 -0.3276
  745SOL    HW1 2234   2.058   1.342   1.907  0.8826 -0.5444 -2.2863
  745SOL    HW2 2235   2.160   1.471   1.856  0.3093  0.2443 -0.8073
  746SOL     OW 2236   1.202   1.461   0.595  0.0128  0.4609 -0.2845
  746SOL    HW1 2237   1.267   1.533   0.632 -1.0209  0.4302 -1.7898
  746SOL    HW2 2238   1.106   1.484   0.617  1.8321  0.4462 -0.5092
  747SOL     OW 2239   1.710   1.358   1.174 -0.0803 -0.3915  0.4779
  747SOL    HW1 2240   1.731   1.307   1.089 -0.6316 -0.7322  2.2566
  747SOL    HW2 2241   1.782   1.337   1.242 -0.4382  1.3029  0.3298
  748SOL     OW 2242   2.912   3.113   0.590 -0.0714 -0.3750  0.4383
  748SOL    HW1 2243   2.854   0.060   0.582 -1.3864  3.1057  0.4688
  748SOL    HW2 2244   2.962   3.113   0.677  1.3283  1.4469 -1.0691
  749SOL     OW 2245   0.007   0.310   2.038 -0.7418  0.0946 -0.4185
  749SOL    HW1 2246   0.035   0.215   2.019 -0.3764 -0.3061  1.2813
  749SOL    HW2 2247   0.080   0.356   2.092 -0.6712 -0.0218  1.6870
  750SOL     OW 2248   1.845   0.031   1.449 -0.2300  0.2029  0.2034
  750SOL    HW1 2249   1.933   0.085   1.438 -3.0393  1.1192  0.8401
  750SOL    HW2 2250   1.819   3.115   1.370 -0.3861 -1.5394  1.7224
  751SOL     OW 2251   2.856   0.306   0.633 -0.6078 -0.0275 -0.1346
  751SOL    HW1 2252   2.831   0.405   0.623 -1.4487 -0.7815 -1.4262
  751SOL    HW2 2253   2.847   0.281   0.734 -2.2229 -1.5894  0.9592
  752SOL     OW 2254   0.355   2.739   1.159 -0.5054 -0.0200  0.3776
  752SOL    HW1 2255   0.437   2.688   1.196 -0.4490  1.3747  1.2411
  752SOL    HW2 2256   0.308   2.690   1.078  0.3059  0.5685  0.2278
  753SOL     OW 2257   1.445   0.349   1.801 -0.2752 -0.2126  0.2432
  753SOL    HW1 2258   1.356   0.375   1.761 -1.0170  0.4121  2.5723
  753SOL    HW2 2259   1.498   0.434   1.821  1.0004 -0.8383  0.2226
  754SOL     OW 2260   1.367   2.767   1.753  0.1124 -0.1645  0.2075
  754SOL    HW1 2261   1.431   2.814   1.691 -0.9869  0.9192 -0.1599
  754SOL    HW2 2262   1.405   2.755   1.849 -0.6097 -2.2668  1.2713
  755SOL     OW 2263   3.060   0.960   0.565  0.1697  0.3353 -0.0546
  755SOL    HW1 2264   3.043   0.994   0.659 -2.6687  0.1582 -0.4563
  755SOL    HW2 2265   3.107   0.868   0.571 -1.3050 -2.8085 -0.8088
  756SOL     OW 2266   2.171   1.935   2.860  0.2122  0.2303 -0.0656
  756SOL    HW1 2267   2.169   1.845   2.898  1.4076  0.4396 -0.7720
  756SOL    HW2 2268   2.103   1.999   2.902  0.5372  0.0098 -0.6857
  757SOL     OW 2269   1.837   0.058   0.812  0.1692  0.4302 -0.7536
  757SOL    HW1 2270   1.840   0.124   0.734 -1.2655 -1.1187  0.7579
  757SOL    HW2 2271   1.832   3.102   0.777  0.6738 -1.5775 -0.2940
  758SOL     OW 2272   0.983   2.774   0.892  0.5746  0.4535 -0.1496
  758SOL    HW1 2273   0.938   2.716   0.966 -0.1552 -1.9829  1.4131
  758SOL    HW2 2274   0.991   2.730   0.806 -1.1408  1.3671  0.3753
  759SOL     OW 2275   2.895   0.540   1.179 -0.2525 -0.0440 -0.0493
  759SOL    HW1 2276   2.978   0.568   1.127  0.1404 -0.1440 -1.8141
  759SOL    HW2 2277   2.810   0.591   1.152 -0.5592 -0.7430  2.2105
  760SOL     OW 2278   2.327   1.352   1.079 -0.4196 -0.2162 -0.3169
  760SOL    HW1 2279   2.366   1.322   1.165 -0.4796 -2.1398 -0.3850
  760SOL    HW2 2280   2.245   1.405   1.098 -0.7747 -3.2189  2.3118
  761SOL     OW 2281   0.825   0.860   0.965 -0.3101 -0.0348 -0.8350
  761SOL    HW1 2282   0.752   0.827   0.898  1.3769 -1.0313 -0.3568
  761SOL    HW2 2283   0.883   0.781   0.999  2.4448 -1.9592 -0.7899
  762SOL     OW 2284   2.081   1.873   1.456 -0.0276 -0.7320 -0.1746
  762SOL    HW1 2285   2.125   1.813   1.384 -2.9432  1.1453  0.0234
  762SOL    HW2 2286   2.011   1.822   1.513 -0.5702  1.2619 -0.1505
  763SOL     OW 2287   1.421   1.637   1.952  0.0807  0.1619 -0.5226
  763SOL    HW1 2288   1.433   1.627   2.054  1.4117  1.3196 -1.0547
  763SOL    HW2 2289   1.376   1.724   1.927  0.2538  2.0986 -0.0060
  764SOL     OW 2290   0.147   1.978   2.344  0.4255 -0.6142 -0.4227
  764SOL    HW1 2291   0.110   2.074   2.368 -0.7037  1.9209  1.2314
  764SOL    HW2 2292   0.248   1.978   2.337 -2.5996  0.9357  0.2051
  765SOL     OW 2293   0.802   2.773   1.288 -0.2994  0.2546  0.0262
  765SOL    HW1 2294   0.880   2.752   1.353  1.3229  0.8259  0.6866
  765SOL    HW2 2295   0.762   2.863   1.310  1.1845  1.1783  1.1602
  766SOL     OW 2296   0.809   2.341   2.695 -0.5323 -0.5470  0.0229
  766SOL    HW1 2297   0.765   2.249   2.706 -0.5486 -0.4661 -2.8100
  766SOL    HW2 2298   0.766   2.416   2.750 -0.9221  0.9669  0.1373
  767SOL     OW 2299   1.568   0.936   2.660 -0.3090  0.1718 -0.3170
  767SOL    HW1 2300   1.496   0.884   2.718 -1.5205  0.4761 -0.5010
  767SOL    HW2 2301   1.524   0.978   2.575  1.3478  1.3502  2.1071
  768SOL     OW 2302   1.346   2.513   2.993 -0.0439  0.1047  0.2728
  768SOL    HW1 2303   1.430   2.546   2.942  1.5453  2.0575  1.2419
  768SOL    HW2 2304   1.339   2.412   2.994  0.7540 -0.8582  0.4301
  769SOL     OW 2305   0.114   2.696   1.392 -0.4529  0.5189 -0.5068
  769SOL    HW1 2306   0.080   2.690   1.301  1.6443 -0.8367  3.5176
  769SOL    HW2 2307   0.193   2.637   1.412 -1.6265  0.6359 -3.7328
  770SOL     OW 2308   0.960   0.141   2.734  0.1834  0.3615 -0.2242
  770SOL    HW1 2309   0.878   0.078   2.731  0.7599  0.9766 -1.6454
  770SOL    HW2 2310   0.993   0.156   2.832 -1.8113  2.3839  3.5688
  771SOL     OW 2311   0.700   2.996   2.522  0.4985 -0.1234 -0.0447
  771SOL    HW1 2312   0.615   3.012   2.466  1.3474 -1.9496 -0.3950
  771SOL    HW2 2313   0.782   2.996   2.462  2.6903  0.2615 -1.6620
  772SOL     OW 2314   2.403   3.060   1.999 -1.1969 -0.1497 -0.3021
  772SOL    HW1 2315   2.445   0.012   1.983 -0.4976 -0.0632 -1.6230
  772SOL    HW2 2316   2.443   2.979   1.948 -0.2839 -0.0364 -0.5790
  773SOL     OW 2317   0.798   2.308   1.817  0.5149 -0.0582 -0.6985
  773SOL    HW1 2318   0.824   2.399   1.846  0.3479 -0.8698 -0.6358
  773SOL    HW2 2319   0.762   2.255   1.899  1.8344  0.0751 -0.8219
  774SOL     OW 2320   1.336   0.316   2.081  0.2466 -0.0628  0.2195
  774SOL    HW1 2321   1.326   0.220   2.120  1.5472 -1.0415  2.7024
  774SOL    HW2 2322   1.366   0.312   1.982 -0.1197 -1.6091  2.6678
  775SOL     OW 2323   2.269   2.959   2.964  0.3461 -0.1366  0.3211
  775SOL    HW1 2324   2.172   2.954   2.991 -1.1216  2.1937  0.3390
  775SOL    HW2 2325   2.280   3.003   2.876 -2.4536 -0.7545 -2.4910
  776SOL     OW 2326   1.928   0.526   2.202  0.0141  0.0195 -0.2732
  776SOL    HW1 2327   1.996   0.553   2.275  1.6225 -0.3175  2.4992
  776SOL    HW2 2328   1.982   0.451   2.154 -3.6009  1.7551 -1.5396
  777SOL     OW 2329   2.676   0.972   2.370  0.2622 -0.6837  0.1090
  777SOL    HW1 2330   2.659   1.066   2.408  1.6236  1.3547 -0.8099
  777SOL    HW2 2331   2.588   0.937   2.322 -0.1281 -1.2174 -2.5002
  778SOL     OW 2332   2.157   0.567   2.379 -0.4153  0.2038 -0.3595
  778SOL    HW1 2333   2.122   0.660   2.359  0.4376 -0.4033 -2.4338
  778SOL    HW2 2334   2.152   0.550   2.477  0.5377  1.4032 -0.9680
  779SOL     OW 2335   3.081   0.248   0.029  0.4654  0.2272 -0.1241
  779SOL    HW1 2336   3.037   0.280   0.112  1.0132  0.6380  2.7721
  779SOL    HW2 2337   0.033   0.218   0.055 -2.1896  1.2264 -1.7020
  780SOL     OW 2338   2.344   0.359   2.745 -0.3029  0.0606 -0.0598
  780SOL    HW1 2339   2.413   0.337   2.673  0.7381 -1.0712 -1.7045
  780SOL    HW2 2340   2.283   0.432   2.719  1.2392  0.0538 -1.3700
  781SOL     OW 2341   0.353   2.846   1.548  0.4774  0.2681 -0.3674
  781SOL    HW1 2342   0.318   2.875   1.460  0.0035  0.3281  2.2442
  781SOL    HW2 2343   0.441   2.793   1.540  0.0858  0.1593  0.5461
  782SOL     OW 2344   1.789   2.426   0.400  0.4685  0.5229 -0.8328
  782SOL    HW1 2345   1.698   2.388   0.376  3.5713 -3.3504  0.8944
  782SOL    HW2 2346   1.804   2.423   0.502 -0.7990 -0.1867  1.2634
  783SOL     OW 2347   0.644   1.486   1.711 -0.4767 -0.5358 -0.0755
  783SOL    HW1 2348   0.695   1.551   1.767 -0.1289  0.0728  0.1137
  783SOL    HW2 2349   0.676   1.388   1.734 -0.3959 -0.2048  1.0561
  784SOL     OW 2350   1.561   0.811   2.022  0.1050 -0.0038 -0.0834
  784SOL    HW1 2351   1.564   0.910   2.012 -3.9160 -1.8753  2.5546
  784SOL    HW2 2352   1.652   0.768   2.050  1.0399  0.0195 -0.5265
  785SOL     OW 2353   2.833   0.238   0.933 -0.7620 -0.9308  0.0060
  785SOL    HW1 2354   2.864   0.231   1.028  1.3725  0.8795 -1.1644
  785SOL    HW2 2355   2.732   0.237   0.921  1.9334 -0.5471  0.2955
  786SOL     OW 2356   1.827   0.296   1.077 -0.2758  0.6947 -0.6821
  786SOL    HW1 2357   1.925   0.269   1.061  1.0163  1.1424  0.6362
  786SOL    HW2 2358   1.767   0.214   1.061 -0.1982  0.2376  0.2857
  787SOL     OW 2359   1.476   0.155   1.246  0.4179 -0.3917 -0.1619
  787SOL    HW1 2360   1.393   0.211   1.232  2.0957  1.0569  1.2435
  787SOL    HW2 2361   1.542   0.166   1.164 -0.0768 -0.7167 -2.4745
  788SOL     OW 2362   0.000   0.736   0.400 -0.1296  0.3226  0.1213
  788SOL    HW1 2363   0.001   0.717   0.500 -1.2444 -1.1510  2.6963
  788SOL    HW2 2364   0.037   0.655   0.346 -1.1555 -1.0193 -0.1523
  789SOL     OW 2365   0.506   1.179   2.057 -0.2651 -0.2653 -0.2019
  789SOL    HW1 2366   0.600   1.161   2.091 -2.5882  0.3610 -0.8075
  789SOL    HW2 2367   0.482   1.279   2.059 -2.1749 -0.1614  0.0736
  790SOL     OW 2368   0.418   0.592   2.673  0.0241 -0.4445 -0.2299
  790SOL    HW1 2369   0.498   0.635   2.716 -0.1240  0.1366 -1.1436
  790SOL    HW2 2370   0.337   0.646   2.697  4.2965 -0.1496 -0.3142
  791SOL     OW 2371   2.299   0.702   0.361  0.0963  0.4184  0.5704
  791SOL    HW1 2372   2.221   0.764   0.380 -1.4991 -0.5647 -0.3078
  791SOL    HW2 2373   2.283   0.610   0.403 -0.0470  1.2607  2.1644
  792SOL     OW 2374   1.057   0.123   1.354 -0.9261  0.0950  0.4876
  792SOL    HW1 2375   0.981   0.189   1.366  1.4550 -3.3950  1.2505
  792SOL    HW2 2376   1.092   0.087   1.443 -2.1802  0.1612 -4.0698
  793SOL     OW 2377   0.289   2.954   1.306  0.8074 -0.4906 -0.1136
  793SOL    HW1 2378   0.323   2.881   1.246  1.5126 -0.8009  0.8898
  793SOL    HW2 2379   0.185   2.957   1.303 -1.6383  0.9221 -0.1023
  794SOL     OW 2380   0.317   0.446   2.391  0.8687 -0.3294 -0.0748
  794SOL    HW1 2381   0.345   0.454   2.488 -0.2519 -2.5967 -1.8344
  794SOL    HW2 2382   0.404   0.439   2.333 -0.9303 -1.5038 -2.1655
  795SOL     OW 2383   0.520   2.462   2.555 -0.4191 -0.1145  0.2733
  795SOL    HW1 2384   0.585   2.518   2.495 -0.9335 -1.4218 -1.2879
  795SOL    HW2 2385   0.542   2.466   2.654  0.9607 -2.7301 -1.8588
  796SOL     OW 2386   2.139   0.543   2.649 -0.4381 -0.5713  0.2779
  796SOL    HW1 2387   2.109   0.637   2.678  2.2553 -0.9343  1.4755
  796SOL    HW2 2388   2.077   0.465   2.676 -0.4588  2.9227  0.1937
  797SOL     OW 2389   2.791   2.215   2.918 -0.4144  0.3410  0.1503
  797SOL    HW1 2390   2.848   2.275   2.978 -0.4474  2.1282  3.2335
  797SOL    HW2 2391   2.763   2.129   2.971  0.2242  0.7548  0.8191
  798SOL     OW 2392   0.155   0.478   1.728  0.4577  0.1826 -0.0705
  798SOL    HW1 2393   0.233   0.413   1.755  0.9046  3.3124 -0.0169
  798SOL    HW2 2394   0.120   0.526   1.807  1.2125 -0.5827 -0.6210
  799SOL     OW 2395   0.815   0.377   1.763 -0.2506  0.1392  0.1623
  799SOL    HW1 2396   0.792   0.399   1.861  0.5823  0.3572  1.1982
  799SOL    HW2 2397   0.743   0.322   1.718 -1.2342  1.7354  1.6319
  800SOL     OW 2398   3.052   2.623   0.337 -0.7959  0.2098  0.2143
  800SOL    HW1 2399   3.013   2.637   0.246 -0.5808 -1.0172  0.6777
  800SOL    HW2 2400   3.111   2.537   0.335  1.0130  0.4857 -1.2481
  801SOL     OW 2401   1.858   1.875   1.060 -0.2628  0.1382  0.2507
  801SOL    HW1 2402   1.792   1.934   1.010  0.2300  1.0611 -0.4273
  801SOL    HW2 2403   1.907   1.928   1.131 -1.3344 -0.8105 -2.2009
  802SOL     OW 2404   0.531   0.425   0.388  0.4401 -0.1189 -0.2901
  802SOL    HW1 2405   0.495   0.481   0.467 -0.6415 -0.3752  1.9105
  802SOL    HW2 2406   0.515   0.471   0.302  0.2282 -3.3304  2.6922
  803SOL     OW 2407   1.200   1.181   2.217 -0.1864  0.4790  0.8681
  803SOL    HW1 2408   1.250   1.112   2.273  1.3089 -1.5762  0.5870
  803SOL    HW2 2409   1.144   1.245   2.273  3.3483 -0.1124  0.7791
  804SOL     OW 2410   2.152   2.164   0.854 -0.2060 -0.3289 -0.0143
  804SOL    HW1 2411   2.133   2.174   0.952 -1.9169  1.7023 -1.8397
  804SOL    HW2 2412   2.183   2.072   0.824 -0.8936  0.9794 -1.2115
  805SOL     OW 2413   0.377   1.928   2.679 -0.4345  0.4732  0.6593
  805SOL    HW1 2414   0.366   2.001   2.754  0.6370  0.4685  2.3832
  805SOL    HW2 2415   0.361   1.972   2.588  3.2969 -0.3001  1.9472
  806SOL     OW 2416   0.638   2.558   0.258 -0.0601  0.2731  0.0076
  806SOL    HW1 2417   0.636   2.597   0.351  0.4662  1.8064 -0.3162
  806SOL    HW2 2418   0.729   2.576   0.214 -1.4034 -3.3310  1.5560
  807SOL     OW 2419   2.606   1.313   2.716  0.0463 -0.6770  0.3447
  807SOL    HW1 2420   2.686   1.284   2.774 -1.8576 -1.0202 -0.8961
  807SOL    HW2 2421   2.518   1.300   2.769  1.6508 -2.8047  0.2251
  808SOL     OW 2422   1.479   2.310   1.050  0.5600  0.0884 -0.0288
  808SOL    HW1 2423   1.490   2.213   1.082  1.6483  1.6180 -0.1609
  808SOL    HW2 2424   1.424   2.356   1.125 -0.9172 -0.0702  0.6902
  809SOL     OW 2425   0.210   0.402   0.478  0.1341 -0.5006 -0.6825
  809SOL    HW1 2426   0.287   0.443   0.532 -1.0794  1.4493 -0.6350
  809SOL    HW2 2427   0.143   0.351   0.537  3.0061 -1.3967  1.0700
  810SOL     OW 2428   1.391   1.539   0.097 -0.0085  0.7643 -0.1988
  810SOL    HW1 2429   1.406   1.601   0.015  1.4120  2.5820 -2.4864
  810SOL    HW2 2430   1.361   1.588   0.179  1.5459  3.2060  0.6533
  811SOL     OW 2431   1.628   2.786   1.239 -0.8400 -0.9559 -0.6196
  811SOL    HW1 2432   1.676   2.774   1.332  0.0161 -3.6168  0.3221
  811SOL    HW2 2433   1.626   2.882   1.214 -0.8284  1.0595  0.7813
  812SOL     OW 2434   1.524   2.996   1.096 -0.6389  0.3050  0.1679
  812SOL    HW1 2435   1.528   2.988   0.995  0.1184  3.5178  1.1635
  812SOL    HW2 2436   1.452   2.939   1.133  2.5250 -0.6822  0.7622
  813SOL     OW 2437   1.235   0.031   1.874  0.2931 -0.2686 -0.3644
  813SOL    HW1 2438   1.149   0.078   1.841 -1.3637  2.1177  0.0290
  813SOL    HW2 2439   1.313   0.071   1.823 -2.6696  0.0720  3.1087
  814SOL     OW 2440   0.973   2.571   2.087 -0.6680 -0.3875  0.1898
  814SOL    HW1 2441   0.936   2.551   1.993  0.5900  2.5514  1.5305
  814SOL    HW2 2442   1.053   2.515   2.110  0.6992  0.3814  1.0127
  815SOL     OW 2443   0.373   3.131   2.886 -0.0167 -0.1386 -0.0213
  815SOL    HW1 2444   0.400   3.047   2.845 -2.7659  2.7909  2.3036
  815SOL    HW2 2445   0.443   0.066   2.875 -3.1798  1.6887  0.9047
  816SOL     OW 2446   2.331   1.127   3.102  0.4398 -0.4468  0.2642
  816SOL    HW1 2447   2.389   1.208   3.078  0.9653  1.5269 -2.0460
  816SOL    HW2 2448   2.372   1.042   3.068 -0.3873 -1.0195  1.1765
  817SOL     OW 2449   2.774   2.346   2.561  0.3944 -0.1159  0.2347
  817SOL    HW1 2450   2.708   2.422   2.579  3.9994  1.3385 -1.3412
  817SOL    HW2 2451   2.871   2.376   2.581 -1.3145 -0.0797  1.4405
  818SOL     OW 2452   0.750   1.390   0.459 -0.0287 -0.1736 -0.5486
  818SOL    HW1 2453   0.653   1.365   0.481 -0.1184 -1.0213 -1.9936
  818SOL    HW2 2454   0.809   1.308   0.431 -0.3404  0.2829 -1.6706
  819SOL     OW 2455   1.946   1.272   2.726  0.3044  0.1557 -0.1210
  819SOL    HW1 2456   1.965   1.192   2.657 -0.1126 -0.4420 -0.1363
  819SOL    HW2 2457   1.931   1.226   2.816 -1.6348  2.4586  0.3739
  820SOL     OW 2458   0.613   1.099   0.343 -0.3069 -0.2304  0.2353
  820SOL    HW1 2459   0.591   1.154   0.423  0.2423 -0.1875 -1.6289
  820SOL    HW2 2460   0.538   1.092   0.275  1.0152  1.9065  2.4292
  821SOL     OW 2461   0.467   2.939   0.991  0.3501  0.1036  0.0724
  821SOL    HW1 2462   0.557   2.898   0.961  0.7135 -0.8528  0.0931
  821SOL    HW2 2463   0.411   2.877   1.050  0.0026  0.6784 -1.1960
  822SOL     OW 2464   2.084   2.290   2.939  0.1470 -0.0919  0.2741
  822SOL    HW1 2465   2.184   2.311   2.954  2.8570  2.1215  2.4189
  822SOL    HW2 2466   2.029   2.374   2.974 -2.1336  3.2938  4.2390
  823SOL     OW 2467   1.238   0.424   2.480  0.5038 -1.0592  0.1294
  823SOL    HW1 2468   1.327   0.386   2.445 -0.2866  1.6308  3.1128
  823SOL    HW2 2469   1.231   0.431   2.582 -1.1611 -0.4489  1.7720
  824SOL     OW 2470   2.343   2.784   1.664 -0.3539 -0.6219  0.3546
  824SOL    HW1 2471   2.415   2.809   1.733  2.0691 -2.6616  0.1038
  824SOL    HW2 2472   2.290   2.869   1.648  1.1570 -0.9539  3.3061
  825SOL     OW 2473   0.411   1.998   2.377  0.0270  0.4515 -0.1632
  825SOL    HW1 2474   0.499   1.949   2.352  0.2212 -0.0980  0.7528
  825SOL    HW2 2475   0.414   2.098   2.378  2.2025 -2.2705 -1.6194
  826SOL     OW 2476   1.536   0.410   0.205  0.3689  0.4572 -0.4068
  826SOL    HW1 2477   1.629   0.448   0.175  3.0898 -0.8623  2.5884
  826SOL    HW2 2478   1.546   0.353   0.292  0.0517 -3.0992  0.2928
  827SOL     OW 2479   0.073   1.736   1.957 -0.3563  0.2498 -0.3121
  827SOL    HW1 2480   0.038   1.644   1.945 -0.5429  3.3980  1.4114
  827SOL    HW2 2481   0.085   1.779   1.867 -1.4224  0.0377 -2.1494
  828SOL     OW 2482   0.057   0.077   1.357 -0.1992  0.2824  0.2455
  828SOL    HW1 2483   3.124   0.125   1.414 -2.4106  3.4273  0.4194
  828SOL    HW2 2484   0.150   0.095   1.393 -2.7293 -3.3609 -2.3294
  829SOL     OW 2485   1.083   1.887   2.423  0.0016  0.3146 -0.1707
  829SOL    HW1 2486   1.166   1.946   2.429  2.8459 -0.9849  2.5748
  829SOL    HW2 2487   1.012   1.918   2.491 -0.3267 -1.0432  2.5475
  830SOL     OW 2488   0.652   0.841   1.545  0.2765 -0.0397  0.2964
  830SOL    HW1 2489   0.704   0.831   1.453  2.6089  1.8845 -0.1196
  830SOL    HW2 2490   0.585   0.765   1.569 -2.1049  2.6255  0.3647
  831SOL     OW 2491   2.678   1.606   0.002 -0.4307 -0.3731  0.2439
  831SOL    HW1 2492   2.732   1.522   3.114  1.8316  0.9864  0.2281
  831SOL    HW2 2493   2.624   1.583   0.086 -1.7586 -0.8299  0.6090
  832SOL     OW 2494   1.296   2.243   2.968 -0.3915  0.7457 -0.3513
  832SOL    HW1 2495   1.194   2.250   2.953  0.9389  2.6422  0.1479
  832SOL    HW2 2496   1.338   2.185   2.895 -0.0336  1.8163 -0.4625
  833SOL     OW 2497   0.397   0.370   1.766  0.1722 -0.5651  0.2084
  833SOL    HW1 2498   0.444   0.429   1.834  0.7323  2.3285 -0.1287
  833SOL    HW2 2499   0.366   0.280   1.807 -0.8575 -0.2228  0.6744
  834SOL     OW 2500   0.045   0.839   1.258  0.4696 -0.1759 -0.5471
  834SOL    HW1 2501   0.117   0.866   1.324 -1.7968  0.7263  1.0754
  834SOL    HW2 2502   0.006   0.916   1.203  2.8508 -1.3617  1.1340
  835SOL     OW 2503   2.555   0.704   0.471 -0.3702 -0.1645 -0.1857
  835SOL    HW1 2504   2.620   0.778   0.441  3.6233 -0.5877  1.1239
  835SOL    HW2 2505   2.476   0.707   0.410 -0.2906 -0.1324 -0.3400
  836SOL     OW 2506   0.753   2.260   0.373  0.0753  0.3362 -0.2896
  836SOL    HW1 2507   0.783   2.348   0.338 -0.6439  0.8890  1.3434
  836SOL    HW2 2508   0.816   2.223   0.448 -0.9101  0.7852  1.0602
  837SOL     OW 2509   1.757   1.789   0.450  0.1972  0.2887 -0.0694
  837SOL    HW1 2510   1.744   1.832   0.356 -1.1805 -2.8030 -2.8262
  837SOL    HW2 2511   1.674   1.730   0.469 -0.4739 -1.3275  2.4556
  838SOL     OW 2512   1.875   1.055   2.082 -0.0636  0.0742 -0.5486
  838SOL    HW1 2513   1.941   0.976   2.057  0.1358 -1.1630 -0.4961
  838SOL    HW2 2514   1.785   1.040   2.051  1.3605  2.2887  3.1397
  839SOL     OW 2515   1.158   1.315   2.696  0.0119 -0.0798 -0.5241
  839SOL    HW1 2516   1.248   1.309   2.742  1.5365 -1.8130 -0.2180
  839SOL    HW2 2517   1.165   1.358   2.601  0.2216  1.6436 -2.9907
  840SOL     OW 2518   0.882   1.281   0.123  0.5000  0.2452 -0.0862
  840SOL    HW1 2519   0.895   1.237   0.215 -2.7845 -1.2211 -0.7668
  840SOL    HW2 2520   0.785   1.317   0.117 -1.6856 -0.4336  0.4396
  841SOL     OW 2521   1.369   2.177   0.077  0.7239  0.5509 -0.2916
  841SOL    HW1 2522   1.376   2.253   0.140  1.2688  0.0646 -0.5636
  841SOL    HW2 2523   1.350   2.209   3.121 -1.0510 -1.2248 -0.4308
  842SOL     OW 2524   0.063   0.494   0.273 -0.1681 -0.0919  0.2769
  842SOL    HW1 2525   0.106   0.445   0.348  1.5463  0.8863  0.2274
  842SOL    HW2 2526   0.143   0.536   0.220  0.7962 -0.6801 -0.5045
  843SOL     OW 2527   0.522   0.501   0.844  0.3445 -0.3294 -0.1649
  843SOL    HW1 2528   0.620   0.530   0.843 -3.1507  0.6875  0.0341
  843SOL    HW2 2529   0.483   0.464   0.931  1.0084 -2.2247  0.1600
  844SOL     OW 2530   2.321   2.554   2.555 -0.2858  0.1300 -0.0566
  844SOL    HW1 2531   2.275   2.562   2.462  2.8574 -0.3474 -0.9556
  844SOL    HW2 2532   2.303   2.628   2.628  1.9552 -0.0096  2.1491
  845SOL     OW 2533   0.020   2.468   1.899 -0.1555  0.2634  0.3969
  845SOL    HW1 2534   0.054   2.555   1.944 -1.1595 -0.8071 -1.6014
  845SOL    HW2 2535   3.078   2.482   1.844  2.8148 -2.6193 -0.7137
  846SOL     OW 2536   2.026   1.373   2.465  0.7555 -0.4199  0.2818
  846SOL    HW1 2537   1.969   1.459   2.475 -4.6731  2.2552  1.7259
  846SOL    HW2 2538   1.975   1.292   2.496  1.0271  1.1097  0.4176
  847SOL     OW 2539   2.889   0.401   2.103  0.2006  0.3000  0.4151
  847SOL    HW1 2540   2.876   0.478   2.035  2.5367  0.3957  0.6006
  847SOL    HW2 2541   2.978   0.353   2.089  2.4069  0.0564 -1.2535
  848SOL     OW 2542   2.717   2.870   3.112  0.2888  0.1358  0.9732
  848SOL    HW1 2543   2.759   2.872   0.061 -0.8947 -0.7068 -3.0792
  848SOL    HW2 2544   2.678   2.776   3.087 -1.9097 -0.0610  2.6997
  849SOL     OW 2545   0.419   2.941   0.662 -0.6177 -0.1009  0.0496
  849SOL    HW1 2546   0.433   3.039   0.663  0.7665 -1.3155 -1.6165
  849SOL    HW2 2547   0.322   2.930   0.686  0.3958  2.5183 -1.9096
  850SOL     OW 2548   0.930   2.442   0.305 -0.7419  0.2402  0.0778
  850SOL    HW1 2549   0.974   2.530   0.345  0.7330  1.3505  1.7604
  850SOL    HW2 2550   0.962   2.423   0.208  1.5790  0.3377  0.4816
  851SOL     OW 2551   1.723   0.531   2.746 -0.0677  0.2707 -0.0795
  851SOL    HW1 2552   1.733   0.626   2.714 -0.8889 -3.3892  0.2019
  851SOL    HW2 2553   1.810   0.484   2.724 -3.0101  0.7610 -0.4520
  852SOL     OW 2554   1.748   2.712   2.735 -0.7149  0.1471  0.2721
  852SOL    HW1 2555   1.844   2.676   2.742  0.0774 -0.1759  1.0547
  852SOL    HW2 2556   1.748   2.815   2.756  2.7103  0.3730 -0.4022
  853SOL     OW 2557   3.118   2.569   3.129  0.1794 -0.4554 -0.6079
  853SOL    HW1 2558   0.063   2.544   3.083 -1.4000 -1.0730 -0.4835
  853SOL    HW2 2559   3.105   2.673   0.002 -1.8390 -0.4401  0.6510
  854SOL     OW 2560   1.419   0.749   2.443  0.3308 -0.0678  0.1063
  854SOL    HW1 2561   1.382   0.749   2.346 -1.1139  0.0938 -2.1473
  854SOL    HW2 2562   1.488   0.676   2.465  0.2789  1.4664  0.8258
  855SOL     OW 2563   0.329   2.646   0.452  0.2762 -0.1576  0.0242
  855SOL    HW1 2564   0.329   2.586   0.370  0.8319 -1.7188  1.9110
  855SOL    HW2 2565   0.269   2.731   0.444 -1.0305  2.4353  0.2410
  856SOL     OW 2566   0.163   2.781   2.480 -0.0701  0.0215 -0.7477
  856SOL    HW1 2567   0.144   2.714   2.402 -0.6852 -0.3792 -0.3714
  856SOL    HW2 2568   0.257   2.776   2.507 -0.4649  0.8541 -2.6774
  857SOL     OW 2569   1.398   0.100   1.685  0.4678 -0.0704  0.4557
  857SOL    HW1 2570   1.441   0.054   1.605 -2.1780 -1.1080 -1.5429
  857SOL    HW2 2571   1.452   0.183   1.710  0.1497  0.5459  0.8254
  858SOL     OW 2572   0.062   2.111   1.628  0.2678  0.4811 -0.1138
  858SOL    HW1 2573   0.053   2.167   1.542  0.5544  1.3553  0.0869
  858SOL    HW2 2574   0.156   2.102   1.668  0.6062  1.5073 -0.1677
  859SOL     OW 2575   2.212   2.311   2.024 -0.4756 -0.1330 -0.0571
  859SOL    HW1 2576   2.118   2.326   1.993 -0.1173  0.0950  0.4939
  859SOL    HW2 2577   2.217   2.237   2.097 -0.5421 -2.9673 -1.6455
  860SOL     OW 2578   1.538   0.199   0.677 -0.1338 -0.3008 -0.8289
  860SOL    HW1 2579   1.599   0.225   0.758 -0.7707  0.6495  2.7013
  860SOL    HW2 2580   1.442   0.224   0.703  0.3149  2.4786 -1.4796
  861SOL     OW 2581   2.777   0.740   0.848 -0.3884 -0.5101  0.1782
  861SOL    HW1 2582   2.732   0.694   0.927 -1.3131  0.6422  0.2271
  861SOL    HW2 2583   2.833   0.821   0.876 -0.2649  0.6855 -0.6554
  862SOL     OW 2584   1.819   0.739   2.060  0.0193 -0.5362  0.4886
  862SOL    HW1 2585   1.839   0.639   2.089  1.2365  0.4563 -0.8284
  862SOL    HW2 2586   1.895   0.782   2.005  1.3530  0.9472  0.2089
  863SOL     OW 2587   0.792   0.538   0.866  0.0350  0.2241 -0.0460
  863SOL    HW1 2588   0.871   0.597   0.848 -2.2961 -1.3324 -0.4976
  863SOL    HW2 2589   0.807   0.464   0.937 -0.1081  1.5645  0.3837
  864SOL     OW 2590   2.986   2.874   2.199 -0.2837  0.1018  0.3424
  864SOL    HW1 2591   2.887   2.866   2.183  1.4482 -0.5264 -0.1856
  864SOL    HW2 2592   3.004   2.840   2.294  1.4317 -2.9984  1.0638
  865SOL     OW 2593   1.133   0.901   2.619 -0.0176  0.1500 -0.0958
  865SOL    HW1 2594   1.119   0.875   2.519  2.4038  1.3464 -0.7436
  865SOL    HW2 2595   1.138   0.817   2.679 -0.2643  0.0648  0.4368
  866SOL     OW 2596   3.011   3.003   0.361 -0.1593  0.5975 -0.0643
  866SOL    HW1 2597   2.967   3.047   0.440 -0.3097  0.2159 -1.8852
  866SOL    HW2 2598   3.106   2.974   0.387 -0.1194 -0.3672  2.1200
  867SOL     OW 2599   3.074   2.825   0.036 -0.5412  0.2311  0.4018
  867SOL    HW1 2600   2.992   2.857   0.089 -1.8862  1.9059 -1.0038
  867SOL    HW2 2601   3.083   2.887   3.096 -3.7114 -0.1815  0.1184
  868SOL     OW 2602   1.709   1.080   0.126  0.3530  0.0897 -0.2780
  868SOL    HW1 2603   1.773   1.158   0.100  0.0962 -1.3003  1.8827
  868SOL    HW2 2604   1.665   1.103   0.218 -2.1204 -1.1964  2.3743
  869SOL     OW 2605   3.107   2.121   0.685 -0.0760  0.0268 -0.1659
  869SOL    HW1 2606   3.010   2.122   0.693  3.6767 -1.4445 -0.9004
  869SOL    HW2 2607   0.012   2.209   0.677 -0.6389  0.5239 -1.3045
  870SOL     OW 2608   2.214   2.162   0.421  0.1870 -0.1202  0.0192
  870SOL    HW1 2609   2.188   2.067   0.440 -2.1524  1.1941  0.5187
  870SOL    HW2 2610   2.256   2.173   0.328 -0.0600  1.2899 -1.3641
  871SOL     OW 2611   0.681   1.152   1.036 -0.0017  0.2122 -0.4588
  871SOL    HW1 2612   0.724   1.058   1.038  0.6415  0.2668  0.6987
  871SOL    HW2 2613   0.646   1.181   1.128 -3.1701 -1.2791  1.2606
  872SOL     OW 2614   1.324   1.874   1.827 -0.2458  0.7402 -0.1052
  872SOL    HW1 2615   1.230   1.916   1.835 -2.2891  0.5833 -0.1503
  872SOL    HW2 2616   1.399   1.940   1.808 -2.0248 -2.6021  0.2264
  873SOL     OW 2617   0.638   2.214   2.018  0.0273  0.1178 -0.3006
  873SOL    HW1 2618   0.686   2.208   2.110 -1.7750 -1.3185 -1.1270
  873SOL    HW2 2619   0.549   2.261   2.031  0.4351  1.9109  2.5320
  874SOL     OW 2620   0.761   3.076   1.141  0.2610 -0.5641  0.0107
  874SOL    HW1 2621   0.743   3.065   1.241 -2.1722 -2.6126 -1.2377
  874SOL    HW2 2622   0.691   0.003   1.099  0.4499 -1.2114 -0.0716
  875SOL     OW 2623   2.905   0.272   1.236 -0.2632  0.4304 -0.0431
  875SOL    HW1 2624   2.903   0.364   1.198  0.8455 -5.3616  1.4741
  875SOL    HW2 2625   2.964   0.270   1.319 -0.1831 -1.1284 -3.7605
  876SOL     OW 2626   0.550   0.655   0.216 -0.7503 -0.0789  0.4401
  876SOL    HW1 2627   0.578   0.715   0.293  1.5352 -1.9302  2.7012
  876SOL    HW2 2628   0.638   0.633   0.169 -0.5428 -0.8119 -1.4272
  877SOL     OW 2629   0.572   0.417   1.375  0.0184  0.1426 -1.0606
  877SOL    HW1 2630   0.491   0.392   1.321 -0.4408  0.9989 -1.0929
  877SOL    HW2 2631   0.557   0.472   1.459  0.5830 -0.3872  1.6037
  878SOL     OW 2632   2.637   2.667   0.330  0.1118  0.2194 -0.4359
  878SOL    HW1 2633   2.616   2.758   0.368 -1.8112 -1.5597 -0.5133
  878SOL    HW2 2634   2.665   2.616   0.412  2.5334  1.3994  1.1716
  879SOL     OW 2635   2.598   1.567   1.174 -0.7146  0.4068 -0.2512
  879SOL    HW1 2636   2.635   1.473   1.162  2.0281 -5.9826 -2.2867
  879SOL    HW2 2637   2.503   1.565   1.224 -1.6040 -2.9169 -2.0021
  880SOL     OW 2638   1.420   2.597   0.726 -0.4949  0.4531  0.5052
  880SOL    HW1 2639   1.500   2.655   0.748 -2.1191  0.4946  1.2340
  880SOL    HW2 2640   1.453   2.500   0.725 -0.3163 -2.4514 -0.4046
  881SOL     OW 2641   1.007   2.273   0.077 -0.3394 -0.4929  0.2278
  881SOL    HW1 2642   1.089   2.329   0.046  1.7713 -2.8519 -0.2365
  881SOL    HW2 2643   1.024   2.216   0.157 -1.9937 -0.1638  0.7355
  882SOL     OW 2644   1.812   0.914   1.306  0.0340 -0.5401  0.1792
  882SOL    HW1 2645   1.810   0.813   1.290 -1.3025 -1.4736  1.1604
  882SOL    HW2 2646   1.731   0.942   1.359 -2.0859 -1.4025  2.4299
  883SOL     OW 2647   1.638   0.720   1.602 -0.0086 -0.5066  0.3210
  883SOL    HW1 2648   1.742   0.715   1.599 -1.1868  0.5420  0.7311
  883SOL    HW2 2649   1.604   0.692   1.512  0.1614  3.1758 -0.2902
  884SOL     OW 2650   2.702   0.653   0.210 -0.4368  0.1457  0.9883
  884SOL    HW1 2651   2.612   0.703   0.199  0.5844 -0.3707 -0.6064
  884SOL    HW2 2652   2.773   0.713   0.249  1.0006  2.5488 -0.1717
  885SOL     OW 2653   1.352   1.763   3.060  0.1146 -0.2046  0.0265
  885SOL    HW1 2654   1.252   1.752   3.066  0.6732  2.1769  0.1960
  885SOL    HW2 2655   1.377   1.771   2.962  1.8366 -1.2945 -2.1263
  886SOL     OW 2656   1.750   1.488   2.738  0.6062 -0.3983  0.7276
  886SOL    HW1 2657   1.764   1.548   2.826 -0.2590  1.0291  0.3480
  886SOL    HW2 2658   1.822   1.420   2.723  1.3596  0.9332  0.1541
  887SOL     OW 2659   1.546   0.355   1.441 -0.1597 -0.1443  0.6853
  887SOL    HW1 2660   1.529   0.283   1.372 -1.6927  1.8148  1.7207
  887SOL    HW2 2661   1.594   0.319   1.523 -2.7930  1.5813  0.1562
  888SOL     OW 2662   2.617   0.647   1.878 -0.8845 -0.3550 -0.6510
  888SOL    HW1 2663   2.711   0.644   1.911 -2.7526 -0.6777 -2.6345
  888SOL    HW2 2664   2.604   0.745   1.845  1.6231  1.5675  2.9013
  889SOL     OW 2665   0.166   2.704   0.952 -0.2622 -0.2009  0.3623
  889SOL    HW1 2666   0.173   2.613   0.903  1.4048  3.2664  1.1542
  889SOL    HW2 2667   0.145   2.772   0.879  1.3664 -0.6346 -1.1093
  890SOL     OW 2668   2.352   2.666   0.206 -0.0553  0.0204  0.1649
  890SOL    HW1 2669   2.317   2.664   0.110 -0.6301 -2.6831  1.8524
  890SOL    HW2 2670   2.451   2.651   0.217  0.2509  2.2211  1.1287
  891SOL     OW 2671   0.673   1.228   2.903 -0.8537 -0.5300 -0.2245
  891SOL    HW1 2672   0.773   1.255   2.884 -0.3764  0.1385 -2.0966
  891SOL    HW2 2673   0.638   1.160   2.833 -1.1677  0.7220 -1.2501
  892SOL     OW 2674   3.137   3.005   1.194  0.3748 -0.4424 -0.0399
  892SOL    HW1 2675   0.014   3.074   1.268 -0.3552 -1.5910 -2.2050
  892SOL    HW2 2676   3.046   3.032   1.146 -1.1442 -0.3456 -1.4530
  893SOL     OW 2677   1.252   0.317   1.296  0.1365  0.6185  0.6194
  893SOL    HW1 2678   1.246   0.410   1.336  3.0262 -5.9801  1.5043
  893SOL    HW2 2679   1.167   0.257   1.318 -0.1875 -2.4048  1.7953
  894SOL     OW 2680   2.308   0.875   0.868  0.0359 -0.0249 -0.1014
  894SOL    HW1 2681   2.246   0.912   0.800 -1.7042 -1.8682 -0.7536
  894SOL    HW2 2682   2.403   0.911   0.849  0.3324 -0.0872 -0.2760
  895SOL     OW 2683   1.988   2.048   2.246 -0.1382 -0.2799  0.7924
  895SOL    HW1 2684   2.006   2.134   2.297  1.0068  1.3326  0.3563
  895SOL    HW2 2685   2.079   1.994   2.235  1.6485 -3.4886 -3.3563
  896SOL     OW 2686   1.604   0.184   1.963 -0.6438  0.3722  0.2217
  896SOL    HW1 2687   1.570   0.251   1.898  0.8854 -2.6096  0.9821
  896SOL    HW2 2688   1.693   0.151   1.923  2.5933 -1.5241 -0.0061
  897SOL     OW 2689   0.649   1.672   2.098  0.0295  0.4265 -0.0918
  897SOL    HW1 2690   0.699   1.678   2.008  2.3701 -1.3105  2.3788
  897SOL    HW2 2691   0.717   1.707   2.164  1.2249  2.0339  0.7905
  898SOL     OW 2692   2.378   2.713   2.248  0.6862 -0.3310  0.2828
  898SOL    HW1 2693   2.409   2.754   2.157 -0.8667  0.1062  1.7254
  898SOL    HW2 2694   2.359   2.614   2.242  1.2203  5.7546  1.5344
  899SOL     OW 2695   0.926   1.040   1.193 -0.1938 -0.5115 -0.5637
  899SOL    HW1 2696   0.966   1.134   1.207  1.6769 -1.2663  0.6037
  899SOL    HW2 2697   0.967   0.999   1.110 -1.2568 -2.2296  2.5773
  900SOL     OW 2698   1.684   2.300   2.886 -0.0371  0.2816  0.3160
  900SOL    HW1 2699   1.641   2.244   2.956  2.4091 -0.7778 -1.9476
  900SOL    HW2 2700   1.666   2.252   2.800 -0.3613 -0.9075  1.1213
  901SOL     OW 2701   0.696   2.098   2.716  0.4977 -0.2368  0.1949
  901SOL    HW1 2702   0.610   2.102   2.660 -0.1755  1.3855  0.4663
  901SOL    HW2 2703   0.767   2.040   2.672 -4.2841 -0.2459  3.0489
  902SOL     OW 2704   2.366   1.527   0.234 -0.2536  0.2058 -0.6892
  902SOL    HW1 2705   2.394   1.615   0.191 -0.2044 -1.8042 -1.7360
  902SOL    HW2 2706   2.439   1.490   0.294 -0.2905 -3.1494 -0.9351
  903SOL     OW 2707   2.061   0.905   0.225  0.9246 -0.4483 -0.6747
  903SOL    HW1 2708   2.127   0.983   0.228 -0.0412 -0.3946  0.3767
  903SOL    HW2 2709   2.009   0.897   0.140 -1.7074 -0.3785  1.3915
  904SOL     OW 2710   0.665   0.881   2.919  0.4466  0.2444  0.5262
  904SOL    HW1 2711   0.767   0.881   2.918  0.0241  1.8676  0.7067
  904SOL    HW2 2712   0.622   0.929   3.000 -1.8254  2.0867 -1.2933
  905SOL     OW 2713   2.422   0.500   1.146  0.6498  0.6170  0.1107
  905SOL    HW1 2714   2.413   0.400   1.126 -0.4389 -1.3059 -1.2936
  905SOL    HW2 2715   2.336   0.531   1.192  1.2816  0.0260 -0.0186
  906SOL     OW 2716   2.802   2.084   1.013 -0.6220 -0.0279  0.0184
  906SOL    HW1 2717   2.745   2.146   1.066  2.4516 -1.9495 -2.3067
  906SOL    HW2 2718   2.892   2.131   0.993 -1.6216 -2.3430  3.0283
  907SOL     OW 2719   1.311   0.662   0.665  0.4558  0.3141 -0.4771
  907SOL    HW1 2720   1.304   0.590   0.594 -1.3130  2.9808  0.3616
  907SOL    HW2 2721   1.232   0.731   0.653  1.3370 -0.6983 -1.1836
  908SOL     OW 2722   2.214   3.073   1.467  0.2139  0.1623 -0.2979
  908SOL    HW1 2723   2.173   0.017   1.436 -1.4625 -0.3110  1.8962
  908SOL    HW2 2724   2.249   3.083   1.559 -0.4579  1.7983  2.2876
  909SOL     OW 2725   2.469   0.953   1.464 -0.2664 -0.3165  0.1897
  909SOL    HW1 2726   2.556   0.916   1.442 -0.9597  1.6536 -0.7405
  909SOL    HW2 2727   2.441   1.028   1.408 -2.1424 -1.1480  1.6509
  910SOL     OW 2728   1.496   2.687   2.366 -0.4786  0.4616 -0.0857
  910SOL    HW1 2729   1.411   2.647   2.329  3.0040 -0.5009  0.5486
  910SOL    HW2 2730   1.528   2.781   2.329  1.0597  2.4176  1.3876
  911SOL     OW 2731   2.134   0.371   2.021 -0.1319  0.1811 -0.4622
  911SOL    HW1 2732   2.106   0.306   1.944  0.2245 -0.6506  2.4977
  911SOL    HW2 2733   2.198   0.446   1.989 -0.2699 -0.3697  1.1932
  912SOL     OW 2734   2.446   1.728   1.545 -0.5056  0.1980 -0.6589
  912SOL    HW1 2735   2.497   1.812   1.505  2.7587  3.9547 -1.3121
  912SOL    HW2 2736   2.390   1.751   1.627  0.8198 -3.0441 -2.1080
  913SOL     OW 2737   2.649   1.909   1.480  0.2044 -0.0609  0.0363
  913SOL    HW1 2738   2.612   2.006   1.496  2.1607  1.5824 -1.0897
  913SOL    HW2 2739   2.688   1.873   1.569  1.2659  1.1686 -2.4830
  914SOL     OW 2740   2.182   1.419   1.415 -0.3330  0.4644  0.1128
  914SOL    HW1 2741   2.264   1.467   1.377 -2.3233  1.3003  1.4415
  914SOL    HW2 2742   2.135   1.484   1.481 -0.9953 -0.7671  1.2471
  915SOL     OW 2743   0.779   1.234   1.367 -0.0372  0.3865  0.1159
  915SOL    HW1 2744   0.718   1.212   1.448 -1.1881  0.9771  3.3894
  915SOL    HW2 2745   0.861   1.173   1.359 -0.2019  0.1163  0.0073
  916SOL     OW 2746   2.265   2.629   1.226  0.7591 -0.8812  0.4031
  916SOL    HW1 2747   2.309   2.602   1.315  0.0974  1.0024  0.9792
  916SOL    HW2 2748   2.223   2.723   1.251 -0.2323 -0.1926  1.4883
  917SOL     OW 2749   2.507   1.969   0.073 -0.3785  0.3302 -0.1202
  917SOL    HW1 2750   2.568   1.944   0.153  1.6503  1.7783 -0.6798
  917SOL    HW2 2751   2.568   1.991   3.135 -0.3509 -2.4709  0.9705
  918SOL     OW 2752   2.015   2.578   2.651  0.4315 -0.0156  0.6788
  918SOL    HW1 2753   2.036   2.478   2.635  2.1814 -1.2056 -2.6429
  918SOL    HW2 2754   2.045   2.601   2.748  0.7117 -0.0857  2.3875
  919SOL     OW 2755   1.481   2.093   1.750  0.1048 -0.4319 -0.5781
  919SOL    HW1 2756   1.557   2.041   1.793  1.4771 -0.5364  3.1690
  919SOL    HW2 2757   1.489   2.093   1.651  1.2628  1.6995  3.9457
  920SOL     OW 2758   2.936   0.229   2.753 -0.3756  0.7268  0.5050
  920SOL    HW1 2759   3.034   0.262   2.770  0.4890 -0.0721  0.0162
  920SOL    HW2 2760   2.879   0.300   2.707  1.2558  3.3588 -0.4357
  921SOL     OW 2761   2.716   0.205   2.202 -0.0242 -0.1262 -0.6964
  921SOL    HW1 2762   2.761   0.144   2.270 -2.2440 -0.2580 -0.9543
  921SOL    HW2 2763   2.780   0.270   2.157 -0.2888  3.4503  0.5366
  922SOL     OW 2764   2.186   2.419   0.167 -0.2891 -0.2362 -0.1410
  922SOL    HW1 2765   2.245   2.494   0.203 -1.2948  0.9640  0.1945
  922SOL    HW2 2766   2.240   2.338   0.128  1.8056 -4.4208  1.1989
  923SOL     OW 2767   0.498   2.106   0.320 -0.3040 -0.2331  0.1535
  923SOL    HW1 2768   0.572   2.104   0.245  1.9346  1.4194 -0.3507
  923SOL    HW2 2769   0.489   2.202   0.336  1.1656 -1.9720  1.5806
  924SOL     OW 2770   0.800   0.258   0.063  0.0773 -0.0910 -0.1227
  924SOL    HW1 2771   0.798   0.172   0.121 -0.1636 -1.0377 -1.1632
  924SOL    HW2 2772   0.845   0.332   0.114 -3.1040 -3.1743  0.6999
  925SOL     OW 2773   2.188   1.008   0.648  0.0086  0.5941  0.0531
  925SOL    HW1 2774   2.253   1.004   0.576  1.6671  2.8494  0.3292
  925SOL    HW2 2775   2.191   1.097   0.690 -0.4604  0.0702  1.5693
  926SOL     OW 2776   2.944   0.904   0.995 -0.5866  0.1622  0.2116
  926SOL    HW1 2777   2.930   0.959   1.083 -1.3761  1.7382  0.1001
  926SOL    HW2 2778   2.971   0.805   1.014 -1.3727 -1.7982  1.8363
  927SOL     OW 2779   3.081   1.087   2.912 -0.3004 -0.3841  0.0177
  927SOL    HW1 2780   0.006   1.008   2.898 -0.8532  0.5703 -0.3684
  927SOL    HW2 2781   3.128   1.172   2.885 -0.5620 -0.2473 -0.4898
  928SOL     OW 2782   0.074   0.397   2.330 -0.4805  0.3347 -0.6968
  928SOL    HW1 2783   0.167   0.416   2.364 -1.7957  0.4424 -1.6372
  928SOL    HW2 2784   0.054   0.300   2.356 -0.8273 -0.6388  1.3294
  929SOL     OW 2785   3.098   2.725   1.125  0.7998 -0.0995 -0.2420
  929SOL    HW1 2786   3.084   2.816   1.171 -1.0228 -1.7895  0.3409
  929SOL    HW2 2787   0.026   2.732   1.048 -0.6799 -2.1864  0.2302
  930SOL     OW 2788   2.026   1.589   1.544 -0.0867  0.4409  0.2625
  930SOL    HW1 2789   2.016   1.588   1.642  0.4159 -0.4455 -1.7597
  930SOL    HW2 2790   1.933   1.589   1.500  1.3366 -1.9940 -3.7249
  931SOL     OW 2791   1.381   1.646   0.706 -0.3310 -0.1997 -0.0201
  931SOL    HW1 2792   1.442   1.662   0.790  3.3871  0.9739  3.5743
  931SOL    HW2 2793   1.323   1.727   0.689  0.4887 -0.7127 -0.5638
  932SOL     OW 2794   2.695   1.323   0.962 -0.2444 -0.1175 -0.1820
  932SOL    HW1 2795   2.685   1.266   1.044 -1.0436  1.4637 -1.3924
  932SOL    HW2 2796   2.611   1.378   0.940 -0.0782  3.6879  1.3568
  933SOL     OW 2797   2.377   1.601   1.319 -0.5838  0.7966 -0.3143
  933SOL    HW1 2798   2.322   1.673   1.278 -1.0974 -0.7304  0.4252
  933SOL    HW2 2799   2.407   1.628   1.412  1.4952 -1.5341  0.8761
  934SOL     OW 2800   1.720   2.706   1.472  0.3504  0.1959 -0.4588
  934SOL    HW1 2801   1.786   2.721   1.555 -0.0910  1.5629 -1.4648
  934SOL    HW2 2802   1.740   2.624   1.422 -0.2257  2.8336 -0.3436
  935SOL     OW 2803   0.344   1.580   0.760 -0.0985  0.4339  0.3360
  935SOL    HW1 2804   0.354   1.682   0.747  1.5222 -4.5574 -1.0216
  935SOL    HW2 2805   0.428   1.546   0.811  0.5057 -1.0560 -1.4507
  936SOL     OW 2806   3.128   1.451   0.654 -0.1615  0.3308 -0.1685
  936SOL    HW1 2807   3.096   1.358   0.631 -1.9678 -1.5611  1.3445
  936SOL    HW2 2808   0.040   1.454   0.743  0.2087 -1.8116  1.7564
  937SOL     OW 2809   1.647   2.687   0.955  0.3756 -0.3222  0.3326
  937SOL    HW1 2810   1.683   2.717   1.047 -0.0659  2.0620  0.6353
  937SOL    HW2 2811   1.596   2.763   0.910 -1.5973 -1.2568 -1.1470
  938SOL     OW 2812   2.670   2.274   1.136 -0.1532  0.0618 -0.7456
  938SOL    HW1 2813   2.569   2.266   1.129 -0.3953  1.0693  0.1055
  938SOL    HW2 2814   2.700   2.371   1.141 -1.2511 -1.8071  0.5844
  939SOL     OW 2815   0.706   2.103   0.148  0.3148 -0.2905  0.2528
  939SOL    HW1 2816   0.767   2.162   0.205  1.2488  0.4637 -0.0285
  939SOL    HW2 2817   0.710   2.003   0.173  1.6907  0.2937  0.9935
  940SOL     OW 2818   2.917   0.104   2.982 -0.2959 -0.7147 -0.4984
  940SOL    HW1 2819   2.988   0.148   3.042  2.1111 -1.5608  2.0758
  940SOL    HW2 2820   2.924   0.146   2.892  1.0924  0.6185  2.9278
  941SOL     OW 2821   1.222   0.275   3.140 -0.1851 -0.0688  0.1296
  941SOL    HW1 2822   1.259   0.187   0.032  0.3550 -0.7057 -0.5320
  941SOL    HW2 2823   1.253   0.352   0.057  1.0827 -0.0639 -0.9786
  942SOL     OW 2824   0.993   1.399   1.634 -0.1412 -0.0397 -0.4251
  942SOL    HW1 2825   0.927   1.327   1.658 -0.1276 -1.3981  0.0329
  942SOL    HW2 2826   0.935   1.479   1.612  0.7531 -0.0557 -1.2735
  943SOL     OW 2827   1.922   1.325   1.343  0.1401  0.5188 -0.1913
  943SOL    HW1 2828   1.885   1.299   1.430  0.2423  0.4668 -2.9514
  943SOL    HW2 2829   2.021   1.350   1.361  2.8243 -0.3558  0.6858
  944SOL     OW 2830   1.883   0.719   1.555 -0.5547  0.0233 -0.2775
  944SOL    HW1 2831   1.859   0.701   1.457  0.3975  0.2042  0.2376
  944SOL    HW2 2832   1.970   0.667   1.574  1.7255  1.4657 -1.6970
  945SOL     OW 2833   2.981   0.023   0.842  0.4322 -0.2018 -0.1388
  945SOL    HW1 2834   2.899   0.074   0.873 -1.4017  2.4234 -2.2817
  945SOL    HW2 2835   3.065   0.058   0.878  0.7550 -2.2415 -2.6978
  946SOL     OW 2836   0.532   0.606   1.594 -0.0331  0.1197  0.1883
  946SOL    HW1 2837   0.565   0.561   1.680  0.6079  3.1358  2.9508
  946SOL    HW2 2838   0.434   0.622   1.618  2.3281 -1.6759  1.1915
  947SOL     OW 2839   0.602   2.692   0.494 -0.2291  0.3802 -0.0528
  947SOL    HW1 2840   0.511   2.657   0.480  2.0100  1.7804  1.3860
  947SOL    HW2 2841   0.634   2.674   0.590  0.2915 -2.1456 -2.2776
  948SOL     OW 2842   2.793   1.298   1.838 -0.4834 -0.3619 -0.3368
  948SOL    HW1 2843   2.742   1.350   1.770 -0.6844  1.4931  0.2988
  948SOL    HW2 2844   2.889   1.282   1.798  1.4563  3.0122 -0.3013
  949SOL     OW 2845   0.562   1.028   2.742  0.4242  0.4082  0.6403
  949SOL    HW1 2846   0.605   0.964   2.811  0.3555 -0.5256  1.8761
  949SOL    HW2 2847   0.584   1.006   2.648 -1.6866 -2.0301  1.7604
  950SOL     OW 2848   1.030   0.691   0.837  0.4616  0.7402 -0.0749
  950SOL    HW1 2849   1.050   0.716   0.933 -1.3775 -1.2038 -3.7662
  950SOL    HW2 2850   1.064   0.760   0.770  1.8274 -0.5076 -1.2278
  951SOL     OW 2851   0.959   2.248   2.139  0.2107  0.0251 -0.2193
  951SOL    HW1 2852   1.048   2.256   2.091  1.3271 -1.1361  1.4776
  951SOL    HW2 2853   0.952   2.317   2.212  0.4366  1.1136  0.2753
  952SOL     OW 2854   0.723   1.844   0.215  0.1664 -0.3821 -0.6486
  952SOL    HW1 2855   0.766   1.758   0.257  0.4507  0.7669 -3.0448
  952SOL    HW2 2856   0.635   1.828   0.162  1.2542  1.5558 -0.1949
  953SOL     OW 2857   2.101   2.933   2.328  0.1118 -0.1432  0.0861
  953SOL    HW1 2858   2.131   3.008   2.266  1.5763  0.1363  1.7623
  953SOL    HW2 2859   2.092   2.841   2.286  0.2308 -0.3926 -0.9779
  954SOL     OW 2860   1.612   1.283   0.713  0.1979 -0.2352 -0.5853
  954SOL    HW1 2861   1.634   1.340   0.637 -2.7593 -2.8617  0.3430
  954SOL    HW2 2862   1.514   1.299   0.733 -0.8713  2.1938  1.0115
  955SOL     OW 2863   0.405   2.265   2.421  0.0743  0.0687  0.5279
  955SOL    HW1 2864   0.321   2.306   2.374 -1.9828  2.5611 -2.4900
  955SOL    HW2 2865   0.455   2.336   2.471  0.3004 -3.0114  1.6950
  956SOL     OW 2866   1.854   0.400   1.364  0.0580 -0.0229 -0.4476
  956SOL    HW1 2867   1.817   0.367   1.453  1.8342 -0.1467  0.6150
  956SOL    HW2 2868   1.832   0.340   1.285 -0.0648 -0.7344 -0.5533
  957SOL     OW 2869   1.786   1.994   2.783 -0.4456 -0.3544 -0.3625
  957SOL    HW1 2870   1.789   1.954   2.692  1.0993 -0.6367  5.0581
  957SOL    HW2 2871   1.716   1.943   2.838 -2.7611  0.5929  3.6837
  958SOL     OW 2872   1.057   2.458   1.171  0.3733 -0.4167 -0.5693
  958SOL    HW1 2873   1.057   2.373   1.111  2.1586 -0.9410  0.5327
  958SOL    HW2 2874   1.015   2.542   1.128 -0.0408 -2.1983  0.4521
  959SOL     OW 2875   1.892   2.456   3.011 -0.1474 -0.1322 -0.3764
  959SOL    HW1 2876   1.898   2.452   3.115  1.8701  1.4982  1.7731
  959SOL    HW2 2877   1.812   2.396   2.975 -1.0815  0.6964  0.1831
  960SOL     OW 2878   0.028   0.320   2.780  0.4482 -0.0683  0.1724
  960SOL    HW1 2879   0.081   0.235   2.781 -0.6783  0.5151 -0.3369
  960SOL    HW2 2880   0.078   0.393   2.836  0.8673 -0.7142  4.0647
  961SOL     OW 2881   0.840   0.895   2.647  0.0375  0.7880 -0.3850
  961SOL    HW1 2882   0.924   0.951   2.661 -1.2962  0.0678 -0.4259
  961SOL    HW2 2883   0.861   0.800   2.677  0.9976 -0.1291 -0.3369
  962SOL     OW 2884   1.045   1.183   3.068 -0.2203  0.0975  0.0821
  962SOL    HW1 2885   1.132   1.227   3.088  1.4464 -0.3348  1.2725
  962SOL    HW2 2886   0.973   1.216   3.132 -0.0841  2.3683 -0.9536
  963SOL     OW 2887   2.675   1.962   2.991 -0.1829  0.1171 -0.0378
  963SOL    HW1 2888   2.759   1.903   3.001 -0.3054 -1.6583  0.5930
  963SOL    HW2 2889   2.624   1.942   2.905  1.9342  1.1804  0.4014
  964SOL     OW 2890   1.274   2.837   1.109 -0.0571 -0.2273 -0.1075
  964SOL    HW1 2891   1.225   2.920   1.071  0.0354  3.2027  0.0315
  964SOL    HW2 2892   1.264   2.754   1.048 -0.3841 -0.0100 -0.0299
  965SOL     OW 2893   0.987   1.724   1.094 -0.2865  0.5591 -0.4142
  965SOL    HW1 2894   0.952   1.720   1.191 -1.0962 -1.1019 -2.1477
  965SOL    HW2 2895   1.078   1.677   1.081  3.4247 -0.9906  0.2508
  966SOL     OW 2896   0.113   1.543   3.055  0.2547  0.0298 -0.1101
  966SOL    HW1 2897   0.126   1.628   3.003 -0.1372  0.8252 -0.2740
  966SOL    HW2 2898   0.076   1.569   0.008  0.0222 -1.4698  0.6157
  967SOL     OW 2899   1.857   0.147   1.852 -0.7249 -0.2489  0.3974
  967SOL    HW1 2900   1.874   0.136   1.956  1.2229  1.4432  0.6695
  967SOL    HW2 2901   1.913   0.079   1.798 -0.7787 -0.6856 -1.5627
  968SOL     OW 2902   1.858   0.938   0.812 -1.4097 -0.9179  0.6088
  968SOL    HW1 2903   1.785   0.929   0.884 -0.1359  0.3182  2.9514
  968SOL    HW2 2904   1.879   1.037   0.794 -2.3479  1.6547  0.7401
  969SOL     OW 2905   0.265   1.189   2.209  0.7474  0.0050  0.7186
  969SOL    HW1 2906   0.361   1.165   2.198 -0.1630 -0.1263 -1.2348
  969SOL    HW2 2907   0.245   1.265   2.146 -4.0385 -2.6526  0.9696
  970SOL     OW 2908   2.469   1.478   0.903 -0.1704 -0.3311  0.2916
  970SOL    HW1 2909   2.407   1.459   0.980 -1.7516 -0.4809  1.5914
  970SOL    HW2 2910   2.417   1.503   0.817 -2.0859  1.6106  0.4229
  971SOL     OW 2911   0.439   3.135   1.432  0.2192 -0.0411  0.2729
  971SOL    HW1 2912   0.526   3.080   1.435 -0.7108  0.5149 -0.0552
  971SOL    HW2 2913   0.362   3.082   1.386 -1.8213 -0.1491 -0.6183
  972SOL     OW 2914   0.682   0.657   2.746  0.5886 -0.5176 -0.5984
  972SOL    HW1 2915   0.679   0.749   2.787 -0.1040 -0.8247  1.0856
  972SOL    HW2 2916   0.761   0.635   2.684 -1.1096 -0.2458  0.9204
  973SOL     OW 2917   0.101   1.042   1.064 -0.6957 -0.1410 -0.1560
  973SOL    HW1 2918   0.054   1.105   1.131  0.4479 -1.1149 -0.4673
  973SOL    HW2 2919   0.129   1.091   0.977  0.7378  0.3900 -0.8878
  974SOL     OW 2920   2.307   0.902   1.845 -0.5353 -0.0800  0.2762
  974SOL    HW1 2921   2.264   0.973   1.787  0.3006  1.0375 -2.5128
  974SOL    HW2 2922   2.410   0.891   1.826  2.7364 -2.1947 -3.3246
  975SOL     OW 2923   2.300   3.066   0.243  0.0251  0.2715  0.1433
  975SOL    HW1 2924   2.354   3.031   0.163  0.6663  0.0505 -1.4612
  975SOL    HW2 2925   2.236   2.997   0.279 -0.1868  0.8988 -0.4215
  976SOL     OW 2926   3.047   1.202   1.748  0.6082 -0.2334 -0.0837
  976SOL    HW1 2927   3.065   1.297   1.708 -0.5282  2.3260 -1.5445
  976SOL    HW2 2928   3.128   1.170   1.796 -1.5800 -2.0875 -0.0089
  977SOL     OW 2929   0.995   2.832   3.099  0.2375 -0.0725  0.8759
  977SOL    HW1 2930   1.043   2.923   3.094 -0.1263  0.1773  0.1459
  977SOL    HW2 2931   0.981   2.806   0.058 -0.3014  2.8459 -0.4277
  978SOL     OW 2932   0.391   1.581   0.224 -0.1815  0.2536  0.5326
  978SOL    HW1 2933   0.373   1.487   0.184 -0.1137 -0.3003 -1.8452
  978SOL    HW2 2934   0.409   1.577   0.327  0.1770 -0.6937  2.3803
  979SOL     OW 2935   1.605   1.770   1.451 -0.5821 -0.5376  0.0397
  979SOL    HW1 2936   1.633   1.869   1.473  0.2031 -0.7885  2.0456
  979SOL    HW2 2937   1.689   1.724   1.415  4.4285 -1.0996 -0.7776
  980SOL     OW 2938   0.483   1.426   1.967 -0.3023 -0.1257  0.4306
  980SOL    HW1 2939   0.583   1.430   1.982 -2.0498 -0.7955 -3.0927
  980SOL    HW2 2940   0.452   1.387   1.878  1.1732  0.1102 -0.8227
  981SOL     OW 2941   3.136   1.601   0.152 -0.0356 -0.0730 -0.1775
  981SOL    HW1 2942   3.105   1.695   0.168  0.0701  1.7910 -1.6049
  981SOL    HW2 2943   0.046   1.567   0.231  1.3580 -1.0924 -4.3626
  982SOL     OW 2944   2.574   2.543   2.622 -0.1096 -0.6754  0.4652
  982SOL    HW1 2945   2.483   2.530   2.578  1.6640 -0.0105  1.1363
  982SOL    HW2 2946   2.593   2.645   2.636 -0.2503 -2.1384 -1.1701
  983SOL     OW 2947   1.209   0.556   1.397 -0.7786  1.1060  0.4896
  983SOL    HW1 2948   1.304   0.596   1.400 -0.9363  1.0194  0.3781
  983SOL    HW2 2949   1.138   0.628   1.413 -1.1409 -2.0214 -0.8915
  984SOL     OW 2950   1.165   0.073   2.565 -0.5004 -0.3022  0.7104
  984SOL    HW1 2951   1.240   0.139   2.591  1.4956 -1.9506  0.7708
  984SOL    HW2 2952   1.091   0.069   2.632  1.1266  0.2399 -0.5330
  985SOL     OW 2953   1.722   2.402   1.649 -0.3772  0.4922 -0.5741
  985SOL    HW1 2954   1.699   2.447   1.737  0.9486 -0.0267  0.2793
  985SOL    HW2 2955   1.827   2.395   1.630  0.9856  1.1040 -0.9939
  986SOL     OW 2956   2.492   3.113   2.257 -0.0024 -0.0089 -0.2075
  986SOL    HW1 2957   2.480   3.069   2.167 -0.5229 -1.4321  1.0503
  986SOL    HW2 2958   2.537   0.061   2.256 -1.6060 -2.7813 -0.4885
  987SOL     OW 2959   2.479   0.296   2.321 -0.2489  0.1209  0.6750
  987SOL    HW1 2960   2.567   0.266   2.282 -0.0929  1.3561  1.9051
  987SOL    HW2 2961   2.458   0.399   2.306 -1.2687  1.4289  0.7854
  988SOL     OW 2962   2.665   0.910   2.650  0.2426  0.3761  0.5786
  988SOL    HW1 2963   2.566   0.922   2.628  1.8914  0.6023 -0.0074
  988SOL    HW2 2964   2.729   0.940   2.578  0.5334  2.0290 -0.9278
  989SOL     OW 2965   2.322   2.145   2.258 -0.5287 -0.2113  0.2800
  989SOL    HW1 2966   2.295   2.049   2.238  2.4050  0.7262  0.0894
  989SOL    HW2 2967   2.426   2.143   2.272  0.3864  0.1872  0.6616
  990SOL     OW 2968   0.269   1.096   2.763 -0.1169 -0.3008 -0.1143
  990SOL    HW1 2969   0.222   1.182   2.790 -2.8891  0.5206 -1.0506
  990SOL    HW2 2970   0.370   1.089   2.763 -0.0841  0.3439 -2.3857
  991SOL     OW 2971   0.705   1.585   2.881  0.0580 -0.0562 -0.0911
  991SOL    HW1 2972   0.629   1.536   2.920  0.6077 -0.3920 -1.4994
  991SOL    HW2 2973   0.679   1.684   2.867  1.2553 -0.2094  0.9503
  992SOL     OW 2974   2.988   2.006   1.891 -0.1335  0.3961 -0.0040
  992SOL    HW1 2975   3.024   2.098   1.918  2.2960 -1.3235 -0.2939
  992SOL    HW2 2976   3.049   1.944   1.842 -1.8394 -0.3360 -2.7667
  993SOL     OW 2977   0.390   0.062   1.006  0.1693  0.2040  0.2739
  993SOL    HW1 2978   0.410   3.099   1.010 -0.9557 -1.6066 -0.3928
  993SOL    HW2 2979   0.400   0.098   0.910 -1.5816 -2.4957  1.7154
  994SOL     OW 2980   0.269   1.680   1.498  0.2733 -0.6076  0.4134
  994SOL    HW1 2981   0.361   1.701   1.540 -1.3585  1.4603 -0.9001
  994SOL    HW2 2982   0.195   1.739   1.540 -0.3430  0.2548  1.1825
  995SOL     OW 2983   2.219   1.648   2.511 -0.2046 -0.0824  0.3768
  995SOL    HW1 2984   2.297   1.693   2.563 -2.3209  1.4407  1.4916
  995SOL    HW2 2985   2.240   1.656   2.409  2.9711  0.7779 -3.1267
  996SOL     OW 2986   2.163   1.465   2.710 -0.1904  0.0905  0.0932
  996SOL    HW1 2987   2.188   1.518   2.625  0.3436  0.0251 -0.2894
  996SOL    HW2 2988   2.089   1.401   2.683 -1.5893  0.8799 -0.5318
  997SOL     OW 2989   1.912   0.989   1.685 -0.1733 -0.2120  0.0543
  997SOL    HW1 2990   1.887   0.894   1.652  1.1319  0.1796 -0.7032
  997SOL    HW2 2991   1.911   1.052   1.608  1.3063 -1.8843 -0.5290
  998SOL     OW 2992   2.379   2.251   1.096  0.1147 -0.3953 -0.7467
  998SOL    HW1 2993   2.385   2.151   1.100 -2.1659  0.6441 -0.0610
  998SOL    HW2 2994   2.355   2.287   1.186  0.0077 -0.1623 -0.3505
  999SOL     OW 2995   2.403   2.202   0.625  0.4041 -0.4426 -0.1509
  999SOL    HW1 2996   2.345   2.223   0.543  0.3424 -1.3887 -0.0887
  999SOL    HW2 2997   2.368   2.268   0.699  0.0500  3.0216  2.0663
 1000SOL     OW 2998   1.131   2.870   2.505 -0.3290 -0.6888  0.2244
 1000SOL    HW1 2999   1.192   2.927   2.564 -1.3115 -2.3579  1.8942
 1000SOL    HW2 3000   1.082   2.810   2.570  0.6256  0.0379  2.1236
   3.14014   3.14014   3.14014
